Gromacs Runs On Most of All Computer Systems in water
11622
    1U      O5'    1   2.179   2.517   4.740  0.1469  0.3332  0.0038
    1U      H5T    2   2.255   2.559   4.780  1.9633 -1.9172 -0.9110
    1U      C5'    3   2.059   2.586   4.750  0.5038  0.6587  0.7269
    1U     H5'1    4   2.040   2.623   4.851 -2.6599  0.6109  0.1954
    1U     H5'2    5   1.974   2.523   4.723  1.1232 -0.1325  0.6054
    1U      C4'    6   2.038   2.703   4.655  0.1744 -0.4037  0.2239
    1U      H4'    7   1.939   2.740   4.679 -0.1328 -1.8043  1.1873
    1U      O4'    8   2.142   2.791   4.688 -0.0420 -0.3251  0.2721
    1U      C1'    9   2.172   2.866   4.570 -0.4362 -0.1763 -0.4916
    1U      H1'   10   2.141   2.967   4.594 -0.5249 -0.7538  1.9966
    1U       N1   11   2.322   2.876   4.544  0.3197  0.2350  0.1033
    1U       C6   12   2.397   2.763   4.526 -0.2833  0.1254 -0.4463
    1U       H6   13   2.353   2.666   4.542  1.9497 -0.9828 -0.8793
    1U       C5   14   2.531   2.765   4.502  0.4125 -0.0895  0.8588
    1U       H5   15   2.593   2.677   4.493  0.4357  0.1579 -1.7100
    1U       C4   16   2.603   2.891   4.489  0.5793  0.2588 -0.4518
    1U       O4   17   2.722   2.907   4.468  0.0853  0.0981  0.3839
    1U       N3   18   2.519   3.003   4.498 -0.1292 -0.2312  0.0902
    1U       H3   19   2.563   3.093   4.484 -0.3251 -0.6538 -4.0407
    1U       C2   20   2.381   3.005   4.519  0.1141 -0.1778  0.3707
    1U       O2   21   2.319   3.110   4.518  0.0174  0.1142  0.1437
    1U      C3'   22   2.046   2.667   4.505 -0.2689 -0.2540  0.5483
    1U      H3'   23   2.128   2.597   4.489  0.0766  0.1837  0.3920
    1U      C2'   24   2.092   2.803   4.452 -0.0340  1.3458  0.1175
    1U     H2'1   25   2.165   2.786   4.373 -1.3153  1.4489 -1.1096
    1U      O2'   26   1.991   2.893   4.423  0.6516 -0.3142 -0.1237
    1U     HO'2   27   1.939   2.855   4.352  1.4945 -1.5441 -0.0958
    1U      O3'   28   1.924   2.626   4.447 -0.5819 -0.3566  0.2580
    2RG3      P   29   1.925   2.508   4.340 -0.4114 -0.3694 -0.2147
    2RG3    O1P   30   2.046   2.523   4.263 -0.0517 -0.3514  0.0880
    2RG3    O2P   31   1.791   2.509   4.278 -0.4184  0.2795  0.6756
    2RG3    O5'   32   1.940   2.382   4.438 -0.4653  0.1649  0.5630
    2RG3    C5'   33   1.851   2.273   4.448 -0.3649  0.1892 -0.4575
    2RG3   H5'1   34   1.831   2.238   4.347 -1.6611  0.1038 -0.1832
    2RG3   H5'2   35   1.754   2.305   4.489  0.6763  0.4198  1.9136
    2RG3    C4'   36   1.908   2.173   4.545 -0.2731  0.0370 -0.0663
    2RG3    H4'   37   1.831   2.102   4.576 -0.0222  0.6413  2.0710
    2RG3    O4'   38   2.022   2.103   4.495 -0.4951 -0.1280  0.0692
    2RG3    C1'   39   2.113   2.079   4.600  0.0209  0.0608  0.1055
    2RG3    H1'   40   2.144   1.975   4.614  1.2519  0.0019 -2.8772
    2RG3     N9   41   2.236   2.159   4.574  0.1558  1.0061  0.6626
    2RG3     C8   42   2.248   2.287   4.537  0.1048 -0.2725 -0.0917
    2RG3     H8   43   2.167   2.358   4.531  0.3957 -0.0376 -1.5325
    2RG3     N7   44   2.370   2.327   4.514  0.1173  0.6865  0.2480
    2RG3     C5   45   2.446   2.212   4.544 -0.0139  0.2907  0.3579
    2RG3     C6   46   2.588   2.193   4.533 -0.1121 -0.0692  0.3599
    2RG3     O6   47   2.672   2.275   4.506 -0.3393  0.1749  0.0812
    2RG3     N1   48   2.623   2.060   4.554 -0.0187  0.7184  0.4350
    2RG3     H1   49   2.718   2.029   4.541 -0.4306 -0.8509  0.9789
    2RG3     C2   50   2.530   1.969   4.601  0.4238 -0.5037  0.2223
    2RG3     N2   51   2.581   1.853   4.627  0.3520 -0.0302 -0.4505
    2RG3    H21   52   2.678   1.831   4.611 -0.1975 -2.9046 -0.1054
    2RG3    H22   53   2.520   1.780   4.660  1.3752 -0.0514  1.4876
    2RG3     N3   54   2.400   1.985   4.613  0.4838  0.0005  0.0803
    2RG3     C4   55   2.365   2.110   4.588  0.3471  0.0390  0.2432
    2RG3    C3'   56   1.951   2.226   4.688 -0.5032  0.1929  0.0849
    2RG3    H3'   57   2.001   2.322   4.680 -0.3466  0.1423  0.4422
    2RG3    C2'   58   2.047   2.120   4.731 -0.2603  0.2497 -0.4712
    2RG3   H2'1   59   2.123   2.155   4.801 -0.2487  0.4019 -0.5602
    2RG3    O2'   60   1.974   2.017   4.794  0.3048  0.1390 -0.2347
    2RG3   HO'2   61   1.897   2.057   4.836 -0.3898  0.6349 -1.9505
    2RG3    O3'   62   1.838   2.226   4.773  0.4828  0.1710 -0.5425
    2RG3    H3T   63   1.793   2.310   4.776  2.7116  1.3647  0.5644
    3RG35     P   64   4.438   2.409   4.433 -0.4669 -0.1294 -0.2698
    3RG35   O1P   65   4.432   2.398   4.282 -0.1989 -0.5974  0.3395
    3RG35   O2P   66   4.550   2.485   4.484  0.0732 -0.1059 -0.2367
    3RG35   O5'   67   4.320   2.490   4.474 -0.6516 -0.0240  0.1636
    3RG35   C5'   68   4.188   2.453   4.448 -0.2008 -0.0219  0.4347
    3RG35  H5'1   69   4.172   2.349   4.477 -2.5916 -0.0289 -0.7763
    3RG35  H5'2   70   4.165   2.469   4.342 -1.1527 -0.0063  0.6376
    3RG35   C4'   71   4.081   2.538   4.521 -0.3655  0.7237 -0.2798
    3RG35   H4'   72   4.111   2.639   4.492 -1.2067  0.6270 -1.5630
    3RG35   O4'   73   3.950   2.521   4.463 -0.3968 -0.3013 -0.5898
    3RG35   C1'   74   3.857   2.502   4.569 -0.0632 -0.2047 -0.1131
    3RG35   H1'   75   3.781   2.576   4.546  0.4962 -0.5510 -3.3103
    3RG35    N9   76   3.788   2.372   4.558 -0.3045 -0.1875 -0.2034
    3RG35    C8   77   3.843   2.256   4.507  0.0073 -0.2394  0.5090
    3RG35    H8   78   3.944   2.260   4.471  0.5034 -0.8071  1.8091
    3RG35    N7   79   3.760   2.156   4.501  0.0589 -0.1507  0.2665
    3RG35    C5   80   3.642   2.212   4.553 -0.0747 -0.5644 -0.1023
    3RG35    C6   81   3.505   2.161   4.556 -0.1659 -0.3193  0.2015
    3RG35    O6   82   3.464   2.052   4.518  0.1904  0.1045  0.1450
    3RG35    N1   83   3.411   2.253   4.591  0.3731 -0.2041 -0.1803
    3RG35    H1   84   3.313   2.232   4.586 -0.2077  2.3819 -0.5858
    3RG35    C2   85   3.443   2.379   4.631 -0.4188  1.0645 -0.3184
    3RG35    N2   86   3.350   2.459   4.668  0.7164  0.0972  0.2820
    3RG35   H21   87   3.254   2.431   4.659  0.9136 -0.9571  1.3384
    3RG35   H22   88   3.381   2.543   4.717 -0.2954 -0.1541  1.3777
    3RG35    N3   89   3.561   2.434   4.625 -0.2350  0.1692  0.3372
    3RG35    C4   90   3.657   2.344   4.587  0.4749  0.1954 -0.2641
    3RG35   C3'   91   4.078   2.509   4.668  0.1368  0.4942 -0.5940
    3RG35   H3'   92   4.110   2.407   4.687 -1.2533  0.0600 -0.5262
    3RG35   C2'   93   3.927   2.513   4.701  0.7633  0.3133 -0.2111
    3RG35  H2'1   94   3.908   2.435   4.775 -0.2494  0.1951 -0.5879
    3RG35   O2'   95   3.886   2.636   4.760  0.5661  0.2800 -0.0240
    3RG35  HO'2   96   3.958   2.678   4.810 -0.0581 -0.4952  1.5670
    3RG35   O3'   97   4.162   2.599   4.736 -0.1521 -0.1454 -0.1683
    3RG35   H3T   98   4.253   2.569   4.737  0.0824  0.5150  1.7293
    3RG35   O3P   99   4.421   2.285   4.508 -0.0268 -0.1632 -0.2568
    7SOL     OW  100   0.129   1.697   0.784  0.3216  0.3190  0.2985
    7SOL    HW2  101   0.200   1.756   0.760 -0.1770  0.8406  0.1159
    7SOL    HW3  102   0.058   1.717   0.723  0.0397 -0.2536  0.4318
    7SOL    MW4  103   0.129   1.707   0.773  0.2186  0.3124  0.2921
    8SOL     OW  104   2.795   1.002   0.541 -0.3491 -0.2101  0.0295
    8SOL    HW2  105   2.854   0.979   0.469 -1.5771 -2.4579 -0.3255
    8SOL    HW3  106   2.807   1.096   0.553 -0.1330  0.2327 -3.1198
    8SOL    MW4  107   2.805   1.011   0.533 -0.4828 -0.4482 -0.4329
    9SOL     OW  108   2.628   1.318   0.386  0.8695  0.1198  0.2919
    9SOL    HW2  109   2.546   1.317   0.434  0.3269 -1.7523 -0.6366
    9SOL    HW3  110   2.640   1.410   0.362 -0.8335  0.4526  0.6237
    9SOL    MW4  111   2.619   1.330   0.389  0.5732 -0.0833  0.2132
   10SOL     OW  112   3.560   2.869   0.387 -0.0233  0.1251  0.0028
   10SOL    HW2  113   3.637   2.844   0.437 -0.3271 -0.7685  0.0419
   10SOL    HW3  114   3.559   2.808   0.313 -0.1387  0.7729 -0.5255
   10SOL    MW4  115   3.570   2.857   0.384 -0.0787  0.0925 -0.0618
   11SOL     OW  116   2.524   3.402   0.677  0.3411 -0.3283 -0.1621
   11SOL    HW2  117   2.574   3.398   0.596  0.7131  0.2475  0.0313
   11SOL    HW3  118   2.531   3.315   0.715 -0.0447 -0.6676 -0.8736
   11SOL    MW4  119   2.532   3.390   0.671  0.3395 -0.2971 -0.2305
   12SOL     OW  120   0.846   1.194   0.862  0.4399  0.2517  0.1725
   12SOL    HW2  121   0.853   1.287   0.840  0.8553  0.2267  0.2028
   12SOL    HW3  122   0.924   1.154   0.824 -0.4323 -0.3244 -1.0479
   12SOL    MW4  123   0.857   1.201   0.854  0.3796  0.1724  0.0154
   13SOL     OW  124   2.531   2.959   0.619  0.0641 -0.0889  0.2529
   13SOL    HW2  125   2.539   2.869   0.648 -1.8644 -0.2548  0.3305
   13SOL    HW3  126   2.583   2.963   0.538  0.8788 -1.0139  0.7182
   13SOL    MW4  127   2.539   2.948   0.612 -0.0830 -0.2327  0.3245
   14SOL     OW  128   4.320   3.519   0.145 -0.1199  0.1687 -0.1528
   14SOL    HW2  129   4.272   3.602   0.135 -0.9715 -0.0432  1.8240
   14SOL    HW3  130   4.399   3.543   0.194  0.6600  0.1347 -1.3796
   14SOL    MW4  131   4.324   3.533   0.150 -0.1292  0.1364 -0.0538
   15SOL     OW  132   0.823   0.134   0.428 -0.3990 -0.1042  0.2915
   15SOL    HW2  133   0.838   0.042   0.447  0.1388  0.0728  0.7310
   15SOL    HW3  134   0.897   0.160   0.373 -1.5820 -0.4402 -1.5350
   15SOL    MW4  135   0.834   0.126   0.423 -0.4842 -0.1252  0.1085
   16SOL     OW  136   4.356   4.595   0.239 -0.0915  0.4141 -0.1575
   16SOL    HW2  137   4.443   4.634   0.253  1.1428 -2.4131  0.4382
   16SOL    HW3  138   4.371   4.529   0.171 -1.9251  0.3922 -0.5468
   16SOL    MW4  139   4.370   4.591   0.232 -0.1707  0.0381 -0.1302
   17SOL     OW  140   3.488   2.490   0.415 -0.0582  0.0178 -0.0039
   17SOL    HW2  141   3.517   2.546   0.343 -0.2331 -1.4429 -1.2540
   17SOL    HW3  142   3.530   2.527   0.492  2.0395  0.2481 -1.1993
   17SOL    MW4  143   3.497   2.502   0.415  0.1955 -0.1442 -0.3265
   18SOL     OW  144   3.873   3.896   0.831 -0.4612 -0.1909  0.1670
   18SOL    HW2  145   3.801   3.841   0.799 -0.9347  0.8383 -0.5665
   18SOL    HW3  146   3.873   3.882   0.926 -1.5691 -0.2754  0.1663
   18SOL    MW4  147   3.863   3.887   0.839 -0.6697 -0.0660  0.0702
   19SOL     OW  148   2.075   3.384   0.758  0.2573 -0.1599  0.3603
   19SOL    HW2  149   2.088   3.355   0.668 -0.8164 -0.4366  0.2792
   19SOL    HW3  150   2.084   3.305   0.810 -0.9804 -0.3496  0.3044
   19SOL    MW4  151   2.078   3.370   0.753 -0.0479 -0.2213  0.3422
   20SOL     OW  152   0.238   1.704   0.287  0.1713  0.0909  0.6516
   20SOL    HW2  153   0.275   1.656   0.213 -0.2116  0.0851  0.4674
   20SOL    HW3  154   0.272   1.657   0.364  0.3403 -0.0724  0.4803
   20SOL    MW4  155   0.247   1.691   0.288  0.1431  0.0685  0.6047
   21SOL     OW  156   0.383   0.380   1.128  0.2566  0.2858 -0.7167
   21SOL    HW2  157   0.298   0.414   1.155  0.7849 -0.1627  1.6482
   21SOL    HW3  158   0.372   0.357   1.036 -1.4703  2.4451 -1.0932
   21SOL    MW4  159   0.371   0.382   1.119  0.0985  0.5115 -0.4543
   22SOL     OW  160   0.463   3.791   0.326 -0.2678 -0.0078  0.1151
   22SOL    HW2  161   0.454   3.720   0.263  0.3312  0.8430 -0.9541
   22SOL    HW3  162   0.557   3.805   0.334 -0.3674  0.4604  0.5289
   22SOL    MW4  163   0.474   3.784   0.319 -0.2020  0.1662  0.0286
   23SOL     OW  164   3.210   4.629   0.556 -0.1932  0.0542 -0.2881
   23SOL    HW2  165   3.248   4.649   0.642  0.2698 -0.2905 -0.4082
   23SOL    HW3  166   3.160   4.708   0.533  1.5459  1.0704 -0.7195
   23SOL    MW4  167   3.209   4.642   0.565  0.0973  0.1431 -0.3608
   24SOL     OW  168   2.208   4.319   0.723 -0.2084 -0.2282  0.0161
   24SOL    HW2  169   2.167   4.300   0.638 -0.4864  0.0271  0.0901
   24SOL    HW3  170   2.255   4.401   0.709 -0.3855 -0.1027  0.1502
   24SOL    MW4  171   2.209   4.327   0.710 -0.2685 -0.1779  0.0435
   25SOL     OW  172   2.090   4.239   0.490  0.0763 -0.3771  0.7523
   25SOL    HW2  173   2.039   4.158   0.478  0.6772 -0.7592  0.7839
   25SOL    HW3  174   2.025   4.309   0.484 -0.1474 -0.7379 -1.4472
   25SOL    MW4  175   2.074   4.238   0.488  0.1261 -0.4749  0.4663
   26SOL     OW  176   1.953   2.692   0.358  0.6139 -0.3881  0.0122
   26SOL    HW2  177   2.020   2.755   0.331  0.9593 -1.0944 -0.7758
   26SOL    HW3  178   1.930   2.644   0.278 -2.1948  1.1011 -0.1566
   26SOL    MW4  179   1.959   2.694   0.344  0.2887 -0.2849 -0.1141
   27SOL     OW  180   1.330   3.472   0.832  0.0690  0.0672 -0.4537
   27SOL    HW2  181   1.323   3.566   0.813  0.0946 -0.0305 -0.9493
   27SOL    HW3  182   1.415   3.447   0.794 -0.0741 -0.2201 -0.5811
   27SOL    MW4  183   1.340   3.481   0.824  0.0536  0.0165 -0.5358
   28SOL     OW  184   3.847   3.144   1.110  0.3604 -0.0937  0.2404
   28SOL    HW2  185   3.838   3.168   1.018  1.0286 -0.4271  0.0880
   28SOL    HW3  186   3.844   3.048   1.110 -0.8286 -0.0675  0.6928
   28SOL    MW4  187   3.845   3.134   1.098  0.2916 -0.1340  0.2800
   29SOL     OW  188   3.945   2.423   0.427  0.2579  0.8394 -0.3892
   29SOL    HW2  189   3.899   2.348   0.390  0.4595 -0.0748  1.1950
   29SOL    HW3  190   3.910   2.432   0.516  1.7679  1.2974  0.1695
   29SOL    MW4  191   3.934   2.414   0.434  0.4838  0.7794 -0.1065
   30SOL     OW  192   1.818   1.137   1.085 -0.1225 -0.2234  0.2257
   30SOL    HW2  193   1.890   1.171   1.139  0.8226 -1.7638 -0.0486
   30SOL    HW3  194   1.795   1.054   1.126 -1.2248 -0.1087 -0.1609
   30SOL    MW4  195   1.825   1.131   1.097 -0.1432 -0.4115  0.1385
   31SOL     OW  196   0.521   0.505   0.478 -0.2186 -0.2268  0.0351
   31SOL    HW2  197   0.431   0.498   0.509 -0.2129  0.1748  0.1437
   31SOL    HW3  198   0.543   0.417   0.447 -1.2587  0.1083 -1.6852
   31SOL    MW4  199   0.512   0.492   0.478 -0.3552 -0.1296 -0.1775
   32SOL     OW  200   2.540   0.975   0.427 -0.5966  0.8610  0.3129
   32SOL    HW2  201   2.631   0.967   0.455 -0.5733  1.2899  0.3498
   32SOL    HW3  202   2.544   1.025   0.346 -0.8217  1.0552  0.4231
   32SOL    MW4  203   2.552   0.980   0.420 -0.6232  0.9431  0.3323
   33SOL     OW  204   2.720   4.141   0.608  0.0730  0.1282 -0.4929
   33SOL    HW2  205   2.692   4.190   0.685  0.0793 -0.0338 -0.3867
   33SOL    HW3  206   2.724   4.050   0.638 -1.9755 -0.2466 -1.2074
   33SOL    MW4  207   2.717   4.135   0.622 -0.1965  0.0567 -0.5732
   34SOL     OW  208   1.876   2.453   0.184  0.0387  0.6064 -0.0402
   34SOL    HW2  209   1.836   2.431   0.100  0.8254  0.1923 -0.3156
   34SOL    HW3  210   1.873   2.372   0.234  1.8609  0.1690 -0.6135
   34SOL    MW4  211   1.870   2.439   0.180  0.3830  0.4940 -0.1522
   35SOL     OW  212   0.838   1.919   1.141 -0.0457  0.4189 -0.0630
   35SOL    HW2  213   0.916   1.963   1.177  0.0450  0.8639 -0.8045
   35SOL    HW3  214   0.766   1.978   1.163  0.0569  0.8765 -0.9255
   35SOL    MW4  215   0.839   1.933   1.149 -0.0202  0.5381 -0.2745
   36SOL     OW  216   2.488   0.483   1.193 -0.3113 -0.2674  0.1004
   36SOL    HW2  217   2.486   0.481   1.289 -0.5949  0.2174  0.1063
   36SOL    HW3  218   2.407   0.440   1.166 -0.0290 -0.7906  0.0676
   36SOL    MW4  219   2.477   0.477   1.202 -0.3114 -0.2725  0.0968
   37SOL     OW  220   0.798   1.898   0.864 -0.1233 -0.2291  0.6202
   37SOL    HW2  221   0.758   1.984   0.853 -1.8937 -0.8191  2.1010
   37SOL    HW3  222   0.833   1.899   0.954  1.0402 -0.5807  0.1783
   37SOL    MW4  223   0.797   1.909   0.875 -0.2034 -0.3532  0.7572
   38SOL     OW  224   0.601   2.907   0.508 -0.3432 -0.1418  0.1320
   38SOL    HW2  225   0.564   2.963   0.440  0.5107 -2.2205 -2.1387
   38SOL    HW3  226   0.536   2.837   0.519 -0.0960 -0.2610  0.8532
   38SOL    MW4  227   0.587   2.905   0.500 -0.1979 -0.4320 -0.0724
   39SOL     OW  228   2.014   2.039   1.203 -0.4365 -0.4691 -0.2692
   39SOL    HW2  229   2.014   2.123   1.157  0.4707 -0.6855 -0.6623
   39SOL    HW3  230   2.022   2.062   1.295 -0.3769 -0.1196 -0.3622
   39SOL    MW4  231   2.015   2.053   1.209 -0.3090 -0.4516 -0.3334
   40SOL     OW  232   4.404   4.141   0.622  0.3039  0.0138 -0.0426
   40SOL    HW2  233   4.403   4.126   0.528 -1.5709  1.3951 -0.2789
   40SOL    HW3  234   4.433   4.057   0.660 -0.2137 -0.9628 -1.7641
   40SOL    MW4  235   4.408   4.128   0.615 -0.0119  0.0668 -0.3009
   41SOL     OW  236   1.823   4.458   0.731  0.2991 -0.1421 -0.1464
   41SOL    HW2  237   1.777   4.378   0.757 -0.6499  0.0828 -1.0787
   41SOL    HW3  238   1.892   4.468   0.796 -0.2223 -1.1531  0.5864
   41SOL    MW4  239   1.826   4.449   0.743  0.1050 -0.2456 -0.1727
   42SOL     OW  240   2.928   0.499   1.231 -0.0763  0.0273  0.0867
   42SOL    HW2  241   2.926   0.582   1.184  0.0886  0.2458  0.4656
   42SOL    HW3  242   2.858   0.447   1.191 -0.1218  0.3158 -0.2067
   42SOL    MW4  243   2.918   0.503   1.219 -0.0606  0.0942  0.0981
   43SOL     OW  244   2.375   4.170   0.907  0.1995 -0.1905  0.3948
   43SOL    HW2  245   2.306   4.205   0.850  1.2775  0.6737 -0.4022
   43SOL    HW3  246   2.393   4.083   0.871  0.2759  0.0098 -0.0532
   43SOL    MW4  247   2.368   4.163   0.895  0.3519 -0.0505  0.2305
   44SOL     OW  248   0.049   3.605   0.312  0.2481  0.4946 -0.0952
   44SOL    HW2  249   0.125   3.554   0.338  0.5946  0.1914 -1.6736
   44SOL    HW3  250   0.075   3.696   0.324 -0.1987  0.3447  2.2426
   44SOL    MW4  251   0.062   3.610   0.317  0.2349  0.4346  0.0050
   45SOL     OW  252   2.721   3.794   0.715 -0.2055  0.4306 -0.1270
   45SOL    HW2  253   2.726   3.753   0.629  2.3731 -0.1646  0.2629
   45SOL    HW3  254   2.724   3.720   0.777  0.0686  0.9689  0.5072
   45SOL    MW4  255   2.722   3.779   0.712  0.1705  0.4232  0.0080
   46SOL     OW  256   1.672   4.182   0.265 -0.5528  0.0218  0.3811
   46SOL    HW2  257   1.685   4.277   0.274  0.7125 -0.0716 -0.2862
   46SOL    HW3  258   1.690   4.164   0.173 -1.1580 -0.8160  0.4262
   46SOL    MW4  259   1.676   4.192   0.254 -0.4656 -0.1016  0.2990
   47SOL     OW  260   2.092   0.505   0.822 -0.2259  0.3697 -0.4063
   47SOL    HW2  261   2.046   0.586   0.847 -1.1168 -0.1376 -0.3794
   47SOL    HW3  262   2.082   0.500   0.727  0.5018  0.6866 -0.5069
   47SOL    MW4  263   2.085   0.515   0.813 -0.2475  0.3447 -0.4159
   48SOL     OW  264   2.058   1.995   0.383 -0.2331 -0.3563  0.1940
   48SOL    HW2  265   1.999   2.068   0.366 -0.1068 -0.6240 -1.4909
   48SOL    HW3  266   2.146   2.031   0.370 -0.1459 -0.6712 -0.0920
   48SOL    MW4  267   2.062   2.009   0.379 -0.2050 -0.4330 -0.0660
   49SOL     OW  268   1.120   4.395   0.543  0.4580 -0.0558 -0.0815
   49SOL    HW2  269   1.155   4.320   0.494 -1.6119 -0.0497 -1.6343
   49SOL    HW3  270   1.093   4.359   0.627 -2.5669 -1.5578 -1.6346
   49SOL    MW4  271   1.121   4.381   0.548 -0.2142 -0.2537 -0.4913
   50SOL     OW  272   4.072   1.562   0.497  0.7387  0.0618 -0.1102
   50SOL    HW2  273   4.056   1.638   0.441  0.1490 -1.5860 -2.1970
   50SOL    HW3  274   3.985   1.528   0.517  1.0272 -0.3561  0.4637
   50SOL    MW4  275   4.059   1.568   0.492  0.6986 -0.2109 -0.3099
   51SOL     OW  276   0.429   1.892   0.428 -0.1544  0.2302  0.1650
   51SOL    HW2  277   0.432   1.983   0.400  0.4241 -0.3496 -1.7058
   51SOL    HW3  278   0.352   1.856   0.384  1.6928 -1.1196 -2.0844
   51SOL    MW4  279   0.419   1.899   0.418  0.1656 -0.0243 -0.3786
   52SOL     OW  280   4.210   4.214   0.874 -0.0003  0.1223  0.3229
   52SOL    HW2  281   4.294   4.194   0.916 -0.4207  0.1342  1.1830
   52SOL    HW3  282   4.150   4.226   0.947 -0.6215  0.6965 -0.2870
   52SOL    MW4  283   4.213   4.213   0.889 -0.1378  0.1998  0.3559
   53SOL     OW  284   0.724   3.848   0.426 -0.6575 -0.1512  0.1124
   53SOL    HW2  285   0.782   3.918   0.454 -0.8716  0.4782 -1.0204
   53SOL    HW3  286   0.714   3.793   0.504  0.7120  0.2395  0.5684
   53SOL    MW4  287   0.730   3.850   0.440 -0.5050 -0.0167  0.0231
   54SOL     OW  288   0.908   0.294   0.655 -0.0866 -0.3048  0.3329
   54SOL    HW2  289   0.877   0.276   0.566 -1.6612  1.3660  0.5168
   54SOL    HW3  290   1.002   0.308   0.645 -0.0986 -1.0976 -0.9240
   54SOL    MW4  291   0.916   0.294   0.642 -0.2959 -0.1889  0.1914
   55SOL     OW  292   0.556   0.194   0.481  0.1021 -0.2241  0.3931
   55SOL    HW2  293   0.561   0.203   0.576 -0.3473  0.9229  0.3094
   55SOL    HW3  294   0.646   0.181   0.453  0.3914  0.8245  0.8405
   55SOL    MW4  295   0.568   0.194   0.489  0.0810  0.0656  0.4410
   56SOL     OW  296   3.019   1.671   0.439  0.0024 -0.1559 -0.1441
   56SOL    HW2  297   3.114   1.682   0.443  0.0341  0.3881 -2.0606
   56SOL    HW3  298   3.006   1.601   0.375 -0.8343 -1.4513  1.4004
   56SOL    MW4  299   3.030   1.663   0.431 -0.1040 -0.2550 -0.1932
   57SOL     OW  300   2.079   2.901   0.696 -0.0689 -0.3719 -0.3078
   57SOL    HW2  301   2.134   2.827   0.723  0.3219  0.2148  0.5697
   57SOL    HW3  302   1.997   2.862   0.669 -0.5621 -1.0115  1.9730
   57SOL    MW4  303   2.076   2.886   0.696 -0.0825 -0.3788  0.1089
   58SOL     OW  304   3.369   3.321   0.715  0.1849 -0.0490  0.2949
   58SOL    HW2  305   3.358   3.368   0.632  3.4946  1.8308  0.8290
   58SOL    HW3  306   3.312   3.366   0.777 -0.2039  0.2944 -0.3079
   58SOL    MW4  307   3.360   3.333   0.712  0.5703  0.2444  0.2858
   59SOL     OW  308   3.645   4.041   0.409  0.0155 -0.0158  0.1959
   59SOL    HW2  309   3.583   4.109   0.385  2.8630  1.7257 -2.5791
   59SOL    HW3  310   3.692   4.076   0.485 -0.8256 -0.4057  0.9133
   59SOL    MW4  311   3.643   4.054   0.416  0.2804  0.1626 -0.0755
   60SOL     OW  312   2.013   1.722   0.434 -0.0485 -0.0177  0.0862
   60SOL    HW2  313   2.095   1.672   0.432  0.4412  0.8069 -1.1574
   60SOL    HW3  314   2.036   1.808   0.400 -1.2610  0.5017  0.5357
   60SOL    MW4  315   2.027   1.727   0.429 -0.1438  0.1596 -0.0185
   61SOL     OW  316   3.564   3.780   0.497 -0.2675 -0.2860 -0.3338
   61SOL    HW2  317   3.470   3.763   0.496 -0.0732 -1.3473 -1.1196
   61SOL    HW3  318   3.572   3.870   0.465 -1.1116  0.3652  1.2379
   61SOL    MW4  319   3.553   3.790   0.493 -0.3531 -0.3405 -0.2300
   62SOL     OW  320   3.230   2.110   0.477 -0.8240  0.5905 -0.8692
   62SOL    HW2  321   3.278   2.032   0.506 -0.4803  0.8436 -0.7573
   62SOL    HW3  322   3.138   2.082   0.472 -0.5611 -0.1272 -1.8730
   62SOL    MW4  323   3.224   2.096   0.480 -0.7441  0.5291 -0.9868
   63SOL     OW  324   0.458   0.748   0.274  0.0998 -0.0704  0.1746
   63SOL    HW2  325   0.488   0.679   0.334  0.9416  2.1083  2.3534
   63SOL    HW3  326   0.533   0.806   0.265 -1.0660  1.3567 -0.4659
   63SOL    MW4  327   0.471   0.746   0.281  0.0571  0.4053  0.3775
   64SOL     OW  328   3.769   1.830   0.700 -0.3542  0.1849  0.1012
   64SOL    HW2  329   3.840   1.841   0.763 -1.2737  1.1995  0.9856
   64SOL    HW3  330   3.802   1.867   0.619  0.8050 -1.0318  0.0056
   64SOL    MW4  331   3.783   1.836   0.698 -0.3226  0.1584  0.2053
   65SOL     OW  332   3.533   1.674   1.254  0.8238  0.1365  0.3653
   65SOL    HW2  333   3.613   1.629   1.229  0.6237 -0.8087  1.3878
   65SOL    HW3  334   3.465   1.636   1.199  0.9114  0.2681  0.1648
   65SOL    MW4  335   3.534   1.663   1.244  0.8090  0.0291  0.4737
   66SOL     OW  336   3.531   1.114   0.613 -0.6170  0.3208 -0.2158
   66SOL    HW2  337   3.582   1.133   0.692  0.2308  1.4219 -1.0068
   66SOL    HW3  338   3.495   1.027   0.628  1.6574 -0.5800  0.2769
   66SOL    MW4  339   3.533   1.105   0.626 -0.2048  0.3473 -0.2552
   67SOL     OW  340   3.294   2.677   0.660  0.4601  0.2831  0.4026
   67SOL    HW2  341   3.280   2.599   0.606  3.2100  0.9172 -1.3547
   67SOL    HW3  342   3.294   2.750   0.597  0.3346  1.4340  1.7074
   67SOL    MW4  343   3.292   2.676   0.644  0.8066  0.5186  0.3429
   68SOL     OW  344   4.192   0.241   0.763  0.1346 -0.5597 -0.4111
   68SOL    HW2  345   4.219   0.245   0.671  0.2172 -0.1193 -0.3710
   68SOL    HW3  346   4.223   0.324   0.800 -1.0362 -0.1539 -0.3090
   68SOL    MW4  347   4.200   0.253   0.756 -0.0091 -0.4481 -0.3924
   69SOL     OW  348   1.764   0.153   0.494 -0.0077 -0.5186  0.1441
   69SOL    HW2  349   1.756   0.169   0.588 -0.3317 -1.5524  0.3009
   69SOL    HW3  350   1.761   0.241   0.455  1.2697  0.0044  1.1615
   69SOL    MW4  351   1.762   0.167   0.501  0.1181 -0.5860  0.2990
   70SOL     OW  352   1.524   1.272   0.476 -0.3608 -0.2893  0.6072
   70SOL    HW2  353   1.510   1.367   0.482 -0.7364 -0.2654 -0.6059
   70SOL    HW3  354   1.619   1.262   0.475 -0.3149  0.1495 -0.2895
   70SOL    MW4  355   1.535   1.283   0.477 -0.4042 -0.2284  0.3288
   71SOL     OW  356   3.451   3.066   1.059  0.3008  0.2139 -0.0524
   71SOL    HW2  357   3.376   3.122   1.080 -0.5986 -0.8312 -0.3695
   71SOL    HW3  358   3.523   3.101   1.109 -0.5223  0.9855  0.6037
   71SOL    MW4  359   3.450   3.078   1.068  0.0734  0.1779 -0.0075
   72SOL     OW  360   3.626   0.043   0.727  0.3790 -0.0555 -0.1740
   72SOL    HW2  361   3.640   0.113   0.791 -0.1887  0.7047 -0.8797
   72SOL    HW3  362   3.680  -0.029   0.759  1.7809  1.0535  0.0090
   72SOL    MW4  363   3.635   0.043   0.740  0.4890  0.1911 -0.2429
   73SOL     OW  364   4.077   4.037   1.255  0.0093  0.0416 -0.3896
   73SOL    HW2  365   3.987   4.006   1.247 -0.1911  0.4384  0.3175
   73SOL    HW3  366   4.096   4.032   1.349  1.1698 -1.2962 -0.6918
   73SOL    MW4  367   4.068   4.033   1.266  0.1364 -0.0825 -0.3362
   74SOL     OW  368   4.070   4.274   1.132 -0.3257  0.3463 -0.8265
   74SOL    HW2  369   4.076   4.193   1.183 -1.6320  0.0915 -1.0551
   74SOL    HW3  370   3.984   4.309   1.154  1.1843  3.0239  1.2481
   74SOL    MW4  371   4.060   4.268   1.142 -0.2990  0.6661 -0.5829
   75SOL     OW  372   3.773   2.836   0.579 -0.1655  0.3974  0.1699
   75SOL    HW2  373   3.722   2.759   0.605  0.8356 -0.0612  0.8135
   75SOL    HW3  374   3.738   2.907   0.632 -0.7344  0.2733 -0.0372
   75SOL    MW4  375   3.761   2.835   0.589 -0.1085  0.3207  0.2275
   76SOL     OW  376   1.953   3.999   0.799  0.7070  0.4333  0.3752
   76SOL    HW2  377   1.976   3.964   0.885  0.0597  0.6518  0.6367
   76SOL    HW3  378   2.032   3.986   0.746  0.4704 -1.4303  0.4542
   76SOL    MW4  379   1.967   3.993   0.803  0.5903  0.2162  0.4202
   77SOL     OW  380   2.835   1.264   0.544 -0.6031 -0.4285 -0.0527
   77SOL    HW2  381   2.862   1.349   0.579  0.6216 -0.5010 -0.7725
   77SOL    HW3  382   2.759   1.284   0.489 -0.1539  0.2495 -0.4361
   77SOL    MW4  383   2.829   1.278   0.541 -0.3819 -0.3484 -0.1983
   78SOL     OW  384   2.098   3.647   0.356  0.1152 -0.0591 -0.5837
   78SOL    HW2  385   2.146   3.671   0.435 -1.1806 -0.7319  0.4213
   78SOL    HW3  386   2.116   3.718   0.294 -0.7886  1.7072  1.1335
   78SOL    MW4  387   2.107   3.660   0.358 -0.1752  0.0854 -0.2245
   79SOL     OW  388   0.521   0.833   0.818 -0.1229  0.2304 -0.1209
   79SOL    HW2  389   0.430   0.807   0.829 -0.5290  1.3819 -0.6897
   79SOL    HW3  390   0.519   0.928   0.815  1.0515  0.2532 -0.6006
   79SOL    MW4  391   0.509   0.842   0.819 -0.0215  0.3853 -0.2593
   80SOL     OW  392   2.406   1.519   1.098 -0.0526  0.0152  0.2651
   80SOL    HW2  393   2.471   1.579   1.135  0.1843 -0.4161  0.5438
   80SOL    HW3  394   2.424   1.435   1.139  0.2101 -0.4672 -0.8307
   80SOL    MW4  395   2.417   1.516   1.108  0.0134 -0.1053  0.1574
   81SOL     OW  396   3.163   3.481   0.839 -0.0108 -0.3490  0.4283
   81SOL    HW2  397   3.177   3.575   0.830 -1.2510 -0.1909  0.0126
   81SOL    HW3  398   3.143   3.468   0.932 -2.5136  0.2022  0.0171
   81SOL    MW4  399   3.162   3.492   0.850 -0.5047 -0.2558  0.3192
   82SOL     OW  400   1.760   4.206   0.839 -0.2238 -0.5147 -0.1142
   82SOL    HW2  401   1.830   4.142   0.825 -1.2446 -1.3961 -1.4031
   82SOL    HW3  402   1.746   4.207   0.934  1.1210 -0.7819  0.0885
   82SOL    MW4  403   1.767   4.198   0.850 -0.1812 -0.6661 -0.2575
   83SOL     OW  404   0.403   4.266   1.103  0.1310  0.0793  0.0054
   83SOL    HW2  405   0.486   4.300   1.138  1.4166 -2.9932  0.1053
   83SOL    HW3  406   0.336   4.323   1.141  1.9097  0.2897  3.0205
   83SOL    MW4  407   0.405   4.278   1.113  0.5353 -0.2985  0.4164
   84SOL     OW  408   3.002   0.924   0.718  0.3835 -0.0715 -0.0749
   84SOL    HW2  409   2.921   0.948   0.673  0.6660  1.6823  0.2922
   84SOL    HW3  410   3.065   0.909   0.647  0.2285  0.4501 -0.3318
   84SOL    MW4  411   3.000   0.925   0.702  0.4003  0.2288 -0.0604
   85SOL     OW  412   0.466   2.676   1.146 -0.9113 -0.5494  0.0662
   85SOL    HW2  413   0.392   2.723   1.183 -1.4430 -1.0444 -0.3589
   85SOL    HW3  414   0.454   2.682   1.052 -0.0698 -0.0967 -0.0160
   85SOL    MW4  415   0.455   2.683   1.139 -0.8704 -0.5550 -0.0008
   86SOL     OW  416   0.161   2.537   0.567  0.0633 -0.3440 -0.1433
   86SOL    HW2  417   0.123   2.457   0.529  1.0851 -1.8229  1.8724
   86SOL    HW3  418   0.140   2.531   0.660  1.5484  0.9593  0.2847
   86SOL    MW4  419   0.153   2.525   0.574  0.3940 -0.3672  0.1792
   87SOL     OW  420   3.423   4.483   0.433  0.1839 -0.4496 -0.6282
   87SOL    HW2  421   3.510   4.521   0.440  0.2510 -0.5098 -1.1483
   87SOL    HW3  422   3.364   4.554   0.458  0.3972 -0.5112  0.0587
   87SOL    MW4  423   3.427   4.497   0.437  0.2208 -0.4654 -0.6062
   88SOL     OW  424   0.939   2.294   0.447  0.4149  0.4813  0.4033
   88SOL    HW2  425   1.004   2.296   0.518  1.8644  0.6933 -0.8986
   88SOL    HW3  426   0.923   2.386   0.427  0.3182  0.4204  0.1960
   88SOL    MW4  427   0.945   2.307   0.454  0.5934  0.5016  0.2042
   89SOL     OW  428   4.239   3.003   0.818  0.2493 -0.7311 -0.0998
   89SOL    HW2  429   4.322   2.985   0.775  0.2769 -1.2755  0.1874
   89SOL    HW3  430   4.262   3.022   0.909  0.1760  0.2895 -0.2841
   89SOL    MW4  431   4.253   3.003   0.825  0.2427 -0.6680 -0.0862
   90SOL     OW  432   0.709   0.416   0.834 -0.5121  0.1408  0.2027
   90SOL    HW2  433   0.692   0.501   0.794 -0.9845 -0.5551 -1.0962
   90SOL    HW3  434   0.776   0.376   0.778 -0.1881 -0.2799  0.8868
   90SOL    MW4  435   0.716   0.422   0.821 -0.5317 -0.0066  0.1216
   91SOL     OW  436   4.055   3.509   1.103  0.0548  0.1849  0.2547
   91SOL    HW2  437   4.057   3.416   1.128  1.0998 -0.2218 -1.2686
   91SOL    HW3  438   3.970   3.540   1.133 -0.3907 -1.3198  0.6128
   91SOL    MW4  439   4.044   3.500   1.111  0.1340 -0.0672  0.1009
   92SOL     OW  440   2.547   0.535   0.540  0.2173  0.1391 -0.0697
   92SOL    HW2  441   2.493   0.535   0.619 -0.5850  0.0300 -0.6177
   92SOL    HW3  442   2.541   0.446   0.506 -0.1864  0.4320 -0.7645
   92SOL    MW4  443   2.539   0.524   0.546  0.0584  0.1633 -0.2337
   93SOL     OW  444   1.819   1.274   0.460 -0.2436  0.0612 -0.4555
   93SOL    HW2  445   1.841   1.191   0.502 -1.4276 -0.4154 -0.7552
   93SOL    HW3  446   1.876   1.277   0.383 -0.2918 -0.5389 -0.5173
   93SOL    MW4  447   1.829   1.263   0.455 -0.4061 -0.0808 -0.5032
   94SOL     OW  448   3.303   0.322   0.663  0.2743  0.1893 -0.1511
   94SOL    HW2  449   3.239   0.351   0.729  1.2892  1.0254  0.4702
   94SOL    HW3  450   3.386   0.360   0.691  0.7868  0.2891 -1.7500
   94SOL    MW4  451   3.305   0.331   0.676  0.4756  0.3128 -0.2801
   95SOL     OW  452   1.543   3.867   0.820 -0.0787  0.3593  0.0046
   95SOL    HW2  453   1.520   3.951   0.782  0.8878 -0.4750 -2.5805
   95SOL    HW3  454   1.471   3.808   0.793  0.7071 -0.2847 -0.7115
   95SOL    MW4  455   1.530   3.870   0.811  0.1526  0.1640 -0.4309
   96SOL     OW  456   1.744   3.179   0.788  0.2790  0.1026  0.2304
   96SOL    HW2  457   1.702   3.259   0.756 -0.0668 -0.4163 -0.6512
   96SOL    HW3  458   1.671   3.124   0.819  0.3425 -0.5571 -0.7489
   96SOL    MW4  459   1.729   3.182   0.788  0.2418 -0.0527 -0.0151
   97SOL     OW  460   0.861   3.573   0.365 -0.2699  0.5220  0.0304
   97SOL    HW2  461   0.788   3.520   0.397 -0.7475  1.5580  0.6948
   97SOL    HW3  462   0.827   3.663   0.364  0.9929  1.0173  0.3746
   97SOL    MW4  463   0.847   3.578   0.369 -0.1664  0.7241  0.1635
   98SOL     OW  464   4.075   1.816   0.395  0.0254  0.1189 -0.1946
   98SOL    HW2  465   4.122   1.883   0.445  0.8813 -0.5015 -0.1597
   98SOL    HW3  466   4.131   1.799   0.320  0.8552 -2.0709  0.8830
   98SOL    MW4  467   4.088   1.823   0.392  0.2480 -0.2519 -0.0479
   99SOL     OW  468   1.386   4.309   1.095 -0.1652  0.4623  0.6537
   99SOL    HW2  469   1.458   4.329   1.155  0.8250 -0.6252 -0.1500
   99SOL    HW3  470   1.312   4.360   1.129  1.4649  3.1258  0.3813
   99SOL    MW4  471   1.385   4.318   1.108  0.1806  0.6700  0.5116
  100SOL     OW  472   0.641   2.873   0.796 -0.2502  0.1654 -0.3941
  100SOL    HW2  473   0.716   2.825   0.832 -0.9155  0.3303  1.2792
  100SOL    HW3  474   0.652   2.869   0.701  0.5373 -1.9598 -0.2322
  100SOL    MW4  475   0.652   2.866   0.788 -0.2341 -0.0932 -0.1519
  101SOL     OW  476   2.038   0.438   0.545 -0.4596 -0.1869 -0.4060
  101SOL    HW2  477   1.950   0.439   0.508 -0.4862 -1.3353 -0.3682
  101SOL    HW3  478   2.088   0.380   0.487 -0.4884 -1.9454  1.3010
  101SOL    MW4  479   2.033   0.431   0.532 -0.4671 -0.5704 -0.1758
  102SOL     OW  480   4.469   1.654   0.341  0.0083 -0.2187 -0.2080
  102SOL    HW2  481   4.561   1.664   0.316  0.3652 -1.0218  0.7120
  102SOL    HW3  482   4.460   1.561   0.363 -0.8970 -0.0470  0.2007
  102SOL    MW4  483   4.480   1.643   0.340 -0.0639 -0.3020 -0.0328
  103SOL     OW  484   1.093   2.323   1.094  0.5174 -0.0136  0.0588
  103SOL    HW2  485   1.180   2.349   1.125  0.0244  1.2096  0.4463
  103SOL    HW3  486   1.034   2.391   1.127 -1.0078 -2.1977  2.0151
  103SOL    MW4  487   1.097   2.336   1.102  0.2512 -0.1404  0.3681
  104SOL     OW  488   4.009   1.253   0.912  0.1106  0.5128 -0.5159
  104SOL    HW2  489   4.035   1.222   0.999 -1.3611 -0.0157 -0.2525
  104SOL    HW3  490   3.942   1.191   0.884  0.0957  1.0741 -1.7522
  104SOL    MW4  491   4.003   1.241   0.920 -0.0858  0.5172 -0.6443
  105SOL     OW  492   1.592   4.401   1.268  0.1007  0.2583 -0.0931
  105SOL    HW2  493   1.671   4.359   1.234 -0.6120 -1.0443 -0.1629
  105SOL    HW3  494   1.591   4.378   1.361 -0.5433 -0.3106 -0.2317
  105SOL    MW4  495   1.602   4.392   1.276 -0.0783  0.0114 -0.1205
  106SOL     OW  496   2.121   2.898   0.287  0.3122  0.5496 -0.3586
  106SOL    HW2  497   2.163   2.931   0.207  0.3750 -0.1561 -0.6174
  106SOL    HW3  498   2.176   2.930   0.358  0.3095  1.1005 -0.5996
  106SOL    MW4  499   2.134   2.907   0.286  0.3202  0.5291 -0.4246
  107SOL     OW  500   2.875   0.029   0.300  0.0104  0.2301  0.2448
  107SOL    HW2  501   2.910  -0.059   0.315  1.3922  0.6814 -0.2252
  107SOL    HW3  502   2.790   0.028   0.342 -0.5698 -1.7500 -0.9051
  107SOL    MW4  503   2.869   0.017   0.308  0.1161  0.0284  0.0311
  108SOL     OW  504   1.610   2.292   0.429  0.5180 -0.0417 -0.0194
  108SOL    HW2  505   1.546   2.349   0.471  0.1332 -0.2706 -0.2893
  108SOL    HW3  506   1.563   2.210   0.414  0.5015  0.1803 -1.2920
  108SOL    MW4  507   1.596   2.289   0.432  0.4652 -0.0424 -0.2229
  109SOL     OW  508   2.276   1.594   0.449  0.5244 -0.2041  0.1620
  109SOL    HW2  509   2.339   1.660   0.418  0.3363 -0.5844 -1.0694
  109SOL    HW3  510   2.262   1.616   0.541  1.4884  0.6616  0.1194
  109SOL    MW4  511   2.283   1.606   0.457  0.6270 -0.1400 -0.0061
  110SOL     OW  512   4.379   2.987   0.220  0.1174 -0.6108  0.1348
  110SOL    HW2  513   4.359   3.076   0.189  0.9226 -0.1424  0.9397
  110SOL    HW3  514   4.296   2.941   0.214  0.3127 -0.6604 -3.1200
  110SOL    MW4  515   4.365   2.993   0.215  0.2499 -0.5555 -0.1884
  111SOL     OW  516   3.525   0.468   0.735 -0.0793  0.4437  0.1694
  111SOL    HW2  517   3.495   0.545   0.783 -0.0940  0.7897 -0.3908
  111SOL    HW3  518   3.568   0.503   0.657  2.8511 -0.0031  1.5564
  111SOL    MW4  519   3.526   0.483   0.731  0.3054  0.4304  0.2785
  112SOL     OW  520   4.325   3.305   0.486 -0.5505  0.0970  0.3957
  112SOL    HW2  521   4.336   3.292   0.392  0.2041  0.3878  0.4423
  112SOL    HW3  522   4.336   3.399   0.498 -0.6698  0.0625  0.7747
  112SOL    MW4  523   4.328   3.316   0.475 -0.4673  0.1309  0.4519
  113SOL     OW  524   0.939   0.735   0.608  0.2486  0.2540 -0.0670
  113SOL    HW2  525   0.851   0.712   0.641  0.2936 -0.0493 -0.1550
  113SOL    HW3  526   0.984   0.769   0.685 -0.2033  1.1571 -0.2004
  113SOL    MW4  527   0.933   0.736   0.623  0.1950  0.3332 -0.0962
  114SOL     OW  528   2.245   1.138   1.164 -0.3685 -0.2456 -0.4429
  114SOL    HW2  529   2.265   1.045   1.173 -1.9860 -0.6751 -0.9784
  114SOL    HW3  530   2.267   1.159   1.073 -0.2565 -0.1706 -0.3986
  114SOL    MW4  531   2.250   1.128   1.153 -0.5670 -0.2924 -0.5077
  115SOL     OW  532   4.126   2.884   0.306  0.2538  0.0626  0.0451
  115SOL    HW2  533   4.050   2.827   0.300  0.5781 -0.3487 -0.1064
  115SOL    HW3  534   4.089   2.971   0.325 -0.2311 -0.1931  0.2700
  115SOL    MW4  535   4.111   2.888   0.308  0.2327 -0.0255  0.0548
  116SOL     OW  536   3.997   0.362   1.085  0.0762 -0.0563  0.4273
  116SOL    HW2  537   3.992   0.276   1.128 -0.2139 -0.5657 -0.6092
  116SOL    HW3  538   4.080   0.399   1.115 -0.3832 -0.1517  1.8743
  116SOL    MW4  539   4.007   0.355   1.095 -0.0224 -0.1361  0.4815
  117SOL     OW  540   2.440   3.913   0.815 -0.7753 -0.0080  0.3135
  117SOL    HW2  541   2.525   3.877   0.786  0.5401  2.6184  0.7771
  117SOL    HW3  542   2.379   3.887   0.746  0.8223 -0.2492 -1.0563
  117SOL    MW4  543   2.443   3.905   0.802 -0.3910  0.3064  0.1939
  118SOL     OW  544   0.566   1.123   0.788  0.3234 -0.3835 -0.4622
  118SOL    HW2  545   0.579   1.113   0.694  0.3695 -1.8012 -0.3190
  118SOL    HW3  546   0.653   1.137   0.824  0.7191 -3.0717 -0.2798
  118SOL    MW4  547   0.579   1.124   0.780  0.3816 -0.9251 -0.4193
  119SOL     OW  548   3.555   1.897   1.096 -0.3882 -0.0932  0.4324
  119SOL    HW2  549   3.644   1.930   1.104 -0.8413  1.6057 -1.1221
  119SOL    HW3  550   3.552   1.821   1.154  2.3855 -0.8722 -0.3700
  119SOL    MW4  551   3.566   1.891   1.105 -0.0820  0.0281  0.1215
  120SOL     OW  552   1.573   2.303   0.828 -0.1206  0.7414 -0.5428
  120SOL    HW2  553   1.645   2.346   0.781 -0.5286  0.7485 -1.1689
  120SOL    HW3  554   1.587   2.210   0.812 -0.5904  0.7762 -1.1624
  120SOL    MW4  555   1.585   2.297   0.819 -0.2364  0.7472 -0.7071
  121SOL     OW  556   0.017   3.892   0.697 -0.2092  0.3692 -0.2356
  121SOL    HW2  557   0.093   3.896   0.755 -0.6153  0.8394  0.2647
  121SOL    HW3  558  -0.036   3.821   0.731 -0.1688  0.2695 -0.3783
  121SOL    MW4  559   0.020   3.883   0.709 -0.2575  0.4179 -0.1884
  122SOL     OW  560   2.274   3.763   0.560 -0.0108 -0.6173 -0.5286
  122SOL    HW2  561   2.273   3.696   0.628  0.9097 -0.8146 -0.6999
  122SOL    HW3  562   2.361   3.755   0.520  0.4515  1.2521  0.0365
  122SOL    MW4  563   2.285   3.753   0.564  0.1717 -0.3965 -0.4767
  123SOL     OW  564   1.149   2.257   0.635 -0.5040 -0.1345  0.5084
  123SOL    HW2  565   1.220   2.321   0.629 -2.3480  1.7819 -2.0063
  123SOL    HW3  566   1.186   2.178   0.594 -0.3006  1.3448 -2.3083
  123SOL    MW4  567   1.164   2.255   0.629 -0.7205  0.3135 -0.1950
  124SOL     OW  568   3.968   3.278   0.665 -0.0875  0.4038  0.3871
  124SOL    HW2  569   3.986   3.238   0.580 -0.5602 -1.3706  1.1045
  124SOL    HW3  570   4.052   3.276   0.711 -0.4419 -1.1893  0.9917
  124SOL    MW4  571   3.982   3.273   0.660 -0.1967 -0.0405  0.5615
  125SOL     OW  572   1.252   0.732   0.754 -0.2847  0.1187 -0.4612
  125SOL    HW2  573   1.167   0.751   0.793 -0.7210 -0.9448 -0.8719
  125SOL    HW3  574   1.261   0.637   0.762  0.8378  0.2144 -0.4784
  125SOL    MW4  575   1.242   0.722   0.760 -0.1941 -0.0090 -0.5177
  126SOL     OW  576   4.271   2.458   0.763  0.3503 -0.5294 -0.1070
  126SOL    HW2  577   4.277   2.433   0.671  4.2159 -1.2444  0.2718
  126SOL    HW3  578   4.289   2.378   0.811 -0.6584  0.0600  1.2924
  126SOL    MW4  579   4.274   2.444   0.757  0.7267 -0.5460  0.1276
  127SOL     OW  580   2.786   2.684   0.832  0.3432  0.0531 -0.4003
  127SOL    HW2  581   2.880   2.685   0.814  0.2176  0.3185 -1.0670
  127SOL    HW3  582   2.778   2.718   0.921  0.7576  1.4789 -0.8948
  127SOL    MW4  583   2.797   2.688   0.841  0.3815  0.2763 -0.5535
  128SOL     OW  584   2.262   3.023   0.518 -0.0693  0.3716  0.3691
  128SOL    HW2  585   2.341   3.009   0.570  0.2352 -2.0686 -0.6292
  128SOL    HW3  586   2.193   2.978   0.566 -0.2224 -0.0185 -0.1990
  128SOL    MW4  587   2.264   3.015   0.531 -0.0491 -0.0017  0.1624
  129SOL     OW  588   1.788   3.781   0.755 -0.2096 -0.2856  0.1983
  129SOL    HW2  589   1.701   3.816   0.774 -0.0032  0.1323  0.3852
  129SOL    HW3  590   1.846   3.857   0.761 -0.0028 -0.3384 -1.1520
  129SOL    MW4  591   1.784   3.795   0.758 -0.1550 -0.2375  0.0448
  130SOL     OW  592   0.453   2.036   0.857  0.3043  0.3742 -0.5125
  130SOL    HW2  593   0.429   2.022   0.948  0.1599 -0.7322 -0.7057
  130SOL    HW3  594   0.539   2.079   0.861  0.5669 -0.2009  0.1472
  130SOL    MW4  595   0.461   2.040   0.869  0.3199  0.1523 -0.4509
  131SOL     OW  596   1.993   1.529   1.124  0.4284  0.2185  0.0335
  131SOL    HW2  597   2.069   1.587   1.136 -0.0607  1.0695 -0.8860
  131SOL    HW3  598   2.016   1.449   1.171  1.1229  1.1549  1.3265
  131SOL    MW4  599   2.006   1.526   1.132  0.4559  0.4542  0.0829
  132SOL     OW  600   3.068   1.265   0.389  0.2283 -0.0288  0.0312
  132SOL    HW2  601   2.980   1.262   0.427  0.1159 -0.2745 -0.2469
  132SOL    HW3  602   3.126   1.275   0.464  0.1230 -2.1482  0.4355
  132SOL    MW4  603   3.064   1.266   0.404  0.1996 -0.3408  0.0479
  133SOL     OW  604   3.208   0.424   0.416 -0.3012 -0.6312 -0.2183
  133SOL    HW2  605   3.252   0.382   0.490 -1.4284  1.2721  1.5968
  133SOL    HW3  606   3.145   0.483   0.456 -1.3155  0.0729 -2.7331
  133SOL    MW4  607   3.205   0.426   0.431 -0.5836 -0.2872 -0.3106
  134SOL     OW  608   1.171   2.811   1.211 -0.1727 -0.3408  0.2113
  134SOL    HW2  609   1.163   2.812   1.307  1.5504 -1.7761  0.3928
  134SOL    HW3  610   1.167   2.903   1.186  0.2577  0.1118  1.7363
  134SOL    MW4  611   1.169   2.823   1.220  0.1116 -0.4702  0.4363
  135SOL     OW  612   1.515   1.658   0.854 -0.1652 -0.0409  0.4123
  135SOL    HW2  613   1.598   1.661   0.807 -0.4523  0.4009 -0.0704
  135SOL    HW3  614   1.478   1.746   0.844 -0.6477 -0.2068  0.6971
  135SOL    MW4  615   1.521   1.670   0.846 -0.2669 -0.0044  0.3862
  136SOL     OW  616   0.826   1.648   1.222 -0.2737 -0.2579 -0.1287
  136SOL    HW2  617   0.916   1.614   1.220 -0.1241  0.2105 -1.3166
  136SOL    HW3  618   0.832   1.736   1.185 -1.1818 -0.1073  0.0631
  136SOL    MW4  619   0.839   1.655   1.217 -0.3738 -0.1763 -0.2601
  137SOL     OW  620   0.937   1.761   0.434 -0.0408  0.0317  0.3024
  137SOL    HW2  621   0.967   1.672   0.415  1.2185  0.6371 -0.6144
  137SOL    HW3  622   0.961   1.774   0.526  2.3620  0.4117 -0.3418
  137SOL    MW4  623   0.944   1.751   0.444  0.4423  0.1618  0.0964
  138SOL     OW  624   0.174   3.414   0.863  0.0343 -0.5894  0.2335
  138SOL    HW2  625   0.257   3.453   0.892  0.1018 -0.7254  0.2260
  138SOL    HW3  626   0.116   3.421   0.939 -0.9485  2.3108 -0.7336
  138SOL    MW4  627   0.177   3.420   0.877 -0.0865 -0.2246  0.1050
  139SOL     OW  628   1.841   1.411   0.693  0.2625 -0.3873  0.1258
  139SOL    HW2  629   1.838   1.381   0.602 -0.2990  0.7134 -0.2247
  139SOL    HW3  630   1.797   1.341   0.742 -0.2588 -0.5609 -0.5715
  139SOL    MW4  631   1.835   1.398   0.687  0.1197 -0.2651 -0.0125
  140SOL     OW  632   0.127   1.138   0.466  0.0298  0.1225 -0.0668
  140SOL    HW2  633   0.175   1.064   0.429  0.5063 -0.6198  1.9772
  140SOL    HW3  634   0.037   1.125   0.437 -0.0096 -1.6228  0.7754
  140SOL    MW4  635   0.121   1.127   0.457  0.0875 -0.2058  0.3140
  141SOL     OW  636   0.084   0.212   0.532  0.0728 -1.0258 -0.0341
  141SOL    HW2  637   0.138   0.291   0.522  1.4984 -2.0574 -0.7856
  141SOL    HW3  638   0.066   0.207   0.625 -1.8894  1.3685 -0.2298
  141SOL    MW4  639   0.089   0.222   0.543  0.0020 -0.8460 -0.1591
  142SOL     OW  640   2.096   0.897   0.647  0.1486  0.2406  0.0709
  142SOL    HW2  641   2.154   0.837   0.599 -0.6259 -0.2120 -0.3107
  142SOL    HW3  642   2.138   0.983   0.638 -0.1690  0.2190 -1.7257
  142SOL    MW4  643   2.109   0.900   0.639  0.0048  0.1780 -0.2165
  143SOL     OW  644   2.007   3.873   1.043  0.4547  0.2095 -0.1073
  143SOL    HW2  645   1.940   3.903   1.103 -1.2515 -0.2192 -1.7568
  143SOL    HW3  646   2.026   3.783   1.070 -1.2562 -0.4386 -0.9952
  143SOL    MW4  647   2.001   3.865   1.054  0.0038  0.0672 -0.4421
  144SOL     OW  648   3.563   3.388   0.364 -0.3832 -0.0234 -0.2955
  144SOL    HW2  649   3.613   3.311   0.390 -0.3737 -0.1186 -0.5960
  144SOL    HW3  650   3.629   3.456   0.352 -0.5578  0.5732  1.8746
  144SOL    MW4  651   3.578   3.387   0.366 -0.4051  0.0429 -0.0488
  145SOL     OW  652   1.606   0.492   0.732 -0.7227  0.1229  0.2449
  145SOL    HW2  653   1.515   0.490   0.765 -0.8852  0.0730 -0.2068
  145SOL    HW3  654   1.639   0.404   0.750 -0.8582  0.0512  0.1404
  145SOL    MW4  655   1.598   0.480   0.739 -0.7621  0.1068  0.1715
  146SOL     OW  656   2.050   1.323   0.298 -0.2093  0.2300  0.1068
  146SOL    HW2  657   2.086   1.402   0.338  0.1074  0.2237 -0.1670
  146SOL    HW3  658   2.126   1.268   0.280 -0.4910 -0.4958  1.0638
  146SOL    MW4  659   2.065   1.326   0.301 -0.2048  0.1334  0.1969
  147SOL     OW  660   1.857   3.496   0.385  0.5771 -0.2688 -0.0872
  147SOL    HW2  661   1.882   3.404   0.376  1.3604 -0.0325 -0.3633
  147SOL    HW3  662   1.934   3.544   0.355  0.0556  0.4733 -0.2321
  147SOL    MW4  663   1.871   3.490   0.380  0.6117 -0.1400 -0.1428
  148SOL     OW  664   1.585   3.408   0.720  0.0110 -0.1779  0.3211
  148SOL    HW2  665   1.565   3.437   0.631 -0.0344  2.1420  1.0511
  148SOL    HW3  666   1.654   3.467   0.750  1.6899 -2.4423  1.0028
  148SOL    MW4  667   1.591   3.420   0.712  0.2265 -0.1707  0.5074
  149SOL     OW  668   2.224   1.136   0.651 -0.2714 -0.7492 -0.0701
  149SOL    HW2  669   2.222   1.176   0.738  0.2789  0.1970 -0.4880
  149SOL    HW3  670   2.253   1.206   0.593 -0.6264 -1.3830 -1.0175
  149SOL    MW4  671   2.227   1.150   0.655 -0.2453 -0.7079 -0.2502
  150SOL     OW  672   0.485   3.766   0.818  0.2082 -0.2526 -0.3555
  150SOL    HW2  673   0.425   3.761   0.744 -0.6646 -0.9400  0.3920
  150SOL    HW3  674   0.487   3.677   0.853  0.7281  0.0387  0.3611
  150SOL    MW4  675   0.477   3.754   0.813  0.1616 -0.3047 -0.1624
  151SOL     OW  676   1.889   2.235   0.368 -0.1643  0.1977  0.2360
  151SOL    HW2  677   1.935   2.304   0.416 -0.9093  0.2923  0.8161
  151SOL    HW3  678   1.797   2.248   0.390 -0.4784  0.0544 -0.9928
  151SOL    MW4  679   1.883   2.246   0.377 -0.3041  0.1912  0.1504
  152SOL     OW  680   4.288   2.721   0.461 -0.1257  0.6752 -0.4011
  152SOL    HW2  681   4.251   2.793   0.409 -1.8596 -0.1173 -0.2930
  152SOL    HW3  682   4.241   2.726   0.544  1.2965  0.7531  0.4146
  152SOL    MW4  683   4.277   2.731   0.465 -0.1669  0.5808 -0.2792
  153SOL     OW  684   0.681   3.128   0.905 -0.3703 -0.2143  0.2530
  153SOL    HW2  685   0.654   3.047   0.862 -1.5757  1.0880 -1.4995
  153SOL    HW3  686   0.762   3.153   0.861  0.7055 -1.1333  1.6766
  153SOL    MW4  687   0.688   3.121   0.894 -0.3874 -0.1636  0.2096
  154SOL     OW  688   0.333   1.540   0.505 -0.0066  0.3234  0.1398
  154SOL    HW2  689   0.245   1.504   0.509 -1.4232  2.9839 -3.9222
  154SOL    HW3  690   0.377   1.489   0.437 -0.6334  3.1419 -2.5201
  154SOL    MW4  691   0.327   1.529   0.497 -0.2762  1.0461 -0.7471
  155SOL     OW  692   4.141   3.717   0.235  0.1737 -0.0368 -0.6303
  155SOL    HW2  693   4.053   3.718   0.198 -0.2626 -1.1947  0.3335
  155SOL    HW3  694   4.128   3.700   0.329  1.4083 -0.1944 -0.4759
  155SOL    MW4  695   4.128   3.715   0.243  0.2789 -0.2103 -0.4828
  156SOL     OW  696   4.461   3.971   1.211 -0.1667  0.4749  0.6851
  156SOL    HW2  697   4.380   3.922   1.197 -0.0862  0.1759  1.2472
  156SOL    HW3  698   4.465   3.985   1.306  1.8112 -1.8828  0.9955
  156SOL    MW4  699   4.451   3.967   1.222  0.1049  0.1242  0.8001
  157SOL     OW  700   2.307   1.232   0.899  0.4175  0.3292  0.3499
  157SOL    HW2  701   2.396   1.241   0.865  0.3715  0.5725  0.3002
  157SOL    HW3  702   2.267   1.318   0.888 -0.9428 -0.6263 -2.7449
  157SOL    MW4  703   2.314   1.244   0.893  0.2320  0.2351 -0.0650
  158SOL     OW  704   0.424   2.701   0.589  0.7246 -0.2131  0.4329
  158SOL    HW2  705   0.344   2.651   0.573  1.2358 -0.2124 -2.4822
  158SOL    HW3  706   0.421   2.723   0.682 -1.8821 -1.5302  0.7032
  158SOL    MW4  707   0.413   2.697   0.599  0.4481 -0.3867  0.0839
  159SOL     OW  708   3.339   1.893   0.642 -0.1318  0.4705 -0.0889
  159SOL    HW2  709   3.419   1.904   0.694  0.6827 -0.4619 -1.1246
  159SOL    HW3  710   3.269   1.890   0.706  0.7028  0.9533  0.8606
  159SOL    MW4  711   3.341   1.894   0.657  0.0856  0.4113 -0.1003
  160SOL     OW  712   0.143   0.510   1.214  0.2465  0.2228 -0.3349
  160SOL    HW2  713   0.139   0.492   1.308  0.8810  0.1723 -0.3134
  160SOL    HW3  714   0.083   0.447   1.174  1.4717 -1.1107 -0.1385
  160SOL    MW4  715   0.135   0.499   1.221  0.4919  0.0401 -0.3060
  161SOL     OW  716   2.240   3.493   1.090 -0.3782  0.0068 -0.5310
  161SOL    HW2  717   2.329   3.513   1.121 -0.6671  1.7208 -0.7910
  161SOL    HW3  718   2.251   3.478   0.996 -0.3934  0.3537 -0.5867
  161SOL    MW4  719   2.253   3.494   1.081 -0.4187  0.2785 -0.5726
  162SOL     OW  720   2.571   1.242   0.821 -0.3001 -0.0321  0.9113
  162SOL    HW2  721   2.580   1.171   0.757  0.5946 -0.8959  1.9706
  162SOL    HW3  722   2.626   1.215   0.894  0.1429  1.8197  1.2928
  162SOL    MW4  723   2.580   1.229   0.822 -0.1233  0.0982  1.1014
  163SOL     OW  724   1.760   1.200   0.827  0.3440 -0.5296 -0.3317
  163SOL    HW2  725   1.800   1.134   0.770  0.3248 -0.1131 -0.8247
  163SOL    HW3  726   1.802   1.186   0.912  1.5736 -0.0582 -0.8550
  163SOL    MW4  727   1.771   1.189   0.831  0.5037 -0.4125 -0.4658
  164SOL     OW  728   0.874   1.467   0.752 -0.0165  0.1243 -0.3541
  164SOL    HW2  729   0.956   1.499   0.791 -0.3175 -1.3319  1.5229
  164SOL    HW3  730   0.805   1.514   0.797 -0.3157 -0.6799  0.0482
  164SOL    MW4  731   0.876   1.477   0.763 -0.0956 -0.1740 -0.0534
  165SOL     OW  732   0.344   1.513   0.847  0.5375  0.1845  0.3070
  165SOL    HW2  733   0.261   1.554   0.821  0.6387 -0.1756 -0.6059
  165SOL    HW3  734   0.322   1.420   0.857  0.4942  0.3264  1.5495
  165SOL    MW4  735   0.330   1.506   0.845  0.5452  0.1558  0.3505
  166SOL     OW  736   1.762   1.676   0.735  0.0735  0.1587 -0.0815
  166SOL    HW2  737   1.784   1.583   0.735 -3.1040 -0.6583 -1.2065
  166SOL    HW3  738   1.758   1.700   0.643  0.6700  1.3546  0.2022
  166SOL    MW4  739   1.764   1.667   0.723 -0.2670  0.2085 -0.1925
  167SOL     OW  740   4.292   4.664   0.852 -0.0008  0.2830  0.1210
  167SOL    HW2  741   4.273   4.750   0.815  0.9214  0.7987  0.8190
  167SOL    HW3  742   4.301   4.680   0.946 -0.6466 -0.7221  0.3640
  167SOL    MW4  743   4.290   4.677   0.860  0.0358  0.2185  0.2452
  168SOL     OW  744   2.254   2.177   0.318 -0.2365  0.3803 -0.1431
  168SOL    HW2  745   2.245   2.250   0.379 -0.5769 -0.6698  1.0694
  168SOL    HW3  746   2.234   2.215   0.232  0.8186  2.0032  0.2986
  168SOL    MW4  747   2.250   2.192   0.315 -0.1421  0.4561  0.0751
  169SOL     OW  748   0.413   2.736   0.872  0.0847 -0.7201 -0.1734
  169SOL    HW2  749   0.343   2.801   0.879  0.9801  0.2795 -0.3522
  169SOL    HW3  750   0.493   2.787   0.861  0.7616 -1.8615 -0.7520
  169SOL    MW4  751   0.414   2.751   0.872  0.2922 -0.7389 -0.2733
  170SOL     OW  752   4.386   4.088   0.341  0.1437 -0.8886  0.3114
  170SOL    HW2  753   4.425   4.003   0.362  0.2672 -0.8220  0.3569
  170SOL    HW3  754   4.293   4.069   0.327  0.4494 -1.2796 -1.2065
  170SOL    MW4  755   4.379   4.074   0.342  0.2007 -0.9313  0.1172
  171SOL     OW  756   2.707   0.915   1.214  0.1745  0.0377 -0.1093
  171SOL    HW2  757   2.623   0.878   1.188  1.0473 -2.1777  0.1246
  171SOL    HW3  758   2.772   0.853   1.181  1.6467  0.8266  1.2278
  171SOL    MW4  759   2.704   0.902   1.206  0.4838 -0.1505  0.0980
  172SOL     OW  760   4.315   0.830   0.680 -0.1126 -0.3011 -0.2739
  172SOL    HW2  761   4.391   0.778   0.653 -1.1304 -1.5679 -0.7573
  172SOL    HW3  762   4.351   0.900   0.734  1.2338 -1.8760  0.9072
  172SOL    MW4  763   4.330   0.832   0.684 -0.0696 -0.6760 -0.1819
  173SOL     OW  764   0.328   4.158   0.864 -0.0518 -0.0568 -0.5567
  173SOL    HW2  765   0.365   4.190   0.946  2.0879 -1.9083 -0.7361
  173SOL    HW3  766   0.303   4.067   0.884  0.0243 -0.3546 -1.8085
  173SOL    MW4  767   0.330   4.150   0.878  0.2406 -0.3400 -0.7456
  174SOL     OW  768   3.765   3.213   0.850 -0.4909  0.1746  0.0316
  174SOL    HW2  769   3.731   3.303   0.850  0.2461  0.4549  1.2245
  174SOL    HW3  770   3.840   3.217   0.790  1.9575  1.3108  3.0234
  174SOL    MW4  771   3.770   3.226   0.842 -0.0706  0.3617  0.5836
  175SOL     OW  772   1.620   4.630   0.864  0.2806  0.1545  0.1253
  175SOL    HW2  773   1.690   4.596   0.810 -0.3530 -1.4757  0.3052
  175SOL    HW3  774   1.539   4.599   0.822 -0.2776  0.6317  0.8194
  175SOL    MW4  775   1.618   4.622   0.852  0.1233  0.0029  0.2406
  176SOL     OW  776   0.009   2.072   0.557  0.0473  0.4165  0.5797
  176SOL    HW2  777   0.000   1.977   0.549 -1.7286  0.5201  1.0092
  176SOL    HW3  778   0.098   2.085   0.589  0.4483 -1.0759  0.1272
  176SOL    MW4  779   0.019   2.061   0.560 -0.1345  0.2329  0.5767
  177SOL     OW  780   3.711   3.138   0.414 -0.0233 -0.0061 -0.2660
  177SOL    HW2  781   3.663   3.071   0.365 -0.0454  0.2696 -0.6271
  177SOL    HW3  782   3.682   3.127   0.504 -2.1082  1.3093 -0.7497
  177SOL    MW4  783   3.701   3.128   0.419 -0.3014  0.2038 -0.3775
  178SOL     OW  784   0.492   1.122   0.286 -0.0132  0.2977  0.4402
  178SOL    HW2  785   0.412   1.070   0.277  0.1894  0.3995 -2.6705
  178SOL    HW3  786   0.559   1.072   0.238  1.5703  0.7188  2.1272
  178SOL    MW4  787   0.491   1.108   0.278  0.2224  0.3668  0.2523
  179SOL     OW  788   2.736   3.532   0.847 -0.1212 -0.4236 -0.4013
  179SOL    HW2  789   2.722   3.505   0.937  0.2855  1.6018  0.2848
  179SOL    HW3  790   2.660   3.498   0.799 -0.5154 -1.1819  0.7633
  179SOL    MW4  791   2.724   3.524   0.852 -0.1197 -0.2565 -0.1571
  180SOL     OW  792   0.653   1.606   0.863  0.5247  0.3656  0.2206
  180SOL    HW2  793   0.619   1.571   0.946  0.9160  0.4553  0.4241
  180SOL    HW3  794   0.704   1.683   0.889 -0.4109  1.1564 -0.2336
  180SOL    MW4  795   0.655   1.611   0.878  0.4529  0.4817  0.1876
  181SOL     OW  796   2.926   2.636   0.454  0.5926 -0.0860 -0.2646
  181SOL    HW2  797   3.013   2.598   0.447  0.6891  0.0720  0.0953
  181SOL    HW3  798   2.940   2.722   0.493  0.1586 -0.4975  0.8044
  181SOL    MW4  799   2.939   2.642   0.458  0.5479 -0.1194 -0.0761
  182SOL     OW  800   3.138   4.018   1.170 -0.2878  0.0525  0.1296
  182SOL    HW2  801   3.160   4.014   1.263  0.1857  1.5877  0.1032
  182SOL    HW3  802   3.128   4.111   1.152 -1.0404 -0.2738 -1.2113
  182SOL    MW4  803   3.140   4.030   1.180 -0.3247  0.2127 -0.0507
  183SOL     OW  804   3.786   1.424   0.903 -0.2152 -0.0208 -0.0748
  183SOL    HW2  805   3.874   1.385   0.906 -0.3568 -0.2681  1.2010
  183SOL    HW3  806   3.774   1.463   0.990 -1.2631  0.2459 -0.3338
  183SOL    MW4  807   3.796   1.424   0.915 -0.3724 -0.0184  0.0594
  184SOL     OW  808   2.950   4.460   0.450  0.5145 -0.0964  0.3133
  184SOL    HW2  809   3.033   4.502   0.474  0.6871  0.2439 -0.8811
  184SOL    HW3  810   2.885   4.502   0.507  1.1658 -0.4540  1.3449
  184SOL    MW4  811   2.952   4.471   0.461  0.6230 -0.0987  0.2918
  185SOL     OW  812   3.300   1.692   0.438  0.4651 -0.1193 -0.5478
  185SOL    HW2  813   3.323   1.614   0.488 -0.4724  0.2095  0.4096
  185SOL    HW3  814   3.312   1.765   0.500 -3.4594  0.0439  0.1343
  185SOL    MW4  815   3.304   1.692   0.453 -0.1762 -0.0545 -0.3315
  186SOL     OW  816   1.090   2.052   0.426 -0.1124 -0.3667  0.3001
  186SOL    HW2  817   1.052   2.135   0.397  1.7191  0.6109  0.6098
  186SOL    HW3  818   1.056   1.987   0.365 -1.9115  0.5356  0.3228
  186SOL    MW4  819   1.081   2.054   0.414 -0.1081 -0.1187  0.3440
  187SOL     OW  820   3.221   4.031   0.423 -0.2750 -0.1632 -0.1581
  187SOL    HW2  821   3.293   4.091   0.440  0.3135 -0.6534 -0.8680
  187SOL    HW3  822   3.142   4.081   0.443  0.2903  0.0778  1.5478
  187SOL    MW4  823   3.220   4.045   0.428 -0.1228 -0.1955 -0.0267
  188SOL     OW  824   3.087   4.152   0.732 -0.1972  0.4333 -0.2235
  188SOL    HW2  825   3.038   4.078   0.767 -0.9955  0.9819 -0.1649
  188SOL    HW3  826   3.075   4.145   0.637 -1.3744  1.2448 -0.1356
  188SOL    MW4  827   3.079   4.141   0.724 -0.4580  0.6127 -0.2041
  189SOL     OW  828   2.505   2.835   1.144 -0.1344 -0.2697  0.0356
  189SOL    HW2  829   2.496   2.850   1.238 -0.7850  0.7131 -0.1650
  189SOL    HW3  830   2.498   2.923   1.106 -3.1558 -0.9770 -1.1513
  189SOL    MW4  831   2.503   2.849   1.151 -0.6189 -0.2334 -0.1476
  190SOL     OW  832   3.840   0.166   0.344 -0.1548  0.1326  0.1608
  190SOL    HW2  833   3.929   0.138   0.323 -0.6816 -1.1402 -0.4281
  190SOL    HW3  834   3.841   0.261   0.330  1.0271  0.0857 -0.1361
  190SOL    MW4  835   3.852   0.175   0.339 -0.0687 -0.0415  0.0440
  191SOL     OW  836   2.780   2.395   0.483 -0.6046  0.2577 -0.1318
  191SOL    HW2  837   2.769   2.392   0.578 -0.9395 -0.9493 -0.2120
  191SOL    HW3  838   2.846   2.463   0.470  0.6167 -0.6616  1.0736
  191SOL    MW4  839   2.788   2.404   0.494 -0.4876 -0.0226  0.0167
  192SOL     OW  840   0.449   3.053   0.303 -0.0920  0.0499  0.0806
  192SOL    HW2  841   0.453   3.148   0.291 -0.2640  0.1656  0.8936
  192SOL    HW3  842   0.355   3.033   0.305 -0.0825  0.1635  2.1385
  192SOL    MW4  843   0.437   3.063   0.302 -0.1135  0.0801  0.4593
  193SOL     OW  844   1.519   3.780   0.430  0.1396 -0.7233 -0.2506
  193SOL    HW2  845   1.511   3.870   0.401  0.2529 -0.8767 -0.7761
  193SOL    HW3  846   1.607   3.774   0.467 -0.0612 -0.4868  0.2605
  193SOL    MW4  847   1.530   3.791   0.431  0.1281 -0.7124 -0.2525
  194SOL     OW  848   4.152   3.671   0.513 -0.3415  0.0555 -0.1727
  194SOL    HW2  849   4.128   3.745   0.569  0.0438 -0.2126  0.3503
  194SOL    HW3  850   4.076   3.612   0.518 -0.9511  0.7424 -1.1662
  194SOL    MW4  851   4.139   3.673   0.521 -0.3710  0.1109 -0.2347
  195SOL     OW  852   1.375   0.817   0.488 -0.2031 -0.0450  0.0853
  195SOL    HW2  853   1.345   0.795   0.576  0.2410  0.0288  0.2539
  195SOL    HW3  854   1.470   0.816   0.494 -0.1632 -1.0174 -0.6275
  195SOL    MW4  855   1.383   0.814   0.500 -0.1394 -0.1636  0.0135
  196SOL     OW  856   0.063   0.213   0.833 -0.3453  0.4304  0.6239
  196SOL    HW2  857   0.010   0.247   0.906 -1.8072 -1.7831  0.6314
  196SOL    HW3  858   0.078   0.121   0.855  1.7894  0.5074 -0.4061
  196SOL    MW4  859   0.058   0.206   0.846 -0.2565  0.1485  0.4890
  197SOL     OW  860   0.135   0.014   0.339 -0.0369 -0.7244  0.2628
  197SOL    HW2  861   0.125  -0.060   0.399 -0.3154  0.5478  1.8121
  197SOL    HW3  862   0.128   0.091   0.395  3.4660  0.4675 -0.8455
  197SOL    MW4  863   0.133   0.014   0.355  0.3885 -0.3993  0.3210
  198SOL     OW  864   3.214   1.593   0.854 -0.3162 -0.1613 -0.4682
  198SOL    HW2  865   3.259   1.559   0.777 -0.8337 -0.1383 -0.7813
  198SOL    HW3  866   3.128   1.551   0.852 -0.8504  0.9346 -0.6973
  198SOL    MW4  867   3.208   1.583   0.843 -0.4547 -0.0136 -0.5398
  199SOL     OW  868   1.389   0.129   1.235  0.3621 -0.3723  0.3167
  199SOL    HW2  869   1.465   0.092   1.190  0.3851  0.5424 -0.4208
  199SOL    HW3  870   1.314   0.084   1.197  0.5005 -0.9410  0.7100
  199SOL    MW4  871   1.389   0.118   1.224  0.3833 -0.3267  0.2712
  200SOL     OW  872   3.132   1.857   0.836  0.2445 -0.3974 -0.5912
  200SOL    HW2  873   3.155   1.764   0.846 -0.4304 -0.3415  1.6334
  200SOL    HW3  874   3.136   1.892   0.925  0.0708  1.6211 -1.3654
  200SOL    MW4  875   3.136   1.849   0.849  0.1323 -0.1236 -0.3999
  201SOL     OW  876   2.211   3.992   0.675  0.2798 -0.0507  0.0363
  201SOL    HW2  877   2.285   4.044   0.646 -1.0340  1.1839 -1.1476
  201SOL    HW3  878   2.220   3.909   0.629 -0.1957  0.8458 -1.7217
  201SOL    MW4  879   2.222   3.988   0.665  0.0439  0.2306 -0.3518
  202SOL     OW  880   0.216   4.193   0.582 -0.4086 -0.3250  0.9593
  202SOL    HW2  881   0.125   4.167   0.592  0.0007 -2.4543 -0.5187
  202SOL    HW3  882   0.248   4.141   0.508  1.1691  2.5856 -0.5055
  202SOL    MW4  883   0.209   4.183   0.573 -0.1464 -0.2222  0.5710
  203SOL     OW  884   3.173   0.811   0.531  0.3180  0.0102  0.6615
  203SOL    HW2  885   3.226   0.768   0.463 -0.4477  0.2426 -0.0878
  203SOL    HW3  886   3.113   0.743   0.561  0.0976  0.1490  0.5272
  203SOL    MW4  887   3.172   0.796   0.526  0.1879  0.0591  0.5448
  204SOL     OW  888   1.985   0.077   1.039  0.0752  0.6529 -0.2429
  204SOL    HW2  889   1.975   0.002   0.980  0.3844  0.5652 -0.1832
  204SOL    HW3  890   1.988   0.153   0.980 -0.6088  0.6554 -0.2822
  204SOL    MW4  891   1.984   0.077   1.023  0.0257  0.6417 -0.2401
  205SOL     OW  892   4.028   3.439   0.244 -0.5671 -0.0004 -0.4635
  205SOL    HW2  893   3.955   3.478   0.195 -0.0382 -0.5670 -1.7401
  205SOL    HW3  894   4.100   3.501   0.235 -0.9532  0.7019  1.0506
  205SOL    MW4  895   4.028   3.452   0.236 -0.5484  0.0176 -0.4322
  206SOL     OW  896   2.724   3.723   0.453  0.2265  0.0682  0.0790
  206SOL    HW2  897   2.814   3.722   0.421  0.4723 -0.7413  0.7823
  206SOL    HW3  898   2.694   3.632   0.442 -0.0994  0.0636  0.9771
  206SOL    MW4  899   2.732   3.711   0.447  0.2160 -0.0393  0.2903
  207SOL     OW  900   0.704   3.705   0.648  0.0431  0.1280  0.1273
  207SOL    HW2  901   0.632   3.730   0.705  0.6003  2.1825 -0.0217
  207SOL    HW3  902   0.780   3.698   0.706  0.3489  0.9664 -0.1672
  207SOL    MW4  903   0.705   3.707   0.663  0.1570  0.5097  0.0688
  208SOL     OW  904   2.223   0.257   0.438 -0.6026  0.4400  0.3928
  208SOL    HW2  905   2.315   0.266   0.462 -0.6521  1.7323  0.1434
  208SOL    HW3  906   2.222   0.191   0.369  0.0114 -0.3376  1.1238
  208SOL    MW4  907   2.235   0.250   0.432 -0.5283  0.5080  0.4563
  209SOL     OW  908   0.196   4.399   1.210 -0.2104 -0.2105 -0.2030
  209SOL    HW2  909   0.185   4.413   1.304  0.1663  0.4767 -0.2570
  209SOL    HW3  910   0.126   4.339   1.186 -0.4571 -0.1906  0.4734
  209SOL    MW4  911   0.185   4.393   1.219 -0.1932 -0.1168 -0.1210
  210SOL     OW  912   3.283   3.763   0.486  0.1837 -0.0526  0.0339
  210SOL    HW2  913   3.260   3.851   0.458 -0.0225 -0.0327  0.2682
  210SOL    HW3  914   3.247   3.755   0.574 -2.0990 -1.2731 -0.9663
  210SOL    MW4  915   3.275   3.773   0.494 -0.1447 -0.2112 -0.0671
  211SOL     OW  916   4.117   4.016   0.274  0.0963  0.0142 -0.1545
  211SOL    HW2  917   4.140   3.927   0.245  2.4584  0.9286 -1.2381
  211SOL    HW3  918   4.035   4.036   0.230 -0.5885 -1.7280  0.3020
  211SOL    MW4  919   4.110   4.007   0.264  0.3176 -0.0949 -0.2373
  212SOL     OW  920   2.988   3.899   0.809 -0.1127  0.0506 -0.3377
  212SOL    HW2  921   2.913   3.863   0.762 -0.6281 -0.9230  1.1986
  212SOL    HW3  922   2.965   3.889   0.901  2.0708 -0.6248  0.1570
  212SOL    MW4  923   2.975   3.893   0.815  0.1073 -0.1669 -0.0697
  213SOL     OW  924   0.494   3.375   0.328  0.3357 -0.0329 -0.2075
  213SOL    HW2  925   0.545   3.398   0.406 -0.5993 -1.4179  0.8537
  213SOL    HW3  926   0.403   3.396   0.353 -0.2082 -2.2931 -0.1890
  213SOL    MW4  927   0.489   3.381   0.342  0.1407 -0.5140 -0.0651
  214SOL     OW  928   3.902   1.013   0.497  0.4016  0.1858 -0.1846
  214SOL    HW2  929   3.844   1.089   0.491 -0.2226 -0.3350 -0.9203
  214SOL    HW3  930   3.982   1.039   0.450 -0.3104 -0.0511 -1.5612
  214SOL    MW4  931   3.905   1.026   0.490  0.2253  0.0858 -0.4632
  215SOL     OW  932   2.974   4.182   0.462  0.0903  0.1799 -0.1165
  215SOL    HW2  933   2.966   4.274   0.439  3.4250  1.0196  1.7803
  215SOL    HW3  934   2.889   4.159   0.499 -1.3117  2.0159 -2.0747
  215SOL    MW4  935   2.962   4.191   0.464  0.3452  0.5331 -0.1246
  216SOL     OW  936   3.621   3.247   1.208  0.0056 -0.1556  0.0682
  216SOL    HW2  937   3.619   3.233   1.303  1.2260  0.7953  0.2438
  216SOL    HW3  938   3.702   3.205   1.180 -1.0130 -1.6131 -0.7657
  216SOL    MW4  939   3.631   3.240   1.217  0.0322 -0.2227 -0.0187
  217SOL     OW  940   1.004   1.812   0.697  0.0075  0.0556 -0.2412
  217SOL    HW2  941   1.039   1.746   0.756 -0.1901  0.2036  0.0460
  217SOL    HW3  942   0.915   1.827   0.728  0.6904  1.8999  0.9721
  217SOL    MW4  943   0.997   1.806   0.709  0.0714  0.3184 -0.0432
  218SOL     OW  944   2.492   3.838   0.392 -0.0789 -0.0473 -0.6070
  218SOL    HW2  945   2.575   3.793   0.408  0.4300  0.5776 -1.4482
  218SOL    HW3  946   2.496   3.916   0.447  0.4040  0.5865 -1.5279
  218SOL    MW4  947   2.503   3.843   0.401  0.0517  0.1190 -0.8394
  219SOL     OW  948   3.097   2.722   0.833 -0.3771 -0.1636 -0.0545
  219SOL    HW2  949   3.163   2.717   0.764  0.4063  0.2024  0.6672
  219SOL    HW3  950   3.145   2.709   0.914 -1.0969  0.6908  0.5202
  219SOL    MW4  951   3.112   2.720   0.835 -0.3688 -0.0024  0.1165
  220SOL     OW  952   1.457   2.764   0.863 -0.1800  0.1667  0.3422
  220SOL    HW2  953   1.428   2.724   0.945  0.1679  1.3938  1.0851
  220SOL    HW3  954   1.547   2.733   0.852 -0.5982 -0.8871 -0.1646
  220SOL    MW4  955   1.465   2.755   0.873 -0.1893  0.1895  0.3734
  221SOL     OW  956   0.520   4.038   0.636 -0.0573  0.0325 -0.4742
  221SOL    HW2  957   0.466   3.959   0.636 -0.0893  0.0529 -0.0507
  221SOL    HW3  958   0.598   4.014   0.586  0.6312 -0.7483  0.9592
  221SOL    MW4  959   0.523   4.025   0.629  0.0293 -0.0677 -0.2292
  222SOL     OW  960   1.679   0.208   0.750  0.6498  0.0103 -0.0845
  222SOL    HW2  961   1.764   0.235   0.785 -1.2541  2.0940  3.2004
  222SOL    HW3  962   1.657   0.129   0.800 -0.3895  0.8625  0.8429
  222SOL    MW4  963   1.687   0.201   0.762  0.2615  0.3976  0.4712
  223SOL     OW  964   1.791   3.775   0.489 -0.5675 -0.8333  0.2875
  223SOL    HW2  965   1.788   3.773   0.585  0.0648 -0.4302  0.3212
  223SOL    HW3  966   1.828   3.691   0.464  0.6111 -0.3750  0.4642
  223SOL    MW4  967   1.795   3.764   0.498 -0.3285 -0.7193  0.3152
  224SOL     OW  968   4.103   0.090   0.342 -0.0252 -0.2833 -0.1378
  224SOL    HW2  969   4.156   0.158   0.385 -0.5339  0.5457 -0.7851
  224SOL    HW3  970   4.165   0.045   0.285  0.3129 -0.3344  0.2669
  224SOL    MW4  971   4.118   0.093   0.340 -0.0482 -0.1807 -0.1698
  225SOL     OW  972   1.157   3.349   0.476  0.4227  0.4981  0.0549
  225SOL    HW2  973   1.156   3.430   0.425 -2.0207  1.5919  1.7418
  225SOL    HW3  974   1.137   3.376   0.565  1.4317 -1.7559  1.0052
  225SOL    MW4  975   1.154   3.363   0.481  0.2334  0.3448  0.4029
  226SOL     OW  976   4.303   1.506   1.137 -0.4662  0.2514 -0.1455
  226SOL    HW2  977   4.217   1.548   1.142 -0.4151  0.3240  0.1673
  226SOL    HW3  978   4.361   1.564   1.186 -0.6874 -0.9037  1.5589
  226SOL    MW4  979   4.299   1.519   1.144 -0.4883  0.1086  0.1208
  227SOL     OW  980   1.515   1.549   0.430 -0.0258 -0.3135 -0.2538
  227SOL    HW2  981   1.507   1.532   0.336 -0.4074 -0.7005 -0.1529
  227SOL    HW3  982   1.425   1.543   0.464 -0.4079  3.2300 -0.4263
  227SOL    MW4  983   1.502   1.546   0.422 -0.1265  0.1030 -0.2633
  228SOL     OW  984   3.312   3.473   0.474  0.1901  0.5250 -0.3761
  228SOL    HW2  985   3.391   3.448   0.426 -0.8331  0.2189 -1.9561
  228SOL    HW3  986   3.322   3.567   0.489  0.6797  0.5608 -0.9066
  228SOL    MW4  987   3.324   3.482   0.470  0.1197  0.4892 -0.6545
  229SOL     OW  988   0.890   4.533   0.509  0.6706  0.0585  0.0491
  229SOL    HW2  989   0.885   4.560   0.601  0.6026 -0.3003  0.1497
  229SOL    HW3  990   0.977   4.494   0.500  0.8183  0.4194 -0.1296
  229SOL    MW4  991   0.901   4.532   0.520  0.6811  0.0591  0.0387
  230SOL     OW  992   4.456   1.800   0.570 -0.4174 -0.0739 -0.2670
  230SOL    HW2  993   4.465   1.745   0.493 -1.0737 -0.3620 -0.1434
  230SOL    HW3  994   4.365   1.788   0.598 -0.2215  0.1212  0.4794
  230SOL    MW4  995   4.445   1.792   0.564 -0.4783 -0.0862 -0.1522
  231SOL     OW  996   0.751   3.205   0.350  0.0540  0.5173 -0.2128
  231SOL    HW2  997   0.691   3.263   0.398 -1.2633 -1.2561  0.3679
  231SOL    HW3  998   0.694   3.135   0.316  1.7169 -0.9626 -0.0398
  231SOL    MW4  999   0.736   3.203   0.352  0.0996  0.0882 -0.1134
  232SOL     OW 1000   1.367   2.693   0.611 -0.3127  1.0625 -0.0634
  232SOL    HW2 1001   1.385   2.761   0.546 -1.2585  2.0992  0.7207
  232SOL    HW3 1002   1.399   2.730   0.693  2.6867 -1.0457 -0.2205
  232SOL    MW4 1003   1.374   2.707   0.613 -0.0417  0.9210  0.0193
  233SOL     OW 1004   3.772   1.536   1.149  0.1543  0.5619 -0.7710
  233SOL    HW2 1005   3.765   1.456   1.201 -0.9208  0.7046 -0.7006
  233SOL    HW3 1006   3.862   1.566   1.164  0.3534 -0.2668 -0.2747
  233SOL    MW4 1007   3.783   1.529   1.158  0.0389  0.4715 -0.6962
  234SOL     OW 1008   0.084   1.417   0.487 -0.0172 -0.4452  0.0617
  234SOL    HW2 1009  -0.007   1.417   0.516 -0.5318  0.6347 -1.5096
  234SOL    HW3 1010   0.098   1.328   0.453 -0.6384 -0.4645 -0.1534
  234SOL    MW4 1011   0.074   1.405   0.486 -0.1670 -0.3053 -0.1740
  235SOL     OW 1012   1.521   0.007   0.460 -0.4712  0.7348 -0.1276
  235SOL    HW2 1013   1.501  -0.010   0.552 -0.0590  1.4152  0.1004
  235SOL    HW3 1014   1.597   0.065   0.463  0.9212 -1.0053 -0.9454
  235SOL    MW4 1015   1.529   0.013   0.472 -0.2331  0.5941 -0.2054
  236SOL     OW 1016   0.483   2.408   0.885 -0.0776  0.2332 -0.0678
  236SOL    HW2 1017   0.536   2.351   0.941 -0.4484 -0.2606 -0.2142
  236SOL    HW3 1018   0.532   2.413   0.802 -0.6349 -0.8504 -0.4732
  236SOL    MW4 1019   0.497   2.401   0.881 -0.2001  0.0255 -0.1406
  237SOL     OW 1020   0.172   3.016   0.347  0.3637  0.2431  0.1116
  237SOL    HW2 1021   0.166   2.939   0.403  2.4259 -0.4324 -0.5525
  237SOL    HW3 1022   0.106   3.002   0.279 -1.2774  0.4710  1.6228
  237SOL    MW4 1023   0.163   3.004   0.345  0.4192  0.1841  0.2234
  238SOL     OW 1024   4.234   3.851   1.121 -0.0375  0.2892  0.0082
  238SOL    HW2 1025   4.223   3.774   1.177  0.1241  0.9026  0.8865
  238SOL    HW3 1026   4.167   3.912   1.150 -1.4342 -0.2465 -1.9686
  238SOL    MW4 1027   4.224   3.849   1.132 -0.2007  0.2995 -0.1367
  239SOL     OW 1028   4.256   1.304   0.776  0.1317  0.2289  0.1656
  239SOL    HW2 1029   4.289   1.386   0.811  1.6096  0.7956 -2.4489
  239SOL    HW3 1030   4.172   1.291   0.820  1.0304  1.8509  2.4283
  239SOL    MW4 1031   4.249   1.313   0.786  0.4454  0.5176  0.1193
  240SOL     OW 1032   0.248   3.892   0.882 -0.4304  0.2189 -0.1187
  240SOL    HW2 1033   0.233   3.875   0.975 -1.3235  1.5368 -0.0020
  240SOL    HW3 1034   0.334   3.853   0.864  0.1414  0.6831  1.4631
  240SOL    MW4 1035   0.257   3.885   0.892 -0.4728  0.4539  0.1055
  241SOL     OW 1036   1.531   4.134   0.720 -0.5812  0.5759  0.1353
  241SOL    HW2 1037   1.615   4.158   0.759  0.2838  0.4609 -1.6052
  241SOL    HW3 1038   1.468   4.195   0.758  0.2498  0.5513  1.5876
  241SOL    MW4 1039   1.534   4.145   0.730 -0.3574  0.5579  0.0973
  242SOL     OW 1040   1.128   3.881   0.867 -0.4937 -0.5198  0.4151
  242SOL    HW2 1041   1.063   3.948   0.849 -0.2838 -0.0395  1.3868
  242SOL    HW3 1042   1.151   3.894   0.959 -0.6269 -2.0698  0.6865
  242SOL    MW4 1043   1.123   3.891   0.877 -0.4836 -0.6609  0.5791
  243SOL     OW 1044   3.970   4.530   0.505  0.2757  0.0334  0.6583
  243SOL    HW2 1045   3.994   4.618   0.476  0.0941 -0.6442 -1.6797
  243SOL    HW3 1046   3.881   4.517   0.473  0.9519 -1.6606 -0.6440
  243SOL    MW4 1047   3.961   4.540   0.497  0.3407 -0.2799  0.1779
  244SOL     OW 1048   1.800   2.419   0.708 -0.3997 -0.0249 -0.3414
  244SOL    HW2 1049   1.856   2.449   0.636  1.3855  1.5963  1.6308
  244SOL    HW3 1050   1.857   2.363   0.760 -1.3151 -0.2196  0.4650
  244SOL    MW4 1051   1.815   2.416   0.705 -0.2849  0.1633  0.0252
  245SOL     OW 1052   0.242   2.976   0.878 -0.1994  0.4154  0.2862
  245SOL    HW2 1053   0.161   2.943   0.839 -0.7545  0.7240  1.1677
  245SOL    HW3 1054   0.264   3.054   0.827 -0.6047  0.4791  0.2082
  245SOL    MW4 1055   0.234   2.982   0.866 -0.3261  0.4644  0.3922
  246SOL     OW 1056   1.819   3.529   0.844 -0.0002  0.2723 -0.8810
  246SOL    HW2 1057   1.820   3.622   0.821 -0.0177  0.1566 -1.3592
  246SOL    HW3 1058   1.892   3.492   0.796  0.6616  0.2314  0.1477
  246SOL    MW4 1059   1.828   3.537   0.835  0.0849  0.2515 -0.8084
  247SOL     OW 1060   3.806   0.761   1.139  0.0754  0.0456 -0.2352
  247SOL    HW2 1061   3.893   0.790   1.165 -0.2125  0.2768  0.4650
  247SOL    HW3 1062   3.746   0.808   1.197 -0.5221 -0.0534 -0.7617
  247SOL    MW4 1063   3.809   0.771   1.150 -0.0415  0.0631 -0.2123
  248SOL     OW 1064   3.860   2.469   0.683  0.4313 -0.0331 -0.5036
  248SOL    HW2 1065   3.870   2.381   0.720  0.3342  0.3918  0.5610
  248SOL    HW3 1066   3.917   2.524   0.737 -0.6136  0.8099 -0.2459
  248SOL    MW4 1067   3.869   2.465   0.695  0.2806  0.1340 -0.3291
  249SOL     OW 1068   3.045   3.421   0.421  0.1313 -0.0592 -0.0859
  249SOL    HW2 1069   3.004   3.425   0.508  0.2661 -1.0187  0.0254
  249SOL    HW3 1070   3.139   3.428   0.439  0.1795 -0.5862 -0.1242
  249SOL    MW4 1071   3.052   3.423   0.435  0.1550 -0.2551 -0.0763
  250SOL     OW 1072   2.219   0.029   0.272  0.2252 -0.0319  0.3976
  250SOL    HW2 1073   2.140   0.012   0.325 -0.4657 -0.9268 -0.9032
  250SOL    HW3 1074   2.206  -0.022   0.192  2.0083  0.0455  0.0426
  250SOL    MW4 1075   2.207   0.020   0.269  0.3693 -0.1398  0.1791
  251SOL     OW 1076   2.709   1.173   1.089 -0.1009 -0.0197  0.3604
  251SOL    HW2 1077   2.795   1.206   1.114 -0.0698 -0.0772  0.3307
  251SOL    HW3 1078   2.706   1.085   1.127  0.5666 -0.7154 -1.1551
  251SOL    MW4 1079   2.720   1.165   1.098 -0.0086 -0.1191  0.1565
  252SOL     OW 1080   1.079   1.069   0.783  0.2426  0.3043 -0.0204
  252SOL    HW2 1081   1.153   1.119   0.817  0.5352  0.7892 -1.3811
  252SOL    HW3 1082   1.070   1.097   0.692  0.5213 -2.2391 -0.8557
  252SOL    MW4 1083   1.087   1.079   0.776  0.3179  0.0328 -0.3102
  253SOL     OW 1084   3.140   4.284   1.095  0.0230  0.3663 -0.2396
  253SOL    HW2 1085   3.139   4.305   1.002  1.3921 -0.1240 -0.3823
  253SOL    HW3 1086   3.223   4.320   1.127  0.4600 -1.1542  0.3739
  253SOL    MW4 1087   3.151   4.291   1.087  0.2613  0.1011 -0.1775
  254SOL     OW 1088   1.842   1.039   0.622  0.4057  0.9618 -0.6598
  254SOL    HW2 1089   1.781   0.976   0.583 -0.5910  1.6692 -0.2806
  254SOL    HW3 1090   1.928   0.998   0.613 -0.2219 -0.4428 -0.4486
  254SOL    MW4 1091   1.845   1.025   0.616  0.1913  0.8700 -0.5819
  255SOL     OW 1092   1.345   1.885   0.821 -0.4861  0.0445 -0.1765
  255SOL    HW2 1093   1.265   1.937   0.830 -0.2885  0.5479 -1.2450
  255SOL    HW3 1094   1.416   1.950   0.821 -0.3396 -0.0445 -3.3098
  255SOL    MW4 1095   1.344   1.901   0.823 -0.4406  0.0993 -0.7309
  256SOL     OW 1096   2.337   4.570   0.669 -0.3366 -0.3932 -0.5792
  256SOL    HW2 1097   2.412   4.571   0.728 -1.3192 -0.5755  0.6991
  256SOL    HW3 1098   2.375   4.553   0.583  1.2061  0.6607 -0.1353
  256SOL    MW4 1099   2.352   4.568   0.665 -0.2627 -0.2785 -0.3520
  257SOL     OW 1100   4.186   0.938   0.455 -0.4130  0.1682  0.3564
  257SOL    HW2 1101   4.211   0.906   0.542 -3.6084 -0.2104  1.2069
  257SOL    HW3 1102   4.177   0.859   0.402  0.9757  0.3616 -0.1924
  257SOL    MW4 1103   4.188   0.923   0.459 -0.6514  0.1438  0.3962
  258SOL     OW 1104   3.848   2.227   0.819 -0.3440 -0.1400  0.4535
  258SOL    HW2 1105   3.843   2.248   0.912 -0.6710 -1.9527  0.8594
  258SOL    HW3 1106   3.757   2.223   0.791 -0.2778 -0.6447  0.3042
  258SOL    MW4 1107   3.835   2.229   0.827 -0.3786 -0.4456  0.4873
  259SOL     OW 1108   3.629   2.597   0.628 -0.2902  0.3743 -0.1253
  259SOL    HW2 1109   3.704   2.545   0.657 -0.5492 -1.2060 -2.1705
  259SOL    HW3 1110   3.577   2.610   0.707  1.0803 -0.3048  0.9088
  259SOL    MW4 1111   3.632   2.592   0.642 -0.1438  0.0761 -0.2586
  260SOL     OW 1112   2.579   1.729   0.668  0.3059  0.2568 -0.2548
  260SOL    HW2 1113   2.614   1.797   0.727 -0.8130 -0.1991  0.9623
  260SOL    HW3 1114   2.525   1.674   0.725 -0.5609 -0.3717 -1.6742
  260SOL    MW4 1115   2.577   1.731   0.683  0.0439  0.1137 -0.2815
  261SOL     OW 1116   1.587   2.018   0.756 -0.1140 -0.5856 -0.0806
  261SOL    HW2 1117   1.587   2.020   0.660 -0.5872 -1.7263 -0.1076
  261SOL    HW3 1118   1.675   1.989   0.779  0.5251  1.2625 -0.1231
  261SOL    MW4 1119   1.599   2.015   0.746 -0.0920 -0.4919 -0.0898
  262SOL     OW 1120   3.658   3.745   0.753 -0.4240 -0.5836  0.4880
  262SOL    HW2 1121   3.584   3.791   0.793  0.9199  1.7570  0.4181
  262SOL    HW3 1122   3.643   3.754   0.658 -0.3825 -0.6579  0.4750
  262SOL    MW4 1123   3.646   3.753   0.746 -0.2413 -0.2842  0.4771
  263SOL     OW 1124   2.823   1.575   0.621  0.4647  0.0263  0.0790
  263SOL    HW2 1125   2.883   1.633   0.574  0.0994  0.9793  0.7716
  263SOL    HW3 1126   2.739   1.621   0.619 -0.5266 -1.7422 -1.7371
  263SOL    MW4 1127   2.820   1.589   0.614  0.2859 -0.0812 -0.0692
  264SOL     OW 1128   0.912   4.046   0.516 -0.5088 -0.2273 -0.1022
  264SOL    HW2 1129   1.004   4.057   0.492 -0.5935 -0.2022 -0.4223
  264SOL    HW3 1130   0.871   4.130   0.495 -0.4999 -0.0556  0.5476
  264SOL    MW4 1131   0.918   4.059   0.510 -0.5187 -0.2012 -0.0587
  265SOL     OW 1132   1.476   2.965   0.533 -0.4619 -0.0485  0.2790
  265SOL    HW2 1133   1.465   3.032   0.465 -2.1251 -0.9922 -0.4293
  265SOL    HW3 1134   1.415   2.991   0.602 -0.0348 -0.0382  0.6559
  265SOL    MW4 1135   1.466   2.977   0.533 -0.6250 -0.1719  0.2353
  266SOL     OW 1136   0.841   1.184   1.138 -0.1947  0.2119  0.4154
  266SOL    HW2 1137   0.828   1.171   1.045 -0.7187 -1.2777  0.6807
  266SOL    HW3 1138   0.932   1.212   1.146 -0.5999  1.8755 -0.6659
  266SOL    MW4 1139   0.851   1.186   1.127 -0.3173  0.2348  0.3078
  267SOL     OW 1140   0.419   3.507   0.904 -0.2361 -0.4766 -0.2343
  267SOL    HW2 1141   0.441   3.477   0.992 -0.3018 -0.3732 -0.1818
  267SOL    HW3 1142   0.455   3.440   0.846  0.9372  0.1056 -0.1913
  267SOL    MW4 1143   0.426   3.494   0.908 -0.0899 -0.3865 -0.2217
  268SOL     OW 1144   4.220   1.740   0.685 -0.0872 -0.1359 -0.5268
  268SOL    HW2 1145   4.178   1.676   0.629  0.7336  0.2669 -1.6142
  268SOL    HW3 1146   4.273   1.689   0.746  2.5225 -0.4251 -2.9741
  268SOL    MW4 1147   4.221   1.725   0.686  0.3657 -0.1209 -0.9932
  269SOL     OW 1148   0.405   1.701   1.268 -0.3070 -0.1204  0.2226
  269SOL    HW2 1149   0.345   1.632   1.238 -1.1456  0.6409  0.1360
  269SOL    HW3 1150   0.417   1.684   1.361  1.2241 -1.6782 -0.2236
  269SOL    MW4 1151   0.399   1.689   1.276 -0.2156 -0.2254  0.1523
  270SOL     OW 1152   1.715   2.676   0.811 -0.2387  0.7532 -0.1006
  270SOL    HW2 1153   1.742   2.737   0.743  1.2478  1.5512  1.1944
  270SOL    HW3 1154   1.744   2.590   0.779 -0.5455  0.9826 -0.9911
  270SOL    MW4 1155   1.722   2.672   0.798 -0.0832  0.8888 -0.0472
  271SOL     OW 1156   0.341   1.517   0.091 -0.5171 -0.6665 -0.2124
  271SOL    HW2 1157   0.394   1.477   0.160  0.4535  0.0719 -0.5283
  271SOL    HW3 1158   0.340   1.452   0.020  1.7882  0.1984 -1.0741
  271SOL    MW4 1159   0.348   1.503   0.091 -0.0849 -0.4549 -0.3677
  272SOL     OW 1160   4.113   2.107   0.781 -0.0599 -0.0528  0.1747
  272SOL    HW2 1161   4.028   2.151   0.782  0.0674  0.1712  0.8730
  272SOL    HW3 1162   4.128   2.087   0.688 -0.8615 -0.0730  0.0467
  272SOL    MW4 1163   4.104   2.110   0.769 -0.1488 -0.0260  0.2499
  273SOL     OW 1164   2.006   0.020   0.453  0.0891  0.0755  0.1434
  273SOL    HW2 1165   1.925   0.072   0.450  0.2141  0.3774  1.6629
  273SOL    HW3 1166   2.051   0.049   0.532  1.6103 -0.2292 -0.5927
  273SOL    MW4 1167   2.001   0.030   0.463  0.3064  0.0751  0.2468
  274SOL     OW 1168   2.465   1.797   0.415 -0.4207 -0.2152 -0.1981
  274SOL    HW2 1169   2.482   1.890   0.400  0.8391 -0.4615 -0.3551
  274SOL    HW3 1170   2.512   1.777   0.496 -0.6344 -0.7261 -0.2016
  274SOL    MW4 1171   2.474   1.807   0.424 -0.2830 -0.3150 -0.2193
  275SOL     OW 1172   2.018   0.772   1.132 -0.2955 -0.0688  0.5312
  275SOL    HW2 1173   2.011   0.769   1.037 -1.3871 -0.0027  0.6016
  275SOL    HW3 1174   2.024   0.681   1.159 -3.2556 -0.2768  0.6104
  275SOL    MW4 1175   2.018   0.760   1.123 -0.8302 -0.0876  0.5510
  276SOL     OW 1176   1.413   3.249   0.454 -0.9028  0.5284 -0.2528
  276SOL    HW2 1177   1.460   3.332   0.444 -1.8388  1.0443 -0.4447
  276SOL    HW3 1178   1.321   3.273   0.447 -1.3343 -0.0952  2.7750
  276SOL    MW4 1179   1.407   3.263   0.452 -1.0831  0.5145  0.1214
  277SOL     OW 1180   2.707   2.712   0.271  0.1212  0.1646  0.7387
  277SOL    HW2 1181   2.696   2.801   0.304  2.0427  0.3382  0.9855
  277SOL    HW3 1182   2.781   2.677   0.322 -0.6613 -1.5876  0.6883
  277SOL    MW4 1183   2.715   2.719   0.282  0.2713 -0.0439  0.7646
  278SOL     OW 1184   3.256   1.251   0.608  0.4508 -0.4679  0.0847
  278SOL    HW2 1185   3.340   1.208   0.617  0.0848 -1.0020  1.0334
  278SOL    HW3 1186   3.204   1.219   0.682 -0.6082 -0.2049 -0.5298
  278SOL    MW4 1187   3.260   1.241   0.619  0.2627 -0.5037  0.1288
  279SOL     OW 1188   4.440   4.250   1.096  0.5440  0.1874 -0.3794
  279SOL    HW2 1189   4.385   4.312   1.144 -0.0238  0.8423 -1.8486
  279SOL    HW3 1190   4.436   4.169   1.148 -1.3200  0.4137 -0.1426
  279SOL    MW4 1191   4.432   4.247   1.109  0.2232  0.3037 -0.5420
  280SOL     OW 1192   1.020   1.177   0.532 -0.3005 -0.5852  0.1605
  280SOL    HW2 1193   1.005   1.269   0.507 -1.0711 -0.7385  0.0480
  280SOL    HW3 1194   1.102   1.153   0.487 -0.4502 -0.1554 -0.3489
  280SOL    MW4 1195   1.029   1.186   0.523 -0.4218 -0.5487  0.0784
  281SOL     OW 1196   1.174   3.919   1.145 -0.1615  0.3174  0.0003
  281SOL    HW2 1197   1.246   3.977   1.170  0.9811 -0.7907 -0.6642
  281SOL    HW3 1198   1.095   3.967   1.171  0.7293  2.4089 -1.0197
  281SOL    MW4 1199   1.173   3.933   1.152  0.1067  0.4473 -0.2218
  282SOL     OW 1200   3.917   3.546   0.626  0.1225  0.1103 -0.0382
  282SOL    HW2 1201   3.972   3.570   0.701 -1.1094 -0.2653  0.9925
  282SOL    HW3 1202   3.918   3.450   0.626  0.0192  0.1055 -0.4523
  282SOL    MW4 1203   3.925   3.536   0.636 -0.0534  0.0601  0.0431
  283SOL     OW 1204   3.545   1.938   0.819  0.1625 -0.7445  0.1266
  283SOL    HW2 1205   3.540   1.918   0.913  0.4360  1.2988  0.6000
  283SOL    HW3 1206   3.627   1.898   0.791 -0.7100 -2.7694  0.3850
  283SOL    MW4 1207   3.555   1.930   0.828  0.0832 -0.7421  0.2232
  284SOL     OW 1208   3.630   2.640   0.209 -0.2585  0.3846 -0.1326
  284SOL    HW2 1209   3.718   2.659   0.240  0.4764 -0.4867 -1.6384
  284SOL    HW3 1210   3.621   2.690   0.129 -0.7602 -0.3213 -0.5268
  284SOL    MW4 1211   3.640   2.649   0.203 -0.2277  0.1767 -0.3833
  285SOL     OW 1212   1.508   1.174   0.749 -0.0958 -0.1603  0.2705
  285SOL    HW2 1213   1.592   1.202   0.784  0.3904 -0.3332 -0.7467
  285SOL    HW3 1214   1.514   1.190   0.655 -1.2592 -0.0176  0.2085
  285SOL    MW4 1215   1.520   1.180   0.741 -0.1851 -0.1643  0.1281
  286SOL     OW 1216   2.873   1.561   1.129  0.4122 -0.2029 -0.1336
  286SOL    HW2 1217   2.899   1.533   1.042 -0.5886  1.8183 -1.1122
  286SOL    HW3 1218   2.946   1.614   1.160 -0.3273  1.2486 -0.8244
  286SOL    MW4 1219   2.886   1.564   1.122  0.1824  0.2552 -0.3539
  287SOL     OW 1220   0.334   4.237   0.154 -0.1793 -0.1520  0.3158
  287SOL    HW2 1221   0.252   4.284   0.167  0.6095  1.6882 -1.1643
  287SOL    HW3 1222   0.352   4.245   0.060  0.8248 -2.0111  0.3215
  287SOL    MW4 1223   0.326   4.244   0.144  0.0573 -0.1545  0.1213
  288SOL     OW 1224   2.656   0.014   0.461  0.1438  0.0242 -0.1073
  288SOL    HW2 1225   2.693  -0.016   0.544 -0.0184  1.1434  0.3772
  288SOL    HW3 1226   2.583  -0.046   0.444  0.8663 -0.8894 -0.0143
  288SOL    MW4 1227   2.651   0.002   0.469  0.2177  0.0513 -0.0311
  289SOL     OW 1228   3.339   1.514   0.631  0.0267  0.1602 -0.1659
  289SOL    HW2 1229   3.431   1.517   0.655  0.3798 -0.3507 -1.3928
  289SOL    HW3 1230   3.317   1.420   0.632 -0.1094  0.1685 -1.1424
  289SOL    MW4 1231   3.348   1.502   0.634  0.0551  0.0941 -0.4566
  290SOL     OW 1232   2.459   2.097   0.730  0.0939  0.1003 -0.4396
  290SOL    HW2 1233   2.447   2.176   0.782 -0.1178  0.0260 -0.3765
  290SOL    HW3 1234   2.375   2.052   0.735  0.8293 -1.1720  1.2815
  290SOL    MW4 1235   2.446   2.101   0.738  0.1631 -0.0777 -0.2042
  291SOL     OW 1236   3.694   0.279   0.865  0.2408 -0.3207  0.0537
  291SOL    HW2 1237   3.658   0.350   0.811 -0.3557  0.6601  1.6826
  291SOL    HW3 1238   3.785   0.272   0.838  0.1234  0.5868 -0.6252
  291SOL    MW4 1239   3.701   0.287   0.854  0.1469 -0.0716  0.1791
  292SOL     OW 1240   0.530   3.586   0.152 -0.1134  0.5296  0.1672
  292SOL    HW2 1241   0.534   3.514   0.216 -1.4746  0.9024  0.6898
  292SOL    HW3 1242   0.513   3.543   0.068  1.0750  0.0877  0.1405
  292SOL    MW4 1243   0.529   3.570   0.150 -0.1362  0.5205  0.2326
  293SOL     OW 1244   4.051   2.605   0.836 -0.8707  0.2598 -0.0873
  293SOL    HW2 1245   4.130   2.551   0.824  0.0874  1.5371  0.3397
  293SOL    HW3 1246   4.063   2.678   0.776 -2.2734 -0.0910 -0.8174
  293SOL    MW4 1247   4.063   2.607   0.826 -0.9298  0.3819 -0.1273
  294SOL     OW 1248   3.441   3.878   0.852  0.3667  0.3414  0.1009
  294SOL    HW2 1249   3.446   3.887   0.947  2.0759 -0.0671  0.0666
  294SOL    HW3 1250   3.418   3.965   0.821 -0.7822  0.3409  0.9203
  294SOL    MW4 1251   3.439   3.890   0.860  0.4406  0.2873  0.2045
  295SOL     OW 1252   0.680   4.062   0.878 -0.3146 -0.4226 -0.1744
  295SOL    HW2 1253   0.617   4.017   0.821 -1.4026  0.9463 -0.0819
  295SOL    HW3 1254   0.678   4.011   0.960 -2.1178  0.2026  0.2099
  295SOL    MW4 1255   0.671   4.049   0.882 -0.6961 -0.1593 -0.1115
  296SOL     OW 1256   0.475   4.318   0.453 -0.6625  0.2921  0.2314
  296SOL    HW2 1257   0.466   4.411   0.437 -0.2084  0.2844 -0.0629
  296SOL    HW3 1258   0.439   4.276   0.375 -1.7341  0.2030  0.7624
  296SOL    MW4 1259   0.469   4.324   0.441 -0.7440  0.2794  0.2626
  297SOL     OW 1260   1.071   3.420   0.738  0.6625  0.1575 -0.2249
  297SOL    HW2 1261   1.023   3.339   0.756  1.2366 -0.0168  0.5908
  297SOL    HW3 1262   1.147   3.416   0.796  0.5565  1.4081  0.0270
  297SOL    MW4 1263   1.075   3.409   0.748  0.7243  0.2995 -0.0840
  298SOL     OW 1264   3.362   0.682   0.386  0.2965  0.1177 -0.1798
  298SOL    HW2 1265   3.456   0.668   0.381  0.3465  0.2343  0.3729
  298SOL    HW3 1266   3.325   0.594   0.398  0.3708  0.1208  0.0742
  298SOL    MW4 1267   3.369   0.669   0.387  0.3130  0.1335 -0.0733
  299SOL     OW 1268   0.911   3.174   0.777  0.0825  0.1568 -0.2885
  299SOL    HW2 1269   0.899   3.145   0.686 -0.2870  0.6683 -0.4038
  299SOL    HW3 1270   0.988   3.126   0.807  0.2065 -0.0186 -0.8759
  299SOL    MW4 1271   0.920   3.164   0.769  0.0502  0.2010 -0.3813
  300SOL     OW 1272   1.130   3.038   0.854 -0.3790 -0.2613 -0.2020
  300SOL    HW2 1273   1.135   2.948   0.823  0.0651 -0.4496  0.4178
  300SOL    HW3 1274   1.200   3.084   0.807  0.8263 -0.7252  1.1060
  300SOL    MW4 1275   1.140   3.033   0.844 -0.1613 -0.3474  0.0523
  301SOL     OW 1276   1.717   1.756   0.474 -0.3746 -0.1772  0.7934
  301SOL    HW2 1277   1.664   1.680   0.449 -1.1194  0.6733 -0.2174
  301SOL    HW3 1278   1.807   1.729   0.452 -0.5119 -1.1370  1.3505
  301SOL    MW4 1279   1.722   1.742   0.468 -0.4909 -0.1916  0.7336
  302SOL     OW 1280   3.752   3.586   0.408  0.0102 -0.1186  0.1711
  302SOL    HW2 1281   3.690   3.653   0.437 -0.5160 -0.5137 -0.0300
  302SOL    HW3 1282   3.815   3.580   0.479 -1.1993 -0.9922  1.2072
  302SOL    MW4 1283   3.752   3.594   0.421 -0.2186 -0.2861  0.2813
  303SOL     OW 1284   3.623   1.580   0.717 -0.0072 -0.0658  0.1396
  303SOL    HW2 1285   3.666   1.529   0.785  0.6704 -0.0038 -0.2402
  303SOL    HW3 1286   3.662   1.667   0.723 -1.9392  0.7508  1.5128
  303SOL    MW4 1287   3.634   1.585   0.726 -0.1726  0.0502  0.2707
  304SOL     OW 1288   2.937   3.864   1.074 -0.0483 -0.3466 -0.2872
  304SOL    HW2 1289   2.937   3.778   1.117 -3.6422 -0.1701  0.2256
  304SOL    HW3 1290   3.011   3.911   1.113  1.1024 -2.7056  0.4455
  304SOL    MW4 1291   2.946   3.859   1.084 -0.3707 -0.6347 -0.1228
  305SOL     OW 1292   2.331   3.438   0.376 -0.0480  0.1658 -0.7908
  305SOL    HW2 1293   2.269   3.481   0.317 -0.2759  1.5976  0.4673
  305SOL    HW3 1294   2.281   3.366   0.415 -0.6964  0.8568 -0.3409
  305SOL    MW4 1295   2.316   3.434   0.374 -0.1638  0.4458 -0.5654
  306SOL     OW 1296   0.703   0.926   0.216  0.5740 -0.0465  0.4542
  306SOL    HW2 1297   0.742   0.932   0.303  0.9729  0.4575  0.2436
  306SOL    HW3 1298   0.777   0.918   0.157  0.2458 -2.4562  0.3075
  306SOL    MW4 1299   0.718   0.926   0.220  0.5832 -0.2979  0.4071
  307SOL     OW 1300   3.378   4.109   0.722 -0.0951 -0.2442 -0.4915
  307SOL    HW2 1301   3.396   4.203   0.722 -1.2093 -0.0155  1.7423
  307SOL    HW3 1302   3.283   4.103   0.713 -0.1227 -1.1194  0.3220
  307SOL    MW4 1303   3.368   4.121   0.721 -0.2458 -0.3300 -0.0895
  308SOL     OW 1304   2.518   2.526   0.446 -0.1027  0.6121 -0.5798
  308SOL    HW2 1305   2.586   2.459   0.450 -0.0803  0.5814 -1.4529
  308SOL    HW3 1306   2.544   2.583   0.374 -0.9666  0.6302 -0.8852
  308SOL    MW4 1307   2.530   2.524   0.437 -0.2136  0.6104 -0.7353
  309SOL     OW 1308   1.048   0.273   0.348  0.3475  0.2260 -0.5068
  309SOL    HW2 1309   1.135   0.232   0.351  0.1452 -0.1776 -0.1934
  309SOL    HW3 1310   1.043   0.311   0.260  0.3043 -0.9252 -1.0102
  309SOL    MW4 1311   1.059   0.272   0.337  0.3152  0.0209 -0.5319
  310SOL     OW 1312   2.744   0.352   0.833  0.2212  0.2615  0.1766
  310SOL    HW2 1313   2.807   0.296   0.789 -0.0726 -0.5328  0.7596
  310SOL    HW3 1314   2.659   0.317   0.809  0.0218  0.7756  0.1271
  310SOL    MW4 1315   2.741   0.340   0.824  0.1564  0.2245  0.2470
  311SOL     OW 1316   2.488   3.091   1.072  0.0621  0.1823 -0.3616
  311SOL    HW2 1317   2.516   3.126   0.987 -0.2209  0.1397 -0.4746
  311SOL    HW3 1318   2.420   3.150   1.101  1.5521  1.3669  0.7992
  311SOL    MW4 1319   2.483   3.103   1.064  0.2217  0.3331 -0.2234
  312SOL     OW 1320   2.608   3.464   0.426 -0.0120  0.0580 -0.0611
  312SOL    HW2 1321   2.515   3.449   0.406 -0.2030  0.9791  0.0866
  312SOL    HW3 1322   2.655   3.397   0.377 -0.7655 -0.4703 -0.0717
  312SOL    MW4 1323   2.602   3.453   0.417 -0.1369  0.1099 -0.0431
  313SOL     OW 1324   2.641   1.591   0.343  0.1942  0.0634  0.5418
  313SOL    HW2 1325   2.573   1.656   0.325 -0.7807 -1.4424 -1.3881
  313SOL    HW3 1326   2.719   1.626   0.300  0.0872  0.7117  0.8620
  313SOL    MW4 1327   2.643   1.605   0.335  0.0513 -0.0499  0.3295
  314SOL     OW 1328   0.632   1.393   0.600 -0.2002 -0.1256 -0.3606
  314SOL    HW2 1329   0.709   1.412   0.652 -0.5042  1.3978 -0.4398
  314SOL    HW3 1330   0.646   1.304   0.568  1.4523  0.0756 -0.2517
  314SOL    MW4 1331   0.644   1.384   0.602 -0.0223  0.1020 -0.3568
  315SOL     OW 1332   3.626   3.469   0.809  0.3801 -0.2795  0.0515
  315SOL    HW2 1333   3.559   3.439   0.748 -0.2949 -0.2256  0.7536
  315SOL    HW3 1334   3.666   3.545   0.766 -0.3699  0.0035 -0.1427
  315SOL    MW4 1335   3.623   3.475   0.795  0.1919 -0.2353  0.1185
  316SOL     OW 1336   3.890   2.698   0.340  0.1555  0.3647  0.0966
  316SOL    HW2 1337   3.920   2.607   0.347  1.0823  0.6853  0.4480
  316SOL    HW3 1338   3.872   2.724   0.430 -2.8347 -0.3410 -0.2605
  316SOL    MW4 1339   3.892   2.689   0.353 -0.1168  0.3140  0.0958
  317SOL     OW 1340   2.554   1.130   0.197 -0.5381  0.6936 -0.1849
  317SOL    HW2 1341   2.585   1.207   0.246  0.1583  0.6980 -0.6205
  317SOL    HW3 1342   2.621   1.116   0.130  0.0850 -1.1616  0.7854
  317SOL    MW4 1343   2.567   1.138   0.195 -0.3638  0.4495 -0.1144
  318SOL     OW 1344   3.192   2.317   0.669 -0.3275  0.8607 -0.0035
  318SOL    HW2 1345   3.188   2.240   0.613  0.2175  1.0670 -0.3334
  318SOL    HW3 1346   3.115   2.310   0.726 -0.3595  0.1598 -0.1342
  318SOL    MW4 1347   3.181   2.306   0.669 -0.2594  0.7951 -0.0643
  319SOL     OW 1348   4.184   0.686   0.870 -0.8868 -0.4490  0.1218
  319SOL    HW2 1349   4.212   0.743   0.798  0.2572 -0.4229  0.5836
  319SOL    HW3 1350   4.196   0.739   0.949 -0.9584 -0.9072  0.4430
  319SOL    MW4 1351   4.189   0.701   0.871 -0.7453 -0.5060  0.2251
  320SOL     OW 1352   2.159   0.109   0.665 -0.6147 -0.2249 -0.0801
  320SOL    HW2 1353   2.187   0.167   0.595 -1.1812 -1.1041 -1.0458
  320SOL    HW3 1354   2.223   0.038   0.665  0.7367  0.9420  1.8430
  320SOL    MW4 1355   2.171   0.107   0.656 -0.5112 -0.1869  0.0463
  321SOL     OW 1356   3.493   2.633   0.859  0.6399  0.4079  0.3780
  321SOL    HW2 1357   3.464   2.541   0.861  0.6589  0.2865 -2.5851
  321SOL    HW3 1358   3.428   2.677   0.805  1.1336  1.9809  1.0521
  321SOL    MW4 1359   3.481   2.626   0.852  0.7076  0.5991  0.0761
  322SOL     OW 1360   2.725   3.003   0.405  0.1462  0.2984  0.5377
  322SOL    HW2 1361   2.749   3.091   0.375  0.2135  0.5833  1.4212
  322SOL    HW3 1362   2.802   2.972   0.453  0.7302 -0.8791 -1.1012
  322SOL    MW4 1363   2.738   3.011   0.408  0.2320  0.1807  0.4381
  323SOL     OW 1364   0.980   3.116   0.487  0.3188 -0.7888 -0.0286
  323SOL    HW2 1365   0.906   3.158   0.443 -0.1374  0.1360  1.5565
  323SOL    HW3 1366   1.052   3.178   0.479 -0.0009 -0.2237  1.2023
  323SOL    MW4 1367   0.980   3.129   0.480  0.2164 -0.5920  0.3430
  324SOL     OW 1368   3.446   4.217   0.442 -0.3197  0.1642  0.3064
  324SOL    HW2 1369   3.489   4.204   0.527 -1.0961  1.1789  0.8647
  324SOL    HW3 1370   3.425   4.310   0.440 -0.2099  0.1565 -1.0516
  324SOL    MW4 1371   3.449   4.228   0.453 -0.4077  0.2971  0.2009
  325SOL     OW 1372   3.638   0.649   0.543 -0.2589  0.2482  0.3368
  325SOL    HW2 1373   3.723   0.681   0.512  0.0991 -1.0610 -0.0601
  325SOL    HW3 1374   3.588   0.729   0.560  1.0678  1.0425  0.6394
  325SOL    MW4 1375   3.643   0.664   0.541 -0.0370  0.1802  0.3244
  326SOL     OW 1376   0.265   0.444   0.571 -0.5939  0.1264 -0.0587
  326SOL    HW2 1377   0.279   0.408   0.658 -1.7477 -0.1720  0.0094
  326SOL    HW3 1378   0.192   0.505   0.582  0.8327  1.9312 -0.3233
  326SOL    MW4 1379   0.257   0.447   0.584 -0.5580  0.3252 -0.0846
  327SOL     OW 1380   0.425   4.610   0.457 -0.0027 -0.3390 -0.3762
  327SOL    HW2 1381   0.465   4.697   0.460 -1.5015  0.3538  0.0011
  327SOL    HW3 1382   0.346   4.622   0.404  0.7236 -1.8709 -1.8207
  327SOL    MW4 1383   0.420   4.623   0.450 -0.1047 -0.4497 -0.5170
  328SOL     OW 1384   2.836   3.270   0.320  0.2221 -0.5790 -0.3682
  328SOL    HW2 1385   2.916   3.311   0.354 -0.3490 -0.2391  0.5681
  328SOL    HW3 1386   2.837   3.289   0.227  0.7626  0.2122 -0.2023
  328SOL    MW4 1387   2.847   3.278   0.312  0.2179 -0.4299 -0.2228
  329SOL     OW 1388   4.203   2.045   0.502  0.3202  0.1208 -0.2138
  329SOL    HW2 1389   4.192   2.081   0.414  0.8642 -0.9556 -0.7398
  329SOL    HW3 1390   4.295   2.061   0.523  0.0559  0.8655  0.3871
  329SOL    MW4 1391   4.214   2.052   0.493  0.3572  0.0770 -0.2039
  330SOL     OW 1392   0.006   2.863   0.758 -0.0791  0.0891 -0.1783
  330SOL    HW2 1393   0.000   2.771   0.783 -0.2556  0.4722  1.1998
  330SOL    HW3 1394   0.025   2.861   0.664  0.4253 -1.3507 -0.0526
  330SOL    MW4 1395   0.007   2.851   0.749 -0.0358 -0.0503  0.0201
  331SOL     OW 1396   0.879   2.862   0.528 -0.0445  0.2050 -0.1798
  331SOL    HW2 1397   0.788   2.883   0.507 -0.1595  1.6043  1.6619
  331SOL    HW3 1398   0.930   2.933   0.489  0.3722 -1.0464 -1.9934
  331SOL    MW4 1399   0.874   2.874   0.520 -0.0047  0.2246 -0.1761
  332SOL     OW 1400   2.092   3.899   0.215 -0.2801 -0.8393 -0.0809
  332SOL    HW2 1401   2.040   3.937   0.287  0.4095  1.1266 -0.5750
  332SOL    HW3 1402   2.158   3.966   0.197  0.7196 -2.1489 -1.2879
  332SOL    MW4 1403   2.094   3.913   0.222 -0.0575 -0.7527 -0.3053
  333SOL     OW 1404   0.271   3.202   0.718  0.2474 -0.0860  0.7702
  333SOL    HW2 1405   0.201   3.193   0.654  1.6823  0.2594 -0.9045
  333SOL    HW3 1406   0.248   3.280   0.768 -1.5918 -1.1443  1.5998
  333SOL    MW4 1407   0.259   3.212   0.716  0.1940 -0.1798  0.6588
  334SOL     OW 1408   3.101   0.413   0.848  0.2473 -0.2956  0.2336
  334SOL    HW2 1409   3.102   0.373   0.935 -2.0665  0.6724  0.7435
  334SOL    HW3 1410   3.022   0.377   0.806 -0.9993  2.4448  0.1228
  334SOL    MW4 1411   3.090   0.403   0.854 -0.2224  0.1937  0.2862
  335SOL     OW 1412   2.322   4.247   0.361 -0.3659 -0.7622 -0.2578
  335SOL    HW2 1413   2.342   4.175   0.302  0.8215 -0.0545 -0.7420
  335SOL    HW3 1414   2.231   4.233   0.387 -0.5339 -1.7175 -1.3450
  335SOL    MW4 1415   2.313   4.236   0.357 -0.2313 -0.7949 -0.4651
  336SOL     OW 1416   3.339   4.663   1.051  0.5639  0.1348  0.2592
  336SOL    HW2 1417   3.249   4.688   1.071  0.5267  0.3854 -0.2144
  336SOL    HW3 1418   3.357   4.702   0.966  1.0483 -0.0991  0.2482
  336SOL    MW4 1419   3.329   4.671   1.042  0.6230  0.1369  0.1954
  337SOL     OW 1420   2.041   2.072   0.654  0.1172 -0.3058  0.0620
  337SOL    HW2 1421   1.972   2.027   0.703 -0.7163  1.6164  0.6970
  337SOL    HW3 1422   2.047   2.023   0.572 -1.7712 -0.7122  0.1340
  337SOL    MW4 1423   2.033   2.059   0.650 -0.2422 -0.1059  0.1553
  338SOL     OW 1424   2.400   0.712   0.399  0.3584 -0.7160  0.0958
  338SOL    HW2 1425   2.460   0.786   0.403  1.6730 -1.7737  0.0809
  338SOL    HW3 1426   2.452   0.636   0.424 -0.9310 -1.6765 -0.0350
  338SOL    MW4 1427   2.415   0.712   0.402  0.3619 -0.9824  0.0766
  339SOL     OW 1428   2.414   4.543   0.404 -0.0896  0.1434 -0.5326
  339SOL    HW2 1429   2.385   4.455   0.381  0.6574 -0.1595 -0.3333
  339SOL    HW3 1430   2.359   4.601   0.351 -0.3610 -0.4529 -0.9108
  339SOL    MW4 1431   2.403   4.539   0.394 -0.0269  0.0248 -0.5562
  340SOL     OW 1432   2.943   1.471   0.219 -0.3857  0.0569  0.0718
  340SOL    HW2 1433   3.013   1.413   0.251  0.2604  0.4184 -0.6485
  340SOL    HW3 1434   2.948   1.463   0.124 -0.0040  1.6081 -0.0612
  340SOL    MW4 1435   2.953   1.462   0.211 -0.2501  0.3092 -0.0408
  341SOL     OW 1436   0.872   0.008   0.752  0.4950  0.0321  0.2662
  341SOL    HW2 1437   0.842   0.093   0.721 -0.8665  0.0628  1.6038
  341SOL    HW3 1438   0.792  -0.036   0.781  1.3798 -1.1120  0.9989
  341SOL    MW4 1439   0.858   0.013   0.752  0.4321 -0.1148  0.5394
  342SOL     OW 1440   4.426   4.444   0.694 -0.1376  0.4243 -0.5735
  342SOL    HW2 1441   4.407   4.525   0.743 -0.5084  0.5688 -0.9562
  342SOL    HW3 1442   4.495   4.402   0.745 -0.5427  0.5589  0.1030
  342SOL    MW4 1443   4.432   4.449   0.707 -0.2403  0.4621 -0.5347
  343SOL     OW 1444   0.039   0.605   0.658 -0.4644  0.0708  0.6574
  343SOL    HW2 1445   0.107   0.653   0.706  1.0205 -1.7733  0.4627
  343SOL    HW3 1446   0.003   0.544   0.722 -0.0106 -0.8756  0.0096
  343SOL    MW4 1447   0.043   0.604   0.673 -0.2086 -0.2974  0.5463
  344SOL     OW 1448   1.291   3.726   0.711 -0.1480  0.0760  0.6295
  344SOL    HW2 1449   1.256   3.738   0.622  1.7418  0.9948 -0.0086
  344SOL    HW3 1450   1.247   3.793   0.763 -0.0555  0.6018  0.0363
  344SOL    MW4 1451   1.281   3.737   0.706  0.1134  0.2668  0.4671
  345SOL     OW 1452   0.232   0.783   0.799 -0.1963 -0.3285  0.4286
  345SOL    HW2 1453   0.218   0.762   0.892 -0.7349 -0.4959  0.3122
  345SOL    HW3 1454   0.193   0.869   0.787 -1.1916 -0.8123  0.0947
  345SOL    MW4 1455   0.225   0.791   0.810 -0.3987 -0.4144  0.3693
  346SOL     OW 1456   0.968   2.270   0.862 -0.0468 -0.0930  0.1781
  346SOL    HW2 1457   1.023   2.269   0.940  0.5971  0.1880 -0.2728
  346SOL    HW3 1458   1.030   2.273   0.789 -0.6412 -0.5019 -0.3490
  346SOL    MW4 1459   0.983   2.270   0.862 -0.0403 -0.1099  0.0491
  347SOL     OW 1460   2.983   4.604   0.824 -0.0951 -0.3451  0.0720
  347SOL    HW2 1461   2.949   4.614   0.913 -1.8259 -1.8133 -0.3906
  347SOL    HW3 1462   3.052   4.538   0.832  0.7616  0.5831  0.5387
  347SOL    MW4 1463   2.988   4.597   0.836 -0.2105 -0.4163  0.0725
  348SOL     OW 1464   2.470   1.005   0.698  0.5320 -0.2554 -0.1442
  348SOL    HW2 1465   2.394   1.063   0.705  0.7592  0.1074 -0.7343
  348SOL    HW3 1466   2.486   0.996   0.604  2.2664  1.0427  0.0045
  348SOL    MW4 1467   2.462   1.012   0.687  0.7906 -0.0361 -0.2025
  349SOL     OW 1468   2.720   2.415   0.750  0.1341 -0.1294  0.2420
  349SOL    HW2 1469   2.741   2.503   0.782  0.0247 -0.0440  0.0780
  349SOL    HW3 1470   2.782   2.358   0.796  1.3438  0.2215 -0.9247
  349SOL    MW4 1471   2.731   2.419   0.761  0.2792 -0.0720  0.0664
  350SOL     OW 1472   2.025   1.275   1.234 -0.1950  0.2266  0.3397
  350SOL    HW2 1473   2.107   1.229   1.219 -0.3706  0.1726 -0.4850
  350SOL    HW3 1474   2.022   1.290   1.329  1.2231  1.1106  0.2522
  350SOL    MW4 1475   2.035   1.271   1.245 -0.0312  0.3362  0.2192
  351SOL     OW 1476   3.475   0.700   0.877  0.0076 -0.2192 -0.1423
  351SOL    HW2 1477   3.443   0.729   0.962 -1.0346 -1.8939  0.0626
  351SOL    HW3 1478   3.563   0.736   0.871 -0.1226  0.3954  1.3857
  351SOL    MW4 1479   3.482   0.709   0.887 -0.1473 -0.3591  0.0862
  352SOL     OW 1480   1.203   0.266   0.662  0.5109 -0.3813  0.1830
  352SOL    HW2 1481   1.183   0.190   0.716  0.9880 -0.4463  0.2696
  352SOL    HW3 1482   1.247   0.230   0.585  2.4413 -0.0402  1.0857
  352SOL    MW4 1483   1.207   0.252   0.659  0.8285 -0.3449  0.3135
  353SOL     OW 1484   2.268   2.411   0.494  0.2281  0.0949  0.4165
  353SOL    HW2 1485   2.351   2.453   0.470  0.6493 -0.1138  1.5058
  353SOL    HW3 1486   2.265   2.415   0.589 -1.0112  0.0813  0.3859
  353SOL    MW4 1487   2.279   2.417   0.503  0.1202  0.0656  0.5562
  354SOL     OW 1488   1.189   4.061   0.467 -0.0526 -0.0379  0.5946
  354SOL    HW2 1489   1.197   3.966   0.471  0.4047 -0.0531 -0.6720
  354SOL    HW3 1490   1.279   4.093   0.462 -0.1831  0.4926  1.4441
  354SOL    MW4 1491   1.202   4.053   0.467 -0.0094  0.0300  0.5396
  355SOL     OW 1492   4.350   0.465   0.846 -0.4882  0.4346 -0.4639
  355SOL    HW2 1493   4.383   0.441   0.933  1.0646  2.0894 -0.5639
  355SOL    HW3 1494   4.296   0.542   0.861 -2.6371 -1.0084 -0.6033
  355SOL    MW4 1495   4.347   0.472   0.859 -0.5665  0.4626 -0.4955
  356SOL     OW 1496   0.380   1.824   0.693  0.0179  0.0480 -0.1000
  356SOL    HW2 1497   0.424   1.889   0.747 -0.1789  0.0717  0.0315
  356SOL    HW3 1498   0.403   1.848   0.603 -0.3627  0.5220 -0.0697
  356SOL    MW4 1499   0.389   1.836   0.688 -0.0583  0.1136 -0.0787
  357SOL     OW 1500   2.060   1.461   0.870  0.0361  0.4210  0.1561
  357SOL    HW2 1501   2.019   1.479   0.955  0.2816 -0.2620  0.4249
  357SOL    HW3 1502   1.988   1.427   0.816 -0.1435  0.9549  0.0585
  357SOL    MW4 1503   2.045   1.459   0.874  0.0446  0.4014  0.1787
  358SOL     OW 1504   2.032   3.126   0.852 -0.0599 -0.2495 -0.2967
  358SOL    HW2 1505   2.036   3.038   0.814 -0.5276 -1.0958  1.5656
  358SOL    HW3 1506   1.943   3.156   0.830 -0.4174 -0.8343  0.3206
  358SOL    MW4 1507   2.021   3.118   0.844 -0.1688 -0.4382  0.0305
  359SOL     OW 1508   1.306   1.087   0.481 -0.2099  0.6029 -0.1493
  359SOL    HW2 1509   1.379   1.133   0.439 -0.0571  0.9068  0.4423
  359SOL    HW3 1510   1.327   0.994   0.472 -1.3394  0.5645 -2.8492
  359SOL    MW4 1511   1.319   1.081   0.474 -0.3388  0.6380 -0.4274
  360SOL     OW 1512   0.957   4.082   0.805 -0.4494  0.1930 -0.1514
  360SOL    HW2 1513   0.961   4.066   0.710 -1.0489  0.8731 -0.2926
  360SOL    HW3 1514   0.864   4.075   0.827 -0.1689 -1.2147  0.6112
  360SOL    MW4 1515   0.945   4.079   0.795 -0.4915  0.0973 -0.0694
  361SOL     OW 1516   0.115   4.331   0.882 -0.2831 -0.2944  0.9009
  361SOL    HW2 1517   0.059   4.303   0.954 -0.0372  0.4100  1.3670
  361SOL    HW3 1518   0.171   4.256   0.865 -1.1310 -0.8786  0.6656
  361SOL    MW4 1519   0.115   4.317   0.889 -0.3625 -0.2780  0.9313
  362SOL     OW 1520   2.509   0.225   0.796  0.1398  0.6666 -0.0254
  362SOL    HW2 1521   2.514   0.129   0.796  0.6767  0.6845  1.1839
  362SOL    HW3 1522   2.423   0.245   0.833 -0.4825  0.6462 -1.4269
  362SOL    MW4 1523   2.498   0.215   0.801  0.1287  0.6663 -0.0508
  363SOL     OW 1524   2.044   4.380   1.164  0.3437  0.1949 -0.0071
  363SOL    HW2 1525   2.121   4.324   1.175  0.0005 -0.1885  0.4718
  363SOL    HW3 1526   2.008   4.389   1.253 -1.4639 -1.4916 -0.5227
  363SOL    MW4 1527   2.049   4.374   1.177  0.0601 -0.0782 -0.0119
  364SOL     OW 1528   3.141   1.930   1.127  0.3870 -0.0368 -0.0578
  364SOL    HW2 1529   3.215   1.976   1.166 -0.0704  0.0467  0.7246
  364SOL    HW3 1530   3.064   1.976   1.161 -0.0080  0.8921 -2.1098
  364SOL    MW4 1531   3.140   1.942   1.136  0.2747  0.0968 -0.2253
  365SOL     OW 1532   3.497   2.199   0.437  0.1326 -0.5694 -0.1930
  365SOL    HW2 1533   3.402   2.188   0.445  0.1495  0.1527  1.1515
  365SOL    HW3 1534   3.510   2.293   0.425  0.7605 -0.4399  1.3122
  365SOL    MW4 1535   3.486   2.210   0.437  0.2174 -0.4568  0.1830
  366SOL     OW 1536   2.379   4.005   0.207  0.4931  0.5589  0.2379
  366SOL    HW2 1537   2.420   3.941   0.266 -0.5624 -0.9655 -0.6227
  366SOL    HW3 1538   2.401   3.974   0.119 -2.1139 -0.1015 -0.2386
  366SOL    MW4 1539   2.387   3.992   0.203  0.0098  0.2706  0.0615
  367SOL     OW 1540   2.292   3.560   0.750  0.4485  0.2810  0.3062
  367SOL    HW2 1541   2.366   3.501   0.740  1.0734  0.9116  1.0761
  367SOL    HW3 1542   2.215   3.503   0.750  0.9167 -0.3673 -0.6065
  367SOL    MW4 1543   2.291   3.545   0.749  0.5925  0.2789  0.2873
  368SOL     OW 1544   3.584   2.203   0.737  0.4417  0.0878  0.0265
  368SOL    HW2 1545   3.565   2.212   0.643 -0.9165  1.8018  0.4431
  368SOL    HW3 1546   3.570   2.110   0.755  0.8740 -0.2937 -1.5029
  368SOL    MW4 1547   3.580   2.192   0.727  0.3195  0.2639 -0.1204
  369SOL     OW 1548   3.324   2.917   0.533  0.3902  0.1904  0.5284
  369SOL    HW2 1549   3.335   2.969   0.612  1.8793 -1.0462  1.1501
  369SOL    HW3 1550   3.410   2.918   0.491  0.4103 -1.6679  0.4944
  369SOL    MW4 1551   3.337   2.924   0.538  0.5894 -0.2179  0.6059
  370SOL     OW 1552   0.203   0.748   1.070 -0.1109  0.1377 -0.1840
  370SOL    HW2 1553   0.268   0.785   1.131 -0.7257 -1.0753  1.2526
  370SOL    HW3 1554   0.185   0.661   1.105 -2.0258  0.2062 -0.9477
  370SOL    MW4 1555   0.209   0.742   1.083 -0.4447 -0.0133 -0.0952
  371SOL     OW 1556   1.111   2.789   0.712 -0.2820 -0.0015 -0.3615
  371SOL    HW2 1557   1.186   2.740   0.679 -0.3895 -0.6130  0.2646
  371SOL    HW3 1558   1.052   2.797   0.637  0.5033  0.6684 -0.9051
  371SOL    MW4 1559   1.113   2.783   0.698 -0.1926  0.0060 -0.3507
  372SOL     OW 1560   1.915   0.296   0.898  0.2634  0.0035  0.2842
  372SOL    HW2 1561   1.959   0.373   0.862 -1.4499  0.2375 -1.4586
  372SOL    HW3 1562   1.869   0.329   0.975  1.6462  0.1449  1.0577
  372SOL    MW4 1563   1.914   0.310   0.903  0.2197  0.0530  0.1563
  373SOL     OW 1564   2.877   3.202   0.856  0.2516 -0.3543  0.2130
  373SOL    HW2 1565   2.938   3.136   0.825 -0.7567 -1.3059  0.2101
  373SOL    HW3 1566   2.879   3.271   0.789  0.3843 -0.9567 -0.4048
  373SOL    MW4 1567   2.885   3.203   0.843  0.1361 -0.5596  0.1311
  374SOL     OW 1568   1.306   0.896   1.227 -0.3476 -0.3032  0.2549
  374SOL    HW2 1569   1.386   0.853   1.195 -0.4070 -0.4847  0.3463
  374SOL    HW3 1570   1.235   0.841   1.192 -0.4321 -0.1264  0.1507
  374SOL    MW4 1571   1.307   0.883   1.218 -0.3666 -0.3038  0.2532
  375SOL     OW 1572   0.633   1.129   0.517 -0.0569 -0.9479 -0.1589
  375SOL    HW2 1573   0.695   1.058   0.503 -0.6473 -1.4791 -0.1201
  375SOL    HW3 1574   0.581   1.131   0.436  0.4041 -0.1029 -0.4435
  375SOL    MW4 1575   0.634   1.120   0.504 -0.0740 -0.9065 -0.1914
  376SOL     OW 1576   1.050   4.347   0.805  0.5081 -0.0025  0.3262
  376SOL    HW2 1577   1.022   4.257   0.821 -0.0159 -0.0060 -0.6070
  376SOL    HW3 1578   1.023   4.395   0.884 -0.1633 -0.4409  0.3620
  376SOL    MW4 1579   1.043   4.342   0.818  0.3504 -0.0606  0.2077
  377SOL     OW 1580   4.265   4.427   1.231  0.2408 -0.0004 -0.1840
  377SOL    HW2 1581   4.194   4.373   1.195 -0.8260  0.5477  1.0568
  377SOL    HW3 1582   4.256   4.418   1.326 -0.4634  2.9813  0.0869
  377SOL    MW4 1583   4.255   4.419   1.239  0.0072  0.4654  0.0154
  378SOL     OW 1584   3.608   3.064   0.674  0.1355  0.0413 -0.2118
  378SOL    HW2 1585   3.648   3.134   0.727  0.6807 -0.6504  0.3102
  378SOL    HW3 1586   3.515   3.069   0.694  0.1253  0.8421 -0.4431
  378SOL    MW4 1587   3.601   3.074   0.684  0.2060  0.0558 -0.1734
  379SOL     OW 1588   3.605   1.731   0.365 -0.2667  0.1132 -0.4217
  379SOL    HW2 1589   3.599   1.740   0.270 -0.1339  1.2910 -0.3310
  379SOL    HW3 1590   3.514   1.734   0.395 -0.2343  1.2164 -0.4027
  379SOL    MW4 1591   3.592   1.733   0.357 -0.2451  0.4140 -0.4072
  380SOL     OW 1592   3.669   4.310   0.792  0.5493 -0.0122 -0.0541
  380SOL    HW2 1593   3.658   4.283   0.883 -0.6033 -0.1402 -0.2292
  380SOL    HW3 1594   3.702   4.232   0.748  2.1651  0.3580  0.4559
  380SOL    MW4 1595   3.672   4.296   0.798  0.6106  0.0196 -0.0098
  381SOL     OW 1596   1.332   0.374   1.115 -0.1631 -0.0962 -0.4619
  381SOL    HW2 1597   1.242   0.396   1.140 -0.8772 -1.5398 -1.7231
  381SOL    HW3 1598   1.352   0.294   1.163  0.8749  0.8494  0.7116
  381SOL    MW4 1599   1.323   0.367   1.124 -0.1203 -0.1619 -0.4735
  382SOL     OW 1600   2.991   2.929   0.482 -0.1145 -0.1222 -0.0126
  382SOL    HW2 1601   3.016   2.960   0.569 -0.2867 -0.0111 -0.0036
  382SOL    HW3 1602   3.064   2.955   0.425 -0.9500  1.6645 -0.2943
  382SOL    MW4 1603   3.004   2.936   0.486 -0.2477  0.1283 -0.0486
  383SOL     OW 1604   2.279   2.700   0.775  0.0578 -0.3823 -0.4315
  383SOL    HW2 1605   2.291   2.702   0.870  0.3271  0.7819 -0.4841
  383SOL    HW3 1606   2.367   2.707   0.739 -0.0435 -0.8150 -0.7688
  383SOL    MW4 1607   2.292   2.701   0.783  0.0799 -0.2859 -0.4830
  384SOL     OW 1608   3.857   3.897   1.109 -0.3502  0.4356 -0.0134
  384SOL    HW2 1609   3.767   3.926   1.120 -0.6089 -0.7233  1.0758
  384SOL    HW3 1610   3.855   3.803   1.130  1.0824  0.3808 -0.0547
  384SOL    MW4 1611   3.845   3.888   1.113 -0.1950  0.2754  0.1248
  385SOL     OW 1612   1.050   0.571   0.395  0.3974  0.1522  0.5240
  385SOL    HW2 1613   0.999   0.619   0.460  3.4953  1.8431  1.7811
  385SOL    HW3 1614   1.038   0.479   0.419 -1.5875  0.5368  1.1027
  385SOL    MW4 1615   1.042   0.565   0.406  0.5442  0.4261  0.7662
  386SOL     OW 1616   3.634   2.719   1.074  0.1335 -0.5199  0.1671
  386SOL    HW2 1617   3.633   2.636   1.121 -0.5793 -0.7451 -0.2403
  386SOL    HW3 1618   3.590   2.700   0.991 -0.5911  0.4245  0.3345
  386SOL    MW4 1619   3.628   2.705   1.069 -0.0563 -0.4246  0.1355
  387SOL     OW 1620   0.626   4.614   0.840  0.1468 -0.6159 -0.6868
  387SOL    HW2 1621   0.632   4.612   0.936  1.5046  1.1287 -0.7009
  387SOL    HW3 1622   0.615   4.523   0.815  0.6760 -1.1965  1.0988
  387SOL    MW4 1623   0.625   4.602   0.849  0.3958 -0.4625 -0.4531
  388SOL     OW 1624   2.227   2.439   0.761  0.2273 -0.5955  0.3389
  388SOL    HW2 1625   2.236   2.534   0.764 -0.3432 -0.5092 -0.4526
  388SOL    HW3 1626   2.305   2.406   0.805  0.2906  0.2435  0.8653
  388SOL    MW4 1627   2.238   2.447   0.767  0.1602 -0.4737  0.3039
  389SOL     OW 1628   0.410   2.184   0.447  0.3820  0.3775 -0.0097
  389SOL    HW2 1629   0.387   2.244   0.376  0.6556  0.1018 -0.3316
  389SOL    HW3 1630   0.496   2.215   0.476  0.2324  0.5431  0.2613
  389SOL    MW4 1631   0.418   2.196   0.442  0.3983  0.3633 -0.0165
  390SOL     OW 1632   3.005   0.976   0.348 -0.6530 -0.1546  0.1501
  390SOL    HW2 1633   3.053   1.058   0.343  0.2518 -0.7170 -0.4990
  390SOL    HW3 1634   3.066   0.914   0.388 -0.7445 -0.9196 -0.8606
  390SOL    MW4 1635   3.019   0.979   0.352 -0.5460 -0.3297 -0.0689
  391SOL     OW 1636   3.860   3.682   0.167  0.1952 -0.1357  0.0604
  391SOL    HW2 1637   3.834   3.773   0.151  0.5457  0.2507  1.6274
  391SOL    HW3 1638   3.823   3.661   0.253  1.0759 -1.1090  0.2121
  391SOL    MW4 1639   3.852   3.691   0.176  0.3579 -0.2131  0.2872
  392SOL     OW 1640   2.951   2.254   0.804  0.0224  0.2339 -0.0416
  392SOL    HW2 1641   2.947   2.262   0.899 -0.4377  1.1238 -0.1383
  392SOL    HW3 1642   2.929   2.162   0.788  1.3001 -0.2470  0.7740
  392SOL    MW4 1643   2.948   2.243   0.815  0.1304  0.2882  0.0533
  393SOL     OW 1644   4.309   0.523   0.482  0.2258  0.1780  0.0953
  393SOL    HW2 1645   4.243   0.589   0.460 -0.1779  0.3186  1.6236
  393SOL    HW3 1646   4.372   0.569   0.538 -0.4580 -0.8699  1.7803
  393SOL    MW4 1647   4.308   0.538   0.487  0.0825  0.0583  0.5193
  394SOL     OW 1648   4.395   3.558   0.538  0.0549 -0.0546 -0.0554
  394SOL    HW2 1649   4.445   3.581   0.460  1.7499 -0.7887  0.7897
  394SOL    HW3 1650   4.321   3.619   0.537  2.1536  2.6107 -0.1265
  394SOL    MW4 1651   4.392   3.569   0.527  0.5555  0.2003  0.0467
  395SOL     OW 1652   1.336   3.126   0.695  0.3277 -0.1603  0.0590
  395SOL    HW2 1653   1.383   3.173   0.626  0.0392 -0.8132 -0.5958
  395SOL    HW3 1654   1.400   3.114   0.765  0.8594 -0.2040 -0.4327
  395SOL    MW4 1655   1.350   3.130   0.695  0.3597 -0.2522 -0.0923
  396SOL     OW 1656   0.219   2.375   0.823 -0.1059 -0.8899 -0.1141
  396SOL    HW2 1657   0.306   2.407   0.846  0.4865 -2.0080 -0.7557
  396SOL    HW3 1658   0.236   2.296   0.772 -1.4786 -0.5021 -1.1908
  396SOL    MW4 1659   0.233   2.369   0.820 -0.2089 -0.9861 -0.3408
  397SOL     OW 1660   0.618   0.528   1.180 -0.1057  0.0142  0.0022
  397SOL    HW2 1661   0.604   0.613   1.138  1.6341 -0.8806 -2.4693
  397SOL    HW3 1662   0.543   0.475   1.153 -0.4586  0.3090  0.3922
  397SOL    MW4 1663   0.606   0.532   1.171  0.0774 -0.0650 -0.2723
  398SOL     OW 1664   2.131   0.683   0.452 -0.2090 -0.0835  0.6707
  398SOL    HW2 1665   2.219   0.682   0.415  0.2426  1.1152  1.6646
  398SOL    HW3 1666   2.111   0.591   0.468  1.2314 -0.3094  1.2720
  398SOL    MW4 1667   2.140   0.671   0.449  0.0408  0.0449  0.8812
  399SOL     OW 1668   3.737   1.241   0.499 -0.7309  0.8664  0.4772
  399SOL    HW2 1669   3.729   1.336   0.507 -1.5093  1.0102 -1.6184
  399SOL    HW3 1670   3.651   1.208   0.521 -0.7739  0.7382  0.1207
  399SOL    MW4 1671   3.725   1.249   0.503 -0.8392  0.8684  0.1537
  400SOL     OW 1672   0.700   2.163   0.836  0.3253 -0.5100  0.3585
  400SOL    HW2 1673   0.689   2.190   0.745 -0.1799 -0.9741  0.2743
  400SOL    HW3 1674   0.766   2.222   0.871 -0.1074  0.2323 -0.0669
  400SOL    MW4 1675   0.707   2.174   0.828  0.2016 -0.4733  0.2912
  401SOL     OW 1676   3.167   4.394   0.832 -0.4722 -0.4760 -0.5334
  401SOL    HW2 1677   3.132   4.321   0.780  0.4869 -0.9973 -0.4723
  401SOL    HW3 1678   3.260   4.397   0.808 -0.0010 -0.7848  1.2142
  401SOL    MW4 1679   3.175   4.384   0.822 -0.2835 -0.5860 -0.2948
  402SOL     OW 1680   0.135   3.618   0.652 -0.5472 -0.0254 -0.2162
  402SOL    HW2 1681   0.141   3.555   0.724  1.5450  1.5753  1.0609
  402SOL    HW3 1682   0.045   3.611   0.621 -1.0116 -1.9222  1.4487
  402SOL    MW4 1683   0.124   3.608   0.657 -0.3324 -0.0646  0.1720
  403SOL     OW 1684   0.948   3.651   0.810  0.6366  0.2745  0.2837
  403SOL    HW2 1685   0.997   3.576   0.776  0.0176 -0.2479  0.5439
  403SOL    HW3 1686   1.015   3.717   0.828  1.1868 -0.2270  0.0786
  403SOL    MW4 1687   0.963   3.650   0.808  0.6276  0.1392  0.2909
  404SOL     OW 1688   0.502   1.421   0.312  0.3508 -0.0844 -0.0503
  404SOL    HW2 1689   0.578   1.446   0.365  0.7594 -0.4251 -0.4700
  404SOL    HW3 1690   0.514   1.328   0.296 -0.7651 -0.3975  0.8607
  404SOL    MW4 1691   0.514   1.412   0.317  0.2576 -0.1706  0.0145
  405SOL     OW 1692   0.622   1.703   0.507  0.2375 -0.1704  0.5942
  405SOL    HW2 1693   0.711   1.713   0.472 -0.3895  0.1528 -0.9538
  405SOL    HW3 1694   0.569   1.766   0.457 -0.8870 -0.4426  1.4155
  405SOL    MW4 1695   0.627   1.713   0.496  0.0064 -0.1637  0.4983
  406SOL     OW 1696   4.260   0.771   1.137 -0.4516 -0.0847 -0.0932
  406SOL    HW2 1697   4.339   0.813   1.172 -0.2080 -0.7547  0.1646
  406SOL    HW3 1698   4.188   0.816   1.180 -0.1583 -0.9022  1.2685
  406SOL    MW4 1699   4.261   0.783   1.147 -0.3810 -0.2810  0.1205
  407SOL     OW 1700   4.081   2.135   0.260 -0.5425  0.0801  0.1133
  407SOL    HW2 1701   3.998   2.157   0.303 -0.5851 -0.1926  0.1726
  407SOL    HW3 1702   4.057   2.074   0.192 -0.5245  0.8020 -0.5500
  407SOL    MW4 1703   4.067   2.130   0.257 -0.5455  0.1392  0.0336
  408SOL     OW 1704   1.715   3.072   0.543 -0.6818  0.1108  0.2082
  408SOL    HW2 1705   1.726   3.119   0.626 -0.7074  0.4094  0.0407
  408SOL    HW3 1706   1.624   3.042   0.545 -0.9643  0.9297 -0.1352
  408SOL    MW4 1707   1.704   3.074   0.555 -0.7225  0.2584  0.1408
  409SOL     OW 1708   2.006   2.277   0.817  0.0631 -0.0168 -0.3988
  409SOL    HW2 1709   2.068   2.345   0.790  1.8220 -1.3656  0.1965
  409SOL    HW3 1710   2.025   2.202   0.760  0.8859 -1.3995  1.6512
  409SOL    MW4 1711   2.017   2.276   0.806  0.4039 -0.3772 -0.0498
  410SOL     OW 1712   1.074   0.739   1.160 -0.0574  0.0676  0.2856
  410SOL    HW2 1713   1.055   0.646   1.172 -1.3526 -0.1915 -3.2318
  410SOL    HW3 1714   1.004   0.784   1.208  0.1158 -0.7489  1.3167
  410SOL    MW4 1715   1.062   0.733   1.168 -0.2055 -0.0743 -0.0423
  411SOL     OW 1716   0.003   3.453   1.098  0.2352  0.1534 -0.3830
  411SOL    HW2 1717  -0.000   3.368   1.142 -0.5072  0.3713 -0.0092
  411SOL    HW3 1718   0.073   3.501   1.143  1.1073 -0.4893 -1.0305
  411SOL    MW4 1719   0.012   3.448   1.110  0.2523  0.0970 -0.4191
  412SOL     OW 1720   3.898   0.723   0.481 -0.0982  0.1939  0.1282
  412SOL    HW2 1721   3.906   0.819   0.483  0.3530  0.1242  1.9035
  412SOL    HW3 1722   3.922   0.695   0.569  1.2660 -1.6881 -0.8240
  412SOL    MW4 1723   3.902   0.732   0.493  0.1414 -0.0636  0.2368
  413SOL     OW 1724   4.113   3.902   0.668  0.0044 -0.2734 -0.1668
  413SOL    HW2 1725   4.184   3.872   0.724 -0.2184  1.1381  0.9024
  413SOL    HW3 1726   4.033   3.886   0.718 -0.0856  2.5711  0.7089
  413SOL    MW4 1727   4.112   3.896   0.682 -0.0372  0.2878  0.0898
  414SOL     OW 1728   1.400   2.397   0.623 -0.0368  0.5936  0.1065
  414SOL    HW2 1729   1.395   2.491   0.636  1.1089  0.7552 -0.5398
  414SOL    HW3 1730   1.459   2.366   0.691  1.6221  0.7094 -1.2251
  414SOL    MW4 1731   1.407   2.405   0.633  0.3333  0.6299 -0.1546
  415SOL     OW 1732   1.344   0.474   0.846  0.8564 -0.3913 -0.2764
  415SOL    HW2 1733   1.301   0.403   0.797 -0.4220  0.9981 -1.2113
  415SOL    HW3 1734   1.332   0.450   0.938 -0.9587 -0.6018 -0.5459
  415SOL    MW4 1735   1.336   0.461   0.851  0.4483 -0.2357 -0.4353
  416SOL     OW 1736   2.903   0.737   1.119  0.4769 -0.3517  0.1923
  416SOL    HW2 1737   2.987   0.781   1.108  0.3648 -0.0986  0.3404
  416SOL    HW3 1738   2.861   0.745   1.033  0.3046  0.1528  0.3223
  416SOL    MW4 1739   2.908   0.744   1.106  0.4392 -0.2518  0.2290
  417SOL     OW 1740   1.894   4.028   0.390 -0.2847  0.8160 -0.3317
  417SOL    HW2 1741   1.822   4.071   0.344 -0.4434 -0.9820 -1.8165
  417SOL    HW3 1742   1.861   3.940   0.410  2.4836 -1.1231 -3.7400
  417SOL    MW4 1743   1.880   4.022   0.387  0.0596  0.3233 -0.9773
  418SOL     OW 1744   2.632   4.306   0.815 -0.0255  0.1469  0.5368
  418SOL    HW2 1745   2.677   4.294   0.898  0.0612  0.0366  0.4740
  418SOL    HW3 1746   2.547   4.263   0.828  0.5817 -1.2195  0.0550
  418SOL    MW4 1747   2.627   4.298   0.828  0.0660 -0.0482  0.4650
  419SOL     OW 1748   1.550   1.991   0.491 -0.1887 -0.3089  0.2795
  419SOL    HW2 1749   1.458   1.967   0.480 -0.0325 -0.2461 -1.2515
  419SOL    HW3 1750   1.597   1.908   0.487 -0.2194 -0.4163  1.7527
  419SOL    MW4 1751   1.544   1.977   0.489 -0.1721 -0.3150  0.2719
  420SOL     OW 1752   1.847   1.936   0.836  0.1747 -0.3162  0.5226
  420SOL    HW2 1753   1.837   1.847   0.801 -2.9856  0.2037 -0.0194
  420SOL    HW3 1754   1.823   1.928   0.928 -0.7010  0.0784  0.3303
  420SOL    MW4 1755   1.843   1.923   0.843 -0.3580 -0.1956  0.4257
  421SOL     OW 1756   4.149   0.681   0.344 -0.1408  0.3954 -0.3827
  421SOL    HW2 1757   4.152   0.608   0.282 -0.4237  0.4201 -0.4244
  421SOL    HW3 1758   4.060   0.680   0.378 -0.0225  0.4617 -0.0713
  421SOL    MW4 1759   4.138   0.671   0.340 -0.1626  0.4073 -0.3471
  422SOL     OW 1760   1.572   3.489   0.449 -0.1544  0.1609  0.4212
  422SOL    HW2 1761   1.665   3.494   0.424  0.1404  0.8914  1.6256
  422SOL    HW3 1762   1.537   3.575   0.427 -0.5374 -0.0890  0.0404
  422SOL    MW4 1763   1.580   3.501   0.443 -0.1661  0.2241  0.5299
  423SOL     OW 1764   3.668   1.191   0.834  0.0143  0.6021 -0.2120
  423SOL    HW2 1765   3.699   1.282   0.831  0.4352  0.4913  0.5947
  423SOL    HW3 1766   3.745   1.139   0.813  0.0326  0.3861  0.3908
  423SOL    MW4 1767   3.682   1.196   0.831  0.0720  0.5589 -0.0260
  424SOL     OW 1768   4.490   0.871   1.225 -0.0995 -0.3412 -0.3276
  424SOL    HW2 1769   4.553   0.810   1.185  0.5379  0.2570 -0.2543
  424SOL    HW3 1770   4.501   0.858   1.319  1.2811  1.1067 -0.2691
  424SOL    MW4 1771   4.500   0.861   1.232  0.1668 -0.0712 -0.3102
  425SOL     OW 1772   4.463   2.689   1.123  0.2088 -0.0183 -0.1502
  425SOL    HW2 1773   4.455   2.597   1.149  0.0308 -0.2698 -1.0527
  425SOL    HW3 1774   4.464   2.686   1.027 -0.6538  0.9879 -0.1960
  425SOL    MW4 1775   4.462   2.676   1.114  0.0716  0.0813 -0.2754
  426SOL     OW 1776   4.289   0.246   0.505  0.2619 -0.0081  0.4550
  426SOL    HW2 1777   4.285   0.335   0.471 -1.9864 -0.5815 -0.8676
  426SOL    HW3 1778   4.381   0.233   0.528  0.8753  2.1489 -0.6977
  426SOL    MW4 1779   4.301   0.256   0.503  0.0463  0.2009  0.1284
  427SOL     OW 1780   1.981   0.762   0.859  0.0011 -0.4030  0.0766
  427SOL    HW2 1781   1.887   0.767   0.843 -0.2186  1.6886  1.8353
  427SOL    HW3 1782   2.020   0.809   0.785 -0.3231 -1.3940 -0.7282
  427SOL    MW4 1783   1.974   0.769   0.847 -0.0707 -0.2578  0.2025
  428SOL     OW 1784   1.649   0.856   0.536 -0.4395 -0.2025  0.2101
  428SOL    HW2 1785   1.664   0.808   0.618 -0.0114  0.7846  0.7194
  428SOL    HW3 1786   1.724   0.835   0.481 -0.4451 -0.4158  0.2825
  428SOL    MW4 1787   1.661   0.847   0.540 -0.3837 -0.1005  0.2868
  429SOL     OW 1788   3.878   1.037   0.780  0.0405 -0.1500 -0.2369
  429SOL    HW2 1789   3.852   0.946   0.795 -1.6858  0.5186  1.0289
  429SOL    HW3 1790   3.889   1.042   0.685 -1.6002 -1.2568 -0.5272
  429SOL    MW4 1791   3.876   1.025   0.769 -0.4036 -0.2078 -0.1082
  430SOL     OW 1792   3.598   0.919   1.250 -0.2254 -0.2342 -0.4059
  430SOL    HW2 1793   3.611   1.006   1.213  0.8185 -0.4491 -0.5787
  430SOL    HW3 1794   3.528   0.880   1.198 -0.5060  0.4019 -0.5042
  430SOL    MW4 1795   3.591   0.925   1.238 -0.1247 -0.1786 -0.4418
  431SOL     OW 1796   0.163   1.062   0.729 -0.5352  0.2718  0.1725
  431SOL    HW2 1797   0.155   1.071   0.634 -0.5884 -0.5096  0.0966
  431SOL    HW3 1798   0.074   1.071   0.761 -0.7062 -0.7345  0.0228
  431SOL    MW4 1799   0.150   1.064   0.720 -0.5648  0.0360  0.1428
  432SOL     OW 1800   2.548   4.605   0.833  0.1541 -0.3755 -0.3890
  432SOL    HW2 1801   2.642   4.588   0.827  0.2397  0.3437 -1.2047
  432SOL    HW3 1802   2.531   4.608   0.927  1.1075  0.3135 -0.2295
  432SOL    MW4 1803   2.558   4.603   0.845  0.2909 -0.1893 -0.4756
  433SOL     OW 1804   0.158   1.269   1.223  0.5838  0.2692 -0.3404
  433SOL    HW2 1805   0.229   1.207   1.206 -0.8205 -2.0816  1.9942
  433SOL    HW3 1806   0.082   1.232   1.179 -0.1822  0.5286  0.7278
  433SOL    MW4 1807   0.157   1.256   1.215  0.2975 -0.0068  0.1086
  434SOL     OW 1808   0.894   2.576   0.478 -0.4437 -0.2374 -0.2137
  434SOL    HW2 1809   0.869   2.556   0.568 -0.1530 -0.3252 -0.1538
  434SOL    HW3 1810   0.889   2.672   0.474 -0.0785 -0.2067  0.0074
  434SOL    MW4 1811   0.890   2.586   0.489 -0.3572 -0.2451 -0.1766
  435SOL     OW 1812   3.941   0.631   0.746  0.5128 -0.2165 -0.1170
  435SOL    HW2 1813   4.017   0.668   0.790 -0.6925  2.1720  0.0140
  435SOL    HW3 1814   3.940   0.539   0.773  2.1712  0.2100  1.4948
  435SOL    MW4 1815   3.951   0.624   0.755  0.5724  0.1549  0.1129
  436SOL     OW 1816   0.872   2.742   0.876 -0.2866 -0.1597 -0.2115
  436SOL    HW2 1817   0.890   2.757   0.969 -0.6292 -1.7317  0.1308
  436SOL    HW3 1818   0.948   2.776   0.830 -0.3134  1.0460  0.6079
  436SOL    MW4 1819   0.884   2.748   0.882 -0.3353 -0.2079 -0.0582
  437SOL     OW 1820   1.509   3.037   0.890  0.0409  0.1725  0.0302
  437SOL    HW2 1821   1.482   2.945   0.886  1.4067 -0.2332  0.0845
  437SOL    HW3 1822   1.520   3.055   0.984 -1.9918  0.9311  0.1613
  437SOL    MW4 1823   1.507   3.027   0.902 -0.0470  0.2191  0.0547
  438SOL     OW 1824   0.530   0.194   0.764  0.3844  0.1760 -0.3745
  438SOL    HW2 1825   0.552   0.106   0.794 -1.0064  1.2032  4.1430
  438SOL    HW3 1826   0.595   0.251   0.807 -2.4502  1.8579  1.9349
  438SOL    MW4 1827   0.542   0.190   0.774 -0.1732  0.5335  0.5262
  439SOL     OW 1828   3.617   4.262   1.092 -0.1005  0.0377 -0.2738
  439SOL    HW2 1829   3.617   4.186   1.151 -0.5244 -0.4737 -0.9196
  439SOL    HW3 1830   3.677   4.324   1.133  0.4203 -0.7378  0.1592
  439SOL    MW4 1831   3.625   4.260   1.105 -0.0877 -0.1321 -0.3018
  440SOL     OW 1832   3.986   3.166   0.379 -0.1740  0.6889 -0.0829
  440SOL    HW2 1833   3.892   3.155   0.391 -0.0872 -0.4266 -0.3873
  440SOL    HW3 1834   3.994   3.246   0.327 -1.1372 -0.8300 -2.6675
  440SOL    MW4 1835   3.975   3.175   0.373 -0.2897  0.3412 -0.4641
  441SOL     OW 1836   2.978   1.981   0.454  0.0349  0.1627 -0.0574
  441SOL    HW2 1837   2.972   1.889   0.429  1.2225 -0.1469  0.7483
  441SOL    HW3 1838   2.895   2.019   0.426 -0.7446 -1.2985  0.2078
  441SOL    MW4 1839   2.967   1.974   0.447  0.0889 -0.0709  0.0839
  442SOL     OW 1840   0.754   4.288   0.523 -0.1243 -0.7600  0.1256
  442SOL    HW2 1841   0.670   4.278   0.478 -0.0216 -0.6266 -0.0969
  442SOL    HW3 1842   0.778   4.380   0.509  0.1682 -0.8533 -0.0071
  442SOL    MW4 1843   0.746   4.299   0.515 -0.0722 -0.7548  0.0788
  443SOL     OW 1844   0.636   4.332   0.770  0.1887  0.3837 -0.5912
  443SOL    HW2 1845   0.675   4.262   0.823  0.0951 -0.2927 -1.4106
  443SOL    HW3 1846   0.679   4.325   0.685 -0.3030  0.8961 -0.8847
  443SOL    MW4 1847   0.647   4.321   0.766  0.1115  0.3624 -0.7380
  444SOL     OW 1848   1.224   3.772   0.459  0.8259 -0.2084  0.5471
  444SOL    HW2 1849   1.316   3.763   0.436  0.7050 -0.2623  0.0805
  444SOL    HW3 1850   1.179   3.708   0.403  0.4354  0.2913  0.2852
  444SOL    MW4 1851   1.230   3.762   0.448  0.7584 -0.1495  0.4510
  445SOL     OW 1852   2.805   1.081   0.053 -0.0003  0.0064  0.1039
  445SOL    HW2 1853   2.863   1.011   0.022 -1.0544 -1.0933  0.5904
  445SOL    HW3 1854   2.816   1.081   0.148 -0.2136  0.3172  0.1304
  445SOL    MW4 1855   2.814   1.072   0.061 -0.1676 -0.0975  0.1716
  446SOL     OW 1856   2.789   4.545   0.650  0.2644 -0.1513  0.1537
  446SOL    HW2 1857   2.861   4.571   0.708  0.7019  0.5104 -0.6650
  446SOL    HW3 1858   2.764   4.458   0.681  1.5135 -0.4533  0.3696
  446SOL    MW4 1859   2.795   4.537   0.662  0.4869 -0.1044  0.0741
  447SOL     OW 1860   2.675   1.939   0.832  0.0110  0.0614 -0.0093
  447SOL    HW2 1861   2.619   2.011   0.806  2.8217  2.5628  0.5949
  447SOL    HW3 1862   2.755   1.951   0.782  0.8245 -2.2238  0.6466
  447SOL    MW4 1863   2.678   1.950   0.822  0.4892  0.0898  0.1570
  448SOL     OW 1864   1.403   4.565   0.706  0.2671 -0.0050  0.5408
  448SOL    HW2 1865   1.384   4.475   0.732  1.2209  0.0020  1.2851
  448SOL    HW3 1866   1.326   4.615   0.731 -1.0964 -0.9356 -1.6617
  448SOL    MW4 1867   1.391   4.560   0.713  0.2130 -0.1268  0.3483
  449SOL     OW 1868   3.211   3.747   0.756 -0.3880 -0.5358 -0.1274
  449SOL    HW2 1869   3.152   3.808   0.799 -1.6330 -1.9830  0.2649
  449SOL    HW3 1870   3.296   3.764   0.796 -0.8502  0.4546  0.4643
  449SOL    MW4 1871   3.214   3.757   0.767 -0.6132 -0.5958  0.0024
  450SOL     OW 1872   0.081   3.880   0.404  0.6218 -0.5266  0.2404
  450SOL    HW2 1873   0.162   3.931   0.396 -0.7902  1.6728 -0.4070
  450SOL    HW3 1874   0.074   3.861   0.498  1.6821 -0.3907  0.3539
  450SOL    MW4 1875   0.091   3.885   0.416  0.5754 -0.2186  0.1699
  451SOL     OW 1876   4.092   4.157   0.562  0.4220  0.3185 -0.3121
  451SOL    HW2 1877   4.130   4.084   0.611 -0.9423  0.1113  0.4621
  451SOL    HW3 1878   4.118   4.141   0.471  0.0690 -1.1688 -0.1595
  451SOL    MW4 1879   4.101   4.146   0.557  0.1950  0.0949 -0.1898
  452SOL     OW 1880   4.276   2.441   0.453 -0.1684  0.0748 -0.1427
  452SOL    HW2 1881   4.296   2.535   0.451  1.7102 -0.3265 -1.1604
  452SOL    HW3 1882   4.205   2.431   0.389 -0.7398  0.8556  0.3434
  452SOL    MW4 1883   4.269   2.452   0.444  0.0038  0.1247 -0.2128
  453SOL     OW 1884   1.329   0.581   0.352  0.1742 -0.1213  0.0467
  453SOL    HW2 1885   1.336   0.668   0.391  1.1416  0.1001 -0.6091
  453SOL    HW3 1886   1.235   0.568   0.340 -0.0408  0.3860  1.1285
  453SOL    MW4 1887   1.317   0.591   0.356  0.2735 -0.0252  0.1028
  454SOL     OW 1888   2.727   4.247   1.092  0.5642 -0.1824  0.8075
  454SOL    HW2 1889   2.718   4.154   1.111 -0.4700  0.0447  1.4954
  454SOL    HW3 1890   2.649   4.287   1.131  0.9644  0.9604  0.4624
  454SOL    MW4 1891   2.715   4.240   1.099  0.4804 -0.0019  0.8527
  455SOL     OW 1892   2.366   1.331   0.495  0.3801  0.4275  0.4931
  455SOL    HW2 1893   2.322   1.287   0.422  0.6712 -0.6528  0.9705
  455SOL    HW3 1894   2.365   1.424   0.470  1.8698 -0.0942 -1.6563
  455SOL    MW4 1895   2.360   1.337   0.482  0.6151  0.2160  0.2725
  456SOL     OW 1896   2.243   0.262   0.891 -0.0321 -0.6329 -0.0819
  456SOL    HW2 1897   2.206   0.195   0.834  0.5663 -0.9445 -0.1078
  456SOL    HW3 1898   2.189   0.339   0.876 -0.0095 -0.7812 -0.9099
  456SOL    MW4 1899   2.231   0.263   0.882  0.0501 -0.6936 -0.1945
  457SOL     OW 1900   0.916   3.484   1.039  0.2683 -0.1023  0.0493
  457SOL    HW2 1901   0.973   3.525   1.104  1.8674 -0.8531 -0.8333
  457SOL    HW3 1902   0.933   3.533   0.959 -1.3899  0.5553  0.0873
  457SOL    MW4 1903   0.926   3.496   1.037  0.2605 -0.1144 -0.0622
  458SOL     OW 1904   2.733   0.346   1.111 -0.0116  0.0844 -0.2823
  458SOL    HW2 1905   2.754   0.351   1.017  1.1883 -1.4394 -0.1168
  458SOL    HW3 1906   2.659   0.405   1.122 -0.0023  0.4811 -2.1533
  458SOL    MW4 1907   2.726   0.354   1.100  0.1478 -0.0644 -0.5074
  459SOL     OW 1908   0.057   2.788   0.485  0.0731 -0.4341  0.0764
  459SOL    HW2 1909  -0.037   2.770   0.480  0.1013 -0.7756  0.7092
  459SOL    HW3 1910   0.099   2.702   0.476  0.2788 -0.4422  1.0179
  459SOL    MW4 1911   0.050   2.774   0.483  0.1039 -0.4802  0.2841
  460SOL     OW 1912   3.830   4.531   0.840  0.2250 -0.0371  0.0426
  460SOL    HW2 1913   3.917   4.494   0.821  0.1823 -0.4139  0.5739
  460SOL    HW3 1914   3.769   4.461   0.818  0.2330 -0.8586  2.5200
  460SOL    MW4 1915   3.834   4.517   0.834  0.2203 -0.1955  0.4396
  461SOL     OW 1916   2.230   1.958   0.790  0.4604  0.5067 -0.1137
  461SOL    HW2 1917   2.227   1.865   0.768  0.3380  0.8111 -1.4582
  461SOL    HW3 1918   2.157   1.997   0.742  1.0295  1.4261 -0.2576
  461SOL    MW4 1919   2.220   1.951   0.781  0.5193  0.6683 -0.3101
  462SOL     OW 1920   4.035   1.159   1.168  0.4701 -0.3716 -0.4472
  462SOL    HW2 1921   3.966   1.206   1.215  0.1284 -1.4415  0.1338
  462SOL    HW3 1922   4.116   1.201   1.196  0.1590 -0.0513 -0.0233
  462SOL    MW4 1923   4.037   1.171   1.178  0.3839 -0.4706 -0.3147
  463SOL     OW 1924   1.832   2.821   0.589 -0.2662 -0.1808 -0.3753
  463SOL    HW2 1925   1.783   2.901   0.572  0.1675  0.5035  1.4604
  463SOL    HW3 1926   1.857   2.788   0.503 -0.4296  1.6724 -1.1371
  463SOL    MW4 1927   1.829   2.827   0.576 -0.2304  0.1543 -0.2336
  464SOL     OW 1928   0.672   3.454   0.534 -0.4426  0.4010  0.1102
  464SOL    HW2 1929   0.694   3.536   0.579  2.1489 -1.0289  1.6193
  464SOL    HW3 1930   0.644   3.395   0.605  0.3695 -0.8438 -0.5935
  464SOL    MW4 1931   0.671   3.457   0.550  0.0064  0.0482  0.2165
  465SOL     OW 1932   2.464   1.530   0.823 -0.1702  0.4351 -0.0552
  465SOL    HW2 1933   2.508   1.449   0.799 -0.4100  0.4862 -0.6816
  465SOL    HW3 1934   2.465   1.531   0.919  3.3617  1.5965 -0.0083
  465SOL    MW4 1935   2.470   1.519   0.833  0.2642  0.5950 -0.1317
  466SOL     OW 1936   2.206   1.695   1.184  0.4287 -0.0775 -0.0652
  466SOL    HW2 1937   2.233   1.782   1.156  1.6295 -0.3089  0.3361
  466SOL    HW3 1938   2.277   1.637   1.155 -0.0503 -0.8293  0.2344
  466SOL    MW4 1939   2.219   1.699   1.176  0.5240 -0.2074  0.0271
  467SOL     OW 1940   2.509   0.782   0.855  0.0460 -0.5288 -0.4115
  467SOL    HW2 1941   2.605   0.784   0.851  0.0721  2.2213  0.6445
  467SOL    HW3 1942   2.481   0.847   0.791 -1.0694  0.0842  0.6964
  467SOL    MW4 1943   2.518   0.791   0.846 -0.0978 -0.0851 -0.1261
  468SOL     OW 1944   3.050   0.578   0.597 -0.7640 -0.6058  0.6305
  468SOL    HW2 1945   3.075   0.560   0.688 -0.5735  1.2226  0.9589
  468SOL    HW3 1946   2.954   0.585   0.600 -0.6635  0.7674  0.9520
  468SOL    MW4 1947   3.040   0.576   0.610 -0.7257 -0.1835  0.7163
  469SOL     OW 1948   2.503   0.243   0.525 -0.2813 -0.5693 -0.5964
  469SOL    HW2 1949   2.511   0.250   0.620 -0.4726  0.4064 -0.6452
  469SOL    HW3 1950   2.554   0.166   0.502 -1.3283 -1.5995  0.4459
  469SOL    MW4 1951   2.511   0.234   0.534 -0.4447 -0.5765 -0.4653
  470SOL     OW 1952   1.706   0.733   0.779  0.0463  0.2233  0.2620
  470SOL    HW2 1953   1.624   0.763   0.818 -0.3115 -0.6086  0.1805
  470SOL    HW3 1954   1.692   0.639   0.764  0.9505  0.1100  0.0844
  470SOL    MW4 1955   1.693   0.724   0.782  0.1181  0.0985  0.2279
  471SOL     OW 1956   0.825   2.480   0.760 -0.4681 -0.0954  0.1415
  471SOL    HW2 1957   0.879   2.408   0.793  0.6303  0.6314 -0.0395
  471SOL    HW3 1958   0.833   2.548   0.826 -1.5696 -0.1682  0.3516
  471SOL    MW4 1959   0.833   2.480   0.773 -0.4686 -0.0088  0.1454
  472SOL     OW 1960   4.030   2.689   1.116  0.4429  0.3137  0.3588
  472SOL    HW2 1961   4.030   2.667   1.023 -1.3790 -0.8116  0.6019
  472SOL    HW3 1962   3.953   2.745   1.127  0.3461  0.0050  1.2843
  472SOL    MW4 1963   4.020   2.694   1.105  0.1898  0.1245  0.5130
  473SOL     OW 1964   3.433   0.852   0.641 -0.6393  0.1011  0.2464
  473SOL    HW2 1965   3.365   0.825   0.580  0.1511 -0.5137 -0.3695
  473SOL    HW3 1966   3.421   0.796   0.717  0.1722 -1.1213 -0.5053
  473SOL    MW4 1967   3.422   0.841   0.643 -0.4280 -0.1413  0.0660
  474SOL     OW 1968   1.568   3.101   1.144 -0.3160  0.5400 -0.2867
  474SOL    HW2 1969   1.654   3.136   1.170  0.0593 -0.4967 -0.1142
  474SOL    HW3 1970   1.505   3.160   1.184  0.2960  0.3637  0.9461
  474SOL    MW4 1971   1.571   3.114   1.152 -0.1857  0.3798 -0.1012
  475SOL     OW 1972   0.353   4.491   0.699 -0.1937 -0.4555 -0.2732
  475SOL    HW2 1973   0.372   4.541   0.620 -2.3337 -1.9567 -1.7969
  475SOL    HW3 1974   0.295   4.547   0.750  0.1011 -0.0338 -0.3996
  475SOL    MW4 1975   0.348   4.505   0.695 -0.4372 -0.5980 -0.4908
  476SOL     OW 1976   4.087   3.246   1.184  0.8110  0.4291 -0.0593
  476SOL    HW2 1977   4.007   3.200   1.158  0.0058  2.2463 -0.8810
  476SOL    HW3 1978   4.088   3.238   1.279 -0.2938  0.3067 -0.0468
  476SOL    MW4 1979   4.076   3.238   1.193  0.5584  0.6528 -0.1662
  477SOL     OW 1980   3.827   4.629   1.120  0.1956  0.5189 -0.0588
  477SOL    HW2 1981   3.822   4.584   1.036  1.6474 -0.5341  0.3989
  477SOL    HW3 1982   3.738   4.661   1.135 -0.6626 -1.4009 -0.8459
  477SOL    MW4 1983   3.814   4.628   1.111  0.2739  0.1264 -0.1023
  478SOL     OW 1984   1.243   1.574   0.523 -0.6458  0.2474 -0.1163
  478SOL    HW2 1985   1.267   1.665   0.501  0.1993  0.1727  0.4714
  478SOL    HW3 1986   1.261   1.567   0.617 -1.8838 -0.1663  0.0912
  478SOL    MW4 1987   1.249   1.585   0.533 -0.6976  0.1830 -0.0114
  479SOL     OW 1988   4.300   2.010   1.250 -0.2471 -0.4556  0.4285
  479SOL    HW2 1989   4.215   1.979   1.221  0.0465 -0.0163 -0.9107
  479SOL    HW3 1990   4.301   2.103   1.230 -0.0570 -0.1156  1.9060
  479SOL    MW4 1991   4.289   2.018   1.244 -0.1836 -0.3529  0.4467
  480SOL     OW 1992   0.314   0.346   0.827  0.2702 -0.0909 -0.3539
  480SOL    HW2 1993   0.237   0.291   0.820 -0.7332  1.1128  0.7941
  480SOL    HW3 1994   0.387   0.289   0.803 -1.0016 -1.1303 -1.8391
  480SOL    MW4 1995   0.314   0.331   0.823 -0.0299 -0.0692 -0.3985
  481SOL     OW 1996   3.169   2.500   0.451 -0.2744 -0.1062 -0.2720
  481SOL    HW2 1997   3.242   2.469   0.398 -0.0571  0.3612 -0.2443
  481SOL    HW3 1998   3.147   2.425   0.507 -0.8081 -0.7648 -1.3396
  481SOL    MW4 1999   3.175   2.486   0.451 -0.3159 -0.1316 -0.4092
  482SOL     OW 2000   3.367   2.049   1.238  0.1919 -0.0898 -0.2430
  482SOL    HW2 2001   3.438   1.993   1.209 -0.3557 -1.0058  0.1717
  482SOL    HW3 2002   3.389   2.136   1.203  0.3444 -0.8373 -2.0811
  482SOL    MW4 2003   3.379   2.053   1.229  0.1400 -0.3092 -0.4307
  483SOL     OW 2004   3.779   1.531   0.496  0.1952  0.3038  0.2086
  483SOL    HW2 2005   3.729   1.556   0.574  1.5616  0.8952  0.9183
  483SOL    HW3 2006   3.745   1.588   0.427 -1.7871 -0.9782  0.0829
  483SOL    MW4 2007   3.767   1.542   0.497  0.1140  0.2128  0.2856
  484SOL     OW 2008   4.103   2.810   0.663 -0.8830  0.0409 -0.0166
  484SOL    HW2 2009   4.021   2.844   0.628 -1.2635 -0.3078  0.5077
  484SOL    HW3 2010   4.141   2.883   0.711 -2.0291 -0.4387  1.6762
  484SOL    MW4 2011   4.097   2.824   0.665 -1.0848 -0.0684  0.2759
  485SOL     OW 2012   4.226   4.436   0.459 -0.0440  0.0856  0.1219
  485SOL    HW2 2013   4.137   4.464   0.435  0.2978  0.4140 -0.7832
  485SOL    HW3 2014   4.283   4.488   0.402  0.7155 -0.4086  0.4302
  485SOL    MW4 2015   4.221   4.447   0.449  0.1006  0.0634  0.0432
  486SOL     OW 2016   1.021   0.811   0.872  0.5050 -0.4326  0.2294
  486SOL    HW2 2017   1.042   0.793   0.963 -0.6583  1.7040  0.9590
  486SOL    HW3 2018   1.036   0.905   0.862 -0.8311 -0.3646 -1.3661
  486SOL    MW4 2019   1.025   0.821   0.882  0.1752 -0.1418  0.1152
  487SOL     OW 2020   0.195   0.008   1.161  0.3022  0.0514  0.0848
  487SOL    HW2 2021   0.281   0.047   1.178  0.9120 -0.0992 -2.4862
  487SOL    HW3 2022   0.209  -0.086   1.171  0.9998 -0.1491 -2.4222
  487SOL    MW4 2023   0.208   0.001   1.164  0.4747  0.0050 -0.5851
  488SOL     OW 2024   4.465   0.129   1.278  0.1496 -0.3478  0.1945
  488SOL    HW2 2025   4.392   0.092   1.228 -0.6157 -1.4704  2.0663
  488SOL    HW3 2026   4.539   0.071   1.259 -0.0113 -0.4906 -0.0014
  488SOL    MW4 2027   4.465   0.117   1.269  0.0272 -0.5148  0.4157
  489SOL     OW 2028   1.470   4.073   0.427  0.1598  0.1196  0.1912
  489SOL    HW2 2029   1.535   4.111   0.368  0.9328 -0.1793  0.8458
  489SOL    HW3 2030   1.503   4.093   0.515 -0.4471 -0.3499  0.5258
  489SOL    MW4 2031   1.483   4.081   0.431  0.1817  0.0181  0.3217
  490SOL     OW 2032   4.438   0.358   1.093  0.1216 -0.1382  0.0524
  490SOL    HW2 2033   4.373   0.410   1.141  0.7547  1.4085 -0.7491
  490SOL    HW3 2034   4.444   0.276   1.143 -1.1939  0.3778  1.0929
  490SOL    MW4 2035   4.430   0.354   1.106  0.0315  0.1340  0.0839
  491SOL     OW 2036   4.213   0.500   1.203  0.2004 -0.3496 -0.1910
  491SOL    HW2 2037   4.221   0.493   1.298  0.6413 -0.8111 -0.2588
  491SOL    HW3 2038   4.232   0.592   1.184  1.1405 -0.4747  0.0770
  491SOL    MW4 2039   4.217   0.512   1.213  0.3824 -0.4269 -0.1646
  492SOL     OW 2040   4.220   0.446   1.488 -0.2397  0.6138  0.4135
  492SOL    HW2 2041   4.302   0.406   1.519  1.0016  1.5463 -1.5550
  492SOL    HW3 2042   4.153   0.413   1.549  1.4729 -0.7091  1.6546
  492SOL    MW4 2043   4.222   0.437   1.500  0.1497  0.5623  0.3173
  493SOL     OW 2044   0.231   3.446   0.444  0.0729 -0.2244 -0.4320
  493SOL    HW2 2045   0.201   3.499   0.517 -1.3730 -0.7551 -0.6249
  493SOL    HW3 2046   0.203   3.357   0.465  3.6008 -1.1990  0.5037
  493SOL    MW4 2047   0.224   3.441   0.456  0.3476 -0.4234 -0.3340
  494SOL     OW 2048   4.274   1.392   0.511 -0.0864 -0.1668  0.6890
  494SOL    HW2 2049   4.201   1.447   0.483  0.9532  1.0353  0.3156
  494SOL    HW3 2050   4.253   1.368   0.601 -1.2596 -0.3697  0.3643
  494SOL    MW4 2051   4.262   1.396   0.519 -0.1044 -0.0349  0.5969
  495SOL     OW 2052   4.380   1.052   0.829 -0.1108  0.4084  0.0614
  495SOL    HW2 2053   4.333   1.132   0.809 -1.7937 -0.3354  0.9584
  495SOL    HW3 2054   4.419   1.068   0.916  0.8044  0.7965 -0.4132
  495SOL    MW4 2055   4.379   1.064   0.838 -0.2117  0.3614  0.1171
  496SOL     OW 2056   0.236   1.518   1.102 -0.1095  0.8576 -0.6491
  496SOL    HW2 2057   0.287   1.528   1.022  2.3047  2.0796  0.9919
  496SOL    HW3 2058   0.227   1.423   1.114  0.8459  0.6521 -1.5379
  496SOL    MW4 2059   0.241   1.507   1.093  0.3351  0.9918 -0.5498
  497SOL     OW 2060   2.224   1.656   0.731 -0.3819 -0.5636 -0.3813
  497SOL    HW2 2061   2.305   1.612   0.756 -0.7944 -0.5073  1.0717
  497SOL    HW3 2062   2.157   1.616   0.786 -0.9583  1.0378  0.0832
  497SOL    MW4 2063   2.226   1.645   0.741 -0.5124 -0.3449 -0.1283
  498SOL     OW 2064   0.181   2.078   1.244 -0.1238  0.4621  0.0373
  498SOL    HW2 2065   0.178   2.156   1.189 -1.1942  1.4156  1.4327
  498SOL    HW3 2066   0.124   2.015   1.199  0.0573  0.7832 -0.6395
  498SOL    MW4 2067   0.173   2.080   1.231 -0.2411  0.6301  0.1322
  499SOL     OW 2068   0.215   2.301   1.086  0.4510  0.0895 -0.0821
  499SOL    HW2 2069   0.217   2.314   0.991  0.6686  0.3881 -0.0369
  499SOL    HW3 2070   0.291   2.348   1.119  0.7599 -0.5728  0.1758
  499SOL    MW4 2071   0.225   2.309   1.078  0.5204  0.0415 -0.0421
  500SOL     OW 2072   4.272   2.274   1.155  0.1442 -0.1447 -0.1642
  500SOL    HW2 2073   4.338   2.340   1.178  0.3214 -0.6334  0.7399
  500SOL    HW3 2074   4.188   2.315   1.179  0.4165 -1.2602  2.9303
  500SOL    MW4 2075   4.270   2.288   1.161  0.2031 -0.3562  0.3632
  501SOL     OW 2076   4.474   2.442   1.227  0.3744 -0.0100  0.4099
  501SOL    HW2 2077   4.567   2.423   1.224  0.3190 -0.3820  0.9591
  501SOL    HW3 2078   4.452   2.441   1.320 -0.2845 -0.4436  0.2530
  501SOL    MW4 2079   4.483   2.440   1.239  0.2799 -0.1163  0.4616
  502SOL     OW 2080   0.241   3.067   1.131  0.1167  0.1193  0.0527
  502SOL    HW2 2081   0.243   2.983   1.176 -0.1048 -1.0808 -2.1450
  502SOL    HW3 2082   0.234   3.045   1.038 -2.7465  2.5741 -0.3974
  502SOL    MW4 2083   0.240   3.053   1.125 -0.2903  0.2844 -0.2966
  503SOL     OW 2084   0.022   2.586   0.854 -0.2290  0.2081  0.1148
  503SOL    HW2 2085  -0.067   2.555   0.839  0.5670 -2.7985  1.1720
  503SOL    HW3 2086   0.074   2.506   0.864  3.1163  1.8071 -3.1742
  503SOL    MW4 2087   0.017   2.571   0.854  0.3176  0.0224 -0.1797
  504SOL     OW 2088   0.020   3.193   1.223  0.0427  0.1063 -0.6015
  504SOL    HW2 2089   0.103   3.155   1.195 -0.8744 -0.2307 -2.9695
  504SOL    HW3 2090  -0.047   3.140   1.180 -1.3920  0.9254  0.5639
  504SOL    MW4 2091   0.022   3.181   1.214 -0.2676  0.1698 -0.7601
  505SOL     OW 2092   1.346   3.505   1.120  0.0188 -0.7979  0.2777
  505SOL    HW2 2093   1.339   3.413   1.146 -0.2822 -1.4336 -1.9388
  505SOL    HW3 2094   1.366   3.501   1.026  0.5061  1.3939  0.2789
  505SOL    MW4 2095   1.348   3.492   1.111  0.0433 -0.5929 -0.0147
  506SOL     OW 2096   0.184   3.600   1.257  0.3005 -0.3948 -0.2845
  506SOL    HW2 2097   0.194   3.617   1.351 -0.0087  2.5297 -0.7237
  506SOL    HW3 2098   0.271   3.575   1.228  0.6230 -0.3377  0.5987
  506SOL    MW4 2099   0.197   3.599   1.266  0.3023 -0.0014 -0.2260
  507SOL     OW 2100   0.218   3.873   1.182 -0.2548  0.4460  0.0442
  507SOL    HW2 2101   0.134   3.918   1.183 -0.1706  0.6331 -1.1384
  507SOL    HW3 2102   0.197   3.783   1.208 -0.6618  0.7516  0.7839
  507SOL    MW4 2103   0.204   3.867   1.186 -0.2974  0.5114 -0.0143
  508SOL     OW 2104   0.153   4.617   0.889  0.4350 -0.1671 -0.0737
  508SOL    HW2 2105   0.128   4.525   0.893  0.0707 -0.0916 -0.5909
  508SOL    HW3 2106   0.173   4.641   0.979  0.9888 -0.8790 -0.0030
  508SOL    MW4 2107   0.153   4.608   0.901  0.4600 -0.2508 -0.1326
  509SOL     OW 2108   0.325   1.249   0.848 -0.5212 -0.0252 -0.6893
  509SOL    HW2 2109   0.407   1.205   0.825 -0.7815 -0.8877 -0.0040
  509SOL    HW3 2110   0.257   1.199   0.803 -0.7152  0.3912 -0.8613
  509SOL    MW4 2111   0.327   1.236   0.839 -0.5811 -0.0842 -0.6216
  510SOL     OW 2112   1.866   0.798   0.385 -0.1890  0.1578 -0.3015
  510SOL    HW2 2113   1.877   0.777   0.292  1.0195  0.1128 -0.1470
  510SOL    HW3 2114   1.947   0.769   0.427 -0.4635  0.7573  0.6694
  510SOL    MW4 2115   1.878   0.792   0.378 -0.0658  0.2309 -0.1530
  511SOL     OW 2116   0.654   4.371   1.168  0.3321  0.3010  0.2171
  511SOL    HW2 2117   0.682   4.337   1.254  1.3321  0.9672  0.1594
  511SOL    HW3 2118   0.660   4.466   1.177 -0.0314  0.3858 -0.4407
  511SOL    MW4 2119   0.658   4.379   1.181  0.4160  0.3996  0.1227
  512SOL     OW 2120   0.445   0.125   1.239 -0.3791 -0.2423 -0.2552
  512SOL    HW2 2121   0.420   0.217   1.230 -0.5215 -0.2224  0.3045
  512SOL    HW3 2122   0.454   0.112   1.334 -0.1070 -0.7365 -0.3488
  512SOL    MW4 2123   0.443   0.136   1.251 -0.3620 -0.3049 -0.1937
  513SOL     OW 2124   4.282   3.766   0.846 -0.1848  0.0572 -0.0735
  513SOL    HW2 2125   4.250   3.795   0.931  0.9358 -0.1355  0.4363
  513SOL    HW3 2126   4.251   3.676   0.838  0.8202 -0.3769  0.7435
  513SOL    MW4 2127   4.274   3.758   0.857  0.0954 -0.0257  0.1016
  514SOL     OW 2128   0.666   0.799   1.081 -0.2315 -0.0619  0.5051
  514SOL    HW2 2129   0.583   0.821   1.123  0.1791 -0.1506  1.3751
  514SOL    HW3 2130   0.645   0.794   0.988 -0.8988  1.3295  0.5728
  514SOL    MW4 2131   0.652   0.801   1.074 -0.2654  0.1099  0.6287
  515SOL     OW 2132   0.825   0.371   1.093  0.0114  0.1681  0.0256
  515SOL    HW2 2133   0.826   0.370   0.997  1.2646  1.0195  0.0091
  515SOL    HW3 2134   0.753   0.430   1.116  0.0209  0.3492 -0.4015
  515SOL    MW4 2135   0.816   0.379   1.083  0.1780  0.3043 -0.0329
  516SOL     OW 2136   0.416   0.855   1.197 -0.1637 -0.7343  0.1106
  516SOL    HW2 2137   0.423   0.848   1.292 -0.9588 -1.4567  0.1178
  516SOL    HW3 2138   0.418   0.949   1.180 -1.2811 -0.5521  0.9415
  516SOL    MW4 2139   0.417   0.866   1.207 -0.4160 -0.8056  0.2211
  517SOL     OW 2140   4.309   3.266   0.163  0.0732 -0.2346  0.2998
  517SOL    HW2 2141   4.215   3.257   0.177  0.1877  0.3108  1.4317
  517SOL    HW3 2142   4.323   3.360   0.155  0.6489 -0.2671  0.9741
  517SOL    MW4 2143   4.298   3.277   0.164  0.1640 -0.1669  0.5381
  518SOL     OW 2144   0.594   1.279   1.238 -0.3788  0.4694 -0.5749
  518SOL    HW2 2145   0.594   1.361   1.189 -1.3350  0.5733 -0.4030
  518SOL    HW3 2146   0.675   1.234   1.210  0.3015  1.5948 -0.4428
  518SOL    MW4 2147   0.605   1.284   1.228 -0.4151  0.6316 -0.5349
  519SOL     OW 2148   1.312   1.151   1.149 -0.3199 -0.4362  0.1591
  519SOL    HW2 2149   1.405   1.172   1.157 -0.3430  0.5153 -1.8878
  519SOL    HW3 2150   1.306   1.059   1.177  1.1877 -0.4534  0.4798
  519SOL    MW4 2151   1.323   1.141   1.154 -0.1239 -0.3129 -0.0687
  520SOL     OW 2152   0.627   2.076   1.215  0.0651 -0.3865  0.1482
  520SOL    HW2 2153   0.542   2.042   1.189  0.4099 -1.7659  0.7933
  520SOL    HW3 2154   0.629   2.066   1.311  0.1977  1.3965  0.3535
  520SOL    MW4 2155   0.616   2.071   1.224  0.1281 -0.3333  0.2604
  521SOL     OW 2156   0.402   1.958   1.119  0.6216 -0.1267 -0.5179
  521SOL    HW2 2157   0.393   1.865   1.140 -1.6544 -0.0013 -0.8404
  521SOL    HW3 2158   0.336   2.001   1.173  1.1861  1.2387 -0.9019
  521SOL    MW4 2159   0.392   1.951   1.129  0.3958  0.0701 -0.6112
  522SOL     OW 2160   1.104   2.016   0.839 -0.0681  0.2102  0.0475
  522SOL    HW2 2161   1.029   2.072   0.859 -0.5337  0.4501 -2.2202
  522SOL    HW3 2162   1.067   1.943   0.790  0.8680 -0.9163  0.9958
  522SOL    MW4 2163   1.090   2.014   0.835 -0.0060  0.0935 -0.1265
  523SOL     OW 2164   0.655   2.349   1.112  0.4381 -0.4946 -0.0799
  523SOL    HW2 2165   0.659   2.264   1.157 -0.2460  0.0296  0.9923
  523SOL    HW3 2166   0.570   2.385   1.137  0.6490  0.4364 -0.6742
  523SOL    MW4 2167   0.644   2.342   1.122  0.3757 -0.3026 -0.0167
  524SOL     OW 2168   0.405   2.415   1.228  0.0125  0.0490 -0.3408
  524SOL    HW2 2169   0.395   2.420   1.323 -2.5164  0.5054 -0.5983
  524SOL    HW3 2170   0.432   2.503   1.202 -0.7102  0.3226 -0.1837
  524SOL    MW4 2171   0.407   2.427   1.237 -0.4165  0.1452 -0.3541
  525SOL     OW 2172   0.226   2.808   1.241 -0.3852  0.7436 -0.1130
  525SOL    HW2 2173   0.215   2.828   1.334 -0.3132 -0.0085  0.0617
  525SOL    HW3 2174   0.143   2.769   1.215 -0.3597  0.8356 -0.3318
  525SOL    MW4 2175   0.214   2.805   1.250 -0.3724  0.6566 -0.1187
  526SOL     OW 2176   0.654   2.845   1.255  0.1782 -0.2687  0.1692
  526SOL    HW2 2177   0.739   2.833   1.213 -0.4311  0.6373 -1.3292
  526SOL    HW3 2178   0.601   2.771   1.225 -0.2285  0.3266 -0.5789
  526SOL    MW4 2179   0.658   2.833   1.246  0.0442 -0.0706 -0.1271
  527SOL     OW 2180   0.690   3.119   1.199  0.5226 -0.0507  0.3859
  527SOL    HW2 2181   0.696   3.106   1.105 -3.2677 -0.7493  0.1724
  527SOL    HW3 2182   0.674   3.032   1.235 -1.7665  0.6948  1.2695
  527SOL    MW4 2183   0.689   3.106   1.192 -0.2795 -0.0443  0.4742
  528SOL     OW 2184   0.440   3.236   1.248 -0.2700 -0.2363  0.5603
  528SOL    HW2 2185   0.372   3.181   1.209 -0.3933  0.6140 -0.4501
  528SOL    HW3 2186   0.522   3.194   1.223 -0.2891  1.1495 -1.9892
  528SOL    MW4 2187   0.442   3.224   1.239 -0.2888  0.0584  0.0906
  529SOL     OW 2188   0.445   3.509   1.182 -0.4535  0.0453  0.3836
  529SOL    HW2 2189   0.538   3.531   1.179 -0.3912 -0.3169 -0.3384
  529SOL    HW3 2190   0.443   3.418   1.211 -0.5745 -0.0089  0.2053
  529SOL    MW4 2191   0.457   3.500   1.185 -0.4613 -0.0098  0.2649
  530SOL     OW 2192   0.691   3.629   1.181 -0.0841 -0.6224 -0.3364
  530SOL    HW2 2193   0.731   3.604   1.265  0.4721  0.4949 -0.2592
  530SOL    HW3 2194   0.741   3.580   1.115  2.1039  1.4925 -0.3197
  530SOL    MW4 2195   0.703   3.619   1.183  0.2779 -0.1957 -0.3239
  531SOL     OW 2196   0.699   3.936   1.135 -0.0596 -0.0514  0.4865
  531SOL    HW2 2197   0.704   3.842   1.153 -0.2551  0.0054  0.8350
  531SOL    HW3 2198   0.615   3.963   1.171 -0.6121 -0.0068 -0.8163
  531SOL    MW4 2199   0.689   3.927   1.142 -0.1583 -0.0379  0.3606
  532SOL     OW 2200   0.439   4.026   1.236 -0.3048 -0.4309 -0.7133
  532SOL    HW2 2201   0.424   4.116   1.206 -1.8218 -0.5679 -0.3819
  532SOL    HW3 2202   0.358   3.980   1.215  0.4261 -1.6982 -0.7730
  532SOL    MW4 2203   0.426   4.032   1.229 -0.4085 -0.6166 -0.6775
  533SOL     OW 2204   1.809   0.382   1.144 -0.1131  0.1223 -0.1317
  533SOL    HW2 2205   1.795   0.294   1.177  0.8434  0.9153  2.5416
  533SOL    HW3 2206   1.724   0.426   1.155 -0.8570 -0.7097 -2.3624
  533SOL    MW4 2207   1.796   0.376   1.150 -0.0851  0.1172 -0.0734
  534SOL     OW 2208   0.922   4.299   1.081  0.9166 -0.2967  0.2323
  534SOL    HW2 2209   0.834   4.333   1.099  1.1623  0.1115  0.6747
  534SOL    HW3 2210   0.924   4.214   1.125  0.3220 -0.8821 -0.8261
  534SOL    MW4 2211   0.910   4.292   1.089  0.8706 -0.3200  0.1509
  535SOL     OW 2212   1.576   3.864   1.098 -0.1893  0.1018 -0.2902
  535SOL    HW2 2213   1.593   3.777   1.133  0.3706  0.3497  0.0704
  535SOL    HW3 2214   1.582   3.853   1.003 -0.4766 -0.3195 -0.2625
  535SOL    MW4 2215   1.579   3.851   1.090 -0.1533  0.0789 -0.2389
  536SOL     OW 2216   0.872   0.127   1.206  0.2074 -0.5170  0.2204
  536SOL    HW2 2217   0.870   0.219   1.179 -1.4260 -0.2317  1.2671
  536SOL    HW3 2218   0.867   0.129   1.301  0.0081 -1.6973  0.2476
  536SOL    MW4 2219   0.871   0.139   1.215 -0.0344 -0.6351  0.3620
  537SOL     OW 2220   0.644   4.638   1.121  0.0089  0.2292  0.4189
  537SOL    HW2 2221   0.586   4.670   1.190 -1.1777 -0.5467 -0.2168
  537SOL    HW3 2222   0.729   4.678   1.141 -0.6110  0.9501  1.6471
  537SOL    MW4 2223   0.648   4.647   1.133 -0.2295  0.2217  0.4971
  538SOL     OW 2224   1.077   0.465   1.181 -0.0690 -0.5844  0.1785
  538SOL    HW2 2225   1.085   0.459   1.276  1.1422 -1.4835  0.0250
  538SOL    HW3 2226   0.986   0.439   1.163 -0.4739  0.1397  1.1202
  538SOL    MW4 2227   1.066   0.461   1.191  0.0373 -0.6075  0.2824
  539SOL     OW 2228   1.287   1.233   0.896 -0.3437  0.0961 -0.2595
  539SOL    HW2 2229   1.372   1.218   0.854 -0.2864 -0.5537  0.0763
  539SOL    HW3 2230   1.291   1.181   0.976 -0.9579  0.2794 -0.1093
  539SOL    MW4 2231   1.299   1.224   0.901 -0.4172  0.0346 -0.1953
  540SOL     OW 2232   0.857   0.918   1.248  0.2338 -0.3237 -0.0138
  540SOL    HW2 2233   0.873   1.010   1.225  1.5616 -0.4404  0.3759
  540SOL    HW3 2234   0.791   0.889   1.185  1.2990  0.3380 -1.4785
  540SOL    MW4 2235   0.851   0.926   1.236  0.5495 -0.2518 -0.1557
  541SOL     OW 2236   4.022   1.857   0.862 -0.0016 -0.2037 -0.2456
  541SOL    HW2 2237   4.078   1.789   0.823  0.0176 -0.7193  0.6760
  541SOL    HW3 2238   4.053   1.938   0.822  0.4851 -0.6466 -0.7838
  541SOL    MW4 2239   4.034   1.859   0.852  0.0658 -0.3302 -0.1950
  542SOL     OW 2240   1.086   1.295   1.223 -0.0268 -0.2585 -0.1846
  542SOL    HW2 2241   1.085   1.274   1.316 -1.8025 -0.8652 -0.3254
  542SOL    HW3 2242   1.168   1.256   1.191  0.1186 -0.8900  0.9271
  542SOL    MW4 2243   1.097   1.287   1.231 -0.2419 -0.4220 -0.0564
  543SOL     OW 2244   1.068   1.612   0.897  0.1996 -0.2734 -0.0530
  543SOL    HW2 2245   1.143   1.562   0.866 -0.9924 -1.3539 -1.3054
  543SOL    HW3 2246   1.071   1.604   0.992  1.2403 -0.9279 -0.1323
  543SOL    MW4 2247   1.078   1.604   0.905  0.1796 -0.5023 -0.2287
  544SOL     OW 2248   0.591   1.528   1.139  0.0672  0.0121  0.3504
  544SOL    HW2 2249   0.678   1.561   1.161  0.2793  0.6442 -1.3957
  544SOL    HW3 2250   0.531   1.595   1.170  0.2095 -0.2745  1.2625
  544SOL    MW4 2251   0.594   1.541   1.146  0.1140  0.0577  0.2403
  545SOL     OW 2252   1.068   2.077   1.203  0.0296 -0.2853  0.3235
  545SOL    HW2 2253   1.071   2.098   1.296 -1.1966  0.6824  0.1630
  545SOL    HW3 2254   1.077   2.162   1.159  1.9350 -0.8767 -0.4748
  545SOL    MW4 2255   1.069   2.091   1.209  0.1193 -0.2356  0.1971
  546SOL     OW 2256   3.416   4.393   0.717  0.5712 -0.4785 -0.1865
  546SOL    HW2 2257   3.408   4.443   0.636  0.5276  0.5476  0.4374
  546SOL    HW3 2258   3.509   4.393   0.737  0.4486  0.3245  0.4074
  546SOL    MW4 2259   3.427   4.399   0.709  0.5493 -0.2370 -0.0258
  547SOL     OW 2260   0.384   1.138   1.125  0.1897  0.6119  0.0280
  547SOL    HW2 2261   0.455   1.200   1.144  0.3871  0.4764 -0.2672
  547SOL    HW3 2262   0.355   1.160   1.037 -1.0571  1.5529  0.6608
  547SOL    MW4 2263   0.390   1.149   1.116  0.0512  0.7182  0.0726
  548SOL     OW 2264   0.876   2.483   1.204  0.0602  0.1021  0.2384
  548SOL    HW2 2265   0.797   2.442   1.170  1.0681 -1.0282 -0.7783
  548SOL    HW3 2266   0.867   2.479   1.299 -1.8306  1.4291  0.1586
  548SOL    MW4 2267   0.864   2.477   1.212 -0.0563  0.1280  0.0937
  549SOL     OW 2268   0.342   3.795   0.589 -0.0133 -0.1156 -0.0825
  549SOL    HW2 2269   0.274   3.733   0.614  0.2178 -0.2095  0.3254
  549SOL    HW3 2270   0.367   3.769   0.501  1.3583 -1.7587  0.7528
  549SOL    MW4 2271   0.337   3.784   0.581  0.1982 -0.3450  0.0815
  550SOL     OW 2272   0.907   2.774   1.181 -0.0668 -0.0658 -0.2640
  550SOL    HW2 2273   1.001   2.791   1.186 -0.3237  1.0605  0.9838
  550SOL    HW3 2274   0.898   2.681   1.201  0.7471 -0.0926 -0.0202
  550SOL    MW4 2275   0.918   2.764   1.184  0.0067  0.0792 -0.0674
  551SOL     OW 2276   1.129   3.055   1.126 -0.5744 -0.1519 -0.5984
  551SOL    HW2 2277   1.119   3.070   1.032 -1.4915 -0.2705 -0.5230
  551SOL    HW3 2278   1.058   3.105   1.166  0.8456  1.3017  0.1558
  551SOL    MW4 2279   1.118   3.064   1.119 -0.5081  0.0246 -0.4888
  552SOL     OW 2280   0.934   3.233   1.204  0.1526 -0.1617 -0.0105
  552SOL    HW2 2281   0.929   3.315   1.154  0.8121 -1.0168 -1.5347
  552SOL    HW3 2282   0.843   3.202   1.207  0.0844 -0.0375 -0.5914
  552SOL    MW4 2283   0.921   3.240   1.198  0.2306 -0.2580 -0.2881
  553SOL     OW 2284   0.984   1.473   0.491 -0.4396 -0.5160 -0.1126
  553SOL    HW2 2285   1.072   1.507   0.506 -0.8878  0.2058  0.9769
  553SOL    HW3 2286   0.942   1.475   0.577 -1.6283 -0.5169 -0.6743
  553SOL    MW4 2287   0.990   1.478   0.505 -0.6555 -0.4209 -0.0430
  554SOL     OW 2288   1.117   3.650   1.164  0.1160  0.0406  0.3759
  554SOL    HW2 2289   1.200   3.613   1.134 -0.2593  0.1093 -0.7793
  554SOL    HW3 2290   1.128   3.744   1.155 -0.3430  0.0167 -0.4761
  554SOL    MW4 2291   1.129   3.657   1.159  0.0060  0.0467  0.1111
  555SOL     OW 2292   2.460   4.091   0.539  0.0180  0.4092 -0.0278
  555SOL    HW2 2293   2.422   4.153   0.476 -0.6956  0.8566  0.8231
  555SOL    HW3 2294   2.548   4.125   0.555 -0.2083  0.9469  0.0908
  555SOL    MW4 2295   2.466   4.104   0.533 -0.1059  0.5388  0.1002
  556SOL     OW 2296   0.929   4.051   1.210  0.9312  0.0307  0.0156
  556SOL    HW2 2297   0.930   4.031   1.303 -1.4198 -0.4481 -0.0269
  556SOL    HW3 2298   0.842   4.023   1.180  1.7108 -0.0169 -2.3589
  556SOL    MW4 2299   0.918   4.045   1.218  0.7239 -0.0391 -0.3034
  557SOL     OW 2300   1.137   4.423   1.169 -0.0566  0.2063 -0.3703
  557SOL    HW2 2301   1.131   4.405   1.262  0.5601 -0.6443 -0.4890
  557SOL    HW3 2302   1.064   4.375   1.130 -0.3603  0.6238 -0.3158
  557SOL    MW4 2303   1.127   4.414   1.176 -0.0153  0.1488 -0.3786
  558SOL     OW 2304   4.224   3.270   0.746 -0.2162  0.0749 -0.1253
  558SOL    HW2 2305   4.233   3.181   0.780 -0.4114  0.0417 -0.1574
  558SOL    HW3 2306   4.265   3.268   0.659  0.5295  0.2300  0.2219
  558SOL    MW4 2307   4.230   3.258   0.739 -0.1435  0.0911 -0.0836
  559SOL     OW 2308   1.135   0.041   1.134 -0.1078 -0.1248  0.6451
  559SOL    HW2 2309   1.126  -0.054   1.139  1.0083 -0.1842  1.6602
  559SOL    HW3 2310   1.047   0.074   1.149 -0.0771 -0.9173  2.6542
  559SOL    MW4 2311   1.122   0.033   1.136  0.0435 -0.2375  1.0439
  560SOL     OW 2312   1.303   1.870   0.481 -0.0871 -0.0284 -0.2868
  560SOL    HW2 2313   1.224   1.923   0.472 -0.5034 -0.4753  0.6532
  560SOL    HW3 2314   1.320   1.869   0.575  0.1809 -1.1768 -0.3376
  560SOL    MW4 2315   1.295   1.877   0.492 -0.1067 -0.2388 -0.1695
  561SOL     OW 2316   0.036   2.331   0.408  0.3676  0.5646 -0.5679
  561SOL    HW2 2317   0.028   2.238   0.427  0.5807  0.8970  1.2631
  561SOL    HW3 2318  -0.055   2.361   0.400  0.3086 -0.2369 -3.6435
  561SOL    MW4 2319   0.023   2.323   0.410  0.3879  0.5026 -0.7321
  562SOL     OW 2320   1.560   0.510   1.174  0.2599 -0.3146  0.0258
  562SOL    HW2 2321   1.484   0.460   1.143  1.0175 -0.6175 -1.4037
  562SOL    HW3 2322   1.540   0.601   1.149 -0.0237 -0.2647  0.4325
  562SOL    MW4 2323   1.547   0.515   1.166  0.3223 -0.3479 -0.1092
  563SOL     OW 2324   3.799   2.195   0.360  0.1310  0.0947 -0.4827
  563SOL    HW2 2325   3.703   2.191   0.360  0.1436 -0.2813 -0.1358
  563SOL    HW3 2326   3.826   2.124   0.418  0.6258  0.1143 -0.6838
  563SOL    MW4 2327   3.790   2.185   0.368  0.1979  0.0477 -0.4634
  564SOL     OW 2328   1.539   0.777   1.118 -0.2799 -0.3170 -0.3851
  564SOL    HW2 2329   1.520   0.830   1.041  1.5277 -1.6143 -1.7703
  564SOL    HW3 2330   1.627   0.804   1.145 -0.0041 -1.4386 -0.1296
  564SOL    MW4 2331   1.548   0.787   1.111 -0.0050 -0.6362 -0.5342
  565SOL     OW 2332   1.886   3.232   0.375 -0.6467 -0.0995 -0.1196
  565SOL    HW2 2333   1.829   3.195   0.443 -1.9581  0.5556 -0.8370
  565SOL    HW3 2334   1.857   3.190   0.294  0.6523 -0.5864 -0.3300
  565SOL    MW4 2335   1.874   3.222   0.373 -0.6485 -0.0772 -0.2420
  566SOL     OW 2336   1.573   1.258   1.189  0.1524  0.5540 -0.2888
  566SOL    HW2 2337   1.648   1.213   1.150 -0.8416 -1.9811  0.6086
  566SOL    HW3 2338   1.576   1.346   1.152  1.8758 -0.3809 -2.5187
  566SOL    MW4 2339   1.583   1.263   1.179  0.2486  0.0961 -0.4646
  567SOL     OW 2340   1.565   1.524   1.102 -0.1442  0.1088 -0.5773
  567SOL    HW2 2341   1.549   1.558   1.014  0.4738  1.2337 -0.2662
  567SOL    HW3 2342   1.639   1.575   1.135 -0.6166 -0.0194  0.7434
  567SOL    MW4 2343   1.572   1.535   1.095 -0.1249  0.2404 -0.3620
  568SOL     OW 2344   1.332   1.661   1.214 -0.1984  0.3545  0.0095
  568SOL    HW2 2345   1.408   1.615   1.176 -0.4217  0.0111 -0.0277
  568SOL    HW3 2346   1.331   1.746   1.170  0.2705  0.4305  0.1395
  568SOL    MW4 2347   1.342   1.666   1.203 -0.1659  0.3192  0.0218
  569SOL     OW 2348   1.274   1.909   1.097 -0.2966  0.0341 -0.1304
  569SOL    HW2 2349   1.202   1.969   1.116  0.3441  0.8181 -0.1555
  569SOL    HW3 2350   1.261   1.884   1.005 -1.1576 -0.6881  0.1821
  569SOL    MW4 2351   1.263   1.913   1.087 -0.3257  0.0422 -0.0925
  570SOL     OW 2352   1.530   2.041   1.159 -0.3356  0.4896  0.4317
  570SOL    HW2 2353   1.522   2.131   1.127  0.5907  0.4619  0.1118
  570SOL    HW3 2354   1.445   2.001   1.140 -0.1530  0.7835 -1.0097
  570SOL    MW4 2355   1.518   2.047   1.152 -0.1893  0.5245  0.1993
  571SOL     OW 2356   1.562   2.305   1.110 -0.0076  0.1350 -0.4270
  571SOL    HW2 2357   1.543   2.323   1.017  1.2395  0.7984 -0.5608
  571SOL    HW3 2358   1.489   2.344   1.157  0.0975  1.0941 -1.0431
  571SOL    MW4 2359   1.550   2.312   1.104  0.1708  0.3493 -0.5258
  572SOL     OW 2360   1.346   2.400   1.228  0.2214  0.0548  0.3310
  572SOL    HW2 2361   1.342   2.407   1.324  0.4762  0.3260  0.3251
  572SOL    HW3 2362   1.342   2.491   1.198  0.7468  0.0078  0.1123
  572SOL    MW4 2363   1.345   2.413   1.237  0.3244  0.0846  0.3014
  573SOL     OW 2364   1.378   2.646   1.104 -0.3481 -0.2054  0.3636
  573SOL    HW2 2365   1.446   2.691   1.155 -0.8117  0.7540  0.1425
  573SOL    HW3 2366   1.297   2.689   1.130 -0.4011  1.4831 -2.4617
  573SOL    MW4 2367   1.376   2.657   1.114 -0.4164  0.1438 -0.0384
  574SOL     OW 2368   1.585   2.816   1.210  0.2515  0.4796 -0.2731
  574SOL    HW2 2369   1.588   2.909   1.190  0.4152  0.4387 -0.4330
  574SOL    HW3 2370   1.663   2.780   1.170  0.0322  0.2191 -0.4704
  574SOL    MW4 2371   1.595   2.824   1.202  0.2443  0.4396 -0.3201
  575SOL     OW 2372   2.481   2.073   0.458 -0.0173 -0.2339 -0.4195
  575SOL    HW2 2373   2.401   2.118   0.431  1.1366  1.9579 -0.2478
  575SOL    HW3 2374   2.479   2.077   0.554  1.0743  1.2676 -0.4408
  575SOL    MW4 2375   2.470   2.079   0.467  0.2792  0.2532 -0.3996
  576SOL     OW 2376   1.335   3.224   1.220  0.4982 -0.1846 -0.3104
  576SOL    HW2 2377   1.277   3.162   1.176 -0.1316 -0.0144  0.2714
  576SOL    HW3 2378   1.337   3.194   1.311 -0.2462  0.9569  0.0955
  576SOL    MW4 2379   1.328   3.212   1.226  0.3170 -0.0117 -0.1801
  577SOL     OW 2380   4.361   1.156   0.382 -0.4660 -0.2061 -0.3775
  577SOL    HW2 2381   4.293   1.094   0.407 -0.7800 -0.3639 -1.6023
  577SOL    HW3 2382   4.333   1.239   0.420  0.5449 -1.0317  2.2589
  577SOL    MW4 2383   4.348   1.159   0.390 -0.3743 -0.3359 -0.1912
  578SOL     OW 2384   1.581   3.616   1.256  0.0489  0.1271 -0.2916
  578SOL    HW2 2385   1.643   3.555   1.218 -0.6008 -0.4294 -0.4659
  578SOL    HW3 2386   1.495   3.579   1.236 -0.3096 -0.0133  1.4353
  578SOL    MW4 2387   1.578   3.603   1.248 -0.0840  0.0353 -0.0867
  579SOL     OW 2388   1.127   3.566   0.311  0.3573 -0.0990 -0.0305
  579SOL    HW2 2389   1.033   3.559   0.324  0.1506 -1.1461 -1.8780
  579SOL    HW3 2390   1.140   3.544   0.219  2.3263  0.8237  0.0051
  579SOL    MW4 2391   1.116   3.562   0.301  0.5898 -0.1154 -0.2695
  580SOL     OW 2392   1.308   0.182   0.412  0.0428  0.0559  0.1036
  580SOL    HW2 2393   1.373   0.251   0.408  1.6693 -1.5066 -1.0123
  580SOL    HW3 2394   1.359   0.101   0.418 -1.7654 -1.2274 -1.2635
  580SOL    MW4 2395   1.323   0.180   0.413  0.0188 -0.3196 -0.2240
  581SOL     OW 2396   2.797   0.761   0.853  0.0726 -0.0485 -0.1808
  581SOL    HW2 2397   2.859   0.816   0.806 -1.4257  1.2608 -0.6841
  581SOL    HW3 2398   2.774   0.693   0.789  0.3180 -0.0173 -0.3037
  581SOL    MW4 2399   2.802   0.759   0.838 -0.0930  0.1284 -0.2634
  582SOL     OW 2400   1.595   4.642   1.150  0.4638  0.3840  0.6119
  582SOL    HW2 2401   1.587   4.553   1.186 -1.8347  0.6154  0.7023
  582SOL    HW3 2402   1.599   4.629   1.055 -0.8352  0.2223  0.5665
  582SOL    MW4 2403   1.595   4.628   1.142 -0.0110  0.3934  0.6180
  583SOL     OW 2404   1.780   4.238   1.124 -0.5051 -0.2296 -0.0562
  583SOL    HW2 2405   1.862   4.287   1.137 -2.2629  2.6889  0.6644
  583SOL    HW3 2406   1.801   4.149   1.151  2.2791  0.5714  0.6462
  583SOL    MW4 2407   1.794   4.233   1.129 -0.3695  0.2613  0.1315
  584SOL     OW 2408   4.145   3.526   0.821 -0.3676  0.1926  0.0587
  584SOL    HW2 2409   4.174   3.435   0.813 -1.2416 -0.0847 -0.1135
  584SOL    HW3 2410   4.111   3.533   0.910  0.0694  0.4643  0.2047
  584SOL    MW4 2411   4.144   3.515   0.832 -0.4253  0.1919  0.0551
  585SOL     OW 2412   3.019   3.692   0.399 -0.0898  0.0506  0.3714
  585SOL    HW2 2413   3.109   3.721   0.409  0.0554  0.7620 -2.6717
  585SOL    HW3 2414   3.023   3.596   0.399  0.8164  0.0826 -0.8657
  585SOL    MW4 2415   3.031   3.683   0.400  0.0491  0.1490 -0.1933
  586SOL     OW 2416   0.848   0.956   0.462  0.1409  0.3206 -0.4782
  586SOL    HW2 2417   0.877   0.879   0.511 -0.2458  0.6057  0.2144
  586SOL    HW3 2418   0.913   1.024   0.482 -1.3958  1.2117  1.7536
  586SOL    MW4 2419   0.860   0.955   0.471 -0.1129  0.4758 -0.0924
  587SOL     OW 2420   2.247   0.879   1.259  0.3905  0.5702 -0.0642
  587SOL    HW2 2421   2.322   0.844   1.211  0.2989 -1.2515  1.1085
  587SOL    HW3 2422   2.171   0.851   1.208  0.3647 -0.1559  0.3688
  587SOL    MW4 2423   2.247   0.871   1.246  0.3750  0.2341  0.1477
  588SOL     OW 2424   1.782   0.893   1.226 -0.1824  0.1346 -0.1832
  588SOL    HW2 2425   1.791   0.918   1.318 -1.3159 -2.1745  0.5917
  588SOL    HW3 2426   1.866   0.852   1.205  0.0803  0.6672 -0.1948
  588SOL    MW4 2427   1.794   0.891   1.236 -0.2973 -0.0998 -0.0824
  589SOL     OW 2428   1.348   4.324   0.819 -0.0132 -0.1149  0.0673
  589SOL    HW2 2429   1.369   4.334   0.912  0.2977 -0.2880  0.0159
  589SOL    HW3 2430   1.253   4.314   0.817 -0.1085  0.6781  0.3015
  589SOL    MW4 2431   1.339   4.324   0.831  0.0153 -0.0329  0.0914
  590SOL     OW 2432   0.040   4.317   0.216  0.5066  0.1642 -0.1128
  590SOL    HW2 2433   0.002   4.235   0.246 -0.4815  0.4623 -0.5292
  590SOL    HW3 2434   0.057   4.367   0.296  0.0527  0.0139  0.0769
  590SOL    MW4 2435   0.037   4.313   0.231  0.3163  0.1836 -0.1427
  591SOL     OW 2436   0.092   3.207   0.522 -0.3428 -0.3338 -0.2655
  591SOL    HW2 2437   0.001   3.233   0.508 -0.3064  0.3915  0.7478
  591SOL    HW3 2438   0.104   3.130   0.468 -1.2412  0.2274 -1.2804
  591SOL    MW4 2439   0.082   3.200   0.513 -0.4565 -0.1640 -0.2657
  592SOL     OW 2440   1.779   1.653   1.224 -0.4362  0.1055  0.5002
  592SOL    HW2 2441   1.855   1.606   1.190  0.2143  0.1834  1.8088
  592SOL    HW3 2442   1.786   1.740   1.184 -0.4306 -0.2184 -0.2168
  592SOL    MW4 2443   1.790   1.658   1.214 -0.3496  0.0731  0.5782
  593SOL     OW 2444   3.400   2.377   0.861  0.3927 -0.1298  0.0340
  593SOL    HW2 2445   3.318   2.361   0.815 -0.5976  0.5090  1.5372
  593SOL    HW3 2446   3.465   2.326   0.813 -0.0810  2.5782 -3.6471
  593SOL    MW4 2447   3.398   2.368   0.849  0.1996  0.3119 -0.2534
  594SOL     OW 2448   1.801   1.899   1.111 -0.5575 -0.1344  0.0175
  594SOL    HW2 2449   1.868   1.952   1.155 -0.1525 -0.6188 -0.0095
  594SOL    HW3 2450   1.718   1.933   1.145 -0.2941  0.3412  0.1993
  594SOL    MW4 2451   1.799   1.911   1.121 -0.4693 -0.1355  0.0380
  595SOL     OW 2452   2.034   2.284   1.086 -0.2245 -0.1408  0.3423
  595SOL    HW2 2453   2.109   2.342   1.094  1.1714 -1.9098  0.5031
  595SOL    HW3 2454   2.029   2.265   0.992 -0.0007 -0.5961  0.4188
  595SOL    MW4 2455   2.043   2.289   1.075 -0.0105 -0.4342  0.3736
  596SOL     OW 2456   1.803   2.440   1.151  0.1617  0.6539 -0.0056
  596SOL    HW2 2457   1.868   2.394   1.098  0.6085 -1.1024  2.0128
  596SOL    HW3 2458   1.720   2.401   1.127  0.3751 -0.2036  0.6208
  596SOL    MW4 2459   1.801   2.429   1.141  0.2488  0.3092  0.3433
  597SOL     OW 2460   1.803   2.710   1.104 -0.5095 -0.1681 -0.2031
  597SOL    HW2 2461   1.787   2.623   1.138  0.3317  0.4224  1.7494
  597SOL    HW3 2462   1.801   2.699   1.009  0.1457 -2.4172  0.0089
  597SOL    MW4 2463   1.801   2.697   1.096 -0.3121 -0.3870  0.0825
  598SOL     OW 2464   2.036   2.835   1.214 -0.2997 -0.2664 -0.3672
  598SOL    HW2 2465   2.059   2.918   1.173 -0.6230  0.4193  0.8350
  598SOL    HW3 2466   1.949   2.814   1.179 -0.3348  0.0345 -0.4596
  598SOL    MW4 2467   2.028   2.843   1.204 -0.3471 -0.1359 -0.2209
  599SOL     OW 2468   1.680   4.470   0.333  0.0944 -0.6161  0.0350
  599SOL    HW2 2469   1.752   4.471   0.396 -1.2155  0.7900  1.5474
  599SOL    HW3 2470   1.628   4.548   0.354 -1.4777 -1.2186 -1.4817
  599SOL    MW4 2471   1.683   4.480   0.344 -0.2857 -0.5097  0.0345
  600SOL     OW 2472   1.791   3.518   1.115 -0.1666  0.2521 -0.0591
  600SOL    HW2 2473   1.869   3.565   1.143  0.2401 -1.1992  1.3028
  600SOL    HW3 2474   1.797   3.516   1.019  0.7550  1.3303 -0.0266
  600SOL    MW4 2475   1.802   3.524   1.106  0.0087  0.2029  0.1249
  601SOL     OW 2476   2.747   2.121   0.409  0.5923 -0.1698  0.3369
  601SOL    HW2 2477   2.657   2.090   0.418  0.5612 -0.0643  0.3973
  601SOL    HW3 2478   2.740   2.216   0.420  0.9215 -0.3143  1.9087
  601SOL    MW4 2479   2.734   2.130   0.412  0.6316 -0.1748  0.5523
  602SOL     OW 2480   1.808   3.216   1.228  0.3585  0.2229  0.0037
  602SOL    HW2 2481   1.817   3.310   1.218  2.9835  0.0263  0.2948
  602SOL    HW3 2482   1.817   3.201   1.322  0.3453 -0.3479 -0.0855
  602SOL    MW4 2483   1.810   3.226   1.239  0.7032  0.1216  0.0303
  603SOL     OW 2484   2.017   3.627   1.184  0.4390  0.7312 -0.0844
  603SOL    HW2 2485   2.092   3.578   1.150 -2.0617 -3.0562 -0.3698
  603SOL    HW3 2486   2.018   3.609   1.278  0.3203  1.3402  0.0361
  603SOL    MW4 2487   2.027   3.618   1.192  0.0935  0.3121 -0.1062
  604SOL     OW 2488   1.802   3.980   1.202  0.3211 -0.0974  0.1779
  604SOL    HW2 2489   1.719   3.946   1.169  0.0019  2.1541 -1.4330
  604SOL    HW3 2490   1.789   3.988   1.296 -1.5215  0.8512 -0.1348
  604SOL    MW4 2491   1.790   3.977   1.210  0.0359  0.3250 -0.0759
  605SOL     OW 2492   3.689   4.612   0.462  0.1422 -0.2798  0.3060
  605SOL    HW2 2493   3.723   4.686   0.411  0.7206  0.3605  1.5867
  605SOL    HW3 2494   3.682   4.646   0.552  2.3420 -2.3795  1.3224
  605SOL    MW4 2495   3.693   4.627   0.467  0.5088 -0.4725  0.6090
  606SOL     OW 2496   1.402   4.058   1.227 -0.7013  0.0172  0.1001
  606SOL    HW2 2497   1.406   4.139   1.176  2.5291  1.4085  2.4160
  606SOL    HW3 2498   1.453   3.995   1.175 -0.1203  0.5199  0.0521
  606SOL    MW4 2499   1.410   4.061   1.214 -0.1985  0.2670  0.3994
  607SOL     OW 2500   2.476   4.605   1.108 -0.2004 -0.1235 -0.0637
  607SOL    HW2 2501   2.394   4.640   1.143 -1.0226 -0.9676 -1.1347
  607SOL    HW3 2502   2.544   4.658   1.149 -1.1875 -0.5499  2.1499
  607SOL    MW4 2503   2.475   4.617   1.118 -0.4392 -0.2909  0.0871
  608SOL     OW 2504   2.218   0.035   1.189 -0.1957 -0.1975  0.2175
  608SOL    HW2 2505   2.233   0.129   1.178  0.0839 -0.1482  1.0006
  608SOL    HW3 2506   2.141   0.017   1.135 -2.6569  1.2343  3.0886
  608SOL    MW4 2507   2.210   0.045   1.181 -0.4835 -0.0021  0.6995
  609SOL     OW 2508   2.052   0.509   1.234 -0.5636 -0.0569  0.3704
  609SOL    HW2 2509   2.045   0.513   1.329 -1.9248 -1.0066  0.3283
  609SOL    HW3 2510   1.968   0.473   1.205 -0.8198  1.7981 -1.3036
  609SOL    MW4 2511   2.040   0.504   1.243 -0.7770  0.0625  0.1440
  610SOL     OW 2512   2.944   0.210   0.717 -0.2505  0.0338 -0.0141
  610SOL    HW2 2513   2.978   0.124   0.743  0.5390  0.1718 -0.5435
  610SOL    HW3 2514   2.952   0.210   0.621 -2.1202 -0.0642 -0.1850
  610SOL    MW4 2515   2.950   0.198   0.708 -0.3929  0.0391 -0.1065
  611SOL     OW 2516   4.470   1.109   1.081 -0.0985  0.1247 -0.0946
  611SOL    HW2 2517   4.389   1.147   1.116 -0.5166 -0.4177 -0.4576
  611SOL    HW3 2518   4.481   1.028   1.129  1.0904  0.9549  1.0688
  611SOL    MW4 2519   4.460   1.104   1.092  0.0029  0.1627  0.0108
  612SOL     OW 2520   2.468   1.279   1.235 -0.4637  0.3934  0.3198
  612SOL    HW2 2521   2.542   1.226   1.206 -0.8575  0.5362 -0.9971
  612SOL    HW3 2522   2.392   1.221   1.224 -0.6176  0.4261  1.1532
  612SOL    MW4 2523   2.467   1.264   1.230 -0.5360  0.4166  0.2561
  613SOL     OW 2524   3.824   1.946   0.458 -0.2259 -0.2869  0.3027
  613SOL    HW2 2525   3.757   1.881   0.437  0.3202 -0.8040  0.1172
  613SOL    HW3 2526   3.906   1.907   0.425  0.3346 -0.2038  1.5675
  613SOL    MW4 2527   3.826   1.932   0.451 -0.0801 -0.3443  0.4451
  614SOL     OW 2528   2.024   4.460   0.891  0.1056  0.0305  0.1618
  614SOL    HW2 2529   2.077   4.406   0.832  1.0004  1.2033 -0.1544
  614SOL    HW3 2530   2.047   4.430   0.979  0.6308 -0.0883 -0.0104
  614SOL    MW4 2531   2.034   4.449   0.895  0.2930  0.1698  0.0974
  615SOL     OW 2532   2.461   2.340   0.859 -0.1550  0.8382 -0.0179
  615SOL    HW2 2533   2.552   2.354   0.830 -0.3016 -1.5066 -1.6618
  615SOL    HW3 2534   2.470   2.313   0.951  0.9985 -1.8033 -0.8689
  615SOL    MW4 2535   2.474   2.338   0.867 -0.0224  0.1802 -0.3471
  616SOL     OW 2536   2.265   1.961   1.112  0.0595  0.3937 -0.0278
  616SOL    HW2 2537   2.258   1.967   1.017 -0.3111 -2.3983 -0.1969
  616SOL    HW3 2538   2.176   1.976   1.144 -0.3571 -1.4871 -0.2897
  616SOL    MW4 2539   2.252   1.964   1.104 -0.0443 -0.2229 -0.0846
  617SOL     OW 2540   0.247   2.119   0.668  0.1362 -0.3600  0.4114
  617SOL    HW2 2541   0.314   2.088   0.729  2.1852  2.0418 -0.5635
  617SOL    HW3 2542   0.296   2.143   0.589 -2.0447  0.1634 -0.8091
  617SOL    MW4 2543   0.262   2.118   0.665  0.1189  0.0257  0.1218
  618SOL     OW 2544   2.468   2.085   1.233 -0.4513  0.1162  0.1209
  618SOL    HW2 2545   2.551   2.049   1.204 -0.2003  0.7869 -0.0160
  618SOL    HW3 2546   2.402   2.039   1.181 -0.0106  1.3656 -1.6073
  618SOL    MW4 2547   2.470   2.074   1.222 -0.3603  0.3695 -0.1251
  619SOL     OW 2548   2.497   2.336   1.133 -0.2233 -0.0438  0.1854
  619SOL    HW2 2549   2.408   2.369   1.137 -0.1190  0.1874  0.6943
  619SOL    HW3 2550   2.491   2.245   1.162 -0.3362 -0.1158 -0.0652
  619SOL    MW4 2551   2.485   2.328   1.138 -0.2244 -0.0229  0.2195
  620SOL     OW 2552   2.265   2.468   1.155  0.5302 -0.3768 -0.3942
  620SOL    HW2 2553   2.257   2.491   1.247 -2.7800 -1.0230 -0.4557
  620SOL    HW3 2554   2.265   2.552   1.109  0.3543 -0.1112  0.0953
  620SOL    MW4 2555   2.264   2.482   1.161  0.0701 -0.4270 -0.3378
  621SOL     OW 2556   2.264   2.726   1.071  0.4495 -0.3381  0.2018
  621SOL    HW2 2557   2.335   2.782   1.104  0.5046 -0.4316  0.2424
  621SOL    HW3 2558   2.185   2.759   1.115  0.6323 -0.9169  0.9798
  621SOL    MW4 2559   2.263   2.738   1.082  0.4807 -0.4265  0.3098
  622SOL     OW 2560   2.671   3.214   1.242 -0.5545 -0.4940  0.0926
  622SOL    HW2 2561   2.608   3.180   1.179 -0.4935 -1.9824  0.8013
  622SOL    HW3 2562   2.753   3.168   1.220  0.0954  0.8652 -0.3532
  622SOL    MW4 2563   2.674   3.203   1.230 -0.4611 -0.5112  0.1273
  623SOL     OW 2564   2.275   1.165   0.292  0.2385  0.0824  0.1946
  623SOL    HW2 2565   2.260   1.071   0.294 -0.3627  0.1629 -0.3215
  623SOL    HW3 2566   2.358   1.175   0.245 -0.2529 -0.1312 -0.7304
  623SOL    MW4 2567   2.284   1.154   0.286  0.0942  0.0648  0.0044
  624SOL     OW 2568   2.057   3.106   1.118  0.0845 -0.0984 -0.0341
  624SOL    HW2 2569   1.973   3.125   1.160  0.4133  0.9837  0.1564
  624SOL    HW3 2570   2.039   3.112   1.024 -0.4518 -1.6647 -0.0557
  624SOL    MW4 2571   2.043   3.109   1.111  0.0572 -0.1624 -0.0117
  625SOL     OW 2572   2.270   3.247   1.203 -0.3963  0.1788 -0.2115
  625SOL    HW2 2573   2.190   3.201   1.177 -0.6421 -0.0319  0.9108
  625SOL    HW3 2574   2.256   3.337   1.173 -0.1952 -0.2912 -1.8076
  625SOL    MW4 2575   2.257   3.253   1.195 -0.4025  0.0892 -0.2739
  626SOL     OW 2576   2.461   3.595   1.205  0.0300  0.5342 -0.0854
  626SOL    HW2 2577   2.474   3.602   1.300  1.3755 -0.1529 -0.2131
  626SOL    HW3 2578   2.471   3.685   1.173 -0.7432  0.8182  0.4498
  626SOL    MW4 2579   2.464   3.608   1.213  0.1054  0.4809 -0.0316
  627SOL     OW 2580   2.483   3.851   1.073 -0.1942  0.3527  0.0535
  627SOL    HW2 2581   2.466   3.873   0.981  0.6903  0.2644 -0.1369
  627SOL    HW3 2582   2.560   3.902   1.096  0.3511 -0.5928  0.3619
  627SOL    MW4 2583   2.491   3.860   1.064 -0.0055  0.2160  0.0690
  628SOL     OW 2584   2.236   3.947   1.167  0.1199  0.2085  0.6901
  628SOL    HW2 2585   2.309   3.901   1.127 -0.2631 -0.2542  0.5189
  628SOL    HW3 2586   2.158   3.911   1.125 -0.1788  1.1160  0.4527
  628SOL    MW4 2587   2.235   3.936   1.156  0.0300  0.2670  0.6361
  629SOL     OW 2588   2.289   4.213   1.167 -0.2344 -0.2730  0.3960
  629SOL    HW2 2589   2.253   4.125   1.176  1.5729 -1.0868 -0.0944
  629SOL    HW3 2590   2.325   4.216   1.078  0.1044  0.8104  0.5580
  629SOL    MW4 2591   2.289   4.202   1.157  0.0486 -0.2375  0.3526
  630SOL     OW 2592   2.530   4.364   1.236  0.1589 -0.1873  0.3759
  630SOL    HW2 2593   2.452   4.311   1.218  0.1813 -0.8037  2.0169
  630SOL    HW3 2594   2.512   4.448   1.192 -1.2740 -0.4474  0.4397
  630SOL    MW4 2595   2.517   4.368   1.228 -0.0272 -0.3023  0.6007
  631SOL     OW 2596   2.678   0.090   1.221 -0.2954  0.1194  0.2966
  631SOL    HW2 2597   2.681   0.181   1.191 -0.4368  0.5564  1.5842
  631SOL    HW3 2598   2.662   0.097   1.315  2.6494 -1.1807  0.9191
  631SOL    MW4 2599   2.676   0.103   1.229  0.0744  0.0055  0.5487
  632SOL     OW 2600   4.354   1.572   0.865  0.2175  0.0771 -0.3501
  632SOL    HW2 2601   4.327   1.559   0.956 -1.1949  0.5942 -0.6937
  632SOL    HW3 2602   4.443   1.607   0.872  0.3987 -0.5858  0.8129
  632SOL    MW4 2603   4.362   1.575   0.878  0.0548  0.0578 -0.2420
  633SOL     OW 2604   2.258   0.343   1.172 -0.0685  0.0136  0.2005
  633SOL    HW2 2605   2.246   0.329   1.078 -0.2127  1.4657  0.0037
  633SOL    HW3 2606   2.183   0.395   1.199  0.3394  0.2025  0.9859
  633SOL    MW4 2607   2.247   0.348   1.163 -0.0336  0.2301  0.2782
  634SOL     OW 2608   3.151   0.350   1.126 -0.3461 -0.2759 -0.1865
  634SOL    HW2 2609   3.080   0.396   1.171  0.8310  0.0845  1.3130
  634SOL    HW3 2610   3.140   0.258   1.151 -1.0561 -0.4125 -0.9921
  634SOL    MW4 2611   3.140   0.344   1.135 -0.2847 -0.2463 -0.0950
  635SOL     OW 2612   2.964   1.468   0.848  0.8379  0.1000  0.2460
  635SOL    HW2 2613   2.957   1.375   0.825  0.5223  0.5506 -1.5292
  635SOL    HW3 2614   2.905   1.512   0.786 -0.0745  1.3467  1.9755
  635SOL    MW4 2615   2.955   1.461   0.837  0.6757  0.3238  0.2400
  636SOL     OW 2616   2.478   0.770   1.144 -0.1493 -0.1611  0.3083
  636SOL    HW2 2617   2.460   0.683   1.180 -0.2665  0.2662  1.3139
  636SOL    HW3 2618   2.496   0.755   1.051  2.3615 -1.5709  0.9919
  636SOL    MW4 2619   2.478   0.756   1.137  0.1667 -0.2907  0.5311
  637SOL     OW 2620   0.104   4.439   0.469  0.1806  0.2601  0.2849
  637SOL    HW2 2621   0.177   4.385   0.502  0.1415  0.3162  0.4650
  637SOL    HW3 2622   0.040   4.439   0.541  0.7557  1.6469  0.8196
  637SOL    MW4 2623   0.105   4.432   0.483  0.2513  0.4511  0.3792
  638SOL     OW 2624   3.168   1.151   1.088  0.3245  0.3061  0.0298
  638SOL    HW2 2625   3.239   1.203   1.127  1.7949 -2.1080  0.7013
  638SOL    HW3 2626   3.088   1.191   1.122  1.3274  3.1091 -0.7618
  638SOL    MW4 2627   3.167   1.163   1.098  0.6509  0.3574  0.0141
  639SOL     OW 2628   2.954   1.304   1.218  0.2321 -0.4358  0.0779
  639SOL    HW2 2629   2.933   1.393   1.191  1.7887 -0.4102 -1.1341
  639SOL    HW3 2630   2.942   1.303   1.313 -0.0561  0.9882  0.0566
  639SOL    MW4 2631   2.950   1.315   1.227  0.3998 -0.2444 -0.0849
  640SOL     OW 2632   2.618   1.675   1.213 -0.4184 -0.0580  0.1480
  640SOL    HW2 2633   2.698   1.628   1.188 -0.2521  0.1782  0.2293
  640SOL    HW3 2634   2.634   1.765   1.184 -0.0431  0.3171  1.4802
  640SOL    MW4 2635   2.631   1.681   1.206 -0.3469  0.0225  0.3344
  641SOL     OW 2636   2.666   1.942   1.120  0.1276 -0.3654 -0.1364
  641SOL    HW2 2637   2.755   1.965   1.146 -0.0788  0.0621  0.1860
  641SOL    HW3 2638   2.670   1.936   1.024  0.4035  0.0716 -0.1542
  641SOL    MW4 2639   2.678   1.944   1.110  0.1369 -0.2513 -0.0962
  642SOL     OW 2640   2.925   2.313   1.083  0.0308 -0.5101 -0.2524
  642SOL    HW2 2641   2.860   2.374   1.118  0.4354  0.7398 -1.6310
  642SOL    HW3 2642   3.009   2.348   1.112  0.1513 -1.8057  1.0404
  642SOL    MW4 2643   2.927   2.326   1.092  0.0999 -0.5162 -0.2637
  643SOL     OW 2644   4.079   4.485   0.771 -0.1940 -0.1363  1.0166
  643SOL    HW2 2645   4.055   4.525   0.688  0.7059 -0.4940  0.5819
  643SOL    HW3 2646   4.142   4.545   0.810 -0.3462 -0.1448  1.2786
  643SOL    MW4 2647   4.084   4.498   0.765 -0.0954 -0.1845  0.9938
  644SOL     OW 2648   2.718   2.461   1.205  0.3882  0.0718  0.2276
  644SOL    HW2 2649   2.637   2.423   1.170  0.8535 -2.0761  1.3746
  644SOL    HW3 2650   2.714   2.443   1.299  1.3330  1.6361  0.5930
  644SOL    MW4 2651   2.707   2.454   1.213  0.5744 -0.0052  0.4272
  645SOL     OW 2652   2.775   2.728   1.123 -0.2922 -0.0688 -0.3874
  645SOL    HW2 2653   2.768   2.640   1.158 -0.7839  0.8211  1.8117
  645SOL    HW3 2654   2.687   2.764   1.130 -0.1847  0.4852 -1.6254
  645SOL    MW4 2655   2.763   2.721   1.128 -0.3428  0.1218 -0.2606
  646SOL     OW 2656   2.997   2.860   1.182  0.3404  0.3105 -0.3428
  646SOL    HW2 2657   2.920   2.810   1.155  0.1507  0.6272 -0.3885
  646SOL    HW3 2658   2.990   2.865   1.278  1.5193 -1.6419 -0.1234
  646SOL    MW4 2659   2.986   2.854   1.191  0.4711  0.0947 -0.3200
  647SOL     OW 2660   3.215   3.202   1.180 -0.1444  0.2500  0.0587
  647SOL    HW2 2661   3.187   3.291   1.162 -1.8759 -0.5834 -1.6027
  647SOL    HW3 2662   3.135   3.149   1.169  0.4029 -1.2723  2.9207
  647SOL    MW4 2663   3.201   3.207   1.176 -0.3006 -0.0610  0.2172
  648SOL     OW 2664   2.935   3.131   1.138 -0.0046 -0.4037 -0.0696
  648SOL    HW2 2665   2.927   3.150   1.045  0.4426 -1.1839 -0.2780
  648SOL    HW3 2666   2.951   3.037   1.142  0.4847 -0.2932  0.7677
  648SOL    MW4 2667   2.936   3.121   1.126  0.1190 -0.4921  0.0135
  649SOL     OW 2668   2.698   3.466   1.130  0.0050  0.1336 -0.0009
  649SOL    HW2 2669   2.627   3.522   1.162  0.6225  1.3667 -0.7068
  649SOL    HW3 2670   2.681   3.380   1.167 -0.8849  0.8476  1.2584
  649SOL    MW4 2671   2.687   3.462   1.139 -0.0312  0.3903  0.0720
  650SOL     OW 2672   2.921   3.618   1.216 -0.0220  0.1104 -0.1006
  650SOL    HW2 2673   2.916   3.610   1.312 -1.6985  0.8117 -0.1057
  650SOL    HW3 2674   2.844   3.571   1.185  0.8092 -0.5730 -1.1579
  650SOL    MW4 2675   2.910   3.610   1.225 -0.1338  0.1128 -0.2408
  651SOL     OW 2676   3.068   2.997   0.792 -0.2970 -0.5635  0.4255
  651SOL    HW2 2677   3.158   3.029   0.787 -0.2241 -0.9947 -1.2038
  651SOL    HW3 2678   3.076   2.904   0.811 -0.3876 -0.7196 -0.2990
  651SOL    MW4 2679   3.081   2.989   0.794 -0.2992 -0.6409  0.1150
  652SOL     OW 2680   2.711   3.980   1.170 -0.3189  0.1954 -0.4125
  652SOL    HW2 2681   2.782   3.923   1.143  0.4918  1.1747 -0.3706
  652SOL    HW3 2682   2.728   3.998   1.262 -1.0025 -0.1217 -0.2222
  652SOL    MW4 2683   2.722   3.975   1.178 -0.3023  0.2830 -0.3819
  653SOL     OW 2684   4.281   1.770   0.173  0.3540 -0.2536 -0.3608
  653SOL    HW2 2685   4.350   1.737   0.231  0.9204  1.5882  0.0391
  653SOL    HW3 2686   4.324   1.782   0.089  0.6115  1.1402 -0.0458
  653SOL    MW4 2687   4.295   1.767   0.170  0.4625  0.1733 -0.2664
  654SOL     OW 2688   2.872   4.617   1.081 -0.6006  0.3648  0.7377
  654SOL    HW2 2689   2.804   4.673   1.119 -3.1753 -1.6709 -0.7047
  654SOL    HW3 2690   2.881   4.545   1.143 -0.9857 -0.2550  0.0691
  654SOL    MW4 2691   2.864   4.615   1.094 -0.9909  0.0143  0.4593
  655SOL     OW 2692   4.287   0.028   1.118 -0.4163 -0.3297  0.0871
  655SOL    HW2 2693   4.293  -0.062   1.149  1.0337  0.3180  1.7674
  655SOL    HW3 2694   4.194   0.050   1.126 -0.4421 -0.9826  1.6825
  655SOL    MW4 2695   4.275   0.019   1.123 -0.2284 -0.3304  0.5190
  656SOL     OW 2696   3.114   0.071   1.199 -0.1213  0.2015 -0.3332
  656SOL    HW2 2697   3.097   0.078   1.293  0.7601  0.8254 -0.2206
  656SOL    HW3 2698   3.033   0.033   1.164 -1.0127  1.3220  0.4651
  656SOL    MW4 2699   3.101   0.067   1.207 -0.1225  0.4317 -0.2131
  657SOL     OW 2700   3.111   1.166   0.821 -0.0746 -0.3461 -0.2156
  657SOL    HW2 2701   3.130   1.167   0.915 -2.4200  2.0152  0.3030
  657SOL    HW3 2702   3.085   1.075   0.803  0.9008 -0.9452  1.2880
  657SOL    MW4 2703   3.110   1.154   0.831 -0.2551 -0.1135  0.0513
  658SOL     OW 2704   3.354   0.472   1.505  0.5453 -0.4489  0.2338
  658SOL    HW2 2705   3.348   0.486   1.411  0.6796 -2.4295 -0.0886
  658SOL    HW3 2706   3.269   0.434   1.529  0.2137  0.7728  1.0614
  658SOL    MW4 2707   3.342   0.469   1.496  0.5193 -0.5490  0.3003
  659SOL     OW 2708   0.669   2.225   0.567  0.1195  0.0115  0.2663
  659SOL    HW2 2709   0.653   2.317   0.586  1.5375  0.2408  0.3592
  659SOL    HW3 2710   0.757   2.223   0.529 -1.0877 -0.8998 -2.6268
  659SOL    MW4 2711   0.678   2.237   0.564  0.1473 -0.0784 -0.1032
  660SOL     OW 2712   3.159   0.881   1.172  0.2927 -0.3417 -0.2036
  660SOL    HW2 2713   3.136   0.886   1.265 -2.1278 -0.0371 -0.7906
  660SOL    HW3 2714   3.150   0.971   1.140  2.0699 -0.2655 -0.5368
  660SOL    MW4 2715   3.154   0.893   1.180  0.2077 -0.2914 -0.3248
  661SOL     OW 2716   3.375   1.291   1.202  0.1497  0.0483  0.1937
  661SOL    HW2 2717   3.373   1.278   1.297  0.5757  0.9036  0.3287
  661SOL    HW3 2718   3.342   1.380   1.189 -0.5358 -0.3076 -0.5140
  661SOL    MW4 2719   3.371   1.301   1.213  0.1152  0.1142  0.1183
  662SOL     OW 2720   3.602   1.172   1.117 -0.3150  0.2095  0.7599
  662SOL    HW2 2721   3.628   1.199   1.029 -0.4199 -1.3111  0.2454
  662SOL    HW3 2722   3.522   1.222   1.135 -0.5560  0.1720 -0.1992
  662SOL    MW4 2723   3.595   1.182   1.108 -0.3607  0.0041  0.5654
  663SOL     OW 2724   3.319   1.562   1.125 -0.1619 -0.0490  0.3073
  663SOL    HW2 2725   3.289   1.568   1.034 -0.8689 -0.0772  0.5350
  663SOL    HW3 2726   3.247   1.598   1.176  0.1654 -0.1922  0.8712
  663SOL    MW4 2727   3.306   1.568   1.120 -0.2120 -0.0716  0.4117
  664SOL     OW 2728   3.085   1.685   1.240  0.8912  0.0392  0.2403
  664SOL    HW2 2729   3.116   1.763   1.196 -1.1168  1.7393  1.7447
  664SOL    HW3 2730   3.093   1.704   1.333  0.9695 -1.7897  0.6357
  664SOL    MW4 2731   3.090   1.698   1.246  0.6366  0.0223  0.4910
  665SOL     OW 2732   2.135   3.274   0.498 -0.1274 -0.5915  0.4844
  665SOL    HW2 2733   2.192   3.197   0.495 -0.7614 -1.0520 -0.1867
  665SOL    HW3 2734   2.056   3.246   0.451 -0.8224  0.0974  1.2397
  665SOL    MW4 2735   2.132   3.260   0.491 -0.3026 -0.5617  0.4955
  666SOL     OW 2736   2.910   2.068   1.200 -0.1476 -0.6224 -0.3247
  666SOL    HW2 2737   2.905   2.157   1.164  0.5440 -0.9246 -1.2163
  666SOL    HW3 2738   2.921   2.080   1.294 -2.0339  0.2009 -0.1968
  666SOL    MW4 2739   2.911   2.081   1.207 -0.3049 -0.5536 -0.4255
  667SOL     OW 2740   3.834   2.294   1.110  0.0424  0.2081  0.3190
  667SOL    HW2 2741   3.909   2.338   1.149 -0.9610  1.3344  1.0334
  667SOL    HW3 2742   3.760   2.352   1.129 -1.0440 -1.0021 -0.1383
  667SOL    MW4 2743   3.834   2.308   1.118 -0.2332  0.1969  0.3529
  668SOL     OW 2744   3.155   2.428   1.173  0.0864 -0.2268  0.0808
  668SOL    HW2 2745   3.163   2.449   1.266  0.0587 -0.8577  0.2233
  668SOL    HW3 2746   3.168   2.512   1.129  3.1078 -0.4276  0.5039
  668SOL    MW4 2747   3.158   2.442   1.180  0.4816 -0.3366  0.1554
  669SOL     OW 2748   3.192   2.710   1.091 -0.2236  0.1366 -0.3345
  669SOL    HW2 2749   3.276   2.746   1.119  0.0097 -0.1655 -0.6424
  669SOL    HW3 2750   3.127   2.765   1.134  0.1286 -1.2679  2.0803
  669SOL    MW4 2751   3.195   2.722   1.100 -0.1462 -0.0887 -0.0564
  670SOL     OW 2752   2.785   0.564   0.669 -0.2469  0.2129  0.0162
  670SOL    HW2 2753   2.706   0.571   0.615 -0.5900 -0.1731  0.4692
  670SOL    HW3 2754   2.773   0.483   0.719  0.1919  0.4402  0.4908
  670SOL    MW4 2755   2.773   0.554   0.668 -0.2341  0.1920  0.1386
  671SOL     OW 2756   0.537   3.308   0.746  0.1356 -0.3655 -0.3993
  671SOL    HW2 2757   0.591   3.240   0.788  0.3977 -0.4758 -0.9064
  671SOL    HW3 2758   0.460   3.261   0.715  0.2028 -0.3875 -0.5336
  671SOL    MW4 2759   0.534   3.293   0.747  0.1791 -0.3831 -0.4839
  672SOL     OW 2760   3.351   3.055   0.780 -0.4242 -0.2396  0.3226
  672SOL    HW2 2761   3.383   3.050   0.870  3.0405  1.4632 -0.7199
  672SOL    HW3 2762   3.333   3.147   0.766  0.1202 -0.3396 -1.0623
  672SOL    MW4 2763   3.353   3.066   0.790  0.1044 -0.0284  0.0023
  673SOL     OW 2764   3.146   3.451   1.110  0.7668  0.0555 -0.1391
  673SOL    HW2 2765   3.209   3.509   1.154 -0.1325  2.0048 -1.3300
  673SOL    HW3 2766   3.060   3.490   1.131  0.2935  0.8129 -3.2193
  673SOL    MW4 2767   3.143   3.464   1.119  0.5860  0.4125 -0.7025
  674SOL     OW 2768   3.354   3.601   1.205  0.6756  0.2438 -0.3538
  674SOL    HW2 2769   3.358   3.596   1.301  0.9124  2.3019 -0.2231
  674SOL    HW3 2770   3.440   3.569   1.176 -0.2975 -2.8016 -0.0428
  674SOL    MW4 2771   3.366   3.596   1.214  0.5784  0.1135 -0.2954
  675SOL     OW 2772   3.375   3.875   1.111  0.0056  0.0050 -0.2244
  675SOL    HW2 2773   3.358   3.786   1.142  1.4785 -0.3001 -0.2463
  675SOL    HW3 2774   3.295   3.923   1.131 -0.5811 -1.1792  0.3356
  675SOL    MW4 2775   3.362   3.869   1.117  0.1223 -0.1910 -0.1534
  676SOL     OW 2776   3.062   0.188   0.466 -0.2846 -0.4252  0.5320
  676SOL    HW2 2777   3.034   0.149   0.383 -0.8716  0.8879  0.1006
  676SOL    HW3 2778   3.100   0.272   0.441 -0.9728  0.2263  1.6405
  676SOL    MW4 2779   3.064   0.194   0.451 -0.4530 -0.1660  0.6213
  677SOL     OW 2780   2.917   4.363   1.230 -0.1973  0.5011 -0.1497
  677SOL    HW2 2781   2.995   4.335   1.183 -0.6160  0.5815 -0.8890
  677SOL    HW3 2782   2.845   4.316   1.187 -0.3867 -0.7902  1.5147
  677SOL    MW4 2783   2.918   4.353   1.218 -0.2775  0.3409 -0.0277
  678SOL     OW 2784   3.384   4.418   1.177  0.0630 -0.1466  0.2102
  678SOL    HW2 2785   3.397   4.494   1.120  0.1679 -0.8579 -0.7397
  678SOL    HW3 2786   3.456   4.359   1.154 -1.3989 -1.5733 -0.8226
  678SOL    MW4 2787   3.395   4.420   1.166 -0.1159 -0.4282 -0.0513
  679SOL     OW 2788   3.815   4.372   1.239 -0.3972  0.2355  0.4624
  679SOL    HW2 2789   3.799   4.373   1.334 -1.2506 -0.2247  0.3337
  679SOL    HW3 2790   3.827   4.464   1.216 -4.3276  0.8127  0.3674
  679SOL    MW4 2791   3.814   4.384   1.249 -1.0285  0.2513  0.4330
  680SOL     OW 2792   1.781   0.420   0.386 -0.0977  0.1558 -0.0353
  680SOL    HW2 2793   1.790   0.479   0.311  0.9771 -0.9719 -0.8029
  680SOL    HW3 2794   1.686   0.417   0.402 -0.4847 -0.6958 -2.2463
  680SOL    MW4 2795   1.770   0.428   0.378 -0.0070 -0.1053 -0.4283
  681SOL     OW 2796   0.302   4.041   0.363 -0.5375  0.4717 -0.1239
  681SOL    HW2 2797   0.297   4.095   0.284  2.2733  0.8133 -0.1089
  681SOL    HW3 2798   0.366   3.973   0.342 -0.4121  0.0457  1.5597
  681SOL    MW4 2799   0.310   4.039   0.349 -0.1501  0.4606  0.1002
  682SOL     OW 2800   4.039   0.098   1.200 -0.1337  0.2140 -0.4450
  682SOL    HW2 2801   3.968   0.046   1.162  0.2088  0.9447 -2.1255
  682SOL    HW3 2802   4.018   0.103   1.293 -1.3783 -1.0083 -0.6464
  682SOL    MW4 2803   4.027   0.092   1.207 -0.2527  0.1491 -0.6932
  683SOL     OW 2804   3.790   1.302   1.275  0.7015 -0.5352  0.0786
  683SOL    HW2 2805   3.737   1.228   1.243  0.9467 -0.6642 -0.0319
  683SOL    HW3 2806   3.786   1.295   1.370 -0.6247  0.2689  0.0975
  683SOL    MW4 2807   3.782   1.291   1.283  0.5589 -0.4461  0.0665
  684SOL     OW 2808   4.350   2.226   0.900 -0.1338  0.4640 -0.0413
  684SOL    HW2 2809   4.319   2.230   0.991 -1.0973 -0.6754 -0.3129
  684SOL    HW3 2810   4.292   2.163   0.858 -0.2375  1.6407 -1.6700
  684SOL    MW4 2811   4.339   2.218   0.907 -0.2742  0.4687 -0.2920
  685SOL     OW 2812   1.796   0.117   1.235 -0.2262  0.4840  0.1116
  685SOL    HW2 2813   1.871   0.098   1.179 -0.3936  0.8577 -0.2361
  685SOL    HW3 2814   1.723   0.071   1.195  0.3165 -1.9843  1.8354
  685SOL    MW4 2815   1.797   0.108   1.223 -0.1767  0.2076  0.2931
  686SOL     OW 2816   3.402   0.753   1.131 -0.5545  0.1541 -0.2497
  686SOL    HW2 2817   3.383   0.666   1.166 -0.6443  0.6623  1.0025
  686SOL    HW3 2818   3.321   0.802   1.141 -0.2838  0.6103 -0.2300
  686SOL    MW4 2819   3.389   0.748   1.137 -0.5305  0.2813 -0.0819
  687SOL     OW 2820   2.597   3.161   0.813  0.5112  0.1303 -0.2266
  687SOL    HW2 2821   2.585   3.091   0.749  1.9363  1.2588 -1.7846
  687SOL    HW3 2822   2.692   3.164   0.826  0.1207 -1.4305  3.5249
  687SOL    MW4 2823   2.608   3.152   0.806  0.6475  0.0732  0.0628
  688SOL     OW 2824   3.841   3.981   0.171 -0.3933 -0.4680  0.3984
  688SOL    HW2 2825   3.770   3.981   0.236 -0.5379 -2.0839  0.2576
  688SOL    HW3 2826   3.802   4.019   0.093 -0.7737 -0.2671  0.6853
  688SOL    MW4 2827   3.827   3.986   0.169 -0.4625 -0.6547  0.4176
  689SOL     OW 2828   1.463   0.892   0.861 -0.4527  0.3223 -0.4264
  689SOL    HW2 2829   1.394   0.831   0.837 -1.4895  1.6335 -0.7995
  689SOL    HW3 2830   1.443   0.972   0.813  0.7865  1.0327  0.2028
  689SOL    MW4 2831   1.452   0.895   0.852 -0.4259  0.5890 -0.3926
  690SOL     OW 2832   0.017   1.891   1.122  0.0894  0.0241  0.1865
  690SOL    HW2 2833  -0.057   1.941   1.156  0.2909  0.1777  0.3995
  690SOL    HW3 2834   0.023   1.916   1.030 -1.2476 -1.3364 -0.3017
  690SOL    MW4 2835   0.008   1.901   1.115 -0.0606 -0.1351  0.1501
  691SOL     OW 2836   3.803   2.039   1.217 -0.4340  0.4156 -0.2319
  691SOL    HW2 2837   3.811   2.132   1.196 -1.6690  0.9690  1.6229
  691SOL    HW3 2838   3.814   2.035   1.312  2.4201 -1.6988 -0.6055
  691SOL    MW4 2839   3.806   2.051   1.227 -0.2203  0.2096 -0.0364
  692SOL     OW 2840   3.633   2.486   1.201 -0.0157 -0.3114  0.0177
  692SOL    HW2 2841   3.550   2.443   1.182  1.2736 -3.0223  0.1899
  692SOL    HW3 2842   3.644   2.477   1.296 -0.4374  1.7978  0.2864
  692SOL    MW4 2843   3.624   2.479   1.211  0.0989 -0.3908  0.0758
  693SOL     OW 2844   3.411   2.320   1.155  0.0958 -0.2692  0.2487
  693SOL    HW2 2845   3.423   2.319   1.060 -1.5361 -0.0051  0.0217
  693SOL    HW3 2846   3.325   2.361   1.168  0.2954 -0.3215  1.8342
  693SOL    MW4 2847   3.401   2.325   1.144 -0.0932 -0.2413  0.4280
  694SOL     OW 2848   3.823   2.874   1.181 -0.5861 -0.3359 -1.0295
  694SOL    HW2 2849   3.807   2.865   1.275  1.0252  0.1002 -0.6962
  694SOL    HW3 2850   3.746   2.835   1.140 -2.0464  0.8757  0.4773
  694SOL    MW4 2851   3.810   2.868   1.188 -0.5662 -0.1183 -0.7867
  695SOL     OW 2852   3.586   0.085   1.171  0.0273  0.1191  0.1182
  695SOL    HW2 2853   3.514   0.046   1.121  0.2083  1.0349 -0.8610
  695SOL    HW3 2854   3.588   0.176   1.144  1.9533 -0.0338 -0.3037
  695SOL    MW4 2855   3.577   0.092   1.161  0.3054  0.2198 -0.0666
  696SOL     OW 2856   1.517   0.412   0.459  0.2566  0.2849 -0.0860
  696SOL    HW2 2857   1.462   0.462   0.399  1.7500  1.8145 -0.2163
  696SOL    HW3 2858   1.519   0.464   0.539 -0.0100 -0.6937  0.5601
  696SOL    MW4 2859   1.510   0.426   0.462  0.4185  0.3576 -0.0180
  697SOL     OW 2860   3.584   3.492   1.095  0.1851  0.2382  0.1320
  697SOL    HW2 2861   3.596   3.474   1.002  0.5115  1.8476 -0.1482
  697SOL    HW3 2862   3.603   3.409   1.138  1.6902 -0.0757 -1.1125
  697SOL    MW4 2863   3.588   3.479   1.089  0.4268  0.4094 -0.0691
  698SOL     OW 2864   3.826   3.631   1.205 -0.0163 -0.0448  0.1218
  698SOL    HW2 2865   3.749   3.594   1.162  0.4447 -2.0691  1.0183
  698SOL    HW3 2866   3.809   3.620   1.298  0.2831  1.7506  0.4226
  698SOL    MW4 2867   3.813   3.625   1.211  0.0839 -0.0749  0.2797
  699SOL     OW 2868   0.572   2.474   0.620 -0.4333 -0.3531 -0.3575
  699SOL    HW2 2869   0.515   2.550   0.618 -0.6045 -0.5119 -2.2891
  699SOL    HW3 2870   0.659   2.509   0.639 -0.8537  0.0738  0.8421
  699SOL    MW4 2871   0.576   2.488   0.622 -0.5113 -0.3178 -0.4541
  700SOL     OW 2872   3.605   4.000   1.196 -0.4290  0.1988 -0.0086
  700SOL    HW2 2873   3.598   3.994   1.291 -1.2042 -0.5881 -0.1063
  700SOL    HW3 2874   3.523   3.963   1.163  0.9488 -2.0315 -1.0405
  700SOL    MW4 2875   3.593   3.994   1.204 -0.3493 -0.1993 -0.1576
  701SOL     OW 2876   3.734   0.789   0.870 -0.1357 -0.2086  0.0866
  701SOL    HW2 2877   3.793   0.725   0.831  1.2428  1.6924 -1.0884
  701SOL    HW3 2878   3.748   0.782   0.964 -0.7924 -2.3157  0.0598
  701SOL    MW4 2879   3.743   0.780   0.877 -0.0403 -0.2358 -0.0719
  702SOL     OW 2880   4.290   3.591   1.243  0.0695  0.2039  0.1864
  702SOL    HW2 2881   4.218   3.555   1.192 -0.5181 -0.6295  1.5834
  702SOL    HW3 2882   4.369   3.553   1.203 -0.2587  0.8123 -1.0909
  702SOL    MW4 2883   4.291   3.582   1.231 -0.0515  0.1738  0.2022
  703SOL     OW 2884   1.154   0.021   0.827  0.2265 -0.4072  0.1202
  703SOL    HW2 2885   1.063   0.003   0.807 -0.0753  0.2702  0.8495
  703SOL    HW3 2886   1.155   0.042   0.920  1.1442 -0.5235  0.1449
  703SOL    MW4 2887   1.142   0.022   0.837  0.3077 -0.3332  0.2197
  704SOL     OW 2888   3.817   0.486   1.249 -0.3115 -0.5335 -0.5560
  704SOL    HW2 2889   3.800   0.573   1.213  0.7444 -0.2175 -0.2928
  704SOL    HW3 2890   3.893   0.455   1.200  0.1222 -0.7732  0.2766
  704SOL    MW4 2891   3.825   0.493   1.238 -0.1149 -0.5234 -0.4114
  705SOL     OW 2892   3.594   0.381   1.111 -0.0647 -0.0211  0.4210
  705SOL    HW2 2893   3.665   0.411   1.167  0.5235 -2.2848  0.9264
  705SOL    HW3 2894   3.636   0.360   1.028 -0.1710 -1.1698  0.6555
  705SOL    MW4 2895   3.609   0.382   1.108 -0.0012 -0.4713  0.5186
  706SOL     OW 2896   3.807   4.109   0.635  0.2295 -0.4554 -0.4050
  706SOL    HW2 2897   3.833   4.035   0.691  1.3453 -0.8813 -1.4593
  706SOL    HW3 2898   3.889   4.137   0.594 -0.1614  1.4318  0.0320
  706SOL    MW4 2899   3.822   4.103   0.637  0.3250 -0.2627 -0.4864
  707SOL     OW 2900   2.929   3.415   0.688  0.3168  0.5040 -0.4802
  707SOL    HW2 2901   3.009   3.428   0.739 -0.6756  1.1830  0.9677
  707SOL    HW3 2902   2.863   3.466   0.735 -1.3841 -1.5218 -0.6055
  707SOL    MW4 2903   2.931   3.424   0.701 -0.0386  0.3264 -0.3057
  708SOL     OW 2904   4.027   0.885   1.212 -0.0736 -0.1999 -0.1726
  708SOL    HW2 2905   4.027   0.974   1.179  2.0064 -0.4179 -0.8188
  708SOL    HW3 2906   4.017   0.894   1.307 -2.0240  0.5999 -0.4348
  708SOL    MW4 2907   4.026   0.898   1.221 -0.0567 -0.1232 -0.2925
  709SOL     OW 2908   1.906   4.439   0.480  0.4497  0.0043 -0.0484
  709SOL    HW2 2909   1.948   4.525   0.474 -1.9154  1.1668 -0.3248
  709SOL    HW3 2910   1.872   4.435   0.569 -0.3806 -0.1935 -0.3716
  709SOL    MW4 2911   1.907   4.450   0.491  0.0281  0.1316 -0.1275
  710SOL     OW 2912   4.281   1.261   1.236 -0.1123  0.0318 -0.0531
  710SOL    HW2 2913   4.264   1.254   1.330  0.9678 -0.0684  0.1371
  710SOL    HW3 2914   4.297   1.354   1.222  2.5922 -0.3396  0.3701
  710SOL    MW4 2915   4.280   1.272   1.247  0.3872 -0.0305  0.0278
  711SOL     OW 2916   0.026   1.633   1.257 -0.5162 -0.8904 -0.2161
  711SOL    HW2 2917   0.022   1.717   1.212 -0.3989 -0.4088  0.6566
  711SOL    HW3 2918   0.096   1.585   1.213 -0.7182 -0.6116 -0.8506
  711SOL    MW4 2919   0.034   1.638   1.246 -0.5274 -0.7902 -0.1847
  712SOL     OW 2920   4.020   1.627   1.198  0.3288  0.0106 -0.1006
  712SOL    HW2 2921   4.025   1.719   1.175  2.3475 -0.2639 -0.9313
  712SOL    HW3 2922   4.030   1.625   1.293 -1.1052  0.7268  0.0653
  712SOL    MW4 2923   4.022   1.639   1.208  0.4063  0.0687 -0.1884
  713SOL     OW 2924   3.364   0.495   1.228 -0.6413 -0.1376 -0.0589
  713SOL    HW2 2925   3.285   0.446   1.206 -1.8529  2.0033 -0.5854
  713SOL    HW3 2926   3.435   0.448   1.183 -1.8342 -1.1128 -0.9414
  713SOL    MW4 2927   3.363   0.482   1.219 -0.9584  0.0162 -0.2450
  714SOL     OW 2928   4.060   1.903   1.142 -0.4979  0.1110  0.7854
  714SOL    HW2 2929   3.977   1.945   1.165 -1.0737 -0.6255  0.0536
  714SOL    HW3 2930   4.064   1.907   1.047 -0.4028 -1.1964  0.7240
  714SOL    MW4 2931   4.050   1.909   1.133 -0.5612 -0.1587  0.6808
  715SOL     OW 2932   1.999   2.445   0.492  0.0959  0.3280  0.0863
  715SOL    HW2 2933   1.987   2.531   0.452  1.2735 -0.2583 -1.5896
  715SOL    HW3 2934   2.092   2.426   0.480 -0.0133 -0.8778  1.0702
  715SOL    MW4 2935   2.010   2.454   0.486  0.2370  0.0916 -0.0050
  716SOL     OW 2936   4.040   2.432   1.204 -0.5145 -0.0885  0.4009
  716SOL    HW2 2937   4.031   2.522   1.172  0.2679 -0.2836 -0.4013
  716SOL    HW3 2938   4.048   2.440   1.299  0.7439  0.7859  0.2282
  716SOL    MW4 2939   4.040   2.445   1.212 -0.2456  0.0012  0.2724
  717SOL     OW 2940   4.256   2.831   1.232  0.0333  0.2193 -0.1001
  717SOL    HW2 2941   4.314   2.763   1.197 -0.4617  0.2949 -1.0675
  717SOL    HW3 2942   4.168   2.803   1.206 -0.2719  0.6710  0.4337
  717SOL    MW4 2943   4.252   2.818   1.224 -0.0715  0.2887 -0.1574
  718SOL     OW 2944   1.286   1.509   0.787  0.6483 -0.1988  0.1165
  718SOL    HW2 2945   1.287   1.423   0.829  0.5046  0.2391  1.0300
  718SOL    HW3 2946   1.371   1.547   0.810 -0.0290  0.6399  1.2788
  718SOL    MW4 2947   1.297   1.503   0.795  0.5400 -0.0303  0.3904
  719SOL     OW 2948   4.291   3.064   1.094 -0.3724 -0.0919 -0.1080
  719SOL    HW2 2949   4.213   3.120   1.099 -0.0262  0.3049  1.0754
  719SOL    HW3 2950   4.276   2.996   1.160  0.0179 -0.3579 -0.2899
  719SOL    MW4 2951   4.278   3.062   1.104 -0.2747 -0.0746  0.0242
  720SOL     OW 2952   1.077   1.549   1.174  0.3281  0.3700 -0.1376
  720SOL    HW2 2953   1.162   1.580   1.207 -0.2231  0.4320  1.2465
  720SOL    HW3 2954   1.079   1.454   1.189  0.2181  0.3420 -0.2908
  720SOL    MW4 2955   1.089   1.540   1.180  0.2408  0.3746  0.0247
  721SOL     OW 2956   2.551   2.687   0.690 -0.2390 -0.5006  0.0154
  721SOL    HW2 2957   2.638   2.669   0.728  0.2212 -0.1276 -0.8421
  721SOL    HW3 2958   2.536   2.613   0.630 -0.9251 -1.0443  0.8472
  721SOL    MW4 2959   2.561   2.675   0.687 -0.2687 -0.5229  0.0120
  722SOL     OW 2960   0.273   0.952   0.301 -0.3193  0.6681 -0.0164
  722SOL    HW2 2961   0.242   0.955   0.211 -0.5759  1.9129  0.1060
  722SOL    HW3 2962   0.330   0.875   0.305 -0.9913  0.1231 -1.0129
  722SOL    MW4 2963   0.277   0.942   0.290 -0.4418  0.7605 -0.1318
  723SOL     OW 2964   0.022   2.007   0.867  0.0469  0.2275 -0.1126
  723SOL    HW2 2965   0.054   2.017   0.777 -0.1408  1.0383 -0.0962
  723SOL    HW3 2966  -0.020   2.091   0.886 -0.9384 -0.3613  0.3211
  723SOL    MW4 2967   0.021   2.020   0.857 -0.1079  0.2568 -0.0532
  724SOL     OW 2968   0.677   0.663   0.672  0.3362  0.3718  0.2503
  724SOL    HW2 2969   0.627   0.622   0.602 -0.6877  0.2095  1.0752
  724SOL    HW3 2970   0.614   0.720   0.717  0.8240 -0.0254  1.4503
  724SOL    MW4 2971   0.662   0.665   0.669  0.2655  0.2980  0.5174
  725SOL     OW 2972   3.362   0.066   0.779  0.6330  0.7265  0.2914
  725SOL    HW2 2973   3.452   0.050   0.749  0.3070 -0.4615 -0.0549
  725SOL    HW3 2974   3.341   0.153   0.744  0.8696  0.0738 -1.5530
  725SOL    MW4 2975   3.371   0.076   0.770  0.6213  0.4836  0.0024
  726SOL     OW 2976   2.423   0.526   0.789 -0.1084  0.1523  0.2486
  726SOL    HW2 2977   2.329   0.517   0.801  0.0677 -0.9681  0.7995
  726SOL    HW3 2978   2.440   0.619   0.807 -1.1203  0.4035 -0.0343
  726SOL    MW4 2979   2.413   0.537   0.793 -0.2189  0.0377  0.2840
  727SOL     OW 2980   0.237   4.633   1.637 -0.1650  0.1584  0.4173
  727SOL    HW2 2981   0.312   4.682   1.605 -0.3843  0.4374  0.3267
  727SOL    HW3 2982   0.161   4.687   1.614 -0.4269 -0.3638  0.0558
  727SOL    MW4 2983   0.237   4.647   1.630 -0.2285  0.1268  0.3576
  728SOL     OW 2984   4.477   0.072   1.543 -0.0030  0.3014  0.0975
  728SOL    HW2 2985   4.392   0.040   1.572 -0.1089  0.4395 -0.0617
  728SOL    HW3 2986   4.462   0.105   1.454 -0.1397  1.7883  0.6592
  728SOL    MW4 2987   4.464   0.072   1.535 -0.0343  0.5158  0.1506
  729SOL     OW 2988   4.453   0.335   1.595 -0.1168 -0.1959  0.1995
  729SOL    HW2 2989   4.453   0.334   1.690 -0.1370 -0.4617  0.1973
  729SOL    HW3 2990   4.458   0.243   1.570 -0.0461 -0.1227 -0.0560
  729SOL    MW4 2991   4.453   0.323   1.604 -0.1106 -0.2213  0.1655
  730SOL     OW 2992   0.172   0.490   1.495  0.5263 -0.3826  0.2658
  730SOL    HW2 2993   0.092   0.453   1.532 -0.5264  0.4484 -1.0923
  730SOL    HW3 2994   0.186   0.571   1.543 -1.0495  0.8875 -1.3229
  730SOL    MW4 2995   0.164   0.496   1.506  0.1795 -0.1054 -0.1229
  731SOL     OW 2996   0.200   0.733   1.603 -0.0461  0.4856  0.3201
  731SOL    HW2 2997   0.276   0.776   1.564  0.4901  0.9267  1.8080
  731SOL    HW3 2998   0.198   0.766   1.693 -1.3571 -0.3730  0.6149
  731SOL    MW4 2999   0.210   0.743   1.610 -0.1483  0.4305  0.5552
  732SOL     OW 3000   4.481   0.842   1.496  0.2755  0.1417  0.1892
  732SOL    HW2 3001   4.463   0.926   1.539  0.2139 -0.1557  0.7461
  732SOL    HW3 3002   4.566   0.815   1.530  1.3510  1.0617 -1.6980
  732SOL    MW4 3003   4.490   0.850   1.506  0.4091  0.2238  0.0136
  733SOL     OW 3004   4.462   1.105   1.596 -0.1529  0.4123 -0.3734
  733SOL    HW2 3005   4.464   1.113   1.692 -0.6646  0.6197 -0.3786
  733SOL    HW3 3006   4.529   1.167   1.566  0.3365  0.0075 -0.1342
  733SOL    MW4 3007   4.471   1.115   1.605 -0.1559  0.3862 -0.3425
  734SOL     OW 3008   0.182   1.268   1.522 -0.3925 -0.0963 -0.1815
  734SOL    HW2 3009   0.197   1.355   1.561  0.6218 -0.8427  1.1259
  734SOL    HW3 3010   0.180   1.285   1.428 -0.2161  1.3526  0.0524
  734SOL    MW4 3011   0.183   1.282   1.515 -0.2354 -0.0036  0.0219
  735SOL     OW 3012   0.186   1.527   1.632 -0.3210  0.1590  0.2240
  735SOL    HW2 3013   0.173   1.521   1.727  0.7784 -1.2873  0.3081
  735SOL    HW3 3014   0.108   1.573   1.600 -1.3371 -0.5003  1.6832
  735SOL    MW4 3015   0.174   1.532   1.640 -0.3100 -0.1187  0.4276
  736SOL     OW 3016   4.453   1.642   1.512 -0.4387  0.0001 -0.4960
  736SOL    HW2 3017   4.466   1.734   1.537 -0.0392  0.2863 -1.7411
  736SOL    HW3 3018   4.461   1.641   1.417  1.2015 -1.5974 -0.3575
  736SOL    MW4 3019   4.456   1.654   1.503 -0.1698 -0.1729 -0.6421
  737SOL     OW 3020   4.486   1.911   1.608  0.1439  0.0465  0.2456
  737SOL    HW2 3021   4.478   1.879   1.698  0.4713 -0.1729  0.1996
  737SOL    HW3 3022   4.405   1.960   1.592 -0.3808 -0.7746  0.3149
  737SOL    MW4 3023   4.474   1.913   1.617  0.1178 -0.0907  0.2487
  738SOL     OW 3024   0.183   2.087   1.517 -0.2801  0.1017  0.4083
  738SOL    HW2 3025   0.126   2.016   1.547  0.0165  0.0420  0.8370
  738SOL    HW3 3026   0.182   2.080   1.422 -3.1883  1.8213  0.2598
  738SOL    MW4 3027   0.176   2.076   1.508 -0.6246  0.3207  0.4451
  739SOL     OW 3028   0.178   2.335   1.639 -0.2750 -0.2385 -0.2747
  739SOL    HW2 3029   0.179   2.312   1.732  0.2120  1.3005  0.1202
  739SOL    HW3 3030   0.185   2.252   1.593 -1.6270 -1.1109  1.0564
  739SOL    MW4 3031   0.179   2.321   1.645 -0.3891 -0.1507 -0.0470
  740SOL     OW 3032   4.455   2.460   1.511  0.1974 -0.0253  0.1932
  740SOL    HW2 3033   4.374   2.418   1.541  0.7372 -0.8647  0.4867
  740SOL    HW3 3034   4.524   2.411   1.555  0.8863  0.4171 -0.4051
  740SOL    MW4 3035   4.453   2.448   1.521  0.3600 -0.0777  0.1529
  741SOL     OW 3036   4.477   2.736   1.618 -0.4594 -0.1587 -0.1607
  741SOL    HW2 3037   4.404   2.787   1.582  0.1168 -0.2019 -1.4021
  741SOL    HW3 3038   4.464   2.648   1.583  0.7603  0.0739 -1.1965
  741SOL    MW4 3039   4.466   2.731   1.609 -0.2222 -0.1338 -0.4611
  742SOL     OW 3040   0.211   2.846   1.523  0.0632 -0.0709 -0.1732
  742SOL    HW2 3041   0.279   2.794   1.565  0.0288  0.6428  0.7877
  742SOL    HW3 3042   0.129   2.810   1.556  0.0657  1.4880  1.6195
  742SOL    MW4 3043   0.209   2.835   1.533  0.0590  0.2286  0.1901
  743SOL     OW 3044   0.238   3.106   1.644 -0.1563 -0.1250  0.5818
  743SOL    HW2 3045   0.179   3.167   1.600  0.8484  0.1447 -0.4145
  743SOL    HW3 3046   0.210   3.020   1.613 -0.2733 -0.0266  0.4134
  743SOL    MW4 3047   0.227   3.103   1.634 -0.0392 -0.0763  0.4281
  744SOL     OW 3048   0.020   3.211   1.507 -0.1472 -0.0628  0.0159
  744SOL    HW2 3049   0.010   3.304   1.524 -1.3898  0.0165 -1.0218
  744SOL    HW3 3050   0.027   3.205   1.411 -0.7218 -1.0660  0.0259
  744SOL    MW4 3051   0.019   3.222   1.496 -0.3869 -0.1848 -0.1196
  745SOL     OW 3052   0.024   3.467   1.599 -0.5295  0.0355 -0.0682
  745SOL    HW2 3053   0.021   3.472   1.695  0.2716 -0.4803 -0.0058
  745SOL    HW3 3054  -0.054   3.513   1.570 -0.2580  1.0686  0.8069
  745SOL    MW4 3055   0.014   3.473   1.608 -0.3881  0.1035  0.0553
  746SOL     OW 3056   0.230   3.619   1.529 -0.0462  0.4265 -0.5123
  746SOL    HW2 3057   0.205   3.707   1.557 -0.6778  0.0784  0.0096
  746SOL    HW3 3058   0.168   3.561   1.571  2.0305 -0.5140  1.3684
  746SOL    MW4 3059   0.219   3.623   1.538  0.1445  0.2565 -0.1953
  747SOL     OW 3060   0.197   3.897   1.580 -0.4516  0.9919  0.3859
  747SOL    HW2 3061   0.195   3.892   1.676  1.7674 -2.2473  0.3320
  747SOL    HW3 3062   0.285   3.927   1.559 -0.1236 -0.6715 -0.6957
  747SOL    MW4 3063   0.208   3.900   1.590 -0.1156  0.3450  0.2360
  748SOL     OW 3064   4.459   4.028   1.472  0.1490  0.1480  0.1604
  748SOL    HW2 3065   4.547   4.001   1.498  0.1291 -1.3379 -1.2244
  748SOL    HW3 3066   4.400   3.979   1.530  0.1623 -1.6108 -1.2571
  748SOL    MW4 3067   4.463   4.018   1.483  0.1483 -0.2799 -0.2095
  749SOL     OW 3068   0.011   4.256   1.607 -0.1232 -0.0680 -0.1602
  749SOL    HW2 3069  -0.020   4.173   1.572  0.8013 -1.0461  1.2699
  749SOL    HW3 3070  -0.025   4.261   1.695  0.7681  0.4923  0.1874
  749SOL    MW4 3071   0.002   4.246   1.614  0.1168 -0.1225  0.0744
  750SOL     OW 3072   0.246   4.384   1.514  0.4243  0.2186 -0.1564
  750SOL    HW2 3073   0.161   4.349   1.540  0.6925 -1.7843 -1.8243
  750SOL    HW3 3074   0.256   4.464   1.566 -1.7974 -0.3043  1.1516
  750SOL    MW4 3075   0.236   4.390   1.524  0.1666 -0.1144 -0.2040
  751SOL     OW 3076   0.679   4.626   1.575  0.2082 -0.1320 -0.0537
  751SOL    HW2 3077   0.762   4.665   1.546  0.5646 -1.0603 -0.3128
  751SOL    HW3 3078   0.677   4.640   1.669 -0.5489  2.1537 -0.3874
  751SOL    MW4 3079   0.690   4.633   1.583  0.1553  0.0467 -0.1318
  752SOL     OW 3080   0.443   0.147   1.515  0.0571  0.5612  0.3323
  752SOL    HW2 3081   0.444   0.238   1.544 -1.0162  0.7895 -0.3415
  752SOL    HW3 3082   0.513   0.105   1.566  1.1220  1.9428  0.0297
  752SOL    MW4 3083   0.453   0.153   1.525  0.0560  0.7736  0.2035
  753SOL     OW 3084   0.410   0.409   1.602  0.5518 -0.4750 -0.4552
  753SOL    HW2 3085   0.479   0.455   1.554 -0.2569 -0.9653 -2.1379
  753SOL    HW3 3086   0.329   0.439   1.560 -0.2711  0.1630  1.5509
  753SOL    MW4 3087   0.408   0.419   1.590  0.3365 -0.4555 -0.4125
  754SOL     OW 3088   0.641   0.491   1.454  0.6093 -0.2243  0.1286
  754SOL    HW2 3089   0.652   0.581   1.485  0.3121  0.5671 -1.9771
  754SOL    HW3 3090   0.647   0.498   1.358 -0.4566 -2.2865 -0.1097
  754SOL    MW4 3091   0.643   0.504   1.445  0.4295 -0.3920 -0.1807
  755SOL     OW 3092   0.638   0.735   1.589 -0.0181 -0.1780 -0.3083
  755SOL    HW2 3093   0.627   0.752   1.683  1.3114 -0.2898 -0.1151
  755SOL    HW3 3094   0.716   0.786   1.565 -0.5700  0.1497 -1.4364
  755SOL    MW4 3095   0.647   0.744   1.598  0.0845 -0.1495 -0.4317
  756SOL     OW 3096   0.409   0.854   1.470 -0.1903  0.2973 -0.0375
  756SOL    HW2 3097   0.409   0.938   1.515 -1.0207  0.9243 -1.1894
  756SOL    HW3 3098   0.493   0.814   1.494  0.1389  1.3750  0.6367
  756SOL    MW4 3099   0.420   0.860   1.479 -0.2564  0.5223 -0.1006
  757SOL     OW 3100   0.423   1.107   1.578  0.2638 -0.2266  0.3641
  757SOL    HW2 3101   0.495   1.158   1.542 -1.3914  2.6181  0.9630
  757SOL    HW3 3102   0.344   1.159   1.558 -1.2933 -1.6526  2.5898
  757SOL    MW4 3103   0.422   1.120   1.571 -0.1600 -0.0395  0.7368
  758SOL     OW 3104   0.639   1.263   1.506  0.0736 -0.3379 -0.3051
  758SOL    HW2 3105   0.641   1.356   1.527  0.2360 -0.4650  0.2381
  758SOL    HW3 3106   0.643   1.260   1.410  1.3830  0.1675 -0.2696
  758SOL    MW4 3107   0.640   1.275   1.496  0.2677 -0.2881 -0.2288
  759SOL     OW 3108   0.663   1.519   1.606 -0.1353  0.3810 -0.3928
  759SOL    HW2 3109   0.735   1.575   1.576 -0.0176  0.0668 -0.6996
  759SOL    HW3 3110   0.584   1.565   1.576 -0.1234  1.4098  1.1046
  759SOL    MW4 3111   0.662   1.533   1.598 -0.1182  0.4752 -0.2357
  760SOL     OW 3112   0.439   1.661   1.543  0.0116  0.1212 -0.0501
  760SOL    HW2 3113   0.419   1.752   1.561  0.5422 -0.0187  1.2462
  760SOL    HW3 3114   0.358   1.614   1.563 -0.0423  0.2161 -0.0475
  760SOL    MW4 3115   0.425   1.666   1.548  0.0745  0.1152  0.1212
  761SOL     OW 3116   0.421   1.937   1.603 -0.0850 -0.2306 -0.1872
  761SOL    HW2 3117   0.427   1.930   1.698 -0.1087 -0.4754 -0.2036
  761SOL    HW3 3118   0.337   1.981   1.588 -0.2660 -0.5476 -0.1083
  761SOL    MW4 3119   0.411   1.942   1.614 -0.1121 -0.3047 -0.1791
  762SOL     OW 3120   0.638   2.080   1.513 -0.3290 -0.1309  0.5689
  762SOL    HW2 3121   0.707   2.018   1.537 -0.5648 -0.4309  0.4604
  762SOL    HW3 3122   0.557   2.039   1.544 -0.3001  0.9448  2.1505
  762SOL    MW4 3123   0.636   2.066   1.520 -0.3563 -0.0286  0.7633
  763SOL     OW 3124   0.659   2.357   1.583  0.6983 -0.2502  0.3443
  763SOL    HW2 3125   0.568   2.384   1.572  0.9904  0.6436  0.1108
  763SOL    HW3 3126   0.662   2.268   1.548 -0.2032 -0.4752  0.8365
  763SOL    MW4 3127   0.647   2.349   1.577  0.6180 -0.1621  0.3785
  764SOL     OW 3128   0.392   2.449   1.508  0.2556  0.1464 -0.3557
  764SOL    HW2 3129   0.413   2.530   1.553 -0.1584  0.3435 -0.5097
  764SOL    HW3 3130   0.314   2.416   1.553 -0.1524  0.3376 -0.9114
  764SOL    MW4 3131   0.384   2.455   1.520  0.1471  0.1974 -0.4495
  765SOL     OW 3132   0.436   2.693   1.638  0.5129  0.1184  0.2300
  765SOL    HW2 3133   0.455   2.684   1.732  0.2010  0.9197  0.3732
  765SOL    HW3 3134   0.512   2.739   1.603  0.1961  0.6780  0.2681
  765SOL    MW4 3135   0.448   2.698   1.646  0.4300  0.2980  0.2539
  766SOL     OW 3136   0.666   2.821   1.540  0.1845 -0.2306  0.1644
  766SOL    HW2 3137   0.681   2.912   1.566 -0.0653  0.6085 -2.5028
  766SOL    HW3 3138   0.669   2.822   1.445 -0.4872 -2.9171  0.0675
  766SOL    MW4 3139   0.668   2.833   1.531  0.0628 -0.4745 -0.2003
  767SOL     OW 3140   0.667   3.090   1.603 -0.1804  0.3527 -0.0672
  767SOL    HW2 3141   0.745   3.127   1.562 -0.3421  1.8771  0.9753
  767SOL    HW3 3142   0.594   3.142   1.569 -0.6008 -0.1159  0.0989
  767SOL    MW4 3143   0.668   3.102   1.593 -0.2572  0.4921  0.0921
  768SOL     OW 3144   0.455   3.232   1.522  0.2221  0.1708  0.2345
  768SOL    HW2 3145   0.376   3.190   1.556  0.3491  0.1005  0.4430
  768SOL    HW3 3146   0.442   3.236   1.427 -0.2313  0.5691  0.3136
  768SOL    MW4 3147   0.443   3.227   1.514  0.1791  0.2146  0.2724
  769SOL     OW 3148   0.471   3.519   1.598  0.2607  0.0884 -0.0903
  769SOL    HW2 3149   0.459   3.428   1.572 -0.0063  0.3924 -1.0384
  769SOL    HW3 3150   0.386   3.561   1.580  0.5109  0.6196 -0.0401
  769SOL    MW4 3151   0.458   3.513   1.592  0.2584  0.1986 -0.2089
  770SOL     OW 3152   0.686   3.638   1.467 -0.3179  0.3329 -0.2704
  770SOL    HW2 3153   0.765   3.589   1.493  0.0468  0.8967 -0.3084
  770SOL    HW3 3154   0.615   3.595   1.515 -0.2035 -1.0801 -1.3252
  770SOL    MW4 3155   0.687   3.626   1.477 -0.2547  0.2208 -0.4145
  771SOL     OW 3156   0.701   3.877   1.596 -0.3581  0.3104 -0.5853
  771SOL    HW2 3157   0.781   3.915   1.559  0.9702 -0.8337  1.0359
  771SOL    HW3 3158   0.701   3.786   1.566 -0.8261  0.1749 -0.1828
  771SOL    MW4 3159   0.711   3.870   1.587 -0.2446  0.1416 -0.3183
  772SOL     OW 3160   0.456   3.974   1.503  0.2884 -0.5768  0.6356
  772SOL    HW2 3161   0.540   3.934   1.526 -0.8708 -2.8927  0.9858
  772SOL    HW3 3162   0.458   3.983   1.408  0.5937 -1.4562  0.5566
  772SOL    MW4 3163   0.467   3.970   1.494  0.1757 -0.9985  0.6713
  773SOL     OW 3164   0.466   4.240   1.595 -0.0162  0.5144 -0.8315
  773SOL    HW2 3165   0.455   4.148   1.570 -0.4273 -0.1695  1.6530
  773SOL    HW3 3166   0.386   4.283   1.566 -0.5743 -0.2892 -0.4952
  773SOL    MW4 3167   0.454   4.233   1.588 -0.1441  0.3176 -0.4594
  774SOL     OW 3168   0.683   4.362   1.452 -0.2797 -0.5579  0.0968
  774SOL    HW2 3169   0.610   4.314   1.491 -0.4094  0.0971  0.6739
  774SOL    HW3 3170   0.683   4.446   1.497 -0.2773  0.1222 -1.1588
  774SOL    MW4 3171   0.674   4.367   1.463 -0.2965 -0.3819  0.0074
  775SOL     OW 3172   1.139   0.008   1.620 -0.0866  0.2179  0.3130
  775SOL    HW2 3173   1.124   0.021   1.714 -0.3053  1.5797  0.0941
  775SOL    HW3 3174   1.224   0.049   1.603 -1.0217  1.8377 -0.4940
  775SOL    MW4 3175   1.149   0.015   1.630 -0.2388  0.6113  0.1775
  776SOL     OW 3176   0.906   0.099   1.490 -0.1851 -0.7857 -0.2194
  776SOL    HW2 3177   0.901   0.192   1.515 -0.8274 -1.2408  1.4347
  776SOL    HW3 3178   0.985   0.067   1.533  0.6424 -0.7746 -1.6845
  776SOL    MW4 3179   0.916   0.107   1.499 -0.1606 -0.8443 -0.1944
  777SOL     OW 3180   0.865   0.370   1.557 -0.0650 -0.2612 -0.5736
  777SOL    HW2 3181   0.853   0.380   1.651 -0.7009 -0.2372 -0.6559
  777SOL    HW3 3182   0.786   0.408   1.519  0.0623 -0.5285 -1.1067
  777SOL    MW4 3183   0.853   0.377   1.564 -0.1321 -0.2933 -0.6547
  778SOL     OW 3184   1.117   0.471   1.461 -0.0525 -0.0937 -0.2023
  778SOL    HW2 3185   1.145   0.561   1.478  0.4647 -0.2058 -0.4346
  778SOL    HW3 3186   1.031   0.464   1.502  0.3783  0.1855  0.7728
  778SOL    MW4 3187   1.110   0.482   1.469  0.0726 -0.0716 -0.1043
  779SOL     OW 3188   1.093   0.716   1.588  0.2012 -0.1699  0.1296
  779SOL    HW2 3189   1.076   0.707   1.682  1.4718 -0.5011  0.3354
  779SOL    HW3 3190   1.166   0.777   1.583  1.7288 -2.0187 -0.5239
  779SOL    MW4 3191   1.100   0.723   1.600  0.5704 -0.4576  0.0706
  780SOL     OW 3192   0.863   0.891   1.520  0.0756 -0.2625 -0.3659
  780SOL    HW2 3193   0.946   0.844   1.531 -0.0599 -0.4071  0.0347
  780SOL    HW3 3194   0.851   0.896   1.425 -0.0089 -1.2070 -0.4012
  780SOL    MW4 3195   0.872   0.886   1.508  0.0466 -0.4062 -0.3177
  781SOL     OW 3196   0.866   1.170   1.632  0.0946 -0.0374 -0.4086
  781SOL    HW2 3197   0.853   1.079   1.607 -1.2795  0.2151 -0.6792
  781SOL    HW3 3198   0.794   1.217   1.590 -0.1517  0.9346  1.0361
  781SOL    MW4 3199   0.855   1.165   1.623 -0.1191  0.1242 -0.2536
  782SOL     OW 3200   1.084   1.277   1.512  0.2402 -0.4467 -0.1222
  782SOL    HW2 3201   1.154   1.241   1.566 -0.1479  0.4176  0.9708
  782SOL    HW3 3202   1.003   1.244   1.552 -0.0620  0.5190  0.0820
  782SOL    MW4 3203   1.083   1.268   1.524  0.1491 -0.2053  0.0489
  783SOL     OW 3204   1.117   1.541   1.582 -0.1143 -0.8026  0.2356
  783SOL    HW2 3205   1.190   1.580   1.533 -1.3974 -0.7461 -1.7149
  783SOL    HW3 3206   1.124   1.447   1.566 -2.4554 -0.5352 -2.9494
  783SOL    MW4 3207   1.127   1.534   1.573 -0.5924 -0.7597 -0.4419
  784SOL     OW 3208   0.878   1.664   1.504 -0.2000 -0.0054  0.1379
  784SOL    HW2 3209   0.959   1.620   1.531 -0.1881  0.3183  0.6325
  784SOL    HW3 3210   0.866   1.638   1.413 -0.5696 -1.6039  0.6251
  784SOL    MW4 3211   0.887   1.654   1.496 -0.2472 -0.1737  0.2675
  785SOL     OW 3212   0.845   1.923   1.587  0.0803  0.2097  0.0086
  785SOL    HW2 3213   0.917   1.972   1.547 -0.0489 -0.2901 -0.8610
  785SOL    HW3 3214   0.844   1.840   1.540 -1.4269  0.4343 -0.3887
  785SOL    MW4 3215   0.854   1.919   1.575 -0.1356  0.1732 -0.1585
  786SOL     OW 3216   1.058   2.077   1.491  0.2497  0.1681  0.4526
  786SOL    HW2 3217   1.146   2.042   1.506  1.2334  1.9501 -0.8885
  786SOL    HW3 3218   1.061   2.166   1.527 -1.4519 -0.2545  1.6687
  786SOL    MW4 3219   1.070   2.085   1.498  0.1550  0.3474  0.4361
  787SOL     OW 3220   1.084   2.334   1.595 -0.3565  0.4467 -0.1595
  787SOL    HW2 3221   1.171   2.364   1.568  0.4840 -0.0552  1.9075
  787SOL    HW3 3222   1.023   2.387   1.544  1.1500  0.7881 -1.6578
  787SOL    MW4 3223   1.087   2.345   1.585 -0.0468  0.4253 -0.0845
  788SOL     OW 3224   0.886   2.472   1.473  0.0135 -0.2930  0.0294
  788SOL    HW2 3225   0.886   2.549   1.530  0.4536  0.0137 -0.3887
  788SOL    HW3 3226   0.802   2.429   1.491  0.3391 -0.4396  1.2429
  788SOL    MW4 3227   0.875   2.476   1.483  0.1146 -0.2718  0.1343
  789SOL     OW 3228   0.895   2.708   1.635 -0.4770 -0.5212  0.7166
  789SOL    HW2 3229   0.893   2.717   1.730 -0.6563  0.9740  0.5851
  789SOL    HW3 3230   0.816   2.753   1.604  0.6446  0.8689 -0.2455
  789SOL    MW4 3231   0.885   2.715   1.643 -0.3527 -0.1407  0.5724
  790SOL     OW 3232   1.121   2.813   1.484 -0.0212  0.1628  0.2672
  790SOL    HW2 3233   1.127   2.902   1.518 -0.1629  0.2160  0.1563
  790SOL    HW3 3234   1.039   2.778   1.520 -0.4631  0.4169 -0.4652
  790SOL    MW4 3235   1.111   2.820   1.493 -0.0983  0.2038  0.1560
  791SOL     OW 3236   1.127   3.075   1.600 -0.0667 -0.0809 -0.3313
  791SOL    HW2 3237   1.129   3.095   1.693 -0.5413 -1.3732 -0.0340
  791SOL    HW3 3238   1.205   3.119   1.565 -0.9484  2.0425  0.3127
  791SOL    MW4 3239   1.138   3.084   1.607 -0.2457  0.0286 -0.2071
  792SOL     OW 3240   0.918   3.233   1.495  0.3863 -0.4701 -0.1132
  792SOL    HW2 3241   0.994   3.183   1.524 -0.2471 -1.8175 -0.7388
  792SOL    HW3 3242   0.934   3.252   1.403 -0.6944 -2.0238 -0.6371
  792SOL    MW4 3243   0.930   3.229   1.487  0.1602 -0.8526 -0.2649
  793SOL     OW 3244   0.902   3.515   1.574  0.0774  0.0548 -0.2754
  793SOL    HW2 3245   0.972   3.564   1.532 -0.5378  0.7435 -0.4967
  793SOL    HW3 3246   0.925   3.423   1.560 -0.0658  0.2753 -2.0206
  793SOL    MW4 3247   0.914   3.509   1.567 -0.0226  0.1748 -0.5348
  794SOL     OW 3248   1.152   3.609   1.442 -0.0105  0.2767  0.4086
  794SOL    HW2 3249   1.228   3.559   1.470  1.1445  0.6933 -1.8589
  794SOL    HW3 3250   1.152   3.601   1.346 -1.9653  1.5015  0.2721
  794SOL    MW4 3251   1.162   3.602   1.433 -0.1160  0.4935  0.0913
  795SOL     OW 3252   1.166   3.880   1.545 -0.0795  0.2216 -0.0485
  795SOL    HW2 3253   1.253   3.918   1.534 -0.4007  1.2843  0.9575
  795SOL    HW3 3254   1.175   3.789   1.517  1.7757 -0.1656  1.7486
  795SOL    MW4 3255   1.178   3.873   1.540  0.1229  0.3104  0.3214
  796SOL     OW 3256   0.914   3.990   1.470 -0.5166  0.1573 -0.0365
  796SOL    HW2 3257   0.918   4.081   1.497 -0.9214  0.0795  0.2839
  796SOL    HW3 3258   1.004   3.957   1.482 -0.7331  0.0676  1.3881
  796SOL    MW4 3259   0.927   3.997   1.475 -0.5986  0.1349  0.1940
  797SOL     OW 3260   0.905   4.256   1.563 -0.4154 -0.2640  0.4190
  797SOL    HW2 3261   0.886   4.258   1.656  2.0484 -1.2675  0.9868
  797SOL    HW3 3262   0.831   4.300   1.522 -1.8855 -0.4850  2.7762
  797SOL    MW4 3263   0.893   4.262   1.570 -0.2843 -0.4258  0.8049
  798SOL     OW 3264   1.119   4.406   1.476  0.4131 -0.2097 -0.2572
  798SOL    HW2 3265   1.040   4.356   1.500 -1.8663  2.5402 -1.7071
  798SOL    HW3 3266   1.109   4.489   1.524  1.9660  0.5289 -1.2081
  798SOL    MW4 3267   1.107   4.410   1.486  0.3172  0.2499 -0.5740
  799SOL     OW 3268   1.592   4.629   1.597  0.3465 -0.2536 -0.1810
  799SOL    HW2 3269   1.588   4.641   1.692  2.1150 -0.3167 -0.0968
  799SOL    HW3 3270   1.509   4.667   1.565  0.7476  1.8253  1.1623
  799SOL    MW4 3271   1.580   4.635   1.605  0.6329  0.0129  0.0075
  800SOL     OW 3272   1.376   0.138   1.519  0.0005 -0.5537  0.0276
  800SOL    HW2 3273   1.386   0.230   1.544  0.0542 -0.8007  0.9280
  800SOL    HW3 3274   1.379   0.139   1.423 -0.2935  0.4153  0.0197
  800SOL    MW4 3275   1.377   0.150   1.509 -0.0314 -0.4585  0.1453
  801SOL     OW 3276   1.391   0.403   1.613 -0.0227 -0.2454 -0.6311
  801SOL    HW2 3277   1.451   0.468   1.576 -0.4003  0.8574  0.6299
  801SOL    HW3 3278   1.305   0.430   1.581 -0.0260 -0.9350 -1.2093
  801SOL    MW4 3279   1.387   0.415   1.604 -0.0731 -0.1908 -0.5409
  802SOL     OW 3280   1.557   0.573   1.445 -0.3214 -0.5912  0.1611
  802SOL    HW2 3281   1.629   0.516   1.473  1.1946  1.1949  0.0202
  802SOL    HW3 3282   1.548   0.556   1.351  1.8380  1.1939 -0.4055
  802SOL    MW4 3283   1.565   0.563   1.436  0.1634 -0.1200  0.0677
  803SOL     OW 3284   1.574   0.817   1.574  0.1791  0.2895 -0.4730
  803SOL    HW2 3285   1.552   0.805   1.667  1.4282 -0.3414 -0.2490
  803SOL    HW3 3286   1.578   0.728   1.539  1.2345  0.4465 -0.7645
  803SOL    MW4 3287   1.572   0.804   1.582  0.4833  0.2270 -0.4818
  804SOL     OW 3288   1.311   0.885   1.498  0.2637  0.0597 -0.3538
  804SOL    HW2 3289   1.405   0.874   1.515  0.2524  0.0338 -0.3067
  804SOL    HW3 3290   1.303   0.882   1.403  0.1898 -0.8768 -0.3216
  804SOL    MW4 3291   1.323   0.883   1.488  0.2525 -0.0673 -0.3434
  805SOL     OW 3292   1.342   1.152   1.603 -0.5860  0.1554  0.5739
  805SOL    HW2 3293   1.349   1.153   1.698  1.2177  1.1365  0.4581
  805SOL    HW3 3294   1.327   1.060   1.581  0.2016 -0.2545  1.7395
  805SOL    MW4 3295   1.341   1.140   1.612 -0.2441  0.2307  0.7124
  806SOL     OW 3296   1.553   1.277   1.459 -0.2726  0.0794  0.5084
  806SOL    HW2 3297   1.547   1.249   1.367 -0.2427 -0.6901  0.7374
  806SOL    HW3 3298   1.482   1.229   1.502  1.4529 -1.6869  1.4187
  806SOL    MW4 3299   1.543   1.267   1.452 -0.0409 -0.2552  0.6588
  807SOL     OW 3300   1.551   1.542   1.552  0.3032 -0.6570 -0.2208
  807SOL    HW2 3301   1.558   1.535   1.647  0.1037 -1.4630 -0.2600
  807SOL    HW3 3302   1.550   1.451   1.522 -1.1913 -0.4376 -0.8766
  807SOL    MW4 3303   1.552   1.529   1.561  0.0798 -0.7343 -0.3126
  808SOL     OW 3304   1.335   1.668   1.478  0.0087  0.4006 -0.3011
  808SOL    HW2 3305   1.421   1.631   1.499 -0.5531 -1.2729 -0.9170
  808SOL    HW3 3306   1.328   1.662   1.383 -0.5751  1.0105 -0.3025
  808SOL    MW4 3307   1.345   1.662   1.469 -0.1423  0.2602 -0.3825
  809SOL     OW 3308   1.308   1.950   1.575  0.1634 -0.3062 -0.6879
  809SOL    HW2 3309   1.303   1.952   1.671 -0.7591  0.4597 -0.7416
  809SOL    HW3 3310   1.299   1.858   1.552  0.7194 -0.5308 -0.0223
  809SOL    MW4 3311   1.307   1.938   1.585  0.1149 -0.2348 -0.6071
  810SOL     OW 3312   1.539   2.073   1.482  0.0167  0.2205 -0.4656
  810SOL    HW2 3313   1.456   2.039   1.515 -0.2958  1.4048 -0.0175
  810SOL    HW3 3314   1.527   2.078   1.387  0.0799 -0.9347 -0.5450
  810SOL    MW4 3315   1.526   2.069   1.474 -0.0162  0.2246 -0.4170
  811SOL     OW 3316   1.577   2.360   1.570 -0.4336  0.6703 -0.0763
  811SOL    HW2 3317   1.653   2.399   1.527 -0.0402  0.3123  0.2941
  811SOL    HW3 3318   1.577   2.269   1.542  0.0866  0.3162  1.0259
  811SOL    MW4 3319   1.587   2.353   1.561 -0.3132  0.5763  0.1179
  812SOL     OW 3320   1.328   2.448   1.508  0.3323  0.5286  0.3931
  812SOL    HW2 3321   1.324   2.535   1.548 -2.0038 -0.1560  1.7094
  812SOL    HW3 3322   1.412   2.412   1.536  0.9274  1.9982  0.5501
  812SOL    MW4 3323   1.339   2.455   1.517  0.1026  0.6323  0.5873
  813SOL     OW 3324   1.343   2.703   1.607  0.4434  0.0952  0.3181
  813SOL    HW2 3325   1.423   2.743   1.573 -0.2323  0.7361 -0.5289
  813SOL    HW3 3326   1.272   2.746   1.560 -0.3056 -2.2882 -0.8393
  813SOL    MW4 3327   1.344   2.714   1.596  0.2555 -0.1347  0.0538
  814SOL     OW 3328   1.564   2.822   1.498  0.0436 -0.1219 -0.0841
  814SOL    HW2 3329   1.648   2.784   1.524 -0.5237 -0.7641  0.8162
  814SOL    HW3 3330   1.564   2.817   1.402  2.0342  1.9996 -0.2624
  814SOL    MW4 3331   1.575   2.816   1.489  0.2313  0.0734  0.0111
  815SOL     OW 3332   1.599   3.075   1.615  0.0479  0.0466  0.6974
  815SOL    HW2 3333   1.671   3.112   1.564 -0.3880  0.8708  0.6813
  815SOL    HW3 3334   1.580   2.992   1.572  0.6003  0.0925  0.3540
  815SOL    MW4 3335   1.606   3.069   1.603  0.0633  0.1614  0.6499
  816SOL     OW 3336   1.353   3.174   1.491 -0.6650 -0.2608 -0.2225
  816SOL    HW2 3337   1.351   3.266   1.518 -1.2293 -0.4631  0.4369
  816SOL    HW3 3338   1.441   3.144   1.515 -1.0967 -0.3834  1.2320
  816SOL    MW4 3339   1.364   3.182   1.498 -0.7964 -0.3035  0.0564
  817SOL     OW 3340   1.356   3.437   1.559 -0.3643 -0.3636  0.0280
  817SOL    HW2 3341   1.333   3.448   1.651 -0.0149 -2.6432  0.3983
  817SOL    HW3 3342   1.441   3.480   1.550 -0.7307  0.5032  0.5798
  817SOL    MW4 3343   1.364   3.444   1.570 -0.3666 -0.5500  0.1497
  818SOL     OW 3344   1.587   3.602   1.528  0.0180 -0.0803 -0.3970
  818SOL    HW2 3345   1.567   3.691   1.558  1.0033 -0.1307  0.4183
  818SOL    HW3 3346   1.584   3.608   1.433 -1.7750  0.3981 -0.3379
  818SOL    MW4 3347   1.584   3.615   1.520 -0.0886 -0.0238 -0.2816
  819SOL     OW 3348   1.580   3.862   1.632 -0.2201 -0.6721  0.1850
  819SOL    HW2 3349   1.603   3.898   1.718  1.5936 -1.1212 -0.0859
  819SOL    HW3 3350   1.507   3.917   1.602  0.5280  0.8620  1.0836
  819SOL    MW4 3351   1.573   3.874   1.640  0.1180 -0.5288  0.2679
  820SOL     OW 3352   1.400   4.012   1.495 -0.1734  0.0305  0.4331
  820SOL    HW2 3353   1.377   4.098   1.532 -1.7613 -0.1480 -0.0756
  820SOL    HW3 3354   1.405   4.027   1.400  3.4978  0.4042  0.6153
  820SOL    MW4 3355   1.397   4.025   1.487  0.1016  0.0558  0.3901
  821SOL     OW 3356   1.324   4.246   1.597 -0.2469  0.0327 -0.5413
  821SOL    HW2 3357   1.410   4.287   1.590  0.0850 -0.4472  0.4751
  821SOL    HW3 3358   1.263   4.309   1.559  0.5696  0.3265 -1.3754
  821SOL    MW4 3359   1.327   4.259   1.591 -0.0954  0.0081 -0.5171
  822SOL     OW 3360   1.587   4.347   1.560 -0.3030 -0.4821 -0.1364
  822SOL    HW2 3361   1.668   4.299   1.575 -0.6045 -0.8334  0.3912
  822SOL    HW3 3362   1.611   4.439   1.573  0.3233 -0.4608 -1.3582
  822SOL    MW4 3363   1.601   4.353   1.564 -0.2601 -0.5260 -0.2280
  823SOL     OW 3364   1.940   4.644   1.578  0.6265 -0.3842 -0.4462
  823SOL    HW2 3365   1.952   4.640   1.673  0.7836 -0.1602 -0.4572
  823SOL    HW3 3366   1.878   4.716   1.565  0.3794 -0.6047 -0.4931
  823SOL    MW4 3367   1.933   4.653   1.589  0.6146 -0.3834 -0.4538
  824SOL     OW 3368   1.754   0.169   1.512 -0.2411  0.5635  0.2001
  824SOL    HW2 3369   1.691   0.105   1.546  1.7465 -1.5142  0.0811
  824SOL    HW3 3370   1.771   0.141   1.422 -0.0241  1.8210 -0.1709
  824SOL    MW4 3371   1.748   0.157   1.504  0.0498  0.4553  0.1355
  825SOL     OW 3372   1.771   0.449   1.599  0.3563  0.0006 -0.1208
  825SOL    HW2 3373   1.851   0.474   1.554  0.0359  0.6038 -0.3545
  825SOL    HW3 3374   1.769   0.353   1.592  0.1794  0.1035 -1.6002
  825SOL    MW4 3375   1.781   0.440   1.592  0.2906  0.0938 -0.3468
  826SOL     OW 3376   2.007   0.526   1.493 -0.2154 -0.1060 -0.4352
  826SOL    HW2 3377   2.093   0.487   1.510 -0.4688 -0.4204  0.0884
  826SOL    HW3 3378   2.011   0.612   1.535 -0.5105 -0.5129  0.4208
  826SOL    MW4 3379   2.019   0.532   1.501 -0.2878 -0.2011 -0.2531
  827SOL     OW 3380   2.015   0.803   1.582  0.1182  0.6205  0.1489
  827SOL    HW2 3381   2.098   0.821   1.539 -0.1900  0.6963 -0.4159
  827SOL    HW3 3382   1.951   0.858   1.536 -0.4089 -0.1294 -0.0330
  827SOL    MW4 3383   2.017   0.813   1.570  0.0081  0.5316  0.0503
  828SOL     OW 3384   1.811   0.962   1.489  1.0102 -0.5607  0.0082
  828SOL    HW2 3385   1.817   1.050   1.527  0.1172  0.3908 -1.9641
  828SOL    HW3 3386   1.734   0.924   1.532  1.0502 -0.1535  0.4503
  828SOL    MW4 3387   1.801   0.969   1.500  0.8975 -0.3814 -0.1936
  829SOL     OW 3388   1.788   1.213   1.587 -0.2203 -0.1913 -0.0755
  829SOL    HW2 3389   1.773   1.199   1.680 -1.3187  0.9670 -0.0586
  829SOL    HW3 3390   1.701   1.233   1.552  0.1240 -0.9645 -1.4129
  829SOL    MW4 3391   1.774   1.213   1.594 -0.3197 -0.1403 -0.2496
  830SOL     OW 3392   2.026   1.326   1.510 -0.1343 -0.2552  0.1872
  830SOL    HW2 3393   2.043   1.412   1.550  1.3445 -0.5484  0.2229
  830SOL    HW3 3394   1.939   1.302   1.540 -0.4740  1.1501  0.3509
  830SOL    MW4 3395   2.017   1.334   1.519  0.0160 -0.1085  0.2135
  831SOL     OW 3396   2.045   1.581   1.608  0.5357 -0.6223  0.3089
  831SOL    HW2 3397   2.099   1.629   1.545  0.6456  0.1674  0.9971
  831SOL    HW3 3398   1.955   1.601   1.583  0.5817 -0.0416  0.5995
  831SOL    MW4 3399   2.040   1.590   1.597  0.5562 -0.4414  0.4382
  832SOL     OW 3400   1.802   1.650   1.493 -0.2229  0.1577 -0.0347
  832SOL    HW2 3401   1.723   1.602   1.517  0.3809 -0.1725  1.3482
  832SOL    HW3 3402   1.805   1.645   1.397  0.1761 -3.1493  0.1014
  832SOL    MW4 3403   1.792   1.643   1.483 -0.0906 -0.3222  0.1655
  833SOL     OW 3404   1.792   1.928   1.529 -0.4362 -0.6376  0.0341
  833SOL    HW2 3405   1.780   1.835   1.510 -2.6202 -0.7252  1.6526
  833SOL    HW3 3406   1.713   1.970   1.496  1.0677  0.8755 -1.8098
  833SOL    MW4 3407   1.780   1.921   1.522 -0.5260 -0.4495  0.0044
  834SOL     OW 3408   2.034   2.090   1.501 -0.5272  0.1791 -0.8760
  834SOL    HW2 3409   2.107   2.034   1.528 -0.9406 -0.4338 -1.0256
  834SOL    HW3 3410   1.957   2.033   1.505 -1.2040  1.1720  0.5170
  834SOL    MW4 3411   2.033   2.075   1.505 -0.6709  0.2291 -0.7119
  835SOL     OW 3412   2.003   2.345   1.574  0.2296  0.1320  0.3169
  835SOL    HW2 3413   1.984   2.366   1.666 -1.3199  0.0969  0.0217
  835SOL    HW3 3414   2.011   2.250   1.572  0.2878  0.1344  0.4129
  835SOL    MW4 3415   2.002   2.335   1.586  0.0329  0.1276  0.2906
  836SOL     OW 3416   1.796   2.467   1.442  0.3182  0.0290  0.0027
  836SOL    HW2 3417   1.877   2.427   1.474  0.6324  0.4352 -0.2831
  836SOL    HW3 3418   1.808   2.470   1.347  0.0056  0.1753 -0.0312
  836SOL    MW4 3419   1.809   2.462   1.433  0.3183  0.1020 -0.0393
  837SOL     OW 3420   1.806   2.723   1.559  0.1207 -0.1098 -0.5081
  837SOL    HW2 3421   1.887   2.759   1.524  0.1516 -0.6391 -0.9860
  837SOL    HW3 3422   1.806   2.632   1.531  0.1179 -0.5305  0.8255
  837SOL    MW4 3423   1.816   2.716   1.551  0.1245 -0.2351 -0.3952
  838SOL     OW 3424   2.041   2.844   1.483 -0.2397  0.1605  0.0488
  838SOL    HW2 3425   2.053   2.936   1.507 -2.8140  0.4775  0.2997
  838SOL    HW3 3426   2.023   2.845   1.389 -0.6581 -0.0404  0.1249
  838SOL    MW4 3427   2.040   2.857   1.474 -0.6344  0.1757  0.0919
  839SOL     OW 3428   2.071   3.098   1.569 -0.3609  0.0602 -0.2547
  839SOL    HW2 3429   2.063   3.108   1.664 -0.4909  0.1194 -0.2708
  839SOL    HW3 3430   2.148   3.149   1.546  0.1267 -0.5993 -0.0807
  839SOL    MW4 3431   2.080   3.106   1.578 -0.3138 -0.0191 -0.2339
  840SOL     OW 3432   1.814   3.195   1.500  0.0277  0.8798  0.1360
  840SOL    HW2 3433   1.813   3.284   1.535  0.5836  1.0775 -0.3444
  840SOL    HW3 3434   1.895   3.157   1.534 -1.1277 -0.0713  1.8875
  840SOL    MW4 3435   1.824   3.201   1.509 -0.0514  0.7806  0.3037
  841SOL     OW 3436   1.809   3.449   1.603 -0.1702 -0.4017 -0.0089
  841SOL    HW2 3437   1.812   3.454   1.699  0.4353  1.2009 -0.1040
  841SOL    HW3 3438   1.725   3.489   1.580 -0.1607 -0.4771 -0.1727
  841SOL    MW4 3439   1.798   3.455   1.613 -0.0892 -0.1998 -0.0429
  842SOL     OW 3440   2.011   3.597   1.460 -0.4249  0.1003  0.3595
  842SOL    HW2 3441   1.998   3.688   1.488 -1.5744 -0.3035  1.1924
  842SOL    HW3 3442   1.950   3.547   1.514  0.3094 -1.1878  0.0056
  842SOL    MW4 3443   2.001   3.603   1.471 -0.4797 -0.1228  0.4226
  843SOL     OW 3444   2.009   3.854   1.550 -0.2690  0.2341 -0.2286
  843SOL    HW2 3445   2.089   3.903   1.528  0.6336 -1.1679 -0.1652
  843SOL    HW3 3446   2.007   3.855   1.645 -0.3744  0.3270 -0.2315
  843SOL    MW4 3447   2.020   3.861   1.559 -0.1638  0.0615 -0.2207
  844SOL     OW 3448   1.775   3.980   1.481 -0.7177 -0.0598  0.5162
  844SOL    HW2 3449   1.853   3.929   1.503 -0.0321  0.1663 -1.2961
  844SOL    HW3 3450   1.702   3.926   1.510  0.0895 -0.3466  2.0904
  844SOL    MW4 3451   1.775   3.966   1.488 -0.5207 -0.0677  0.4848
  845SOL     OW 3452   1.830   4.224   1.587 -0.6721  0.2122  0.2090
  845SOL    HW2 3453   1.900   4.268   1.539 -1.3899  2.2494  0.9494
  845SOL    HW3 3454   1.831   4.134   1.555  0.4498  0.9212 -1.8162
  845SOL    MW4 3455   1.839   4.218   1.576 -0.6189  0.5741  0.0395
  846SOL     OW 3456   1.988   4.391   1.436 -0.3953  0.4384  0.4744
  846SOL    HW2 3457   2.071   4.369   1.478 -0.3389  0.0610  0.1716
  846SOL    HW3 3458   1.950   4.459   1.492 -0.6314 -0.5362  1.5144
  846SOL    MW4 3459   1.994   4.397   1.449 -0.4190  0.2599  0.5717
  847SOL     OW 3460   2.406   0.017   1.569  0.2211 -0.7326 -0.2155
  847SOL    HW2 3461   2.401   0.024   1.665  0.6428 -1.1729 -0.1568
  847SOL    HW3 3462   2.322   0.050   1.538  0.5181  0.4808  0.2442
  847SOL    MW4 3463   2.394   0.022   1.578  0.3161 -0.6306 -0.1471
  848SOL     OW 3464   2.159   0.112   1.473 -0.1303  0.5616 -0.5396
  848SOL    HW2 3465   2.077   0.070   1.497  0.7328 -0.8441 -0.0045
  848SOL    HW3 3466   2.166   0.098   1.379 -0.5839  0.8298 -0.6149
  848SOL    MW4 3467   2.149   0.105   1.464 -0.0763  0.4115 -0.4789
  849SOL     OW 3468   2.246   0.377   1.554  0.1629  0.1990  0.1707
  849SOL    HW2 3469   2.243   0.376   1.650  0.6306 -0.7649  0.1736
  849SOL    HW3 3470   2.223   0.288   1.528  2.2264 -0.1523 -0.5509
  849SOL    MW4 3471   2.242   0.365   1.563  0.4966  0.0255  0.0757
  850SOL     OW 3472   2.492   0.484   1.459  0.6295  0.3340  0.5906
  850SOL    HW2 3473   2.559   0.435   1.506  0.1419  0.4501  1.4230
  850SOL    HW3 3474   2.409   0.454   1.497  0.3067  1.4728  0.8006
  850SOL    MW4 3475   2.490   0.474   1.470  0.5224  0.4995  0.7281
  851SOL     OW 3476   2.504   0.735   1.560  0.3523  0.6068 -0.3126
  851SOL    HW2 3477   2.421   0.781   1.549  0.4396  0.4715 -1.5210
  851SOL    HW3 3478   2.489   0.648   1.523  0.8055  0.3292  0.1434
  851SOL    MW4 3479   2.491   0.730   1.554  0.4239  0.5524 -0.4119
  852SOL     OW 3480   2.279   0.894   1.533 -0.0229  0.0990  0.8474
  852SOL    HW2 3481   2.273   0.986   1.559 -1.3164 -0.0896  1.2361
  852SOL    HW3 3482   2.274   0.896   1.438 -0.3197  0.4127  0.8675
  852SOL    MW4 3483   2.278   0.906   1.524 -0.2327  0.1155  0.9012
  853SOL     OW 3484   2.253   1.165   1.590  0.1716  0.2163 -0.1399
  853SOL    HW2 3485   2.247   1.155   1.685 -0.3393  0.9893 -0.0854
  853SOL    HW3 3486   2.167   1.196   1.564 -0.0951 -1.2458 -1.0315
  853SOL    MW4 3487   2.241   1.168   1.599  0.0689  0.1255 -0.2503
  854SOL     OW 3488   2.469   1.309   1.518  0.0610  0.2575  0.1011
  854SOL    HW2 3489   2.394   1.259   1.550  1.3829 -1.4408  0.5957
  854SOL    HW3 3490   2.465   1.300   1.423 -0.4997  0.4081  0.1055
  854SOL    MW4 3491   2.459   1.301   1.510  0.1619  0.0534  0.1669
  855SOL     OW 3492   2.454   1.589   1.617  0.0158  0.2541  0.0526
  855SOL    HW2 3493   2.531   1.625   1.573  0.2556  1.6710  1.5634
  855SOL    HW3 3494   2.452   1.497   1.592  3.1017 -0.1829  1.2143
  855SOL    MW4 3495   2.464   1.582   1.608  0.4544  0.3835  0.4053
  856SOL     OW 3496   2.247   1.708   1.472  0.0573  0.1052  0.0419
  856SOL    HW2 3497   2.251   1.693   1.378 -0.2179 -0.2006  0.0782
  856SOL    HW3 3498   2.321   1.657   1.507  0.3465  0.4668 -0.0385
  856SOL    MW4 3499   2.258   1.699   1.464  0.0594  0.1124  0.0361
  857SOL     OW 3500   2.251   1.953   1.609 -0.3295 -0.0143 -0.2285
  857SOL    HW2 3501   2.241   1.945   1.704 -1.0333 -2.7703 -0.4733
  857SOL    HW3 3502   2.257   1.862   1.578  0.7010  0.8617 -2.7333
  857SOL    MW4 3503   2.250   1.940   1.617 -0.2866 -0.2623 -0.5914
  858SOL     OW 3504   2.494   2.074   1.511 -0.3541 -0.5415 -0.1009
  858SOL    HW2 3505   2.417   2.026   1.543 -1.6780  2.2910  1.0914
  858SOL    HW3 3506   2.482   2.076   1.416 -1.1914 -1.0640 -0.0184
  858SOL    MW4 3507   2.482   2.068   1.503 -0.6390 -0.2370  0.0674
  859SOL     OW 3508   2.470   2.347   1.575  0.2830  0.0888  0.4661
  859SOL    HW2 3509   2.491   2.344   1.669  2.0589  0.0102  0.0819
  859SOL    HW3 3510   2.472   2.255   1.548 -0.3393  0.1025  0.3575
  859SOL    MW4 3511   2.473   2.334   1.584  0.4354  0.0799  0.4011
  860SOL     OW 3512   2.251   2.465   1.441  0.2620 -0.0897 -0.2828
  860SOL    HW2 3513   2.332   2.427   1.473 -0.5791 -1.4514  0.2407
  860SOL    HW3 3514   2.182   2.426   1.494 -0.8120  0.4967 -1.2048
  860SOL    MW4 3515   2.253   2.455   1.452  0.0093 -0.1924 -0.3355
  861SOL     OW 3516   2.267   2.710   1.569 -0.0626 -0.1028 -0.5029
  861SOL    HW2 3517   2.251   2.625   1.528  0.3016 -1.5391  2.1823
  861SOL    HW3 3518   2.192   2.764   1.543 -0.1508 -1.1450 -2.4866
  861SOL    MW4 3519   2.255   2.706   1.560 -0.0262 -0.4299 -0.4103
  862SOL     OW 3520   2.492   2.858   1.438  0.0678 -0.0412  0.1059
  862SOL    HW2 3521   2.506   2.939   1.487 -1.8343 -0.5598  1.5948
  862SOL    HW3 3522   2.407   2.826   1.470 -0.7002 -0.9847 -2.7389
  862SOL    MW4 3523   2.482   2.865   1.449 -0.2844 -0.2339 -0.0730
  863SOL     OW 3524   2.495   3.092   1.608  0.0308 -0.0829  0.1196
  863SOL    HW2 3525   2.578   3.136   1.592 -0.0440 -0.0617 -0.2132
  863SOL    HW3 3526   2.432   3.137   1.552  0.1554 -1.2664 -0.9934
  863SOL    MW4 3527   2.498   3.103   1.598  0.0372 -0.2360 -0.0712
  864SOL     OW 3528   2.281   3.232   1.484 -0.3393 -0.1613 -0.1678
  864SOL    HW2 3529   2.271   3.319   1.524 -2.3048 -0.4212 -0.0566
  864SOL    HW3 3530   2.275   3.248   1.390 -1.8734 -0.3109 -0.1032
  864SOL    MW4 3531   2.279   3.246   1.477 -0.8011 -0.2153 -0.1446
  865SOL     OW 3532   2.249   3.521   1.576 -0.2813 -0.0714  0.5369
  865SOL    HW2 3533   2.233   3.518   1.671 -2.3162  3.3506  0.4075
  865SOL    HW3 3534   2.167   3.556   1.540  0.9428 -0.0824 -2.3315
  865SOL    MW4 3535   2.236   3.525   1.584 -0.3884  0.3786  0.1413
  866SOL     OW 3536   2.472   3.630   1.477  0.3058 -0.3282  0.7204
  866SOL    HW2 3537   2.535   3.593   1.539 -1.4574 -1.2035  2.0448
  866SOL    HW3 3538   2.387   3.597   1.507 -0.7396  0.4234 -1.3151
  866SOL    MW4 3539   2.469   3.621   1.489 -0.0651 -0.3445  0.6266
  867SOL     OW 3540   2.480   3.888   1.548  0.4488  0.5879  0.0581
  867SOL    HW2 3541   2.461   3.881   1.641 -0.5356  1.1911 -0.0844
  867SOL    HW3 3542   2.482   3.797   1.517  0.3496  0.4030  0.5859
  867SOL    MW4 3543   2.478   3.875   1.556  0.3061  0.6433  0.1090
  868SOL     OW 3544   2.239   3.994   1.465 -0.5111 -0.1181  0.5800
  868SOL    HW2 3545   2.320   3.957   1.500  1.0040  1.4728 -1.1216
  868SOL    HW3 3546   2.233   3.957   1.377 -0.8392  0.9211  0.1647
  868SOL    MW4 3547   2.249   3.984   1.458 -0.3545  0.2291  0.3005
  869SOL     OW 3548   2.237   4.280   1.533 -0.2703 -0.0849 -0.2379
  869SOL    HW2 3549   2.322   4.313   1.503  0.2777 -0.7228  0.6098
  869SOL    HW3 3550   2.233   4.191   1.499 -0.4033 -0.2176  0.1354
  869SOL    MW4 3551   2.248   4.273   1.524 -0.2158 -0.1864 -0.0769
  870SOL     OW 3552   2.497   4.430   1.501 -0.1623 -0.3744 -0.2401
  870SOL    HW2 3553   2.466   4.520   1.512 -0.7283 -0.5881 -0.0911
  870SOL    HW3 3554   2.520   4.424   1.409  1.1362  0.3218  0.0205
  870SOL    MW4 3555   2.496   4.441   1.490 -0.0656 -0.3109 -0.1861
  871SOL     OW 3556   2.888   4.645   1.577  0.0051 -0.0376 -0.0580
  871SOL    HW2 3557   2.878   4.653   1.672  0.2154 -0.9031  0.0323
  871SOL    HW3 3558   2.816   4.697   1.541  0.9228  1.7348  0.5526
  871SOL    MW4 3559   2.877   4.653   1.585  0.1540  0.0825  0.0346
  872SOL     OW 3560   2.648   0.106   1.495  0.1705 -0.2653 -0.2071
  872SOL    HW2 3561   2.558   0.100   1.525 -0.1585  2.0831 -0.5729
  872SOL    HW3 3562   2.677   0.193   1.525  0.6740  1.1154 -4.3095
  872SOL    MW4 3563   2.640   0.117   1.503  0.1934  0.2267 -0.7966
  873SOL     OW 3564   2.687   0.350   1.588  0.0925 -0.1175 -0.4838
  873SOL    HW2 3565   2.682   0.377   1.680 -1.2317 -0.0825 -0.5504
  873SOL    HW3 3566   2.760   0.401   1.552  0.1184  0.4550  0.3514
  873SOL    MW4 3567   2.696   0.361   1.596 -0.0787 -0.0373 -0.3824
  874SOL     OW 3568   2.914   0.493   1.500 -0.4048 -0.4081  0.1023
  874SOL    HW2 3569   2.912   0.584   1.530  0.0372 -0.5622  0.6148
  874SOL    HW3 3570   2.919   0.499   1.405  1.2691  0.1294  0.2130
  874SOL    MW4 3571   2.914   0.506   1.491 -0.1256 -0.3576  0.1845
  875SOL     OW 3572   2.914   0.775   1.573  0.5005 -0.2480  0.3835
  875SOL    HW2 3573   2.911   0.768   1.669  0.7595 -0.0337  0.4059
  875SOL    HW3 3574   2.837   0.827   1.550 -0.3205 -1.4524  0.3715
  875SOL    MW4 3575   2.903   0.781   1.583  0.4263 -0.3786  0.3849
  876SOL     OW 3576   2.677   0.923   1.491  0.3206 -0.0934 -0.1030
  876SOL    HW2 3577   2.609   0.860   1.514  0.6077 -0.4397 -0.1904
  876SOL    HW3 3578   2.675   0.927   1.395  0.8854 -0.6336 -0.1468
  876SOL    MW4 3579   2.668   0.915   1.481  0.4330 -0.2105 -0.1203
  877SOL     OW 3580   2.684   1.174   1.613 -0.1407  0.2262 -0.3911
  877SOL    HW2 3581   2.679   1.087   1.571  1.4354  0.3921 -0.9621
  877SOL    HW3 3582   2.606   1.220   1.581 -0.8108 -0.8581 -0.3629
  877SOL    MW4 3583   2.673   1.168   1.603 -0.0210  0.1051 -0.4627
  878SOL     OW 3584   2.906   1.282   1.481  0.3542  0.1879  0.0908
  878SOL    HW2 3585   2.986   1.243   1.516  0.6042  0.2104 -0.4481
  878SOL    HW3 3586   2.835   1.233   1.524  0.6535  0.1390  0.5366
  878SOL    MW4 3587   2.907   1.270   1.491  0.4270  0.1844  0.0784
  879SOL     OW 3588   2.915   1.549   1.572 -0.0057 -0.4309 -0.1786
  879SOL    HW2 3589   2.826   1.580   1.556 -0.4749 -0.4483  2.2701
  879SOL    HW3 3590   2.915   1.458   1.542 -1.2729 -0.9241  1.2886
  879SOL    MW4 3591   2.903   1.541   1.566 -0.2346 -0.4983  0.3381
  880SOL     OW 3592   2.675   1.684   1.476  0.1838  0.3602 -0.4712
  880SOL    HW2 3593   2.708   1.771   1.500  0.6875 -0.3111  1.3381
  880SOL    HW3 3594   2.660   1.689   1.382  2.2460  1.7331 -0.7392
  880SOL    MW4 3595   2.677   1.696   1.467  0.5221  0.4528 -0.2677
  881SOL     OW 3596   2.729   1.946   1.584 -0.2361  0.3431 -0.3145
  881SOL    HW2 3597   2.724   1.934   1.679  1.6901  0.0226 -0.2344
  881SOL    HW3 3598   2.646   1.986   1.561 -0.7521  0.3773  1.5058
  881SOL    MW4 3599   2.718   1.949   1.593 -0.0498  0.3053 -0.0638
  882SOL     OW 3600   2.936   2.094   1.459  0.2607 -0.2043 -0.3338
  882SOL    HW2 3601   2.934   2.180   1.502 -1.3493  0.7286 -2.2232
  882SOL    HW3 3602   2.865   2.045   1.501 -0.6576  0.3613 -1.2173
  882SOL    MW4 3603   2.927   2.099   1.470 -0.0730 -0.0064 -0.6996
  883SOL     OW 3604   2.967   2.326   1.606 -0.0285 -0.0489 -0.0001
  883SOL    HW2 3605   2.970   2.305   1.699 -0.4821 -1.4286 -0.2841
  883SOL    HW3 3606   2.882   2.368   1.593  0.3647  0.8575  0.3488
  883SOL    MW4 3607   2.956   2.329   1.616 -0.0365 -0.1113  0.0085
  884SOL     OW 3608   2.731   2.422   1.490  0.0006  0.4541  0.2046
  884SOL    HW2 3609   2.740   2.517   1.500 -0.2349  0.5933 -0.9023
  884SOL    HW3 3610   2.637   2.406   1.498  0.0790  0.2587  0.7861
  884SOL    MW4 3611   2.720   2.433   1.492 -0.0198  0.4466  0.1352
  885SOL     OW 3612   2.699   2.703   1.540  0.2456  0.2571  0.1297
  885SOL    HW2 3613   2.772   2.753   1.503 -0.2105  0.1919 -0.8829
  885SOL    HW3 3614   2.621   2.749   1.509 -0.1409  0.9026  2.0104
  885SOL    MW4 3615   2.698   2.716   1.531  0.1342  0.3338  0.2443
  886SOL     OW 3616   2.937   2.833   1.463  0.0595  0.6455  0.4263
  886SOL    HW2 3617   3.007   2.792   1.514 -0.8682  0.3652  1.5069
  886SOL    HW3 3618   2.930   2.922   1.500 -1.4495  0.0376  1.6649
  886SOL    MW4 3619   2.945   2.840   1.475 -0.2620  0.5283  0.7324
  887SOL     OW 3620   2.962   3.078   1.575 -0.4699 -0.0741  0.0301
  887SOL    HW2 3621   2.960   3.082   1.671 -1.2410  1.7057 -0.0530
  887SOL    HW3 3622   3.049   3.111   1.552 -0.6167  0.3484  0.0785
  887SOL    MW4 3623   2.973   3.083   1.584 -0.5910  0.2162  0.0256
  888SOL     OW 3624   2.730   3.232   1.503  0.2518 -0.6193 -0.1444
  888SOL    HW2 3625   2.814   3.188   1.521 -0.2049 -1.4068  0.1099
  888SOL    HW3 3626   2.713   3.216   1.411  0.6057 -0.0666 -0.3057
  888SOL    MW4 3627   2.739   3.224   1.494  0.2384 -0.6502 -0.1321
  889SOL     OW 3628   2.698   3.488   1.598 -0.1829  0.0944  0.0746
  889SOL    HW2 3629   2.668   3.482   1.689 -0.6333  1.2213  0.0115
  889SOL    HW3 3630   2.705   3.397   1.569  0.0464 -0.2736  1.2635
  889SOL    MW4 3631   2.695   3.475   1.606 -0.2120  0.1945  0.2232
  890SOL     OW 3632   2.915   3.599   1.495  0.5599  0.0712 -0.0300
  890SOL    HW2 3633   2.835   3.563   1.533  1.0340  0.2384  1.1213
  890SOL    HW3 3634   2.915   3.691   1.521  1.4318 -0.0675  0.4725
  890SOL    MW4 3635   2.904   3.607   1.503  0.7374  0.0751  0.1881
  891SOL     OW 3636   2.935   3.869   1.573 -0.2035 -0.5792  0.2081
  891SOL    HW2 3637   2.860   3.916   1.535 -0.5857 -1.6982 -0.4479
  891SOL    HW3 3638   3.010   3.899   1.522 -0.2353  0.3269  0.6758
  891SOL    MW4 3639   2.935   3.880   1.561 -0.2582 -0.6075  0.1833
  892SOL     OW 3640   2.722   4.005   1.453 -0.0112  0.1352 -0.1709
  892SOL    HW2 3641   2.724   4.097   1.479  0.2823 -0.2368  1.1640
  892SOL    HW3 3642   2.640   3.971   1.490  0.5911 -0.4950  0.6197
  892SOL    MW4 3643   2.711   4.012   1.461  0.1070  0.0029  0.1096
  893SOL     OW 3644   2.659   4.244   1.578 -0.2799 -0.1133  0.0538
  893SOL    HW2 3645   2.744   4.285   1.556  0.3740 -1.4219  0.0989
  893SOL    HW3 3646   2.597   4.317   1.574  0.8383  0.8748  0.0064
  893SOL    MW4 3647   2.662   4.259   1.574 -0.0463 -0.1554  0.0535
  894SOL     OW 3648   2.903   4.363   1.501 -0.0120  0.8564 -0.6898
  894SOL    HW2 3649   2.912   4.453   1.530 -2.2240  1.5329 -1.9301
  894SOL    HW3 3650   2.902   4.368   1.405  0.0297 -0.4950 -0.7761
  894SOL    MW4 3651   2.904   4.375   1.492 -0.2985  0.7668 -0.8649
  895SOL     OW 3652   3.321   4.660   1.602  0.7629  0.3978  0.4062
  895SOL    HW2 3653   3.390   4.712   1.561  0.5795 -1.0326 -1.8109
  895SOL    HW3 3654   3.332   4.572   1.565 -0.3246 -0.6128  2.3783
  895SOL    MW4 3655   3.332   4.655   1.592  0.5951  0.0758  0.3738
  896SOL     OW 3656   3.103   0.107   1.484  0.1045 -0.5581 -0.4999
  896SOL    HW2 3657   3.186   0.075   1.520  0.1539 -1.6226 -1.5189
  896SOL    HW3 3658   3.036   0.051   1.523 -0.1500  0.2617  0.2759
  896SOL    MW4 3659   3.105   0.096   1.494  0.0775 -0.5904 -0.5322
  897SOL     OW 3660   3.131   0.365   1.597 -0.3224 -0.7892  0.2958
  897SOL    HW2 3661   3.113   0.281   1.554  1.5714 -1.3313  0.5437
  897SOL    HW3 3662   3.058   0.421   1.570 -0.7367 -2.0167 -1.2109
  897SOL    MW4 3663   3.119   0.362   1.588 -0.1271 -1.0227  0.1297
  898SOL     OW 3664   3.345   0.740   1.580 -0.0140 -0.2562 -0.2538
  898SOL    HW2 3665   3.348   0.738   1.676 -1.7224 -0.6685 -0.1868
  898SOL    HW3 3666   3.347   0.648   1.554  1.5176 -0.1221 -0.6796
  898SOL    MW4 3667   3.346   0.727   1.589 -0.0370 -0.2930 -0.3012
  899SOL     OW 3668   3.556   0.909   1.506  0.1621  0.0598  0.3155
  899SOL    HW2 3669   3.501   0.836   1.534 -0.1008  0.1843  0.1257
  899SOL    HW3 3670   3.544   0.913   1.411 -1.0618  1.3528  0.5117
  899SOL    MW4 3671   3.547   0.900   1.497 -0.0343  0.2468  0.3164
  900SOL     OW 3672   3.122   0.885   1.456  0.1404 -0.3338  0.0508
  900SOL    HW2 3673   3.199   0.846   1.497  1.5306 -0.0582 -2.2171
  900SOL    HW3 3674   3.049   0.851   1.507  1.8274  0.8456  3.4286
  900SOL    MW4 3675   3.123   0.875   1.468  0.5465 -0.1417  0.1972
  901SOL     OW 3676   3.121   1.132   1.588 -0.5129  0.1548 -0.2667
  901SOL    HW2 3677   3.088   1.105   1.674 -2.0238  0.2284 -0.7999
  901SOL    HW3 3678   3.117   1.053   1.535  1.0562 -0.0451 -0.0836
  901SOL    MW4 3679   3.116   1.118   1.592 -0.5054  0.1380 -0.3128
  902SOL     OW 3680   3.352   1.279   1.487 -0.4007 -0.3810  0.0197
  902SOL    HW2 3681   3.431   1.236   1.521 -1.1073 -0.6166  1.4401
  902SOL    HW3 3682   3.282   1.216   1.506 -0.7843 -0.6688 -2.2491
  902SOL    MW4 3683   3.354   1.265   1.494 -0.5445 -0.4501 -0.0923
  903SOL     OW 3684   3.297   1.522   1.641  0.8826  0.3952  0.0166
  903SOL    HW2 3685   3.293   1.504   1.735 -1.1162  1.2083  0.0994
  903SOL    HW3 3686   3.312   1.436   1.601  1.0050 -0.0613  1.0321
  903SOL    MW4 3687   3.298   1.508   1.648  0.6351  0.4424  0.1615
  904SOL     OW 3688   3.130   1.730   1.531  0.1628 -0.4229  0.2552
  904SOL    HW2 3689   3.199   1.676   1.569  0.4259 -0.6556 -0.5514
  904SOL    HW3 3690   3.048   1.688   1.560  0.3391  0.0752  1.5323
  904SOL    MW4 3691   3.128   1.718   1.540  0.2210 -0.3878  0.3172
  905SOL     OW 3692   3.158   1.990   1.599  0.1592  0.0984  0.0915
  905SOL    HW2 3693   3.146   1.899   1.574  0.0202 -0.1339  1.0073
  905SOL    HW3 3694   3.099   2.039   1.540 -0.3805 -0.4704  0.1601
  905SOL    MW4 3695   3.149   1.985   1.588  0.0696 -0.0073  0.2214
  906SOL     OW 3696   3.419   2.054   1.515  0.5427 -0.1209 -0.0202
  906SOL    HW2 3697   3.339   2.023   1.558  0.2077  1.2138  0.3490
  906SOL    HW3 3698   3.400   2.047   1.422  0.0561  0.0205  0.0637
  906SOL    MW4 3699   3.406   2.049   1.509  0.4344  0.0737  0.0396
  907SOL     OW 3700   3.613   2.448   1.484  0.1179 -0.0880  0.3050
  907SOL    HW2 3701   3.679   2.395   1.528 -1.1345 -1.6047  0.4077
  907SOL    HW3 3702   3.530   2.403   1.503 -0.9314  1.6955  0.0782
  907SOL    MW4 3703   3.611   2.435   1.492 -0.1857 -0.0529  0.2886
  908SOL     OW 3704   3.154   2.478   1.460  0.4240 -0.9537 -0.2360
  908SOL    HW2 3705   3.233   2.431   1.486  0.9365  0.4350  0.7661
  908SOL    HW3 3706   3.083   2.432   1.506  1.2396  1.0112  3.1227
  908SOL    MW4 3707   3.155   2.466   1.470  0.5994 -0.5109  0.3393
  909SOL     OW 3708   3.165   2.726   1.582  0.4472  0.3048  0.0229
  909SOL    HW2 3709   3.240   2.768   1.541  0.4024 -0.3229 -0.7371
  909SOL    HW3 3710   3.149   2.649   1.527  1.3861 -1.4620  2.1616
  909SOL    MW4 3711   3.173   2.721   1.569  0.5653 -0.0112  0.2049
  910SOL     OW 3712   3.427   3.105   1.568  0.1860  0.4913 -0.5467
  910SOL    HW2 3713   3.415   3.018   1.529  1.7723 -0.5006  1.0597
  910SOL    HW3 3714   3.420   3.090   1.662  0.2868  2.1495 -0.2611
  910SOL    MW4 3715   3.425   3.091   1.575  0.4086  0.5794 -0.2971
  911SOL     OW 3716   3.649   3.235   1.473  0.2130  0.4300  0.6364
  911SOL    HW2 3717   3.578   3.188   1.517  0.7474 -0.1266  0.9136
  911SOL    HW3 3718   3.729   3.198   1.510  0.6920 -0.3645 -1.1060
  911SOL    MW4 3719   3.651   3.224   1.484  0.3469  0.2518  0.4430
  912SOL     OW 3720   3.181   3.198   1.458 -0.3444  0.0407 -0.0831
  912SOL    HW2 3721   3.258   3.157   1.498 -0.5656 -0.9349 -0.6693
  912SOL    HW3 3722   3.204   3.209   1.366 -1.0442 -0.5780 -0.3342
  912SOL    MW4 3723   3.194   3.194   1.451 -0.4659 -0.1698 -0.1936
  913SOL     OW 3724   3.146   3.445   1.571  0.1462  0.6226 -0.0828
  913SOL    HW2 3725   3.150   3.360   1.528 -0.6152  0.4231  0.2302
  913SOL    HW3 3726   3.072   3.489   1.530 -0.2653  0.6275  0.6634
  913SOL    MW4 3727   3.137   3.439   1.560 -0.0091  0.5968  0.0570
  914SOL     OW 3728   3.364   3.595   1.483  0.2804 -0.4672  0.3043
  914SOL    HW2 3729   3.440   3.548   1.517  0.6474 -1.3514 -1.6304
  914SOL    HW3 3730   3.290   3.536   1.497  0.0300  0.1553  1.6703
  914SOL    MW4 3731   3.364   3.581   1.489  0.2959 -0.5016  0.2292
  915SOL     OW 3732   3.364   3.850   1.580  0.6115 -0.2176  0.0110
  915SOL    HW2 3733   3.439   3.894   1.540  0.1544 -0.3183 -0.9529
  915SOL    HW3 3734   3.351   3.771   1.527 -0.6372  0.1777 -0.2802
  915SOL    MW4 3735   3.372   3.845   1.568  0.3865 -0.1786 -0.1547
  916SOL     OW 3736   3.157   3.974   1.447 -0.0899  0.0597 -0.1799
  916SOL    HW2 3737   3.155   4.067   1.470 -0.5296  0.4975 -1.8958
  916SOL    HW3 3738   3.234   3.940   1.492 -1.1171  0.7751  2.1889
  916SOL    MW4 3739   3.167   3.982   1.456 -0.2832  0.2117 -0.0939
  917SOL     OW 3740   3.163   4.246   1.525 -0.0155 -0.3584 -0.6255
  917SOL    HW2 3741   3.170   4.260   1.620  0.4689 -0.9216 -0.5766
  917SOL    HW3 3742   3.078   4.283   1.502  0.2886  0.6769 -0.1335
  917SOL    MW4 3743   3.153   4.253   1.535  0.0885 -0.2966 -0.5543
  918SOL     OW 3744   3.355   4.429   1.453 -0.5348  0.0085 -0.3550
  918SOL    HW2 3745   3.287   4.364   1.472  0.3645 -1.1904 -1.1392
  918SOL    HW3 3746   3.349   4.443   1.358  0.3195 -0.1339 -0.4367
  918SOL    MW4 3747   3.345   4.422   1.443 -0.3033 -0.1683 -0.4691
  919SOL     OW 3748   3.768   0.004   1.583 -0.1931  0.2438  0.3276
  919SOL    HW2 3749   3.780  -0.010   1.677  0.4815  0.0032  0.2095
  919SOL    HW3 3750   3.855   0.026   1.551 -0.3317 -0.1320 -0.3166
  919SOL    MW4 3751   3.781   0.005   1.592 -0.1225  0.1626  0.2271
  920SOL     OW 3752   3.544   0.112   1.476 -0.3715 -0.1854  0.0452
  920SOL    HW2 3753   3.624   0.066   1.502 -0.4290 -0.3526 -0.0694
  920SOL    HW3 3754   3.544   0.107   1.380 -0.6363 -0.3886  0.0538
  920SOL    MW4 3755   3.554   0.105   1.466 -0.4141 -0.2342  0.0312
  921SOL     OW 3756   3.569   0.353   1.628  0.5475 -0.2766  0.3052
  921SOL    HW2 3757   3.576   0.278   1.568  1.0015  0.1376 -0.1650
  921SOL    HW3 3758   3.490   0.398   1.601  1.0584  0.2361 -0.3715
  921SOL    MW4 3759   3.560   0.349   1.616  0.6747 -0.1543  0.1539
  922SOL     OW 3760   3.779   0.783   1.588  0.0989  0.1504 -0.3282
  922SOL    HW2 3761   3.787   0.693   1.557 -0.6780  0.0142 -0.1395
  922SOL    HW3 3762   3.710   0.822   1.534  0.1832  0.5295 -0.1669
  922SOL    MW4 3763   3.771   0.776   1.577  0.0076  0.1825 -0.2822
  923SOL     OW 3764   3.951   0.361   0.805 -0.0982  0.3015 -0.0535
  923SOL    HW2 3765   3.959   0.365   0.901  0.0886 -1.0644  0.0016
  923SOL    HW3 3766   4.028   0.312   0.777 -0.7473 -0.2959 -0.8101
  923SOL    MW4 3767   3.962   0.355   0.814 -0.1590  0.0425 -0.1460
  924SOL     OW 3768   2.909   1.952   0.716  0.1897  0.2597  0.1662
  924SOL    HW2 3769   2.975   1.893   0.751 -0.9432 -1.1165  0.0115
  924SOL    HW3 3770   2.938   1.970   0.626  0.7125  0.2248  0.3258
  924SOL    MW4 3771   2.921   1.947   0.709  0.1092  0.0736  0.1670
  925SOL     OW 3772   3.568   1.156   1.618 -0.2630  0.3587  0.3323
  925SOL    HW2 3773   3.660   1.174   1.599  0.6702 -1.8727  2.3619
  925SOL    HW3 3774   3.555   1.066   1.589 -0.8171 -0.5222  3.1091
  925SOL    MW4 3775   3.579   1.147   1.612 -0.2131 -0.0520  0.9664
  926SOL     OW 3776   3.827   1.247   1.540  0.4245  0.1661  0.4124
  926SOL    HW2 3777   3.912   1.217   1.572  0.5423  0.9653  0.8586
  926SOL    HW3 3778   3.825   1.340   1.561 -0.2600  0.3075 -0.2618
  926SOL    MW4 3779   3.838   1.255   1.547  0.3495  0.2902  0.3823
  927SOL     OW 3780   3.772   1.517   1.616  0.1654  0.1906  0.1580
  927SOL    HW2 3781   3.785   1.523   1.710 -0.6955 -2.3088  0.4738
  927SOL    HW3 3782   3.688   1.561   1.601  0.2108  0.4226  0.5820
  927SOL    MW4 3783   3.762   1.524   1.626  0.0579 -0.1085  0.2556
  928SOL     OW 3784   3.528   1.628   1.534  0.0806 -0.1858 -0.1018
  928SOL    HW2 3785   3.447   1.602   1.579  0.4068 -2.1190 -0.5853
  928SOL    HW3 3786   3.500   1.658   1.448 -0.3785  1.9140  0.7380
  928SOL    MW4 3787   3.514   1.628   1.529  0.0629 -0.1637 -0.0548
  929SOL     OW 3788   3.613   1.899   1.615 -0.5619 -0.1703 -0.1046
  929SOL    HW2 3789   3.583   1.810   1.598  0.2894 -0.2061 -1.5490
  929SOL    HW3 3790   3.548   1.955   1.573 -0.3748 -0.1563 -0.3795
  929SOL    MW4 3791   3.601   1.895   1.607 -0.4251 -0.1733 -0.3315
  930SOL     OW 3792   3.819   2.032   1.494 -1.3400  0.1939 -0.3248
  930SOL    HW2 3793   3.814   2.124   1.517  0.0152  0.4027 -0.8510
  930SOL    HW3 3794   3.758   1.988   1.554 -0.8174  1.2159  0.9445
  930SOL    MW4 3795   3.810   2.038   1.505 -1.0924  0.3562 -0.2267
  931SOL     OW 3796   3.832   2.308   1.587  0.1826 -0.4695 -0.5251
  931SOL    HW2 3797   3.837   2.319   1.681 -1.5788  0.4645 -0.5314
  931SOL    HW3 3798   3.905   2.361   1.553  0.4241 -0.2886  0.2627
  931SOL    MW4 3799   3.842   2.317   1.595 -0.0181 -0.3226 -0.4220
  932SOL     OW 3800   3.623   2.702   1.569  0.2162  0.2533  0.6458
  932SOL    HW2 3801   3.633   2.610   1.547 -0.8512  0.0872  0.8526
  932SOL    HW3 3802   3.606   2.703   1.663  0.1470  0.6614  0.6310
  932SOL    MW4 3803   3.622   2.690   1.579  0.0665  0.2851  0.6711
  933SOL     OW 3804   3.385   2.849   1.484 -0.1750  0.0877  0.1866
  933SOL    HW2 3805   3.393   2.843   1.388  0.2276 -0.4001  0.2541
  933SOL    HW3 3806   3.456   2.796   1.518 -1.5764 -1.4590  0.7749
  933SOL    MW4 3807   3.395   2.841   1.476 -0.3066 -0.1807  0.2732
  934SOL     OW 3808   3.835   2.839   1.464 -0.6240  0.1605 -0.0223
  934SOL    HW2 3809   3.921   2.805   1.491 -0.3035  0.0304 -1.2006
  934SOL    HW3 3810   3.772   2.783   1.510 -0.0875 -0.4090  0.0301
  934SOL    MW4 3811   3.838   2.827   1.474 -0.5107  0.0682 -0.1707
  935SOL     OW 3812   3.856   3.103   1.618  0.0478  0.0900  0.3455
  935SOL    HW2 3813   3.927   3.159   1.586  0.3932 -0.3514  0.3276
  935SOL    HW3 3814   3.865   3.022   1.568  1.1934 -0.9749  2.1627
  935SOL    MW4 3815   3.867   3.099   1.607  0.2449 -0.1087  0.5827
  936SOL     OW 3816   3.407   2.839   1.206  0.1649  0.3249 -0.0507
  936SOL    HW2 3817   3.414   2.923   1.161  0.0958  0.2052 -0.2828
  936SOL    HW3 3818   3.489   2.794   1.185 -0.0012  0.1439 -0.3079
  936SOL    MW4 3819   3.419   2.844   1.198  0.1340  0.2854 -0.1152
  937SOL     OW 3820   3.591   3.480   1.567 -0.1766 -0.3311 -0.2446
  937SOL    HW2 3821   3.623   3.472   1.656 -1.6503 -1.3829  0.2169
  937SOL    HW3 3822   3.616   3.397   1.525  0.4873  0.1458 -0.8183
  937SOL    MW4 3823   3.599   3.468   1.573 -0.2835 -0.4070 -0.2594
  938SOL     OW 3824   3.830   3.627   1.487 -0.5596 -0.0622 -0.4190
  938SOL    HW2 3825   3.901   3.565   1.507 -0.2878  0.4250  0.1309
  938SOL    HW3 3826   3.750   3.576   1.498 -0.3602 -0.1663  0.5897
  938SOL    MW4 3827   3.829   3.612   1.491 -0.4973 -0.0114 -0.2134
  939SOL     OW 3828   3.815   3.897   1.559  0.7175  0.2808  0.0556
  939SOL    HW2 3829   3.833   3.806   1.537  0.2767  0.1285  0.3190
  939SOL    HW3 3830   3.818   3.900   1.655  0.0874  0.4081  0.0741
  939SOL    MW4 3831   3.818   3.886   1.569  0.5760  0.2773  0.0929
  940SOL     OW 3832   3.577   3.982   1.476  0.1174  0.0816  0.1996
  940SOL    HW2 3833   3.661   3.947   1.508  1.0657  1.9533 -0.1810
  940SOL    HW3 3834   3.577   4.073   1.504 -2.4107 -0.2061  1.3388
  940SOL    MW4 3835   3.588   3.989   1.484 -0.0911  0.2906  0.2997
  941SOL     OW 3836   3.544   4.254   1.578  0.1162  0.0741  0.4788
  941SOL    HW2 3837   3.523   4.256   1.672 -1.1689  0.6196  0.1834
  941SOL    HW3 3838   3.490   4.323   1.540  0.0244 -0.6941 -0.8005
  941SOL    MW4 3839   3.534   4.264   1.586 -0.0656  0.0448  0.2710
  942SOL     OW 3840   3.776   4.396   1.520  0.0987  0.0412 -0.2711
  942SOL    HW2 3841   3.696   4.352   1.550  0.7177 -0.1170  1.2227
  942SOL    HW3 3842   3.765   4.487   1.548 -0.8416  0.7074 -2.6799
  942SOL    MW4 3843   3.764   4.402   1.528  0.0560  0.1082 -0.3918
  943SOL     OW 3844   4.241   4.653   1.624  0.4988  0.0890 -0.0095
  943SOL    HW2 3845   4.230   4.655   1.719  0.5170 -1.2070  0.0264
  943SOL    HW3 3846   4.243   4.560   1.602  1.5722  0.3764 -1.1567
  943SOL    MW4 3847   4.240   4.641   1.634  0.6428 -0.0434 -0.1562
  944SOL     OW 3848   4.030   0.113   1.481 -0.0260  0.0305  0.1921
  944SOL    HW2 3849   4.009   0.184   1.541  3.3135  1.0865  0.1965
  944SOL    HW3 3850   4.100   0.065   1.524 -0.9246 -2.1485 -0.6999
  944SOL    MW4 3851   4.036   0.116   1.495  0.2961 -0.1177  0.0751
  945SOL     OW 3852   4.003   0.341   1.640 -0.2749 -0.2704  0.0019
  945SOL    HW2 3853   4.021   0.368   1.731 -0.3991 -0.8462  0.1968
  945SOL    HW3 3854   3.929   0.396   1.613 -0.3660 -0.2357  0.3194
  945SOL    MW4 3855   3.995   0.352   1.649 -0.3030 -0.3418  0.0695
  946SOL     OW 3856   3.813   0.490   1.542 -0.0616  0.5830  0.3203
  946SOL    HW2 3857   3.738   0.438   1.571  0.8950  0.2516  2.2302
  946SOL    HW3 3858   3.823   0.467   1.449 -2.6776  1.0826 -0.1254
  946SOL    MW4 3859   3.804   0.480   1.534 -0.2801  0.6052  0.5137
  947SOL     OW 3860   4.245   0.724   1.579 -0.4724  0.1550 -0.1059
  947SOL    HW2 3861   4.230   0.639   1.537 -1.7895  0.2771  0.0985
  947SOL    HW3 3862   4.326   0.756   1.539 -0.9845 -0.3306 -1.5684
  947SOL    MW4 3863   4.254   0.717   1.568 -0.7143  0.1071 -0.2718
  948SOL     OW 3864   4.031   0.906   1.493  0.2675 -0.1916 -0.2661
  948SOL    HW2 3865   4.099   0.850   1.531 -0.4787 -1.8031 -1.2243
  948SOL    HW3 3866   3.949   0.861   1.516 -0.3986  1.0014 -0.2892
  948SOL    MW4 3867   4.029   0.893   1.501  0.0811 -0.2468 -0.3955
  949SOL     OW 3868   4.049   1.132   1.639  0.2986 -0.3837 -0.4168
  949SOL    HW2 3869   4.052   1.110   1.732  1.7275 -0.1883 -0.4037
  949SOL    HW3 3870   4.033   1.049   1.594  0.0945 -0.5492 -0.0347
  949SOL    MW4 3871   4.047   1.118   1.645  0.4597 -0.3797 -0.3648
  950SOL     OW 3872   4.253   1.244   1.502 -0.3363 -0.5406 -0.1348
  950SOL    HW2 3873   4.174   1.202   1.536 -0.0906 -1.8443 -1.1752
  950SOL    HW3 3874   4.324   1.186   1.528  0.3124  0.6743  0.8678
  950SOL    MW4 3875   4.252   1.231   1.510 -0.2189 -0.5524 -0.1398
  951SOL     OW 3876   4.246   1.504   1.620 -0.2532  0.2382 -0.4444
  951SOL    HW2 3877   4.268   1.413   1.599 -1.5213 -0.7235  2.1904
  951SOL    HW3 3878   4.321   1.555   1.589  0.5780 -1.7243 -1.7359
  951SOL    MW4 3879   4.259   1.499   1.613 -0.3104 -0.1477 -0.2671
  952SOL     OW 3880   4.003   1.636   1.489 -0.2117 -0.0539  0.2985
  952SOL    HW2 3881   4.064   1.572   1.526 -0.0250  0.1765  0.3957
  952SOL    HW3 3882   3.917   1.607   1.519 -0.1027 -0.1088  0.5681
  952SOL    MW4 3883   4.000   1.624   1.498 -0.1729 -0.0309  0.3469
  953SOL     OW 3884   4.056   1.926   1.600 -0.6254  0.1077 -0.0464
  953SOL    HW2 3885   4.045   1.844   1.552 -0.5299  0.5785 -0.8758
  953SOL    HW3 3886   3.980   1.979   1.575 -1.5863 -0.3608  1.7931
  953SOL    MW4 3887   4.044   1.922   1.590 -0.7391  0.1079  0.0869
  954SOL     OW 3888   4.274   2.060   1.518  0.6383 -0.2967  0.1409
  954SOL    HW2 3889   4.194   2.018   1.550  0.6520 -0.3994  0.0412
  954SOL    HW3 3890   4.292   2.018   1.434  0.2291  0.4444 -0.3218
  954SOL    MW4 3891   4.266   2.049   1.511  0.5856 -0.2124  0.0669
  955SOL     OW 3892   4.231   2.323   1.587  0.3011  0.0720  0.0628
  955SOL    HW2 3893   4.231   2.314   1.682 -0.1801 -0.0154  0.0529
  955SOL    HW3 3894   4.250   2.234   1.555 -2.8045 -0.6132  0.0041
  955SOL    MW4 3895   4.234   2.310   1.595 -0.1717 -0.0300  0.0538
  956SOL     OW 3896   4.028   2.480   1.469  0.7446  0.1625  0.0038
  956SOL    HW2 3897   4.031   2.557   1.527 -0.6826 -0.0006  0.3279
  956SOL    HW3 3898   4.098   2.424   1.500  0.7676  0.6239  0.8075
  956SOL    MW4 3899   4.038   2.483   1.481  0.5593  0.2017  0.1526
  957SOL     OW 3900   4.042   2.716   1.601  0.1507  0.4470 -0.5366
  957SOL    HW2 3901   4.056   2.706   1.695  0.9295 -0.0725 -0.7105
  957SOL    HW3 3902   4.120   2.762   1.570 -0.4054  1.2092 -0.8265
  957SOL    MW4 3903   4.054   2.721   1.609  0.1802  0.4790 -0.5978
  958SOL     OW 3904   4.265   2.863   1.501  0.3576 -0.0161 -0.3699
  958SOL    HW2 3905   4.246   2.953   1.526 -0.8774  0.5587 -3.0924
  958SOL    HW3 3906   4.259   2.864   1.405  0.0220 -3.0381 -0.4244
  958SOL    MW4 3907   4.261   2.875   1.491  0.1502 -0.3390 -0.7364
  959SOL     OW 3908   4.260   3.109   1.590  0.1084 -0.2857  0.2209
  959SOL    HW2 3909   4.259   3.101   1.685  1.4221 -1.0990  0.1770
  959SOL    HW3 3910   4.349   3.136   1.568  0.0643 -0.9251 -0.8241
  959SOL    MW4 3911   4.272   3.111   1.599  0.2761 -0.4776  0.0772
  960SOL     OW 3912   4.057   3.231   1.486  0.3379 -0.1366  0.0032
  960SOL    HW2 3913   4.068   3.322   1.514  0.7522  0.2657 -1.4329
  960SOL    HW3 3914   4.138   3.188   1.513  0.3431  0.0285  0.2532
  960SOL    MW4 3915   4.069   3.238   1.494  0.3929 -0.0618 -0.1535
  961SOL     OW 3916   4.060   3.485   1.585  0.3879  0.2362 -0.1477
  961SOL    HW2 3917   4.057   3.485   1.680 -1.0442  0.9448 -0.1703
  961SOL    HW3 3918   4.131   3.546   1.563 -0.7754  1.8385  0.4577
  961SOL    MW4 3919   4.069   3.493   1.594  0.0448  0.5412 -0.0709
  962SOL     OW 3920   4.288   3.597   1.515  0.3777 -0.2000  0.0897
  962SOL    HW2 3921   4.283   3.690   1.534  2.0615 -0.3290  1.2706
  962SOL    HW3 3922   4.270   3.591   1.421 -1.3904  1.1177  0.3062
  962SOL    MW4 3923   4.285   3.608   1.505  0.3657 -0.0432  0.2741
  963SOL     OW 3924   4.286   3.876   1.615 -0.0300 -0.1694 -0.2230
  963SOL    HW2 3925   4.211   3.929   1.588 -1.2475 -1.7026  0.0847
  963SOL    HW3 3926   4.282   3.875   1.711  0.6301  0.0774 -0.1886
  963SOL    MW4 3927   4.276   3.883   1.624 -0.1035 -0.3393 -0.1779
  964SOL     OW 3928   4.078   4.028   1.535  0.4065  0.4742 -0.2632
  964SOL    HW2 3929   4.050   4.117   1.557  1.2835  0.5183  0.7041
  964SOL    HW3 3930   4.001   3.973   1.552 -0.1400  1.0379 -0.8687
  964SOL    MW4 3931   4.064   4.033   1.540  0.4501  0.5546 -0.2154
  965SOL     OW 3932   4.021   4.293   1.605  0.2254  0.1600  0.6781
  965SOL    HW2 3933   4.019   4.301   1.700  1.6919  2.3354  0.5430
  965SOL    HW3 3934   3.943   4.340   1.575  1.0716  1.5856  0.6852
  965SOL    MW4 3935   4.010   4.300   1.613  0.5307  0.6351  0.6613
  966SOL     OW 3936   4.285   4.404   1.509 -0.1388  0.2972  0.4076
  966SOL    HW2 3937   4.363   4.355   1.536  0.3460  0.3496 -0.8628
  966SOL    HW3 3938   4.211   4.352   1.543  0.3772 -1.2358 -0.7760
  966SOL    MW4 3939   4.285   4.390   1.517 -0.0067  0.1020  0.0839
  967SOL     OW 3940   0.181   0.000   1.910  0.5663  0.0956  0.1000
  967SOL    HW2 3941   0.261   0.020   1.959  0.4824  0.3706  0.1277
  967SOL    HW3 3942   0.211  -0.011   1.820  0.7509 -0.6290  0.2461
  967SOL    MW4 3943   0.195   0.001   1.905  0.5796  0.0367  0.1229
  968SOL     OW 3944   4.476   0.148   2.014  0.4505 -0.3671  0.4238
  968SOL    HW2 3945   4.494   0.233   1.974 -2.9658 -0.5988 -1.7754
  968SOL    HW3 3946   4.533   0.087   1.967 -1.8909 -0.2809 -2.7061
  968SOL    MW4 3947   4.486   0.151   2.003 -0.3090 -0.3863 -0.2792
  969SOL     OW 3948   4.479   0.393   1.873 -0.0015 -0.1465 -0.3128
  969SOL    HW2 3949   4.403   0.423   1.922 -0.1108 -0.6966 -0.1448
  969SOL    HW3 3950   4.554   0.431   1.920 -0.1665  0.3429 -0.4438
  969SOL    MW4 3951   4.479   0.402   1.886 -0.0377 -0.1545 -0.3078
  970SOL     OW 3952   0.204   0.504   1.996  0.0318  0.3072 -0.3959
  970SOL    HW2 3953   0.275   0.454   1.957  1.3859  1.5202  0.4685
  970SOL    HW3 3954   0.227   0.510   2.089 -1.6914 -0.1028  0.0775
  970SOL    MW4 3955   0.216   0.498   2.003 -0.0169  0.4131 -0.2196
  971SOL     OW 3956   0.188   0.771   1.886 -0.0373 -0.1038 -0.0068
  971SOL    HW2 3957   0.262   0.806   1.936  0.1331 -0.1250 -0.2403
  971SOL    HW3 3958   0.187   0.677   1.906 -0.3495 -0.0063  0.4366
  971SOL    MW4 3959   0.198   0.763   1.895 -0.0560 -0.0937  0.0209
  972SOL     OW 3960   4.455   0.879   2.001  0.2137 -0.1369 -0.4524
  972SOL    HW2 3961   4.388   0.833   1.950 -0.6701  1.7426 -1.0599
  972SOL    HW3 3962   4.538   0.841   1.971 -0.4331 -0.6017 -1.7091
  972SOL    MW4 3963   4.457   0.868   1.990  0.0114  0.0498 -0.6984
  973SOL     OW 3964   4.451   1.126   1.866  0.1093  0.1785  0.3329
  973SOL    HW2 3965   4.372   1.162   1.905  1.1286  0.0294  2.6677
  973SOL    HW3 3966   4.459   1.038   1.905  1.8184  0.4931  0.7631
  973SOL    MW4 3967   4.442   1.119   1.876  0.4692  0.2004  0.6977
  974SOL     OW 3968   0.201   1.236   1.963 -0.3196 -0.3398 -0.3084
  974SOL    HW2 3969   0.196   1.331   1.955 -0.6059 -0.2903  0.4255
  974SOL    HW3 3970   0.117   1.204   1.930 -1.3672 -0.1564  2.0764
  974SOL    MW4 3971   0.190   1.244   1.957 -0.4956 -0.3091  0.1030
  975SOL     OW 3972   0.177   1.502   1.923  0.1159 -0.0983  0.2673
  975SOL    HW2 3973   0.244   1.570   1.918 -0.5513  0.5671  0.2180
  975SOL    HW3 3974   0.104   1.543   1.970  0.3172 -1.3002  1.6678
  975SOL    MW4 3975   0.176   1.516   1.928  0.0545 -0.1692  0.4455
  976SOL     OW 3976   4.466   1.650   2.046  0.5537 -0.5076 -0.0998
  976SOL    HW2 3977   4.449   1.638   2.139  0.4497  1.2252  0.1249
  976SOL    HW3 3978   4.385   1.622   2.003 -0.3335  1.0094  0.5138
  976SOL    MW4 3979   4.453   1.645   2.052  0.4230 -0.0789  0.0107
  977SOL     OW 3980   4.485   1.873   1.873 -0.2521  0.0486  0.0710
  977SOL    HW2 3981   4.410   1.931   1.889 -1.1129 -0.8859 -0.5559
  977SOL    HW3 3982   4.486   1.815   1.949  1.2566  1.5318  1.2326
  977SOL    MW4 3983   4.475   1.873   1.885 -0.1659  0.1209  0.1417
  978SOL     OW 3984   0.210   2.042   1.988  0.0423  0.3988 -0.2464
  978SOL    HW2 3985   0.209   2.132   1.953 -0.3736  0.7250  0.5792
  978SOL    HW3 3986   0.145   1.995   1.936 -1.4917  1.2048  0.9102
  978SOL    MW4 3987   0.201   2.048   1.976 -0.2150  0.5484  0.0150
  979SOL     OW 3988   0.212   2.297   1.910  0.6294 -0.0389 -0.6498
  979SOL    HW2 3989   0.283   2.342   1.954 -1.0345 -0.4000  2.4985
  979SOL    HW3 3990   0.132   2.341   1.939 -0.7274 -2.2536 -0.8163
  979SOL    MW4 3991   0.210   2.308   1.919  0.2309 -0.3786 -0.2564
  980SOL     OW 3992   4.483   2.444   1.990 -0.5379  0.6471 -0.0788
  980SOL    HW2 3993   4.496   2.447   2.085  3.2257  0.3619 -0.5112
  980SOL    HW3 3994   4.475   2.536   1.964 -0.4321  0.7885  0.3773
  980SOL    MW4 3995   4.483   2.456   1.999 -0.0272  0.6285 -0.0758
  981SOL     OW 3996   4.478   2.748   1.890  0.3872  0.1436 -0.3747
  981SOL    HW2 3997   4.398   2.788   1.926 -0.0230 -0.1215 -0.9770
  981SOL    HW3 3998   4.468   2.756   1.795  1.4392  0.7850 -0.4343
  981SOL    MW4 3999   4.466   2.754   1.882  0.4721  0.1934 -0.4622
  982SOL     OW 4000   0.239   2.835   2.016 -0.3257 -0.2587  0.2093
  982SOL    HW2 4001   0.245   2.929   2.002  0.1087  0.0699  2.4186
  982SOL    HW3 4002   0.155   2.810   1.978 -1.7371  1.5019  2.1092
  982SOL    MW4 4003   0.229   2.844   2.009 -0.4546  0.0167  0.7515
  983SOL     OW 4004   0.234   3.097   1.917  0.0035  0.2155 -0.4423
  983SOL    HW2 4005   0.324   3.129   1.922 -0.7660  2.7238 -1.7115
  983SOL    HW3 4006   0.216   3.091   1.823 -0.7262 -1.6236 -0.2124
  983SOL    MW4 4007   0.243   3.100   1.905 -0.1943  0.3037 -0.5792
  984SOL     OW 4008   0.010   3.249   2.010  0.0485  0.0081  0.5030
  984SOL    HW2 4009  -0.062   3.202   1.968 -0.6945  2.2305 -0.8169
  984SOL    HW3 4010   0.089   3.208   1.975 -0.5718 -0.8476  0.0710
  984SOL    MW4 4011   0.011   3.237   2.000 -0.1314  0.1884  0.2720
  985SOL     OW 4012   0.008   3.489   1.874  0.0465  0.1929  0.3244
  985SOL    HW2 4013   0.083   3.542   1.900  0.2246  0.7363 -1.2391
  985SOL    HW3 4014   0.013   3.411   1.929  1.7184  0.2675  0.2954
  985SOL    MW4 4015   0.019   3.486   1.884  0.2904  0.2744  0.1142
  986SOL     OW 4016   0.246   3.600   1.953 -0.2083 -0.4008  0.4197
  986SOL    HW2 4017   0.240   3.608   2.049  1.2401  0.5116  0.4518
  986SOL    HW3 4018   0.333   3.563   1.938 -1.0401 -2.0249 -0.4873
  986SOL    MW4 4019   0.257   3.596   1.964 -0.1269 -0.4947  0.3042
  987SOL     OW 4020   0.214   3.856   1.859 -0.1150  0.5067  0.1359
  987SOL    HW2 4021   0.284   3.907   1.900  1.0387 -0.5163 -0.5142
  987SOL    HW3 4022   0.232   3.765   1.884 -2.3707  0.4399  1.5958
  987SOL    MW4 4023   0.225   3.851   1.868 -0.2604  0.3629  0.2427
  988SOL     OW 4024   0.034   3.987   2.024 -0.4495  0.1752 -0.1889
  988SOL    HW2 4025   0.011   4.071   1.985  0.6927  0.6267  0.1064
  988SOL    HW3 4026   0.098   3.949   1.964  0.2336  0.2315  0.4988
  988SOL    MW4 4027   0.039   3.993   2.011 -0.2086  0.2422 -0.0591
  989SOL     OW 4028   4.474   4.234   1.879  0.5141 -0.3392  0.2041
  989SOL    HW2 4029   4.401   4.290   1.904 -0.6754 -0.7881 -2.0531
  989SOL    HW3 4030   4.552   4.288   1.890 -0.5596  1.6039 -1.4197
  989SOL    MW4 4031   4.474   4.248   1.884  0.2155 -0.1421 -0.3079
  990SOL     OW 4032   0.184   4.391   1.945  0.2518 -0.2792  0.4666
  990SOL    HW2 4033   0.167   4.372   2.037  1.8249 -1.6240  0.4919
  990SOL    HW3 4034   0.176   4.486   1.939 -2.4605 -0.3937  1.4316
  990SOL    MW4 4035   0.181   4.401   1.957  0.1015 -0.4716  0.5972
  991SOL     OW 4036   0.694   4.661   1.874  0.0353  0.1230 -0.2178
  991SOL    HW2 4037   0.694   4.570   1.902 -0.9788  0.2008  0.0767
  991SOL    HW3 4038   0.609   4.695   1.903 -0.4162  0.6281 -2.0232
  991SOL    MW4 4039   0.682   4.653   1.882 -0.1580  0.1998 -0.4171
  992SOL     OW 4040   0.471   0.096   1.985  0.8191  0.1566 -0.2645
  992SOL    HW2 4041   0.445   0.185   1.959 -1.0381 -0.2498  0.1238
  992SOL    HW3 4042   0.447   0.091   2.077  2.7677 -0.0934  0.2443
  992SOL    MW4 4043   0.464   0.107   1.994  0.8312  0.0700 -0.1460
  993SOL     OW 4044   0.405   0.347   1.878  0.0769 -0.6462  0.4561
  993SOL    HW2 4045   0.484   0.388   1.914 -0.9840 -0.0476  2.2092
  993SOL    HW3 4046   0.406   0.369   1.785  2.1951 -1.0259  0.3667
  993SOL    MW4 4047   0.416   0.355   1.871  0.2164 -0.6173  0.6757
  994SOL     OW 4048   0.626   0.473   1.981 -0.5002 -0.0824  0.1124
  994SOL    HW2 4049   0.627   0.461   2.076  0.5953  3.0904  0.5932
  994SOL    HW3 4050   0.711   0.441   1.952 -0.7809 -0.9288  0.2154
  994SOL    MW4 4051   0.637   0.467   1.990 -0.3927  0.2246  0.1894
  995SOL     OW 4052   0.643   0.744   1.865  0.2583 -0.0831  0.0838
  995SOL    HW2 4053   0.720   0.789   1.899  0.6033 -0.4802 -0.1727
  995SOL    HW3 4054   0.658   0.651   1.885  0.5810 -0.3544 -1.3504
  995SOL    MW4 4055   0.655   0.738   1.872  0.3464 -0.1712 -0.1392
  996SOL     OW 4056   0.415   0.862   1.988 -0.0110  0.1801  0.0658
  996SOL    HW2 4057   0.423   0.949   1.949 -0.2828 -0.5991 -1.7910
  996SOL    HW3 4058   0.497   0.818   1.967 -0.8434 -0.8368 -1.1512
  996SOL    MW4 4059   0.427   0.867   1.980 -0.1567 -0.0568 -0.3397
  997SOL     OW 4060   0.421   1.102   1.867  0.2377  0.0436  0.4311
  997SOL    HW2 4061   0.334   1.135   1.891  0.3448  0.4684  0.2378
  997SOL    HW3 4062   0.428   1.117   1.773  0.3859 -0.3114  0.3829
  997SOL    MW4 4063   0.410   1.108   1.858  0.2714  0.0528  0.3994
  998SOL     OW 4064   0.615   1.273   1.982  0.1510 -0.6102  0.2604
  998SOL    HW2 4065   0.608   1.254   2.076 -1.9707 -0.6061  0.1259
  998SOL    HW3 4066   0.545   1.222   1.943  0.9051 -0.4457 -1.3205
  998SOL    MW4 4067   0.605   1.264   1.990 -0.0294 -0.5879  0.0340
  999SOL     OW 4068   0.624   1.531   1.877  0.5465 -0.4286  0.5339
  999SOL    HW2 4069   0.608   1.444   1.913 -2.0351 -0.4456 -0.5017
  999SOL    HW3 4070   0.622   1.518   1.782 -0.9130  0.8825  0.3521
  999SOL    MW4 4071   0.622   1.518   1.869  0.0133 -0.2578  0.3732
 1000SOL     OW 4072   0.399   1.665   1.952  0.2329 -0.0444  0.2259
 1000SOL    HW2 4073   0.392   1.671   2.048 -0.1227  1.1978  0.1391
 1000SOL    HW3 4074   0.475   1.610   1.937  1.5166  1.3932  1.2521
 1000SOL    MW4 4075   0.408   1.659   1.963  0.3554  0.3091  0.3498
 1001SOL     OW 4076   0.447   1.950   1.872  1.0033  0.3403  0.3016
 1001SOL    HW2 4077   0.454   1.857   1.894 -0.5850  0.0761 -0.2808
 1001SOL    HW3 4078   0.365   1.978   1.913  0.2380  0.8911 -1.5806
 1001SOL    MW4 4079   0.437   1.941   1.880  0.6928  0.3783 -0.0237
 1002SOL     OW 4080   0.675   2.096   1.962 -0.5411 -0.4007  0.2083
 1002SOL    HW2 4081   0.678   2.079   2.056 -2.3155 -0.9416  0.1917
 1002SOL    HW3 4082   0.595   2.051   1.932 -1.0523  1.4047 -1.2194
 1002SOL    MW4 4083   0.665   2.088   1.970 -0.8426 -0.2337  0.0178
 1003SOL     OW 4084   0.656   2.341   1.870 -0.0519  0.1869 -0.1599
 1003SOL    HW2 4085   0.660   2.254   1.910  0.7271  0.5642  0.6105
 1003SOL    HW3 4086   0.667   2.325   1.776 -1.3021 -0.6612 -0.1686
 1003SOL    MW4 4087   0.658   2.327   1.863 -0.1141  0.1245 -0.0592
 1004SOL     OW 4088   0.427   2.395   2.024 -0.1570  0.1742 -0.2452
 1004SOL    HW2 4089   0.445   2.409   2.117  0.3598  2.0774 -0.5986
 1004SOL    HW3 4090   0.510   2.362   1.989 -0.6098 -1.3863  0.1138
 1004SOL    MW4 4091   0.441   2.393   2.032 -0.1485  0.2193 -0.2444
 1005SOL     OW 4092   0.461   2.679   1.937  0.1670  0.4591  0.1076
 1005SOL    HW2 4093   0.447   2.585   1.954  0.8178  0.1817 -0.8818
 1005SOL    HW3 4094   0.383   2.721   1.975 -0.1155 -0.4699  0.5968
 1005SOL    MW4 4095   0.449   2.672   1.944  0.2156  0.2997  0.0416
 1006SOL     OW 4096   0.650   2.890   1.994 -0.1681 -0.3889  0.5763
 1006SOL    HW2 4097   0.676   2.880   2.086 -1.9462 -0.0001  1.1474
 1006SOL    HW3 4098   0.591   2.817   1.977  2.6017 -2.3328 -1.2564
 1006SOL    MW4 4099   0.646   2.879   2.004 -0.0373 -0.5944  0.4096
 1007SOL     OW 4100   0.751   3.116   1.872 -0.7633 -0.3845  0.3196
 1007SOL    HW2 4101   0.723   3.035   1.915 -0.4351 -0.8279 -0.2953
 1007SOL    HW3 4102   0.719   3.108   1.782  0.0530 -0.2337  0.0115
 1007SOL    MW4 4103   0.743   3.104   1.866 -0.6124 -0.4234  0.1979
 1008SOL     OW 4104   0.484   3.218   1.952 -0.4606 -0.5619 -0.0283
 1008SOL    HW2 4105   0.483   3.309   1.921 -0.8331 -0.6567 -0.2915
 1008SOL    HW3 4106   0.568   3.183   1.922 -0.5220 -0.4471 -0.3376
 1008SOL    MW4 4107   0.495   3.226   1.944 -0.5178 -0.5591 -0.1038
 1009SOL     OW 4108   0.483   3.487   1.881 -0.2166  0.1493 -0.1718
 1009SOL    HW2 4109   0.549   3.548   1.913  1.5537 -0.3973 -2.6276
 1009SOL    HW3 4110   0.474   3.508   1.788 -1.0529 -2.0230 -0.6082
 1009SOL    MW4 4111   0.490   3.498   1.873 -0.0934 -0.2096 -0.5534
 1010SOL     OW 4112   0.698   3.655   1.950 -0.0283 -0.5535 -0.4822
 1010SOL    HW2 4113   0.761   3.599   1.905 -0.0461 -1.0013  0.0446
 1010SOL    HW3 4114   0.688   3.732   1.893  0.0581 -1.0477 -1.1629
 1010SOL    MW4 4115   0.705   3.658   1.936 -0.0193 -0.6776 -0.5025
 1011SOL     OW 4116   0.661   3.941   1.855  0.2398  0.0405 -0.1771
 1011SOL    HW2 4117   0.735   3.993   1.888  0.6211 -1.0209  0.6520
 1011SOL    HW3 4118   0.681   3.927   1.762 -1.6443  4.4673 -1.4093
 1011SOL    MW4 4119   0.673   3.946   1.847  0.0415  0.4847 -0.2302
 1012SOL     OW 4120   0.409   4.007   1.995  0.3762  0.2889 -0.0563
 1012SOL    HW2 4121   0.399   4.091   1.951  0.5037  0.5478  0.4098
 1012SOL    HW3 4122   0.497   3.978   1.971  0.5300  0.5350  0.2023
 1012SOL    MW4 4123   0.419   4.014   1.986  0.4133  0.3552  0.0392
 1013SOL     OW 4124   0.424   4.256   1.869 -0.6781  0.2262 -0.1684
 1013SOL    HW2 4125   0.344   4.305   1.886 -0.6964  0.0650  0.2243
 1013SOL    HW3 4126   0.443   4.270   1.776 -2.6001 -1.8883 -0.9135
 1013SOL    MW4 4127   0.416   4.265   1.859 -0.9341 -0.0744 -0.2151
 1014SOL     OW 4128   0.645   4.383   1.971 -0.2127  0.0626 -0.4418
 1014SOL    HW2 4129   0.712   4.329   1.928 -0.7273 -1.0028  0.0717
 1014SOL    HW3 4130   0.562   4.344   1.944 -0.6482  1.6063 -1.3674
 1014SOL    MW4 4131   0.643   4.371   1.962 -0.3381  0.1259 -0.4960
 1015SOL     OW 4132   1.068   0.018   1.879 -0.3873 -0.2449 -0.0843
 1015SOL    HW2 4133   1.154   0.043   1.914 -0.9544  1.0847  0.3630
 1015SOL    HW3 4134   1.054  -0.071   1.913  0.5800 -0.2657  0.2829
 1015SOL    MW4 4135   1.078   0.009   1.888 -0.3345 -0.0722  0.0232
 1016SOL     OW 4136   0.870   0.141   2.013  0.3237 -0.0562  0.5105
 1016SOL    HW2 4137   0.950   0.104   1.976 -0.0186 -0.1160 -0.1959
 1016SOL    HW3 4138   0.800   0.085   1.978 -0.0308  0.0420  1.0531
 1016SOL    MW4 4139   0.871   0.128   2.004  0.2318 -0.0511  0.4890
 1017SOL     OW 4140   0.875   0.389   1.864  0.2077 -0.0142 -0.2665
 1017SOL    HW2 4141   0.952   0.435   1.897 -0.7632  1.4285 -0.0167
 1017SOL    HW3 4142   0.874   0.306   1.912  0.3212  0.9246  1.3674
 1017SOL    MW4 4143   0.885   0.384   1.875  0.0946  0.3000 -0.0180
 1018SOL     OW 4144   1.103   0.475   1.977 -0.3281 -0.1531 -0.5845
 1018SOL    HW2 4145   1.187   0.451   1.938  0.1010  0.5181 -0.0786
 1018SOL    HW3 4146   1.090   0.567   1.952 -0.6545 -0.0961 -0.2099
 1018SOL    MW4 4147   1.112   0.484   1.968 -0.3146 -0.0570 -0.4683
 1019SOL     OW 4148   1.078   0.722   1.876 -0.0959 -0.2793 -0.0729
 1019SOL    HW2 4149   1.154   0.776   1.900 -0.7062 -0.0210  1.3062
 1019SOL    HW3 4150   1.003   0.774   1.904 -0.7108 -1.5786  0.6866
 1019SOL    MW4 4151   1.078   0.736   1.883 -0.2576 -0.4166  0.2093
 1020SOL     OW 4152   0.870   0.869   1.971 -0.3553  0.2887 -0.4414
 1020SOL    HW2 4153   0.879   0.844   2.063  1.8208 -1.1281 -1.0264
 1020SOL    HW3 4154   0.878   0.965   1.971  2.8310  0.0711  0.5126
 1020SOL    MW4 4155   0.872   0.879   1.983  0.3523  0.0731 -0.3927
 1021SOL     OW 4156   0.855   1.145   1.900  0.5685  0.2402  0.1802
 1021SOL    HW2 4157   0.775   1.193   1.924 -1.5840 -3.0980 -0.0596
 1021SOL    HW3 4158   0.856   1.146   1.804  0.0370 -0.9175  0.1563
 1021SOL    MW4 4159   0.845   1.152   1.890  0.2144 -0.3529  0.1454
 1022SOL     OW 4160   1.094   1.256   1.966  0.4297 -0.2894 -0.1720
 1022SOL    HW2 4161   1.092   1.339   1.918  0.2894 -0.5708 -0.6528
 1022SOL    HW3 4162   1.004   1.224   1.962  0.0194  0.5690  1.8352
 1022SOL    MW4 4163   1.082   1.263   1.959  0.3572 -0.2133  0.0296
 1023SOL     OW 4164   1.104   1.529   1.856  0.3095  0.2438 -0.0307
 1023SOL    HW2 4165   1.024   1.575   1.879  0.6302  1.1237 -0.6568
 1023SOL    HW3 4166   1.110   1.537   1.761  0.1879 -1.4020 -0.1999
 1023SOL    MW4 4167   1.094   1.536   1.847  0.3359  0.1428 -0.1358
 1024SOL     OW 4168   0.870   1.659   1.943  0.7476 -0.0772 -0.4649
 1024SOL    HW2 4169   0.861   1.750   1.916 -0.1341 -0.6714 -2.2828
 1024SOL    HW3 4170   0.793   1.615   1.906  0.2010 -1.2331  1.9142
 1024SOL    MW4 4171   0.858   1.665   1.935  0.5592 -0.3082 -0.3909
 1025SOL     OW 4172   0.886   1.931   1.876 -0.2951 -0.1678  0.1679
 1025SOL    HW2 4173   0.808   1.981   1.902 -0.3774 -0.2292  0.0425
 1025SOL    HW3 4174   0.877   1.922   1.781 -1.1265 -1.8633  0.4003
 1025SOL    MW4 4175   0.874   1.937   1.867 -0.4157 -0.3997  0.1820
 1026SOL     OW 4176   1.117   2.056   1.960 -0.5857 -0.1934  0.2258
 1026SOL    HW2 4177   1.095   2.146   1.936 -0.5051  0.6315  3.0708
 1026SOL    HW3 4178   1.047   2.003   1.921 -1.7575  1.3110  0.2438
 1026SOL    MW4 4179   1.105   2.061   1.952 -0.7298  0.1137  0.6034
 1027SOL     OW 4180   1.074   2.319   1.871  0.3650 -0.4271 -0.0350
 1027SOL    HW2 4181   1.150   2.371   1.895 -0.4055  0.2064  1.0698
 1027SOL    HW3 4182   1.076   2.316   1.775  1.1413  0.5295 -0.0527
 1027SOL    MW4 4183   1.084   2.325   1.862  0.3657 -0.2172  0.1085
 1028SOL     OW 4184   0.893   2.488   1.963 -0.0292  0.2440 -0.0913
 1028SOL    HW2 4185   0.957   2.424   1.932  0.9142 -0.2436  2.6678
 1028SOL    HW3 4186   0.809   2.455   1.934  0.3500 -2.7462  1.9333
 1028SOL    MW4 4187   0.891   2.475   1.955  0.1453 -0.2148  0.5399
 1029SOL     OW 4188   0.905   2.774   1.909  0.3226 -0.1102 -0.0627
 1029SOL    HW2 4189   0.899   2.679   1.924  1.9337 -0.2140 -0.0514
 1029SOL    HW3 4190   0.818   2.807   1.934 -0.9709 -1.8271 -2.1163
 1029SOL    MW4 4191   0.892   2.766   1.915  0.3645 -0.3505 -0.3321
 1030SOL     OW 4192   1.153   2.867   2.010  0.2814  0.3284 -0.2431
 1030SOL    HW2 4193   1.141   2.874   2.105 -1.0434  1.7497 -0.4996
 1030SOL    HW3 4194   1.067   2.838   1.978  1.1220 -1.5644 -0.8859
 1030SOL    MW4 4195   1.140   2.864   2.018  0.2174  0.2658 -0.3619
 1031SOL     OW 4196   1.170   3.134   1.898 -0.3549 -0.3293 -0.3108
 1031SOL    HW2 4197   1.099   3.181   1.941  1.2837  0.0718  2.0820
 1031SOL    HW3 4198   1.165   3.045   1.932 -0.1177 -0.4757 -0.6491
 1031SOL    MW4 4199   1.160   3.128   1.908 -0.1075 -0.2959 -0.0397
 1032SOL     OW 4200   0.953   3.272   1.982  0.0002 -0.5990  0.3942
 1032SOL    HW2 4201   0.946   3.253   2.076  0.7422 -0.3885  0.4945
 1032SOL    HW3 4202   0.906   3.201   1.939  1.8808 -2.1267  0.8098
 1032SOL    MW4 4203   0.946   3.260   1.989  0.3461 -0.7727  0.4623
 1033SOL     OW 4204   0.892   3.508   1.852 -0.3752 -0.5351  0.3417
 1033SOL    HW2 4205   0.891   3.493   1.757  0.1983  0.6317  0.1402
 1033SOL    HW3 4206   0.915   3.422   1.889  1.3039 -0.5615 -0.6912
 1033SOL    MW4 4207   0.895   3.495   1.844 -0.0780 -0.3843  0.1789
 1034SOL     OW 4208   1.117   3.640   1.947 -0.3988  0.4634  0.2414
 1034SOL    HW2 4209   1.106   3.628   2.041  1.0366 -2.6897  0.0676
 1034SOL    HW3 4210   1.042   3.596   1.908  0.4420 -0.6807 -0.1360
 1034SOL    MW4 4211   1.106   3.633   1.954 -0.0986 -0.1035  0.1687
 1035SOL     OW 4212   1.121   3.891   1.827 -0.2280 -0.0003  0.1160
 1035SOL    HW2 4213   1.120   3.802   1.863  2.6043 -0.1740 -0.1263
 1035SOL    HW3 4214   1.146   3.880   1.735  1.7611  1.1635  0.4971
 1035SOL    MW4 4215   1.124   3.878   1.820  0.4083  0.1304  0.1343
 1036SOL     OW 4216   0.902   4.035   1.935  0.2796  0.4373  0.2524
 1036SOL    HW2 4217   0.899   4.016   2.029 -1.8229 -0.8823 -0.0532
 1036SOL    HW3 4218   0.978   3.986   1.903  1.9232  2.0915  1.4700
 1036SOL    MW4 4219   0.912   4.026   1.943  0.2190  0.4816  0.3726
 1037SOL     OW 4220   0.872   4.284   1.843 -0.0152  0.2052 -0.1607
 1037SOL    HW2 4221   0.934   4.338   1.892  0.8930 -0.3093 -0.7283
 1037SOL    HW3 4222   0.880   4.197   1.883 -0.7599  0.2572  0.1077
 1037SOL    MW4 4223   0.882   4.280   1.855  0.0064  0.1445 -0.2002
 1038SOL     OW 4224   1.083   4.426   1.971 -0.4814  0.1560  0.4703
 1038SOL    HW2 4225   1.086   4.423   2.067 -0.3003  2.8126  0.5766
 1038SOL    HW3 4226   1.168   4.392   1.943 -0.6121 -0.8155  1.2360
 1038SOL    MW4 4227   1.095   4.421   1.980 -0.4747  0.3781  0.5852
 1039SOL     OW 4228   1.547   4.641   1.868  0.0275  0.0804 -0.0763
 1039SOL    HW2 4229   1.624   4.688   1.899  0.5545  0.1062 -1.4116
 1039SOL    HW3 4230   1.558   4.552   1.900  0.5002  0.1413 -0.0727
 1039SOL    MW4 4231   1.559   4.635   1.876  0.1594  0.0916 -0.2520
 1040SOL     OW 4232   1.325   0.111   1.955 -0.3208 -0.1073  0.3165
 1040SOL    HW2 4233   1.330   0.107   2.051 -0.4691 -0.0961  0.3244
 1040SOL    HW3 4234   1.396   0.055   1.925  0.9442  1.4001  0.4469
 1040SOL    MW4 4235   1.335   0.103   1.964 -0.1734  0.0931  0.3346
 1041SOL     OW 4236   1.371   0.389   1.884  0.3443  0.0881 -0.4783
 1041SOL    HW2 4237   1.352   0.296   1.897  0.3551 -0.0252 -1.2639
 1041SOL    HW3 4238   1.373   0.400   1.789 -0.2896  1.0235 -0.3897
 1041SOL    MW4 4239   1.369   0.378   1.874  0.2621  0.1966 -0.5703
 1042SOL     OW 4240   1.591   0.536   1.956 -0.6673 -0.3889 -0.1417
 1042SOL    HW2 4241   1.677   0.498   1.943 -0.5048 -0.7278  1.7538
 1042SOL    HW3 4242   1.531   0.461   1.959 -0.6729 -0.3379  1.1542
 1042SOL    MW4 4243   1.594   0.521   1.955 -0.6467 -0.4269  0.2793
 1043SOL     OW 4244   1.548   0.787   1.854 -0.0707  0.3977  0.0136
 1043SOL    HW2 4245   1.626   0.825   1.893  0.1558  0.1431 -0.1958
 1043SOL    HW3 4246   1.557   0.693   1.867  0.1798  0.2830 -0.9783
 1043SOL    MW4 4247   1.559   0.780   1.861 -0.0077  0.3489 -0.1450
 1044SOL     OW 4248   1.310   0.854   1.958 -0.2710  0.5258 -0.6643
 1044SOL    HW2 4249   1.309   0.858   2.054 -0.4179  0.0672 -0.6476
 1044SOL    HW3 4250   1.394   0.813   1.937 -0.1643  0.7803 -0.7391
 1044SOL    MW4 4251   1.321   0.849   1.968 -0.2763  0.4988 -0.6721
 1045SOL     OW 4252   1.331   1.130   1.883 -0.8865 -0.2528  0.4112
 1045SOL    HW2 4253   1.324   1.035   1.896  0.7821 -0.2172  1.6011
 1045SOL    HW3 4254   1.248   1.164   1.917 -1.2582 -1.2195  0.5048
 1045SOL    MW4 4255   1.319   1.122   1.889 -0.7154 -0.3756  0.5805
 1046SOL     OW 4256   1.533   1.304   1.990  0.0785 -0.1380 -0.2639
 1046SOL    HW2 4257   1.527   1.390   1.949 -0.8460 -0.5328 -0.9910
 1046SOL    HW3 4258   1.462   1.253   1.950 -0.0259 -0.9315  0.8831
 1046SOL    MW4 4259   1.523   1.308   1.979 -0.0572 -0.2948 -0.2085
 1047SOL     OW 4260   1.564   1.564   1.840 -0.3572  0.0215 -0.0394
 1047SOL    HW2 4261   1.629   1.600   1.900 -0.5858  1.4475 -0.6365
 1047SOL    HW3 4262   1.482   1.608   1.864 -0.6830 -0.2483 -0.6451
 1047SOL    MW4 4263   1.561   1.574   1.852 -0.4303  0.1739 -0.1981
 1048SOL     OW 4264   1.331   1.684   1.937 -0.4369 -0.5311  0.0835
 1048SOL    HW2 4265   1.326   1.688   2.032  0.8753 -1.7944  0.2167
 1048SOL    HW3 4266   1.259   1.626   1.911 -0.3319 -0.7832  0.3537
 1048SOL    MW4 4267   1.321   1.677   1.946 -0.2499 -0.7311  0.1366
 1049SOL     OW 4268   1.364   1.967   1.859 -0.2313 -0.1125 -0.4003
 1049SOL    HW2 4269   1.360   1.874   1.884  0.3210  0.3176  1.3065
 1049SOL    HW3 4270   1.281   2.003   1.891 -0.1523  0.1375 -0.4794
 1049SOL    MW4 4271   1.352   1.959   1.867 -0.1481 -0.0226 -0.1855
 1050SOL     OW 4272   1.585   2.090   1.930 -0.1720 -0.0237  0.0888
 1050SOL    HW2 4273   1.571   2.182   1.910  0.1603 -0.0353 -0.2095
 1050SOL    HW3 4274   1.504   2.046   1.905 -0.7655  0.3455  1.2972
 1050SOL    MW4 4275   1.573   2.097   1.924 -0.2065  0.0236  0.2090
 1051SOL     OW 4276   1.549   2.364   1.871  0.4674 -0.3171 -0.1170
 1051SOL    HW2 4277   1.618   2.409   1.920  0.2645 -2.3015  2.0835
 1051SOL    HW3 4278   1.571   2.380   1.779  2.2983  1.3700  0.5662
 1051SOL    MW4 4279   1.561   2.372   1.865  0.6824 -0.3562  0.2636
 1052SOL     OW 4280   1.294   2.456   1.946  0.2422  0.2869  0.6459
 1052SOL    HW2 4281   1.291   2.546   1.911  2.2403  0.0255 -0.2649
 1052SOL    HW3 4282   1.379   2.423   1.919 -0.4503 -1.8814  1.0415
 1052SOL    MW4 4283   1.305   2.464   1.938  0.4145 -0.0336  0.5778
 1053SOL     OW 4284   1.353   2.729   1.896 -0.2011  0.1735  0.5044
 1053SOL    HW2 4285   1.277   2.774   1.933 -0.9683 -0.7885  0.1181
 1053SOL    HW3 4286   1.348   2.745   1.802  1.0428  1.5407  0.6379
 1053SOL    MW4 4287   1.343   2.737   1.888 -0.1382  0.2270  0.4711
 1054SOL     OW 4288   1.599   2.838   1.978  0.6548  0.1318  0.0159
 1054SOL    HW2 4289   1.674   2.798   1.932  1.0754  0.1031  0.7185
 1054SOL    HW3 4290   1.522   2.794   1.941  1.0743 -0.8238  0.2771
 1054SOL    MW4 4291   1.599   2.827   1.967  0.7656  0.0019  0.1432
 1055SOL     OW 4292   1.589   3.115   1.892 -0.6006  0.1999 -0.1006
 1055SOL    HW2 4293   1.579   3.022   1.916  0.7438 -0.2246 -1.1288
 1055SOL    HW3 4294   1.595   3.114   1.796 -0.2495  1.3077 -0.0907
 1055SOL    MW4 4295   1.589   3.102   1.883 -0.3768  0.2902 -0.2348
 1056SOL     OW 4296   1.383   3.286   1.991  0.3690 -0.0526 -0.2701
 1056SOL    HW2 4297   1.461   3.241   1.957 -0.2786  0.9064 -3.2241
 1056SOL    HW3 4298   1.312   3.225   1.972  0.1133  0.0547  0.3505
 1056SOL    MW4 4299   1.384   3.272   1.984  0.2497  0.0885 -0.5779
 1057SOL     OW 4300   1.338   3.515   1.829 -0.0091 -0.0636 -0.1453
 1057SOL    HW2 4301   1.369   3.446   1.888  3.3369  3.0312  1.9481
 1057SOL    HW3 4302   1.254   3.542   1.866  0.5380 -0.3673  1.3755
 1057SOL    MW4 4303   1.331   3.509   1.842  0.5045  0.3047  0.3315
 1058SOL     OW 4304   1.554   3.655   1.944  0.3135  0.2276  0.4664
 1058SOL    HW2 4305   1.541   3.646   2.039 -1.2421  1.3106  0.3779
 1058SOL    HW3 4306   1.475   3.616   1.906  0.7783  0.1174 -0.3823
 1058SOL    MW4 4307   1.542   3.649   1.952  0.1698  0.3557  0.3428
 1059SOL     OW 4308   1.552   3.934   1.909 -0.4543 -0.3623  0.3533
 1059SOL    HW2 4309   1.641   3.961   1.932  0.1885 -1.7563 -0.4567
 1059SOL    HW3 4310   1.553   3.839   1.918 -1.5928 -0.4726 -0.5930
 1059SOL    MW4 4311   1.564   3.925   1.913 -0.5198 -0.5605  0.1216
 1060SOL     OW 4312   1.300   4.051   1.962 -0.8168 -0.2234  0.2651
 1060SOL    HW2 4313   1.377   3.997   1.947 -0.5265  0.5221 -1.1214
 1060SOL    HW3 4314   1.234   4.015   1.903 -1.0331  0.0892  0.3126
 1060SOL    MW4 4315   1.301   4.039   1.952 -0.8070 -0.0839  0.0885
 1061SOL     OW 4316   1.310   4.302   1.882  0.2668 -0.1079  0.1894
 1061SOL    HW2 4317   1.302   4.217   1.926 -1.0210  0.2787  0.7385
 1061SOL    HW3 4318   1.305   4.281   1.788 -0.7103 -0.5788  0.3395
 1061SOL    MW4 4319   1.308   4.288   1.875 -0.0321 -0.1187  0.2817
 1062SOL     OW 4320   1.571   4.380   1.945  0.0117 -0.4420 -0.1046
 1062SOL    HW2 4321   1.557   4.386   2.040  0.9783  0.4196 -0.0026
 1062SOL    HW3 4322   1.492   4.338   1.912 -0.3923 -0.6425  1.0735
 1062SOL    MW4 4323   1.559   4.375   1.953  0.0859 -0.3548  0.0643
 1063SOL     OW 4324   1.981   4.621   1.849 -0.2550  0.1154  0.4068
 1063SOL    HW2 4325   2.058   4.669   1.880 -0.3754  0.3756  0.3043
 1063SOL    HW3 4326   1.993   4.532   1.881 -0.0639  0.2332  0.6583
 1063SOL    MW4 4327   1.992   4.615   1.857 -0.2456  0.1659  0.4265
 1064SOL     OW 4328   1.783   0.123   1.961 -0.0887 -0.4033  0.0574
 1064SOL    HW2 4329   1.782   0.115   2.057  0.5041 -0.5041  0.0571
 1064SOL    HW3 4330   1.862   0.077   1.934  0.2296  0.4133 -0.4150
 1064SOL    MW4 4331   1.793   0.116   1.970  0.0315 -0.3088 -0.0049
 1065SOL     OW 4332   1.825   0.399   1.874 -0.1454 -0.4086 -0.3159
 1065SOL    HW2 4333   1.803   0.306   1.885  1.9026 -0.8962 -0.0649
 1065SOL    HW3 4334   1.822   0.413   1.779 -0.5607 -0.7094 -0.3495
 1065SOL    MW4 4335   1.822   0.389   1.863  0.0701 -0.5126 -0.2871
 1066SOL     OW 4336   2.031   0.581   1.956  0.0585 -0.3100  0.0362
 1066SOL    HW2 4337   2.004   0.672   1.943 -0.0701 -0.5069 -1.1790
 1066SOL    HW3 4338   1.954   0.530   1.931 -0.5405 -0.7197  2.5806
 1066SOL    MW4 4339   2.017   0.587   1.951 -0.0374 -0.3901  0.2116
 1067SOL     OW 4340   2.000   0.868   1.851  0.1677 -0.9513  0.3121
 1067SOL    HW2 4341   2.092   0.865   1.878  0.5832 -0.6453 -1.0298
 1067SOL    HW3 4342   2.002   0.846   1.758 -1.1409 -1.1174  0.3225
 1067SOL    MW4 4343   2.013   0.865   1.842  0.0498 -0.9328  0.1364
 1068SOL     OW 4344   1.764   0.924   1.971 -0.4208  0.2000  0.3599
 1068SOL    HW2 4345   1.748   1.014   1.943  0.5173  1.3309  3.2339
 1068SOL    HW3 4346   1.854   0.905   1.945  0.1521  0.9324  1.7592
 1068SOL    MW4 4347   1.773   0.933   1.964 -0.2215  0.4459  0.9238
 1069SOL     OW 4348   1.779   1.188   1.864  0.4634  0.1031  0.4930
 1069SOL    HW2 4349   1.715   1.219   1.928 -0.0668  1.7923 -0.8207
 1069SOL    HW3 4350   1.861   1.228   1.891  0.3556  0.3490  0.4594
 1069SOL    MW4 4351   1.781   1.197   1.876  0.3792  0.3585  0.3152
 1070SOL     OW 4352   2.010   1.294   1.948  0.0603  0.1359 -0.1845
 1070SOL    HW2 4353   2.086   1.246   1.916  0.8901  0.5862  1.0985
 1070SOL    HW3 4354   2.012   1.283   2.043 -1.3155  0.3839 -0.1146
 1070SOL    MW4 4355   2.020   1.287   1.956 -0.0119  0.2280 -0.0061
 1071SOL     OW 4356   2.006   1.593   1.900 -0.7863 -0.1984 -0.0336
 1071SOL    HW2 4357   2.012   1.498   1.906 -1.6207 -0.3708 -1.5895
 1071SOL    HW3 4358   2.015   1.611   1.806  0.4328  1.3377  0.3616
 1071SOL    MW4 4359   2.008   1.583   1.888 -0.7358 -0.0185 -0.1867
 1072SOL     OW 4360   1.768   1.701   1.985 -0.0229  0.0896  0.1381
 1072SOL    HW2 4361   1.771   1.779   1.930  2.3120 -1.5087 -2.1222
 1072SOL    HW3 4362   1.847   1.653   1.962 -0.2552 -1.8328  3.1693
 1072SOL    MW4 4363   1.778   1.705   1.975  0.2545 -0.3749  0.2398
 1073SOL     OW 4364   1.797   1.942   1.825 -0.4239 -0.3708 -0.4028
 1073SOL    HW2 4365   1.718   1.984   1.859 -0.5025 -0.5673 -0.3430
 1073SOL    HW3 4366   1.774   1.917   1.736 -0.5672 -0.7941 -0.2503
 1073SOL    MW4 4367   1.783   1.944   1.818 -0.4532 -0.4526 -0.3748
 1074SOL     OW 4368   1.973   2.100   1.956  0.2228  0.1061  0.2521
 1074SOL    HW2 4369   2.053   2.058   1.925  0.4398 -0.0453  1.0069
 1074SOL    HW3 4370   1.902   2.048   1.919  0.4841 -0.2852  0.2994
 1074SOL    MW4 4371   1.974   2.088   1.947  0.2859  0.0346  0.3580
 1075SOL     OW 4372   2.024   2.360   1.841  0.3200 -0.1145  0.0743
 1075SOL    HW2 4373   2.105   2.384   1.886  0.8083 -0.1436 -0.7759
 1075SOL    HW3 4374   2.011   2.268   1.863  1.3718 -0.5426 -1.0670
 1075SOL    MW4 4375   2.033   2.351   1.850  0.5233 -0.1750 -0.1884
 1076SOL     OW 4376   1.782   2.482   1.973 -0.0508  0.0183 -0.4437
 1076SOL    HW2 4377   1.790   2.482   2.069 -1.7686  1.1073 -0.2908
 1076SOL    HW3 4378   1.855   2.427   1.944  0.6188 -0.1675  1.4746
 1076SOL    MW4 4379   1.793   2.474   1.982 -0.1892  0.1373 -0.1704
 1077SOL     OW 4380   1.824   2.738   1.841  0.6113 -0.1668  0.1591
 1077SOL    HW2 4381   1.815   2.649   1.876  0.1169 -0.0951  0.2198
 1077SOL    HW3 4382   1.817   2.727   1.746  1.9075 -0.3545  0.0688
 1077SOL    MW4 4383   1.822   2.724   1.833  0.7170 -0.1819  0.1552
 1078SOL     OW 4384   2.045   2.825   1.983  0.1239  0.2100 -0.4559
 1078SOL    HW2 4385   2.028   2.810   2.076 -0.7978 -0.9153 -0.7923
 1078SOL    HW3 4386   1.964   2.799   1.939  1.2171 -1.1117 -1.7368
 1078SOL    MW4 4387   2.032   2.820   1.990  0.1466 -0.1128 -0.6695
 1079SOL     OW 4388   2.020   3.091   1.840 -0.7374 -0.0801 -0.0619
 1079SOL    HW2 4389   1.949   3.128   1.893 -0.5485 -0.5235  0.5077
 1079SOL    HW3 4390   2.044   3.011   1.886  1.3169  0.9596  0.7240
 1079SOL    MW4 4391   2.014   3.086   1.853 -0.4416 -0.0017  0.1168
 1080SOL     OW 4392   1.815   3.246   1.969  0.3713  0.5700 -0.1368
 1080SOL    HW2 4393   1.814   3.247   2.065  2.3490 -1.3894 -0.0419
 1080SOL    HW3 4394   1.740   3.192   1.945  1.5491 -1.3786  0.4405
 1080SOL    MW4 4395   1.805   3.239   1.978  0.7875  0.0546 -0.0483
 1081SOL     OW 4396   1.775   3.516   1.874  0.1514  0.1758 -0.2393
 1081SOL    HW2 4397   1.773   3.431   1.918 -0.9758 -0.0524 -0.7359
 1081SOL    HW3 4398   1.692   3.558   1.897  0.2366  0.7010 -0.8642
 1081SOL    MW4 4399   1.764   3.510   1.883  0.0141  0.2151 -0.3871
 1082SOL     OW 4400   2.005   3.636   1.969  0.1713  0.1916  0.1561
 1082SOL    HW2 4401   2.015   3.715   1.916 -0.6954  0.0996 -0.1503
 1082SOL    HW3 4402   1.923   3.596   1.938  0.4576 -0.6743  0.5027
 1082SOL    MW4 4403   1.995   3.641   1.958  0.0949  0.0651  0.1615
 1083SOL     OW 4404   2.030   3.892   1.841  0.3722 -0.0064 -0.2641
 1083SOL    HW2 4405   2.116   3.927   1.865 -0.3655  1.4172  0.4503
 1083SOL    HW3 4406   1.970   3.933   1.904 -0.8472 -0.8454 -0.8595
 1083SOL    MW4 4407   2.034   3.902   1.853  0.1140  0.0708 -0.2483
 1084SOL     OW 4408   1.791   4.010   1.992  0.6230  0.7754  0.1456
 1084SOL    HW2 4409   1.798   4.099   1.958  1.1413  0.8799  0.5184
 1084SOL    HW3 4410   1.795   4.019   2.087  0.4735  0.3719  0.1925
 1084SOL    MW4 4411   1.793   4.023   2.000  0.6717  0.7358  0.2009
 1085SOL     OW 4412   1.809   4.253   1.874 -0.5603 -0.3894 -0.2911
 1085SOL    HW2 4413   1.717   4.281   1.882 -0.1428  1.2450 -1.0272
 1085SOL    HW3 4414   1.822   4.241   1.780 -0.1441 -1.0414 -0.1464
 1085SOL    MW4 4415   1.798   4.255   1.863 -0.4503 -0.2604 -0.3690
 1086SOL     OW 4416   2.059   4.381   1.970  0.2819 -0.5019  0.0478
 1086SOL    HW2 4417   2.128   4.347   1.913  1.4628 -0.8049  1.6103
 1086SOL    HW3 4418   1.981   4.331   1.946  1.0247 -1.4015 -0.5225
 1086SOL    MW4 4419   2.058   4.370   1.959  0.5357 -0.6609  0.1787
 1087SOL     OW 4420   2.429   0.002   1.860  0.0173 -0.3440 -0.0284
 1087SOL    HW2 4421   2.506   0.050   1.889 -0.2846 -0.0906  0.3596
 1087SOL    HW3 4422   2.445  -0.088   1.888  0.5101 -0.4467 -0.6151
 1087SOL    MW4 4423   2.441  -0.004   1.867  0.0424 -0.3247 -0.0546
 1088SOL     OW 4424   2.194   0.131   1.954  0.2775  0.1852 -0.0560
 1088SOL    HW2 4425   2.210   0.134   2.049 -0.2438 -0.5529  0.0581
 1088SOL    HW3 4426   2.270   0.083   1.919  0.9186  1.2342 -0.1197
 1088SOL    MW4 4427   2.206   0.125   1.962  0.2933  0.2262 -0.0494
 1089SOL     OW 4428   2.211   0.380   1.837  0.0474  0.0050 -0.8130
 1089SOL    HW2 4429   2.192   0.295   1.877  0.8848 -0.4222 -1.3107
 1089SOL    HW3 4430   2.153   0.441   1.882  2.7386 -0.0090  2.8906
 1089SOL    MW4 4431   2.201   0.377   1.848  0.5131 -0.0532 -0.3899
 1090SOL     OW 4432   2.434   0.498   2.001 -0.4228  0.0217 -0.4125
 1090SOL    HW2 4433   2.516   0.475   1.956 -0.1957  2.8987 -1.6130
 1090SOL    HW3 4434   2.365   0.458   1.947  0.1234 -1.1214 -0.2645
 1090SOL    MW4 4435   2.436   0.490   1.988 -0.3207  0.2505 -0.5513
 1091SOL     OW 4436   2.457   0.734   1.846  0.2642 -0.3182  0.5317
 1091SOL    HW2 4437   2.440   0.645   1.876  2.8303 -0.2635  2.3287
 1091SOL    HW3 4438   2.488   0.724   1.756  0.4403 -1.2364  0.6882
 1091SOL    MW4 4439   2.459   0.721   1.838  0.6258 -0.4321  0.7894
 1092SOL     OW 4440   2.262   0.911   1.932  0.3914  0.1305 -0.0255
 1092SOL    HW2 4441   2.268   0.891   2.026  1.2473  1.5438  0.2365
 1092SOL    HW3 4442   2.325   0.852   1.891  1.3975  0.8124  0.5058
 1092SOL    MW4 4443   2.271   0.901   1.939  0.6371  0.4069  0.0792
 1093SOL     OW 4444   2.234   1.168   1.861  0.1887  0.1624 -0.4420
 1093SOL    HW2 4445   2.300   1.227   1.898 -1.8802  0.8433  2.3472
 1093SOL    HW3 4446   2.256   1.082   1.898 -1.7050  0.7897  2.2941
 1093SOL    MW4 4447   2.246   1.164   1.871 -0.3340  0.3350  0.2869
 1094SOL     OW 4448   2.429   1.291   1.995  0.0601 -0.0389  0.3660
 1094SOL    HW2 4449   2.415   1.301   2.089 -1.8795  0.3857  0.0389
 1094SOL    HW3 4450   2.440   1.381   1.963 -1.1508 -0.0421 -0.0838
 1094SOL    MW4 4451   2.429   1.304   2.003 -0.3555  0.0168  0.2635
 1095SOL     OW 4452   2.469   1.553   1.902 -0.2147 -0.0220 -0.0996
 1095SOL    HW2 4453   2.392   1.599   1.936 -0.0226 -0.1107  0.4723
 1095SOL    HW3 4454   2.460   1.557   1.807 -1.4115 -0.8287 -0.0381
 1095SOL    MW4 4455   2.458   1.560   1.894 -0.3471 -0.1401 -0.0161
 1096SOL     OW 4456   2.246   1.711   1.977 -0.2365  0.4668 -0.4633
 1096SOL    HW2 4457   2.248   1.719   2.072 -0.0847  0.7694 -0.4943
 1096SOL    HW3 4458   2.171   1.653   1.960 -0.3895  0.5802 -0.1743
 1096SOL    MW4 4459   2.236   1.704   1.987 -0.2367  0.5218 -0.4292
 1097SOL     OW 4460   2.205   1.980   1.886 -0.1744 -0.0082 -0.9530
 1097SOL    HW2 4461   2.281   2.025   1.923 -1.2778 -0.5316  2.1340
 1097SOL    HW3 4462   2.212   1.891   1.921 -0.7165 -0.8409 -2.9250
 1097SOL    MW4 4463   2.216   1.974   1.895 -0.3917 -0.1872 -0.8057
 1098SOL     OW 4464   2.467   2.030   1.966 -0.3641 -0.3916  0.1975
 1098SOL    HW2 4465   2.512   1.975   1.902 -1.6338  0.2576 -1.2668
 1098SOL    HW3 4466   2.494   2.120   1.944 -0.4709 -0.1961  0.8433
 1098SOL    MW4 4467   2.477   2.035   1.955 -0.5455 -0.2801  0.0894
 1099SOL     OW 4468   2.497   2.296   1.871 -0.1386  0.1503 -0.1534
 1099SOL    HW2 4469   2.569   2.351   1.903  0.2129 -1.7268  2.4536
 1099SOL    HW3 4470   2.418   2.347   1.892  0.3289  1.2618 -1.0603
 1099SOL    MW4 4471   2.496   2.310   1.878 -0.0303  0.0494  0.0707
 1100SOL     OW 4472   2.261   2.431   1.945 -0.1076  0.4370 -0.5142
 1100SOL    HW2 4473   2.262   2.435   2.041  0.6016 -1.1257 -0.4339
 1100SOL    HW3 4474   2.274   2.521   1.917  0.1337  0.8472  0.8730
 1100SOL    MW4 4475   2.263   2.443   1.954  0.0179  0.2849 -0.3207
 1101SOL     OW 4476   2.268   2.700   1.855 -0.2306 -0.4660 -0.1758
 1101SOL    HW2 4477   2.185   2.730   1.892  0.0522 -0.7731  0.7260
 1101SOL    HW3 4478   2.254   2.699   1.761 -1.3920 -0.9459 -0.0006
 1101SOL    MW4 4479   2.255   2.704   1.848 -0.3464 -0.5701 -0.0337
 1102SOL     OW 4480   2.511   2.814   1.937  0.2335 -0.2279 -0.1768
 1102SOL    HW2 4481   2.502   2.909   1.923 -0.9082 -0.0780  1.4007
 1102SOL    HW3 4482   2.432   2.777   1.899  0.2410 -0.4530  0.0289
 1102SOL    MW4 4483   2.499   2.822   1.930  0.0837 -0.2379  0.0585
 1103SOL     OW 4484   2.497   3.083   1.890 -0.1428  0.5158 -0.2474
 1103SOL    HW2 4485   2.425   3.137   1.924 -2.4379 -3.0986  0.9130
 1103SOL    HW3 4486   2.494   3.095   1.796 -2.1389  0.6236 -0.1933
 1103SOL    MW4 4487   2.487   3.092   1.882 -0.7091  0.0532 -0.0871
 1104SOL     OW 4488   2.261   3.237   1.932 -0.1179 -0.2195 -0.9257
 1104SOL    HW2 4489   2.256   3.243   2.027  2.6976 -1.9162 -0.6039
 1104SOL    HW3 4490   2.177   3.197   1.906 -0.0422 -1.7331  1.0527
 1104SOL    MW4 4491   2.249   3.232   1.941  0.2635 -0.6433 -0.6222
 1105SOL     OW 4492   2.225   3.496   1.856  0.0468  0.5148  0.3618
 1105SOL    HW2 4493   2.233   3.404   1.878 -0.0319 -0.1408 -2.1404
 1105SOL    HW3 4494   2.152   3.528   1.909 -0.9673 -1.2831  0.0788
 1105SOL    MW4 4495   2.216   3.488   1.866 -0.0975  0.1912 -0.0056
 1106SOL     OW 4496   2.435   3.640   1.968 -0.0913 -1.0641  0.2385
 1106SOL    HW2 4497   2.437   3.606   2.057 -1.3583 -1.2724  0.2055
 1106SOL    HW3 4498   2.350   3.611   1.934 -0.1326  0.0430 -0.6232
 1106SOL    MW4 4499   2.424   3.632   1.975 -0.2637 -0.9453  0.1204
 1107SOL     OW 4500   2.465   3.881   1.833 -0.2314  0.4883  0.1859
 1107SOL    HW2 4501   2.393   3.934   1.868 -1.3451 -1.2673  0.6369
 1107SOL    HW3 4502   2.453   3.795   1.874  1.9928  0.1099  0.0579
 1107SOL    MW4 4503   2.454   3.876   1.843 -0.0849  0.2072  0.2285
 1108SOL     OW 4504   2.248   4.025   1.926 -0.1576  0.1897  0.6721
 1108SOL    HW2 4505   2.262   4.025   2.021  0.8815  1.4029  0.5286
 1108SOL    HW3 4506   2.246   4.118   1.902 -0.6241 -0.1037 -0.4714
 1108SOL    MW4 4507   2.250   4.038   1.935 -0.0820  0.3114  0.5023
 1109SOL     OW 4508   2.251   4.272   1.814 -0.4870  0.1897 -0.3591
 1109SOL    HW2 4509   2.327   4.309   1.859 -0.3297  0.9152 -1.2013
 1109SOL    HW3 4510   2.274   4.277   1.721 -1.7003  0.7268 -0.6443
 1109SOL    MW4 4511   2.264   4.277   1.808 -0.6263  0.3562 -0.5076
 1110SOL     OW 4512   2.478   4.396   1.935 -0.1075  0.2566  0.1697
 1110SOL    HW2 4513   2.482   4.407   2.030  0.6122  0.2847  0.1343
 1110SOL    HW3 4514   2.565   4.366   1.910 -0.0644  0.9758 -0.5795
 1110SOL    MW4 4515   2.490   4.394   1.944 -0.0069  0.3557  0.0663
 1111SOL     OW 4516   2.870   0.022   1.857  0.1632 -0.1716 -0.1920
 1111SOL    HW2 4517   2.935   0.070   1.908 -0.6642  0.5252  0.2109
 1111SOL    HW3 4518   2.892  -0.070   1.870  0.8325  0.0519  0.2575
 1111SOL    MW4 4519   2.881   0.016   1.865  0.1426 -0.0505 -0.0795
 1112SOL     OW 4520   2.641   0.155   1.942 -0.4676  0.6213  0.6668
 1112SOL    HW2 4521   2.646   0.175   2.035  0.7060 -0.3869  0.8337
 1112SOL    HW3 4522   2.726   0.117   1.921  0.0930  2.9238 -1.3370
 1112SOL    MW4 4523   2.653   0.153   1.951 -0.2389  0.7921  0.4243
 1113SOL     OW 4524   2.647   0.408   1.858  0.0691  0.2374  0.1319
 1113SOL    HW2 4525   2.732   0.434   1.892  0.5974 -1.0433 -0.1959
 1113SOL    HW3 4526   2.636   0.317   1.886 -0.6461  0.0028 -0.8803
 1113SOL    MW4 4527   2.657   0.400   1.866  0.0443  0.0374 -0.0449
 1114SOL     OW 4528   2.892   0.494   1.949 -0.6255 -0.0788  0.2838
 1114SOL    HW2 4529   2.978   0.468   1.917 -0.8397 -2.0510  1.2512
 1114SOL    HW3 4530   2.887   0.588   1.929  0.9889 -0.3137 -1.4422
 1114SOL    MW4 4531   2.903   0.503   1.942 -0.4408 -0.3700  0.1836
 1115SOL     OW 4532   2.889   0.769   1.853 -0.2046 -0.3851 -0.3151
 1115SOL    HW2 4533   2.965   0.793   1.905  0.5271  0.2817 -1.6783
 1115SOL    HW3 4534   2.815   0.812   1.896  0.2504 -0.6352  0.7214
 1115SOL    MW4 4535   2.889   0.778   1.865 -0.0482 -0.3301 -0.3583
 1116SOL     OW 4536   2.668   0.879   1.965  0.6338 -0.2321  0.1674
 1116SOL    HW2 4537   2.664   0.961   1.916 -0.9765  0.6647  1.7304
 1116SOL    HW3 4538   2.596   0.827   1.930  0.0437  0.0548  0.9405
 1116SOL    MW4 4539   2.658   0.883   1.954  0.3433 -0.0759  0.4756
 1117SOL     OW 4540   2.659   1.152   1.878  0.1519  0.1230 -0.2931
 1117SOL    HW2 4541   2.578   1.197   1.902  0.5613  0.3502  0.6998
 1117SOL    HW3 4542   2.661   1.156   1.783 -1.1420 -0.1319 -0.3481
 1117SOL    MW4 4543   2.648   1.159   1.869  0.0350  0.1193 -0.1694
 1118SOL     OW 4544   2.867   1.295   1.987  0.0065  0.0283 -0.5959
 1118SOL    HW2 4545   2.888   1.370   1.931  0.5283 -1.2418 -2.1612
 1118SOL    HW3 4546   2.783   1.263   1.954 -0.2085 -0.0814  0.0541
 1118SOL    MW4 4547   2.859   1.300   1.975  0.0470 -0.1537 -0.7167
 1119SOL     OW 4548   2.909   1.512   1.842  0.5601 -0.2999 -0.2537
 1119SOL    HW2 4549   2.984   1.562   1.875  1.1612 -0.4999 -1.3086
 1119SOL    HW3 4550   2.916   1.518   1.747 -1.1515  0.2533 -0.3671
 1119SOL    MW4 4551   2.920   1.520   1.834  0.4137 -0.2533 -0.4079
 1120SOL     OW 4552   2.707   1.662   1.981  0.3718 -0.5966 -0.1067
 1120SOL    HW2 4553   2.772   1.606   1.938  0.0938 -0.8757 -0.1653
 1120SOL    HW3 4554   2.623   1.620   1.961 -0.0223  0.9420 -1.8618
 1120SOL    MW4 4555   2.704   1.649   1.972  0.2830 -0.4303 -0.3459
 1121SOL     OW 4556   2.666   1.885   1.842 -0.2722 -0.1527 -0.0410
 1121SOL    HW2 4557   2.738   1.939   1.874 -0.5917  0.2710 -0.0409
 1121SOL    HW3 4558   2.675   1.802   1.890 -0.8797  0.5491  1.3320
 1121SOL    MW4 4559   2.676   1.881   1.853 -0.3946 -0.0042  0.1402
 1122SOL     OW 4560   2.885   2.044   1.955 -0.3384  0.0560  0.0429
 1122SOL    HW2 4561   2.894   2.052   2.050  0.2650  1.1560 -0.0941
 1122SOL    HW3 4562   2.971   2.012   1.926  0.3584  2.2370 -0.3876
 1122SOL    MW4 4563   2.898   2.041   1.963 -0.1667  0.4892 -0.0319
 1123SOL     OW 4564   2.955   2.305   1.876 -0.1640 -0.1079 -0.1253
 1123SOL    HW2 4565   3.033   2.342   1.916 -1.1547  1.4453  0.4135
 1123SOL    HW3 4566   2.943   2.221   1.920  0.1799  0.4657  1.0793
 1123SOL    MW4 4567   2.964   2.299   1.887 -0.2494  0.1726  0.1047
 1124SOL     OW 4568   2.724   2.451   1.962 -0.0995 -0.2146 -0.4884
 1124SOL    HW2 4569   2.715   2.541   1.930  0.8783  1.3112  3.2880
 1124SOL    HW3 4570   2.795   2.415   1.909 -0.6273  1.1645 -2.1884
 1124SOL    MW4 4571   2.732   2.458   1.951 -0.0401  0.1688 -0.2143
 1125SOL     OW 4572   2.711   2.689   1.814 -0.3551 -0.2459 -0.4320
 1125SOL    HW2 4573   2.637   2.744   1.841  0.7549  0.9536  0.1980
 1125SOL    HW3 4574   2.703   2.683   1.719 -0.6064  0.8279 -0.4857
 1125SOL    MW4 4575   2.700   2.695   1.805 -0.2418  0.0539 -0.3560
 1126SOL     OW 4576   2.931   2.841   1.939 -0.5906 -0.3273  0.3044
 1126SOL    HW2 4577   2.933   2.931   1.907  0.3253 -0.0054  1.2346
 1126SOL    HW3 4578   2.857   2.801   1.894 -0.2727  0.5483 -1.0144
 1126SOL    MW4 4579   2.921   2.848   1.929 -0.4280 -0.1695  0.2532
 1127SOL     OW 4580   2.924   3.108   1.839 -0.0178 -0.3758 -0.2659
 1127SOL    HW2 4581   3.001   3.149   1.879  1.5569 -3.4894  0.0831
 1127SOL    HW3 4582   2.849   3.151   1.880  1.5528  0.7508  1.5033
 1127SOL    MW4 4583   2.924   3.119   1.850  0.3974 -0.6380  0.0137
 1128SOL     OW 4584   2.716   3.228   1.951 -0.2804 -0.2425 -0.2118
 1128SOL    HW2 4585   2.707   3.315   1.913  0.1268 -0.6415 -1.2358
 1128SOL    HW3 4586   2.647   3.176   1.909 -0.4541 -0.4450  0.3153
 1128SOL    MW4 4587   2.705   3.233   1.941 -0.2499 -0.3216 -0.2773
 1129SOL     OW 4588   2.638   3.484   1.863 -0.1865  0.1678  0.0171
 1129SOL    HW2 4589   2.709   3.547   1.872  1.3065 -1.4508 -0.3524
 1129SOL    HW3 4590   2.563   3.527   1.905  1.4096  1.1955  1.8538
 1129SOL    MW4 4591   2.637   3.498   1.870  0.2213  0.0901  0.2106
 1130SOL     OW 4592   2.884   3.586   1.930  0.2599  0.0386  0.2293
 1130SOL    HW2 4593   2.881   3.574   2.025  0.1755  0.1074  0.2351
 1130SOL    HW3 4594   2.904   3.679   1.918 -0.1110  0.1142  0.1802
 1130SOL    MW4 4595   2.886   3.597   1.941  0.2000  0.0577  0.2236
 1131SOL     OW 4596   2.937   3.853   1.869  0.0407 -0.5876 -0.3858
 1131SOL    HW2 4597   2.853   3.889   1.897  0.9615  1.7434 -0.4974
 1131SOL    HW3 4598   2.934   3.856   1.773  0.1592 -0.7296 -0.3946
 1131SOL    MW4 4599   2.926   3.858   1.860  0.1779 -0.2987 -0.4017
 1132SOL     OW 4600   2.703   3.974   1.937 -0.1075  0.1044  0.5779
 1132SOL    HW2 4601   2.685   3.967   2.031 -0.8591 -0.2188  0.4067
 1132SOL    HW3 4602   2.631   3.929   1.895  1.7064 -2.2921 -0.0792
 1132SOL    MW4 4603   2.691   3.967   1.944  0.0327 -0.2544  0.4686
 1133SOL     OW 4604   2.731   4.240   1.834 -0.5469  0.0271 -0.1982
 1133SOL    HW2 4605   2.718   4.150   1.865  2.4030 -0.4985 -0.3509
 1133SOL    HW3 4606   2.697   4.239   1.744 -0.9798 -0.8126 -0.0273
 1133SOL    MW4 4607   2.725   4.228   1.826 -0.2146 -0.1535 -0.1957
 1134SOL     OW 4608   2.953   4.409   1.911 -0.0742  0.0315 -0.0856
 1134SOL    HW2 4609   2.950   4.413   2.006 -0.7826  0.6071 -0.1325
 1134SOL    HW3 4610   2.887   4.345   1.887 -0.4766  0.4972 -0.2304
 1134SOL    MW4 4611   2.944   4.401   1.920 -0.2208  0.1683 -0.1109
 1135SOL     OW 4612   3.282   0.014   1.882 -0.0123  0.3334 -0.2478
 1135SOL    HW2 4613   3.284  -0.077   1.911 -0.1516  0.5737  0.5359
 1135SOL    HW3 4614   3.289   0.009   1.787 -2.8950 -0.6372 -0.4772
 1135SOL    MW4 4615   3.283   0.001   1.873 -0.4110  0.2379 -0.1748
 1136SOL     OW 4616   3.079   0.172   1.963 -0.4134 -0.0649  0.2291
 1136SOL    HW2 4617   3.097   0.163   2.057 -1.3730 -2.0217  0.2491
 1136SOL    HW3 4618   3.156   0.134   1.920  0.6104  1.9881  0.1797
 1136SOL    MW4 4619   3.092   0.166   1.970 -0.4046 -0.0522  0.2254
 1137SOL     OW 4620   3.154   0.417   1.867 -0.4724  0.3673 -0.2248
 1137SOL    HW2 4621   3.137   0.334   1.912  0.2133  0.0128 -0.6058
 1137SOL    HW3 4622   3.135   0.398   1.775  0.8688  0.2771 -0.4937
 1137SOL    MW4 4623   3.149   0.403   1.860 -0.2050  0.3086 -0.3104
 1138SOL     OW 4624   3.384   0.511   2.009 -0.0202 -0.0327  0.6488
 1138SOL    HW2 4625   3.449   0.467   1.954 -0.9684  0.0138 -0.5405
 1138SOL    HW3 4626   3.299   0.479   1.977 -0.6349  0.8574  1.3390
 1138SOL    MW4 4627   3.381   0.501   1.998 -0.2265  0.0908  0.5829
 1139SOL     OW 4628   3.343   0.750   1.862  0.3342 -0.0192 -0.2293
 1139SOL    HW2 4629   3.274   0.806   1.900 -0.8822 -1.0735 -0.8439
 1139SOL    HW3 4630   3.352   0.678   1.924 -0.5285 -0.9138 -1.1231
 1139SOL    MW4 4631   3.335   0.748   1.875  0.0598 -0.2764 -0.4282
 1140SOL     OW 4632   3.117   0.870   1.974 -0.1498  0.4218  0.2796
 1140SOL    HW2 4633   3.143   0.884   2.065 -0.2994  1.2794  0.1985
 1140SOL    HW3 4634   3.093   0.958   1.942  0.7765  0.2767 -0.8614
 1140SOL    MW4 4635   3.117   0.884   1.982 -0.0470  0.5158  0.1184
 1141SOL     OW 4636   3.066   1.117   1.869  0.2154  0.0430 -0.4209
 1141SOL    HW2 4637   3.150   1.152   1.899 -0.1390 -0.0300  0.6727
 1141SOL    HW3 4638   3.001   1.174   1.909 -0.2461  0.5722 -1.8900
 1141SOL    MW4 4639   3.068   1.130   1.878  0.1075  0.1032 -0.4706
 1142SOL     OW 4640   3.291   1.234   1.979 -0.1739  0.3947  0.2851
 1142SOL    HW2 4641   3.296   1.233   2.075 -1.4750 -1.0640  0.3564
 1142SOL    HW3 4642   3.292   1.327   1.956 -0.9151  0.7879  1.7777
 1142SOL    MW4 4643   3.292   1.247   1.989 -0.4435  0.2540  0.4914
 1143SOL     OW 4644   3.316   1.494   1.917  0.0514  0.4866 -0.2851
 1143SOL    HW2 4645   3.399   1.542   1.915  0.1799  0.2398 -1.7183
 1143SOL    HW3 4646   3.253   1.556   1.952  1.0205  0.3887  1.6896
 1143SOL    MW4 4647   3.319   1.508   1.921  0.1962  0.4412 -0.2137
 1144SOL     OW 4648   3.120   1.672   1.971  0.1724 -0.0038 -0.3199
 1144SOL    HW2 4649   3.114   1.673   2.067  0.8687 -0.0024 -0.2729
 1144SOL    HW3 4650   3.121   1.765   1.947 -1.4690 -0.0010 -0.4339
 1144SOL    MW4 4651   3.119   1.685   1.981  0.0477 -0.0032 -0.3287
 1145SOL     OW 4652   3.136   1.947   1.870 -0.0152  0.1299 -0.1671
 1145SOL    HW2 4653   3.206   1.993   1.917 -0.9594  1.9134 -0.4465
 1145SOL    HW3 4654   3.148   1.973   1.778  0.1832 -1.1658 -0.5073
 1145SOL    MW4 4655   3.147   1.957   1.864 -0.1135  0.1943 -0.2488
 1146SOL     OW 4656   3.394   2.082   1.978  0.6350  0.7243 -0.1818
 1146SOL    HW2 4657   3.470   2.026   1.960  0.2786  0.1831 -0.0045
 1146SOL    HW3 4658   3.410   2.161   1.926  0.5972  0.0081 -1.2977
 1146SOL    MW4 4659   3.406   2.085   1.969  0.5829  0.5584 -0.3058
 1147SOL     OW 4660   3.375   2.311   1.562 -0.1749  0.2313  0.8111
 1147SOL    HW2 4661   3.376   2.316   1.658  0.1947  1.4419  0.7482
 1147SOL    HW3 4662   3.401   2.221   1.543  0.5216  0.2023  1.8369
 1147SOL    MW4 4663   3.379   2.300   1.572 -0.0343  0.3872  0.9382
 1148SOL     OW 4664   3.186   2.433   1.952  0.1874  0.3729  0.1674
 1148SOL    HW2 4665   3.200   2.440   2.046  0.1759  0.8838  0.1359
 1148SOL    HW3 4666   3.168   2.523   1.924  0.0600  0.2053 -0.3009
 1148SOL    MW4 4667   3.185   2.446   1.961  0.1690  0.4184  0.1013
 1149SOL     OW 4668   3.152   2.689   1.863 -0.0628 -0.2387  0.2856
 1149SOL    HW2 4669   3.070   2.732   1.883 -0.9149 -1.6579 -0.0891
 1149SOL    HW3 4670   3.151   2.678   1.768 -0.1603 -1.6667  0.4442
 1149SOL    MW4 4671   3.141   2.693   1.853 -0.1881 -0.6142  0.2571
 1150SOL     OW 4672   3.380   2.850   1.953 -0.0870 -0.0279  0.3044
 1150SOL    HW2 4673   3.375   2.857   2.048 -1.1478 -0.8658  0.3167
 1150SOL    HW3 4674   3.307   2.794   1.928  1.0483 -1.0506 -0.8630
 1150SOL    MW4 4675   3.370   2.843   1.962 -0.0770 -0.2737  0.1519
 1151SOL     OW 4676   3.374   3.110   1.865 -0.1249  0.1872 -0.0341
 1151SOL    HW2 4677   3.459   3.148   1.888  1.9004 -2.8518 -2.2874
 1151SOL    HW3 4678   3.371   3.026   1.911 -2.1714  0.4724  0.4361
 1151SOL    MW4 4679   3.384   3.104   1.874 -0.1276 -0.1760 -0.2693
 1152SOL     OW 4680   3.153   3.232   1.962 -0.1540  0.7827  0.0503
 1152SOL    HW2 4681   3.153   3.312   1.911  1.3943  1.2692  0.7976
 1152SOL    HW3 4682   3.233   3.186   1.935 -1.5242 -0.9881 -1.1013
 1152SOL    MW4 4683   3.164   3.236   1.952 -0.1304  0.6132 -0.0030
 1153SOL     OW 4684   3.145   3.492   1.856 -0.0205 -0.0332 -0.0659
 1153SOL    HW2 4685   3.159   3.496   1.761  0.4553 -0.8211 -0.0309
 1153SOL    HW3 4686   3.056   3.525   1.868 -0.2841 -0.4437 -0.8436
 1153SOL    MW4 4687   3.135   3.497   1.845  0.0079 -0.1915 -0.1638
 1154SOL     OW 4688   3.402   3.610   1.964  0.6561 -0.1048 -0.1358
 1154SOL    HW2 4689   3.319   3.568   1.944  1.3038 -0.7836 -1.4334
 1154SOL    HW3 4690   3.396   3.696   1.923  0.1088  0.3349  0.8443
 1154SOL    MW4 4691   3.390   3.616   1.956  0.6692 -0.1364 -0.1777
 1155SOL     OW 4692   3.363   3.860   1.859  0.0662 -0.1627  0.1020
 1155SOL    HW2 4693   3.287   3.912   1.888  0.6724  0.0764  1.2801
 1155SOL    HW3 4694   3.364   3.871   1.764 -1.0350  0.3036  0.1305
 1155SOL    MW4 4695   3.353   3.868   1.850  0.0010 -0.0699  0.2611
 1156SOL     OW 4696   3.142   4.022   1.945 -0.4283  0.3123 -0.0270
 1156SOL    HW2 4697   3.129   4.040   2.038 -0.7475  0.8456 -0.1742
 1156SOL    HW3 4698   3.064   3.973   1.919  0.1860 -0.8450  0.2458
 1156SOL    MW4 4699   3.130   4.018   1.954 -0.3891  0.2298 -0.0104
 1157SOL     OW 4700   3.161   4.259   1.802 -0.4011 -0.0283  0.4117
 1157SOL    HW2 4701   3.155   4.174   1.844 -0.0347  0.1762  0.8818
 1157SOL    HW3 4702   3.080   4.304   1.826 -0.2214  0.0644  0.8475
 1157SOL    MW4 4703   3.150   4.254   1.811 -0.3295  0.0105  0.5313
 1158SOL     OW 4704   3.344   4.404   1.953  0.6148 -0.3532 -0.2287
 1158SOL    HW2 4705   3.426   4.366   1.920  0.5049  0.2381 -1.1753
 1158SOL    HW3 4706   3.275   4.347   1.920  0.6613 -1.0875  0.9084
 1158SOL    MW4 4707   3.346   4.392   1.944  0.6063 -0.3724 -0.2037
 1159SOL     OW 4708   3.802   0.011   1.863  0.6300 -0.3242  0.1283
 1159SOL    HW2 4709   3.805  -0.076   1.901  1.2902 -0.1156  0.5509
 1159SOL    HW3 4710   3.712   0.041   1.878 -0.0795 -1.5809 -1.4858
 1159SOL    MW4 4711   3.790   0.004   1.870  0.6235 -0.4625 -0.0290
 1160SOL     OW 4712   3.557   0.077   1.968 -0.0110  0.2139 -0.2001
 1160SOL    HW2 4713   3.573   0.086   2.062 -0.4995 -2.3548  0.1586
 1160SOL    HW3 4714   3.463   0.058   1.962  0.4585 -1.9363 -1.0261
 1160SOL    MW4 4715   3.546   0.076   1.980 -0.0136 -0.4087 -0.2618
 1161SOL     OW 4716   3.554   0.335   1.893 -0.5721 -0.1002  0.1327
 1161SOL    HW2 4717   3.561   0.247   1.931  1.1647  0.5886  1.5016
 1161SOL    HW3 4718   3.556   0.321   1.798 -1.3377 -1.5928  0.3214
 1161SOL    MW4 4719   3.555   0.321   1.886 -0.4437 -0.2062  0.3381
 1162SOL     OW 4720   3.762   0.507   1.989  0.0374  0.2816  0.0126
 1162SOL    HW2 4721   3.763   0.594   1.949 -0.2324 -0.2860 -1.2504
 1162SOL    HW3 4722   3.687   0.464   1.949  0.5674 -0.7584  0.1408
 1162SOL    MW4 4723   3.753   0.513   1.978  0.0715  0.0695 -0.1371
 1163SOL     OW 4724   3.806   0.758   1.861 -0.4565 -0.0713 -0.0019
 1163SOL    HW2 4725   3.722   0.797   1.886 -0.7420  1.1305 -2.6536
 1163SOL    HW3 4726   3.814   0.777   1.767  2.8628 -0.0253  0.2375
 1163SOL    MW4 4727   3.796   0.766   1.852 -0.0563  0.0933 -0.3201
 1164SOL     OW 4728   3.577   0.883   1.969 -0.1435 -0.2242  0.1433
 1164SOL    HW2 4729   3.585   0.976   1.948 -1.6681 -0.0678  0.2299
 1164SOL    HW3 4730   3.511   0.851   1.908  1.0019 -1.4484 -0.4729
 1164SOL    MW4 4731   3.569   0.891   1.958 -0.1934 -0.3650  0.0734
 1165SOL     OW 4732   3.544   1.148   1.911  0.4768 -0.0276  0.2004
 1165SOL    HW2 4733   3.452   1.167   1.928  0.8857  1.6245  0.6323
 1165SOL    HW3 4734   3.549   1.134   1.817 -0.1269  0.3878  0.1083
 1165SOL    MW4 4735   3.533   1.149   1.901  0.4513  0.2451  0.2452
 1166SOL     OW 4736   3.796   1.242   2.005 -0.1123  0.1020 -0.4076
 1166SOL    HW2 4737   3.777   1.235   2.099 -0.0144 -0.1392 -0.4071
 1166SOL    HW3 4738   3.723   1.196   1.963  0.5152 -0.9203 -0.4027
 1166SOL    MW4 4739   3.784   1.235   2.012 -0.0167 -0.0646 -0.4065
 1167SOL     OW 4740   3.786   1.509   1.909 -0.0632  0.1687 -0.1294
 1167SOL    HW2 4741   3.869   1.557   1.913 -0.0053 -0.0302  1.3836
 1167SOL    HW3 4742   3.807   1.423   1.946 -0.5187 -0.5052 -1.4260
 1167SOL    MW4 4743   3.800   1.504   1.915 -0.1156  0.0536 -0.1010
 1168SOL     OW 4744   3.575   1.653   2.026 -0.0246  0.1773 -0.2760
 1168SOL    HW2 4745   3.584   1.741   1.989 -0.2861 -0.1664 -1.1683
 1168SOL    HW3 4746   3.654   1.607   1.997  0.1646  0.1572  0.2806
 1168SOL    MW4 4747   3.587   1.658   2.017 -0.0339  0.1291 -0.3204
 1169SOL     OW 4748   3.591   1.906   1.913 -0.5522 -0.2707  0.1151
 1169SOL    HW2 4749   3.670   1.957   1.930 -0.5498 -0.0759 -0.4614
 1169SOL    HW3 4750   3.574   1.919   1.819 -2.0854  0.8541  0.5307
 1169SOL    MW4 4751   3.599   1.914   1.903 -0.7544 -0.0967  0.0938
 1170SOL     OW 4752   3.823   2.086   1.940 -0.5455 -0.5213  0.3964
 1170SOL    HW2 4753   3.834   2.168   1.891  0.0058  0.4970  2.1332
 1170SOL    HW3 4754   3.898   2.033   1.915  0.2082  0.3411  0.7471
 1170SOL    MW4 4755   3.835   2.090   1.930 -0.3734 -0.2732  0.6717
 1171SOL     OW 4756   3.836   2.345   1.854 -0.0708 -0.2288 -0.1579
 1171SOL    HW2 4757   3.903   2.399   1.896  1.1749 -1.6028 -0.3664
 1171SOL    HW3 4758   3.753   2.387   1.879  0.8326  1.3480  0.2825
 1171SOL    MW4 4759   3.834   2.358   1.863  0.2127 -0.2019 -0.1273
 1172SOL     OW 4760   3.406   2.309   1.823 -0.1577 -0.0747  0.1794
 1172SOL    HW2 4761   3.474   2.367   1.856  0.3759  1.2253 -3.0036
 1172SOL    HW3 4762   3.324   2.356   1.841  0.0033 -0.1243  1.0598
 1172SOL    MW4 4763   3.404   2.323   1.830 -0.0660  0.0904 -0.1245
 1173SOL     OW 4764   3.621   2.738   1.844  0.4716 -0.0308 -0.5700
 1173SOL    HW2 4765   3.699   2.772   1.888  1.0582 -0.5666 -1.1928
 1173SOL    HW3 4766   3.548   2.783   1.887  1.0462 -0.3857  0.7956
 1173SOL    MW4 4767   3.622   2.748   1.855  0.6247 -0.1485 -0.4718
 1174SOL     OW 4768   3.829   2.820   2.005  0.2898  0.1091  0.0948
 1174SOL    HW2 4769   3.828   2.810   2.100  1.8703  0.2398  0.1381
 1174SOL    HW3 4770   3.822   2.915   1.991  1.4051  0.1997  0.1233
 1174SOL    MW4 4771   3.828   2.832   2.015  0.6456  0.1383  0.1044
 1175SOL     OW 4772   3.827   3.085   1.897  0.3480  0.4705  0.0516
 1175SOL    HW2 4773   3.755   3.138   1.931 -1.1985 -1.3846 -0.2443
 1175SOL    HW3 4774   3.822   3.095   1.802  0.7116  0.6392  0.0492
 1175SOL    MW4 4775   3.817   3.093   1.889  0.1922  0.2480  0.0123
 1176SOL     OW 4776   3.599   3.243   1.953 -0.5929 -0.2403 -0.1991
 1176SOL    HW2 4777   3.581   3.258   2.046 -0.9968 -1.2502 -0.1072
 1176SOL    HW3 4778   3.609   3.331   1.916 -0.5337  0.1693  0.7765
 1176SOL    MW4 4779   3.598   3.257   1.960 -0.6385 -0.3195 -0.0582
 1177SOL     OW 4780   3.632   3.482   1.835  0.5058  0.3341 -0.1509
 1177SOL    HW2 4781   3.691   3.528   1.894  1.0183 -0.7226  0.1811
 1177SOL    HW3 4782   3.545   3.500   1.869  0.8058 -0.4299  1.0624
 1177SOL    MW4 4783   3.629   3.490   1.847  0.6125  0.0939  0.0530
 1178SOL     OW 4784   3.822   3.643   1.956  0.1930 -0.0519  0.5076
 1178SOL    HW2 4785   3.898   3.593   1.926  0.2751 -0.8707  2.0446
 1178SOL    HW3 4786   3.815   3.624   2.049 -0.9452  1.2892  0.7231
 1178SOL    MW4 4787   3.831   3.634   1.964  0.0536  0.0169  0.7387
 1179SOL     OW 4788   3.831   3.890   1.844 -0.1793 -0.1048 -0.2052
 1179SOL    HW2 4789   3.748   3.928   1.876  0.3387 -0.8295  2.1239
 1179SOL    HW3 4790   3.835   3.805   1.887  1.5476 -0.2768 -0.7100
 1179SOL    MW4 4791   3.820   3.884   1.854  0.1168 -0.2232  0.0355
 1180SOL     OW 4792   3.580   4.000   1.949 -0.1622 -0.8337  0.2192
 1180SOL    HW2 4793   3.594   4.001   2.044 -2.2895 -0.2762  0.5503
 1180SOL    HW3 4794   3.516   3.931   1.935  0.8439 -1.5423 -0.9332
 1180SOL    MW4 4795   3.573   3.991   1.960 -0.3102 -0.8535  0.1107
 1181SOL     OW 4796   3.562   4.260   1.860 -1.0559 -0.0576 -0.1135
 1181SOL    HW2 4797   3.647   4.300   1.878 -0.5164 -0.9599 -0.6073
 1181SOL    HW3 4798   3.565   4.177   1.907 -0.5702 -1.3435 -2.3562
 1181SOL    MW4 4799   3.574   4.254   1.869 -0.9205 -0.3457 -0.4745
 1182SOL     OW 4800   3.793   4.403   1.942  0.1251  0.0813  0.1052
 1182SOL    HW2 4801   3.794   4.399   2.038  1.5185  2.9781  0.2841
 1182SOL    HW3 4802   3.878   4.368   1.916  0.1752  0.2653  0.0162
 1182SOL    MW4 4803   3.804   4.398   1.951  0.3154  0.4878  0.1171
 1183SOL     OW 4804   4.271   4.662   1.903 -0.2436  0.2169 -0.0367
 1183SOL    HW2 4805   4.190   4.701   1.936 -0.8318  0.2691 -1.5017
 1183SOL    HW3 4806   4.340   4.715   1.942 -0.8524 -0.4920  2.0984
 1183SOL    MW4 4807   4.269   4.674   1.913 -0.4020  0.1302  0.0519
 1184SOL     OW 4808   4.035   0.113   1.979 -0.8072  0.0783 -0.2280
 1184SOL    HW2 4809   4.023   0.129   2.072 -1.2843 -0.3659 -0.2093
 1184SOL    HW3 4810   3.950   0.080   1.949 -0.8103  0.6862 -0.9210
 1184SOL    MW4 4811   4.022   0.111   1.987 -0.8702  0.0999 -0.3169
 1185SOL     OW 4812   4.016   0.377   1.928  0.0810 -0.7005  0.2573
 1185SOL    HW2 4813   4.012   0.288   1.962 -0.1481 -0.3182  1.2637
 1185SOL    HW3 4814   3.928   0.412   1.943  0.1249 -0.3585 -0.2803
 1185SOL    MW4 4815   4.004   0.370   1.934  0.0563 -0.6049  0.3191
 1186SOL     OW 4816   4.258   0.484   1.988 -0.2499  0.1050 -0.1040
 1186SOL    HW2 4817   4.256   0.479   2.084 -0.7870 -0.4077 -0.1431
 1186SOL    HW3 4818   4.177   0.443   1.960 -0.6396  1.2713 -0.7449
 1186SOL    MW4 4819   4.247   0.478   1.997 -0.3715  0.1913 -0.1937
 1187SOL     OW 4820   4.271   0.736   1.854 -0.4583  0.2863  0.1139
 1187SOL    HW2 4821   4.290   0.648   1.885  1.6753  0.8667  0.5064
 1187SOL    HW3 4822   4.264   0.727   1.759  0.4230 -0.1942  0.0925
 1187SOL    MW4 4823   4.273   0.723   1.845 -0.0606  0.2996  0.1630
 1188SOL     OW 4824   4.055   0.850   2.000 -0.4403  0.3296  0.3456
 1188SOL    HW2 4825   4.134   0.818   1.955 -0.6664 -1.2004  1.0142
 1188SOL    HW3 4826   3.984   0.799   1.962 -0.6588 -0.8163  2.2514
 1188SOL    MW4 4827   4.056   0.839   1.989 -0.4992 -0.0234  0.6851
 1189SOL     OW 4828   4.028   1.116   1.913 -0.2533  0.4877  0.0903
 1189SOL    HW2 4829   4.037   1.030   1.954  1.0570  0.4493 -0.2549
 1189SOL    HW3 4830   3.955   1.158   1.959 -0.3345 -0.4731  0.8385
 1189SOL    MW4 4831   4.020   1.110   1.924 -0.0916  0.3558  0.1435
 1190SOL     OW 4832   4.244   1.264   2.018 -0.3698  0.7193  0.5706
 1190SOL    HW2 4833   4.238   1.280   2.112  0.0266 -2.1855  1.1403
 1190SOL    HW3 4834   4.165   1.214   1.997 -0.8242  1.9794 -0.8071
 1190SOL    MW4 4835   4.233   1.259   2.027 -0.3772  0.5023  0.4644
 1191SOL     OW 4836   4.230   1.530   1.913 -0.4203 -0.2102 -0.1011
 1191SOL    HW2 4837   4.238   1.438   1.938  0.8650 -0.0807 -0.0159
 1191SOL    HW3 4838   4.243   1.530   1.818 -0.2796 -0.1018 -0.0818
 1191SOL    MW4 4839   4.233   1.518   1.904 -0.2317 -0.1788 -0.0873
 1192SOL     OW 4840   4.012   1.663   1.990  0.5581 -0.0887 -0.3742
 1192SOL    HW2 4841   4.006   1.668   2.085  0.2306  0.1865 -0.4066
 1192SOL    HW3 4842   4.087   1.607   1.973  1.0246  0.4136  0.0392
 1192SOL    MW4 4843   4.021   1.656   2.000  0.5765  0.0138 -0.3241
 1193SOL     OW 4844   4.021   1.919   1.875 -0.1317  0.1834  0.2743
 1193SOL    HW2 4845   4.009   1.828   1.903  0.7496 -0.0798 -0.1604
 1193SOL    HW3 4846   4.016   1.915   1.779 -0.6660  0.6860  0.2839
 1193SOL    MW4 4847   4.019   1.906   1.866 -0.0858  0.2149  0.2183
 1194SOL     OW 4848   4.277   2.026   1.947  0.5825 -0.0263 -0.1669
 1194SOL    HW2 4849   4.283   2.037   2.042  0.6732  0.2607 -0.2060
 1194SOL    HW3 4850   4.190   1.988   1.933  0.7270 -0.4497  0.0630
 1194SOL    MW4 4851   4.266   2.022   1.957  0.6137 -0.0441 -0.1416
 1195SOL     OW 4852   4.273   2.296   1.865 -0.0402  0.0563  0.0185
 1195SOL    HW2 4853   4.276   2.204   1.891 -0.5206  0.2497  0.7664
 1195SOL    HW3 4854   4.348   2.336   1.910  0.2734  0.0001 -0.4462
 1195SOL    MW4 4855   4.284   2.289   1.875 -0.0620  0.0744  0.0558
 1196SOL     OW 4856   4.062   2.465   1.961 -0.1311 -0.2882  0.5773
 1196SOL    HW2 4857   4.047   2.447   2.054  4.3772  0.5771  1.5927
 1196SOL    HW3 4858   4.130   2.403   1.935  0.6618  1.3459 -1.3826
 1196SOL    MW4 4859   4.069   2.454   1.970  0.5684  0.0412  0.4528
 1197SOL     OW 4860   4.056   2.734   1.878 -0.0710  0.1522 -0.0796
 1197SOL    HW2 4861   4.067   2.642   1.901 -0.0434  0.2579  0.3323
 1197SOL    HW3 4862   3.976   2.761   1.923 -0.0271  0.3554 -0.1230
 1197SOL    MW4 4863   4.047   2.725   1.887 -0.0620  0.1926 -0.0309
 1198SOL     OW 4864   4.269   2.842   2.284  0.0727 -0.1952 -0.2426
 1198SOL    HW2 4865   4.338   2.793   2.330  0.1318  0.9479  0.9138
 1198SOL    HW3 4866   4.189   2.793   2.302  0.2737 -0.3805  0.1558
 1198SOL    MW4 4867   4.267   2.829   2.293  0.1073 -0.0684 -0.0372
 1199SOL     OW 4868   4.287   3.124   1.876 -0.2369 -0.5735  0.3566
 1199SOL    HW2 4869   4.207   3.169   1.904 -0.3892  0.0100 -0.9885
 1199SOL    HW3 4870   4.287   3.042   1.927 -1.5722 -0.4845  0.5282
 1199SOL    MW4 4871   4.276   3.119   1.887 -0.4334 -0.4849  0.2018
 1200SOL     OW 4872   4.048   3.245   1.978  0.2911 -0.3746 -0.2356
 1200SOL    HW2 4873   4.052   3.236   2.074  1.2256  1.3894 -0.0808
 1200SOL    HW3 4874   3.972   3.193   1.952 -0.7548  0.1725  1.6036
 1200SOL    MW4 4875   4.039   3.237   1.987  0.2761 -0.0699  0.0274
 1201SOL     OW 4876   4.038   3.498   1.858 -0.5226  0.6430  0.2302
 1201SOL    HW2 4877   4.120   3.537   1.889 -0.5539  0.8258  0.0826
 1201SOL    HW3 4878   4.033   3.414   1.903  0.3072  0.1354 -0.6061
 1201SOL    MW4 4879   4.048   3.492   1.868 -0.4177  0.6003  0.1004
 1202SOL     OW 4880   4.275   3.613   2.000  0.6759 -0.5209  0.2154
 1202SOL    HW2 4881   4.284   3.618   2.096  0.5221  1.4700  0.1499
 1202SOL    HW3 4882   4.356   3.571   1.971  0.5512 -1.5119  1.2545
 1202SOL    MW4 4883   4.287   3.608   2.009  0.6394 -0.3889  0.3440
 1203SOL     OW 4884   4.259   3.878   1.909 -0.3286  0.1838  0.7119
 1203SOL    HW2 4885   4.334   3.908   1.959 -0.7103  0.9018  0.8633
 1203SOL    HW3 4886   4.245   3.788   1.938  1.1445 -0.3329 -0.1233
 1203SOL    MW4 4887   4.267   3.870   1.919 -0.1850  0.2103  0.6218
 1204SOL     OW 4888   4.021   4.013   1.982  0.2015 -0.2073  0.1762
 1204SOL    HW2 4889   4.096   3.965   1.948  0.1386 -0.0233 -0.2210
 1204SOL    HW3 4890   3.946   3.975   1.937  0.0477 -0.4324  0.6185
 1204SOL    MW4 4891   4.021   4.002   1.972  0.1731 -0.2122  0.1822
 1205SOL     OW 4892   4.020   4.268   1.870 -0.0600 -0.4585 -0.6408
 1205SOL    HW2 4893   4.089   4.309   1.923 -1.4978 -0.6611  1.4494
 1205SOL    HW3 4894   4.024   4.175   1.893 -2.3256 -0.1666  1.0174
 1205SOL    MW4 4895   4.030   4.261   1.880 -0.5484 -0.4463 -0.1463
 1206SOL     OW 4896   4.264   4.383   1.961  0.1313  0.2038 -0.8341
 1206SOL    HW2 4897   4.261   4.373   2.056 -0.5975 -1.9743 -1.0606
 1206SOL    HW3 4898   4.281   4.476   1.947  2.4426  0.1581  1.4314
 1206SOL    MW4 4899   4.266   4.394   1.972  0.3400 -0.0896 -0.5652
 1207SOL     OW 4900   0.153   4.630   2.370  0.5646  0.0889  0.3184
 1207SOL    HW2 4901   0.172   4.620   2.463  0.6010  1.0780  0.4227
 1207SOL    HW3 4902   0.153   4.541   2.335  0.5596 -0.2788  1.2621
 1207SOL    MW4 4903   0.155   4.617   2.377  0.5688  0.1707  0.4563
 1208SOL     OW 4904   4.435   0.118   2.286  0.3951 -0.2339  0.3040
 1208SOL    HW2 4905   4.513   0.071   2.314  1.4950  1.9932  1.1272
 1208SOL    HW3 4906   4.444   0.123   2.190  1.6794  0.6666  0.4510
 1208SOL    MW4 4907   4.447   0.113   2.277  0.7100  0.1787  0.4318
 1209SOL     OW 4908   0.004   0.373   2.374 -0.1047 -0.0571  0.9469
 1209SOL    HW2 4909   0.015   0.373   2.469 -1.0207  0.0037  1.0551
 1209SOL    HW3 4910  -0.002   0.281   2.350 -0.1861 -0.0623  0.9867
 1209SOL    MW4 4911   0.005   0.361   2.383 -0.2363 -0.0498  0.9663
 1210SOL     OW 4912   0.230   0.534   2.278 -0.6663 -0.1497 -0.0369
 1210SOL    HW2 4913   0.294   0.465   2.298  0.8665  1.0840 -0.5358
 1210SOL    HW3 4914   0.145   0.493   2.293  0.2448 -1.7084  1.0908
 1210SOL    MW4 4915   0.227   0.520   2.283 -0.3439 -0.1926  0.0460
 1211SOL     OW 4916   0.192   0.793   2.372 -0.1116  0.2675  0.2757
 1211SOL    HW2 4917   0.199   0.774   2.466 -0.5755 -0.8731  0.0948
 1211SOL    HW3 4918   0.210   0.709   2.330  2.2403  1.2278 -0.7415
 1211SOL    MW4 4919   0.195   0.779   2.379  0.1375  0.2438  0.1175
 1212SOL     OW 4920   4.427   0.854   2.271  1.0028  0.1150 -0.5497
 1212SOL    HW2 4921   4.512   0.822   2.301  1.5868  0.7639 -1.4687
 1212SOL    HW3 4922   4.435   0.859   2.176 -0.6709 -1.4860 -0.7913
 1212SOL    MW4 4923   4.439   0.851   2.263  0.8597 -0.0106 -0.7029
 1213SOL     OW 4924   4.485   1.103   2.361 -0.4338  0.0132 -0.0001
 1213SOL    HW2 4925   4.466   1.112   2.455 -0.9313 -0.9874  0.0002
 1213SOL    HW3 4926   4.458   1.013   2.340 -1.2808  0.5704 -1.3296
 1213SOL    MW4 4927   4.479   1.092   2.371 -0.6118 -0.0454 -0.1755
 1214SOL     OW 4928   0.203   1.245   2.254  0.3729  0.0715 -0.3752
 1214SOL    HW2 4929   0.140   1.177   2.278  1.3278 -1.2267 -1.4812
 1214SOL    HW3 4930   0.202   1.246   2.159  0.8408  1.1750 -0.3761
 1214SOL    MW4 4931   0.194   1.236   2.245  0.5606  0.0457 -0.5212
 1215SOL     OW 4932   0.222   1.512   2.334  0.0910  0.2443  0.5604
 1215SOL    HW2 4933   0.240   1.506   2.428  0.9455  1.0515  0.4646
 1215SOL    HW3 4934   0.226   1.422   2.302 -1.9637 -0.2429  1.5996
 1215SOL    MW4 4935   0.225   1.500   2.343 -0.0674  0.2865  0.6850
 1216SOL     OW 4936   4.458   1.636   2.315 -0.1469  0.3157 -0.2573
 1216SOL    HW2 4937   4.462   1.728   2.340 -1.0853  0.1770  0.4397
 1216SOL    HW3 4938   4.548   1.605   2.322  0.1039  1.0787 -0.0961
 1216SOL    MW4 4939   4.470   1.644   2.319 -0.2379  0.3979 -0.1440
 1217SOL     OW 4940   4.465   1.910   2.351  0.3573 -0.1826  0.8228
 1217SOL    HW2 4941   4.405   1.964   2.299  1.4327  1.2891  1.0612
 1217SOL    HW3 4942   4.552   1.941   2.327  0.9650 -1.2860  1.5574
 1217SOL    MW4 4943   4.468   1.921   2.341  0.5794 -0.1340  0.9513
 1218SOL     OW 4944   0.213   2.049   2.265 -0.2689 -0.0411  0.2528
 1218SOL    HW2 4945   0.293   2.003   2.290  0.1239  1.9667  2.9147
 1218SOL    HW3 4946   0.216   2.053   2.169  1.8913 -1.5575  0.2331
 1218SOL    MW4 4947   0.224   2.043   2.255  0.0679  0.0238  0.6013
 1219SOL     OW 4948   0.217   2.326   2.349  0.1217 -0.5742 -0.9285
 1219SOL    HW2 4949   0.210   2.320   2.445  3.0151  0.6545 -0.5930
 1219SOL    HW3 4950   0.229   2.235   2.320  0.5794 -0.8272  0.0232
 1219SOL    MW4 4951   0.218   2.313   2.358  0.5638 -0.4456 -0.7589
 1220SOL     OW 4952   0.023   2.484   2.255  0.0647  0.0975  0.6283
 1220SOL    HW2 4953   0.013   2.558   2.316 -0.0031  1.5690 -1.1410
 1220SOL    HW3 4954   0.103   2.440   2.285  0.1217  0.8794  1.6879
 1220SOL    MW4 4955   0.033   2.488   2.267  0.0633  0.3946  0.5345
 1221SOL     OW 4956   0.007   2.707   2.398 -0.1418  0.0318  0.4796
 1221SOL    HW2 4957   0.008   2.716   2.493 -0.8767  1.5791  0.3621
 1221SOL    HW3 4958   0.085   2.754   2.368 -0.5102  0.5095  0.2542
 1221SOL    MW4 4959   0.017   2.715   2.406 -0.2880  0.2990  0.4344
 1222SOL     OW 4960   0.239   2.864   2.283  0.0409 -0.2167  0.2377
 1222SOL    HW2 4961   0.318   2.817   2.309  0.9230  0.9065 -0.3503
 1222SOL    HW3 4962   0.233   2.850   2.188 -0.0525  0.3031  0.1639
 1222SOL    MW4 4963   0.249   2.856   2.274  0.1449  0.0000  0.1504
 1223SOL     OW 4964   0.258   3.132   2.358  0.0785 -0.0230  0.0066
 1223SOL    HW2 4965   0.188   3.189   2.325  1.1391  0.4319 -1.5262
 1223SOL    HW3 4966   0.239   3.046   2.321  1.6023  0.6204 -2.3616
 1223SOL    MW4 4967   0.246   3.129   2.349  0.4195  0.1216 -0.5081
 1224SOL     OW 4968   0.013   3.237   2.293  0.4705  0.2965  0.6026
 1224SOL    HW2 4969   0.002   3.331   2.311 -1.2120  0.4066 -0.8360
 1224SOL    HW3 4970   0.011   3.231   2.197  0.5080 -1.2172  0.6871
 1224SOL    MW4 4971   0.011   3.249   2.282  0.2532  0.1111  0.4241
 1225SOL     OW 4972   0.020   3.512   2.368  0.1120  0.1142 -0.8444
 1225SOL    HW2 4973   0.004   3.502   2.462 -0.8345 -1.5463 -1.1732
 1225SOL    HW3 4974  -0.055   3.562   2.336  0.4462  0.7011 -0.7325
 1225SOL    MW4 4975   0.008   3.517   2.376  0.0312 -0.0274 -0.8729
 1226SOL     OW 4976   0.236   3.606   2.222  0.0496  0.0116  0.0497
 1226SOL    HW2 4977   0.307   3.552   2.259  0.3951  1.0104  0.8906
 1226SOL    HW3 4978   0.157   3.571   2.263 -0.0479 -1.6306 -1.5037
 1226SOL    MW4 4979   0.235   3.594   2.233  0.0823 -0.0732 -0.0443
 1227SOL     OW 4980   0.224   3.863   2.394 -0.2970 -0.2462 -0.0781
 1227SOL    HW2 4981   0.146   3.904   2.358 -0.5917 -0.3987  0.3846
 1227SOL    HW3 4982   0.239   3.787   2.339 -0.6245 -0.3611 -0.0080
 1227SOL    MW4 4983   0.216   3.859   2.382 -0.3791 -0.2816 -0.0076
 1228SOL     OW 4984   4.482   3.969   2.292 -0.2652  0.3074 -0.2125
 1228SOL    HW2 4985   4.477   4.061   2.317  0.0008  0.3643 -0.3526
 1228SOL    HW3 4986   4.495   3.972   2.197 -1.2270  0.1010 -0.3501
 1228SOL    MW4 4987   4.483   3.982   2.283 -0.3572  0.2878 -0.2494
 1229SOL     OW 4988   4.456   4.247   2.364  0.0579  0.5923  0.1562
 1229SOL    HW2 4989   4.452   4.257   2.459  1.3935 -0.4836  0.3357
 1229SOL    HW3 4990   4.376   4.289   2.332 -1.6214 -1.1811  1.9305
 1229SOL    MW4 4991   4.445   4.254   2.372  0.0124  0.2160  0.4141
 1230SOL     OW 4992   0.177   4.392   2.232 -0.5129  0.4916 -0.0073
 1230SOL    HW2 4993   0.259   4.350   2.257 -0.3119  0.1612 -1.1734
 1230SOL    HW3 4994   0.109   4.341   2.276 -0.0768  1.0276  1.3094
 1230SOL    MW4 4995   0.178   4.380   2.241 -0.4288  0.5188  0.0126
 1231SOL     OW 4996   0.652   4.649   2.350 -0.0158 -0.2686 -0.4267
 1231SOL    HW2 4997   0.650   4.631   2.444 -1.0134 -0.3448 -0.4551
 1231SOL    HW3 4998   0.731   4.701   2.337 -0.6140  0.9286  0.6755
 1231SOL    MW4 4999   0.662   4.653   2.360 -0.2263 -0.1206 -0.2849
 1232SOL     OW 5000   0.373   0.073   2.250 -0.1621 -0.3697 -0.4144
 1232SOL    HW2 5001   0.458   0.035   2.274 -0.6901 -1.0315  0.4176
 1232SOL    HW3 5002   0.309   0.025   2.302 -0.7174  2.5385  1.7439
 1232SOL    MW4 5003   0.376   0.062   2.260 -0.3051 -0.0733 -0.0198
 1233SOL     OW 5004   0.415   0.333   2.349 -0.0287 -0.2331  0.4742
 1233SOL    HW2 5005   0.415   0.333   2.445 -0.1673  0.0138  0.4745
 1233SOL    HW3 5006   0.392   0.243   2.325 -0.4349 -0.1866  0.6763
 1233SOL    MW4 5007   0.412   0.321   2.358 -0.1006 -0.1944  0.5009
 1234SOL     OW 5008   0.638   0.453   2.259 -0.4270  0.4464  0.3862
 1234SOL    HW2 5009   0.606   0.540   2.281 -0.8832  0.1839  0.7812
 1234SOL    HW3 5010   0.569   0.394   2.290  0.1772 -0.0904  0.7060
 1234SOL    MW4 5011   0.624   0.456   2.266 -0.4075  0.3409  0.4809
 1235SOL     OW 5012   0.664   0.734   2.328  0.2156  0.0397  0.2098
 1235SOL    HW2 5013   0.656   0.709   2.420 -0.4494  0.4752  0.2732
 1235SOL    HW3 5014   0.587   0.788   2.311  1.2630  1.4592 -0.1153
 1235SOL    MW4 5015   0.653   0.738   2.338  0.2661  0.2844  0.1752
 1236SOL     OW 5016   0.430   0.886   2.269 -0.2273 -0.3322  0.0088
 1236SOL    HW2 5017   0.350   0.848   2.305 -0.0486  0.3530  1.1477
 1236SOL    HW3 5018   0.423   0.872   2.174 -1.6289 -0.3747  0.1086
 1236SOL    MW4 5019   0.419   0.879   2.261 -0.3887 -0.2474  0.1724
 1237SOL     OW 5020   0.442   1.143   2.358 -0.0970 -0.2962  0.3429
 1237SOL    HW2 5021   0.437   1.057   2.317 -0.9803  0.3356 -0.9030
 1237SOL    HW3 5022   0.362   1.188   2.331  0.2024  0.8087  1.2387
 1237SOL    MW4 5023   0.431   1.137   2.349 -0.1740 -0.0671  0.2968
 1238SOL     OW 5024   0.668   1.262   2.267 -0.0042 -0.3749 -0.5578
 1238SOL    HW2 5025   0.664   1.353   2.298  0.1646 -0.4410 -0.3409
 1238SOL    HW3 5026   0.592   1.220   2.305  0.2557 -0.4803 -0.1509
 1238SOL    MW4 5027   0.658   1.269   2.276  0.0523 -0.3974 -0.4754
 1239SOL     OW 5028   0.648   1.521   2.336  0.0790 -0.5303 -0.0771
 1239SOL    HW2 5029   0.658   1.537   2.430 -0.0835  0.6199 -0.2401
 1239SOL    HW3 5030   0.733   1.548   2.299  0.2600 -1.2979 -0.2211
 1239SOL    MW4 5031   0.661   1.527   2.343  0.0815 -0.4799 -0.1178
 1240SOL     OW 5032   0.430   1.655   2.233  0.4771  0.2939  0.3726
 1240SOL    HW2 5033   0.501   1.605   2.272  0.0435 -0.0143  0.7783
 1240SOL    HW3 5034   0.350   1.611   2.263  0.1311  0.1342 -0.7451
 1240SOL    MW4 5035   0.429   1.642   2.242  0.3743  0.2322  0.2785
 1241SOL     OW 5036   0.437   1.906   2.337 -0.2289  0.4012 -0.0399
 1241SOL    HW2 5037   0.512   1.950   2.296  1.1575 -1.3038  0.6037
 1241SOL    HW3 5038   0.445   1.815   2.310 -0.9342 -0.1943  1.6828
 1241SOL    MW4 5039   0.448   1.900   2.328 -0.1391  0.0978  0.2725
 1242SOL     OW 5040   0.648   2.033   2.224 -0.2133  0.1420 -0.4528
 1242SOL    HW2 5041   0.726   1.987   2.257  0.3401  0.7778 -0.8627
 1242SOL    HW3 5042   0.649   2.117   2.270 -0.1335  0.5289 -1.1580
 1242SOL    MW4 5043   0.659   2.038   2.234 -0.1297  0.2770 -0.5996
 1243SOL     OW 5044   0.725   2.257   2.359 -0.1198  0.0745  0.1625
 1243SOL    HW2 5045   0.719   2.269   2.453  1.1576  0.5269  0.2032
 1243SOL    HW3 5046   0.805   2.304   2.334 -1.1647  1.1179 -1.3347
 1243SOL    MW4 5047   0.735   2.265   2.368 -0.0892  0.2720 -0.0298
 1244SOL     OW 5048   0.480   2.425   2.295 -0.0787 -0.3617 -0.3925
 1244SOL    HW2 5049   0.556   2.384   2.338  0.3595 -0.1311 -0.9427
 1244SOL    HW3 5050   0.404   2.380   2.333  0.2410  0.5673  1.4227
 1244SOL    MW4 5051   0.480   2.414   2.306  0.0213 -0.2086 -0.2258
 1245SOL     OW 5052   0.443   2.696   2.355  0.0491 -0.6572 -0.2114
 1245SOL    HW2 5053   0.446   2.692   2.451 -0.3101  0.2205 -0.1618
 1245SOL    HW3 5054   0.451   2.604   2.328  1.8433 -0.7783  0.5974
 1245SOL    MW4 5055   0.445   2.683   2.364  0.2384 -0.5572 -0.0980
 1246SOL     OW 5056   0.686   2.834   2.261 -0.0232 -0.5136  0.3005
 1246SOL    HW2 5057   0.764   2.786   2.290 -0.9801 -1.5278  1.2605
 1246SOL    HW3 5058   0.612   2.782   2.293 -1.1018  1.4153  1.0510
 1246SOL    MW4 5059   0.686   2.821   2.269 -0.2918 -0.3929  0.5264
 1247SOL     OW 5060   0.686   3.102   2.404 -0.0944  0.5500  0.8029
 1247SOL    HW2 5061   0.610   3.146   2.366  1.3245  0.6065 -2.1121
 1247SOL    HW3 5062   0.680   3.012   2.372  2.3799  1.1717 -1.5856
 1247SOL    MW4 5063   0.675   3.096   2.395  0.4193  0.6394  0.1030
 1248SOL     OW 5064   0.496   3.216   2.246  0.0336  0.3834 -0.0798
 1248SOL    HW2 5065   0.411   3.181   2.273 -0.5708  1.8264 -0.0874
 1248SOL    HW3 5066   0.498   3.204   2.151  0.2636 -0.5499  0.0341
 1248SOL    MW4 5067   0.485   3.210   2.237 -0.0158  0.4506 -0.0658
 1249SOL     OW 5068   0.491   3.485   2.345  0.1254  0.3118 -0.2786
 1249SOL    HW2 5069   0.563   3.534   2.306  2.0489 -1.5176  0.8481
 1249SOL    HW3 5070   0.490   3.402   2.299 -0.4696 -0.1569  0.5609
 1249SOL    MW4 5071   0.500   3.481   2.334  0.3007  0.0088 -0.0191
 1250SOL     OW 5072   0.683   3.647   2.229 -0.5198 -0.9098 -0.2812
 1250SOL    HW2 5073   0.681   3.738   2.260  1.6354 -0.8184 -0.3738
 1250SOL    HW3 5074   0.712   3.654   2.138 -1.3800 -1.6290 -0.6186
 1250SOL    MW4 5075   0.686   3.660   2.221 -0.3490 -0.9925 -0.3378
 1251SOL     OW 5076   0.682   3.923   2.366 -0.1860  0.5538 -0.1792
 1251SOL    HW2 5077   0.674   3.905   2.459 -0.1094  2.7782  0.2829
 1251SOL    HW3 5078   0.593   3.945   2.338 -0.2909 -0.5571 -0.7330
 1251SOL    MW4 5079   0.669   3.924   2.374 -0.1897  0.7007 -0.1912
 1252SOL     OW 5080   0.437   4.019   2.275 -0.7686 -0.0521 -0.3432
 1252SOL    HW2 5081   0.367   3.961   2.306 -1.4136  0.5301 -0.7012
 1252SOL    HW3 5082   0.431   4.014   2.180  0.4870 -0.9625 -0.3792
 1252SOL    MW4 5083   0.427   4.011   2.267 -0.6880 -0.0949 -0.3953
 1253SOL     OW 5084   0.410   4.280   2.324  0.2848 -0.0439  0.3622
 1253SOL    HW2 5085   0.492   4.313   2.286  1.5507 -0.7442  2.4118
 1253SOL    HW3 5086   0.417   4.185   2.318 -1.4340 -0.1010 -1.5253
 1253SOL    MW4 5087   0.422   4.272   2.318  0.2250 -0.1440  0.3834
 1254SOL     OW 5088   0.659   4.383   2.233  0.1086 -0.0723  0.2650
 1254SOL    HW2 5089   0.662   4.469   2.275 -2.1636 -0.1624  0.6786
 1254SOL    HW3 5090   0.657   4.402   2.139 -1.7204  0.3812  0.3873
 1254SOL    MW4 5091   0.659   4.397   2.226 -0.4326 -0.0243  0.3359
 1255SOL     OW 5092   1.107   4.662   2.379 -0.0420  0.0974  0.5487
 1255SOL    HW2 5093   1.095   4.650   2.474 -0.3790 -0.5440  0.4304
 1255SOL    HW3 5094   1.033   4.716   2.352  0.2458  0.5765  0.7063
 1255SOL    MW4 5095   1.096   4.667   2.388 -0.0485  0.0753  0.5538
 1256SOL     OW 5096   0.889   0.121   2.280 -0.3570 -0.0536 -0.1183
 1256SOL    HW2 5097   0.881   0.211   2.312  2.1432  0.5249 -0.9899
 1256SOL    HW3 5098   0.888   0.128   2.185 -0.4680 -0.9732 -0.1940
 1256SOL    MW4 5099   0.888   0.134   2.272 -0.0418 -0.0986 -0.2437
 1257SOL     OW 5100   0.866   0.367   2.395  0.1294  0.2211  0.3772
 1257SOL    HW2 5101   0.935   0.407   2.342  0.7598 -1.2846  0.0350
 1257SOL    HW3 5102   0.787   0.377   2.343  0.4661  0.1242 -0.1631
 1257SOL    MW4 5103   0.865   0.374   2.381  0.2570  0.0097  0.2608
 1258SOL     OW 5104   1.095   0.465   2.248 -0.3932 -0.0520  0.3144
 1258SOL    HW2 5105   1.176   0.423   2.279  0.4866  1.9767  0.8801
 1258SOL    HW3 5106   1.104   0.466   2.153  0.1995  0.0742  0.3695
 1258SOL    MW4 5107   1.107   0.460   2.239 -0.1988  0.2323  0.3963
 1259SOL     OW 5108   1.117   0.716   2.362 -0.2937 -0.5261  0.2623
 1259SOL    HW2 5109   1.038   0.747   2.317  0.9808  1.0016 -1.0078
 1259SOL    HW3 5110   1.129   0.627   2.330 -1.6384 -0.8523  0.6486
 1259SOL    MW4 5111   1.109   0.709   2.352 -0.3030 -0.3676  0.1457
 1260SOL     OW 5112   0.908   0.844   2.228  0.5882 -0.0848 -0.1283
 1260SOL    HW2 5113   0.909   0.935   2.258 -0.5013  0.1586 -0.8049
 1260SOL    HW3 5114   0.829   0.806   2.267 -0.1163 -0.1365 -1.5574
 1260SOL    MW4 5115   0.898   0.851   2.237  0.3516 -0.0596 -0.4060
 1261SOL     OW 5116   0.882   1.090   2.327  0.8193 -0.5896  0.2680
 1261SOL    HW2 5117   0.962   1.141   2.319  0.4529 -0.1513 -0.7598
 1261SOL    HW3 5118   0.812   1.150   2.300  0.1455 -0.9823  1.0904
 1261SOL    MW4 5119   0.883   1.104   2.322  0.6821 -0.5835  0.2408
 1262SOL     OW 5120   1.094   1.262   2.266  0.1197 -0.0363  0.2119
 1262SOL    HW2 5121   1.180   1.222   2.283 -0.5970 -2.0631 -0.7624
 1262SOL    HW3 5122   1.089   1.268   2.171 -0.3219  1.2052  0.3100
 1262SOL    MW4 5123   1.105   1.257   2.256 -0.0331 -0.1400  0.0963
 1263SOL     OW 5124   1.114   1.531   2.335  0.2077  0.1782 -0.2707
 1263SOL    HW2 5125   1.032   1.576   2.316 -0.7557 -0.5376  2.0434
 1263SOL    HW3 5126   1.101   1.442   2.304  0.7767  0.5048 -1.4932
 1263SOL    MW4 5127   1.102   1.526   2.329  0.1558  0.1268 -0.1268
 1264SOL     OW 5128   0.870   1.638   2.236  0.1921  0.4570  0.0091
 1264SOL    HW2 5129   0.859   1.728   2.269 -0.8813 -0.3074  1.7920
 1264SOL    HW3 5130   0.881   1.649   2.141 -0.4653  2.4372  0.1341
 1264SOL    MW4 5131   0.870   1.652   2.228 -0.0363  0.6174  0.2606
 1265SOL     OW 5132   0.893   1.909   2.318  0.1707 -0.2243 -0.1152
 1265SOL    HW2 5133   0.894   1.932   2.410 -1.3109 -0.4139 -0.0400
 1265SOL    HW3 5134   0.963   1.962   2.279  1.0164 -0.3795  1.1544
 1265SOL    MW4 5135   0.903   1.919   2.325  0.0868 -0.2700  0.0622
 1266SOL     OW 5136   1.117   2.072   2.249 -1.1242 -0.3101  0.1634
 1266SOL    HW2 5137   1.194   2.023   2.279 -1.2843  0.3408  1.6529
 1266SOL    HW3 5138   1.120   2.063   2.153  0.4399 -0.8323  0.2394
 1266SOL    MW4 5139   1.128   2.064   2.240 -0.9390 -0.2933  0.3703
 1267SOL     OW 5140   1.161   2.335   2.330  0.2578  0.0534 -0.4249
 1267SOL    HW2 5141   1.242   2.365   2.289  0.3480  0.2953 -0.0748
 1267SOL    HW3 5142   1.152   2.244   2.304  0.3711  0.1775 -0.8940
 1267SOL    MW4 5143   1.170   2.327   2.321  0.2847  0.1016 -0.4406
 1268SOL     OW 5144   0.923   2.450   2.267  0.0621  0.5519 -0.0889
 1268SOL    HW2 5145   1.009   2.415   2.289 -0.3707 -1.3381 -1.2894
 1268SOL    HW3 5146   0.915   2.437   2.173 -2.1071 -0.6572  0.2227
 1268SOL    MW4 5147   0.933   2.443   2.257 -0.2813  0.1431 -0.2062
 1269SOL     OW 5148   0.923   2.711   2.341 -0.1753 -0.2788 -0.1413
 1269SOL    HW2 5149   0.920   2.619   2.316 -1.3521 -0.4908  0.7257
 1269SOL    HW3 5150   0.910   2.711   2.436 -1.6233  0.8437 -0.3074
 1269SOL    MW4 5151   0.921   2.699   2.351 -0.5216 -0.1585 -0.0489
 1270SOL     OW 5152   1.135   2.854   2.279 -0.2317  0.2991  0.3490
 1270SOL    HW2 5153   1.209   2.800   2.306 -0.9806 -0.2803  1.2575
 1270SOL    HW3 5154   1.058   2.808   2.313 -1.0038  0.9585 -0.4806
 1270SOL    MW4 5155   1.135   2.841   2.287 -0.4324  0.3095  0.3593
 1271SOL     OW 5156   1.132   3.115   2.397  0.2277  0.1320 -0.0371
 1271SOL    HW2 5157   1.055   3.165   2.370 -1.7346 -0.5566  3.7927
 1271SOL    HW3 5158   1.125   3.032   2.350 -1.5047  0.0196  0.3913
 1271SOL    MW4 5159   1.121   3.111   2.387 -0.2598  0.0262  0.5248
 1272SOL     OW 5160   0.896   3.219   2.262  0.6583 -0.1392 -0.2351
 1272SOL    HW2 5161   0.886   3.313   2.282 -0.7410 -0.1668 -0.7384
 1272SOL    HW3 5162   0.826   3.177   2.312  1.5174 -0.9590  0.2763
 1272SOL    MW4 5163   0.885   3.226   2.271  0.5870 -0.2511 -0.2339
 1273SOL     OW 5164   0.876   3.484   2.357  0.0564 -0.5337 -0.0256
 1273SOL    HW2 5165   0.859   3.473   2.451 -1.2911 -1.1558 -0.3433
 1273SOL    HW3 5166   0.801   3.532   2.324  0.5079 -0.3534 -0.7991
 1273SOL    MW4 5167   0.864   3.489   2.365 -0.0618 -0.5922 -0.1695
 1274SOL     OW 5168   1.073   3.612   2.221 -0.0072 -0.3006  0.0757
 1274SOL    HW2 5169   1.155   3.602   2.270  0.0370  0.8452  0.2496
 1274SOL    HW3 5170   1.007   3.572   2.277  0.4133 -1.1370 -0.0170
 1274SOL    MW4 5171   1.075   3.606   2.235  0.0541 -0.2596  0.0863
 1275SOL     OW 5172   1.104   3.863   2.338 -0.4766  0.1870 -0.4577
 1275SOL    HW2 5173   1.172   3.918   2.300  0.0929  0.9679  1.6317
 1275SOL    HW3 5174   1.105   3.783   2.285  1.7494  0.3713 -0.7171
 1275SOL    MW4 5175   1.113   3.859   2.326 -0.1076  0.3145 -0.2160
 1276SOL     OW 5176   0.900   4.018   2.224 -0.8975 -0.6259 -0.3527
 1276SOL    HW2 5177   0.962   3.960   2.267 -1.1372 -0.0927  0.7124
 1276SOL    HW3 5178   0.815   3.997   2.264 -1.1511 -0.2453 -0.6784
 1276SOL    MW4 5179   0.897   4.007   2.235 -0.9626 -0.5050 -0.2551
 1277SOL     OW 5180   0.873   4.276   2.356 -0.5426  0.2039  0.1613
 1277SOL    HW2 5181   0.878   4.198   2.302 -0.4862  0.0706  0.3595
 1277SOL    HW3 5182   0.794   4.321   2.326  0.6406  1.2304 -1.5209
 1277SOL    MW4 5183   0.863   4.272   2.345 -0.3791  0.3214 -0.0346
 1278SOL     OW 5184   1.126   4.419   2.254 -0.2690 -0.0828  0.3950
 1278SOL    HW2 5185   1.048   4.378   2.290 -0.0893 -1.5386 -0.8473
 1278SOL    HW3 5186   1.130   4.505   2.297 -2.3694 -0.1148  0.6908
 1278SOL    MW4 5187   1.116   4.425   2.264 -0.5225 -0.2794  0.2701
 1279SOL     OW 5188   1.550   4.650   2.360  0.1305 -0.6517 -0.0274
 1279SOL    HW2 5189   1.620   4.704   2.323 -0.6238  0.1955 -0.2254
 1279SOL    HW3 5190   1.469   4.686   2.324 -0.4826 -1.0252  0.9381
 1279SOL    MW4 5191   1.549   4.662   2.351 -0.0499 -0.5894  0.0739
 1280SOL     OW 5192   1.315   0.102   2.243 -0.2102 -0.3630 -0.0940
 1280SOL    HW2 5193   1.327   0.192   2.274 -1.0579 -0.5360  0.7288
 1280SOL    HW3 5194   1.253   0.063   2.304  1.2976 -1.9814  0.4538
 1280SOL    MW4 5195   1.309   0.109   2.255 -0.1231 -0.5994  0.0868
 1281SOL     OW 5196   1.339   0.358   2.365 -0.0204 -0.5771  0.3261
 1281SOL    HW2 5197   1.354   0.359   2.459  0.0412 -0.3340  0.3128
 1281SOL    HW3 5198   1.418   0.399   2.328  0.3352 -1.4171  0.1228
 1281SOL    MW4 5199   1.352   0.364   2.372  0.0346 -0.6558  0.2975
 1282SOL     OW 5200   1.549   0.487   2.247  0.0570  0.0059 -0.3239
 1282SOL    HW2 5201   1.628   0.453   2.289 -0.6542 -0.6093  0.5165
 1282SOL    HW3 5202   1.573   0.492   2.154  1.1666  0.0604 -0.0428
 1282SOL    MW4 5203   1.563   0.483   2.240  0.1094 -0.0681 -0.1760
 1283SOL     OW 5204   1.566   0.740   2.368 -0.2515 -0.0474  0.3492
 1283SOL    HW2 5205   1.644   0.787   2.339 -0.6504  0.2516 -0.2243
 1283SOL    HW3 5206   1.563   0.662   2.312 -1.4471  0.9142 -0.9366
 1283SOL    MW4 5207   1.576   0.736   2.357 -0.4618  0.1189  0.1037
 1284SOL     OW 5208   1.336   0.858   2.242 -0.0499 -0.4290 -0.2607
 1284SOL    HW2 5209   1.410   0.823   2.291 -0.2469  0.0545  0.3849
 1284SOL    HW3 5210   1.259   0.819   2.283 -0.2921  0.9786  0.6655
 1284SOL    MW4 5211   1.336   0.848   2.254 -0.1078 -0.1795 -0.0534
 1285SOL     OW 5212   1.333   1.128   2.319 -0.0218 -0.0041  0.1922
 1285SOL    HW2 5213   1.342   1.134   2.415  0.5835 -2.0417  0.2847
 1285SOL    HW3 5214   1.352   1.037   2.299 -2.2754 -0.1009 -1.6695
 1285SOL    MW4 5215   1.337   1.117   2.329 -0.2393 -0.2857 -0.0412
 1286SOL     OW 5216   1.551   1.313   2.277  0.3280 -0.4418 -0.2500
 1286SOL    HW2 5217   1.481   1.253   2.304 -1.3136  1.5002 -0.1406
 1286SOL    HW3 5218   1.538   1.324   2.183  0.2722  0.1936 -0.1698
 1286SOL    MW4 5219   1.540   1.306   2.268  0.1041 -0.1017 -0.2248
 1287SOL     OW 5220   1.541   1.554   2.399  0.0799 -0.4507 -0.2465
 1287SOL    HW2 5221   1.615   1.606   2.369 -0.2474 -1.0968 -2.1959
 1287SOL    HW3 5222   1.551   1.470   2.355 -0.8637 -1.1486  0.8283
 1287SOL    MW4 5223   1.553   1.549   2.390 -0.0879 -0.6281 -0.3617
 1288SOL     OW 5224   1.329   1.665   2.205  0.2732 -0.4034  0.2060
 1288SOL    HW2 5225   1.403   1.633   2.256  0.9619 -0.2187 -0.6522
 1288SOL    HW3 5226   1.252   1.628   2.247  0.6351  1.6681  2.8055
 1288SOL    MW4 5227   1.329   1.656   2.217  0.4117 -0.1057  0.4356
 1289SOL     OW 5228   1.321   1.907   2.350  0.0936  0.2039 -0.0262
 1289SOL    HW2 5229   1.398   1.949   2.311  1.6334 -2.1089  0.4458
 1289SOL    HW3 5230   1.306   1.830   2.295 -1.1861 -0.0030  0.6046
 1289SOL    MW4 5231   1.329   1.902   2.337  0.1280 -0.1286  0.1192
 1290SOL     OW 5232   1.509   2.053   2.205  0.6538  0.2478 -0.4842
 1290SOL    HW2 5233   1.582   2.017   2.256  1.1355  0.6282 -0.8993
 1290SOL    HW3 5234   1.543   2.061   2.116 -0.0211  0.0732 -0.7648
 1290SOL    MW4 5235   1.523   2.049   2.200  0.6284  0.2747 -0.5760
 1291SOL     OW 5236   1.571   2.320   2.323 -1.1419 -0.1826 -0.0552
 1291SOL    HW2 5237   1.561   2.325   2.419 -0.2738 -0.1683  0.0369
 1291SOL    HW3 5238   1.565   2.226   2.304 -0.1480 -0.2958  0.1510
 1291SOL    MW4 5239   1.569   2.308   2.333 -0.8961 -0.1957 -0.0160
 1292SOL     OW 5240   1.370   2.476   2.222  0.1193  0.1297 -0.2900
 1292SOL    HW2 5241   1.454   2.430   2.225  0.4135  0.6808 -0.0120
 1292SOL    HW3 5242   1.349   2.483   2.129  0.6482  0.4714 -0.3865
 1292SOL    MW4 5243   1.378   2.471   2.210  0.2277  0.2475 -0.2663
 1293SOL     OW 5244   1.346   2.702   2.362 -0.2579 -0.0714  0.2436
 1293SOL    HW2 5245   1.427   2.737   2.325 -1.1678 -0.5006 -2.2051
 1293SOL    HW3 5246   1.334   2.617   2.320 -1.8340 -0.1245  0.7527
 1293SOL    MW4 5247   1.355   2.696   2.352 -0.5858 -0.1349 -0.0122
 1294SOL     OW 5248   1.557   2.837   2.250  0.2700  0.5498  0.4908
 1294SOL    HW2 5249   1.544   2.930   2.268 -2.3892 -0.0325  1.8855
 1294SOL    HW3 5250   1.570   2.833   2.155 -0.3434  2.2733  0.3062
 1294SOL    MW4 5251   1.557   2.849   2.240 -0.1618  0.7002  0.6506
 1295SOL     OW 5252   1.553   3.115   2.319 -0.0199 -0.3942 -0.5448
 1295SOL    HW2 5253   1.545   3.102   2.413  0.4581  0.7596 -0.3304
 1295SOL    HW3 5254   1.484   3.177   2.298  1.1333  0.9004 -0.5995
 1295SOL    MW4 5255   1.543   3.122   2.329  0.1955 -0.0713 -0.5238
 1296SOL     OW 5256   1.318   3.285   2.269 -0.1373 -0.1184 -0.0060
 1296SOL    HW2 5257   1.255   3.221   2.304 -0.3510  0.1994  0.1904
 1296SOL    HW3 5258   1.323   3.264   2.176 -0.6765 -0.0308 -0.0595
 1296SOL    MW4 5259   1.310   3.274   2.261 -0.2367 -0.0648  0.0131
 1297SOL     OW 5260   1.301   3.557   2.360  0.0019 -0.6738  0.0054
 1297SOL    HW2 5261   1.321   3.556   2.453 -0.4764  0.3557  0.1287
 1297SOL    HW3 5262   1.314   3.467   2.331  2.1711 -0.5656  0.6172
 1297SOL    MW4 5263   1.305   3.545   2.368  0.2249 -0.5238  0.1023
 1298SOL     OW 5264   1.524   3.639   2.208  0.2069  0.4392 -0.0228
 1298SOL    HW2 5265   1.542   3.730   2.234 -0.2609  0.3628  0.5747
 1298SOL    HW3 5266   1.445   3.616   2.256 -0.8679  0.4067 -1.7722
 1298SOL    MW4 5267   1.516   3.648   2.218  0.0033  0.4251 -0.1750
 1299SOL     OW 5268   1.547   3.884   2.301  0.0294  0.3867  0.2051
 1299SOL    HW2 5269   1.560   3.856   2.392  0.7177 -1.3078 -0.3915
 1299SOL    HW3 5270   1.628   3.930   2.279 -0.2174  0.9696  0.5063
 1299SOL    MW4 5271   1.560   3.886   2.310  0.0877  0.2398  0.1662
 1300SOL     OW 5272   1.306   4.022   2.246 -0.0980 -0.1537 -0.1345
 1300SOL    HW2 5273   1.389   3.979   2.268 -0.7872 -1.6459 -0.3632
 1300SOL    HW3 5274   1.312   4.037   2.151 -1.0309 -2.4560 -0.6095
 1300SOL    MW4 5275   1.318   4.018   2.236 -0.3121 -0.6547 -0.2270
 1301SOL     OW 5276   1.341   4.271   2.364 -0.1127 -0.4866  0.1431
 1301SOL    HW2 5277   1.341   4.184   2.324  0.4882  0.0804 -1.1549
 1301SOL    HW3 5278   1.263   4.314   2.328  0.3877  0.0027 -0.3816
 1301SOL    MW4 5279   1.330   4.266   2.354  0.0325 -0.3476 -0.0975
 1302SOL     OW 5280   1.546   4.390   2.231  0.5373  0.2043 -0.0147
 1302SOL    HW2 5281   1.474   4.351   2.280  0.8043  0.0340  0.2427
 1302SOL    HW3 5282   1.554   4.478   2.267 -0.5063  0.7416 -1.0575
 1302SOL    MW4 5283   1.537   4.396   2.242  0.4348  0.2527 -0.1180
 1303SOL     OW 5284   2.017   4.657   2.358 -0.3823 -0.0652  0.2753
 1303SOL    HW2 5285   2.076   4.716   2.312  1.4059 -0.7275  1.6459
 1303SOL    HW3 5286   2.038   4.570   2.323 -3.0676  0.0624 -1.8140
 1303SOL    MW4 5287   2.028   4.653   2.348 -0.5009 -0.1358  0.1805
 1304SOL     OW 5288   1.779   0.110   2.251  0.1270  0.0138 -0.3453
 1304SOL    HW2 5289   1.782   0.202   2.276  1.6298  0.7158 -2.8732
 1304SOL    HW3 5290   1.849   0.069   2.301  1.2631  0.8240 -1.2401
 1304SOL    MW4 5291   1.789   0.117   2.261  0.4752  0.2133 -0.7968
 1305SOL     OW 5292   1.790   0.369   2.320  0.1531 -0.1868 -0.3789
 1305SOL    HW2 5293   1.807   0.375   2.414  1.3133 -0.9458 -0.5301
 1305SOL    HW3 5294   1.859   0.422   2.280  0.7847 -1.3594 -0.8830
 1305SOL    MW4 5295   1.801   0.377   2.327  0.3896 -0.4417 -0.4652
 1306SOL     OW 5296   2.021   0.534   2.242 -0.0776 -0.1300 -0.0611
 1306SOL    HW2 5297   2.051   0.615   2.284 -0.4657 -0.0603  0.0773
 1306SOL    HW3 5298   2.044   0.546   2.149  0.1021  0.0276  0.0035
 1306SOL    MW4 5299   2.028   0.547   2.235 -0.1054 -0.1000 -0.0346
 1307SOL     OW 5300   2.052   0.785   2.377 -0.0938 -0.3154 -0.3221
 1307SOL    HW2 5301   2.124   0.830   2.332  0.3501 -0.7771 -0.0852
 1307SOL    HW3 5302   1.973   0.827   2.344  0.2619 -0.1655 -0.9953
 1307SOL    MW4 5303   2.051   0.796   2.366  0.0117 -0.3565 -0.3796
 1308SOL     OW 5304   1.814   0.895   2.267  0.3337  0.1949  0.2105
 1308SOL    HW2 5305   1.789   0.979   2.307  0.3403 -0.5290  1.7757
 1308SOL    HW3 5306   1.789   0.904   2.175  0.4205  1.9529  0.3354
 1308SOL    MW4 5307   1.807   0.908   2.260  0.3461  0.3313  0.4337
 1309SOL     OW 5308   1.782   1.153   2.354  0.5553 -0.2529  0.1090
 1309SOL    HW2 5309   1.852   1.186   2.298 -0.2094 -0.4012 -0.9517
 1309SOL    HW3 5310   1.708   1.212   2.338  0.5988  0.2574  1.6570
 1309SOL    MW4 5311   1.781   1.165   2.345  0.4600 -0.2053  0.1731
 1310SOL     OW 5312   1.989   1.276   2.220  0.4929 -0.1337  0.1496
 1310SOL    HW2 5313   1.993   1.370   2.239  3.0140 -0.2514  0.3659
 1310SOL    HW3 5314   2.047   1.236   2.284  1.1254 -1.6151 -1.3054
 1310SOL    MW4 5315   1.997   1.283   2.231  0.9090 -0.3446 -0.0141
 1311SOL     OW 5316   1.988   1.544   2.300 -0.0647 -0.0082 -0.7807
 1311SOL    HW2 5317   1.995   1.548   2.396 -0.8989 -0.8460 -0.6761
 1311SOL    HW3 5318   1.911   1.596   2.279 -0.0053  0.0013 -0.9785
 1311SOL    MW4 5319   1.979   1.551   2.310 -0.1669 -0.1174 -0.7930
 1312SOL     OW 5320   1.742   1.693   2.268  0.6267 -0.0010 -0.0896
 1312SOL    HW2 5321   1.743   1.784   2.297  1.4838 -0.0136 -0.0475
 1312SOL    HW3 5322   1.741   1.698   2.173 -2.8620  0.0399 -0.0848
 1312SOL    MW4 5323   1.742   1.706   2.260  0.2794  0.0027 -0.0834
 1313SOL     OW 5324   1.716   1.966   2.364  0.7057 -0.2535 -0.2172
 1313SOL    HW2 5325   1.744   1.988   2.453  0.6257 -0.3825 -0.1610
 1313SOL    HW3 5326   1.792   1.988   2.309  0.2289  1.2633 -0.2988
 1313SOL    MW4 5327   1.730   1.972   2.368  0.6322 -0.0703 -0.2205
 1314SOL     OW 5328   1.940   2.082   2.242 -0.1524  0.0313 -0.1652
 1314SOL    HW2 5329   2.022   2.046   2.274  1.7404  3.0810 -1.3188
 1314SOL    HW3 5330   1.953   2.093   2.148 -1.2666  1.9821 -0.1258
 1314SOL    MW4 5331   1.953   2.079   2.234 -0.0496  0.6912 -0.3121
 1315SOL     OW 5332   2.032   2.337   2.327  0.4136 -0.4722 -0.1251
 1315SOL    HW2 5333   2.121   2.339   2.291  0.1097  0.3108 -0.8497
 1315SOL    HW3 5334   1.996   2.254   2.295  0.5219 -0.2912 -0.7275
 1315SOL    MW4 5335   2.039   2.326   2.318  0.3879 -0.3448 -0.2999
 1316SOL     OW 5336   1.796   2.476   2.259  0.1432  0.2885  0.1227
 1316SOL    HW2 5337   1.880   2.442   2.290 -0.3633 -1.5819 -0.5337
 1316SOL    HW3 5338   1.730   2.423   2.303 -0.6394 -0.2332 -1.6524
 1316SOL    MW4 5339   1.798   2.465   2.269 -0.0269 -0.0269 -0.1981
 1317SOL     OW 5340   1.773   2.716   2.404  0.0509 -0.5339 -0.4468
 1317SOL    HW2 5341   1.780   2.629   2.366 -1.2350  0.2483 -2.5505
 1317SOL    HW3 5342   1.712   2.763   2.347  0.9052  1.8209  0.4916
 1317SOL    MW4 5343   1.766   2.711   2.391 -0.0061 -0.1199 -0.6006
 1318SOL     OW 5344   1.995   2.829   2.246  0.5896  0.4304  0.0795
 1318SOL    HW2 5345   2.052   2.757   2.273  0.5385  0.8004  1.1620
 1318SOL    HW3 5346   1.909   2.805   2.281  0.6730  1.2512  0.8415
 1318SOL    MW4 5347   1.991   2.816   2.254  0.5939  0.5877  0.3226
 1319SOL     OW 5348   2.048   3.107   2.334  0.5246 -0.3840  0.3448
 1319SOL    HW2 5349   2.113   3.162   2.290  0.0541 -0.6697 -0.7173
 1319SOL    HW3 5350   2.057   3.021   2.292 -1.0550 -0.2332 -0.3054
 1319SOL    MW4 5351   2.058   3.103   2.323  0.2539 -0.4017  0.1190
 1320SOL     OW 5352   1.805   3.229   2.248  0.2198 -0.1793 -0.6590
 1320SOL    HW2 5353   1.887   3.194   2.284 -0.4258  0.6904  1.7479
 1320SOL    HW3 5354   1.736   3.182   2.293 -0.6514 -0.9526 -2.7332
 1320SOL    MW4 5355   1.807   3.218   2.258  0.0198 -0.1667 -0.6149
 1321SOL     OW 5356   1.767   3.511   2.342  0.0044  0.0559  0.1953
 1321SOL    HW2 5357   1.756   3.421   2.311 -1.3279  0.0578  0.6324
 1321SOL    HW3 5358   1.686   3.555   2.318  0.7443  1.2123 -0.2210
 1321SOL    MW4 5359   1.755   3.505   2.335 -0.0738  0.2089  0.1981
 1322SOL     OW 5360   2.019   3.618   2.263  0.3835 -0.0112 -0.1298
 1322SOL    HW2 5361   1.936   3.572   2.276  1.4174 -1.9975 -0.4354
 1322SOL    HW3 5362   2.028   3.626   2.168 -0.2422  1.7136 -0.0709
 1322SOL    MW4 5363   2.009   3.613   2.252  0.4375 -0.0458 -0.1626
 1323SOL     OW 5364   2.024   3.901   2.352  0.1575 -0.0517  0.1346
 1323SOL    HW2 5365   2.020   3.888   2.447 -0.0740 -0.1268  0.1141
 1323SOL    HW3 5366   2.026   3.812   2.315  1.7864 -0.0424  0.1324
 1323SOL    MW4 5367   2.024   3.887   2.360  0.3417 -0.0603  0.1316
 1324SOL     OW 5368   1.784   4.022   2.263 -0.0260  0.3920 -0.7341
 1324SOL    HW2 5369   1.857   3.972   2.299  0.3391  1.3044 -0.1745
 1324SOL    HW3 5370   1.803   4.113   2.287 -2.6320  0.3578  1.6724
 1324SOL    MW4 5371   1.796   4.027   2.271 -0.3216  0.5083 -0.3426
 1325SOL     OW 5372   1.824   4.301   2.325  0.1457 -0.2693 -0.0384
 1325SOL    HW2 5373   1.819   4.275   2.417  0.3436 -0.8336 -0.1910
 1325SOL    HW3 5374   1.737   4.334   2.305  0.1126 -0.1024  0.3607
 1325SOL    MW4 5375   1.812   4.302   2.334  0.1675 -0.3214 -0.0057
 1326SOL     OW 5376   2.057   4.421   2.243 -0.3859  0.1737  0.3855
 1326SOL    HW2 5377   1.974   4.378   2.261  0.6916 -1.6065  1.2669
 1326SOL    HW3 5378   2.067   4.416   2.148 -2.0201  1.8295  0.1152
 1326SOL    MW4 5379   2.048   4.415   2.233 -0.4594  0.1574  0.4659
 1327SOL     OW 5380   2.434   0.006   2.303  0.1286 -0.2000 -0.0026
 1327SOL    HW2 5381   2.512   0.058   2.283 -0.4521  0.4829 -0.4780
 1327SOL    HW3 5382   2.425   0.013   2.398 -0.1266  0.8197 -0.1014
 1327SOL    MW4 5383   2.443   0.014   2.313  0.0181  0.0247 -0.0784
 1328SOL     OW 5384   2.207   0.147   2.215 -0.4531 -0.2321  0.1748
 1328SOL    HW2 5385   2.205   0.220   2.277 -1.7546 -0.5139  0.4760
 1328SOL    HW3 5386   2.286   0.099   2.238 -1.9620 -1.4683  2.9523
 1328SOL    MW4 5387   2.217   0.151   2.226 -0.8240 -0.4324  0.5808
 1329SOL     OW 5388   2.210   0.382   2.365  0.5242 -0.5170 -0.1443
 1329SOL    HW2 5389   2.294   0.420   2.338  0.9196 -1.1402  0.1978
 1329SOL    HW3 5390   2.145   0.444   2.332  1.1663  0.6357  0.7065
 1329SOL    MW4 5391   2.213   0.395   2.357  0.6611 -0.4471  0.0131
 1330SOL     OW 5392   2.459   0.462   2.291 -0.4835 -0.4566  0.1147
 1330SOL    HW2 5393   2.550   0.443   2.317 -0.7395 -0.4421  1.0312
 1330SOL    HW3 5394   2.464   0.474   2.196  0.5147 -0.2456  0.1826
 1330SOL    MW4 5395   2.472   0.461   2.282 -0.3855 -0.4269  0.2446
 1331SOL     OW 5396   2.487   0.752   2.333  0.0097 -0.2485 -0.2016
 1331SOL    HW2 5397   2.575   0.784   2.315 -0.2682  1.0515  0.6538
 1331SOL    HW3 5398   2.489   0.660   2.308  1.9052 -0.4903  0.7821
 1331SOL    MW4 5399   2.499   0.744   2.327  0.2229 -0.1089  0.0412
 1332SOL     OW 5400   2.258   0.867   2.220 -0.2330  0.5636  0.0689
 1332SOL    HW2 5401   2.248   0.950   2.267  0.5005 -0.1767  1.5744
 1332SOL    HW3 5402   2.334   0.826   2.261  0.0657 -0.3738 -1.4019
 1332SOL    MW4 5403   2.267   0.873   2.232 -0.0966  0.3422  0.0737
 1333SOL     OW 5404   2.194   1.126   2.353  0.2410 -0.0204 -0.5082
 1333SOL    HW2 5405   2.267   1.185   2.335 -0.2728  0.6738 -0.3393
 1333SOL    HW3 5406   2.195   1.115   2.448 -0.7886  1.1942 -0.3431
 1333SOL    MW4 5407   2.204   1.132   2.363  0.0372  0.2313 -0.4640
 1334SOL     OW 5408   2.420   1.287   2.281  0.0947  0.1666  0.2263
 1334SOL    HW2 5409   2.504   1.240   2.285  0.1928  0.0254 -2.9190
 1334SOL    HW3 5410   2.443   1.378   2.296  0.7663  0.0973 -0.3617
 1334SOL    MW4 5411   2.434   1.293   2.284  0.1962  0.1388 -0.2661
 1335SOL     OW 5412   2.456   1.560   2.350 -0.0929  0.1298  0.1213
 1335SOL    HW2 5413   2.453   1.563   2.446 -1.0667  0.5377  0.0861
 1335SOL    HW3 5414   2.534   1.612   2.327 -1.5476  2.6305  0.5870
 1335SOL    MW4 5415   2.466   1.568   2.360 -0.4134  0.5137  0.1781
 1336SOL     OW 5416   2.222   1.693   2.246 -0.2694  0.2891  0.0880
 1336SOL    HW2 5417   2.294   1.650   2.291 -1.0857 -0.8224  0.3435
 1336SOL    HW3 5418   2.144   1.646   2.274 -0.9256  0.3737 -1.5234
 1336SOL    MW4 5419   2.221   1.681   2.256 -0.4640  0.1537 -0.0906
 1337SOL     OW 5420   2.188   1.962   2.328  0.0549 -0.1125  0.0147
 1337SOL    HW2 5421   2.276   1.984   2.298 -0.0954 -0.3643 -0.6291
 1337SOL    HW3 5422   2.173   1.873   2.295 -0.3552 -0.1551  0.3124
 1337SOL    MW4 5423   2.198   1.953   2.320 -0.0191 -0.1514 -0.0310
 1338SOL     OW 5424   2.458   2.041   2.260  0.0318  0.1808  0.0727
 1338SOL    HW2 5425   2.538   2.010   2.302  0.5468  0.3271 -0.7857
 1338SOL    HW3 5426   2.476   2.035   2.166 -0.1469  2.3459 -0.1253
 1338SOL    MW4 5427   2.471   2.036   2.253  0.0761  0.4859 -0.0670
 1339SOL     OW 5428   2.465   2.318   2.358 -0.0248 -0.3774 -0.2709
 1339SOL    HW2 5429   2.549   2.349   2.324 -0.3419  0.8442  0.0174
 1339SOL    HW3 5430   2.456   2.229   2.324  0.2643  0.3520 -2.2786
 1339SOL    MW4 5431   2.475   2.310   2.349 -0.0286 -0.1202 -0.4978
 1340SOL     OW 5432   2.263   2.421   2.214  0.7091  0.0546 -0.2847
 1340SOL    HW2 5433   2.241   2.511   2.240  1.8607  0.1956  0.2521
 1340SOL    HW3 5434   2.337   2.398   2.270  0.4881 -1.1955 -0.5047
 1340SOL    MW4 5435   2.270   2.430   2.225  0.8318 -0.0918 -0.2432
 1341SOL     OW 5436   2.227   2.697   2.280 -0.3124  0.4731 -0.3262
 1341SOL    HW2 5437   2.255   2.697   2.372  0.2065  0.4104 -0.4803
 1341SOL    HW3 5438   2.289   2.756   2.236 -0.4624  0.3819 -0.6603
 1341SOL    MW4 5439   2.239   2.705   2.286 -0.2637  0.4530 -0.3905
 1342SOL     OW 5440   2.475   2.815   2.224  0.2303 -0.5624 -0.1036
 1342SOL    HW2 5441   2.544   2.760   2.262  1.1312  0.8175  0.2938
 1342SOL    HW3 5442   2.502   2.825   2.132 -1.1649 -2.6763 -0.7731
 1342SOL    MW4 5443   2.488   2.809   2.217  0.1647 -0.6590 -0.1395
 1343SOL     OW 5444   2.449   3.078   2.301 -0.2434 -0.2484 -0.5395
 1343SOL    HW2 5445   2.532   3.118   2.275  0.3411 -1.7381 -1.0825
 1343SOL    HW3 5446   2.455   2.988   2.267 -1.6019 -0.7122  0.4151
 1343SOL    MW4 5447   2.461   3.071   2.293 -0.3455 -0.5064 -0.4852
 1344SOL     OW 5448   2.238   3.235   2.194 -0.2552 -0.1569 -0.1301
 1344SOL    HW2 5449   2.251   3.319   2.237  0.2632 -0.4097  0.2035
 1344SOL    HW3 5450   2.299   3.175   2.237 -0.7726 -0.7572 -0.2171
 1344SOL    MW4 5451   2.247   3.238   2.205 -0.2551 -0.2692 -0.0980
 1345SOL     OW 5452   2.220   3.468   2.347 -0.1342 -0.2606  0.0953
 1345SOL    HW2 5453   2.208   3.465   2.442  1.5991  1.4615  0.3949
 1345SOL    HW3 5454   2.143   3.515   2.315 -0.7829 -0.9481  0.6072
 1345SOL    MW4 5455   2.208   3.473   2.356  0.0091 -0.1240  0.2022
 1346SOL     OW 5456   2.461   3.577   2.254  0.4323 -0.1607  0.6861
 1346SOL    HW2 5457   2.462   3.668   2.282  2.1838 -0.3910  1.4508
 1346SOL    HW3 5458   2.382   3.540   2.293  1.6470  0.1077  3.4789
 1346SOL    MW4 5459   2.451   3.584   2.262  0.8237 -0.1557  1.1554
 1347SOL     OW 5460   2.447   3.851   2.335  0.0753  0.3241 -0.2039
 1347SOL    HW2 5461   2.436   3.859   2.430  0.0404  0.4089 -0.2145
 1347SOL    HW3 5462   2.374   3.901   2.298  0.4231  0.7816 -0.2767
 1347SOL    MW4 5463   2.436   3.859   2.343  0.1166  0.3955 -0.2148
 1348SOL     OW 5464   2.257   3.999   2.219  0.3108 -0.1462 -0.1532
 1348SOL    HW2 5465   2.261   4.082   2.267  0.2999 -0.1611 -0.1271
 1348SOL    HW3 5466   2.179   3.955   2.251 -0.0224  0.1067 -0.6088
 1348SOL    MW4 5467   2.248   4.004   2.229  0.2654 -0.1149 -0.2098
 1349SOL     OW 5468   2.291   4.287   2.351  0.1910 -0.3537  0.0311
 1349SOL    HW2 5469   2.274   4.271   2.444  1.6543 -1.3303  0.1445
 1349SOL    HW3 5470   2.210   4.327   2.319 -0.2930  0.1034  1.7407
 1349SOL    MW4 5471   2.278   4.290   2.359  0.3202 -0.4220  0.2718
 1350SOL     OW 5472   2.472   4.420   2.195 -0.7437 -0.3816 -0.4667
 1350SOL    HW2 5473   2.475   4.512   2.223  0.9925 -0.6158  0.1650
 1350SOL    HW3 5474   2.411   4.378   2.255 -1.1783  0.2440 -0.4582
 1350SOL    MW4 5475   2.464   4.427   2.206 -0.5720 -0.3300 -0.3822
 1351SOL     OW 5476   2.909   4.663   2.327  0.1277  0.1463 -0.8228
 1351SOL    HW2 5477   2.984   4.719   2.306  1.2369 -0.6663  0.8747
 1351SOL    HW3 5478   2.930   4.580   2.283  0.3816 -0.1850 -0.0721
 1351SOL    MW4 5479   2.922   4.659   2.318  0.3073 -0.0048 -0.4997
 1352SOL     OW 5480   2.672   0.157   2.245  0.0771  0.3656  0.1322
 1352SOL    HW2 5481   2.684   0.239   2.292  0.2487 -0.0987  0.9180
 1352SOL    HW3 5482   2.749   0.105   2.268 -0.8214 -0.6324  0.9559
 1352SOL    MW4 5483   2.684   0.161   2.255 -0.0188  0.1727  0.3443
 1353SOL     OW 5484   2.703   0.394   2.377 -0.4682 -0.2045 -0.6000
 1353SOL    HW2 5485   2.701   0.390   2.472 -1.1716 -3.3996 -0.6862
 1353SOL    HW3 5486   2.780   0.448   2.356 -0.7162  1.1038  1.7343
 1353SOL    MW4 5487   2.713   0.401   2.386 -0.5941 -0.4534 -0.3033
 1354SOL     OW 5488   2.938   0.485   2.250  0.5134 -0.6648  0.5144
 1354SOL    HW2 5489   2.928   0.576   2.278  0.4959 -0.7143  0.6720
 1354SOL    HW3 5490   2.924   0.487   2.155  0.9354 -0.4396  0.4561
 1354SOL    MW4 5491   2.935   0.497   2.241  0.5667 -0.6416  0.5274
 1355SOL     OW 5492   2.919   0.745   2.351  0.3018 -0.2687 -0.0551
 1355SOL    HW2 5493   2.926   0.755   2.446  0.1578 -1.6513  0.1070
 1355SOL    HW3 5494   2.834   0.784   2.329  0.6814  0.7683  0.2648
 1355SOL    MW4 5495   2.909   0.752   2.361  0.3328 -0.3143  0.0086
 1356SOL     OW 5496   2.708   0.902   2.252 -0.0413 -0.4398  0.2870
 1356SOL    HW2 5497   2.715   0.990   2.290 -0.8087 -0.0007 -0.5850
 1356SOL    HW3 5498   2.703   0.916   2.157  0.4815 -1.4609  0.0915
 1356SOL    MW4 5499   2.708   0.915   2.244 -0.0737 -0.5165  0.1464
 1357SOL     OW 5500   2.660   1.177   2.339 -0.0639  0.4236  0.7412
 1357SOL    HW2 5501   2.661   1.151   2.431  1.7017 -0.7072  0.4019
 1357SOL    HW3 5502   2.741   1.226   2.327  0.9186 -1.5580 -0.8218
 1357SOL    MW4 5503   2.671   1.180   2.350  0.2985  0.0129  0.4902
 1358SOL     OW 5504   2.892   1.306   2.269 -0.0674 -0.0489  0.4482
 1358SOL    HW2 5505   2.964   1.249   2.295  1.1792  1.1446 -0.3045
 1358SOL    HW3 5506   2.897   1.311   2.174 -2.5728 -1.7417  0.1620
 1358SOL    MW4 5507   2.902   1.299   2.260 -0.2337 -0.1147  0.3109
 1359SOL     OW 5508   2.902   1.554   2.366  0.1159 -0.2396  0.1801
 1359SOL    HW2 5509   2.900   1.546   2.461 -0.3430 -2.2347  0.0330
 1359SOL    HW3 5510   2.901   1.464   2.334 -2.2603  0.4042 -1.7678
 1359SOL    MW4 5511   2.902   1.541   2.374 -0.2580 -0.4177 -0.0963
 1360SOL     OW 5512   2.699   1.706   2.263  0.0380  0.7639 -0.1419
 1360SOL    HW2 5513   2.768   1.651   2.300 -0.0811 -0.1935 -1.3142
 1360SOL    HW3 5514   2.713   1.702   2.168 -2.0142  0.0308 -0.4395
 1360SOL    MW4 5515   2.710   1.698   2.255 -0.2484  0.5410 -0.3359
 1361SOL     OW 5516   2.685   1.971   2.389  0.1102 -0.3328 -0.3670
 1361SOL    HW2 5517   2.664   1.962   2.482 -1.1024 -0.1906 -0.6065
 1361SOL    HW3 5518   2.711   1.883   2.362 -0.2908 -0.5494 -0.0648
 1361SOL    MW4 5519   2.685   1.958   2.398 -0.1025 -0.3425 -0.3586
 1362SOL     OW 5520   2.920   2.046   2.248  0.0865 -0.0238  0.0090
 1362SOL    HW2 5521   2.993   1.998   2.286  0.7318  0.6732 -0.3476
 1362SOL    HW3 5522   2.843   2.016   2.297  0.2295 -2.6816 -1.3232
 1362SOL    MW4 5523   2.920   2.036   2.260  0.1905 -0.2825 -0.2139
 1363SOL     OW 5524   2.928   2.309   2.338  0.4791 -0.4377 -0.3460
 1363SOL    HW2 5525   2.941   2.299   2.433 -1.3278 -1.0830 -0.1392
 1363SOL    HW3 5526   2.921   2.220   2.305 -1.7308 -0.1806 -0.6372
 1363SOL    MW4 5527   2.929   2.296   2.346 -0.0508 -0.4890 -0.3569
 1364SOL     OW 5528   2.704   2.417   2.250 -0.2362  0.1969 -0.0583
 1364SOL    HW2 5529   2.785   2.381   2.286 -1.3987 -1.0029  1.3633
 1364SOL    HW3 5530   2.718   2.417   2.155  1.1598 -0.6228  0.1432
 1364SOL    MW4 5531   2.717   2.412   2.242 -0.2058 -0.0696  0.1559
 1365SOL     OW 5532   2.673   2.686   2.348 -0.1561 -0.0879  0.1028
 1365SOL    HW2 5533   2.742   2.740   2.310  1.3760 -1.0210  1.5099
 1365SOL    HW3 5534   2.688   2.599   2.312 -1.5361  0.0186 -0.7634
 1365SOL    MW4 5535   2.684   2.682   2.338 -0.1357 -0.1969  0.1738
 1366SOL     OW 5536   2.897   2.837   2.225 -0.3569 -0.0844 -0.1790
 1366SOL    HW2 5537   2.892   2.928   2.253 -0.2725 -0.3918  0.8659
 1366SOL    HW3 5538   2.898   2.841   2.130 -0.8275  0.9832 -0.1452
 1366SOL    MW4 5539   2.896   2.850   2.216 -0.4079  0.0157 -0.0367
 1367SOL     OW 5540   2.884   3.090   2.359 -0.6357  0.2371 -0.4323
 1367SOL    HW2 5541   2.960   3.110   2.306 -0.6223  1.8689  0.1796
 1367SOL    HW3 5542   2.810   3.128   2.311 -0.9262 -0.4008 -0.4933
 1367SOL    MW4 5543   2.884   3.097   2.346 -0.6723  0.3684 -0.3598
 1368SOL     OW 5544   2.679   3.197   2.221 -0.1252  0.1447  0.1298
 1368SOL    HW2 5545   2.706   3.286   2.241  2.3401 -0.5055 -0.1125
 1368SOL    HW3 5546   2.679   3.192   2.126  1.9429 -0.6902  0.1322
 1368SOL    MW4 5547   2.683   3.208   2.211  0.4730 -0.0513  0.0982
 1369SOL     OW 5548   2.696   3.465   2.340  0.3249  0.4994  0.1616
 1369SOL    HW2 5549   2.758   3.513   2.286  0.8429  1.0421  1.2214
 1369SOL    HW3 5550   2.610   3.501   2.317  0.7141  2.0128  0.9968
 1369SOL    MW4 5551   2.693   3.476   2.330  0.4444  0.7706  0.4115
 1370SOL     OW 5552   2.898   3.600   2.213 -0.4267  0.2285  0.2674
 1370SOL    HW2 5553   2.985   3.570   2.240 -0.4256  0.2638  0.3022
 1370SOL    HW3 5554   2.878   3.673   2.273  0.5139  1.7495 -1.2400
 1370SOL    MW4 5555   2.907   3.606   2.225 -0.3026  0.4339  0.0732
 1371SOL     OW 5556   2.874   3.870   2.333  0.1297 -0.1741  0.6615
 1371SOL    HW2 5557   2.860   3.878   2.427  0.3253  2.1522  0.5344
 1371SOL    HW3 5558   2.796   3.908   2.294  0.8628  0.5795 -0.0997
 1371SOL    MW4 5559   2.862   3.876   2.340  0.2525  0.2322  0.5441
 1372SOL     OW 5560   2.647   3.994   2.211 -0.1280  0.0789  0.3376
 1372SOL    HW2 5561   2.578   3.959   2.267  0.9944 -0.8455  1.1551
 1372SOL    HW3 5562   2.656   4.085   2.239 -2.0116  0.6442 -0.7781
 1372SOL    MW4 5563   2.639   4.002   2.222 -0.2284  0.0315  0.2983
 1373SOL     OW 5564   2.712   4.267   2.301 -0.1979  0.4404  0.0672
 1373SOL    HW2 5565   2.704   4.271   2.396 -0.7274  3.0233 -0.0476
 1373SOL    HW3 5566   2.634   4.313   2.268  0.6804  0.7976 -1.5701
 1373SOL    MW4 5567   2.701   4.274   2.309 -0.1521  0.8287 -0.1638
 1374SOL     OW 5568   2.923   4.409   2.215 -0.0775  0.0161  0.0086
 1374SOL    HW2 5569   2.997   4.355   2.243 -0.6156 -0.8729 -0.2516
 1374SOL    HW3 5570   2.846   4.361   2.246 -0.6102 -0.0263 -1.3425
 1374SOL    MW4 5571   2.922   4.395   2.223 -0.2189 -0.1068 -0.2041
 1375SOL     OW 5572   3.360   4.641   2.329 -0.0746  0.1972 -0.4071
 1375SOL    HW2 5573   3.354   4.679   2.417 -0.0652 -1.6697  0.4285
 1375SOL    HW3 5574   3.440   4.678   2.292  1.3679 -1.0574  1.3926
 1375SOL    MW4 5575   3.370   4.651   2.336  0.1168 -0.2146 -0.0594
 1376SOL     OW 5576   3.161   0.135   2.218  0.6291  0.2449 -0.3022
 1376SOL    HW2 5577   3.179   0.206   2.278  0.3155 -0.6021  0.8071
 1376SOL    HW3 5578   3.228   0.069   2.237 -1.1245 -1.2043  1.0670
 1376SOL    MW4 5579   3.172   0.136   2.228  0.3564 -0.0580  0.0246
 1377SOL     OW 5580   3.150   0.375   2.385 -0.6309  0.0687  0.1409
 1377SOL    HW2 5581   3.222   0.435   2.367  0.1193 -0.3938  1.5281
 1377SOL    HW3 5582   3.080   0.404   2.326  0.6630  0.5307 -1.2169
 1377SOL    MW4 5583   3.150   0.387   2.375 -0.3614  0.0687  0.1450
 1378SOL     OW 5584   3.376   0.508   2.292 -0.3781  0.1639  0.6147
 1378SOL    HW2 5585   3.449   0.457   2.324  0.1280  1.0238  0.8399
 1378SOL    HW3 5586   3.385   0.505   2.196 -0.9481 -1.0198  0.5840
 1378SOL    MW4 5587   3.387   0.501   2.283 -0.3867  0.1212  0.6404
 1379SOL     OW 5588   3.355   0.798   2.387 -0.1800 -0.0952 -0.2610
 1379SOL    HW2 5589   3.420   0.854   2.344  0.8884 -1.4959 -0.5163
 1379SOL    HW3 5590   3.355   0.717   2.335 -0.8262 -0.7874  0.7943
 1379SOL    MW4 5591   3.363   0.794   2.374 -0.1242 -0.3714 -0.1554
 1380SOL     OW 5592   3.136   0.905   2.253  0.1935 -0.0441  0.4183
 1380SOL    HW2 5593   3.209   0.867   2.302  1.2367 -0.2821 -1.2857
 1380SOL    HW3 5594   3.058   0.861   2.287  0.9044 -0.2903  1.7558
 1380SOL    MW4 5595   3.135   0.895   2.264  0.4251 -0.1080  0.3698
 1381SOL     OW 5596   3.112   1.150   2.374  0.6042 -0.0381  0.4740
 1381SOL    HW2 5597   3.181   1.198   2.328 -0.1325  0.9235  0.3578
 1381SOL    HW3 5598   3.119   1.060   2.342  1.0403  0.3164 -0.4269
 1381SOL    MW4 5599   3.122   1.144   2.364  0.5646  0.1355  0.3400
 1382SOL     OW 5600   3.338   1.262   2.261  0.0855 -0.0679 -0.2119
 1382SOL    HW2 5601   3.424   1.226   2.282 -0.2080 -0.3988  0.4490
 1382SOL    HW3 5602   3.350   1.357   2.263  0.3738 -0.1096  0.1492
 1382SOL    MW4 5603   3.351   1.270   2.264  0.0844 -0.1172 -0.0770
 1383SOL     OW 5604   3.339   1.545   2.368 -0.0287  0.2555  0.2435
 1383SOL    HW2 5605   3.335   1.561   2.462 -0.3429  1.3772  0.0597
 1383SOL    HW3 5606   3.267   1.599   2.332  0.0132 -0.2544 -0.6162
 1383SOL    MW4 5607   3.329   1.554   2.376 -0.0646  0.3362  0.1059
 1384SOL     OW 5608   3.129   1.678   2.259 -0.6330 -0.1482  0.0838
 1384SOL    HW2 5609   3.133   1.769   2.290  1.6462 -0.0855 -0.2777
 1384SOL    HW3 5610   3.046   1.645   2.293 -0.7415  1.5761  1.6265
 1384SOL    MW4 5611   3.119   1.686   2.268 -0.3464  0.0875  0.2396
 1385SOL     OW 5612   3.128   1.931   2.357 -0.3864 -0.0031  1.1353
 1385SOL    HW2 5613   3.130   1.938   2.453  1.1857  0.9911  1.0468
 1385SOL    HW3 5614   3.206   1.978   2.328 -0.6586 -0.6028 -0.6265
 1385SOL    MW4 5615   3.139   1.938   2.366 -0.2148  0.0489  0.8912
 1386SOL     OW 5616   3.352   2.060   2.249  0.1267 -1.0157  0.0799
 1386SOL    HW2 5617   3.433   2.017   2.275 -0.6550 -2.5446  0.0367
 1386SOL    HW3 5618   3.355   2.061   2.153  1.2306  1.1862  0.0974
 1386SOL    MW4 5619   3.363   2.055   2.240  0.1693 -0.9267  0.0768
 1387SOL     OW 5620   3.371   2.318   2.347  0.1368 -0.5659  0.1162
 1387SOL    HW2 5621   3.291   2.364   2.322 -0.6162 -1.0835  1.5333
 1387SOL    HW3 5622   3.359   2.229   2.313  0.7258 -0.2767 -0.8772
 1387SOL    MW4 5623   3.359   2.312   2.339  0.1154 -0.5958  0.1721
 1388SOL     OW 5624   3.151   2.462   2.233  0.1936 -0.2221  0.0482
 1388SOL    HW2 5625   3.144   2.555   2.253 -2.6767 -0.6798  1.3813
 1388SOL    HW3 5626   3.071   2.423   2.268  1.2204 -3.1704 -0.6909
 1388SOL    MW4 5627   3.140   2.469   2.240 -0.0496 -0.6716  0.1266
 1389SOL     OW 5628   3.135   2.737   2.300  0.1581  0.6283  0.1253
 1389SOL    HW2 5629   3.133   2.724   2.395 -0.6163  1.0883  0.1787
 1389SOL    HW3 5630   3.044   2.760   2.277  0.9215  3.4060 -0.2968
 1389SOL    MW4 5631   3.122   2.739   2.310  0.1569  1.0552  0.0768
 1390SOL     OW 5632   3.365   2.882   2.229 -0.3582  0.8471 -0.5290
 1390SOL    HW2 5633   3.435   2.831   2.269  0.3653  1.5686 -0.8732
 1390SOL    HW3 5634   3.286   2.832   2.247  0.0419  0.8007  1.1843
 1390SOL    MW4 5635   3.364   2.869   2.236 -0.2100  0.9363 -0.3483
 1391SOL     OW 5636   3.340   3.118   2.341 -0.1980 -0.1608 -0.5193
 1391SOL    HW2 5637   3.348   3.034   2.297  1.6045  0.2124 -0.9520
 1391SOL    HW3 5638   3.275   3.166   2.290  1.1083 -0.1214 -2.2013
 1391SOL    MW4 5639   3.333   3.114   2.328  0.2120 -0.1063 -0.7982
 1392SOL     OW 5640   3.100   3.230   2.216 -0.0485  0.1374  0.1110
 1392SOL    HW2 5641   3.110   3.318   2.252 -2.5877  0.0677  1.0589
 1392SOL    HW3 5642   3.122   3.240   2.123  0.0329  1.6841  0.2774
 1392SOL    MW4 5643   3.104   3.243   2.208 -0.3726  0.3321  0.2582
 1393SOL     OW 5644   3.147   3.491   2.313 -0.0539 -0.1157  0.4137
 1393SOL    HW2 5645   3.135   3.492   2.408  0.7966  1.9768  0.5307
 1393SOL    HW3 5646   3.224   3.547   2.298 -0.9433  0.6188 -1.6047
 1393SOL    MW4 5647   3.156   3.499   2.323 -0.0594  0.2570  0.1628
 1394SOL     OW 5648   3.374   3.618   2.236 -0.3272 -0.0844  0.1913
 1394SOL    HW2 5649   3.452   3.573   2.268  1.4066  2.5612 -0.1200
 1394SOL    HW3 5650   3.384   3.618   2.141 -0.8094  0.0596  0.1423
 1394SOL    MW4 5651   3.386   3.612   2.228 -0.1619  0.2837  0.1438
 1395SOL     OW 5652   3.366   3.884   2.306  0.0952 -0.1048  0.1913
 1395SOL    HW2 5653   3.443   3.906   2.254  1.4956 -2.5557  1.1898
 1395SOL    HW3 5654   3.333   3.803   2.268  0.4745 -1.3229  2.3381
 1395SOL    MW4 5655   3.372   3.877   2.294  0.3297 -0.5889  0.6063
 1396SOL     OW 5656   3.101   4.007   2.235 -0.0113  0.4258  0.1295
 1396SOL    HW2 5657   3.175   3.963   2.276 -0.7584  0.5850  1.6584
 1396SOL    HW3 5658   3.024   3.973   2.280 -0.7392  1.8355 -0.0114
 1396SOL    MW4 5659   3.100   3.997   2.246 -0.2060  0.6328  0.3128
 1397SOL     OW 5660   3.124   4.262   2.290 -0.0529 -0.4398 -0.1152
 1397SOL    HW2 5661   3.211   4.293   2.265 -0.0119 -0.0012  0.5826
 1397SOL    HW3 5662   3.125   4.168   2.269  0.0107 -0.1017 -1.6911
 1397SOL    MW4 5663   3.136   4.253   2.284 -0.0393 -0.3371 -0.2313
 1398SOL     OW 5664   3.368   4.365   2.235  0.0889 -0.0564 -0.1729
 1398SOL    HW2 5665   3.363   4.450   2.278 -0.7469  0.3429 -1.0519
 1398SOL    HW3 5666   3.364   4.384   2.142  0.5643 -1.0151 -0.4014
 1398SOL    MW4 5667   3.367   4.379   2.228  0.0412 -0.1302 -0.3190
 1399SOL     OW 5668   3.788   4.613   2.368  0.2718  0.1942  0.0700
 1399SOL    HW2 5669   3.784   4.618   2.463  0.7777 -1.9150  0.2374
 1399SOL    HW3 5670   3.859   4.673   2.344  0.3510  0.5000  1.0521
 1399SOL    MW4 5671   3.797   4.622   2.377  0.3490 -0.0443  0.2213
 1400SOL     OW 5672   3.588   0.091   2.243  0.3573  0.0879 -0.3734
 1400SOL    HW2 5673   3.595   0.174   2.290 -0.4285 -1.3595  2.4195
 1400SOL    HW3 5674   3.655   0.036   2.282  0.5028 -0.7709 -1.8204
 1400SOL    MW4 5675   3.598   0.095   2.255  0.2730 -0.2164 -0.1957
 1401SOL     OW 5676   3.595   0.332   2.369 -0.0249  0.3270  0.3705
 1401SOL    HW2 5677   3.593   0.330   2.465 -0.2042  0.8675  0.3783
 1401SOL    HW3 5678   3.678   0.372   2.347 -0.0668  0.3766  0.3021
 1401SOL    MW4 5679   3.605   0.337   2.379 -0.0539  0.4048  0.3624
 1402SOL     OW 5680   3.850   0.486   2.277  0.0151 -0.1280  0.1285
 1402SOL    HW2 5681   3.824   0.570   2.317 -2.4362 -0.3353 -0.9336
 1402SOL    HW3 5682   3.820   0.493   2.186  1.5797 -1.3981 -0.4917
 1402SOL    MW4 5683   3.843   0.498   2.271 -0.1018 -0.3229 -0.0937
 1403SOL     OW 5684   3.761   0.729   2.362 -0.6260  0.0875  0.2921
 1403SOL    HW2 5685   3.757   0.749   2.456 -0.3388  0.5353  0.2094
 1403SOL    HW3 5686   3.843   0.769   2.333 -0.9809  0.4073 -0.2630
 1403SOL    MW4 5687   3.771   0.737   2.371 -0.6347  0.1888  0.2079
 1404SOL     OW 5688   3.578   0.910   2.260 -0.4772 -0.4838  0.4909
 1404SOL    HW2 5689   3.646   0.855   2.299 -0.1192  0.6165  1.4339
 1404SOL    HW3 5690   3.584   0.893   2.166  2.3950  1.0853  0.3642
 1404SOL    MW4 5691   3.588   0.900   2.253 -0.0508 -0.1316  0.5987
 1405SOL     OW 5692   3.560   1.150   2.393 -0.4178 -0.5289  0.7167
 1405SOL    HW2 5693   3.552   1.130   2.486 -0.4041 -2.3163  0.3414
 1405SOL    HW3 5694   3.569   1.065   2.350  0.5425  0.3271 -0.8316
 1405SOL    MW4 5695   3.560   1.136   2.399 -0.2894 -0.6517  0.4630
 1406SOL     OW 5696   3.805   1.247   2.305  0.1281  0.0200  0.1287
 1406SOL    HW2 5697   3.803   1.340   2.327  1.0174 -0.0848  0.6878
 1406SOL    HW3 5698   3.731   1.209   2.351 -0.6200  0.5572 -0.6149
 1406SOL    MW4 5699   3.795   1.255   2.314  0.1469  0.0770  0.1047
 1407SOL     OW 5700   3.793   1.533   2.332 -0.1443 -0.2064  0.0740
 1407SOL    HW2 5701   3.797   1.529   2.427  1.1710  1.2102  0.1060
 1407SOL    HW3 5702   3.717   1.587   2.313 -1.5489 -2.0598  0.2452
 1407SOL    MW4 5703   3.784   1.539   2.342 -0.1562 -0.2640  0.1006
 1408SOL     OW 5704   3.565   1.681   2.286  0.3069 -0.3236  0.0505
 1408SOL    HW2 5705   3.488   1.636   2.320  0.9662 -0.7903  0.9690
 1408SOL    HW3 5706   3.557   1.675   2.191 -1.4095  0.7121  0.1133
 1408SOL    MW4 5707   3.554   1.674   2.278  0.1674 -0.2483  0.1798
 1409SOL     OW 5708   3.599   1.960   2.337  0.0860 -0.8975  0.5449
 1409SOL    HW2 5709   3.685   1.987   2.305  0.0479  0.1320  1.2914
 1409SOL    HW3 5710   3.588   1.871   2.303  0.9488 -0.6125 -0.5016
 1409SOL    MW4 5711   3.609   1.952   2.329  0.1948 -0.7241  0.5052
 1410SOL     OW 5712   3.823   2.078   2.226 -0.3383 -0.0522 -0.5798
 1410SOL    HW2 5713   3.889   2.018   2.259 -1.8047 -1.9152 -0.9239
 1410SOL    HW3 5714   3.835   2.077   2.131 -0.5483 -0.0315 -0.6065
 1410SOL    MW4 5715   3.833   2.070   2.218 -0.5593 -0.2956 -0.6287
 1411SOL     OW 5716   3.578   2.459   2.225  0.3809 -0.2140 -0.3548
 1411SOL    HW2 5717   3.510   2.415   2.277  0.3550 -0.9481 -1.0052
 1411SOL    HW3 5718   3.659   2.416   2.251  0.5219  0.2228 -0.0586
 1411SOL    MW4 5719   3.580   2.448   2.235  0.3958 -0.2532 -0.4015
 1412SOL     OW 5720   3.603   2.477   1.935 -0.0425 -0.0794 -0.0975
 1412SOL    HW2 5721   3.599   2.476   2.030  0.2389 -0.5041 -0.0891
 1412SOL    HW3 5722   3.613   2.569   1.912 -0.7232  0.0833  0.2571
 1412SOL    MW4 5723   3.604   2.489   1.944 -0.0951 -0.1140 -0.0495
 1413SOL     OW 5724   3.553   2.716   2.321  0.0613 -0.0799 -0.4878
 1413SOL    HW2 5725   3.559   2.631   2.277 -0.3956  0.2772 -1.2445
 1413SOL    HW3 5726   3.548   2.694   2.414 -2.7116 -1.0206 -0.8274
 1413SOL    MW4 5727   3.553   2.702   2.327 -0.3648 -0.1569 -0.6325
 1414SOL     OW 5728   3.800   2.845   2.272  0.4826  0.1442  0.2630
 1414SOL    HW2 5729   3.797   2.930   2.318 -0.0289  0.0445  0.4157
 1414SOL    HW3 5730   3.726   2.796   2.308 -1.0723  0.7582 -2.0327
 1414SOL    MW4 5731   3.790   2.850   2.283  0.2100  0.2120 -0.0196
 1415SOL     OW 5732   3.803   3.113   2.359  0.4818 -0.0487 -0.5783
 1415SOL    HW2 5733   3.789   3.106   2.454  1.1694  0.7393 -0.4175
 1415SOL    HW3 5734   3.719   3.142   2.324  0.9487  2.2386  0.1007
 1415SOL    MW4 5735   3.790   3.116   2.367  0.6342  0.3567 -0.4673
 1416SOL     OW 5736   3.571   3.228   2.225 -0.3540  0.9782 -0.1848
 1416SOL    HW2 5737   3.567   3.313   2.269  1.5866  1.2405 -0.4677
 1416SOL    HW3 5738   3.497   3.179   2.261  1.0592  1.2491  3.2761
 1416SOL    MW4 5739   3.561   3.233   2.236  0.0885  1.0486  0.2344
 1417SOL     OW 5740   3.597   3.484   2.335 -0.0033 -0.3421 -0.2035
 1417SOL    HW2 5741   3.597   3.493   2.430 -0.2035 -2.1070 -0.0159
 1417SOL    HW3 5742   3.686   3.507   2.308 -0.0557  0.5375  0.3676
 1417SOL    MW4 5743   3.608   3.488   2.344 -0.0367 -0.4587 -0.1032
 1418SOL     OW 5744   3.836   3.611   2.228  0.2101  0.1553  0.2632
 1418SOL    HW2 5745   3.826   3.694   2.275  0.6769  1.0395 -1.1658
 1418SOL    HW3 5746   3.909   3.567   2.272  0.2218  0.6672  0.7634
 1418SOL    MW4 5747   3.844   3.616   2.240  0.2732  0.3395  0.1407
 1419SOL     OW 5748   3.776   3.834   2.394 -0.2558 -0.1986  0.1778
 1419SOL    HW2 5749   3.772   3.819   2.489  0.4542 -1.6442 -0.0028
 1419SOL    HW3 5750   3.846   3.897   2.383  0.8023 -1.2938  0.4974
 1419SOL    MW4 5751   3.785   3.840   2.405 -0.0224 -0.5338  0.1960
 1420SOL     OW 5752   3.598   4.020   2.221  0.1578  0.7022  0.1087
 1420SOL    HW2 5753   3.610   4.106   2.262  0.2129  1.0241 -0.5838
 1420SOL    HW3 5754   3.642   3.960   2.281 -0.0273  1.1323  0.6850
 1420SOL    MW4 5755   3.605   4.024   2.234  0.1404  0.8011  0.0932
 1421SOL     OW 5756   3.600   4.267   2.357 -0.5131 -0.0467 -0.0603
 1421SOL    HW2 5757   3.665   4.312   2.303 -0.1523 -0.5607 -0.0487
 1421SOL    HW3 5758   3.516   4.298   2.323 -0.2529  2.5255  1.5237
 1421SOL    MW4 5759   3.597   4.277   2.345 -0.4311  0.2251  0.1500
 1422SOL     OW 5760   3.793   4.387   2.214 -0.1779 -0.0079 -0.1498
 1422SOL    HW2 5761   3.876   4.354   2.247 -1.1508 -1.5505  0.8401
 1422SOL    HW3 5762   3.785   4.475   2.251  0.7164 -0.1076  0.2817
 1422SOL    MW4 5763   3.803   4.394   2.223 -0.1884 -0.2236  0.0374
 1423SOL     OW 5764   4.213   4.630   2.356 -0.0661 -0.7413 -0.4026
 1423SOL    HW2 5765   4.229   4.617   2.449  0.0111  1.1560 -0.1241
 1423SOL    HW3 5766   4.292   4.674   2.324 -0.5476 -0.3851 -1.1265
 1423SOL    MW4 5767   4.226   4.634   2.364 -0.1197 -0.4444 -0.4609
 1424SOL     OW 5768   3.988   0.103   2.272  0.2058  0.1951 -0.1160
 1424SOL    HW2 5769   4.002   0.186   2.318 -3.4575 -0.4311  2.3185
 1424SOL    HW3 5770   4.059   0.047   2.302  0.3750  1.1933  1.4148
 1424SOL    MW4 5771   3.999   0.106   2.282 -0.2556  0.2442  0.4072
 1425SOL     OW 5772   4.064   0.342   2.383 -0.4092 -0.0981  0.6229
 1425SOL    HW2 5773   4.145   0.383   2.352 -0.6931  0.0967  0.1209
 1425SOL    HW3 5774   3.994   0.392   2.341 -0.7681 -0.9761  0.1437
 1425SOL    MW4 5775   4.065   0.354   2.373 -0.4940 -0.1882  0.4930
 1426SOL     OW 5776   4.275   0.484   2.261  0.4191 -0.1665 -0.4627
 1426SOL    HW2 5777   4.244   0.568   2.296  0.1378  0.5279 -2.3134
 1426SOL    HW3 5778   4.350   0.462   2.316 -0.5278  0.4516  1.1193
 1426SOL    MW4 5779   4.281   0.492   2.273  0.2575  0.0066 -0.4985
 1427SOL     OW 5780   4.216   0.710   2.399  0.4115  0.3212 -0.1649
 1427SOL    HW2 5781   4.128   0.730   2.368  0.4523 -0.7988 -1.0243
 1427SOL    HW3 5782   4.273   0.767   2.348  0.3779 -0.6478 -1.3056
 1427SOL    MW4 5783   4.212   0.720   2.388  0.4125  0.0456 -0.4287
 1428SOL     OW 5784   3.990   0.848   2.277 -0.1035 -0.5224 -0.0945
 1428SOL    HW2 5785   4.001   0.935   2.314  2.6976 -1.9605  2.7187
 1428SOL    HW3 5786   4.024   0.854   2.188  3.0164  0.5368  1.1326
 1428SOL    MW4 5787   3.996   0.860   2.270  0.6773 -0.5724  0.4385
 1429SOL     OW 5788   4.025   1.106   2.365  0.3079  0.0899  0.6705
 1429SOL    HW2 5789   4.032   1.115   2.460  0.5623  0.4421  0.6204
 1429SOL    HW3 5790   3.953   1.164   2.341  1.7747  1.8111  0.3779
 1429SOL    MW4 5791   4.017   1.115   2.375  0.5350  0.3635  0.6256
 1430SOL     OW 5792   4.252   1.244   2.306 -0.0431  0.3406  0.7527
 1430SOL    HW2 5793   4.189   1.174   2.319  0.1519 -0.4680 -2.1809
 1430SOL    HW3 5794   4.337   1.204   2.325  0.1242 -0.4421 -1.5126
 1430SOL    MW4 5795   4.255   1.229   2.310  0.0043  0.1307  0.0668
 1431SOL     OW 5796   4.214   1.513   2.408 -0.2523  0.2082  0.2094
 1431SOL    HW2 5797   4.213   1.418   2.396 -0.7097  0.3254 -0.7011
 1431SOL    HW3 5798   4.299   1.541   2.375  0.1427  0.0403  1.0793
 1431SOL    MW4 5799   4.225   1.504   2.402 -0.2608  0.2015  0.2041
 1432SOL     OW 5800   4.035   1.668   2.272 -0.5464  0.3680  0.1489
 1432SOL    HW2 5801   4.103   1.622   2.322 -0.7929 -0.1290  0.0302
 1432SOL    HW3 5802   3.953   1.629   2.302 -0.6390 -0.6699 -1.3827
 1432SOL    MW4 5803   4.033   1.657   2.282 -0.5918  0.1656 -0.0687
 1433SOL     OW 5804   4.043   1.939   2.348  0.3413 -0.1346 -0.2560
 1433SOL    HW2 5805   4.036   1.922   2.442 -1.9425  0.5600 -0.2576
 1433SOL    HW3 5806   4.043   1.852   2.308 -1.1788 -0.4059  0.2806
 1433SOL    MW4 5807   4.042   1.925   2.355 -0.1607 -0.0789 -0.1855
 1434SOL     OW 5808   4.261   2.054   2.234 -0.4259  0.0419  0.2057
 1434SOL    HW2 5809   4.237   2.141   2.266 -2.0464 -0.4445  0.3572
 1434SOL    HW3 5810   4.196   1.996   2.272 -0.0138 -1.0854 -0.7902
 1434SOL    MW4 5811   4.249   2.058   2.243 -0.5860 -0.1709  0.0942
 1435SOL     OW 5812   4.250   2.323   2.315 -0.6015 -0.2117 -0.3651
 1435SOL    HW2 5813   4.177   2.381   2.290  0.4735  2.0490  1.4936
 1435SOL    HW3 5814   4.328   2.375   2.299  0.5078 -1.8546 -0.3705
 1435SOL    MW4 5815   4.251   2.338   2.310 -0.3133 -0.1302 -0.1206
 1436SOL     OW 5816   4.026   2.466   2.242  0.0785 -0.4298 -0.1538
 1436SOL    HW2 5817   4.027   2.547   2.292 -1.3368  1.3126 -2.8284
 1436SOL    HW3 5818   3.954   2.415   2.280 -0.3561  0.4560  0.2182
 1436SOL    MW4 5819   4.016   2.470   2.254 -0.1659 -0.0830 -0.4578
 1437SOL     OW 5820   4.033   2.737   2.362 -0.1296  0.0513 -0.0707
 1437SOL    HW2 5821   4.025   2.738   2.457 -0.3546 -0.8953 -0.0698
 1437SOL    HW3 5822   3.956   2.784   2.330 -0.4000 -0.2055  0.1981
 1437SOL    MW4 5823   4.022   2.743   2.370 -0.1950 -0.1078 -0.0350
 1438SOL     OW 5824   4.270   2.877   2.013  0.4949  0.0751  0.4193
 1438SOL    HW2 5825   4.201   2.830   1.967 -0.3931  0.0969  1.7282
 1438SOL    HW3 5826   4.258   2.855   2.105  1.7154  0.7456  0.7566
 1438SOL    MW4 5827   4.260   2.868   2.019  0.5388  0.1667  0.6366
 1439SOL     OW 5828   4.262   3.114   2.397  0.6675  0.4229 -0.2850
 1439SOL    HW2 5829   4.258   3.020   2.381  1.0415  0.4462 -0.5346
 1439SOL    HW3 5830   4.351   3.139   2.372  1.6212  0.2822  2.8209
 1439SOL    MW4 5831   4.273   3.105   2.392  0.8435  0.4075  0.0918
 1440SOL     OW 5832   4.036   3.259   2.255 -0.3961  0.2514  0.3282
 1440SOL    HW2 5833   3.971   3.193   2.280 -0.8186  0.4269 -0.2828
 1440SOL    HW3 5834   4.116   3.233   2.301 -0.6226 -0.5560  0.2743
 1440SOL    MW4 5835   4.038   3.247   2.264 -0.4816  0.1681  0.2403
 1441SOL     OW 5836   4.053   3.512   2.376 -0.1136  0.1607 -0.1639
 1441SOL    HW2 5837   4.034   3.421   2.351  2.0626 -0.5080  0.5575
 1441SOL    HW3 5838   4.036   3.515   2.470  0.7342  0.2589 -0.0162
 1441SOL    MW4 5839   4.048   3.500   2.385  0.2847  0.0856 -0.0494
 1442SOL     OW 5840   4.280   3.624   2.280 -0.3716  0.0813  0.0969
 1442SOL    HW2 5841   4.267   3.719   2.279 -0.1024  0.1134 -0.5988
 1442SOL    HW3 5842   4.193   3.588   2.300 -0.6748  0.4449 -0.5441
 1442SOL    MW4 5843   4.267   3.632   2.282 -0.3757  0.1338 -0.0796
 1443SOL     OW 5844   4.218   3.893   2.348  0.2228  0.0586 -0.5422
 1443SOL    HW2 5845   4.193   3.849   2.429 -0.3611  0.5758 -0.4410
 1443SOL    HW3 5846   4.300   3.938   2.370  0.8063 -0.9518 -0.6395
 1443SOL    MW4 5847   4.226   3.893   2.362  0.2227 -0.0067 -0.5417
 1444SOL     OW 5848   3.965   4.003   2.257  0.3319  0.1735  0.0506
 1444SOL    HW2 5849   4.047   3.984   2.302  0.4470  1.1561  0.2665
 1444SOL    HW3 5850   3.986   3.997   2.164  0.5845  0.1830  0.1082
 1444SOL    MW4 5851   3.978   3.999   2.251  0.3805  0.3049  0.0863
 1445SOL     OW 5852   4.042   4.250   2.369  0.3060 -0.1279  0.1217
 1445SOL    HW2 5853   3.986   4.177   2.342  0.5591 -0.1774 -0.2703
 1445SOL    HW3 5854   4.017   4.267   2.460  0.1049 -0.5751  0.1522
 1445SOL    MW4 5855   4.032   4.242   2.378  0.3128 -0.1936  0.0739
 1446SOL     OW 5856   4.242   4.384   2.234 -0.2891  0.5622 -0.3568
 1446SOL    HW2 5857   4.248   4.472   2.270 -1.0705  0.0869  1.0026
 1446SOL    HW3 5858   4.163   4.347   2.273  0.8648 -1.2811  0.3566
 1446SOL    MW4 5859   4.232   4.391   2.244 -0.2403  0.2565 -0.0834
 1447SOL     OW 5860   0.227   4.585   2.647  0.1999 -0.3849 -0.6900
 1447SOL    HW2 5861   0.235   4.497   2.685  0.1354 -0.1397 -0.1045
 1447SOL    HW3 5862   0.140   4.615   2.672  0.2263 -0.1477 -0.8764
 1447SOL    MW4 5863   0.217   4.577   2.655  0.1949 -0.3214 -0.6373
 1448SOL     OW 5864   4.485   0.069   2.747  0.3232  0.1868  0.2903
 1448SOL    HW2 5865   4.466   0.083   2.839  1.4903  0.7660  0.4622
 1448SOL    HW3 5866   4.491   0.157   2.710  0.5680 -0.0221 -0.1777
 1448SOL    MW4 5867   4.483   0.082   2.754  0.5097  0.2357  0.2513
 1449SOL     OW 5868   0.005   0.346   2.647 -0.3450  0.1286  0.0050
 1449SOL    HW2 5869   0.080   0.392   2.686 -0.1795 -0.3526  0.2634
 1449SOL    HW3 5870  -0.071   0.380   2.695 -0.2532  0.3364  0.0056
 1449SOL    MW4 5871   0.005   0.357   2.659 -0.3119  0.0925  0.0393
 1450SOL     OW 5872   0.227   0.471   2.754  0.1988 -0.1941  0.2402
 1450SOL    HW2 5873   0.221   0.457   2.848  0.6561 -0.8892  0.1739
 1450SOL    HW3 5874   0.311   0.431   2.729  0.1870  0.1813 -0.4195
 1450SOL    MW4 5875   0.237   0.464   2.763  0.2576 -0.2362  0.1442
 1451SOL     OW 5876   0.203   0.741   2.648 -0.1592  0.0339  0.1113
 1451SOL    HW2 5877   0.288   0.773   2.679 -0.3632  1.1263 -0.4657
 1451SOL    HW3 5878   0.200   0.650   2.679  0.4647  0.5161  1.6270
 1451SOL    MW4 5879   0.214   0.733   2.656 -0.1038  0.2417  0.2353
 1452SOL     OW 5880   4.454   0.876   2.690 -0.0185 -0.1989  0.1095
 1452SOL    HW2 5881   4.375   0.823   2.681  0.0634 -0.2743 -0.1708
 1452SOL    HW3 5882   4.525   0.820   2.658  0.2507 -0.3894  1.0301
 1452SOL    MW4 5883   4.453   0.862   2.684  0.0277 -0.2339  0.1938
 1453SOL     OW 5884   4.455   1.139   2.651  0.4135  0.0754  0.3033
 1453SOL    HW2 5885   4.537   1.179   2.679  0.8610  0.2133 -1.1702
 1453SOL    HW3 5886   4.457   1.051   2.689  1.4093 -0.0520 -0.0427
 1453SOL    MW4 5887   4.466   1.132   2.660  0.6037  0.0769  0.0634
 1454SOL     OW 5888   0.254   1.264   2.744  0.4365 -0.2039  0.3062
 1454SOL    HW2 5889   0.324   1.218   2.699  1.9902 -0.1242  2.5285
 1454SOL    HW3 5890   0.258   1.354   2.712  0.6244 -0.4638 -0.3856
 1454SOL    MW4 5891   0.263   1.270   2.734  0.6663 -0.2277  0.5081
 1455SOL     OW 5892   0.256   1.500   2.599  0.3785 -0.2802  0.0322
 1455SOL    HW2 5893   0.332   1.544   2.636  1.4280 -1.3938 -0.7986
 1455SOL    HW3 5894   0.181   1.544   2.640  1.4508  0.9090  0.7407
 1455SOL    MW4 5895   0.256   1.512   2.609  0.6584 -0.2701  0.0162
 1456SOL     OW 5896   0.025   1.641   2.710  0.6599 -0.0944  0.1115
 1456SOL    HW2 5897   0.035   1.661   2.803 -1.4510 -0.7510  0.5258
 1456SOL    HW3 5898   0.012   1.726   2.668 -0.2072  0.0689  0.6991
 1456SOL    MW4 5899   0.024   1.655   2.716  0.2675 -0.1594  0.2437
 1457SOL     OW 5900   0.004   1.906   2.634  0.1338 -0.2765 -0.6131
 1457SOL    HW2 5901   0.069   1.970   2.662 -0.7796  0.9778 -1.2885
 1457SOL    HW3 5902  -0.001   1.917   2.539  0.2416 -1.6249 -0.7811
 1457SOL    MW4 5903   0.012   1.916   2.625  0.0277 -0.2890 -0.7243
 1458SOL     OW 5904   0.191   2.078   2.745 -0.0978  0.3786  0.0358
 1458SOL    HW2 5905   0.260   2.028   2.701 -0.4418 -0.4061  0.3829
 1458SOL    HW3 5906   0.197   2.166   2.707  0.8085  0.1971 -0.2471
 1458SOL    MW4 5907   0.201   2.083   2.734 -0.0236  0.2511  0.0443
 1459SOL     OW 5908   0.181   2.325   2.615 -0.2398  0.3143 -0.2209
 1459SOL    HW2 5909   0.263   2.368   2.639 -0.2877  0.6612 -0.6630
 1459SOL    HW3 5910   0.113   2.389   2.636 -0.3459  0.2760 -0.4420
 1459SOL    MW4 5911   0.183   2.339   2.621 -0.2602  0.3550 -0.3085
 1460SOL     OW 5912   4.462   2.487   2.695  0.0185 -0.0656  0.1946
 1460SOL    HW2 5913   4.476   2.449   2.781  0.9823 -0.5761 -0.1838
 1460SOL    HW3 5914   4.384   2.443   2.661 -1.2815  1.2225  1.4112
 1460SOL    MW4 5915   4.453   2.476   2.702 -0.0257  0.0367  0.3049
 1461SOL     OW 5916   4.480   2.754   2.680  0.4940  0.5633  0.4329
 1461SOL    HW2 5917   4.394   2.791   2.701 -0.0620 -0.3480 -0.2280
 1461SOL    HW3 5918   4.474   2.662   2.705  1.0251  0.3233 -0.2865
 1461SOL    MW4 5919   4.467   2.747   2.686  0.4911  0.4113  0.2508
 1462SOL     OW 5920   0.231   2.845   2.735 -0.4574  0.0855 -0.3647
 1462SOL    HW2 5921   0.236   2.933   2.699 -1.1325  0.2888  0.0325
 1462SOL    HW3 5922   0.142   2.815   2.714 -0.2885 -0.4392 -0.3544
 1462SOL    MW4 5923   0.220   2.853   2.727 -0.5242  0.0429 -0.3109
 1463SOL     OW 5924   0.247   3.108   2.637 -0.3080 -0.1706  0.1979
 1463SOL    HW2 5925   0.312   3.167   2.675  0.0931 -0.4017 -0.1122
 1463SOL    HW3 5926   0.249   3.129   2.543  2.3024 -2.9521 -0.4824
 1463SOL    MW4 5927   0.256   3.118   2.629  0.0893 -0.5682  0.0670
 1464SOL     OW 5928   0.020   3.196   2.761 -0.5321  0.1710 -0.5018
 1464SOL    HW2 5929  -0.063   3.165   2.726  0.5894 -3.1728 -0.3534
 1464SOL    HW3 5930   0.086   3.136   2.726  1.8205  2.5038 -0.3121
 1464SOL    MW4 5931   0.018   3.184   2.752 -0.0737  0.0377 -0.4573
 1465SOL     OW 5932   4.466   3.449   2.651  0.1592 -0.2811 -0.1942
 1465SOL    HW2 5933   4.544   3.500   2.671 -0.2568  0.3533 -0.1741
 1465SOL    HW3 5934   4.479   3.366   2.698  0.8019 -0.1698 -0.1712
 1465SOL    MW4 5935   4.478   3.445   2.660  0.1893 -0.1826 -0.1884
 1466SOL     OW 5936   0.193   3.615   2.711  0.2309 -0.2896  0.1562
 1466SOL    HW2 5937   0.198   3.617   2.807  1.1868  1.4033  0.0876
 1466SOL    HW3 5938   0.274   3.571   2.684 -0.6954 -2.0366  0.1543
 1466SOL    MW4 5939   0.204   3.609   2.720  0.2348 -0.2966  0.1469
 1467SOL     OW 5940   0.189   3.873   2.671  0.2367 -0.2939 -0.1007
 1467SOL    HW2 5941   0.176   3.781   2.693 -1.0040 -0.2060 -0.4352
 1467SOL    HW3 5942   0.182   3.876   2.575 -2.5235  0.5532  0.0830
 1467SOL    MW4 5943   0.187   3.861   2.661 -0.2912 -0.1705 -0.1204
 1468SOL     OW 5944   4.473   3.996   2.782 -0.7282 -0.4704  0.2298
 1468SOL    HW2 5945   4.467   4.078   2.734  0.2257  0.0066  0.8985
 1468SOL    HW3 5946   4.551   3.953   2.747 -0.4237 -0.4371  0.8511
 1468SOL    MW4 5947   4.482   4.001   2.771 -0.5617 -0.4034  0.4001
 1469SOL     OW 5948   4.448   4.242   2.649 -0.2463 -0.2079  0.3933
 1469SOL    HW2 5949   4.372   4.282   2.690 -0.0667  2.4777 -1.7533
 1469SOL    HW3 5950   4.523   4.276   2.699 -0.2436  0.1147  0.1699
 1469SOL    MW4 5951   4.448   4.252   2.661 -0.2227  0.1893  0.0806
 1470SOL     OW 5952   0.194   4.342   2.772  0.1028 -0.1001  0.2026
 1470SOL    HW2 5953   0.203   4.343   2.867  1.9182  0.4170  0.0464
 1470SOL    HW3 5954   0.268   4.288   2.742 -0.5120 -0.3308 -0.8965
 1470SOL    MW4 5955   0.205   4.335   2.781  0.2612 -0.0625  0.0372
 1471SOL     OW 5956   0.664   4.613   2.623  0.6216 -0.7499 -0.2217
 1471SOL    HW2 5957   0.736   4.656   2.668 -0.0263  2.2206 -1.9432
 1471SOL    HW3 5958   0.585   4.653   2.659  0.0305 -0.0800 -2.2027
 1471SOL    MW4 5959   0.663   4.624   2.633  0.4581 -0.2694 -0.7105
 1472SOL     OW 5960   0.427   0.075   2.714 -0.8748 -0.0891  0.0378
 1472SOL    HW2 5961   0.430   0.066   2.809 -0.2329  0.9805  0.1298
 1472SOL    HW3 5962   0.352   0.023   2.687 -1.8281  0.6324  1.2611
 1472SOL    MW4 5963   0.418   0.067   2.723 -0.9159  0.1472  0.2112
 1473SOL     OW 5964   0.466   0.330   2.616  0.2937 -0.2648 -0.5700
 1473SOL    HW2 5965   0.534   0.372   2.669  0.6648 -0.4916 -0.8586
 1473SOL    HW3 5966   0.457   0.242   2.652 -0.2044 -0.0743 -0.2163
 1473SOL    MW4 5967   0.474   0.324   2.627  0.2770 -0.2696 -0.5612
 1474SOL     OW 5968   0.680   0.472   2.760  0.1572  0.2344  0.0478
 1474SOL    HW2 5969   0.682   0.491   2.853 -0.0391 -0.0940  0.1231
 1474SOL    HW3 5970   0.762   0.425   2.743 -1.0654 -2.1764  0.6215
 1474SOL    MW4 5971   0.691   0.468   2.770 -0.0300 -0.1270  0.1330
 1475SOL     OW 5972   0.666   0.718   2.601  0.2883  0.3316 -0.0206
 1475SOL    HW2 5973   0.741   0.764   2.639  1.4574 -0.4048 -1.4143
 1475SOL    HW3 5974   0.661   0.636   2.650  0.7644  0.1177 -0.3291
 1475SOL    MW4 5975   0.676   0.713   2.613  0.5054  0.2062 -0.2451
 1476SOL     OW 5976   0.449   0.837   2.735  0.3270  0.1585 -0.2319
 1476SOL    HW2 5977   0.458   0.930   2.714  0.7445  0.0253 -0.6513
 1476SOL    HW3 5978   0.519   0.794   2.685 -1.8708 -0.7847 -2.6210
 1476SOL    MW4 5979   0.460   0.843   2.726  0.0921  0.0165 -0.6022
 1477SOL     OW 5980   0.480   1.112   2.644 -0.1361  0.3098  0.0498
 1477SOL    HW2 5981   0.540   1.181   2.670 -0.0773  0.2573  0.0535
 1477SOL    HW3 5982   0.482   1.112   2.549 -0.1767  0.3490  0.0488
 1477SOL    MW4 5983   0.488   1.121   2.635 -0.1336  0.3080  0.0501
 1478SOL     OW 5984   0.699   1.291   2.696  0.5308 -0.0201 -0.2144
 1478SOL    HW2 5985   0.713   1.291   2.791  0.1423 -0.1902 -0.1549
 1478SOL    HW3 5986   0.770   1.237   2.661 -0.9612 -2.3558  0.2370
 1478SOL    MW4 5987   0.710   1.284   2.704  0.2826 -0.3506 -0.1471
 1479SOL     OW 5988   0.698   1.539   2.598  0.8199 -0.3961  0.1315
 1479SOL    HW2 5989   0.616   1.578   2.628  1.5457  0.4095  1.0808
 1479SOL    HW3 5990   0.692   1.447   2.623  0.8502 -0.0131  1.5439
 1479SOL    MW4 5991   0.686   1.532   2.605  0.9197 -0.2391  0.4430
 1480SOL     OW 5992   0.470   1.673   2.685 -0.0530  0.5034 -0.1684
 1480SOL    HW2 5993   0.466   1.677   2.780  3.7132 -0.7914  0.1175
 1480SOL    HW3 5994   0.457   1.763   2.656 -2.0703  0.7846  1.4555
 1480SOL    MW4 5995   0.467   1.685   2.694  0.1778  0.3698  0.0837
 1481SOL     OW 5996   0.406   1.947   2.617 -0.3487  0.6001  0.5544
 1481SOL    HW2 5997   0.484   1.983   2.658 -0.3899  1.6411 -0.2516
 1481SOL    HW3 5998   0.429   1.938   2.524 -0.9091  0.1508  0.4541
 1481SOL    MW4 5999   0.419   1.951   2.610 -0.4280  0.6782  0.4349
 1482SOL     OW 6000   0.662   2.019   2.715 -0.3804 -0.1944 -0.1120
 1482SOL    HW2 6001   0.668   2.019   2.810  0.3989 -1.8081 -0.1393
 1482SOL    HW3 6002   0.748   1.987   2.685 -0.1212  1.6197 -1.3970
 1482SOL    MW4 6003   0.674   2.015   2.723 -0.2434 -0.1681 -0.2851
 1483SOL     OW 6004   0.666   2.298   2.633 -0.8300 -0.3779  0.0827
 1483SOL    HW2 6005   0.744   2.341   2.669 -1.1966  0.1792  0.2030
 1483SOL    HW3 6006   0.676   2.206   2.659 -0.2862 -0.2844  0.2224
 1483SOL    MW4 6007   0.678   2.292   2.641 -0.8066 -0.2921  0.1171
 1484SOL     OW 6008   0.414   2.419   2.705  0.4050  0.0771  0.4167
 1484SOL    HW2 6009   0.427   2.507   2.672  0.2608 -0.2996 -0.6697
 1484SOL    HW3 6010   0.497   2.374   2.686  0.0594 -0.3471 -0.1150
 1484SOL    MW4 6011   0.427   2.424   2.698  0.3404 -0.0284  0.2031
 1485SOL     OW 6012   0.438   2.689   2.640 -0.1495  0.2227 -0.1964
 1485SOL    HW2 6013   0.518   2.730   2.673  0.3735 -0.3859 -0.6897
 1485SOL    HW3 6014   0.367   2.744   2.674  0.4082  0.0602  1.2622
 1485SOL    MW4 6015   0.439   2.702   2.649 -0.0069  0.1211 -0.0689
 1486SOL     OW 6016   0.661   2.817   2.753  0.1555 -0.0218 -0.7011
 1486SOL    HW2 6017   0.661   2.794   2.846 -0.3676 -1.5828 -1.0746
 1486SOL    HW3 6018   0.649   2.912   2.752  0.7967  0.0846  0.8394
 1486SOL    MW4 6019   0.659   2.827   2.765  0.1711 -0.2139 -0.5472
 1487SOL     OW 6020   0.677   3.081   2.674 -0.2015  0.0567 -0.5701
 1487SOL    HW2 6021   0.763   3.110   2.702 -0.5203  1.4341 -0.9761
 1487SOL    HW3 6022   0.673   3.101   2.580 -1.4481  1.2362 -0.2814
 1487SOL    MW4 6023   0.688   3.087   2.665 -0.4081  0.3941 -0.5858
 1488SOL     OW 6024   0.469   3.256   2.745  0.0774 -0.1322  0.1085
 1488SOL    HW2 6025   0.455   3.239   2.838  0.5016 -2.4454 -0.2184
 1488SOL    HW3 6026   0.526   3.185   2.716 -1.0853 -0.1687 -2.1997
 1488SOL    MW4 6027   0.474   3.244   2.754 -0.0201 -0.4423 -0.2391
 1489SOL     OW 6028   0.442   3.514   2.619  0.4266  0.2222  0.3138
 1489SOL    HW2 6029   0.443   3.420   2.641 -3.7884  0.1066  0.4718
 1489SOL    HW3 6030   0.456   3.516   2.524  2.0950 -0.4346  0.5255
 1489SOL    MW4 6031   0.444   3.502   2.609  0.0906  0.1202  0.3626
 1490SOL     OW 6032   0.679   3.610   2.728  0.4737  0.4987 -0.0137
 1490SOL    HW2 6033   0.673   3.597   2.823  1.2166  2.5713  0.3429
 1490SOL    HW3 6034   0.594   3.583   2.695  0.5776 -1.2784  1.1113
 1490SOL    MW4 6035   0.667   3.605   2.736  0.5854  0.5376  0.1822
 1491SOL     OW 6036   0.639   3.881   2.637  0.2410  0.2182  0.0442
 1491SOL    HW2 6037   0.569   3.917   2.692  0.3536  0.0257  0.3074
 1491SOL    HW3 6038   0.653   3.792   2.669 -0.9696 -0.5493 -1.4822
 1491SOL    MW4 6039   0.631   3.874   2.648  0.0962  0.0916 -0.1223
 1492SOL     OW 6040   0.416   3.992   2.763 -0.3584 -0.5540 -0.4459
 1492SOL    HW2 6041   0.414   4.076   2.718 -1.3988 -0.1326  0.3556
 1492SOL    HW3 6042   0.338   3.946   2.731 -1.6064  0.1084  1.5527
 1492SOL    MW4 6043   0.405   3.997   2.753 -0.6603 -0.4110 -0.0763
 1493SOL     OW 6044   0.425   4.231   2.623 -0.1983 -0.0157 -0.4205
 1493SOL    HW2 6045   0.509   4.261   2.658  0.3031 -0.1039 -1.5345
 1493SOL    HW3 6046   0.425   4.260   2.532 -1.2156 -0.3540 -0.5336
 1493SOL    MW4 6047   0.436   4.239   2.616 -0.2664 -0.0720 -0.5825
 1494SOL     OW 6048   0.637   4.353   2.727 -0.0336 -0.2774  0.0183
 1494SOL    HW2 6049   0.722   4.309   2.720 -0.8899 -2.1137  0.8895
 1494SOL    HW3 6050   0.650   4.436   2.682  2.2472 -0.5022  0.1790
 1494SOL    MW4 6051   0.650   4.358   2.720  0.1543 -0.5493  0.1545
 1495SOL     OW 6052   1.131   4.630   2.659  0.2890  0.2943  0.1977
 1495SOL    HW2 6053   1.195   4.679   2.709  0.3601 -0.1362  0.5258
 1495SOL    HW3 6054   1.159   4.539   2.665  1.4930  0.4330 -2.3565
 1495SOL    MW4 6055   1.143   4.624   2.666  0.4573  0.2561 -0.0961
 1496SOL     OW 6056   0.877   0.065   2.759 -0.0696  0.4267  0.6674
 1496SOL    HW2 6057   0.897   0.081   2.851 -0.5146 -2.3443  1.3021
 1496SOL    HW3 6058   0.953   0.018   2.726 -0.0717  1.0939 -0.3026
 1496SOL    MW4 6059   0.890   0.061   2.767 -0.1286  0.1492  0.6232
 1497SOL     OW 6060   0.898   0.333   2.658  0.3294 -0.1153  0.0596
 1497SOL    HW2 6061   0.895   0.240   2.682 -1.0596  0.0315  0.5078
 1497SOL    HW3 6062   0.885   0.333   2.564  0.1033 -0.3600  0.0903
 1497SOL    MW4 6063   0.896   0.321   2.649  0.1164 -0.1282  0.1230
 1498SOL     OW 6064   1.101   0.511   2.730  0.4876 -0.2694 -0.2596
 1498SOL    HW2 6065   1.091   0.590   2.677 -0.4171 -0.4156 -0.3113
 1498SOL    HW3 6066   1.032   0.452   2.699 -0.5838 -0.0419  1.6200
 1498SOL    MW4 6067   1.091   0.514   2.719  0.2269 -0.2587 -0.0184
 1499SOL     OW 6068   1.109   0.769   2.633 -0.1175  0.0801 -0.5460
 1499SOL    HW2 6069   1.192   0.810   2.657  0.1313 -0.3057 -0.7617
 1499SOL    HW3 6070   1.115   0.753   2.539 -0.3317 -0.1900 -0.5158
 1499SOL    MW4 6071   1.121   0.772   2.624 -0.1130 -0.0064 -0.5705
 1500SOL     OW 6072   0.872   0.895   2.702  0.1056 -0.2697 -0.1550
 1500SOL    HW2 6073   0.866   0.886   2.797 -1.8406 -2.1567 -0.4191
 1500SOL    HW3 6074   0.942   0.836   2.677  0.0311 -0.4366  0.0260
 1500SOL    MW4 6075   0.880   0.886   2.711 -0.1610 -0.5406 -0.1657
 1501SOL     OW 6076   0.887   1.141   2.593  0.0287  0.3975  0.1421
 1501SOL    HW2 6077   0.891   1.053   2.630  1.3053  0.3961  0.0383
 1501SOL    HW3 6078   0.875   1.127   2.499 -0.7903  0.3539  0.2539
 1501SOL    MW4 6079   0.886   1.128   2.585  0.0890  0.3917  0.1433
 1502SOL     OW 6080   1.109   1.259   2.734  0.3509 -0.1983  0.4974
 1502SOL    HW2 6081   1.124   1.345   2.695  1.3873  0.0800  1.4707
 1502SOL    HW3 6082   1.032   1.225   2.689  0.2590  1.0086 -0.2781
 1502SOL    MW4 6083   1.101   1.266   2.723  0.4755 -0.0024  0.5236
 1503SOL     OW 6084   1.150   1.510   2.607 -0.0058 -0.2805 -0.0424
 1503SOL    HW2 6085   1.091   1.583   2.628 -0.7969 -1.3161  1.4125
 1503SOL    HW3 6086   1.144   1.501   2.512 -0.5434  1.0221 -0.1407
 1503SOL    MW4 6087   1.141   1.518   2.597 -0.1811 -0.2452  0.1366
 1504SOL     OW 6088   0.948   1.686   2.703 -0.5773 -0.1521  0.0800
 1504SOL    HW2 6089   0.962   1.690   2.797  0.7831 -3.1438  0.0796
 1504SOL    HW3 6090   0.865   1.639   2.693 -0.1096 -0.9358 -0.2040
 1504SOL    MW4 6091   0.939   1.680   2.714 -0.3361 -0.6503  0.0427
 1505SOL     OW 6092   0.896   1.926   2.589  0.2633  0.5101 -0.1150
 1505SOL    HW2 6093   0.969   1.978   2.623  0.0124  0.3348  0.7081
 1505SOL    HW3 6094   0.912   1.838   2.623  0.9182 -0.0580 -1.8529
 1505SOL    MW4 6095   0.908   1.921   2.598  0.3166  0.4120 -0.2356
 1506SOL     OW 6096   1.106   2.069   2.702  0.3300 -0.1543 -0.1258
 1506SOL    HW2 6097   1.188   2.026   2.677 -0.0235 -0.5305 -0.6554
 1506SOL    HW3 6098   1.121   2.162   2.684  0.0409 -0.4304 -1.8981
 1506SOL    MW4 6099   1.119   2.076   2.696  0.2452 -0.2406 -0.4294
 1507SOL     OW 6100   1.123   2.330   2.622  0.2542  0.3275  0.4835
 1507SOL    HW2 6101   1.204   2.359   2.664  1.2904 -2.0842  0.1957
 1507SOL    HW3 6102   1.141   2.336   2.528  0.5469 -1.3253  0.4133
 1507SOL    MW4 6103   1.136   2.335   2.615  0.4296 -0.2086  0.4363
 1508SOL     OW 6104   0.885   2.429   2.719  0.3319  0.1618  0.2113
 1508SOL    HW2 6105   0.864   2.516   2.684 -0.1599  0.2813  0.8075
 1508SOL    HW3 6106   0.971   2.409   2.682  0.3172  0.7777 -0.1636
 1508SOL    MW4 6107   0.894   2.438   2.709  0.2651  0.2587  0.2403
 1509SOL     OW 6108   0.879   2.689   2.626 -0.1104  0.2899 -0.1916
 1509SOL    HW2 6109   0.953   2.729   2.672  0.1084  0.3265 -0.5703
 1509SOL    HW3 6110   0.802   2.732   2.661 -0.0929 -1.0596  1.5672
 1509SOL    MW4 6111   0.878   2.700   2.636 -0.0792  0.1171 -0.0095
 1510SOL     OW 6112   1.083   2.832   2.751  0.0000  0.0000  0.1297
 1510SOL    HW2 6113   1.106   2.825   2.844  0.0000  0.0000  0.1291
 1510SOL    HW3 6114   1.159   2.795   2.705  0.0000  0.0000  0.1283
 1510SOL    MW4 6115   1.096   2.826   2.757  0.0000  0.0000  0.1295
 1511SOL     OW 6116   1.148   3.096   2.673  0.0000  0.0000  0.2629
 1511SOL    HW2 6117   1.122   3.007   2.695  0.0000  0.0000  0.2615
 1511SOL    HW3 6118   1.136   3.101   2.578  0.0000  0.0000  0.2631
 1511SOL    MW4 6119   1.143   3.085   2.663  0.0000  0.0000  0.2630
 1512SOL     OW 6120   0.919   3.208   2.755  0.0000  0.0000 -0.0602
 1512SOL    HW2 6121   0.903   3.287   2.703  0.0000  0.0000 -0.0412
 1512SOL    HW3 6122   1.006   3.179   2.728  0.0000  0.0000 -0.0814
 1512SOL    MW4 6123   0.928   3.215   2.745  0.0000  0.0000 -0.0603
 1513SOL     OW 6124   0.887   3.462   2.636  0.0000  0.0000  0.3484
 1513SOL    HW2 6125   0.961   3.509   2.676  0.0000  0.0000  0.2939
 1513SOL    HW3 6126   0.810   3.512   2.665  0.0000  0.0000  0.3827
 1513SOL    MW4 6127   0.887   3.475   2.645  0.0000  0.0000  0.3459
 1514SOL     OW 6128   1.102   3.599   2.729  0.0000  0.0000 -0.0602
 1514SOL    HW2 6129   1.101   3.626   2.821  0.0000  0.0000 -0.0619
 1514SOL    HW3 6130   1.100   3.681   2.680  0.0000  0.0000 -0.0658
 1514SOL    MW4 6131   1.102   3.613   2.735  0.0000  0.0000 -0.0613
 1515SOL     OW 6132   1.098   3.851   2.610  0.0000  0.0000  0.1364
 1515SOL    HW2 6133   1.178   3.889   2.648  0.0000  0.0000  0.1382
 1515SOL    HW3 6134   1.110   3.859   2.515  0.0000  0.0000  0.1367
 1515SOL    MW4 6135   1.110   3.857   2.602  0.0000  0.0000  0.1366
 1516SOL     OW 6136   0.893   4.008   2.720  0.0000  0.0000 -0.0666
 1516SOL    HW2 6137   0.957   3.963   2.665  0.0000  0.0000 -0.0513
 1516SOL    HW3 6138   0.809   3.969   2.695  0.0000  0.0000 -0.0953
 1516SOL    MW4 6139   0.890   3.997   2.709  0.0000  0.0000 -0.0687
 1517SOL     OW 6140   0.888   4.266   2.646  0.0000  0.0000  0.5532
 1517SOL    HW2 6141   0.892   4.173   2.671  0.0000  0.0000  0.5509
 1517SOL    HW3 6142   0.884   4.265   2.551  0.0000  0.0000  0.5532
 1517SOL    MW4 6143   0.888   4.254   2.637  0.0000  0.0000  0.5527
 1518SOL     OW 6144   1.144   4.351   2.742  0.0000  0.0000 -0.4925
 1518SOL    HW2 6145   1.137   4.378   2.834  0.0000  0.0000 -0.4937
 1518SOL    HW3 6146   1.055   4.327   2.717  0.0000  0.0000 -0.4861
 1518SOL    MW4 6147   1.131   4.351   2.751  0.0000  0.0000 -0.4919
 1519SOL     OW 6148   1.527   4.644   2.646  0.3642  0.6532 -0.0387
 1519SOL    HW2 6149   1.516   4.554   2.675 -1.0511  0.9264  0.3135
 1519SOL    HW3 6150   1.517   4.640   2.551 -1.0870  0.6198  0.0997
 1519SOL    MW4 6151   1.524   4.632   2.637 -0.0138  0.6847  0.0260
 1520SOL     OW 6152   1.354   0.123   2.791 -0.0276  0.8027 -0.3158
 1520SOL    HW2 6153   1.342   0.204   2.742  2.2111  1.8388  0.7449
 1520SOL    HW3 6154   1.418   0.074   2.741 -1.6699 -0.5356 -1.1610
 1520SOL    MW4 6155   1.361   0.127   2.778  0.0510  0.7628 -0.2875
 1521SOL     OW 6156   1.334   0.373   2.648  0.6016 -0.1660  0.0162
 1521SOL    HW2 6157   1.416   0.416   2.671  0.1011  0.2065  1.1346
 1521SOL    HW3 6158   1.265   0.433   2.677 -0.0781 -0.7391 -0.3776
 1521SOL    MW4 6159   1.335   0.386   2.655  0.4458 -0.1924  0.1118
 1522SOL     OW 6160   1.583   0.485   2.719  0.1418  0.0178 -0.3178
 1522SOL    HW2 6161   1.658   0.442   2.678 -0.1970 -0.5119 -0.3708
 1522SOL    HW3 6162   1.587   0.575   2.687  0.5378 -0.1053 -0.6137
 1522SOL    MW4 6163   1.594   0.492   2.709  0.1493 -0.0683 -0.3638
 1523SOL     OW 6164   1.572   0.759   2.656  0.3173 -0.0728  0.3514
 1523SOL    HW2 6165   1.492   0.805   2.683  0.2145 -0.2056  0.2721
 1523SOL    HW3 6166   1.575   0.769   2.561 -0.5247 -1.5537  0.1557
 1523SOL    MW4 6167   1.562   0.766   2.647  0.1926 -0.2857  0.3152
 1524SOL     OW 6168   1.346   0.885   2.722  0.1673  0.0311  0.2456
 1524SOL    HW2 6169   1.337   0.911   2.814  0.1893  0.6181  0.0887
 1524SOL    HW3 6170   1.338   0.968   2.674 -1.0426 -0.4243 -0.3621
 1524SOL    MW4 6171   1.344   0.900   2.728  0.0105  0.0485  0.1447
 1525SOL     OW 6172   1.327   1.133   2.609  0.3351  0.0360 -0.1752
 1525SOL    HW2 6173   1.400   1.187   2.640  0.2032  0.0537  0.1146
 1525SOL    HW3 6174   1.250   1.172   2.650  0.0159  0.7231 -1.4010
 1525SOL    MW4 6175   1.326   1.145   2.619  0.2756  0.1290 -0.2983
 1526SOL     OW 6176   1.555   1.272   2.724 -0.3734 -0.2006 -0.1149
 1526SOL    HW2 6177   1.565   1.286   2.819  0.4994 -0.2257 -0.1966
 1526SOL    HW3 6178   1.637   1.230   2.697 -0.7644 -0.5133 -0.8232
 1526SOL    MW4 6179   1.567   1.269   2.733 -0.3098 -0.2451 -0.2191
 1527SOL     OW 6180   1.593   1.548   2.666 -0.2175 -0.0359 -0.2320
 1527SOL    HW2 6181   1.593   1.455   2.686  0.2793 -0.2873 -1.3534
 1527SOL    HW3 6182   1.578   1.552   2.571  0.1915  1.0075 -0.2593
 1527SOL    MW4 6183   1.591   1.537   2.656 -0.0980  0.0687 -0.3834
 1528SOL     OW 6184   1.361   1.689   2.735 -0.3060 -0.2678 -0.4135
 1528SOL    HW2 6185   1.445   1.644   2.728  0.0960  0.5751 -1.1476
 1528SOL    HW3 6186   1.300   1.634   2.685 -0.0869 -0.6382 -0.2716
 1528SOL    MW4 6187   1.364   1.676   2.727 -0.2240 -0.2054 -0.4919
 1529SOL     OW 6188   1.353   1.944   2.621 -0.2625 -0.2546  0.3033
 1529SOL    HW2 6189   1.355   1.857   2.660  2.6539 -0.6640 -0.5812
 1529SOL    HW3 6190   1.342   1.928   2.527 -0.3208  0.3453  0.2047
 1529SOL    MW4 6191   1.352   1.930   2.614  0.1148 -0.2295  0.1736
 1530SOL     OW 6192   1.579   2.099   2.684  0.1512 -0.2145 -0.6376
 1530SOL    HW2 6193   1.655   2.044   2.663 -1.1015 -2.0833 -0.3681
 1530SOL    HW3 6194   1.504   2.048   2.655 -1.1074  0.9059  0.6100
 1530SOL    MW4 6195   1.579   2.085   2.677 -0.1801 -0.3130 -0.4370
 1531SOL     OW 6196   1.556   2.359   2.608 -0.1664 -0.3760  0.5447
 1531SOL    HW2 6197   1.627   2.410   2.648  1.2596 -2.4697  0.7512
 1531SOL    HW3 6198   1.573   2.269   2.635 -0.8883 -1.4153 -2.3181
 1531SOL    MW4 6199   1.568   2.354   2.617 -0.0734 -0.7896  0.1941
 1532SOL     OW 6200   1.342   2.482   2.758 -0.2645 -0.0917 -0.1051
 1532SOL    HW2 6201   1.324   2.566   2.715  1.3331  0.5128  0.3882
 1532SOL    HW3 6202   1.420   2.449   2.714 -0.4482 -0.9589  0.2212
 1532SOL    MW4 6203   1.350   2.489   2.746 -0.0777 -0.1261  0.0029
 1533SOL     OW 6204   1.329   2.737   2.634 -0.1735 -0.1919  0.1082
 1533SOL    HW2 6205   1.410   2.784   2.654 -1.4702  2.2336 -0.1081
 1533SOL    HW3 6206   1.326   2.732   2.539 -1.5410  2.1375 -0.0133
 1533SOL    MW4 6207   1.339   2.743   2.624 -0.5248  0.4358  0.0639
 1534SOL     OW 6208   1.560   2.837   2.756  0.2389 -0.1525  0.1209
 1534SOL    HW2 6209   1.530   2.821   2.845 -0.0292  1.6239  0.3809
 1534SOL    HW3 6210   1.650   2.804   2.755  0.0605 -0.6748  0.9004
 1534SOL    MW4 6211   1.568   2.831   2.768  0.1801  0.0131  0.2580
 1535SOL     OW 6212   1.565   3.076   2.603  0.3764  0.1301 -0.0900
 1535SOL    HW2 6213   1.643   3.122   2.633  0.5691 -0.4993  0.3777
 1535SOL    HW3 6214   1.556   3.002   2.663 -0.8508  0.4636  0.1540
 1535SOL    MW4 6215   1.574   3.072   2.615  0.2400  0.0911  0.0038
 1536SOL     OW 6216   1.366   3.238   2.729 -0.0844 -0.0754  0.1714
 1536SOL    HW2 6217   1.434   3.189   2.681 -1.1695 -1.3982 -0.0284
 1536SOL    HW3 6218   1.286   3.189   2.714 -0.9068  0.9090  1.2885
 1536SOL    MW4 6219   1.365   3.225   2.720 -0.3361 -0.1199  0.2925
 1537SOL     OW 6220   1.343   3.478   2.618 -0.3114  0.2726  0.2977
 1537SOL    HW2 6221   1.347   3.395   2.665  1.0788 -0.1973 -0.6563
 1537SOL    HW3 6222   1.269   3.524   2.659 -0.6824 -1.1452  1.2669
 1537SOL    MW4 6223   1.333   3.473   2.630 -0.1770  0.0236  0.2997
 1538SOL     OW 6224   1.576   3.570   2.740  0.5230  0.3467 -0.0539
 1538SOL    HW2 6225   1.651   3.524   2.702  1.1863  0.2384  1.3648
 1538SOL    HW3 6226   1.499   3.521   2.708  1.1287 -0.5286 -0.1935
 1538SOL    MW4 6227   1.575   3.557   2.731  0.6905  0.2170  0.1149
 1539SOL     OW 6228   1.555   3.807   2.597 -0.1742 -0.1271  0.3473
 1539SOL    HW2 6229   1.482   3.851   2.641  0.7790  0.7748  1.0485
 1539SOL    HW3 6230   1.565   3.725   2.644 -0.2288  0.1020  0.7660
 1539SOL    MW4 6231   1.547   3.802   2.609 -0.0556  0.0222  0.4950
 1540SOL     OW 6232   1.349   3.945   2.719  0.1114  0.3789 -0.3773
 1540SOL    HW2 6233   1.326   3.949   2.812  1.4927  0.0306 -0.0179
 1540SOL    HW3 6234   1.355   4.036   2.691  1.5058  0.5106  0.3344
 1540SOL    MW4 6235   1.347   3.957   2.727  0.4776  0.3502 -0.2360
 1541SOL     OW 6236   1.353   4.216   2.626  0.4058 -0.1421 -0.2052
 1541SOL    HW2 6237   1.277   4.259   2.665  0.0528 -1.5550  0.7342
 1541SOL    HW3 6238   1.348   4.236   2.533  0.0171  1.4428  0.1388
 1541SOL    MW4 6239   1.343   4.224   2.619  0.3079 -0.1192 -0.0360
 1542SOL     OW 6240   1.562   4.378   2.732 -0.2826  0.0057  0.2294
 1542SOL    HW2 6241   1.542   4.370   2.825 -0.2623  0.7111  0.3007
 1542SOL    HW3 6242   1.492   4.329   2.688 -0.5266  0.0195  0.6025
 1542SOL    MW4 6243   1.550   4.371   2.738 -0.3120  0.1001  0.2882
 1543SOL     OW 6244   1.956   4.641   2.628  0.2548 -0.3019  0.2480
 1543SOL    HW2 6245   2.043   4.672   2.654 -0.2510  0.8948  0.5590
 1543SOL    HW3 6246   1.959   4.636   2.533  0.3501  0.7279  0.1935
 1543SOL    MW4 6247   1.968   4.645   2.619  0.2007 -0.0081  0.2818
 1544SOL     OW 6248   1.743   0.119   2.743 -0.0578  0.0022  0.1786
 1544SOL    HW2 6249   1.826   0.075   2.726  0.0234  0.7550 -1.4638
 1544SOL    HW3 6250   1.676   0.062   2.705 -0.2050 -0.0997  0.5853
 1544SOL    MW4 6251   1.745   0.106   2.736 -0.0665  0.0881  0.0155
 1545SOL     OW 6252   1.788   0.352   2.587 -0.6250  0.0789 -0.1100
 1545SOL    HW2 6253   1.868   0.389   2.625 -0.5201  0.0394 -0.2946
 1545SOL    HW3 6254   1.772   0.273   2.639 -1.0236  0.5479  0.4851
 1545SOL    MW4 6255   1.796   0.346   2.599 -0.6638  0.1355 -0.0558
 1546SOL     OW 6256   2.005   0.480   2.732  0.0450 -0.3907  0.2953
 1546SOL    HW2 6257   2.088   0.443   2.702  0.2917  0.4217 -0.0500
 1546SOL    HW3 6258   2.010   0.573   2.706 -0.9682 -0.3419  0.2637
 1546SOL    MW4 6259   2.017   0.488   2.724 -0.0560 -0.2770  0.2456
 1547SOL     OW 6260   2.029   0.742   2.643 -0.2388  0.7520 -0.1878
 1547SOL    HW2 6261   1.963   0.802   2.678  0.3055  0.7385  0.8498
 1547SOL    HW3 6262   2.024   0.755   2.548 -1.8362  0.6410 -0.1296
 1547SOL    MW4 6263   2.020   0.752   2.635 -0.3779  0.7356 -0.0432
 1548SOL     OW 6264   1.819   0.887   2.753  0.1304  0.6606  0.2909
 1548SOL    HW2 6265   1.810   0.974   2.714  2.1597 -1.0873 -4.4036
 1548SOL    HW3 6266   1.740   0.840   2.727  0.0513  0.4179  0.9586
 1548SOL    MW4 6267   1.807   0.892   2.745  0.3877  0.3980 -0.2406
 1549SOL     OW 6268   1.782   1.144   2.638 -0.3467  0.6042  0.1181
 1549SOL    HW2 6269   1.860   1.188   2.673 -1.4729  0.9354  2.2878
 1549SOL    HW3 6270   1.799   1.137   2.544  2.0634  1.1557  0.4750
 1549SOL    MW4 6271   1.795   1.149   2.630 -0.1773  0.7207  0.4516
 1550SOL     OW 6272   2.013   1.262   2.705 -0.2169 -0.5154  0.0978
 1550SOL    HW2 6273   2.039   1.287   2.793 -0.2234  0.3787 -0.1445
 1550SOL    HW3 6274   2.091   1.223   2.666  0.7384  1.9371 -0.5480
 1550SOL    MW4 6275   2.026   1.260   2.711 -0.0918 -0.0738 -0.0196
 1551SOL     OW 6276   2.007   1.541   2.583  0.2054 -0.0219 -0.2133
 1551SOL    HW2 6277   1.944   1.580   2.644 -0.1535 -0.1473 -0.4979
 1551SOL    HW3 6278   2.011   1.449   2.609  0.1029 -0.0611 -0.3351
 1551SOL    MW4 6279   1.999   1.534   2.594  0.1445 -0.0436 -0.2673
 1552SOL     OW 6280   1.820   1.685   2.743 -0.4534 -0.5083 -0.3081
 1552SOL    HW2 6281   1.822   1.715   2.834 -0.5153 -1.6957  0.0980
 1552SOL    HW3 6282   1.729   1.660   2.728 -0.6929  0.7857 -1.0770
 1552SOL    MW4 6283   1.808   1.686   2.753 -0.4932 -0.4942 -0.3560
 1553SOL     OW 6284   1.814   1.948   2.633  0.2709 -0.3580 -0.8687
 1553SOL    HW2 6285   1.897   1.985   2.662 -0.2030 -0.4083  0.5693
 1553SOL    HW3 6286   1.816   1.857   2.661 -1.2546  0.2416  1.2973
 1553SOL    MW4 6287   1.825   1.941   2.640  0.0070 -0.2855 -0.3932
 1554SOL     OW 6288   2.048   2.068   2.711 -0.6812 -0.1889 -0.1842
 1554SOL    HW2 6289   2.028   2.070   2.804  1.9127  0.3106  0.3833
 1554SOL    HW3 6290   2.047   2.160   2.684  2.2552  0.0081  0.2089
 1554SOL    MW4 6291   2.045   2.081   2.719  0.0484 -0.0968 -0.0577
 1555SOL     OW 6292   2.007   2.323   2.614  0.2205  0.0833  0.0302
 1555SOL    HW2 6293   2.092   2.344   2.654  0.2932  0.2489 -0.2122
 1555SOL    HW3 6294   2.027   2.306   2.522  0.3002 -1.9729  0.4108
 1555SOL    MW4 6295   2.021   2.323   2.607  0.2408 -0.1662  0.0484
 1556SOL     OW 6296   1.797   2.462   2.739  0.3573  0.3053  0.7684
 1556SOL    HW2 6297   1.820   2.452   2.831  0.6118 -2.5936  0.4537
 1556SOL    HW3 6298   1.857   2.404   2.693 -0.8005  0.5108 -1.0647
 1556SOL    MW4 6299   1.808   2.453   2.745  0.2382 -0.0503  0.4849
 1557SOL     OW 6300   1.807   2.733   2.680  0.1054  0.2204 -0.4310
 1557SOL    HW2 6301   1.814   2.642   2.707 -0.0400  0.5995  0.9328
 1557SOL    HW3 6302   1.796   2.730   2.585 -0.4536 -1.2022 -0.3215
 1557SOL    MW4 6303   1.806   2.721   2.671  0.0124  0.0830 -0.2370
 1558SOL     OW 6304   2.063   2.818   2.704  0.8642  0.3952 -0.4119
 1558SOL    HW2 6305   1.974   2.786   2.688  0.9907  0.0737 -0.4586
 1558SOL    HW3 6306   2.120   2.749   2.671  1.1273  0.3414  0.1553
 1558SOL    MW4 6307   2.059   2.805   2.698  0.9153  0.3459 -0.3431
 1559SOL     OW 6308   2.028   3.093   2.620 -0.2217  0.1520  0.3538
 1559SOL    HW2 6309   2.036   3.001   2.644  1.7632 -0.0416 -0.9513
 1559SOL    HW3 6310   2.021   3.093   2.525 -1.1921  1.3040  0.4093
 1559SOL    MW4 6311   2.028   3.081   2.611 -0.0877  0.2782  0.1888
 1560SOL     OW 6312   1.785   3.193   2.688 -0.1460  0.0852  0.3590
 1560SOL    HW2 6313   1.795   3.287   2.673  1.9272 -0.0656  0.6443
 1560SOL    HW3 6314   1.863   3.154   2.649  0.0796 -1.3248  2.1561
 1560SOL    MW4 6315   1.796   3.200   2.681  0.1575 -0.1206  0.6340
 1561SOL     OW 6316   1.819   3.458   2.619  0.2653 -0.4248  0.5700
 1561SOL    HW2 6317   1.880   3.518   2.661 -1.9018  1.6847  0.7502
 1561SOL    HW3 6318   1.816   3.487   2.528 -0.8854 -0.1892  0.6817
 1561SOL    MW4 6319   1.827   3.470   2.612 -0.1726 -0.1154  0.6084
 1562SOL     OW 6320   2.015   3.602   2.749 -0.3213 -0.2867  0.0005
 1562SOL    HW2 6321   2.018   3.582   2.843  0.4705  0.3243  0.1094
 1562SOL    HW3 6322   2.098   3.569   2.715  0.3033  1.3767 -0.1020
 1562SOL    MW4 6323   2.026   3.595   2.757 -0.1347  0.0134  0.0010
 1563SOL     OW 6324   1.998   3.888   2.662  0.2343 -0.4315 -0.0391
 1563SOL    HW2 6325   1.912   3.924   2.682  0.3511 -0.8402  1.2685
 1563SOL    HW3 6326   1.999   3.802   2.704  0.8553 -0.9327 -1.0429
 1563SOL    MW4 6327   1.987   3.882   2.670  0.3318 -0.5515  0.0012
 1564SOL     OW 6328   1.733   4.008   2.690 -0.0207  0.0668  0.0310
 1564SOL    HW2 6329   1.723   3.994   2.785  0.9745 -2.1515 -0.1657
 1564SOL    HW3 6330   1.673   3.945   2.650  1.3701 -0.7294 -0.8404
 1564SOL    MW4 6331   1.724   3.998   2.698  0.2942 -0.3312 -0.1099
 1565SOL     OW 6332   1.787   4.274   2.603 -0.1189  0.0891  0.0385
 1565SOL    HW2 6333   1.774   4.183   2.630 -1.5885  0.5703  1.0510
 1565SOL    HW3 6334   1.719   4.322   2.651  1.8886  1.9918  1.0370
 1565SOL    MW4 6335   1.776   4.268   2.613 -0.0480  0.4039  0.3035
 1566SOL     OW 6336   2.009   4.389   2.720  0.0081  0.0039 -0.2380
 1566SOL    HW2 6337   1.940   4.329   2.691  0.4980 -0.7384  0.0944
 1566SOL    HW3 6338   1.987   4.473   2.680 -1.6575  0.0320  0.6715
 1566SOL    MW4 6339   1.997   4.392   2.711 -0.1470 -0.0901 -0.0744
 1567SOL     OW 6340   2.432   0.008   2.596 -0.1048 -0.1656 -0.4286
 1567SOL    HW2 6341   2.499   0.064   2.635  1.3548 -0.7936 -1.9622
 1567SOL    HW3 6342   2.450  -0.079   2.630  0.2167 -0.4386 -1.2904
 1567SOL    MW4 6343   2.443   0.004   2.605  0.1299 -0.2847 -0.7446
 1568SOL     OW 6344   2.204   0.087   2.741 -0.3362 -0.6708 -0.4196
 1568SOL    HW2 6345   2.219   0.073   2.834  0.2417 -1.2471 -0.5960
 1568SOL    HW3 6346   2.282   0.052   2.698 -0.5457 -0.3016 -1.1112
 1568SOL    MW4 6347   2.216   0.080   2.747 -0.2878 -0.6981 -0.5338
 1569SOL     OW 6348   2.247   0.373   2.643  0.8560  0.1335 -0.3571
 1569SOL    HW2 6349   2.259   0.284   2.676  0.0212  0.1300 -0.0516
 1569SOL    HW3 6350   2.226   0.362   2.550 -2.1319 -0.1670  0.3141
 1569SOL    MW4 6351   2.246   0.360   2.635  0.3514  0.0934 -0.2279
 1570SOL     OW 6352   2.453   0.524   2.734  0.4857 -0.2484  0.4457
 1570SOL    HW2 6353   2.460   0.602   2.679 -0.2250 -0.3929  0.1475
 1570SOL    HW3 6354   2.374   0.480   2.703 -0.4110  0.1221  2.1605
 1570SOL    MW4 6355   2.444   0.529   2.723  0.2739 -0.2187  0.6325
 1571SOL     OW 6356   2.513   0.750   2.598  0.0158 -0.2749  0.1409
 1571SOL    HW2 6357   2.432   0.791   2.626  0.5366  0.6901  0.2568
 1571SOL    HW3 6358   2.509   0.751   2.503  0.1684  0.3366  0.1394
 1571SOL    MW4 6359   2.502   0.756   2.589  0.1049 -0.0669  0.1559
 1572SOL     OW 6360   2.282   0.831   2.689 -0.2794 -0.1547 -0.4111
 1572SOL    HW2 6361   2.281   0.855   2.782 -0.5115 -1.1964 -0.1381
 1572SOL    HW3 6362   2.201   0.782   2.676  0.2323 -0.8705 -0.9350
 1572SOL    MW4 6363   2.271   0.827   2.699 -0.2427 -0.3866 -0.4439
 1573SOL     OW 6364   2.218   1.096   2.621  0.2679  0.4714 -0.7912
 1573SOL    HW2 6365   2.302   1.135   2.647  0.4990  0.4067 -1.4333
 1573SOL    HW3 6366   2.237   1.002   2.615 -0.4264  0.1700  1.3115
 1573SOL    MW4 6367   2.232   1.089   2.624  0.2065  0.4232 -0.5984
 1574SOL     OW 6368   2.448   1.280   2.734  0.2280  0.1313  0.0820
 1574SOL    HW2 6369   2.532   1.256   2.695  0.4368  1.9326 -0.6558
 1574SOL    HW3 6370   2.436   1.372   2.709 -1.5479  0.1449  0.9175
 1574SOL    MW4 6371   2.458   1.289   2.726  0.0212  0.3707  0.0947
 1575SOL     OW 6372   2.445   1.543   2.638  0.0458  0.6169 -0.0840
 1575SOL    HW2 6373   2.374   1.586   2.686  0.2462 -0.0121  0.7725
 1575SOL    HW3 6374   2.525   1.576   2.677  0.2319  1.1005 -0.8591
 1575SOL    MW4 6375   2.446   1.553   2.649  0.0966  0.5978 -0.0734
 1576SOL     OW 6376   2.201   1.649   2.748  0.4438 -0.2515 -0.2736
 1576SOL    HW2 6377   2.219   1.730   2.701 -0.7073  0.5579  0.6637
 1576SOL    HW3 6378   2.131   1.607   2.698  0.4752 -0.2695 -0.3026
 1576SOL    MW4 6379   2.194   1.654   2.735  0.2964 -0.1472 -0.1538
 1577SOL     OW 6380   2.219   1.891   2.600  0.5033  0.2657 -0.0387
 1577SOL    HW2 6381   2.159   1.945   2.651  0.8061  0.4030  0.1737
 1577SOL    HW3 6382   2.204   1.917   2.509 -0.5718 -0.5073 -0.0951
 1577SOL    MW4 6383   2.209   1.901   2.595  0.4013  0.1819 -0.0181
 1578SOL     OW 6384   2.419   2.037   2.743 -0.1564  0.1211  0.3624
 1578SOL    HW2 6385   2.429   2.123   2.701 -1.8688  0.4010  0.5003
 1578SOL    HW3 6386   2.370   1.985   2.680 -0.0340 -0.4331  0.7197
 1578SOL    MW4 6387   2.414   2.041   2.729 -0.3660  0.0849  0.4275
 1579SOL     OW 6388   2.472   2.276   2.633 -0.1157 -0.1201  0.2511
 1579SOL    HW2 6389   2.544   2.332   2.663  0.4752 -0.7137 -0.0594
 1579SOL    HW3 6390   2.473   2.285   2.537 -0.3844 -0.2167  0.2378
 1579SOL    MW4 6391   2.482   2.285   2.624 -0.0732 -0.2110  0.2084
 1580SOL     OW 6392   2.245   2.425   2.727  0.2333 -0.2059  0.1342
 1580SOL    HW2 6393   2.253   2.421   2.822  0.3132 -0.6412  0.1094
 1580SOL    HW3 6394   2.321   2.377   2.694 -0.0688 -0.5019 -0.1390
 1580SOL    MW4 6395   2.256   2.418   2.735  0.2041 -0.3026  0.0951
 1581SOL     OW 6396   2.262   2.671   2.573  0.1705  0.6111 -0.2095
 1581SOL    HW2 6397   2.342   2.705   2.613 -0.0817  0.2950  0.5866
 1581SOL    HW3 6398   2.241   2.592   2.625 -0.4515  0.4922 -0.6361
 1581SOL    MW4 6399   2.270   2.665   2.585  0.0551  0.5538 -0.1607
 1582SOL     OW 6400   2.495   2.801   2.691  0.5658  0.9417  0.0610
 1582SOL    HW2 6401   2.570   2.754   2.653  0.1218 -0.0408  0.3789
 1582SOL    HW3 6402   2.500   2.888   2.653  1.2067  0.5280 -0.8279
 1582SOL    MW4 6403   2.505   2.806   2.681  0.5920  0.7572 -0.0143
 1583SOL     OW 6404   2.495   3.061   2.581 -0.1442  0.0190  0.2379
 1583SOL    HW2 6405   2.415   3.101   2.615  0.6848  2.4627 -0.6411
 1583SOL    HW3 6406   2.483   3.060   2.486  0.0085 -1.5484  0.2128
 1583SOL    MW4 6407   2.483   3.066   2.573 -0.0145  0.1347  0.1187
 1584SOL     OW 6408   2.271   3.197   2.709  0.5588 -0.4827 -0.1566
 1584SOL    HW2 6409   2.274   3.204   2.804  0.6277 -0.2489 -0.1745
 1584SOL    HW3 6410   2.183   3.166   2.690  0.4692 -0.3079 -0.0280
 1584SOL    MW4 6411   2.260   3.194   2.719  0.5558 -0.4289 -0.1421
 1585SOL     OW 6412   2.259   3.481   2.622  0.0970 -0.5223  0.5121
 1585SOL    HW2 6413   2.342   3.527   2.639  0.3320 -0.6183 -0.3482
 1585SOL    HW3 6414   2.278   3.390   2.643  1.0406 -1.0257 -2.2512
 1585SOL    MW4 6415   2.273   3.475   2.627  0.2527 -0.6013  0.0341
 1586SOL     OW 6416   2.487   3.604   2.729 -0.4949 -0.1845  0.2262
 1586SOL    HW2 6417   2.493   3.614   2.824 -0.7125  0.3229  0.1853
 1586SOL    HW3 6418   2.463   3.691   2.696  0.3857 -0.1508 -0.3640
 1586SOL    MW4 6419   2.485   3.617   2.737 -0.4075 -0.1135  0.1428
 1587SOL     OW 6420   2.442   3.889   2.609  0.1386 -0.0898  0.1605
 1587SOL    HW2 6421   2.522   3.941   2.620  0.0942 -0.2819  1.5067
 1587SOL    HW3 6422   2.373   3.941   2.650 -0.5420  0.3046 -1.4284
 1587SOL    MW4 6423   2.443   3.903   2.616  0.0427 -0.0632  0.1285
 1588SOL     OW 6424   2.223   4.009   2.715 -0.7663 -0.4289 -0.6125
 1588SOL    HW2 6425   2.233   4.020   2.809 -1.9375  0.9305 -0.6212
 1588SOL    HW3 6426   2.131   3.987   2.703 -0.9657  0.7987 -1.5251
 1588SOL    MW4 6427   2.212   4.008   2.726 -0.9470 -0.0877 -0.7341
 1589SOL     OW 6428   2.261   4.273   2.614  0.1453 -0.1064  0.1195
 1589SOL    HW2 6429   2.267   4.188   2.658  1.9354 -0.0265  0.0447
 1589SOL    HW3 6430   2.175   4.307   2.640  0.6212 -0.6489  2.4894
 1589SOL    MW4 6431   2.250   4.266   2.623  0.4442 -0.1674  0.4225
 1590SOL     OW 6432   2.484   4.429   2.723 -0.3078  0.0254  0.0228
 1590SOL    HW2 6433   2.562   4.402   2.675 -0.5733 -1.2345  0.2910
 1590SOL    HW3 6434   2.413   4.378   2.684 -0.4689 -1.2851  1.9857
 1590SOL    MW4 6435   2.484   4.419   2.712 -0.3641 -0.3138  0.3171
 1591SOL     OW 6436   2.894   4.644   2.618  0.3479 -0.3590 -0.3038
 1591SOL    HW2 6437   2.970   4.686   2.658 -0.8296  0.0118  1.6118
 1591SOL    HW3 6438   2.894   4.674   2.528  1.3787  1.1682  0.1948
 1591SOL    MW4 6439   2.904   4.653   2.612  0.3285 -0.1087  0.0148
 1592SOL     OW 6440   2.653   0.116   2.714 -0.0792  0.5622  0.2640
 1592SOL    HW2 6441   2.635   0.109   2.808 -0.4050  0.9161  0.2284
 1592SOL    HW3 6442   2.735   0.067   2.702 -1.2835 -1.5081  0.3312
 1592SOL    MW4 6443   2.662   0.109   2.725 -0.2809  0.3357  0.2680
 1593SOL     OW 6444   2.683   0.392   2.661 -0.4755 -0.0575 -0.4092
 1593SOL    HW2 6445   2.679   0.305   2.700 -1.0943  0.4811  0.7319
 1593SOL    HW3 6446   2.616   0.442   2.706 -1.5689  0.4412 -2.5116
 1593SOL    MW4 6447   2.674   0.387   2.672 -0.7012  0.0794 -0.5362
 1594SOL     OW 6448   2.903   0.506   2.761  0.4353 -0.4276  0.2241
 1594SOL    HW2 6449   2.904   0.598   2.735  1.2651  0.4995  3.3637
 1594SOL    HW3 6450   2.821   0.472   2.727 -0.3047  1.7052 -0.1929
 1594SOL    MW4 6451   2.893   0.513   2.753  0.4475 -0.0239  0.5829
 1595SOL     OW 6452   2.953   0.771   2.655  0.0255  0.3480 -0.0188
 1595SOL    HW2 6453   3.027   0.819   2.694 -0.3453 -0.0848  1.2561
 1595SOL    HW3 6454   2.876   0.819   2.686 -0.2881 -0.1537 -0.0300
 1595SOL    MW4 6455   2.953   0.784   2.664 -0.0651  0.2246  0.1481
 1596SOL     OW 6456   2.717   0.898   2.713  0.4585 -0.1147  0.0800
 1596SOL    HW2 6457   2.699   0.906   2.807 -0.1375 -1.3880  0.0808
 1596SOL    HW3 6458   2.655   0.832   2.682  0.6400  0.3097 -1.2160
 1596SOL    MW4 6459   2.706   0.891   2.722  0.4039 -0.2266 -0.0911
 1597SOL     OW 6460   2.673   1.146   2.610  0.3358  0.3040  0.1732
 1597SOL    HW2 6461   2.742   1.200   2.649  0.9839  0.2492 -0.8596
 1597SOL    HW3 6462   2.692   1.057   2.639  1.6044  0.0649 -1.3296
 1597SOL    MW4 6463   2.684   1.142   2.619  0.5887  0.2652 -0.1614
 1598SOL     OW 6464   2.865   1.277   2.747  0.3626  0.3989 -0.5882
 1598SOL    HW2 6465   2.864   1.294   2.841  1.2032 -2.3639 -0.0472
 1598SOL    HW3 6466   2.947   1.229   2.732 -0.8714 -1.1950 -2.3590
 1598SOL    MW4 6467   2.876   1.273   2.758  0.3107 -0.1760 -0.7505
 1599SOL     OW 6468   2.909   1.533   2.643  0.0565  0.0010  0.3752
 1599SOL    HW2 6469   2.832   1.573   2.681  1.7085  0.3810  3.4256
 1599SOL    HW3 6470   2.907   1.442   2.673  0.8870  0.0599  0.6347
 1599SOL    MW4 6471   2.899   1.526   2.652  0.3839  0.0589  0.8118
 1600SOL     OW 6472   2.660   1.658   2.737  0.2603 -0.0829 -0.6871
 1600SOL    HW2 6473   2.637   1.670   2.829 -0.2042  0.4954 -0.8747
 1600SOL    HW3 6474   2.653   1.746   2.699  1.6238 -0.1110 -1.0140
 1600SOL    MW4 6475   2.656   1.671   2.744  0.3791 -0.0104 -0.7548
 1601SOL     OW 6476   2.657   1.932   2.674  0.1587  0.0197  0.3419
 1601SOL    HW2 6477   2.725   1.978   2.723 -0.0328 -0.1885  0.8111
 1601SOL    HW3 6478   2.576   1.976   2.698  0.2003  0.7294 -0.7762
 1601SOL    MW4 6479   2.655   1.944   2.684  0.1388  0.0857  0.2561
 1602SOL     OW 6480   2.904   2.022   2.766  0.4454 -0.4281  0.2128
 1602SOL    HW2 6481   2.899   2.104   2.718  0.2727 -0.5144  0.0834
 1602SOL    HW3 6482   2.907   2.048   2.858  0.0816 -0.2893  0.1854
 1602SOL    MW4 6483   2.904   2.036   2.772  0.3746 -0.4213  0.1922
 1603SOL     OW 6484   2.957   2.259   2.626  0.7974  0.0772 -0.2651
 1603SOL    HW2 6485   3.031   2.310   2.660 -0.0258  0.3606  1.1557
 1603SOL    HW3 6486   2.880   2.299   2.667 -0.1977  0.1228 -2.1453
 1603SOL    MW4 6487   2.957   2.271   2.636  0.5577  0.1204 -0.3257
 1604SOL     OW 6488   2.744   2.415   2.721 -0.1436  0.1017 -0.1138
 1604SOL    HW2 6489   2.721   2.435   2.811 -1.5675 -0.0326 -0.4341
 1604SOL    HW3 6490   2.749   2.500   2.678 -2.1574  0.0521 -0.5201
 1604SOL    MW4 6491   2.741   2.429   2.727 -0.5970  0.0775 -0.2096
 1605SOL     OW 6492   2.723   2.666   2.622 -0.2425  0.0269  0.0117
 1605SOL    HW2 6493   2.784   2.730   2.658  0.6670 -1.1174  0.5649
 1605SOL    HW3 6494   2.718   2.687   2.529  1.0732  0.0823 -0.0555
 1605SOL    MW4 6495   2.730   2.677   2.614  0.0513 -0.1166  0.0761
 1606SOL     OW 6496   2.927   2.829   2.723  0.0561  0.2984 -0.9751
 1606SOL    HW2 6497   2.918   2.825   2.819 -0.7190 -0.0974 -1.0527
 1606SOL    HW3 6498   2.939   2.922   2.704 -1.1541  0.5516 -0.5897
 1606SOL    MW4 6499   2.927   2.841   2.733 -0.2058  0.2799 -0.9346
 1607SOL     OW 6500   2.916   3.101   2.646  0.0676 -0.0557 -0.4047
 1607SOL    HW2 6501   2.836   3.128   2.691  0.6758 -0.2885  0.8682
 1607SOL    HW3 6502   2.897   3.111   2.553 -0.9041  1.4061 -0.0682
 1607SOL    MW4 6503   2.903   3.106   2.640  0.0196  0.1066 -0.1924
 1608SOL     OW 6504   2.672   3.207   2.750 -0.1525 -0.1844  0.0825
 1608SOL    HW2 6505   2.681   3.285   2.696  0.8297  0.3300  0.9613
 1608SOL    HW3 6506   2.606   3.154   2.705  0.5239  0.2958 -1.5072
 1608SOL    MW4 6507   2.665   3.211   2.737  0.0665 -0.0529 -0.0112
 1609SOL     OW 6508   2.699   3.454   2.637 -0.2593  0.4051  0.0605
 1609SOL    HW2 6509   2.621   3.499   2.670 -0.1605  0.8368 -0.2937
 1609SOL    HW3 6510   2.690   3.457   2.542 -0.4751 -0.7173  0.0334
 1609SOL    MW4 6511   2.687   3.460   2.629 -0.2747  0.3142  0.0103
 1610SOL     OW 6512   2.912   3.611   2.698 -0.6546  0.3041  0.1837
 1610SOL    HW2 6513   2.910   3.609   2.794 -1.3733  0.9551  0.1875
 1610SOL    HW3 6514   2.832   3.565   2.672 -1.2251  1.4317 -0.0782
 1610SOL    MW4 6515   2.901   3.604   2.707 -0.8245  0.5386  0.1495
 1611SOL     OW 6516   2.874   3.876   2.599  0.0060 -0.2140 -0.5977
 1611SOL    HW2 6517   2.951   3.920   2.637 -0.0724 -0.6706  0.1023
 1611SOL    HW3 6518   2.887   3.784   2.619  0.0774 -0.4965 -1.9181
 1611SOL    MW4 6519   2.886   3.870   2.607  0.0050 -0.3116 -0.6795
 1612SOL     OW 6520   2.672   4.020   2.706 -0.5904  0.2753  0.1369
 1612SOL    HW2 6521   2.733   3.961   2.662  0.1002  1.0300  0.0586
 1612SOL    HW3 6522   2.681   3.999   2.799  0.1280  0.6806  0.1666
 1612SOL    MW4 6523   2.682   4.010   2.713 -0.4046  0.4282  0.1302
 1613SOL     OW 6524   2.697   4.279   2.579 -0.3193 -0.0019 -0.1935
 1613SOL    HW2 6525   2.771   4.330   2.612 -0.7814  0.2327  0.4948
 1613SOL    HW3 6526   2.696   4.201   2.634 -0.8685  0.2153  0.1085
 1613SOL    MW4 6527   2.707   4.275   2.591 -0.4528  0.0577 -0.0629
 1614SOL     OW 6528   2.921   4.374   2.696  0.6238 -0.0510 -0.1018
 1614SOL    HW2 6529   2.901   4.383   2.790 -0.9044 -1.3551 -0.2819
 1614SOL    HW3 6530   2.923   4.464   2.664 -0.6555  0.3347  0.8310
 1614SOL    MW4 6531   2.918   4.387   2.704  0.2534 -0.1726 -0.0026
 1615SOL     OW 6532   3.360   0.023   2.628 -0.5232 -0.4794 -0.2024
 1615SOL    HW2 6533   3.359  -0.070   2.651 -0.3756 -0.0892  1.4359
 1615SOL    HW3 6534   3.280   0.059   2.667  0.1213  0.3584  0.3670
 1615SOL    MW4 6535   3.349   0.016   2.636 -0.4187 -0.3174  0.0889
 1616SOL     OW 6536   3.111   0.100   2.718 -0.3406  0.1490 -0.0917
 1616SOL    HW2 6537   3.122   0.078   2.811 -1.4231  0.6871  0.1674
 1616SOL    HW3 6538   3.109   0.196   2.717  1.4958  0.2020 -0.8867
 1616SOL    MW4 6539   3.112   0.110   2.730 -0.2413  0.2270 -0.1626
 1617SOL     OW 6540   3.109   0.358   2.660 -0.4012 -0.0425  0.6438
 1617SOL    HW2 6541   3.038   0.418   2.684 -0.6816 -0.1230  0.0378
 1617SOL    HW3 6542   3.124   0.376   2.567  0.3775 -0.0229  0.7692
 1617SOL    MW4 6543   3.102   0.368   2.651 -0.3355 -0.0505  0.5805
 1618SOL     OW 6544   3.347   0.455   2.780  0.2455  0.3535 -0.0555
 1618SOL    HW2 6545   3.344   0.546   2.748 -1.1023  0.4834  0.4056
 1618SOL    HW3 6546   3.274   0.412   2.736  0.3021 -0.2604  0.4495
 1618SOL    MW4 6547   3.337   0.462   2.770  0.0751  0.2896  0.0720
 1619SOL     OW 6548   3.337   0.726   2.688 -0.1010  0.3127 -0.1399
 1619SOL    HW2 6549   3.414   0.774   2.718 -1.1658  2.4952 -0.8107
 1619SOL    HW3 6550   3.348   0.721   2.593 -1.2201  1.4150 -0.3283
 1619SOL    MW4 6551   3.349   0.732   2.679 -0.3891  0.7461 -0.2532
 1620SOL     OW 6552   3.157   0.944   2.749  0.0260  0.2009  0.6670
 1620SOL    HW2 6553   3.163   0.931   2.843 -0.0912  0.9564  0.7855
 1620SOL    HW3 6554   3.219   0.881   2.712  0.6139  0.4084  1.2889
 1620SOL    MW4 6555   3.166   0.934   2.756  0.0885  0.3279  0.7644
 1621SOL     OW 6556   3.111   1.189   2.656 -0.2461 -0.2527 -0.0550
 1621SOL    HW2 6557   3.108   1.097   2.683 -0.9413 -0.4808 -0.8785
 1621SOL    HW3 6558   3.134   1.186   2.563  1.8847  0.5115  0.4252
 1621SOL    MW4 6559   3.114   1.177   2.647 -0.0567 -0.1820 -0.1001
 1622SOL     OW 6560   3.347   1.289   2.728 -0.4020  0.4442  0.0978
 1622SOL    HW2 6561   3.347   1.298   2.824 -0.6734 -0.7376  0.2198
 1622SOL    HW3 6562   3.259   1.257   2.708 -0.0090 -0.2954 -0.4497
 1622SOL    MW4 6563   3.335   1.286   2.738 -0.3858  0.1907  0.0417
 1623SOL     OW 6564   3.334   1.574   2.653  0.3258  0.2326 -0.4394
 1623SOL    HW2 6565   3.255   1.589   2.705  1.0957  0.2205  0.7661
 1623SOL    HW3 6566   3.352   1.481   2.663 -0.0977  0.0299 -1.5708
 1623SOL    MW4 6567   3.326   1.564   2.661  0.3715  0.2043 -0.4296
 1624SOL     OW 6568   3.116   1.663   2.789  0.0606  0.5327  0.4594
 1624SOL    HW2 6569   3.139   1.750   2.756  0.6320 -0.2465 -1.2794
 1624SOL    HW3 6570   3.046   1.633   2.731  1.0889 -0.8701 -0.0967
 1624SOL    MW4 6571   3.110   1.670   2.777  0.2716  0.2447  0.1564
 1625SOL     OW 6572   3.151   1.906   2.650 -0.2890 -0.5981  0.2307
 1625SOL    HW2 6573   3.222   1.969   2.659 -0.6540 -0.1639  0.0576
 1625SOL    HW3 6574   3.072   1.954   2.676 -0.5123 -1.0979  0.4920
 1625SOL    MW4 6575   3.150   1.921   2.655 -0.3667 -0.6068  0.2422
 1626SOL     OW 6576   3.370   2.066   2.703  0.1481  0.4665 -0.0206
 1626SOL    HW2 6577   3.365   2.061   2.798  0.7039 -0.3647 -0.0376
 1626SOL    HW3 6578   3.384   2.159   2.685 -1.5654  0.8763  0.6322
 1626SOL    MW4 6579   3.371   2.078   2.713 -0.0048  0.4108  0.0634
 1627SOL     OW 6580   3.377   2.336   2.620 -0.1788 -0.4612 -0.3372
 1627SOL    HW2 6581   3.456   2.379   2.653 -0.9706  1.1220 -0.4596
 1627SOL    HW3 6582   3.386   2.339   2.525 -1.5424  1.9995 -0.4242
 1627SOL    MW4 6583   3.389   2.342   2.612 -0.4632  0.0725 -0.3648
 1628SOL     OW 6584   3.141   2.453   2.745 -0.7522  0.1689 -0.4220
 1628SOL    HW2 6585   3.126   2.543   2.714 -0.0734  0.0386 -1.1500
 1628SOL    HW3 6586   3.221   2.426   2.700 -0.0796 -0.2445  0.9968
 1628SOL    MW4 6587   3.150   2.461   2.735 -0.5736  0.0973 -0.3307
 1629SOL     OW 6588   3.107   2.692   2.571 -0.1438 -0.3079 -0.2034
 1629SOL    HW2 6589   3.181   2.738   2.611  0.2199 -0.0125 -1.2017
 1629SOL    HW3 6590   3.030   2.740   2.603  0.1866  0.4237 -0.4831
 1629SOL    MW4 6591   3.107   2.705   2.581 -0.0520 -0.1724 -0.3722
 1630SOL     OW 6592   3.332   2.818   2.701 -0.2425  0.0868 -0.4341
 1630SOL    HW2 6593   3.335   2.812   2.797  2.7072 -0.7973 -0.5209
 1630SOL    HW3 6594   3.420   2.793   2.673 -0.1560  3.1581 -3.2327
 1630SOL    MW4 6595   3.344   2.814   2.710  0.1581  0.3755 -0.8149
 1631SOL     OW 6596   3.389   3.100   2.636 -0.5626  0.0693  0.0155
 1631SOL    HW2 6597   3.395   3.006   2.655 -1.1997 -0.1180 -0.6906
 1631SOL    HW3 6598   3.392   3.105   2.541 -0.1438  0.8012  0.0643
 1631SOL    MW4 6599   3.390   3.088   2.626 -0.5915  0.1411 -0.0713
 1632SOL     OW 6600   3.145   3.222   2.714  0.1032 -0.0881 -0.0786
 1632SOL    HW2 6601   3.219   3.166   2.690 -0.6216 -0.1712 -2.2917
 1632SOL    HW3 6602   3.068   3.171   2.690 -0.6193  0.9007  0.1164
 1632SOL    MW4 6603   3.144   3.208   2.708 -0.0877  0.0315 -0.3450
 1633SOL     OW 6604   3.128   3.486   2.583  0.0705 -0.0668 -0.3272
 1633SOL    HW2 6605   3.130   3.398   2.621  0.7376  0.3310  0.5810
 1633SOL    HW3 6606   3.059   3.531   2.631  2.1964  1.0343  1.8108
 1633SOL    MW4 6607   3.119   3.480   2.594  0.4389  0.1307  0.0749
 1634SOL     OW 6608   3.360   3.610   2.669  0.1206  0.0788  0.0459
 1634SOL    HW2 6609   3.348   3.599   2.763  2.1125  0.5843  0.3796
 1634SOL    HW3 6610   3.280   3.574   2.630 -0.9344  0.3034  1.9383
 1634SOL    MW4 6611   3.348   3.604   2.676  0.2439  0.1752  0.3395
 1635SOL     OW 6612   3.368   3.879   2.580 -0.0956 -0.3694  0.0500
 1635SOL    HW2 6613   3.360   3.785   2.598 -0.0605 -0.1236  1.3675
 1635SOL    HW3 6614   3.378   3.884   2.485  2.0506 -1.8315  0.1574
 1635SOL    MW4 6615   3.368   3.867   2.570  0.1919 -0.5298  0.2379
 1636SOL     OW 6616   3.119   3.973   2.675  0.1511 -0.3063 -0.3772
 1636SOL    HW2 6617   3.134   4.057   2.633 -0.5204  0.4522  0.8747
 1636SOL    HW3 6618   3.201   3.925   2.663  1.2907  1.3209  0.7316
 1636SOL    MW4 6619   3.132   3.978   2.668  0.2129  0.0083 -0.0660
 1637SOL     OW 6620   3.159   4.251   2.583 -0.9695  0.0109  0.0426
 1637SOL    HW2 6621   3.085   4.293   2.626  0.0620  0.3231  1.5502
 1637SOL    HW3 6622   3.137   4.254   2.489 -1.8644  2.0440  0.2807
 1637SOL    MW4 6623   3.146   4.257   2.576 -0.9515  0.3204  0.2730
 1638SOL     OW 6624   3.365   4.396   2.685 -0.5205 -0.3207  0.1265
 1638SOL    HW2 6625   3.357   4.397   2.780 -0.1195  0.3959  0.1501
 1638SOL    HW3 6626   3.284   4.353   2.655  0.2208 -2.3297  0.8812
 1638SOL    MW4 6627   3.353   4.390   2.694 -0.3695 -0.4911  0.2289
 1639SOL     OW 6628   3.802   4.651   2.663  0.2281 -0.3589  0.3448
 1639SOL    HW2 6629   3.788   4.560   2.688 -0.8573 -0.2393  0.2116
 1639SOL    HW3 6630   3.721   4.695   2.688 -0.7594 -0.1427 -2.9431
 1639SOL    MW4 6631   3.789   4.645   2.669 -0.0453 -0.3152 -0.1066
 1640SOL     OW 6632   3.564   0.126   2.767  0.7870 -0.3426  0.2220
 1640SOL    HW2 6633   3.570   0.216   2.735  1.3989 -0.5141 -0.1504
 1640SOL    HW3 6634   3.487   0.089   2.723 -0.1401  0.3435  1.2410
 1640SOL    MW4 6635   3.555   0.133   2.757  0.7453 -0.2747  0.3073
 1641SOL     OW 6636   3.576   0.375   2.647 -0.0595 -0.1860  0.0164
 1641SOL    HW2 6637   3.657   0.416   2.677  1.1582 -2.1901 -0.4329
 1641SOL    HW3 6638   3.506   0.427   2.688  1.4328  1.6259  0.3318
 1641SOL    MW4 6639   3.577   0.388   2.657  0.2983 -0.2113 -0.0014
 1642SOL     OW 6640   3.805   0.486   2.737 -0.3637  0.2723  0.1085
 1642SOL    HW2 6641   3.790   0.470   2.831 -1.2154  1.7639  0.2270
 1642SOL    HW3 6642   3.876   0.425   2.715 -1.7113 -1.7813  1.1746
 1642SOL    MW4 6643   3.812   0.476   2.747 -0.6540  0.1982  0.2649
 1643SOL     OW 6644   3.797   0.780   2.644 -0.1870  0.1659  0.0067
 1643SOL    HW2 6645   3.712   0.805   2.679 -1.2044 -2.3116 -0.6222
 1643SOL    HW3 6646   3.811   0.690   2.675  1.4584 -0.0321 -1.2308
 1643SOL    MW4 6647   3.788   0.771   2.653 -0.1044 -0.1871 -0.2394
 1644SOL     OW 6648   3.562   0.876   2.744 -0.3878 -0.0169  0.0585
 1644SOL    HW2 6649   3.589   0.890   2.835 -1.5498 -0.6668  0.5246
 1644SOL    HW3 6650   3.556   0.963   2.706 -1.5099  0.3689  1.1014
 1644SOL    MW4 6651   3.565   0.889   2.751 -0.6893 -0.0517  0.2575
 1645SOL     OW 6652   3.563   1.118   2.652 -0.3353  0.4123 -0.2486
 1645SOL    HW2 6653   3.638   1.163   2.692 -0.8988 -0.0272  1.3481
 1645SOL    HW3 6654   3.488   1.173   2.674 -0.8421 -0.5904  0.5407
 1645SOL    MW4 6655   3.563   1.131   2.660 -0.4766  0.2221  0.0660
 1646SOL     OW 6656   3.788   1.259   2.745 -0.4009 -0.1450  0.5372
 1646SOL    HW2 6657   3.869   1.218   2.711  0.2237 -0.2368  2.1017
 1646SOL    HW3 6658   3.786   1.345   2.703  1.0635  0.2647  1.2518
 1646SOL    MW4 6659   3.799   1.265   2.735 -0.1252 -0.1031  0.8380
 1647SOL     OW 6660   3.748   1.516   2.618  0.8238 -0.1459  0.2243
 1647SOL    HW2 6661   3.834   1.553   2.638  1.4966 -1.3152 -0.4582
 1647SOL    HW3 6662   3.685   1.577   2.658  1.9697  0.6186  0.8697
 1647SOL    MW4 6663   3.751   1.529   2.626  1.0638 -0.1993  0.2193
 1648SOL     OW 6664   3.579   1.701   2.766  0.4943  0.0297 -0.5229
 1648SOL    HW2 6665   3.586   1.776   2.708 -0.8055  0.2955 -0.3642
 1648SOL    HW3 6666   3.492   1.666   2.749  0.7185 -0.8503  0.1131
 1648SOL    MW4 6667   3.568   1.707   2.756  0.3524 -0.0515 -0.4182
 1649SOL     OW 6668   3.609   1.938   2.620  0.3494 -0.6854 -0.4093
 1649SOL    HW2 6669   3.533   1.984   2.657 -0.1931 -1.4772 -0.5148
 1649SOL    HW3 6670   3.596   1.943   2.526  2.1787  2.0812 -0.5538
 1649SOL    MW4 6671   3.597   1.944   2.613  0.5190 -0.4249 -0.4425
 1650SOL     OW 6672   3.836   2.057   2.740 -0.4552 -0.0053 -0.1286
 1650SOL    HW2 6673   3.909   2.008   2.702  0.7260  0.8070  1.0543
 1650SOL    HW3 6674   3.758   2.015   2.704  0.5839 -1.0462 -1.2183
 1650SOL    MW4 6675   3.835   2.045   2.730 -0.1626 -0.0355 -0.1161
 1651SOL     OW 6676   3.790   2.319   2.321 -0.8684  0.6872  0.3652
 1651SOL    HW2 6677   3.811   2.310   2.414  2.9437 -0.0484 -0.5032
 1651SOL    HW3 6678   3.786   2.229   2.289 -1.1380  0.9752 -0.4192
 1651SOL    MW4 6679   3.792   2.306   2.329 -0.4010  0.6285  0.1469
 1652SOL     OW 6680   3.624   2.460   2.680 -0.6826  0.0566 -0.4103
 1652SOL    HW2 6681   3.621   2.461   2.775 -1.2892  1.2771 -0.4305
 1652SOL    HW3 6682   3.697   2.402   2.659  0.2885  0.7988  0.8240
 1652SOL    MW4 6683   3.634   2.452   2.689 -0.6344  0.3157 -0.2501
 1653SOL     OW 6684   3.573   2.717   2.621  0.3029  0.4597 -0.4108
 1653SOL    HW2 6685   3.592   2.632   2.660  0.0275  0.0153 -1.2148
 1653SOL    HW3 6686   3.642   2.775   2.652  0.8777 -0.2300 -0.3947
 1653SOL    MW4 6687   3.584   2.713   2.630  0.3424  0.3102 -0.5147
 1654SOL     OW 6688   4.021   2.696   2.652 -0.1293  0.2560 -0.0031
 1654SOL    HW2 6689   4.090   2.754   2.686 -0.8347  0.8481  0.4375
 1654SOL    HW3 6690   3.940   2.733   2.686 -0.5989 -0.9424  0.1865
 1654SOL    MW4 6691   4.019   2.709   2.661 -0.2837  0.1757  0.0801
 1655SOL     OW 6692   3.783   2.823   2.739  0.0219  0.0442 -0.5124
 1655SOL    HW2 6693   3.788   2.917   2.720  0.1434  0.2720  0.5730
 1655SOL    HW3 6694   3.787   2.819   2.835 -0.2569 -1.0550 -0.5494
 1655SOL    MW4 6695   3.784   2.835   2.749  0.0012 -0.0710 -0.3738
 1656SOL     OW 6696   3.588   3.230   2.777  0.1044  0.3472  0.4242
 1656SOL    HW2 6697   3.588   3.317   2.736  0.5616  0.1786  0.0583
 1656SOL    HW3 6698   3.528   3.178   2.723  1.9478 -0.3310 -1.0454
 1656SOL    MW4 6699   3.580   3.235   2.764  0.4077  0.2356  0.1819
 1657SOL     OW 6700   3.597   3.476   2.616  0.6368  0.3924  0.5713
 1657SOL    HW2 6701   3.669   3.522   2.658  0.2346  2.4610 -0.9525
 1657SOL    HW3 6702   3.519   3.528   2.636  0.2564  0.7089 -1.5976
 1657SOL    MW4 6703   3.596   3.489   2.624  0.5336  0.7069  0.0844
 1658SOL     OW 6704   3.789   3.584   2.798 -0.2150  0.0673 -0.4305
 1658SOL    HW2 6705   3.782   3.676   2.773  1.3485  0.1742 -0.5640
 1658SOL    HW3 6706   3.788   3.585   2.894  4.6296  0.7545 -0.2616
 1658SOL    MW4 6707   3.788   3.596   2.807  0.6304  0.1724 -0.4258
 1659SOL     OW 6708   3.796   3.841   2.671 -0.1633  0.1252  0.4156
 1659SOL    HW2 6709   3.863   3.881   2.727  0.0131  1.6932 -0.8701
 1659SOL    HW3 6710   3.718   3.894   2.687 -0.4795 -0.2701  0.1749
 1659SOL    MW4 6711   3.795   3.854   2.681 -0.1819  0.2801  0.2141
 1660SOL     OW 6712   3.565   3.996   2.732 -0.1452 -0.1727 -0.2456
 1660SOL    HW2 6713   3.576   4.088   2.708  1.3020 -0.5810 -1.1878
 1660SOL    HW3 6714   3.491   3.966   2.680  0.3218  0.0689 -1.0544
 1660SOL    MW4 6715   3.557   4.004   2.722  0.1078 -0.1950 -0.4766
 1661SOL     OW 6716   3.603   4.258   2.639  0.5778  0.3430 -0.0101
 1661SOL    HW2 6717   3.522   4.305   2.658 -0.3215 -1.2637  0.1940
 1661SOL    HW3 6718   3.614   4.265   2.544  0.0326  0.3115 -0.0756
 1661SOL    MW4 6719   3.594   4.265   2.629  0.3877  0.1273  0.0083
 1662SOL     OW 6720   3.799   4.397   2.764 -0.1540  0.0823  0.0122
 1662SOL    HW2 6721   3.864   4.342   2.720  0.1436 -0.6295  1.3206
 1662SOL    HW3 6722   3.716   4.373   2.724 -0.0850 -1.6346  0.8569
 1662SOL    MW4 6723   3.797   4.386   2.753 -0.1056 -0.2379  0.2964
 1663SOL     OW 6724   4.269   4.596   2.635  0.4428 -0.2167  0.1845
 1663SOL    HW2 6725   4.190   4.642   2.663  1.1869  0.3139  1.4496
 1663SOL    HW3 6726   4.341   4.655   2.658  1.1322 -0.0225 -2.3259
 1663SOL    MW4 6727   4.268   4.610   2.642  0.6318 -0.1206  0.0200
 1664SOL     OW 6728   4.054   0.078   2.715  0.2920  0.1906 -0.0435
 1664SOL    HW2 6729   4.069   0.060   2.808 -0.6642  1.0164  0.2731
 1664SOL    HW3 6730   3.960   0.061   2.702 -0.0426  2.2038 -0.3608
 1664SOL    MW4 6731   4.043   0.073   2.725  0.1221  0.5652 -0.0439
 1665SOL     OW 6732   4.024   0.335   2.684 -0.0505 -0.1922  0.3354
 1665SOL    HW2 6733   4.032   0.242   2.708 -1.9606 -0.3876  0.2987
 1665SOL    HW3 6734   4.053   0.339   2.593  0.6674 -0.6400  0.5402
 1665SOL    MW4 6735   4.029   0.323   2.675 -0.2084 -0.2771  0.3576
 1666SOL     OW 6736   4.255   0.444   2.759 -0.0346 -0.2876  0.0361
 1666SOL    HW2 6737   4.181   0.385   2.745  0.8387 -1.0963 -1.3180
 1666SOL    HW3 6738   4.264   0.448   2.854  0.3279 -2.9239  0.1469
 1666SOL    MW4 6739   4.246   0.437   2.770  0.1283 -0.7421 -0.1276
 1667SOL     OW 6740   4.228   0.724   2.687 -0.3945 -0.2234 -0.1699
 1667SOL    HW2 6741   4.246   0.638   2.724 -0.5755 -0.0819  0.2587
 1667SOL    HW3 6742   4.224   0.710   2.592  1.5030 -0.3370 -0.2377
 1667SOL    MW4 6743   4.230   0.711   2.679 -0.1683 -0.2198 -0.1223
 1668SOL     OW 6744   4.014   0.870   2.785 -0.6924  0.3264  0.1197
 1668SOL    HW2 6745   4.080   0.806   2.760  0.5125  1.6763 -0.2224
 1668SOL    HW3 6746   3.933   0.839   2.745 -0.1905 -1.1176  0.2029
 1668SOL    MW4 6747   4.012   0.858   2.777 -0.4663  0.3140  0.0856
 1669SOL     OW 6748   4.008   1.140   2.628 -0.0694 -0.3262  0.0347
 1669SOL    HW2 6749   4.082   1.189   2.663  0.8662 -1.0156 -0.9250
 1669SOL    HW3 6750   4.014   1.054   2.670 -0.6171 -0.2163  0.3374
 1669SOL    MW4 6751   4.019   1.135   2.638 -0.0176 -0.4028 -0.0522
 1670SOL     OW 6752   4.222   1.254   2.757 -0.4757 -0.6051 -0.1556
 1670SOL    HW2 6753   4.236   1.343   2.725 -1.7509 -0.0361  0.8447
 1670SOL    HW3 6754   4.300   1.206   2.728  0.8312  1.1213  0.4281
 1670SOL    MW4 6755   4.234   1.259   2.749 -0.4721 -0.3023  0.0534
 1671SOL     OW 6756   4.252   1.514   2.685  0.0100  0.2694 -0.2446
 1671SOL    HW2 6757   4.319   1.575   2.717  1.6004 -1.2901 -0.5145
 1671SOL    HW3 6758   4.256   1.522   2.590  1.0846 -1.0951 -0.3390
 1671SOL    MW4 6759   4.262   1.523   2.677  0.3614 -0.1163 -0.2928
 1672SOL     OW 6760   3.984   1.619   2.685  0.1954 -0.7328 -0.0500
 1672SOL    HW2 6761   3.984   1.629   2.780  0.6618 -0.5368 -0.0694
 1672SOL    HW3 6762   4.068   1.579   2.665  0.0536 -0.8747 -0.3735
 1672SOL    MW4 6763   3.995   1.615   2.695  0.2382 -0.7256 -0.0956
 1673SOL     OW 6764   4.019   1.888   2.614  0.1500  0.0595 -0.2650
 1673SOL    HW2 6765   4.101   1.918   2.653 -0.2275 -0.4411  0.9623
 1673SOL    HW3 6766   4.015   1.795   2.635 -1.4672  0.3938  1.0906
 1673SOL    MW4 6767   4.029   1.880   2.622 -0.1125  0.0376  0.0758
 1674SOL     OW 6768   4.251   2.036   2.712  0.1782  0.0649 -0.1278
 1674SOL    HW2 6769   4.252   2.128   2.686  0.2273  0.4337  1.1364
 1674SOL    HW3 6770   4.334   2.001   2.680  0.5948  0.7107  0.2213
 1674SOL    MW4 6771   4.262   2.044   2.705  0.2394  0.1986  0.0851
 1675SOL     OW 6772   4.255   2.327   2.604  0.6549 -0.3183 -0.1464
 1675SOL    HW2 6773   4.176   2.370   2.638  1.3687 -0.8579  2.3141
 1675SOL    HW3 6774   4.237   2.314   2.511 -1.0022  2.1048 -0.2118
 1675SOL    MW4 6775   4.242   2.331   2.596  0.5302 -0.0699  0.1698
 1676SOL     OW 6776   3.826   2.303   2.614 -0.0101  0.2594  0.2336
 1676SOL    HW2 6777   3.893   2.345   2.669 -0.9709  0.4468  1.2757
 1676SOL    HW3 6778   3.818   2.215   2.650  1.9356 -0.8267 -1.8886
 1676SOL    MW4 6779   3.834   2.297   2.626  0.1199  0.1407  0.0913
 1677SOL     OW 6780   4.026   2.425   2.751  0.0620  0.1943  0.1055
 1677SOL    HW2 6781   4.032   2.521   2.746 -0.8373  0.3238  1.3152
 1677SOL    HW3 6782   4.031   2.406   2.845  1.1738 -1.0217 -0.1832
 1677SOL    MW4 6783   4.028   2.435   2.763  0.0901  0.0510  0.2270
 1678SOL     OW 6784   4.233   2.875   2.741 -0.1796  0.6653  0.1227
 1678SOL    HW2 6785   4.226   2.870   2.836  2.4662  0.0503  0.3495
 1678SOL    HW3 6786   4.243   2.968   2.722  0.8374  0.6711  0.6220
 1678SOL    MW4 6787   4.234   2.887   2.751  0.3037  0.5848  0.2186
 1679SOL     OW 6788   4.267   3.140   2.664 -0.2260 -0.6042 -0.0437
 1679SOL    HW2 6789   4.181   3.175   2.691  0.8328  0.6170  1.8370
 1679SOL    HW3 6790   4.260   3.131   2.569 -2.3369 -0.2036  0.0446
 1679SOL    MW4 6791   4.254   3.143   2.655 -0.3653 -0.3903  0.2160
 1680SOL     OW 6792   3.794   3.093   2.643 -0.4287  0.1780 -0.3957
 1680SOL    HW2 6793   3.878   3.137   2.642 -0.2040 -0.2100  1.0351
 1680SOL    HW3 6794   3.736   3.151   2.692 -0.2551 -0.8641  1.0770
 1680SOL    MW4 6795   3.797   3.107   2.649 -0.3762 -0.0105 -0.0126
 1681SOL     OW 6796   4.015   3.509   2.647 -0.4456 -0.0755 -0.1176
 1681SOL    HW2 6797   4.096   3.535   2.692 -0.1504  1.1543 -1.2949
 1681SOL    HW3 6798   3.945   3.541   2.704 -0.0852  0.2586  0.1448
 1681SOL    MW4 6799   4.017   3.517   2.661 -0.3591  0.1309 -0.2384
 1682SOL     OW 6800   4.258   3.592   2.756 -0.0188  0.2495 -0.2137
 1682SOL    HW2 6801   4.270   3.575   2.850 -0.8391  1.3263  0.1019
 1682SOL    HW3 6802   4.327   3.542   2.713  0.6722  0.1441  1.0015
 1682SOL    MW4 6803   4.268   3.583   2.763 -0.0362  0.3774 -0.0117
 1683SOL     OW 6804   4.262   3.852   2.654 -0.2246  0.2038 -0.3377
 1683SOL    HW2 6805   4.265   3.765   2.693  2.3125  0.4229  0.0445
 1683SOL    HW3 6806   4.326   3.903   2.704  0.1648  1.5853 -2.1787
 1683SOL    MW4 6807   4.271   3.847   2.666  0.1621  0.4148 -0.5302
 1684SOL     OW 6808   4.030   3.965   2.773  0.2191 -0.0309 -0.0842
 1684SOL    HW2 6809   4.041   3.985   2.866  0.6052  0.8673 -0.3112
 1684SOL    HW3 6810   4.117   3.938   2.745 -0.0767 -1.0764 -0.0110
 1684SOL    MW4 6811   4.043   3.964   2.782  0.2313 -0.0503 -0.1044
 1685SOL     OW 6812   3.997   4.228   2.649  0.2249 -0.1805 -0.0930
 1685SOL    HW2 6813   3.995   4.139   2.686  0.2505 -0.5494 -0.9601
 1685SOL    HW3 6814   4.078   4.266   2.682  0.8231 -0.9158 -0.6984
 1685SOL    MW4 6815   4.007   4.221   2.658  0.3076 -0.3266 -0.2873
 1686SOL     OW 6816   4.229   4.344   2.758  0.1830  0.5691  0.1178
 1686SOL    HW2 6817   4.247   4.361   2.850  0.4130  0.8537  0.0224
 1686SOL    HW3 6818   4.243   4.428   2.715  2.2656 -0.0762 -0.5070
 1686SOL    MW4 6819   4.233   4.357   2.764  0.4883  0.5221  0.0226
 1687SOL     OW 6820   0.213   4.588   3.116  0.1866  0.1082  0.1815
 1687SOL    HW2 6821   0.283   4.644   3.083  0.2947 -0.3064 -0.2936
 1687SOL    HW3 6822   0.222   4.592   3.211  0.3698  0.6707  0.1416
 1687SOL    MW4 6823   0.224   4.596   3.124  0.2251  0.1273  0.1135
 1688SOL     OW 6824   0.006   0.075   3.015  0.1431 -0.7530  0.2190
 1688SOL    HW2 6825   0.084   0.026   3.037  1.0264  0.0775 -0.9925
 1688SOL    HW3 6826  -0.066   0.028   3.058  0.8991 -3.3436 -1.2942
 1688SOL    MW4 6827   0.007   0.063   3.024  0.3594 -0.9852 -0.1407
 1689SOL     OW 6828   4.457   0.324   3.135  0.4386  0.1154  0.5248
 1689SOL    HW2 6829   4.472   0.314   3.229 -1.6154 -0.6801  0.7843
 1689SOL    HW3 6830   4.469   0.236   3.098  1.2459  0.4244  0.0181
 1689SOL    MW4 6831   4.461   0.311   3.142  0.2737  0.0512  0.4923
 1690SOL     OW 6832   0.206   0.426   3.013  0.3050  0.0447 -0.4837
 1690SOL    HW2 6833   0.275   0.388   3.067  1.1798  2.4936  0.1974
 1690SOL    HW3 6834   0.125   0.398   3.056  0.9288 -0.4511  0.4043
 1690SOL    MW4 6835   0.204   0.417   3.026  0.5027  0.3024 -0.2768
 1691SOL     OW 6836   0.197   0.717   3.053  0.0244  0.2481  0.5291
 1691SOL    HW2 6837   0.182   0.720   3.147  2.0010  0.5195  0.8602
 1691SOL    HW3 6838   0.223   0.626   3.036 -1.0080  0.0245  0.1301
 1691SOL    MW4 6839   0.199   0.705   3.063  0.1490  0.2545  0.5205
 1692SOL     OW 6840   4.482   0.880   2.955 -0.3122  0.2120 -0.2113
 1692SOL    HW2 6841   4.561   0.835   2.983 -2.0365 -2.4188  0.6025
 1692SOL    HW3 6842   4.472   0.856   2.863 -0.9653 -0.6769  0.0894
 1692SOL    MW4 6843   4.491   0.871   2.947 -0.6266 -0.2524 -0.0639
 1693SOL     OW 6844   4.484   1.115   3.119  0.2277  0.4786  0.4438
 1693SOL    HW2 6845   4.413   1.168   3.083  0.5356  0.5816 -0.0061
 1693SOL    HW3 6846   4.478   1.032   3.072  0.0957  0.3099  0.7561
 1693SOL    MW4 6847   4.474   1.111   3.108  0.2508  0.4700  0.4258
 1694SOL     OW 6848   0.242   1.266   3.025 -0.2685  0.0234 -0.0668
 1694SOL    HW2 6849   0.177   1.204   3.058  2.1085 -2.5019 -0.0172
 1694SOL    HW3 6850   0.231   1.263   2.930  0.7026 -1.4473 -0.1379
 1694SOL    MW4 6851   0.232   1.257   3.017  0.1732 -0.5038 -0.0694
 1695SOL     OW 6852   0.218   1.553   3.129  0.3408 -0.6508  0.5214
 1695SOL    HW2 6853   0.154   1.600   3.075  0.3685 -0.0855  0.9712
 1695SOL    HW3 6854   0.212   1.462   3.100  0.2934 -0.3657 -0.3691
 1695SOL    MW4 6855   0.209   1.547   3.118  0.3382 -0.5385  0.4630
 1696SOL     OW 6856   0.009   1.682   2.980 -0.0788  0.0903  0.3319
 1696SOL    HW2 6857  -0.073   1.646   3.015  0.2125  0.4209  1.3923
 1696SOL    HW3 6858   0.021   1.763   3.028  0.9687 -0.0492  0.3122
 1696SOL    MW4 6859  -0.001   1.688   2.991  0.0979  0.1154  0.4692
 1697SOL     OW 6860   0.009   1.935   3.130 -0.0018  0.2973  0.1403
 1697SOL    HW2 6861  -0.060   1.979   3.080 -0.2163  0.6679  0.7450
 1697SOL    HW3 6862   0.090   1.975   3.099  0.0223 -0.8053 -1.2452
 1697SOL    MW4 6863   0.010   1.946   3.119 -0.0269  0.2006  0.0374
 1698SOL     OW 6864   0.221   2.078   3.020  0.0409 -0.1402  0.5700
 1698SOL    HW2 6865   0.200   2.167   3.049  0.8787 -0.1112  1.1220
 1698SOL    HW3 6866   0.208   2.079   2.925  0.2774  0.6432  0.5422
 1698SOL    MW4 6867   0.217   2.090   3.011  0.1826 -0.0331  0.6394
 1699SOL     OW 6868   0.206   2.354   3.104  0.3250 -0.3295 -0.1528
 1699SOL    HW2 6869   0.219   2.343   3.198 -0.0603  0.5955  0.0177
 1699SOL    HW3 6870   0.292   2.378   3.069  0.4856 -0.7592 -0.0495
 1699SOL    MW4 6871   0.219   2.356   3.112  0.2954 -0.2642 -0.1168
 1700SOL     OW 6872   4.480   2.451   2.983  0.0891 -0.2418 -0.2205
 1700SOL    HW2 6873   4.470   2.533   3.030 -1.0594 -1.3435  1.5192
 1700SOL    HW3 6874   4.564   2.415   3.013 -0.0147 -0.3152 -0.0196
 1700SOL    MW4 6875   4.490   2.457   2.993 -0.0763 -0.3967  0.0355
 1701SOL     OW 6876   4.455   2.733   3.108 -0.1470  0.5716  0.0332
 1701SOL    HW2 6877   4.471   2.708   3.199  1.3898 -0.8435 -0.5861
 1701SOL    HW3 6878   4.540   2.766   3.078 -0.8423  1.7210 -0.6795
 1701SOL    MW4 6879   4.469   2.734   3.116 -0.0367  0.5367 -0.1426
 1702SOL     OW 6880   0.214   2.812   3.027  0.0642  0.5261 -0.2580
 1702SOL    HW2 6881   0.289   2.754   3.045 -0.1547  0.4806  0.5265
 1702SOL    HW3 6882   0.221   2.832   2.933  1.3281  0.9103 -0.0884
 1702SOL    MW4 6883   0.225   2.807   3.017  0.2021  0.5713 -0.1321
 1703SOL     OW 6884   0.249   3.054   3.152  0.2314  0.2192 -0.2870
 1703SOL    HW2 6885   0.174   3.104   3.120  0.2790  0.2384 -0.3679
 1703SOL    HW3 6886   0.233   2.964   3.123  0.3150  0.2517 -0.4352
 1703SOL    MW4 6887   0.237   3.049   3.144  0.2487  0.2260 -0.3173
 1704SOL     OW 6888   0.034   3.193   3.048 -0.2848  0.1735  0.2524
 1704SOL    HW2 6889  -0.056   3.168   3.069  0.0968 -1.2097  0.2889
 1704SOL    HW3 6890   0.031   3.215   2.954 -0.7663  0.6832  0.3816
 1704SOL    MW4 6891   0.022   3.193   3.038 -0.2979  0.0587  0.2742
 1705SOL     OW 6892   0.040   3.461   3.118 -0.2071 -0.3336  0.2525
 1705SOL    HW2 6893  -0.050   3.489   3.097  0.1031  1.1782  0.8513
 1705SOL    HW3 6894   0.039   3.366   3.106 -1.7310 -0.2628 -0.3326
 1705SOL    MW4 6895   0.028   3.452   3.113 -0.3673 -0.1245  0.2542
 1706SOL     OW 6896   0.221   3.631   2.981  0.1085  0.4459 -0.4712
 1706SOL    HW2 6897   0.212   3.716   3.022 -1.4547  0.3354 -0.5517
 1706SOL    HW3 6898   0.154   3.576   3.022  0.1724 -0.3534 -1.3933
 1706SOL    MW4 6899   0.211   3.635   2.992 -0.0893  0.3259 -0.6037
 1707SOL     OW 6900   0.206   3.868   3.131 -0.1116 -0.0253  0.1173
 1707SOL    HW2 6901   0.194   3.851   3.224 -1.0574  1.5726  0.2917
 1707SOL    HW3 6902   0.294   3.906   3.125 -0.2286  0.2895  0.4056
 1707SOL    MW4 6903   0.216   3.870   3.142 -0.2518  0.2272  0.1781
 1708SOL     OW 6904   4.472   3.994   3.053  0.1861 -0.6392  0.5057
 1708SOL    HW2 6905   4.554   3.960   3.088  0.3797 -0.2724  0.4086
 1708SOL    HW3 6906   4.487   4.001   2.959  0.0335 -0.5979  0.4837
 1708SOL    MW4 6907   4.485   3.991   3.045  0.1915 -0.5853  0.4902
 1709SOL     OW 6908   4.459   4.257   3.133  0.9131  0.2792  0.0298
 1709SOL    HW2 6909   4.478   4.258   3.226 -0.5785  2.1456  0.3635
 1709SOL    HW3 6910   4.448   4.165   3.111  0.4775 -0.1337  1.8887
 1709SOL    MW4 6911   4.460   4.245   3.142  0.6585  0.4711  0.3190
 1710SOL     OW 6912   0.203   4.337   3.042 -0.2852 -0.0334 -0.3479
 1710SOL    HW2 6913   0.114   4.308   3.062 -0.8239  0.6627 -1.6815
 1710SOL    HW3 6914   0.209   4.425   3.078  0.0771 -0.3174  0.2955
 1710SOL    MW4 6915   0.192   4.344   3.049 -0.3085  0.0215 -0.4389
 1711SOL     OW 6916   0.649   4.638   3.112  0.2169  0.0064 -0.4375
 1711SOL    HW2 6917   0.653   4.546   3.084  0.4337 -0.0481 -0.2224
 1711SOL    HW3 6918   0.650   4.634   3.207 -2.8600  0.0601 -0.3375
 1711SOL    MW4 6919   0.650   4.625   3.121 -0.1604  0.0057 -0.3960
 1712SOL     OW 6920   0.432   0.056   2.991  0.2828  0.3026  0.3711
 1712SOL    HW2 6921   0.432   0.148   3.017 -0.3037  0.3536  0.2072
 1712SOL    HW3 6922   0.513   0.020   3.026 -1.0545  0.0567  3.3311
 1712SOL    MW4 6923   0.442   0.063   2.999  0.0290  0.2769  0.7398
 1713SOL     OW 6924   0.417   0.307   3.145  0.1617  0.0951  0.2531
 1713SOL    HW2 6925   0.429   0.298   3.240  1.0925 -0.0587  0.1258
 1713SOL    HW3 6926   0.484   0.371   3.119 -1.5547  1.8301  0.0310
 1713SOL    MW4 6927   0.428   0.314   3.154  0.0581  0.3037  0.2072
 1714SOL     OW 6928   0.641   0.488   3.041  0.4307 -0.1260 -0.5776
 1714SOL    HW2 6929   0.719   0.441   3.069 -0.4787 -1.2196  0.1457
 1714SOL    HW3 6930   0.653   0.577   3.073  1.0755 -0.4524  0.0832
 1714SOL    MW4 6931   0.653   0.494   3.049  0.3958 -0.3133 -0.3951
 1715SOL     OW 6932   0.676   0.751   3.113  0.0709  0.7349 -0.4874
 1715SOL    HW2 6933   0.657   0.735   3.205  0.7510  0.1214 -0.4459
 1715SOL    HW3 6934   0.598   0.796   3.080 -0.5504  0.1645  0.1764
 1715SOL    MW4 6935   0.663   0.755   3.121  0.0787  0.5787 -0.3943
 1716SOL     OW 6936   0.448   0.864   3.024  0.1475  0.0287 -0.5228
 1716SOL    HW2 6937   0.364   0.820   3.038 -0.9811  2.1326 -0.5290
 1716SOL    HW3 6938   0.466   0.852   2.930  0.7796 -1.9941 -0.1639
 1716SOL    MW4 6939   0.440   0.856   3.013  0.0820  0.0394 -0.4764
 1717SOL     OW 6940   0.474   1.123   3.117 -0.0998 -0.3659 -0.3779
 1717SOL    HW2 6941   0.457   1.031   3.095 -1.7666 -0.0890 -0.3353
 1717SOL    HW3 6942   0.397   1.170   3.085 -0.5033  0.6563  2.0053
 1717SOL    MW4 6943   0.462   1.117   3.110 -0.3729 -0.1945 -0.0577
 1718SOL     OW 6944   0.693   1.262   2.976 -0.1298 -0.7935  0.0684
 1718SOL    HW2 6945   0.771   1.226   3.019 -0.4869 -2.1182 -0.3631
 1718SOL    HW3 6946   0.619   1.217   3.018 -0.5370 -1.2934 -1.1551
 1718SOL    MW4 6947   0.693   1.251   2.987 -0.2307 -1.0341 -0.1497
 1719SOL     OW 6948   0.697   1.533   3.052 -0.2700 -0.2423  0.0219
 1719SOL    HW2 6949   0.722   1.524   3.144 -1.4626 -0.5956  0.3335
 1719SOL    HW3 6950   0.680   1.443   3.023 -0.4815 -0.0826 -0.3634
 1719SOL    MW4 6951   0.698   1.520   3.060 -0.4553 -0.2677  0.0124
 1720SOL     OW 6952   0.458   1.676   2.981  0.3214  0.0236  0.0208
 1720SOL    HW2 6953   0.540   1.645   3.020  0.4464  0.2845 -0.0285
 1720SOL    HW3 6954   0.391   1.615   3.013  0.6979 -0.8337 -0.8214
 1720SOL    MW4 6955   0.460   1.664   2.990  0.3875 -0.0551 -0.0970
 1721SOL     OW 6956   0.456   1.916   3.127  0.1515 -0.4154 -0.6425
 1721SOL    HW2 6957   0.452   1.832   3.081 -0.7624 -0.4364 -0.5397
 1721SOL    HW3 6958   0.378   1.962   3.098  0.2101  0.0594 -0.0389
 1721SOL    MW4 6959   0.445   1.911   3.117  0.0386 -0.3556 -0.5493
 1722SOL     OW 6960   0.666   2.046   3.006  0.3863 -0.3317  0.4428
 1722SOL    HW2 6961   0.741   2.008   3.051  0.5593  0.8100  1.1385
 1722SOL    HW3 6962   0.590   2.008   3.051  0.5544  0.2082  1.1852
 1722SOL    MW4 6963   0.666   2.036   3.018  0.4313 -0.1099  0.6325
 1723SOL     OW 6964   0.695   2.301   3.077  0.0140  0.0205 -0.4323
 1723SOL    HW2 6965   0.681   2.290   3.171  0.2971  1.6323 -0.1889
 1723SOL    HW3 6966   0.692   2.212   3.041  2.2823 -0.8617  1.4299
 1723SOL    MW4 6967   0.693   2.288   3.084  0.3506  0.1168 -0.1545
 1724SOL     OW 6968   0.459   2.405   2.993  0.4357 -0.6256  0.2654
 1724SOL    HW2 6969   0.536   2.353   3.014  0.2343 -0.4366  1.5387
 1724SOL    HW3 6970   0.458   2.410   2.898  2.0049 -0.6074  0.2449
 1724SOL    MW4 6971   0.469   2.399   2.983  0.6162 -0.5982  0.4308
 1725SOL     OW 6972   0.423   2.653   3.107  0.0933 -0.2750 -0.1954
 1725SOL    HW2 6973   0.494   2.711   3.079  1.2034 -1.8445 -0.6249
 1725SOL    HW3 6974   0.451   2.565   3.082 -1.8674 -0.9533 -0.1090
 1725SOL    MW4 6975   0.436   2.649   3.100 -0.0190 -0.5717 -0.2403
 1726SOL     OW 6976   0.645   2.810   3.030 -0.4207  0.1436 -0.1176
 1726SOL    HW2 6977   0.718   2.767   3.075  0.5710  0.4655 -1.4003
 1726SOL    HW3 6978   0.663   2.903   3.040 -1.0955  0.2393  0.2518
 1726SOL    MW4 6979   0.657   2.816   3.038 -0.3788  0.1988 -0.2382
 1727SOL     OW 6980   0.693   3.075   3.087  0.4251 -0.4280 -0.2863
 1727SOL    HW2 6981   0.697   3.073   3.183  1.9014  1.9491 -0.2399
 1727SOL    HW3 6982   0.613   3.124   3.067  0.8724  0.3305 -0.2334
 1727SOL    MW4 6983   0.683   3.082   3.097  0.6790 -0.0145 -0.2732
 1728SOL     OW 6984   0.460   3.213   3.022  0.1874 -0.4174 -0.2811
 1728SOL    HW2 6985   0.439   3.298   3.060  1.3399 -0.5254  0.6573
 1728SOL    HW3 6986   0.391   3.154   3.053 -0.2234  0.0215 -0.3608
 1728SOL    MW4 6987   0.448   3.216   3.031  0.2853 -0.3736 -0.1676
 1729SOL     OW 6988   0.417   3.473   3.112  0.6522  0.6758 -0.2894
 1729SOL    HW2 6989   0.491   3.512   3.066  0.5896  1.1406 -0.0046
 1729SOL    HW3 6990   0.340   3.513   3.071  0.6460  3.1894  2.0115
 1729SOL    MW4 6991   0.416   3.484   3.101  0.6431  1.0686  0.0515
 1730SOL     OW 6992   0.634   3.595   2.998  0.0113 -0.2495 -0.1516
 1730SOL    HW2 6993   0.704   3.544   3.040 -0.7891 -1.3925 -0.1928
 1730SOL    HW3 6994   0.647   3.684   3.031  0.4899 -0.7714  1.1140
 1730SOL    MW4 6995   0.645   3.600   3.008 -0.0312 -0.4694  0.0098
 1731SOL     OW 6996   0.695   3.827   3.139  0.1331 -0.7732 -0.2528
 1731SOL    HW2 6997   0.696   3.829   3.235  0.1632 -0.4707 -0.2600
 1731SOL    HW3 6998   0.771   3.880   3.113  0.2590 -1.0434 -0.4407
 1731SOL    MW4 6999   0.705   3.834   3.148  0.1537 -0.7687 -0.2785
 1732SOL     OW 7000   0.453   3.942   3.063 -0.0570 -0.8666 -0.2207
 1732SOL    HW2 7001   0.544   3.919   3.084  0.8876  1.4788 -1.5593
 1732SOL    HW3 7002   0.443   3.918   2.970 -0.0768  0.9404 -0.7072
 1732SOL    MW4 7003   0.464   3.936   3.053  0.0650 -0.3188 -0.4616
 1733SOL     OW 7004   0.428   4.209   3.121  0.2364 -0.4747  0.2115
 1733SOL    HW2 7005   0.426   4.114   3.110 -0.1216 -0.3872 -0.4718
 1733SOL    HW3 7006   0.341   4.239   3.096  0.4804  0.0779  0.0004
 1733SOL    MW4 7007   0.416   4.201   3.116  0.2213 -0.3901  0.0935
 1734SOL     OW 7008   0.641   4.361   3.035  0.2772  0.0675  0.2416
 1734SOL    HW2 7009   0.573   4.307   3.076  0.9131 -1.3000 -0.4722
 1734SOL    HW3 7010   0.623   4.354   2.941  0.3684  1.0978  0.1473
 1734SOL    MW4 7011   0.629   4.353   3.028  0.3731  0.0234  0.1349
 1735SOL     OW 7012   1.131   4.652   3.151 -0.1524  0.4921 -0.2280
 1735SOL    HW2 7013   1.208   4.701   3.122 -1.0933  2.6143  0.7821
 1735SOL    HW3 7014   1.057   4.698   3.111 -1.1436  0.7233  1.8176
 1735SOL    MW4 7015   1.131   4.664   3.142 -0.4073  0.8025  0.1752
 1736SOL     OW 7016   0.905   0.089   3.034  0.9803 -0.1590 -0.4340
 1736SOL    HW2 7017   0.905   0.180   3.063  0.3666 -0.7466  1.4413
 1736SOL    HW3 7018   0.825   0.052   3.071  0.9053 -1.3025 -1.7108
 1736SOL    MW4 7019   0.895   0.096   3.043  0.8895 -0.3874 -0.3550
 1737SOL     OW 7020   0.880   0.353   3.104  0.5237  0.0045 -0.5404
 1737SOL    HW2 7021   0.895   0.334   3.197 -0.7412  0.9554 -0.1296
 1737SOL    HW3 7022   0.946   0.419   3.082  1.9886 -1.5056 -0.8030
 1737SOL    MW4 7023   0.891   0.359   3.113  0.5501 -0.0693 -0.5207
 1738SOL     OW 7024   1.102   0.525   3.023  0.2912 -0.1329  0.3477
 1738SOL    HW2 7025   1.184   0.478   3.034 -1.0748 -2.8670 -0.5401
 1738SOL    HW3 7026   1.099   0.548   2.930  1.3035  2.4894  0.9199
 1738SOL    MW4 7027   1.112   0.522   3.012  0.2445 -0.1478  0.3059
 1739SOL     OW 7028   1.120   0.797   3.084  0.3292 -0.1124  0.0066
 1739SOL    HW2 7029   1.079   0.796   3.170  1.8902  0.7307  0.7995
 1739SOL    HW3 7030   1.137   0.705   3.064  1.4464 -0.2191  1.3536
 1739SOL    MW4 7031   1.117   0.785   3.093  0.6824 -0.0152  0.2890
 1740SOL     OW 7032   0.890   0.884   2.968 -0.1527  0.2543 -0.0813
 1740SOL    HW2 7033   0.973   0.860   3.010 -0.9631 -0.7006  0.9878
 1740SOL    HW3 7034   0.823   0.842   3.021 -1.2606 -0.1539 -1.7759
 1740SOL    MW4 7035   0.892   0.875   2.980 -0.4058  0.0744 -0.1636
 1741SOL     OW 7036   0.898   1.114   3.132  0.4314 -0.6182 -0.2090
 1741SOL    HW2 7037   0.972   1.167   3.102  0.8557 -1.0362  0.0882
 1741SOL    HW3 7038   0.889   1.045   3.066 -0.7145  0.3570 -1.0886
 1741SOL    MW4 7039   0.907   1.112   3.120  0.3362 -0.5445 -0.2856
 1742SOL     OW 7040   1.076   1.262   3.012 -0.1562 -0.5772  0.1118
 1742SOL    HW2 7041   1.162   1.244   3.051  0.0521  0.4919  0.1735
 1742SOL    HW3 7042   1.093   1.269   2.918  0.2145  1.7109  0.3139
 1742SOL    MW4 7043   1.090   1.261   3.005 -0.0799 -0.1345  0.1466
 1743SOL     OW 7044   1.109   1.525   3.113 -0.4743 -0.0266 -0.1213
 1743SOL    HW2 7045   1.200   1.528   3.082 -0.2334  0.4607  0.6180
 1743SOL    HW3 7046   1.075   1.442   3.079  0.3263 -0.3356 -0.1805
 1743SOL    MW4 7047   1.117   1.515   3.104 -0.3369 -0.0031 -0.0315
 1744SOL     OW 7048   0.921   1.687   2.979 -0.1090  0.1450  0.2159
 1744SOL    HW2 7049   0.982   1.637   3.032  0.7064  1.9867  1.0217
 1744SOL    HW3 7050   0.838   1.639   2.986  0.6211 -0.9972  1.0930
 1744SOL    MW4 7051   0.918   1.674   2.987  0.0949  0.2373  0.4382
 1745SOL     OW 7052   0.903   1.937   3.096  0.5443  0.0398 -0.1982
 1745SOL    HW2 7053   0.892   1.913   3.187 -0.9037  1.5178  0.0367
 1745SOL    HW3 7054   0.888   1.856   3.047 -0.3566 -0.3896  0.7773
 1745SOL    MW4 7055   0.900   1.923   3.101  0.2344  0.1780 -0.0384
 1746SOL     OW 7056   1.139   2.039   2.981 -0.2998 -0.2547 -0.4546
 1746SOL    HW2 7057   1.055   2.005   3.011 -1.0698  1.4068 -0.6494
 1746SOL    HW3 7058   1.131   2.043   2.886  0.2788 -0.8014 -0.5278
 1746SOL    MW4 7059   1.127   2.035   2.972 -0.3252 -0.1075 -0.4897
 1747SOL     OW 7060   1.103   2.293   3.109  0.1545  0.2661 -0.3683
 1747SOL    HW2 7061   1.036   2.351   3.074  0.5617  1.4237  0.7135
 1747SOL    HW3 7062   1.074   2.205   3.086 -1.9381  0.7294  0.4295
 1747SOL    MW4 7063   1.091   2.289   3.101 -0.0678  0.4802 -0.1204
 1748SOL     OW 7064   0.909   2.474   3.025 -0.8513  0.1976  0.0012
 1748SOL    HW2 7065   0.831   2.420   3.039 -1.2117  0.5749 -0.5637
 1748SOL    HW3 7066   0.915   2.485   2.930 -1.1172  1.6479  0.1435
 1748SOL    MW4 7067   0.900   2.468   3.014 -0.9339  0.4389 -0.0546
 1749SOL     OW 7068   0.889   2.715   3.150  0.0169  0.0078  0.8450
 1749SOL    HW2 7069   0.893   2.690   3.242 -1.8334 -1.1812  0.6320
 1749SOL    HW3 7070   0.890   2.633   3.101  0.2883  0.5919 -0.1637
 1749SOL    MW4 7071   0.889   2.701   3.155 -0.1914 -0.0720  0.6838
 1750SOL     OW 7072   1.100   2.818   3.028  0.3866  0.0741  0.7574
 1750SOL    HW2 7073   1.099   2.908   3.059 -1.1732  0.5512 -0.6301
 1750SOL    HW3 7074   1.033   2.774   3.080 -0.5493  0.3031 -0.2433
 1750SOL    MW4 7075   1.091   2.824   3.039  0.0573  0.1674  0.4425
 1751SOL     OW 7076   1.121   3.071   3.111 -0.0045  0.1493  0.1010
 1751SOL    HW2 7077   1.188   3.106   3.053 -0.9048 -0.6022 -1.4367
 1751SOL    HW3 7078   1.043   3.123   3.092 -0.7664 -1.2223 -0.6367
 1751SOL    MW4 7079   1.119   3.083   3.101 -0.2239 -0.1307 -0.1991
 1752SOL     OW 7080   0.903   3.249   3.037  0.1165  0.4396 -0.0479
 1752SOL    HW2 7081   0.830   3.190   3.057  0.1446  0.5689  0.4427
 1752SOL    HW3 7082   0.908   3.250   2.942  1.1538 -1.6409 -0.0472
 1752SOL    MW4 7083   0.894   3.241   3.027  0.2571  0.1819  0.0167
 1753SOL     OW 7084   0.890   3.520   3.107  0.2772 -0.1864 -0.4996
 1753SOL    HW2 7085   0.969   3.554   3.065 -1.4820  1.1212 -2.8892
 1753SOL    HW3 7086   0.893   3.426   3.088  0.2112  0.1779 -2.4489
 1753SOL    MW4 7087   0.901   3.512   3.099  0.0364  0.0343 -1.0722
 1754SOL     OW 7088   1.128   3.634   3.003 -0.1404 -0.4077  0.0158
 1754SOL    HW2 7089   1.202   3.584   3.037 -0.3227 -1.1541 -0.6699
 1754SOL    HW3 7090   1.139   3.722   3.039  0.8594 -0.6277  0.2433
 1754SOL    MW4 7091   1.139   3.639   3.012 -0.0324 -0.5350 -0.0446
 1755SOL     OW 7092   1.138   3.875   3.143  0.2467  0.1297  0.4478
 1755SOL    HW2 7093   1.122   3.863   3.237  0.2754 -1.3218  0.2704
 1755SOL    HW3 7094   1.056   3.911   3.109  0.3152  0.8961  1.0612
 1755SOL    MW4 7095   1.125   3.879   3.151  0.2595  0.0393  0.5054
 1756SOL     OW 7096   0.924   3.975   3.021 -0.0264  0.0692 -0.0154
 1756SOL    HW2 7097   0.909   4.067   3.043 -0.5887  0.3564 -1.5503
 1756SOL    HW3 7098   0.909   3.970   2.927 -1.4106 -1.8875  0.2926
 1756SOL    MW4 7099   0.920   3.986   3.012 -0.2832 -0.1509 -0.1769
 1757SOL     OW 7100   0.901   4.243   3.081 -0.0128  0.4252 -0.0928
 1757SOL    HW2 7101   0.819   4.285   3.057  0.6616  2.3230  0.7812
 1757SOL    HW3 7102   0.969   4.304   3.051  0.9850  0.1867  1.5748
 1757SOL    MW4 7103   0.899   4.257   3.074  0.2078  0.6442  0.2425
 1758SOL     OW 7104   1.123   4.400   3.029 -0.2144  0.0187  0.2714
 1758SOL    HW2 7105   1.197   4.357   3.072  0.7063  0.6372 -0.6655
 1758SOL    HW3 7106   1.119   4.487   3.068 -1.4392 -0.5329  1.4324
 1758SOL    MW4 7107   1.132   4.406   3.040 -0.2546  0.0277  0.3009
 1759SOL     OW 7108   1.559   4.630   3.115 -0.6227  0.0306 -0.2823
 1759SOL    HW2 7109   1.573   4.615   3.209  0.1087  0.5114 -0.3070
 1759SOL    HW3 7110   1.487   4.692   3.112 -1.8923 -1.4255 -0.1010
 1759SOL    MW4 7111   1.552   4.636   3.127 -0.6938 -0.0982 -0.2615
 1760SOL     OW 7112   1.342   0.128   3.076 -0.1772  0.5842  0.5992
 1760SOL    HW2 7113   1.347   0.219   3.105 -0.3552  0.7320  0.1663
 1760SOL    HW3 7114   1.338   0.133   2.981 -0.3985  0.1329  0.5822
 1760SOL    MW4 7115   1.342   0.141   3.068 -0.2300  0.5442  0.5395
 1761SOL     OW 7116   1.343   0.394   3.100 -0.2252 -0.2280 -0.4405
 1761SOL    HW2 7117   1.351   0.400   3.195  0.8217 -2.2814 -0.3751
 1761SOL    HW3 7118   1.426   0.426   3.067 -0.6446  0.6235 -0.6721
 1761SOL    MW4 7119   1.355   0.399   3.108 -0.1425 -0.3866 -0.4625
 1762SOL     OW 7120   1.585   0.533   2.990  0.2404  0.1892 -0.5760
 1762SOL    HW2 7121   1.597   0.628   2.991  0.4654  0.1597  0.3794
 1762SOL    HW3 7122   1.599   0.508   2.899 -0.3061  1.1339 -0.9283
 1762SOL    MW4 7123   1.589   0.543   2.978  0.1980  0.3100 -0.4964
 1763SOL     OW 7124   1.588   0.800   3.082 -0.4532 -0.0627 -0.0934
 1763SOL    HW2 7125   1.569   0.780   3.174  0.9630 -0.2201  0.1742
 1763SOL    HW3 7126   1.509   0.845   3.050 -1.3997 -1.0022  0.8810
 1763SOL    MW4 7127   1.575   0.803   3.090 -0.3911 -0.2074  0.0703
 1764SOL     OW 7128   1.341   0.934   3.006  0.2836  0.2699  0.1514
 1764SOL    HW2 7129   1.327   1.020   3.047 -1.5944  1.0963 -2.1339
 1764SOL    HW3 7130   1.264   0.883   3.033  0.6292 -0.2120  0.2277
 1764SOL    MW4 7131   1.329   0.939   3.015  0.0814  0.3153 -0.1402
 1765SOL     OW 7132   1.337   1.184   3.084  0.0132  0.0008 -0.1707
 1765SOL    HW2 7133   1.337   1.176   3.179  1.0475 -0.6093 -0.2181
 1765SOL    HW3 7134   1.426   1.209   3.062 -0.1458 -0.1686 -1.0085
 1765SOL    MW4 7135   1.348   1.186   3.094  0.1286 -0.1019 -0.2875
 1766SOL     OW 7136   1.587   1.286   2.997 -0.2622 -0.3747  0.6464
 1766SOL    HW2 7137   1.667   1.243   3.027  1.5141  0.5466 -2.4671
 1766SOL    HW3 7138   1.594   1.376   3.029  0.9557  0.2330 -1.2308
 1766SOL    MW4 7139   1.599   1.292   3.005  0.1328 -0.1729 -0.0119
 1767SOL     OW 7140   1.594   1.560   3.105 -0.1156  0.0855 -0.2876
 1767SOL    HW2 7141   1.654   1.629   3.075 -1.0365  1.3492  0.7137
 1767SOL    HW3 7142   1.508   1.588   3.074 -0.5667 -0.3763  0.5212
 1767SOL    MW4 7143   1.591   1.573   3.097 -0.2966  0.1913 -0.0484
 1768SOL     OW 7144   1.342   1.653   3.010  0.0949 -0.5336 -0.5127
 1768SOL    HW2 7145   1.333   1.744   3.036  0.1211 -0.3967 -0.9900
 1768SOL    HW3 7146   1.347   1.655   2.914 -0.7123 -1.0963 -0.5787
 1768SOL    MW4 7147   1.341   1.665   3.001 -0.0082 -0.5896 -0.5844
 1769SOL     OW 7148   1.371   1.921   3.085 -0.3119 -0.6372  0.2672
 1769SOL    HW2 7149   1.381   1.927   3.180  0.3243 -0.6311  0.2019
 1769SOL    HW3 7150   1.292   1.971   3.066 -0.2643 -0.3757  0.7597
 1769SOL    MW4 7151   1.362   1.928   3.095 -0.2217 -0.6020  0.3238
 1770SOL     OW 7152   1.589   2.088   2.988  0.2076 -0.1622  0.0707
 1770SOL    HW2 7153   1.508   2.046   3.016 -0.0119  0.3517  0.2051
 1770SOL    HW3 7154   1.587   2.083   2.893 -0.3063  0.4619  0.0476
 1770SOL    MW4 7155   1.578   2.082   2.979  0.1109 -0.0122  0.0854
 1771SOL     OW 7156   1.589   2.342   3.105  0.8187  0.0121 -0.3797
 1771SOL    HW2 7157   1.500   2.366   3.077  0.6407  0.5292  0.6329
 1771SOL    HW3 7158   1.600   2.253   3.071 -1.6436 -1.6873  2.9363
 1771SOL    MW4 7159   1.578   2.333   3.097  0.4704 -0.1440  0.1912
 1772SOL     OW 7160   1.338   2.423   3.023  0.2208 -0.1044 -0.3838
 1772SOL    HW2 7161   1.263   2.367   3.043  1.8607 -2.4819 -0.7976
 1772SOL    HW3 7162   1.329   2.444   2.930  0.2423 -0.6941 -0.5229
 1772SOL    MW4 7163   1.327   2.419   3.014  0.4401 -0.4959 -0.4568
 1773SOL     OW 7164   1.325   2.669   3.149 -0.2920  0.3379 -0.5370
 1773SOL    HW2 7165   1.336   2.594   3.092 -0.7279  0.3473 -0.6356
 1773SOL    HW3 7166   1.256   2.721   3.108 -0.7875  0.2179  0.1226
 1773SOL    MW4 7167   1.317   2.666   3.136 -0.4147  0.3233 -0.4632
 1774SOL     OW 7168   1.545   2.797   3.027  0.3178 -0.3540 -0.0877
 1774SOL    HW2 7169   1.628   2.783   3.071  0.0069 -1.4954  0.1627
 1774SOL    HW3 7170   1.481   2.748   3.079 -0.2409 -0.7845 -1.1388
 1774SOL    MW4 7171   1.547   2.788   3.039  0.2030 -0.5615 -0.1934
 1775SOL     OW 7172   1.577   3.059   3.072 -0.2783 -0.2277 -0.0729
 1775SOL    HW2 7173   1.590   3.056   3.167  2.0294 -0.0168 -0.3420
 1775SOL    HW3 7174   1.546   2.971   3.049 -0.5224 -0.3857  0.8409
 1775SOL    MW4 7175   1.575   3.047   3.081 -0.0061 -0.2205  0.0124
 1776SOL     OW 7176   1.352   3.205   2.996 -0.2215  0.1774 -0.5768
 1776SOL    HW2 7177   1.433   3.164   3.028 -0.5953 -0.5713 -0.5724
 1776SOL    HW3 7178   1.366   3.214   2.902  0.7289  2.0376 -0.2843
 1776SOL    MW4 7179   1.365   3.201   2.988 -0.1453  0.3240 -0.5379
 1777SOL     OW 7180   1.337   3.456   3.120  0.5618  0.7725  0.0876
 1777SOL    HW2 7181   1.346   3.424   3.209 -1.1315 -0.5325 -0.1638
 1777SOL    HW3 7182   1.351   3.378   3.065 -1.8624  0.7549 -0.6043
 1777SOL    MW4 7183   1.340   3.441   3.124  0.0185  0.5980 -0.0370
 1778SOL     OW 7184   1.551   3.597   3.025 -0.1791 -0.0764  0.0020
 1778SOL    HW2 7185   1.479   3.548   3.065 -0.5575  0.0328 -0.5372
 1778SOL    HW3 7186   1.539   3.584   2.931 -1.3958  2.5677 -0.2468
 1778SOL    MW4 7187   1.540   3.589   3.018 -0.3895  0.2868 -0.1018
 1779SOL     OW 7188   1.549   3.866   3.119 -0.3249  0.0149  0.1491
 1779SOL    HW2 7189   1.616   3.913   3.068 -1.5441  0.4329 -1.0962
 1779SOL    HW3 7190   1.543   3.780   3.078  0.2377 -0.4119  0.9597
 1779SOL    MW4 7191   1.557   3.861   3.107 -0.4115  0.0136  0.0916
 1780SOL     OW 7192   1.340   3.990   3.002 -0.6355  0.0211 -0.6193
 1780SOL    HW2 7193   1.410   3.942   3.046 -0.2338 -1.0308 -2.3519
 1780SOL    HW3 7194   1.260   3.957   3.041 -0.2398  0.1216  0.2971
 1780SOL    MW4 7195   1.339   3.979   3.013 -0.5305 -0.1044 -0.7269
 1781SOL     OW 7196   1.348   4.236   3.138  0.1946  0.6350 -0.2361
 1781SOL    HW2 7197   1.419   4.289   3.101  1.3991 -0.0998  0.9654
 1781SOL    HW3 7198   1.350   4.154   3.089  0.5713  0.3906  0.1772
 1781SOL    MW4 7199   1.357   4.232   3.127  0.4032  0.5054 -0.0231
 1782SOL     OW 7200   1.537   4.384   3.015  0.6453 -0.1213  0.3638
 1782SOL    HW2 7201   1.620   4.346   3.042  1.0996 -0.0650 -0.9204
 1782SOL    HW3 7202   1.544   4.477   3.037  0.8319 -0.1542  0.4490
 1782SOL    MW4 7203   1.549   4.391   3.022  0.7299 -0.1183  0.2055
 1783SOL     OW 7204   1.970   4.637   3.098  0.1808 -0.1276  0.1835
 1783SOL    HW2 7205   1.975   4.636   3.194 -1.4837 -0.4287  0.2814
 1783SOL    HW3 7206   1.893   4.690   3.079  0.0221 -0.7654 -0.9731
 1783SOL    MW4 7207   1.960   4.644   3.108 -0.0596 -0.2522  0.0439
 1784SOL     OW 7208   1.757   0.144   3.026  0.1885  0.4988 -0.4857
 1784SOL    HW2 7209   1.689   0.094   3.072  2.0668 -1.2842  0.4481
 1784SOL    HW3 7210   1.739   0.128   2.933  0.1203 -1.1102 -0.2240
 1784SOL    MW4 7211   1.746   0.135   3.019  0.4272  0.0512 -0.3283
 1785SOL     OW 7212   1.758   0.403   3.137  0.6936  0.0347  0.3207
 1785SOL    HW2 7213   1.736   0.316   3.101  0.9583  0.2070 -0.2679
 1785SOL    HW3 7214   1.710   0.464   3.081  1.0136  0.3027  0.3408
 1785SOL    MW4 7215   1.748   0.399   3.124  0.7708  0.0928  0.2458
 1786SOL     OW 7216   2.008   0.503   3.017 -0.1971  0.2291 -0.2515
 1786SOL    HW2 7217   1.932   0.457   3.054 -0.2906  0.5850  0.0017
 1786SOL    HW3 7218   2.006   0.481   2.924  0.4465 -1.2457  0.0706
 1786SOL    MW4 7219   1.998   0.494   3.010 -0.1245  0.0815 -0.1755
 1787SOL     OW 7220   2.064   0.778   3.111 -0.1410  0.5164  0.2162
 1787SOL    HW2 7221   1.989   0.817   3.067  0.8466 -0.5412 -2.5449
 1787SOL    HW3 7222   2.049   0.683   3.105  0.2420  0.3411  1.7991
 1787SOL    MW4 7223   2.052   0.770   3.104  0.0398  0.3538  0.0608
 1788SOL     OW 7224   1.844   0.902   3.021  0.2316  0.3955 -0.2843
 1788SOL    HW2 7225   1.762   0.864   3.052  0.2822  1.3648  1.1271
 1788SOL    HW3 7226   1.833   0.910   2.926 -0.7241 -0.8216 -0.2903
 1788SOL    MW4 7227   1.832   0.898   3.013  0.1122  0.3628 -0.0989
 1789SOL     OW 7228   1.814   1.172   3.133 -0.2034  0.0533 -0.0157
 1789SOL    HW2 7229   1.810   1.158   3.227 -0.3248  0.1573 -0.0044
 1789SOL    HW3 7230   1.838   1.087   3.096 -0.8263 -0.1605  0.0571
 1789SOL    MW4 7231   1.816   1.159   3.140 -0.3016  0.0387 -0.0043
 1790SOL     OW 7232   2.029   1.283   2.997  0.0217  0.3079  0.1287
 1790SOL    HW2 7233   2.109   1.238   3.027  0.9671  0.1255 -2.5482
 1790SOL    HW3 7234   1.960   1.245   3.051  1.5876 -0.2810  1.8037
 1790SOL    MW4 7235   2.031   1.272   3.008  0.3536  0.2061 -0.0033
 1791SOL     OW 7236   1.974   1.535   3.149  0.3226  0.2245  0.2795
 1791SOL    HW2 7237   1.997   1.532   3.242  1.0292 -1.1544  0.0742
 1791SOL    HW3 7238   1.969   1.443   3.123  2.7905  0.6030 -1.6969
 1791SOL    MW4 7239   1.976   1.522   3.158  0.7414  0.0925 -0.0083
 1792SOL     OW 7240   1.806   1.734   3.027 -0.2565 -0.0881 -0.4437
 1792SOL    HW2 7241   1.803   1.819   3.070 -2.8557 -0.9685  1.2640
 1792SOL    HW3 7242   1.857   1.679   3.088  0.5543 -0.0241 -1.0556
 1792SOL    MW4 7243   1.813   1.738   3.041 -0.4923 -0.1959 -0.2995
 1793SOL     OW 7244   1.801   1.982   3.140 -0.4637  0.3288 -1.2408
 1793SOL    HW2 7245   1.879   2.023   3.104 -0.6873  2.1668  0.2954
 1793SOL    HW3 7246   1.729   2.022   3.092 -0.5186 -1.0691 -2.3725
 1793SOL    MW4 7247   1.802   1.992   3.129 -0.5004  0.3870 -1.1876
 1794SOL     OW 7248   2.025   2.073   2.989 -0.0968  0.0029 -0.0135
 1794SOL    HW2 7249   2.082   2.016   3.041  1.6600  1.7832  0.0533
 1794SOL    HW3 7250   2.030   2.158   3.033  1.0740  1.4293 -2.8084
 1794SOL    MW4 7251   2.033   2.077   3.002  0.2897  0.4258 -0.3736
 1795SOL     OW 7252   2.019   2.324   3.135  0.0993  0.2122 -0.0767
 1795SOL    HW2 7253   2.089   2.351   3.077 -0.8282  1.4081 -0.6721
 1795SOL    HW3 7254   1.942   2.372   3.104 -1.0574 -1.3156  0.3610
 1795SOL    MW4 7255   2.018   2.334   3.123 -0.1757  0.1686 -0.0975
 1796SOL     OW 7256   1.817   2.466   3.017  0.6528  0.3317  0.4771
 1796SOL    HW2 7257   1.816   2.559   3.038  0.6072  0.4911 -0.2168
 1796SOL    HW3 7258   1.730   2.434   3.041  0.3513  0.6685 -0.1530
 1796SOL    MW4 7259   1.805   2.474   3.023  0.6069  0.3974  0.3026
 1797SOL     OW 7260   1.801   2.721   3.127  0.3840 -0.3916  0.1080
 1797SOL    HW2 7261   1.811   2.693   3.218  0.2547 -1.2146 -0.1233
 1797SOL    HW3 7262   1.889   2.745   3.100  0.5938 -1.0892  0.1555
 1797SOL    MW4 7263   1.814   2.720   3.136  0.3945 -0.5925  0.0837
 1798SOL     OW 7264   2.040   2.811   2.992 -0.2890 -0.5215 -0.4118
 1798SOL    HW2 7265   2.032   2.905   3.008 -2.9727 -0.8110  0.2072
 1798SOL    HW3 7266   2.049   2.803   2.897 -1.9717  0.3027 -0.6733
 1798SOL    MW4 7267   2.040   2.822   2.982 -0.8650 -0.4511 -0.3645
 1799SOL     OW 7268   2.012   3.081   3.080 -0.0782 -0.0678 -0.0642
 1799SOL    HW2 7269   2.001   3.079   3.175  0.3091  0.1915 -0.0119
 1799SOL    HW3 7270   1.939   3.133   3.048 -1.3933 -1.8831 -0.0888
 1799SOL    MW4 7271   2.001   3.087   3.088 -0.2007 -0.2732 -0.0606
 1800SOL     OW 7272   1.787   3.234   2.976 -0.5947  0.1210  0.5392
 1800SOL    HW2 7273   1.719   3.167   2.982 -1.9827  1.4664 -0.0005
 1800SOL    HW3 7274   1.807   3.240   2.883  0.8497 -0.8419  0.7806
 1800SOL    MW4 7275   1.781   3.226   2.964 -0.5875  0.1714  0.4997
 1801SOL     OW 7276   1.804   3.485   3.089 -0.2343  0.2500  0.9079
 1801SOL    HW2 7277   1.791   3.397   3.054 -0.7356  0.3261  0.8982
 1801SOL    HW3 7278   1.727   3.534   3.061  0.2978  0.8356  0.4683
 1801SOL    MW4 7279   1.792   3.479   3.081 -0.2302  0.3376  0.8485
 1802SOL     OW 7280   2.067   3.606   3.044  0.1772  0.4453 -0.5478
 1802SOL    HW2 7281   1.988   3.570   3.084  0.7773  0.3010  0.5115
 1802SOL    HW3 7282   2.137   3.549   3.074  0.8958  1.4809 -0.2434
 1802SOL    MW4 7283   2.066   3.594   3.053  0.3512  0.5627 -0.3679
 1803SOL     OW 7284   1.995   3.874   3.074 -0.3890 -0.6639  0.3349
 1803SOL    HW2 7285   2.005   3.887   3.169  1.5069 -0.9686  0.1887
 1803SOL    HW3 7286   2.018   3.783   3.060 -0.1045 -0.4631 -0.5109
 1803SOL    MW4 7287   1.999   3.864   3.085 -0.1013 -0.6776  0.2041
 1804SOL     OW 7288   1.761   3.974   2.963  0.0969  0.1015 -0.1473
 1804SOL    HW2 7289   1.754   4.062   2.999  1.8869  0.2800 -0.2140
 1804SOL    HW3 7290   1.834   3.934   3.010 -2.6240 -2.4359  2.0958
 1804SOL    MW4 7291   1.770   3.980   2.974 -0.0259 -0.2096  0.1400
 1805SOL     OW 7292   1.762   4.257   3.077  0.1728  0.1543 -0.4684
 1805SOL    HW2 7293   1.846   4.289   3.045  2.1384 -3.4366  0.7785
 1805SOL    HW3 7294   1.772   4.255   3.172 -1.7883  0.8652 -0.2350
 1805SOL    MW4 7295   1.775   4.261   3.085  0.1734 -0.2251 -0.2730
 1806SOL     OW 7296   2.003   4.376   3.004 -0.0211  0.1605 -0.3056
 1806SOL    HW2 7297   1.989   4.466   3.033  0.9469  0.2638 -0.1403
 1806SOL    HW3 7298   1.996   4.381   2.908 -4.0869 -0.3405 -0.1102
 1806SOL    MW4 7299   2.000   4.389   2.995 -0.4299  0.1082 -0.2582
 1807SOL     OW 7300   2.440   4.627   3.154  0.0139  0.4313 -0.2175
 1807SOL    HW2 7301   2.434   4.541   3.113 -0.6517  0.8216 -0.9724
 1807SOL    HW3 7302   2.379   4.681   3.104  0.0850  1.2248  0.5437
 1807SOL    MW4 7303   2.431   4.623   3.142 -0.0641  0.5870 -0.2165
 1808SOL     OW 7304   2.214   0.092   3.023  0.5229  0.0312 -0.0126
 1808SOL    HW2 7305   2.210   0.179   3.062 -1.7904 -0.1505  0.2324
 1808SOL    HW3 7306   2.138   0.046   3.060  0.9371 -1.6440 -1.1943
 1808SOL    MW4 7307   2.203   0.097   3.033  0.2723 -0.2138 -0.1361
 1809SOL     OW 7308   2.226   0.349   3.110  0.3840 -0.0073  0.0510
 1809SOL    HW2 7309   2.217   0.360   3.204  1.1255 -0.4192  0.1754
 1809SOL    HW3 7310   2.155   0.401   3.072 -1.6676 -2.0864  0.9229
 1809SOL    MW4 7311   2.216   0.357   3.117  0.2112 -0.3360  0.1824
 1810SOL     OW 7312   2.431   0.512   3.025 -0.2263 -0.2581  0.0437
 1810SOL    HW2 7313   2.362   0.450   3.045 -0.1728 -1.1735 -2.4236
 1810SOL    HW3 7314   2.435   0.514   2.929  1.2834  1.8691  0.0999
 1810SOL    MW4 7315   2.423   0.504   3.015 -0.0198 -0.0982 -0.2742
 1811SOL     OW 7316   2.486   0.760   3.138  0.3993  0.4101  0.6379
 1811SOL    HW2 7317   2.562   0.799   3.096 -0.1172 -0.4063 -1.1057
 1811SOL    HW3 7318   2.473   0.677   3.092 -2.2062  1.0462  0.1539
 1811SOL    MW4 7319   2.494   0.754   3.126 -0.0126  0.3863  0.3443
 1812SOL     OW 7320   2.287   0.879   2.977  0.2706  0.2193 -0.3048
 1812SOL    HW2 7321   2.355   0.844   3.035  0.1154  0.4929  0.0484
 1812SOL    HW3 7322   2.205   0.852   3.018  0.1654  0.1832 -0.5437
 1812SOL    MW4 7323   2.285   0.871   2.990  0.2363  0.2506 -0.2897
 1813SOL     OW 7324   2.220   1.115   3.108 -0.2563 -0.1731  0.0501
 1813SOL    HW2 7325   2.222   1.108   3.203 -0.6945  0.6633  0.1294
 1813SOL    HW3 7326   2.243   1.028   3.076 -0.1183 -0.4541  0.9211
 1813SOL    MW4 7327   2.223   1.103   3.116 -0.2959 -0.0999  0.1755
 1814SOL     OW 7328   2.428   1.272   3.015 -0.4399  0.2007  0.0773
 1814SOL    HW2 7329   2.355   1.214   3.035  2.1953 -3.4934 -0.6568
 1814SOL    HW3 7330   2.432   1.274   2.920  0.1405  0.7981  0.1101
 1814SOL    MW4 7331   2.419   1.265   3.005 -0.0160 -0.2078 -0.0153
 1815SOL     OW 7332   2.432   1.525   3.130 -0.2074  0.0178 -0.0312
 1815SOL    HW2 7333   2.348   1.567   3.110 -0.1313  0.4637  0.5876
 1815SOL    HW3 7334   2.417   1.432   3.111 -1.1926 -0.0892  1.1820
 1815SOL    MW4 7335   2.419   1.518   3.125 -0.3276  0.0625  0.2105
 1816SOL     OW 7336   2.190   1.642   3.028  0.0423 -0.1646  0.0935
 1816SOL    HW2 7337   2.118   1.597   3.072 -1.2770 -0.0640 -1.8663
 1816SOL    HW3 7338   2.170   1.632   2.934  3.5812 -1.7974 -0.5676
 1816SOL    MW4 7339   2.178   1.635   3.021  0.3350 -0.3667 -0.2520
 1817SOL     OW 7340   2.196   1.901   3.112  0.3393 -0.0019 -0.3447
 1817SOL    HW2 7341   2.288   1.926   3.106  0.5049  0.0664  2.0299
 1817SOL    HW3 7342   2.192   1.814   3.072  1.2798  0.3189 -1.1586
 1817SOL    MW4 7343   2.207   1.893   3.106  0.4849  0.0494 -0.1385
 1818SOL     OW 7344   2.433   1.993   3.044 -0.1472 -0.3278  0.0510
 1818SOL    HW2 7345   2.517   1.972   3.084 -0.1734  0.0820  0.3256
 1818SOL    HW3 7346   2.452   1.997   2.950  0.4719  1.2624  0.2260
 1818SOL    MW4 7347   2.447   1.991   3.037 -0.0691 -0.0639  0.1104
 1819SOL     OW 7348   2.485   2.271   3.077  0.2771 -0.4174 -0.2123
 1819SOL    HW2 7349   2.482   2.279   3.172  0.2449  0.1818 -0.2661
 1819SOL    HW3 7350   2.479   2.176   3.061 -0.0744 -0.4939  0.3620
 1819SOL    MW4 7351   2.484   2.259   3.087  0.2267 -0.3486 -0.1435
 1820SOL     OW 7352   2.255   2.388   3.009 -0.0092 -0.2645  0.3514
 1820SOL    HW2 7353   2.257   2.481   3.028 -2.2592 -0.2716  0.7247
 1820SOL    HW3 7354   2.345   2.358   3.024  1.4515  2.3451 -2.6148
 1820SOL    MW4 7355   2.267   2.396   3.013 -0.1132  0.0789  0.0093
 1821SOL     OW 7356   2.260   2.667   3.077  0.0664  0.6791  0.0110
 1821SOL    HW2 7357   2.338   2.716   3.051  0.5508 -0.1401 -0.1238
 1821SOL    HW3 7358   2.187   2.716   3.040  0.6146  0.6466 -1.1389
 1821SOL    MW4 7359   2.261   2.680   3.069  0.2024  0.5667 -0.1583
 1822SOL     OW 7360   2.490   2.819   2.984  0.3972 -0.1485 -0.1053
 1822SOL    HW2 7361   2.567   2.766   3.007 -0.2515 -1.0063  0.1036
 1822SOL    HW3 7362   2.491   2.821   2.888 -0.7249 -2.2563 -0.1739
 1822SOL    MW4 7363   2.501   2.812   2.974  0.1636 -0.5398 -0.0868
 1823SOL     OW 7364   2.459   3.067   3.091  0.3470 -0.0307 -0.3249
 1823SOL    HW2 7365   2.468   2.979   3.054  0.0498  0.4264 -1.5178
 1823SOL    HW3 7366   2.543   3.110   3.073  0.9214 -0.4499  1.3099
 1823SOL    MW4 7367   2.471   3.061   3.084  0.3836 -0.0255 -0.2666
 1824SOL     OW 7368   2.234   3.213   2.985  0.3788  0.1682 -0.3439
 1824SOL    HW2 7369   2.309   3.158   3.007  0.8776  0.5340 -1.1003
 1824SOL    HW3 7370   2.159   3.165   3.018  1.0769  0.6321  2.0264
 1824SOL    MW4 7371   2.234   3.199   2.993  0.5369  0.2773 -0.1309
 1825SOL     OW 7372   2.264   3.454   3.115 -0.3252 -0.2169 -0.2562
 1825SOL    HW2 7373   2.257   3.366   3.079 -0.3742 -0.7177  0.9407
 1825SOL    HW3 7374   2.299   3.441   3.203  1.6322  1.1191 -0.8116
 1825SOL    MW4 7375   2.268   3.441   3.122 -0.0734 -0.1066 -0.1714
 1826SOL     OW 7376   2.486   3.578   3.013 -0.1125 -0.1441 -0.5709
 1826SOL    HW2 7377   2.412   3.530   3.051 -0.5466  1.6355  0.9035
 1826SOL    HW3 7378   2.560   3.519   3.023 -0.6934 -0.6339  0.9574
 1826SOL    MW4 7379   2.486   3.564   3.019 -0.2463  0.0257 -0.1748
 1827SOL     OW 7380   2.452   3.845   3.066 -0.6212 -0.1722 -0.0452
 1827SOL    HW2 7381   2.451   3.856   3.161 -1.2993  0.3999 -0.1098
 1827SOL    HW3 7382   2.458   3.750   3.053 -0.2165 -0.2320  0.5670
 1827SOL    MW4 7383   2.452   3.834   3.077 -0.6571 -0.1047  0.0272
 1828SOL     OW 7384   2.234   4.006   3.009 -0.1688 -0.1414 -0.1751
 1828SOL    HW2 7385   2.311   3.953   3.030 -0.5274 -1.6274 -2.4258
 1828SOL    HW3 7386   2.159   3.951   3.034 -0.5836  2.0343  3.7747
 1828SOL    MW4 7387   2.234   3.991   3.015 -0.2711 -0.0505  0.0491
 1829SOL     OW 7388   2.223   4.274   3.108 -0.2298  0.3591  0.4992
 1829SOL    HW2 7389   2.221   4.180   3.090  0.2070  0.2542  1.0179
 1829SOL    HW3 7390   2.140   4.307   3.071 -0.0950 -0.1215 -0.2423
 1829SOL    MW4 7391   2.211   4.266   3.101 -0.1543  0.2818  0.4699
 1830SOL     OW 7392   2.445   4.391   2.989  0.1578 -0.2331  0.0071
 1830SOL    HW2 7393   2.373   4.332   3.013 -1.3536  1.3290 -0.5870
 1830SOL    HW3 7394   2.430   4.411   2.897  1.1714  0.3798 -0.0253
 1830SOL    MW4 7395   2.434   4.386   2.980  0.0923  0.0544 -0.0756
 1831SOL     OW 7396   2.874   4.645   3.067  0.2745 -0.1531  0.7421
 1831SOL    HW2 7397   2.960   4.682   3.049 -0.3397  0.4204 -1.1445
 1831SOL    HW3 7398   2.879   4.555   3.034 -0.1376  0.1759 -0.2244
 1831SOL    MW4 7399   2.886   4.638   3.060  0.1390 -0.0339  0.3655
 1832SOL     OW 7400   2.640   0.098   3.000  0.2333  0.3902  0.5766
 1832SOL    HW2 7401   2.720   0.056   3.031  0.1445 -0.3628 -0.1869
 1832SOL    HW3 7402   2.570   0.061   3.054  0.1969 -0.2248  0.1216
 1832SOL    MW4 7403   2.641   0.088   3.011  0.2170  0.2097  0.4158
 1833SOL     OW 7404   2.670   0.380   3.084 -0.5763 -0.0233 -0.0664
 1833SOL    HW2 7405   2.658   0.290   3.054 -0.6084  0.9942 -3.2901
 1833SOL    HW3 7406   2.585   0.422   3.067 -0.2121  0.8909  0.3521
 1833SOL    MW4 7407   2.657   0.373   3.078 -0.5324  0.2316 -0.4365
 1834SOL     OW 7408   2.922   0.500   3.044 -0.0621 -0.1707 -0.1259
 1834SOL    HW2 7409   2.843   0.448   3.057 -0.7096  0.6120 -0.8608
 1834SOL    HW3 7410   2.916   0.531   2.954  0.9762  0.0760 -0.1123
 1834SOL    MW4 7411   2.911   0.498   3.034 -0.0107 -0.0349 -0.2210
 1835SOL     OW 7412   2.885   0.769   3.142 -0.0268 -0.2657  0.3666
 1835SOL    HW2 7413   2.889   0.768   3.238 -0.1377 -1.0285  0.3639
 1835SOL    HW3 7414   2.892   0.677   3.116  0.0529 -0.0581 -0.3610
 1835SOL    MW4 7415   2.886   0.757   3.151 -0.0310 -0.3390  0.2699
 1836SOL     OW 7416   2.693   0.902   3.000  0.1146  0.2824 -0.1343
 1836SOL    HW2 7417   2.696   0.992   3.033  0.0098  0.3238 -0.2362
 1836SOL    HW3 7418   2.762   0.856   3.048  1.2804  0.8220 -1.2715
 1836SOL    MW4 7419   2.703   0.908   3.011  0.2546  0.3591 -0.2978
 1837SOL     OW 7420   2.672   1.163   3.133  0.0530  0.1785  0.0869
 1837SOL    HW2 7421   2.739   1.219   3.095 -0.2502  1.0015  0.7320
 1837SOL    HW3 7422   2.590   1.196   3.096 -0.1212  0.1289  0.4258
 1837SOL    MW4 7423   2.670   1.175   3.123 -0.0100  0.2805  0.2167
 1838SOL     OW 7424   2.881   1.311   3.043 -0.0548 -0.0048  0.2333
 1838SOL    HW2 7425   2.962   1.274   3.078  0.0712 -0.2759 -0.3402
 1838SOL    HW3 7426   2.886   1.405   3.064  0.7961  0.1282 -0.5317
 1838SOL    MW4 7427   2.892   1.319   3.050  0.0741 -0.0230  0.0567
 1839SOL     OW 7428   2.854   1.571   3.097  0.5314 -0.1592  0.0399
 1839SOL    HW2 7429   2.845   1.570   3.192  0.4793  0.7940  0.0473
 1839SOL    HW3 7430   2.942   1.604   3.081 -0.1316  1.5167 -0.2689
 1839SOL    MW4 7431   2.864   1.575   3.108  0.4373  0.1876  0.0002
 1840SOL     OW 7432   2.625   1.697   3.033 -0.0832  0.4208 -0.6567
 1840SOL    HW2 7433   2.707   1.655   3.058 -0.1606  0.1522 -0.8386
 1840SOL    HW3 7434   2.557   1.640   3.068 -0.1966  1.2436  0.4653
 1840SOL    MW4 7435   2.627   1.684   3.041 -0.1085  0.4940 -0.5329
 1841SOL     OW 7436   2.667   1.915   3.184  0.0732 -0.0168  0.0661
 1841SOL    HW2 7437   2.656   1.831   3.138  2.6312 -0.1551 -0.3863
 1841SOL    HW3 7438   2.659   1.892   3.276  0.9519 -0.8243 -0.0430
 1841SOL    MW4 7439   2.664   1.901   3.190  0.5264 -0.1416 -0.0079
 1842SOL     OW 7440   2.899   2.033   3.061 -0.0788  0.0852 -0.1733
 1842SOL    HW2 7441   2.826   1.980   3.093  0.1135 -0.3425 -0.4327
 1842SOL    HW3 7442   2.977   1.989   3.093  0.0529  0.9446  0.7128
 1842SOL    MW4 7443   2.900   2.020   3.069 -0.0360  0.1421 -0.0911
 1843SOL     OW 7444   2.919   2.319   3.124  0.3775 -0.2100  0.0623
 1843SOL    HW2 7445   3.002   2.359   3.098  0.1519  0.2503  0.0316
 1843SOL    HW3 7446   2.919   2.233   3.082  0.6551 -0.0419 -0.2836
 1843SOL    MW4 7447   2.930   2.313   3.115  0.3843 -0.1271  0.0124
 1844SOL     OW 7448   2.700   2.432   2.998  0.5338 -0.6102  0.2624
 1844SOL    HW2 7449   2.770   2.401   3.056 -0.9932 -1.4703  1.6752
 1844SOL    HW3 7450   2.624   2.378   3.020 -0.3811 -0.2028 -1.7920
 1844SOL    MW4 7451   2.699   2.421   3.009  0.2117 -0.6700  0.1776
 1845SOL     OW 7452   2.700   2.689   3.090 -0.2074  0.0802 -0.5804
 1845SOL    HW2 7453   2.709   2.679   3.185 -1.6370 -0.2111 -0.4655
 1845SOL    HW3 7454   2.692   2.599   3.058  1.3847  0.1187 -1.1002
 1845SOL    MW4 7455   2.700   2.676   3.098 -0.1860  0.0467 -0.6335
 1846SOL     OW 7456   2.933   2.807   2.999 -0.1272  0.1128 -0.6518
 1846SOL    HW2 7457   3.002   2.760   3.046 -0.0305  0.8203 -0.0731
 1846SOL    HW3 7458   2.853   2.760   3.022 -0.0720  0.4114  0.1748
 1846SOL    MW4 7459   2.932   2.795   3.008 -0.1070  0.2458 -0.4663
 1847SOL     OW 7460   2.957   3.085   3.077  0.2547  0.3214  0.3325
 1847SOL    HW2 7461   2.871   3.101   3.039  0.0762  1.9112  1.3625
 1847SOL    HW3 7462   2.973   2.992   3.062 -2.1636 -0.2756  1.1653
 1847SOL    MW4 7463   2.948   3.075   3.070 -0.0877  0.4525  0.5782
 1848SOL     OW 7464   2.698   3.167   3.011 -0.2663  0.3032  0.0313
 1848SOL    HW2 7465   2.699   3.258   3.041  0.3434  0.5810 -0.8168
 1848SOL    HW3 7466   2.686   3.173   2.916 -0.6703 -0.5213  0.0212
 1848SOL    MW4 7467   2.696   3.180   3.002 -0.2391  0.2310 -0.0820
 1849SOL     OW 7468   2.702   3.422   3.088 -0.2403  0.4958  0.3060
 1849SOL    HW2 7469   2.707   3.437   3.183  0.8276  0.3611  0.2709
 1849SOL    HW3 7470   2.762   3.486   3.051 -1.8002  1.5946 -0.4024
 1849SOL    MW4 7471   2.710   3.433   3.096 -0.3052  0.6230  0.2079
 1850SOL     OW 7472   2.885   3.591   2.972 -0.1642 -0.1279 -0.2796
 1850SOL    HW2 7473   2.969   3.571   3.013 -0.0681 -0.9951 -0.8801
 1850SOL    HW3 7474   2.870   3.684   2.992  0.6475 -0.1232  0.3334
 1850SOL    MW4 7475   2.894   3.601   2.980 -0.0441 -0.2418 -0.2780
 1851SOL     OW 7476   2.922   3.856   3.020 -0.3502 -0.4994  0.2704
 1851SOL    HW2 7477   2.932   3.851   3.115 -2.6336 -0.9808  0.5082
 1851SOL    HW3 7478   2.846   3.912   3.007  1.1602  1.2185 -1.3588
 1851SOL    MW4 7479   2.913   3.863   3.031 -0.4520 -0.3364  0.0868
 1852SOL     OW 7480   2.680   3.993   2.985  0.4444  0.1069 -0.0235
 1852SOL    HW2 7481   2.663   4.083   3.014  0.1242  0.1855 -0.4527
 1852SOL    HW3 7482   2.607   3.943   3.020  0.0382  0.2086 -0.7170
 1852SOL    MW4 7483   2.668   3.999   2.993  0.3486  0.1307 -0.1717
 1853SOL     OW 7484   2.697   4.263   3.054 -0.2762 -0.1624 -0.0848
 1853SOL    HW2 7485   2.692   4.262   3.150 -1.1680 -3.1113 -0.1251
 1853SOL    HW3 7486   2.612   4.298   3.027  0.4360  1.8395  0.1918
 1853SOL    MW4 7487   2.685   4.268   3.063 -0.2997 -0.2875 -0.0539
 1854SOL     OW 7488   2.922   4.404   2.967  0.0818  0.4283  0.2875
 1854SOL    HW2 7489   2.994   4.345   2.988  0.4012  0.1671 -1.4052
 1854SOL    HW3 7490   2.845   4.363   3.006  0.5949 -0.1822  0.6614
 1854SOL    MW4 7491   2.921   4.391   2.975  0.1917  0.3138  0.1132
 1855SOL     OW 7492   3.350   4.621   3.102 -0.2406 -0.3690 -0.0131
 1855SOL    HW2 7493   3.427   4.678   3.099  0.2620 -0.9549  1.2096
 1855SOL    HW3 7494   3.370   4.550   3.041 -0.9253  0.8135 -1.6383
 1855SOL    MW4 7495   3.363   4.619   3.094 -0.2646 -0.2904 -0.0665
 1856SOL     OW 7496   3.130   0.089   2.989 -0.3087 -0.3990  0.0102
 1856SOL    HW2 7497   3.138   0.176   3.027 -0.9793  0.6726 -2.2370
 1856SOL    HW3 7498   3.187   0.034   3.043 -0.2493  1.3185  1.7469
 1856SOL    MW4 7499   3.139   0.093   3.001 -0.3891 -0.0310 -0.0572
 1857SOL     OW 7500   3.137   0.337   3.098  0.6159 -0.3876 -0.3740
 1857SOL    HW2 7501   3.221   0.383   3.097  1.0108 -1.0641  0.9241
 1857SOL    HW3 7502   3.075   0.400   3.062  1.3316  0.8010  0.4533
 1857SOL    MW4 7503   3.140   0.351   3.093  0.7625 -0.3200 -0.0935
 1858SOL     OW 7504   3.360   0.515   3.050  0.9259 -0.0771 -0.5954
 1858SOL    HW2 7505   3.433   0.465   3.087 -0.4617 -1.2342  0.6470
 1858SOL    HW3 7506   3.357   0.490   2.958  0.2116 -2.3529  0.0218
 1858SOL    MW4 7507   3.369   0.505   3.043  0.6485 -0.5300 -0.3498
 1859SOL     OW 7508   3.350   0.778   3.118 -0.1918  0.3009 -0.5264
 1859SOL    HW2 7509   3.358   0.761   3.212  0.3560  0.2391 -0.5848
 1859SOL    HW3 7510   3.353   0.692   3.078 -0.5335  0.3197 -0.5982
 1859SOL    MW4 7511   3.351   0.765   3.125 -0.1645  0.2952 -0.5434
 1860SOL     OW 7512   3.127   0.898   3.032  0.5436  0.6693 -0.1519
 1860SOL    HW2 7513   3.208   0.859   3.065 -0.3271 -0.6805  0.4477
 1860SOL    HW3 7514   3.057   0.852   3.079 -0.5992  1.2407 -1.2547
 1860SOL    MW4 7515   3.128   0.887   3.043  0.2780  0.5667 -0.2182
 1861SOL     OW 7516   3.129   1.181   3.121  0.0158  0.6326  0.1913
 1861SOL    HW2 7517   3.208   1.224   3.088  0.8334  0.0814  1.4136
 1861SOL    HW3 7518   3.124   1.099   3.072  0.8533  0.1257  0.9544
 1861SOL    MW4 7519   3.138   1.176   3.110  0.2344  0.4932  0.4535
 1862SOL     OW 7520   3.374   1.292   3.013  0.1761  0.6687 -0.2674
 1862SOL    HW2 7521   3.454   1.253   3.047 -0.3717 -0.5008 -0.2953
 1862SOL    HW3 7522   3.367   1.376   3.058  0.2394 -0.2083  1.4187
 1862SOL    MW4 7523   3.383   1.298   3.024  0.1123  0.3986 -0.0484
 1863SOL     OW 7524   3.349   1.531   3.109 -0.0819 -0.2075  0.0137
 1863SOL    HW2 7525   3.350   1.520   3.204 -0.5095 -0.0437  0.0359
 1863SOL    HW3 7526   3.431   1.577   3.090  0.9054 -1.8902  0.0996
 1863SOL    MW4 7527   3.360   1.536   3.119 -0.0079 -0.4079  0.0281
 1864SOL     OW 7528   3.113   1.659   3.076 -0.4499  0.3668 -0.1490
 1864SOL    HW2 7529   3.202   1.635   3.102 -0.7329  0.3800  0.8342
 1864SOL    HW3 7530   3.116   1.661   2.980  0.2527 -0.9955 -0.1655
 1864SOL    MW4 7531   3.125   1.656   3.067 -0.3946  0.1888 -0.0215
 1865SOL     OW 7532   3.140   1.918   3.128  0.3367  0.0585  0.3885
 1865SOL    HW2 7533   3.128   1.827   3.101 -2.3758  0.4090  0.2679
 1865SOL    HW3 7534   3.140   1.915   3.224  0.2753 -0.0970  0.3841
 1865SOL    MW4 7535   3.138   1.905   3.137 -0.0293  0.0843  0.3717
 1866SOL     OW 7536   3.381   2.013   2.997 -0.4557 -0.2765 -0.3989
 1866SOL    HW2 7537   3.444   1.964   3.050 -0.0645 -0.1083 -0.7056
 1866SOL    HW3 7538   3.296   1.984   3.028 -0.2345  0.4136  0.9017
 1866SOL    MW4 7539   3.378   2.003   3.008 -0.3748 -0.1631 -0.2677
 1867SOL     OW 7540   3.417   2.283   3.063  0.2667  0.7674  0.1740
 1867SOL    HW2 7541   3.427   2.267   3.157 -0.5411  0.7551  0.2608
 1867SOL    HW3 7542   3.404   2.196   3.025 -2.2639  0.9894  0.4176
 1867SOL    MW4 7543   3.416   2.270   3.070 -0.1738  0.7949  0.2174
 1868SOL     OW 7544   3.159   2.403   3.018 -0.6837 -0.0351  0.0905
 1868SOL    HW2 7545   3.237   2.355   3.047 -0.8375 -0.4971 -0.2517
 1868SOL    HW3 7546   3.172   2.417   2.924  0.1052  2.0114  0.4842
 1868SOL    MW4 7547   3.171   2.398   3.009 -0.5999  0.1740  0.0970
 1869SOL     OW 7548   3.146   2.668   3.106  0.2270 -0.2090  0.0615
 1869SOL    HW2 7549   3.163   2.652   3.199  1.0944 -1.9241 -0.3608
 1869SOL    HW3 7550   3.129   2.581   3.069  0.9847  0.3132 -1.5846
 1869SOL    MW4 7551   3.146   2.654   3.113  0.4416 -0.3662 -0.2115
 1870SOL     OW 7552   3.354   2.809   2.981 -0.5732 -0.3320 -0.1464
 1870SOL    HW2 7553   3.323   2.897   3.000 -1.0041 -0.2643 -1.1896
 1870SOL    HW3 7554   3.289   2.751   3.022  1.0901 -0.2023  2.8840
 1870SOL    MW4 7555   3.342   2.813   2.989 -0.4103 -0.3057  0.1159
 1871SOL     OW 7556   3.332   3.067   3.073 -0.2499  0.4235  0.0572
 1871SOL    HW2 7557   3.325   3.064   3.168  0.2569  2.1665  0.1683
 1871SOL    HW3 7558   3.284   3.145   3.047 -0.7719 -0.2867 -1.1658
 1871SOL    MW4 7559   3.325   3.077   3.082 -0.2520  0.5598 -0.0892
 1872SOL     OW 7560   3.156   3.272   2.992  0.1366  0.2639 -0.1918
 1872SOL    HW2 7561   3.085   3.221   3.030  1.5185 -1.1824  0.4717
 1872SOL    HW3 7562   3.148   3.257   2.898 -0.0219 -0.4256 -0.0681
 1872SOL    MW4 7563   3.146   3.263   2.984  0.2980 -0.0176 -0.0880
 1873SOL     OW 7564   3.129   3.537   3.061  0.2325  0.2911 -0.2506
 1873SOL    HW2 7565   3.209   3.584   3.035  1.9466 -1.1641  2.2388
 1873SOL    HW3 7566   3.143   3.447   3.028 -0.7935  0.2516 -0.5893
 1873SOL    MW4 7567   3.141   3.531   3.053  0.3231  0.0939  0.0331
 1874SOL     OW 7568   3.375   3.603   2.940 -0.5600 -0.3302  0.2328
 1874SOL    HW2 7569   3.424   3.555   3.007 -1.2138 -0.4233  0.6461
 1874SOL    HW3 7570   3.384   3.695   2.965 -1.1973 -0.3974  0.7171
 1874SOL    MW4 7571   3.383   3.609   2.952 -0.7305 -0.3512  0.3512
 1875SOL     OW 7572   3.365   3.857   3.067 -0.4807  0.2629  0.1096
 1875SOL    HW2 7573   3.350   3.843   3.161  0.0139  0.1379  0.1693
 1875SOL    HW3 7574   3.285   3.901   3.037 -0.1639  1.3642  0.8280
 1875SOL    MW4 7575   3.353   3.861   3.076 -0.3736  0.3920  0.2124
 1876SOL     OW 7576   3.153   3.991   2.958 -0.4258 -0.0335 -0.1215
 1876SOL    HW2 7577   3.071   3.946   2.980  0.6550 -2.6427 -1.2565
 1876SOL    HW3 7578   3.154   3.996   2.863  0.2243  1.0141 -0.0738
 1876SOL    MW4 7579   3.143   3.986   2.948 -0.1974 -0.2396 -0.2651
 1877SOL     OW 7580   3.124   4.252   3.073  0.7327 -0.2092 -0.1120
 1877SOL    HW2 7581   3.138   4.255   3.168  0.3556  0.9257 -0.0891
 1877SOL    HW3 7582   3.143   4.161   3.049 -2.3935 -1.3844  1.5624
 1877SOL    MW4 7583   3.128   4.240   3.082  0.2706 -0.2146  0.1118
 1878SOL     OW 7584   3.348   4.363   2.961 -0.2036 -0.0054 -0.0857
 1878SOL    HW2 7585   3.416   4.336   3.024  0.5979  0.1282 -0.8823
 1878SOL    HW3 7586   3.266   4.335   3.002  0.3044  0.0211  0.9957
 1878SOL    MW4 7587   3.346   4.355   2.975 -0.0310  0.0157 -0.0484
 1879SOL     OW 7588   3.837   4.657   3.132 -0.3475 -0.1159  0.4653
 1879SOL    HW2 7589   3.808   4.646   3.222 -0.8700  0.1770  0.3320
 1879SOL    HW3 7590   3.761   4.691   3.085 -0.1732 -0.5535 -0.1506
 1879SOL    MW4 7591   3.823   4.660   3.138 -0.3934 -0.1349  0.3662
 1880SOL     OW 7592   3.586   0.093   3.048  0.0726  0.1871  0.1066
 1880SOL    HW2 7593   3.575   0.174   3.098  0.3552  0.0636  0.3702
 1880SOL    HW3 7594   3.553   0.114   2.960 -2.7143 -0.3415  1.0041
 1880SOL    MW4 7595   3.580   0.107   3.043 -0.2577  0.1011  0.2596
 1881SOL     OW 7596   3.569   0.344   3.153  0.3382  0.3763  0.2264
 1881SOL    HW2 7597   3.583   0.340   3.248  1.2182 -0.4265  0.0756
 1881SOL    HW3 7598   3.642   0.397   3.121 -0.0920  0.8470  0.0158
 1881SOL    MW4 7599   3.581   0.351   3.161  0.3974  0.3325  0.1788
 1882SOL     OW 7600   3.775   0.495   3.026  0.6776  0.0851  0.4171
 1882SOL    HW2 7601   3.850   0.445   3.058  0.0067 -0.0492  1.7961
 1882SOL    HW3 7602   3.799   0.586   3.041 -0.0993 -0.0112  2.4015
 1882SOL    MW4 7603   3.788   0.500   3.032  0.4866  0.0547  0.8609
 1883SOL     OW 7604   3.822   0.757   3.099  0.0841 -0.3924  0.1307
 1883SOL    HW2 7605   3.827   0.738   3.192 -2.1144  1.9066  0.7901
 1883SOL    HW3 7606   3.898   0.813   3.082 -0.4149  0.5457  0.9279
 1883SOL    MW4 7607   3.833   0.762   3.109 -0.2716  0.0347  0.3228
 1884SOL     OW 7608   3.587   0.894   3.024 -0.0534 -0.3603 -0.5110
 1884SOL    HW2 7609   3.660   0.834   3.038  0.5100  0.5923  0.7554
 1884SOL    HW3 7610   3.509   0.845   3.053  0.5648 -0.0116  1.8225
 1884SOL    MW4 7611   3.586   0.879   3.030  0.1023 -0.1886 -0.0358
 1885SOL     OW 7612   3.602   1.158   3.108 -0.1852  0.0348  0.2558
 1885SOL    HW2 7613   3.683   1.194   3.072  0.3114  0.5492  1.8836
 1885SOL    HW3 7614   3.593   1.073   3.065  0.3004  0.7129 -1.2173
 1885SOL    MW4 7615   3.611   1.151   3.097 -0.0558  0.1922  0.2761
 1886SOL     OW 7616   3.817   1.278   3.010 -0.0449  0.0583 -0.2509
 1886SOL    HW2 7617   3.805   1.363   3.053  0.6678 -0.4122  0.9190
 1886SOL    HW3 7618   3.821   1.299   2.917 -1.4259  1.1269 -0.0920
 1886SOL    MW4 7619   3.816   1.292   3.003 -0.1328  0.1372 -0.0758
 1887SOL     OW 7620   3.821   1.524   3.152  0.4822  0.1871  0.2299
 1887SOL    HW2 7621   3.824   1.546   3.245  1.0948 -0.2504  0.3211
 1887SOL    HW3 7622   3.737   1.556   3.122  1.2948  2.5451  0.3856
 1887SOL    MW4 7623   3.811   1.531   3.161  0.6702  0.4402  0.2625
 1888SOL     OW 7624   3.588   1.653   3.039  0.1782  0.6041  0.7400
 1888SOL    HW2 7625   3.589   1.740   3.080  0.7419  1.0734 -0.2726
 1888SOL    HW3 7626   3.602   1.670   2.946  0.0132 -0.5565  0.4990
 1888SOL    MW4 7627   3.590   1.667   3.032  0.2308  0.5130  0.5744
 1889SOL     OW 7628   3.595   1.903   3.162  0.2425  0.7284  0.7186
 1889SOL    HW2 7629   3.596   1.899   3.257 -0.0240  0.6878  0.7183
 1889SOL    HW3 7630   3.685   1.925   3.138  0.4880 -0.0149  0.9470
 1889SOL    MW4 7631   3.607   1.905   3.171  0.2398  0.6249  0.7489
 1890SOL     OW 7632   3.826   2.010   3.021  0.1628  0.0522 -0.4254
 1890SOL    HW2 7633   3.804   2.098   3.052 -0.1463  0.4089 -1.6283
 1890SOL    HW3 7634   3.838   2.020   2.927 -0.6299 -1.3437 -0.6884
 1890SOL    MW4 7635   3.825   2.023   3.013  0.0176 -0.0846 -0.6187
 1891SOL     OW 7636   3.777   2.293   3.102  0.1150  0.0578  0.6268
 1891SOL    HW2 7637   3.756   2.319   3.192 -0.1470  1.5711  0.1533
 1891SOL    HW3 7638   3.727   2.355   3.047  0.8785 -0.3448 -0.5491
 1891SOL    MW4 7639   3.767   2.305   3.106  0.1812  0.2043  0.4091
 1892SOL     OW 7640   3.605   2.463   2.953 -0.0048  0.2855 -0.1208
 1892SOL    HW2 7641   3.605   2.546   3.000  0.7765  0.6712 -0.7813
 1892SOL    HW3 7642   3.533   2.413   2.992  0.1551  0.8805  0.9583
 1892SOL    MW4 7643   3.595   2.468   2.964  0.1194  0.4151 -0.0656
 1893SOL     OW 7644   3.576   2.694   3.133 -0.0747  0.0201  0.1113
 1893SOL    HW2 7645   3.552   2.700   3.225 -0.7615  0.0643 -0.0714
 1893SOL    HW3 7646   3.506   2.741   3.086  0.6537  0.6491 -0.3724
 1893SOL    MW4 7647   3.564   2.701   3.139 -0.0691  0.1092  0.0236
 1894SOL     OW 7648   3.797   2.800   3.017  0.0799 -0.6865  0.3924
 1894SOL    HW2 7649   3.716   2.766   3.056 -0.4214  1.2822  1.1560
 1894SOL    HW3 7650   3.799   2.892   3.044  2.1262 -0.4856 -0.3794
 1894SOL    MW4 7651   3.786   2.808   3.026  0.2837 -0.4003  0.3915
 1895SOL     OW 7652   4.030   3.234   2.985 -0.4965 -0.0843 -0.3919
 1895SOL    HW2 7653   4.114   3.203   3.020 -0.6486 -0.6903 -0.5578
 1895SOL    HW3 7654   4.017   3.319   3.027 -0.6422 -0.7688  0.9807
 1895SOL    MW4 7655   4.040   3.241   2.996 -0.5360 -0.2546 -0.2327
 1896SOL     OW 7656   3.568   3.194   3.043  0.3946 -0.3398 -0.1122
 1896SOL    HW2 7657   3.486   3.146   3.050  0.9158 -1.2665 -0.1453
 1896SOL    HW3 7658   3.576   3.216   2.950  0.1386 -0.1770 -0.0941
 1896SOL    MW4 7659   3.558   3.190   3.032  0.4296 -0.4404 -0.1142
 1897SOL     OW 7660   3.520   3.460   3.124  0.2722  0.1441 -0.1231
 1897SOL    HW2 7661   3.526   3.450   3.219 -1.2777 -1.8244 -0.2035
 1897SOL    HW3 7662   3.540   3.373   3.090  1.8104  1.0662 -1.6716
 1897SOL    MW4 7663   3.524   3.447   3.132  0.2706  0.0062 -0.3381
 1898SOL     OW 7664   3.774   3.572   3.072  0.0298 -0.0578 -0.1228
 1898SOL    HW2 7665   3.683   3.544   3.087  0.5303 -0.7480  1.7835
 1898SOL    HW3 7666   3.777   3.662   3.103  0.8098 -1.1507  3.1416
 1898SOL    MW4 7667   3.762   3.580   3.078  0.1988 -0.2930  0.5596
 1899SOL     OW 7668   3.827   3.825   3.142  0.0960 -0.0521 -0.3685
 1899SOL    HW2 7669   3.809   3.835   3.235  0.2639 -0.8115 -0.2516
 1899SOL    HW3 7670   3.758   3.876   3.099  1.6698  2.6309  0.2004
 1899SOL    MW4 7671   3.815   3.833   3.148  0.3259  0.2017 -0.2780
 1900SOL     OW 7672   3.618   3.970   3.027  0.4164  0.6492  0.2312
 1900SOL    HW2 7673   3.532   3.935   3.050  0.0492  1.2286 -0.2515
 1900SOL    HW3 7674   3.615   3.980   2.932  1.1312  0.3646  0.1776
 1900SOL    MW4 7675   3.606   3.967   3.018  0.4623  0.6881  0.1605
 1901SOL     OW 7676   3.549   4.237   3.122  0.5836  0.3695 -0.2084
 1901SOL    HW2 7677   3.624   4.294   3.111  0.1250  0.7068 -1.7262
 1901SOL    HW3 7678   3.579   4.151   3.091  0.7462  0.1765  0.4645
 1901SOL    MW4 7679   3.563   4.233   3.116  0.5445  0.3886 -0.3197
 1902SOL     OW 7680   3.790   4.387   3.065  0.1279 -0.0474  0.1802
 1902SOL    HW2 7681   3.798   4.475   3.102 -1.7469 -0.0453  0.6160
 1902SOL    HW3 7682   3.806   4.398   2.972  0.8213  0.6068  0.3789
 1902SOL    MW4 7683   3.793   4.400   3.058 -0.0277  0.0396  0.2639
 1903SOL     OW 7684   4.276   4.648   3.140 -0.5367  0.0921  0.4667
 1903SOL    HW2 7685   4.285   4.650   3.235 -0.0895 -0.7430  0.4471
 1903SOL    HW3 7686   4.279   4.555   3.117  2.2078  0.4219 -0.6296
 1903SOL    MW4 7687   4.277   4.636   3.149 -0.1154  0.0253  0.3195
 1904SOL     OW 7688   4.059   0.095   3.011  0.2620 -0.0523 -0.2139
 1904SOL    HW2 7689   4.131   0.057   3.062 -0.1788  1.8948  1.9330
 1904SOL    HW3 7690   3.982   0.044   3.038  0.3190 -0.1066 -0.1540
 1904SOL    MW4 7691   4.058   0.083   3.022  0.2112  0.1975  0.0772
 1905SOL     OW 7692   3.991   0.350   3.114  0.0836  0.1671  0.3144
 1905SOL    HW2 7693   4.073   0.395   3.096 -0.6261  1.2935 -0.1595
 1905SOL    HW3 7694   4.005   0.260   3.085  1.0808  0.4046  0.0598
 1905SOL    MW4 7695   4.004   0.344   3.108  0.1216  0.3471  0.2182
 1906SOL     OW 7696   4.238   0.469   3.051  0.1255  0.2546 -0.3921
 1906SOL    HW2 7697   4.261   0.561   3.068  1.3536  0.2372 -1.7836
 1906SOL    HW3 7698   4.314   0.419   3.083 -0.6823 -0.3083  0.6620
 1906SOL    MW4 7699   4.251   0.475   3.057  0.1812  0.1780 -0.4365
 1907SOL     OW 7700   4.292   0.746   3.108 -0.1088  0.6641 -0.2139
 1907SOL    HW2 7701   4.205   0.785   3.100 -0.5943 -0.6272 -1.6414
 1907SOL    HW3 7702   4.345   0.794   3.044 -1.1983 -2.1821 -3.4599
 1907SOL    MW4 7703   4.287   0.758   3.098 -0.3166  0.1183 -0.8304
 1908SOL     OW 7704   4.057   0.909   3.062 -0.3113 -0.2448 -0.4432
 1908SOL    HW2 7705   4.060   1.003   3.080 -1.5692 -0.2942  0.0604
 1908SOL    HW3 7706   4.023   0.903   2.973 -1.7440 -0.2528  0.0803
 1908SOL    MW4 7707   4.053   0.921   3.053 -0.6666 -0.2525 -0.3076
 1909SOL     OW 7708   4.055   1.177   3.130  0.0959  0.4289 -0.3126
 1909SOL    HW2 7709   4.044   1.153   3.222  0.0371  1.6165 -0.0019
 1909SOL    HW3 7710   3.972   1.217   3.105  1.2887  3.2954  0.1328
 1909SOL    MW4 7711   4.043   1.179   3.138  0.2451  0.9637 -0.2127
 1910SOL     OW 7712   4.270   1.288   3.015 -0.7593  0.1414 -0.4189
 1910SOL    HW2 7713   4.197   1.249   3.063 -0.4899  0.0475 -0.0872
 1910SOL    HW3 7714   4.243   1.283   2.923 -1.6821  1.1758 -0.2161
 1910SOL    MW4 7715   4.257   1.282   3.009 -0.8454  0.2655 -0.3488
 1911SOL     OW 7716   4.246   1.551   3.052  0.1394 -0.4219  0.3366
 1911SOL    HW2 7717   4.168   1.597   3.019 -0.1793  0.1973  1.8764
 1911SOL    HW3 7718   4.237   1.462   3.019 -0.9244 -0.1977 -0.0153
 1911SOL    MW4 7719   4.234   1.546   3.043 -0.0429 -0.3107  0.4933
 1912SOL     OW 7720   4.010   1.659   2.966 -0.7803 -0.1126 -0.4567
 1912SOL    HW2 7721   4.046   1.722   3.029  1.9561 -1.0296 -1.0268
 1912SOL    HW3 7722   3.944   1.610   3.016 -0.8142  1.2082  0.8201
 1912SOL    MW4 7723   4.006   1.660   2.981 -0.4230 -0.0594 -0.3636
 1913SOL     OW 7724   4.054   1.882   3.124 -0.1350 -0.1358  0.3235
 1913SOL    HW2 7725   4.139   1.915   3.094 -0.5086  0.1415 -0.4609
 1913SOL    HW3 7726   3.990   1.938   3.079 -0.7311 -0.4788  0.7453
 1913SOL    MW4 7727   4.056   1.894   3.114 -0.2632 -0.1446  0.2756
 1914SOL     OW 7728   4.267   2.007   2.999 -0.3718  0.0003  0.0234
 1914SOL    HW2 7729   4.270   2.101   3.021 -0.9897 -0.0139  0.1676
 1914SOL    HW3 7730   4.262   2.006   2.904  2.1117  0.0631 -0.1470
 1914SOL    MW4 7731   4.267   2.020   2.990 -0.1254  0.0067  0.0198
 1915SOL     OW 7732   4.263   2.275   3.082  0.3484  0.2583  0.3337
 1915SOL    HW2 7733   4.182   2.314   3.051  0.9920 -0.1703 -1.9807
 1915SOL    HW3 7734   4.331   2.339   3.060  0.9666 -0.5815 -0.2476
 1915SOL    MW4 7735   4.261   2.288   3.075  0.5150  0.0908 -0.0484
 1916SOL     OW 7736   4.026   2.391   3.024  0.3410  0.3122 -0.3767
 1916SOL    HW2 7737   4.017   2.484   3.040  3.4414  0.2668  1.9382
 1916SOL    HW3 7738   3.940   2.354   3.047 -0.5658  2.4242 -0.3281
 1916SOL    MW4 7739   4.013   2.398   3.029  0.6304  0.5848 -0.0648
 1917SOL     OW 7740   4.003   2.649   3.091 -0.0067  0.1947  0.1860
 1917SOL    HW2 7741   4.002   2.662   3.186 -1.0084 -0.2974  0.2503
 1917SOL    HW3 7742   3.923   2.693   3.060 -0.4048 -0.8181 -0.2562
 1917SOL    MW4 7743   3.992   2.656   3.100 -0.1915 -0.0036  0.1359
 1918SOL     OW 7744   4.221   2.852   3.014  0.5076  0.3604 -0.4141
 1918SOL    HW2 7745   4.142   2.806   3.044 -1.4269  2.3679 -2.2474
 1918SOL    HW3 7746   4.293   2.801   3.050 -1.5707 -3.0558 -0.8185
 1918SOL    MW4 7747   4.220   2.839   3.023 -0.0219  0.1748 -0.7091
 1919SOL     OW 7748   4.265   3.114   3.106  0.1101  0.2558 -0.2167
 1919SOL    HW2 7749   4.280   3.123   3.200  1.1677 -1.0242 -0.2536
 1919SOL    HW3 7750   4.256   3.020   3.092  0.1005  0.4311 -1.4207
 1919SOL    MW4 7751   4.266   3.103   3.117  0.2484  0.1101 -0.3808
 1920SOL     OW 7752   4.019   3.229   2.707  0.2566 -0.4014  0.0023
 1920SOL    HW2 7753   4.006   3.210   2.800 -1.3261 -1.0721 -0.3412
 1920SOL    HW3 7754   4.010   3.325   2.701  0.6162 -0.3279  0.5631
 1920SOL    MW4 7755   4.016   3.239   2.719  0.0958 -0.4799  0.0310
 1921SOL     OW 7756   4.029   3.470   3.126  0.1694  0.2842 -0.3861
 1921SOL    HW2 7757   4.030   3.461   3.221  0.7671 -0.9359 -0.5018
 1921SOL    HW3 7758   3.942   3.507   3.106 -0.0662  0.2594  0.6049
 1921SOL    MW4 7759   4.017   3.474   3.136  0.2174  0.1197 -0.2704
 1922SOL     OW 7760   4.278   3.540   3.028 -0.0831  0.0080 -0.5929
 1922SOL    HW2 7761   4.281   3.629   3.063 -0.3347 -0.7177  1.3409
 1922SOL    HW3 7762   4.197   3.504   3.063  0.0365 -0.9867 -1.3371
 1922SOL    MW4 7763   4.268   3.547   3.038 -0.1006 -0.2189 -0.4358
 1923SOL     OW 7764   4.280   3.795   3.115 -0.2793 -0.1323  0.2486
 1923SOL    HW2 7765   4.198   3.835   3.084 -0.4380 -2.0989 -2.0643
 1923SOL    HW3 7766   4.348   3.857   3.087 -0.7710  0.1700 -0.3140
 1923SOL    MW4 7767   4.278   3.809   3.107 -0.3657 -0.3517 -0.1309
 1924SOL     OW 7768   4.060   3.960   3.051 -0.2420 -0.3657  0.4455
 1924SOL    HW2 7769   4.058   4.037   3.107 -0.6468  0.6034 -0.8685
 1924SOL    HW3 7770   3.990   3.904   3.084  0.6940 -0.6311  2.0214
 1924SOL    MW4 7771   4.050   3.962   3.063 -0.1717 -0.2728  0.4799
 1925SOL     OW 7772   4.021   4.241   3.140  0.5762 -0.0016  0.1506
 1925SOL    HW2 7773   4.003   4.246   3.234 -1.4268 -0.7945 -0.1735
 1925SOL    HW3 7774   3.943   4.277   3.098  1.1498 -0.3323 -1.2276
 1925SOL    MW4 7775   4.009   4.246   3.147  0.3877 -0.1497 -0.0741
 1926SOL     OW 7776   4.245   4.387   3.033  0.0202  0.0294 -0.3115
 1926SOL    HW2 7777   4.319   4.332   3.060 -0.7034 -1.3077 -1.0364
 1926SOL    HW3 7778   4.169   4.348   3.077 -0.7790 -0.6552 -2.2621
 1926SOL    MW4 7779   4.245   4.375   3.043 -0.1807 -0.2370 -0.6647
 1927SOL     OW 7780   0.244   4.638   3.397 -0.5545  0.0988  0.1597
 1927SOL    HW2 7781   0.327   4.676   3.426 -0.5644 -0.5268  1.0288
 1927SOL    HW3 7782   0.236   4.557   3.448 -1.1330 -0.4344 -0.7636
 1927SOL    MW4 7783   0.254   4.632   3.407 -0.6322 -0.0539  0.1528
 1928SOL     OW 7784   0.029   0.088   3.534 -0.5742  0.4020 -0.0335
 1928SOL    HW2 7785   0.030   0.180   3.509  1.6034  1.1000  2.4403
 1928SOL    HW3 7786   0.102   0.049   3.486 -0.9465  0.1380 -0.3917
 1928SOL    MW4 7787   0.039   0.095   3.524 -0.3360  0.4593  0.2458
 1929SOL     OW 7788   0.011   0.335   3.413 -0.5235  0.3558  0.4710
 1929SOL    HW2 7789  -0.060   0.385   3.455  1.1778  0.5357  3.2736
 1929SOL    HW3 7790   0.087   0.392   3.418  0.6378 -1.1631  0.6097
 1929SOL    MW4 7791   0.011   0.349   3.419 -0.1458  0.1791  0.8590
 1930SOL     OW 7792   0.224   0.504   3.465 -0.5112  0.3164 -0.0242
 1930SOL    HW2 7793   0.299   0.446   3.453  0.0798  0.6287  1.9158
 1930SOL    HW3 7794   0.246   0.584   3.417 -0.2188 -0.1207 -0.6149
 1930SOL    MW4 7795   0.237   0.507   3.457 -0.3946  0.2999  0.1538
 1931SOL     OW 7796   0.239   0.749   3.340 -0.0322 -0.2182  0.7312
 1931SOL    HW2 7797   0.316   0.800   3.365  0.2016 -0.4211  0.4434
 1931SOL    HW3 7798   0.166   0.792   3.383  0.0974  0.6573  0.0782
 1931SOL    MW4 7799   0.240   0.761   3.349  0.0158 -0.1295  0.6068
 1932SOL     OW 7800   0.018   0.888   3.455 -0.1881  0.0073  0.1217
 1932SOL    HW2 7801   0.005   0.888   3.550  0.2766  1.3625  0.1957
 1932SOL    HW3 7802   0.001   0.978   3.428 -3.0514 -0.9458 -1.4876
 1932SOL    MW4 7803   0.014   0.900   3.464 -0.5046  0.0603 -0.0811
 1933SOL     OW 7804   4.459   1.148   3.396 -0.1944 -0.1985 -0.0678
 1933SOL    HW2 7805   4.543   1.191   3.413 -1.1848  1.7154  0.0824
 1933SOL    HW3 7806   4.456   1.140   3.300 -0.8193  1.8148 -0.2443
 1933SOL    MW4 7807   4.470   1.153   3.385 -0.4077  0.3196 -0.0713
 1934SOL     OW 7808   0.208   1.270   3.449 -0.5762  0.1880 -0.0570
 1934SOL    HW2 7809   0.293   1.227   3.441 -0.3930  0.6481 -0.6123
 1934SOL    HW3 7810   0.225   1.361   3.426 -1.4997 -0.0189 -1.6528
 1934SOL    MW4 7811   0.222   1.276   3.445 -0.6739  0.2214 -0.3409
 1935SOL     OW 7812   0.245   1.538   3.397  0.2169  0.8677  0.2370
 1935SOL    HW2 7813   0.323   1.589   3.420 -0.0647  1.9477 -1.1524
 1935SOL    HW3 7814   0.231   1.556   3.304 -0.7523 -0.5958  0.0889
 1935SOL    MW4 7815   0.253   1.547   3.388  0.0519  0.8172  0.0343
 1936SOL     OW 7816   4.487   1.637   3.457  0.4847  0.0295 -0.1472
 1936SOL    HW2 7817   4.439   1.597   3.385  0.4480  1.7866 -1.1196
 1936SOL    HW3 7818   4.575   1.598   3.451  0.3809 -0.0913 -0.9131
 1936SOL    MW4 7819   4.493   1.626   3.447  0.4663  0.2453 -0.3765
 1937SOL     OW 7820   0.006   1.924   3.399  0.1953 -0.1068 -0.1523
 1937SOL    HW2 7821   0.021   1.833   3.425  1.4767  0.1573  0.1106
 1937SOL    HW3 7822  -0.009   1.920   3.305 -2.4141 -0.8522  0.2550
 1937SOL    MW4 7823   0.006   1.912   3.390  0.0201 -0.1702 -0.0639
 1938SOL     OW 7824   0.249   2.049   3.487 -0.0168  0.0048  0.2240
 1938SOL    HW2 7825   0.245   2.065   3.581 -0.7208 -1.3404  0.4347
 1938SOL    HW3 7826   0.166   2.004   3.467 -0.7891  2.1021 -1.3930
 1938SOL    MW4 7827   0.237   2.045   3.497 -0.2116  0.1040  0.0384
 1939SOL     OW 7828   0.237   2.307   3.380 -0.0865 -0.2157  0.0033
 1939SOL    HW2 7829   0.164   2.353   3.422  0.8265  0.7103  0.6154
 1939SOL    HW3 7830   0.240   2.221   3.423  0.2919  0.4050  1.2411
 1939SOL    MW4 7831   0.228   2.302   3.391  0.0839 -0.0117  0.2475
 1940SOL     OW 7832   4.469   2.417   3.473 -0.2667 -0.1769 -0.1809
 1940SOL    HW2 7833   4.443   2.436   3.563  1.3824 -0.3846  0.3495
 1940SOL    HW3 7834   4.391   2.379   3.433 -1.3127  0.8025  0.8737
 1940SOL    MW4 7835   4.455   2.415   3.480 -0.1871 -0.0751  0.0284
 1941SOL     OW 7836   0.005   2.677   3.390 -0.0273 -0.2305 -0.4974
 1941SOL    HW2 7837   0.018   2.587   3.419 -0.1352  0.4641  1.8361
 1941SOL    HW3 7838   0.064   2.729   3.444 -2.5364  1.4609  0.7566
 1941SOL    MW4 7839   0.014   2.672   3.401 -0.3726  0.0842 -0.0243
 1942SOL     OW 7840   0.220   2.796   3.516 -0.2502  0.1594 -0.0907
 1942SOL    HW2 7841   0.217   2.891   3.506 -1.7980 -0.1573 -3.0716
 1942SOL    HW3 7842   0.301   2.770   3.473 -0.7108 -0.0321 -0.8469
 1942SOL    MW4 7843   0.230   2.805   3.509 -0.5152  0.0923 -0.5839
 1943SOL     OW 7844   0.237   3.079   3.452  0.6034  0.5935 -0.2404
 1943SOL    HW2 7845   0.161   3.129   3.483  1.3967  1.9092 -0.3892
 1943SOL    HW3 7846   0.235   3.088   3.357  0.6555  0.1892 -0.2818
 1943SOL    MW4 7847   0.227   3.087   3.444  0.7149  0.7136 -0.2654
 1944SOL     OW 7848   0.006   3.220   3.506 -0.3828 -0.3164 -0.2481
 1944SOL    HW2 7849  -0.066   3.161   3.481 -1.7364  0.5341  1.4956
 1944SOL    HW3 7850  -0.011   3.301   3.458 -0.2585 -0.3061 -0.2748
 1944SOL    MW4 7851  -0.006   3.223   3.497 -0.5450 -0.2029 -0.0217
 1945SOL     OW 7852   0.001   3.462   3.392 -0.4453 -0.0403 -0.1277
 1945SOL    HW2 7853   0.069   3.517   3.430 -0.4422 -1.0888  1.4350
 1945SOL    HW3 7854   0.013   3.470   3.297  1.0533  0.7644  0.1173
 1945SOL    MW4 7855   0.011   3.470   3.385 -0.2472 -0.0727  0.1106
 1946SOL     OW 7856   0.220   3.629   3.480 -0.0132 -0.1214 -0.1070
 1946SOL    HW2 7857   0.235   3.618   3.574  0.1270  0.4456 -0.0590
 1946SOL    HW3 7858   0.298   3.592   3.439 -0.1661 -0.5524 -0.0070
 1946SOL    MW4 7859   0.232   3.623   3.487 -0.0149 -0.1032 -0.0873
 1947SOL     OW 7860   0.187   3.899   3.435 -0.4142  0.0056  0.2701
 1947SOL    HW2 7861   0.118   3.939   3.489 -2.0742 -1.0288 -1.0074
 1947SOL    HW3 7862   0.185   3.806   3.459  0.4104 -0.0660  0.0697
 1947SOL    MW4 7863   0.177   3.892   3.445 -0.5244 -0.1404  0.0751
 1948SOL     OW 7864   4.445   3.996   3.536  0.0054 -0.1113 -0.5424
 1948SOL    HW2 7865   4.444   3.982   3.630  0.7571  2.0936 -0.1622
 1948SOL    HW3 7866   4.376   3.940   3.502  0.3324 -1.6132  1.2043
 1948SOL    MW4 7867   4.436   3.987   3.544  0.1473 -0.0186 -0.2615
 1949SOL     OW 7868   0.006   4.253   3.427 -0.3462 -0.5625  0.1160
 1949SOL    HW2 7869  -0.021   4.163   3.445 -1.4668 -0.7053 -2.0408
 1949SOL    HW3 7870  -0.075   4.303   3.434 -0.2101 -0.1440 -1.1695
 1949SOL    MW4 7871  -0.008   4.247   3.430 -0.4761 -0.5260 -0.3381
 1950SOL     OW 7872   0.220   4.392   3.542 -0.1962  0.2550 -0.4119
 1950SOL    HW2 7873   0.221   4.379   3.637 -0.3151  0.8572 -0.3270
 1950SOL    HW3 7874   0.152   4.332   3.511  0.3007 -0.4221 -0.1902
 1950SOL    MW4 7875   0.211   4.382   3.550 -0.1463  0.2451 -0.3715
 1951SOL     OW 7876   0.731   4.591   3.377  0.2607  0.4308  0.3957
 1951SOL    HW2 7877   0.800   4.639   3.423  1.3112 -0.4081 -0.2803
 1951SOL    HW3 7878   0.738   4.502   3.410 -0.4159  0.3024  0.2044
 1951SOL    MW4 7879   0.741   4.586   3.387  0.3101  0.3033  0.2813
 1952SOL     OW 7880   0.487   0.078   3.508  0.2842  0.5415  0.5937
 1952SOL    HW2 7881   0.491   0.082   3.603  1.2084  0.0362  0.5827
 1952SOL    HW3 7882   0.568   0.035   3.482  0.0885  0.7693 -0.4310
 1952SOL    MW4 7883   0.498   0.073   3.517  0.3803  0.5049  0.4570
 1953SOL     OW 7884   0.441   0.338   3.444  0.2439  0.5368  0.0092
 1953SOL    HW2 7885   0.522   0.384   3.468 -0.5972  0.8256  2.4425
 1953SOL    HW3 7886   0.459   0.246   3.465  0.1823  0.4974 -0.1107
 1953SOL    MW4 7887   0.454   0.332   3.450  0.1248  0.5697  0.3142
 1954SOL     OW 7888   0.673   0.473   3.528 -0.6759  0.2887 -0.3312
 1954SOL    HW2 7889   0.671   0.468   3.623  0.6602  1.7093 -0.1928
 1954SOL    HW3 7890   0.744   0.414   3.502 -0.2680  0.7783 -0.3480
 1954SOL    MW4 7891   0.682   0.464   3.537 -0.4458  0.5407 -0.3152
 1955SOL     OW 7892   0.661   0.714   3.378  0.2962  0.2026  0.6818
 1955SOL    HW2 7893   0.589   0.772   3.400 -0.2800 -0.3955  0.3979
 1955SOL    HW3 7894   0.645   0.636   3.432  0.3656 -0.1898  0.1396
 1955SOL    MW4 7895   0.649   0.711   3.388  0.2292  0.0719  0.5729
 1956SOL     OW 7896   0.470   0.881   3.466  0.1090  0.5428  0.2759
 1956SOL    HW2 7897   0.433   0.894   3.553 -0.7326  1.5481 -0.2126
 1956SOL    HW3 7898   0.476   0.970   3.430 -1.6053 -0.0595 -1.5188
 1956SOL    MW4 7899   0.466   0.895   3.473 -0.2282  0.5959 -0.0253
 1957SOL     OW 7900   0.468   1.148   3.407  0.2326  0.0514 -0.0018
 1957SOL    HW2 7901   0.552   1.184   3.436  0.8122 -1.0425 -0.2716
 1957SOL    HW3 7902   0.477   1.140   3.312  0.2269 -1.0557  0.0873
 1957SOL    MW4 7903   0.480   1.151   3.399  0.3083 -0.2389 -0.0257
 1958SOL     OW 7904   0.691   1.298   3.508 -0.4439 -0.4319 -0.0639
 1958SOL    HW2 7905   0.703   1.375   3.452  1.3901 -0.0206  0.8477
 1958SOL    HW3 7906   0.760   1.238   3.481 -1.1024 -1.2570  0.0811
 1958SOL    MW4 7907   0.702   1.300   3.497 -0.2887 -0.4865  0.0753
 1959SOL     OW 7908   0.703   1.532   3.335  0.4195  0.4675  0.0150
 1959SOL    HW2 7909   0.784   1.574   3.365  0.4043  0.1391  0.5267
 1959SOL    HW3 7910   0.635   1.571   3.390  0.6501 -1.6434  1.8761
 1959SOL    MW4 7911   0.705   1.542   3.347  0.4479  0.1459  0.3283
 1960SOL     OW 7912   0.484   1.646   3.487 -0.0043  0.1410  0.2379
 1960SOL    HW2 7913   0.475   1.654   3.582 -0.8632  0.0250  0.1696
 1960SOL    HW3 7914   0.472   1.735   3.454  0.7206  0.2528  0.2677
 1960SOL    MW4 7915   0.482   1.659   3.495 -0.0219  0.1404  0.2329
 1961SOL     OW 7916   0.468   1.911   3.404  0.0457  0.3714 -0.4045
 1961SOL    HW2 7917   0.394   1.967   3.427 -0.9569 -0.5583 -1.3070
 1961SOL    HW3 7918   0.464   1.904   3.309  1.4157  0.4614 -0.4750
 1961SOL    MW4 7919   0.458   1.917   3.395  0.0942  0.2606 -0.5329
 1962SOL     OW 7920   0.705   2.023   3.505  0.4294  0.1972 -0.2129
 1962SOL    HW2 7921   0.727   1.987   3.591 -0.1880  0.6382  0.1327
 1962SOL    HW3 7922   0.628   1.974   3.477  0.7346 -0.0653 -0.5909
 1962SOL    MW4 7923   0.698   2.012   3.513  0.3883  0.2208 -0.2172
 1963SOL     OW 7924   0.689   2.271   3.356 -0.1578  0.2503 -0.4293
 1963SOL    HW2 7925   0.755   2.311   3.412 -0.5459  0.5565 -0.1890
 1963SOL    HW3 7926   0.677   2.184   3.392  0.4974  0.0014 -0.7944
 1963SOL    MW4 7927   0.696   2.265   3.368 -0.1226  0.2575 -0.4458
 1964SOL     OW 7928   0.471   2.419   3.477  0.6361  0.0358  0.3894
 1964SOL    HW2 7929   0.552   2.373   3.457  0.4711  0.2610 -0.8674
 1964SOL    HW3 7930   0.403   2.369   3.432  0.1304  0.0857  1.0855
 1964SOL    MW4 7931   0.473   2.406   3.468  0.5476  0.0718  0.3154
 1965SOL     OW 7932   0.454   2.684   3.389 -0.2270  0.3533  0.5313
 1965SOL    HW2 7933   0.459   2.595   3.425 -2.5571  0.1929  0.5088
 1965SOL    HW3 7934   0.438   2.671   3.296  0.5423  0.8033  0.3339
 1965SOL    MW4 7935   0.453   2.670   3.382 -0.4329  0.3915  0.5023
 1966SOL     OW 7936   0.649   2.837   3.502  0.5565 -0.1915  0.1446
 1966SOL    HW2 7937   0.728   2.786   3.483  0.7362 -0.2272  0.9635
 1966SOL    HW3 7938   0.579   2.790   3.458  0.6320 -1.4808  1.3653
 1966SOL    MW4 7939   0.650   2.824   3.494  0.5902 -0.3664  0.4141
 1967SOL     OW 7940   0.681   3.077   3.372  0.1500  0.3536  0.4079
 1967SOL    HW2 7941   0.614   3.139   3.400  1.4264  1.6159  0.7113
 1967SOL    HW3 7942   0.653   2.993   3.409 -1.8452  0.6380 -0.4382
 1967SOL    MW4 7943   0.669   3.074   3.381  0.0552  0.5577  0.3364
 1968SOL     OW 7944   0.476   3.219   3.522  0.2146 -0.1492 -0.2589
 1968SOL    HW2 7945   0.479   3.222   3.617  1.9109 -1.4195 -0.2588
 1968SOL    HW3 7946   0.404   3.159   3.502 -0.3357  0.3518  0.2098
 1968SOL    MW4 7947   0.467   3.212   3.532  0.3659 -0.2503 -0.1969
 1969SOL     OW 7948   0.425   3.485   3.401 -0.1180  0.1706 -0.1474
 1969SOL    HW2 7949   0.425   3.480   3.306 -1.7877  1.3866 -0.2469
 1969SOL    HW3 7950   0.418   3.394   3.430  0.3130 -0.2009 -1.1851
 1969SOL    MW4 7951   0.424   3.472   3.392 -0.2814  0.2818 -0.2975
 1970SOL     OW 7952   0.660   3.616   3.504  0.2191 -0.1431 -0.3237
 1970SOL    HW2 7953   0.731   3.558   3.476  1.3903  1.3854 -0.6290
 1970SOL    HW3 7954   0.580   3.574   3.474  1.2294 -0.1327 -3.1729
 1970SOL    MW4 7955   0.659   3.603   3.497  0.5069  0.0598 -0.7398
 1971SOL     OW 7956   0.706   3.878   3.422  0.7843  0.0791  0.1740
 1971SOL    HW2 7957   0.625   3.925   3.441  0.7577  1.5670 -3.2049
 1971SOL    HW3 7958   0.692   3.790   3.456 -2.4486  0.2003 -0.6779
 1971SOL    MW4 7959   0.694   3.873   3.429  0.3543  0.2913 -0.3846
 1972SOL     OW 7960   0.444   4.009   3.456 -0.4384  0.1314 -0.0774
 1972SOL    HW2 7961   0.433   4.102   3.433  0.3558  0.1371 -0.4382
 1972SOL    HW3 7962   0.356   3.972   3.446 -0.9292  1.0210  0.8808
 1972SOL    MW4 7963   0.431   4.017   3.452 -0.3983  0.2494  0.0017
 1973SOL     OW 7964   0.455   4.296   3.419  0.0085  0.5127  0.0996
 1973SOL    HW2 7965   0.382   4.347   3.454  1.0613  1.6203  0.7292
 1973SOL    HW3 7966   0.442   4.296   3.324 -1.3795 -0.1930  0.2867
 1973SOL    MW4 7967   0.444   4.302   3.411 -0.0358  0.5655  0.2074
 1974SOL     OW 7968   0.704   4.336   3.538  0.3843 -0.3941  0.5412
 1974SOL    HW2 7969   0.625   4.322   3.486  0.9684  0.0508 -0.4862
 1974SOL    HW3 7970   0.775   4.307   3.482  0.9406 -1.0502  1.5706
 1974SOL    MW4 7971   0.703   4.331   3.524  0.5348 -0.4220  0.5417
 1975SOL     OW 7972   1.168   4.605   3.442 -0.5931  0.4182  0.3148
 1975SOL    HW2 7973   1.242   4.659   3.469  0.1508 -1.5244  2.2647
 1975SOL    HW3 7974   1.169   4.610   3.346  1.1197  1.6335  0.3778
 1975SOL    MW4 7975   1.178   4.613   3.433 -0.2691  0.3223  0.5803
 1976SOL     OW 7976   0.922   0.069   3.505 -0.1799  0.1147 -0.5340
 1976SOL    HW2 7977   0.896   0.055   3.596 -0.6235 -1.2069 -0.8464
 1976SOL    HW3 7978   1.010   0.031   3.499 -0.3095 -0.1616 -0.7391
 1976SOL    MW4 7979   0.931   0.062   3.516 -0.2555 -0.0961 -0.6022
 1977SOL     OW 7980   0.903   0.334   3.368  0.1937 -0.1133 -0.1431
 1977SOL    HW2 7981   0.974   0.391   3.397  0.6689  0.4685 -2.3767
 1977SOL    HW3 7982   0.917   0.252   3.415  0.7854  0.8648  1.4248
 1977SOL    MW4 7983   0.914   0.331   3.378  0.3345  0.0925 -0.2310
 1978SOL     OW 7984   1.100   0.510   3.426 -0.0147 -0.1562 -0.0135
 1978SOL    HW2 7985   1.130   0.528   3.515 -2.4371  0.6965  0.6505
 1978SOL    HW3 7986   1.100   0.596   3.383  0.3153 -0.4363 -0.5831
 1978SOL    MW4 7987   1.104   0.524   3.432 -0.2906 -0.0807 -0.0010
 1979SOL     OW 7988   1.079   0.788   3.359  0.0874 -0.0995 -0.2906
 1979SOL    HW2 7989   1.151   0.828   3.408  0.2654  0.2079 -0.8048
 1979SOL    HW3 7990   1.001   0.807   3.411  0.6455 -2.5472  1.6081
 1979SOL    MW4 7991   1.078   0.796   3.373  0.1845 -0.3819 -0.1075
 1980SOL     OW 7992   0.861   0.853   3.517 -0.4369  0.2657  0.3139
 1980SOL    HW2 7993   0.873   0.942   3.485 -0.5546  0.1912  0.0702
 1980SOL    HW3 7994   0.787   0.819   3.468  0.5098 -0.4669 -0.6387
 1980SOL    MW4 7995   0.853   0.860   3.507 -0.3275  0.1592  0.1562
 1981SOL     OW 7996   0.878   1.138   3.405 -0.0806  0.8608  0.5499
 1981SOL    HW2 7997   0.960   1.173   3.439  0.7619 -0.2728 -0.2921
 1981SOL    HW3 7998   0.892   1.132   3.311 -0.4974 -0.9875  0.5957
 1981SOL    MW4 7999   0.891   1.142   3.397 -0.0244  0.4673  0.4449
 1982SOL     OW 8000   1.108   1.254   3.510  0.1938 -0.1017  0.0579
 1982SOL    HW2 8001   1.129   1.260   3.603 -0.4584 -0.9775  0.2624
 1982SOL    HW3 8002   1.107   1.345   3.480  1.0791  0.1489  0.7514
 1982SOL    MW4 8003   1.111   1.267   3.518  0.2245 -0.1842  0.1762
 1983SOL     OW 8004   1.173   1.509   3.393 -0.0559 -0.4021  0.1587
 1983SOL    HW2 8005   1.249   1.565   3.404 -0.5445  0.5028 -0.9231
 1983SOL    HW3 8006   1.147   1.522   3.302 -1.7484 -0.3668  0.6241
 1983SOL    MW4 8007   1.180   1.518   3.382 -0.3437 -0.2780  0.0777
 1984SOL     OW 8008   0.927   1.636   3.505 -0.4134 -0.1290  0.4261
 1984SOL    HW2 8009   0.917   1.714   3.450 -0.7892  0.9967  2.0508
 1984SOL    HW3 8010   1.014   1.603   3.483 -1.0506 -0.4275 -1.7392
 1984SOL    MW4 8011   0.937   1.642   3.495 -0.5471 -0.0199  0.3548
 1985SOL     OW 8012   0.903   1.871   3.353 -0.2130 -0.2590 -0.0610
 1985SOL    HW2 8013   0.993   1.902   3.363 -0.5955  0.6332  0.6126
 1985SOL    HW3 8014   0.851   1.926   3.412 -1.2029 -0.7668 -0.4438
 1985SOL    MW4 8015   0.908   1.882   3.362 -0.3940 -0.2084 -0.0229
 1986SOL     OW 8016   1.120   2.036   3.416 -0.3109 -0.0335 -0.2336
 1986SOL    HW2 8017   1.214   2.025   3.404 -0.4544 -0.5123 -0.9644
 1986SOL    HW3 8018   1.107   2.131   3.414 -0.1114 -0.0397 -2.2942
 1986SOL    MW4 8019   1.131   2.047   3.414 -0.3034 -0.0975 -0.6020
 1987SOL     OW 8020   1.124   2.315   3.393  0.0573  0.0242  0.1528
 1987SOL    HW2 8021   1.214   2.340   3.412  0.1840 -0.1626 -0.1824
 1987SOL    HW3 8022   1.121   2.305   3.297  0.0564 -1.3719  0.2766
 1987SOL    MW4 8023   1.135   2.317   3.383  0.0739 -0.1843  0.1247
 1988SOL     OW 8024   0.876   2.417   3.506 -0.3080  0.1064  0.2242
 1988SOL    HW2 8025   0.872   2.426   3.602 -0.3480 -0.5707  0.2839
 1988SOL    HW3 8026   0.969   2.412   3.487 -0.3220 -0.4526  0.2924
 1988SOL    MW4 8027   0.888   2.418   3.516 -0.3151 -0.0567  0.2413
 1989SOL     OW 8028   0.878   2.681   3.431  0.0570 -0.1753  0.2833
 1989SOL    HW2 8029   0.961   2.711   3.468  0.5891 -1.3790  0.0744
 1989SOL    HW3 8030   0.860   2.599   3.476 -1.6255  0.6500  1.1779
 1989SOL    MW4 8031   0.886   2.674   3.442 -0.0947 -0.2253  0.3736
 1990SOL     OW 8032   1.116   2.812   3.519 -0.1852 -0.3239  0.4810
 1990SOL    HW2 8033   1.122   2.832   3.612  0.3994  0.6836  0.2370
 1990SOL    HW3 8034   1.189   2.751   3.503 -0.8374 -1.2147  0.8548
 1990SOL    MW4 8035   1.127   2.806   3.529 -0.1942 -0.3083  0.4981
 1991SOL     OW 8036   1.157   3.041   3.387  0.4626 -0.2018 -0.1232
 1991SOL    HW2 8037   1.141   2.951   3.414 -1.5489 -0.0003 -0.5296
 1991SOL    HW3 8038   1.149   3.039   3.291 -1.3858  0.7019 -0.0135
 1991SOL    MW4 8039   1.154   3.029   3.378 -0.0467 -0.0563 -0.1621
 1992SOL     OW 8040   0.937   3.201   3.447 -0.0492  0.0199  0.2377
 1992SOL    HW2 8041   1.006   3.138   3.430  1.1811  1.2520  0.5529
 1992SOL    HW3 8042   0.856   3.155   3.425  0.9489 -1.0408 -1.2603
 1992SOL    MW4 8043   0.935   3.187   3.442  0.2448  0.0427  0.0818
 1993SOL     OW 8044   0.866   3.461   3.373 -0.2617  0.0021  0.1782
 1993SOL    HW2 8045   0.904   3.374   3.381 -2.0886 -0.8965 -0.6063
 1993SOL    HW3 8046   0.883   3.487   3.282  0.1191  0.4078  0.3587
 1993SOL    MW4 8047   0.873   3.453   3.362 -0.4525 -0.0629  0.0985
 1994SOL     OW 8048   1.125   3.566   3.503 -0.1472  0.3468  0.2779
 1994SOL    HW2 8049   1.133   3.582   3.597 -0.3827 -2.9587  0.9107
 1994SOL    HW3 8050   1.036   3.532   3.492  0.1307  0.0145 -1.0154
 1994SOL    MW4 8051   1.114   3.564   3.514 -0.1416 -0.1330  0.1907
 1995SOL     OW 8052   1.141   3.831   3.425  0.3324  0.1435  0.0629
 1995SOL    HW2 8053   1.235   3.848   3.437  0.3191 -0.6216  1.3778
 1995SOL    HW3 8054   1.130   3.739   3.448 -0.5457 -0.1034 -1.3093
 1995SOL    MW4 8055   1.152   3.821   3.430  0.2147  0.0098  0.0553
 1996SOL     OW 8056   0.929   4.010   3.515 -0.4037 -0.3297  0.3089
 1996SOL    HW2 8057   0.999   3.948   3.498  0.0871  0.5159 -0.8370
 1996SOL    HW3 8058   0.849   3.964   3.490 -0.1865 -1.0141  0.8621
 1996SOL    MW4 8059   0.928   3.996   3.509 -0.3103 -0.3083  0.2306
 1997SOL     OW 8060   0.926   4.262   3.360 -0.0098 -0.5313  0.5275
 1997SOL    HW2 8061   0.926   4.169   3.381  1.9874 -0.4713  0.8245
 1997SOL    HW3 8062   0.928   4.264   3.264  0.2636 -0.7906  0.5270
 1997SOL    MW4 8063   0.926   4.250   3.350  0.2898 -0.5579  0.5665
 1998SOL     OW 8064   1.138   4.335   3.497  0.3353  0.1775 -0.0813
 1998SOL    HW2 8065   1.062   4.310   3.443 -0.6012  0.9643  0.8448
 1998SOL    HW3 8066   1.159   4.424   3.469  1.3648 -0.2856 -0.8152
 1998SOL    MW4 8067   1.130   4.343   3.486  0.3476  0.2198 -0.0560
 1999SOL     OW 8068   1.581   4.618   3.397 -0.7089  0.0223 -0.3431
 1999SOL    HW2 8069   1.574   4.525   3.420 -0.2059  0.5858  2.2314
 1999SOL    HW3 8070   1.513   4.660   3.450  0.7938  1.4400  0.4989
 1999SOL    MW4 8071   1.571   4.611   3.407 -0.4444  0.2837  0.1073
 2000SOL     OW 8072   1.372   0.121   3.535  0.4339 -0.0601  0.1396
 2000SOL    HW2 8073   1.341   0.154   3.619 -3.0161  0.0571 -1.0822
 2000SOL    HW3 8074   1.369   0.198   3.477 -0.6463 -0.8712 -0.9160
 2000SOL    MW4 8075   1.367   0.136   3.538 -0.1638 -0.1516 -0.1607
 2001SOL     OW 8076   1.341   0.345   3.384  0.4625  0.3064  0.1245
 2001SOL    HW2 8077   1.405   0.406   3.420  1.0193  1.4135 -2.5886
 2001SOL    HW3 8078   1.257   0.390   3.393  0.7766  1.1918 -1.1781
 2001SOL    MW4 8079   1.338   0.359   3.390  0.5773  0.5693 -0.4053
 2002SOL     OW 8080   1.527   0.530   3.475  0.5454 -0.1071  0.2175
 2002SOL    HW2 8081   1.522   0.512   3.569  0.6718 -1.3682 -0.0086
 2002SOL    HW3 8082   1.609   0.489   3.448 -0.8297 -2.1385 -0.9522
 2002SOL    MW4 8083   1.537   0.522   3.484  0.3808 -0.5414  0.0334
 2003SOL     OW 8084   1.573   0.785   3.363 -0.1886 -0.0630  0.3971
 2003SOL    HW2 8085   1.485   0.824   3.363 -0.1141  0.1018  0.9057
 2003SOL    HW3 8086   1.562   0.702   3.411  0.0843  0.3013  1.1013
 2003SOL    MW4 8087   1.560   0.779   3.369 -0.1428  0.0068  0.5569
 2004SOL     OW 8088   1.334   0.904   3.441 -0.0705 -0.2610 -0.0831
 2004SOL    HW2 8089   1.356   0.893   3.534 -0.5246 -0.4837 -0.0017
 2004SOL    HW3 8090   1.355   0.995   3.422  2.2713 -0.8073 -0.3596
 2004SOL    MW4 8091   1.340   0.914   3.451  0.1786 -0.3625 -0.1087
 2005SOL     OW 8092   1.339   1.163   3.359 -0.1244  0.0843 -0.1252
 2005SOL    HW2 8093   1.409   1.204   3.410 -1.4432  1.1094  0.9229
 2005SOL    HW3 8094   1.260   1.182   3.410 -1.1066 -1.3605 -1.1018
 2005SOL    MW4 8095   1.338   1.171   3.373 -0.4278  0.0288 -0.1156
 2006SOL     OW 8096   1.545   1.292   3.513  0.3233 -0.1629 -0.2261
 2006SOL    HW2 8097   1.553   1.302   3.608 -0.8853 -0.8828 -0.0319
 2006SOL    HW3 8098   1.633   1.272   3.483  0.3320 -2.1785  1.0475
 2006SOL    MW4 8099   1.557   1.291   3.521  0.1651 -0.5238 -0.0327
 2007SOL     OW 8100   1.617   1.551   3.395 -0.6297 -0.0091 -0.0559
 2007SOL    HW2 8101   1.589   1.461   3.412 -0.3385  0.0010  0.5099
 2007SOL    HW3 8102   1.632   1.555   3.301 -0.7045 -0.5356 -0.0903
 2007SOL    MW4 8103   1.615   1.539   3.385 -0.6013 -0.0772  0.0141
 2008SOL     OW 8104   1.391   1.699   3.445 -0.6599 -0.4440 -0.5712
 2008SOL    HW2 8105   1.385   1.714   3.539  0.8229  1.1636 -0.7182
 2008SOL    HW3 8106   1.469   1.644   3.434  1.5329  2.6974 -1.1830
 2008SOL    MW4 8107   1.401   1.694   3.456 -0.1750  0.1825 -0.6711
 2009SOL     OW 8108   1.397   1.964   3.348  0.1135  0.0614  0.1774
 2009SOL    HW2 8109   1.469   1.993   3.403  0.6654 -0.5414 -0.2204
 2009SOL    HW3 8110   1.386   1.872   3.369  0.1447 -0.1016 -0.5112
 2009SOL    MW4 8111   1.405   1.956   3.358  0.1905 -0.0397  0.0341
 2010SOL     OW 8112   1.588   2.048   3.525 -0.2568  0.1687 -0.0313
 2010SOL    HW2 8113   1.667   2.000   3.503  0.1958  1.5136 -1.3897
 2010SOL    HW3 8114   1.601   2.135   3.488 -1.8054  0.8113  0.8767
 2010SOL    MW4 8115   1.600   2.053   3.517 -0.4014  0.4308 -0.0906
 2011SOL     OW 8116   1.612   2.293   3.376  0.0178 -0.8722 -0.0477
 2011SOL    HW2 8117   1.539   2.343   3.412  0.4183 -0.5571  0.3316
 2011SOL    HW3 8118   1.600   2.299   3.281 -0.5127 -0.9212  0.0144
 2011SOL    MW4 8119   1.601   2.300   3.368  0.0007 -0.8368  0.0107
 2012SOL     OW 8120   1.381   2.414   3.495 -0.1389 -0.4586  0.0305
 2012SOL    HW2 8121   1.370   2.403   3.589 -1.0681 -0.6233 -0.0919
 2012SOL    HW3 8122   1.368   2.507   3.479 -1.4621 -0.6704 -0.1277
 2012SOL    MW4 8123   1.378   2.425   3.505 -0.4361 -0.5083 -0.0067
 2013SOL     OW 8124   1.340   2.683   3.426  0.3337  0.1480  0.2193
 2013SOL    HW2 8125   1.426   2.722   3.442  1.3689 -1.5130 -1.1420
 2013SOL    HW3 8126   1.335   2.674   3.331 -0.6596 -1.3052  0.3877
 2013SOL    MW4 8127   1.351   2.687   3.416  0.3393 -0.2627  0.0622
 2014SOL     OW 8128   1.568   2.814   3.495 -0.3221  0.7476  0.5363
 2014SOL    HW2 8129   1.640   2.761   3.458 -0.4031 -0.2357  1.7650
 2014SOL    HW3 8130   1.554   2.883   3.430 -0.8613 -1.2953 -1.6005
 2014SOL    MW4 8131   1.576   2.816   3.481 -0.4038  0.3483  0.4165
 2015SOL     OW 8132   1.603   3.048   3.346 -0.0701  0.2965  0.2523
 2015SOL    HW2 8133   1.683   3.083   3.385 -0.2935 -0.7291  1.7138
 2015SOL    HW3 8134   1.532   3.096   3.388 -0.2551  0.3342 -0.1043
 2015SOL    MW4 8135   1.604   3.059   3.357 -0.1237  0.1659  0.3979
 2016SOL     OW 8136   1.380   3.158   3.494  0.0456  0.0333 -0.0294
 2016SOL    HW2 8137   1.351   3.181   3.582  1.1062 -1.7863  0.8313
 2016SOL    HW3 8138   1.302   3.121   3.452 -0.6890  1.7055 -0.1717
 2016SOL    MW4 8139   1.366   3.156   3.500  0.0887  0.0138  0.0656
 2017SOL     OW 8140   1.361   3.432   3.416  0.1663 -0.0661 -0.3774
 2017SOL    HW2 8141   1.365   3.346   3.459 -0.2165 -0.7087 -1.6003
 2017SOL    HW3 8142   1.276   3.467   3.441  0.8752  0.5800  1.2461
 2017SOL    MW4 8143   1.351   3.425   3.425  0.2093 -0.0656 -0.3245
 2018SOL     OW 8144   1.571   3.591   3.460 -0.7210  0.2949 -0.3223
 2018SOL    HW2 8145   1.573   3.588   3.556  0.0757  1.2620 -0.2952
 2018SOL    HW3 8146   1.497   3.536   3.436 -0.4200 -0.6544  0.8164
 2018SOL    MW4 8147   1.562   3.583   3.470 -0.5761  0.2973 -0.1686
 2019SOL     OW 8148   1.636   3.845   3.383 -0.3109 -0.1894  0.6112
 2019SOL    HW2 8149   1.626   3.751   3.390 -0.2659 -0.4285 -1.9296
 2019SOL    HW3 8150   1.606   3.866   3.294  0.0141  2.1220  1.0064
 2019SOL    MW4 8151   1.631   3.836   3.372 -0.2620  0.0839  0.3281
 2020SOL     OW 8152   1.400   3.924   3.491  0.2202  0.1014  0.0511
 2020SOL    HW2 8153   1.382   4.012   3.459  0.0109  0.8664  2.1903
 2020SOL    HW3 8154   1.487   3.903   3.459  0.2992  1.1140 -0.3922
 2020SOL    MW4 8155   1.409   3.933   3.483  0.2030  0.3359  0.2749
 2021SOL     OW 8156   1.354   4.183   3.404  0.4202 -0.0113 -0.2838
 2021SOL    HW2 8157   1.281   4.217   3.455 -0.7738 -2.5429 -0.1961
 2021SOL    HW3 8158   1.330   4.200   3.313  0.5011  0.6048 -0.1925
 2021SOL    MW4 8159   1.341   4.190   3.399  0.2733 -0.2642 -0.2599
 2022SOL     OW 8160   1.560   4.349   3.484 -0.1156  0.5535  0.2772
 2022SOL    HW2 8161   1.540   4.341   3.577  0.5961  0.3778  0.4199
 2022SOL    HW3 8162   1.500   4.287   3.441 -0.8158  1.0297  0.5634
 2022SOL    MW4 8163   1.549   4.340   3.490 -0.1142  0.5932  0.3340
 2023SOL     OW 8164   1.980   4.662   3.381 -0.1668  0.2866  0.6042
 2023SOL    HW2 8165   2.058   4.712   3.406  0.3150 -0.9787  1.6965
 2023SOL    HW3 8166   1.907   4.708   3.422 -0.1236  1.9529 -1.0944
 2023SOL    MW4 8167   1.981   4.674   3.389 -0.0975  0.3395  0.5240
 2024SOL     OW 8168   1.781   0.143   3.500  0.4759 -0.0600  0.0032
 2024SOL    HW2 8169   1.793   0.146   3.595  0.1219 -0.4656  0.0633
 2024SOL    HW3 8170   1.707   0.084   3.487 -0.0626  0.7307 -0.4818
 2024SOL    MW4 8171   1.773   0.135   3.511  0.3581 -0.0092 -0.0529
 2025SOL     OW 8172   1.760   0.400   3.418 -0.0366 -0.3111  0.4123
 2025SOL    HW2 8173   1.756   0.306   3.440 -4.1038 -0.6723 -1.3920
 2025SOL    HW3 8174   1.771   0.402   3.323 -0.6143  1.0422  0.3633
 2025SOL    MW4 8175   1.761   0.388   3.408 -0.6493 -0.1802  0.1678
 2026SOL     OW 8176   2.001   0.513   3.493 -0.0408  0.1579 -0.0287
 2026SOL    HW2 8177   2.006   0.604   3.464 -0.2112  0.1609 -0.0481
 2026SOL    HW3 8178   1.911   0.486   3.473  0.3629 -0.3875 -1.1264
 2026SOL    MW4 8179   1.990   0.522   3.486 -0.0103  0.0863 -0.1760
 2027SOL     OW 8180   2.027   0.771   3.403  0.1102 -0.3535  0.1591
 2027SOL    HW2 8181   2.100   0.817   3.446  1.0640 -2.4006  0.8603
 2027SOL    HW3 8182   2.036   0.792   3.311  0.1491  1.3388  0.5366
 2027SOL    MW4 8183   2.038   0.780   3.397  0.2413 -0.4004  0.3014
 2028SOL     OW 8184   1.796   0.897   3.476 -0.0825 -0.1141  0.0694
 2028SOL    HW2 8185   1.879   0.858   3.448 -0.4225  0.2472 -1.4923
 2028SOL    HW3 8186   1.729   0.840   3.440 -0.5474  0.7845 -0.4927
 2028SOL    MW4 8187   1.798   0.885   3.468 -0.1886  0.0522 -0.2108
 2029SOL     OW 8188   1.784   1.169   3.427 -0.2341  0.3231  0.0184
 2029SOL    HW2 8189   1.875   1.194   3.444 -0.3015  1.5341 -1.2759
 2029SOL    HW3 8190   1.779   1.077   3.453  1.4294  0.1752 -0.1327
 2029SOL    MW4 8191   1.795   1.160   3.432 -0.0235  0.4634 -0.1726
 2030SOL     OW 8192   2.050   1.274   3.518  0.1656 -0.1349  0.4266
 2030SOL    HW2 8193   2.047   1.280   3.613 -0.8557  0.1708  0.3729
 2030SOL    HW3 8194   2.031   1.362   3.487  1.7817  0.0705 -0.0478
 2030SOL    MW4 8195   2.047   1.286   3.526  0.2441 -0.0676  0.3569
 2031SOL     OW 8196   2.010   1.540   3.428 -0.1793 -0.4116  0.5908
 2031SOL    HW2 8197   2.086   1.584   3.466  0.4222 -0.5114 -0.4702
 2031SOL    HW3 8198   1.935   1.591   3.459  0.4792  1.1308 -0.2803
 2031SOL    MW4 8199   2.010   1.552   3.437 -0.0134 -0.2214  0.3362
 2032SOL     OW 8200   1.812   1.688   3.548  0.0520 -0.1044 -0.2363
 2032SOL    HW2 8201   1.801   1.767   3.496 -0.9124 -0.7628 -1.0559
 2032SOL    HW3 8202   1.745   1.628   3.515  1.0518 -1.4205  0.0476
 2032SOL    MW4 8203   1.802   1.690   3.536  0.0567 -0.3649 -0.3068
 2033SOL     OW 8204   1.822   1.908   3.402  0.1455 -0.2249  0.2407
 2033SOL    HW2 8205   1.899   1.951   3.440  0.4099 -0.6988  0.2524
 2033SOL    HW3 8206   1.817   1.942   3.313  0.2759 -0.0698  0.2930
 2033SOL    MW4 8207   1.832   1.918   3.395  0.1975 -0.2669  0.2489
 2034SOL     OW 8208   2.031   2.032   3.503 -0.2925 -0.2413 -0.2317
 2034SOL    HW2 8209   2.105   1.992   3.456  0.6168  1.7053 -0.4999
 2034SOL    HW3 8210   2.024   2.119   3.466 -0.4848  0.8283  2.2433
 2034SOL    MW4 8211   2.040   2.038   3.492 -0.1976  0.1566  0.0596
 2035SOL     OW 8212   2.049   2.299   3.403 -0.7248 -0.0219  0.2456
 2035SOL    HW2 8213   2.124   2.353   3.430 -0.0994 -0.7887  0.0697
 2035SOL    HW3 8214   2.048   2.305   3.308  0.7368 -2.1172  0.0661
 2035SOL    MW4 8215   2.059   2.307   3.394 -0.4497 -0.3994  0.1988
 2036SOL     OW 8216   1.808   2.422   3.488  0.0366 -0.1871 -0.4715
 2036SOL    HW2 8217   1.752   2.355   3.449 -0.0776  0.7853 -2.0129
 2036SOL    HW3 8218   1.897   2.388   3.476 -0.1197 -0.9772  0.5337
 2036SOL    MW4 8219   1.813   2.409   3.481  0.0011 -0.1628 -0.5424
 2037SOL     OW 8220   1.793   2.689   3.399  0.3052  0.0925 -0.3342
 2037SOL    HW2 8221   1.881   2.721   3.419  1.0748 -1.6941 -0.7409
 2037SOL    HW3 8222   1.790   2.601   3.436 -1.1901 -0.0146 -0.6617
 2037SOL    MW4 8223   1.804   2.681   3.406  0.2096 -0.1574 -0.4313
 2038SOL     OW 8224   2.052   2.826   3.460  0.0701  0.1762  0.1313
 2038SOL    HW2 8225   2.035   2.839   3.554  0.5495 -1.2459  0.4313
 2038SOL    HW3 8226   2.033   2.911   3.420 -0.4666  0.7021  1.4726
 2038SOL    MW4 8227   2.047   2.839   3.467  0.0627  0.0579  0.3479
 2039SOL     OW 8228   2.030   3.080   3.355  0.3153 -0.5308  0.0512
 2039SOL    HW2 8229   2.105   3.128   3.390  0.7256 -0.3202 -1.0978
 2039SOL    HW3 8230   1.954   3.124   3.393  0.6795  1.2699 -1.2438
 2039SOL    MW4 8231   2.030   3.092   3.365  0.4175 -0.2654 -0.2713
 2040SOL     OW 8232   1.811   3.200   3.463  0.2290  0.0451  0.1555
 2040SOL    HW2 8233   1.788   3.206   3.555 -1.3490  1.3604 -0.3189
 2040SOL    HW3 8234   1.804   3.289   3.430  1.2888 -0.3248 -1.1354
 2040SOL    MW4 8235   1.807   3.212   3.471  0.1606  0.1698 -0.0775
 2041SOL     OW 8236   1.789   3.474   3.365  0.1950  0.5700 -0.2437
 2041SOL    HW2 8237   1.711   3.513   3.404  1.2250  2.5947 -0.1227
 2041SOL    HW3 8238   1.782   3.494   3.271  0.5761  0.7775 -0.2293
 2041SOL    MW4 8239   1.778   3.482   3.358  0.3812  0.8645 -0.2258
 2042SOL     OW 8240   2.025   3.609   3.461 -0.7020 -1.0388  0.4798
 2042SOL    HW2 8241   2.025   3.614   3.557 -0.1965 -4.4760  0.7301
 2042SOL    HW3 8242   1.940   3.569   3.440 -1.2711  0.7137 -0.5928
 2042SOL    MW4 8243   2.014   3.604   3.471 -0.7102 -1.2608  0.3712
 2043SOL     OW 8244   2.037   3.887   3.354  0.1981  0.2175 -0.5404
 2043SOL    HW2 8245   1.955   3.917   3.394  0.0333 -0.4620 -0.3676
 2043SOL    HW3 8246   2.049   3.798   3.387  0.9193  0.2529 -0.7031
 2043SOL    MW4 8247   2.028   3.879   3.364  0.2716  0.1328 -0.5391
 2044SOL     OW 8248   1.811   4.019   3.481 -0.0931 -0.0092 -0.1015
 2044SOL    HW2 8249   1.748   3.957   3.444  0.6180 -0.1825 -1.0482
 2044SOL    HW3 8250   1.800   4.010   3.575 -0.4583 -1.1105 -0.2359
 2044SOL    MW4 8251   1.801   4.010   3.488 -0.0474 -0.1769 -0.2441
 2045SOL     OW 8252   1.791   4.251   3.340 -0.3036 -1.1043 -0.1157
 2045SOL    HW2 8253   1.715   4.291   3.384  0.8929  0.5855  0.4754
 2045SOL    HW3 8254   1.810   4.173   3.391 -0.3235 -0.3702  1.0488
 2045SOL    MW4 8255   1.783   4.246   3.352 -0.1483 -0.7844  0.1159
 2046SOL     OW 8256   2.021   4.400   3.494 -0.2949 -0.9652 -0.2332
 2046SOL    HW2 8257   1.961   4.344   3.445  0.0593 -0.6366 -1.0454
 2046SOL    HW3 8258   2.015   4.485   3.451  0.4651 -0.8322 -0.0830
 2046SOL    MW4 8259   2.012   4.404   3.482 -0.1481 -0.9050 -0.3204
 2047SOL     OW 8260   2.450   4.659   3.414  0.3399 -0.0106 -0.3308
 2047SOL    HW2 8261   2.464   4.567   3.436  0.2770 -0.1586 -0.9148
 2047SOL    HW3 8262   2.441   4.660   3.319 -1.0878  0.4084 -0.2041
 2047SOL    MW4 8263   2.451   4.647   3.404  0.1431  0.0253 -0.3912
 2048SOL     OW 8264   2.220   0.116   3.498 -0.3130  0.0819 -0.0613
 2048SOL    HW2 8265   2.214   0.205   3.463 -0.7435 -0.8184 -2.3193
 2048SOL    HW3 8266   2.305   0.085   3.469 -0.4433 -0.4783  0.1587
 2048SOL    MW4 8267   2.230   0.124   3.490 -0.3870 -0.1108 -0.3300
 2049SOL     OW 8268   2.209   0.373   3.389 -0.7810 -0.2073  0.1784
 2049SOL    HW2 8269   2.290   0.413   3.422 -0.1303  0.1963 -1.8089
 2049SOL    HW3 8270   2.139   0.428   3.423 -0.0266  1.2692 -0.5903
 2049SOL    MW4 8271   2.211   0.385   3.397 -0.5956  0.0407 -0.1855
 2050SOL     OW 8272   2.459   0.484   3.449  0.1837  0.0964 -0.2528
 2050SOL    HW2 8273   2.538   0.455   3.403  0.5153  1.8541 -0.7991
 2050SOL    HW3 8274   2.459   0.579   3.441 -3.1008  0.0222 -2.0473
 2050SOL    MW4 8275   2.469   0.493   3.442 -0.2060  0.3185 -0.5615
 2051SOL     OW 8276   2.479   0.754   3.402 -0.2071 -0.1181 -0.0503
 2051SOL    HW2 8277   2.562   0.783   3.438  0.4583 -1.9013 -0.0815
 2051SOL    HW3 8278   2.487   0.769   3.307  0.5336 -1.3552 -0.1868
 2051SOL    MW4 8279   2.491   0.760   3.394 -0.0215 -0.5167 -0.0725
 2052SOL     OW 8280   2.255   0.892   3.496  0.0770 -0.4651  0.0098
 2052SOL    HW2 8281   2.257   0.976   3.451 -0.5015  0.6675  2.0381
 2052SOL    HW3 8282   2.333   0.846   3.465  1.1720  1.3937 -0.0192
 2052SOL    MW4 8283   2.265   0.897   3.486  0.1452 -0.0704  0.2735
 2053SOL     OW 8284   2.246   1.143   3.385 -0.1478  0.0241 -0.5235
 2053SOL    HW2 8285   2.322   1.189   3.421 -0.6518  0.5219 -0.0760
 2053SOL    HW3 8286   2.173   1.171   3.440 -0.6777 -0.3631 -1.0185
 2053SOL    MW4 8287   2.247   1.153   3.397 -0.2844  0.0386 -0.5298
 2054SOL     OW 8288   2.467   1.249   3.544  0.3050  0.6959 -0.2612
 2054SOL    HW2 8289   2.478   1.266   3.637 -0.4849 -1.6229  0.2984
 2054SOL    HW3 8290   2.540   1.191   3.522 -0.3871 -0.0206 -0.7082
 2054SOL    MW4 8291   2.478   1.243   3.553  0.1094  0.2954 -0.2460
 2055SOL     OW 8292   2.474   1.537   3.428  0.4428  0.0178 -0.4925
 2055SOL    HW2 8293   2.471   1.449   3.464 -2.7063  0.7091  1.1619
 2055SOL    HW3 8294   2.472   1.524   3.333  1.0417 -1.7038 -0.2851
 2055SOL    MW4 8295   2.473   1.524   3.420  0.1066 -0.1180 -0.2470
 2056SOL     OW 8296   2.246   1.682   3.500  0.1968  0.1295 -0.3786
 2056SOL    HW2 8297   2.263   1.687   3.594  1.6965  1.4739 -0.6890
 2056SOL    HW3 8298   2.311   1.619   3.468  0.2830  0.3472 -0.6309
 2056SOL    MW4 8299   2.257   1.675   3.508  0.4060  0.3356 -0.4528
 2057SOL     OW 8300   2.250   1.926   3.388  0.2639 -0.4628 -0.2069
 2057SOL    HW2 8301   2.251   1.836   3.422  2.3095 -0.7891 -1.0120
 2057SOL    HW3 8302   2.229   1.916   3.295  0.4516 -0.1137 -0.2869
 2057SOL    MW4 8303   2.248   1.913   3.381  0.5586 -0.4597 -0.3238
 2058SOL     OW 8304   2.456   2.068   3.516 -0.3331 -0.1508  0.0714
 2058SOL    HW2 8305   2.469   2.048   3.608  0.9489  2.0320  0.4019
 2058SOL    HW3 8306   2.380   2.017   3.490 -0.2547 -1.3387  2.1465
 2058SOL    MW4 8307   2.448   2.059   3.525 -0.1535 -0.0196  0.3889
 2059SOL     OW 8308   2.437   2.306   3.374  0.0168  0.3269  0.0682
 2059SOL    HW2 8309   2.518   2.338   3.414 -0.3649  0.5738  0.6494
 2059SOL    HW3 8310   2.429   2.216   3.406  0.8811 -0.2524 -1.2498
 2059SOL    MW4 8311   2.447   2.298   3.383  0.0806  0.2832 -0.0288
 2060SOL     OW 8312   2.254   2.468   3.487 -0.1650 -0.7734  0.3483
 2060SOL    HW2 8313   2.255   2.538   3.422 -1.1977 -0.5743  0.5311
 2060SOL    HW3 8314   2.318   2.404   3.456  1.8645  0.9201  0.9326
 2060SOL    MW4 8315   2.263   2.469   3.475 -0.0334 -0.5238  0.4494
 2061SOL     OW 8316   2.279   2.709   3.359 -0.1656  0.0695 -0.1274
 2061SOL    HW2 8317   2.198   2.745   3.394 -0.6068  0.2347 -1.3128
 2061SOL    HW3 8318   2.267   2.710   3.264 -0.0028 -2.7106 -0.2314
 2061SOL    MW4 8319   2.267   2.714   3.351 -0.2022 -0.2756 -0.2975
 2062SOL     OW 8320   2.487   2.819   3.501  0.0262  0.0264 -0.0643
 2062SOL    HW2 8321   2.482   2.906   3.463  0.3887  0.1425  0.1459
 2062SOL    HW3 8322   2.425   2.766   3.451 -0.1471  0.3909 -0.2301
 2062SOL    MW4 8323   2.478   2.823   3.489  0.0513  0.0901 -0.0582
 2063SOL     OW 8324   2.475   3.060   3.372  0.0097  0.4376 -0.1331
 2063SOL    HW2 8325   2.556   3.110   3.387 -0.6885  1.7448 -0.7046
 2063SOL    HW3 8326   2.469   3.052   3.277  1.0618 -2.3285 -0.0147
 2063SOL    MW4 8327   2.485   3.065   3.362  0.0567  0.2451 -0.1931
 2064SOL     OW 8328   2.246   3.193   3.483 -0.1163 -0.8057  0.0010
 2064SOL    HW2 8329   2.239   3.176   3.577 -0.0529 -2.8784 -0.3545
 2064SOL    HW3 8330   2.325   3.146   3.456 -1.2800 -1.9153 -1.4701
 2064SOL    MW4 8331   2.256   3.185   3.492 -0.2613 -1.2257 -0.2401
 2065SOL     OW 8332   2.270   3.472   3.401  0.1592  0.1547  0.3507
 2065SOL    HW2 8333   2.258   3.382   3.434 -0.7029 -0.4434 -1.5457
 2065SOL    HW3 8334   2.183   3.512   3.410 -0.0918 -0.0256 -1.2083
 2065SOL    MW4 8335   2.257   3.465   3.407  0.0124  0.0522 -0.1051
 2066SOL     OW 8336   2.461   3.626   3.465 -0.0347 -0.6468 -0.4509
 2066SOL    HW2 8337   2.447   3.708   3.418  0.7928 -0.9060 -1.1682
 2066SOL    HW3 8338   2.383   3.574   3.448 -0.6431  0.0532  0.1545
 2066SOL    MW4 8339   2.449   3.630   3.457 -0.0057 -0.5889 -0.4656
 2067SOL     OW 8340   2.435   3.887   3.361 -0.5151 -0.0450  0.0654
 2067SOL    HW2 8341   2.504   3.938   3.404 -0.9638  0.8007 -0.1896
 2067SOL    HW3 8342   2.354   3.931   3.388 -1.0422 -1.8519  1.4753
 2067SOL    MW4 8343   2.433   3.900   3.370 -0.6437 -0.1719  0.2177
 2068SOL     OW 8344   2.242   4.034   3.506  0.4251  0.2628 -0.2659
 2068SOL    HW2 8345   2.245   4.115   3.456  0.2043 -0.8226 -2.0859
 2068SOL    HW3 8346   2.161   3.991   3.477 -0.8690  0.6070  2.6314
 2068SOL    MW4 8347   2.232   4.039   3.496  0.2251  0.1645 -0.1240
 2069SOL     OW 8348   2.257   4.283   3.377 -0.3119 -0.2015  0.2113
 2069SOL    HW2 8349   2.189   4.337   3.417 -0.0049 -0.2350  0.7828
 2069SOL    HW3 8350   2.229   4.274   3.286 -1.5058 -0.9048  0.6370
 2069SOL    MW4 8351   2.244   4.289   3.371 -0.4289 -0.2980  0.3428
 2070SOL     OW 8352   2.495   4.392   3.474 -0.1210 -0.3511 -0.0163
 2070SOL    HW2 8353   2.483   4.377   3.568 -1.0546  0.9173  0.0707
 2070SOL    HW3 8354   2.414   4.360   3.434 -0.2350  0.2590 -0.2708
 2070SOL    MW4 8355   2.483   4.386   3.481 -0.2594 -0.1035 -0.0384
 2071SOL     OW 8356   2.921   4.650   3.348  0.5357  0.0466 -0.1156
 2071SOL    HW2 8357   2.841   4.686   3.385  0.9896  1.0876 -0.1365
 2071SOL    HW3 8358   2.910   4.658   3.253 -0.2954 -1.9059 -0.2088
 2071SOL    MW4 8359   2.909   4.656   3.340  0.4861 -0.0739 -0.1304
 2072SOL     OW 8360   2.703   0.118   3.483  0.4011  0.4181  0.1768
 2072SOL    HW2 8361   2.697   0.192   3.423 -0.1784 -0.7743 -1.2873
 2072SOL    HW3 8362   2.621   0.070   3.471 -0.4010  0.9616  3.0794
 2072SOL    MW4 8363   2.692   0.121   3.473  0.2189  0.3325  0.3667
 2073SOL     OW 8364   2.684   0.355   3.362 -0.5710  0.0777  0.2321
 2073SOL    HW2 8365   2.755   0.397   3.411 -0.5563 -0.1094  0.3732
 2073SOL    HW3 8366   2.705   0.372   3.271  0.3405 -1.0497  0.2223
 2073SOL    MW4 8367   2.696   0.363   3.357 -0.4487 -0.0958  0.2496
 2074SOL     OW 8368   2.935   0.476   3.467  0.4713 -0.0337  0.3280
 2074SOL    HW2 8369   2.902   0.489   3.555 -0.4993  0.4728 -0.1099
 2074SOL    HW3 8370   2.943   0.564   3.431  2.8580 -0.0886  0.6202
 2074SOL    MW4 8371   2.932   0.489   3.474  0.6580  0.0259  0.3085
 2075SOL     OW 8372   2.921   0.761   3.411 -0.2260  0.3612  0.3804
 2075SOL    HW2 8373   3.000   0.786   3.459  0.0438 -1.1683  0.7677
 2075SOL    HW3 8374   2.849   0.783   3.470  0.1161 -1.7537  1.6392
 2075SOL    MW4 8375   2.922   0.767   3.425 -0.1454 -0.1197  0.5975
 2076SOL     OW 8376   2.696   0.841   3.536  0.3516 -0.1069  0.0724
 2076SOL    HW2 8377   2.712   0.853   3.630 -0.7099  0.3267  0.2026
 2076SOL    HW3 8378   2.697   0.929   3.500 -0.1044 -0.2083 -0.1850
 2076SOL    MW4 8379   2.698   0.854   3.544  0.1512 -0.0631  0.0558
 2077SOL     OW 8380   2.686   1.095   3.420  0.5177 -0.5307 -0.2999
 2077SOL    HW2 8381   2.753   1.157   3.447 -1.1745 -0.1615  3.2213
 2077SOL    HW3 8382   2.662   1.123   3.331  1.6222  2.2497  0.2301
 2077SOL    MW4 8383   2.691   1.107   3.412  0.4401 -0.1150  0.2348
 2078SOL     OW 8384   2.897   1.266   3.501  0.1149 -0.0933  0.0163
 2078SOL    HW2 8385   2.900   1.265   3.596  0.5244  0.7456  0.0181
 2078SOL    HW3 8386   2.969   1.209   3.474 -0.4494 -0.9038  0.2067
 2078SOL    MW4 8387   2.907   1.258   3.510  0.0944 -0.0896  0.0420
 2079SOL     OW 8388   2.886   1.517   3.391 -0.1143  0.0264 -0.1850
 2079SOL    HW2 8389   2.832   1.561   3.457  0.6441  1.3796 -0.4552
 2079SOL    HW3 8390   2.907   1.432   3.430  0.0941  0.7108  1.2108
 2079SOL    MW4 8391   2.882   1.512   3.405  0.0134  0.2953 -0.0367
 2080SOL     OW 8392   2.708   1.654   3.531 -0.0811  0.5408  0.1682
 2080SOL    HW2 8393   2.703   1.748   3.509  0.4072  0.2997 -1.0032
 2080SOL    HW3 8394   2.626   1.618   3.497  0.8711  0.0866 -1.7346
 2080SOL    MW4 8395   2.696   1.662   3.523  0.1090  0.4491 -0.2375
 2081SOL     OW 8396   2.688   1.907   3.457  0.4647  0.1010 -0.2159
 2081SOL    HW2 8397   2.616   1.964   3.485  1.4010  1.7751 -1.1290
 2081SOL    HW3 8398   2.766   1.962   3.465  1.2822 -0.7681 -1.9647
 2081SOL    MW4 8399   2.689   1.922   3.462  0.6962  0.2072 -0.5670
 2082SOL     OW 8400   2.913   2.068   3.518  0.4959 -0.1031 -0.2131
 2082SOL    HW2 8401   2.903   2.073   3.613 -0.5189 -1.5877 -0.2178
 2082SOL    HW3 8402   2.906   2.158   3.488  0.3533  0.3287  1.0813
 2082SOL    MW4 8403   2.911   2.080   3.527  0.3431 -0.2420 -0.0429
 2083SOL     OW 8404   2.916   2.311   3.392  0.1372 -0.5766  0.2204
 2083SOL    HW2 8405   2.892   2.304   3.300  1.6288 -0.2547 -0.2150
 2083SOL    HW3 8406   2.865   2.385   3.425  0.1629 -0.2108 -0.5497
 2083SOL    MW4 8407   2.906   2.320   3.384  0.3374 -0.4859  0.0613
 2084SOL     OW 8408   2.671   2.446   3.455 -0.1544 -0.3028  0.5231
 2084SOL    HW2 8409   2.650   2.449   3.548  0.0754 -0.0513  0.5693
 2084SOL    HW3 8410   2.679   2.538   3.430  0.8119 -0.3851  0.4954
 2084SOL    MW4 8411   2.669   2.458   3.464  0.0031 -0.2804  0.5257
 2085SOL     OW 8412   2.706   2.707   3.372  0.2658  0.0349  0.2285
 2085SOL    HW2 8413   2.634   2.751   3.418 -0.7133 -1.1554 -0.1122
 2085SOL    HW3 8414   2.785   2.754   3.399 -0.7389  1.9764 -0.1308
 2085SOL    MW4 8415   2.707   2.719   3.382  0.0038  0.1340  0.1364
 2086SOL     OW 8416   2.949   2.825   3.463  0.7616 -0.3374  0.0524
 2086SOL    HW2 8417   2.920   2.820   3.554 -1.8044 -2.9891 -0.7983
 2086SOL    HW3 8418   3.005   2.748   3.451 -1.0567 -1.5194 -1.2210
 2086SOL    MW4 8419   2.952   2.814   3.473  0.1831 -0.8430 -0.2277
 2087SOL     OW 8420   2.917   3.103   3.368  0.3737 -0.3237  0.2521
 2087SOL    HW2 8421   2.923   3.099   3.273 -0.8201  0.6900  0.1045
 2087SOL    HW3 8422   2.923   3.012   3.397 -0.6730 -0.7835 -0.9077
 2087SOL    MW4 8423   2.918   3.091   3.359  0.0782 -0.2508  0.0796
 2088SOL     OW 8424   2.698   3.242   3.455 -0.2562 -0.0228  0.2863
 2088SOL    HW2 8425   2.690   3.240   3.550  1.1952  1.6653  0.4705
 2088SOL    HW3 8426   2.782   3.200   3.437 -0.3431  0.0182 -0.2230
 2088SOL    MW4 8427   2.708   3.237   3.465 -0.0761  0.2050  0.2434
 2089SOL     OW 8428   2.684   3.501   3.352 -0.3584 -0.7638 -0.0816
 2089SOL    HW2 8429   2.698   3.421   3.402 -0.6103 -0.9160 -0.2579
 2089SOL    HW3 8430   2.621   3.551   3.403  0.8051 -0.0744  0.7188
 2089SOL    MW4 8431   2.678   3.497   3.365 -0.2379 -0.6928  0.0010
 2090SOL     OW 8432   2.918   3.624   3.442  0.1660  0.1771 -0.4562
 2090SOL    HW2 8433   2.910   3.705   3.392 -0.6166 -0.6581 -1.7143
 2090SOL    HW3 8434   2.843   3.571   3.415  1.5524 -1.6329 -0.9098
 2090SOL    MW4 8435   2.907   3.628   3.431  0.2456 -0.1719 -0.6821
 2091SOL     OW 8436   2.927   3.873   3.307  0.1023  0.1736  0.1637
 2091SOL    HW2 8437   2.994   3.924   3.352  0.5235  2.0577 -2.4857
 2091SOL    HW3 8438   2.845   3.918   3.327 -0.1687 -0.9823  1.7781
 2091SOL    MW4 8439   2.925   3.886   3.316  0.1223  0.2694  0.0269
 2092SOL     OW 8440   2.699   3.984   3.412  0.0828 -0.1315  0.6327
 2092SOL    HW2 8441   2.704   3.989   3.508 -0.3701  0.3608  0.6336
 2092SOL    HW3 8442   2.704   4.076   3.383 -1.8567 -0.1123  0.2975
 2092SOL    MW4 8443   2.700   3.997   3.421 -0.2327 -0.0639  0.5882
 2093SOL     OW 8444   2.706   4.256   3.340 -0.0648 -0.1292  0.1196
 2093SOL    HW2 8445   2.788   4.300   3.365 -0.4588  2.4391 -2.7787
 2093SOL    HW3 8446   2.638   4.302   3.389  0.0022 -0.7073  0.7529
 2093SOL    MW4 8447   2.708   4.268   3.350 -0.1082  0.1340 -0.1793
 2094SOL     OW 8448   2.932   4.373   3.455  0.0378 -0.3513 -0.1608
 2094SOL    HW2 8449   2.931   4.379   3.551  1.5608 -1.0750 -0.0867
 2094SOL    HW3 8450   2.905   4.460   3.425 -1.0993 -0.3201  0.9235
 2094SOL    MW4 8451   2.929   4.385   3.464  0.0887 -0.4425 -0.0081
 2095SOL     OW 8452   3.353   4.625   3.394  0.0879  0.6131 -0.2522
 2095SOL    HW2 8453   3.278   4.679   3.420 -2.8900 -3.3987  0.0430
 2095SOL    HW3 8454   3.340   4.609   3.301 -0.8805 -2.1308  0.3139
 2095SOL    MW4 8455   3.342   4.630   3.385 -0.4327 -0.2780 -0.1383
 2096SOL     OW 8456   3.143   0.096   3.484 -0.4445  0.1504  0.8379
 2096SOL    HW2 8457   3.140   0.177   3.433  1.0698 -0.2075  0.1572
 2096SOL    HW3 8458   3.061   0.051   3.462  0.0298  0.1673 -1.0378
 2096SOL    MW4 8459   3.132   0.100   3.474 -0.1822  0.1054  0.5007
 2097SOL     OW 8460   3.165   0.371   3.375  0.2459 -0.4587  0.0616
 2097SOL    HW2 8461   3.083   0.401   3.415  0.6970  0.1354  0.5397
 2097SOL    HW3 8462   3.147   0.373   3.281 -0.6998 -1.5213  0.2043
 2097SOL    MW4 8463   3.152   0.375   3.368  0.1807 -0.5205  0.1433
 2098SOL     OW 8464   3.385   0.498   3.510 -0.3818  0.5040  0.2469
 2098SOL    HW2 8465   3.363   0.493   3.604  0.2903  3.2640  0.5860
 2098SOL    HW3 8466   3.303   0.475   3.466 -1.2717  1.1402  1.5112
 2098SOL    MW4 8467   3.371   0.495   3.517 -0.4108  0.9521  0.4585
 2099SOL     OW 8468   3.360   0.769   3.417 -0.1266  0.0207  0.4723
 2099SOL    HW2 8469   3.443   0.816   3.416 -1.0383  1.6750 -0.5436
 2099SOL    HW3 8470   3.382   0.681   3.447  1.9102  0.5689  0.6457
 2099SOL    MW4 8471   3.374   0.763   3.421  0.0217  0.3113  0.3610
 2100SOL     OW 8472   3.144   0.864   3.558 -0.1927 -0.3262  0.0425
 2100SOL    HW2 8473   3.153   0.956   3.534 -0.9646  0.0344  1.0682
 2100SOL    HW3 8474   3.213   0.819   3.509 -1.3034  0.4485 -2.3451
 2100SOL    MW4 8475   3.154   0.870   3.548 -0.4411 -0.1764 -0.1376
 2101SOL     OW 8476   3.118   1.131   3.437  0.1150 -0.0817  0.2230
 2101SOL    HW2 8477   3.186   1.195   3.456 -1.3508  1.7465 -0.5806
 2101SOL    HW3 8478   3.140   1.098   3.350 -0.7364  1.4679 -0.5952
 2101SOL    MW4 8479   3.130   1.135   3.428 -0.1907  0.3639  0.0088
 2102SOL     OW 8480   3.338   1.294   3.513 -0.3601  0.6684 -0.3219
 2102SOL    HW2 8481   3.408   1.236   3.481 -0.4605 -0.5043  1.5142
 2102SOL    HW3 8482   3.356   1.378   3.470  0.5549 -0.3521 -2.0127
 2102SOL    MW4 8483   3.350   1.298   3.503 -0.2527  0.3791 -0.3028
 2103SOL     OW 8484   3.359   1.535   3.382 -0.1179 -0.0392 -0.1206
 2103SOL    HW2 8485   3.431   1.593   3.408  0.5774 -0.5148 -0.9645
 2103SOL    HW3 8486   3.281   1.576   3.420  0.5957  0.4705  0.8201
 2103SOL    MW4 8487   3.358   1.548   3.391  0.0679 -0.0347 -0.1078
 2104SOL     OW 8488   3.111   1.672   3.492 -0.0387  0.0290 -0.0416
 2104SOL    HW2 8489   3.118   1.765   3.470 -0.6682 -0.2493 -1.4567
 2104SOL    HW3 8490   3.035   1.641   3.443 -0.6926 -0.9195  1.5542
 2104SOL    MW4 8491   3.102   1.680   3.483 -0.2079 -0.1328 -0.0176
 2105SOL     OW 8492   3.116   1.933   3.403 -0.3568 -0.2966  0.2390
 2105SOL    HW2 8493   3.045   1.991   3.431 -0.6886 -0.6032  0.0482
 2105SOL    HW3 8494   3.193   1.964   3.450 -0.2896  0.9908 -0.6969
 2105SOL    MW4 8495   3.117   1.945   3.413 -0.3917 -0.1671  0.0901
 2106SOL     OW 8496   3.362   2.031   3.498  0.3489 -0.1700  0.1364
 2106SOL    HW2 8497   3.380   2.118   3.462  1.4861 -0.7342 -0.6965
 2106SOL    HW3 8498   3.373   2.042   3.593 -1.2985  1.0032  0.2047
 2106SOL    MW4 8499   3.366   2.044   3.506  0.2816 -0.0899  0.0355
 2107SOL     OW 8500   3.432   2.297   3.359  0.1621 -0.3033  0.0823
 2107SOL    HW2 8501   3.490   2.355   3.410  0.5987 -1.2883  0.7254
 2107SOL    HW3 8502   3.344   2.324   3.384  0.3619 -0.0277  0.5028
 2107SOL    MW4 8503   3.428   2.308   3.369  0.2460 -0.3970  0.2227
 2108SOL     OW 8504   3.200   2.375   3.475 -0.2685 -0.6178 -0.2804
 2108SOL    HW2 8505   3.112   2.357   3.441 -0.5606  0.7916 -0.3261
 2108SOL    HW3 8506   3.187   2.387   3.569 -0.0003 -1.1322 -0.1753
 2108SOL    MW4 8507   3.187   2.374   3.483 -0.2718 -0.4995 -0.2723
 2109SOL     OW 8508   3.141   2.630   3.388  0.0479 -0.1341 -0.5288
 2109SOL    HW2 8509   3.207   2.683   3.431 -1.2994  0.3567  1.0089
 2109SOL    HW3 8510   3.157   2.541   3.419  0.0064 -0.0169 -0.1684
 2109SOL    MW4 8511   3.152   2.625   3.398 -0.1354 -0.0539 -0.2782
 2110SOL     OW 8512   3.323   2.804   3.488  0.1989 -0.2654  0.3608
 2110SOL    HW2 8513   3.336   2.816   3.582  0.3985 -0.0067  0.2979
 2110SOL    HW3 8514   3.403   2.761   3.457  0.5698  0.5817  0.1260
 2110SOL    MW4 8515   3.335   2.800   3.496  0.2742 -0.1194  0.3214
 2111SOL     OW 8516   3.538   3.208   3.509 -0.3077  0.5034 -0.2435
 2111SOL    HW2 8517   3.466   3.168   3.459 -0.6731  0.8874 -0.0310
 2111SOL    HW3 8518   3.616   3.160   3.482 -0.3308  1.4323 -2.0283
 2111SOL    MW4 8519   3.539   3.196   3.499 -0.3593  0.6764 -0.4511
 2112SOL     OW 8520   3.336   3.075   3.352  0.3482 -0.2029  0.2854
 2112SOL    HW2 8521   3.268   3.127   3.393 -0.4994  0.2809 -1.6837
 2112SOL    HW3 8522   3.331   2.990   3.395 -0.5435  0.2762  1.1380
 2112SOL    MW4 8523   3.327   3.071   3.363  0.1187 -0.0758  0.1380
 2113SOL     OW 8524   3.148   3.220   3.490 -0.0337 -0.8416 -0.1810
 2113SOL    HW2 8525   3.082   3.179   3.434 -1.6469 -0.2743  1.2320
 2113SOL    HW3 8526   3.157   3.309   3.456 -0.9644 -0.5181  0.3881
 2113SOL    MW4 8527   3.141   3.226   3.478 -0.3691 -0.7238  0.0803
 2114SOL     OW 8528   3.114   3.454   3.336 -0.3315  0.3710  0.0965
 2114SOL    HW2 8529   3.129   3.480   3.245 -2.1786 -0.5328 -0.4759
 2114SOL    HW3 8530   3.037   3.503   3.363 -0.0178  0.3470  1.0619
 2114SOL    MW4 8531   3.106   3.464   3.328 -0.5341  0.2487  0.1483
 2115SOL     OW 8532   3.319   3.837   3.363 -0.2735  0.2443  0.1377
 2115SOL    HW2 8533   3.390   3.881   3.410 -0.7319  0.4230  0.6758
 2115SOL    HW3 8534   3.240   3.886   3.388 -0.6983 -0.4824  0.2269
 2115SOL    MW4 8535   3.318   3.849   3.373 -0.3898  0.1719  0.2208
 2116SOL     OW 8536   3.112   3.984   3.466  0.4429 -0.1102  0.2707
 2116SOL    HW2 8537   3.134   3.988   3.559  0.8771  1.3723  0.1201
 2116SOL    HW3 8538   3.143   4.067   3.431 -1.4311  0.1476 -0.8292
 2116SOL    MW4 8539   3.119   3.995   3.474  0.2527  0.1192  0.1059
 2117SOL     OW 8540   3.158   4.243   3.351 -0.3349 -0.2536 -0.1296
 2117SOL    HW2 8541   3.232   4.290   3.389  1.7992 -3.1914 -0.5449
 2117SOL    HW3 8542   3.083   4.271   3.404  1.4541  0.8959  1.8887
 2117SOL    MW4 8543   3.157   4.253   3.363  0.1826 -0.4897  0.0818
 2118SOL     OW 8544   3.362   4.373   3.503  0.7097  0.0618  0.0763
 2118SOL    HW2 8545   3.344   4.377   3.597 -0.0378  0.2899 -0.0705
 2118SOL    HW3 8546   3.359   4.464   3.474  0.3204 -0.0658 -0.2832
 2118SOL    MW4 8547   3.359   4.385   3.511  0.5598  0.0749  0.0093
 2119SOL     OW 8548   3.773   4.578   3.441  0.4147 -0.0102 -0.3799
 2119SOL    HW2 8549   3.705   4.620   3.494 -0.1519 -0.5872 -0.6399
 2119SOL    HW3 8550   3.852   4.631   3.456  0.0862  0.2341  0.4944
 2119SOL    MW4 8551   3.775   4.591   3.450  0.2968 -0.0539 -0.2987
 2120SOL     OW 8552   3.566   0.075   3.540  0.2531 -0.2478 -0.4248
 2120SOL    HW2 8553   3.574   0.168   3.518  1.0365 -0.1367  0.2714
 2120SOL    HW3 8554   3.499   0.042   3.481 -1.6161  1.2522  0.8041
 2120SOL    MW4 8555   3.558   0.083   3.529  0.1099 -0.0352 -0.1709
 2121SOL     OW 8556   3.573   0.327   3.418 -0.1060  0.3905 -0.2670
 2121SOL    HW2 8557   3.657   0.358   3.452 -0.3349  1.4450 -0.6227
 2121SOL    HW3 8558   3.509   0.390   3.453 -0.5137  0.6585 -1.4670
 2121SOL    MW4 8559   3.575   0.340   3.427 -0.1898  0.5649 -0.4721
 2122SOL     OW 8560   3.799   0.447   3.506 -0.5569 -0.0606 -0.3666
 2122SOL    HW2 8561   3.802   0.450   3.602  0.1592  3.3461 -0.4405
 2122SOL    HW3 8562   3.888   0.422   3.480 -0.6864 -0.7484 -0.1537
 2122SOL    MW4 8563   3.812   0.444   3.515 -0.4792  0.2981 -0.3483
 2123SOL     OW 8564   3.815   0.691   3.391 -0.1276  0.2612  0.7633
 2123SOL    HW2 8565   3.894   0.726   3.431  0.2850 -1.8433  1.8356
 2123SOL    HW3 8566   3.810   0.601   3.422 -1.0530 -0.7152 -2.0775
 2123SOL    MW4 8567   3.825   0.684   3.400 -0.1955 -0.1453  0.5300
 2124SOL     OW 8568   3.605   0.897   3.419  0.3125 -0.1408 -0.3383
 2124SOL    HW2 8569   3.602   0.859   3.507 -0.9299  0.5454 -0.0597
 2124SOL    HW3 8570   3.669   0.845   3.372  1.6723  0.0550  1.2536
 2124SOL    MW4 8571   3.613   0.885   3.424  0.3281 -0.0244 -0.0913
 2125SOL     OW 8572   3.565   1.158   3.390  0.0988  0.3485  0.0649
 2125SOL    HW2 8573   3.587   1.066   3.407 -1.7572 -0.2469 -0.6216
 2125SOL    HW3 8574   3.566   1.165   3.295 -0.6336  0.8138  0.0883
 2125SOL    MW4 8575   3.568   1.147   3.380 -0.2427  0.3313 -0.0224
 2126SOL     OW 8576   3.816   1.271   3.460 -0.0796 -0.0679 -0.1202
 2126SOL    HW2 8577   3.806   1.266   3.555 -0.8590 -1.1602 -0.2558
 2126SOL    HW3 8578   3.731   1.242   3.425 -0.0085  0.8863 -1.1493
 2126SOL    MW4 8579   3.803   1.267   3.468 -0.1729 -0.0861 -0.2737
 2127SOL     OW 8580   3.835   1.562   3.430 -0.1399 -0.4625 -0.4897
 2127SOL    HW2 8581   3.923   1.587   3.459  1.0946 -1.3560 -3.3067
 2127SOL    HW3 8582   3.834   1.466   3.436  0.2440 -0.7051 -3.4551
 2127SOL    MW4 8583   3.846   1.552   3.435  0.0734 -0.6124 -1.2527
 2128SOL     OW 8584   3.599   1.655   3.536 -0.1602 -0.0117 -0.0269
 2128SOL    HW2 8585   3.602   1.748   3.511  0.0400  0.6005  2.1498
 2128SOL    HW3 8586   3.683   1.620   3.509 -0.1882  0.4663 -0.7538
 2128SOL    MW4 8587   3.610   1.663   3.529 -0.1373  0.1321  0.1643
 2129SOL     OW 8588   3.615   1.908   3.442  0.1556  0.0783 -0.0987
 2129SOL    HW2 8589   3.691   1.963   3.459  0.1718 -0.2830  0.9946
 2129SOL    HW3 8590   3.540   1.963   3.464  0.1470 -0.0499  0.1975
 2129SOL    MW4 8591   3.615   1.922   3.447  0.1564  0.0137  0.0846
 2130SOL     OW 8592   3.829   2.084   3.538  0.8488 -0.1956 -0.3242
 2130SOL    HW2 8593   3.825   2.066   3.632 -0.0985 -0.0623 -0.3353
 2130SOL    HW3 8594   3.909   2.041   3.509  1.7832  0.7673  0.7583
 2130SOL    MW4 8595   3.839   2.076   3.546  0.8473 -0.0510 -0.1829
 2131SOL     OW 8596   3.762   2.317   3.396  0.3399  0.3319  0.0312
 2131SOL    HW2 8597   3.753   2.227   3.429  1.2916 -0.7054 -2.4187
 2131SOL    HW3 8598   3.850   2.344   3.425  0.0621  0.4788  0.7507
 2131SOL    MW4 8599   3.773   2.309   3.404  0.4287  0.2146 -0.1969
 2132SOL     OW 8600   3.584   2.482   3.530  0.4158  0.5176  0.6669
 2132SOL    HW2 8601   3.651   2.420   3.499 -0.6769 -0.9251  1.1478
 2132SOL    HW3 8602   3.579   2.466   3.624 -0.1603  1.0648  0.7266
 2132SOL    MW4 8603   3.592   2.472   3.538  0.1957  0.3996  0.7381
 2133SOL     OW 8604   3.576   2.725   3.396 -0.3196  0.2731 -0.0287
 2133SOL    HW2 8605   3.664   2.760   3.409 -0.2199 -0.4657  1.3788
 2133SOL    HW3 8606   3.584   2.632   3.416 -1.4586  0.2353  0.2754
 2133SOL    MW4 8607   3.589   2.717   3.400 -0.4566  0.1707  0.1969
 2134SOL     OW 8608   3.823   2.824   3.495  0.2155  0.0815 -0.0303
 2134SOL    HW2 8609   3.799   2.817   3.588  1.6380 -1.2532  0.2631
 2134SOL    HW3 8610   3.817   2.918   3.476 -0.3746  0.3384  1.3263
 2134SOL    MW4 8611   3.819   2.836   3.505  0.3257 -0.0608  0.1874
 2135SOL     OW 8612   3.832   3.064   3.111  0.0076 -0.4156 -0.0034
 2135SOL    HW2 8613   3.888   3.124   3.062 -0.1709  0.2349  0.5728
 2135SOL    HW3 8614   3.743   3.094   3.093 -0.0666 -0.2689  0.5786
 2135SOL    MW4 8615   3.828   3.076   3.102 -0.0255 -0.3107  0.1495
 2136SOL     OW 8616   3.795   3.101   3.411  0.4188  0.3545  0.3705
 2136SOL    HW2 8617   3.877   3.138   3.444  0.0085  1.0421  0.6065
 2136SOL    HW3 8618   3.809   3.092   3.317  1.1300 -0.4505  0.5444
 2136SOL    MW4 8619   3.808   3.104   3.403  0.4585  0.3390  0.4249
 2137SOL     OW 8620   3.572   3.463   3.409  0.6980 -0.7537  0.2111
 2137SOL    HW2 8621   3.567   3.372   3.439  0.1494 -0.8336 -0.1179
 2137SOL    HW3 8622   3.491   3.503   3.441 -0.1065 -0.9488 -1.5012
 2137SOL    MW4 8623   3.560   3.456   3.417  0.5195 -0.7899 -0.0582
 2138SOL     OW 8624   3.807   3.590   3.469  0.0796 -0.3026 -0.0275
 2138SOL    HW2 8625   3.796   3.594   3.564 -0.6592  2.1381 -0.1576
 2138SOL    HW3 8626   3.724   3.553   3.437 -0.2396  0.2056  0.2029
 2138SOL    MW4 8627   3.794   3.586   3.477 -0.0601  0.0863 -0.0143
 2139SOL     OW 8628   3.785   3.845   3.406  0.0876 -0.5676 -0.2773
 2139SOL    HW2 8629   3.699   3.878   3.434  1.8335  2.4614  1.7821
 2139SOL    HW3 8630   3.789   3.757   3.443 -1.2548  0.0818  1.5016
 2139SOL    MW4 8631   3.774   3.838   3.415  0.1409 -0.0823  0.2289
 2140SOL     OW 8632   3.537   3.939   3.489 -0.3607  0.3512 -0.3105
 2140SOL    HW2 8633   3.533   3.933   3.584 -0.6206 -0.0301 -0.3460
 2140SOL    HW3 8634   3.538   4.033   3.471  1.0787  0.4223  0.1246
 2140SOL    MW4 8635   3.537   3.951   3.499 -0.2053  0.3102 -0.2575
 2141SOL     OW 8636   3.561   4.207   3.395  0.1122  0.5112  0.7436
 2141SOL    HW2 8637   3.489   4.260   3.429  0.0602  0.9140  0.0243
 2141SOL    HW3 8638   3.551   4.211   3.300 -0.7412 -2.0133  0.7024
 2141SOL    MW4 8639   3.550   4.215   3.387 -0.0076  0.2313  0.6433
 2142SOL     OW 8640   3.767   4.317   3.538 -0.2305  0.2332  0.8033
 2142SOL    HW2 8641   3.703   4.277   3.479  0.1800 -0.7609  1.0164
 2142SOL    HW3 8642   3.757   4.411   3.524  0.0818 -0.0047 -1.0797
 2142SOL    MW4 8643   3.757   4.324   3.528 -0.1349  0.0701  0.5829
 2143SOL     OW 8644   4.299   4.646   3.402 -0.1025 -0.2543  0.2850
 2143SOL    HW2 8645   4.302   4.554   3.429 -2.2027 -0.0763  1.1663
 2143SOL    HW3 8646   4.380   4.684   3.437  2.1605 -2.3637 -2.4275
 2143SOL    MW4 8647   4.310   4.639   3.410 -0.0811 -0.5093  0.0434
 2144SOL     OW 8648   4.025   0.076   3.477 -0.3274 -0.2318  0.4364
 2144SOL    HW2 8649   4.090   0.038   3.418 -0.8316 -0.5716  0.0927
 2144SOL    HW3 8650   4.070   0.085   3.561  0.5855  0.8222 -0.1522
 2144SOL    MW4 8651   4.040   0.072   3.480 -0.2737 -0.1376  0.3133
 2145SOL     OW 8652   4.041   0.347   3.412  0.2630  0.2367  0.0900
 2145SOL    HW2 8653   4.063   0.260   3.445 -0.7179  0.5230  1.5501
 2145SOL    HW3 8654   4.037   0.337   3.317  1.3396 -1.0308  0.1588
 2145SOL    MW4 8655   4.044   0.335   3.404  0.2751  0.1073  0.2916
 2146SOL     OW 8656   4.293   0.477   3.503  0.5582 -0.2363 -0.1358
 2146SOL    HW2 8657   4.296   0.565   3.465  0.3648  0.5751  1.6936
 2146SOL    HW3 8658   4.213   0.439   3.468  0.0282  0.7439  0.0003
 2146SOL    MW4 8659   4.283   0.484   3.493  0.4625  0.0001  0.1237
 2147SOL     OW 8660   4.294   0.727   3.388  0.0829 -0.1984  0.1449
 2147SOL    HW2 8661   4.377   0.768   3.414 -0.4591  0.9571  0.1070
 2147SOL    HW3 8662   4.288   0.745   3.294 -0.2920 -0.1096  0.1852
 2147SOL    MW4 8663   4.304   0.735   3.379 -0.0386 -0.0342  0.1452
 2148SOL     OW 8664   4.026   0.853   3.456 -0.0443  0.3348 -0.3083
 2148SOL    HW2 8665   4.044   0.943   3.427  0.3485  0.1047 -0.7869
 2148SOL    HW3 8666   4.108   0.806   3.441 -0.6910 -0.4499 -1.4096
 2148SOL    MW4 8667   4.039   0.859   3.450 -0.0777  0.2010 -0.5167
 2149SOL     OW 8668   4.057   1.137   3.410 -0.0917 -0.5719 -0.5337
 2149SOL    HW2 8669   4.120   1.199   3.448  1.0143 -0.0481 -3.0857
 2149SOL    HW3 8670   3.972   1.175   3.427  0.4080 -0.0277  0.8128
 2149SOL    MW4 8671   4.054   1.150   3.417  0.1197 -0.4311 -0.6928
 2150SOL     OW 8672   4.258   1.293   3.501 -0.3789  0.4415 -0.6131
 2150SOL    HW2 8673   4.277   1.361   3.437  2.0761  0.0349 -0.3785
 2150SOL    HW3 8674   4.315   1.220   3.477 -2.6626 -1.4211 -0.6293
 2150SOL    MW4 8675   4.268   1.292   3.490 -0.3562  0.1421 -0.5844
 2151SOL     OW 8676   4.266   1.504   3.327  0.0304 -0.2372 -0.2330
 2151SOL    HW2 8677   4.195   1.553   3.369  0.5894 -0.1299  0.6022
 2151SOL    HW3 8678   4.253   1.519   3.233 -0.1327  1.0559 -0.0190
 2151SOL    MW4 8679   4.255   1.513   3.320  0.0830 -0.0525 -0.0947
 2152SOL     OW 8680   4.096   1.664   3.485  0.1664  0.2431 -0.0778
 2152SOL    HW2 8681   4.101   1.658   3.581  1.9920  0.0293 -0.1856
 2152SOL    HW3 8682   4.088   1.757   3.467  1.0243  0.3813  0.2358
 2152SOL    MW4 8683   4.095   1.675   3.496  0.5198  0.2331 -0.0505
 2153SOL     OW 8684   4.036   1.926   3.403  0.0473 -0.1452  0.0530
 2153SOL    HW2 8685   4.116   1.976   3.417 -0.4726  0.5985  0.3603
 2153SOL    HW3 8686   4.035   1.909   3.308  0.7423 -0.4663  0.0975
 2153SOL    MW4 8687   4.046   1.930   3.392  0.0706 -0.0895  0.0994
 2154SOL     OW 8688   4.258   2.068   3.435 -0.4618  0.2889 -0.0061
 2154SOL    HW2 8689   4.277   2.094   3.525  0.2097 -2.7991  0.7968
 2154SOL    HW3 8690   4.340   2.032   3.402 -0.9479  0.5454 -1.5749
 2154SOL    MW4 8691   4.271   2.067   3.442 -0.4373 -0.0846 -0.1070
 2155SOL     OW 8692   4.244   2.324   3.362 -0.5060 -1.0440  0.0242
 2155SOL    HW2 8693   4.235   2.231   3.382  0.8714 -1.1059  0.4189
 2155SOL    HW3 8694   4.257   2.327   3.267 -0.0632 -1.2946  0.0761
 2155SOL    MW4 8695   4.245   2.313   3.352 -0.2656 -1.0853  0.0832
 2156SOL     OW 8696   4.016   2.415   3.453 -0.5452  0.0589  0.2776
 2156SOL    HW2 8697   4.094   2.381   3.408 -0.6101  0.2822 -0.0067
 2156SOL    HW3 8698   4.018   2.509   3.435 -0.7864  0.0894  0.4172
 2156SOL    MW4 8699   4.027   2.423   3.444 -0.5860  0.0925  0.2587
 2157SOL     OW 8700   4.019   2.672   3.365 -0.2780 -0.3308 -0.0183
 2157SOL    HW2 8701   4.102   2.707   3.395 -0.9944  1.3721  0.0179
 2157SOL    HW3 8702   3.953   2.724   3.410 -1.3621 -0.4183 -1.4714
 2157SOL    MW4 8703   4.021   2.683   3.375 -0.5155 -0.1175 -0.2050
 2158SOL     OW 8704   4.254   2.822   3.450  0.0387 -0.1952 -0.1963
 2158SOL    HW2 8705   4.258   2.829   3.546 -1.8896  0.0271 -0.1077
 2158SOL    HW3 8706   4.330   2.768   3.427  1.2305  0.7464  1.3382
 2158SOL    MW4 8707   4.265   2.816   3.460 -0.0577 -0.0415  0.0179
 2159SOL     OW 8708   4.279   3.093   3.380  0.1614  0.3499 -0.2303
 2159SOL    HW2 8709   4.191   3.127   3.396 -0.3715  0.0667 -2.5114
 2159SOL    HW3 8710   4.270   2.998   3.385  0.3350  0.3188 -0.5252
 2159SOL    MW4 8711   4.266   3.085   3.383  0.1135  0.3085 -0.5701
 2160SOL     OW 8712   4.038   3.195   3.484  0.2585  0.2861 -0.2249
 2160SOL    HW2 8713   4.046   3.287   3.461 -1.2527  0.6602  0.6517
 2160SOL    HW3 8714   4.041   3.193   3.579 -2.1249 -0.2620 -0.1168
 2160SOL    MW4 8715   4.039   3.207   3.493 -0.2561  0.2627 -0.0949
 2161SOL     OW 8716   4.030   3.447   3.394 -0.2835  0.1406 -0.0092
 2161SOL    HW2 8717   3.949   3.491   3.420 -1.5923 -0.4858 -2.8272
 2161SOL    HW3 8718   4.099   3.512   3.407 -1.7986  2.0594 -1.3330
 2161SOL    MW4 8719   4.028   3.461   3.399 -0.6561  0.3109 -0.5558
 2162SOL     OW 8720   4.260   3.601   3.461  0.1651  0.0690  0.1185
 2162SOL    HW2 8721   4.341   3.556   3.436 -0.4365 -1.0140  0.0765
 2162SOL    HW3 8722   4.250   3.582   3.554 -0.5894 -0.6797 -0.1126
 2162SOL    MW4 8723   4.270   3.592   3.470 -0.0134 -0.1726  0.0825
 2163SOL     OW 8724   4.213   3.858   3.392 -0.5076 -0.0879 -0.4120
 2163SOL    HW2 8725   4.237   3.771   3.424  0.2794  0.4319  0.4386
 2163SOL    HW3 8726   4.227   3.854   3.298 -1.2081 -1.1147 -0.4880
 2163SOL    MW4 8727   4.218   3.846   3.384 -0.4959 -0.1547 -0.3097
 2164SOL     OW 8728   4.009   4.016   3.490  0.0162  0.1476  1.2991
 2164SOL    HW2 8729   3.928   3.966   3.475  0.2489  0.2200 -0.2305
 2164SOL    HW3 8730   4.079   3.957   3.463  0.3560  0.8643  0.6028
 2164SOL    MW4 8731   4.007   4.001   3.485  0.0920  0.2518  1.0056
 2165SOL     OW 8732   4.002   4.283   3.403 -0.3638 -0.3851 -0.2042
 2165SOL    HW2 8733   3.918   4.315   3.437  0.9650  0.2045  2.7253
 2165SOL    HW3 8734   4.010   4.194   3.438  0.6962 -0.0425  0.4685
 2165SOL    MW4 8735   3.992   4.275   3.412 -0.0486 -0.2618  0.2711
 2166SOL     OW 8736   4.257   4.386   3.453 -0.7842  0.2555  0.1117
 2166SOL    HW2 8737   4.255   4.390   3.549  0.3286 -0.3341  0.1755
 2166SOL    HW3 8738   4.171   4.351   3.429 -0.9798  0.1689  0.9150
 2166SOL    MW4 8739   4.245   4.382   3.463 -0.6633  0.1659  0.2260
 2167SOL     OW 8740   0.211   4.657   3.903 -0.3312  0.2908 -0.3058
 2167SOL    HW2 8741   0.169   4.631   3.985 -0.2961 -0.4605 -0.5227
 2167SOL    HW3 8742   0.151   4.721   3.865 -0.1938  0.8895  0.4578
 2167SOL    MW4 8743   0.198   4.662   3.909 -0.3084  0.2704 -0.2337
 2168SOL     OW 8744   0.017   0.144   3.824 -0.0448  0.1838 -0.2588
 2168SOL    HW2 8745   0.014   0.237   3.848 -2.9493  0.1334 -0.2221
 2168SOL    HW3 8746   0.028   0.144   3.729 -0.6362  0.6021 -0.3346
 2168SOL    MW4 8747   0.018   0.156   3.815 -0.5061  0.2323 -0.2642
 2169SOL     OW 8748   3.434   3.611   4.826 -0.0293  0.2843 -0.1538
 2169SOL    HW2 8749   3.499   3.553   4.865  1.5243  1.6069 -0.7180
 2169SOL    HW3 8750   3.467   3.628   4.737 -2.2483 -0.7227 -1.2238
 2169SOL    MW4 8751   3.447   3.605   4.819 -0.1171  0.3259 -0.3695
 2170SOL     OW 8752   0.238   0.486   3.737  0.0201 -0.0812  0.0466
 2170SOL    HW2 8753   0.226   0.578   3.758 -0.8901  0.0584 -1.0309
 2170SOL    HW3 8754   0.229   0.481   3.642 -1.0619 -1.4381  0.1919
 2170SOL    MW4 8755   0.235   0.497   3.727 -0.2427 -0.2418 -0.0761
 2171SOL     OW 8756   0.195   0.731   3.838 -0.3358  0.5038 -0.9076
 2171SOL    HW2 8757   0.202   0.736   3.934 -1.8601  0.3499 -0.7669
 2171SOL    HW3 8758   0.267   0.785   3.806  0.3180  0.3898  0.3248
 2171SOL    MW4 8759   0.205   0.739   3.847 -0.4507  0.4685 -0.7262
 2172SOL     OW 8760   4.473   0.896   3.728 -0.0774 -0.3582  0.1351
 2172SOL    HW2 8761   4.502   0.983   3.754  0.4935  0.2070 -2.3445
 2172SOL    HW3 8762   4.534   0.837   3.772  0.4525  0.5442  0.6259
 2172SOL    MW4 8763   4.485   0.900   3.737  0.0679 -0.1646 -0.1273
 2173SOL     OW 8764   4.292   1.527   3.855 -0.8374  0.1963 -0.0292
 2173SOL    HW2 8765   4.276   1.544   3.948  0.2465 -0.4924  0.2951
 2173SOL    HW3 8766   4.377   1.567   3.838 -1.2437  0.7229 -0.8464
 2173SOL    MW4 8767   4.301   1.535   3.865 -0.7482  0.1749 -0.0942
 2174SOL     OW 8768   0.256   1.278   3.728  0.2235  0.5329  0.3161
 2174SOL    HW2 8769   0.238   1.365   3.764  0.5611  0.5911  0.3498
 2174SOL    HW3 8770   0.241   1.286   3.634 -0.1759  0.5127  0.3792
 2174SOL    MW4 8771   0.252   1.291   3.721  0.2153  0.5379  0.3290
 2175SOL     OW 8772   0.247   1.532   3.833  0.3838 -0.1012  0.0210
 2175SOL    HW2 8773   0.320   1.586   3.804 -1.0760  1.3012 -1.1391
 2175SOL    HW3 8774   0.169   1.584   3.814 -0.9234 -1.4666  1.4261
 2175SOL    MW4 8775   0.246   1.546   3.827  0.0187 -0.0963  0.0534
 2176SOL     OW 8776   3.381   3.059   4.144  0.0313  0.0857  0.2210
 2176SOL    HW2 8777   3.346   3.004   4.214 -0.8359 -1.1393 -1.1457
 2176SOL    HW3 8778   3.469   3.082   4.174  0.1917 -1.5733  1.1055
 2176SOL    MW4 8779   3.388   3.054   4.157 -0.0618 -0.2949  0.1574
 2177SOL     OW 8780   0.393   0.858   4.227  0.3480 -0.4170 -0.2852
 2177SOL    HW2 8781   0.376   0.952   4.225 -3.5615 -1.0504 -1.1161
 2177SOL    HW3 8782   0.372   0.831   4.316 -0.9396 -0.8726 -0.7174
 2177SOL    MW4 8783   0.388   0.867   4.238 -0.3377 -0.5607 -0.4520
 2178SOL     OW 8784   0.612   4.385   4.347 -0.2240  0.3089 -0.0810
 2178SOL    HW2 8785   0.547   4.380   4.417 -0.2359  1.1477 -0.0314
 2178SOL    HW3 8786   0.606   4.475   4.314  1.3279  0.5707  0.3257
 2178SOL    MW4 8787   0.603   4.396   4.351 -0.0209  0.4544 -0.0210
 2179SOL     OW 8788   0.369   3.211   4.776 -0.6283 -0.8522 -0.1836
 2179SOL    HW2 8789   0.426   3.189   4.703  0.6148  2.0157 -0.1458
 2179SOL    HW3 8790   0.305   3.273   4.739 -1.8145 -1.6639  0.4796
 2179SOL    MW4 8791   0.368   3.217   4.762 -0.6208 -0.5808 -0.0911
 2180SOL     OW 8792   3.583   1.920   3.884  0.1745 -0.0534  0.2222
 2180SOL    HW2 8793   3.517   1.968   3.834 -0.2916 -0.9433 -0.0342
 2180SOL    HW3 8794   3.579   1.830   3.850  0.0085 -0.6189  1.6909
 2180SOL    MW4 8795   3.574   1.914   3.873  0.0911 -0.2455  0.3822
 2181SOL     OW 8796   0.704   2.613   4.566  0.1500  0.0165 -0.2559
 2181SOL    HW2 8797   0.611   2.596   4.582 -0.1317  0.2354 -1.5861
 2181SOL    HW3 8798   0.719   2.584   4.476  0.8827  1.8346 -0.7528
 2181SOL    MW4 8799   0.694   2.607   4.556  0.2096  0.2851 -0.4969
 2182SOL     OW 8800   0.586   3.509   4.513  0.1361 -0.2774  0.1417
 2182SOL    HW2 8801   0.657   3.535   4.572  0.0971 -0.4253  0.2554
 2182SOL    HW3 8802   0.598   3.563   4.435 -0.1666  0.3507  0.5215
 2182SOL    MW4 8803   0.597   3.520   4.511  0.0911 -0.2143  0.2069
 2183SOL     OW 8804   0.204   3.076   3.869 -0.0694  0.2133 -0.1908
 2183SOL    HW2 8805   0.200   2.982   3.854  0.5304  0.0381  0.7516
 2183SOL    HW3 8806   0.121   3.110   3.833 -0.3925 -0.6949 -0.2998
 2183SOL    MW4 8807   0.192   3.068   3.862 -0.0329  0.0703 -0.0811
 2184SOL     OW 8808   4.225   3.052   3.818 -0.2199 -0.2283 -0.5785
 2184SOL    HW2 8809   4.302   3.095   3.781  0.4156 -0.4284  0.4933
 2184SOL    HW3 8810   4.157   3.119   3.818  0.4010  0.4047 -0.0963
 2184SOL    MW4 8811   4.226   3.066   3.813 -0.0544 -0.1712 -0.3734
 2185SOL     OW 8812   3.557   4.233   4.136  0.0664 -0.5718  0.3097
 2185SOL    HW2 8813   3.540   4.143   4.165 -0.0002 -0.4858  0.5371
 2185SOL    HW3 8814   3.481   4.283   4.165 -0.5105 -0.6955 -0.9873
 2185SOL    MW4 8815   3.545   4.228   4.144 -0.0184 -0.5770  0.1688
 2186SOL     OW 8816   0.221   3.599   3.761 -0.3689  0.0709 -0.0902
 2186SOL    HW2 8817   0.288   3.543   3.800 -0.4288  0.0894  0.0395
 2186SOL    HW3 8818   0.245   3.688   3.789 -0.1883  0.1264 -0.4202
 2186SOL    MW4 8819   0.233   3.604   3.770 -0.3530  0.0806 -0.1168
 2187SOL     OW 8820   0.259   3.856   3.863 -0.3115 -0.3115  0.1816
 2187SOL    HW2 8821   0.319   3.923   3.830 -0.6681 -0.8883 -1.6609
 2187SOL    HW3 8822   0.246   3.880   3.955 -0.6389  2.2990 -0.4939
 2187SOL    MW4 8823   0.265   3.868   3.871 -0.4017 -0.0434 -0.1507
 2188SOL     OW 8824   4.468   3.977   3.799 -0.8230 -0.0744  0.3731
 2188SOL    HW2 8825   4.456   4.071   3.815 -0.2541  0.4308 -1.9191
 2188SOL    HW3 8826   4.554   3.957   3.834 -0.9450  0.2577  0.8705
 2188SOL    MW4 8827   4.477   3.987   3.805 -0.7640  0.0360  0.1366
 2189SOL     OW 8828   0.172   4.379   3.816 -0.3615 -0.2883 -0.3756
 2189SOL    HW2 8829   0.247   4.348   3.867 -0.3303 -0.1791 -0.3536
 2189SOL    HW3 8830   0.171   4.474   3.831 -0.3508 -0.2553 -0.5783
 2189SOL    MW4 8831   0.182   4.387   3.825 -0.3559 -0.2699 -0.3996
 2190SOL     OW 8832   0.400   4.281   3.918 -0.3766 -0.3141 -0.2481
 2190SOL    HW2 8833   0.411   4.275   4.013 -1.4008  1.6400  0.0295
 2190SOL    HW3 8834   0.473   4.336   3.889 -0.1086 -0.8464 -0.5900
 2190SOL    MW4 8835   0.411   4.288   3.927 -0.4764 -0.1259 -0.2565
 2191SOL     OW 8836   0.664   4.634   3.928 -0.1871  0.6467 -0.3090
 2191SOL    HW2 8837   0.658   4.543   3.899 -0.6387  0.7315 -0.4751
 2191SOL    HW3 8838   0.611   4.684   3.865  0.7691  1.1406 -0.7402
 2191SOL    MW4 8839   0.656   4.629   3.916 -0.1205  0.7234 -0.3879
 2192SOL     OW 8840   0.460   0.081   3.775 -0.5054 -0.0058 -0.1458
 2192SOL    HW2 8841   0.457   0.173   3.802 -1.3997  0.1979 -0.9288
 2192SOL    HW3 8842   0.378   0.044   3.809 -0.5421 -0.3109 -0.5730
 2192SOL    MW4 8843   0.448   0.088   3.783 -0.6282 -0.0191 -0.3054
 2193SOL     OW 8844   0.461   0.339   3.840  0.1166 -0.3127 -0.0894
 2193SOL    HW2 8845   0.445   0.346   3.934 -0.1862  0.7992 -0.2178
 2193SOL    HW3 8846   0.389   0.387   3.799 -1.0345 -2.7488 -0.9904
 2193SOL    MW4 8847   0.450   0.347   3.847 -0.0753 -0.4874 -0.2255
 2194SOL     OW 8848   0.699   0.447   3.790 -0.2312  0.2496  0.1220
 2194SOL    HW2 8849   0.619   0.396   3.809  0.9477 -1.7331 -0.0517
 2194SOL    HW3 8850   0.685   0.531   3.833 -1.9513 -0.4787  1.0397
 2194SOL    MW4 8851   0.686   0.451   3.798 -0.3026 -0.1081  0.2201
 2195SOL     OW 8852   0.634   0.722   3.848  0.4007 -0.1472  0.0801
 2195SOL    HW2 8853   0.714   0.769   3.826 -0.2288  1.2100  0.6303
 2195SOL    HW3 8854   0.625   0.733   3.942 -0.8440  0.3674 -0.0920
 2195SOL    MW4 8855   0.643   0.729   3.857  0.1535  0.0998  0.1302
 2196SOL     OW 8856   0.422   0.877   3.743  0.5565  0.2123 -0.0500
 2196SOL    HW2 8857   0.410   0.952   3.802  0.5667 -0.7765  1.2342
 2196SOL    HW3 8858   0.496   0.830   3.780  0.1908 -0.7444 -0.5356
 2196SOL    MW4 8859   0.430   0.881   3.756  0.5096 -0.0443  0.0551
 2197SOL     OW 8860   0.424   1.161   3.902 -0.4399 -0.3041  0.2106
 2197SOL    HW2 8861   0.366   1.191   3.832 -1.1793  0.3676  1.0932
 2197SOL    HW3 8862   0.508   1.203   3.884 -0.1696 -1.4212 -1.1736
 2197SOL    MW4 8863   0.428   1.171   3.891 -0.5018 -0.3631  0.1445
 2198SOL     OW 8864   1.943   1.392   4.609 -0.0356  0.2499  0.3131
 2198SOL    HW2 8865   1.986   1.311   4.637 -0.7129 -0.3245 -0.2721
 2198SOL    HW3 8866   2.000   1.462   4.640  0.3960 -0.4437  1.1075
 2198SOL    MW4 8867   1.956   1.390   4.617 -0.0679  0.0824  0.3409
 2199SOL     OW 8868   0.781   1.944   3.764  0.0627 -0.7280 -0.4250
 2199SOL    HW2 8869   0.802   1.851   3.772 -0.3411 -0.9529 -1.9038
 2199SOL    HW3 8870   0.866   1.987   3.750  0.2330 -0.8837  0.1188
 2199SOL    MW4 8871   0.795   1.938   3.763  0.0319 -0.7782 -0.5484
 2200SOL     OW 8872   0.673   1.535   3.881 -0.0813 -0.1734  0.3716
 2200SOL    HW2 8873   0.677   1.444   3.852 -2.7741 -0.4369  0.6332
 2200SOL    HW3 8874   0.699   1.533   3.973 -1.4442 -0.9233  0.7629
 2200SOL    MW4 8875   0.677   1.523   3.889 -0.6163 -0.3071  0.4580
 2201SOL     OW 8876   2.732   1.944   4.160 -0.1884  0.5404  0.0001
 2201SOL    HW2 8877   2.736   1.859   4.205  0.1419  0.2331 -0.5972
 2201SOL    HW3 8878   2.821   1.978   4.165 -0.1975  0.5994 -0.2332
 2201SOL    MW4 8879   2.744   1.937   4.166 -0.1462  0.5076 -0.1092
 2202SOL     OW 8880   4.334   2.288   4.761 -0.3153 -0.3727  0.3479
 2202SOL    HW2 8881   4.352   2.380   4.781 -1.4280 -0.2154  0.6547
 2202SOL    HW3 8882   4.352   2.280   4.667 -0.3676  0.2048  0.2888
 2202SOL    MW4 8883   4.339   2.299   4.751 -0.4692 -0.2761  0.3805
 2203SOL     OW 8884   0.439   2.728   3.904  0.0137  0.3573  0.6062
 2203SOL    HW2 8885   0.448   2.716   3.999 -0.3285  1.7375  0.8288
 2203SOL    HW3 8886   0.438   2.640   3.869  0.4253 -0.1665  1.8705
 2203SOL    MW4 8887   0.440   2.715   3.912  0.0229  0.4704  0.8025
 2204SOL     OW 8888   0.418   2.494   3.731 -0.0259 -0.2562 -0.3141
 2204SOL    HW2 8889   0.346   2.440   3.765 -0.1922  0.1048 -0.1002
 2204SOL    HW3 8890   0.431   2.461   3.642 -1.4050  0.6235 -0.8502
 2204SOL    MW4 8891   0.410   2.482   3.724 -0.2298 -0.0925 -0.3567
 2205SOL     OW 8892   3.619   2.837   4.672 -0.2705 -0.0353 -0.2418
 2205SOL    HW2 8893   3.644   2.765   4.729  1.7228  1.5165  0.8609
 2205SOL    HW3 8894   3.535   2.809   4.634  1.3552 -3.7621 -1.3215
 2205SOL    MW4 8895   3.611   2.823   4.674  0.2072 -0.3221 -0.2384
 2206SOL     OW 8896   3.126   2.204   4.600 -0.2953 -0.0976  0.0593
 2206SOL    HW2 8897   3.049   2.260   4.590 -1.0067 -1.1911 -0.7401
 2206SOL    HW3 8898   3.097   2.118   4.568  0.9886 -0.7391  0.5907
 2206SOL    MW4 8899   3.112   2.200   4.595 -0.2198 -0.3266  0.0238
 2207SOL     OW 8900   0.675   2.833   3.777 -0.1512  0.0820  0.3744
 2207SOL    HW2 8901   0.591   2.805   3.814  0.2275 -0.6583  0.6777
 2207SOL    HW3 8902   0.659   2.838   3.682 -0.0181 -1.9005  0.2338
 2207SOL    MW4 8903   0.661   2.830   3.769 -0.0837 -0.2773  0.3960
 2208SOL     OW 8904   0.446   3.209   3.821  0.1286  0.2988 -0.0886
 2208SOL    HW2 8905   0.522   3.150   3.828 -0.7347 -0.9941 -1.2870
 2208SOL    HW3 8906   0.371   3.154   3.844 -0.3299  1.9720  2.6655
 2208SOL    MW4 8907   0.446   3.194   3.825 -0.0458  0.3488  0.1168
 2209SOL     OW 8908   0.440   3.482   3.909  0.4398 -0.0051 -0.3023
 2209SOL    HW2 8909   0.444   3.396   3.866  2.2898 -1.4264  2.4834
 2209SOL    HW3 8910   0.521   3.525   3.882  0.5390 -0.0153 -0.0252
 2209SOL    MW4 8911   0.451   3.476   3.900  0.6970 -0.1943  0.1018
 2210SOL     OW 8912   0.672   3.611   3.779  0.0009 -0.1090  0.0623
 2210SOL    HW2 8913   0.656   3.702   3.805 -1.4615 -0.6258  1.0147
 2210SOL    HW3 8914   0.663   3.612   3.684 -0.2232  0.6985  0.0833
 2210SOL    MW4 8915   0.669   3.623   3.770 -0.2216 -0.0708  0.1907
 2211SOL     OW 8916   0.650   3.879   3.846  0.2724 -0.0332  0.0320
 2211SOL    HW2 8917   0.588   3.947   3.819  0.2264 -0.1122 -0.0608
 2211SOL    HW3 8918   0.736   3.916   3.826  0.3269  0.7846  1.7781
 2211SOL    MW4 8919   0.653   3.893   3.839  0.2735  0.0644  0.2503
 2212SOL     OW 8920   0.421   4.038   3.763  0.5078 -0.4369  0.3007
 2212SOL    HW2 8921   0.416   4.056   3.669 -1.3109 -2.0176  0.0647
 2212SOL    HW3 8922   0.409   4.124   3.804 -0.2893  0.0353 -0.8779
 2212SOL    MW4 8923   0.419   4.052   3.756  0.1627 -0.5827  0.1140
 2213SOL     OW 8924   0.429   2.240   4.488 -0.0928 -0.4113  0.1984
 2213SOL    HW2 8925   0.352   2.217   4.540  1.2906 -0.9737  2.0290
 2213SOL    HW3 8926   0.422   2.335   4.476 -1.1221 -0.4721  0.2540
 2213SOL    MW4 8927   0.418   2.249   4.493 -0.0460 -0.4940  0.4473
 2214SOL     OW 8928   0.341   1.782   4.190 -0.3815 -0.3975  0.4592
 2214SOL    HW2 8929   0.409   1.784   4.258  0.7121 -0.0110 -0.6172
 2214SOL    HW3 8930   0.280   1.851   4.215  0.8844  0.8387  0.1733
 2214SOL    MW4 8931   0.342   1.791   4.203 -0.0702 -0.1835  0.2789
 2215SOL     OW 8932   0.960   0.462   3.903  0.3333  0.0698  0.2528
 2215SOL    HW2 8933   0.879   0.458   3.853  1.6758  0.7111 -2.0619
 2215SOL    HW3 8934   0.983   0.371   3.920  0.4732 -0.1923 -1.3391
 2215SOL    MW4 8935   0.952   0.449   3.899  0.5289  0.1198 -0.2627
 2216SOL     OW 8936   0.914   0.008   3.777 -0.6281  0.3206  0.4205
 2216SOL    HW2 8937   0.952  -0.079   3.785 -0.6956  0.3316  0.8603
 2216SOL    HW3 8938   0.840   0.008   3.838 -0.9592  0.5033  0.0213
 2216SOL    MW4 8939   0.909  -0.003   3.786 -0.6807  0.3462  0.4261
 2217SOL     OW 8940   1.941   1.748   4.703 -0.2199 -0.1027 -0.0143
 2217SOL    HW2 8941   1.954   1.838   4.731 -0.9783 -0.1596  0.5338
 2217SOL    HW3 8942   1.847   1.741   4.684 -0.1640 -0.7664 -0.0806
 2217SOL    MW4 8943   1.930   1.759   4.704 -0.3124 -0.1979  0.0491
 2218SOL     OW 8944   1.173   0.483   3.704  0.0024  0.2658  0.3053
 2218SOL    HW2 8945   1.225   0.403   3.710  0.7531  0.7109 -0.2813
 2218SOL    HW3 8946   1.101   0.469   3.765 -0.0054 -0.9663  0.0338
 2218SOL    MW4 8947   1.170   0.471   3.713  0.1004  0.1620  0.1922
 2219SOL     OW 8948   0.900   0.855   3.784  0.1233 -0.0788  0.4197
 2219SOL    HW2 8949   0.988   0.819   3.797  0.8527  1.9544  1.3561
 2219SOL    HW3 8950   0.890   0.859   3.689  1.0439 -0.3383  0.3055
 2219SOL    MW4 8951   0.911   0.851   3.773  0.3410  0.1552  0.5283
 2220SOL     OW 8952   0.902   1.102   3.912  0.3317 -0.0700 -0.3046
 2220SOL    HW2 8953   0.871   1.089   4.002  0.3233  1.3139 -0.0863
 2220SOL    HW3 8954   0.909   1.014   3.876 -1.5392 -0.5479  0.4277
 2220SOL    MW4 8955   0.899   1.089   3.919  0.0838  0.0495 -0.1791
 2221SOL     OW 8956   0.687   1.256   3.793  0.5475  0.0787  0.0608
 2221SOL    HW2 8957   0.766   1.212   3.825  1.3252  1.0002 -0.5718
 2221SOL    HW3 8958   0.696   1.256   3.698 -0.6480 -0.5873 -0.0614
 2221SOL    MW4 8959   0.699   1.250   3.785  0.4923  0.1124 -0.0389
 2222SOL     OW 8960   1.100   1.278   3.780  0.5358 -0.2404 -0.1924
 2222SOL    HW2 8961   1.077   1.366   3.810  0.0238 -0.9654  1.6544
 2222SOL    HW3 8962   1.031   1.223   3.815  1.8160 -1.6164  0.2415
 2222SOL    MW4 8963   1.088   1.283   3.789  0.6372 -0.5177  0.1085
 2223SOL     OW 8964   1.109   1.555   3.845 -0.2204 -0.2663 -0.0767
 2223SOL    HW2 8965   1.182   1.605   3.808  0.2049 -2.1690 -1.9097
 2223SOL    HW3 8966   1.031   1.603   3.818  0.2439  0.2302 -0.5610
 2223SOL    MW4 8967   1.109   1.568   3.837 -0.1030 -0.4518 -0.3827
 2224SOL     OW 8968   0.869   1.703   3.774  0.1762 -0.3245  0.3524
 2224SOL    HW2 8969   0.873   1.687   3.680  1.6995 -0.9936  0.5076
 2224SOL    HW3 8970   0.798   1.647   3.805 -0.4057 -0.0214 -0.4081
 2224SOL    MW4 8971   0.860   1.693   3.766  0.3003 -0.3728  0.2728
 2225SOL     OW 8972   0.625   2.102   3.949  0.1805  0.2396 -0.5217
 2225SOL    HW2 8973   0.631   2.183   3.898 -0.1445  0.1519 -0.6969
 2225SOL    HW3 8974   0.684   2.042   3.904  0.4162  0.3755 -0.3962
 2225SOL    MW4 8975   0.634   2.105   3.936  0.1687  0.2460 -0.5281
 2226SOL     OW 8976   1.039   2.047   3.690  0.0184 -0.0739  0.1936
 2226SOL    HW2 8977   1.118   2.013   3.732  0.1064  0.3821  0.4017
 2226SOL    HW3 8978   1.060   2.048   3.596 -0.2921 -1.3812  0.1054
 2226SOL    MW4 8979   1.052   2.043   3.683 -0.0111 -0.1864  0.2093
 2227SOL     OW 8980   1.087   2.321   3.738  0.1747  0.2556 -0.2795
 2227SOL    HW2 8981   1.068   2.228   3.722 -1.4779  0.2407  1.5139
 2227SOL    HW3 8982   1.181   2.329   3.725  0.0661 -1.2670 -2.3047
 2227SOL    MW4 8983   1.097   2.310   3.734 -0.0577  0.0527 -0.3102
 2228SOL     OW 8984   0.885   2.485   3.791 -0.0559  0.0613  0.1062
 2228SOL    HW2 8985   0.897   2.564   3.844 -0.4234  0.2984 -0.1611
 2228SOL    HW3 8986   0.968   2.439   3.798 -0.0329  0.1925  0.7278
 2228SOL    MW4 8987   0.898   2.490   3.799 -0.1014  0.1094  0.1528
 2229SOL     OW 8988   0.911   2.731   3.920  0.4739  0.1172 -0.3324
 2229SOL    HW2 8989   0.900   2.712   4.014  2.2247  1.9337  0.2928
 2229SOL    HW3 8990   0.826   2.763   3.892 -0.1350 -0.6489  0.5853
 2229SOL    MW4 8991   0.898   2.733   3.929  0.6246  0.2556 -0.1287
 2230SOL     OW 8992   1.129   2.850   3.799 -0.3237  0.0269  0.4189
 2230SOL    HW2 8993   1.135   2.939   3.832 -1.5346 -0.1229  1.0533
 2230SOL    HW3 8994   1.053   2.812   3.843 -0.0457 -1.2020 -0.1181
 2230SOL    MW4 8995   1.120   2.856   3.809 -0.4466 -0.1550  0.4320
 2231SOL     OW 8996   1.110   3.136   3.878  0.0230  0.1360 -0.1508
 2231SOL    HW2 8997   1.032   3.166   3.831  0.4297  1.3979 -0.0245
 2231SOL    HW3 8998   1.182   3.182   3.836  0.5179  0.3458  0.9095
 2231SOL    MW4 8999   1.109   3.146   3.866  0.1421  0.3304  0.0057
 2232SOL     OW 9000   0.885   3.214   3.740 -0.2814  0.3507  0.1215
 2232SOL    HW2 9001   0.869   3.298   3.781 -1.0670  0.5270 -0.5443
 2232SOL    HW3 9002   0.915   3.235   3.651  2.0329 -0.0053  0.7747
 2232SOL    MW4 9003   0.887   3.228   3.734 -0.0797  0.3269  0.1197
 2233SOL     OW 9004   0.887   3.480   3.874 -0.1112  0.2342 -0.0123
 2233SOL    HW2 9005   0.834   3.536   3.817  0.9278  0.4316 -0.8067
 2233SOL    HW3 9006   0.857   3.500   3.963 -1.5790  0.1041 -0.4682
 2233SOL    MW4 9007   0.876   3.490   3.878 -0.1677  0.2429 -0.1771
 2234SOL     OW 9008   1.101   3.632   3.767  0.4329  0.1486 -0.0021
 2234SOL    HW2 9009   1.177   3.590   3.807  0.5528  1.4514  1.1739
 2234SOL    HW3 9010   1.027   3.605   3.822  0.3378  0.4522  0.0236
 2234SOL    MW4 9011   1.101   3.623   3.780  0.4361  0.3607  0.1564
 2235SOL     OW 9012   1.134   3.867   3.894 -0.2507  0.3600  0.2219
 2235SOL    HW2 9013   1.188   3.921   3.836  0.1783  0.1155  0.3951
 2235SOL    HW3 9014   1.138   3.780   3.856  1.0515 -0.0749  1.3077
 2235SOL    MW4 9015   1.142   3.863   3.881 -0.0223  0.2701  0.3881
 2236SOL     OW 9016   0.895   4.000   3.800  0.0218 -0.0990  0.4581
 2236SOL    HW2 9017   0.966   3.937   3.816 -0.2901 -0.6772 -0.3904
 2236SOL    HW3 9018   0.903   4.021   3.707 -0.7525  0.0496  0.4277
 2236SOL    MW4 9019   0.906   3.994   3.790 -0.1215 -0.1557  0.3421
 2237SOL     OW 9020   4.442   0.364   4.164  0.4128  0.3693  0.4939
 2237SOL    HW2 9021   4.369   0.425   4.178 -1.2294 -1.4115 -0.1221
 2237SOL    HW3 9022   4.473   0.384   4.076  0.1671  0.6199  0.4638
 2237SOL    MW4 9023   4.436   0.375   4.155  0.1640  0.1674  0.4091
 2238SOL     OW 9024   1.046   4.418   3.774  0.1412  0.1686  0.2552
 2238SOL    HW2 9025   1.068   4.377   3.690 -0.1371  1.1996 -0.3398
 2238SOL    HW3 9026   1.002   4.350   3.824 -1.7235  0.1779 -1.3129
 2238SOL    MW4 9027   1.043   4.404   3.769 -0.1416  0.3061 -0.0300
 2239SOL     OW 9028   1.497   0.056   3.870 -0.0476  0.2091 -0.2762
 2239SOL    HW2 9029   1.471  -0.035   3.863  1.6446 -0.2125 -1.1727
 2239SOL    HW3 9030   1.525   0.067   3.961  2.4612 -0.9228 -0.8710
 2239SOL    MW4 9031   1.497   0.046   3.881  0.5068  0.0041 -0.4728
 2240SOL     OW 9032   1.318   0.239   3.789  0.1012 -0.4895  0.5786
 2240SOL    HW2 9033   1.375   0.166   3.813 -0.5776 -0.3602  2.7250
 2240SOL    HW3 9034   1.243   0.231   3.848 -1.0201  0.6825 -0.6483
 2240SOL    MW4 9035   1.316   0.228   3.800 -0.1363 -0.3178  0.7000
 2241SOL     OW 9036   1.527   0.533   3.754  0.2385  0.5494 -0.0295
 2241SOL    HW2 9037   1.539   0.626   3.776  1.7172  0.7408 -1.5833
 2241SOL    HW3 9038   1.608   0.491   3.784 -0.2306 -0.1738  0.2342
 2241SOL    MW4 9039   1.539   0.540   3.761  0.3716  0.4792 -0.1996
 2242SOL     OW 9040   1.707   0.926   4.193 -0.3327 -0.6214 -0.4443
 2242SOL    HW2 9041   1.769   0.862   4.158  0.1073 -0.1437 -0.5437
 2242SOL    HW3 9042   1.625   0.879   4.199 -1.0416 -0.0700 -4.3865
 2242SOL    MW4 9043   1.705   0.912   4.189 -0.3681 -0.4857 -0.9780
 2243SOL     OW 9044   0.857   0.563   4.573 -0.2393  0.5716  0.0432
 2243SOL    HW2 9045   0.818   0.579   4.486 -1.2523  0.2574  0.4295
 2243SOL    HW3 9046   0.943   0.605   4.569 -0.1522  0.2926 -1.2194
 2243SOL    MW4 9047   0.863   0.571   4.561 -0.3614  0.4933 -0.0725
 2244SOL     OW 9048   1.379   0.905   3.712  0.3914 -0.4076  0.1779
 2244SOL    HW2 9049   1.387   0.987   3.761 -1.9086  0.6373 -1.0662
 2244SOL    HW3 9050   1.302   0.862   3.750 -0.3717 -0.4113 -1.3522
 2244SOL    MW4 9051   1.370   0.910   3.723 -0.0129 -0.2702 -0.1886
 2245SOL     OW 9052   1.354   1.160   3.878 -0.1547 -0.4399  0.0754
 2245SOL    HW2 9053   1.358   1.152   3.973 -0.8631  0.2760  0.1744
 2245SOL    HW3 9054   1.276   1.214   3.862  0.0495 -0.4249 -0.9006
 2245SOL    MW4 9055   1.344   1.166   3.889 -0.2213 -0.3434 -0.0403
 2246SOL     OW 9056   2.055   1.268   3.792 -0.2520  0.6406  0.0307
 2246SOL    HW2 9057   1.974   1.224   3.819 -0.3774  1.5075  1.0960
 2246SOL    HW3 9058   2.050   1.355   3.831  0.8929  0.9351 -0.4414
 2246SOL    MW4 9059   2.044   1.273   3.800 -0.1175  0.7938  0.1087
 2247SOL     OW 9060   1.577   1.314   3.800 -0.0356  0.6350 -0.3737
 2247SOL    HW2 9061   1.497   1.270   3.829  0.1807 -0.0190 -0.7626
 2247SOL    HW3 9062   1.646   1.249   3.811  0.3740  1.0591 -0.4370
 2247SOL    MW4 9063   1.575   1.299   3.805  0.0468  0.6046 -0.4334
 2248SOL     OW 9064   1.576   1.617   3.880 -0.3506 -0.3142  0.2843
 2248SOL    HW2 9065   1.589   1.523   3.887 -0.5338 -0.4550 -1.0854
 2248SOL    HW3 9066   1.663   1.652   3.858 -0.8323 -0.4962 -2.0409
 2248SOL    MW4 9067   1.589   1.609   3.878 -0.4383 -0.3568 -0.2031
 2249SOL     OW 9068   1.322   1.681   3.717  0.1448  0.2068 -0.5624
 2249SOL    HW2 9069   1.304   1.765   3.760  1.6401 -0.0494  0.6002
 2249SOL    HW3 9070   1.403   1.650   3.758 -0.3094 -1.7333 -1.0823
 2249SOL    MW4 9071   1.330   1.688   3.728  0.2822 -0.0830 -0.4776
 2250SOL     OW 9072   4.045   3.204   4.182  0.2973  0.0473  0.2529
 2250SOL    HW2 9073   4.060   3.206   4.277 -0.4746  0.3164  0.3767
 2250SOL    HW3 9074   3.963   3.156   4.172 -0.9288  2.1415 -0.0872
 2250SOL    MW4 9075   4.036   3.198   4.193  0.0334  0.3593  0.2246
 2251SOL     OW 9076   1.526   2.032   3.802  0.0557  0.5859 -0.5272
 2251SOL    HW2 9077   1.544   2.116   3.845  0.3438  0.5454 -0.5720
 2251SOL    HW3 9078   1.560   2.043   3.713  0.0911  0.4199 -0.5329
 2251SOL    MW4 9079   1.533   2.045   3.796  0.0986  0.5586 -0.5338
 2252SOL     OW 9080   1.360   2.412   3.773  0.4516  0.6535 -0.3329
 2252SOL    HW2 9081   1.429   2.367   3.822 -0.3330 -0.1090  0.1011
 2252SOL    HW3 9082   1.355   2.499   3.812 -1.0582 -0.3697  1.8641
 2252SOL    MW4 9083   1.369   2.417   3.784  0.1490  0.4179  0.0143
 2253SOL     OW 9084   0.022   1.639   4.512  0.3342  0.3837 -0.1560
 2253SOL    HW2 9085   0.115   1.658   4.524  0.0122  1.9256  0.0632
 2253SOL    HW3 9086  -0.021   1.724   4.524 -0.9312  0.0489 -2.0910
 2253SOL    MW4 9087   0.029   1.653   4.515  0.1245  0.5430 -0.3829
 2254SOL     OW 9088   1.554   2.851   3.764  0.1150 -0.0790 -0.2991
 2254SOL    HW2 9089   1.558   2.868   3.669 -1.0377 -0.2049 -0.3840
 2254SOL    HW3 9090   1.629   2.794   3.781  1.6868  1.8070 -0.7170
 2254SOL    MW4 9091   1.564   2.846   3.753  0.1701  0.1533 -0.3655
 2255SOL     OW 9092   1.571   3.112   3.865  0.0676  0.3433  0.5121
 2255SOL    HW2 9093   1.651   3.156   3.836 -1.0385  2.1693  0.0959
 2255SOL    HW3 9094   1.562   3.037   3.807  1.9412 -0.3684  1.1353
 2255SOL    MW4 9095   1.580   3.108   3.854  0.1689  0.4902  0.5393
 2256SOL     OW 9096   1.333   3.250   3.769  0.2211 -0.5657 -0.0172
 2256SOL    HW2 9097   1.323   3.341   3.797  0.1755 -0.3498 -0.7217
 2256SOL    HW3 9098   1.416   3.222   3.807 -0.1107 -0.4495  0.7879
 2256SOL    MW4 9099   1.342   3.258   3.778  0.1713 -0.5219 -0.0041
 2257SOL     OW 9100   1.329   3.525   3.886 -0.1186  0.4626 -0.0879
 2257SOL    HW2 9101   1.414   3.546   3.847  0.4272  0.1107  0.9131
 2257SOL    HW3 9102   1.340   3.542   3.979 -0.3205 -2.1943  0.4459
 2257SOL    MW4 9103   1.341   3.530   3.893 -0.0733  0.0658  0.1144
 2258SOL     OW 9104   1.534   3.625   3.740 -0.2470  0.5432  0.3481
 2258SOL    HW2 9105   1.606   3.565   3.761 -2.6520 -1.6898  2.4570
 2258SOL    HW3 9106   1.553   3.704   3.790  1.0664  0.2323  0.3613
 2258SOL    MW4 9107   1.546   3.628   3.749 -0.3909  0.2077  0.6282
 2259SOL     OW 9108   1.520   3.859   3.898 -0.0008 -0.3411  0.5977
 2259SOL    HW2 9109   1.510   3.905   3.981  0.0572  0.6880  0.0349
 2259SOL    HW3 9110   1.441   3.880   3.848 -0.2210 -1.2769  0.5396
 2259SOL    MW4 9111   1.508   3.868   3.902 -0.0223 -0.3290  0.5159
 2260SOL     OW 9112   1.325   4.004   3.741 -0.1718 -0.1910  0.2943
 2260SOL    HW2 9113   1.361   4.092   3.751  1.2369 -1.0071  2.7967
 2260SOL    HW3 9114   1.360   3.973   3.658 -1.1990  1.8341 -0.9263
 2260SOL    MW4 9115   1.334   4.011   3.731 -0.1214 -0.0310  0.4635
 2261SOL     OW 9116   1.310   4.492   3.886  0.1596  0.1515 -0.2579
 2261SOL    HW2 9117   1.221   4.508   3.855 -0.3609  0.0948  1.1574
 2261SOL    HW3 9118   1.298   4.458   3.975  1.6235  0.9329  0.2518
 2261SOL    MW4 9119   1.297   4.489   3.894  0.2840  0.2470 -0.0041
 2262SOL     OW 9120   1.067   0.198   3.911 -0.3595 -0.6216 -0.3071
 2262SOL    HW2 9121   1.059   0.176   4.003 -0.8636 -1.3236 -0.5181
 2262SOL    HW3 9122   1.020   0.129   3.865  1.3311 -1.2061 -1.1885
 2262SOL    MW4 9123   1.060   0.186   3.917 -0.2030 -0.7913 -0.4513
 2263SOL     OW 9124   2.855   3.926   4.479  0.3943  0.0407 -0.4515
 2263SOL    HW2 9125   2.873   3.833   4.463 -1.9829 -0.5721  0.1416
 2263SOL    HW3 9126   2.860   3.935   4.574  0.1516  0.4127 -0.4750
 2263SOL    MW4 9127   2.858   3.915   4.490  0.0489  0.0088 -0.3767
 2264SOL     OW 9128   1.752   0.126   3.795 -0.2212  0.7616 -0.4526
 2264SOL    HW2 9129   1.814   0.062   3.829  0.3084  0.5668 -1.7902
 2264SOL    HW3 9130   1.669   0.102   3.837  0.2803  0.1215  0.1976
 2264SOL    MW4 9131   1.749   0.114   3.805 -0.0850  0.6514 -0.5434
 2265SOL     OW 9132   1.769   0.407   3.848  0.1073  0.3332  0.3143
 2265SOL    HW2 9133   1.858   0.440   3.839  0.2824 -0.3144 -0.3947
 2265SOL    HW3 9134   1.776   0.313   3.830 -0.7781  0.3526 -0.1861
 2265SOL    MW4 9135   1.781   0.399   3.844  0.0135  0.2503  0.1547
 2266SOL     OW 9136   2.675   0.110   3.762  0.2286 -0.4717 -0.4770
 2266SOL    HW2 9137   2.690   0.123   3.668  2.8354  1.2154  0.1164
 2266SOL    HW3 9138   2.753   0.062   3.792 -1.1404 -2.0685  0.6453
 2266SOL    MW4 9139   2.687   0.105   3.754  0.3922 -0.4598 -0.2506
 2267SOL     OW 9140   1.558   0.778   3.885  0.4537  0.5234  0.3670
 2267SOL    HW2 9141   1.641   0.802   3.843  0.4672  0.2830  0.2520
 2267SOL    HW3 9142   1.491   0.824   3.835  0.3926 -0.4609 -0.4912
 2267SOL    MW4 9143   1.560   0.787   3.873  0.4474  0.3618  0.2389
 2268SOL     OW 9144   1.774   0.867   3.759 -0.0790  0.3374  0.2036
 2268SOL    HW2 9145   1.864   0.841   3.777  0.3722  2.1860  0.6731
 2268SOL    HW3 9146   1.773   0.888   3.666 -0.4748 -1.4023 -0.2064
 2268SOL    MW4 9147   1.785   0.866   3.749 -0.0716  0.3518  0.2112
 2269SOL     OW 9148   3.840   0.434   4.141 -0.5132  0.2305  0.1478
 2269SOL    HW2 9149   3.849   0.528   4.127 -0.6136  0.1601 -0.3924
 2269SOL    HW3 9150   3.746   0.419   4.145 -0.5078  0.0762 -0.2978
 2269SOL    MW4 9151   3.829   0.444   4.140 -0.5257  0.2009  0.0176
 2270SOL     OW 9152   2.052   1.535   3.879 -1.0019  0.1781 -0.1815
 2270SOL    HW2 9153   2.123   1.587   3.840 -0.8265  0.1865  0.1460
 2270SOL    HW3 9154   1.973   1.585   3.859 -0.8943  0.2794 -0.3634
 2270SOL    MW4 9155   2.051   1.549   3.871 -0.9644  0.1928 -0.1624
 2271SOL     OW 9156   1.786   2.101   4.122  0.3819 -0.0716 -0.2543
 2271SOL    HW2 9157   1.743   2.186   4.118 -0.8217 -0.6163  0.8902
 2271SOL    HW3 9158   1.874   2.120   4.155 -0.3308  0.5846  1.3042
 2271SOL    MW4 9159   1.792   2.115   4.125  0.1291 -0.0567  0.1025
 2272SOL     OW 9160   1.838   1.696   3.825  0.2837 -0.1459  0.1522
 2272SOL    HW2 9161   1.836   1.791   3.835 -1.6728 -0.2033  0.4881
 2272SOL    HW3 9162   1.831   1.681   3.731 -1.2975  0.0244  0.2293
 2272SOL    MW4 9163   1.836   1.707   3.814 -0.1830 -0.1309  0.2065
 2273SOL     OW 9164   1.564   3.204   4.618 -0.2378  0.1876 -1.2073
 2273SOL    HW2 9165   1.630   3.139   4.641 -0.7123 -0.2767 -1.1337
 2273SOL    HW3 9166   1.613   3.273   4.574  0.6304  0.9475  0.8962
 2273SOL    MW4 9167   1.579   3.204   4.615 -0.1858  0.2265 -0.9203
 2274SOL     OW 9168   2.024   2.047   3.794  0.2944 -0.1103  0.2977
 2274SOL    HW2 9169   1.933   2.026   3.815  0.3207 -1.0638 -0.4968
 2274SOL    HW3 9170   2.030   2.034   3.699  2.0144 -3.0524  0.7322
 2274SOL    MW4 9171   2.012   2.042   3.784  0.5245 -0.6244  0.2506
 2275SOL     OW 9172   2.427   0.024   3.855  0.0183  0.2289 -0.0147
 2275SOL    HW2 9173   2.409   0.055   3.944  0.0656 -1.1554  0.4759
 2275SOL    HW3 9174   2.512   0.063   3.834  0.2621  0.1343  0.7528
 2275SOL    MW4 9175   2.436   0.034   3.864  0.0570  0.0338  0.1512
 2276SOL     OW 9176   4.214   1.254   4.179 -0.0937 -0.3663  0.3052
 2276SOL    HW2 9177   4.240   1.345   4.161 -0.4014  0.0238  1.8020
 2276SOL    HW3 9178   4.293   1.203   4.165 -0.5273 -0.2366 -3.1245
 2276SOL    MW4 9179   4.227   1.260   4.174 -0.1917 -0.2978  0.0501
 2277SOL     OW 9180   0.628   2.043   4.476 -0.2728  0.2154 -0.3892
 2277SOL    HW2 9181   0.663   2.048   4.387  0.3775  0.8590 -0.1030
 2277SOL    HW3 9182   0.560   2.111   4.478  0.2856  0.7693 -0.1442
 2277SOL    MW4 9183   0.624   2.053   4.464 -0.1133  0.3734 -0.3190
 2278SOL     OW 9184   1.993   2.845   3.736 -0.1216  0.0226 -0.0486
 2278SOL    HW2 9185   1.995   2.930   3.779 -0.0992  0.0803 -0.1625
 2278SOL    HW3 9186   1.922   2.797   3.779 -0.6792  0.4003 -0.5542
 2278SOL    MW4 9187   1.984   2.850   3.747 -0.1923  0.0801 -0.1302
 2279SOL     OW 9188   2.005   3.078   3.850 -0.2211  0.5048 -0.2528
 2279SOL    HW2 9189   2.086   3.118   3.819  0.9179 -0.9597  0.7389
 2279SOL    HW3 9190   2.007   3.093   3.945 -1.1980  0.6074 -0.2499
 2279SOL    MW4 9191   2.016   3.086   3.859 -0.1996  0.3250 -0.1214
 2280SOL     OW 9192   1.794   3.219   3.740 -0.3015  0.2710  0.0623
 2280SOL    HW2 9193   1.808   3.312   3.759  0.3170  0.0802  0.5777
 2280SOL    HW3 9194   1.873   3.176   3.774  0.3256 -0.2187 -1.9665
 2280SOL    MW4 9195   1.807   3.225   3.747 -0.1372  0.1812 -0.1373
 2281SOL     OW 9196   0.460   0.380   4.543  0.1145 -0.4789  0.0444
 2281SOL    HW2 9197   0.368   0.407   4.552  0.2949  0.4425 -0.7954
 2281SOL    HW3 9198   0.509   0.443   4.596  0.2774 -0.8324  0.3100
 2281SOL    MW4 9199   0.454   0.392   4.551  0.1597 -0.4039 -0.0315
 2282SOL     OW 9200   0.397   0.098   4.532 -0.0464  0.2841 -0.4708
 2282SOL    HW2 9201   0.439   0.180   4.556 -1.9395  1.5275 -1.2662
 2282SOL    HW3 9202   0.401   0.096   4.436 -0.1103 -0.4968 -0.4607
 2282SOL    MW4 9203   0.403   0.108   4.522 -0.3045  0.3451 -0.5746
 2283SOL     OW 9204   2.002   3.883   3.872 -0.0420  0.1707  0.4481
 2283SOL    HW2 9205   2.078   3.938   3.853 -1.0178  1.8523  1.2709
 2283SOL    HW3 9206   2.013   3.859   3.964 -0.5879  0.5494  0.6104
 2283SOL    MW4 9207   2.014   3.887   3.882 -0.2429  0.4425  0.5782
 2284SOL     OW 9208   1.746   3.975   3.788 -0.0933 -0.1623 -0.2274
 2284SOL    HW2 9209   1.829   3.950   3.829 -0.3547 -1.6769 -0.5983
 2284SOL    HW3 9210   1.680   3.924   3.835 -0.6596 -0.0751 -0.9276
 2284SOL    MW4 9211   1.748   3.965   3.800 -0.2027 -0.3507 -0.3688
 2285SOL     OW 9212   1.434   4.274   3.769  0.1146 -0.3223 -0.1662
 2285SOL    HW2 9213   1.395   4.345   3.821 -1.4679 -1.8773  0.8365
 2285SOL    HW3 9214   1.513   4.250   3.817 -0.9964 -1.3062  1.2447
 2285SOL    MW4 9215   1.439   4.280   3.782 -0.2408 -0.6571  0.1523
 2286SOL     OW 9216   1.959   4.368   3.792 -0.2888  0.1983  0.1021
 2286SOL    HW2 9217   1.948   4.460   3.816  0.1902  0.3400 -0.2177
 2286SOL    HW3 9218   1.983   4.370   3.700  0.7238 -0.1953  0.3564
 2286SOL    MW4 9219   1.961   4.380   3.783 -0.0919  0.1650  0.0932
 2287SOL     OW 9220   3.771   0.904   4.423 -0.1327  0.3854  0.4138
 2287SOL    HW2 9221   3.849   0.865   4.383 -0.3438  0.6828 -0.3027
 2287SOL    HW3 9222   3.798   0.991   4.449  0.1204  0.0427  1.3010
 2287SOL    MW4 9223   3.785   0.910   4.421 -0.1273  0.3794  0.4363
 2288SOL     OW 9224   2.175   0.089   3.787  0.1946 -0.0638  0.3685
 2288SOL    HW2 9225   2.263   0.055   3.804 -0.6011 -2.4126 -0.0388
 2288SOL    HW3 9226   2.168   0.091   3.692  0.1087  0.9541  0.3922
 2288SOL    MW4 9227   2.186   0.085   3.777  0.0782 -0.2394  0.3181
 2289SOL     OW 9228   2.837   1.052   4.632  0.2240  0.1804  0.5685
 2289SOL    HW2 9229   2.929   1.029   4.621 -0.3062 -1.7253  0.0429
 2289SOL    HW3 9230   2.789   0.974   4.605 -1.5788  1.4429  0.0114
 2289SOL    MW4 9231   2.843   1.039   4.627 -0.0834  0.0955  0.4253
 2290SOL     OW 9232   2.008   0.772   3.825 -0.0301 -0.2748 -0.1616
 2290SOL    HW2 9233   2.099   0.802   3.830 -0.2061  0.2564 -0.1960
 2290SOL    HW3 9234   2.015   0.683   3.790  0.4051  0.0886 -0.9953
 2290SOL    MW4 9235   2.021   0.764   3.821  0.0043 -0.1568 -0.2761
 2291SOL     OW 9236   2.453   0.474   3.738  0.5683 -0.0445  0.0336
 2291SOL    HW2 9237   2.465   0.478   3.643  0.4798  0.2622  0.0338
 2291SOL    HW3 9238   2.529   0.425   3.770 -0.0719 -1.2949 -0.3239
 2291SOL    MW4 9239   2.464   0.468   3.730  0.4723 -0.1691 -0.0136
 2292SOL     OW 9240   2.504   0.707   3.850  0.0205 -0.3862  0.1153
 2292SOL    HW2 9241   2.475   0.634   3.795 -1.0922 -0.3396  0.6248
 2292SOL    HW3 9242   2.443   0.777   3.832  0.7440  0.2356  0.0653
 2292SOL    MW4 9243   2.492   0.706   3.840 -0.0310 -0.2980  0.1760
 2293SOL     OW 9244   2.714   0.873   3.830  0.0623 -0.2755 -0.4600
 2293SOL    HW2 9245   2.791   0.818   3.847  0.1663  0.1013  0.2838
 2293SOL    HW3 9246   2.640   0.812   3.834  0.2332 -0.4700 -0.2701
 2293SOL    MW4 9247   2.715   0.858   3.833  0.0985 -0.2515 -0.3366
 2294SOL     OW 9248   2.284   0.864   3.776  0.3273  0.1983  0.2357
 2294SOL    HW2 9249   2.274   0.955   3.801  0.5653  0.1517  0.5127
 2294SOL    HW3 9250   2.296   0.866   3.681 -1.3026  0.3171  0.0328
 2294SOL    MW4 9251   2.285   0.876   3.767  0.1438  0.2078  0.2453
 2295SOL     OW 9252   2.463   1.272   3.827  0.0244  0.2959  0.1375
 2295SOL    HW2 9253   2.395   1.217   3.866  0.2069  0.9771  1.4651
 2295SOL    HW3 9254   2.545   1.229   3.850  0.0966  0.2002 -0.3014
 2295SOL    MW4 9255   2.465   1.259   3.835  0.0577  0.3731  0.2546
 2296SOL     OW 9256   2.279   1.675   3.777 -0.2550 -0.3154 -0.3557
 2296SOL    HW2 9257   2.351   1.639   3.829  0.6071  0.0032 -1.3079
 2296SOL    HW3 9258   2.251   1.753   3.825  0.0290 -0.4389  0.0149
 2296SOL    MW4 9259   2.285   1.681   3.790 -0.1037 -0.2896 -0.4325
 2297SOL     OW 9260   2.313   2.538   4.338  0.0832  0.0746  0.2387
 2297SOL    HW2 9261   2.222   2.525   4.312  0.6755 -0.1803 -1.7630
 2297SOL    HW3 9262   2.328   2.473   4.406 -0.6364 -1.2936 -0.8943
 2297SOL    MW4 9263   2.303   2.528   4.344  0.0663 -0.1392 -0.1745
 2298SOL     OW 9264   2.888   2.809   4.211  0.7126  0.4998  0.5003
 2298SOL    HW2 9265   2.804   2.772   4.183  0.4058  0.8252  0.9811
 2298SOL    HW3 9266   2.953   2.750   4.173  0.2138 -0.9679  1.8331
 2298SOL    MW4 9267   2.885   2.796   4.203  0.6061  0.3490  0.7396
 2299SOL     OW 9268   2.185   2.333   4.135 -0.6368  0.3311  0.4077
 2299SOL    HW2 9269   2.141   2.400   4.187  0.4749  2.0303 -0.8000
 2299SOL    HW3 9270   2.149   2.343   4.047  0.2475  0.0010 -0.0010
 2299SOL    MW4 9271   2.174   2.343   4.130 -0.3731  0.5119  0.1945
 2300SOL     OW 9272   2.466   0.103   4.511 -0.1824  0.7460  0.1514
 2300SOL    HW2 9273   2.419   0.102   4.427  1.0100  0.3430 -0.5279
 2300SOL    HW3 9274   2.409   0.054   4.571 -1.0469  1.0371 -0.4157
 2300SOL    MW4 9275   2.452   0.097   4.507 -0.1388  0.7312 -0.0134
 2301SOL     OW 9276   2.214   2.738   3.867 -0.1601 -0.7010 -0.3479
 2301SOL    HW2 9277   2.134   2.775   3.830  0.0090 -1.1104 -1.1157
 2301SOL    HW3 9278   2.224   2.653   3.825 -0.5996 -1.6862  1.5033
 2301SOL    MW4 9279   2.205   2.732   3.857 -0.1955 -0.8848 -0.2050
 2302SOL     OW 9280   2.468   2.838   3.779  0.0546  0.1798  0.0051
 2302SOL    HW2 9281   2.380   2.819   3.811  0.8862 -2.0022  1.1045
 2302SOL    HW3 9282   2.470   2.804   3.690  0.1804 -0.9301  0.4319
 2302SOL    MW4 9283   2.457   2.831   3.772  0.1807 -0.2544  0.2065
 2303SOL     OW 9284   2.500   3.093   3.833  0.0966 -0.2918  0.3832
 2303SOL    HW2 9285   2.480   3.006   3.801  2.1867 -0.6572  0.0108
 2303SOL    HW3 9286   2.477   3.090   3.926 -0.3359 -1.0665  0.2549
 2303SOL    MW4 9287   2.494   3.081   3.841  0.3152 -0.4423  0.3171
 2304SOL     OW 9288   2.251   3.198   3.767  0.1564 -0.1787 -0.6318
 2304SOL    HW2 9289   2.232   3.289   3.786  1.1111  0.1039 -0.9912
 2304SOL    HW3 9290   2.344   3.188   3.787 -0.2063 -1.3811  0.5666
 2304SOL    MW4 9291   2.261   3.208   3.772  0.2344 -0.2999 -0.5207
 2305SOL     OW 9292   2.238   3.466   3.830 -0.2837  0.0873 -0.4054
 2305SOL    HW2 9293   2.252   3.460   3.925  0.0478 -0.2612 -0.4759
 2305SOL    HW3 9294   2.312   3.519   3.799 -1.2293  1.5397 -0.2671
 2305SOL    MW4 9295   2.250   3.472   3.839 -0.3648  0.2327 -0.3963
 2306SOL     OW 9296   2.484   3.635   3.752  0.5409 -0.3077 -0.1438
 2306SOL    HW2 9297   2.468   3.647   3.658  0.2028  0.8766  0.0642
 2306SOL    HW3 9298   2.475   3.722   3.789 -0.4845 -0.9641  1.1746
 2306SOL    MW4 9299   2.481   3.648   3.744  0.3607 -0.2379  0.0575
 2307SOL     OW 9300   2.475   3.879   3.848  0.2974  0.4209 -0.5234
 2307SOL    HW2 9301   2.538   3.930   3.798  0.3365  1.5174  0.6189
 2307SOL    HW3 9302   2.397   3.935   3.853 -0.0338 -0.0640 -0.1564
 2307SOL    MW4 9303   2.473   3.893   3.842  0.2589  0.5014 -0.3242
 2308SOL     OW 9304   2.235   4.033   3.795 -0.3390  0.5411 -0.2593
 2308SOL    HW2 9305   2.218   4.119   3.833  0.3973  0.4339  0.3311
 2308SOL    HW3 9306   2.238   4.048   3.700  1.2590  1.4384 -0.0748
 2308SOL    MW4 9307   2.233   4.046   3.787 -0.0308  0.6447 -0.1569
 2309SOL     OW 9308   2.214   4.300   3.886  0.1086  0.2131  0.3206
 2309SOL    HW2 9309   2.191   4.282   3.977 -0.2421  0.7570  0.3423
 2309SOL    HW3 9310   2.134   4.333   3.847  0.2379 -0.0920 -0.2096
 2309SOL    MW4 9311   2.201   4.302   3.893  0.0792  0.2451  0.2534
 2310SOL     OW 9312   2.434   4.425   3.774 -0.4854  0.0470 -0.8758
 2310SOL    HW2 9313   2.355   4.388   3.814 -0.6267  0.9715 -0.2817
 2310SOL    HW3 9314   2.426   4.519   3.788  1.0554  0.0951 -0.2010
 2310SOL    MW4 9315   2.423   4.432   3.781 -0.3006  0.1755 -0.7081
 2311SOL     OW 9316   2.175   4.209   4.141 -0.0230 -0.0245 -0.2020
 2311SOL    HW2 9317   2.089   4.197   4.180 -0.1984 -1.7824 -1.0593
 2311SOL    HW3 9318   2.219   4.125   4.155  1.0368  0.3917 -0.9972
 2311SOL    MW4 9319   2.170   4.196   4.148  0.0935 -0.2012 -0.4201
 2312SOL     OW 9320   1.659   4.104   4.550 -0.6519  0.1336 -0.1977
 2312SOL    HW2 9321   1.709   4.026   4.573  0.6357  0.1798 -2.6441
 2312SOL    HW3 9322   1.590   4.109   4.615  1.3940 -1.0404  2.1208
 2312SOL    MW4 9323   1.657   4.095   4.561 -0.2122 -0.0148 -0.2146
 2313SOL     OW 9324   3.943   3.054   4.721  0.2762  0.2506 -0.3327
 2313SOL    HW2 9325   3.901   3.012   4.647  0.9727  1.0482 -1.1931
 2313SOL    HW3 9326   4.022   3.003   4.737  1.0513  1.1196 -1.2903
 2313SOL    MW4 9327   3.948   3.042   4.714  0.4704  0.4706 -0.5722
 2314SOL     OW 9328   3.332   0.502   3.794 -0.2718 -0.1389  0.0148
 2314SOL    HW2 9329   3.406   0.456   3.835  0.9301  0.2116 -1.7125
 2314SOL    HW3 9330   3.254   0.463   3.835  0.8135 -1.5657  0.7884
 2314SOL    MW4 9331   3.331   0.491   3.805  0.0300 -0.2809 -0.1111
 2315SOL     OW 9332   2.771   1.726   4.317 -0.0060  0.2613 -0.1252
 2315SOL    HW2 9333   2.833   1.675   4.264 -0.8739 -0.9474  0.0014
 2315SOL    HW3 9334   2.688   1.679   4.309 -0.9478  1.9407 -0.3842
 2315SOL    MW4 9335   2.768   1.713   4.309 -0.2446  0.3234 -0.1426
 2316SOL     OW 9336   0.198   0.468   4.508 -0.4531 -0.1039  0.0522
 2316SOL    HW2 9337   0.198   0.466   4.412 -2.8278  2.0658 -0.0651
 2316SOL    HW3 9338   0.107   0.452   4.532 -0.2081  1.0569  1.8649
 2316SOL    MW4 9339   0.186   0.466   4.498 -0.7341  0.3355  0.2761
 2317SOL     OW 9340   4.476   1.680   4.216 -0.1958  0.5125  0.2983
 2317SOL    HW2 9341   4.488   1.655   4.308  0.2318  0.5229  0.2465
 2317SOL    HW3 9342   4.542   1.628   4.169 -0.2125  0.7322  0.0350
 2317SOL    MW4 9343   4.487   1.670   4.222 -0.1416  0.5430  0.2570
 2318SOL     OW 9344   2.928   1.268   3.783  0.4049  0.3221  0.0835
 2318SOL    HW2 9345   2.853   1.224   3.824 -0.1404 -0.2839 -1.5324
 2318SOL    HW3 9346   3.004   1.224   3.820 -0.1011 -0.9357 -0.3347
 2318SOL    MW4 9347   2.928   1.256   3.793  0.2663  0.0762 -0.1850
 2319SOL     OW 9348   2.951   1.526   3.887  0.3375  0.1176 -0.0969
 2319SOL    HW2 9349   3.031   1.564   3.850 -0.1308  0.7079 -0.5208
 2319SOL    HW3 9350   2.937   1.446   3.836  0.8292 -0.1544  0.1893
 2319SOL    MW4 9351   2.960   1.520   3.875  0.3407  0.1594 -0.1149
 2320SOL     OW 9352   2.706   1.634   3.812  1.0651  0.0938 -0.8891
 2320SOL    HW2 9353   2.787   1.591   3.841  1.2664  0.7525 -0.4595
 2320SOL    HW3 9354   2.710   1.631   3.716  1.6854  0.2776 -0.8704
 2320SOL    MW4 9355   2.717   1.628   3.803  1.1735  0.2049 -0.8302
 2321SOL     OW 9356   2.698   2.685   3.848 -0.0989 -0.1936  0.1850
 2321SOL    HW2 9357   2.625   2.745   3.834  0.0999 -0.0951 -0.4478
 2321SOL    HW3 9358   2.700   2.672   3.942  1.7193  3.1520  0.6845
 2321SOL    MW4 9359   2.689   2.691   3.858  0.1671  0.2608  0.1676
 2322SOL     OW 9360   4.017   3.465   4.133  0.5173  0.3235  0.3902
 2322SOL    HW2 9361   4.035   3.373   4.154  1.9702 -0.1830 -2.8314
 2322SOL    HW3 9362   4.092   3.513   4.167  0.9337 -0.0035 -0.0517
 2322SOL    MW4 9363   4.029   3.459   4.140  0.7639  0.2136 -0.0930
 2323SOL     OW 9364   2.885   1.316   4.301 -0.6672  0.4588  0.2982
 2323SOL    HW2 9365   2.959   1.263   4.273 -0.0631  1.1442  0.5892
 2323SOL    HW3 9366   2.808   1.265   4.275 -0.1087  0.5446 -1.5586
 2323SOL    MW4 9367   2.884   1.302   4.294 -0.5140  0.5606  0.0911
 2324SOL     OW 9368   2.892   2.436   4.103 -0.2312  0.3950 -0.1746
 2324SOL    HW2 9369   2.809   2.443   4.150 -0.2856 -1.1649 -0.0169
 2324SOL    HW3 9370   2.946   2.378   4.157  0.3746  0.1021 -1.0783
 2324SOL    MW4 9371   2.888   2.429   4.116 -0.1585  0.1507 -0.2728
 2325SOL     OW 9372   2.135   2.751   4.129  0.3107  0.3626  0.7507
 2325SOL    HW2 9373   2.101   2.675   4.176 -0.3079 -0.2481 -0.6524
 2325SOL    HW3 9374   2.172   2.715   4.048 -0.4245  1.6056 -0.1593
 2325SOL    MW4 9375   2.136   2.736   4.124  0.1323  0.4463  0.4458
 2326SOL     OW 9376   1.139   3.142   4.143 -0.3543 -0.1770 -0.3054
 2326SOL    HW2 9377   1.124   3.133   4.049 -1.2268 -0.1185 -0.1759
 2326SOL    HW3 9378   1.056   3.172   4.178 -0.0702 -0.3183  0.5076
 2326SOL    MW4 9379   1.126   3.145   4.136 -0.4318 -0.1879 -0.1807
 2327SOL     OW 9380   2.889   2.833   3.725  0.5057 -0.2387 -0.3551
 2327SOL    HW2 9381   2.823   2.781   3.771  1.0958 -0.6504  0.0206
 2327SOL    HW3 9382   2.891   2.916   3.773 -0.4094  0.1304 -0.9330
 2327SOL    MW4 9383   2.880   2.837   3.738  0.4628 -0.2444 -0.3819
 2328SOL     OW 9384   2.695   3.238   3.739 -0.4422  0.0505  0.3869
 2328SOL    HW2 9385   2.691   3.328   3.772 -0.4079  0.8171 -1.6282
 2328SOL    HW3 9386   2.621   3.193   3.780  0.2616  0.6533  2.3705
 2328SOL    MW4 9387   2.685   3.244   3.748 -0.3448  0.2313  0.3829
 2329SOL     OW 9388   2.915   3.616   3.739 -0.1509 -0.4869 -0.0827
 2329SOL    HW2 9389   2.933   3.641   3.649  0.2516 -0.3163  0.0436
 2329SOL    HW3 9390   2.993   3.569   3.768  1.2001  2.4369  1.2594
 2329SOL    MW4 9391   2.927   3.613   3.731  0.0806 -0.0787  0.1109
 2330SOL     OW 9392   3.161   3.469   3.828  0.4477  0.2609  0.2427
 2330SOL    HW2 9393   3.149   3.462   3.923  2.0548  0.7834  0.5092
 2330SOL    HW3 9394   3.249   3.506   3.818  0.5613 -0.4147 -1.4645
 2330SOL    MW4 9395   3.171   3.473   3.839  0.6747  0.2408  0.0522
 2331SOL     OW 9396   3.350   3.863   3.842 -0.0116 -0.1287 -0.0484
 2331SOL    HW2 9397   3.431   3.904   3.810  0.2786  0.1620  1.0247
 2331SOL    HW3 9398   3.281   3.926   3.821 -0.1243 -0.8691 -1.9609
 2331SOL    MW4 9399   3.352   3.877   3.835  0.0117 -0.1881 -0.1590
 2332SOL     OW 9400   2.686   4.021   3.706  0.0491 -0.2177  0.6016
 2332SOL    HW2 9401   2.676   4.108   3.746  0.6512 -0.6270  1.6407
 2332SOL    HW3 9402   2.765   3.986   3.744  0.0422 -1.0659 -0.1495
 2332SOL    MW4 9403   2.695   4.028   3.716  0.1276 -0.3839  0.6394
 2333SOL     OW 9404   2.657   4.269   3.806 -0.0804 -0.1623 -0.2426
 2333SOL    HW2 9405   2.728   4.323   3.773 -0.3019  0.3300  0.0813
 2333SOL    HW3 9406   2.580   4.324   3.800 -0.1729 -0.1659  0.8138
 2333SOL    MW4 9407   2.656   4.283   3.801 -0.1216 -0.0982 -0.0608
 2334SOL     OW 9408   2.909   4.388   3.732 -0.4870 -0.4665 -0.2950
 2334SOL    HW2 9409   2.984   4.341   3.766 -1.2973 -1.1848  0.5284
 2334SOL    HW3 9410   2.911   4.473   3.776 -0.4172 -0.6619  0.0798
 2334SOL    MW4 9411   2.919   4.393   3.743 -0.5848 -0.5870 -0.1369
 2335SOL     OW 9412   3.333   0.003   3.877  0.0648 -0.5757 -0.1218
 2335SOL    HW2 9413   3.339   0.005   3.973  0.1800 -1.0689 -0.1124
 2335SOL    HW3 9414   3.423   0.016   3.848 -0.2291  1.4111 -0.2140
 2335SOL    MW4 9415   3.346   0.005   3.886  0.0412 -0.3781 -0.1328
 2336SOL     OW 9416   3.131   0.159   3.755  0.5454  0.5611  0.1647
 2336SOL    HW2 9417   3.201   0.106   3.793  1.8916  1.6515 -0.7388
 2336SOL    HW3 9418   3.133   0.138   3.662  0.1073  1.0964  0.0323
 2336SOL    MW4 9419   3.141   0.149   3.748  0.6649  0.7756  0.0281
 2337SOL     OW 9420   3.823   2.909   4.484 -0.1711  0.4805 -0.1247
 2337SOL    HW2 9421   3.812   2.865   4.400  0.6251  0.3359 -0.1600
 2337SOL    HW3 9422   3.748   2.881   4.536 -0.9948  1.0661 -0.9995
 2337SOL    MW4 9423   3.812   2.899   4.480 -0.1750  0.5386 -0.2456
 2338SOL     OW 9424   3.559   0.371   3.887 -0.0808 -0.0903 -0.2824
 2338SOL    HW2 9425   3.633   0.420   3.850  0.4049 -0.6473 -0.0526
 2338SOL    HW3 9426   3.576   0.280   3.862 -0.7172 -0.2116 -0.2754
 2338SOL    MW4 9427   3.571   0.365   3.879 -0.1006 -0.1798 -0.2511
 2339SOL     OW 9428   3.402   0.769   3.867 -0.2566 -0.1363  0.0995
 2339SOL    HW2 9429   3.436   0.774   3.956 -0.9983  0.9083  0.3340
 2339SOL    HW3 9430   3.360   0.683   3.862 -1.3156  0.3054  1.1689
 2339SOL    MW4 9431   3.401   0.759   3.878 -0.4945  0.0598  0.2716
 2340SOL     OW 9432   3.161   0.878   3.830 -0.2957  0.3856  0.8727
 2340SOL    HW2 9433   3.246   0.850   3.862 -0.7633  1.0739  2.7536
 2340SOL    HW3 9434   3.169   0.874   3.735  2.1856  1.4818  1.0013
 2340SOL    MW4 9435   3.173   0.874   3.822 -0.0298  0.6210  1.1377
 2341SOL     OW 9436   1.068   4.519   4.492  0.9360  0.0483  0.2288
 2341SOL    HW2 9437   1.106   4.437   4.524  0.2937 -0.1570  0.4700
 2341SOL    HW3 9438   1.058   4.504   4.398  1.1798 -0.0094  0.2116
 2341SOL    MW4 9439   1.071   4.506   4.484  0.8833  0.0134  0.2580
 2342SOL     OW 9440   3.373   1.258   3.786 -0.2454  0.3785  0.2814
 2342SOL    HW2 9441   3.295   1.220   3.825 -0.1276  0.1684  0.3117
 2342SOL    HW3 9442   3.350   1.273   3.694 -1.0416  2.2762  0.7677
 2342SOL    MW4 9443   3.360   1.255   3.779 -0.3347  0.6009  0.3498
 2343SOL     OW 9444   3.612   1.659   3.818 -0.2598 -0.2091 -0.0044
 2343SOL    HW2 9445   3.547   1.604   3.863  0.4838 -0.7900  0.3726
 2343SOL    HW3 9446   3.600   1.639   3.725 -0.7826 -0.1256  0.0408
 2343SOL    MW4 9447   3.602   1.649   3.812 -0.2308 -0.2749  0.0515
 2344SOL     OW 9448   3.174   1.654   3.761  0.0324  0.6411 -0.6224
 2344SOL    HW2 9449   3.143   1.650   3.670  0.3715 -0.4264 -0.6909
 2344SOL    HW3 9450   3.178   1.748   3.780 -2.0428  0.8423 -1.0152
 2344SOL    MW4 9451   3.171   1.666   3.751 -0.1969  0.5269 -0.6833
 2345SOL     OW 9452   2.379   1.467   4.167  0.3849 -0.1241 -0.6238
 2345SOL    HW2 9453   2.284   1.476   4.174  0.2018 -1.3905 -1.4087
 2345SOL    HW3 9454   2.401   1.513   4.086  0.3332 -0.5515 -0.8816
 2345SOL    MW4 9455   2.370   1.475   4.158  0.3541 -0.3475 -0.7606
 2346SOL     OW 9456   3.163   1.911   3.820  0.2358  0.1313  0.1509
 2346SOL    HW2 9457   3.086   1.966   3.806 -0.8466 -1.3705  0.0867
 2346SOL    HW3 9458   3.179   1.917   3.914  0.9510  1.6191 -0.0534
 2346SOL    MW4 9459   3.155   1.919   3.831  0.1874  0.1295  0.1154
 2347SOL     OW 9460   4.360   0.353   4.515 -0.2987 -0.2112 -0.0491
 2347SOL    HW2 9461   4.378   0.287   4.449 -0.6034  1.0415 -1.4104
 2347SOL    HW3 9462   4.376   0.309   4.598  1.0459 -1.5140 -0.9766
 2347SOL    MW4 9463   4.364   0.338   4.517 -0.1607 -0.2178 -0.3514
 2348SOL     OW 9464   2.720   4.034   4.263 -0.1505 -0.6172 -0.5060
 2348SOL    HW2 9465   2.751   3.978   4.334 -1.9064  0.6324  1.2878
 2348SOL    HW3 9466   2.630   4.006   4.247 -0.9541  1.4372  0.2162
 2348SOL    MW4 9467   2.712   4.023   4.270 -0.4885 -0.1817 -0.1736
 2349SOL     OW 9468   0.117   0.073   4.562  0.4054  0.4937 -0.0941
 2349SOL    HW2 9469   0.069   0.091   4.481  0.4207 -0.1889 -0.2530
 2349SOL    HW3 9470   0.208   0.093   4.541  0.4644 -0.0540 -0.3583
 2349SOL    MW4 9471   0.122   0.078   4.549  0.4152  0.3313 -0.1502
 2350SOL     OW 9472   1.760   4.612   4.244  0.3412  0.3760  0.8035
 2350SOL    HW2 9473   1.848   4.630   4.211 -0.8006  1.5886 -1.7488
 2350SOL    HW3 9474   1.740   4.524   4.213  0.8484 -0.1202  1.8629
 2350SOL    MW4 9475   1.769   4.603   4.235  0.2574  0.4706  0.6065
 2351SOL     OW 9476   2.922   3.625   4.155  0.1567 -0.4187 -0.0264
 2351SOL    HW2 9477   2.995   3.570   4.127  0.5162  0.1334 -0.1924
 2351SOL    HW3 9478   2.844   3.573   4.138  0.3816 -0.2052 -1.8215
 2351SOL    MW4 9479   2.922   3.611   4.149  0.2339 -0.3178 -0.2847
 2352SOL     OW 9480   3.338   3.070   3.872 -0.1257  0.0831 -0.1326
 2352SOL    HW2 9481   3.331   3.064   3.967 -0.7506 -1.6107 -0.2821
 2352SOL    HW3 9482   3.258   3.116   3.845 -0.4576 -0.3748  0.0682
 2352SOL    MW4 9483   3.327   3.075   3.881 -0.2520 -0.2012 -0.1259
 2353SOL     OW 9484   2.954   3.279   4.523 -0.0526  0.4267  0.3210
 2353SOL    HW2 9485   2.973   3.271   4.429  0.7767  1.2335  0.4046
 2353SOL    HW3 9486   2.859   3.273   4.529  0.0188 -1.8374 -0.3256
 2353SOL    MW4 9487   2.944   3.277   4.511  0.0663  0.2344  0.2465
 2354SOL     OW 9488   3.338   3.595   3.493  0.1374  0.1551  0.3775
 2354SOL    HW2 9489   3.333   3.682   3.453 -0.6819  1.3145  2.8961
 2354SOL    HW3 9490   3.262   3.548   3.459 -0.3375  0.9904  0.2871
 2354SOL    MW4 9491   3.327   3.600   3.483 -0.0336  0.4182  0.6976
 2355SOL     OW 9492   3.573   3.978   3.759  0.0931  0.7728  0.2615
 2355SOL    HW2 9493   3.567   4.067   3.793  0.9023  0.1422  2.1439
 2355SOL    HW3 9494   3.652   3.942   3.799  0.3284 -0.4629 -1.2682
 2355SOL    MW4 9495   3.583   3.985   3.769  0.2308  0.5267  0.3080
 2356SOL     OW 9496   3.138   4.015   3.749 -0.1724  0.1219  0.0225
 2356SOL    HW2 9497   3.142   4.104   3.784 -0.6618  1.0655 -2.2667
 2356SOL    HW3 9498   3.051   3.984   3.775 -0.0858  0.3863  0.6432
 2356SOL    MW4 9499   3.127   4.023   3.757 -0.2255  0.2813 -0.1974
 2357SOL     OW 9500   3.119   4.253   3.861 -0.3939 -0.1635  0.3458
 2357SOL    HW2 9501   3.093   4.276   3.950 -0.4438  0.4552  0.1761
 2357SOL    HW3 9502   3.191   4.313   3.841  0.8043 -1.4730  0.6085
 2357SOL    MW4 9503   3.125   4.264   3.870 -0.2422 -0.2546  0.3579
 2358SOL     OW 9504   3.347   4.402   3.785 -0.0342  0.7359  0.2882
 2358SOL    HW2 9505   3.427   4.361   3.817 -0.1168 -0.9389 -1.5792
 2358SOL    HW3 9506   3.348   4.490   3.824  0.9362 -0.4395  3.0681
 2358SOL    MW4 9507   3.358   4.408   3.795  0.0830  0.3591  0.4086
 2359SOL     OW 9508   3.845   4.625   3.837  0.2761  0.2440  0.0641
 2359SOL    HW2 9509   3.908   4.669   3.780  0.0925 -1.1106 -1.2179
 2359SOL    HW3 9510   3.855   4.532   3.817 -1.4426 -0.0660  0.5464
 2359SOL    MW4 9511   3.855   4.618   3.827  0.0253  0.0243 -0.0412
 2360SOL     OW 9512   3.590   0.093   3.816  0.6779 -0.4252  0.7385
 2360SOL    HW2 9513   3.678   0.060   3.836  0.8664 -1.3165 -1.3653
 2360SOL    HW3 9514   3.581   0.080   3.722 -1.6831 -0.2391  0.9094
 2360SOL    MW4 9515   3.601   0.087   3.806  0.3912 -0.5182  0.4835
 2361SOL     OW 9516   1.081   2.736   4.364 -0.1640 -0.3428  0.1701
 2361SOL    HW2 9517   1.155   2.790   4.336 -0.4342 -0.4175 -0.7228
 2361SOL    HW3 9518   1.120   2.654   4.391  0.1994  0.0947  0.9872
 2361SOL    MW4 9519   1.096   2.733   4.364 -0.1518 -0.2947  0.1602
 2362SOL     OW 9520   3.813   0.454   3.770 -0.2360  0.1985  0.4029
 2362SOL    HW2 9521   3.894   0.417   3.806 -0.1999  0.8923  1.0418
 2362SOL    HW3 9522   3.820   0.548   3.788 -0.6267  0.4315 -0.6294
 2362SOL    MW4 9523   3.825   0.461   3.777 -0.2828  0.3208  0.3510
 2363SOL     OW 9524   4.239   0.801   3.846 -0.2368  0.4332  0.3428
 2363SOL    HW2 9525   4.317   0.844   3.810  0.5156 -0.7550  0.5366
 2363SOL    HW3 9526   4.166   0.839   3.797  0.4686  1.4805  0.0893
 2363SOL    MW4 9527   4.240   0.812   3.835 -0.0448  0.4146  0.3350
 2364SOL     OW 9528   3.601   0.886   3.706  0.0520  0.0974  0.2451
 2364SOL    HW2 9529   3.526   0.860   3.760 -0.4306  0.7428 -0.1020
 2364SOL    HW3 9530   3.631   0.968   3.745 -0.3900  0.6455 -0.5563
 2364SOL    MW4 9531   3.595   0.894   3.719 -0.0701  0.2549  0.0937
 2365SOL     OW 9532   3.808   1.294   3.747  0.7045  0.2271  0.7498
 2365SOL    HW2 9533   3.888   1.250   3.772  0.4723 -0.1591  0.8131
 2365SOL    HW3 9534   3.738   1.246   3.792  0.3128 -0.3182 -0.4175
 2365SOL    MW4 9535   3.809   1.282   3.756  0.6223  0.1042  0.6042
 2366SOL     OW 9536   3.939   0.140   4.516  0.0912  0.0633 -0.3187
 2366SOL    HW2 9537   3.906   0.226   4.489 -1.0688 -0.4819 -0.6964
 2366SOL    HW3 9538   3.860   0.088   4.531  0.7476 -0.2023  2.4026
 2366SOL    MW4 9539   3.924   0.145   4.514  0.0246 -0.0436 -0.0100
 2367SOL     OW 9540   2.878   0.479   3.746  0.0344  0.0686 -0.0171
 2367SOL    HW2 9541   2.803   0.443   3.793  0.0823 -0.1313 -0.0908
 2367SOL    HW3 9542   2.897   0.562   3.790  1.0597 -0.8494  1.3189
 2367SOL    MW4 9543   2.871   0.485   3.758  0.1760 -0.0789  0.1495
 2368SOL     OW 9544   2.877   1.789   4.571 -0.3198 -0.2256  0.4666
 2368SOL    HW2 9545   2.847   1.760   4.485 -0.5203 -0.1527  0.5112
 2368SOL    HW3 9546   2.905   1.708   4.615 -0.4875 -0.2987  0.4393
 2368SOL    MW4 9547   2.877   1.774   4.566 -0.3686 -0.2257  0.4683
 2369SOL     OW 9548   0.979   2.486   4.706  0.4206 -0.3022 -0.4292
 2369SOL    HW2 9549   0.890   2.517   4.692  0.8200  0.6486 -0.9236
 2369SOL    HW3 9550   1.023   2.498   4.622  1.0983 -0.4806 -0.1078
 2369SOL    MW4 9551   0.973   2.492   4.693  0.5627 -0.2000 -0.4516
 2370SOL     OW 9552   4.430   2.712   3.868 -0.2637  0.3954  0.2372
 2370SOL    HW2 9553   4.436   2.703   3.963  0.4276  1.1857  0.2807
 2370SOL    HW3 9554   4.515   2.749   3.843 -0.0440 -0.7891 -0.8084
 2370SOL    MW4 9555   4.442   2.715   3.878 -0.1440  0.3433  0.1051
 2371SOL     OW 9556   3.071   3.659   5.058 -0.1987  0.2604 -0.1645
 2371SOL    HW2 9557   3.088   3.581   5.006 -0.3094 -0.3316  0.6762
 2371SOL    HW3 9558   3.084   3.631   5.149 -0.8636  1.0497  0.1872
 2371SOL    MW4 9559   3.075   3.645   5.063 -0.3011  0.2868 -0.0067
 2372SOL     OW 9560   3.125   2.428   3.738  0.0273 -0.5430  0.0874
 2372SOL    HW2 9561   3.130   2.518   3.768  0.5977 -0.1517 -1.1582
 2372SOL    HW3 9562   3.183   2.380   3.798 -0.0877 -0.0551  0.5942
 2372SOL    MW4 9563   3.134   2.433   3.750  0.0873 -0.4270 -0.0103
 2373SOL     OW 9564   3.096   4.231   4.745 -0.3676  0.7531  0.0934
 2373SOL    HW2 9565   3.044   4.205   4.821 -0.2111 -0.5050 -0.2220
 2373SOL    HW3 9566   3.037   4.218   4.670  0.6866 -1.6146 -0.3629
 2373SOL    MW4 9567   3.081   4.226   4.745 -0.2079  0.2751 -0.0081
 2374SOL     OW 9568   3.324   2.823   3.762 -0.1115 -0.1405  0.1564
 2374SOL    HW2 9569   3.320   2.909   3.805  0.6892  0.3666 -0.7677
 2374SOL    HW3 9570   3.396   2.778   3.806 -1.6448 -1.0287  1.8477
 2374SOL    MW4 9571   3.333   2.829   3.774 -0.2079 -0.1907  0.2575
 2375SOL     OW 9572   3.813   3.089   3.844  0.1559  0.0520  0.0033
 2375SOL    HW2 9573   3.828   3.082   3.938 -0.7613 -0.9097  0.0820
 2375SOL    HW3 9574   3.726   3.128   3.836 -0.4854 -1.4707 -0.4463
 2375SOL    MW4 9575   3.804   3.093   3.855 -0.0498 -0.2759 -0.0460
 2376SOL     OW 9576   3.566   3.201   3.782  0.2172 -0.2567  0.5730
 2376SOL    HW2 9577   3.491   3.147   3.808  0.6871 -0.5319  1.3714
 2376SOL    HW3 9578   3.555   3.214   3.688  0.0869 -1.7238  0.3751
 2376SOL    MW4 9579   3.555   3.196   3.773  0.2620 -0.4864  0.6521
 2377SOL     OW 9580   3.538   4.059   4.711  0.2009  0.1155 -0.2400
 2377SOL    HW2 9581   3.622   4.104   4.714  0.4521 -0.2573 -1.1873
 2377SOL    HW3 9582   3.474   4.126   4.686  0.2382  0.3724  0.3609
 2377SOL    MW4 9583   3.540   4.073   4.708  0.2391  0.1001 -0.2856
 2378SOL     OW 9584   3.578   3.429   3.907 -0.4061  0.1913 -0.4072
 2378SOL    HW2 9585   3.513   3.470   3.850 -0.4709 -0.0391 -0.5017
 2378SOL    HW3 9586   3.594   3.343   3.867 -1.3150 -0.4441  0.5719
 2378SOL    MW4 9587   3.571   3.423   3.894 -0.5345  0.0770 -0.2906
 2379SOL     OW 9588   4.405   4.288   4.661  0.2264 -0.1318 -0.4527
 2379SOL    HW2 9589   4.490   4.319   4.630  1.1195 -1.8016  0.2815
 2379SOL    HW3 9590   4.399   4.199   4.628 -0.3691 -0.6976  1.1514
 2379SOL    MW4 9591   4.416   4.280   4.653  0.2661 -0.4268 -0.1445
 2380SOL     OW 9592   1.680   1.461   4.546 -0.0722  0.4480  0.0737
 2380SOL    HW2 9593   1.680   1.549   4.584 -1.4157 -0.6056  2.6489
 2380SOL    HW3 9594   1.770   1.431   4.557  0.1076  1.0347  0.2540
 2380SOL    MW4 9595   1.692   1.469   4.552 -0.2258  0.3865  0.4377
 2381SOL     OW 9596   1.117   3.942   4.167 -0.1056 -0.3671 -0.1522
 2381SOL    HW2 9597   1.034   3.985   4.187 -0.3636 -0.5514 -0.8142
 2381SOL    HW3 9598   1.108   3.913   4.076  0.3082 -1.2472  0.0799
 2381SOL    MW4 9599   1.105   3.943   4.157 -0.0849 -0.5076 -0.2093
 2382SOL     OW 9600   3.818   4.348   3.807 -0.5360 -1.0510  0.4572
 2382SOL    HW2 9601   3.907   4.311   3.809  0.2816  0.7667 -0.4059
 2382SOL    HW3 9602   3.789   4.335   3.717  1.0431  3.1038 -0.8114
 2382SOL    MW4 9603   3.826   4.342   3.795 -0.2196 -0.2627  0.1760
 2383SOL     OW 9604   4.118   0.096   3.743 -0.4227 -0.2572 -0.4824
 2383SOL    HW2 9605   4.183   0.049   3.795 -0.5009  0.8506  0.6527
 2383SOL    HW3 9606   4.115   0.184   3.782 -2.1676 -0.1104 -0.8944
 2383SOL    MW4 9607   4.126   0.102   3.755 -0.6638 -0.0917 -0.3870
 2384SOL     OW 9608   2.662   2.451   4.261 -0.7146 -0.5059 -0.4472
 2384SOL    HW2 9609   2.582   2.426   4.215 -0.9459 -0.4897 -0.0558
 2384SOL    HW3 9610   2.663   2.397   4.339 -1.0067  0.3952  0.1949
 2384SOL    MW4 9611   2.652   2.441   4.265 -0.7834 -0.3848 -0.3109
 2385SOL     OW 9612   4.063   0.347   3.844 -0.5405  0.3068  0.4075
 2385SOL    HW2 9613   4.090   0.340   3.936  2.0575  1.4518 -0.2139
 2385SOL    HW3 9614   4.126   0.409   3.806 -0.8099 -1.1207 -2.4379
 2385SOL    MW4 9615   4.075   0.355   3.851 -0.2332  0.2696 -0.0501
 2386SOL     OW 9616   4.261   0.538   3.772  0.3623 -0.3644 -0.3235
 2386SOL    HW2 9617   4.261   0.631   3.792  0.9398 -0.8184  2.0055
 2386SOL    HW3 9618   4.283   0.532   3.679  3.2448  1.6959  0.1762
 2386SOL    MW4 9619   4.263   0.549   3.763  0.8187 -0.1525  0.0496
 2387SOL     OW 9620   4.221   0.941   4.454  0.1201  0.0839  0.1461
 2387SOL    HW2 9621   4.205   0.916   4.363  2.1883 -0.5082 -0.0688
 2387SOL    HW3 9622   4.207   1.036   4.455  1.7036  0.3602 -1.1758
 2387SOL    MW4 9623   4.217   0.950   4.442  0.6022  0.0423 -0.0563
 2388SOL     OW 9624   3.803   0.728   3.838  0.0432  0.2778  0.1892
 2388SOL    HW2 9625   3.736   0.770   3.784 -0.2710  0.6153  0.8404
 2388SOL    HW3 9626   3.884   0.774   3.814 -0.2205  0.9468  0.5537
 2388SOL    MW4 9627   3.805   0.740   3.828 -0.0329  0.4106  0.3231
 2389SOL     OW 9628   3.999   0.880   3.730 -0.3659  0.1063  0.3708
 2389SOL    HW2 9629   3.989   0.876   3.635 -2.0588 -1.9657  0.5995
 2389SOL    HW3 9630   3.989   0.973   3.751  0.3369  0.6378 -1.4780
 2389SOL    MW4 9631   3.997   0.892   3.720 -0.4966 -0.0970  0.1571
 2390SOL     OW 9632   4.081   1.931   3.758  0.2696  0.1232  0.0923
 2390SOL    HW2 9633   4.073   1.836   3.763  0.5074  0.1561  1.3443
 2390SOL    HW3 9634   3.990   1.962   3.752  0.1359 -0.1405  0.7074
 2390SOL    MW4 9635   4.068   1.923   3.758  0.2832  0.0927  0.3386
 2391SOL     OW 9636   2.723   1.907   3.884 -0.1005  0.5778 -0.0004
 2391SOL    HW2 9637   2.726   1.918   3.979 -0.2816  0.0832  0.0648
 2391SOL    HW3 9638   2.735   1.813   3.870 -2.4804  0.2760 -0.3331
 2391SOL    MW4 9639   2.725   1.896   3.894 -0.4382  0.4727 -0.0355
 2392SOL     OW 9640   1.226   2.184   4.608 -0.0554  0.3880 -0.0107
 2392SOL    HW2 9641   1.162   2.187   4.678 -1.1557 -0.5775 -0.9605
 2392SOL    HW3 9642   1.174   2.182   4.528  1.1731  0.4116 -0.8195
 2392SOL    MW4 9643   1.211   2.184   4.607 -0.0385  0.2637 -0.2427
 2393SOL     OW 9644   0.544   3.453   4.836  0.1387 -0.0737 -0.2336
 2393SOL    HW2 9645   0.491   3.500   4.901 -1.4344 -1.1529 -0.7171
 2393SOL    HW3 9646   0.500   3.369   4.825  2.4972 -1.3934  0.0485
 2393SOL    MW4 9647   0.532   3.448   4.843  0.2423 -0.3903 -0.2604
 2394SOL     OW 9648   0.732   2.478   4.312 -0.3161  0.3659 -0.3534
 2394SOL    HW2 9649   0.802   2.414   4.297  0.0170  1.0130 -1.7281
 2394SOL    HW3 9650   0.660   2.448   4.257  0.8132  2.6210 -3.2816
 2394SOL    MW4 9651   0.732   2.466   4.303 -0.1233  0.7486 -0.9217
 2395SOL     OW 9652   4.483   3.754   4.623 -0.2255  0.4046 -0.0650
 2395SOL    HW2 9653   4.509   3.711   4.704  1.5636  0.6239 -0.5067
 2395SOL    HW3 9654   4.399   3.714   4.601 -0.6516  0.2431  1.8090
 2395SOL    MW4 9655   4.475   3.743   4.631 -0.0458  0.4122  0.1235
 2396SOL     OW 9656   3.556   2.433   3.805  0.4205 -0.0554  0.1540
 2396SOL    HW2 9657   3.630   2.395   3.852 -0.6312 -0.9195  1.1598
 2396SOL    HW3 9658   3.550   2.523   3.837 -0.0750 -0.5368  1.4508
 2396SOL    MW4 9659   3.565   2.440   3.815  0.2162 -0.2329  0.4575
 2397SOL     OW 9660   2.243   2.485   3.754 -0.2441  0.2111  0.0480
 2397SOL    HW2 9661   2.254   2.497   3.660 -0.3195 -0.7859 -0.0969
 2397SOL    HW3 9662   2.319   2.434   3.782 -0.4591  0.0881  0.4297
 2397SOL    MW4 9663   2.254   2.480   3.746 -0.2825  0.0632  0.0792
 2398SOL     OW 9664   3.122   3.214   3.766 -0.2719 -0.2274 -0.0155
 2398SOL    HW2 9665   3.127   3.219   3.671 -0.5702  2.1666  0.0670
 2398SOL    HW3 9666   3.132   3.305   3.795 -1.9675 -0.6979  2.1383
 2398SOL    MW4 9667   3.124   3.227   3.757 -0.5348  0.0262  0.2797
 2399SOL     OW 9668   3.992   3.995   4.255  0.3537 -0.4740  0.0703
 2399SOL    HW2 9669   3.988   4.081   4.212  0.4848 -0.8345 -0.6710
 2399SOL    HW3 9670   4.074   3.956   4.224  0.1110 -1.0193  0.1068
 2399SOL    MW4 9671   4.002   4.001   4.245  0.3390 -0.5932 -0.0229
 2400SOL     OW 9672   4.030   3.228   3.755 -0.2898 -0.2232 -0.4465
 2400SOL    HW2 9673   3.947   3.189   3.782  0.0391 -0.0589  0.8188
 2400SOL    HW3 9674   4.026   3.318   3.787 -0.0067  0.0516 -1.1796
 2400SOL    MW4 9675   4.019   3.234   3.763 -0.2093 -0.1652 -0.3762
 2401SOL     OW 9676   4.020   3.493   3.864  0.2413  0.5573 -0.1033
 2401SOL    HW2 9677   3.999   3.496   3.957  0.3029 -0.5057 -0.0499
 2401SOL    HW3 9678   3.952   3.547   3.823  0.9025  1.9831  0.6647
 2401SOL    MW4 9679   4.008   3.500   3.871  0.3366  0.6051  0.0048
 2402SOL     OW 9680   4.476   3.468   3.857  0.3953  0.2405 -0.4629
 2402SOL    HW2 9681   4.557   3.516   3.840  0.1547  0.2664 -1.5812
 2402SOL    HW3 9682   4.474   3.456   3.952  1.1970  1.1356 -0.3321
 2402SOL    MW4 9683   4.486   3.473   3.867  0.4692  0.3619 -0.5932
 2403SOL     OW 9684   4.232   3.849   3.857 -0.2049 -0.0045  0.0705
 2403SOL    HW2 9685   4.232   3.764   3.813  0.5450  0.6961 -1.3340
 2403SOL    HW3 9686   4.320   3.884   3.842 -0.9663  1.6764 -0.7193
 2403SOL    MW4 9687   4.243   3.842   3.849 -0.2069  0.3097 -0.2191
 2404SOL     OW 9688   4.032   3.993   3.770 -0.6084 -0.3484  0.5288
 2404SOL    HW2 9689   4.110   3.942   3.792 -0.3032  0.0694  0.4196
 2404SOL    HW3 9690   4.041   4.011   3.677  0.1526  1.3739  0.9141
 2404SOL    MW4 9691   4.044   3.989   3.761 -0.4678 -0.0660  0.5653
 2405SOL     OW 9692   1.267   2.939   4.287 -0.5513  0.5899 -0.2352
 2405SOL    HW2 9693   1.222   3.015   4.252 -0.6713  0.7673  0.3013
 2405SOL    HW3 9694   1.298   2.966   4.373  1.0556  0.6520 -0.8059
 2405SOL    MW4 9695   1.265   2.953   4.294 -0.3550  0.6213 -0.2398
 2406SOL     OW 9696   4.262   4.423   3.732 -0.7735  0.1632 -0.0589
 2406SOL    HW2 9697   4.189   4.381   3.777  0.4754 -1.5343  0.4271
 2406SOL    HW3 9698   4.279   4.502   3.783 -1.1050 -0.3651  0.8828
 2406SOL    MW4 9699   4.255   4.428   3.745 -0.6523 -0.1302  0.1295
 2407SOL     OW 9700   1.469   2.320   4.612  0.2496  0.2852  0.3587
 2407SOL    HW2 9701   1.383   2.279   4.611  0.1295  0.5336  0.0363
 2407SOL    HW3 9702   1.451   2.413   4.598  0.4735  0.5342  1.7011
 2407SOL    MW4 9703   1.455   2.327   4.610  0.2632  0.3510  0.4935
 2408SOL     OW 9704   2.902   3.085   3.833 -0.0961  0.4332 -0.0063
 2408SOL    HW2 9705   2.986   3.130   3.824 -0.1419  0.5109 -0.0473
 2408SOL    HW3 9706   2.840   3.141   3.787 -0.4603  1.1852  1.3653
 2408SOL    MW4 9707   2.905   3.099   3.826 -0.1500  0.5429  0.1693
 2409SOL     OW 9708   0.328   3.640   4.909  0.0107 -0.1928  0.0493
 2409SOL    HW2 9709   0.330   3.722   4.958  0.3957 -0.0936 -0.1271
 2409SOL    HW3 9710   0.235   3.624   4.892 -0.0872  0.0266  0.3860
 2409SOL    MW4 9711   0.316   3.648   4.913  0.0486 -0.1507  0.0701
 2410SOL     OW 9712   0.609   0.379   4.302  0.2568 -0.2763  0.0019
 2410SOL    HW2 9713   0.660   0.299   4.314  0.2418 -0.2391  0.3083
 2410SOL    HW3 9714   0.543   0.376   4.371  0.0749 -0.1406 -0.1661
 2410SOL    MW4 9715   0.607   0.368   4.312  0.2308 -0.2535  0.0200
 2411SOL     OW 9716   3.569   4.255   3.865  0.1866  0.3930  0.2630
 2411SOL    HW2 9717   3.656   4.293   3.849  0.4590 -0.1267  0.4880
 2411SOL    HW3 9718   3.557   4.260   3.960  0.6344 -0.9505  0.4001
 2411SOL    MW4 9719   3.579   4.261   3.875  0.2816  0.1473  0.3111
 2412SOL     OW 9720   4.325   3.523   4.947  0.0975 -0.0275 -0.2885
 2412SOL    HW2 9721   4.247   3.577   4.964  0.7906  1.5166 -1.8068
 2412SOL    HW3 9722   4.290   3.440   4.914 -0.9195  0.3937 -0.2887
 2412SOL    MW4 9723   4.310   3.519   4.945  0.0548  0.2317 -0.4892
 2413SOL     OW 9724   2.691   3.504   3.852 -0.2882  0.3640 -0.1779
 2413SOL    HW2 9725   2.766   3.560   3.830  1.5174 -2.2266 -0.7663
 2413SOL    HW3 9726   2.616   3.549   3.812  1.2234  1.9866 -1.2730
 2413SOL    MW4 9727   2.691   3.517   3.844  0.1495  0.2363 -0.4001
 2414SOL     OW 9728   1.084   0.123   4.208 -0.1047 -0.3243 -0.1649
 2414SOL    HW2 9729   1.049   0.034   4.210 -0.7836 -0.0824 -1.1193
 2414SOL    HW3 9730   1.014   0.177   4.245 -1.0799  0.2615 -2.8088
 2414SOL    MW4 9731   1.070   0.118   4.214 -0.3228 -0.2151 -0.6399
 2415SOL     OW 9732   3.198   1.580   4.510 -0.5778 -0.0882 -0.2157
 2415SOL    HW2 9733   3.243   1.653   4.552  1.8399  0.2068 -3.1505
 2415SOL    HW3 9734   3.261   1.508   4.513 -1.5693 -0.9816 -0.5358
 2415SOL    MW4 9735   3.212   1.580   4.516 -0.3896 -0.1670 -0.6452
 2416SOL     OW 9736   4.012   4.247   4.114 -0.2303 -0.0340 -0.0882
 2416SOL    HW2 9737   3.947   4.304   4.156 -0.1693 -0.2061  0.2376
 2416SOL    HW3 9738   4.096   4.279   4.147 -0.2161 -0.5297  0.3582
 2416SOL    MW4 9739   4.014   4.259   4.124 -0.2208 -0.1225  0.0138
 2417SOL     OW 9740   2.125   0.626   4.216 -0.1664 -0.1483 -0.7972
 2417SOL    HW2 9741   2.194   0.693   4.215  0.6847 -0.9794  1.0427
 2417SOL    HW3 9742   2.160   0.555   4.163 -0.4073  0.2003 -1.4304
 2417SOL    MW4 9743   2.139   0.625   4.209 -0.0861 -0.2120 -0.6385
 2418SOL     OW 9744   1.618   3.649   4.453 -0.0449 -0.8489  0.1932
 2418SOL    HW2 9745   1.630   3.669   4.360  0.6076  0.7130  0.6030
 2418SOL    HW3 9746   1.652   3.560   4.463  1.4168 -0.4130 -0.7481
 2418SOL    MW4 9747   1.624   3.639   4.442  0.2339 -0.5856  0.1230
 2419SOL     OW 9748   3.797   2.283   3.907  0.4678 -0.1424 -0.1767
 2419SOL    HW2 9749   3.860   2.334   3.856  1.4762 -1.2104 -0.0346
 2419SOL    HW3 9750   3.822   2.299   3.998 -0.3653  0.5447 -0.0624
 2419SOL    MW4 9751   3.809   2.292   3.912  0.4909 -0.1926 -0.1428
 2420SOL     OW 9752   3.309   2.645   4.257  0.4297  0.3891 -0.0972
 2420SOL    HW2 9753   3.229   2.672   4.213  0.5414  1.6888  0.4491
 2420SOL    HW3 9754   3.314   2.551   4.244  0.0953  0.6453 -2.2317
 2420SOL    MW4 9755   3.299   2.636   4.250  0.4001  0.5944 -0.3071
 2421SOL     OW 9756   4.112   0.494   4.490  0.0255  0.1835  0.0886
 2421SOL    HW2 9757   4.194   0.449   4.511 -0.3097 -0.3960  0.1527
 2421SOL    HW3 9758   4.107   0.566   4.554  0.7944  0.6011 -0.3158
 2421SOL    MW4 9759   4.122   0.498   4.501  0.0830  0.1622  0.0439
 2422SOL     OW 9760   4.420   2.120   4.243  0.2943  0.6421  0.1283
 2422SOL    HW2 9761   4.352   2.095   4.305 -0.5700 -1.3546 -1.5483
 2422SOL    HW3 9762   4.429   2.214   4.254 -0.0612  0.3928  3.0195
 2422SOL    MW4 9763   4.412   2.129   4.252  0.1330  0.3457  0.2890
 2423SOL     OW 9764   4.425   4.252   3.874 -0.1089  0.0595 -0.4037
 2423SOL    HW2 9765   4.355   4.307   3.839 -0.8342 -0.0398  0.8577
 2423SOL    HW3 9766   4.506   4.298   3.850 -0.6432  0.7774 -0.8522
 2423SOL    MW4 9767   4.426   4.265   3.866 -0.2756  0.1407 -0.2964
 2424SOL     OW 9768   4.097   2.880   4.451  0.5192  0.1373 -0.6293
 2424SOL    HW2 9769   4.131   2.872   4.540 -0.5968  1.6522 -0.0509
 2424SOL    HW3 9770   4.002   2.883   4.462  0.4069  0.9990 -1.8292
 2424SOL    MW4 9771   4.089   2.879   4.464  0.3567  0.4508 -0.7114
 2425SOL     OW 9772   3.829   0.391   4.422  0.3560 -0.5515  0.2385
 2425SOL    HW2 9773   3.823   0.409   4.328  0.8416 -0.3087  0.2520
 2425SOL    HW3 9774   3.903   0.445   4.452 -0.8514  0.6715  1.0748
 2425SOL    MW4 9775   3.838   0.401   4.414  0.2608 -0.3581  0.3505
 2426SOL     OW 9776   1.376   2.589   4.549  0.2710 -0.1010  0.0540
 2426SOL    HW2 9777   1.454   2.598   4.495  0.4865 -0.7312  0.2595
 2426SOL    HW3 9778   1.391   2.648   4.623 -0.3492  1.3263 -0.9357
 2426SOL    MW4 9779   1.388   2.598   4.552  0.2177  0.0038 -0.0496
 2427SOL     OW 9780   0.204   3.053   4.148 -0.0676  0.3553  0.1746
 2427SOL    HW2 9781   0.216   3.061   4.053 -0.7027  0.1237  0.0744
 2427SOL    HW3 9782   0.273   3.108   4.185  0.3194  0.2758 -0.4169
 2427SOL    MW4 9783   0.214   3.061   4.140 -0.1003  0.3142  0.0834
 2428SOL     OW 9784   1.810   3.280   4.213  0.5226  0.0764  0.2674
 2428SOL    HW2 9785   1.732   3.225   4.203 -0.7002  1.6918  0.8123
 2428SOL    HW3 9786   1.790   3.360   4.166  1.4085  0.9463  1.3338
 2428SOL    MW4 9787   1.797   3.283   4.206  0.4781  0.4044  0.4802
 2429SOL     OW 9788   1.342   2.683   3.868 -0.2598  0.0786 -0.2749
 2429SOL    HW2 9789   1.414   2.735   3.832  0.0331 -0.9215 -1.1554
 2429SOL    HW3 9790   1.264   2.735   3.851  0.3425  1.7449  1.7472
 2429SOL    MW4 9791   1.341   2.697   3.861 -0.1416  0.1664 -0.1242
 2430SOL     OW 9792   1.125   2.497   4.462 -0.3435 -0.1027  0.1094
 2430SOL    HW2 9793   1.210   2.528   4.493 -0.3730  1.0769 -0.9493
 2430SOL    HW3 9794   1.145   2.445   4.384 -0.4625 -1.2002  0.7963
 2430SOL    MW4 9795   1.138   2.494   4.456 -0.3632 -0.0918  0.0606
 2431SOL     OW 9796   4.080   1.686   4.620 -0.2933  0.0513  0.8895
 2431SOL    HW2 9797   4.159   1.740   4.615  0.4338 -1.1301 -0.7699
 2431SOL    HW3 9798   4.012   1.740   4.581  0.6144 -0.5207 -1.5800
 2431SOL    MW4 9799   4.082   1.701   4.615 -0.0777 -0.1800  0.3448
 2432SOL     OW 9800   2.031   3.119   4.145  0.3326 -0.1429  0.4030
 2432SOL    HW2 9801   1.985   3.036   4.133  1.7656 -0.8319 -0.4763
 2432SOL    HW3 9802   1.963   3.180   4.173 -1.0156 -1.2613 -0.3430
 2432SOL    MW4 9803   2.016   3.116   4.147  0.3438 -0.3817  0.1884
 2433SOL     OW 9804   3.581   2.627   4.163  0.0341 -0.2054 -0.1112
 2433SOL    HW2 9805   3.603   2.539   4.194 -0.7607 -0.5820 -0.5902
 2433SOL    HW3 9806   3.491   2.642   4.193  0.3197  0.6176  0.3393
 2433SOL    MW4 9807   3.572   2.617   4.171 -0.0329 -0.1464 -0.1149
 2434SOL     OW 9808   2.382   2.773   4.204  0.3088  0.0097 -0.7056
 2434SOL    HW2 9809   2.375   2.698   4.263  0.0452  0.8460  0.3598
 2434SOL    HW3 9810   2.293   2.783   4.169 -0.5429  1.9129  1.8292
 2434SOL    MW4 9811   2.369   2.764   4.207  0.1614  0.3712 -0.2308
 2435SOL     OW 9812   0.834   3.508   4.164  0.4604  0.5065 -0.7307
 2435SOL    HW2 9813   0.886   3.559   4.225  0.0920 -0.6761  0.5937
 2435SOL    HW3 9814   0.858   3.417   4.182 -1.3654  0.0087 -0.7576
 2435SOL    MW4 9815   0.844   3.502   4.174  0.1709  0.2849 -0.5593
 2436SOL     OW 9816   2.534   3.855   4.518 -0.0324  0.1249  0.4082
 2436SOL    HW2 9817   2.576   3.937   4.546  0.1119  0.2688 -0.2314
 2436SOL    HW3 9818   2.579   3.787   4.569  0.1013  0.4076  0.6714
 2436SOL    MW4 9819   2.546   3.857   4.528  0.0043  0.1814  0.3586
 2437SOL     OW 9820   4.425   2.568   4.733  0.4470  0.5575 -0.1923
 2437SOL    HW2 9821   4.440   2.541   4.643 -0.9972 -0.7519 -0.0506
 2437SOL    HW3 9822   4.445   2.661   4.734 -0.1891  0.7235 -2.0216
 2437SOL    MW4 9823   4.430   2.577   4.721  0.1731  0.4065 -0.4153
 2438SOL     OW 9824   2.818   3.992   4.756 -0.3724  0.2655 -0.3070
 2438SOL    HW2 9825   2.862   4.039   4.827 -1.7372  0.8496  0.1706
 2438SOL    HW3 9826   2.813   3.901   4.786  1.4555 -0.0332 -0.8348
 2438SOL    MW4 9827   2.823   3.986   4.769 -0.3111  0.3033 -0.3133
 2439SOL     OW 9828   0.990   1.546   4.593 -0.7279  0.0666 -0.0924
 2439SOL    HW2 9829   0.924   1.609   4.565  0.2606  0.5528 -1.4016
 2439SOL    HW3 9830   0.965   1.464   4.550  0.6728  0.7634 -2.3609
 2439SOL    MW4 9831   0.978   1.544   4.584 -0.4126  0.2227 -0.5641
 2440SOL     OW 9832   0.789   1.765   4.240  0.6664 -0.2841 -0.3939
 2440SOL    HW2 9833   0.787   1.749   4.335  0.3326 -0.6973 -0.4669
 2440SOL    HW3 9834   0.875   1.804   4.224  0.2749  0.8752  0.2550
 2440SOL    MW4 9835   0.800   1.768   4.250  0.5707 -0.1856 -0.3176
 2441SOL     OW 9836   0.448   4.000   4.292  0.0242  0.6254 -0.6586
 2441SOL    HW2 9837   0.517   3.962   4.239  0.1810  1.2821 -0.9229
 2441SOL    HW3 9838   0.441   4.091   4.262  0.8850  1.3237  1.1978
 2441SOL    MW4 9839   0.456   4.007   4.281  0.1585  0.8044 -0.4482
 2442SOL     OW 9840   0.894   3.247   4.244 -0.0630 -0.0626  0.0048
 2442SOL    HW2 9841   0.822   3.199   4.202 -0.2877 -0.5059  0.8836
 2442SOL    HW3 9842   0.864   3.261   4.334  1.1251 -0.6132  0.4988
 2442SOL    MW4 9843   0.880   3.242   4.251  0.0640 -0.1936  0.1860
 2443SOL     OW 9844   3.157   3.460   4.879  0.3761  0.1907 -0.0031
 2443SOL    HW2 9845   3.111   3.463   4.796 -0.1992 -0.3116  0.2855
 2443SOL    HW3 9846   3.248   3.478   4.858  0.4727 -1.3422 -0.9389
 2443SOL    MW4 9847   3.163   3.463   4.865  0.3130 -0.0780 -0.0887
 2444SOL     OW 9848   4.200   0.042   4.544 -0.3019  0.4465 -0.4272
 2444SOL    HW2 9849   4.118   0.090   4.539 -0.3998  0.3430  0.1711
 2444SOL    HW3 9850   4.255   0.094   4.604 -1.1824 -1.3062  2.0061
 2444SOL    MW4 9851   4.197   0.055   4.552 -0.4306  0.2016 -0.0272
 2445SOL     OW 9852   1.740   0.611   4.268 -0.1236 -0.1979 -0.3068
 2445SOL    HW2 9853   1.733   0.524   4.230 -0.5157 -0.7058  0.9290
 2445SOL    HW3 9854   1.801   0.657   4.210 -1.4442 -0.6550 -2.0943
 2445SOL    MW4 9855   1.747   0.606   4.255 -0.3495 -0.3251 -0.3796
 2446SOL     OW 9856   1.343   4.570   4.342 -0.0326 -0.1459 -0.1728
 2446SOL    HW2 9857   1.265   4.581   4.397 -1.6183 -0.3546 -2.3252
 2446SOL    HW3 9858   1.365   4.659   4.315  0.6309 -0.0627  0.6186
 2446SOL    MW4 9859   1.335   4.583   4.346 -0.1544 -0.1626 -0.3519
 2447SOL     OW 9860   4.242   0.783   4.127 -0.6663 -0.3331  0.0812
 2447SOL    HW2 9861   4.327   0.815   4.158 -0.4668 -0.4259 -0.3592
 2447SOL    HW3 9862   4.245   0.797   4.032 -0.9907 -0.7007  0.0166
 2447SOL    MW4 9863   4.254   0.789   4.118 -0.6828 -0.3939  0.0148
 2448SOL     OW 9864   2.609   4.109   4.612  0.5520  0.0838 -0.4003
 2448SOL    HW2 9865   2.641   4.184   4.561 -0.8839  0.7491 -0.3776
 2448SOL    HW3 9866   2.685   4.079   4.661  1.2435  1.3189 -0.6750
 2448SOL    MW4 9867   2.623   4.115   4.611  0.4539  0.3347 -0.4334
 2449SOL     OW 9868   2.362   0.139   4.107 -0.6347  0.0173  0.0340
 2449SOL    HW2 9869   2.318   0.222   4.127 -1.3111  0.1241 -1.8608
 2449SOL    HW3 9870   2.331   0.078   4.174 -1.9393  0.6830  0.0342
 2449SOL    MW4 9871   2.352   0.142   4.119 -0.8960  0.1192 -0.2160
 2450SOL     OW 9872   3.610   2.314   4.243 -0.3044  0.2559 -0.2359
 2450SOL    HW2 9873   3.704   2.295   4.245  0.1461  2.4286  0.0847
 2450SOL    HW3 9874   3.569   2.230   4.265  1.6424  0.0905  3.1293
 2450SOL    MW4 9875   3.617   2.300   4.246  0.0122  0.5207  0.2508
 2451SOL     OW 9876   1.729   4.358   4.120  0.4005  0.0599  0.0893
 2451SOL    HW2 9877   1.715   4.320   4.034 -1.1934  1.7976 -0.4371
 2451SOL    HW3 9878   1.666   4.312   4.177 -0.8654  1.2335 -0.3541
 2451SOL    MW4 9879   1.719   4.347   4.116  0.0231  0.4444 -0.0386
 2452SOL     OW 9880   3.767   4.219   4.677  0.3916 -0.0267 -0.0529
 2452SOL    HW2 9881   3.863   4.222   4.674  0.4327 -1.9010 -1.6971
 2452SOL    HW3 9882   3.739   4.306   4.651  1.6446  0.4004  0.0016
 2452SOL    MW4 9883   3.776   4.231   4.673  0.5622 -0.2179 -0.2632
 2453SOL     OW 9884   0.641   0.790   4.127  0.7490  0.2012  0.1864
 2453SOL    HW2 9885   0.557   0.820   4.162  1.2285  1.3374  0.3978
 2453SOL    HW3 9886   0.675   0.731   4.194  0.0902 -0.3380  0.0608
 2453SOL    MW4 9887   0.634   0.786   4.141  0.7253  0.2800  0.1979
 2454SOL     OW 9888   4.398   0.193   4.726  0.3723  0.0110 -0.0060
 2454SOL    HW2 9889   4.411   0.169   4.817  1.9338 -0.4064 -0.3228
 2454SOL    HW3 9890   4.472   0.154   4.680  1.2957  2.8199 -0.9883
 2454SOL    MW4 9891   4.409   0.185   4.732  0.7000  0.3265 -0.1779
 2455SOL     OW 9892   2.431   1.570   4.595 -0.0295 -0.3262 -0.3234
 2455SOL    HW2 9893   2.336   1.565   4.605 -0.0120 -2.4391 -1.0748
 2455SOL    HW3 9894   2.443   1.617   4.513 -0.3889  1.1733  0.4615
 2455SOL    MW4 9895   2.420   1.576   4.586 -0.0746 -0.4072 -0.3185
 2456SOL     OW 9896   2.288   0.859   4.213  0.3069  0.1679  0.4343
 2456SOL    HW2 9897   2.335   0.867   4.295  0.3989  1.0649  0.3001
 2456SOL    HW3 9898   2.264   0.949   4.190  1.3886  0.0699 -1.1620
 2456SOL    MW4 9899   2.291   0.872   4.221  0.4618  0.2732  0.2060
 2457SOL     OW 9900   2.941   4.642   4.126 -0.2439 -0.6742  0.1607
 2457SOL    HW2 9901   2.958   4.548   4.117  1.7688 -0.3702  0.6313
 2457SOL    HW3 9902   2.995   4.669   4.200  1.1859  1.3617 -1.5990
 2457SOL    MW4 9903   2.950   4.633   4.135  0.2100 -0.3657 -0.0091
 2458SOL     OW 9904   2.486   2.057   4.237 -0.3240 -0.0488  0.3961
 2458SOL    HW2 9905   2.565   2.024   4.193 -0.4440 -0.6232  0.6000
 2458SOL    HW3 9906   2.468   2.141   4.195  0.2406 -0.0467  0.1597
 2458SOL    MW4 9907   2.494   2.063   4.225 -0.2654 -0.1242  0.3915
 2459SOL     OW 9908   2.237   1.918   3.910  0.2913 -0.0918 -0.0023
 2459SOL    HW2 9909   2.178   1.980   3.867 -1.2354 -0.8252  0.9771
 2459SOL    HW3 9910   2.209   1.919   4.002  1.6554 -0.6522  0.4369
 2459SOL    MW4 9911   2.226   1.927   3.917  0.2697 -0.2625  0.1848
 2460SOL     OW 9912   1.083   0.968   4.240  0.0553 -0.2447  0.3747
 2460SOL    HW2 9913   1.098   1.063   4.237  1.4789 -0.4726 -0.0235
 2460SOL    HW3 9914   0.989   0.959   4.232  0.0606  1.0588 -1.4259
 2460SOL    MW4 9915   1.073   0.980   4.239  0.2437 -0.1028  0.0844
 2461SOL     OW 9916   0.651   3.890   4.133 -0.4080  0.3129 -0.3035
 2461SOL    HW2 9917   0.616   3.876   4.045 -0.7637  0.5673 -0.2025
 2461SOL    HW3 9918   0.632   3.808   4.179  1.8102 -0.6821 -1.1281
 2461SOL    MW4 9919   0.644   3.877   4.128 -0.1623  0.2151 -0.3986
 2462SOL     OW 9920   0.240   1.819   4.569 -0.2496 -0.2361  0.5407
 2462SOL    HW2 9921   0.215   1.864   4.650  0.3269 -0.1999  0.7062
 2462SOL    HW3 9922   0.217   1.880   4.499  0.5729  0.3524  0.7687
 2462SOL    MW4 9923   0.234   1.833   4.571 -0.0650 -0.1538  0.5927
 2463SOL     OW 9924   4.266   2.078   4.452  0.1868  0.3984 -0.3341
 2463SOL    HW2 9925   4.188   2.120   4.415 -0.2112  2.1431  2.3395
 2463SOL    HW3 9926   4.324   2.152   4.474  1.2262 -0.7147  0.6939
 2463SOL    MW4 9927   4.263   2.094   4.450  0.2708  0.4816  0.1540
 2464SOL     OW 9928   2.039   1.170   4.716  0.0669 -0.3002  0.0066
 2464SOL    HW2 9929   1.989   1.097   4.679 -0.0309 -0.8985  1.3100
 2464SOL    HW3 9930   2.018   1.170   4.809 -0.9969  2.2601 -0.2025
 2464SOL    MW4 9931   2.030   1.161   4.723 -0.0861 -0.0414  0.1516
 2465SOL     OW 9932   2.304   4.384   4.322 -0.5954  0.3253  0.0704
 2465SOL    HW2 9933   2.395   4.399   4.297  0.1431 -1.3021  1.6427
 2465SOL    HW3 9934   2.267   4.334   4.249 -0.2396  0.9973 -0.5746
 2465SOL    MW4 9935   2.311   4.379   4.309 -0.4511  0.1988  0.1922
 2466SOL     OW 9936   1.709   2.466   4.788  0.4253  0.0280  0.2054
 2466SOL    HW2 9937   1.635   2.447   4.729  0.1805 -0.8622  0.7842
 2466SOL    HW3 9938   1.729   2.558   4.772 -0.2208  0.0345 -0.6240
 2466SOL    MW4 9939   1.702   2.476   4.778  0.3078 -0.0889  0.1721
 2467SOL     OW 9940   3.071   3.224   4.248 -0.0095  0.1294  0.1727
 2467SOL    HW2 9941   3.148   3.170   4.235  0.3951  0.6722  0.3050
 2467SOL    HW3 9942   3.003   3.183   4.194 -0.0141 -1.1436  1.1168
 2467SOL    MW4 9943   3.072   3.212   4.240  0.0432  0.0331  0.3152
 2468SOL     OW 9944   0.608   4.608   4.648  0.1765  0.3909 -0.1360
 2468SOL    HW2 9945   0.690   4.649   4.675  0.7251  0.3551 -1.7167
 2468SOL    HW3 9946   0.555   4.680   4.614 -0.0742  0.2627 -0.0215
 2468SOL    MW4 9947   0.612   4.623   4.647  0.2158  0.3695 -0.3290
 2469SOL     OW 9948   4.269   1.466   4.549  0.1274  0.4787 -0.7587
 2469SOL    HW2 9949   4.205   1.527   4.586  1.0443 -0.6451  2.8914
 2469SOL    HW3 9950   4.349   1.517   4.541 -0.1042  0.7553 -1.4007
 2469SOL    MW4 9951   4.271   1.481   4.553  0.2179  0.3670 -0.3624
 2470SOL     OW 9952   0.555   3.927   4.536 -0.5014  0.0699  0.4267
 2470SOL    HW2 9953   0.509   3.957   4.458  0.8044  0.3282 -0.2423
 2470SOL    HW3 9954   0.495   3.863   4.575 -0.8584 -0.5585 -1.1375
 2470SOL    MW4 9955   0.541   3.923   4.531 -0.3762  0.0210  0.1321
 2471SOL     OW 9956   0.168   2.361   4.142 -0.3674  0.1116  0.1111
 2471SOL    HW2 9957   0.081   2.363   4.182 -0.4267 -1.1585  0.0683
 2471SOL    HW3 9958   0.222   2.414   4.201 -0.9764  0.1883  0.6118
 2471SOL    MW4 9959   0.163   2.369   4.155 -0.4556 -0.0460  0.1717
 2472SOL     OW 9960   0.868   4.254   3.915 -0.0908  0.1340  0.2471
 2472SOL    HW2 9961   0.869   4.160   3.894 -0.0640  0.2455 -0.2347
 2472SOL    HW3 9962   0.851   4.256   4.009  1.5990 -0.4148  0.5888
 2472SOL    MW4 9963   0.866   4.242   3.925  0.1357  0.0763  0.2289
 2473SOL     OW 9964   0.812   3.803   4.558  0.6173 -0.0916  0.1058
 2473SOL    HW2 9965   0.725   3.843   4.557  0.1354 -1.1142  0.3872
 2473SOL    HW3 9966   0.804   3.728   4.617  1.6830 -0.2150  0.1116
 2473SOL    MW4 9967   0.800   3.798   4.566  0.6943 -0.2427  0.1431
 2474SOL     OW 9968   1.173   4.228   4.547  0.3138 -0.3299  0.2916
 2474SOL    HW2 9969   1.252   4.205   4.596  0.3405 -0.7091  0.0719
 2474SOL    HW3 9970   1.130   4.145   4.530  0.0028 -0.1466  0.1798
 2474SOL    MW4 9971   1.178   4.214   4.551  0.2762 -0.3557  0.2480
 2475SOL     OW 9972   4.035   1.156   3.827 -0.0998  0.5728  0.0770
 2475SOL    HW2 9973   4.018   1.155   3.921 -1.2328  0.0980 -0.1322
 2475SOL    HW3 9974   4.129   1.173   3.820  0.3706 -1.2830  1.3506
 2475SOL    MW4 9975   4.045   1.158   3.839 -0.1874  0.2655  0.2172
 2476SOL     OW 9976   4.378   1.903   4.069 -0.1048 -0.1916 -0.0762
 2476SOL    HW2 9977   4.394   1.987   4.113  1.5027  1.2561 -3.2976
 2476SOL    HW3 9978   4.420   1.838   4.126 -0.9147  1.1927  2.1845
 2476SOL    MW4 9979   4.385   1.906   4.082  0.0000  0.1822 -0.2027
 2477SOL     OW 9980   3.562   3.617   4.571  0.3134  0.0494 -0.4677
 2477SOL    HW2 9981   3.549   3.707   4.540 -1.5335 -0.1529 -0.3817
 2477SOL    HW3 9982   3.484   3.571   4.541  0.0886 -0.9572  1.5479
 2477SOL    MW4 9983   3.550   3.623   4.563  0.0403 -0.1101 -0.1898
 2478SOL     OW 9984   0.885   2.025   4.591 -0.3972 -0.0696  0.2409
 2478SOL    HW2 9985   0.904   2.072   4.673  1.1400  0.7018 -0.5307
 2478SOL    HW3 9986   0.792   2.039   4.577  0.0094  2.8818  0.0151
 2478SOL    MW4 9987   0.875   2.033   4.600 -0.1408  0.4215  0.1097
 2479SOL     OW 9988   3.902   2.336   4.176  0.1090  0.1694  0.0361
 2479SOL    HW2 9989   3.943   2.423   4.177  0.2052  0.1255 -0.0114
 2479SOL    HW3 9990   3.972   2.276   4.201  0.4027 -0.0368 -1.2152
 2479SOL    MW4 9991   3.917   2.339   4.179  0.1605  0.1366 -0.1354
 2480SOL     OW 9992   1.215   1.679   4.254 -0.1559 -0.0049 -0.1280
 2480SOL    HW2 9993   1.242   1.653   4.342  1.0695  1.0250 -0.1821
 2480SOL    HW3 9994   1.297   1.683   4.204 -0.6293  1.2036 -0.8277
 2480SOL    MW4 9995   1.230   1.676   4.259 -0.0566  0.2905 -0.2279
 2481SOL     OW 9996   1.576   3.130   4.156  0.7597  0.3071 -0.3012
 2481SOL    HW2 9997   1.495   3.177   4.178 -1.2526 -2.6177 -1.1608
 2481SOL    HW3 9998   1.569   3.112   4.062  1.0594 -2.3965  0.1483
 2481SOL    MW4 9999   1.564   3.134   4.146  0.5338 -0.4358 -0.3552
 2482SOL     OW10000   2.033   2.127   4.219 -0.0376 -0.0572  0.6966
 2482SOL    HW210001   2.078   2.209   4.198  0.2289 -0.4075 -0.0797
 2482SOL    HW310002   2.024   2.130   4.315  0.1567  0.7801  0.6980
 2482SOL    MW410003   2.038   2.138   4.229  0.0231  0.0069  0.5946
 2483SOL     OW10004   1.980   0.310   4.530  0.5734 -0.5795  0.6071
 2483SOL    HW210005   1.907   0.327   4.590 -0.2450  0.1110 -0.5681
 2483SOL    HW310006   2.015   0.397   4.511  1.7319 -0.9116  1.1849
 2483SOL    MW410007   1.975   0.324   4.536  0.6181 -0.5323  0.5283
 2484SOL     OW10008   1.250   2.481   4.208  0.2190 -0.2036  0.1028
 2484SOL    HW210009   1.319   2.440   4.261 -1.1274  0.0440  2.0827
 2484SOL    HW310010   1.286   2.566   4.185  0.2497  0.3006  1.9130
 2484SOL    MW410011   1.264   2.487   4.212  0.0453 -0.1047  0.6027
 2485SOL     OW10012   2.671   0.016   4.227 -0.0220 -0.2862 -0.1716
 2485SOL    HW210013   2.668  -0.005   4.320  1.3436 -0.4213 -0.1565
 2485SOL    HW310014   2.764   0.014   4.204 -0.3186  0.0782 -1.4613
 2485SOL    MW410015   2.683   0.013   4.236  0.1190 -0.2560 -0.3395
 2486SOL     OW10016   3.467   0.610   4.648 -0.3468  0.2064  0.1746
 2486SOL    HW210017   3.536   0.549   4.623  0.0610 -0.1107  1.9724
 2486SOL    HW310018   3.496   0.695   4.615  1.1901  0.1780  1.3820
 2486SOL    MW410019   3.480   0.613   4.641 -0.0901  0.1608  0.5708
 2487SOL     OW10020   0.008   1.215   4.472  0.1493 -0.0008 -0.1905
 2487SOL    HW210021   0.064   1.249   4.402 -0.9868  0.0091 -1.1261
 2487SOL    HW310022  -0.015   1.291   4.524 -0.1928  0.2351 -0.6829
 2487SOL    MW410023   0.012   1.229   4.470 -0.0458  0.0317 -0.3796
 2488SOL     OW10024   2.118   1.471   4.157  0.3598  0.1098  0.3201
 2488SOL    HW210025   2.085   1.551   4.198 -0.0547  0.7151 -1.1815
 2488SOL    HW310026   2.101   1.483   4.064  0.1123 -1.8147  0.1039
 2488SOL    MW410027   2.111   1.483   4.150  0.2725 -0.0643  0.0935
 2489SOL     OW10028   3.340   2.306   3.903  0.6161  0.1377  0.5080
 2489SOL    HW210029   3.331   2.326   3.996 -1.3746  0.5554  0.2481
 2489SOL    HW310030   3.415   2.359   3.874  1.9815 -0.8838  2.0965
 2489SOL    MW410031   3.349   2.315   3.911  0.5331  0.0579  0.6835
 2490SOL     OW10032   0.646   2.365   3.869 -0.0025 -0.7185 -0.3418
 2490SOL    HW210033   0.571   2.402   3.821 -1.1301 -1.8932  0.4948
 2490SOL    HW310034   0.720   2.421   3.844 -0.9757 -0.0857 -1.8689
 2490SOL    MW410035   0.646   2.378   3.859 -0.2797 -0.7899 -0.4327
 2491SOL     OW10036   1.767   2.701   3.840 -0.0557  0.3640 -0.5109
 2491SOL    HW210037   1.747   2.700   3.933 -1.4427  1.2776 -0.7782
 2491SOL    HW310038   1.770   2.609   3.815  2.3350  0.0549  0.8390
 2491SOL    MW410039   1.764   2.689   3.849  0.0768  0.4437 -0.3681
 2492SOL     OW10040   2.456   3.468   4.492 -0.7079  0.3735 -0.1409
 2492SOL    HW210041   2.451   3.526   4.416  1.0998  0.7635  0.0193
 2492SOL    HW310042   2.510   3.516   4.555  0.7520 -1.4283  0.0205
 2492SOL    MW410043   2.462   3.482   4.491 -0.2768  0.1874 -0.0987
 2493SOL     OW10044   3.110   0.946   4.595 -0.1601 -0.3957  0.1053
 2493SOL    HW210045   3.130   0.861   4.634  0.7346 -0.3270 -0.1971
 2493SOL    HW310046   3.116   0.932   4.501 -1.0511 -0.2521  0.0259
 2493SOL    MW410047   3.114   0.933   4.588 -0.1597 -0.3676  0.0548
 2494SOL     OW10048   4.064   4.245   4.653 -0.0147  0.5165  0.1490
 2494SOL    HW210049   4.071   4.307   4.581 -0.4457  0.4972  0.0894
 2494SOL    HW310050   4.138   4.268   4.711 -0.3550  1.2942  0.2898
 2494SOL    MW410051   4.075   4.257   4.651 -0.1163  0.6161  0.1593
 2495SOL     OW10052   4.235   4.390   4.237 -0.1389 -0.3052  0.2160
 2495SOL    HW210053   4.243   4.399   4.332  1.3068  0.2057  0.0604
 2495SOL    HW310054   4.319   4.353   4.209 -0.2610  0.2697 -0.9496
 2495SOL    MW410055   4.248   4.387   4.246  0.0353 -0.1616  0.0415
 2496SOL     OW10056   0.241   2.055   3.773  0.0132  0.1953  0.1668
 2496SOL    HW210057   0.154   2.020   3.793  0.1912  0.1019  0.7771
 2496SOL    HW310058   0.300   2.006   3.830  0.6835 -0.9455 -1.4805
 2496SOL    MW410059   0.237   2.044   3.783  0.1251  0.0327  0.0298
 2497SOL     OW10060   0.163   1.977   4.357 -0.4448  0.4865 -0.2926
 2497SOL    HW210061   0.231   2.040   4.332 -1.5995  1.8433 -0.0771
 2497SOL    HW310062   0.081   2.021   4.334 -1.2845 -0.7152  0.4011
 2497SOL    MW410063   0.161   1.991   4.351 -0.7079  0.5069 -0.1726
 2498SOL     OW10064   1.212   3.731   4.313  0.0088 -0.0229 -0.1355
 2498SOL    HW210065   1.126   3.701   4.344 -0.1674  0.4970 -0.1149
 2498SOL    HW310066   1.192   3.809   4.261  0.5523  0.5865  0.5650
 2498SOL    MW410067   1.198   3.737   4.310  0.0573  0.1261 -0.0401
 2499SOL     OW10068   4.208   2.878   4.714  0.1525 -0.0516 -0.1234
 2499SOL    HW210069   4.193   2.787   4.740  0.1977 -0.4061 -1.2974
 2499SOL    HW310070   4.299   2.880   4.684 -0.2320  0.0827 -1.2979
 2499SOL    MW410071   4.218   2.866   4.713  0.1087 -0.0806 -0.4330
 2500SOL     OW10072   2.200   3.355   4.591 -0.5712  0.0811  0.3013
 2500SOL    HW210073   2.228   3.264   4.580 -0.5837  0.1759 -0.6069
 2500SOL    HW310074   2.278   3.407   4.567 -0.4723  0.3061  1.0984
 2500SOL    MW410075   2.214   3.350   4.586 -0.5600  0.1233  0.2861
 2501SOL     OW10076   3.655   0.062   4.508  0.3497  0.7584  0.2555
 2501SOL    HW210077   3.637   0.073   4.415 -1.0083 -0.1216  0.3974
 2501SOL    HW310078   3.648  -0.033   4.522  1.0203  0.8420  1.1526
 2501SOL    MW410079   3.652   0.051   4.498  0.2589  0.6533  0.3929
 2502SOL     OW10080   0.952   3.355   4.690 -0.4955 -0.0389  0.2093
 2502SOL    HW210081   1.025   3.390   4.638 -0.6200 -0.4244 -0.2271
 2502SOL    HW310082   0.900   3.305   4.628 -1.0540  0.1130  0.5550
 2502SOL    MW410083   0.955   3.353   4.675 -0.5856 -0.0694  0.1974
 2503SOL     OW10084   0.907   2.272   4.247  0.1255 -0.0427 -0.0768
 2503SOL    HW210085   0.958   2.298   4.170  0.1300 -0.2719 -0.1508
 2503SOL    HW310086   0.861   2.193   4.220  1.3307 -1.0073  0.6530
 2503SOL    MW410087   0.908   2.265   4.234  0.2851 -0.2003  0.0100
 2504SOL     OW10088   3.635   3.404   4.892 -0.5969  0.5088 -0.3752
 2504SOL    HW210089   3.719   3.391   4.848 -0.0880  0.6522  0.5347
 2504SOL    HW310090   3.590   3.320   4.883  0.1192  0.0708  0.1195
 2504SOL    MW410091   3.640   3.391   4.885 -0.4351  0.4699 -0.1898
 2505SOL     OW10092   2.016   0.005   4.170  0.0905 -0.0002  0.5863
 2505SOL    HW210093   2.095  -0.028   4.212  0.3512 -0.9225 -0.6114
 2505SOL    HW310094   2.017   0.099   4.186  2.4641  0.2902 -1.1306
 2505SOL    MW410095   2.026   0.013   4.178  0.4380 -0.0834  0.2017
 2506SOL     OW10096   4.035   3.183   4.455  0.2462  0.0345  0.0833
 2506SOL    HW210097   4.063   3.091   4.452 -0.5188 -0.2085  0.2946
 2506SOL    HW310098   4.099   3.225   4.512  0.2357 -0.4964  0.4940
 2506SOL    MW410099   4.047   3.176   4.462  0.1435 -0.0677  0.1655
 2507SOL     OW10100   4.240   0.537   4.229  0.0657  0.0213  0.3611
 2507SOL    HW210101   4.221   0.627   4.200  1.5959  0.5302  0.8864
 2507SOL    HW310102   4.199   0.532   4.316 -1.5995 -0.4060 -0.4235
 2507SOL    MW410103   4.232   0.549   4.237  0.0477  0.0321  0.3266
 2508SOL     OW10104   4.218   3.885   4.136  0.3801 -0.2023  0.3725
 2508SOL    HW210105   4.195   3.878   4.043 -2.6074 -0.5791  1.0807
 2508SOL    HW310106   4.219   3.795   4.167  1.3017 -0.0677  0.7514
 2508SOL    MW410107   4.215   3.872   4.128  0.1073 -0.2346  0.5159
 2509SOL     OW10108   3.632   0.387   4.603  0.0650 -0.1253  0.0133
 2509SOL    HW210109   3.688   0.410   4.529  0.4140  1.2038  0.6584
 2509SOL    HW310110   3.666   0.304   4.634  2.0075  0.8793  0.6789
 2509SOL    MW410111   3.644   0.379   4.597  0.3674  0.1826  0.1855
 2510SOL     OW10112   1.756   3.511   4.081  0.0708  0.4297 -0.6088
 2510SOL    HW210113   1.834   3.536   4.129 -0.5556  1.0434  0.0968
 2510SOL    HW310114   1.690   3.576   4.106 -1.3310 -1.3897  0.5838
 2510SOL    MW410115   1.757   3.523   4.090 -0.1967  0.2706 -0.3586
 2511SOL     OW10116   2.980   1.563   4.690  0.1658  0.1491  0.4557
 2511SOL    HW210117   2.906   1.502   4.685  0.2435  0.0687  0.2718
 2511SOL    HW310118   3.034   1.541   4.614  0.7420 -0.2595  0.9806
 2511SOL    MW410119   2.978   1.552   4.679  0.2520  0.0845  0.5007
 2512SOL     OW10120   2.231   1.121   4.164  0.0375  0.1672  0.2847
 2512SOL    HW210121   2.172   1.099   4.236 -1.6133  1.8450 -0.4857
 2512SOL    HW310122   2.308   1.159   4.206 -0.7316  0.7400  1.2144
 2512SOL    MW410123   2.233   1.123   4.179 -0.2818  0.4642  0.3061
 2513SOL     OW10124   1.363   0.451   4.254 -0.1265 -1.0156  0.0861
 2513SOL    HW210125   1.378   0.447   4.159 -1.1148  0.7343 -0.1520
 2513SOL    HW310126   1.267   0.456   4.262  0.0205  0.0457  1.1378
 2513SOL    MW410127   1.352   0.451   4.242 -0.2376 -0.6447  0.1936
 2514SOL     OW10128   0.407   4.280   4.206  0.1385  0.1200 -0.3229
 2514SOL    HW210129   0.334   4.326   4.248 -0.1685 -0.9537  0.3232
 2514SOL    HW310130   0.485   4.314   4.251 -0.1684 -0.8178  0.9392
 2514SOL    MW410131   0.408   4.291   4.218  0.0575 -0.1454 -0.0710
 2515SOL     OW10132   2.453   0.474   4.256  0.0579 -0.0582  0.2365
 2515SOL    HW210133   2.364   0.453   4.228  0.4814 -1.5297 -0.0578
 2515SOL    HW310134   2.475   0.554   4.208 -1.2491  0.5255  0.6142
 2515SOL    MW410135   2.445   0.482   4.246 -0.0587 -0.1754  0.2470
 2516SOL     OW10136   1.401   4.144   4.703  0.5774 -0.0547 -0.2790
 2516SOL    HW210137   1.353   4.063   4.722 -0.6291  0.5419 -0.7236
 2516SOL    HW310138   1.454   4.159   4.781  0.8443 -1.3005 -0.2088
 2516SOL    MW410139   1.401   4.136   4.716  0.4534 -0.1407 -0.3285
 2517SOL     OW10140   3.111   4.503   4.738 -0.0183  0.8605  0.2657
 2517SOL    HW210141   3.108   4.408   4.744 -0.6250  1.0033  3.5032
 2517SOL    HW310142   3.201   4.523   4.711  0.2281 -0.6262 -0.0486
 2517SOL    MW410143   3.123   4.493   4.735 -0.0660  0.6824  0.6514
 2518SOL     OW10144   4.078   3.724   4.685  0.1379 -0.0335  0.8595
 2518SOL    HW210145   4.084   3.815   4.655  0.6354 -0.0816  0.8081
 2518SOL    HW310146   3.989   3.697   4.662  0.2945  0.1469  0.0537
 2518SOL    MW410147   4.067   3.733   4.678  0.2246 -0.0160  0.7467
 2519SOL     OW10148   4.178   3.289   4.857  0.1624 -0.3076 -0.2670
 2519SOL    HW210149   4.088   3.309   4.831  0.4944  1.5384 -0.0981
 2519SOL    HW310150   4.173   3.202   4.897 -1.7153  0.2235  0.7110
 2519SOL    MW410151   4.166   3.280   4.859 -0.0415  0.0062 -0.1154
 2520SOL     OW10152   2.007   3.636   3.757  0.0503  0.0435 -0.5788
 2520SOL    HW210153   2.020   3.721   3.799 -1.9091  0.2438 -0.3436
 2520SOL    HW310154   2.086   3.586   3.779  1.2668  1.8157 -0.7924
 2520SOL    MW410155   2.019   3.641   3.765 -0.0479  0.3037 -0.5758
 2521SOL     OW10156   1.849   3.939   4.272 -0.1708  0.5345  0.2683
 2521SOL    HW210157   1.873   4.031   4.283 -0.7481  0.7954 -0.6472
 2521SOL    HW310158   1.839   3.907   4.362  1.2161  1.0375  0.6229
 2521SOL    MW410159   1.851   3.947   4.285 -0.0640  0.6354  0.1945
 2522SOL     OW10160   3.775   2.820   3.780 -0.4140  0.2576  0.5544
 2522SOL    HW210161   3.798   2.910   3.803  2.8932  0.3221 -2.5375
 2522SOL    HW310162   3.841   2.766   3.823 -1.9011 -0.6805  1.7246
 2522SOL    MW410163   3.786   2.825   3.789 -0.1740  0.1421  0.3009
 2523SOL     OW10164   1.449   0.852   4.546  0.0984 -0.2206  0.4423
 2523SOL    HW210165   1.509   0.916   4.509 -1.1811 -0.7465 -2.7042
 2523SOL    HW310166   1.362   0.891   4.534 -0.4202 -0.9271  1.8595
 2523SOL    MW410167   1.445   0.865   4.539 -0.1389 -0.3831  0.2141
 2524SOL     OW10168   2.315   1.867   4.338 -0.1197 -0.3313 -0.0357
 2524SOL    HW210169   2.371   1.932   4.295 -0.3099  0.8109  1.3793
 2524SOL    HW310170   2.326   1.885   4.431 -1.4361 -1.2930  0.3142
 2524SOL    MW410171   2.324   1.878   4.345 -0.3183 -0.3073  0.1974
 2525SOL     OW10172   1.049   1.491   4.122  0.1533  0.2351  0.1935
 2525SOL    HW210173   1.068   1.510   4.030 -1.0689  1.0903  0.1069
 2525SOL    HW310174   1.093   1.561   4.170 -0.4690  0.6562  0.1586
 2525SOL    MW410175   1.057   1.503   4.116 -0.0900  0.4034  0.1774
 2526SOL     OW10176   2.502   0.393   4.521  0.4243  0.1949 -0.1820
 2526SOL    HW210177   2.493   0.410   4.427 -0.1056  0.3469 -0.1041
 2526SOL    HW310178   2.521   0.300   4.527 -0.2549  0.0391 -0.3974
 2526SOL    MW410179   2.503   0.383   4.509  0.2646  0.1945 -0.2003
 2527SOL     OW10180   2.829   0.456   4.243  0.1937 -0.3812 -0.0738
 2527SOL    HW210181   2.771   0.388   4.207 -0.3752  0.1150 -0.0867
 2527SOL    HW310182   2.917   0.424   4.223 -0.1035 -0.1202 -1.9446
 2527SOL    MW410183   2.833   0.443   4.235  0.0794 -0.2813 -0.3223
 2528SOL     OW10184   2.449   3.051   4.117  0.0814 -0.5714 -0.3374
 2528SOL    HW210185   2.381   3.096   4.167 -0.8982 -0.2984 -1.8863
 2528SOL    HW310186   2.452   2.963   4.154  0.7116  0.1937  1.4722
 2528SOL    MW410187   2.440   3.045   4.128  0.0350 -0.4344 -0.3028
 2529SOL     OW10188   0.016   0.406   3.883  0.0306 -0.2780  0.7107
 2529SOL    HW210189  -0.056   0.456   3.845 -0.7348 -1.0958  1.0702
 2529SOL    HW310190   0.094   0.436   3.836 -0.0620  2.9467  2.4749
 2529SOL    MW410191   0.017   0.417   3.872 -0.0825  0.0396  0.9911
 2530SOL     OW10192   1.375   3.570   4.148  0.0874 -0.5782  0.0170
 2530SOL    HW210193   1.381   3.482   4.185 -1.0616 -0.7927 -0.2683
 2530SOL    HW310194   1.306   3.613   4.199  1.2424  0.4596  0.7381
 2530SOL    MW410195   1.367   3.564   4.159  0.0883 -0.4694  0.0744
 2531SOL     OW10196   3.817   2.011   3.807 -0.0665  0.3614 -0.1469
 2531SOL    HW210197   3.731   1.973   3.827 -0.1376  1.0522  0.9277
 2531SOL    HW310198   3.813   2.098   3.847  1.1722  0.3573 -0.0220
 2531SOL    MW410199   3.805   2.018   3.815  0.0877  0.4520  0.0114
 2532SOL     OW10200   3.426   3.223   4.500  0.1582  0.1631 -0.3817
 2532SOL    HW210201   3.488   3.217   4.427 -0.5024  0.0535 -0.9324
 2532SOL    HW310202   3.478   3.199   4.577  0.9505  0.6275 -0.7608
 2532SOL    MW410203   3.441   3.219   4.501  0.1757  0.2098 -0.5045
 2533SOL     OW10204   2.628   0.272   4.144 -0.0762  0.2300  0.2735
 2533SOL    HW210205   2.641   0.180   4.168 -1.5043 -0.4283 -1.3367
 2533SOL    HW310206   2.538   0.291   4.169 -0.0293  0.9667 -0.1075
 2533SOL    MW410207   2.618   0.262   4.150 -0.2587  0.2404  0.0105
 2534SOL     OW10208   2.847   3.727   4.826 -0.3034  0.3984  0.3841
 2534SOL    HW210209   2.854   3.712   4.921 -1.4791 -0.1403  0.3836
 2534SOL    HW310210   2.936   3.749   4.800  0.1875 -0.2108  1.4856
 2534SOL    MW410211   2.860   3.728   4.835 -0.3939  0.2470  0.5298
 2535SOL     OW10212   4.473   1.150   4.111 -0.5368  0.0579 -0.0546
 2535SOL    HW210213   4.537   1.209   4.150 -1.7814  1.0515  0.5260
 2535SOL    HW310214   4.480   1.166   4.017  0.1221  0.1062  0.0030
 2535SOL    MW410215   4.482   1.160   4.104 -0.6141  0.1953  0.0296
 2536SOL     OW10216   3.073   1.951   4.482  0.5064  0.1618  0.1724
 2536SOL    HW210217   3.015   1.888   4.523  0.8335  0.4580  1.1061
 2536SOL    HW310218   3.161   1.921   4.506  0.7405 -0.1355 -1.0079
 2536SOL    MW410219   3.077   1.939   4.491  0.5803  0.1616  0.1402
 2537SOL     OW10220   2.343   0.639   4.645  0.3380  0.7281 -0.1182
 2537SOL    HW210221   2.397   0.561   4.635  0.7301  1.2344 -2.2997
 2537SOL    HW310222   2.255   0.611   4.621  0.5773  1.0597 -1.4248
 2537SOL    MW410223   2.339   0.625   4.641  0.4213  0.8388 -0.5779
 2538SOL     OW10224   3.378   1.516   4.189  0.1815  0.0451  0.0926
 2538SOL    HW210225   3.401   1.512   4.096  1.3127 -0.3898  0.3850
 2538SOL    HW310226   3.301   1.573   4.192 -0.4552 -0.7174 -1.2192
 2538SOL    MW410227   3.371   1.523   4.177  0.2468 -0.1130 -0.0420
 2539SOL     OW10228   0.420   3.174   4.273  0.5300 -0.0484 -0.5722
 2539SOL    HW210229   0.501   3.155   4.226  1.2225  0.7556  0.3054
 2539SOL    HW310230   0.397   3.263   4.247 -0.5278 -0.5491 -1.4509
 2539SOL    MW410231   0.428   3.183   4.263  0.4818 -0.0083 -0.5722
 2540SOL     OW10232   0.770   0.609   4.316 -0.0231  0.4172 -0.0613
 2540SOL    HW210233   0.847   0.599   4.260  0.6445 -1.3869  1.1480
 2540SOL    HW310234   0.721   0.528   4.306 -0.1111  0.2351  1.6308
 2540SOL    MW410235   0.774   0.597   4.307  0.0534  0.1552  0.3214
 2541SOL     OW10236   2.655   3.612   4.632 -0.2109  0.2991  0.0241
 2541SOL    HW210237   2.716   3.642   4.700  1.7552 -0.4897 -1.3571
 2541SOL    HW310238   2.709   3.603   4.554 -1.9900 -0.9925 -1.0865
 2541SOL    MW410239   2.670   3.615   4.631 -0.1864  0.0246 -0.3052
 2542SOL     OW10240   3.471   2.090   4.230  0.0153  0.5494 -0.1450
 2542SOL    HW210241   3.474   2.068   4.323  1.3831  0.8954 -0.1006
 2542SOL    HW310242   3.542   2.039   4.191  0.1444  1.2458 -0.8259
 2542SOL    MW410243   3.480   2.080   4.237  0.2127  0.6869 -0.2289
 2543SOL     OW10244   4.043   2.581   4.128  0.2547 -0.1333 -0.2247
 2543SOL    HW210245   4.103   2.638   4.176 -0.2191  0.0414  0.1650
 2543SOL    HW310246   4.035   2.622   4.042  0.1022  0.2556 -0.0235
 2543SOL    MW410247   4.050   2.594   4.123  0.1721 -0.0591 -0.1469
 2544SOL     OW10248   0.726   2.047   4.210  0.6036 -0.5653  0.1067
 2544SOL    HW210249   0.684   2.068   4.127 -0.4874  0.0050  0.7992
 2544SOL    HW310250   0.742   1.953   4.206 -0.7295 -0.7854 -0.1685
 2544SOL    MW410251   0.723   2.037   4.198  0.2837 -0.5188  0.1621
 2545SOL     OW10252   4.409   4.018   4.513  0.1714  0.5864 -0.0692
 2545SOL    HW210253   4.317   3.993   4.499 -0.1759  2.1158 -0.5599
 2545SOL    HW310254   4.445   3.947   4.567 -0.7254 -1.1066 -1.6305
 2545SOL    MW410255   4.402   4.005   4.518  0.0072  0.5641 -0.3400
 2546SOL     OW10256   3.903   1.915   4.490  0.4652 -0.1128 -0.2240
 2546SOL    HW210257   3.862   2.002   4.492 -1.0804 -0.8504  0.9780
 2546SOL    HW310258   3.920   1.899   4.397 -0.2580  1.0099 -0.5611
 2546SOL    MW410259   3.900   1.925   4.478  0.1659 -0.0620 -0.1097
 2547SOL     OW10260   0.664   3.116   4.149 -0.3624 -0.0380  0.4460
 2547SOL    HW210261   0.675   3.112   4.054  3.4642 -0.2933  0.8107
 2547SOL    HW310262   0.663   3.025   4.177 -2.1282  0.0239  0.6147
 2547SOL    MW410263   0.665   3.103   4.140 -0.0905 -0.0637  0.5164
 2548SOL     OW10264   2.991   0.466   4.649  0.4209  0.1479 -0.4364
 2548SOL    HW210265   3.040   0.546   4.636  1.3789 -0.7786 -2.7072
 2548SOL    HW310266   2.908   0.480   4.604  0.1099  0.2949  0.1743
 2548SOL    MW410267   2.986   0.478   4.641  0.5062  0.0451 -0.6557
 2549SOL     OW10268   3.677   4.439   4.522  0.1313 -0.4015 -0.1968
 2549SOL    HW210269   3.728   4.410   4.446 -0.0804  1.3820 -1.0264
 2549SOL    HW310270   3.586   4.431   4.495  0.0659  0.7877 -0.3430
 2549SOL    MW410271   3.672   4.434   4.508  0.0947 -0.0091 -0.3257
 2550SOL     OW10272   3.881   3.341   4.754  0.2321  0.0150 -0.1978
 2550SOL    HW210273   3.873   3.398   4.678  2.9485 -0.1622 -0.6661
 2550SOL    HW310274   3.859   3.254   4.722 -1.3338  0.3381 -0.0844
 2550SOL    MW410275   3.877   3.337   4.740  0.3836  0.0341 -0.2446
 2551SOL     OW10276   2.947   0.725   4.150  0.5135  0.1374 -0.3899
 2551SOL    HW210277   2.938   0.642   4.197  0.3847 -0.2133 -1.0262
 2551SOL    HW310278   2.868   0.774   4.171  0.1835 -0.2576 -0.7187
 2551SOL    MW410279   2.936   0.721   4.159  0.4530  0.0390 -0.5174
 2552SOL     OW10280   3.145   1.150   3.919 -0.0979  0.1272  0.1668
 2552SOL    HW210281   3.141   1.057   3.896  0.5730  0.1300  0.0242
 2552SOL    HW310282   3.120   1.154   4.011  1.2365 -0.3611  0.5651
 2552SOL    MW410283   3.141   1.138   3.928  0.1667  0.0631  0.2003
 2553SOL     OW10284   3.758   3.244   4.491  0.4201  0.3037 -0.4733
 2553SOL    HW210285   3.768   3.339   4.483  0.7065  0.2638 -0.5989
 2553SOL    HW310286   3.848   3.211   4.490  0.3694  0.1215  0.7056
 2553SOL    MW410287   3.771   3.252   4.490  0.4511  0.2744 -0.3343
 2554SOL     OW10288   2.919   2.655   4.462  0.2261 -0.4119  0.0271
 2554SOL    HW210289   2.985   2.693   4.519 -0.8528  1.2978  0.1623
 2554SOL    HW310290   2.903   2.722   4.395 -1.3096 -0.8284 -0.0441
 2554SOL    MW410291   2.925   2.669   4.461 -0.1190 -0.2413  0.0348
 2555SOL     OW10292   2.101   0.554   4.487  0.0776 -0.0389 -0.1844
 2555SOL    HW210293   2.125   0.578   4.398 -0.1017 -1.8937 -0.7674
 2555SOL    HW310294   2.023   0.605   4.506  0.0964  0.3335 -1.1110
 2555SOL    MW410295   2.094   0.564   4.478  0.0565 -0.2345 -0.3839
 2556SOL     OW10296   1.690   1.746   4.579 -0.2714 -0.1750  0.2259
 2556SOL    HW210297   1.650   1.831   4.599  0.9532  0.3254  0.6082
 2556SOL    HW310298   1.695   1.743   4.484  1.9630  1.2649  0.2871
 2556SOL    MW410299   1.685   1.757   4.569  0.1849  0.0812  0.2847
 2557SOL     OW10300   1.392   2.790   4.759  0.0564  0.5320  0.5002
 2557SOL    HW210301   1.304   2.767   4.790 -0.2823 -0.6370 -1.2510
 2557SOL    HW310302   1.376   2.856   4.691  0.3856 -0.9193 -1.0225
 2557SOL    MW410303   1.378   2.796   4.754  0.0551  0.1864  0.0682
 2558SOL     OW10304   3.583   0.064   4.223  0.1283  0.0982 -0.3521
 2558SOL    HW210305   3.652   0.019   4.175  0.4054 -0.3686  0.4803
 2558SOL    HW310306   3.593   0.156   4.198  1.5329  0.1510  0.3446
 2558SOL    MW410307   3.593   0.070   4.213  0.3500  0.0436 -0.1507
 2559SOL     OW10308   3.802   4.612   4.126  0.1820  0.1189  0.0323
 2559SOL    HW210309   3.815   4.603   4.032 -0.9799  2.2908 -0.3575
 2559SOL    HW310310   3.882   4.653   4.158  0.5965 -0.6606  0.0279
 2559SOL    MW410311   3.814   4.616   4.118  0.0832  0.3028 -0.0200
 2560SOL     OW10312   3.797   4.357   4.247  0.3687 -0.1385 -0.0968
 2560SOL    HW210313   3.773   4.444   4.216  0.2792  0.1466  0.7779
 2560SOL    HW310314   3.727   4.300   4.214 -1.4729  0.6727  2.3401
 2560SOL    MW410315   3.785   4.361   4.238  0.1140  0.0062  0.3400
 2561SOL     OW10316   2.468   1.545   3.921  0.5562 -0.1628 -0.3310
 2561SOL    HW210317   2.470   1.453   3.894  0.1751  0.4002 -2.2889
 2561SOL    HW310318   2.550   1.582   3.888  0.5787  0.2818  0.2138
 2561SOL    MW410319   2.479   1.537   3.913  0.5090 -0.0299 -0.5176
 2562SOL     OW10320   0.250   0.755   4.451  0.2010  0.0243  0.5057
 2562SOL    HW210321   0.179   0.820   4.457 -1.3524 -1.4787 -0.9368
 2562SOL    HW310322   0.210   0.673   4.481  1.2125 -0.9170 -0.6844
 2562SOL    MW410323   0.235   0.753   4.456  0.1295 -0.2983  0.1583
 2563SOL     OW10324   3.379   2.061   3.757 -0.4106 -0.2533 -0.3662
 2563SOL    HW210325   3.297   2.013   3.774 -1.0874  1.0080  0.0179
 2563SOL    HW310326   3.373   2.138   3.814  1.2275 -0.3483 -0.0511
 2563SOL    MW410327   3.367   2.065   3.767 -0.2840 -0.0997 -0.2742
 2564SOL     OW10328   1.731   0.269   4.663 -0.0105  0.1704  0.2888
 2564SOL    HW210329   1.649   0.280   4.616  1.5577  0.7711 -2.3795
 2564SOL    HW310330   1.750   0.175   4.655  1.0290  0.5225 -1.6749
 2564SOL    MW410331   1.723   0.258   4.656  0.3337  0.2961 -0.3223
 2565SOL     OW10332   3.822   3.528   4.541 -0.0173  0.0764  0.0604
 2565SOL    HW210333   3.837   3.546   4.448 -0.5789  0.1915 -0.0121
 2565SOL    HW310334   3.733   3.559   4.557 -0.5688 -1.4932  0.2185
 2565SOL    MW410335   3.812   3.534   4.531 -0.1643 -0.1154  0.0715
 2566SOL     OW10336   3.565   3.127   4.725  0.0494  0.3131  0.0557
 2566SOL    HW210337   3.572   3.032   4.725 -1.4810  0.1878  0.5061
 2566SOL    HW310338   3.641   3.157   4.674 -0.4014 -1.1999 -1.5331
 2566SOL    MW410339   3.576   3.119   4.719 -0.2122  0.0968 -0.0944
 2567SOL     OW10340   0.776   3.581   4.725  0.5071 -0.2079 -0.2391
 2567SOL    HW210341   0.842   3.512   4.730  0.0045 -0.6473  0.5197
 2567SOL    HW310342   0.700   3.545   4.771  0.1792  0.7910  0.0210
 2567SOL    MW410343   0.775   3.567   4.732  0.3975 -0.1342 -0.1049
 2568SOL     OW10344   1.683   2.744   4.714 -0.2546 -0.4903  0.3155
 2568SOL    HW210345   1.708   2.829   4.679  0.3016 -0.5398  0.5884
 2568SOL    HW310346   1.594   2.756   4.747  0.0279  0.1194  0.8377
 2568SOL    MW410347   1.674   2.757   4.714 -0.1440 -0.4165  0.4196
 2569SOL     OW10348   3.345   0.437   4.302  0.0494 -0.2442 -0.1606
 2569SOL    HW210349   3.366   0.394   4.385 -1.7909  0.2935  0.6146
 2569SOL    HW310350   3.359   0.530   4.318  1.1200 -0.2747 -0.9079
 2569SOL    MW410351   3.349   0.444   4.315 -0.0525 -0.1773 -0.1569
 2570SOL     OW10352   1.137   1.258   4.288  0.0783  0.5775  0.1181
 2570SOL    HW210353   1.192   1.281   4.363 -0.7950  2.7651  0.1247
 2570SOL    HW310354   1.126   1.340   4.240 -1.3920 -0.2817 -1.0598
 2570SOL    MW410355   1.143   1.272   4.292 -0.2309  0.7529 -0.0362
 2571SOL     OW10356   0.193   2.806   3.795 -0.3613 -0.1486  0.5167
 2571SOL    HW210357   0.276   2.780   3.835  0.5851  1.9436  0.0105
 2571SOL    HW310358   0.208   2.798   3.701 -0.2219  1.6163  0.3693
 2571SOL    MW410359   0.206   2.802   3.788 -0.2180  0.3605  0.4306
 2572SOL     OW10360   4.464   2.040   4.757  0.2983 -0.1230  0.5196
 2572SOL    HW210361   4.535   2.083   4.708  0.5856 -0.7997  0.3345
 2572SOL    HW310362   4.406   2.112   4.783 -0.7316  0.0880 -2.2229
 2572SOL    MW410363   4.466   2.055   4.754  0.2003 -0.1848  0.1335
 2573SOL     OW10364   3.765   1.192   4.251 -0.0372  0.1916  0.4413
 2573SOL    HW210365   3.781   1.284   4.231 -1.0540  0.2101 -0.3341
 2573SOL    HW310366   3.797   1.181   4.341  1.0359  1.0434  0.1660
 2573SOL    MW410367   3.771   1.202   4.260 -0.0296  0.3061  0.3028
 2574SOL     OW10368   1.421   2.289   4.340  0.2302 -0.4076 -0.0021
 2574SOL    HW210369   1.396   2.198   4.321  0.2935 -0.4369  0.0536
 2574SOL    HW310370   1.421   2.294   4.436  0.5319 -0.4363  0.0015
 2574SOL    MW410371   1.418   2.278   4.350  0.2785 -0.4151  0.0067
 2575SOL     OW10372   1.506   1.674   4.153  0.0461 -0.4890  0.6623
 2575SOL    HW210373   1.526   1.586   4.184  0.8400 -0.4084  0.3909
 2575SOL    HW310374   1.516   1.669   4.058 -1.6754 -0.5579  0.4694
 2575SOL    MW410375   1.510   1.662   4.144 -0.0764 -0.4873  0.6013
 2576SOL     OW10376   2.894   3.904   3.820 -0.3510 -0.6086 -0.0079
 2576SOL    HW210377   2.883   3.811   3.800  0.3885 -0.8234  0.5785
 2576SOL    HW310378   2.886   3.910   3.915  0.4728 -0.1972  0.0392
 2576SOL    MW410379   2.891   3.893   3.830 -0.1447 -0.5827  0.0753
 2577SOL     OW10380   2.143   1.621   4.576  0.2469 -0.0779  0.2802
 2577SOL    HW210381   2.111   1.650   4.490 -0.3404  0.5677  0.7147
 2577SOL    HW310382   2.085   1.663   4.639  0.0278 -1.3838  0.9644
 2577SOL    MW410383   2.131   1.630   4.573  0.1404 -0.1650  0.4277
 2578SOL     OW10384   1.947   4.628   3.889 -0.0898  0.1242  0.5991
 2578SOL    HW210385   1.965   4.637   3.983 -0.9650  0.7442  0.7126
 2578SOL    HW310386   2.016   4.680   3.847  0.6856 -0.6734  0.8625
 2578SOL    MW410387   1.959   4.636   3.896 -0.1030  0.1011  0.6487
 2579SOL     OW10388   2.820   1.339   4.567 -0.1384 -0.3831 -0.0712
 2579SOL    HW210389   2.855   1.348   4.478 -1.0974  0.4118 -0.3840
 2579SOL    HW310390   2.817   1.244   4.582 -1.3482 -0.5833 -1.4689
 2579SOL    MW410391   2.824   1.327   4.557 -0.4246 -0.3047 -0.2961
 2580SOL     OW10392   1.098   0.446   4.364  0.0639 -0.4172 -0.2193
 2580SOL    HW210393   1.127   0.510   4.428  1.2283  0.9799 -2.0977
 2580SOL    HW310394   1.032   0.492   4.311 -1.4010 -1.7670  0.3817
 2580SOL    MW410395   1.093   0.460   4.365  0.0243 -0.4110 -0.3877
 2581SOL     OW10396   0.517   2.377   4.140 -0.2199  0.0891 -0.3331
 2581SOL    HW210397   0.569   2.353   4.063  1.9324 -0.3560  1.2228
 2581SOL    HW310398   0.451   2.308   4.147  0.4090 -0.5951 -1.0179
 2581SOL    MW410399   0.515   2.365   4.131  0.1470 -0.0596 -0.2184
 2582SOL     OW10400   3.324   4.664   4.587 -0.3504  0.2751  0.3143
 2582SOL    HW210401   3.233   4.686   4.569  0.1769  1.7258 -0.6334
 2582SOL    HW310402   3.373   4.745   4.571  1.4474 -1.1710 -1.9156
 2582SOL    MW410403   3.319   4.677   4.583 -0.0436  0.2757 -0.1049
 2583SOL     OW10404   4.230   2.357   3.815  0.1092  0.0624  0.6442
 2583SOL    HW210405   4.241   2.353   3.910 -0.3242 -1.4158  0.6499
 2583SOL    HW310406   4.299   2.416   3.785  0.5327  0.1815  1.8302
 2583SOL    MW410407   4.241   2.364   3.823  0.1078 -0.1168  0.8016
 2584SOL     OW10408   3.359   3.804   4.127 -0.1241 -0.0362  0.4231
 2584SOL    HW210409   3.371   3.825   4.034  0.1430  0.5042  0.5763
 2584SOL    HW310410   3.280   3.852   4.152 -0.9800 -1.2710  0.1428
 2584SOL    MW410411   3.350   3.813   4.118 -0.2015 -0.1278  0.4067
 2585SOL     OW10412   2.099   4.337   4.674  0.0722  0.5926 -0.4216
 2585SOL    HW210413   2.017   4.313   4.631  0.5578 -1.4454 -0.2651
 2585SOL    HW310414   2.162   4.272   4.644  1.4246  1.5986  0.1752
 2585SOL    MW410415   2.096   4.325   4.664  0.3147  0.4568 -0.3219
 2586SOL     OW10416   1.764   1.193   4.139  0.7064  0.3353  0.9309
 2586SOL    HW210417   1.749   1.101   4.159  1.1324  0.2494  0.8428
 2586SOL    HW310418   1.836   1.219   4.196  0.4100  0.6810  1.1443
 2586SOL    MW410419   1.771   1.184   4.149  0.7235  0.3695  0.9475
 2587SOL     OW10420   3.613   3.179   4.273 -0.0481 -0.3638 -0.4224
 2587SOL    HW210421   3.597   3.265   4.234  1.3071 -0.2053 -0.6302
 2587SOL    HW310422   3.665   3.197   4.351 -0.4100 -0.9386 -0.0374
 2587SOL    MW410423   3.618   3.193   4.278  0.0830 -0.4187 -0.3996
 2588SOL     OW10424   1.941   1.324   4.330 -0.0324 -0.1555 -0.0524
 2588SOL    HW210425   2.000   1.381   4.281 -0.7810  0.9541  0.3248
 2588SOL    HW310426   1.933   1.366   4.416 -0.7869 -0.6881  0.1427
 2588SOL    MW410427   1.948   1.337   4.335 -0.2309 -0.0795  0.0229
 2589SOL     OW10428   3.981   2.417   3.725  0.0100 -0.2706  0.0032
 2589SOL    HW210429   3.989   2.437   3.632  0.8021 -0.7009 -0.0314
 2589SOL    HW310430   4.069   2.389   3.750  0.4115  2.0871  1.4006
 2589SOL    MW410431   3.994   2.416   3.716  0.1674 -0.0165  0.1829
 2590SOL     OW10432   1.837   0.671   4.525  0.0290  0.0053  0.2106
 2590SOL    HW210433   1.774   0.637   4.589 -0.8316  1.0156 -0.0734
 2590SOL    HW310434   1.811   0.632   4.442 -0.3189  0.5399  0.0662
 2590SOL    MW410435   1.825   0.662   4.522 -0.1305  0.2092  0.1535
 2591SOL     OW10436   4.469   4.005   4.230 -0.0851 -0.5739  0.0502
 2591SOL    HW210437   4.397   3.947   4.204  0.9108 -2.2802  0.9965
 2591SOL    HW310438   4.466   4.005   4.325 -0.2053  1.1400  0.0596
 2591SOL    MW410439   4.459   3.997   4.239  0.0296 -0.5729  0.1769
 2592SOL     OW10440   1.199   2.057   4.056  0.2417 -0.5462 -0.4703
 2592SOL    HW210441   1.140   2.002   4.108  1.7243  0.9531  3.0107
 2592SOL    HW310442   1.158   2.143   4.056 -0.3169 -0.7887 -2.8782
 2592SOL    MW410443   1.186   2.061   4.063  0.3636 -0.3805 -0.3285
 2593SOL     OW10444   3.404   3.586   3.772 -0.1351  0.1094  0.2546
 2593SOL    HW210445   3.376   3.671   3.805 -0.1803 -0.0702  0.6819
 2593SOL    HW310446   3.396   3.593   3.677  1.6158  1.2216  0.1607
 2593SOL    MW410447   3.399   3.598   3.764  0.0899  0.2325  0.2987
 2594SOL     OW10448   0.194   1.543   4.130 -0.2448 -0.2991  0.3629
 2594SOL    HW210449   0.193   1.528   4.035 -0.5540 -0.2068  0.3492
 2594SOL    HW310450   0.262   1.608   4.144 -0.6184  0.1454  0.1304
 2594SOL    MW410451   0.203   1.549   4.119 -0.3349 -0.2283  0.3295
 2595SOL     OW10452   3.152   0.254   4.717  0.1037  0.3485 -0.0313
 2595SOL    HW210453   3.092   0.327   4.704  2.0203  1.6986 -1.5354
 2595SOL    HW310454   3.173   0.257   4.810  0.8291  2.2641 -0.2372
 2595SOL    MW410455   3.147   0.264   4.728  0.4523  0.7794 -0.2570
 2596SOL     OW10456   3.622   1.125   3.854 -0.0081  0.3757  0.2100
 2596SOL    HW210457   3.607   1.105   3.946 -1.6495 -2.3623 -0.5907
 2596SOL    HW310458   3.537   1.158   3.823 -0.1620 -0.9596 -0.8440
 2596SOL    MW410459   3.609   1.127   3.862 -0.2449 -0.1616 -0.0348
 2597SOL     OW10460   0.411   1.927   3.941 -0.2780 -0.4906  0.0566
 2597SOL    HW210461   0.483   1.990   3.951 -0.6329  0.0546 -0.7317
 2597SOL    HW310462   0.409   1.880   4.024  0.3087  0.2128  0.4823
 2597SOL    MW410463   0.420   1.929   3.953 -0.2474 -0.3257  0.0088
 2598SOL     OW10464   1.500   0.733   4.170 -0.5258  0.0060 -0.5446
 2598SOL    HW210465   1.571   0.673   4.191  0.2957  1.4422  0.8475
 2598SOL    HW310466   1.500   0.739   4.074 -0.2406 -1.7335 -0.6572
 2598SOL    MW410467   1.509   0.726   4.160 -0.3797 -0.0340 -0.3762
 2599SOL     OW10468   2.254   1.116   3.891  0.0821  0.0693  0.1261
 2599SOL    HW210469   2.249   1.119   3.986 -0.4679  1.4731  0.0676
 2599SOL    HW310470   2.174   1.160   3.861  0.2141 -0.4133 -0.9805
 2599SOL    MW410471   2.243   1.122   3.899  0.0272  0.1909 -0.0279
 2600SOL     OW10472   1.380   2.030   4.274 -0.1508 -0.0982  0.1321
 2600SOL    HW210473   1.353   1.962   4.335 -0.4586 -1.4186 -1.4222
 2600SOL    HW310474   1.324   2.017   4.197  1.5597  0.2350 -1.2092
 2600SOL    MW410475   1.369   2.019   4.272  0.0342 -0.2286 -0.2499
 2601SOL     OW10476   4.244   4.440   4.498  0.1025 -0.1700 -0.2429
 2601SOL    HW210477   4.225   4.531   4.521 -1.5158 -0.5496 -0.0185
 2601SOL    HW310478   4.305   4.411   4.565 -0.1023  0.4743  0.2285
 2601SOL    MW410479   4.250   4.448   4.510 -0.1383 -0.1349 -0.1512
 2602SOL     OW10480   2.498   3.882   4.139  0.0446 -0.7236 -0.4728
 2602SOL    HW210481   2.489   3.876   4.044 -1.5776  0.3722 -0.4165
 2602SOL    HW310482   2.410   3.904   4.170  0.7462 -0.1576  1.1974
 2602SOL    MW410483   2.485   3.884   4.131 -0.0772 -0.5043 -0.2446
 2603SOL     OW10484   1.579   4.224   4.309 -0.0262  0.0500  0.5275
 2603SOL    HW210485   1.596   4.169   4.385 -2.8827  1.4625  2.2859
 2603SOL    HW310486   1.483   4.223   4.299  0.1866  1.0723 -2.1593
 2603SOL    MW410487   1.568   4.217   4.318 -0.3750  0.3710  0.4058
 2604SOL     OW10488   3.087   0.346   4.193 -0.4783  0.5814  0.2233
 2604SOL    HW210489   3.169   0.381   4.228 -0.3399 -0.9128  1.4211
 2604SOL    HW310490   3.090   0.366   4.100  1.0852  0.8472  0.3242
 2604SOL    MW410491   3.098   0.353   4.185 -0.2537  0.4193  0.3943
 2605SOL     OW10492   0.523   3.222   4.541 -0.2355  0.0960  0.1129
 2605SOL    HW210493   0.538   3.317   4.545 -0.0249  0.0817 -0.2738
 2605SOL    HW310494   0.492   3.206   4.452 -0.0056 -0.2344  0.0887
 2605SOL    MW410495   0.521   3.232   4.530 -0.1774  0.0503  0.0591
 2606SOL     OW10496   0.405   0.311   4.114 -0.9174  0.0893  0.1567
 2606SOL    HW210497   0.474   0.338   4.175 -0.1015  0.2082 -0.8040
 2606SOL    HW310498   0.328   0.361   4.141 -0.7369 -0.3412  1.4890
 2606SOL    MW410499   0.404   0.321   4.126 -0.7859  0.0482  0.2055
 2607SOL     OW10500   1.903   2.884   4.093  0.3171  0.4617  0.3808
 2607SOL    HW210501   1.981   2.829   4.083  0.6346  1.0401 -0.3759
 2607SOL    HW310502   1.830   2.822   4.090  0.7878 -0.1876  2.0847
 2607SOL    MW410503   1.904   2.868   4.091  0.4210  0.4523  0.5059
 2608SOL     OW10504   3.820   3.061   4.117 -0.3981 -0.2156  0.1552
 2608SOL    HW210505   3.739   3.096   4.153 -0.5450 -0.5518  0.1608
 2608SOL    HW310506   3.821   2.969   4.144 -0.7084 -0.5774 -1.0161
 2608SOL    MW410507   3.810   3.053   4.125 -0.4585 -0.3076  0.0010
 2609SOL     OW10508   4.489   0.892   4.194  0.2801 -0.4856  0.0730
 2609SOL    HW210509   4.510   0.903   4.286  1.3445  0.6844 -0.3090
 2609SOL    HW310510   4.477   0.981   4.161 -0.4531 -0.9126 -0.8380
 2609SOL    MW410511   4.490   0.905   4.202  0.3242 -0.3876 -0.0978
 2610SOL     OW10512   3.927   1.863   4.219  0.4143 -0.2120  0.4383
 2610SOL    HW210513   3.840   1.896   4.195  0.5383  1.8492  2.6622
 2610SOL    HW310514   3.986   1.907   4.157  0.0927  0.0850  0.3370
 2610SOL    MW410515   3.923   1.874   4.208  0.3884  0.0991  0.7181
 2611SOL     OW10516   2.697   4.637   4.492  0.2996  0.3707 -0.1655
 2611SOL    HW210517   2.619   4.693   4.489  0.5317  0.6408 -1.2826
 2611SOL    HW310518   2.768   4.698   4.513  0.4575  0.4006 -0.7770
 2611SOL    MW410519   2.696   4.653   4.494  0.3510  0.4106 -0.3934
 2612SOL     OW10520   0.607   4.634   4.205 -0.0691 -0.3897 -0.2934
 2612SOL    HW210521   0.621   4.639   4.111 -0.9135 -0.8982 -0.4510
 2612SOL    HW310522   0.518   4.666   4.219 -0.5711 -1.8821  0.1287
 2612SOL    MW410523   0.597   4.639   4.195 -0.2467 -0.6537 -0.2584
 2613SOL     OW10524   3.652   1.494   4.574 -0.3900 -0.2334 -0.1840
 2613SOL    HW210525   3.645   1.589   4.567 -1.4566 -0.4830 -2.9768
 2613SOL    HW310526   3.734   1.472   4.529 -0.6130 -0.7216 -0.3532
 2613SOL    MW410527   3.662   1.504   4.567 -0.5603 -0.3308 -0.5751
 2614SOL     OW10528   3.121   3.451   4.094 -0.3576 -0.2649  0.1706
 2614SOL    HW210529   3.199   3.476   4.143  0.0739 -1.5168  0.1439
 2614SOL    HW310530   3.090   3.371   4.136 -0.7138 -0.6534 -0.8037
 2614SOL    MW410531   3.127   3.444   4.106 -0.3476 -0.4814  0.0386
 2615SOL     OW10532   1.035   1.888   4.222  0.0921 -0.2887 -0.0771
 2615SOL    HW210533   1.044   1.951   4.294 -0.7334 -0.4013  0.1356
 2615SOL    HW310534   1.094   1.817   4.246 -0.0363 -0.2384  0.4104
 2615SOL    MW410535   1.044   1.887   4.235 -0.0340 -0.2970  0.0157
 2616SOL     OW10536   1.798   4.588   4.548  0.1419  0.0149  0.1090
 2616SOL    HW210537   1.794   4.601   4.453  0.0511 -0.2249  0.0758
 2616SOL    HW310538   1.706   4.588   4.575  0.1491 -0.3001  0.1385
 2616SOL    MW410539   1.785   4.589   4.539  0.1309 -0.0577  0.1087
 2617SOL     OW10540   1.566   2.283   3.905  0.0346 -0.3250 -0.0427
 2617SOL    HW210541   1.574   2.310   3.997 -0.2650  0.9470 -0.3768
 2617SOL    HW310542   1.638   2.328   3.860 -0.0973 -0.5776 -0.5126
 2617SOL    MW410543   1.576   2.293   3.911 -0.0222 -0.1905 -0.1490
 2618SOL     OW10544   3.574   0.336   4.179 -0.2307 -0.1194  0.2062
 2618SOL    HW210545   3.494   0.365   4.223 -0.4365 -0.9469  0.3761
 2618SOL    HW310546   3.551   0.338   4.086 -0.8328 -1.4910  0.3153
 2618SOL    MW410547   3.560   0.340   4.172 -0.3374 -0.4095  0.2432
 2619SOL     OW10548   2.439   2.290   3.834 -0.7234  0.6516  0.7222
 2619SOL    HW210549   2.516   2.327   3.789 -1.0914  1.8382  1.0555
 2619SOL    HW310550   2.455   2.196   3.834 -0.2886  0.6910 -1.1203
 2619SOL    MW410551   2.451   2.283   3.828 -0.7148  0.8132  0.5233
 2620SOL     OW10552   3.046   2.282   4.262  0.1618 -0.2783  0.0117
 2620SOL    HW210553   3.012   2.194   4.247 -0.9718  0.2061 -0.3905
 2620SOL    HW310554   3.014   2.304   4.350 -1.6908  0.6564 -0.8578
 2620SOL    MW410555   3.037   2.273   4.271 -0.2322 -0.0913 -0.1559
 2621SOL     OW10556   4.187   2.787   4.213 -0.5188  0.2473 -0.0466
 2621SOL    HW210557   4.162   2.809   4.303 -1.1518 -0.1788 -0.1083
 2621SOL    HW310558   4.215   2.869   4.175 -0.4958  0.4816  0.4680
 2621SOL    MW410559   4.187   2.801   4.220 -0.5989  0.2220  0.0138
 2622SOL     OW10560   1.171   0.920   4.517  0.0487  0.3811  0.1138
 2622SOL    HW210561   1.130   0.924   4.431  0.1000  0.4636  0.0927
 2622SOL    HW310562   1.126   0.986   4.568  1.0281  1.3693 -0.2933
 2622SOL    MW410563   1.160   0.929   4.512  0.1847  0.5224  0.0572
 2623SOL     OW10564   0.117   4.636   4.160 -0.3052  0.0447  0.1446
 2623SOL    HW210565   0.045   4.681   4.205 -0.0915 -0.2703  0.8032
 2623SOL    HW310566   0.128   4.554   4.208 -0.6129 -0.6643 -0.9767
 2623SOL    MW410567   0.109   4.631   4.172 -0.3176 -0.0901  0.0839
 2624SOL     OW10568   0.230   2.975   4.711  0.5366 -0.4721  0.1194
 2624SOL    HW210569   0.267   3.051   4.757  1.3292 -1.0970  0.5438
 2624SOL    HW310570   0.302   2.943   4.657 -0.0871 -0.3567 -0.7776
 2624SOL    MW410571   0.245   2.981   4.710  0.5589 -0.5393  0.0572
 2625SOL     OW10572   3.325   4.185   4.607  0.0501 -0.1767  0.7148
 2625SOL    HW210573   3.271   4.216   4.680  0.9847 -0.4399  1.5195
 2625SOL    HW310574   3.362   4.264   4.569 -2.7132  0.2529 -1.3329
 2625SOL    MW410575   3.322   4.199   4.611 -0.1912 -0.1545  0.5512
 2626SOL     OW10576   1.326   1.882   4.518 -0.2022  0.3276 -0.0700
 2626SOL    HW210577   1.406   1.924   4.549  0.8896  0.5688 -3.0395
 2626SOL    HW310578   1.256   1.942   4.544  0.6258  0.5338  1.8006
 2626SOL    MW410579   1.327   1.896   4.526  0.0511  0.3867 -0.2151
 2627SOL     OW10580   0.837   4.318   4.181 -0.2065  0.8375 -0.2744
 2627SOL    HW210581   0.839   4.228   4.213  0.5192  0.3117 -1.7136
 2627SOL    HW310582   0.763   4.359   4.227 -0.5231 -0.4807  0.4108
 2627SOL    MW410583   0.827   4.311   4.191 -0.1525  0.5937 -0.3734
 2628SOL     OW10584   3.983   0.886   4.255  0.0176  0.0233  0.6326
 2628SOL    HW210585   3.972   0.975   4.222 -1.4597 -0.0213  0.9878
 2628SOL    HW310586   4.061   0.853   4.210 -0.8738  0.6238 -1.3643
 2628SOL    MW410587   3.992   0.893   4.245 -0.2949  0.0967  0.4163
 2629SOL     OW10588   2.091   1.089   4.405  0.0573  0.3735  0.3147
 2629SOL    HW210589   2.040   1.169   4.391  0.3704  0.5224 -0.0072
 2629SOL    HW310590   2.150   1.111   4.477  0.5490  0.6319 -0.1641
 2629SOL    MW410591   2.092   1.103   4.412  0.1633  0.4272  0.2089
 2630SOL     OW10592   3.540   0.786   4.110  0.0694 -0.2309 -0.4937
 2630SOL    HW210593   3.618   0.733   4.125  0.2939  0.3147  0.2603
 2630SOL    HW310594   3.568   0.876   4.124 -0.6286 -0.0098 -0.4843
 2630SOL    MW410595   3.554   0.791   4.114  0.0067 -0.1298 -0.3929
 2631SOL     OW10596   4.160   1.228   4.452 -0.0333 -0.3175  0.1651
 2631SOL    HW210597   4.175   1.255   4.362 -1.2627  1.0093  0.3435
 2631SOL    HW310598   4.207   1.292   4.505 -1.2628  0.2781  0.5349
 2631SOL    MW410599   4.168   1.240   4.447 -0.3576 -0.0639  0.2375
 2632SOL     OW10600   4.025   0.073   4.238  0.1602 -0.7132 -0.1231
 2632SOL    HW210601   4.058   0.154   4.199 -0.7458 -0.5727 -0.6055
 2632SOL    HW310602   4.018   0.093   4.332 -0.9234  0.0846 -0.3537
 2632SOL    MW410603   4.028   0.087   4.246 -0.1025 -0.5894 -0.2174
 2633SOL     OW10604   1.574   1.997   4.589  0.1788  0.0298 -0.5944
 2633SOL    HW210605   1.583   2.080   4.636 -1.7065 -0.0543 -0.0155
 2633SOL    HW310606   1.611   2.015   4.502  0.2761  1.3159 -0.3080
 2633SOL    MW410607   1.580   2.011   4.584 -0.0571  0.1884 -0.4807
 2634SOL     OW10608   2.270   4.612   4.647 -0.6948  0.1584 -0.8260
 2634SOL    HW210609   2.186   4.627   4.603 -1.5959  0.1717  0.8738
 2634SOL    HW310610   2.256   4.533   4.699  0.0285  0.7236  0.2422
 2634SOL    MW410611   2.257   4.603   4.648 -0.7184  0.2351 -0.4601
 2635SOL     OW10612   1.976   3.490   4.531  0.1095 -0.5934  0.3936
 2635SOL    HW210613   2.044   3.425   4.548  0.3923 -0.2674  0.5055
 2635SOL    HW310614   2.015   3.573   4.556 -0.1047 -0.3292 -0.1436
 2635SOL    MW410615   1.990   3.492   4.536  0.1186 -0.5155  0.3376
 2636SOL     OW10616   0.804   3.225   4.492 -0.2833 -0.1737 -0.0905
 2636SOL    HW210617   0.839   3.139   4.469  2.1278  0.2539  1.7779
 2636SOL    HW310618   0.710   3.210   4.507  0.1557 -2.5379  0.4622
 2636SOL    MW410619   0.796   3.212   4.491  0.0927 -0.4289  0.2294
 2637SOL     OW10620   3.091   0.381   3.900  0.5531 -0.3251 -0.5215
 2637SOL    HW210621   3.029   0.425   3.842  1.7435  1.3582 -0.5502
 2637SOL    HW310622   3.106   0.296   3.859  0.4915  0.3911 -2.0843
 2637SOL    MW410623   3.085   0.376   3.887  0.7019 -0.0086 -0.7315
 2638SOL     OW10624   4.464   0.140   4.330 -0.5215 -0.0171 -0.3675
 2638SOL    HW210625   4.388   0.086   4.306  0.3497 -0.4450 -2.2223
 2638SOL    HW310626   4.471   0.205   4.260  0.8120  0.0412 -0.1923
 2638SOL    MW410627   4.455   0.142   4.317 -0.2308 -0.0658 -0.5894
 2639SOL     OW10628   4.461   3.164   4.537  0.2068 -0.2478  0.5067
 2639SOL    HW210629   4.496   3.084   4.575  0.9063  0.2626  0.9543
 2639SOL    HW310630   4.475   3.155   4.443  2.0947  0.2030  0.7249
 2639SOL    MW410631   4.467   3.152   4.530  0.5484 -0.1211  0.5946
 2640SOL     OW10632   3.993   1.123   4.100 -0.6172 -0.4311 -0.4500
 2640SOL    HW210633   3.924   1.171   4.146 -0.9324 -1.9924  0.7378
 2640SOL    HW310634   4.075   1.160   4.133 -0.8636 -0.1170 -0.1863
 2640SOL    MW410635   3.995   1.135   4.110 -0.6912 -0.5957 -0.2584
 2641SOL     OW10636   1.586   0.125   4.121  0.4436 -0.2379 -0.1079
 2641SOL    HW210637   1.641   0.060   4.164  0.5540  1.0170  1.6857
 2641SOL    HW310638   1.511   0.135   4.179  0.6819  1.6302 -0.0930
 2641SOL    MW410639   1.583   0.118   4.134  0.4896  0.1742  0.1307
 2642SOL     OW10640   1.606   2.928   4.335 -0.5121  0.1885  0.0942
 2642SOL    HW210641   1.633   2.853   4.282  1.7246  0.4527  0.8077
 2642SOL    HW310642   1.601   3.001   4.274 -1.1040 -0.1930 -0.3158
 2642SOL    MW410643   1.609   2.927   4.320 -0.2952  0.1731  0.1345
 2643SOL     OW10644   3.117   3.769   4.709  0.0467 -0.4679  0.2461
 2643SOL    HW210645   3.135   3.676   4.697  0.1555 -0.2539 -1.3453
 2643SOL    HW310646   3.192   3.802   4.758  1.0166 -0.8042 -0.9979
 2643SOL    MW410647   3.129   3.761   4.714  0.1893 -0.4840 -0.1283
 2644SOL     OW10648   0.705   2.883   4.497 -0.2623  0.0019 -0.2910
 2644SOL    HW210649   0.710   2.792   4.528  0.4637  0.2935  0.4678
 2644SOL    HW310650   0.686   2.876   4.404 -0.7495 -0.9257 -0.1253
 2644SOL    MW410651   0.703   2.870   4.489 -0.2308 -0.0823 -0.1688
 2645SOL     OW10652   4.248   3.031   4.090 -0.0792  0.4717  0.2512
 2645SOL    HW210653   4.239   3.030   3.994 -2.0874 -1.1581  0.4160
 2645SOL    HW310654   4.181   3.094   4.119  0.0674  0.4572  0.6163
 2645SOL    MW410655   4.238   3.039   4.081 -0.3247  0.2549  0.3209
 2646SOL     OW10656   1.864   4.316   4.493 -0.1555 -0.7996  0.1110
 2646SOL    HW210657   1.785   4.276   4.528 -0.4169 -0.2396  0.1673
 2646SOL    HW310658   1.850   4.410   4.502  0.1887 -0.6719 -0.5875
 2646SOL    MW410659   1.852   4.323   4.499 -0.1445 -0.7091  0.0262
 2647SOL     OW10660   4.022   2.666   3.855  0.1087  0.2082  0.7120
 2647SOL    HW210661   4.018   2.580   3.815 -1.1515  1.2053 -1.3986
 2647SOL    HW310662   4.089   2.713   3.806  0.7662  0.4740  1.8261
 2647SOL    MW410663   4.030   2.661   3.844  0.0291  0.3748  0.5808
 2648SOL     OW10664   2.222   0.387   4.138  0.9984 -0.0680 -0.0899
 2648SOL    HW210665   2.148   0.346   4.182  0.8098  0.6651  0.2754
 2648SOL    HW310666   2.206   0.372   4.045  1.5687 -1.9108  0.0990
 2648SOL    MW410667   2.211   0.380   4.132  1.0488 -0.2144 -0.0172
 2649SOL     OW10668   4.078   4.259   3.849  0.1654 -0.3351  0.2536
 2649SOL    HW210669   4.046   4.262   3.939 -0.7801  2.4613 -0.1227
 2649SOL    HW310670   4.076   4.167   3.826 -0.6738 -0.9700  2.7131
 2649SOL    MW410671   4.074   4.248   3.858 -0.0701 -0.0496  0.5286
 2650SOL     OW10672   1.656   2.007   4.336  0.2240  0.1753 -0.1122
 2650SOL    HW210673   1.569   2.003   4.295  0.9961 -2.0213 -1.6237
 2650SOL    HW310674   1.709   2.059   4.276  0.1835  0.8623  0.4320
 2650SOL    MW410675   1.651   2.013   4.323  0.3206 -0.0238 -0.2398
 2651SOL     OW10676   3.804   0.712   4.127  0.8316 -0.1371 -0.1038
 2651SOL    HW210677   3.811   0.741   4.036 -1.1623  0.5396 -0.0614
 2651SOL    HW310678   3.848   0.781   4.177  0.3975  0.3743 -0.4145
 2651SOL    MW410679   3.810   0.725   4.121  0.5114  0.0196 -0.1388
 2652SOL     OW10680   2.037   3.815   4.145  0.3813  0.6638  0.0789
 2652SOL    HW210681   1.978   3.868   4.199 -1.4804  0.1927 -1.4108
 2652SOL    HW310682   2.019   3.725   4.172  1.5609  0.5968  0.6862
 2652SOL    MW410683   2.027   3.810   4.156  0.2911  0.5929 -0.0372
 2653SOL     OW10684   2.662   3.250   4.495 -0.1335 -0.1656  0.2082
 2653SOL    HW210685   2.590   3.312   4.490 -1.0070 -1.1448  0.5055
 2653SOL    HW310686   2.681   3.228   4.403  0.2634  0.6164  0.0950
 2653SOL    MW410687   2.655   3.255   4.482 -0.1960 -0.1917  0.2332
 2654SOL     OW10688   2.987   4.373   4.090  0.0961 -0.0509 -0.2374
 2654SOL    HW210689   3.016   4.336   4.174  0.0808  0.3744 -0.0452
 2654SOL    HW310690   2.897   4.343   4.081 -0.1929  0.6405  0.3254
 2654SOL    MW410691   2.979   4.364   4.100  0.0560  0.0963 -0.1378
 2655SOL     OW10692   3.407   4.414   4.480  0.5413 -0.3441 -0.1114
 2655SOL    HW210693   3.387   4.499   4.518  0.1488 -0.0308 -0.9938
 2655SOL    HW310694   3.382   4.423   4.388 -0.3828 -1.7116 -0.0073
 2655SOL    MW410695   3.401   4.426   4.473  0.3674 -0.4830 -0.2141
 2656SOL     OW10696   0.213   2.460   4.708 -0.4194  0.3073  0.0830
 2656SOL    HW210697   0.163   2.462   4.626 -0.4670 -1.8334  0.0288
 2656SOL    HW310698   0.156   2.503   4.772 -0.9970  0.6784 -0.6687
 2656SOL    MW410699   0.199   2.466   4.705 -0.5019  0.0739 -0.0234
 2657SOL     OW10700   1.010   2.187   4.788 -0.2185  0.2445  0.0561
 2657SOL    HW210701   0.975   2.273   4.766  0.6964  1.1001  1.8536
 2657SOL    HW310702   1.030   2.192   4.882  0.9522 -1.5341 -0.0700
 2657SOL    MW410703   1.008   2.199   4.798  0.0566  0.1223  0.2770
 2658SOL     OW10704   0.468   1.702   3.755 -0.0226  0.1759 -0.1215
 2658SOL    HW210705   0.444   1.771   3.817  1.1798 -0.2044  0.7869
 2658SOL    HW310706   0.545   1.661   3.793 -0.1062 -1.0031 -1.1715
 2658SOL    MW410707   0.475   1.706   3.768  0.1250 -0.0298 -0.1402
 2659SOL     OW10708   0.029   1.144   3.843 -0.0817  0.0268  0.3298
 2659SOL    HW210709   0.094   1.182   3.784 -0.2531  0.5652  0.4793
 2659SOL    HW310710  -0.052   1.190   3.821 -0.7660 -1.7592 -0.9486
 2659SOL    MW410711   0.027   1.155   3.832 -0.1946 -0.1378  0.1810
 2660SOL     OW10712   4.461   2.480   3.740  0.4515  0.2650 -0.2612
 2660SOL    HW210713   4.531   2.425   3.776 -0.3086 -1.2284 -0.9978
 2660SOL    HW310714   4.452   2.552   3.802  1.3312 -0.5723  0.8576
 2660SOL    MW410715   4.469   2.482   3.753  0.4678 -0.0424 -0.2108
 2661SOL     OW10716   2.918   2.370   4.492  0.2841  0.7472 -0.5922
 2661SOL    HW210717   2.913   2.465   4.479  1.6600  1.2725  2.3993
 2661SOL    HW310718   2.826   2.343   4.502  0.0440  2.2481  1.6060
 2661SOL    MW410719   2.905   2.379   4.491  0.4337  1.0147  0.0930
 2662SOL     OW10720   1.754   0.365   4.131  0.0069 -0.1860  0.4277
 2662SOL    HW210721   1.686   0.299   4.143  0.5600 -0.7229  0.6165
 2662SOL    HW310722   1.763   0.372   4.035 -2.3099  1.9569  0.3308
 2662SOL    MW410723   1.747   0.357   4.120 -0.2258  0.0259  0.4396
 2663SOL     OW10724   1.027   4.506   4.213 -0.3328  0.0583 -0.0666
 2663SOL    HW210725   1.108   4.466   4.181 -1.0823  1.0696 -3.4490
 2663SOL    HW310726   0.959   4.442   4.194 -0.6945  0.3297  0.2923
 2663SOL    MW410727   1.028   4.492   4.206 -0.4793  0.2270 -0.4659
 2664SOL     OW10728   4.107   1.964   4.038  0.1920 -0.3743  0.3992
 2664SOL    HW210729   4.199   1.939   4.043  0.3795  0.2257  0.0660
 2664SOL    HW310730   4.082   1.947   3.947  0.0022 -0.4399  0.4629
 2664SOL    MW410731   4.116   1.959   4.027  0.1917 -0.3037  0.3638
 2665SOL     OW10732   1.485   0.592   4.474  0.5313 -0.0669  0.1861
 2665SOL    HW210733   1.481   0.686   4.494  0.0407 -0.1690  0.5812
 2665SOL    HW310734   1.441   0.584   4.389  0.5480  0.0611  0.1651
 2665SOL    MW410735   1.479   0.603   4.465  0.4686 -0.0635  0.2351
 2666SOL     OW10736   2.657   2.437   3.723  0.5538  0.2067 -0.4006
 2666SOL    HW210737   2.734   2.386   3.749  1.0973  1.0541 -0.3105
 2666SOL    HW310738   2.670   2.521   3.766  0.2864  0.8371 -1.5406
 2666SOL    MW410739   2.669   2.441   3.732  0.5903  0.4015 -0.5393
 2667SOL     OW10740   0.304   2.491   4.375  0.1368  0.4016 -0.0777
 2667SOL    HW210741   0.212   2.495   4.403 -0.3173  1.2989 -1.6650
 2667SOL    HW310742   0.350   2.547   4.438 -0.0828 -1.5509  1.8725
 2667SOL    MW410743   0.298   2.499   4.387  0.0479  0.2623 -0.0300
 2668SOL     OW10744   2.720   0.871   4.220  0.1798 -0.0086 -0.1329
 2668SOL    HW210745   2.654   0.809   4.189  0.5709 -0.9331  0.8265
 2668SOL    HW310746   2.727   0.852   4.314  0.6278  1.1956  0.0801
 2668SOL    MW410747   2.712   0.860   4.229  0.2906  0.0284  0.0219
 2669SOL     OW10748   1.519   0.027   4.524  0.1931 -0.1227  0.2332
 2669SOL    HW210749   1.495   0.118   4.503 -1.7130 -0.5655  0.4235
 2669SOL    HW310750   1.464  -0.026   4.466  1.9805 -1.1686 -0.5695
 2669SOL    MW410751   1.509   0.032   4.513  0.1775 -0.3191  0.1526
 2670SOL     OW10752   3.136   3.935   5.015  0.3610  0.4933  0.2439
 2670SOL    HW210753   3.225   3.920   4.982 -0.2086  1.1888 -1.6524
 2670SOL    HW310754   3.108   3.848   5.044  1.5841  0.2239  0.6683
 2670SOL    MW410755   3.144   3.921   5.014  0.4473  0.5496  0.0501
 2671SOL     OW10756   2.884   2.338   3.838 -0.1423  0.1207 -0.9809
 2671SOL    HW210757   2.873   2.379   3.924  0.2689  0.5478 -1.1320
 2671SOL    HW310758   2.955   2.386   3.797 -0.6342  0.2029 -1.7466
 2671SOL    MW410759   2.892   2.350   3.844 -0.1528  0.1881 -1.1015
 2672SOL     OW10760   3.797   3.585   4.267 -0.1692  0.2343  0.0490
 2672SOL    HW210761   3.796   3.672   4.227  0.4121  0.2309  0.0182
 2672SOL    HW310762   3.864   3.537   4.218  0.6924  0.2949  1.1412
 2672SOL    MW410763   3.806   3.590   4.255  0.0210  0.2418  0.1888
 2673SOL     OW10764   4.472   1.935   3.803 -0.5346  0.1788  0.3732
 2673SOL    HW210765   4.434   1.927   3.890 -0.1362 -1.8646  0.3842
 2673SOL    HW310766   4.418   2.001   3.759 -1.5051  0.3228  1.7429
 2673SOL    MW410767   4.460   1.943   3.809 -0.6099 -0.0719  0.5553
 2674SOL     OW10768   0.464   2.660   4.168  0.1414 -0.2822  0.0052
 2674SOL    HW210769   0.381   2.690   4.207 -0.2470 -0.2191 -0.8467
 2674SOL    HW310770   0.469   2.567   4.191  0.5106  0.0262  1.2175
 2674SOL    MW410771   0.453   2.652   4.176  0.1389 -0.2332  0.0534
 2675SOL     OW10772   0.129   4.455   4.578  0.1402 -0.0908 -0.3278
 2675SOL    HW210773   0.224   4.447   4.569  0.1673  0.0764 -0.1862
 2675SOL    HW310774   0.113   4.549   4.582  0.0762 -0.1458  0.8337
 2675SOL    MW410775   0.139   4.467   4.577  0.1353 -0.0768 -0.1559
 2676SOL     OW10776   0.172   4.410   4.308 -0.2674  0.4516 -0.1841
 2676SOL    HW210777   0.104   4.358   4.266  0.0578 -0.8284  0.8141
 2676SOL    HW310778   0.139   4.423   4.398  0.7985 -0.1972  0.3077
 2676SOL    MW410779   0.159   4.405   4.315 -0.0838  0.1974  0.0124
 2677SOL     OW10780   2.702   1.148   3.895  0.2815  0.5181 -0.4568
 2677SOL    HW210781   2.701   1.052   3.889  1.7812  0.4655 -0.0491
 2677SOL    HW310782   2.717   1.166   3.988 -1.1209  1.1712 -0.3409
 2677SOL    MW410783   2.704   1.137   3.907  0.2944  0.5974 -0.3877
 2678SOL     OW10784   0.692   3.082   3.877  0.5599 -0.0076 -0.0043
 2678SOL    HW210785   0.687   2.992   3.845  0.7378  0.0736 -0.2637
 2678SOL    HW310786   0.757   3.124   3.821 -0.7070  0.7230 -0.9603
 2678SOL    MW410787   0.700   3.076   3.865  0.4163  0.0997 -0.1650
 2679SOL     OW10788   2.014   3.545   4.205 -0.1076 -0.1600  0.2421
 2679SOL    HW210789   2.026   3.518   4.296 -1.2750 -0.6330  0.2664
 2679SOL    HW310790   2.098   3.527   4.164 -0.1726 -1.8258  0.7736
 2679SOL    MW410791   2.027   3.539   4.212 -0.2701 -0.4423  0.3157
 2680SOL     OW10792   2.256   3.943   4.513 -0.1268 -0.1955 -0.3076
 2680SOL    HW210793   2.345   3.906   4.520 -0.1706  0.0325  1.5892
 2680SOL    HW310794   2.268   4.037   4.526 -0.7053 -0.2095  0.2890
 2680SOL    MW410795   2.270   3.950   4.515 -0.2089 -0.1671  0.0215
 2681SOL     OW10796   0.682   1.242   4.280  0.0589 -0.0713 -0.1795
 2681SOL    HW210797   0.742   1.247   4.354  0.0652  1.4257 -0.2708
 2681SOL    HW310798   0.702   1.320   4.227  0.0473 -1.1162 -1.7501
 2681SOL    MW410799   0.692   1.253   4.283  0.0582 -0.0117 -0.3986
 2682SOL     OW10800   1.683   1.031   4.447 -0.3718  0.3377 -0.0854
 2682SOL    HW210801   1.767   1.033   4.493 -0.9261 -1.2667  1.0596
 2682SOL    HW310802   1.702   0.987   4.364  0.0427  0.4955 -0.0714
 2682SOL    MW410803   1.697   1.025   4.443 -0.3902  0.1469  0.0677
 2683SOL     OW10804   4.111   3.995   4.510 -0.2721 -0.3255 -0.3583
 2683SOL    HW210805   4.088   4.081   4.545 -2.5418 -0.7154 -0.8219
 2683SOL    HW310806   4.052   3.982   4.436  1.4573 -1.4074 -1.5893
 2683SOL    MW410807   4.100   4.004   4.505 -0.3438 -0.5198 -0.5817
 2684SOL     OW10808   4.467   3.174   4.249 -0.2173 -0.1632 -0.1876
 2684SOL    HW210809   4.394   3.119   4.218  1.0284 -2.2952  0.5290
 2684SOL    HW310810   4.545   3.133   4.210  0.8706  0.2482  1.5449
 2684SOL    MW410811   4.468   3.161   4.240  0.0906 -0.3901  0.1359
 2685SOL     OW10812   1.933   4.195   4.254  0.5990 -0.0541 -0.1415
 2685SOL    HW210813   1.922   4.230   4.343  1.4986 -2.0915  0.8057
 2685SOL    HW310814   1.872   4.246   4.201 -1.1041  0.1748  1.9267
 2685SOL    MW410815   1.923   4.206   4.259  0.4930 -0.2928  0.2565
 2686SOL     OW10816   1.147   3.136   4.643 -0.1864  0.2866 -0.3280
 2686SOL    HW210817   1.094   3.076   4.591  1.0174 -1.3330  0.2658
 2686SOL    HW310818   1.084   3.180   4.700 -1.1035 -0.3591 -0.8295
 2686SOL    MW410819   1.131   3.134   4.644 -0.1487 -0.0124 -0.3161
 2687SOL     OW10820   0.580   0.581   4.679 -0.5089 -0.2534 -0.2365
 2687SOL    HW210821   0.675   0.584   4.693 -0.5470 -1.1177  0.2163
 2687SOL    HW310822   0.561   0.661   4.630  0.4294  0.0132 -0.1791
 2687SOL    MW410823   0.590   0.592   4.675 -0.3902 -0.3323 -0.1693
 2688SOL     OW10824   0.435   2.586   4.612 -0.0906 -0.0810 -0.0054
 2688SOL    HW210825   0.362   2.545   4.659 -1.2571 -0.2205 -1.8935
 2688SOL    HW310826   0.408   2.678   4.602  0.8786  0.3241  0.9857
 2688SOL    MW410827   0.422   2.593   4.617 -0.1167 -0.0463 -0.1240
 2689SOL     OW10828   3.393   0.262   4.516  0.1375 -0.5561 -0.6262
 2689SOL    HW210829   3.475   0.292   4.554  1.1742  0.1703 -3.3128
 2689SOL    HW310830   3.326   0.296   4.575  1.7114 -0.6979  1.3133
 2689SOL    MW410831   3.395   0.271   4.529  0.4821 -0.4789 -0.7248
 2690SOL     OW10832   1.502   0.316   4.531 -0.1585  0.4773 -0.4190
 2690SOL    HW210833   1.499   0.398   4.481 -0.8440  1.4099  1.1199
 2690SOL    HW310834   1.414   0.306   4.567  0.6237  0.4346  1.5433
 2690SOL    MW410835   1.490   0.326   4.529 -0.1457  0.5947  0.0424
 2691SOL     OW10836   3.159   4.000   4.217 -0.6464 -0.2268  0.3499
 2691SOL    HW210837   3.074   3.974   4.183 -0.6808  1.0653 -0.5837
 2691SOL    HW310838   3.153   3.983   4.311 -1.8300 -0.4294  0.2426
 2691SOL    MW410839   3.147   3.994   4.225 -0.8070 -0.0830  0.2122
 2692SOL     OW10840   4.451   3.205   3.774  0.3886  0.1927 -0.4523
 2692SOL    HW210841   4.466   3.292   3.810 -0.0046  0.5013 -1.0285
 2692SOL    HW310842   4.467   3.214   3.680 -0.2423 -0.2120 -0.6027
 2692SOL    MW410843   4.455   3.217   3.766  0.2537  0.1800 -0.5481
 2693SOL     OW10844   1.620   2.618   4.449 -0.1161  0.1943  0.1665
 2693SOL    HW210845   1.668   2.661   4.519  0.0755  0.5423 -0.1765
 2693SOL    HW310846   1.687   2.568   4.401 -0.3999 -0.8434  0.8207
 2693SOL    MW410847   1.635   2.617   4.452 -0.1281  0.1030  0.2074
 2694SOL     OW10848   2.261   3.967   4.224  0.5432  0.4274 -0.0113
 2694SOL    HW210849   2.199   3.899   4.199  1.4838 -0.1083 -0.9620
 2694SOL    HW310850   2.256   3.972   4.319 -0.8281  0.2786 -0.0760
 2694SOL    MW410851   2.252   3.959   4.233  0.4864  0.3369 -0.1450
 2695SOL     OW10852   3.925   1.462   4.514  0.1160  0.5973  0.1852
 2695SOL    HW210853   3.964   1.483   4.429 -2.1211  1.7364 -0.6006
 2695SOL    HW310854   3.982   1.505   4.578  0.4148  1.8158 -0.8893
 2695SOL    MW410855   3.938   1.470   4.511 -0.1397  0.9084 -0.0596
 2696SOL     OW10856   2.423   0.858   4.464  0.0765  0.1094 -0.2899
 2696SOL    HW210857   2.385   0.792   4.522 -0.7999 -0.3565 -1.3597
 2696SOL    HW310858   2.392   0.941   4.498 -0.4695 -0.1647 -0.1100
 2696SOL    MW410859   2.414   0.860   4.476 -0.1113  0.0118 -0.4077
 2697SOL     OW10860   2.498   1.313   4.551  0.0637  0.0992 -0.1496
 2697SOL    HW210861   2.475   1.397   4.589 -0.2212  0.6407 -1.4881
 2697SOL    HW310862   2.590   1.301   4.573  0.3722  1.2248 -0.7846
 2697SOL    MW410863   2.507   1.322   4.559  0.0668  0.3191 -0.4096
 2698SOL     OW10864   1.630   2.320   4.171  0.3893 -0.1491 -0.0139
 2698SOL    HW210865   1.681   2.391   4.210 -0.1489  0.8126 -1.0470
 2698SOL    HW310866   1.552   2.314   4.227  0.2473  0.3331 -0.1604
 2698SOL    MW410867   1.626   2.329   4.184  0.2995  0.0415 -0.1698
 2699SOL     OW10868   1.815   3.843   4.524 -0.5297 -0.5516  0.4156
 2699SOL    HW210869   1.746   3.777   4.515 -0.7108 -0.4023  0.6744
 2699SOL    HW310870   1.888   3.797   4.565  0.4260 -1.3187 -2.0473
 2699SOL    MW410871   1.815   3.828   4.528 -0.4275 -0.6328  0.1245
 2700SOL     OW10872   2.716   0.830   4.482 -0.1602  0.0156  0.1084
 2700SOL    HW210873   2.715   0.735   4.490  0.5740 -0.3951 -3.7342
 2700SOL    HW310874   2.624   0.856   4.492 -0.5893 -1.2834 -0.3254
 2700SOL    MW410875   2.704   0.821   4.484 -0.1202 -0.2100 -0.4554
 2701SOL     OW10876   3.346   3.860   4.855  0.2198 -0.1341  0.9949
 2701SOL    HW210877   3.424   3.914   4.838  0.0084 -0.1614 -0.1333
 2701SOL    HW310878   3.379   3.771   4.862  0.3938 -0.0400  1.3753
 2701SOL    MW410879   3.361   3.856   4.853  0.2148 -0.1252  0.8955
 2702SOL     OW10880   3.105   0.109   4.329  0.0717  0.1160 -0.2051
 2702SOL    HW210881   3.076   0.195   4.299 -0.9534 -0.2658 -0.3371
 2702SOL    HW310882   3.052   0.092   4.407  1.6413  0.4407  0.9561
 2702SOL    MW410883   3.094   0.118   4.336  0.1435  0.1085 -0.0696
 2703SOL     OW10884   0.916   1.286   4.468  0.3811 -0.2841 -0.1266
 2703SOL    HW210885   0.970   1.223   4.516 -0.1761 -1.1547 -0.6235
 2703SOL    HW310886   0.963   1.301   4.386 -0.5467 -1.7029 -0.9315
 2703SOL    MW410887   0.929   1.280   4.464  0.1852 -0.5863 -0.2985
 2704SOL     OW10888   0.180   2.333   3.847 -0.0705 -0.0363 -0.3560
 2704SOL    HW210889   0.186   2.237   3.838 -0.7794 -0.2066  0.9692
 2704SOL    HW310890   0.169   2.348   3.940 -0.2815  1.3392 -0.5944
 2704SOL    MW410891   0.179   2.322   3.858 -0.1919  0.1230 -0.2127
 2705SOL     OW10892   2.961   4.133   4.966 -0.0470  0.3260  0.5288
 2705SOL    HW210893   2.945   4.172   5.052 -0.0578 -0.5741  0.9335
 2705SOL    HW310894   3.019   4.059   4.982 -0.8566 -0.4638 -0.0989
 2705SOL    MW410895   2.966   4.129   4.979 -0.1552  0.1030  0.4992
 2706SOL     OW10896   2.664   3.205   4.233  0.2218  0.2814 -0.3523
 2706SOL    HW210897   2.739   3.158   4.198 -0.8424 -1.9387  0.2918
 2706SOL    HW310898   2.588   3.167   4.188 -0.5831  2.2013 -0.6907
 2706SOL    MW410899   2.664   3.194   4.223 -0.0248  0.2420 -0.3123
 2707SOL     OW10900   0.415   1.140   4.198 -0.0750  0.1087 -0.2386
 2707SOL    HW210901   0.411   1.127   4.103  1.9848 -1.4626 -0.1441
 2707SOL    HW310902   0.497   1.187   4.212 -0.3385  0.2632  0.7636
 2707SOL    MW410903   0.425   1.144   4.187  0.1620 -0.0783 -0.0939
 2708SOL     OW10904   1.293   4.385   4.141  1.0056  0.3579 -0.2373
 2708SOL    HW210905   1.300   4.302   4.189 -0.5218  1.1167  1.3747
 2708SOL    HW310906   1.326   4.450   4.203 -0.8486  1.3388 -0.2545
 2708SOL    MW410907   1.299   4.382   4.156  0.5594  0.5875 -0.0272
 2709SOL     OW10908   1.144   0.642   4.562  0.0197  0.3818  0.2681
 2709SOL    HW210909   1.188   0.621   4.645  1.3876 -1.3721 -0.8400
 2709SOL    HW310910   1.155   0.736   4.552  1.7897  0.2911  1.0468
 2709SOL    MW410911   1.151   0.651   4.572  0.4337  0.1385  0.2241
 2710SOL     OW10912   1.615   3.992   4.145  0.7897 -0.0553 -0.4358
 2710SOL    HW210913   1.595   4.076   4.185 -0.0356 -0.4566  0.0094
 2710SOL    HW310914   1.703   3.971   4.176 -0.0560 -0.6416  1.6888
 2710SOL    MW410915   1.624   4.000   4.154  0.5692 -0.1855 -0.0968
 2711SOL     OW10916   3.249   1.922   4.091 -0.1105  0.4330 -0.6537
 2711SOL    HW210917   3.238   1.843   4.145 -0.0808  0.6619 -0.3136
 2711SOL    HW310918   3.336   1.954   4.113 -0.4440  1.0196 -0.1875
 2711SOL    MW410919   3.259   1.915   4.101 -0.1502  0.5409 -0.5474
 2712SOL     OW10920   1.365   1.147   4.160 -0.0767 -0.4943 -0.0267
 2712SOL    HW210921   1.283   1.190   4.183 -0.0521  0.6006 -1.8846
 2712SOL    HW310922   1.429   1.182   4.222 -0.7954 -0.6110  0.7898
 2712SOL    MW410923   1.362   1.157   4.171 -0.1683 -0.3651 -0.1636
 2713SOL     OW10924   3.118   4.280   4.302  0.2022  0.6003 -0.2627
 2713SOL    HW210925   3.118   4.189   4.273  0.8282  0.9800 -1.4914
 2713SOL    HW310926   3.057   4.282   4.376  1.5859 -1.1647  0.9423
 2713SOL    MW410927   3.110   4.269   4.308  0.4673  0.4177 -0.2661
 2714SOL     OW10928   3.648   1.768   4.470  0.1865  0.2539 -0.1243
 2714SOL    HW210929   3.739   1.797   4.471 -0.0912  1.4002 -2.8107
 2714SOL    HW310930   3.599   1.844   4.501  0.0926 -0.1763  0.7882
 2714SOL    MW410931   3.654   1.782   4.474  0.1376  0.3484 -0.3581
 2715SOL     OW10932   1.241   3.917   4.718 -0.2082  0.2349  0.1770
 2715SOL    HW210933   1.282   3.851   4.662 -2.1149 -0.0563 -0.9095
 2715SOL    HW310934   1.218   3.869   4.798 -0.5578 -0.1366 -0.1483
 2715SOL    MW410935   1.243   3.902   4.721 -0.5059  0.1473 -0.0091
 2716SOL     OW10936   0.193   0.720   4.105  0.6453 -0.3137  0.0304
 2716SOL    HW210937   0.119   0.776   4.127 -0.0751 -1.0952 -0.3791
 2716SOL    HW310938   0.269   0.766   4.140 -0.1332  0.0154  1.3351
 2716SOL    MW410939   0.193   0.733   4.113  0.4475 -0.3733  0.1483
 2717SOL     OW10940   1.163   0.761   3.803 -0.4491  0.1029  0.2453
 2717SOL    HW210941   1.179   0.669   3.781 -0.8950  0.3218 -1.0235
 2717SOL    HW310942   1.164   0.763   3.899  0.0115 -1.1412  0.2727
 2717SOL    MW410943   1.165   0.749   3.813 -0.4472 -0.0323  0.0815
 2718SOL     OW10944   2.325   4.204   4.545  0.0268 -0.3968  0.4201
 2718SOL    HW210945   2.311   4.284   4.495 -0.7821 -0.2716  0.8424
 2718SOL    HW310946   2.420   4.193   4.546  0.0494 -0.5668 -1.3994
 2718SOL    MW410947   2.336   4.213   4.539 -0.0768 -0.4034  0.2360
 2719SOL     OW10948   0.592   3.639   4.242  0.0242  0.2754 -0.1916
 2719SOL    HW210949   0.674   3.599   4.214  0.2425  1.3514 -1.1382
 2719SOL    HW310950   0.524   3.576   4.217  0.4963 -0.2342 -0.1835
 2719SOL    MW410951   0.593   3.625   4.235  0.1153  0.3498 -0.3157
 2720SOL     OW10952   0.796   0.160   4.330  0.6605  0.0086 -0.1820
 2720SOL    HW210953   0.745   0.093   4.283 -0.6516  1.0083 -0.2112
 2720SOL    HW310954   0.820   0.119   4.413  0.4250 -0.7307 -0.4770
 2720SOL    MW410955   0.793   0.146   4.335  0.4563  0.0430 -0.2246
 2721SOL     OW10956   3.808   1.444   4.149  0.0952  0.1106  0.2592
 2721SOL    HW210957   3.812   1.467   4.056 -1.2820 -1.2357 -0.1595
 2721SOL    HW310958   3.748   1.508   4.187  0.1036  0.2258  0.0781
 2721SOL    MW410959   3.801   1.456   4.142 -0.0851 -0.0519  0.1802
 2722SOL     OW10960   0.015   1.664   3.739  0.3953  0.2909  0.5368
 2722SOL    HW210961   0.014   1.665   3.644 -3.1794 -0.4326  0.4848
 2722SOL    HW310962  -0.004   1.755   3.764  0.9958  0.4082  0.5891
 2722SOL    MW410963   0.012   1.676   3.730  0.0029  0.2109  0.5372
 2723SOL     OW10964   3.206   3.941   4.500  0.0597  0.4917  0.4940
 2723SOL    HW210965   3.149   3.903   4.567 -2.3262  2.4332 -0.3650
 2723SOL    HW310966   3.221   4.030   4.530  0.4934  0.7992 -0.6189
 2723SOL    MW410967   3.201   3.947   4.513 -0.1979  0.7887  0.2332
 2724SOL     OW10968   3.092   1.135   4.210  0.4054 -0.6283  0.3118
 2724SOL    HW210969   3.098   1.041   4.230  1.5911 -1.2219 -2.5653
 2724SOL    HW310970   3.181   1.168   4.226  0.5776 -0.4891 -0.8685
 2724SOL    MW410971   3.105   1.127   4.215  0.5846 -0.6882 -0.2236
 2725SOL     OW10972   0.168   2.178   4.603 -0.1658 -0.3017 -0.8121
 2725SOL    HW210973   0.172   2.240   4.675  0.2165 -1.1296 -0.1218
 2725SOL    HW310974   0.092   2.206   4.552  0.0350  0.7604 -0.5358
 2725SOL    MW410975   0.158   2.190   4.605 -0.0889 -0.2708 -0.6847
 2726SOL     OW10976   3.845   1.522   3.888  0.0863 -0.0929  0.3930
 2726SOL    HW210977   3.765   1.567   3.859  0.2341 -0.4396 -0.5874
 2726SOL    HW310978   3.849   1.445   3.832  0.3180 -0.8562  1.4477
 2726SOL    MW410979   3.835   1.518   3.877  0.1361 -0.2394  0.4027
 2727SOL     OW10980   0.077   3.589   4.821 -0.1531 -0.1980  0.0918
 2727SOL    HW210981   0.004   3.578   4.883  1.5358 -1.5633  1.9089
 2727SOL    HW310982   0.086   3.503   4.780 -0.1663  0.2443 -0.8640
 2727SOL    MW410983   0.068   3.576   4.824  0.0679 -0.3195  0.2050
 2728SOL     OW10984   3.316   2.371   4.195  0.2276 -0.4189  0.6957
 2728SOL    HW210985   3.242   2.314   4.218  1.0328 -1.7957 -0.0567
 2728SOL    HW310986   3.394   2.319   4.213  0.9558 -0.6260 -2.5836
 2728SOL    MW410987   3.316   2.357   4.200  0.4299 -0.6280  0.1636
 2729SOL     OW10988   3.357   4.411   4.204  0.0039  0.0295  0.0916
 2729SOL    HW210989   3.342   4.504   4.186 -0.3337  0.0084  0.2626
 2729SOL    HW310990   3.269   4.375   4.217  0.0769 -0.4675 -0.7627
 2729SOL    MW410991   3.343   4.419   4.203 -0.0312 -0.0386  0.0010
 2730SOL     OW10992   4.288   1.274   3.783  0.1173 -0.3576  0.3204
 2730SOL    HW210993   4.280   1.363   3.815 -0.1915 -0.1925 -0.2161
 2730SOL    HW310994   4.272   1.280   3.689 -1.5823 -1.2031  0.5174
 2730SOL    MW410995   4.284   1.286   3.775 -0.1488 -0.4474  0.2756
 2731SOL     OW10996   0.179   3.617   4.497  0.7198  0.4706 -0.0621
 2731SOL    HW210997   0.110   3.674   4.532  0.7771 -0.0057  0.8363
 2731SOL    HW310998   0.260   3.655   4.531  0.9955  1.6101 -1.9152
 2731SOL    MW410999   0.181   3.630   4.506  0.7638  0.5584 -0.1874
 2732SOL     OW11000   4.281   4.647   4.184  0.2365 -0.0434 -0.0261
 2732SOL    HW211001   4.196   4.684   4.205  0.9942  1.3646  0.6629
 2732SOL    HW311002   4.271   4.553   4.195 -1.4002  0.0581 -0.6086
 2732SOL    MW411003   4.269   4.640   4.188  0.1206  0.1554 -0.0119
 2733SOL     OW11004   3.356   2.783   4.529 -0.1417  0.1329  0.1390
 2733SOL    HW211005   3.318   2.857   4.482  1.3684 -0.1987 -1.6848
 2733SOL    HW311006   3.347   2.709   4.468 -2.2113 -1.3536  2.1784
 2733SOL    MW411007   3.350   2.783   4.515 -0.2155 -0.1068  0.1678
 2734SOL     OW11008   1.063   2.099   4.393 -0.1546 -0.5570  0.2235
 2734SOL    HW211009   1.007   2.062   4.461 -0.4185 -1.1806 -0.3350
 2734SOL    HW311010   1.009   2.165   4.350 -0.3848 -0.9915 -0.1576
 2734SOL    MW411011   1.048   2.103   4.396 -0.2198 -0.6969  0.1001
 2735SOL     OW11012   0.858   0.048   4.571 -0.6336 -0.2061 -0.1092
 2735SOL    HW211013   0.924  -0.022   4.568 -1.0692 -0.5955 -2.9641
 2735SOL    HW311014   0.907   0.128   4.588  0.1792 -0.8920  0.7896
 2735SOL    MW411015   0.873   0.049   4.573 -0.5838 -0.3480 -0.3672
 2736SOL     OW11016   3.075   2.638   4.096 -0.2589 -0.1200  0.0388
 2736SOL    HW211017   3.112   2.660   4.010 -1.1815 -0.5166 -0.4617
 2736SOL    HW311018   3.020   2.562   4.080  0.0236 -0.5577  1.1004
 2736SOL    MW411019   3.073   2.631   4.083 -0.3433 -0.2301  0.1125
 2737SOL     OW11020   3.105   2.681   3.820  0.1530 -0.3204 -0.1307
 2737SOL    HW211021   3.178   2.739   3.802  0.3018 -0.4125  0.1657
 2737SOL    HW311022   3.027   2.735   3.806  0.3040  0.2449  1.0975
 2737SOL    MW411023   3.104   2.695   3.816  0.1924 -0.2580  0.0706
 2738SOL     OW11024   0.363   0.088   4.250  0.1639  0.0302 -0.6862
 2738SOL    HW211025   0.377   0.166   4.197 -1.5048  0.1709 -0.9307
 2738SOL    HW311026   0.283   0.049   4.216  0.3880 -1.2004  0.1418
 2738SOL    MW411027   0.354   0.093   4.239 -0.0267 -0.1136 -0.6089
 2739SOL     OW11028   4.240   3.312   4.576 -0.2568  0.1172  0.1394
 2739SOL    HW211029   4.242   3.309   4.671 -0.7511 -0.6853  0.1318
 2739SOL    HW311030   4.310   3.253   4.549  1.5203  2.2484  0.0067
 2739SOL    MW411031   4.249   3.304   4.585 -0.0868  0.2928  0.1211
 2740SOL     OW11032   2.233   4.643   4.327 -0.0666  0.1964  0.2059
 2740SOL    HW211033   2.185   4.658   4.409  1.2885  0.6558  0.9302
 2740SOL    HW311034   2.262   4.552   4.332 -0.6677 -0.0153 -0.1314
 2740SOL    MW411035   2.230   4.633   4.339  0.0329  0.2289  0.2570
 2741SOL     OW11036   3.357   1.190   4.249 -0.1004 -0.0556  0.6161
 2741SOL    HW211037   3.392   1.279   4.252  1.3540 -0.5383 -1.3387
 2741SOL    HW311038   3.357   1.162   4.340 -1.1625  2.1440  1.3495
 2741SOL    MW411039   3.362   1.198   4.261 -0.0486  0.1709  0.4549
 2742SOL     OW11040   3.801   3.858   3.867  0.2691 -0.0679 -0.1149
 2742SOL    HW211041   3.880   3.907   3.843  0.5500 -0.6505 -0.3787
 2742SOL    HW311042   3.810   3.844   3.961  1.3427 -1.6520 -0.4309
 2742SOL    MW411043   3.813   3.863   3.876  0.4480 -0.3538 -0.1915
 2743SOL     OW11044   0.194   3.609   4.228 -0.0776 -0.3190 -0.6565
 2743SOL    HW211045   0.193   3.611   4.323 -0.7500 -1.2273 -0.6381
 2743SOL    HW311046   0.212   3.700   4.202  0.4071 -0.1330  0.3278
 2743SOL    MW411047   0.196   3.621   4.237 -0.1024 -0.4144 -0.5245
 2744SOL     OW11048   1.274   1.319   4.531  0.5790 -0.3858 -0.1531
 2744SOL    HW211049   1.276   1.415   4.534  0.9617 -0.3821 -0.3824
 2744SOL    HW311050   1.363   1.295   4.503  0.8813 -0.8585  1.1915
 2744SOL    MW411051   1.286   1.329   4.528  0.6695 -0.4476 -0.0062
 2745SOL     OW11052   3.162   1.699   4.227  0.1454 -0.1121 -0.1948
 2745SOL    HW211053   3.165   1.696   4.323  0.1483 -1.9500 -0.2201
 2745SOL    HW311054   3.080   1.654   4.204 -0.2356  0.9859 -1.0414
 2745SOL    MW411055   3.152   1.693   4.237  0.0958 -0.2098 -0.3099
 2746SOL     OW11056   1.365   3.746   4.552 -0.3141 -0.3734 -0.1363
 2746SOL    HW211057   1.449   3.710   4.527 -0.0465 -0.7177  1.2075
 2746SOL    HW311058   1.312   3.742   4.472  1.0979  0.3358 -1.1224
 2746SOL    MW411059   1.369   3.741   4.538 -0.0925 -0.3254 -0.0887
 2747SOL     OW11060   0.875   2.673   4.181 -0.1976  0.0786  0.1867
 2747SOL    HW211061   0.829   2.596   4.217 -0.8243  0.6792  0.6786
 2747SOL    HW311062   0.946   2.688   4.244 -0.1998  0.0291  0.2017
 2747SOL    MW411063   0.879   2.665   4.194 -0.2806  0.1514  0.2537
 2748SOL     OW11064   0.814   1.005   4.158 -0.1269 -0.2881  0.1487
 2748SOL    HW211065   0.749   0.936   4.147 -0.9315  0.6712 -1.2943
 2748SOL    HW311066   0.764   1.081   4.187  0.7201 -0.2222  1.4725
 2748SOL    MW411067   0.799   1.005   4.160 -0.1212 -0.1528  0.1326
 2749SOL     OW11068   2.457   2.311   4.116  0.4996  0.3671  0.3286
 2749SOL    HW211069   2.367   2.331   4.140  0.8188 -0.9268  2.6634
 2749SOL    HW311070   2.456   2.310   4.020 -1.6946  1.4951  0.3012
 2749SOL    MW411071   2.445   2.314   4.106  0.2522  0.3452  0.6328
 2750SOL     OW11072   2.493   1.655   4.346 -0.0425 -0.3890  0.1724
 2750SOL    HW211073   2.440   1.734   4.344  0.7720  0.1503 -0.4556
 2750SOL    HW311074   2.445   1.592   4.293 -0.9501 -0.4906  1.0977
 2750SOL    MW411075   2.480   1.657   4.339 -0.0548 -0.3313  0.2117
 2751SOL     OW11076   3.309   1.837   4.583 -0.0556 -0.3799  0.0488
 2751SOL    HW211077   3.368   1.910   4.598 -1.5889  0.5132  2.0790
 2751SOL    HW311078   3.305   1.792   4.668  0.9959 -2.9454 -1.2122
 2751SOL    MW411079   3.316   1.840   4.596 -0.1194 -0.6006  0.1502
 2752SOL     OW11080   1.210   0.774   4.079  0.3155 -0.0416  0.1476
 2752SOL    HW211081   1.292   0.761   4.127 -0.2850 -0.4958  1.0407
 2752SOL    HW311082   1.173   0.855   4.115 -0.0281 -0.2640  0.2931
 2752SOL    MW411083   1.216   0.783   4.090  0.1907 -0.1309  0.2842
 2753SOL     OW11084   2.910   1.559   4.161  0.1442  0.0315 -0.1220
 2753SOL    HW211085   2.915   1.529   4.071  0.5673 -1.1834  0.2984
 2753SOL    HW311086   2.903   1.479   4.213 -0.3854  0.7307  0.9045
 2753SOL    MW411087   2.910   1.545   4.156  0.1299 -0.0366  0.0687
 2754SOL     OW11088   0.338   2.165   4.233 -0.1233  0.4200 -0.2531
 2754SOL    HW211089   0.280   2.231   4.195 -0.2749  0.0637 -0.6434
 2754SOL    HW311090   0.367   2.203   4.317 -0.0611  1.0591 -0.5626
 2754SOL    MW411091   0.334   2.179   4.239 -0.1350  0.4575 -0.3457
 2755SOL     OW11092   1.358   0.176   4.285  0.1530 -0.1006 -0.3222
 2755SOL    HW211093   1.264   0.159   4.273 -0.0582 -0.6496  1.9621
 2755SOL    HW311094   1.365   0.271   4.284 -0.3515 -0.0627 -0.9445
 2755SOL    MW411095   1.346   0.186   4.283  0.0588 -0.1680 -0.1030
 2756SOL     OW11096   2.274   3.467   4.115  0.0158 -0.0077  0.1757
 2756SOL    HW211097   2.334   3.526   4.159  0.7278  0.1185 -0.9550
 2756SOL    HW311098   2.271   3.389   4.171  0.5165  0.3486  0.6976
 2756SOL    MW411099   2.281   3.464   4.129  0.1757  0.0560  0.0954
 2757SOL     OW11100   4.072   1.661   3.760 -0.3484  0.5146 -0.2241
 2757SOL    HW211101   4.010   1.613   3.816 -0.3551 -0.6845 -1.2379
 2757SOL    HW311102   4.158   1.627   3.785 -0.2346  0.9576 -0.0048
 2757SOL    MW411103   4.075   1.650   3.771 -0.3333  0.4148 -0.3293
 2758SOL     OW11104   0.036   0.927   4.465  0.0973  0.1909  0.0041
 2758SOL    HW211105   0.044   1.023   4.468  1.5893  0.1263 -1.4994
 2758SOL    HW311106  -0.057   0.911   4.484  0.1298  1.8442  1.7331
 2758SOL    MW411107   0.025   0.938   4.468  0.2985  0.4005  0.0343
 2759SOL     OW11108   1.777   1.964   3.875 -0.1035 -0.3958 -0.5053
 2759SOL    HW211109   1.695   1.997   3.838 -0.2807 -0.2594  0.0046
 2759SOL    HW311110   1.781   2.003   3.963  0.0879 -1.0728 -0.2097
 2759SOL    MW411111   1.767   1.974   3.882 -0.1016 -0.4671 -0.3994
 2760SOL     OW11112   0.980   0.610   4.156 -0.0192  0.2879 -0.3188
 2760SOL    HW211113   1.045   0.678   4.138 -0.0645  0.3246 -0.3423
 2760SOL    HW311114   0.962   0.570   4.070 -2.6985  2.6555 -0.9355
 2760SOL    MW411115   0.986   0.613   4.142 -0.3786  0.6051 -0.4034
 2761SOL     OW11116   0.870   4.051   4.217 -0.1493  0.3982  0.2339
 2761SOL    HW211117   0.882   4.032   4.310  0.5071 -0.8576 -0.1041
 2761SOL    HW311118   0.791   4.003   4.193 -0.4115  0.8541  0.1716
 2761SOL    MW411119   0.861   4.042   4.226 -0.0973  0.2933  0.1802
 2762SOL     OW11120   2.927   4.640   3.864  0.2095  0.8381  0.5162
 2762SOL    HW211121   2.934   4.643   3.960  2.3369 -0.7211  0.4479
 2762SOL    HW311122   2.986   4.709   3.833  1.3514 -0.2088  0.3069
 2762SOL    MW411123   2.936   4.650   3.873  0.6409  0.4950  0.4797
 2763SOL     OW11124   1.294   4.139   4.274 -0.6061 -0.3011 -0.3280
 2763SOL    HW211125   1.247   4.166   4.353  0.0401 -1.2713  0.4037
 2763SOL    HW311126   1.236   4.077   4.231 -0.3261 -0.9365  0.1937
 2763SOL    MW411127   1.280   4.134   4.279 -0.4838 -0.5126 -0.1626
 2764SOL     OW11128   3.618   1.646   4.232 -0.4321  0.0625  0.2814
 2764SOL    HW211129   3.533   1.601   4.234 -0.3702 -0.1986 -2.3238
 2764SOL    HW311130   3.622   1.690   4.317 -2.0732 -1.9237  1.4588
 2764SOL    MW411131   3.607   1.646   4.244 -0.6406 -0.2338  0.0930
 2765SOL     OW11132   4.478   4.271   4.156 -0.2685 -0.7203 -0.0729
 2765SOL    HW211133   4.476   4.182   4.189  2.2490 -1.2982 -1.3439
 2765SOL    HW311134   4.470   4.262   4.061  0.4525  0.3650 -0.2561
 2765SOL    MW411135   4.477   4.258   4.147  0.1588 -0.6537 -0.2642
 2766SOL     OW11136   0.554   4.176   4.642  0.1176 -0.2589  0.8163
 2766SOL    HW211137   0.644   4.203   4.625  0.1986 -0.0207  1.5950
 2766SOL    HW311138   0.548   4.088   4.605  0.3044  0.1934 -0.3308
 2766SOL    MW411139   0.565   4.168   4.635  0.1531 -0.1683  0.7677
 2767SOL     OW11140   1.795   1.141   3.874 -0.3207  0.2739  0.6007
 2767SOL    HW211141   1.783   1.152   3.969  0.8301 -0.3729  0.8262
 2767SOL    HW311142   1.792   1.046   3.860  1.8348  0.2238  0.3199
 2767SOL    MW411143   1.793   1.130   3.885  0.1155  0.1820  0.5934
 2768SOL     OW11144   0.406   3.439   4.179 -0.0207  0.2215  0.7202
 2768SOL    HW211145   0.334   3.498   4.202 -0.5336 -0.1509  0.1046
 2768SOL    HW311146   0.410   3.442   4.084 -0.0059 -0.6690  0.6830
 2768SOL    MW411147   0.397   3.447   4.170 -0.0865  0.0551  0.6332
 2769SOL     OW11148   1.663   0.531   4.694  0.0173 -0.0484  0.9727
 2769SOL    HW211149   1.703   0.444   4.701 -0.9668 -0.4733  1.5068
 2769SOL    HW311150   1.591   0.519   4.632  2.6438  1.4509 -2.5435
 2769SOL    MW411151   1.659   0.518   4.687  0.2340  0.0934  0.5794
 2770SOL     OW11152   4.239   3.582   3.737  0.1075 -0.1541 -0.0241
 2770SOL    HW211153   4.311   3.544   3.788  0.2001  0.6385  0.4453
 2770SOL    HW311154   4.160   3.552   3.782  0.2125  2.3435  1.9449
 2770SOL    MW411155   4.238   3.573   3.750  0.1340  0.2799  0.2975
 2771SOL     OW11156   1.000   2.904   4.558 -0.3574  0.4775 -0.3004
 2771SOL    HW211157   1.043   2.848   4.493 -1.0201 -1.8028  1.1806
 2771SOL    HW311158   0.907   2.891   4.541 -0.5390 -0.4835  1.3744
 2771SOL    MW411159   0.994   2.895   4.547 -0.4686  0.0501  0.1159
 2772SOL     OW11160   1.995   0.275   4.240 -0.3651  0.3344 -0.5621
 2772SOL    HW211161   1.915   0.312   4.204 -0.3442 -0.2897 -1.2653
 2772SOL    HW311162   1.987   0.286   4.335 -0.7309  1.3643 -0.7081
 2772SOL    MW411163   1.984   0.281   4.248 -0.4106  0.3879 -0.6742
 2773SOL     OW11164   2.466   2.018   3.801  0.1358 -0.0068  0.2667
 2773SOL    HW211165   2.542   1.964   3.822 -0.0664 -0.6068 -0.5048
 2773SOL    HW311166   2.391   1.970   3.838 -0.0041 -0.0763 -0.1012
 2773SOL    MW411167   2.466   2.005   3.809  0.0908 -0.0951  0.1163
 2774SOL     OW11168   2.725   4.266   4.092  0.6155 -0.3199 -0.3312
 2774SOL    HW211169   2.726   4.178   4.130  0.0314 -0.8077 -1.4111
 2774SOL    HW311170   2.694   4.253   4.002 -0.2521  1.0789 -0.2570
 2774SOL    MW411171   2.721   4.253   4.085  0.4241 -0.2003 -0.4640
 2775SOL     OW11172   4.458   3.426   4.125 -0.4449 -0.0055 -0.0591
 2775SOL    HW211173   4.461   3.335   4.156  2.8970  0.0681 -0.0032
 2775SOL    HW311174   4.534   3.467   4.165 -1.8654  2.8571 -0.1529
 2775SOL    MW411175   4.468   3.419   4.135 -0.1912  0.3817 -0.0644
 2776SOL     OW11176   1.244   0.586   4.798 -0.1676  0.3428 -0.3423
 2776SOL    HW211177   1.327   0.631   4.812 -0.7385  1.2979 -0.0310
 2776SOL    HW311178   1.207   0.575   4.886 -0.4745  0.1211 -0.4972
 2776SOL    MW411179   1.250   0.590   4.811 -0.2834  0.4396 -0.3219
 2777SOL     OW11180   2.669   0.374   3.859 -0.1010 -0.1319  0.1996
 2777SOL    HW211181   2.638   0.370   3.950 -1.4912 -0.6503 -0.2820
 2777SOL    HW311182   2.676   0.282   3.833 -1.3762  0.0397 -0.7669
 2777SOL    MW411183   2.666   0.361   3.868 -0.4528 -0.1777  0.0083
 2778SOL     OW11184   0.169   1.298   4.243  0.1110  0.0451 -0.5356
 2778SOL    HW211185   0.255   1.257   4.233  0.8176  0.8839  1.8068
 2778SOL    HW311186   0.179   1.384   4.202 -0.1419 -0.5076 -1.7815
 2778SOL    MW411187   0.181   1.304   4.236  0.1708  0.0829 -0.3915
 2779SOL     OW11188   2.048   0.038   4.522  0.1379  0.3022 -0.2855
 2779SOL    HW211189   1.970  -0.014   4.540  0.5544 -0.1413  0.2498
 2779SOL    HW311190   2.017   0.129   4.523 -0.3746  0.1278 -0.1210
 2779SOL    MW411191   2.033   0.043   4.524  0.1249  0.2206 -0.1931
 2780SOL     OW11192   3.390   1.381   4.609  0.3907  0.2667 -0.0592
 2780SOL    HW211193   3.480   1.402   4.584  0.9029  0.4171  1.8217
 2780SOL    HW311194   3.370   1.442   4.680 -0.8729 -0.3855  0.1625
 2780SOL    MW411195   3.399   1.392   4.615  0.2913  0.2005  0.2179
 2781SOL     OW11196   2.126   1.881   4.150  0.4729  0.2929  0.0682
 2781SOL    HW211197   2.198   1.879   4.214 -0.8540  0.3196  1.5746
 2781SOL    HW311198   2.090   1.969   4.157  0.0789  0.1724 -0.4633
 2781SOL    MW411199   2.131   1.892   4.159  0.2460  0.2805  0.1960
 2782SOL     OW11200   1.264   1.942   3.815 -0.0925  0.2666  0.4413
 2782SOL    HW211201   1.355   1.967   3.800 -0.6100  1.2887 -1.1071
 2782SOL    HW311202   1.247   1.968   3.905  0.9641  0.6590  0.5341
 2782SOL    MW411203   1.273   1.949   3.825 -0.0213  0.4531  0.2491
 2783SOL     OW11204   3.474   3.876   4.511  0.1933  0.1191 -0.1136
 2783SOL    HW211205   3.500   3.950   4.567  1.4094  0.3381 -0.9486
 2783SOL    HW311206   3.381   3.891   4.494  0.6044  1.9502 -0.9474
 2783SOL    MW411207   3.465   3.888   4.516  0.4082  0.3896 -0.3338
 2784SOL     OW11208   3.125   0.878   4.309 -0.2952  0.1297 -0.2319
 2784SOL    HW211209   3.081   0.814   4.254  0.4712 -0.6649  0.0746
 2784SOL    HW311210   3.218   0.856   4.303 -0.1535  0.3589  0.9645
 2784SOL    MW411211   3.131   0.867   4.301 -0.1752  0.0551 -0.0339
 2785SOL     OW11212   1.259   1.599   4.521 -0.3140  0.0609  0.3704
 2785SOL    HW211213   1.303   1.678   4.554 -1.1970  1.0164 -0.6970
 2785SOL    HW311214   1.170   1.605   4.556 -0.5857 -0.0872 -0.2790
 2785SOL    MW411215   1.253   1.611   4.530 -0.4663  0.1675  0.1445
 2786SOL     OW11216   3.804   2.794   4.204  0.1596 -0.2210 -0.2392
 2786SOL    HW211217   3.720   2.748   4.206  0.4065 -0.6775 -0.0406
 2786SOL    HW311218   3.866   2.728   4.171  0.7608 -0.4414  1.2956
 2786SOL    MW411219   3.801   2.779   4.200  0.2713 -0.3104 -0.0105
 2787SOL     OW11220   4.008   1.606   4.256  0.1998  0.0792 -0.0300
 2787SOL    HW211221   3.947   1.543   4.217  2.0536 -1.4360 -0.5457
 2787SOL    HW311222   3.972   1.692   4.233 -0.9897 -0.7816 -1.4925
 2787SOL    MW411223   3.995   1.609   4.248  0.2873 -0.2341 -0.2913
 2788SOL     OW11224   3.343   1.070   4.513 -0.1930 -0.8259  0.1720
 2788SOL    HW211225   3.261   1.024   4.533 -0.8692 -0.1881 -1.0222
 2788SOL    HW311226   3.335   1.154   4.559 -0.3879 -0.6108 -0.2468
 2788SOL    MW411227   3.331   1.075   4.521 -0.3078 -0.7135 -0.0410
 2789SOL     OW11228   2.454   3.619   4.258 -0.0051  0.0112  0.3869
 2789SOL    HW211229   2.490   3.707   4.264  0.6191 -0.1543 -0.8209
 2789SOL    HW311230   2.524   3.566   4.219 -0.3670 -1.0255  1.0963
 2789SOL    MW411231   2.468   3.623   4.253  0.0296 -0.1473  0.3214
 2790SOL     OW11232   0.030   2.750   4.405  0.0315  0.1379  0.0723
 2790SOL    HW211233   0.042   2.660   4.432  0.2356  0.2461  0.3434
 2790SOL    HW311234  -0.011   2.744   4.318 -3.5182 -0.1933  1.7162
 2790SOL    MW411235   0.026   2.738   4.397 -0.4099  0.1085  0.3252
 2791SOL     OW11236   0.792   1.732   4.511  0.2339  0.3503 -0.1137
 2791SOL    HW211237   0.835   1.813   4.539  0.2170  0.6282 -0.8813
 2791SOL    HW311238   0.703   1.739   4.544 -0.0060  1.0253 -0.8719
 2791SOL    MW411239   0.786   1.744   4.519  0.2000  0.4761 -0.3157
 2792SOL     OW11240   2.688   1.166   4.200 -0.2110  0.6539 -0.4525
 2792SOL    HW211241   2.696   1.071   4.211  1.9644  0.8260 -0.2874
 2792SOL    HW311242   2.607   1.188   4.245 -0.4811 -1.0628 -0.0412
 2792SOL    MW411243   2.679   1.156   4.207  0.0403  0.4500 -0.3762
 2793SOL     OW11244   1.392   2.730   4.170 -0.0906  0.0456  0.0562
 2793SOL    HW211245   1.355   2.813   4.199  0.4268  0.1622  0.3801
 2793SOL    HW311246   1.377   2.730   4.075  1.2501  1.1900 -0.1739
 2793SOL    MW411247   1.385   2.741   4.161  0.1545  0.2120  0.0691
 2794SOL     OW11248   2.883   3.651   4.437  0.3826 -0.1732 -0.0089
 2794SOL    HW211249   2.921   3.651   4.349  3.6191 -0.7820  1.3475
 2794SOL    HW311250   2.954   3.623   4.494 -2.1475 -1.4144  2.6297
 2794SOL    MW411251   2.897   3.647   4.433  0.4756 -0.4175  0.5178
 2795SOL     OW11252   1.483   0.735   4.805 -0.0578 -0.4778 -0.0715
 2795SOL    HW211253   1.482   0.785   4.724  1.9194 -1.8995 -1.0143
 2795SOL    HW311254   1.559   0.677   4.797 -0.5123 -1.4719  2.2874
 2795SOL    MW411255   1.493   0.734   4.793  0.1432 -0.7964  0.1154
 2796SOL     OW11256   3.654   1.906   4.149  0.4750 -0.0880  0.0877
 2796SOL    HW211257   3.644   1.915   4.054 -0.6020 -2.2300 -0.0194
 2796SOL    HW311258   3.628   1.816   4.168  1.3620  0.0903  2.3386
 2796SOL    MW411259   3.650   1.895   4.139  0.4501 -0.3469  0.3710
 2797SOL     OW11260   3.087   3.509   4.604  0.2449 -0.5158 -0.1723
 2797SOL    HW211261   3.173   3.487   4.569 -1.1827 -2.7231 -2.4467
 2797SOL    HW311262   3.032   3.435   4.580 -1.7492 -0.3253  3.4368
 2797SOL    MW411263   3.091   3.496   4.597 -0.2065 -0.7820  0.0038
 2798SOL     OW11264   1.392   0.451   3.981  0.0720  0.1039 -0.0434
 2798SOL    HW211265   1.373   0.364   3.946  1.3546  0.0692 -0.6608
 2798SOL    HW311266   1.435   0.497   3.910  1.2659  0.5601  0.9656
 2798SOL    MW411267   1.395   0.445   3.967  0.3986  0.1595  0.0083
 2799SOL     OW11268   2.232   0.365   3.862 -0.0309  0.0983 -0.0352
 2799SOL    HW211269   2.222   0.272   3.842  0.8901 -0.2883  1.2761
 2799SOL    HW311270   2.315   0.390   3.822  0.6507 -0.1054  1.2378
 2799SOL    MW411271   2.242   0.356   3.854  0.1805  0.0204  0.3057
 2800SOL     OW11272   3.371   1.523   3.899  0.4165  0.1904 -0.0211
 2800SOL    HW211273   3.311   1.570   3.841 -1.1521  0.0155  1.4033
 2800SOL    HW311274   3.375   1.434   3.863 -0.7942 -0.0025  0.2684
 2800SOL    MW411275   3.364   1.517   3.887  0.0496  0.1419  0.2050
 2801SOL     OW11276   0.978   0.308   4.568 -0.1685  0.3446 -0.2254
 2801SOL    HW211277   0.908   0.371   4.583  0.9889  1.5198  0.3788
 2801SOL    HW311278   1.029   0.345   4.495  0.3040 -0.0647 -0.1095
 2801SOL    MW411279   0.976   0.321   4.560  0.0466  0.4457 -0.1307
 2802SOL     OW11280   1.097   2.325   4.043 -0.5675 -0.0942 -0.1676
 2802SOL    HW211281   1.112   2.340   3.949  0.0631  0.3747  0.0084
 2802SOL    HW311282   1.162   2.380   4.087 -0.5702 -0.6490  0.5361
 2802SOL    MW411283   1.108   2.334   4.036 -0.4847 -0.1056 -0.0515
 2803SOL     OW11284   1.242   0.347   4.648  0.6099 -0.3810  0.2941
 2803SOL    HW211285   1.246   0.426   4.702  0.2514  0.2591 -0.6025
 2803SOL    HW311286   1.151   0.318   4.653  0.1369  0.7323 -1.4317
 2803SOL    MW411287   1.231   0.353   4.656  0.5002 -0.1497 -0.0520
 2804SOL     OW11288   0.642   4.371   3.815 -0.0414 -0.5767  0.7818
 2804SOL    HW211289   0.647   4.351   3.722 -0.4720 -0.2694  0.6912
 2804SOL    HW311290   0.718   4.327   3.853  1.0384  0.6056  0.0435
 2804SOL    MW411291   0.653   4.363   3.808  0.0442 -0.3805  0.6723
 2805SOL     OW11292   1.763   2.978   4.547 -0.1598 -0.0515 -0.5008
 2805SOL    HW211293   1.849   2.943   4.524 -0.0128  0.2209 -0.3634
 2805SOL    HW311294   1.716   2.985   4.464 -0.3120 -0.8974 -0.4941
 2805SOL    MW411295   1.768   2.974   4.533 -0.1606 -0.1268 -0.4816
 2806SOL     OW11296   3.321   0.025   4.155  0.3210  0.6668  0.2675
 2806SOL    HW211297   3.409   0.051   4.181 -0.1602  0.3022  2.3627
 2806SOL    HW311298   3.264   0.061   4.223 -1.0809  0.3601 -0.7152
 2806SOL    MW411299   3.325   0.033   4.167  0.0725  0.5779  0.4144
 2807SOL     OW11300   3.537   2.698   3.906  0.0372 -0.2262  0.0101
 2807SOL    HW211301   3.553   2.670   3.997 -0.8142 -0.9189 -0.0533
 2807SOL    HW311302   3.621   2.735   3.878 -0.2329  1.7365  1.7037
 2807SOL    MW411303   3.550   2.699   3.915 -0.1106 -0.0589  0.2251
 2808SOL     OW11304   2.641   2.691   4.140  0.2199  0.1118 -0.1990
 2808SOL    HW211305   2.551   2.718   4.162  0.0826 -1.0827  0.7662
 2808SOL    HW311306   2.657   2.616   4.196  1.9161  0.4471 -0.2195
 2808SOL    MW411307   2.631   2.685   4.150  0.4253 -0.0014 -0.0744
 2809SOL     OW11308   2.067   3.760   4.609 -0.4810 -0.2981 -0.1011
 2809SOL    HW211309   2.094   3.751   4.700  0.5199 -0.6521 -0.4159
 2809SOL    HW311310   2.129   3.823   4.572 -0.2751 -0.8735 -0.7588
 2809SOL    MW411311   2.079   3.767   4.616 -0.3219 -0.4208 -0.2294
 2810SOL     OW11312   0.660   2.856   4.226 -0.7379  0.1715  0.6157
 2810SOL    HW211313   0.587   2.799   4.205  0.6398 -1.4621  0.1700
 2810SOL    HW311314   0.738   2.805   4.204  0.5388  1.9647  0.8433
 2810SOL    MW411315   0.661   2.842   4.221 -0.3877  0.1926  0.5870
 2811SOL     OW11316   4.236   2.371   4.095 -0.0517 -0.0074  0.0355
 2811SOL    HW211317   4.305   2.388   4.159 -0.8951  0.6784  0.7788
 2811SOL    HW311318   4.180   2.449   4.099 -0.1754  0.0022 -1.4639
 2811SOL    MW411319   4.237   2.384   4.104 -0.1793  0.0844 -0.0644
 2812SOL     OW11320   3.336   3.560   4.237 -0.1509 -0.3017  0.1676
 2812SOL    HW211321   3.414   3.511   4.210 -0.0303  0.4514 -0.8821
 2812SOL    HW311322   3.352   3.650   4.206 -1.3119 -0.0787  0.1851
 2812SOL    MW411323   3.348   3.566   4.229 -0.2885 -0.1729  0.0310
 2813SOL     OW11324   2.443   1.234   4.291  0.4081  0.2342 -0.5601
 2813SOL    HW211325   2.446   1.253   4.385 -1.1012 -0.3542 -0.3785
 2813SOL    HW311326   2.439   1.321   4.250  1.2303  0.4971 -0.1020
 2813SOL    MW411327   2.443   1.248   4.298  0.3173  0.1913 -0.4759
 2814SOL     OW11328   2.994   2.994   4.518 -0.4814  0.4924 -0.4051
 2814SOL    HW211329   2.916   2.957   4.476 -1.0167  0.5539  0.5099
 2814SOL    HW311330   2.972   3.086   4.533 -0.0015  0.6527 -0.6841
 2814SOL    MW411331   2.981   3.001   4.514 -0.4890  0.5217 -0.3209
 2815SOL     OW11332   0.212   3.893   4.141  0.0370 -0.3082  0.2578
 2815SOL    HW211333   0.125   3.924   4.164  0.5865  0.4553  1.3295
 2815SOL    HW311334   0.271   3.942   4.197  1.0702 -1.7367  0.4505
 2815SOL    MW411335   0.208   3.903   4.151  0.2458 -0.3960  0.4244
 2816SOL     OW11336   3.002   0.044   4.586 -0.1723  0.9830 -0.1927
 2816SOL    HW211337   3.045   0.110   4.639  0.0446  0.2987  0.4973
 2816SOL    HW311338   3.004  -0.036   4.640 -0.0581  0.3103 -1.1709
 2816SOL    MW411339   3.008   0.042   4.600 -0.1287  0.8040 -0.2303
 2817SOL     OW11340   4.113   2.168   4.232  0.6916 -0.2215 -0.1482
 2817SOL    HW211341   4.108   2.098   4.167 -0.4008  1.6472 -2.1597
 2817SOL    HW311342   4.165   2.236   4.190 -2.6015  2.2924 -0.3922
 2817SOL    MW411343   4.119   2.168   4.218  0.1130  0.3567 -0.4458
 2818SOL     OW11344   2.740   0.529   4.492  0.0330 -0.2424 -0.3899
 2818SOL    HW211345   2.652   0.497   4.514 -0.7649  1.4175 -1.0525
 2818SOL    HW311346   2.760   0.486   4.409 -0.3406 -0.3058 -0.4506
 2818SOL    MW411347   2.731   0.519   4.484 -0.1216 -0.0318 -0.4854
 2819SOL     OW11348   2.019   0.493   3.758  0.2339 -0.1728 -0.3471
 2819SOL    HW211349   2.101   0.451   3.785  0.6234  0.3965 -0.6403
 2819SOL    HW311350   2.017   0.483   3.663 -0.6296 -1.2544 -0.2154
 2819SOL    MW411351   2.030   0.486   3.749  0.1714 -0.2404 -0.3684
 2820SOL     OW11352   3.332   3.480   4.501 -0.1633  0.0478  0.2341
 2820SOL    HW211353   3.364   3.390   4.503 -0.6097 -0.1257 -0.2360
 2820SOL    HW311354   3.319   3.498   4.408  3.0206  1.7040  0.0437
 2820SOL    MW411355   3.334   3.470   4.489  0.1979  0.2434  0.1473
 2821SOL     OW11356   3.778   3.596   3.743 -0.0499 -0.1213  0.1749
 2821SOL    HW211357   3.702   3.546   3.773 -1.1293  1.5241  0.2636
 2821SOL    HW311358   3.775   3.677   3.795  0.7811  0.6939 -1.0302
 2821SOL    MW411359   3.768   3.600   3.754 -0.0825  0.2031  0.0274
 2822SOL     OW11360   1.932   0.940   4.574  0.2155 -0.2595 -0.0959
 2822SOL    HW211361   1.897   0.851   4.563 -0.4970 -0.0806  0.7365
 2822SOL    HW311362   1.982   0.955   4.494 -2.1432 -0.2651 -1.6298
 2822SOL    MW411363   1.934   0.930   4.562 -0.1897 -0.2366 -0.1879
 2823SOL     OW11364   2.929   2.066   3.811  0.2035  0.3493 -0.1407
 2823SOL    HW211365   2.861   2.012   3.851  0.7105  0.1260  0.4242
 2823SOL    HW311366   2.910   2.155   3.840  0.4417  0.2185  0.4267
 2823SOL    MW411367   2.918   2.070   3.820  0.3018  0.3030  0.0088
 2824SOL     OW11368   1.106   2.738   4.785 -0.0208 -0.5362 -0.4776
 2824SOL    HW211369   1.043   2.666   4.782 -0.8359  0.1630 -0.2875
 2824SOL    HW311370   1.071   2.804   4.724 -0.4656  0.6433  1.0227
 2824SOL    MW411371   1.093   2.737   4.776 -0.1870 -0.2882 -0.2546
 2825SOL     OW11372   4.091   2.143   4.670 -0.2786  0.0755 -0.8364
 2825SOL    HW211373   4.174   2.182   4.694  0.4791 -2.1098  0.1892
 2825SOL    HW311374   4.112   2.053   4.646 -2.6908 -1.3679  2.1306
 2825SOL    MW411375   4.105   2.136   4.670 -0.4964 -0.4034 -0.3095
 2826SOL     OW11376   2.320   1.108   4.584 -0.0743 -0.1346  0.4382
 2826SOL    HW211377   2.394   1.168   4.594  0.3734 -0.7300  0.7418
 2826SOL    HW311378   2.275   1.110   4.668 -0.4297  0.2547  0.2415
 2826SOL    MW411379   2.324   1.116   4.596 -0.0625 -0.1616  0.4520
 2827SOL     OW11380   4.351   1.850   4.581  0.4736 -0.1206 -0.4629
 2827SOL    HW211381   4.311   1.913   4.522  1.0252 -0.2188 -0.9442
 2827SOL    HW311382   4.399   1.903   4.645 -0.0998 -0.0166 -0.1100
 2827SOL    MW411383   4.352   1.865   4.582  0.4702 -0.1199 -0.4797
 2828SOL     OW11384   3.362   0.722   4.318  0.0991 -0.3596  0.5225
 2828SOL    HW211385   3.410   0.735   4.236 -0.0652  1.0243  0.6345
 2828SOL    HW311386   3.424   0.748   4.386 -1.1100  2.4349  0.6190
 2828SOL    MW411387   3.377   0.727   4.316 -0.0823  0.1917  0.5503
 2829SOL     OW11388   3.563   3.435   4.191 -0.0118  0.0042  0.2610
 2829SOL    HW211389   3.629   3.501   4.214 -1.1826  2.0287 -2.0044
 2829SOL    HW311390   3.574   3.423   4.096 -1.2955 -1.4433  0.2861
 2829SOL    MW411391   3.573   3.442   4.181 -0.3357  0.0803 -0.0343
 2830SOL     OW11392   1.406   2.958   4.534  0.2863 -0.4660 -0.3336
 2830SOL    HW211393   1.420   3.053   4.535  0.7695 -0.5345  1.0412
 2830SOL    HW311394   1.477   2.924   4.479  0.4793 -0.0841 -0.3220
 2830SOL    MW411395   1.417   2.966   4.527  0.3755 -0.4249 -0.1512
 2831SOL     OW11396   4.236   3.618   4.236 -0.1302 -0.0834 -0.1534
 2831SOL    HW211397   4.305   3.558   4.208  0.4958  0.5092  0.1146
 2831SOL    HW311398   4.239   3.616   4.331 -0.7014 -0.3021 -0.1367
 2831SOL    MW411399   4.246   3.610   4.244 -0.1235 -0.0341 -0.1154
 2832SOL     OW11400   3.518   0.858   4.503  0.3335 -0.4191  0.1808
 2832SOL    HW211401   3.604   0.896   4.486 -0.5229  1.0484 -1.0136
 2832SOL    HW311402   3.462   0.933   4.524 -1.4945 -0.9371 -2.6368
 2832SOL    MW411403   3.522   0.873   4.504 -0.0207 -0.2938 -0.3481
 2833SOL     OW11404   1.324   3.300   4.514  0.4156 -0.3228  0.5140
 2833SOL    HW211405   1.411   3.285   4.551  0.9283 -2.0267 -1.3109
 2833SOL    HW311406   1.268   3.236   4.557  0.1123  0.5213  1.4078
 2833SOL    MW411407   1.328   3.290   4.524  0.4433 -0.4363  0.3910
 2834SOL     OW11408   4.074   0.718   4.654  0.2999  0.0189  0.0924
 2834SOL    HW211409   4.116   0.799   4.625 -0.1777 -0.1913 -1.2265
 2834SOL    HW311410   4.010   0.745   4.719  1.1259  0.5491  0.6910
 2834SOL    MW411411   4.071   0.732   4.659  0.3462  0.0612 -0.0024
 2835SOL     OW11412   1.607   3.712   4.196  0.2226  0.5618  0.3752
 2835SOL    HW211413   1.515   3.683   4.191  1.0222 -2.0585  0.0002
 2835SOL    HW311414   1.604   3.804   4.171 -2.3326  0.5547  0.4494
 2835SOL    MW411415   1.594   3.720   4.192 -0.0091  0.2153  0.3352
 2836SOL     OW11416   4.423   2.658   4.153 -0.0124  0.0647  0.1966
 2836SOL    HW211417   4.337   2.693   4.177 -0.2995 -0.8233  0.4733
 2836SOL    HW311418   4.429   2.575   4.200  0.9758  0.0927  0.1290
 2836SOL    MW411419   4.413   2.651   4.163  0.0806 -0.0489  0.2246
 2837SOL     OW11420   0.801   4.288   4.513 -0.0175  0.4157  0.6657
 2837SOL    HW211421   0.747   4.331   4.447 -1.0285 -0.3961  0.9515
 2837SOL    HW311422   0.866   4.354   4.538 -0.1103  0.9821 -0.5765
 2837SOL    MW411423   0.803   4.303   4.508 -0.1631  0.3834  0.5393
 2838SOL     OW11424   4.295   2.099   3.701  0.0295 -0.0884  0.8142
 2838SOL    HW211425   4.267   2.173   3.754  0.8450 -0.4519  1.7650
 2838SOL    HW311426   4.226   2.033   3.713 -0.0052 -0.0029  1.0644
 2838SOL    MW411427   4.282   2.100   3.709  0.1321 -0.1252  0.9725
 2839SOL     OW11428   1.722   3.389   4.465  0.2397 -0.2604 -0.2799
 2839SOL    HW211429   1.724   3.333   4.387  1.5695 -0.8791  0.1859
 2839SOL    HW311430   1.812   3.418   4.476  0.2823 -1.0909  1.6891
 2839SOL    MW411431   1.734   3.386   4.456  0.4208 -0.4518  0.0415
 2840SOL     OW11432   3.190   0.672   4.579 -0.7957  0.0054 -0.0631
 2840SOL    HW211433   3.277   0.671   4.618 -0.2402  1.1876 -1.2514
 2840SOL    HW311434   3.204   0.651   4.487 -1.9831 -1.7176  0.1182
 2840SOL    MW411435   3.203   0.669   4.572 -0.8788 -0.0659 -0.1955
 2841SOL     OW11436   3.780   3.840   4.156 -0.0984 -0.1557  0.6379
 2841SOL    HW211437   3.713   3.905   4.180  1.2105  1.9412 -1.1284
 2841SOL    HW311438   3.863   3.884   4.175  0.8121 -1.4523 -0.2619
 2841SOL    MW411439   3.782   3.855   4.161  0.1948 -0.0501  0.2861
 2842SOL     OW11440   1.165   3.519   4.561  0.2718 -0.1916 -0.2833
 2842SOL    HW211441   1.224   3.592   4.583 -0.6632  0.2885  0.7013
 2842SOL    HW311442   1.223   3.443   4.553  0.7372 -0.4129  4.0087
 2842SOL    MW411443   1.181   3.519   4.563  0.2099 -0.1576  0.4134
 2843SOL     OW11444   4.217   2.798   3.726  0.0570  0.3440 -0.4362
 2843SOL    HW211445   4.207   2.885   3.765  0.0292  0.0962  0.1197
 2843SOL    HW311446   4.301   2.766   3.761  0.3454  0.3742 -1.0837
 2843SOL    MW411447   4.227   2.805   3.736  0.0916  0.3150 -0.4485
 2844SOL     OW11448   1.690   2.711   4.123 -0.0120  0.6173  0.5142
 2844SOL    HW211449   1.706   2.643   4.188  0.5940  1.3289  1.1133
 2844SOL    HW311450   1.594   2.716   4.117 -0.0629 -1.2327 -0.5472
 2844SOL    MW411451   1.679   2.703   4.131  0.0612  0.4671  0.4535
 2845SOL     OW11452   3.222   1.639   4.806  0.0836  0.2806 -0.4335
 2845SOL    HW211453   3.137   1.604   4.780  0.3817 -0.3703 -0.5451
 2845SOL    HW311454   3.219   1.640   4.902 -0.0380  0.2147 -0.4363
 2845SOL    MW411455   3.211   1.634   4.815  0.1070  0.1860 -0.4487
 2846SOL     OW11456   0.269   2.832   4.308 -0.2810 -0.4312  0.4739
 2846SOL    HW211457   0.247   2.900   4.244  1.5735 -0.1670  0.1102
 2846SOL    HW311458   0.185   2.789   4.327 -1.1415  0.6860 -0.7418
 2846SOL    MW411459   0.255   2.835   4.302 -0.1499 -0.2489  0.2646
 2847SOL     OW11460   2.666   3.477   4.137  0.1973 -0.5436  0.2157
 2847SOL    HW211461   2.658   3.481   4.042 -0.1480  0.7510  0.2907
 2847SOL    HW311462   2.676   3.383   4.157 -3.2053 -1.2019 -0.8321
 2847SOL    MW411463   2.666   3.465   4.127 -0.2971 -0.4599  0.0873
 2848SOL     OW11464   3.249   3.014   4.396  0.2438 -0.2993  0.0407
 2848SOL    HW211465   3.165   3.018   4.442  0.5722  0.6630  0.5674
 2848SOL    HW311466   3.305   3.076   4.443  0.5895  0.6912 -1.6336
 2848SOL    MW411467   3.246   3.023   4.409  0.3326 -0.0412 -0.1111
 2849SOL     OW11468   3.561   1.046   4.116  0.1492  0.1410 -0.2995
 2849SOL    HW211469   3.628   1.085   4.172  0.1676 -0.9035  0.4101
 2849SOL    HW311470   3.480   1.090   4.141  0.0284 -0.8468  1.0879
 2849SOL    MW411471   3.559   1.057   4.127  0.1359 -0.1271 -0.0224
 2850SOL     OW11472   2.873   3.064   4.131  0.4078 -0.3766 -0.1760
 2850SOL    HW211473   2.875   3.048   4.036  0.2136 -0.4384 -0.1684
 2850SOL    HW311474   2.869   2.977   4.170 -2.1840 -0.2879 -0.1604
 2850SOL    MW411475   2.873   3.050   4.124  0.0403 -0.3734 -0.1736
 2851SOL     OW11476   0.139   3.363   4.667 -0.3278 -0.1691  0.2815
 2851SOL    HW211477   0.157   3.409   4.586  0.4135 -0.8678  0.0506
 2851SOL    HW311478   0.089   3.285   4.641 -0.7337 -0.0089  0.5710
 2851SOL    MW411479   0.135   3.359   4.653 -0.2836 -0.2403  0.2894
 2852SOL     OW11480   2.019   1.696   4.296  0.0147 -0.2185  0.0660
 2852SOL    HW211481   2.051   1.763   4.236 -0.5145 -0.7071 -0.7796
 2852SOL    HW311482   1.923   1.705   4.292  0.0105  1.1055  2.4068
 2852SOL    MW411483   2.010   1.706   4.288 -0.0556 -0.1082  0.2632
 2853SOL     OW11484   4.303   4.634   3.906  0.5552 -0.2636  0.0741
 2853SOL    HW211485   4.301   4.631   4.002  0.2595 -0.9744  0.0503
 2853SOL    HW311486   4.373   4.697   3.886 -0.9870  1.7304  0.7687
 2853SOL    MW411487   4.312   4.642   3.916  0.3133 -0.0939  0.1631
 2854SOL     OW11488   2.926   0.720   3.882 -0.3034  0.5103  0.2134
 2854SOL    HW211489   2.931   0.731   3.977  0.7528 -0.1825  0.2437
 2854SOL    HW311490   3.001   0.770   3.849  0.4272 -0.7779 -0.1186
 2854SOL    MW411491   2.937   0.728   3.890 -0.0675  0.2488  0.1738
 2855SOL     OW11492   1.733   1.752   4.291  0.0270 -0.1869 -0.5635
 2855SOL    HW211493   1.663   1.724   4.232 -0.5760 -1.6286  0.7867
 2855SOL    HW311494   1.722   1.847   4.298 -1.0269 -0.2414 -1.3271
 2855SOL    MW411495   1.722   1.761   4.284 -0.1917 -0.3843 -0.4859
 2856SOL     OW11496   0.944   4.036   4.471  0.4384  0.1411  0.1272
 2856SOL    HW211497   0.916   3.970   4.535 -0.3233 -0.8878 -1.2499
 2856SOL    HW311498   0.892   4.113   4.493  0.0524 -0.2602  0.6617
 2856SOL    MW411499   0.933   4.037   4.482  0.2869 -0.0477  0.0157
 2857SOL     OW11500   1.709   4.244   3.859 -0.3120  0.4035 -0.1180
 2857SOL    HW211501   1.705   4.153   3.828  1.3746  0.0006  0.7514
 2857SOL    HW311502   1.788   4.279   3.819 -0.6826  1.3399 -0.0325
 2857SOL    MW411503   1.719   4.236   3.850 -0.1383  0.4740  0.0079
 2858SOL     OW11504   0.433   2.861   4.565 -0.2503  0.2023 -0.5388
 2858SOL    HW211505   0.514   2.910   4.550  0.9726 -1.8878 -0.9239
 2858SOL    HW311506   0.386   2.868   4.481 -0.1328  0.7585 -0.5648
 2858SOL    MW411507   0.438   2.869   4.552 -0.0735 -0.0002 -0.5927
 2859SOL     OW11508   1.765   3.490   3.796 -0.0475 -0.1931 -0.3723
 2859SOL    HW211509   1.762   3.487   3.892 -1.9327  0.5241 -0.3898
 2859SOL    HW311510   1.846   3.536   3.776  0.1156  0.0868  0.8935
 2859SOL    MW411511   1.775   3.496   3.806 -0.2748 -0.0613 -0.2074
 2860SOL     OW11512   0.411   3.685   4.639  0.3135  0.4848  0.8018
 2860SOL    HW211513   0.373   3.662   4.725 -0.0206  0.0305  0.5353
 2860SOL    HW311514   0.461   3.608   4.613  0.7308  0.7665  0.7580
 2860SOL    MW411515   0.412   3.672   4.647  0.3245  0.4621  0.7606
 2861SOL     OW11516   1.088   1.145   4.648  0.3339 -0.4035 -0.5240
 2861SOL    HW211517   1.050   1.190   4.723 -1.5187 -2.7008 -0.0359
 2861SOL    HW311518   1.164   1.199   4.624 -1.0019  2.2085  0.8525
 2861SOL    MW411519   1.093   1.158   4.655 -0.0868 -0.3620 -0.2780
 2862SOL     OW11520   4.260   3.595   4.528  0.4221 -0.5690  0.9686
 2862SOL    HW211521   4.196   3.632   4.590  0.3074 -2.1241  1.7995
 2862SOL    HW311522   4.262   3.502   4.549  1.0107 -0.9764 -0.8370
 2862SOL    MW411523   4.252   3.588   4.539  0.4849 -0.8283  0.8402
 2863SOL     OW11524   1.524   1.256   4.440  0.1783 -0.3147  0.0363
 2863SOL    HW211525   1.580   1.314   4.492 -1.0184 -0.1742  1.1990
 2863SOL    HW311526   1.570   1.172   4.440  0.4693 -0.1599  0.8610
 2863SOL    MW411527   1.537   1.253   4.447  0.0589 -0.2757  0.2985
 2864SOL     OW11528   4.469   2.863   4.660  0.1320  0.0201 -0.5456
 2864SOL    HW211529   4.488   2.809   4.583  1.4489  0.4521 -0.5376
 2864SOL    HW311530   4.556   2.886   4.694 -0.4443  0.4279  0.6469
 2864SOL    MW411531   4.483   2.859   4.655  0.2294  0.1311 -0.3877
 2865SOL     OW11532   2.563   4.439   4.238 -0.0542 -0.2452  0.0775
 2865SOL    HW211533   2.587   4.530   4.220 -0.5190 -0.1377 -0.0196
 2865SOL    HW311534   2.629   4.387   4.191  1.5557  0.0284  1.9964
 2865SOL    MW411535   2.575   4.444   4.229  0.0968 -0.1945  0.3181
 2866SOL     OW11536   3.543   3.966   4.243 -0.3032  0.3546 -0.5244
 2866SOL    HW211537   3.538   3.961   4.339 -0.4578  2.0733 -0.4322
 2866SOL    HW311538   3.477   3.904   4.213 -0.5409  0.1056  0.4828
 2866SOL    MW411539   3.534   3.957   4.252 -0.3550  0.5484 -0.3791
 2867SOL     OW11540   3.018   1.995   4.216  0.1171 -0.2326 -0.4594
 2867SOL    HW211541   3.097   1.973   4.167  0.8546  1.3607 -0.0353
 2867SOL    HW311542   3.045   1.994   4.308 -0.0132  1.5105 -0.3736
 2867SOL    MW411543   3.032   1.992   4.222  0.1972  0.2077 -0.3924
 2868SOL     OW11544   0.428   4.407   4.561 -0.1651  0.1025 -0.3536
 2868SOL    HW211545   0.452   4.324   4.603 -0.5453  0.3446  0.3497
 2868SOL    HW311546   0.482   4.473   4.605 -0.0655  0.2640 -0.7178
 2868SOL    MW411547   0.438   4.405   4.573 -0.2021  0.1554 -0.3085
 2869SOL     OW11548   1.792   2.413   3.782 -0.4987  0.1331  0.2770
 2869SOL    HW211549   1.865   2.378   3.833 -0.6645  0.2706  0.6090
 2869SOL    HW311550   1.819   2.402   3.691 -0.4759 -0.7004  0.3828
 2869SOL    MW411551   1.805   2.407   3.777 -0.5175  0.0412  0.3347
 2870SOL     OW11552   2.277   3.199   4.262  0.3399 -0.3006  0.2282
 2870SOL    HW211553   2.281   3.182   4.356 -1.0030 -0.6679  0.2167
 2870SOL    HW311554   2.195   3.160   4.233 -0.2113  1.5167 -0.7564
 2870SOL    MW411555   2.267   3.191   4.270  0.0901 -0.1090  0.0968
 2871SOL     OW11556   4.102   0.312   4.111  0.3435  0.5189 -0.2897
 2871SOL    HW211557   4.155   0.380   4.151 -0.6431 -0.5901  3.0935
 2871SOL    HW311558   4.012   0.344   4.117 -0.3529 -1.7247  3.0621
 2871SOL    MW411559   4.097   0.325   4.117  0.1216  0.0766  0.5994
 2872SOL     OW11560   0.967   3.621   4.378 -0.5032 -0.6908 -0.2934
 2872SOL    HW211561   0.931   3.695   4.426  1.4464 -0.1403  0.3140
 2872SOL    HW311562   1.026   3.578   4.440 -0.6887 -2.0441 -1.0362
 2872SOL    MW411563   0.970   3.625   4.393 -0.2704 -0.7966 -0.3119
 2873SOL     OW11564   0.750   1.491   4.137 -0.6931  0.0113 -0.0936
 2873SOL    HW211565   0.716   1.572   4.175 -1.5212  1.5650 -3.8845
 2873SOL    HW311566   0.845   1.500   4.143 -0.7975  0.1315  1.6788
 2873SOL    MW411567   0.758   1.503   4.143 -0.8161  0.2321 -0.3595
 2874SOL     OW11568   3.887   1.159   4.497 -0.1088 -0.0531  0.2579
 2874SOL    HW211569   3.980   1.172   4.484  0.0637 -0.8909  0.5855
 2874SOL    HW311570   3.857   1.239   4.539  0.6393 -0.1503  0.9876
 2874SOL    MW411571   3.895   1.171   4.501  0.0129 -0.1765  0.3972
 2875SOL     OW11572   2.048   2.336   3.883 -0.0620 -0.2352 -0.0568
 2875SOL    HW211573   2.117   2.388   3.843  1.1880 -0.2276  2.0587
 2875SOL    HW311574   2.070   2.246   3.860 -0.1512 -0.1288 -0.5747
 2875SOL    MW411575   2.060   2.331   3.875  0.0916 -0.2203  0.1543
 2876SOL     OW11576   2.513   0.705   4.131 -0.1510  0.5030  0.0837
 2876SOL    HW211577   2.502   0.688   4.037 -1.6385  1.5100  0.0618
 2876SOL    HW311578   2.447   0.770   4.152  1.2688  1.5377  1.5068
 2876SOL    MW411579   2.503   0.711   4.122 -0.1600  0.7724  0.2685
 2877SOL     OW11580   2.925   4.192   4.502  0.4905 -0.0890 -0.2522
 2877SOL    HW211581   2.845   4.244   4.497  0.7848  0.3345 -0.6083
 2877SOL    HW311582   2.897   4.103   4.480  0.0329 -0.0337  0.1062
 2877SOL    MW411583   2.911   4.187   4.498  0.4687 -0.0257 -0.2518
 2878SOL     OW11584   0.473   1.791   4.463 -0.2564  0.4716 -0.0316
 2878SOL    HW211585   0.501   1.882   4.471 -1.3861  0.9374 -1.2170
 2878SOL    HW311586   0.381   1.792   4.489  0.3921 -0.7869  2.4088
 2878SOL    MW411587   0.465   1.803   4.467 -0.3198  0.3669  0.1340
 2879SOL     OW11588   3.113   2.760   4.643 -0.2464  0.1183 -0.3542
 2879SOL    HW211589   3.203   2.760   4.610  0.0561 -0.5416  0.4480
 2879SOL    HW311590   3.079   2.847   4.622 -0.3371 -0.5325 -3.1263
 2879SOL    MW411591   3.120   2.771   4.636 -0.2186 -0.0546 -0.6137
 2880SOL     OW11592   2.692   4.339   4.500  0.1839 -0.4958 -0.1393
 2880SOL    HW211593   2.677   4.429   4.530 -0.2053 -0.4791 -0.3709
 2880SOL    HW311594   2.660   4.338   4.410  1.5043 -0.5004 -0.6196
 2880SOL    MW411595   2.686   4.351   4.492  0.3068 -0.4945 -0.2337
 2881SOL     OW11596   4.240   1.542   4.122  0.3406 -0.4800 -0.0534
 2881SOL    HW211597   4.309   1.589   4.169  0.8945 -0.5717 -0.7746
 2881SOL    HW311598   4.158   1.575   4.159  0.7161  1.1865 -0.7025
 2881SOL    MW411599   4.238   1.552   4.133  0.4635 -0.2722 -0.2341
 2882SOL     OW11600   1.356   3.294   4.220 -0.2501 -0.0232 -0.3715
 2882SOL    HW211601   1.342   3.306   4.314 -0.5195 -1.3657 -0.2326
 2882SOL    HW311602   1.274   3.256   4.187 -0.1410  0.3904 -1.1371
 2882SOL    MW411603   1.344   3.290   4.228 -0.2712 -0.1459 -0.4535
 2883SOL     OW11604   1.921   0.765   4.090  0.4566 -0.2969 -0.0317
 2883SOL    HW211605   1.938   0.778   3.996  0.7605  2.2889  0.3468
 2883SOL    HW311606   2.004   0.735   4.126  0.4664 -0.8600 -0.5230
 2883SOL    MW411607   1.934   0.763   4.082  0.4979 -0.0299 -0.0467
 2884SOL     OW11608   0.207   0.470   4.210 -0.2083  0.2900 -0.6617
 2884SOL    HW211609   0.119   0.434   4.202 -0.0519  0.4742 -4.1880
 2884SOL    HW311610   0.199   0.561   4.182  0.8131  0.7889  0.6052
 2884SOL    MW411611   0.194   0.477   4.205 -0.0529  0.3801 -0.9608
 2885SOL     OW11612   2.913   3.904   4.105  0.2150 -0.6510  0.4573
 2885SOL    HW211613   2.902   3.811   4.124 -1.0979 -0.7616 -0.7931
 2885SOL    HW311614   2.841   3.947   4.152 -0.2087 -0.4500 -0.3682
 2885SOL    MW411615   2.902   3.898   4.114 -0.0141 -0.6390  0.1831
 2886SOL     OW11616   1.568   1.405   4.215 -0.0066 -0.3279 -0.1456
 2886SOL    HW211617   1.566   1.359   4.300  1.5241  0.1139  0.1376
 2886SOL    HW311618   1.628   1.354   4.162  1.2225  0.9928 -0.0378
 2886SOL    MW411619   1.575   1.392   4.220  0.3575 -0.0955 -0.0939
 2887NA      NA11620   0.421   4.271   0.696 -0.0106 -0.6016 -0.3759
 2888NA      NA11621   4.232   4.318   0.670  0.5907  0.0805 -0.3250
 2889NA      NA11622   0.500   1.601   0.678  0.5049  0.2419 -0.0602
   4.49070   4.66690  10.00000
