Gromacs Runs On Most of All Computer Systems in water
11584
    1RU5    O5'    1   2.347   2.640   3.986  0.3081 -0.3192  0.0889
    1RU5    H5T    2   2.401   2.581   4.039 -1.1823 -2.5574 -0.8133
    1RU5    C5'    3   2.370   2.592   3.845 -0.0306  0.3869  0.7964
    1RU5   H5'1    4   2.292   2.630   3.779 -2.1021 -1.3300  2.1939
    1RU5   H5'2    5   2.365   2.484   3.832  2.2426  0.5787 -2.4177
    1RU5    C4'    6   2.506   2.643   3.791 -0.4274 -0.2691 -0.1320
    1RU5    H4'    7   2.521   2.603   3.691  0.9871 -0.1273  0.0160
    1RU5    O4'    8   2.518   2.781   3.789  0.7397  0.2370 -0.4979
    1RU5    C1'    9   2.651   2.823   3.809 -0.4856 -0.4060 -0.2552
    1RU5    H1'   10   2.706   2.852   3.720  1.2483 -2.2214  0.1797
    1RU5     N1   11   2.658   2.930   3.909 -0.0307 -0.8770  0.5656
    1RU5     C6   12   2.560   2.956   4.000 -0.2274  0.4339  0.0546
    1RU5     H6   13   2.473   2.893   4.013 -0.2802  0.3054 -0.9287
    1RU5     C5   14   2.574   3.070   4.076  0.3941  0.1000  0.0629
    1RU5     H5   15   2.492   3.089   4.144  1.3278 -0.1745  1.2769
    1RU5     C4   16   2.691   3.153   4.079  0.3845 -0.2642  0.0663
    1RU5     O4   17   2.713   3.252   4.147  0.4048 -0.2361 -0.1179
    1RU5     N3   18   2.789   3.107   3.997 -0.5888  0.2718  0.2693
    1RU5     H3   19   2.867   3.170   3.988  0.7513 -1.2734  0.7834
    1RU5     C2   20   2.777   3.003   3.907  0.0001  0.1809 -0.7167
    1RU5     O2   21   2.871   2.980   3.832 -0.1395 -0.3856  0.4354
    1RU5    C3'   22   2.618   2.601   3.886 -0.1195  0.0257  0.0671
    1RU5    H3'   23   2.589   2.623   3.988  0.1722 -0.1059  0.1797
    1RU5    C2'   24   2.732   2.702   3.847 -0.2119 -0.2398 -0.2819
    1RU5   H2'1   25   2.794   2.721   3.934  0.9895 -1.1834 -0.9043
    1RU5    O2'   26   2.807   2.657   3.737 -0.2202  0.4979 -0.6177
    1RU5   HO'2   27   2.895   2.624   3.757 -0.0510  0.1698 -1.8978
    1RU5    O3'   28   2.657   2.467   3.875  0.1387 -0.0529 -0.7161
    2RG3      P   29   2.642   2.378   4.005  0.3307  0.3059 -0.2507
    2RG3    O1P   30   2.696   2.244   3.979  0.0979 -0.9916 -0.1974
    2RG3    O2P   31   2.510   2.393   4.066  0.1117 -0.0464 -0.2142
    2RG3    O5'   32   2.749   2.447   4.103 -0.0127  0.3116 -0.5243
    2RG3    C5'   33   2.891   2.424   4.080  0.2327  0.1809 -0.5491
    2RG3   H5'1   34   2.911   2.433   3.973  0.4970 -0.4372 -0.5467
    2RG3   H5'2   35   2.927   2.326   4.110  0.3624 -0.0507 -1.4394
    2RG3    C4'   36   2.972   2.526   4.160  0.5151  0.0486 -0.4354
    2RG3    H4'   37   3.079   2.514   4.143  0.6273 -0.4334  0.5663
    2RG3    O4'   38   2.942   2.662   4.125  0.4379  0.0863  0.4439
    2RG3    C1'   39   2.949   2.743   4.239  0.0685 -0.1480  0.6173
    2RG3    H1'   40   3.017   2.827   4.224 -2.4374  1.9084  0.3810
    2RG3     N9   41   2.818   2.800   4.267  0.6355 -0.0415  0.0687
    2RG3     C8   42   2.694   2.743   4.258  0.1020  0.0643 -0.4818
    2RG3     H8   43   2.683   2.649   4.206 -0.4880 -0.6376  0.8906
    2RG3     N7   44   2.597   2.811   4.312  0.5204  0.2565  0.5637
    2RG3     C5   45   2.658   2.932   4.352 -0.0115  0.8967  0.0265
    2RG3     C6   46   2.603   3.049   4.409 -0.0471 -0.1429  0.0536
    2RG3     O6   47   2.486   3.080   4.415 -0.1336 -0.4951 -0.3533
    2RG3     N1   48   2.691   3.142   4.450 -0.1896 -0.2734 -0.4211
    2RG3     H1   49   2.662   3.233   4.482  0.0614  0.6057 -2.6358
    2RG3     C2   50   2.828   3.132   4.428  0.0030  0.4989 -0.5683
    2RG3     N2   51   2.902   3.228   4.477 -0.2903  0.0383  0.0954
    2RG3    H21   52   2.852   3.304   4.523 -0.7025  0.1869 -0.5865
    2RG3    H22   53   3.002   3.234   4.467 -0.4363  0.4920 -1.1875
    2RG3     N3   54   2.884   3.019   4.373 -0.0111 -0.3257  0.3051
    2RG3     C4   55   2.795   2.923   4.333  0.0008 -0.2994  0.0277
    2RG3    C3'   56   2.951   2.523   4.311  0.6409 -0.4791 -0.8496
    2RG3    H3'   57   2.845   2.514   4.337  0.9315  1.1556  1.0987
    2RG3    C2'   58   3.000   2.662   4.358  0.7011 -0.2421  0.1389
    2RG3   H2'1   59   2.954   2.691   4.452 -0.1558 -0.0955 -0.3191
    2RG3    O2'   60   3.141   2.672   4.371 -0.2593  0.4730 -0.8736
    2RG3   HO'2   61   3.168   2.611   4.440  0.3552 -0.1773 -1.6756
    2RG3    O3'   62   3.034   2.423   4.372 -0.1259  0.2766 -0.4070
    2RG3    H3T   63   3.019   2.431   4.466 -1.8120 -1.5907 -0.4876
    5SOL     OW   64   0.681   3.071   1.206  0.0603 -0.1791  0.2768
    5SOL    HW2   65   0.776   3.071   1.208  0.0311 -0.6137  2.1154
    5SOL    HW3   66   0.655   2.984   1.236 -0.9075 -0.4959 -1.4023
    5SOL    MW4   67   0.690   3.060   1.210 -0.0712 -0.2780  0.2978
    6SOL     OW   68   3.537   1.112   0.882  0.1656 -0.2397 -0.2931
    6SOL    HW2   69   3.529   1.018   0.869  0.4865 -0.2174 -0.6448
    6SOL    HW3   70   3.553   1.122   0.976 -1.5578 -0.4307  0.0381
    6SOL    MW4   71   3.538   1.101   0.893 -0.0191 -0.2620 -0.2958
    7SOL     OW   72   4.319   1.551   0.922  0.2984 -0.0856  0.4130
    7SOL    HW2   73   4.248   1.514   0.870 -0.4177  0.9919  0.5946
    7SOL    HW3   74   4.291   1.540   1.013  1.3033 -1.4876  0.5507
    7SOL    MW4   75   4.306   1.545   0.927  0.3366 -0.1285  0.4551
    8SOL     OW   76   1.963   3.025   0.499 -0.3691  0.7845  0.3498
    8SOL    HW2   77   1.924   3.005   0.584 -0.2499  1.1658  0.4975
    8SOL    HW3   78   1.906   2.981   0.435 -1.6388  2.1574  0.5010
    8SOL    MW4   79   1.950   3.017   0.502 -0.5209  1.0161  0.3893
    9SOL     OW   80   0.439   1.237   0.870  0.7295 -0.2841 -0.0262
    9SOL    HW2   81   0.425   1.222   0.963  0.0491 -1.6596 -0.3390
    9SOL    HW3   82   0.378   1.178   0.827 -0.7241  2.1199 -1.3351
    9SOL    MW4   83   0.429   1.228   0.877  0.4479 -0.1483 -0.2401
   10SOL     OW   84   4.229   1.003   0.816 -0.4666 -0.2781 -0.2403
   10SOL    HW2   85   4.155   1.060   0.840 -0.0605 -0.1579  0.7376
   10SOL    HW3   86   4.236   1.012   0.721 -0.7009  0.9599 -0.1470
   10SOL    MW4   87   4.220   1.012   0.807 -0.4439 -0.0988 -0.0990
   11SOL     OW   88   2.670   0.393   1.185  0.1165 -0.3004 -0.4542
   11SOL    HW2   89   2.589   0.426   1.224  0.8541 -0.3340  1.1134
   11SOL    HW3   90   2.671   0.300   1.208 -0.0028 -0.5877 -1.5432
   11SOL    MW4   91   2.659   0.385   1.193  0.1981 -0.3427 -0.3911
   12SOL     OW   92   4.255   1.206   1.213  0.5796  0.1880 -0.1215
   12SOL    HW2   93   4.337   1.164   1.189 -0.2449 -0.9374 -1.0748
   12SOL    HW3   94   4.255   1.208   1.308  2.1506  1.1060 -0.1310
   12SOL    MW4   95   4.266   1.201   1.222  0.6781  0.1608 -0.2487
   13SOL     OW   96   2.016   2.778   1.243 -0.4113 -0.3051  0.1850
   13SOL    HW2   97   2.094   2.756   1.192 -0.4698  0.1783 -0.1140
   13SOL    HW3   98   1.943   2.748   1.190 -0.6294  2.7164 -1.3756
   13SOL    MW4   99   2.017   2.771   1.229 -0.4480  0.1574 -0.0603
   14SOL     OW  100   2.130   2.510   0.559 -0.3370 -0.2424 -0.1952
   14SOL    HW2  101   2.150   2.417   0.541 -1.3601 -0.6781  0.8872
   14SOL    HW3  102   2.101   2.511   0.650  1.3310  1.4224  0.3476
   14SOL    MW4  103   2.129   2.498   0.568 -0.2520 -0.0803  0.0193
   15SOL     OW  104   3.024   3.833   0.909 -0.4262 -0.2776 -0.1172
   15SOL    HW2  105   3.002   3.824   1.002 -1.1810 -1.1677 -0.3749
   15SOL    HW3  106   2.948   3.797   0.863  0.6277 -1.3362 -1.0644
   15SOL    MW4  107   3.011   3.827   0.915 -0.3870 -0.5345 -0.2761
   16SOL     OW  108   2.024   0.233   1.104  0.0832 -0.2218 -0.0191
   16SOL    HW2  109   2.016   0.190   1.018 -0.5532 -0.6133  0.2298
   16SOL    HW3  110   1.962   0.306   1.099 -0.7587 -0.9002  0.5022
   16SOL    MW4  111   2.014   0.237   1.092 -0.1116 -0.3629  0.0825
   17SOL     OW  112   1.183   4.652   1.088 -0.1937 -0.2215  0.9039
   17SOL    HW2  113   1.172   4.563   1.121 -0.2744 -0.3778  0.4610
   17SOL    HW3  114   1.244   4.642   1.015 -0.6111  0.0104  0.5211
   17SOL    MW4  115   1.189   4.639   1.082 -0.2593 -0.2112  0.7951
   18SOL     OW  116   1.848   4.046   0.487 -0.4345 -0.1362  0.2937
   18SOL    HW2  117   1.804   3.962   0.476 -0.4536 -0.0712 -0.1350
   18SOL    HW3  118   1.856   4.057   0.581 -0.5996 -0.5334  0.3531
   18SOL    MW4  119   1.843   4.036   0.498 -0.4587 -0.1802  0.2450
   19SOL     OW  120   0.290   4.607   0.831  0.4208 -0.3796 -0.5239
   19SOL    HW2  121   0.373   4.650   0.809  0.8114 -0.8823 -0.0295
   19SOL    HW3  122   0.307   4.513   0.818 -0.3427 -0.4169 -1.3276
   19SOL    MW4  123   0.303   4.600   0.826  0.3716 -0.4506 -0.5648
   20SOL     OW  124   2.044   2.521   0.815 -0.1633  0.1820  0.1921
   20SOL    HW2  125   1.962   2.570   0.823 -0.6804 -0.7384  0.5129
   20SOL    HW3  126   2.112   2.585   0.838 -0.8280  0.7715  0.5326
   20SOL    MW4  127   2.042   2.536   0.819 -0.3192  0.1383  0.2794
   21SOL     OW  128   0.016   1.124   1.148  0.3598  0.0562  0.3047
   21SOL    HW2  129  -0.009   1.102   1.058 -0.4696  0.9078  0.3078
   21SOL    HW3  130   0.030   1.040   1.190 -0.6812 -0.4069 -0.2364
   21SOL    MW4  131   0.014   1.110   1.141  0.1130  0.1075  0.2335
   22SOL     OW  132   1.400   0.655   0.470  0.2747 -0.0568  0.4059
   22SOL    HW2  133   1.486   0.626   0.439 -0.5390 -0.0224 -1.9507
   22SOL    HW3  134   1.404   0.750   0.468  0.0954 -0.0569  0.0627
   22SOL    MW4  135   1.412   0.663   0.465  0.1438 -0.0523  0.0497
   23SOL     OW  136   3.390   2.319   0.877  0.5788 -0.0591  0.3073
   23SOL    HW2  137   3.304   2.286   0.851  0.5660  0.3877 -0.2404
   23SOL    HW3  138   3.445   2.306   0.799  0.8570  0.1862  0.4615
   23SOL    MW4  139   3.386   2.313   0.863  0.6137  0.0322  0.2554
   24SOL     OW  140   2.574   4.161   0.433  0.2267 -0.2091 -0.3486
   24SOL    HW2  141   2.511   4.101   0.394 -1.2318  2.1548 -1.7000
   24SOL    HW3  142   2.625   4.194   0.359 -0.2993  1.6947  0.1159
   24SOL    MW4  143   2.573   4.157   0.418 -0.0348  0.3533 -0.4656
   25SOL     OW  144   2.695   0.577   0.838  0.1353 -0.1718 -0.0436
   25SOL    HW2  145   2.677   0.577   0.744  0.0909  2.0640 -0.0651
   25SOL    HW3  146   2.699   0.485   0.862 -0.3632 -0.7609 -2.1442
   25SOL    MW4  147   2.693   0.565   0.829  0.0637  0.0454 -0.3235
   26SOL     OW  148   0.309   2.742   0.387  0.3311 -0.3173  0.3104
   26SOL    HW2  149   0.277   2.660   0.350 -3.8789  1.5182 -0.3921
   26SOL    HW3  150   0.305   2.728   0.482 -2.3123 -0.3277  0.2439
   26SOL    MW4  151   0.304   2.729   0.395 -0.5732 -0.0765  0.2090
   27SOL     OW  152   2.793   1.691   0.345 -0.2572 -0.4168  0.3981
   27SOL    HW2  153   2.825   1.772   0.386  0.5305 -0.5103 -0.0146
   27SOL    HW3  154   2.753   1.642   0.416  0.2854 -0.1704  0.8758
   27SOL    MW4  155   2.792   1.695   0.360 -0.0818 -0.3966  0.4067
   28SOL     OW  156   2.865   0.766   0.416 -0.2663 -0.2485  0.1525
   28SOL    HW2  157   2.850   0.850   0.458 -1.6406 -0.9273  1.0580
   28SOL    HW3  158   2.805   0.765   0.342  1.0854  0.3239 -0.9846
   28SOL    MW4  159   2.855   0.777   0.411 -0.2694 -0.2625  0.1220
   29SOL     OW  160   3.586   0.359   1.158  0.3326 -0.4062  0.0405
   29SOL    HW2  161   3.598   0.371   1.063 -0.0700  0.0423  0.0420
   29SOL    HW3  162   3.666   0.394   1.197 -0.0722  0.6421 -0.0600
   29SOL    MW4  163   3.598   0.365   1.150  0.2260 -0.2086  0.0273
   30SOL     OW  164   2.796   0.321   0.567  0.3098 -0.1736  0.3210
   30SOL    HW2  165   2.890   0.304   0.566  0.4024  0.3390 -1.3428
   30SOL    HW3  166   2.789   0.416   0.563 -0.2809 -0.2384 -0.2417
   30SOL    MW4  167   2.808   0.331   0.567  0.2439 -0.1146  0.0272
   31SOL     OW  168   3.794   1.285   0.525  0.0134 -0.3246  0.0996
   31SOL    HW2  169   3.785   1.378   0.503 -0.6426 -0.5761 -0.7118
   31SOL    HW3  170   3.769   1.281   0.618  0.8401  0.4246  0.3665
   31SOL    MW4  171   3.789   1.297   0.534  0.0358 -0.2589  0.0277
   32SOL     OW  172   2.053   2.280   1.209  0.2065 -0.2686 -0.0043
   32SOL    HW2  173   2.057   2.275   1.114 -0.9780  1.7043 -0.1718
   32SOL    HW3  174   2.140   2.310   1.235  0.3826 -0.3508 -0.4921
   32SOL    MW4  175   2.065   2.283   1.200  0.0734 -0.0196 -0.0908
   33SOL     OW  176   3.168   3.902   0.549 -0.1220  0.2644 -0.2449
   33SOL    HW2  177   3.175   3.947   0.633  1.2731 -0.4883  0.0521
   33SOL    HW3  178   3.081   3.925   0.517  0.4837  2.9800  0.0032
   33SOL    MW4  179   3.157   3.911   0.556  0.1421  0.5233 -0.1730
   34SOL     OW  180   0.495   0.899   0.645 -0.1832  0.2345 -0.1561
   34SOL    HW2  181   0.565   0.964   0.646  0.2712 -0.2441  1.4312
   34SOL    HW3  182   0.487   0.872   0.554  0.6043  1.4623 -0.5937
   34SOL    MW4  183   0.503   0.904   0.633 -0.0194  0.3334 -0.0044
   35SOL     OW  184   3.641   1.812   0.613  0.3413 -0.2664 -0.0682
   35SOL    HW2  185   3.697   1.741   0.579  0.7639 -0.1954  0.4733
   35SOL    HW3  186   3.552   1.778   0.604  0.3833  0.1404 -2.1673
   35SOL    MW4  187   3.637   1.798   0.607  0.4027 -0.2034 -0.2737
   36SOL     OW  188   2.912   2.042   1.113 -0.5226 -0.2631 -0.2413
   36SOL    HW2  189   2.935   2.133   1.096  0.4910 -0.3847  0.4435
   36SOL    HW3  190   2.972   2.015   1.183 -1.5547 -1.1271  0.3075
   36SOL    MW4  191   2.923   2.050   1.120 -0.5250 -0.3934 -0.0786
   37SOL     OW  192   0.656   2.576   0.831  0.4132 -0.0202  0.0499
   37SOL    HW2  193   0.565   2.595   0.856  0.3324 -0.2986 -0.0250
   37SOL    HW3  194   0.648   2.526   0.750  0.6591  0.5140 -0.3101
   37SOL    MW4  195   0.643   2.572   0.823  0.4350  0.0136 -0.0075
   38SOL     OW  196   3.890   0.438   0.787  0.5620 -0.2288  0.4894
   38SOL    HW2  197   3.893   0.461   0.695 -2.8749 -1.1296  0.0541
   38SOL    HW3  198   3.912   0.519   0.833  0.1203  0.8340 -1.1211
   38SOL    MW4  199   3.893   0.452   0.781  0.0505 -0.2074  0.2194
   39SOL     OW  200   2.649   1.173   1.146 -0.3237  0.0722  0.1632
   39SOL    HW2  201   2.580   1.215   1.197  0.2112 -0.2270  1.1430
   39SOL    HW3  202   2.731   1.201   1.188  0.0689 -1.2772  0.3127
   39SOL    MW4  203   2.651   1.183   1.158 -0.2012 -0.1454  0.3121
   40SOL     OW  204   3.323   3.703   0.644  0.3071 -0.2576  0.1403
   40SOL    HW2  205   3.283   3.781   0.605  2.0969  0.3795 -0.4725
   40SOL    HW3  206   3.306   3.634   0.580  1.9659  0.4733 -1.1556
   40SOL    MW4  207   3.316   3.705   0.630  0.7620 -0.0772 -0.1115
   41SOL     OW  208   3.430   4.197   0.633  0.3345  0.0944  0.3432
   41SOL    HW2  209   3.379   4.212   0.713 -0.9701 -0.4850 -0.3727
   41SOL    HW3  210   3.498   4.265   0.635 -0.3374  0.7499  1.4029
   41SOL    MW4  211   3.432   4.208   0.644  0.0734  0.1040  0.3886
   42SOL     OW  212   4.219   2.219   0.877 -0.3313 -0.1543 -0.1202
   42SOL    HW2  213   4.299   2.260   0.844 -0.7091  0.3770 -0.3744
   42SOL    HW3  214   4.220   2.235   0.971 -0.1441 -0.1476 -0.1225
   42SOL    MW4  215   4.230   2.226   0.885 -0.3557 -0.0834 -0.1540
   43SOL     OW  216   2.156   3.692   0.715 -0.3368 -0.0882  0.4528
   43SOL    HW2  217   2.093   3.670   0.646 -0.3724 -0.1701  0.5111
   43SOL    HW3  218   2.104   3.733   0.783 -0.3938 -0.5490  0.6849
   43SOL    MW4  219   2.141   3.694   0.715 -0.3493 -0.1597  0.4911
   44SOL     OW  220   1.802   1.116   1.110  0.6394 -0.1847 -0.1668
   44SOL    HW2  221   1.800   1.036   1.162 -1.6132  0.5321  0.9185
   44SOL    HW3  222   1.816   1.086   1.020  0.9325 -1.7001  0.3679
   44SOL    MW4  223   1.803   1.101   1.105  0.3809 -0.2900  0.0470
   45SOL     OW  224   4.096   0.260   0.867 -0.4994 -0.0667 -0.2702
   45SOL    HW2  225   4.136   0.335   0.823 -0.3133 -0.4835 -0.8144
   45SOL    HW3  226   4.002   0.278   0.863 -0.4401  0.3044 -0.0900
   45SOL    MW4  227   4.089   0.272   0.861 -0.4663 -0.0727 -0.3182
   46SOL     OW  228   2.515   2.889   0.577 -0.2273  0.1063  0.1013
   46SOL    HW2  229   2.477   2.802   0.589 -0.6713  0.4549  1.3560
   46SOL    HW3  230   2.452   2.935   0.521 -0.7400  0.0801  0.6431
   46SOL    MW4  231   2.501   2.884   0.571 -0.3538  0.1490  0.3384
   47SOL     OW  232   1.147   0.779   0.838  0.0649 -0.2188 -0.2477
   47SOL    HW2  233   1.073   0.763   0.780  0.7149 -1.0988 -0.8622
   47SOL    HW3  234   1.213   0.715   0.810  0.8708  0.2277  0.6031
   47SOL    MW4  235   1.146   0.769   0.827  0.2570 -0.2760 -0.2165
   48SOL     OW  236   3.581   2.835   0.189 -0.4042  0.1536 -0.6806
   48SOL    HW2  237   3.590   2.806   0.099  0.2718 -2.5097  0.2179
   48SOL    HW3  238   3.494   2.805   0.216  0.5400 -1.6395  0.4493
   48SOL    MW4  239   3.571   2.827   0.181 -0.1905 -0.4344 -0.4130
   49SOL     OW  240   2.260   0.014   0.769  0.2027  0.0505  0.1486
   49SOL    HW2  241   2.306   0.089   0.809 -0.8432 -0.2349  1.9184
   49SOL    HW3  242   2.328  -0.052   0.759  0.7675  0.6099  0.2222
   49SOL    MW4  243   2.275   0.015   0.773  0.1390  0.0866  0.3918
   50SOL     OW  244   4.207   2.958   0.458 -0.2250 -0.5074 -0.1751
   50SOL    HW2  245   4.283   2.906   0.431 -0.4458  0.0410 -1.9299
   50SOL    HW3  246   4.139   2.934   0.396 -1.0203  0.1834  0.4204
   50SOL    MW4  247   4.208   2.948   0.446 -0.3591 -0.3440 -0.3280
   51SOL     OW  248   4.319   0.744   0.895  0.1478  0.1462 -0.4223
   51SOL    HW2  249   4.411   0.762   0.876  0.3327  0.9818  1.2673
   51SOL    HW3  250   4.273   0.823   0.866  0.3264  1.0427  1.7133
   51SOL    MW4  251   4.325   0.757   0.888  0.1960  0.3747  0.0824
   52SOL     OW  252   3.546   2.831   0.547  0.1468  0.3870  0.0735
   52SOL    HW2  253   3.555   2.862   0.637  0.5369 -0.6859  0.4037
   52SOL    HW3  254   3.625   2.780   0.531 -0.3410 -0.1805 -0.5696
   52SOL    MW4  255   3.557   2.828   0.557  0.1340  0.1705  0.0322
   53SOL     OW  256   2.897   3.100   0.930 -0.6964  0.2714  0.2175
   53SOL    HW2  257   2.872   3.179   0.881 -0.9932 -0.8264 -1.4234
   53SOL    HW3  258   2.968   3.062   0.878  0.5902  0.3443  1.8901
   53SOL    MW4  259   2.903   3.106   0.916 -0.5655  0.1364  0.2217
   54SOL     OW  260   3.873   4.085   0.437 -0.0430 -0.2207  0.6764
   54SOL    HW2  261   3.889   4.172   0.475  0.2665 -0.5720  1.3577
   54SOL    HW3  262   3.960   4.044   0.435 -0.0389 -0.1592 -0.5317
   54SOL    MW4  263   3.887   4.091   0.442 -0.0014 -0.2589  0.6069
   55SOL     OW  264   2.433   0.139   0.417  0.1016  0.2686 -0.1485
   55SOL    HW2  265   2.362   0.075   0.428 -1.0812  1.6395  0.2326
   55SOL    HW3  266   2.451   0.170   0.506  0.5581  0.6039 -0.3589
   55SOL    MW4  267   2.426   0.134   0.430  0.0060  0.4937 -0.1259
   56SOL     OW  268   2.060   0.736   0.615  0.0905 -0.0042 -0.1646
   56SOL    HW2  269   2.039   0.785   0.694  0.9552 -0.3050  0.2576
   56SOL    HW3  270   2.095   0.653   0.647 -0.5360 -0.5390 -0.8683
   56SOL    MW4  271   2.062   0.732   0.630  0.1218 -0.1144 -0.2018
   57SOL     OW  272   0.066   3.549   0.615  0.4822 -0.1253 -0.4659
   57SOL    HW2  273   0.024   3.464   0.603 -1.3574  0.7277 -0.3318
   57SOL    HW3  274  -0.007   3.612   0.614  1.6319  1.2829  1.1375
   57SOL    MW4  275   0.050   3.546   0.613  0.3912  0.1731 -0.2367
   58SOL     OW  276   3.772   2.680   0.878  0.7192 -0.1370  0.2949
   58SOL    HW2  277   3.686   2.722   0.882  0.6889 -0.2268  0.6184
   58SOL    HW3  278   3.833   2.748   0.905  0.8240  0.1316 -0.6033
   58SOL    MW4  279   3.768   2.695   0.882  0.7288 -0.1137  0.2191
   59SOL     OW  280   4.470   4.409   0.534  0.2745  0.1374  0.5939
   59SOL    HW2  281   4.414   4.334   0.515  1.3989 -0.7650  0.8484
   59SOL    HW3  282   4.442   4.476   0.472 -1.0074 -0.3485  0.6349
   59SOL    MW4  283   4.459   4.408   0.523  0.2537 -0.0453  0.6329
   60SOL     OW  284   3.339   1.766   0.620 -0.1286  0.7126  0.0779
   60SOL    HW2  285   3.305   1.795   0.535 -0.6886  1.4051  0.5329
   60SOL    HW3  286   3.293   1.684   0.637 -1.2442  1.3971  0.4591
   60SOL    MW4  287   3.328   1.759   0.611 -0.3495  0.8943  0.1882
   61SOL     OW  288   2.653   1.552   0.524 -0.2105  0.2773 -0.3877
   61SOL    HW2  289   2.692   1.468   0.549  0.0559  0.7753  0.9064
   61SOL    HW3  290   2.569   1.529   0.484 -0.6141 -0.5483  0.9219
   61SOL    MW4  291   2.647   1.538   0.522 -0.2289  0.2340 -0.0442
   62SOL     OW  292   4.049   2.410   0.764 -0.4620  0.4756 -0.2725
   62SOL    HW2  293   4.108   2.340   0.791 -0.3264  0.5368 -0.4124
   62SOL    HW3  294   4.102   2.489   0.769 -0.9168  0.7193  0.9492
   62SOL    MW4  295   4.064   2.411   0.769 -0.5035  0.5159 -0.1298
   63SOL     OW  296   2.509   2.445   0.763  0.2401  0.0657  0.1873
   63SOL    HW2  297   2.583   2.496   0.798 -0.2624  0.4127  0.7503
   63SOL    HW3  298   2.510   2.364   0.814  0.3642 -0.0200  0.0482
   63SOL    MW4  299   2.519   2.441   0.775  0.1903  0.1004  0.2432
   64SOL     OW  300   3.219   0.125   0.459 -0.2641  0.3185  0.0387
   64SOL    HW2  301   3.157   0.090   0.396 -0.4372  0.4631  0.1278
   64SOL    HW3  302   3.235   0.214   0.430  0.2683  0.1296 -0.2555
   64SOL    MW4  303   3.213   0.132   0.447 -0.2165  0.3127  0.0117
   65SOL     OW  304   3.259   0.882   0.610 -0.2794 -0.3181 -0.3263
   65SOL    HW2  305   3.325   0.881   0.679  0.6867 -1.4613 -1.2518
   65SOL    HW3  306   3.182   0.922   0.651  0.6066 -0.0459  1.1003
   65SOL    MW4  307   3.257   0.887   0.624 -0.0350 -0.4330 -0.2602
   66SOL     OW  308   2.208   2.236   0.553  0.2040 -0.4975  1.0059
   66SOL    HW2  309   2.273   2.176   0.517 -0.9324 -1.9073  1.2950
   66SOL    HW3  310   2.127   2.185   0.558 -1.0494  1.3741  0.2233
   66SOL    MW4  311   2.206   2.222   0.549 -0.1116 -0.4365  0.9408
   67SOL     OW  312   4.162   1.960   0.801 -0.2099  0.0470 -0.3474
   67SOL    HW2  313   4.176   2.053   0.821 -0.4405  0.2069 -0.9233
   67SOL    HW3  314   4.074   1.942   0.833 -0.4394  0.2091 -0.8972
   67SOL    MW4  315   4.152   1.970   0.808 -0.2704  0.0893 -0.4959
   68SOL     OW  316   1.385   1.333   0.648 -0.1710  0.4758  0.0802
   68SOL    HW2  317   1.342   1.412   0.616 -0.2809  0.2802 -0.2626
   68SOL    HW3  318   1.407   1.284   0.568 -1.6799 -0.6583  0.3277
   68SOL    MW4  319   1.382   1.337   0.633 -0.3844  0.3004  0.0677
   69SOL     OW  320   0.295   1.470   0.884  0.0547 -0.0771 -0.3362
   69SOL    HW2  321   0.349   1.392   0.879  0.9090  0.4424  0.5949
   69SOL    HW3  322   0.206   1.439   0.863  0.2871 -1.3936  0.5620
   69SOL    MW4  323   0.290   1.456   0.881  0.1981 -0.1822 -0.0949
   70SOL     OW  324   1.262   4.239   0.602 -0.5739 -0.2260  0.6398
   70SOL    HW2  325   1.331   4.257   0.665 -0.1855 -0.4971  0.3011
   70SOL    HW3  326   1.296   4.165   0.551 -0.9850 -0.1669  0.2783
   70SOL    MW4  327   1.276   4.231   0.603 -0.5769 -0.2537  0.5474
   71SOL     OW  328   2.235   0.488   0.918  0.2445 -0.0287  0.7004
   71SOL    HW2  329   2.174   0.530   0.979  1.3360  0.6911  1.3240
   71SOL    HW3  330   2.192   0.494   0.833  0.9068  3.5624  0.5216
   71SOL    MW4  331   2.221   0.494   0.915  0.4756  0.5401  0.7591
   72SOL     OW  332   2.803   4.158   0.266 -0.3443  0.2997 -0.2314
   72SOL    HW2  333   2.825   4.178   0.175 -1.6145  1.1403 -0.3713
   72SOL    HW3  334   2.864   4.210   0.317  0.4413 -0.2507 -0.5996
   72SOL    MW4  335   2.814   4.168   0.260 -0.4084  0.3381 -0.2984
   73SOL     OW  336   2.778   3.749   0.818  0.7145 -0.1848  0.1426
   73SOL    HW2  337   2.778   3.735   0.723  0.8567 -0.7395  0.2245
   73SOL    HW3  338   2.717   3.822   0.831  1.2479  0.3748 -0.4453
   73SOL    MW4  339   2.770   3.757   0.807  0.8035 -0.1841  0.0759
   74SOL     OW  340   0.645   1.331   0.495  0.1114 -0.3914 -0.2218
   74SOL    HW2  341   0.625   1.425   0.500 -0.2481 -0.5195  1.0017
   74SOL    HW3  342   0.719   1.325   0.435 -0.1482  0.6369 -0.6448
   74SOL    MW4  343   0.652   1.343   0.488  0.0297 -0.2726 -0.1162
   75SOL     OW  344   0.163   0.093   0.484 -0.0214 -0.0708  0.7072
   75SOL    HW2  345   0.087   0.041   0.457  0.4661 -0.8493  0.8109
   75SOL    HW3  346   0.136   0.135   0.566 -0.6233  0.2973  0.3195
   75SOL    MW4  347   0.149   0.092   0.491 -0.0365 -0.1249  0.6697
   76SOL     OW  348   2.643   2.035   0.702  0.3887  0.0456  0.2259
   76SOL    HW2  349   2.717   2.093   0.687  1.2791 -1.4751 -1.5915
   76SOL    HW3  350   2.587   2.047   0.625  0.7509 -1.6951 -0.3450
   76SOL    MW4  351   2.645   2.044   0.690  0.5538 -0.3850 -0.0892
   77SOL     OW  352   4.484   1.110   0.872 -0.4549  0.3714 -0.1785
   77SOL    HW2  353   4.408   1.056   0.849  0.6518 -0.3367 -2.3059
   77SOL    HW3  354   4.555   1.074   0.819  0.8141  2.5589  0.0155
   77SOL    MW4  355   4.483   1.098   0.862 -0.1414  0.5665 -0.4336
   78SOL     OW  356   1.118   1.252   0.491 -0.4128  0.3516  0.0520
   78SOL    HW2  357   1.098   1.292   0.576 -0.4915  0.3450  0.0370
   78SOL    HW3  358   1.063   1.173   0.488 -0.4294  0.3656 -0.0163
   78SOL    MW4  359   1.108   1.247   0.502 -0.4253  0.3526  0.0409
   79SOL     OW  360   1.181   1.752   0.745  0.3616  0.1088  0.0652
   79SOL    HW2  361   1.162   1.824   0.686  1.5480 -0.5352 -1.1435
   79SOL    HW3  362   1.221   1.793   0.822 -1.8963  1.0279  0.7722
   79SOL    MW4  363   1.184   1.767   0.747  0.2202  0.1451 -0.0010
   80SOL     OW  364   3.769   4.626   1.116  0.3652 -0.1222 -0.8075
   80SOL    HW2  365   3.800   4.618   1.026  0.9548 -2.9810 -0.4032
   80SOL    HW3  366   3.767   4.536   1.149 -2.6156  0.5787  1.1324
   80SOL    MW4  367   3.773   4.614   1.109  0.0496 -0.4072 -0.4983
   81SOL     OW  368   3.577   2.811   1.163  0.5597 -0.1164 -0.1986
   81SOL    HW2  369   3.495   2.831   1.208  1.6960  0.3653  1.7312
   81SOL    HW3  370   3.595   2.720   1.186  1.4154  0.2910  0.8188
   81SOL    MW4  371   3.568   2.802   1.172  0.8228  0.0010  0.1904
   82SOL     OW  372   3.807   1.591   0.510  0.0532 -0.3805 -0.4134
   82SOL    HW2  373   3.861   1.624   0.438 -0.0522  0.9123  0.0763
   82SOL    HW3  374   3.859   1.608   0.588 -0.0791 -1.2443 -0.1389
   82SOL    MW4  375   3.821   1.598   0.511  0.0219 -0.3239 -0.3126
   83SOL     OW  376   0.521   4.211   1.066 -0.3155  0.2103 -0.0254
   83SOL    HW2  377   0.440   4.254   1.037 -0.4792 -0.3046 -0.3251
   83SOL    HW3  378   0.562   4.275   1.124 -0.9979  0.4308  0.2195
   83SOL    MW4  379   0.515   4.225   1.070 -0.4272  0.1712 -0.0325
   84SOL     OW  380   3.429   4.569   0.857  0.3118  0.4187 -0.5113
   84SOL    HW2  381   3.370   4.586   0.784 -0.4289  1.3496  0.3013
   84SOL    HW3  382   3.378   4.589   0.935  0.9630 -0.9481  0.2889
   84SOL    MW4  383   3.415   4.574   0.857  0.3002  0.3610 -0.2985
   85SOL     OW  384   3.380   3.080   1.173  0.1380 -0.1893 -0.1754
   85SOL    HW2  385   3.460   3.129   1.189 -0.9171  1.0499  1.5087
   85SOL    HW3  386   3.361   3.095   1.080  1.5245 -0.0005 -0.4321
   85SOL    MW4  387   3.388   3.089   1.163  0.1819 -0.0007  0.0129
   86SOL     OW  388   4.183   2.630   0.410 -0.3137  0.4008  0.3482
   86SOL    HW2  389   4.261   2.683   0.431 -1.7720  1.3174  3.8098
   86SOL    HW3  390   4.214   2.540   0.415  1.0158  0.8074 -0.3409
   86SOL    MW4  391   4.198   2.625   0.414 -0.3309  0.5755  0.7140
   87SOL     OW  392   3.350   2.790   0.353 -0.3762 -0.0575  0.2422
   87SOL    HW2  393   3.413   2.786   0.425 -1.7252 -1.3832  1.3891
   87SOL    HW3  394   3.316   2.879   0.356  1.2274  0.5957 -0.2266
   87SOL    MW4  395   3.354   2.801   0.363 -0.3426 -0.1464  0.3317
   88SOL     OW  396   4.230   1.485   1.169  0.0889 -0.1453 -0.6682
   88SOL    HW2  397   4.236   1.391   1.187  0.8996  0.0836  0.2836
   88SOL    HW3  398   4.308   1.523   1.211 -0.6358  1.0561 -0.3886
   88SOL    MW4  399   4.241   1.478   1.177  0.1001  0.0434 -0.5057
   89SOL     OW  400   3.252   2.232   0.615 -0.1275  0.3282 -0.3342
   89SOL    HW2  401   3.236   2.220   0.522 -1.6902 -1.5663  0.1246
   89SOL    HW3  402   3.268   2.144   0.648  0.4697  0.9834  1.1700
   89SOL    MW4  403   3.252   2.219   0.607 -0.2546  0.1645 -0.0752
   90SOL     OW  404   3.800   2.686   0.573 -0.0521 -0.0798 -0.2538
   90SOL    HW2  405   3.807   2.606   0.522 -1.6547  0.0878 -0.7736
   90SOL    HW3  406   3.781   2.657   0.662 -0.8154 -0.2676 -0.4811
   90SOL    MW4  407   3.798   2.672   0.578 -0.3641 -0.0825 -0.3524
   91SOL     OW  408   1.828   2.162   0.793  0.3940  0.2715 -0.1020
   91SOL    HW2  409   1.902   2.203   0.839  1.1173 -0.1836 -0.8384
   91SOL    HW3  410   1.857   2.155   0.702 -0.8356  0.7193 -0.5367
   91SOL    MW4  411   1.842   2.166   0.787  0.3272  0.2708 -0.2564
   92SOL     OW  412   2.283   3.454   1.148 -0.4515 -0.2160  0.1338
   92SOL    HW2  413   2.287   3.368   1.189 -3.6829 -0.0292  1.0040
   92SOL    HW3  414   2.288   3.436   1.054  0.2299 -1.2382  0.3644
   92SOL    MW4  415   2.284   3.440   1.141 -0.7880 -0.3259  0.2789
   93SOL     OW  416   2.411   0.908   0.788 -0.3832 -0.3126 -0.2527
   93SOL    HW2  417   2.421   0.832   0.846 -0.2284  0.8328  1.2653
   93SOL    HW3  418   2.331   0.951   0.818  0.4000  1.0189 -0.0080
   93SOL    MW4  419   2.402   0.904   0.800 -0.2596  0.0142 -0.0201
   94SOL     OW  420   0.494   0.107   0.725  0.2653  0.3298  0.1658
   94SOL    HW2  421   0.505   0.197   0.692  0.3733  0.2065 -0.1319
   94SOL    HW3  422   0.470   0.056   0.648  2.0178 -0.2451 -0.0123
   94SOL    MW4  423   0.492   0.112   0.711  0.5108  0.2376  0.1030
   95SOL     OW  424   3.961   1.765   0.358 -0.2353  0.1939 -0.2947
   95SOL    HW2  425   4.024   1.713   0.309  0.4240  0.1168  0.6222
   95SOL    HW3  426   4.014   1.826   0.409 -0.8895  0.0373  0.5908
   95SOL    MW4  427   3.976   1.766   0.359 -0.2344  0.1631 -0.0570
   96SOL     OW  428   2.478   2.837   1.240  0.0276 -0.0353  0.0027
   96SOL    HW2  429   2.530   2.770   1.195 -0.0250 -0.3301  0.3754
   96SOL    HW3  430   2.500   2.825   1.333 -1.5777 -0.9315  0.2839
   96SOL    MW4  431   2.488   2.826   1.246 -0.1910 -0.1924  0.0889
   97SOL     OW  432   2.981   1.984   0.845  0.3875 -0.1955  0.0331
   97SOL    HW2  433   2.935   2.056   0.803  0.5268  0.2098  0.5742
   97SOL    HW3  434   2.965   1.996   0.939 -0.5873 -1.5459  0.0567
   97SOL    MW4  435   2.973   1.995   0.852  0.2773 -0.3202  0.1076
   98SOL     OW  436   1.866   2.637   0.519 -0.2557 -0.3012  0.2467
   98SOL    HW2  437   1.955   2.602   0.531  0.1447 -0.2802 -2.4488
   98SOL    HW3  438   1.808   2.567   0.550  0.6491 -1.4032 -0.5165
   98SOL    MW4  439   1.870   2.623   0.525 -0.0836 -0.4439 -0.2096
   99SOL     OW  440   2.702   3.506   0.946 -0.3020  0.2778 -0.2991
   99SOL    HW2  441   2.730   3.589   0.909 -1.3449  0.2358 -1.2269
   99SOL    HW3  442   2.620   3.486   0.901 -0.1893 -1.1359  0.0832
   99SOL    MW4  443   2.694   3.514   0.936 -0.4249  0.0856 -0.3710
  100SOL     OW  444   2.250   3.448   0.844 -0.3565 -0.3030 -0.2763
  100SOL    HW2  445   2.161   3.418   0.864 -0.5834  1.3579  1.3027
  100SOL    HW3  446   2.238   3.532   0.800  0.4412  0.9820  1.8620
  100SOL    MW4  447   2.237   3.455   0.841 -0.2813  0.0858  0.2142
  101SOL     OW  448   3.619   0.395   0.891 -0.1558 -0.2154 -0.1011
  101SOL    HW2  449   3.700   0.422   0.848  0.2752 -0.1553  0.7415
  101SOL    HW3  450   3.563   0.472   0.887  0.2080  0.0645  0.2273
  101SOL    MW4  451   3.622   0.409   0.885 -0.0510 -0.1706  0.0534
  102SOL     OW  452   0.127   2.296   1.192 -0.5502  0.0441 -0.0225
  102SOL    HW2  453   0.135   2.222   1.253 -1.8682  1.1711  1.5436
  102SOL    HW3  454   0.051   2.345   1.222 -1.2799  0.6158 -2.6312
  102SOL    MW4  455   0.118   2.292   1.204 -0.8204  0.2685 -0.1601
  103SOL     OW  456   0.910   0.679   0.699 -0.1943  0.4623 -0.1366
  103SOL    HW2  457   0.932   0.588   0.717 -0.3600  0.2471 -0.9816
  103SOL    HW3  458   0.823   0.691   0.739  0.3201  0.5800  0.9620
  103SOL    MW4  459   0.901   0.668   0.707 -0.1483  0.4494 -0.1031
  104SOL     OW  460   0.198   3.034   0.898 -0.0517 -0.2699  0.1722
  104SOL    HW2  461   0.255   3.096   0.853  2.3483 -0.4563  2.8112
  104SOL    HW3  462   0.222   3.042   0.990 -1.4992 -3.2709  0.8711
  104SOL    MW4  463   0.209   3.043   0.904  0.0739 -0.6902  0.6127
  105SOL     OW  464   1.575   1.455   0.833 -0.2759 -0.0102  0.1581
  105SOL    HW2  465   1.658   1.407   0.827 -0.1575  0.0807  1.1255
  105SOL    HW3  466   1.510   1.395   0.794 -0.3749 -1.5321  2.5683
  105SOL    MW4  467   1.577   1.440   0.827 -0.2733 -0.1991  0.6038
  106SOL     OW  468   1.999   3.564   0.487 -0.0383  0.1263  0.4465
  106SOL    HW2  469   1.956   3.480   0.501  1.3114 -0.4854  1.0265
  106SOL    HW3  470   2.069   3.545   0.424  0.7203  0.6553  1.1120
  106SOL    MW4  471   2.003   3.550   0.481  0.2396  0.1154  0.6108
  107SOL     OW  472   1.773   3.719   0.803  0.5003  0.0502 -0.1917
  107SOL    HW2  473   1.703   3.771   0.844 -0.9604 -2.0070  0.0221
  107SOL    HW3  474   1.753   3.722   0.709 -0.0268 -0.7350 -0.1082
  107SOL    MW4  475   1.761   3.726   0.796  0.2381 -0.3247 -0.1525
  108SOL     OW  476   2.248   0.401   0.369  0.1825 -0.1064 -0.0533
  108SOL    HW2  477   2.321   0.462   0.353  0.0213  0.0482 -0.2105
  108SOL    HW3  478   2.290   0.318   0.391  0.4125 -0.1885 -0.7861
  108SOL    MW4  479   2.263   0.398   0.370  0.1915 -0.0969 -0.1707
  109SOL     OW  480   0.455   3.239   0.460 -0.1349  0.3851  0.3623
  109SOL    HW2  481   0.395   3.184   0.409  0.9832  0.4864 -1.0894
  109SOL    HW3  482   0.423   3.232   0.550 -1.4851 -0.6742 -0.1817
  109SOL    MW4  483   0.443   3.231   0.465 -0.1656  0.2587  0.0990
  110SOL     OW  484   0.584   1.924   0.527  0.2352 -0.0204  0.1475
  110SOL    HW2  485   0.672   1.961   0.534  0.6742 -1.3813  2.3100
  110SOL    HW3  486   0.598   1.832   0.505 -0.6928 -0.0578 -0.3321
  110SOL    MW4  487   0.597   1.917   0.525  0.1708 -0.2048  0.3695
  111SOL     OW  488   0.194   1.166   0.542 -0.3637  0.3029  0.0305
  111SOL    HW2  489   0.224   1.129   0.625  0.1460 -1.4079 -0.8706
  111SOL    HW3  490   0.161   1.253   0.564  0.7195  0.2826  1.8531
  111SOL    MW4  491   0.194   1.172   0.556 -0.1535  0.0745  0.1521
  112SOL     OW  492   2.697   0.099   0.427 -0.4796  0.7015  0.1295
  112SOL    HW2  493   2.704   0.186   0.468 -0.4296  0.8984 -0.2960
  112SOL    HW3  494   2.608   0.096   0.392 -0.6275  0.4109  0.5233
  112SOL    MW4  495   2.687   0.110   0.428 -0.4926  0.6891  0.1253
  113SOL     OW  496   2.699   2.685   1.107 -0.1710 -0.1398  0.2713
  113SOL    HW2  497   2.687   2.680   1.012  0.6032 -0.5887  0.1907
  113SOL    HW3  498   2.722   2.596   1.133 -0.8063 -0.1135  0.9450
  113SOL    MW4  499   2.701   2.673   1.098 -0.1526 -0.1955  0.3495
  114SOL     OW  500   2.383   4.044   0.824  0.3615 -0.2193 -0.0894
  114SOL    HW2  501   2.374   3.983   0.750  0.3729  1.6140 -1.6450
  114SOL    HW3  502   2.388   4.130   0.783  0.2326  0.8488  2.0870
  114SOL    MW4  503   2.383   4.047   0.808  0.3462  0.1631 -0.0075
  115SOL     OW  504   1.061   3.352   0.576  0.1301  0.1981 -0.4421
  115SOL    HW2  505   0.974   3.355   0.535 -0.3772 -0.9987  0.5066
  115SOL    HW3  506   1.047   3.386   0.664  0.6780  0.2404 -0.3744
  115SOL    MW4  507   1.047   3.357   0.582  0.1354  0.0453 -0.3080
  116SOL     OW  508   3.416   3.905   0.890 -0.3393  0.1196  0.2305
  116SOL    HW2  509   3.395   3.864   0.973 -0.8996  0.1288  0.0991
  116SOL    HW3  510   3.341   3.962   0.872  1.2881  2.7193  1.3674
  116SOL    MW4  511   3.403   3.907   0.898 -0.1986  0.4640  0.3632
  117SOL     OW  512   0.477   0.499   0.854 -0.3641  0.3417  0.3085
  117SOL    HW2  513   0.545   0.566   0.846  0.4873 -0.3250  1.8663
  117SOL    HW3  514   0.397   0.542   0.823  0.3002  1.8674  0.6744
  117SOL    MW4  515   0.475   0.514   0.849 -0.1641  0.4550  0.5623
  118SOL     OW  516   2.990   2.433   0.818  0.0858  0.5127  0.4882
  118SOL    HW2  517   2.946   2.391   0.892 -1.2056  1.4767  0.2825
  118SOL    HW3  518   3.007   2.522   0.847 -2.0751  1.4626 -0.9702
  118SOL    MW4  519   2.986   2.439   0.831 -0.3698  0.7651  0.2686
  119SOL     OW  520   0.275   1.014   0.773  0.3471  0.0999 -0.0499
  119SOL    HW2  521   0.340   0.968   0.720 -1.4822 -0.2467 -2.0610
  119SOL    HW3  522   0.235   0.946   0.827  1.6521  0.3121  1.1786
  119SOL    MW4  523   0.278   0.999   0.773  0.2779  0.0821 -0.1532
  120SOL     OW  524   3.287   4.322   0.852  0.4295  0.1645 -0.2732
  120SOL    HW2  525   3.208   4.339   0.800  0.6111  2.3669  0.1585
  120SOL    HW3  526   3.335   4.404   0.851  1.3974 -0.3590  1.7880
  120SOL    MW4  527   3.283   4.335   0.845  0.5808  0.3858  0.0557
  121SOL     OW  528   3.637   0.171   0.486  0.2964 -0.2035 -0.0436
  121SOL    HW2  529   3.629   0.143   0.577  0.1053  0.6205  0.1960
  121SOL    HW3  530   3.565   0.232   0.473  0.3486 -0.2842 -0.7367
  121SOL    MW4  531   3.627   0.175   0.496  0.2782 -0.1055 -0.1034
  122SOL     OW  532   2.482   4.310   1.278  0.2586  0.5114  0.0809
  122SOL    HW2  533   2.453   4.357   1.200  1.9583  1.6492  0.0971
  122SOL    HW3  534   2.450   4.220   1.266  0.9907  0.5295 -2.2048
  122SOL    MW4  535   2.474   4.304   1.266  0.5794  0.6638 -0.2184
  123SOL     OW  536   1.795   3.754   0.505 -0.6026 -1.0907 -0.3465
  123SOL    HW2  537   1.717   3.728   0.456  0.4933 -1.4766 -1.9368
  123SOL    HW3  538   1.854   3.678   0.498  0.1200 -0.6128  0.4073
  123SOL    MW4  539   1.793   3.740   0.498 -0.3628 -1.0788 -0.4569
  124SOL     OW  540   3.587   2.133   0.187 -0.5302 -0.0087  0.4037
  124SOL    HW2  541   3.651   2.073   0.224  0.2878  0.1454 -0.7398
  124SOL    HW3  542   3.577   2.202   0.252 -0.7923 -0.9026  1.3165
  124SOL    MW4  543   3.594   2.134   0.200 -0.4568 -0.1061  0.3733
  125SOL     OW  544   0.389   4.216   0.320 -0.3049 -0.2460  0.1950
  125SOL    HW2  545   0.351   4.262   0.394  0.5240  0.3949  0.2223
  125SOL    HW3  546   0.446   4.280   0.278  0.7575 -1.2007  0.1641
  125SOL    MW4  547   0.391   4.230   0.324 -0.0554 -0.2871  0.1945
  126SOL     OW  548   2.225   4.043   1.099  0.7005  0.3222  0.4834
  126SOL    HW2  549   2.256   4.040   1.008  0.4311  1.0196  0.3648
  126SOL    HW3  550   2.155   3.978   1.103 -0.4488  1.4803 -0.2593
  126SOL    MW4  551   2.220   4.034   1.087  0.5133  0.5670  0.3698
  127SOL     OW  552   0.752   4.075   0.260 -0.0409  0.0026  0.4001
  127SOL    HW2  553   0.673   4.053   0.309 -0.1988  1.1197  0.6677
  127SOL    HW3  554   0.814   4.105   0.326 -0.5189  2.2868 -0.1181
  127SOL    MW4  555   0.750   4.076   0.275 -0.1248  0.4516  0.3670
  128SOL     OW  556   0.640   2.310   0.906 -0.6094 -0.1044 -0.0992
  128SOL    HW2  557   0.566   2.277   0.856  0.9933 -0.9551 -1.9693
  128SOL    HW3  558   0.643   2.403   0.886  0.8692 -0.6919 -2.7474
  128SOL    MW4  559   0.631   2.318   0.897 -0.2029 -0.2942 -0.6953
  129SOL     OW  560   3.048   0.241   0.670 -0.4087 -0.3929 -0.2880
  129SOL    HW2  561   3.102   0.219   0.594 -0.3135 -1.6319  0.1118
  129SOL    HW3  562   3.110   0.278   0.733 -0.3905  0.1205 -0.6093
  129SOL    MW4  563   3.064   0.243   0.669 -0.3939 -0.4886 -0.2776
  130SOL     OW  564   1.079   2.269   0.913 -0.1221 -0.1138  0.1701
  130SOL    HW2  565   1.093   2.358   0.881 -0.1810 -0.1510  0.0384
  130SOL    HW3  566   1.159   2.221   0.887  0.4956  0.2234  1.4229
  130SOL    MW4  567   1.092   2.274   0.905 -0.0483 -0.0739  0.3179
  131SOL     OW  568   1.270   2.188   0.541  0.3154 -0.7686  0.0890
  131SOL    HW2  569   1.288   2.185   0.635  0.2927  0.0587  0.1242
  131SOL    HW3  570   1.226   2.272   0.528  0.9142 -0.5803 -0.7620
  131SOL    MW4  571   1.267   2.199   0.552  0.3914 -0.6344 -0.0185
  132SOL     OW  572   2.289   3.308   0.416  0.2631 -0.1042  0.3677
  132SOL    HW2  573   2.276   3.305   0.321  1.3022  1.2713  0.1631
  132SOL    HW3  574   2.278   3.218   0.445 -0.5610 -0.4545 -0.9946
  132SOL    MW4  575   2.286   3.296   0.407  0.2913  0.0310  0.1610
  133SOL     OW  576   4.484   0.323   0.883 -0.3567 -0.1442 -0.1010
  133SOL    HW2  577   4.484   0.341   0.977  1.7008 -0.3644 -0.0408
  133SOL    HW3  578   4.469   0.229   0.876  2.2612 -0.6080  0.1430
  133SOL    MW4  579   4.482   0.313   0.894  0.2601 -0.2345 -0.0609
  134SOL     OW  580   3.608   0.081   0.736 -0.2556  0.0681  0.0908
  134SOL    HW2  581   3.614   0.166   0.779  0.4350  0.5155 -0.8999
  134SOL    HW3  582   3.550   0.030   0.794 -1.7939  1.6238 -0.0180
  134SOL    MW4  583   3.601   0.085   0.749 -0.3674  0.3324 -0.0544
  135SOL     OW  584   0.838   2.866   0.419  0.5181  0.5182 -0.4282
  135SOL    HW2  585   0.754   2.838   0.455  0.6206  0.2191 -0.4196
  135SOL    HW3  586   0.830   2.961   0.410  0.0736  0.4589 -0.6963
  135SOL    MW4  587   0.826   2.874   0.422  0.4730  0.4709 -0.4624
  136SOL     OW  588   3.366   2.465   0.529  0.4087 -0.3176 -0.1831
  136SOL    HW2  589   3.373   2.530   0.599  0.5395  0.2321 -0.6979
  136SOL    HW3  590   3.335   2.386   0.572  0.8981 -0.1021  0.5674
  136SOL    MW4  591   3.363   2.464   0.544  0.4907 -0.2167 -0.1520
  137SOL     OW  592   0.476   0.311   0.266 -0.2245 -0.0515 -0.1163
  137SOL    HW2  593   0.523   0.230   0.282 -0.7429 -0.1824  0.7919
  137SOL    HW3  594   0.425   0.294   0.187  0.1414 -0.3985 -0.2771
  137SOL    MW4  595   0.475   0.298   0.258 -0.2446 -0.1146 -0.0176
  138SOL     OW  596   2.010   3.842   0.876 -0.3535 -0.5667  0.1227
  138SOL    HW2  597   2.002   3.844   0.971 -0.6172 -0.3301  0.0981
  138SOL    HW3  598   1.924   3.812   0.845  0.1905 -2.0200  0.0154
  138SOL    MW4  599   1.997   3.838   0.884 -0.3166 -0.7269  0.1053
  139SOL     OW  600   1.336   1.608   1.244  0.3757  0.3607  0.0380
  139SOL    HW2  601   1.400   1.575   1.182 -0.3940  1.6683 -1.4906
  139SOL    HW3  602   1.252   1.593   1.203 -0.0930  2.2088  0.2608
  139SOL    MW4  603   1.334   1.602   1.231  0.2123  0.7771 -0.1341
  140SOL     OW  604   3.952   3.616   0.706 -0.0563 -0.5445  0.0382
  140SOL    HW2  605   4.022   3.559   0.740 -0.6169 -0.8831  0.6407
  140SOL    HW3  606   3.908   3.648   0.784 -0.1506  0.2147 -0.3263
  140SOL    MW4  607   3.956   3.613   0.721 -0.1428 -0.4888  0.0696
  141SOL     OW  608   2.942   1.894   0.483 -0.1345 -0.4939 -0.5964
  141SOL    HW2  609   2.916   1.847   0.562  0.3199 -1.2618 -0.8992
  141SOL    HW3  610   3.026   1.856   0.459  0.9179  1.4490 -0.0636
  141SOL    MW4  611   2.949   1.882   0.490  0.0648 -0.3389 -0.5660
  142SOL     OW  612   1.821   2.689   0.877 -0.0505 -0.2767  0.1304
  142SOL    HW2  613   1.830   2.772   0.829 -0.5854 -0.6855 -0.6936
  142SOL    HW3  614   1.734   2.657   0.853 -0.7885  0.0496  2.2676
  142SOL    MW4  615   1.811   2.696   0.867 -0.2185 -0.2875  0.3037
  143SOL     OW  616   1.123   4.442   0.454  0.0823 -0.0066 -0.6094
  143SOL    HW2  617   1.041   4.418   0.497 -0.1631  1.7836 -0.0309
  143SOL    HW3  618   1.186   4.378   0.485 -1.0237 -1.2069 -0.7989
  143SOL    MW4  619   1.120   4.430   0.464 -0.0960  0.0715 -0.5581
  144SOL     OW  620   3.339   1.264   0.746  0.1941  0.3853  0.0410
  144SOL    HW2  621   3.410   1.235   0.803  1.1170  2.1585 -0.1675
  144SOL    HW3  622   3.260   1.232   0.789  1.0793 -1.5217  0.3461
  144SOL    MW4  623   3.338   1.256   0.759  0.4327  0.3676  0.0538
  145SOL     OW  624   1.700   1.195   0.401 -0.0660  0.3746 -0.6873
  145SOL    HW2  625   1.611   1.197   0.365 -0.1159  1.4677 -0.5339
  145SOL    HW3  626   1.701   1.118   0.458 -0.4640 -0.4787 -1.8066
  145SOL    MW4  627   1.688   1.185   0.404 -0.1251  0.4063 -0.8147
  146SOL     OW  628   2.656   4.011   0.882 -0.4894  0.1206  0.1875
  146SOL    HW2  629   2.670   4.006   0.977 -0.2228 -0.6920  0.1067
  146SOL    HW3  630   2.563   4.030   0.872 -0.5447  0.0658  0.6089
  146SOL    MW4  631   2.646   4.013   0.893 -0.4613  0.0067  0.2325
  147SOL     OW  632   0.814   0.095   0.529  0.1152  0.4361 -0.1598
  147SOL    HW2  633   0.768   0.171   0.564 -0.1500  0.6989 -1.0621
  147SOL    HW3  634   0.765   0.072   0.449 -0.0783 -0.9417  0.3370
  147SOL    MW4  635   0.801   0.102   0.523  0.0547  0.2890 -0.2133
  148SOL     OW  636   3.993   1.901   1.139  0.0454 -0.2890  0.6696
  148SOL    HW2  637   4.006   1.815   1.180  1.7326 -0.7995 -0.8574
  148SOL    HW3  638   3.967   1.881   1.049  0.8652  0.7920  0.1826
  148SOL    MW4  639   3.991   1.887   1.132  0.3762 -0.2136  0.4039
  149SOL     OW  640   3.737   3.265   0.870 -0.0136 -0.4876 -0.1800
  149SOL    HW2  641   3.686   3.190   0.841  2.0550 -2.4687  1.0610
  149SOL    HW3  642   3.737   3.325   0.796 -0.7376 -2.2613 -1.6502
  149SOL    MW4  643   3.730   3.263   0.857  0.1633 -0.9830 -0.2103
  150SOL     OW  644   0.812   3.125   0.723 -0.3726 -0.4854 -0.3059
  150SOL    HW2  645   0.806   3.125   0.628  1.3439  0.4965 -0.4505
  150SOL    HW3  646   0.888   3.070   0.742  1.2687  1.9125  0.2874
  150SOL    MW4  647   0.822   3.118   0.713  0.0704 -0.0396 -0.2466
  151SOL     OW  648   1.278   0.224   0.553 -0.4090 -0.3015  0.1472
  151SOL    HW2  649   1.202   0.239   0.496 -0.2620  0.8173  0.2362
  151SOL    HW3  650   1.278   0.129   0.568 -1.3175 -0.4158 -0.5032
  151SOL    MW4  651   1.268   0.213   0.547 -0.5095 -0.1690  0.0731
  152SOL     OW  652   3.633   1.048   0.477 -0.2180  0.1812 -0.1274
  152SOL    HW2  653   3.546   1.084   0.456  0.3731 -0.2357 -3.4764
  152SOL    HW3  654   3.686   1.125   0.498 -0.5787  0.7091 -1.1497
  152SOL    MW4  655   3.628   1.063   0.477 -0.1876  0.1960 -0.7041
  153SOL     OW  656   2.139   1.446   0.492 -0.2998 -0.7549  0.0950
  153SOL    HW2  657   2.047   1.421   0.483 -0.3968  0.0082 -1.2792
  153SOL    HW3  658   2.137   1.541   0.503  0.3314 -0.7057 -0.1784
  153SOL    MW4  659   2.127   1.455   0.492 -0.2291 -0.6477 -0.1224
  154SOL     OW  660   2.387   0.224   0.909 -0.0613 -0.3533  0.0541
  154SOL    HW2  661   2.474   0.262   0.921 -0.1753 -0.5321  1.4965
  154SOL    HW3  662   2.329   0.299   0.904 -0.1120 -0.2960  1.4701
  154SOL    MW4  663   2.391   0.239   0.910 -0.0830 -0.3693  0.4312
  155SOL     OW  664   4.375   1.857   0.454  0.1244  0.5187 -0.1301
  155SOL    HW2  665   4.397   1.947   0.480 -0.2782 -0.1324  2.6046
  155SOL    HW3  666   4.280   1.855   0.453  0.1196  0.6301 -2.1804
  155SOL    MW4  667   4.366   1.869   0.458  0.0701  0.4475 -0.0398
  156SOL     OW  668   2.466   3.113   0.854 -0.0962  0.7669 -0.1182
  156SOL    HW2  669   2.496   3.197   0.820  1.4972 -0.0580 -0.8227
  156SOL    HW3  670   2.471   3.122   0.950  1.6226  0.9589 -0.2037
  156SOL    MW4  671   2.471   3.125   0.863  0.3407  0.6835 -0.2224
  157SOL     OW  672   2.154   0.456   0.635 -0.2245 -0.2061  0.5920
  157SOL    HW2  673   2.189   0.433   0.548  1.0136 -1.1667  1.3202
  157SOL    HW3  674   2.090   0.388   0.654  0.8815 -1.0925  1.2286
  157SOL    MW4  675   2.150   0.444   0.626  0.0846 -0.4498  0.7721
  158SOL     OW  676   1.339   2.193   0.816  0.1612 -0.1453  0.0070
  158SOL    HW2  677   1.339   2.102   0.845 -0.4860 -0.1337  0.0459
  158SOL    HW3  678   1.431   2.220   0.821  0.4807 -1.0533 -0.8477
  158SOL    MW4  679   1.351   2.185   0.821  0.1179 -0.2632 -0.1007
  159SOL     OW  680   3.425   4.550   0.487 -0.2136 -0.2088 -0.1354
  159SOL    HW2  681   3.433   4.642   0.459  2.0153 -0.7406 -1.3300
  159SOL    HW3  682   3.372   4.509   0.419 -1.2071  0.1558  0.3958
  159SOL    MW4  683   3.419   4.557   0.474 -0.0505 -0.2308 -0.2230
  160SOL     OW  684   2.785   4.350   0.801  0.3799  0.0958 -0.1531
  160SOL    HW2  685   2.752   4.273   0.754  1.5383 -0.4267 -0.1496
  160SOL    HW3  686   2.764   4.424   0.744 -0.0374 -0.3177 -0.5421
  160SOL    MW4  687   2.778   4.349   0.787  0.4776 -0.0281 -0.2040
  161SOL     OW  688   1.598   3.905   0.936  0.5893 -0.6147  0.0418
  161SOL    HW2  689   1.512   3.928   0.902  0.4404  0.4853  1.1559
  161SOL    HW3  690   1.581   3.871   1.024  1.3593  0.4387  0.6145
  161SOL    MW4  691   1.584   3.903   0.943  0.6711 -0.3307  0.2643
  162SOL     OW  692   1.709   2.400   0.548 -0.0748  0.1902  0.2703
  162SOL    HW2  693   1.642   2.349   0.593  0.9893 -1.4999  0.0336
  162SOL    HW3  694   1.742   2.340   0.481  1.1249  1.2639 -0.1157
  162SOL    MW4  695   1.705   2.385   0.545  0.2240  0.1087  0.1881
  163SOL     OW  696   0.142   1.862   0.796 -0.5801  0.5659 -0.0855
  163SOL    HW2  697   0.124   1.817   0.713 -0.0798 -1.7732  1.0403
  163SOL    HW3  698   0.061   1.853   0.846 -0.3362  0.5208  0.3082
  163SOL    MW4  699   0.129   1.855   0.792 -0.4819  0.2513  0.1150
  164SOL     OW  700   4.083   3.465   0.321 -0.3120  0.0552  0.0244
  164SOL    HW2  701   4.101   3.478   0.228 -1.0012  0.6076 -0.0285
  164SOL    HW3  702   4.141   3.393   0.346  0.5186  0.4933 -0.6225
  164SOL    MW4  703   4.093   3.457   0.312 -0.2937  0.1857 -0.0679
  165SOL     OW  704   2.554   1.207   0.429 -0.0520 -0.2003 -0.3688
  165SOL    HW2  705   2.577   1.174   0.516 -0.4733 -0.5355 -0.3818
  165SOL    HW3  706   2.628   1.261   0.404  0.2544 -0.4289  0.0299
  165SOL    MW4  707   2.567   1.210   0.437 -0.0672 -0.2748 -0.3179
  166SOL     OW  708   2.290   3.204   1.261  0.0386  0.2737 -0.2515
  166SOL    HW2  709   2.224   3.142   1.227  0.0458 -0.1279  0.4510
  166SOL    HW3  710   2.372   3.176   1.221 -0.3369  1.2530 -1.7425
  166SOL    MW4  711   2.292   3.192   1.251 -0.0098  0.3500 -0.3555
  167SOL     OW  712   1.490   3.149   0.485 -0.5284  0.2899 -0.1553
  167SOL    HW2  713   1.562   3.088   0.502  0.6872  1.7317 -0.0491
  167SOL    HW3  714   1.413   3.106   0.523  0.2990 -1.1686 -0.0736
  167SOL    MW4  715   1.489   3.135   0.492 -0.2588  0.2878 -0.1305
  168SOL     OW  716   1.171   3.603   0.739  0.1278  0.3942 -0.6955
  168SOL    HW2  717   1.155   3.572   0.650 -1.3170  0.2851 -0.4092
  168SOL    HW3  718   1.089   3.644   0.765  0.7771  1.0566  0.3318
  168SOL    MW4  719   1.158   3.604   0.731  0.0226  0.4673 -0.5222
  169SOL     OW  720   4.253   1.655   0.642 -0.0892  0.1976 -0.1041
  169SOL    HW2  721   4.316   1.716   0.681 -0.5206  0.3138  0.4267
  169SOL    HW3  722   4.190   1.711   0.596 -0.6555  0.1858  0.6333
  169SOL    MW4  723   4.253   1.670   0.641 -0.2203  0.2114  0.0633
  170SOL     OW  724   2.628   1.793   0.829 -0.2659  0.1051  0.1036
  170SOL    HW2  725   2.659   1.811   0.918 -0.7616  0.5566  0.1852
  170SOL    HW3  726   2.636   1.877   0.783  1.4711 -0.4821 -0.7242
  170SOL    MW4  727   2.633   1.807   0.834 -0.1020  0.0870  0.0052
  171SOL     OW  728   3.403   1.642   0.892 -0.1984  0.0637 -0.1528
  171SOL    HW2  729   3.342   1.626   0.820 -0.3494 -0.1555  0.0238
  171SOL    HW3  730   3.361   1.602   0.968 -0.7209  1.5625  0.3571
  171SOL    MW4  731   3.390   1.635   0.892 -0.2871  0.2326 -0.0622
  172SOL     OW  732   4.217   3.245   0.444  0.5669  0.2366  0.0012
  172SOL    HW2  733   4.234   3.151   0.442  2.0354  0.5067 -2.4986
  172SOL    HW3  734   4.298   3.284   0.475 -0.3064  0.6582  1.8304
  172SOL    MW4  735   4.230   3.238   0.448  0.6456  0.3278 -0.0873
  173SOL     OW  736   2.872   2.198   0.719  0.3144 -0.3304  0.8107
  173SOL    HW2  737   2.915   2.281   0.739 -1.7443  1.1181 -0.5716
  173SOL    HW3  738   2.898   2.178   0.629 -1.5631  0.3788  0.0920
  173SOL    MW4  739   2.881   2.206   0.710 -0.2050 -0.0458  0.5335
  174SOL     OW  740   3.627   4.361   0.625 -0.0958  0.8309  0.0913
  174SOL    HW2  741   3.601   4.447   0.594 -0.4964  0.6906  0.0317
  174SOL    HW3  742   3.645   4.373   0.718  0.5758  1.1365 -0.0789
  174SOL    MW4  743   3.626   4.374   0.633 -0.0603  0.8531  0.0610
  175SOL     OW  744   3.747   1.269   0.789 -0.0142  0.5043 -0.0638
  175SOL    HW2  745   3.671   1.213   0.804  0.2832 -0.3205 -1.4479
  175SOL    HW3  746   3.712   1.358   0.788 -0.5615  0.3173  1.7398
  175SOL    MW4  747   3.732   1.273   0.791 -0.0472  0.3709 -0.0085
  176SOL     OW  748   2.771   3.044   0.608 -0.2208  0.3308 -0.3550
  176SOL    HW2  749   2.752   3.013   0.696 -0.6400 -0.2466 -0.6443
  176SOL    HW3  750   2.705   3.002   0.553 -0.1014  0.8621 -0.9104
  176SOL    MW4  751   2.760   3.034   0.612 -0.2601  0.3245 -0.4665
  177SOL     OW  752   3.832   4.053   0.740 -0.0864 -0.6762  0.3978
  177SOL    HW2  753   3.804   4.059   0.649 -1.2873 -1.3445  0.7169
  177SOL    HW3  754   3.928   4.047   0.735 -0.1800 -1.3362 -0.8613
  177SOL    MW4  755   3.841   4.053   0.728 -0.2573 -0.8512  0.2738
  178SOL     OW  756   4.124   3.660   0.494  0.1416 -0.2466  0.3315
  178SOL    HW2  757   4.104   3.594   0.428 -0.1786  0.4299 -0.2514
  178SOL    HW3  758   4.060   3.646   0.563  1.5043 -2.0311  1.2778
  178SOL    MW4  759   4.113   3.650   0.494  0.2789 -0.3927  0.3795
  179SOL     OW  760   0.632   4.048   0.853 -0.4274 -0.1407 -0.3803
  179SOL    HW2  761   0.638   4.124   0.911  0.6744 -0.3653 -0.1751
  179SOL    HW3  762   0.574   4.076   0.783 -0.0196  0.9109 -0.3154
  179SOL    MW4  763   0.625   4.062   0.852 -0.2282 -0.0315 -0.3447
  180SOL     OW  764   0.460   2.929   0.676  0.1248 -0.7150  0.1690
  180SOL    HW2  765   0.488   2.959   0.763  0.4994 -1.2573  0.2382
  180SOL    HW3  766   0.389   2.868   0.693 -0.1623 -0.4150  0.0620
  180SOL    MW4  767   0.455   2.925   0.690  0.1363 -0.7470  0.1640
  181SOL     OW  768   2.755   4.098   0.643 -0.3964  0.2877 -0.5198
  181SOL    HW2  769   2.686   4.126   0.583 -0.7137  0.3583 -0.1224
  181SOL    HW3  770   2.708   4.061   0.718  0.0036 -0.7629 -0.7767
  181SOL    MW4  771   2.740   4.097   0.645 -0.3855  0.1583 -0.5013
  182SOL     OW  772   2.791   3.309   0.513 -0.3293 -0.1921 -0.1957
  182SOL    HW2  773   2.703   3.343   0.497 -0.3374 -0.9949 -1.9301
  182SOL    HW3  774   2.778   3.215   0.530  0.1013 -0.1403  0.4426
  182SOL    MW4  775   2.778   3.301   0.513 -0.2739 -0.2911 -0.3403
  183SOL     OW  776   0.642   4.310   0.161  0.3841 -0.3803 -0.2207
  183SOL    HW2  777   0.692   4.235   0.193  3.5528  1.4896 -0.5592
  183SOL    HW3  778   0.667   4.317   0.069 -2.0222 -0.5216 -0.9233
  183SOL    MW4  779   0.652   4.301   0.153  0.4847 -0.1521 -0.3581
  184SOL     OW  780   3.809   0.526   0.537  0.0926  0.2956  0.4319
  184SOL    HW2  781   3.783   0.617   0.554  1.7008  0.6339  1.1923
  184SOL    HW3  782   3.821   0.523   0.442 -0.6360  0.7010  0.3237
  184SOL    MW4  783   3.807   0.538   0.526  0.2089  0.3937  0.5180
  185SOL     OW  784   3.274   0.388   0.451 -0.0665 -0.2484 -0.6377
  185SOL    HW2  785   3.357   0.430   0.472 -0.2810 -1.1569  2.2012
  185SOL    HW3  786   3.212   0.461   0.443  0.3519  0.2384  0.4237
  185SOL    MW4  787   3.277   0.403   0.452 -0.0393 -0.3041 -0.1231
  186SOL     OW  788   0.823   0.516   0.401  0.0301 -0.2666  0.0096
  186SOL    HW2  789   0.882   0.591   0.391 -1.4111  0.9520  0.4967
  186SOL    HW3  790   0.790   0.500   0.313  0.3733 -0.3632 -0.1028
  186SOL    MW4  791   0.827   0.524   0.388 -0.1147 -0.1186  0.0590
  187SOL     OW  792   3.092   2.676   0.865 -0.3834 -0.3172  0.0800
  187SOL    HW2  793   3.175   2.642   0.832  0.3471 -0.2969  1.8328
  187SOL    HW3  794   3.105   2.685   0.959 -2.1255  0.4157  0.2831
  187SOL    MW4  795   3.104   2.673   0.873 -0.5169 -0.2179  0.3380
  188SOL     OW  796   2.605   1.094   0.675  0.6150  0.3008  0.0424
  188SOL    HW2  797   2.619   1.146   0.754 -1.0415  1.3945 -0.3576
  188SOL    HW3  798   2.541   1.028   0.700  3.3580 -2.1343  0.7805
  188SOL    MW4  799   2.598   1.092   0.688  0.7584  0.1239  0.0869
  189SOL     OW  800   3.843   4.595   0.838 -0.0592 -0.0976  0.2127
  189SOL    HW2  801   3.777   4.662   0.818  0.6296  0.2056 -1.1460
  189SOL    HW3  802   3.793   4.515   0.851 -0.7407  0.2122 -0.4092
  189SOL    MW4  803   3.828   4.594   0.837 -0.0582 -0.0172 -0.0487
  190SOL     OW  804   1.065   4.034   0.719  0.2860 -0.3660  0.7335
  190SOL    HW2  805   1.151   4.072   0.703  0.9263 -2.0742  0.0153
  190SOL    HW3  806   1.042   4.062   0.807  0.4010  2.2699 -0.0096
  190SOL    MW4  807   1.073   4.043   0.728  0.3855 -0.2441  0.5406
  191SOL     OW  808   3.201   1.852   0.393  0.6645 -0.3164 -0.3008
  191SOL    HW2  809   3.169   1.772   0.353  1.5235 -0.5973 -0.4465
  191SOL    HW3  810   3.227   1.907   0.319  1.5296 -0.5280 -0.1599
  191SOL    MW4  811   3.201   1.849   0.378  0.8919 -0.3814 -0.3014
  192SOL     OW  812   4.081   1.265   0.555  0.2340  0.2317 -0.1582
  192SOL    HW2  813   3.991   1.242   0.532  0.2496 -0.0911  0.0951
  192SOL    HW3  814   4.131   1.184   0.539  0.2073 -0.0615  1.2302
  192SOL    MW4  815   4.076   1.251   0.550  0.2322  0.1503  0.0584
  193SOL     OW  816   4.365   3.745   0.600  0.4301  0.0253 -0.4383
  193SOL    HW2  817   4.351   3.738   0.695  0.6986 -2.0480 -0.5282
  193SOL    HW3  818   4.281   3.723   0.561  1.4930 -3.8292 -0.7568
  193SOL    MW4  819   4.352   3.741   0.608  0.6056 -0.7570 -0.4922
  194SOL     OW  820   4.014   1.150   0.880  0.0763 -0.4728 -0.2259
  194SOL    HW2  821   4.000   1.142   0.974  2.2729 -0.3777  0.1212
  194SOL    HW3  822   3.941   1.203   0.850 -1.1643 -1.2818  1.2664
  194SOL    MW4  823   4.002   1.156   0.888  0.2027 -0.5671  0.0167
  195SOL     OW  824   2.942   2.174   0.455 -0.8665  0.1268  0.0570
  195SOL    HW2  825   3.016   2.205   0.402 -2.1963  0.9056 -1.3968
  195SOL    HW3  826   2.952   2.078   0.455  0.3506  0.2435  0.2031
  195SOL    MW4  827   2.953   2.165   0.448 -0.8812  0.2449 -0.1155
  196SOL     OW  828   0.675   3.790   0.741 -0.2436 -0.1625  0.0981
  196SOL    HW2  829   0.672   3.791   0.646  0.6937  0.0127  0.0627
  196SOL    HW3  830   0.655   3.880   0.766  1.7368  0.3247 -0.0226
  196SOL    MW4  831   0.672   3.802   0.732  0.1414 -0.0751  0.0775
  197SOL     OW  832   2.912   2.810   1.273 -0.1578  0.0976  0.2453
  197SOL    HW2  833   2.836   2.769   1.231  0.2697  0.5973 -1.0482
  197SOL    HW3  834   2.891   2.809   1.367 -1.2317 -0.8402  0.0131
  197SOL    MW4  835   2.899   2.805   1.280 -0.2429  0.0398  0.0440
  198SOL     OW  836   1.104   2.870   0.560 -0.1158 -0.3002 -0.1928
  198SOL    HW2  837   1.019   2.861   0.517 -0.1549 -0.8016 -0.0235
  198SOL    HW3  838   1.083   2.895   0.650 -0.0901 -0.5375 -0.1202
  198SOL    MW4  839   1.090   2.872   0.566 -0.1175 -0.3977 -0.1609
  199SOL     OW  840   0.455   1.950   1.202 -0.0296 -0.2187  0.3641
  199SOL    HW2  841   0.526   2.004   1.236  0.8482 -1.3480  0.3690
  199SOL    HW3  842   0.478   1.936   1.110 -2.4611  2.9397 -0.7932
  199SOL    MW4  843   0.468   1.955   1.194 -0.2346  0.0490  0.2120
  200SOL     OW  844   1.556   0.757   1.170  0.3542  0.2815 -0.7664
  200SOL    HW2  845   1.559   0.767   1.074  0.2535  1.6314 -0.6384
  200SOL    HW3  846   1.481   0.809   1.197  0.3929 -0.0875  0.0608
  200SOL    MW4  847   1.547   0.765   1.161  0.3461  0.4109 -0.6404
  201SOL     OW  848   0.217   1.293   1.291 -0.3003 -0.3259 -0.4322
  201SOL    HW2  849   0.247   1.378   1.260  0.6782 -0.0759  1.1278
  201SOL    HW3  850   0.149   1.267   1.229 -0.4469  1.4861 -1.0495
  201SOL    MW4  851   0.212   1.301   1.279 -0.1906 -0.0538 -0.3079
  202SOL     OW  852   1.230   3.530   0.440  0.4988 -0.4983 -0.0151
  202SOL    HW2  853   1.147   3.552   0.398  0.5309 -0.3399  0.0060
  202SOL    HW3  854   1.218   3.440   0.470  0.0215 -0.1743  0.7713
  202SOL    MW4  855   1.218   3.521   0.438  0.4400 -0.4349  0.0914
  203SOL     OW  856   0.824   2.355   0.473 -0.7697  0.1332 -0.3211
  203SOL    HW2  857   0.743   2.400   0.499 -1.4922 -1.0482 -0.4905
  203SOL    HW3  858   0.829   2.368   0.378  0.0238  1.4612 -0.1068
  203SOL    MW4  859   0.814   2.363   0.464 -0.7604  0.1526 -0.3152
  204SOL     OW  860   0.014   2.704   1.044 -0.4163 -0.5021  0.3924
  204SOL    HW2  861  -0.070   2.743   1.069  0.0541  0.3771  0.6352
  204SOL    HW3  862   0.016   2.708   0.948  0.3157  1.5757  0.4719
  204SOL    MW4  863   0.004   2.710   1.035 -0.2577 -0.1118  0.4350
  205SOL     OW  864   1.378   1.878   1.207  0.1693 -0.1166 -0.1528
  205SOL    HW2  865   1.297   1.916   1.242  0.7625  0.4714  0.6086
  205SOL    HW3  866   1.366   1.783   1.218 -0.0993  0.0052  0.6964
  205SOL    MW4  867   1.365   1.870   1.213  0.2121 -0.0229  0.0597
  206SOL     OW  868   3.701   3.665   0.544 -0.3226 -0.0989 -0.1886
  206SOL    HW2  869   3.711   3.709   0.460 -2.5877 -1.2817 -1.1276
  206SOL    HW3  870   3.787   3.628   0.562  0.5517  1.3802 -1.2957
  206SOL    MW4  871   3.713   3.666   0.535 -0.5059 -0.0596 -0.4585
  207SOL     OW  872   0.845   4.399   0.554  0.4067 -0.1102 -0.2325
  207SOL    HW2  873   0.808   4.448   0.480 -0.0150 -0.0214  0.0386
  207SOL    HW3  874   0.830   4.455   0.630  3.0875  0.9547 -0.4357
  207SOL    MW4  875   0.838   4.413   0.554  0.7047  0.0415 -0.2235
  208SOL     OW  876   0.829   1.694   0.722 -0.3763  0.0324 -0.5143
  208SOL    HW2  877   0.811   1.772   0.775  1.3011 -0.1346  0.3287
  208SOL    HW3  878   0.894   1.645   0.772 -0.3763 -1.2206 -1.7061
  208SOL    MW4  879   0.835   1.698   0.735 -0.1550 -0.1550 -0.5603
  209SOL     OW  880   4.035   4.367   0.851  0.1903  0.4086  0.0697
  209SOL    HW2  881   4.066   4.458   0.857  0.7248  0.1067  2.1585
  209SOL    HW3  882   4.111   4.318   0.818  0.5394  0.4081  0.8556
  209SOL    MW4  883   4.049   4.373   0.847  0.3066  0.3681  0.4489
  210SOL     OW  884   1.531   2.667   0.592  0.4337  0.1260 -0.0700
  210SOL    HW2  885   1.466   2.656   0.522  0.2175 -2.3934  0.4764
  210SOL    HW3  886   1.609   2.620   0.560  0.7048 -0.1016  0.8993
  210SOL    MW4  887   1.533   2.659   0.578  0.4408 -0.2363  0.1300
  211SOL     OW  888   0.121   1.733   0.536 -0.5583 -0.6211 -0.2732
  211SOL    HW2  889   0.115   1.638   0.537 -1.4308 -0.5642  1.2005
  211SOL    HW3  890   0.036   1.763   0.504  0.2604 -0.3495 -2.3039
  211SOL    MW4  891   0.109   1.725   0.532 -0.5654 -0.5779 -0.3468
  212SOL     OW  892   0.867   2.654   1.207  0.5892 -0.0153 -0.0340
  212SOL    HW2  893   0.878   2.573   1.256  1.1400  0.2429  0.2617
  212SOL    HW3  894   0.951   2.699   1.214  0.6062  0.1258 -1.0194
  212SOL    MW4  895   0.879   2.649   1.214  0.6641  0.0372 -0.1251
  213SOL     OW  896   3.505   3.582   0.866  0.2500  0.0653 -0.7991
  213SOL    HW2  897   3.524   3.518   0.797  0.3636  1.1683 -1.8140
  213SOL    HW3  898   3.411   3.574   0.881  0.3811 -0.8285 -0.4166
  213SOL    MW4  899   3.495   3.573   0.859  0.2823  0.0930 -0.8826
  214SOL     OW  900   2.742   4.603   0.645 -0.2949  0.0409  0.3751
  214SOL    HW2  901   2.709   4.658   0.574  0.8629 -0.0996 -0.2788
  214SOL    HW3  902   2.760   4.665   0.716 -1.0628  0.2272  0.4171
  214SOL    MW4  903   2.740   4.619   0.645 -0.2437  0.0472  0.2943
  215SOL     OW  904   4.270   0.768   1.173  0.3197  0.0150 -0.4102
  215SOL    HW2  905   4.276   0.679   1.209 -0.3910  0.0206 -0.2654
  215SOL    HW3  906   4.268   0.754   1.078  1.2641 -0.0545 -0.4294
  215SOL    MW4  907   4.271   0.754   1.165  0.3500  0.0066 -0.3937
  216SOL     OW  908   4.167   0.249   0.397 -0.5428 -0.0584 -0.1188
  216SOL    HW2  909   4.075   0.222   0.390  0.2601 -2.8446 -0.4574
  216SOL    HW3  910   4.202   0.197   0.469  1.0612  0.0805 -0.7761
  216SOL    MW4  911   4.160   0.238   0.405 -0.2246 -0.4077 -0.2502
  217SOL     OW  912   2.956   3.591   1.283  0.3786 -0.5549 -0.4201
  217SOL    HW2  913   2.870   3.550   1.279 -0.0803  0.4108 -0.3642
  217SOL    HW3  914   3.015   3.524   1.247 -0.3069 -1.4192  0.0480
  217SOL    MW4  915   2.953   3.577   1.277  0.2277 -0.5417 -0.3510
  218SOL     OW  916   4.090   0.754   0.564  0.0561  0.1189  0.0063
  218SOL    HW2  917   4.153   0.684   0.544  1.0260  0.6399  1.2288
  218SOL    HW3  918   4.051   0.774   0.479  1.4978 -0.2453 -0.7742
  218SOL    MW4  919   4.093   0.747   0.550  0.3743  0.1397  0.0647
  219SOL     OW  920   1.550   0.295   0.539 -0.0206 -0.0410 -0.4526
  219SOL    HW2  921   1.457   0.280   0.519 -0.0976 -0.1451 -0.0147
  219SOL    HW3  922   1.594   0.217   0.506 -0.0532  0.1306 -0.9097
  219SOL    MW4  923   1.544   0.283   0.532 -0.0352 -0.0321 -0.4551
  220SOL     OW  924   0.867   4.129   0.519 -0.1561 -0.1863  0.2539
  220SOL    HW2  925   0.949   4.136   0.566 -0.9368  0.6451  1.5191
  220SOL    HW3  926   0.815   4.204   0.549 -0.4954  0.6398 -2.2863
  220SOL    MW4  927   0.871   4.139   0.529 -0.3039  0.0319  0.0857
  221SOL     OW  928   2.636   2.242   0.433  0.5897  0.1808 -0.0911
  221SOL    HW2  929   2.632   2.336   0.450  2.2643  0.0983  0.9492
  221SOL    HW3  930   2.730   2.223   0.430  0.2742 -1.6171  0.6723
  221SOL    MW4  931   2.648   2.251   0.435  0.7689 -0.0675  0.1469
  222SOL     OW  932   1.978   1.496   0.909 -0.4946 -0.2286  0.2601
  222SOL    HW2  933   2.006   1.488   1.000  1.4420  0.8902 -0.1955
  222SOL    HW3  934   1.998   1.586   0.886  0.2215 -0.8448 -1.6424
  222SOL    MW4  935   1.984   1.507   0.918 -0.1445 -0.1624 -0.0510
  223SOL     OW  936   1.814   1.874   1.189 -0.1336 -0.2944 -0.1533
  223SOL    HW2  937   1.749   1.933   1.228  0.1783 -0.2117  0.2457
  223SOL    HW3  938   1.898   1.912   1.213  0.0674  0.9557 -2.7514
  223SOL    MW4  939   1.816   1.887   1.198 -0.0659 -0.1186 -0.4435
  224SOL     OW  940   2.641   2.495   0.481  0.1507  0.4112  0.2746
  224SOL    HW2  941   2.661   2.531   0.395 -1.0504 -1.2304 -0.7180
  224SOL    HW3  942   2.561   2.542   0.508 -0.2833 -0.0881 -0.1385
  224SOL    MW4  943   2.633   2.506   0.473 -0.0651  0.1287  0.0891
  225SOL     OW  944   3.228   3.067   0.362  0.0119  0.4312  0.1866
  225SOL    HW2  945   3.202   3.070   0.269  0.2389 -0.7235  0.0811
  225SOL    HW3  946   3.152   3.030   0.406  0.2378  0.1602  0.3443
  225SOL    MW4  947   3.215   3.063   0.355  0.0713  0.2429  0.1935
  226SOL     OW  948   1.280   1.584   0.543  0.4300  0.4206  0.0032
  226SOL    HW2  949   1.239   1.647   0.603 -0.4773 -0.4776  0.3505
  226SOL    HW3  950   1.214   1.570   0.475  1.0341  0.6160 -0.6233
  226SOL    MW4  951   1.266   1.590   0.542  0.3902  0.3278 -0.0336
  227SOL     OW  952   2.965   0.043   0.316  0.5886  0.1536 -0.4819
  227SOL    HW2  953   2.877   0.072   0.293  0.6788  1.2183  0.4835
  227SOL    HW3  954   2.955  -0.003   0.399  1.0820  1.1695  0.1511
  227SOL    MW4  955   2.952   0.041   0.324  0.6657  0.4282 -0.2710
  228SOL     OW  956   3.228   1.520   0.693  0.4051  0.3779 -0.2552
  228SOL    HW2  957   3.280   1.441   0.706  0.3908  0.3819 -0.1678
  228SOL    HW3  958   3.146   1.502   0.739  0.4199  0.4609 -0.1963
  228SOL    MW4  959   3.224   1.507   0.701  0.4051  0.3893 -0.2360
  229SOL     OW  960   0.290   4.337   0.959 -0.2486 -0.2777  0.4884
  229SOL    HW2  961   0.268   4.373   1.045  0.8153 -1.4849  1.2882
  229SOL    HW3  962   0.211   4.291   0.932 -0.4604 -0.2189  0.9973
  229SOL    MW4  963   0.277   4.336   0.967 -0.1362 -0.4292  0.6611
  230SOL     OW  964   2.943   0.721   0.859 -0.2537  0.1089  0.5693
  230SOL    HW2  965   2.861   0.676   0.843 -0.0162 -0.2721  0.4339
  230SOL    HW3  966   2.936   0.751   0.950  0.1998 -1.4920  1.1472
  230SOL    MW4  967   2.931   0.719   0.869 -0.1624 -0.1525  0.6277
  231SOL     OW  968   4.208   2.344   0.512  0.5012  0.0412 -0.0419
  231SOL    HW2  969   4.177   2.396   0.586  1.3758  1.7995 -0.8658
  231SOL    HW3  970   4.129   2.304   0.476 -0.4300  2.0374 -0.2965
  231SOL    MW4  971   4.193   2.346   0.517  0.4940  0.5364 -0.1842
  232SOL     OW  972   0.220   3.755   0.884 -0.3537  0.2756  0.1284
  232SOL    HW2  973   0.224   3.790   0.973 -1.2353 -0.4854  0.4761
  232SOL    HW3  974   0.176   3.670   0.893 -1.2367  0.5761 -1.1407
  232SOL    MW4  975   0.215   3.749   0.897 -0.5865  0.2148  0.0069
  233SOL     OW  976   3.111   1.152   1.144 -0.0521 -0.0980  0.3922
  233SOL    HW2  977   3.027   1.193   1.167 -0.8063 -0.7704 -1.0417
  233SOL    HW3  978   3.177   1.217   1.168 -1.0148  0.5983  1.1812
  233SOL    MW4  979   3.108   1.166   1.150 -0.2785 -0.0949  0.3071
  234SOL     OW  980   3.010   3.481   0.473 -0.3261 -0.1403  0.0204
  234SOL    HW2  981   3.097   3.452   0.500 -0.3091  1.0209  1.2668
  234SOL    HW3  982   2.952   3.407   0.492 -0.0502  0.0853  1.7604
  234SOL    MW4  983   3.014   3.467   0.479 -0.2873  0.0427  0.4144
  235SOL     OW  984   2.346   1.876   0.306 -0.4657 -0.1411  0.1562
  235SOL    HW2  985   2.413   1.812   0.280  1.0317  1.2294  0.5647
  235SOL    HW3  986   2.299   1.896   0.225 -1.4693 -2.3336  0.1632
  235SOL    MW4  987   2.349   1.870   0.292 -0.4005 -0.2494  0.2110
  236SOL     OW  988   4.474   2.123   0.542 -0.3613 -0.1544 -0.7206
  236SOL    HW2  989   4.563   2.087   0.545 -0.1565  0.3814 -0.1370
  236SOL    HW3  990   4.473   2.178   0.464 -0.1397 -0.0872 -0.6791
  236SOL    MW4  991   4.486   2.126   0.532 -0.3050 -0.0749 -0.6381
  237SOL     OW  992   4.345   4.155   0.539  0.1832  0.5423 -0.0581
  237SOL    HW2  993   4.274   4.131   0.479  1.7014 -0.6483 -1.4434
  237SOL    HW3  994   4.417   4.096   0.515  2.5204  3.4223 -0.4303
  237SOL    MW4  995   4.346   4.144   0.528  0.6919  0.7653 -0.2900
  238SOL     OW  996   2.378   1.422   0.893  0.2549 -0.1218 -0.5027
  238SOL    HW2  997   2.373   1.513   0.862 -0.7955  0.0560  0.1575
  238SOL    HW3  998   2.326   1.373   0.830 -0.2899 -0.0526 -0.1129
  238SOL    MW4  999   2.371   1.428   0.880  0.0446 -0.0893 -0.3641
  239SOL     OW 1000   2.863   3.341   0.781 -0.1210 -0.3210 -0.0167
  239SOL    HW2 1001   2.828   3.329   0.693 -0.1261  0.4121 -0.1206
  239SOL    HW3 1002   2.803   3.404   0.822  0.9151  0.7573 -0.1123
  239SOL    MW4 1003   2.851   3.348   0.775  0.0148 -0.0820 -0.0430
  240SOL     OW 1004   3.903   4.316   0.595  0.4372  0.3666 -0.0691
  240SOL    HW2 1005   3.810   4.338   0.591  0.3323 -0.1624 -0.5960
  240SOL    HW3 1006   3.924   4.315   0.688  0.1671  1.5305  0.0036
  240SOL    MW4 1007   3.894   4.319   0.607  0.3877  0.4506 -0.1290
  241SOL     OW 1008   0.789   1.918   0.886 -0.3792  0.2143  0.1017
  241SOL    HW2 1009   0.825   2.001   0.853  0.0505  0.2257  0.5905
  241SOL    HW3 1010   0.827   1.909   0.973  0.2613 -0.9217 -0.2790
  241SOL    MW4 1011   0.799   1.928   0.893 -0.2379  0.0659  0.1161
  242SOL     OW 1012   0.701   3.548   0.878  0.2269 -0.1095 -0.1025
  242SOL    HW2 1013   0.629   3.543   0.940 -0.2875 -0.9332 -0.7615
  242SOL    HW3 1014   0.690   3.634   0.836  1.1116  0.8432  1.5689
  242SOL    MW4 1015   0.690   3.559   0.880  0.2758 -0.0923  0.0310
  243SOL     OW 1016   1.090   1.319   0.770 -0.0652  0.1668 -0.0617
  243SOL    HW2 1017   1.168   1.275   0.803  0.6883  0.3449 -1.5812
  243SOL    HW3 1018   1.087   1.401   0.818 -0.4567 -0.7201  1.4601
  243SOL    MW4 1019   1.099   1.324   0.781 -0.0174  0.0734 -0.0615
  244SOL     OW 1020   2.429   1.462   0.392  0.5988  0.0103  0.3923
  244SOL    HW2 1021   2.339   1.478   0.421  1.0576  0.4582  1.5817
  244SOL    HW3 1022   2.439   1.367   0.399  0.0737 -0.0866 -0.1646
  244SOL    MW4 1023   2.418   1.451   0.397  0.5901  0.0565  0.4757
  245SOL     OW 1024   4.221   1.659   0.266  0.2217 -0.3997  0.0503
  245SOL    HW2 1025   4.306   1.703   0.262  0.0038 -0.1310 -2.8716
  245SOL    HW3 1026   4.239   1.576   0.311  1.3250  1.1010  2.4761
  245SOL    MW4 1027   4.235   1.654   0.271  0.3381 -0.1663 -0.0151
  246SOL     OW 1028   3.970   2.806   0.378  0.3207  0.1494 -0.2975
  246SOL    HW2 1029   3.927   2.770   0.456  0.7540  1.3957  0.5361
  246SOL    HW3 1030   4.046   2.751   0.365  0.3674  0.0719  0.2999
  246SOL    MW4 1031   3.974   2.794   0.387  0.3839  0.3035 -0.1087
  247SOL     OW 1032   0.434   0.912   1.205  0.0309 -0.2723  0.0002
  247SOL    HW2 1033   0.515   0.879   1.167  0.6968 -0.2871  1.4101
  247SOL    HW3 1034   0.450   0.913   1.299 -1.8350 -0.8989  0.3475
  247SOL    MW4 1035   0.447   0.908   1.212 -0.1274 -0.3569  0.2320
  248SOL     OW 1036   3.439   1.921   0.943 -0.8777  0.0690  0.1399
  248SOL    HW2 1037   3.421   1.827   0.936 -1.1732  0.0109  1.5430
  248SOL    HW3 1038   3.361   1.963   0.908 -0.9529 -0.2003 -0.0182
  248SOL    MW4 1039   3.426   1.914   0.937 -0.9263  0.0259  0.3042
  249SOL     OW 1040   1.664   0.532   0.409  0.4388 -0.0016 -0.1138
  249SOL    HW2 1041   1.628   0.448   0.435  1.1849 -0.3841 -0.3055
  249SOL    HW3 1042   1.749   0.511   0.371  0.3367  0.7742 -0.7731
  249SOL    MW4 1043   1.670   0.518   0.408  0.5239  0.0503 -0.2261
  250SOL     OW 1044   4.274   0.481   0.779 -0.3365  0.6388  0.0729
  250SOL    HW2 1045   4.277   0.566   0.825 -0.9564  0.0508  1.2333
  250SOL    HW3 1046   4.340   0.428   0.822 -0.4464  0.2980 -0.1775
  250SOL    MW4 1047   4.283   0.486   0.791 -0.4325  0.5163  0.1929
  251SOL     OW 1048   1.761   1.657   0.459  0.2710  0.1276 -0.0400
  251SOL    HW2 1049   1.681   1.642   0.508  1.0454 -1.8006  0.6649
  251SOL    HW3 1050   1.732   1.684   0.372 -1.1302 -0.6290  0.1908
  251SOL    MW4 1051   1.747   1.659   0.454  0.1882 -0.2267  0.0835
  252SOL     OW 1052   3.177   0.587   0.758 -0.1338  0.7532  0.0826
  252SOL    HW2 1053   3.158   0.596   0.665  0.5068  0.8971 -0.0412
  252SOL    HW3 1054   3.105   0.632   0.802 -0.3594  0.8173 -0.3477
  252SOL    MW4 1055   3.165   0.594   0.752 -0.0789  0.7806  0.0094
  253SOL     OW 1056   0.881   0.379   1.160  0.6286  0.1141  0.0133
  253SOL    HW2 1057   0.878   0.391   1.065 -1.6804  1.3045  0.2204
  253SOL    HW3 1058   0.906   0.287   1.171  1.5896  0.1446 -1.7319
  253SOL    MW4 1059   0.884   0.368   1.149  0.4507  0.2751 -0.1897
  254SOL     OW 1060   3.619   4.123   0.901 -0.1689 -0.0029  0.3447
  254SOL    HW2 1061   3.552   4.071   0.857  0.8215 -0.4463 -0.6503
  254SOL    HW3 1062   3.701   4.100   0.856  0.5388  1.0743  1.0671
  254SOL    MW4 1063   3.621   4.113   0.889  0.0551  0.0811  0.3088
  255SOL     OW 1064   1.668   4.190   0.930 -0.1956  0.1465 -0.3980
  255SOL    HW2 1065   1.709   4.210   1.014 -1.2492  0.3882  0.0704
  255SOL    HW3 1066   1.625   4.105   0.943 -0.3134  0.1548 -0.7061
  255SOL    MW4 1067   1.667   4.181   0.942 -0.3501  0.1798 -0.3768
  256SOL     OW 1068   2.369   1.657   0.755 -0.5219 -0.1315 -0.2897
  256SOL    HW2 1069   2.334   1.668   0.667 -2.0139  0.0085  0.3072
  256SOL    HW3 1070   2.462   1.679   0.747 -1.0302  1.7093 -1.4487
  256SOL    MW4 1071   2.377   1.661   0.742 -0.7858  0.1298 -0.3638
  257SOL     OW 1072   3.656   3.930   0.342  0.6028  0.4879  0.2827
  257SOL    HW2 1073   3.717   3.999   0.367 -0.0643  1.1096  0.2153
  257SOL    HW3 1074   3.659   3.928   0.246  0.0977  0.9062  0.2564
  257SOL    MW4 1075   3.664   3.939   0.333  0.4482  0.6254  0.2703
  258SOL     OW 1076   1.039   1.556   0.869  0.4355 -0.1228 -0.0340
  258SOL    HW2 1077   1.051   1.569   0.963 -0.4952  0.8093 -0.0442
  258SOL    HW3 1078   1.091   1.625   0.828  1.0355 -0.6741 -0.2263
  258SOL    MW4 1079   1.048   1.567   0.876  0.3918 -0.0725 -0.0607
  259SOL     OW 1080   1.606   0.693   0.821 -0.3500  0.5505 -0.4823
  259SOL    HW2 1081   1.673   0.680   0.754 -2.5723  1.0204 -2.8556
  259SOL    HW3 1082   1.604   0.788   0.835 -0.4390  0.5246 -0.3150
  259SOL    MW4 1083   1.614   0.704   0.814 -0.6548  0.6090 -0.7733
  260SOL     OW 1084   2.067   3.057   1.191 -0.0479  0.5367  0.8685
  260SOL    HW2 1085   2.053   2.967   1.220  0.0985  0.1696 -0.1864
  260SOL    HW3 1086   1.988   3.104   1.220  0.2217  0.2512  2.1014
  260SOL    MW4 1087   2.055   3.052   1.199  0.0069  0.4506  0.8919
  261SOL     OW 1088   0.949   3.385   1.091  0.1304  0.2460 -0.0067
  261SOL    HW2 1089   0.879   3.449   1.107 -0.4645 -0.6785  1.1732
  261SOL    HW3 1090   0.946   3.370   0.997 -2.3865 -0.9984  0.2138
  261SOL    MW4 1091   0.939   3.391   1.081 -0.2801 -0.0403  0.1781
  262SOL     OW 1092   0.696   1.549   1.089 -0.1422  0.0465  0.3971
  262SOL    HW2 1093   0.614   1.590   1.119  0.8339  1.5210  1.1253
  262SOL    HW3 1094   0.675   1.515   1.002 -2.2922 -2.0034  1.6697
  262SOL    MW4 1095   0.682   1.550   1.081 -0.2970 -0.0293  0.6610
  263SOL     OW 1096   0.247   1.520   1.148  0.9024  0.0411  0.1619
  263SOL    HW2 1097   0.314   1.582   1.177  1.0594  0.0726 -0.2627
  263SOL    HW3 1098   0.258   1.515   1.053  1.7880 -1.6480  0.3184
  263SOL    MW4 1099   0.258   1.527   1.139  1.0399 -0.1775  0.1265
  264SOL     OW 1100   3.374   0.776   1.140  0.2087  0.1727 -0.0163
  264SOL    HW2 1101   3.299   0.822   1.177 -1.4582  0.2624 -3.3198
  264SOL    HW3 1102   3.367   0.686   1.174 -0.2689  0.6785  1.2322
  264SOL    MW4 1103   3.363   0.770   1.149 -0.0741  0.2513 -0.2874
  265SOL     OW 1104   1.090   2.417   0.552  0.9933 -0.2530  0.2138
  265SOL    HW2 1105   0.997   2.413   0.529  1.2555  1.1401 -1.1644
  265SOL    HW3 1106   1.093   2.470   0.632  0.6081 -0.2711  0.2411
  265SOL    MW4 1107   1.078   2.423   0.560  0.9772 -0.0718  0.0355
  266SOL     OW 1108   0.738   0.357   0.603  0.4577  0.3811 -0.6032
  266SOL    HW2 1109   0.770   0.421   0.539 -0.1043  1.0710 -0.1966
  266SOL    HW3 1110   0.643   0.366   0.601  0.4409  0.4538  0.3901
  266SOL    MW4 1111   0.730   0.366   0.594  0.3814  0.4817 -0.4185
  267SOL     OW 1112   1.015   0.281   0.448  0.8123 -0.5073 -0.2035
  267SOL    HW2 1113   0.939   0.330   0.417  0.8478  1.7535  3.0178
  267SOL    HW3 1114   0.978   0.199   0.482 -0.1707  0.3498  0.8675
  267SOL    MW4 1115   1.000   0.277   0.449  0.6872 -0.0959  0.3628
  268SOL     OW 1116   0.939   3.917   1.180  0.4607  0.4307 -0.3807
  268SOL    HW2 1117   1.016   3.859   1.183 -0.0692 -0.2356  0.4403
  268SOL    HW3 1118   0.925   3.942   1.272 -0.3946  0.4313 -0.5132
  268SOL    MW4 1119   0.948   3.913   1.193  0.2780  0.3433 -0.2899
  269SOL     OW 1120   3.493   0.845   0.776  0.5255 -0.1584 -0.1332
  269SOL    HW2 1121   3.475   0.760   0.816  1.8094 -0.1174  0.5563
  269SOL    HW3 1122   3.567   0.830   0.718  1.5092  0.7055  0.8569
  269SOL    MW4 1123   3.500   0.832   0.774  0.8247 -0.0389  0.0885
  270SOL     OW 1124   2.719   3.176   1.312  0.1685 -0.1370 -0.4735
  270SOL    HW2 1125   2.798   3.155   1.263  0.4392  0.7151 -0.4132
  270SOL    HW3 1126   2.716   3.272   1.312 -0.1749 -0.1403  0.6054
  270SOL    MW4 1127   2.729   3.186   1.306  0.1588 -0.0250 -0.3232
  271SOL     OW 1128   2.048   2.006   1.248  0.0898 -0.0979 -0.1540
  271SOL    HW2 1129   2.046   2.100   1.228  0.9870 -0.1428 -0.5062
  271SOL    HW3 1130   2.028   2.001   1.341 -0.4935  0.4002 -0.2446
  271SOL    MW4 1131   2.045   2.018   1.258  0.1314 -0.0381 -0.2124
  272SOL     OW 1132   2.863   2.597   0.624  0.2322  0.5029 -0.4818
  272SOL    HW2 1133   2.909   2.530   0.673  0.5125  0.2152 -1.1384
  272SOL    HW3 1134   2.781   2.555   0.596 -0.6187  1.1243  1.0000
  272SOL    MW4 1135   2.858   2.583   0.626  0.1569  0.5469 -0.3729
  273SOL     OW 1136   0.669   3.843   1.098  0.3431 -0.4495  0.4508
  273SOL    HW2 1137   0.759   3.870   1.113  1.6786 -4.5016  0.3141
  273SOL    HW3 1138   0.636   3.906   1.033  2.3383  2.3307  2.0214
  273SOL    MW4 1139   0.676   3.855   1.091  0.7825 -0.6173  0.6399
  274SOL     OW 1140   0.220   3.702   0.472 -0.3167 -0.3842 -0.1352
  274SOL    HW2 1141   0.158   3.772   0.488 -1.6272 -1.3419 -0.9657
  274SOL    HW3 1142   0.178   3.624   0.509  0.6087 -0.9478 -0.2598
  274SOL    MW4 1143   0.207   3.701   0.479 -0.3675 -0.5851 -0.2612
  275SOL     OW 1144   1.330   0.352   0.810  0.0653  0.0239 -0.4955
  275SOL    HW2 1145   1.357   0.441   0.789 -0.7248 -0.1648 -2.4066
  275SOL    HW3 1146   1.338   0.304   0.728  0.3720 -1.6511  0.4849
  275SOL    MW4 1147   1.335   0.358   0.797  0.0013 -0.2220 -0.6183
  276SOL     OW 1148   2.690   2.661   0.835 -0.5160 -0.2520  0.0989
  276SOL    HW2 1149   2.689   2.757   0.829 -1.4560 -0.2580  0.0756
  276SOL    HW3 1150   2.739   2.633   0.758 -0.3549  0.2040  0.0332
  276SOL    MW4 1151   2.697   2.670   0.824 -0.6189 -0.1926  0.0873
  277SOL     OW 1152   0.813   2.059   0.538 -0.3227  0.0115  0.2777
  277SOL    HW2 1153   0.829   2.085   0.628  0.9924 -0.1271  0.0990
  277SOL    HW3 1154   0.808   2.141   0.489  0.8134  0.0419  0.1940
  277SOL    MW4 1155   0.814   2.073   0.543  0.0007 -0.0029  0.2431
  278SOL     OW 1156   0.599   1.617   0.576  0.0931  0.1467 -0.0946
  278SOL    HW2 1157   0.679   1.657   0.608  0.4233  0.5172 -1.3639
  278SOL    HW3 1158   0.530   1.651   0.633  0.7321  0.4247  0.5101
  278SOL    MW4 1159   0.600   1.627   0.587  0.2210  0.2322 -0.1823
  279SOL     OW 1160   2.325   0.788   0.531 -0.0247 -0.0694  0.3645
  279SOL    HW2 1161   2.357   0.822   0.615 -0.7111 -1.7061  1.2998
  279SOL    HW3 1162   2.232   0.775   0.545  0.0696 -1.4646 -0.2836
  279SOL    MW4 1163   2.317   0.791   0.544 -0.1030 -0.4694  0.4025
  280SOL     OW 1164   1.768   2.140   0.347  0.5941  0.1730 -0.3099
  280SOL    HW2 1165   1.686   2.126   0.395  0.8946  1.7448  0.6761
  280SOL    HW3 1166   1.742   2.138   0.255 -0.8802  2.5980  0.0236
  280SOL    MW4 1167   1.754   2.138   0.341  0.4390  0.7002 -0.1358
  281SOL     OW 1168   2.696   0.111   1.240  0.0143 -0.3395 -0.6178
  281SOL    HW2 1169   2.607   0.076   1.225 -0.9830  1.8415  0.0300
  281SOL    HW3 1170   2.705   0.112   1.335  0.2780  0.5582 -0.6549
  281SOL    MW4 1171   2.685   0.106   1.251 -0.0825  0.0667 -0.5373
  282SOL     OW 1172   3.521   2.804   0.900  0.5414 -0.1449 -0.3172
  282SOL    HW2 1173   3.527   2.814   0.995  0.4924 -3.8354  0.1439
  282SOL    HW3 1174   3.559   2.884   0.865 -0.9399  2.0296  2.7964
  282SOL    MW4 1175   3.527   2.816   0.908  0.3395 -0.3452  0.1545
  283SOL     OW 1176   1.964   0.253   0.696 -0.0055  0.4386 -0.1809
  283SOL    HW2 1177   1.947   0.181   0.756 -1.1034 -0.3177 -1.3627
  283SOL    HW3 1178   1.884   0.305   0.698  0.8215  1.6898  0.7462
  283SOL    MW4 1179   1.951   0.250   0.704 -0.0411  0.5039 -0.2145
  284SOL     OW 1180   1.981   0.634   1.009  0.5112 -0.0509 -0.2564
  284SOL    HW2 1181   1.990   0.683   1.091 -0.7748 -0.7570  0.3247
  284SOL    HW3 1182   1.926   0.558   1.033  0.5500 -0.5212 -1.6543
  284SOL    MW4 1183   1.975   0.630   1.023  0.3467 -0.2061 -0.3641
  285SOL     OW 1184   3.507   3.314   0.362 -0.0241 -0.0947  0.2817
  285SOL    HW2 1185   3.516   3.219   0.372  0.2827 -0.2215 -1.0923
  285SOL    HW3 1186   3.597   3.345   0.352 -0.1958  0.2215 -0.2869
  285SOL    MW4 1187   3.520   3.306   0.362 -0.0062 -0.0699  0.0254
  286SOL     OW 1188   0.038   1.381   0.837  0.4536 -0.0747 -0.0344
  286SOL    HW2 1189   0.009   1.294   0.865 -0.5904  0.8360  1.8476
  286SOL    HW3 1190  -0.033   1.439   0.862  0.1663  1.0623 -3.3113
  286SOL    MW4 1191   0.025   1.377   0.844  0.2780  0.1955 -0.2185
  287SOL     OW 1192   0.048   4.495   0.785  0.6260 -0.3096  0.0958
  287SOL    HW2 1193   0.031   4.477   0.693  0.3527 -0.9324  0.2702
  287SOL    HW3 1194   0.133   4.540   0.785  0.2509  0.4246 -0.5260
  287SOL    MW4 1195   0.057   4.499   0.773  0.5405 -0.2952  0.0367
  288SOL     OW 1196   1.774   0.706   0.611 -0.2450  0.4726  0.0245
  288SOL    HW2 1197   1.746   0.637   0.551 -0.4215 -0.8498  1.5780
  288SOL    HW3 1198   1.868   0.714   0.596  0.2478 -1.8517  1.5109
  288SOL    MW4 1199   1.783   0.698   0.601 -0.2031 -0.0086  0.4256
  289SOL     OW 1200   2.875   1.292   0.761  0.6881  0.2600  0.6454
  289SOL    HW2 1201   2.865   1.290   0.666  1.3576 -2.5117  0.5831
  289SOL    HW3 1202   2.786   1.299   0.794  0.4553  1.3504 -0.1589
  289SOL    MW4 1203   2.862   1.293   0.753  0.7460  0.0381  0.5311
  290SOL     OW 1204   0.645   2.798   1.276  0.0423  0.3970 -0.0812
  290SOL    HW2 1205   0.715   2.738   1.250  0.9594  1.5197 -0.2364
  290SOL    HW3 1206   0.565   2.758   1.241  0.8799  0.3213 -1.9627
  290SOL    MW4 1207   0.643   2.785   1.268  0.2738  0.5350 -0.3499
  291SOL     OW 1208   2.639   0.327   0.925 -0.1752  0.2055 -0.2323
  291SOL    HW2 1209   2.648   0.336   1.020 -2.8625 -2.3701  0.3425
  291SOL    HW3 1210   2.707   0.265   0.900 -0.5893 -0.4855  0.3209
  291SOL    MW4 1211   2.649   0.320   0.934 -0.5844 -0.2255 -0.0834
  292SOL     OW 1212   3.654   4.403   0.897  0.2941  0.1537 -0.4936
  292SOL    HW2 1213   3.570   4.441   0.921  0.5112  0.1895  0.2287
  292SOL    HW3 1214   3.640   4.308   0.903  0.5066  0.1717  0.3421
  292SOL    MW4 1215   3.641   4.395   0.901  0.3510  0.1607 -0.2881
  293SOL     OW 1216   2.814   0.150   0.835 -0.2215  0.5827 -0.0450
  293SOL    HW2 1217   2.891   0.169   0.782  0.3828 -0.8195  0.3303
  293SOL    HW3 1218   2.849   0.110   0.915 -1.3838 -0.6149 -0.1356
  293SOL    MW4 1219   2.829   0.147   0.839 -0.2952  0.2397 -0.0075
  294SOL     OW 1220   0.003   2.887   0.777  0.3349 -0.1096  0.3623
  294SOL    HW2 1221  -0.071   2.936   0.812  0.2534 -0.2208  0.3457
  294SOL    HW3 1222   0.079   2.920   0.826  0.1724 -0.5066  0.8845
  294SOL    MW4 1223   0.004   2.898   0.788  0.3027 -0.1767  0.4290
  295SOL     OW 1224   1.717   0.032   0.446  0.0131 -0.2307  0.1471
  295SOL    HW2 1225   1.719  -0.000   0.356 -0.8864  1.1680 -0.3894
  295SOL    HW3 1226   1.704  -0.046   0.499  0.2594 -1.0344 -0.9502
  295SOL    MW4 1227   1.716   0.018   0.441 -0.0732 -0.1522 -0.0685
  296SOL     OW 1228   3.658   1.513   0.876  0.3553 -0.0140  0.6697
  296SOL    HW2 1229   3.585   1.574   0.867  1.1098  0.6457 -1.1752
  296SOL    HW3 1230   3.671   1.504   0.971 -1.6739  0.3749  0.9998
  296SOL    MW4 1231   3.650   1.520   0.888  0.1872  0.1243  0.4699
  297SOL     OW 1232   3.234   4.198   0.419 -0.0012  0.0910 -0.0703
  297SOL    HW2 1233   3.317   4.213   0.465  0.9647 -1.1419 -1.3186
  297SOL    HW3 1234   3.218   4.104   0.431 -1.8156  0.5435  1.1014
  297SOL    MW4 1235   3.243   4.187   0.427 -0.1132 -0.0124 -0.0804
  298SOL     OW 1236   1.836   2.956   0.747  0.0971 -0.0450  0.1043
  298SOL    HW2 1237   1.906   2.985   0.806 -1.0123  0.2211  1.3134
  298SOL    HW3 1238   1.756   2.990   0.786 -0.7007 -0.1122 -1.4127
  298SOL    MW4 1239   1.835   2.965   0.760 -0.1544 -0.0186  0.0637
  299SOL     OW 1240   1.699   0.306   0.847  0.1624  0.2737 -0.8046
  299SOL    HW2 1241   1.650   0.294   0.765  0.2597  1.7070 -1.0816
  299SOL    HW3 1242   1.659   0.244   0.908 -0.9717  0.3340 -1.4764
  299SOL    MW4 1243   1.687   0.296   0.844  0.0257  0.4708 -0.9299
  300SOL     OW 1244   0.358   2.581   0.896  0.2093  0.4967  0.2210
  300SOL    HW2 1245   0.341   2.632   0.976  0.4595  0.2704  0.4210
  300SOL    HW3 1246   0.295   2.510   0.900 -0.6148  1.1827 -0.4162
  300SOL    MW4 1247   0.347   2.579   0.907  0.1335  0.5572  0.1633
  301SOL     OW 1248   3.918   1.868   0.879 -0.4568  0.1240 -0.1231
  301SOL    HW2 1249   3.834   1.913   0.869 -2.0354 -2.6677 -0.1175
  301SOL    HW3 1250   3.916   1.800   0.811  0.6614 -1.5834  1.5106
  301SOL    MW4 1251   3.906   1.865   0.869 -0.5176 -0.4698  0.0932
  302SOL     OW 1252   0.461   4.119   0.644  0.1320  0.3354 -0.1011
  302SOL    HW2 1253   0.489   4.093   0.556 -1.6629  1.4118 -1.0244
  302SOL    HW3 1254   0.394   4.055   0.667 -0.7988  1.2042 -0.3501
  302SOL    MW4 1255   0.456   4.107   0.636 -0.2276  0.5922 -0.2558
  303SOL     OW 1256   3.425   3.211   0.672 -0.2923  0.0292  0.4061
  303SOL    HW2 1257   3.358   3.205   0.741 -2.1409  1.9528 -1.1394
  303SOL    HW3 1258   3.378   3.189   0.591  1.3147 -0.0467 -0.5211
  303SOL    MW4 1259   3.410   3.207   0.671 -0.3240  0.2728  0.0798
  304SOL     OW 1260   1.988   1.829   0.544 -0.2128  0.2161 -0.3452
  304SOL    HW2 1261   1.903   1.799   0.511  0.3859 -1.4836 -0.4296
  304SOL    HW3 1262   1.993   1.793   0.632 -0.3105  1.7934  0.3121
  304SOL    MW4 1263   1.977   1.820   0.551 -0.1467  0.1999 -0.2695
  305SOL     OW 1264   2.225   1.716   0.506 -0.3535  0.6021  1.0300
  305SOL    HW2 1265   2.266   1.770   0.440 -1.3279  0.1812  0.0652
  305SOL    HW3 1266   2.143   1.762   0.528 -2.1739 -1.4309 -1.2451
  305SOL    MW4 1267   2.219   1.729   0.500 -0.7222  0.2785  0.6025
  306SOL     OW 1268   0.388   1.719   0.780  0.4789 -0.1647 -0.4312
  306SOL    HW2 1269   0.360   1.635   0.816  0.0579 -0.2209 -0.8814
  306SOL    HW3 1270   0.308   1.772   0.778  0.2104 -0.5981 -2.4902
  306SOL    MW4 1271   0.374   1.715   0.784  0.3879 -0.2294 -0.7623
  307SOL     OW 1272   0.595   2.755   0.504  0.6343  0.2209  0.1522
  307SOL    HW2 1273   0.545   2.783   0.427  0.3479 -2.1041 -0.5533
  307SOL    HW3 1274   0.559   2.806   0.576 -2.9201 -1.4684 -0.3141
  307SOL    MW4 1275   0.584   2.765   0.503  0.1276 -0.3088 -0.0024
  308SOL     OW 1276   0.244   2.058   0.645 -0.5554  0.4058 -0.3405
  308SOL    HW2 1277   0.273   2.008   0.569  2.4552  0.6318  0.5542
  308SOL    HW3 1278   0.220   1.992   0.709  0.6293  0.1153 -0.1763
  308SOL    MW4 1279   0.245   2.043   0.644 -0.0019  0.3974 -0.2009
  309SOL     OW 1280   3.110   2.936   0.744  0.0736  0.3501 -0.3830
  309SOL    HW2 1281   3.112   2.844   0.771  0.3750  0.3837 -0.2926
  309SOL    HW3 1282   3.083   2.934   0.652 -0.6811  0.2175 -0.1631
  309SOL    MW4 1283   3.107   2.924   0.736  0.0138  0.3369 -0.3420
  310SOL     OW 1284   0.955   3.775   0.796 -0.2158 -0.2174 -0.0429
  310SOL    HW2 1285   0.997   3.842   0.743 -0.5146 -0.3703 -0.4732
  310SOL    HW3 1286   0.863   3.779   0.771 -0.2288 -0.8042 -0.0849
  310SOL    MW4 1287   0.949   3.784   0.786 -0.2569 -0.3152 -0.1053
  311SOL     OW 1288   4.074   2.892   0.688  0.3660  0.3936 -0.2432
  311SOL    HW2 1289   3.984   2.912   0.665  0.2074 -0.9170 -0.7812
  311SOL    HW3 1290   4.124   2.912   0.609  0.0888 -2.1423 -1.0901
  311SOL    MW4 1291   4.069   2.897   0.675  0.3090 -0.1140 -0.4259
  312SOL     OW 1292   4.291   1.432   0.458 -0.0096  0.0945 -0.2655
  312SOL    HW2 1293   4.289   1.504   0.520 -0.7820  0.6018 -0.8805
  312SOL    HW3 1294   4.212   1.382   0.475 -0.9108  0.9870 -1.7235
  312SOL    MW4 1295   4.280   1.435   0.468 -0.2308  0.2792 -0.5390
  313SOL     OW 1296   2.538   3.420   0.498  0.0301 -0.2244 -0.4904
  313SOL    HW2 1297   2.543   3.511   0.468 -0.5919 -0.5584 -1.6055
  313SOL    HW3 1298   2.453   3.389   0.468  0.5164 -1.3830 -0.6754
  313SOL    MW4 1299   2.527   3.428   0.490  0.0124 -0.4213 -0.6619
  314SOL     OW 1300   3.614   3.040   0.387  0.0561  0.1134  0.3159
  314SOL    HW2 1301   3.611   2.989   0.306  0.0961  0.8845 -0.1743
  314SOL    HW3 1302   3.576   2.982   0.453  1.6502 -1.2077  0.1223
  314SOL    MW4 1303   3.608   3.025   0.385  0.2718  0.0408  0.2257
  315SOL     OW 1304   1.013   4.642   0.283 -0.0445 -0.4604 -0.8460
  315SOL    HW2 1305   1.057   4.571   0.332 -1.3643 -0.3780  0.4917
  315SOL    HW3 1306   1.074   4.715   0.288  0.1509 -0.6779  0.0890
  315SOL    MW4 1307   1.027   4.642   0.290 -0.1928 -0.4783 -0.5462
  316SOL     OW 1308   0.033   3.022   0.534  0.2381 -0.0927 -0.4990
  316SOL    HW2 1309   0.125   3.016   0.507  0.1720 -1.8170 -0.3936
  316SOL    HW3 1310   0.031   2.983   0.621 -0.6803 -0.4898 -0.7003
  316SOL    MW4 1311   0.045   3.016   0.542  0.1082 -0.3726 -0.5116
  317SOL     OW 1312   4.309   3.721   0.872 -0.2959  0.0603 -0.4413
  317SOL    HW2 1313   4.330   3.768   0.952 -1.1251 -0.1604 -0.0912
  317SOL    HW3 1314   4.248   3.653   0.899  0.6577 -1.0183 -1.0019
  317SOL    MW4 1315   4.304   3.719   0.886 -0.2789 -0.1109 -0.4690
  318SOL     OW 1316   3.107   1.977   1.303  0.0179  0.4709 -0.1393
  318SOL    HW2 1317   3.069   2.015   1.382 -1.6858  0.8865 -1.1411
  318SOL    HW3 1318   3.186   2.028   1.288 -0.9862  2.0468 -0.1229
  318SOL    MW4 1319   3.112   1.988   1.312 -0.3393  0.7337 -0.2693
  319SOL     OW 1320   2.984   1.529   0.853  0.1889  0.1352  0.1614
  319SOL    HW2 1321   2.946   1.448   0.820  1.1945 -0.0230 -0.6281
  319SOL    HW3 1322   2.946   1.598   0.799  0.0366  0.1027  0.2275
  319SOL    MW4 1323   2.974   1.527   0.842  0.3014  0.1100  0.0659
  320SOL     OW 1324   3.188   4.027   0.791 -0.5218 -0.6223  0.3219
  320SOL    HW2 1325   3.126   3.973   0.841  0.0164 -1.0040  0.5811
  320SOL    HW3 1326   3.142   4.109   0.777 -0.7949 -0.6188  1.2003
  320SOL    MW4 1327   3.174   4.031   0.796 -0.4869 -0.6719  0.4720
  321SOL     OW 1328   3.344   2.595   0.806  0.3938  0.1719  0.1012
  321SOL    HW2 1329   3.412   2.660   0.824 -0.0967  0.4521  0.9963
  321SOL    HW3 1330   3.374   2.516   0.850  0.3690  0.1681  0.1116
  321SOL    MW4 1331   3.357   2.593   0.814  0.3259  0.2084  0.2207
  322SOL     OW 1332   2.981   4.306   0.437 -0.0413 -0.1415 -0.2657
  322SOL    HW2 1333   2.984   4.399   0.460 -1.1190 -0.5307  1.5864
  322SOL    HW3 1334   3.072   4.281   0.423  0.2996  1.0665 -0.2422
  322SOL    MW4 1335   2.993   4.315   0.438 -0.1385 -0.0339 -0.0183
  323SOL     OW 1336   0.220   0.566   0.773 -0.0516 -0.1275 -0.5626
  323SOL    HW2 1337   0.199   0.475   0.751 -1.3903 -0.2124  0.9360
  323SOL    HW3 1338   0.216   0.613   0.690 -0.0474 -1.3218 -1.2401
  323SOL    MW4 1339   0.216   0.560   0.759 -0.2277 -0.2963 -0.4543
  324SOL     OW 1340   3.212   2.546   0.325  0.0361  0.2292  0.5113
  324SOL    HW2 1341   3.249   2.516   0.409  1.1688  1.0211  0.3107
  324SOL    HW3 1342   3.260   2.626   0.306 -0.8032  0.4961 -0.4990
  324SOL    MW4 1343   3.223   2.553   0.334  0.0746  0.3688  0.3515
  325SOL     OW 1344   2.977   2.691   0.379 -0.4740 -0.2498  0.1783
  325SOL    HW2 1345   3.030   2.625   0.335  0.3383  0.3389  0.2476
  325SOL    HW3 1346   2.962   2.656   0.466 -0.8828 -0.7818 -0.1050
  325SOL    MW4 1347   2.982   2.678   0.385 -0.4206 -0.2422  0.1500
  326SOL     OW 1348   3.523   0.465   0.579 -0.0272 -0.5301 -0.5734
  326SOL    HW2 1349   3.614   0.493   0.580 -0.1923  0.0118 -0.7666
  326SOL    HW3 1350   3.499   0.457   0.672 -0.2019  0.6966 -0.5060
  326SOL    MW4 1351   3.532   0.468   0.592 -0.0722 -0.2968 -0.5900
  327SOL     OW 1352   0.589   3.078   0.881 -0.0652  0.3999  0.1906
  327SOL    HW2 1353   0.605   3.087   0.975  1.2982 -1.0715  0.1178
  327SOL    HW3 1354   0.673   3.097   0.840 -0.2050 -0.6667 -0.6191
  327SOL    MW4 1355   0.602   3.081   0.888  0.0963  0.0651  0.0741
  328SOL     OW 1356   2.938   2.297   1.059  0.2228 -0.2789 -0.2945
  328SOL    HW2 1357   3.006   2.355   1.094  0.6568 -1.1692  0.3695
  328SOL    HW3 1358   2.860   2.319   1.109  0.6324 -0.9449  0.6688
  328SOL    MW4 1359   2.937   2.307   1.070  0.3343 -0.4845 -0.0798
  329SOL     OW 1360   0.295   3.012   0.440 -0.3450 -0.1475  0.2129
  329SOL    HW2 1361   0.361   3.008   0.509 -0.2925 -0.5658  0.1428
  329SOL    HW3 1362   0.302   2.927   0.396  0.2148  0.4346 -0.8555
  329SOL    MW4 1363   0.305   3.000   0.444 -0.2641 -0.1259  0.0627
  330SOL     OW 1364   0.449   1.117   0.387 -0.4157 -0.0741  0.5244
  330SOL    HW2 1365   0.366   1.151   0.421 -0.0117  1.6685 -0.1911
  330SOL    HW3 1366   0.510   1.189   0.397  0.0349  0.0460 -2.6449
  330SOL    MW4 1367   0.446   1.131   0.393 -0.3030  0.1715  0.0119
  331SOL     OW 1368   4.288   3.031   0.859 -0.4946  0.4151 -0.0850
  331SOL    HW2 1369   4.255   3.040   0.948 -1.3256  1.7977 -0.5092
  331SOL    HW3 1370   4.211   3.011   0.806 -0.0846  0.0887 -0.5690
  331SOL    MW4 1371   4.273   3.030   0.864 -0.5498  0.5546 -0.2049
  332SOL     OW 1372   3.107   1.185   0.875  0.3580  0.2410  0.0368
  332SOL    HW2 1373   3.102   1.169   0.969  0.4705  1.6772  0.2943
  332SOL    HW3 1374   3.021   1.220   0.852  0.1764 -0.5320 -0.4900
  332SOL    MW4 1375   3.095   1.187   0.884  0.3490  0.3284  0.0013
  333SOL     OW 1376   3.932   0.118   0.412  0.2289  0.1656 -0.1492
  333SOL    HW2 1377   3.948   0.034   0.456 -0.7175  0.0881  0.0564
  333SOL    HW3 1378   3.837   0.129   0.416  0.2878  0.9060 -0.8130
  333SOL    MW4 1379   3.922   0.108   0.419  0.1118  0.2531 -0.2097
  334SOL     OW 1380   0.510   3.987   0.394  0.2386  0.0053 -0.1605
  334SOL    HW2 1381   0.440   4.037   0.351 -1.0713 -1.2954  0.4114
  334SOL    HW3 1382   0.483   3.896   0.385  1.2329 -0.4350  1.1888
  334SOL    MW4 1383   0.497   3.982   0.387  0.1970 -0.2244  0.0930
  335SOL     OW 1384   3.103   4.250   1.086  0.2445 -0.6519 -0.6695
  335SOL    HW2 1385   3.025   4.305   1.079  0.0757 -0.5939  1.3533
  335SOL    HW3 1386   3.157   4.275   1.011 -0.9379  0.5018 -1.1513
  335SOL    MW4 1387   3.100   4.260   1.075  0.0663 -0.4921 -0.4662
  336SOL     OW 1388   0.469   3.237   1.265 -0.4304 -0.7568 -0.0919
  336SOL    HW2 1389   0.494   3.315   1.217 -1.4445 -0.2100  0.2402
  336SOL    HW3 1390   0.543   3.177   1.256 -0.6381 -0.7079 -2.3970
  336SOL    MW4 1391   0.482   3.239   1.258 -0.5916 -0.6781 -0.3521
  337SOL     OW 1392   1.944   0.426   0.379  0.1871  0.2930  0.0228
  337SOL    HW2 1393   2.037   0.447   0.370  0.1649  0.0386 -0.8344
  337SOL    HW3 1394   1.940   0.331   0.375 -0.0577  0.2811  0.5520
  337SOL    MW4 1395   1.956   0.416   0.377  0.1520  0.2579 -0.0205
  338SOL     OW 1396   1.990   0.866   0.851  0.0247 -0.1776  0.2202
  338SOL    HW2 1397   2.068   0.911   0.883  0.5415 -1.6727  1.1192
  338SOL    HW3 1398   1.976   0.795   0.914 -0.8944 -1.1460 -1.0519
  338SOL    MW4 1399   1.998   0.862   0.864 -0.0284 -0.5026  0.1709
  339SOL     OW 1400   1.857   1.398   0.488  0.3757 -0.1800 -0.2960
  339SOL    HW2 1401   1.802   1.330   0.449  0.8028 -0.6584 -0.0661
  339SOL    HW3 1402   1.813   1.480   0.465 -0.1330 -0.5295 -0.5879
  339SOL    MW4 1403   1.844   1.400   0.480  0.3650 -0.2892 -0.3042
  340SOL     OW 1404   3.830   3.047   0.585 -0.4160  0.3776  0.1025
  340SOL    HW2 1405   3.798   3.050   0.495  0.7529  1.1908 -0.2968
  340SOL    HW3 1406   3.872   3.132   0.599 -0.2474  0.1136  1.2872
  340SOL    MW4 1407   3.831   3.059   0.575 -0.2396  0.4501  0.2061
  341SOL     OW 1408   2.188   4.325   1.086 -0.0678 -0.1435  0.0491
  341SOL    HW2 1409   2.171   4.232   1.104 -1.3019 -0.0495 -0.5739
  341SOL    HW3 1410   2.153   4.370   1.162 -1.4614 -0.0475 -0.6274
  341SOL    MW4 1411   2.181   4.318   1.098 -0.4146 -0.1183 -0.1224
  342SOL     OW 1412   2.011   1.234   1.289  0.0779 -0.5956 -0.1214
  342SOL    HW2 1413   2.093   1.193   1.260 -0.0822 -0.5520 -0.6556
  342SOL    HW3 1414   1.944   1.193   1.235 -0.2285 -0.4907  0.1816
  342SOL    MW4 1415   2.013   1.223   1.278  0.0162 -0.5760 -0.1519
  343SOL     OW 1416   1.555   2.125   0.552  0.2542  0.3604 -0.3295
  343SOL    HW2 1417   1.464   2.143   0.527  0.2281  2.2442  1.0306
  343SOL    HW3 1418   1.549   2.055   0.616 -0.1775 -0.1072 -0.8795
  343SOL    MW4 1419   1.543   2.118   0.557  0.1938  0.5474 -0.2226
  344SOL     OW 1420   3.220   4.634   0.704  0.3829 -0.0199 -0.2040
  344SOL    HW2 1421   3.235   4.661   0.614 -3.1257  0.0030 -0.8613
  344SOL    HW3 1422   3.181   4.710   0.746 -2.6845 -1.5825 -0.0716
  344SOL    MW4 1423   3.217   4.647   0.698 -0.4849 -0.2231 -0.2733
  345SOL     OW 1424   0.581   3.502   0.467 -0.5549 -0.0424  0.2696
  345SOL    HW2 1425   0.509   3.445   0.442  0.4722 -1.4459  0.4525
  345SOL    HW3 1426   0.549   3.547   0.545 -0.5481 -2.0827  1.5006
  345SOL    MW4 1427   0.567   3.500   0.474 -0.4185 -0.4966  0.4562
  346SOL     OW 1428   0.975   1.646   0.468 -0.1402 -0.1647  0.4877
  346SOL    HW2 1429   0.933   1.680   0.546  0.6652  1.7912  0.0978
  346SOL    HW3 1430   1.008   1.724   0.422 -0.8273 -1.2384 -1.9265
  346SOL    MW4 1431   0.974   1.661   0.472 -0.1246 -0.0483  0.1177
  347SOL     OW 1432   0.792   3.861   0.489  0.2165  0.1234 -0.1033
  347SOL    HW2 1433   0.782   3.866   0.394  2.5738  1.5008 -0.3252
  347SOL    HW3 1434   0.814   3.950   0.515 -0.1563 -0.3021  1.7109
  347SOL    MW4 1435   0.794   3.873   0.480  0.4784  0.2489  0.1067
  348SOL     OW 1436   1.356   0.609   0.738  0.2154 -0.0558 -0.2194
  348SOL    HW2 1437   1.440   0.632   0.778  0.6845 -0.3471 -1.0375
  348SOL    HW3 1438   1.371   0.618   0.644 -0.7632  0.2050 -0.3509
  348SOL    MW4 1439   1.369   0.613   0.731  0.1481 -0.0598 -0.3448
  349SOL     OW 1440   0.650   0.713   0.838 -0.1068  0.0030  0.2166
  349SOL    HW2 1441   0.602   0.789   0.805  0.9085  0.1329 -0.9880
  349SOL    HW3 1442   0.665   0.734   0.931  0.2290  1.3126 -0.1177
  349SOL    MW4 1443   0.646   0.726   0.846  0.0714  0.1929  0.0135
  350SOL     OW 1444   0.619   1.459   0.842  0.0471 -0.6501  0.1072
  350SOL    HW2 1445   0.564   1.381   0.846  0.2872 -0.8111  0.2732
  350SOL    HW3 1446   0.611   1.489   0.751  0.1720 -1.0241 -0.0280
  350SOL    MW4 1447   0.611   1.453   0.830  0.0952 -0.7206  0.1113
  351SOL     OW 1448   4.413   4.647   0.388 -0.0099  0.1055 -0.4070
  351SOL    HW2 1449   4.352   4.673   0.457 -0.2083  0.0528 -0.5625
  351SOL    HW3 1450   4.385   4.697   0.311 -0.4902 -0.6920 -0.7478
  351SOL    MW4 1451   4.402   4.657   0.387 -0.0992 -0.0072 -0.4725
  352SOL     OW 1452   3.939   0.868   0.763  0.1847  0.2231  0.3886
  352SOL    HW2 1453   3.994   0.944   0.786  2.4627 -1.2330 -0.1181
  352SOL    HW3 1454   3.992   0.818   0.702 -1.8907 -1.0595 -0.3995
  352SOL    MW4 1455   3.953   0.872   0.758  0.2115 -0.1382  0.2177
  353SOL     OW 1456   1.115   1.947   0.547 -0.3268  0.0290 -0.4057
  353SOL    HW2 1457   1.176   2.017   0.523 -0.6601  0.5755  0.3276
  353SOL    HW3 1458   1.028   1.987   0.541 -0.5912 -0.6362 -1.0705
  353SOL    MW4 1459   1.112   1.962   0.543 -0.4058  0.0134 -0.3966
  354SOL     OW 1460   4.479   3.486   1.158 -0.1405 -0.4994  0.0328
  354SOL    HW2 1461   4.568   3.506   1.189  0.2831  0.7423 -1.9133
  354SOL    HW3 1462   4.492   3.452   1.069 -1.6124 -0.3702 -0.2430
  354SOL    MW4 1463   4.493   3.484   1.150 -0.2788 -0.3183 -0.2605
  355SOL     OW 1464   2.030   4.378   0.831  0.0607 -0.3107  0.5267
  355SOL    HW2 1465   2.008   4.285   0.837 -0.5007 -0.1559  0.9098
  355SOL    HW3 1466   2.085   4.393   0.908 -0.1880 -0.2350  0.6913
  355SOL    MW4 1467   2.035   4.367   0.842 -0.0463 -0.2799  0.5990
  356SOL     OW 1468   1.051   0.419   0.686  0.1987  0.5111  0.0671
  356SOL    HW2 1469   1.043   0.388   0.596 -1.2577 -0.9337  0.6733
  356SOL    HW3 1470   1.134   0.382   0.716  0.6682  0.9607 -0.6555
  356SOL    MW4 1471   1.061   0.410   0.678  0.0685  0.3798  0.0517
  357SOL     OW 1472   3.588   2.308   0.440  0.4361 -0.3996 -0.4799
  357SOL    HW2 1473   3.510   2.364   0.433 -0.0668 -1.1398 -0.8118
  357SOL    HW3 1474   3.580   2.268   0.527  0.4286 -0.5043 -0.5293
  357SOL    MW4 1475   3.576   2.310   0.451  0.3688 -0.5112 -0.5302
  358SOL     OW 1476   1.060   0.033   0.672  0.2644 -0.0313 -0.1343
  358SOL    HW2 1477   1.081   0.102   0.734  0.8142 -1.1771  0.9877
  358SOL    HW3 1478   0.973   0.055   0.640  0.5250  1.2915  0.0258
  358SOL    MW4 1479   1.052   0.045   0.676  0.3715 -0.0079  0.0349
  359SOL     OW 1480   1.570   2.271   1.163 -0.3453 -0.6381 -0.5254
  359SOL    HW2 1481   1.551   2.270   1.069  0.0468 -0.2219 -0.6139
  359SOL    HW3 1482   1.508   2.335   1.200 -0.0291 -0.2748 -0.6127
  359SOL    MW4 1483   1.559   2.280   1.156 -0.2519 -0.5352 -0.5486
  360SOL     OW 1484   0.262   2.218   0.336  0.6761 -0.2058 -0.1900
  360SOL    HW2 1485   0.286   2.128   0.357 -0.8488 -0.9194 -1.4254
  360SOL    HW3 1486   0.166   2.217   0.333  0.6767  1.2839 -0.9223
  360SOL    MW4 1487   0.253   2.206   0.338  0.4750 -0.1035 -0.4496
  361SOL     OW 1488   0.491   3.706   0.306 -0.2873  0.0965 -0.2387
  361SOL    HW2 1489   0.399   3.688   0.327 -0.7567  1.7294 -0.8355
  361SOL    HW3 1490   0.539   3.635   0.349 -1.5362  1.0501  2.8730
  361SOL    MW4 1491   0.485   3.694   0.314 -0.5140  0.4377  0.0931
  362SOL     OW 1492   0.838   3.411   0.431  0.2582  0.4601 -0.1816
  362SOL    HW2 1493   0.747   3.432   0.456  0.0847  0.0237 -0.4400
  362SOL    HW3 1494   0.876   3.495   0.408  0.1996  0.7741  0.8474
  362SOL    MW4 1495   0.831   3.425   0.432  0.2276  0.4437 -0.0799
  363SOL     OW 1496   1.347   2.983   0.855 -0.2349  0.2588 -0.1125
  363SOL    HW2 1497   1.310   3.010   0.771  0.8906 -2.4304 -1.5286
  363SOL    HW3 1498   1.440   3.007   0.849 -0.0782 -0.2581  0.2193
  363SOL    MW4 1499   1.354   2.990   0.843 -0.0656 -0.1640 -0.2555
  364SOL     OW 1500   1.007   2.922   0.803 -0.2328  0.3431  0.0253
  364SOL    HW2 1501   0.963   2.848   0.843 -1.1550  0.3383 -0.9635
  364SOL    HW3 1502   1.055   2.964   0.875 -0.2816 -0.7836  0.7225
  364SOL    MW4 1503   1.008   2.918   0.818 -0.3610  0.1938 -0.0132
  365SOL     OW 1504   4.122   3.947   0.473  0.0083 -0.4331 -0.2859
  365SOL    HW2 1505   4.149   3.960   0.563  1.9271 -0.3109 -0.8571
  365SOL    HW3 1506   4.140   3.855   0.456  1.2196 -0.0745 -1.0297
  365SOL    MW4 1507   4.128   3.937   0.482  0.4215 -0.3698 -0.4594
  366SOL     OW 1508   2.198   1.053   0.881  0.1456  0.6584 -0.2525
  366SOL    HW2 1509   2.189   1.136   0.834  0.2573  0.2565 -0.9848
  366SOL    HW3 1510   2.189   1.077   0.973 -1.7811  1.2137 -0.5642
  366SOL    MW4 1511   2.196   1.067   0.887 -0.0939  0.6785 -0.3902
  367SOL     OW 1512   1.110   4.411   1.194 -0.5064 -0.0000 -0.4266
  367SOL    HW2 1513   1.087   4.401   1.286 -2.3339 -2.3308 -1.0630
  367SOL    HW3 1514   1.039   4.367   1.147  0.1741  1.4937 -2.9715
  367SOL    MW4 1515   1.098   4.403   1.200 -0.6577 -0.1106 -0.8464
  368SOL     OW 1516   1.786   1.046   0.835 -0.7597 -0.1619  0.2561
  368SOL    HW2 1517   1.820   1.135   0.834 -0.0835 -0.4098  0.6622
  368SOL    HW3 1518   1.862   0.991   0.817 -1.3946 -0.5972 -1.1790
  368SOL    MW4 1519   1.800   1.050   0.833 -0.7542 -0.2521  0.1203
  369SOL     OW 1520   0.776   3.583   1.180  0.3883 -0.0084 -0.2974
  369SOL    HW2 1521   0.785   3.601   1.273  0.9049 -0.8281 -0.1858
  369SOL    HW3 1522   0.766   3.669   1.140 -0.8718  0.2921  0.6231
  369SOL    MW4 1523   0.776   3.597   1.187  0.2902 -0.0770 -0.1611
  370SOL     OW 1524   4.422   2.784   0.427  0.1321 -0.1566 -0.4655
  370SOL    HW2 1525   4.480   2.709   0.419  0.7260  0.2820 -0.3300
  370SOL    HW3 1526   4.479   2.855   0.459 -0.7155 -0.0370  0.8003
  370SOL    MW4 1527   4.437   2.784   0.430  0.0987 -0.0832 -0.2806
  371SOL     OW 1528   1.949   2.115   0.549  0.0232  0.3595 -0.2751
  371SOL    HW2 1529   1.979   2.024   0.541 -0.9382  0.0112  0.0458
  371SOL    HW3 1530   1.902   2.132   0.468 -1.8085 -0.1934  0.6547
  371SOL    MW4 1531   1.947   2.105   0.537 -0.3451  0.2406 -0.1100
  372SOL     OW 1532   4.487   2.293   0.333 -0.4850 -0.0041  0.4132
  372SOL    HW2 1533   4.495   2.380   0.372  2.1680  1.0092 -2.2176
  372SOL    HW3 1534   4.406   2.298   0.282 -0.2682  0.9897  0.1459
  372SOL    MW4 1535   4.477   2.305   0.332 -0.1068  0.2608  0.0308
  373SOL     OW 1536   4.227   2.010   1.260  0.6414  0.5068 -0.0109
  373SOL    HW2 1537   4.244   2.099   1.230 -0.4701  1.1061  1.1047
  373SOL    HW3 1538   4.151   1.981   1.209  0.1098  0.7281  0.6485
  373SOL    MW4 1539   4.219   2.018   1.249  0.4244  0.6149  0.2232
  374SOL     OW 1540   1.103   1.573   1.131  0.4891  0.3929  0.1357
  374SOL    HW2 1541   1.038   1.620   1.184  0.2602  0.8751 -0.5736
  374SOL    HW3 1542   1.095   1.482   1.160 -0.7382  0.3837 -0.1652
  374SOL    MW4 1543   1.093   1.567   1.142  0.2970  0.4553  0.0025
  375SOL     OW 1544   1.180   0.977   0.658 -0.5386 -0.2274 -0.3705
  375SOL    HW2 1545   1.089   0.992   0.630 -0.9047  0.4147  1.1016
  375SOL    HW3 1546   1.173   0.909   0.725 -0.0826  0.6836  0.6174
  375SOL    MW4 1547   1.167   0.970   0.663 -0.5268 -0.0225 -0.0460
  376SOL     OW 1548   2.248   2.148   0.831  0.5380 -0.6724 -0.0724
  376SOL    HW2 1549   2.250   2.052   0.832 -1.5276 -0.7277  1.4017
  376SOL    HW3 1550   2.264   2.172   0.739 -0.3616 -2.4732 -0.7161
  376SOL    MW4 1551   2.251   2.139   0.819  0.1466 -0.9174  0.0372
  377SOL     OW 1552   2.514   0.228   0.664 -0.0752  0.0274 -0.1623
  377SOL    HW2 1553   2.608   0.237   0.676  0.1601 -2.8329  0.4203
  377SOL    HW3 1554   2.477   0.236   0.752 -0.2348 -0.4404 -0.1861
  377SOL    MW4 1555   2.521   0.230   0.677 -0.0653 -0.4117 -0.0885
  378SOL     OW 1556   4.275   0.057   0.610  0.0022 -0.2709 -0.0154
  378SOL    HW2 1557   4.182   0.044   0.629  0.0258  0.8312  0.9296
  378SOL    HW3 1558   4.319   0.038   0.693  0.4473  1.1225  0.0755
  378SOL    MW4 1559   4.269   0.053   0.624  0.0639  0.0583  0.1213
  379SOL     OW 1560   1.392   2.700   1.174 -0.1099 -0.2467 -0.1736
  379SOL    HW2 1561   1.471   2.743   1.207 -1.7546  0.7852  2.5831
  379SOL    HW3 1562   1.395   2.613   1.212  1.0249 -1.1638 -2.2705
  379SOL    MW4 1563   1.403   2.695   1.183 -0.1771 -0.2317 -0.0867
  380SOL     OW 1564   2.243   0.848   1.241 -0.9006  0.3334  0.1988
  380SOL    HW2 1565   2.300   0.784   1.198 -0.1494 -0.1008  1.8040
  380SOL    HW3 1566   2.164   0.799   1.264 -0.0114 -0.2405  2.1206
  380SOL    MW4 1567   2.240   0.833   1.238 -0.6840  0.2005  0.6641
  381SOL     OW 1568   2.036   2.274   0.928 -0.2477 -0.1392 -0.4438
  381SOL    HW2 1569   2.124   2.244   0.903 -0.2342  0.6206 -1.3398
  381SOL    HW3 1570   2.027   2.358   0.884 -1.0403  0.2590  0.4714
  381SOL    MW4 1571   2.047   2.281   0.919 -0.3502  0.0136 -0.4413
  382SOL     OW 1572   2.257   3.016   0.498  0.0248  0.0713  0.1453
  382SOL    HW2 1573   2.256   2.995   0.592  1.7388 -3.1378 -0.4835
  382SOL    HW3 1574   2.165   3.014   0.472 -0.3555 -0.5515  1.4718
  382SOL    MW4 1575   2.245   3.013   0.507  0.2007 -0.4344  0.2374
  383SOL     OW 1576   2.712   0.594   0.563 -0.1083  0.6776  0.0310
  383SOL    HW2 1577   2.750   0.662   0.508 -0.8504  0.3562 -0.8903
  383SOL    HW3 1578   2.631   0.569   0.518 -1.3144  1.2323  1.8644
  383SOL    MW4 1579   2.706   0.599   0.550 -0.3655  0.7084  0.1513
  384SOL     OW 1580   1.366   4.576   0.884 -0.1833 -0.2818 -0.6019
  384SOL    HW2 1581   1.447   4.626   0.875 -0.1242 -0.2352  0.1514
  384SOL    HW3 1582   1.394   4.485   0.886 -0.0051 -0.1997  1.2083
  384SOL    MW4 1583   1.380   4.571   0.883 -0.1520 -0.2642 -0.2637
  385SOL     OW 1584   0.874   4.537   0.814 -0.2311  0.2285  0.2483
  385SOL    HW2 1585   0.954   4.565   0.769 -0.9065  0.6090 -0.7355
  385SOL    HW3 1586   0.837   4.618   0.851 -1.3667  0.4293 -1.2719
  385SOL    MW4 1587   0.879   4.551   0.813 -0.4700  0.3052 -0.0821
  386SOL     OW 1588   0.067   1.453   0.572 -0.0004 -0.0074  0.3542
  386SOL    HW2 1589   0.048   1.436   0.664  0.7436 -1.7249  0.2114
  386SOL    HW3 1590  -0.016   1.436   0.527  0.4323 -2.2736  0.3536
  386SOL    MW4 1591   0.054   1.448   0.578  0.1549 -0.5330  0.3353
  387SOL     OW 1592   1.333   4.606   0.601 -0.2178  0.2430  0.1358
  387SOL    HW2 1593   1.250   4.583   0.560 -0.1805  0.3858 -0.0193
  387SOL    HW3 1594   1.321   4.585   0.694 -0.7664  1.1893  0.2825
  387SOL    MW4 1595   1.321   4.600   0.608 -0.2850  0.3872  0.1347
  388SOL     OW 1596   1.112   1.305   1.214  0.4197 -0.0266  0.2854
  388SOL    HW2 1597   1.103   1.302   1.309 -1.6315 -1.2621  0.0873
  388SOL    HW3 1598   1.029   1.271   1.181  0.5428  1.6803 -1.9632
  388SOL    MW4 1599   1.100   1.300   1.222  0.1653  0.0355 -0.0373
  389SOL     OW 1600   2.476   4.496   0.746 -0.2497  0.2834  0.0534
  389SOL    HW2 1601   2.453   4.424   0.687 -2.2549  0.9260  0.0218
  389SOL    HW3 1602   2.560   4.527   0.713  0.1114 -1.3254 -0.6039
  389SOL    MW4 1603   2.484   4.491   0.734 -0.4666  0.1559 -0.0375
  390SOL     OW 1604   1.356   1.201   1.116  0.4634 -0.2289  0.1716
  390SOL    HW2 1605   1.278   1.241   1.155  1.9087  1.5101  1.3616
  390SOL    HW3 1606   1.334   1.191   1.023 -0.3079  2.5510  0.0009
  390SOL    MW4 1607   1.343   1.205   1.109  0.5524  0.3670  0.3061
  391SOL     OW 1608   0.884   1.365   0.371 -0.2751 -0.0857  0.1602
  391SOL    HW2 1609   0.970   1.331   0.397  0.4101 -0.6248 -2.6036
  391SOL    HW3 1610   0.890   1.459   0.387 -0.2738 -0.4951  2.8014
  391SOL    MW4 1611   0.896   1.373   0.376 -0.1845 -0.2108  0.1440
  392SOL     OW 1612   2.901   0.032   1.065  0.4180 -0.0849 -0.1038
  392SOL    HW2 1613   2.833   0.073   1.119  0.1661  3.3887 -2.8317
  392SOL    HW3 1614   2.983   0.047   1.113 -0.1397  0.3487  0.7112
  392SOL    MW4 1615   2.903   0.040   1.078  0.3114  0.4306 -0.3561
  393SOL     OW 1616   4.116   1.424   0.798 -0.1336  0.2877 -0.0245
  393SOL    HW2 1617   4.125   1.379   0.714  0.8172  0.2649  0.0953
  393SOL    HW3 1618   4.094   1.355   0.860  0.2542  0.1447 -0.0448
  393SOL    MW4 1619   4.114   1.409   0.795  0.0429  0.2660 -0.0114
  394SOL     OW 1620   0.599   0.050   0.332  0.0447  0.2177  0.1066
  394SOL    HW2 1621   0.534   0.013   0.390  0.5636 -0.5478  0.1998
  394SOL    HW3 1622   0.653  -0.024   0.305  0.2150  0.6681 -0.8238
  394SOL    MW4 1623   0.598   0.036   0.336  0.1356  0.1761 -0.0038
  395SOL     OW 1624   1.318   2.711   0.902 -0.4489 -0.1745 -0.0280
  395SOL    HW2 1625   1.328   2.803   0.878 -1.0473  0.4567  1.9772
  395SOL    HW3 1626   1.338   2.709   0.996 -0.6044 -2.0678 -0.0115
  395SOL    MW4 1627   1.322   2.723   0.911 -0.5484 -0.3409  0.2388
  396SOL     OW 1628   2.822   1.024   0.525  0.1389  0.3637  0.0076
  396SOL    HW2 1629   2.881   1.016   0.600  0.0277 -0.5947  0.0026
  396SOL    HW3 1630   2.737   1.043   0.563 -0.3864 -2.3350  0.2995
  396SOL    MW4 1631   2.819   1.025   0.540  0.0551 -0.1189  0.0454
  397SOL     OW 1632   3.249   2.002   0.782 -0.3444 -0.0205 -0.4125
  397SOL    HW2 1633   3.159   1.997   0.812  0.6559 -2.2426  2.5513
  397SOL    HW3 1634   3.267   1.914   0.746  1.3685 -0.4645  1.4440
  397SOL    MW4 1635   3.240   1.990   0.781  0.0134 -0.3723  0.2235
  398SOL     OW 1636   2.007   1.777   0.811 -0.2166  0.5231  0.2467
  398SOL    HW2 1637   1.943   1.828   0.859  0.9874  1.3956  0.9267
  398SOL    HW3 1638   2.091   1.819   0.829  0.4789 -0.2285 -1.1395
  398SOL    MW4 1639   2.010   1.789   0.819  0.0341  0.5391  0.1535
  399SOL     OW 1640   3.289   3.472   0.484 -0.0179 -0.0223 -0.5308
  399SOL    HW2 1641   3.364   3.422   0.453  0.7629  0.2829  0.8290
  399SOL    HW3 1642   3.234   3.484   0.406  1.2699 -0.3639 -1.5064
  399SOL    MW4 1643   3.292   3.467   0.470  0.2551 -0.0269 -0.4801
  400SOL     OW 1644   0.390   4.613   0.486  0.5112 -0.0731 -0.0690
  400SOL    HW2 1645   0.314   4.671   0.481  0.9766  0.7381  1.6975
  400SOL    HW3 1646   0.355   4.528   0.511  0.1359  0.2199  0.4117
  400SOL    MW4 1647   0.376   4.609   0.489  0.5231  0.0725  0.2275
  401SOL     OW 1648   2.536   2.272   1.151  0.4770 -0.1949  0.4466
  401SOL    HW2 1649   2.552   2.250   1.059 -2.5656 -0.2364 -0.1393
  401SOL    HW3 1650   2.516   2.188   1.192 -0.3899  0.0840  0.6149
  401SOL    MW4 1651   2.535   2.258   1.144 -0.0389 -0.1636  0.3914
  402SOL     OW 1652   0.337   1.948   0.406  0.1255  0.2398  0.2394
  402SOL    HW2 1653   0.318   1.858   0.380  0.6524  0.2902 -0.3361
  402SOL    HW3 1654   0.409   1.942   0.468 -0.8827  0.1486  1.4082
  402SOL    MW4 1655   0.344   1.935   0.411  0.0620  0.2344  0.3176
  403SOL     OW 1656   2.954   3.063   1.190  0.1807 -0.0649  0.4182
  403SOL    HW2 1657   2.915   3.071   1.103  1.7914 -0.4557 -0.3729
  403SOL    HW3 1658   2.935   2.973   1.216 -0.9552  0.2804  0.8046
  403SOL    MW4 1659   2.947   3.052   1.182  0.2432 -0.0708  0.3648
  404SOL     OW 1660   0.118   0.301   0.261 -0.0456 -0.4033  0.1259
  404SOL    HW2 1661   0.032   0.274   0.227  1.1051 -1.1140 -2.3291
  404SOL    HW3 1662   0.135   0.239   0.332 -2.0025  0.4017  1.3556
  404SOL    MW4 1663   0.109   0.289   0.266 -0.1519 -0.3909 -0.0358
  405SOL     OW 1664   0.393   2.182   0.839 -0.1540  0.1105 -0.1309
  405SOL    HW2 1665   0.356   2.144   0.759  1.3023  0.1956 -0.8682
  405SOL    HW3 1666   0.427   2.107   0.887  1.2708  0.2937 -0.8217
  405SOL    MW4 1667   0.393   2.167   0.835  0.2261  0.1459 -0.3193
  406SOL     OW 1668   1.752   3.456   0.910 -0.3362  0.0123 -0.3367
  406SOL    HW2 1669   1.828   3.412   0.873  0.1633  0.9466 -0.4563
  406SOL    HW3 1670   1.766   3.549   0.889 -0.1203  0.5477  2.0419
  406SOL    MW4 1671   1.764   3.463   0.902 -0.2416  0.2062 -0.0386
  407SOL     OW 1672   1.324   1.133   0.839  0.1486 -0.2151  0.2096
  407SOL    HW2 1673   1.267   1.072   0.792 -0.4929  0.2628  0.3729
  407SOL    HW3 1674   1.355   1.194   0.772  0.9438 -0.8261  0.0092
  407SOL    MW4 1675   1.321   1.133   0.824  0.1689 -0.2327  0.2047
  408SOL     OW 1676   3.569   3.492   1.130 -0.4218  0.2622 -0.0548
  408SOL    HW2 1677   3.552   3.507   1.037  0.7679  0.8073 -0.1897
  408SOL    HW3 1678   3.595   3.400   1.135 -1.3756 -0.0237 -0.1203
  408SOL    MW4 1679   3.570   3.482   1.119 -0.3908  0.2961 -0.0813
  409SOL     OW 1680   0.060   0.493   0.474  0.1827  0.1957 -0.0223
  409SOL    HW2 1681  -0.029   0.528   0.484  0.1137 -0.3548  1.3844
  409SOL    HW3 1682   0.060   0.452   0.388 -1.7074 -2.0292  0.9987
  409SOL    MW4 1683   0.048   0.493   0.464 -0.0757 -0.1704  0.2980
  410SOL     OW 1684   0.297   4.361   0.571  0.5148 -0.0893  0.2661
  410SOL    HW2 1685   0.349   4.290   0.608 -0.2278 -0.8830 -0.1992
  410SOL    HW3 1686   0.206   4.333   0.580  0.2932 -0.1936 -1.8724
  410SOL    MW4 1687   0.292   4.348   0.577  0.3876 -0.2074 -0.0774
  411SOL     OW 1688   0.398   2.684   1.171  0.4440 -0.4678 -0.3722
  411SOL    HW2 1689   0.321   2.721   1.213 -0.1624 -1.2561 -0.7805
  411SOL    HW3 1690   0.393   2.590   1.188  0.7155 -0.6687 -1.3340
  411SOL    MW4 1691   0.388   2.677   1.179  0.3998 -0.5984 -0.5529
  412SOL     OW 1692   0.473   0.337   0.559  0.3250 -0.5935 -0.2519
  412SOL    HW2 1693   0.386   0.370   0.581  0.4905 -0.3971  0.1010
  412SOL    HW3 1694   0.471   0.329   0.463  0.6681  1.5557 -0.4776
  412SOL    MW4 1695   0.461   0.341   0.549  0.3921 -0.2840 -0.2351
  413SOL     OW 1696   2.546   1.677   0.179  0.3545  0.3997  0.0783
  413SOL    HW2 1697   2.508   1.599   0.221  0.9241  0.4803  0.7657
  413SOL    HW3 1698   2.629   1.689   0.224  0.7458  0.7975 -0.7500
  413SOL    MW4 1699   2.552   1.668   0.191  0.4814  0.4630  0.0597
  414SOL     OW 1700   2.859   1.295   0.478  0.0283  0.3591  0.1972
  414SOL    HW2 1701   2.872   1.200   0.484  2.4358  0.6973  1.0210
  414SOL    HW3 1702   2.942   1.328   0.443 -1.0225  2.1023 -0.7127
  414SOL    MW4 1703   2.872   1.287   0.474  0.2074  0.6338  0.1859
  415SOL     OW 1704   1.996   0.721   1.274  0.4295 -0.0110  0.7828
  415SOL    HW2 1705   1.984   0.651   1.338  0.9956  0.5282  1.4773
  415SOL    HW3 1706   1.911   0.766   1.273  0.4009 -0.0562  1.1018
  415SOL    MW4 1707   1.983   0.717   1.282  0.5004  0.0542  0.9165
  416SOL     OW 1708   1.653   2.945   0.537 -0.4461 -0.3945 -0.0119
  416SOL    HW2 1709   1.731   2.940   0.591 -0.2268  2.3954 -0.0010
  416SOL    HW3 1710   1.598   2.871   0.566  0.0961  0.4427  3.2982
  416SOL    MW4 1711   1.656   2.934   0.548 -0.3458  0.0844  0.4262
  417SOL     OW 1712   3.155   0.413   1.119  0.5418  0.4682 -0.5919
  417SOL    HW2 1713   3.079   0.454   1.159  0.8900  0.5607 -0.0248
  417SOL    HW3 1714   3.150   0.322   1.147  1.0615  0.6445  0.0727
  417SOL    MW4 1715   3.144   0.406   1.128  0.6564  0.5037 -0.4295
  418SOL     OW 1716   2.030   1.490   1.168  0.5937  0.2893  0.0830
  418SOL    HW2 1717   2.031   1.405   1.212 -0.3716  0.8188  1.1733
  418SOL    HW3 1718   1.950   1.533   1.201 -0.6912  0.3266 -2.9376
  418SOL    MW4 1719   2.019   1.485   1.178  0.2968  0.3641 -0.1717
  419SOL     OW 1720   0.732   3.139   0.444  0.1353 -0.2952 -0.3930
  419SOL    HW2 1721   0.638   3.156   0.447  0.2458  0.0791  1.5337
  419SOL    HW3 1722   0.771   3.224   0.424  0.1049 -0.3729 -0.7998
  419SOL    MW4 1723   0.724   3.152   0.442  0.1459 -0.2563 -0.1925
  420SOL     OW 1724   2.055   3.049   0.913 -0.7367 -0.3328  0.5153
  420SOL    HW2 1725   2.135   3.014   0.874 -1.4000  0.1525 -1.3558
  420SOL    HW3 1726   2.073   3.051   1.007  0.7534 -1.9585  0.2880
  420SOL    MW4 1727   2.068   3.045   0.920 -0.6275 -0.4833  0.2385
  421SOL     OW 1728   2.254   1.874   0.894  0.4116  0.1043  0.2992
  421SOL    HW2 1729   2.300   1.796   0.864 -0.7113 -1.1030  1.6634
  421SOL    HW3 1730   2.281   1.885   0.985  0.7896  1.4832  0.0385
  421SOL    MW4 1731   2.264   1.865   0.902  0.3135  0.1270  0.4448
  422SOL     OW 1732   2.528   2.202   0.889  0.3704 -0.2989 -0.2105
  422SOL    HW2 1733   2.434   2.183   0.894  0.1925  0.5125 -0.4727
  422SOL    HW3 1734   2.561   2.145   0.820 -0.0463 -0.1171 -0.5566
  422SOL    MW4 1735   2.520   2.192   0.881  0.2918 -0.1681 -0.2908
  423SOL     OW 1736   3.220   3.634   0.873 -0.3310  0.3508 -0.1601
  423SOL    HW2 1737   3.151   3.700   0.884 -0.5440  0.0240  0.5358
  423SOL    HW3 1738   3.259   3.654   0.788  0.3359  2.0599  0.5097
  423SOL    MW4 1739   3.216   3.646   0.864 -0.2713  0.5331  0.0200
  424SOL     OW 1740   4.095   1.936   0.530 -1.1678 -0.2352 -0.0367
  424SOL    HW2 1741   4.112   1.945   0.623  0.0350  0.6863 -0.3364
  424SOL    HW3 1742   4.052   2.018   0.505 -0.1505  0.1555 -0.5698
  424SOL    MW4 1743   4.092   1.948   0.539 -0.8755 -0.0620 -0.1466
  425SOL     OW 1744   4.363   0.182   0.203 -0.1354 -0.3219  0.3720
  425SOL    HW2 1745   4.334   0.161   0.114  0.9535  2.1387 -0.5953
  425SOL    HW3 1746   4.285   0.214   0.246  0.1962  2.5258 -1.0287
  425SOL    MW4 1747   4.349   0.183   0.197  0.0525  0.3784  0.0596
  426SOL     OW 1748   1.872   3.307   0.603  0.0297  0.1512  0.0575
  426SOL    HW2 1749   1.903   3.236   0.547  1.5818  0.2885  0.7419
  426SOL    HW3 1750   1.779   3.316   0.580  0.1248 -1.2451 -0.9286
  426SOL    MW4 1751   1.864   3.299   0.592  0.2471 -0.0148  0.0178
  427SOL     OW 1752   0.905   3.378   0.822  0.2745  0.2537 -0.2312
  427SOL    HW2 1753   0.869   3.291   0.808  1.5970  0.0264 -2.4533
  427SOL    HW3 1754   0.829   3.435   0.830 -0.5847 -0.7957 -0.7915
  427SOL    MW4 1755   0.891   3.374   0.821  0.3357  0.0854 -0.5983
  428SOL     OW 1756   2.172   1.315   0.760  0.6343  0.1810  0.1824
  428SOL    HW2 1757   2.179   1.353   0.673  1.5268 -0.4497 -0.0249
  428SOL    HW3 1758   2.111   1.373   0.806 -0.3493  0.1504 -1.0507
  428SOL    MW4 1759   2.165   1.328   0.755  0.6223  0.0937 -0.0076
  429SOL     OW 1760   3.751   3.794   0.852 -0.0435  0.2170 -0.4747
  429SOL    HW2 1761   3.780   3.804   0.942 -0.8962  1.8319 -0.3664
  429SOL    HW3 1762   3.800   3.859   0.803 -1.0923  0.7760 -0.8135
  429SOL    MW4 1763   3.761   3.804   0.857 -0.2944  0.5040 -0.5051
  430SOL     OW 1764   3.794   2.397   0.862 -0.0105 -0.2333  0.2522
  430SOL    HW2 1765   3.773   2.490   0.866 -0.8747 -0.3421 -1.4239
  430SOL    HW3 1766   3.886   2.394   0.836  0.4477  0.1589  1.7880
  430SOL    MW4 1767   3.803   2.409   0.859 -0.0639 -0.1962  0.2337
  431SOL     OW 1768   0.761   3.795   0.205  0.0995  0.1587  0.0491
  431SOL    HW2 1769   0.678   3.747   0.205  0.2628 -0.1320 -1.0841
  431SOL    HW3 1770   0.735   3.886   0.186  0.3248 -0.4992 -3.7884
  431SOL    MW4 1771   0.747   3.801   0.202  0.1509  0.0334 -0.6067
  432SOL     OW 1772   4.466   3.293   0.582 -0.1741  0.0528 -0.5796
  432SOL    HW2 1773   4.487   3.205   0.552  1.7068 -0.1834  1.3333
  432SOL    HW3 1774   4.433   3.280   0.671 -1.5521  1.1328 -0.9204
  432SOL    MW4 1775   4.464   3.279   0.590 -0.1082  0.1640 -0.3721
  433SOL     OW 1776   2.799   3.702   0.536 -0.3657 -0.1336 -0.0671
  433SOL    HW2 1777   2.865   3.637   0.512 -0.0674  0.2364 -0.2782
  433SOL    HW3 1778   2.829   3.782   0.492 -2.5944 -0.6597 -2.6847
  433SOL    MW4 1779   2.812   3.704   0.527 -0.6206 -0.1543 -0.4404
  434SOL     OW 1780   0.433   3.635   0.660  0.1633 -0.0972 -0.1773
  434SOL    HW2 1781   0.483   3.710   0.692  0.6790 -0.0732 -1.0259
  434SOL    HW3 1782   0.352   3.673   0.626  0.3719  0.0580 -0.4963
  434SOL    MW4 1783   0.429   3.650   0.660  0.2589 -0.0737 -0.3313
  435SOL     OW 1784   0.601   2.487   0.570  0.1969  0.4904  0.0205
  435SOL    HW2 1785   0.609   2.576   0.536  0.0681  0.5439  0.1285
  435SOL    HW3 1786   0.522   2.453   0.528  0.8060  0.0722 -0.8048
  435SOL    MW4 1787   0.592   2.494   0.560  0.2603  0.4423 -0.0741
  436SOL     OW 1788   2.112   4.173   0.384  0.2635 -0.1442 -0.1425
  436SOL    HW2 1789   2.118   4.237   0.455  0.4989  0.5591 -0.7862
  436SOL    HW3 1790   2.033   4.124   0.403  0.3431  0.0180  0.6264
  436SOL    MW4 1791   2.103   4.175   0.396  0.3054 -0.0300 -0.1260
  437SOL     OW 1792   3.223   0.325   0.852 -0.1360  0.2996  0.1414
  437SOL    HW2 1793   3.204   0.338   0.945  3.2988  1.3974  0.7705
  437SOL    HW3 1794   3.212   0.412   0.813  0.9242  0.3963  0.0382
  437SOL    MW4 1795   3.219   0.338   0.859  0.4570  0.4573  0.2108
  438SOL     OW 1796   3.140   1.341   0.455 -0.5809  0.1399 -0.1003
  438SOL    HW2 1797   3.172   1.399   0.524  1.5353  0.2742 -1.1481
  438SOL    HW3 1798   3.208   1.274   0.447 -1.9754 -1.2351 -0.3851
  438SOL    MW4 1799   3.154   1.340   0.463 -0.4854 -0.0238 -0.2761
  439SOL     OW 1800   3.755   1.953   0.391 -0.2954  0.0378  0.8274
  439SOL    HW2 1801   3.707   1.914   0.465  1.9529  1.2777  2.9857
  439SOL    HW3 1802   3.809   1.881   0.358 -3.3032 -1.3108 -1.4802
  439SOL    MW4 1803   3.755   1.938   0.396 -0.3955  0.0235  0.8077
  440SOL     OW 1804   1.410   3.471   1.146 -0.1665 -0.3094 -0.2185
  440SOL    HW2 1805   1.390   3.386   1.186  0.4926 -0.7540 -0.8310
  440SOL    HW3 1806   1.385   3.461   1.054  0.6676 -0.1013 -0.4730
  440SOL    MW4 1807   1.404   3.459   1.139  0.0304 -0.3407 -0.3330
  441SOL     OW 1808   1.595   2.286   0.868 -0.1814 -0.3657  0.1919
  441SOL    HW2 1809   1.616   2.379   0.879 -3.1017  0.4211 -0.4309
  441SOL    HW3 1810   1.674   2.248   0.831  0.8682  1.9933 -0.0809
  441SOL    MW4 1811   1.608   2.293   0.865 -0.4282  0.0496  0.0738
  442SOL     OW 1812   2.247   0.227   1.259 -0.2353  0.4977 -0.0283
  442SOL    HW2 1813   2.161   0.231   1.216 -0.4128  1.6109  0.4092
  442SOL    HW3 1814   2.291   0.154   1.217 -0.5800  1.2705 -1.7901
  442SOL    MW4 1815   2.241   0.218   1.248 -0.3042  0.7465 -0.2030
  443SOL     OW 1816   2.506   3.362   0.778 -0.0300  0.4974 -0.4553
  443SOL    HW2 1817   2.418   3.392   0.803 -0.3049 -0.5947 -0.1113
  443SOL    HW3 1818   2.508   3.371   0.683 -0.3696  0.9210 -0.4251
  443SOL    MW4 1819   2.494   3.367   0.769 -0.1109  0.4089 -0.4059
  444SOL     OW 1820   3.430   0.613   0.894 -0.4990  0.3703  0.6931
  444SOL    HW2 1821   3.412   0.675   0.965 -1.2744  0.0842  0.7554
  444SOL    HW3 1822   3.343   0.587   0.863 -0.1684  0.1699 -0.0806
  444SOL    MW4 1823   3.416   0.618   0.899 -0.5577  0.3061  0.5993
  445SOL     OW 1824   3.704   0.796   0.602 -0.4913 -0.3075 -0.0432
  445SOL    HW2 1825   3.782   0.830   0.646  0.0957 -1.0900 -0.4798
  445SOL    HW3 1826   3.679   0.866   0.541  0.4898 -0.4897 -0.6672
  445SOL    MW4 1827   3.711   0.810   0.600 -0.2844 -0.4348 -0.1832
  446SOL     OW 1828   0.374   3.461   0.863 -0.3559  0.0341 -0.0858
  446SOL    HW2 1829   0.393   3.530   0.799 -0.2052  0.4958  0.4626
  446SOL    HW3 1830   0.431   3.480   0.937 -0.8730 -0.2446  0.3828
  446SOL    MW4 1831   0.384   3.472   0.864 -0.4042  0.0582  0.0483
  447SOL     OW 1832   1.566   1.509   1.117  0.8052  0.3474  0.0022
  447SOL    HW2 1833   1.602   1.425   1.146 -0.8354 -0.4608 -0.2351
  447SOL    HW3 1834   1.587   1.512   1.023  1.2596  0.4123  0.1043
  447SOL    MW4 1835   1.573   1.498   1.108  0.6489  0.2493 -0.0157
  448SOL     OW 1836   3.250   3.124   0.874 -0.2796  0.1146 -0.1930
  448SOL    HW2 1837   3.178   3.186   0.878 -0.7612 -0.2036 -3.1526
  448SOL    HW3 1838   3.215   3.048   0.828  1.7197 -0.3428 -1.0327
  448SOL    MW4 1839   3.236   3.122   0.869 -0.0794  0.0124 -0.6943
  449SOL     OW 1840   4.472   2.316   0.753  0.2672  0.3083  0.0399
  449SOL    HW2 1841   4.465   2.251   0.683 -1.7767 -0.8708  1.3017
  449SOL    HW3 1842   4.553   2.293   0.799  0.8898  0.2365 -1.0730
  449SOL    MW4 1843   4.482   2.304   0.750  0.0792  0.1433  0.0595
  450SOL     OW 1844   0.125   0.808   0.880  0.2717  0.1942 -0.8232
  450SOL    HW2 1845   0.162   0.733   0.833  0.6659  0.0539 -0.2848
  450SOL    HW3 1846   0.154   0.797   0.970 -3.6808 -1.6628  0.3522
  450SOL    MW4 1847   0.133   0.796   0.886 -0.1978 -0.0693 -0.5971
  451SOL     OW 1848   2.258   2.940   0.764 -0.1400  0.2926 -0.5135
  451SOL    HW2 1849   2.333   2.993   0.792 -0.0606  0.1851 -0.5259
  451SOL    HW3 1850   2.278   2.851   0.793 -0.1455  0.2162 -0.7472
  451SOL    MW4 1851   2.270   2.935   0.772 -0.1302  0.2682 -0.5460
  452SOL     OW 1852   3.984   3.272   0.633  0.4732  0.4069 -0.0750
  452SOL    HW2 1853   4.011   3.262   0.725  0.0966 -0.3194 -0.0381
  452SOL    HW3 1854   4.065   3.268   0.583  0.6862  0.8646  0.2308
  452SOL    MW4 1855   3.998   3.270   0.639  0.4518  0.3712 -0.0297
  453SOL     OW 1856   4.387   1.829   0.927  0.6110  0.1291  0.4253
  453SOL    HW2 1857   4.342   1.744   0.930 -1.5567  1.2727  1.8726
  453SOL    HW3 1858   4.318   1.891   0.904  1.6449  1.8391  1.8869
  453SOL    MW4 1859   4.372   1.826   0.924  0.4611  0.5057  0.8091
  454SOL     OW 1860   3.615   3.030   0.773  0.1798  0.3975  0.3547
  454SOL    HW2 1861   3.548   3.092   0.746  1.1795  1.5382  0.4716
  454SOL    HW3 1862   3.682   3.035   0.705  0.6668  0.0800  0.8026
  454SOL    MW4 1863   3.615   3.039   0.761  0.3760  0.5059  0.4293
  455SOL     OW 1864   0.721   1.092   0.648  0.2351  0.3756 -0.2641
  455SOL    HW2 1865   0.739   1.113   0.740 -2.1792  0.1303  0.2979
  455SOL    HW3 1866   0.688   1.173   0.610  0.5303  0.2800 -0.7298
  455SOL    MW4 1867   0.719   1.105   0.655 -0.0444  0.3307 -0.2513
  456SOL     OW 1868   2.451   0.669   0.907  0.0389  0.3995 -0.3658
  456SOL    HW2 1869   2.377   0.609   0.896 -0.7700  1.5890 -1.6068
  456SOL    HW3 1870   2.528   0.617   0.884 -0.4403 -0.7662  0.6573
  456SOL    MW4 1871   2.451   0.654   0.902 -0.1314  0.4027 -0.3946
  457SOL     OW 1872   2.895   3.958   0.435  0.1336 -0.1112  0.2628
  457SOL    HW2 1873   2.861   3.991   0.518 -0.7569  0.3291 -0.2685
  457SOL    HW3 1874   2.869   4.024   0.371  0.0699 -0.8814 -0.5042
  457SOL    MW4 1875   2.887   3.971   0.438  0.0079 -0.1545  0.0915
  458SOL     OW 1876   2.478   0.583   0.396 -0.2292 -0.5275 -0.2256
  458SOL    HW2 1877   2.416   0.641   0.440  0.3015  0.4982 -0.8118
  458SOL    HW3 1878   2.531   0.642   0.342 -0.5650 -1.7290 -1.8721
  458SOL    MW4 1879   2.477   0.599   0.395 -0.2034 -0.5507 -0.5202
  459SOL     OW 1880   0.422   1.186   1.147 -0.4782  0.1993  0.5248
  459SOL    HW2 1881   0.344   1.217   1.194 -1.4406 -0.6302 -0.4987
  459SOL    HW3 1882   0.426   1.092   1.166  0.1681  0.2050  0.4242
  459SOL    MW4 1883   0.412   1.178   1.156 -0.5199  0.0906  0.3765
  460SOL     OW 1884   4.366   3.293   0.840 -0.2827 -0.2540 -0.2868
  460SOL    HW2 1885   4.338   3.202   0.834  1.0892 -0.5929 -2.0555
  460SOL    HW3 1886   4.451   3.288   0.885 -0.3693  0.1863 -0.0764
  460SOL    MW4 1887   4.374   3.280   0.845 -0.1130 -0.2406 -0.4923
  461SOL     OW 1888   3.987   1.149   1.158  0.1725 -0.1111 -0.1794
  461SOL    HW2 1889   4.005   1.061   1.191  0.5988  0.0552  0.0379
  461SOL    HW3 1890   4.064   1.200   1.183 -0.5809  0.6124  0.7140
  461SOL    MW4 1891   4.000   1.144   1.166  0.1292  0.0062 -0.0329
  462SOL     OW 1892   1.156   0.768   1.112 -0.0996  0.3704  0.3129
  462SOL    HW2 1893   1.160   0.772   1.017  0.5437 -0.8344  0.2695
  462SOL    HW3 1894   1.139   0.675   1.131 -0.2972  0.6170  1.3598
  462SOL    MW4 1895   1.155   0.756   1.102 -0.0408  0.2439  0.4452
  463SOL     OW 1896   1.784   4.528   0.784  0.1054  0.2755  0.2377
  463SOL    HW2 1897   1.725   4.504   0.712  0.2837  0.3744  0.0584
  463SOL    HW3 1898   1.831   4.447   0.804  0.9916  0.5738 -0.6327
  463SOL    MW4 1899   1.782   4.514   0.777  0.2458  0.3276  0.0991
  464SOL     OW 1900   4.419   0.060   0.856  0.0902  0.5007  0.3036
  464SOL    HW2 1901   4.461  -0.024   0.840  0.1417  0.4309  0.7902
  464SOL    HW3 1902   4.326   0.039   0.870  0.3116  0.3869  1.6390
  464SOL    MW4 1903   4.412   0.046   0.856  0.1259  0.4765  0.5440
  465SOL     OW 1904   0.704   0.003   1.169 -0.3382  0.2581  0.0907
  465SOL    HW2 1905   0.709   0.020   1.075  1.1616 -1.3558 -0.1323
  465SOL    HW3 1906   0.791   0.022   1.202 -0.3554 -0.9331  0.8481
  465SOL    MW4 1907   0.716   0.008   1.161 -0.1425 -0.1116  0.1613
  466SOL     OW 1908   2.608   0.778   0.248 -0.3887 -0.0046  0.0138
  466SOL    HW2 1909   2.544   0.848   0.262 -1.6200 -0.9366 -0.9083
  466SOL    HW3 1910   2.608   0.764   0.153  0.3084 -0.8343  0.1348
  466SOL    MW4 1911   2.600   0.786   0.237 -0.4590 -0.2370 -0.0919
  467SOL     OW 1912   0.777   4.514   0.304 -0.3316 -0.6656  0.3686
  467SOL    HW2 1913   0.757   4.441   0.245 -0.2774  1.2149 -2.0924
  467SOL    HW3 1914   0.853   4.556   0.265 -1.2381  1.5515  0.9141
  467SOL    MW4 1915   0.784   4.510   0.291 -0.4440 -0.1245  0.1158
  468SOL     OW 1916   3.616   3.952   1.263  0.6826 -0.5842 -0.0990
  468SOL    HW2 1917   3.606   3.956   1.358  1.1494 -0.7738 -0.0381
  468SOL    HW3 1918   3.532   3.920   1.231  0.6293 -0.8252  0.2756
  468SOL    MW4 1919   3.604   3.948   1.271  0.7372 -0.6411 -0.0417
  469SOL     OW 1920   4.202   1.021   0.539  0.4867  0.1028  0.0963
  469SOL    HW2 1921   4.295   1.004   0.526  0.8083  0.4606  1.7595
  469SOL    HW3 1922   4.161   0.935   0.534  1.1256 -0.2614  0.9237
  469SOL    MW4 1923   4.209   1.008   0.537  0.6127  0.1019  0.4249
  470SOL     OW 1924   1.923   4.117   0.776 -0.5694 -0.1193 -0.8059
  470SOL    HW2 1925   1.971   4.051   0.824  0.0807 -0.0688 -1.3783
  470SOL    HW3 1926   1.837   4.119   0.817 -0.4281 -0.9571 -0.4617
  470SOL    MW4 1927   1.918   4.109   0.787 -0.4649 -0.2232 -0.8360
  471SOL     OW 1928   0.876   4.333   1.029  0.0069  0.4893 -0.1216
  471SOL    HW2 1929   0.879   4.393   0.955  1.3124 -0.2804 -0.7057
  471SOL    HW3 1930   0.793   4.354   1.073 -0.1366  1.8640 -1.0111
  471SOL    MW4 1931   0.865   4.344   1.025  0.1602  0.5689 -0.3160
  472SOL     OW 1932   0.238   2.719   0.671 -0.4553  0.0140 -0.3800
  472SOL    HW2 1933   0.147   2.722   0.703 -0.3697  1.5437 -0.2454
  472SOL    HW3 1934   0.285   2.669   0.738 -0.7110  1.3591  0.8240
  472SOL    MW4 1935   0.232   2.713   0.684 -0.4777  0.3932 -0.2034
  473SOL     OW 1936   3.375   3.854   1.152  0.1060  0.4800 -0.3517
  473SOL    HW2 1937   3.360   3.767   1.190  0.3992  0.6723  0.2138
  473SOL    HW3 1938   3.298   3.905   1.176 -0.0127  0.4101 -0.5844
  473SOL    MW4 1939   3.363   3.849   1.160  0.1290  0.4961 -0.3079
  474SOL     OW 1940   1.797   2.853   0.317  0.0397 -0.4123 -0.1543
  474SOL    HW2 1941   1.729   2.871   0.382 -1.2407 -0.7988 -1.3652
  474SOL    HW3 1942   1.833   2.769   0.343 -1.2660 -1.1187 -0.5950
  474SOL    MW4 1943   1.793   2.845   0.329 -0.3015 -0.5565 -0.3721
  475SOL     OW 1944   2.723   2.646   0.256  0.3706 -0.4178 -0.1169
  475SOL    HW2 1945   2.720   2.718   0.193  1.4767  0.0732  0.3878
  475SOL    HW3 1946   2.797   2.666   0.313 -0.4917 -0.9637  1.2217
  475SOL    MW4 1947   2.732   2.658   0.255  0.4027 -0.4251  0.1263
  476SOL     OW 1948   3.000   4.553   0.549 -0.3766 -0.0941 -0.0848
  476SOL    HW2 1949   3.069   4.564   0.615 -0.0076  2.3947 -0.8292
  476SOL    HW3 1950   2.920   4.578   0.595 -0.5955 -1.5868  0.3624
  476SOL    MW4 1951   2.999   4.558   0.564 -0.3567  0.0372 -0.1240
  477SOL     OW 1952   3.834   2.447   0.450 -0.1220  0.2032  0.0950
  477SOL    HW2 1953   3.749   2.403   0.444 -0.5315  0.8759  0.8155
  477SOL    HW3 1954   3.845   2.491   0.365 -0.8848  0.8075  0.3049
  477SOL    MW4 1955   3.824   2.447   0.438 -0.2766  0.3715  0.2178
  478SOL     OW 1956   1.254   3.386   0.906 -0.4021 -0.2494 -0.1357
  478SOL    HW2 1957   1.218   3.452   0.847 -0.4652 -0.7925 -0.7130
  478SOL    HW3 1958   1.342   3.369   0.871  0.2345  0.6865  0.9506
  478SOL    MW4 1959   1.261   3.392   0.893 -0.3265 -0.1976 -0.0685
  479SOL     OW 1960   3.600   2.251   0.719 -0.3876  0.0944  0.1999
  479SOL    HW2 1961   3.662   2.311   0.760 -0.9874  0.9818 -0.1837
  479SOL    HW3 1962   3.630   2.164   0.746 -0.9686  0.6473  2.8546
  479SOL    MW4 1963   3.612   2.247   0.728 -0.5436  0.2847  0.4995
  480SOL     OW 1964   0.446   1.689   1.233 -0.1501 -0.0295  0.3619
  480SOL    HW2 1965   0.444   1.785   1.231 -2.8510 -0.0551 -0.3378
  480SOL    HW3 1966   0.437   1.667   1.326  0.6171  0.3952  0.5380
  480SOL    MW4 1967   0.445   1.699   1.245 -0.4053  0.0231  0.2928
  481SOL     OW 1968   1.776   1.917   0.907  0.2631  0.1040  0.6286
  481SOL    HW2 1969   1.797   2.005   0.875 -0.2586 -0.0150 -0.0771
  481SOL    HW3 1970   1.781   1.924   1.002 -0.3918  1.0678  0.6066
  481SOL    MW4 1971   1.779   1.930   0.915  0.1080  0.2154  0.5326
  482SOL     OW 1972   2.177   4.368   0.575  0.3509 -0.2601  0.3892
  482SOL    HW2 1973   2.198   4.456   0.542 -1.2100 -0.5217 -1.3481
  482SOL    HW3 1974   2.125   4.384   0.654 -0.7217  0.3863 -0.4349
  482SOL    MW4 1975   2.173   4.382   0.581  0.0031 -0.2093  0.0513
  483SOL     OW 1976   4.156   3.482   0.876  0.3971  0.5389  0.0124
  483SOL    HW2 1977   4.232   3.425   0.864 -0.2194 -0.4075  0.5289
  483SOL    HW3 1978   4.129   3.467   0.967 -0.4818  0.7699 -0.2068
  483SOL    MW4 1979   4.162   3.473   0.886  0.2003  0.4447  0.0517
  484SOL     OW 1980   0.051   3.934   0.517 -0.1035  0.4996  0.1125
  484SOL    HW2 1981   0.107   3.943   0.594 -1.1853  0.6661  0.8815
  484SOL    HW3 1982  -0.012   3.866   0.541  0.2449 -0.2648 -1.0479
  484SOL    MW4 1983   0.050   3.926   0.530 -0.2003  0.4208  0.0609
  485SOL     OW 1984   0.232   4.664   1.136 -0.2215  0.0977  0.3874
  485SOL    HW2 1985   0.242   4.658   1.040  0.7045 -0.2174  0.4959
  485SOL    HW3 1986   0.314   4.703   1.166 -0.7954  0.8367  0.9934
  485SOL    MW4 1987   0.244   4.668   1.127 -0.1751  0.1536  0.4818
  486SOL     OW 1988   0.010   0.080   1.279  0.6046 -0.0951 -0.2056
  486SOL    HW2 1989  -0.063   0.034   1.237  1.2068  0.1552 -1.5508
  486SOL    HW3 1990   0.088   0.051   1.232  1.0580  1.8835 -0.7484
  486SOL    MW4 1991   0.010   0.070   1.267  0.7439  0.1990 -0.4547
  487SOL     OW 1992   4.479   0.328   1.159  0.3001  0.4004  0.0117
  487SOL    HW2 1993   4.485   0.241   1.197  0.7089 -0.3491 -1.7339
  487SOL    HW3 1994   4.403   0.368   1.201 -0.7318 -1.3167 -0.2047
  487SOL    MW4 1995   4.470   0.322   1.170  0.2179  0.0750 -0.2470
  488SOL     OW 1996   0.243   0.483   1.236 -0.2588 -0.1365  0.3326
  488SOL    HW2 1997   0.164   0.450   1.193 -0.1741 -0.7169  0.6184
  488SOL    HW3 1998   0.254   0.572   1.202  0.4627 -0.9922 -1.7680
  488SOL    MW4 1999   0.234   0.491   1.226 -0.1525 -0.3260  0.0932
  489SOL     OW 2000   1.363   3.795   0.700  0.3196  0.0209  0.7611
  489SOL    HW2 2001   1.291   3.734   0.718 -1.1514  1.4923 -0.0362
  489SOL    HW3 2002   1.347   3.869   0.759  0.6033  0.7873 -0.1027
  489SOL    MW4 2003   1.351   3.797   0.710  0.1630  0.3161  0.5419
  490SOL     OW 2004   1.817   1.320   0.765 -0.2933  0.0766  0.0259
  490SOL    HW2 2005   1.841   1.349   0.676 -2.5795  1.5218 -0.1511
  490SOL    HW3 2006   1.862   1.382   0.822  2.1461 -1.5555 -0.0148
  490SOL    MW4 2007   1.826   1.332   0.760 -0.2730  0.0520 -0.0027
  491SOL     OW 2008   0.028   0.866   1.236  0.1056  0.9224 -0.1013
  491SOL    HW2 2009   0.030   0.855   1.331 -0.4182 -1.4255 -0.3325
  491SOL    HW3 2010  -0.060   0.840   1.210  1.0568 -1.0432 -1.4917
  491SOL    MW4 2011   0.017   0.862   1.245  0.1621  0.3532 -0.3153
  492SOL     OW 2012   0.650   1.303   1.245  0.0196  0.2984  0.2083
  492SOL    HW2 2013   0.657   1.391   1.206  1.4991 -0.1352 -0.5500
  492SOL    HW3 2014   0.571   1.266   1.207  0.7022  0.4046 -1.3344
  492SOL    MW4 2015   0.641   1.310   1.235  0.3048  0.2552 -0.0952
  493SOL     OW 2016   0.699   2.072   1.257 -0.0020  0.4319  0.2463
  493SOL    HW2 2017   0.689   2.161   1.224 -0.1822  0.5675  0.6656
  493SOL    HW3 2018   0.696   2.081   1.353  0.0308 -0.0162  0.2919
  493SOL    MW4 2019   0.697   2.085   1.266 -0.0215  0.3905  0.3078
  494SOL     OW 2020   4.483   1.596   1.236 -0.3859 -0.1409  0.4596
  494SOL    HW2 2021   4.472   1.688   1.212  0.4169  0.0016  0.6305
  494SOL    HW3 2022   4.568   1.572   1.199 -0.6617 -0.8551  0.2879
  494SOL    MW4 2023   4.493   1.605   1.228 -0.3161 -0.2162  0.4596
  495SOL     OW 2024   4.244   2.273   1.165  0.1760 -0.0379  0.1112
  495SOL    HW2 2025   4.320   2.323   1.194  0.2090 -0.3342  0.5485
  495SOL    HW3 2026   4.169   2.331   1.178  0.2966  0.1584 -0.0726
  495SOL    MW4 2027   4.244   2.287   1.170  0.1965 -0.0513  0.1446
  496SOL     OW 2028   0.188   2.017   1.289 -0.4041 -0.6259 -0.2582
  496SOL    HW2 2029   0.266   1.983   1.244 -0.2057 -0.1708 -0.2640
  496SOL    HW3 2030   0.115   1.971   1.248 -0.1274 -1.1833 -0.1369
  496SOL    MW4 2031   0.189   2.006   1.278 -0.3414 -0.6394 -0.2429
  497SOL     OW 2032   4.428   2.485   1.220 -0.1399  0.2416  0.0808
  497SOL    HW2 2033   4.467   2.559   1.173  1.4592 -0.5722  0.0743
  497SOL    HW3 2034   4.416   2.517   1.309 -2.1618  1.4390 -0.6131
  497SOL    MW4 2035   4.432   2.499   1.226 -0.1955  0.2921 -0.0117
  498SOL     OW 2036   0.380   3.210   0.750  0.3237 -0.2478  0.2103
  498SOL    HW2 2037   0.360   3.289   0.800  1.3998 -0.4846  1.0488
  498SOL    HW3 2038   0.453   3.170   0.797  0.2757 -1.3532 -0.6277
  498SOL    MW4 2039   0.387   3.215   0.763  0.4594 -0.4251  0.2103
  499SOL     OW 2040   0.894   2.708   0.918  0.5625  0.4549 -1.0806
  499SOL    HW2 2041   0.877   2.681   1.008  0.6868 -0.7508 -1.4182
  499SOL    HW3 2042   0.815   2.683   0.870  1.5056 -1.2138 -1.7968
  499SOL    MW4 2043   0.881   2.702   0.924  0.7033  0.0761 -1.2196
  500SOL     OW 2044   0.398   2.416   1.225 -0.4918  0.1724  0.1310
  500SOL    HW2 2045   0.391   2.420   1.320  2.0278 -1.2640  0.4060
  500SOL    HW3 2046   0.315   2.376   1.197 -0.2408 -1.7111  1.9260
  500SOL    MW4 2047   0.386   2.411   1.234 -0.1262 -0.2658  0.4044
  501SOL     OW 2048   0.179   2.821   1.257 -0.1499 -0.0940 -0.4991
  501SOL    HW2 2049   0.210   2.908   1.231 -0.6958  0.3536  0.3046
  501SOL    HW3 2050   0.136   2.786   1.179  4.5861 -1.8260 -2.5160
  501SOL    MW4 2051   0.177   2.828   1.244  0.4029 -0.2639 -0.6593
  502SOL     OW 2052   4.423   3.209   1.248 -0.3078  0.4467 -0.4197
  502SOL    HW2 2053   4.368   3.171   1.180 -0.0288  0.4148 -0.6289
  502SOL    HW3 2054   4.444   3.296   1.216 -0.2843  0.4808 -0.3116
  502SOL    MW4 2055   4.418   3.215   1.235 -0.2679  0.4468 -0.4330
  503SOL     OW 2056   0.049   2.532   0.468 -0.1468  0.4056 -0.2379
  503SOL    HW2 2057   0.142   2.517   0.481 -0.2838 -0.4395 -0.1802
  503SOL    HW3 2058   0.020   2.578   0.546  0.1707  0.4318 -0.1381
  503SOL    MW4 2059   0.057   2.536   0.480 -0.1229  0.2975 -0.2171
  504SOL     OW 2060   0.195   2.352   0.907 -0.4555 -0.0844  0.0639
  504SOL    HW2 2061   0.168   2.348   0.998  1.7635  1.7828  0.8635
  504SOL    HW3 2062   0.266   2.289   0.900 -0.9950 -0.6359 -0.5398
  504SOL    MW4 2063   0.200   2.343   0.918 -0.2339  0.0892  0.0897
  505SOL     OW 2064   0.255   3.078   1.176 -0.1436 -0.2777  0.4972
  505SOL    HW2 2065   0.330   3.131   1.203  0.5009 -1.8387  1.9177
  505SOL    HW3 2066   0.179   3.124   1.210  0.2529  0.7365  0.0336
  505SOL    MW4 2067   0.255   3.091   1.184 -0.0062 -0.3498  0.6233
  506SOL     OW 2068   0.007   3.986   1.208  0.4426  0.0847 -0.2360
  506SOL    HW2 2069   0.000   3.993   1.303 -0.3304 -0.8052 -0.2224
  506SOL    HW3 2070  -0.079   3.957   1.179  0.4020  1.2330 -1.3000
  506SOL    MW4 2071  -0.005   3.983   1.217  0.3353  0.1190 -0.3744
  507SOL     OW 2072   0.002   4.257   1.140 -0.4991  0.1433 -0.2473
  507SOL    HW2 2073   0.076   4.293   1.189  1.1893  0.1540 -2.7323
  507SOL    HW3 2074  -0.003   4.166   1.167 -0.5690  0.5228  1.0641
  507SOL    MW4 2075   0.011   4.250   1.150 -0.2856  0.1945 -0.4021
  508SOL     OW 2076   0.216   4.415   1.210  0.2811 -0.1815 -0.4257
  508SOL    HW2 2077   0.252   4.395   1.296 -1.6357 -1.2988  0.1712
  508SOL    HW3 2078   0.212   4.510   1.206  0.5919 -0.1240  0.6490
  508SOL    MW4 2079   0.220   4.425   1.221  0.0692 -0.3209 -0.2050
  509SOL     OW 2080   0.667   4.407   1.217 -0.0330 -0.5124 -0.3908
  509SOL    HW2 2081   0.698   4.397   1.307  1.2948 -0.6132 -0.8607
  509SOL    HW3 2082   0.672   4.500   1.200  0.2047 -0.5538 -0.5399
  509SOL    MW4 2083   0.672   4.418   1.227  0.1736 -0.5312 -0.4723
  510SOL     OW 2084   0.472   0.134   1.218 -0.2434 -0.3394  0.6066
  510SOL    HW2 2085   0.472   0.218   1.170  0.5445 -0.9422 -0.4665
  510SOL    HW3 2086   0.549   0.088   1.185 -0.5124 -1.3651  1.4174
  510SOL    MW4 2087   0.482   0.139   1.207 -0.1750 -0.5543  0.5721
  511SOL     OW 2088   0.470   0.387   1.111  0.1622  0.1856 -0.2905
  511SOL    HW2 2089   0.462   0.413   1.019 -0.0116  1.1604 -0.0036
  511SOL    HW3 2090   0.383   0.402   1.147 -0.2928 -1.9614 -0.3971
  511SOL    MW4 2091   0.457   0.392   1.103  0.0793  0.0310 -0.2667
  512SOL     OW 2092   0.669   0.562   1.199  0.1475 -0.0344  0.4974
  512SOL    HW2 2093   0.602   0.497   1.175  0.5679  0.0708 -1.0249
  512SOL    HW3 2094   0.751   0.513   1.199  0.3594  0.3151  0.1501
  512SOL    MW4 2095   0.671   0.547   1.196  0.2309  0.0256  0.2507
  513SOL     OW 2096   0.682   0.811   1.113 -0.0918  0.0779 -0.6485
  513SOL    HW2 2097   0.770   0.847   1.121  0.6837 -1.8172 -0.4504
  513SOL    HW3 2098   0.685   0.729   1.161 -2.6839  1.1717  1.5192
  513SOL    MW4 2099   0.694   0.805   1.120 -0.3315 -0.0278 -0.3364
  514SOL     OW 2100   0.243   0.739   1.124 -0.4102 -0.1085 -0.5110
  514SOL    HW2 2101   0.316   0.795   1.148  0.8418 -1.0800 -2.0039
  514SOL    HW3 2102   0.168   0.776   1.171  0.6099  2.1013 -0.5841
  514SOL    MW4 2103   0.243   0.751   1.134 -0.1105  0.0549 -0.7176
  515SOL     OW 2104   0.912   0.919   1.191  0.2213  0.1119  0.1241
  515SOL    HW2 2105   0.990   0.876   1.155 -0.5713 -1.0359 -0.2639
  515SOL    HW3 2106   0.927   1.012   1.175  1.4668 -0.0986 -0.0297
  515SOL    MW4 2107   0.925   0.926   1.184  0.2810 -0.0674  0.0527
  516SOL     OW 2108   0.889   1.670   1.263  0.0226  0.1309  0.1786
  516SOL    HW2 2109   0.837   1.613   1.207 -0.5623  0.8206  0.0127
  516SOL    HW3 2110   0.888   1.755   1.218 -0.7531  0.7829  1.4057
  516SOL    MW4 2111   0.882   1.674   1.250 -0.1569  0.3080  0.3186
  517SOL     OW 2112   3.950   2.175   0.472 -0.2201 -0.1509 -0.2302
  517SOL    HW2 2113   3.890   2.113   0.431  0.8775 -0.4689 -1.3814
  517SOL    HW3 2114   3.898   2.254   0.485 -1.0210 -0.5818 -0.7887
  517SOL    MW4 2115   3.936   2.177   0.468 -0.1812 -0.2496 -0.4558
  518SOL     OW 2116   0.896   1.922   1.134  0.3889 -0.0759 -0.5877
  518SOL    HW2 2117   0.834   1.981   1.176 -0.3391 -2.1691  1.3681
  518SOL    HW3 2118   0.982   1.955   1.160 -0.0424 -1.2393  2.5030
  518SOL    MW4 2119   0.899   1.934   1.143  0.2359 -0.5054  0.0781
  519SOL     OW 2120   1.610   3.082   0.849  0.0678 -0.3724  0.1296
  519SOL    HW2 2121   1.571   3.163   0.817  1.7464  0.3146 -0.2317
  519SOL    HW3 2122   1.612   3.093   0.944  1.3031  0.4835  0.0071
  519SOL    MW4 2123   1.605   3.095   0.857  0.4523 -0.1686  0.0659
  520SOL     OW 2124   1.384   2.438   1.274 -0.1219 -0.5520  0.7616
  520SOL    HW2 2125   1.361   2.421   1.366 -0.8706 -2.1897  0.2850
  520SOL    HW3 2126   1.313   2.398   1.224 -0.4141  1.5103 -0.5049
  520SOL    MW4 2127   1.372   2.430   1.280 -0.2592 -0.4959  0.5316
  521SOL     OW 2128   4.464   1.872   1.201  0.0965 -0.1445 -0.0092
  521SOL    HW2 2129   4.380   1.907   1.230  0.3524 -0.8364  1.6221
  521SOL    HW3 2130   4.455   1.862   1.106 -2.2648 -1.7929  0.3471
  521SOL    MW4 2131   4.452   1.875   1.192 -0.1812 -0.4532  0.2530
  522SOL     OW 2132   1.515   3.367   0.814  0.0483 -0.2937 -0.0666
  522SOL    HW2 2133   1.521   3.371   0.719 -1.2692 -0.7826 -0.1765
  522SOL    HW3 2134   1.601   3.397   0.845 -0.2958  2.0908 -1.3522
  522SOL    MW4 2135   1.527   3.371   0.806 -0.1711 -0.0439 -0.2507
  523SOL     OW 2136   1.192   3.019   1.094 -0.1712 -0.2402 -0.1352
  523SOL    HW2 2137   1.172   2.933   1.130 -1.3154  0.3117  0.6013
  523SOL    HW3 2138   1.253   3.003   1.023  0.5867 -1.5493  0.7987
  523SOL    MW4 2139   1.197   3.006   1.090 -0.2222 -0.3402  0.0852
  524SOL     OW 2140   1.567   2.567   0.846  0.4169  0.1795 -0.2261
  524SOL    HW2 2141   1.545   2.604   0.761  1.3483 -0.2041 -0.6436
  524SOL    HW3 2142   1.485   2.571   0.896  0.2169  1.7377 -0.6405
  524SOL    MW4 2143   1.553   2.573   0.842  0.5134  0.3345 -0.3359
  525SOL     OW 2144   0.522   3.486   1.106 -0.6360  0.3286  0.0782
  525SOL    HW2 2145   0.596   3.520   1.157  0.8852  1.2524 -2.6359
  525SOL    HW3 2146   0.444   3.519   1.151  0.6620  0.8440  1.9717
  525SOL    MW4 2147   0.521   3.495   1.118 -0.2640  0.5186 -0.0299
  526SOL     OW 2148   1.381   3.971   0.496  0.4187  0.3136  0.3426
  526SOL    HW2 2149   1.363   3.898   0.554  0.8483 -0.1691 -0.1198
  526SOL    HW3 2150   1.413   3.930   0.415  1.1157  1.0309  0.2493
  526SOL    MW4 2151   1.383   3.956   0.493  0.5673  0.3445  0.2693
  527SOL     OW 2152   3.535   3.946   0.593  0.1569  0.7329  0.7605
  527SOL    HW2 2153   3.505   4.037   0.603  1.3756  1.0944  1.1657
  527SOL    HW3 2154   3.559   3.939   0.501 -0.3596  0.6804  0.6241
  527SOL    MW4 2155   3.534   3.957   0.582  0.2496  0.7734  0.7960
  528SOL     OW 2156   0.707   0.090   0.913 -0.0311 -0.2643 -0.3001
  528SOL    HW2 2157   0.632   0.093   0.853 -1.1635  1.1609  1.1252
  528SOL    HW3 2158   0.746   0.177   0.905 -0.8454  0.3170  1.8134
  528SOL    MW4 2159   0.702   0.102   0.904 -0.2880  0.0005  0.1668
  529SOL     OW 2160   1.337   4.234   1.120 -0.2830  0.1327  0.2861
  529SOL    HW2 2161   1.405   4.278   1.172 -0.4748  0.4898  0.2383
  529SOL    HW3 2162   1.256   4.280   1.143 -0.6149 -0.7467  0.8629
  529SOL    MW4 2163   1.335   4.246   1.130 -0.3521  0.0634  0.3558
  530SOL     OW 2164   0.232   3.850   1.132  0.4942  0.2109 -0.1899
  530SOL    HW2 2165   0.150   3.896   1.151  0.5018  0.5864 -1.0379
  530SOL    HW3 2166   0.300   3.906   1.169  0.3921  0.0454  0.2548
  530SOL    MW4 2167   0.230   3.863   1.139  0.4817  0.2389 -0.2433
  531SOL     OW 2168   0.471   3.980   1.228 -0.0946  0.4283 -0.4152
  531SOL    HW2 2169   0.499   4.065   1.194  0.2488  0.2339 -0.6240
  531SOL    HW3 2170   0.539   3.919   1.199 -0.4898  0.0321 -0.5264
  531SOL    MW4 2171   0.484   3.983   1.220 -0.1014  0.3502 -0.4575
  532SOL     OW 2172   1.035   4.092   0.980  0.0844  0.5460  0.5834
  532SOL    HW2 2173   1.003   4.041   1.054  0.8449  0.3177  0.7561
  532SOL    HW3 2174   0.979   4.170   0.980 -1.3473 -0.4568  0.0689
  532SOL    MW4 2175   1.023   4.096   0.990 -0.0042  0.3839  0.5383
  533SOL     OW 2176   1.400   0.132   1.226  0.0727  0.4891  0.4905
  533SOL    HW2 2177   1.317   0.093   1.197  0.5573 -0.1909  0.0111
  533SOL    HW3 2178   1.402   0.218   1.183 -0.1702  0.3198  0.1321
  533SOL    MW4 2179   1.389   0.138   1.216  0.1045  0.3770  0.3800
  534SOL     OW 2180   0.980   0.117   1.223  0.4200  0.4076 -0.0867
  534SOL    HW2 2181   0.981   0.115   1.319 -2.0278 -0.6768 -0.0432
  534SOL    HW3 2182   1.042   0.049   1.197  0.4930  0.1533  0.7259
  534SOL    MW4 2183   0.988   0.108   1.232  0.1067  0.2310  0.0262
  535SOL     OW 2184   1.325   3.971   0.910 -0.0651  0.3773 -0.0186
  535SOL    HW2 2185   1.290   3.898   0.961 -0.4276 -0.2909 -1.1974
  535SOL    HW3 2186   1.270   4.046   0.934  0.9809  0.5184  1.9853
  535SOL    MW4 2187   1.313   3.971   0.920  0.0250  0.3078  0.0902
  536SOL     OW 2188   1.132   0.498   1.170 -0.0424  0.3753 -0.8518
  536SOL    HW2 2189   1.157   0.495   1.263  0.5012  0.6119 -0.9827
  536SOL    HW3 2190   1.053   0.446   1.164  0.1458  0.0265 -0.3221
  536SOL    MW4 2191   1.125   0.491   1.182  0.0544  0.3605 -0.7991
  537SOL     OW 2192   1.002   0.747   0.426  0.5129 -0.4974 -0.1690
  537SOL    HW2 2193   1.095   0.731   0.410  0.2952  0.0107 -2.1242
  537SOL    HW3 2194   0.986   0.712   0.513  2.6963  0.0271  0.4870
  537SOL    MW4 2195   1.012   0.740   0.435  0.7721 -0.3612 -0.3404
  538SOL     OW 2196   0.855   1.239   0.861  0.3642 -0.2825  0.3112
  538SOL    HW2 2197   0.937   1.262   0.818 -0.8772  1.3647 -1.3198
  538SOL    HW3 2198   0.803   1.319   0.856 -1.4726 -1.3994  0.9602
  538SOL    MW4 2199   0.859   1.253   0.854 -0.0420 -0.2126  0.1817
  539SOL     OW 2200   1.532   0.945   0.935 -0.3884  0.4499 -0.1076
  539SOL    HW2 2201   1.454   0.986   0.897  0.1669  0.5938 -1.1129
  539SOL    HW3 2202   1.603   1.006   0.917  0.1711 -0.2324 -0.2531
  539SOL    MW4 2203   1.531   0.958   0.927 -0.2413  0.3788 -0.2594
  540SOL     OW 2204   1.093   1.309   1.494 -0.1837 -0.7368 -0.4790
  540SOL    HW2 2205   1.177   1.275   1.525 -0.0387  1.2829  1.4823
  540SOL    HW3 2206   1.028   1.248   1.527  0.3418 -1.0648 -0.0574
  540SOL    MW4 2207   1.096   1.297   1.502 -0.0952 -0.5137 -0.1646
  541SOL     OW 2208   4.168   4.647   0.907  0.2537  0.0240 -0.3899
  541SOL    HW2 2209   4.134   4.735   0.918  1.5917  0.5668 -0.5306
  541SOL    HW3 2210   4.206   4.625   0.992  2.3997  0.6750 -1.1521
  541SOL    MW4 2211   4.169   4.656   0.920  0.7138  0.1817 -0.5090
  542SOL     OW 2212   1.157   2.026   1.255  0.1346  0.5039  0.2953
  542SOL    HW2 2213   1.206   2.109   1.249 -0.5162  0.9137  0.6274
  542SOL    HW3 2214   1.126   2.023   1.345  0.8609 -0.5144  0.5149
  542SOL    MW4 2215   1.160   2.037   1.266  0.1446  0.4234  0.3681
  543SOL     OW 2216   1.087   2.535   0.829 -0.3284 -0.0376  0.1925
  543SOL    HW2 2217   1.010   2.580   0.864 -0.4429 -0.7031  0.8140
  543SOL    HW3 2218   1.156   2.601   0.831 -0.9233  0.6136 -0.5334
  543SOL    MW4 2219   1.086   2.550   0.834 -0.4220 -0.0396  0.1788
  544SOL     OW 2220   0.864   2.163   0.797  0.1422 -0.0575 -0.2275
  544SOL    HW2 2221   0.941   2.204   0.837  0.1860 -0.5610  0.2016
  544SOL    HW3 2222   0.791   2.220   0.823  0.1642 -0.4085  0.6079
  544SOL    MW4 2223   0.865   2.176   0.806  0.1509 -0.1702 -0.0607
  545SOL     OW 2224   3.074   1.619   0.312 -0.1283  0.0193  0.6186
  545SOL    HW2 2225   2.985   1.619   0.346 -0.5131 -1.1232 -0.3367
  545SOL    HW3 2226   3.104   1.529   0.324  0.6658  0.2468  0.3705
  545SOL    MW4 2227   3.066   1.607   0.318 -0.0746 -0.1014  0.4598
  546SOL     OW 2228   0.335   2.436   0.497  0.7427 -0.4279  0.0760
  546SOL    HW2 2229   0.286   2.412   0.575 -3.1791  0.5908 -1.9656
  546SOL    HW3 2230   0.328   2.360   0.439  2.4927 -0.6536  0.1171
  546SOL    MW4 2231   0.328   2.423   0.500  0.4562 -0.3233 -0.1880
  547SOL     OW 2232   0.918   2.373   1.306  0.0446 -0.1057  0.6941
  547SOL    HW2 2233   0.900   2.370   1.400 -1.2918 -1.0465  0.4271
  547SOL    HW3 2234   0.834   2.354   1.266  0.6264  0.2450 -0.7018
  547SOL    MW4 2235   0.904   2.370   1.313 -0.0550 -0.1836  0.4747
  548SOL     OW 2236   1.111   2.782   1.225  0.3194 -0.4388  0.3466
  548SOL    HW2 2237   1.115   2.800   1.319 -0.2475 -0.7731  0.4379
  548SOL    HW3 2238   1.196   2.744   1.204  0.8135  0.5535  0.5298
  548SOL    MW4 2239   1.123   2.779   1.235  0.3096 -0.3521  0.3828
  549SOL     OW 2240   4.199   2.645   0.772  0.1870 -0.1125  0.2937
  549SOL    HW2 2241   4.198   2.660   0.867 -1.0629 -0.8505  0.4204
  549SOL    HW3 2242   4.145   2.715   0.736 -0.9444 -0.9452  0.3324
  549SOL    MW4 2243   4.191   2.656   0.780 -0.1273 -0.3197  0.3155
  550SOL     OW 2244   2.522   3.689   0.458  0.0292 -0.1854  0.4632
  550SOL    HW2 2245   2.617   3.686   0.465  0.0487 -1.0932 -0.0429
  550SOL    HW3 2246   2.505   3.713   0.367 -0.2293  1.4164  0.9175
  550SOL    MW4 2247   2.532   3.692   0.447 -0.0024 -0.0942  0.4564
  551SOL     OW 2248   3.172   2.250   0.325  0.0492  0.0553 -0.3189
  551SOL    HW2 2249   3.232   2.201   0.269  0.0841  1.2108 -1.2941
  551SOL    HW3 2250   3.182   2.341   0.299 -1.1329  0.4224  0.4374
  551SOL    MW4 2251   3.181   2.255   0.314 -0.1023  0.2563 -0.3478
  552SOL     OW 2252   0.955   3.137   1.208  0.0224  0.0458  0.1485
  552SOL    HW2 2253   0.940   3.223   1.168 -0.0385  0.4705  1.0785
  552SOL    HW3 2254   1.041   3.110   1.175  0.6219  1.0410  0.8578
  552SOL    MW4 2255   0.964   3.145   1.199  0.0934  0.2332  0.3649
  553SOL     OW 2256   1.169   3.783   1.028  0.4262 -0.3811 -0.3703
  553SOL    HW2 2257   1.158   3.692   1.055 -1.2856  0.0018  0.2619
  553SOL    HW3 2258   1.103   3.796   0.960  1.0881  0.2209 -0.9124
  553SOL    MW4 2259   1.159   3.773   1.022  0.2878 -0.2515 -0.3583
  554SOL     OW 2260   0.149   0.324   0.665 -0.3485  0.0710  0.5928
  554SOL    HW2 2261   0.104   0.376   0.599 -0.7561 -0.3758  0.5129
  554SOL    HW3 2262   0.084   0.314   0.735 -0.2553 -0.2879  0.6286
  554SOL    MW4 2263   0.135   0.329   0.666 -0.3900 -0.0353  0.5870
  555SOL     OW 2264   0.951   1.032   0.515 -0.2561  0.0096 -0.0981
  555SOL    HW2 2265   0.865   1.049   0.552 -0.0854 -0.2500  0.4193
  555SOL    HW3 2266   0.942   0.947   0.470 -0.2111 -0.1263  0.1480
  555SOL    MW4 2267   0.939   1.023   0.514 -0.2277 -0.0426  0.0026
  556SOL     OW 2268   1.117   0.196   0.912  0.4498 -0.5911 -0.1008
  556SOL    HW2 2269   1.124   0.138   0.988  0.6534  1.2640  1.3093
  556SOL    HW3 2270   1.206   0.228   0.898  0.1222  0.2892 -0.1695
  556SOL    MW4 2271   1.130   0.192   0.920  0.4336 -0.2302  0.0762
  557SOL     OW 2272   1.596   4.602   1.170 -0.2074  0.1774  0.0441
  557SOL    HW2 2273   1.682   4.638   1.191 -0.4049  0.4106  0.4448
  557SOL    HW3 2274   1.535   4.674   1.185 -0.8383 -0.8660  2.7592
  557SOL    MW4 2275   1.599   4.616   1.174 -0.3166  0.0701  0.4553
  558SOL     OW 2276   1.626   4.208   0.479  0.2689 -0.1858 -0.2673
  558SOL    HW2 2277   1.704   4.158   0.455 -0.1339 -0.4905 -0.9630
  558SOL    HW3 2278   1.555   4.145   0.475 -0.1671  0.3193 -0.6502
  558SOL    MW4 2279   1.627   4.193   0.475  0.1582 -0.1597 -0.4096
  559SOL     OW 2280   1.367   0.368   1.080 -0.1165  0.3603  0.6657
  559SOL    HW2 2281   1.369   0.361   0.985  0.2783  3.1664  0.4258
  559SOL    HW3 2282   1.277   0.396   1.100 -0.0935  0.1339  1.0794
  559SOL    MW4 2283   1.355   0.371   1.070 -0.0613  0.7006  0.6887
  560SOL     OW 2284   1.599   0.488   1.213  0.1466  0.1384 -0.1883
  560SOL    HW2 2285   1.580   0.579   1.192  1.2528  0.6411  0.9419
  560SOL    HW3 2286   1.523   0.440   1.181 -1.1693  1.6309  0.6194
  560SOL    MW4 2287   1.586   0.494   1.206  0.1189  0.4016  0.0675
  561SOL     OW 2288   2.191   4.636   0.469 -0.3416 -0.0299  0.1220
  561SOL    HW2 2289   2.200   4.683   0.551  0.6585  0.6244 -0.3484
  561SOL    HW3 2290   2.109   4.668   0.431  0.4095  1.5103 -0.2797
  561SOL    MW4 2291   2.182   4.646   0.475 -0.1101  0.2589  0.0069
  562SOL     OW 2292   1.350   0.940   1.226 -0.4000  0.2457  1.1055
  562SOL    HW2 2293   1.340   1.025   1.183  0.2302  0.1710  0.8124
  562SOL    HW3 2294   1.279   0.886   1.190  0.3130  0.0864 -0.0698
  562SOL    MW4 2295   1.339   0.944   1.215 -0.2229  0.2148  0.9117
  563SOL     OW 2296   2.875   1.759   0.714  0.8219  0.5513  0.2557
  563SOL    HW2 2297   2.902   1.832   0.770 -0.9223  0.5533  1.1282
  563SOL    HW3 2298   2.780   1.753   0.727  0.5655 -0.1835 -1.8348
  563SOL    MW4 2299   2.866   1.768   0.723  0.5581  0.4545  0.0951
  564SOL     OW 2300   0.880   1.207   1.132  0.3253 -0.2435 -0.2364
  564SOL    HW2 2301   0.874   1.197   1.037 -1.0596 -1.3703 -0.0531
  564SOL    HW3 2302   0.795   1.244   1.157  1.3519  1.7302  0.3748
  564SOL    MW4 2303   0.868   1.210   1.122  0.2779 -0.1317 -0.1314
  565SOL     OW 2304   1.315   1.899   0.922  0.0550  0.8946  0.0943
  565SOL    HW2 2305   1.339   1.878   1.012 -0.5393  0.7210  0.2152
  565SOL    HW3 2306   1.397   1.890   0.873  0.1453 -0.1769  0.4144
  565SOL    MW4 2307   1.329   1.895   0.927 -0.0114  0.7303  0.1525
  566SOL     OW 2308   0.664   2.343   1.176 -0.5222  0.6121  0.2625
  566SOL    HW2 2309   0.661   2.330   1.081  0.5744  1.7045  0.0700
  566SOL    HW3 2310   0.577   2.377   1.198 -0.1867  2.0922 -0.6332
  566SOL    MW4 2311   0.652   2.346   1.166 -0.3332  0.9513  0.1190
  567SOL     OW 2312   1.258   2.644   0.478 -0.2587  0.4088 -0.2625
  567SOL    HW2 2313   1.192   2.577   0.495  0.0879  0.4489  1.2763
  567SOL    HW3 2314   1.212   2.727   0.495 -0.1886  0.4912 -0.4721
  567SOL    MW4 2315   1.243   2.646   0.482 -0.2037  0.4249 -0.0871
  568SOL     OW 2316   1.609   2.023   1.270 -0.1213 -0.1052 -0.0402
  568SOL    HW2 2317   1.578   2.111   1.247 -0.8377 -0.4292 -0.3569
  568SOL    HW3 2318   1.534   1.966   1.251  0.8179 -0.9772 -1.2365
  568SOL    MW4 2319   1.595   2.027   1.264 -0.0920 -0.2630 -0.2398
  569SOL     OW 2320   1.792   2.671   1.137 -0.0851 -0.2297 -0.6451
  569SOL    HW2 2321   1.816   2.584   1.168  1.0785  0.0690 -0.7031
  569SOL    HW3 2322   1.786   2.662   1.042 -0.8618 -0.4616 -0.5773
  569SOL    MW4 2323   1.794   2.658   1.129 -0.0341 -0.2208 -0.6438
  570SOL     OW 2324   0.099   3.475   0.894 -0.5465  0.1794 -0.0304
  570SOL    HW2 2325   0.194   3.461   0.894 -0.4511  0.7203  1.0861
  570SOL    HW3 2326   0.077   3.493   0.803  0.1394 -1.7463 -0.6081
  570SOL    MW4 2327   0.109   3.475   0.882 -0.4434 -0.0033  0.0407
  571SOL     OW 2328   1.613   3.377   0.555 -0.5918  0.3475 -0.1450
  571SOL    HW2 2329   1.563   3.308   0.512 -1.3104  1.3832 -1.0069
  571SOL    HW3 2330   1.576   3.458   0.520  0.4129  1.1598  0.6577
  571SOL    MW4 2331   1.602   3.378   0.545 -0.5540  0.5910 -0.1528
  572SOL     OW 2332   1.608   2.843   1.267 -0.0967  0.2004  0.3951
  572SOL    HW2 2333   1.687   2.801   1.232 -0.5694  1.2993 -2.1050
  572SOL    HW3 2334   1.603   2.926   1.220 -2.1610  0.6065  1.3100
  572SOL    MW4 2335   1.618   2.849   1.256 -0.4314  0.3991  0.1861
  573SOL     OW 2336   1.593   3.104   1.128 -0.2180  0.2439 -0.7156
  573SOL    HW2 2337   1.671   3.126   1.179  0.1881  0.8125 -1.5687
  573SOL    HW3 2338   1.521   3.146   1.175  0.1049  0.4612 -0.4161
  573SOL    MW4 2339   1.594   3.112   1.141 -0.1216  0.3479 -0.7886
  574SOL     OW 2340   1.360   3.194   1.239 -0.5130 -0.6237 -0.1798
  574SOL    HW2 2341   1.343   3.189   1.333 -0.9957  0.7385 -0.1955
  574SOL    HW3 2342   1.308   3.123   1.201 -0.8467 -0.7389  0.4957
  574SOL    MW4 2343   1.351   3.184   1.246 -0.6206 -0.4592 -0.0927
  575SOL     OW 2344   1.142   3.554   1.185 -0.0634  0.1452  0.0025
  575SOL    HW2 2345   1.227   3.511   1.174 -0.5181 -0.9459  0.6336
  575SOL    HW3 2346   1.079   3.491   1.149 -0.5510  1.2286 -1.0742
  575SOL    MW4 2347   1.145   3.540   1.179 -0.1878  0.1440 -0.0563
  576SOL     OW 2348   1.612   3.585   1.291 -0.1780  0.2478  0.1908
  576SOL    HW2 2349   1.692   3.547   1.253 -0.0859  0.3009  0.3314
  576SOL    HW3 2350   1.542   3.558   1.231  0.0615  0.9097 -0.4007
  576SOL    MW4 2351   1.614   3.576   1.278 -0.1342  0.3421  0.1312
  577SOL     OW 2352   1.553   3.849   1.208 -0.3478 -0.1268 -0.0463
  577SOL    HW2 2353   1.461   3.868   1.228 -0.8421 -0.8880 -1.5414
  577SOL    HW3 2354   1.567   3.762   1.246 -0.7145 -0.7126 -1.2502
  577SOL    MW4 2355   1.543   3.840   1.216 -0.4616 -0.3045 -0.4023
  578SOL     OW 2356   1.303   3.944   1.265 -0.0690 -0.2333  0.2101
  578SOL    HW2 2357   1.320   4.026   1.218 -1.0133  0.4802  1.0806
  578SOL    HW3 2358   1.241   3.897   1.210  0.4010 -0.3175 -0.2465
  578SOL    MW4 2359   1.297   3.949   1.252 -0.1316 -0.1502  0.2649
  579SOL     OW 2360   1.549   4.364   1.269  0.1878  0.1545 -0.0291
  579SOL    HW2 2361   1.537   4.371   1.364  2.8219 -0.5960  0.3969
  579SOL    HW3 2362   1.561   4.454   1.240 -1.2414  0.4435  0.2512
  579SOL    MW4 2363   1.549   4.377   1.278  0.3468  0.0935  0.0641
  580SOL     OW 2364   1.606   0.040   0.914  0.2809  0.3998 -0.5073
  580SOL    HW2 2365   1.603   0.027   1.009 -1.4615 -0.3233 -0.6404
  580SOL    HW3 2366   1.678  -0.017   0.884  2.2115  2.1889  0.5828
  580SOL    MW4 2367   1.615   0.031   0.923  0.3058  0.5403 -0.3810
  581SOL     OW 2368   2.001   0.049   0.895  0.9771  0.1242  0.4929
  581SOL    HW2 2369   1.945  -0.024   0.866  1.4374 -0.0797  0.1150
  581SOL    HW3 2370   2.089   0.024   0.867  1.3348  0.2116  1.5425
  581SOL    MW4 2371   2.005   0.036   0.887  1.0850  0.1088  0.5816
  582SOL     OW 2372   1.857   0.044   1.227 -0.3840 -0.4923  0.1434
  582SOL    HW2 2373   1.910   0.110   1.181 -1.1315 -0.5706 -0.8397
  582SOL    HW3 2374   1.913  -0.033   1.230 -1.0643 -1.1476 -2.4872
  582SOL    MW4 2375   1.871   0.043   1.221 -0.5724 -0.5891 -0.3334
  583SOL     OW 2376   2.417   0.049   1.135 -0.5111  0.0751  0.5393
  583SOL    HW2 2377   2.413   0.116   1.067 -1.8694 -0.1158  0.4044
  583SOL    HW3 2378   2.416  -0.034   1.087 -1.7968 -0.0625  0.7908
  583SOL    MW4 2379   2.416   0.046   1.120 -0.8602  0.0317  0.5548
  584SOL     OW 2380   2.353   4.006   0.367 -0.3851 -0.3113 -0.3990
  584SOL    HW2 2381   2.326   3.966   0.449 -0.7713 -1.1668 -0.9319
  584SOL    HW3 2382   2.281   4.064   0.343  0.7862  1.8683  1.1012
  584SOL    MW4 2383   2.340   4.009   0.374 -0.2816 -0.1364 -0.2714
  585SOL     OW 2384   3.936   0.662   0.936 -0.1623 -0.8788  0.1701
  585SOL    HW2 2385   3.876   0.680   1.008 -0.3418 -0.4508 -0.0812
  585SOL    HW3 2386   3.931   0.740   0.881 -0.1287 -1.2531 -0.3706
  585SOL    MW4 2387   3.927   0.675   0.938 -0.1814 -0.8717  0.0656
  586SOL     OW 2388   1.783   0.877   1.265  0.3478  0.5233  0.1462
  586SOL    HW2 2389   1.785   0.895   1.359  1.0546 -1.4013  0.5390
  586SOL    HW3 2390   1.697   0.837   1.251 -0.5741  2.6914 -0.4123
  586SOL    MW4 2391   1.772   0.874   1.276  0.3194  0.5555  0.1245
  587SOL     OW 2392   1.607   1.256   1.228  0.1263  0.0030 -0.1450
  587SOL    HW2 2393   1.684   1.214   1.190  0.0922  0.1333 -0.3589
  587SOL    HW3 2394   1.533   1.218   1.181  0.1735  1.3525 -1.3531
  587SOL    MW4 2395   1.607   1.245   1.217  0.1280  0.1982 -0.3324
  588SOL     OW 2396   1.661   0.981   0.601  0.1646 -0.0574 -0.0117
  588SOL    HW2 2397   1.695   1.010   0.686 -0.3898  1.2116 -0.2087
  588SOL    HW3 2398   1.686   0.889   0.595 -1.2406 -0.6431  2.2871
  588SOL    MW4 2399   1.669   0.973   0.612 -0.0941  0.0327  0.2656
  589SOL     OW 2400   0.360   0.845   0.387 -0.1969 -0.3308  0.0047
  589SOL    HW2 2401   0.391   0.817   0.301 -0.1102  0.1073 -0.1060
  589SOL    HW3 2402   0.382   0.938   0.392 -0.6885 -0.2266  0.2804
  589SOL    MW4 2403   0.367   0.854   0.377 -0.2503 -0.2593  0.0264
  590SOL     OW 2404   1.809   1.620   1.242  0.1572  0.0460 -0.6592
  590SOL    HW2 2405   1.806   1.709   1.208 -1.1994  0.9036  1.5857
  590SOL    HW3 2406   1.732   1.577   1.204 -1.0284  0.8300  0.7926
  590SOL    MW4 2407   1.798   1.626   1.233 -0.1783  0.2626 -0.1715
  591SOL     OW 2408   1.236   3.108   0.613  0.3217 -0.2229 -0.1178
  591SOL    HW2 2409   1.186   3.190   0.618  1.7086  0.5656  0.7966
  591SOL    HW3 2410   1.178   3.049   0.564 -0.5629  1.3871 -1.0768
  591SOL    MW4 2411   1.222   3.112   0.607  0.3880  0.0935 -0.1236
  592SOL     OW 2412   2.285   1.922   1.159  0.5900  0.0646 -0.4277
  592SOL    HW2 2413   2.209   1.955   1.206  1.0449  0.8474 -0.2364
  592SOL    HW3 2414   2.292   1.830   1.186 -1.2066 -0.4799 -1.6480
  592SOL    MW4 2415   2.276   1.914   1.169  0.4129  0.0962 -0.5634
  593SOL     OW 2416   2.695   2.937   0.851 -0.1050 -0.0771 -0.3750
  593SOL    HW2 2417   2.621   2.999   0.846 -0.1718 -0.1247 -0.0125
  593SOL    HW3 2418   2.765   2.988   0.891 -0.2225 -0.2940  0.1090
  593SOL    MW4 2419   2.694   2.952   0.856 -0.1292 -0.1118 -0.2633
  594SOL     OW 2420   1.817   2.424   1.255 -0.3275 -0.2838  0.1172
  594SOL    HW2 2421   1.897   2.376   1.235  0.2003  0.0763  1.3236
  594SOL    HW3 2422   1.746   2.364   1.229  0.3295 -0.8898 -0.2913
  594SOL    MW4 2423   1.818   2.409   1.249 -0.1711 -0.3161  0.2224
  595SOL     OW 2424   1.538   1.896   0.746 -0.3643 -0.0600  0.2701
  595SOL    HW2 2425   1.539   1.812   0.700 -0.6670  0.0590  0.0427
  595SOL    HW3 2426   1.619   1.896   0.797 -0.3292 -0.4612  0.2196
  595SOL    MW4 2427   1.549   1.885   0.747 -0.3995 -0.0972  0.2334
  596SOL     OW 2428   2.503   3.111   1.132  0.2415  0.3093 -0.5891
  596SOL    HW2 2429   2.483   3.023   1.163 -0.3685 -0.0053 -1.8242
  596SOL    HW3 2430   2.571   3.143   1.191 -0.6712 -0.3733  0.8550
  596SOL    MW4 2431   2.509   3.104   1.144  0.0403  0.1779 -0.5615
  597SOL     OW 2432   3.122   2.691   1.131  0.2793  0.0482 -0.0966
  597SOL    HW2 2433   3.119   2.603   1.169  2.0517  0.3555  0.8314
  597SOL    HW3 2434   3.055   2.740   1.178  0.2796 -0.4348  0.4126
  597SOL    MW4 2435   3.113   2.686   1.142  0.5131  0.0248  0.0929
  598SOL     OW 2436   1.789   3.213   1.275  0.2101  0.1465  0.2349
  598SOL    HW2 2437   1.801   3.217   1.370  0.4267  1.6848  0.1575
  598SOL    HW3 2438   1.803   3.303   1.245 -2.2441  0.1919 -0.9589
  598SOL    MW4 2439   1.792   3.225   1.284 -0.0852  0.3557  0.0672
  599SOL     OW 2440   1.836   3.467   1.177 -0.3610 -0.1775 -0.1734
  599SOL    HW2 2441   1.919   3.513   1.187 -0.1112 -0.4382 -1.0899
  599SOL    HW3 2442   1.824   3.457   1.083 -1.3015 -0.3815 -0.0434
  599SOL    MW4 2443   1.845   3.472   1.166 -0.4523 -0.2389 -0.2772
  600SOL     OW 2444   2.072   3.619   1.265 -0.2291  0.2073 -0.0112
  600SOL    HW2 2445   2.086   3.591   1.355 -2.5125  0.1226  0.3430
  600SOL    HW3 2446   2.150   3.588   1.218  1.3650  0.9827  2.0580
  600SOL    MW4 2447   2.084   3.611   1.270 -0.3200  0.2983  0.3085
  601SOL     OW 2448   2.008   3.884   1.158 -0.0213 -0.0365  0.0654
  601SOL    HW2 2449   2.029   3.801   1.201 -0.1410  0.2732  0.7159
  601SOL    HW3 2450   1.931   3.916   1.205  0.6024  0.9213  0.4326
  601SOL    MW4 2451   2.001   3.877   1.170  0.0453  0.1307  0.1996
  602SOL     OW 2452   1.786   3.987   1.286 -0.3299 -0.6208 -0.2245
  602SOL    HW2 2453   1.819   3.978   1.375 -1.4119 -0.0580  0.2474
  602SOL    HW3 2454   1.694   3.962   1.292 -0.4385 -0.4701 -1.1648
  602SOL    MW4 2455   1.778   3.983   1.298 -0.4870 -0.5269 -0.2865
  603SOL     OW 2456   1.793   4.248   1.171  0.0189 -0.3086 -0.2297
  603SOL    HW2 2457   1.788   4.161   1.211 -1.2093  0.0293  0.3575
  603SOL    HW3 2458   1.712   4.291   1.196  0.6217  1.0191 -0.5206
  603SOL    MW4 2459   1.782   4.242   1.179 -0.0637 -0.0892 -0.1906
  604SOL     OW 2460   1.970   4.441   1.268  0.0140 -0.3389  0.2985
  604SOL    HW2 2461   1.975   4.424   1.362 -0.1870  0.5476  0.4723
  604SOL    HW3 2462   1.907   4.377   1.235 -0.5243 -0.1241  0.9026
  604SOL    MW4 2463   1.962   4.430   1.276 -0.0836 -0.1936  0.4010
  605SOL     OW 2464   1.970   0.149   0.439 -0.5793 -0.4296  0.1973
  605SOL    HW2 2465   2.000   0.169   0.528  0.8739 -1.9864  0.0909
  605SOL    HW3 2466   1.885   0.107   0.452 -0.6104 -0.1878  0.8181
  605SOL    MW4 2467   1.962   0.146   0.453 -0.3917 -0.6031  0.2652
  606SOL     OW 2468   2.406   4.478   1.002 -0.0774 -0.3461 -0.1155
  606SOL    HW2 2469   2.421   4.475   0.908  1.4337  0.4801  0.0902
  606SOL    HW3 2470   2.331   4.419   1.016  0.1899 -1.0923 -1.7226
  606SOL    MW4 2471   2.398   4.470   0.992  0.1571 -0.3352 -0.3003
  607SOL     OW 2472   2.459   0.697   1.171  0.2788  0.0984 -0.2293
  607SOL    HW2 2473   2.461   0.692   1.075  0.9507  0.0599 -0.2187
  607SOL    HW3 2474   2.432   0.610   1.199  0.7366 -0.0918 -0.3694
  607SOL    MW4 2475   2.456   0.685   1.162  0.4280  0.0681 -0.2463
  608SOL     OW 2476   2.610   1.274   0.884  0.7425  0.3537  0.1104
  608SOL    HW2 2477   2.610   1.245   0.975 -0.9517 -0.8946 -0.2859
  608SOL    HW3 2478   2.528   1.321   0.874  0.7697  0.1872 -0.8849
  608SOL    MW4 2479   2.599   1.277   0.895  0.5226  0.1670 -0.0731
  609SOL     OW 2480   1.415   4.299   0.837  0.2452  0.1360 -0.1512
  609SOL    HW2 2481   1.506   4.270   0.837  0.3004  0.3075 -0.0966
  609SOL    HW3 2482   1.384   4.277   0.925  0.1098 -0.3059 -0.3073
  609SOL    MW4 2483   1.423   4.292   0.849  0.2346  0.1006 -0.1646
  610SOL     OW 2484   2.239   1.116   1.179 -0.3033  0.4777 -0.2009
  610SOL    HW2 2485   2.308   1.172   1.215 -0.4508  0.9325 -0.6139
  610SOL    HW3 2486   2.269   1.027   1.196  0.7022  0.6602 -0.9647
  610SOL    MW4 2487   2.252   1.112   1.186 -0.1900  0.5618 -0.3561
  611SOL     OW 2488   2.445   2.067   0.512  0.1680  0.3553 -0.2894
  611SOL    HW2 2489   2.428   2.007   0.440 -1.9618  1.2789 -0.6093
  611SOL    HW3 2490   2.505   2.132   0.476 -0.7811  0.7359 -1.1996
  611SOL    MW4 2491   2.450   2.068   0.498 -0.2382  0.5274 -0.4517
  612SOL     OW 2492   1.541   1.650   0.631  0.1531  0.0658 -0.2481
  612SOL    HW2 2493   1.555   1.589   0.704 -0.4760 -0.5197 -0.6172
  612SOL    HW3 2494   1.460   1.620   0.589 -1.0705  2.1295  0.5534
  612SOL    MW4 2495   1.532   1.638   0.635 -0.0912  0.2607 -0.1910
  613SOL     OW 2496   2.491   1.529   1.148  0.3728  0.5488  0.1061
  613SOL    HW2 2497   2.406   1.571   1.164 -0.2708 -0.9226  0.5856
  613SOL    HW3 2498   2.480   1.482   1.066  0.3437 -0.6008  0.7537
  613SOL    MW4 2499   2.478   1.529   1.140  0.2840  0.2030  0.2548
  614SOL     OW 2500   3.353   1.138   0.489  0.4115  0.5392 -0.2615
  614SOL    HW2 2501   3.328   1.048   0.511  2.2536 -0.2601 -1.3556
  614SOL    HW3 2502   3.371   1.179   0.573 -1.5707  0.2395  0.3285
  614SOL    MW4 2503   3.352   1.131   0.503  0.3929  0.3942 -0.3280
  615SOL     OW 2504   1.498   3.630   0.503  0.6673  0.2556  0.3830
  615SOL    HW2 2505   1.476   3.676   0.584 -0.2708  0.2360  0.1502
  615SOL    HW3 2506   1.413   3.613   0.462  1.2107  2.0962 -1.6112
  615SOL    MW4 2507   1.484   3.634   0.508  0.6152  0.4959  0.0891
  616SOL     OW 2508   2.525   2.014   1.242  0.1517 -0.3056 -0.1526
  616SOL    HW2 2509   2.581   1.973   1.176 -1.6349 -1.7645 -0.8198
  616SOL    HW3 2510   2.436   1.996   1.211 -0.6876  0.4924  1.7611
  616SOL    MW4 2511   2.520   2.006   1.229 -0.1945 -0.3924  0.0118
  617SOL     OW 2512   1.994   3.333   0.848  0.5941  0.3306  0.4784
  617SOL    HW2 2513   1.998   3.241   0.872 -1.2582  0.3782  1.0475
  617SOL    HW3 2514   1.965   3.334   0.757 -1.3867  0.3814  1.0868
  617SOL    MW4 2515   1.991   3.321   0.839  0.0883  0.3436  0.6338
  618SOL     OW 2516   2.283   2.423   1.258  0.3685  0.3775 -0.5645
  618SOL    HW2 2517   2.286   2.433   1.353 -0.7669  1.7328 -0.6564
  618SOL    HW3 2518   2.358   2.367   1.238  1.8551  1.7541  0.9238
  618SOL    MW4 2519   2.293   2.417   1.268  0.4151  0.7379 -0.3803
  619SOL     OW 2520   1.170   2.307   1.169  0.0165 -0.3300 -0.3717
  619SOL    HW2 2521   1.093   2.332   1.220 -0.1059 -1.5530  0.0447
  619SOL    HW3 2522   1.136   2.291   1.081 -0.2243 -0.9160 -0.1772
  619SOL    MW4 2523   1.155   2.308   1.164 -0.0314 -0.5689 -0.2911
  620SOL     OW 2524   2.762   2.426   1.213 -0.4451 -0.0702 -0.2329
  620SOL    HW2 2525   2.775   2.428   1.308 -0.1074  1.4396 -0.2996
  620SOL    HW3 2526   2.686   2.369   1.201 -0.5811 -0.1580  0.9554
  620SOL    MW4 2527   2.754   2.419   1.224 -0.4184  0.1173 -0.0850
  621SOL     OW 2528   2.251   2.693   1.133  0.0254  0.3628 -0.0141
  621SOL    HW2 2529   2.315   2.737   1.190  0.4142 -0.9560  0.5875
  621SOL    HW3 2530   2.236   2.608   1.175 -0.1665 -0.3730 -1.5428
  621SOL    MW4 2531   2.258   2.688   1.146  0.0513  0.0918 -0.1364
  622SOL     OW 2532   4.282   0.529   0.519  0.4263 -0.3253 -0.4822
  622SOL    HW2 2533   4.249   0.450   0.476  0.1956 -0.2147 -0.5084
  622SOL    HW3 2534   4.268   0.513   0.612 -0.8108  0.2190 -0.5623
  622SOL    MW4 2535   4.276   0.516   0.526  0.2327 -0.2388 -0.4962
  623SOL     OW 2536   2.466   3.608   1.280  0.3231 -0.3656 -0.2588
  623SOL    HW2 2537   2.455   3.588   1.373  1.3134  0.3301  0.0214
  623SOL    HW3 2538   2.406   3.549   1.235 -2.0788  1.0067  0.9776
  623SOL    MW4 2539   2.456   3.598   1.286  0.1369 -0.0925 -0.0587
  624SOL     OW 2540   2.701   3.452   1.245 -0.5281 -0.0272 -0.2438
  624SOL    HW2 2541   2.640   3.520   1.272  0.4391  1.3905 -1.5831
  624SOL    HW3 2542   2.714   3.466   1.151 -0.7332 -2.3917 -0.6756
  624SOL    MW4 2543   2.694   3.463   1.236 -0.4275 -0.1521 -0.4774
  625SOL     OW 2544   2.572   3.872   1.351 -0.4598 -0.4198  0.1545
  625SOL    HW2 2545   2.624   3.906   1.279  0.2569 -0.9049  0.4381
  625SOL    HW3 2546   2.554   3.781   1.328  0.0474 -0.6754  0.7196
  625SOL    MW4 2547   2.577   3.865   1.339 -0.2983 -0.5174  0.2664
  626SOL     OW 2548   2.385   4.054   1.315 -0.0098 -0.0714  0.2541
  626SOL    HW2 2549   2.453   3.989   1.298 -0.1393 -0.4985  1.3024
  626SOL    HW3 2550   2.326   4.048   1.240  0.8283 -0.0578 -0.4105
  626SOL    MW4 2551   2.386   4.045   1.303  0.0834 -0.1259  0.3048
  627SOL     OW 2552   1.615   4.479   0.574 -0.0072  0.2660  0.0537
  627SOL    HW2 2553   1.609   4.389   0.544  0.4201  0.2224  0.0940
  627SOL    HW3 2554   1.525   4.510   0.576 -0.0177  0.3860 -1.6508
  627SOL    MW4 2555   1.603   4.472   0.570  0.0478  0.2761 -0.1659
  628SOL     OW 2556   2.429   4.249   0.637  0.1841  0.0796  0.6904
  628SOL    HW2 2557   2.468   4.225   0.553  1.1020  1.3217  0.7356
  628SOL    HW3 2558   2.341   4.279   0.615  0.2996  0.0730  0.2146
  628SOL    MW4 2559   2.423   4.250   0.623  0.3207  0.2427  0.6335
  629SOL     OW 2560   3.355   3.609   1.265 -0.0151 -0.4586 -0.6346
  629SOL    HW2 2561   3.435   3.577   1.224 -0.7918  0.2188 -2.7274
  629SOL    HW3 2562   3.285   3.556   1.225 -0.6888 -0.6343  0.7255
  629SOL    MW4 2563   3.356   3.598   1.254 -0.2067 -0.3924 -0.7312
  630SOL     OW 2564   2.879   4.405   1.051  0.4797  0.2402 -0.3080
  630SOL    HW2 2565   2.881   4.499   1.068  1.7984  0.3666 -1.0591
  630SOL    HW3 2566   2.834   4.396   0.967  0.6123  0.2272 -0.3782
  630SOL    MW4 2567   2.873   4.416   1.042  0.6711  0.2556 -0.4162
  631SOL     OW 2568   2.420   0.442   1.276 -0.0112 -0.1609  0.0221
  631SOL    HW2 2569   2.422   0.467   1.368  1.1024 -1.4961  0.3787
  631SOL    HW3 2570   2.351   0.376   1.270  0.3353 -0.5259  0.0253
  631SOL    MW4 2571   2.411   0.436   1.287  0.1812 -0.3852  0.0695
  632SOL     OW 2572   2.938   0.514   1.245 -0.4007 -0.2451  0.5003
  632SOL    HW2 2573   2.854   0.484   1.211  0.0447  0.3641 -1.2039
  632SOL    HW3 2574   2.939   0.609   1.230  0.6446 -0.2662  0.3422
  632SOL    MW4 2575   2.927   0.523   1.238 -0.2043 -0.1675  0.2545
  633SOL     OW 2576   2.917   0.794   1.131  0.4990 -0.0053 -0.0815
  633SOL    HW2 2577   2.994   0.840   1.165  0.1380  1.2085 -0.8803
  633SOL    HW3 2578   2.843   0.841   1.168  0.1176  0.3939 -1.3244
  633SOL    MW4 2579   2.917   0.807   1.140  0.4010  0.2075 -0.3510
  634SOL     OW 2580   2.659   0.915   1.233 -0.0995 -0.0009 -0.5672
  634SOL    HW2 2581   2.595   0.854   1.196  2.7575 -1.2364 -3.7673
  634SOL    HW3 2582   2.637   1.000   1.195  0.3805 -0.5012 -1.9941
  634SOL    MW4 2583   2.648   0.918   1.223  0.3407 -0.2300 -1.1778
  635SOL     OW 2584   2.432   1.292   1.277  0.5947 -0.2422  0.0252
  635SOL    HW2 2585   2.447   1.298   1.372  0.4862  0.4314  0.0002
  635SOL    HW3 2586   2.442   1.381   1.246  2.3128 -0.7235 -0.8624
  635SOL    MW4 2587   2.436   1.304   1.286  0.8070 -0.2170 -0.0952
  636SOL     OW 2588   2.901   1.290   1.218  0.4091 -0.5331 -0.2673
  636SOL    HW2 2589   2.911   1.294   1.314 -1.7448 -0.9653  0.0031
  636SOL    HW3 2590   2.919   1.379   1.189  1.3801 -0.4643  0.5149
  636SOL    MW4 2591   2.904   1.302   1.227  0.2532 -0.5811 -0.1285
  637SOL     OW 2592   2.922   1.553   1.135 -0.1493  0.2349 -0.0814
  637SOL    HW2 2593   3.007   1.568   1.178 -0.1923 -0.0366  0.0993
  637SOL    HW3 2594   2.943   1.539   1.043  0.3080 -2.9575  0.4512
  637SOL    MW4 2595   2.936   1.553   1.129 -0.0947 -0.2221  0.0128
  638SOL     OW 2596   2.714   1.663   1.266  0.3783 -0.1039 -0.1144
  638SOL    HW2 2597   2.796   1.630   1.230  1.1259 -0.3942  1.8115
  638SOL    HW3 2598   2.647   1.609   1.224  1.2076 -0.3187 -1.1874
  638SOL    MW4 2599   2.716   1.651   1.256  0.5865 -0.1705 -0.0019
  639SOL     OW 2600   2.702   1.868   1.076 -0.0826 -0.1068 -0.0873
  639SOL    HW2 2601   2.778   1.924   1.094 -0.3980  0.3658 -0.2078
  639SOL    HW3 2602   2.702   1.804   1.147  0.6799 -0.3811 -0.3266
  639SOL    MW4 2603   2.712   1.867   1.088 -0.0236 -0.0806 -0.1349
  640SOL     OW 2604   3.317   2.063   0.184  0.5815 -0.0647  0.3471
  640SOL    HW2 2605   3.295   2.069   0.091 -0.4157 -0.3565  0.5534
  640SOL    HW3 2606   3.412   2.069   0.187  0.5820  0.5054 -0.6471
  640SOL    MW4 2607   3.327   2.065   0.172  0.4501 -0.0281  0.2431
  641SOL     OW 2608   4.479   0.968   0.560 -0.2079  0.0216  0.8194
  641SOL    HW2 2609   4.528   0.886   0.557 -1.6597 -0.8307 -0.6255
  641SOL    HW3 2610   4.545   1.036   0.546  0.6328 -1.0916 -0.8195
  641SOL    MW4 2611   4.494   0.966   0.557 -0.2885 -0.2378  0.4126
  642SOL     OW 2612   2.280   2.677   0.852  0.3937 -0.0025 -0.1345
  642SOL    HW2 2613   2.349   2.613   0.838 -0.5066 -0.9160 -0.5228
  642SOL    HW3 2614   2.270   2.680   0.947 -0.5561 -1.5675 -0.1569
  642SOL    MW4 2615   2.287   2.669   0.863  0.1500 -0.3297 -0.1886
  643SOL     OW 2616   2.439   0.969   0.320  0.0299  0.4691  0.1868
  643SOL    HW2 2617   2.489   1.037   0.365 -0.9017  0.8064  0.7334
  643SOL    HW3 2618   2.396   0.921   0.390 -0.3219  0.1141 -0.2737
  643SOL    MW4 2619   2.440   0.972   0.335 -0.1395  0.4668  0.1981
  644SOL     OW 2620   3.314   2.823   1.280 -0.1400 -0.3941 -0.9136
  644SOL    HW2 2621   3.316   2.911   1.242 -0.4850  0.3649  0.7804
  644SOL    HW3 2622   3.247   2.777   1.229 -1.3426  0.9321 -0.5843
  644SOL    MW4 2623   3.305   2.829   1.268 -0.3440 -0.1190 -0.6466
  645SOL     OW 2624   3.693   2.003   0.827 -0.3546  0.5935 -0.0150
  645SOL    HW2 2625   3.675   1.932   0.766 -0.7005  1.2854 -0.7410
  645SOL    HW3 2626   3.620   2.001   0.889  0.2049 -0.3610  0.6129
  645SOL    MW4 2627   3.681   1.994   0.827 -0.3264  0.5587 -0.0280
  646SOL     OW 2628   3.834   3.599   1.224 -0.6054 -0.4918  0.2924
  646SOL    HW2 2629   3.829   3.589   1.319  0.0418  0.7585  0.4725
  646SOL    HW3 2630   3.744   3.587   1.193 -0.8928 -0.4478  1.1101
  646SOL    MW4 2631   3.822   3.596   1.232 -0.5581 -0.3211  0.4241
  647SOL     OW 2632   0.231   3.990   0.741 -0.2222 -0.2037 -0.2277
  647SOL    HW2 2633   0.186   4.050   0.799  0.4344  0.5515 -0.4850
  647SOL    HW3 2634   0.234   3.907   0.789 -0.7774  0.0769  0.2917
  647SOL    MW4 2635   0.226   3.987   0.755 -0.2088 -0.0670 -0.1931
  648SOL     OW 2636   3.157   3.439   1.179  0.4675 -0.4282  0.1860
  648SOL    HW2 2637   3.142   3.431   1.085 -0.3260 -0.7466  0.3399
  648SOL    HW3 2638   3.167   3.350   1.211 -0.8976 -0.4121  0.6691
  648SOL    MW4 2639   3.157   3.426   1.171  0.1826 -0.4680  0.2701
  649SOL     OW 2640   2.940   3.853   1.177 -0.4472  0.4688  0.1288
  649SOL    HW2 2641   2.949   3.770   1.224 -1.2935  0.1973 -0.1803
  649SOL    HW3 2642   3.019   3.901   1.198  0.1244 -0.4855  0.1885
  649SOL    MW4 2643   2.951   3.848   1.186 -0.4835  0.3071  0.0958
  650SOL     OW 2644   2.704   4.006   1.146 -0.2014 -0.7118  0.2291
  650SOL    HW2 2645   2.792   3.970   1.149 -0.4333 -1.2008  1.7703
  650SOL    HW3 2646   2.712   4.094   1.182 -0.2132 -0.4769 -0.3413
  650SOL    MW4 2647   2.717   4.013   1.151 -0.2334 -0.7458  0.3573
  651SOL     OW 2648   2.774   4.259   1.284  0.4548 -0.2849  0.2718
  651SOL    HW2 2649   2.686   4.295   1.296  0.7736  0.4039  0.6290
  651SOL    HW3 2650   2.806   4.300   1.204  0.5123 -0.3937  0.2398
  651SOL    MW4 2651   2.767   4.269   1.275  0.5043 -0.2089  0.3147
  652SOL     OW 2652   3.338   4.365   1.197 -0.7357  0.4924  0.1055
  652SOL    HW2 2653   3.400   4.293   1.184 -0.5110  0.2566  2.2750
  652SOL    HW3 2654   3.252   4.327   1.178 -0.3944  0.3579 -1.2296
  652SOL    MW4 2655   3.335   4.351   1.192 -0.6609  0.4435  0.2155
  653SOL     OW 2656   0.957   3.659   0.363 -0.2482 -0.3438  0.4890
  653SOL    HW2 2657   0.923   3.731   0.417  1.6218  0.8722  0.0971
  653SOL    HW3 2658   0.913   3.670   0.278 -1.0446 -0.5387  0.8714
  653SOL    MW4 2659   0.947   3.670   0.359 -0.1065 -0.2091  0.4878
  654SOL     OW 2660   2.916   4.309   1.552 -0.2015  0.4814 -0.1612
  654SOL    HW2 2661   2.922   4.404   1.544  0.9804  0.3281 -1.3125
  654SOL    HW3 2662   2.908   4.278   1.462  0.5403 -0.5764  0.1270
  654SOL    MW4 2663   2.915   4.317   1.539  0.0520  0.3214 -0.2751
  655SOL     OW 2664   2.371   3.859   0.627 -0.6277 -0.2727 -0.3794
  655SOL    HW2 2665   2.416   3.806   0.562 -1.1108 -0.7048 -0.3696
  655SOL    HW3 2666   2.295   3.806   0.653 -0.9840  0.3170 -0.1942
  655SOL    MW4 2667   2.367   3.845   0.622 -0.7386 -0.2520 -0.3536
  656SOL     OW 2668   3.145   2.423   1.226  0.3793 -0.2828 -0.2245
  656SOL    HW2 2669   3.233   2.419   1.188 -0.0738  1.7806 -1.5680
  656SOL    HW3 2670   3.158   2.406   1.319  1.9094 -2.2391 -0.7749
  656SOL    MW4 2671   3.158   2.420   1.233  0.5214 -0.2685 -0.4745
  657SOL     OW 2672   1.397   0.918   0.490  0.1101 -0.0081  0.0423
  657SOL    HW2 2673   1.328   0.947   0.549 -0.4047 -0.6228 -0.2490
  657SOL    HW3 2674   1.478   0.935   0.537 -0.2433  0.6370  0.4236
  657SOL    MW4 2675   1.398   0.924   0.504 -0.0044 -0.0041  0.0541
  658SOL     OW 2676   3.152   0.896   1.233  0.6788  0.5648  0.3748
  658SOL    HW2 2677   3.156   0.891   1.329 -1.1595  1.1454  0.5031
  658SOL    HW3 2678   3.164   0.989   1.214 -0.5418  0.6833  0.1481
  658SOL    MW4 2679   3.154   0.908   1.244  0.2756  0.6570  0.3618
  659SOL     OW 2680   0.056   4.231   0.872  0.2644  0.3501  0.6087
  659SOL    HW2 2681   0.047   4.323   0.848 -0.6851  0.3302  0.8885
  659SOL    HW3 2682   0.032   4.228   0.964  1.5775  0.0326  0.9524
  659SOL    MW4 2683   0.052   4.243   0.881  0.3124  0.3061  0.6909
  660SOL     OW 2684   3.332   1.294   1.253  0.1397  0.5638 -0.4298
  660SOL    HW2 2685   3.359   1.310   1.343  0.7162  1.9579 -0.8454
  660SOL    HW3 2686   3.345   1.377   1.208 -1.5466  0.2938 -1.4621
  660SOL    MW4 2687   3.337   1.307   1.259 -0.0067  0.7120 -0.6208
  661SOL     OW 2688   3.379   1.557   1.168  0.1957  0.2010  0.3723
  661SOL    HW2 2689   3.456   1.593   1.213  0.5649 -1.4931  1.1312
  661SOL    HW3 2690   3.305   1.605   1.206  0.6305 -0.2095  1.7843
  661SOL    MW4 2691   3.380   1.568   1.179  0.3018 -0.0767  0.6588
  662SOL     OW 2692   3.135   1.688   1.265 -0.1754 -0.1557 -0.0290
  662SOL    HW2 2693   3.144   1.675   1.360 -0.7307 -0.4060 -0.0055
  662SOL    HW3 2694   3.120   1.782   1.255  1.3955  0.1046  0.0054
  662SOL    MW4 2695   3.134   1.698   1.276 -0.0412 -0.1544 -0.0215
  663SOL     OW 2696   1.413   1.164   0.372 -0.4759 -0.0123  0.1960
  663SOL    HW2 2697   1.391   1.073   0.391 -1.2119  0.2222  0.4902
  663SOL    HW3 2698   1.331   1.212   0.385 -0.1348  0.6677 -0.1203
  663SOL    MW4 2699   1.399   1.158   0.376 -0.5281  0.1082  0.1931
  664SOL     OW 2700   3.349   2.096   1.318 -0.2993  0.1385 -0.3690
  664SOL    HW2 2701   3.414   2.047   1.268 -1.1602 -1.6968  0.2745
  664SOL    HW3 2702   3.349   2.183   1.279  0.9955 -0.4731 -1.7643
  664SOL    MW4 2703   3.358   2.101   1.307 -0.2420 -0.1843 -0.4681
  665SOL     OW 2704   4.014   4.578   0.578 -0.4891 -0.5058 -0.3148
  665SOL    HW2 2705   3.983   4.490   0.559 -0.3591 -0.3219 -1.4181
  665SOL    HW3 2706   3.960   4.607   0.652 -0.4963 -1.5228  0.0805
  665SOL    MW4 2707   4.003   4.570   0.585 -0.4725 -0.6156 -0.4082
  666SOL     OW 2708   3.411   2.337   1.155  0.5099 -0.0993  0.4427
  666SOL    HW2 2709   3.416   2.315   1.062 -0.6040 -0.0084  0.3593
  666SOL    HW3 2710   3.487   2.394   1.170  0.5556  0.0837 -0.4645
  666SOL    MW4 2711   3.422   2.342   1.145  0.3691 -0.0632  0.3120
  667SOL     OW 2712   3.007   2.948   0.474  0.0874 -0.6363 -0.1519
  667SOL    HW2 2713   2.988   2.862   0.438  0.2912 -0.0145 -1.8163
  667SOL    HW3 2714   2.924   2.978   0.512  0.1663 -1.7927  0.9668
  667SOL    MW4 2715   2.994   2.941   0.474  0.1249 -0.7069 -0.2239
  668SOL     OW 2716   3.124   0.626   0.488  0.0772 -0.2464 -0.0613
  668SOL    HW2 2717   3.182   0.702   0.493 -0.9976  0.5940 -0.1133
  668SOL    HW3 2718   3.041   0.661   0.456 -0.1063 -1.6275 -1.1633
  668SOL    MW4 2719   3.121   0.641   0.484 -0.0889 -0.3177 -0.2135
  669SOL     OW 2720   3.170   3.206   1.307  0.5774 -0.2049 -0.3736
  669SOL    HW2 2721   3.252   3.182   1.264 -0.1319 -2.0170 -0.7913
  669SOL    HW3 2722   3.103   3.160   1.256 -0.6650  1.0154  0.1397
  669SOL    MW4 2723   3.172   3.197   1.295  0.3197 -0.2830 -0.3611
  670SOL     OW 2724   3.813   2.641   0.237 -0.4972  0.1737 -0.5003
  670SOL    HW2 2725   3.732   2.691   0.239  0.4267  1.6863  0.3716
  670SOL    HW3 2726   3.874   2.692   0.291  1.5583 -0.0333 -2.5514
  670SOL    MW4 2727   3.810   2.654   0.245 -0.1040  0.3459 -0.6559
  671SOL     OW 2728   0.515   1.936   0.929 -0.0561  0.2058  0.9512
  671SOL    HW2 2729   0.607   1.948   0.907 -0.7095  2.5571 -0.6992
  671SOL    HW3 2730   0.484   1.871   0.865  0.2020  0.1608  0.8710
  671SOL    MW4 2731   0.523   1.929   0.917 -0.1082  0.5100  0.7228
  672SOL     OW 2732   0.851   0.321   0.866  0.2958 -0.1835  0.3280
  672SOL    HW2 2733   0.801   0.349   0.790  0.1342 -0.5356  0.3024
  672SOL    HW3 2734   0.940   0.310   0.834 -0.1096 -2.0893 -0.2546
  672SOL    MW4 2735   0.856   0.323   0.852  0.2209 -0.4814  0.2478
  673SOL     OW 2736   4.130   3.956   0.776 -0.4011 -0.5846 -0.5734
  673SOL    HW2 2737   4.183   4.032   0.801  1.2703 -0.8303 -3.1263
  673SOL    HW3 2738   4.167   3.883   0.827  0.7508 -0.4442 -1.1733
  673SOL    MW4 2739   4.142   3.956   0.786 -0.0286 -0.5989 -0.9894
  674SOL     OW 2740   3.163   4.005   1.229 -0.0314 -0.3107  0.7130
  674SOL    HW2 2741   3.124   4.090   1.212 -1.1319 -1.1432 -1.1638
  674SOL    HW3 2742   3.152   3.991   1.323 -0.7954  1.1426  0.8502
  674SOL    MW4 2743   3.156   4.014   1.239 -0.2775 -0.2289  0.4835
  675SOL     OW 2744   3.327   4.629   1.098 -0.2282  0.0486 -0.2311
  675SOL    HW2 2745   3.327   4.541   1.134 -0.4561 -0.6458 -1.9048
  675SOL    HW3 2746   3.406   4.670   1.134  0.0807 -0.9563  0.2421
  675SOL    MW4 2747   3.337   4.623   1.108 -0.2174 -0.1760 -0.3895
  676SOL     OW 2748   1.831   0.418   1.081  0.2772  0.1688 -0.0228
  676SOL    HW2 2749   1.757   0.445   1.135  0.2811 -2.4546  1.3788
  676SOL    HW3 2750   1.792   0.397   0.996 -0.3840  0.0596  0.3014
  676SOL    MW4 2751   1.816   0.419   1.077  0.1905 -0.1917  0.2049
  677SOL     OW 2752   3.552   0.082   1.212 -0.2789 -0.2140 -0.0247
  677SOL    HW2 2753   3.626   0.040   1.168  0.2956 -0.4681  1.1541
  677SOL    HW3 2754   3.566   0.175   1.199 -1.4183 -0.3542 -2.4366
  677SOL    MW4 2755   3.564   0.088   1.205 -0.3536 -0.2660 -0.1874
  678SOL     OW 2756   3.594   0.136   1.497  0.2669 -0.1691  0.6235
  678SOL    HW2 2757   3.666   0.083   1.531  1.0984  0.2762 -0.4032
  678SOL    HW3 2758   3.588   0.112   1.404 -0.7214  0.0010  0.6419
  678SOL    MW4 2759   3.603   0.126   1.489  0.2463 -0.0879  0.4904
  679SOL     OW 2760   3.380   0.523   1.241 -0.1313 -0.1824 -0.4356
  679SOL    HW2 2761   3.452   0.463   1.223  0.1966  0.1583 -0.2721
  679SOL    HW3 2762   3.310   0.495   1.183  0.2978 -0.2176 -0.9360
  679SOL    MW4 2763   3.381   0.511   1.231 -0.0317 -0.1422 -0.4801
  680SOL     OW 2764   3.827   0.448   1.248 -0.1810  0.1195  0.0430
  680SOL    HW2 2765   3.828   0.539   1.222 -1.2929  0.2864  0.5570
  680SOL    HW3 2766   3.900   0.408   1.201 -1.5755  0.5898 -2.5596
  680SOL    MW4 2767   3.837   0.455   1.239 -0.5119  0.2036 -0.2327
  681SOL     OW 2768   3.803   0.715   1.163  0.4306  0.0137 -0.4128
  681SOL    HW2 2769   3.880   0.769   1.178 -0.6002  1.4874 -0.3931
  681SOL    HW3 2770   3.729   0.774   1.176 -0.6687 -0.8535 -2.5443
  681SOL    MW4 2771   3.803   0.730   1.167  0.1495  0.0937 -0.6914
  682SOL     OW 2772   3.610   0.876   1.260 -0.3363  0.0881 -0.2500
  682SOL    HW2 2773   3.596   0.964   1.226  0.3621  0.3523  0.1478
  682SOL    HW3 2774   3.540   0.824   1.220 -0.4206  0.7009 -0.9158
  682SOL    MW4 2775   3.599   0.881   1.250 -0.2551  0.2038 -0.2853
  683SOL     OW 2776   3.563   1.138   1.164 -0.4949 -0.0884 -0.4101
  683SOL    HW2 2777   3.628   1.199   1.199 -0.3023 -0.6793  0.2805
  683SOL    HW3 2778   3.479   1.176   1.188 -0.3787 -0.0058 -0.1314
  683SOL    MW4 2779   3.561   1.151   1.172 -0.4539 -0.1556 -0.2823
  684SOL     OW 2780   3.771   1.317   1.234 -0.1641  0.1078  0.3671
  684SOL    HW2 2781   3.763   1.315   1.329 -0.2678  0.0408  0.3574
  684SOL    HW3 2782   3.841   1.255   1.214  0.2143  0.5044  0.4354
  684SOL    MW4 2783   3.779   1.309   1.244 -0.1278  0.1512  0.3748
  685SOL     OW 2784   3.777   1.575   1.130  0.1387 -0.0715 -0.6224
  685SOL    HW2 2785   3.780   1.481   1.150 -0.3584 -0.3632 -1.8331
  685SOL    HW3 2786   3.853   1.612   1.174  0.3879 -1.0578 -0.2093
  685SOL    MW4 2787   3.787   1.567   1.138  0.1061 -0.2401 -0.7277
  686SOL     OW 2788   3.590   1.680   1.294 -0.3101  0.3160 -0.4524
  686SOL    HW2 2789   3.575   1.770   1.264  1.3051  0.5744 -0.4908
  686SOL    HW3 2790   3.664   1.649   1.243 -0.7004 -0.9616 -0.2544
  686SOL    MW4 2791   3.598   1.688   1.283 -0.1483  0.1816 -0.4313
  687SOL     OW 2792   3.536   1.934   1.193 -0.0305 -0.3301 -0.4430
  687SOL    HW2 2793   3.501   1.933   1.104  0.0938 -1.8170 -0.4778
  687SOL    HW3 2794   3.614   1.990   1.187 -1.1187  1.1867 -0.8300
  687SOL    MW4 2795   3.542   1.941   1.181 -0.1581 -0.3262 -0.4987
  688SOL     OW 2796   3.778   2.058   1.210  0.2630  0.0772  0.1712
  688SOL    HW2 2797   3.861   2.018   1.185 -0.3934 -1.9974  1.1761
  688SOL    HW3 2798   3.779   2.057   1.306 -2.0321 -2.3934  0.2055
  688SOL    MW4 2799   3.789   2.053   1.220 -0.1261 -0.5224  0.3083
  689SOL     OW 2800   3.789   2.338   1.125  0.5473  0.0266  0.4851
  689SOL    HW2 2801   3.780   2.345   1.030  0.8704 -0.5427  0.4022
  689SOL    HW3 2802   3.777   2.244   1.143  0.6975  0.0987  0.9755
  689SOL    MW4 2803   3.786   2.326   1.115  0.6096 -0.0391  0.5387
  690SOL     OW 2804   3.613   2.514   1.215 -0.2983 -0.2626 -0.2322
  690SOL    HW2 2805   3.602   2.502   1.309 -0.7660  1.7597  0.0117
  690SOL    HW3 2806   3.686   2.458   1.192  0.2588 -0.2804  1.4766
  690SOL    MW4 2807   3.621   2.505   1.225 -0.2863  0.0019  0.0254
  691SOL     OW 2808   3.934   2.875   0.989  0.1223 -0.2404 -0.0740
  691SOL    HW2 2809   3.895   2.904   1.071  0.5506 -0.0917  0.0788
  691SOL    HW3 2810   3.954   2.956   0.942  1.7261 -0.2727  0.5431
  691SOL    MW4 2811   3.931   2.890   0.993  0.3905 -0.2251  0.0277
  692SOL     OW 2812   3.809   2.949   1.239 -0.6257  0.0506  0.2891
  692SOL    HW2 2813   3.811   2.907   1.325  0.3892 -1.7404 -0.5678
  692SOL    HW3 2814   3.724   2.925   1.202 -0.6659  0.0185  0.4027
  692SOL    MW4 2815   3.798   2.940   1.246 -0.4969 -0.1898  0.1910
  693SOL     OW 2816   3.610   3.228   1.237 -0.0099  0.2436  0.0823
  693SOL    HW2 2817   3.616   3.231   1.332  1.4106  1.7176 -0.0306
  693SOL    HW3 2818   3.682   3.170   1.210  0.3497  0.7911 -0.1486
  693SOL    MW4 2819   3.621   3.221   1.246  0.2248  0.5105  0.0368
  694SOL     OW 2820   3.998   3.174   0.907  0.4171  0.2511  0.4369
  694SOL    HW2 2821   3.906   3.201   0.905  0.1777 -0.6301 -1.1663
  694SOL    HW3 2822   4.039   3.234   0.970 -1.1962  0.8069  0.9853
  694SOL    MW4 2823   3.992   3.185   0.915  0.1726  0.2079  0.2978
  695SOL     OW 2824   0.276   3.576   1.243 -0.0709  0.2463 -0.0809
  695SOL    HW2 2825   0.267   3.667   1.214 -0.5631  0.1933 -0.0993
  695SOL    HW3 2826   0.282   3.582   1.339 -0.5004  0.2669 -0.0562
  695SOL    MW4 2827   0.276   3.589   1.252 -0.1925  0.2418 -0.0801
  696SOL     OW 2828   3.619   3.415   0.653  0.2145  0.0357 -0.1492
  696SOL    HW2 2829   3.659   3.467   0.583 -1.2559  0.3882 -0.7508
  696SOL    HW3 2830   3.571   3.346   0.608  0.0507 -0.3183  0.5528
  696SOL    MW4 2831   3.618   3.413   0.638 -0.0012  0.0355 -0.1360
  697SOL     OW 2832   4.043   4.014   1.213 -0.2121  0.3751 -0.2379
  697SOL    HW2 2833   4.038   4.103   1.177  2.0907  0.5301 -0.2465
  697SOL    HW3 2834   3.963   3.972   1.184 -0.9166  2.1790 -0.9918
  697SOL    MW4 2835   4.032   4.020   1.205 -0.0010  0.6332 -0.3384
  698SOL     OW 2836   3.834   3.861   1.118 -0.0382  0.0104  0.2701
  698SOL    HW2 2837   3.832   3.773   1.155 -1.5488  0.2087  0.6950
  698SOL    HW3 2838   3.753   3.902   1.148 -0.5013  0.7426 -1.8660
  698SOL    MW4 2839   3.823   3.855   1.127 -0.2987  0.1330  0.0442
  699SOL     OW 2840   3.038   4.251   0.718 -0.4029 -0.0148 -0.1267
  699SOL    HW2 2841   2.954   4.264   0.761 -0.4185  2.0248 -0.7221
  699SOL    HW3 2842   3.019   4.258   0.624  0.1765 -1.1322 -0.3423
  699SOL    MW4 2843   3.024   4.253   0.711 -0.3285  0.1073 -0.2337
  700SOL     OW 2844   3.556   4.185   1.160 -0.4587 -0.1398 -0.2226
  700SOL    HW2 2845   3.571   4.097   1.194 -1.1031 -0.4718 -0.7742
  700SOL    HW3 2846   3.567   4.176   1.065 -0.3482  0.4131 -0.2631
  700SOL    MW4 2847   3.559   4.173   1.152 -0.5293 -0.1111 -0.3006
  701SOL     OW 2848   4.271   4.629   1.159  0.3998  0.3936 -0.1528
  701SOL    HW2 2849   4.279   4.542   1.198 -2.9075 -0.3405 -1.0121
  701SOL    HW3 2850   4.193   4.667   1.199  1.1349  2.5398 -0.6647
  701SOL    MW4 2851   4.262   4.623   1.169  0.0610  0.5798 -0.3337
  702SOL     OW 2852   4.012   0.042   1.221 -0.1293  0.0308 -0.4412
  702SOL    HW2 2853   3.994   0.058   1.314  0.5655  0.5390 -0.3972
  702SOL    HW3 2854   3.929   0.010   1.186 -0.4302 -0.0361  0.3290
  702SOL    MW4 2855   3.998   0.040   1.229 -0.0777  0.0890 -0.3338
  703SOL     OW 2856   3.024   0.939   0.719  0.5225 -0.5467  0.2574
  703SOL    HW2 2857   3.024   0.989   0.801  1.8183 -0.1965  0.0563
  703SOL    HW3 2858   3.004   0.849   0.746 -1.8418  0.0413  0.6209
  703SOL    MW4 2859   3.021   0.934   0.734  0.3817 -0.4230  0.2788
  704SOL     OW 2860   4.044   0.306   1.143 -0.0734  0.2433 -0.1529
  704SOL    HW2 2861   4.079   0.295   1.054 -0.8777  0.7297 -0.5380
  704SOL    HW3 2862   4.020   0.217   1.170 -1.9390  0.3507 -1.3199
  704SOL    MW4 2863   4.045   0.293   1.135 -0.4258  0.3217 -0.3577
  705SOL     OW 2864   4.270   0.476   1.259  0.5973  0.1983  0.1013
  705SOL    HW2 2865   4.254   0.463   1.352 -0.6241  0.0271 -0.1144
  705SOL    HW3 2866   4.200   0.425   1.216  1.3338  0.0214 -0.9003
  705SOL    MW4 2867   4.258   0.467   1.265  0.5331  0.1524 -0.0595
  706SOL     OW 2868   4.056   0.874   1.540 -0.1327  0.5274  0.4742
  706SOL    HW2 2869   3.995   0.819   1.588  0.0410  1.4459  1.7724
  706SOL    HW3 2870   4.142   0.835   1.555 -0.2273  0.0816 -0.1403
  706SOL    MW4 2871   4.060   0.862   1.548 -0.1225  0.5898  0.5643
  707SOL     OW 2872   4.037   0.882   1.258  0.4394  0.0832  0.1297
  707SOL    HW2 2873   4.035   0.881   1.353  1.0624  0.1134  0.1436
  707SOL    HW3 2874   4.124   0.848   1.235 -0.3853 -1.7212 -0.4577
  707SOL    MW4 2875   4.048   0.877   1.267  0.4134 -0.1509  0.0539
  708SOL     OW 2876   3.965   0.869   0.313  0.1451  0.1235 -0.3134
  708SOL    HW2 2877   3.900   0.937   0.329  0.4090  0.2412  0.2487
  708SOL    HW3 2878   4.035   0.913   0.266 -0.2746 -0.0535 -1.1303
  708SOL    MW4 2879   3.965   0.884   0.309  0.1247  0.1157 -0.3470
  709SOL     OW 2880   2.407   2.613   0.567  0.4090 -0.3622 -0.3708
  709SOL    HW2 2881   2.323   2.590   0.529 -0.1157  0.5015  0.2538
  709SOL    HW3 2882   2.414   2.558   0.645 -0.8663  1.5713  1.1477
  709SOL    MW4 2883   2.397   2.602   0.573  0.1717  0.0069 -0.0880
  710SOL     OW 2884   4.015   1.652   1.253  0.3269  0.3207  0.0650
  710SOL    HW2 2885   4.034   1.636   1.346  0.2232  1.3948  0.2803
  710SOL    HW3 2886   4.092   1.618   1.207  1.0406  1.1192  0.6503
  710SOL    MW4 2887   4.028   1.645   1.259  0.4077  0.5678  0.1706
  711SOL     OW 2888   3.909   1.612   0.742  0.4034  0.4223 -0.4597
  711SOL    HW2 2889   3.991   1.563   0.745  0.5859  0.6025 -2.3340
  711SOL    HW3 2890   3.846   1.555   0.786  1.1814 -0.3758 -0.3645
  711SOL    MW4 2891   3.911   1.598   0.748  0.5300  0.3408 -0.6945
  712SOL     OW 2892   4.036   2.457   1.225 -0.2748 -0.6403  0.2348
  712SOL    HW2 2893   3.956   2.408   1.205  0.1574 -1.6039  0.8124
  712SOL    HW3 2894   4.042   2.454   1.320 -0.2269  0.5337  0.2735
  712SOL    MW4 2895   4.026   2.450   1.235 -0.2112 -0.6125  0.3160
  713SOL     OW 2896   4.469   2.595   0.726 -0.2503 -0.3405 -0.3209
  713SOL    HW2 2897   4.477   2.500   0.724  0.0129 -0.3387  0.6942
  713SOL    HW3 2898   4.377   2.611   0.747 -0.7891 -0.3540 -2.4993
  713SOL    MW4 2899   4.458   2.585   0.728 -0.2871 -0.3421 -0.4745
  714SOL     OW 2900   4.133   2.673   1.041  0.3333 -0.2424 -0.3514
  714SOL    HW2 2901   4.081   2.598   1.071 -0.3688  1.6109  3.2537
  714SOL    HW3 2902   4.069   2.740   1.020  1.0385 -0.0970 -2.1987
  714SOL    MW4 2903   4.118   2.672   1.042  0.3338  0.0215 -0.1194
  715SOL     OW 2904   3.105   3.382   0.899 -0.9160 -0.3130  0.1380
  715SOL    HW2 2905   3.145   3.463   0.867  1.0071 -1.1447  0.3193
  715SOL    HW3 2906   3.023   3.375   0.851  0.0413  0.5043 -1.7040
  715SOL    MW4 2907   3.100   3.392   0.888 -0.5355 -0.3150 -0.0812
  716SOL     OW 2908   4.280   2.821   1.211  0.1392 -0.5850 -0.1060
  716SOL    HW2 2909   4.208   2.768   1.177 -0.2915  0.4082 -0.7507
  716SOL    HW3 2910   4.271   2.814   1.306 -0.6834 -0.6385 -0.1846
  716SOL    MW4 2911   4.269   2.813   1.219 -0.0267 -0.4609 -0.2015
  717SOL     OW 2912   4.213   3.069   1.125 -0.3652  0.3401 -0.5007
  717SOL    HW2 2913   4.236   2.978   1.145 -0.2909 -0.3357 -3.5567
  717SOL    HW3 2914   4.141   3.088   1.185 -1.2756 -2.1731 -0.7014
  717SOL    MW4 2915   4.206   3.059   1.136 -0.4759 -0.0806 -0.9305
  718SOL     OW 2916   3.996   3.178   1.266  0.1406 -0.1450  0.4653
  718SOL    HW2 2917   4.023   3.180   1.358 -0.1366  0.1851  0.5379
  718SOL    HW3 2918   3.938   3.102   1.260 -1.6286  1.1381  1.0535
  718SOL    MW4 2919   3.992   3.168   1.278 -0.1295  0.0679  0.5525
  719SOL     OW 2920   4.047   3.431   1.146  0.1794 -0.1580  0.4469
  719SOL    HW2 2921   4.041   3.344   1.186 -1.0304 -0.3961 -0.2459
  719SOL    HW3 2922   3.969   3.477   1.177  0.9894  0.8049  1.0868
  719SOL    MW4 2923   4.036   3.425   1.155  0.1268 -0.0625  0.4398
  720SOL     OW 2924   4.247   3.628   1.217  0.2462 -0.1909  0.0569
  720SOL    HW2 2925   4.176   3.565   1.204  0.3392 -0.0180 -1.4614
  720SOL    HW3 2926   4.325   3.583   1.186  0.5153  0.2242  0.1255
  720SOL    MW4 2927   4.248   3.614   1.211  0.2937 -0.1135 -0.1343
  721SOL     OW 2928   3.828   3.415   0.429 -0.0491  0.4952  0.1313
  721SOL    HW2 2929   3.881   3.363   0.489  0.9031  1.4557  0.1231
  721SOL    HW3 2930   3.888   3.441   0.360 -0.3266  2.2689  0.5420
  721SOL    MW4 2931   3.843   3.412   0.428  0.0401  0.8557  0.1844
  722SOL     OW 2932   4.278   3.872   1.112  0.0342 -0.0786 -0.1519
  722SOL    HW2 2933   4.208   3.920   1.156 -1.5392 -0.9686 -1.6381
  722SOL    HW3 2934   4.274   3.784   1.150  0.5287 -0.0650 -0.0630
  722SOL    MW4 2935   4.268   3.867   1.123 -0.1082 -0.1943 -0.3362
  723SOL     OW 2936   4.040   4.273   1.123 -0.2877  0.1715 -0.0026
  723SOL    HW2 2937   3.952   4.296   1.154 -0.1842  0.0204  0.4082
  723SOL    HW3 2938   4.044   4.308   1.034 -0.0303  2.0491  0.7142
  723SOL    MW4 2939   4.029   4.281   1.116 -0.2398  0.3991  0.1462
  724SOL     OW 2940   4.262   4.383   1.248  0.0259  0.0211  0.0682
  724SOL    HW2 2941   4.188   4.341   1.205 -0.4141 -0.1386  0.9616
  724SOL    HW3 2942   4.339   4.345   1.206 -0.3964  0.3583 -1.0216
  724SOL    MW4 2943   4.263   4.372   1.237 -0.0873  0.0448  0.0423
  725SOL     OW 2944   0.290   4.572   1.611  0.3543  0.7908  0.0979
  725SOL    HW2 2945   0.346   4.639   1.572 -0.4939  1.4832  0.0572
  725SOL    HW3 2946   0.202   4.592   1.580  0.1768 -0.7478 -0.4502
  725SOL    MW4 2947   0.286   4.583   1.602  0.2190  0.6795  0.0201
  726SOL     OW 2948   0.031   0.021   1.538 -0.0337 -0.3205  0.0540
  726SOL    HW2 2949  -0.055  -0.007   1.569  0.8032 -1.7004  1.1782
  726SOL    HW3 2950   0.018   0.040   1.445 -1.3941 -1.2060  0.0518
  726SOL    MW4 2951   0.018   0.020   1.530 -0.1028 -0.6194  0.2019
  727SOL     OW 2952   0.045   0.306   1.590  0.6204 -0.2102  0.2055
  727SOL    HW2 2953   0.050   0.319   1.685 -0.9092  0.0697  0.2499
  727SOL    HW3 2954   0.048   0.210   1.579 -3.9025 -0.5161  0.8592
  727SOL    MW4 2955   0.046   0.295   1.601 -0.1781 -0.2136  0.2977
  728SOL     OW 2956   0.240   0.517   1.521  0.1490 -0.4405 -0.3606
  728SOL    HW2 2957   0.165   0.471   1.560  0.6546 -1.3107 -0.4013
  728SOL    HW3 2958   0.226   0.509   1.427  0.9113 -1.6563 -0.3836
  728SOL    MW4 2959   0.228   0.510   1.514  0.3163 -0.7157 -0.3691
  729SOL     OW 2960   0.236   0.773   1.634  0.0119  0.0192  0.6947
  729SOL    HW2 2961   0.306   0.813   1.582 -0.2181 -1.1653 -0.5371
  729SOL    HW3 2962   0.243   0.680   1.616 -1.3436 -0.1959  1.2482
  729SOL    MW4 2963   0.246   0.766   1.625 -0.1973 -0.1655  0.6052
  730SOL     OW 2964   0.020   0.855   1.500  0.1031  0.1138  0.1368
  730SOL    HW2 2965  -0.001   0.938   1.542 -0.1091 -0.2501  0.7495
  730SOL    HW3 2966   0.096   0.822   1.549  1.3983  0.8597 -1.3150
  730SOL    MW4 2967   0.027   0.862   1.512  0.2460  0.1642  0.0261
  731SOL     OW 2968   4.454   1.108   1.600  0.5194  0.1425 -0.3407
  731SOL    HW2 2969   4.447   1.103   1.696  0.9430 -0.7146 -0.3504
  731SOL    HW3 2970   4.536   1.154   1.584  0.5488  0.1090 -0.2882
  731SOL    MW4 2971   4.464   1.113   1.611  0.5784  0.0252 -0.3349
  732SOL     OW 2972   0.180   1.265   1.546 -0.2406 -0.3594 -0.0664
  732SOL    HW2 2973   0.186   1.354   1.582 -1.3046  0.0325 -0.8364
  732SOL    HW3 2974   0.182   1.277   1.451  1.7429 -1.3328 -0.1824
  732SOL    MW4 2975   0.181   1.278   1.539 -0.1193 -0.4362 -0.1832
  733SOL     OW 2976   0.223   1.512   1.663  0.0783  0.1534 -0.3661
  733SOL    HW2 2977   0.227   1.514   1.758  0.7577 -0.0633 -0.3919
  733SOL    HW3 2978   0.160   1.581   1.641 -1.1058 -0.7056  0.2939
  733SOL    MW4 2979   0.215   1.521   1.672  0.0117  0.0114 -0.2824
  734SOL     OW 2980   0.010   1.618   1.535 -0.6096  0.1946  0.0287
  734SOL    HW2 2981  -0.020   1.706   1.559 -1.0042 -0.1272  0.7278
  734SOL    HW3 2982   0.006   1.617   1.439 -2.3084  0.3628  0.0797
  734SOL    MW4 2983   0.005   1.629   1.525 -0.8858  0.1744  0.1278
  735SOL     OW 2984   4.432   1.880   1.653 -0.0501  0.0733 -0.4682
  735SOL    HW2 2985   4.450   1.912   1.741 -0.2362  0.3369 -0.5238
  735SOL    HW3 2986   4.350   1.923   1.628 -0.5588 -0.8143 -0.3580
  735SOL    MW4 2987   4.423   1.890   1.661 -0.1416 -0.0089 -0.4611
  736SOL     OW 2988   0.172   2.038   1.578 -0.3985 -0.1454  0.3561
  736SOL    HW2 2989   0.091   1.989   1.590 -1.4336  1.2741 -0.6373
  736SOL    HW3 2990   0.188   2.037   1.484  1.0248 -0.8515  0.5945
  736SOL    MW4 2991   0.163   2.032   1.568 -0.3473 -0.0513  0.2565
  737SOL     OW 2992   0.191   2.302   1.659 -0.4278  0.5304 -0.1334
  737SOL    HW2 2993   0.190   2.299   1.754  1.4352 -0.6087 -0.1310
  737SOL    HW3 2994   0.193   2.210   1.632 -0.1824  0.8641 -1.2659
  737SOL    MW4 2995   0.191   2.289   1.668 -0.1496  0.4239 -0.2824
  738SOL     OW 2996   4.463   2.441   1.547  0.1162  0.2532 -0.0099
  738SOL    HW2 2997   4.387   2.393   1.579  0.8791 -0.8025  0.2775
  738SOL    HW3 2998   4.538   2.393   1.584  0.9478  0.4363 -1.4249
  738SOL    MW4 2999   4.463   2.428   1.556  0.3265  0.1383 -0.1587
  739SOL     OW 3000   4.457   2.696   1.643 -0.4418 -0.2266  0.0184
  739SOL    HW2 3001   4.544   2.732   1.625 -1.1445  0.6297 -1.7839
  739SOL    HW3 3002   4.459   2.608   1.606  0.0424 -0.6602  1.0581
  739SOL    MW4 3003   4.468   2.689   1.636 -0.4711 -0.1712 -0.0823
  740SOL     OW 3004   0.194   2.813   1.564  0.0991  0.2606 -0.5714
  740SOL    HW2 3005   0.277   2.771   1.587  0.0919  0.3186 -0.4351
  740SOL    HW3 3006   0.194   2.818   1.469 -0.3327 -0.9515 -0.6487
  740SOL    MW4 3007   0.205   2.808   1.555  0.0412  0.1080 -0.5636
  741SOL     OW 3008   0.246   3.074   1.631  0.5554  0.3996  0.2751
  741SOL    HW2 3009   0.177   3.122   1.585 -0.8359 -1.1855  0.6296
  741SOL    HW3 3010   0.231   2.982   1.608  1.9301 -0.0716  1.1762
  741SOL    MW4 3011   0.235   3.068   1.622  0.5532  0.1283  0.4407
  742SOL     OW 3012   0.039   3.217   1.511  0.1341 -0.3097  0.3016
  742SOL    HW2 3013   0.046   3.308   1.541  0.4754  0.2420 -1.3629
  742SOL    HW3 3014  -0.005   3.224   1.426  0.4731 -1.6721  0.0095
  742SOL    MW4 3015   0.034   3.230   1.504  0.2241 -0.4165  0.0433
  743SOL     OW 3016   0.026   3.485   1.631  0.4711  0.5252  0.0976
  743SOL    HW2 3017   0.030   3.511   1.723 -0.0051 -2.6043  1.0809
  743SOL    HW3 3018  -0.056   3.523   1.599  0.3796  1.2029  1.1134
  743SOL    MW4 3019   0.015   3.493   1.639  0.3963  0.2017  0.3612
  744SOL     OW 3020   0.269   3.587   1.515 -0.4905  0.2291 -0.6359
  744SOL    HW2 3021   0.271   3.676   1.551  0.6612  1.0737 -2.7265
  744SOL    HW3 3022   0.186   3.550   1.547 -0.6542  1.7973  0.8181
  744SOL    MW4 3023   0.258   3.594   1.524 -0.3601  0.5469 -0.7199
  745SOL     OW 3024   0.470   3.963   1.503  0.2533 -0.5854  0.1253
  745SOL    HW2 3025   0.548   3.923   1.541  0.0894 -1.0650 -0.0393
  745SOL    HW3 3026   0.479   3.949   1.409 -0.4824 -1.4698  0.1813
  745SOL    MW4 3027   0.481   3.956   1.496  0.1346 -0.7651  0.1110
  746SOL     OW 3028   0.015   4.001   1.495  0.1714  0.4255 -0.1826
  746SOL    HW2 3029   0.030   4.091   1.522  0.5191  0.0642  0.8385
  746SOL    HW3 3030   0.098   3.956   1.513 -0.0580 -0.1408 -0.5051
  746SOL    MW4 3031   0.028   4.007   1.501  0.1870  0.3028 -0.0904
  747SOL     OW 3032   0.044   4.286   1.596  0.0335  0.2956 -0.7801
  747SOL    HW2 3033   0.052   4.285   1.692 -1.2438 -1.7869 -0.6748
  747SOL    HW3 3034  -0.038   4.332   1.580 -0.0252  0.1629 -0.8554
  747SOL    MW4 3035   0.035   4.292   1.607 -0.1428  0.0038 -0.7762
  748SOL     OW 3036   0.293   4.346   1.451  0.0135 -0.4255  0.0674
  748SOL    HW2 3037   0.216   4.309   1.494 -0.5541  0.7706  0.1136
  748SOL    HW3 3038   0.299   4.435   1.485  0.4072  0.0526 -1.2232
  748SOL    MW4 3039   0.283   4.353   1.461 -0.0095 -0.2041 -0.0967
  749SOL     OW 3040   0.700   4.613   1.601  0.1335  0.1029 -0.3830
  749SOL    HW2 3041   0.781   4.655   1.574  0.7677 -0.5038  0.5476
  749SOL    HW3 3042   0.631   4.666   1.562  1.0087 -0.3423 -2.5598
  749SOL    MW4 3043   0.701   4.625   1.593  0.3326 -0.0358 -0.5474
  750SOL     OW 3044   0.472   0.079   1.485 -0.1049 -0.2675  0.3060
  750SOL    HW2 3045   0.468   0.167   1.523 -1.0842 -0.5109  0.7522
  750SOL    HW3 3046   0.476   0.095   1.390 -0.7254  0.2407  0.3640
  750SOL    MW4 3047   0.472   0.093   1.477 -0.3160 -0.2325  0.3726
  751SOL     OW 3048   0.486   0.356   1.581 -0.3107  0.2314  0.2152
  751SOL    HW2 3049   0.550   0.418   1.546  0.5480 -1.1421 -0.6660
  751SOL    HW3 3050   0.403   0.381   1.540  0.2949 -0.0617 -1.2162
  751SOL    MW4 3051   0.484   0.368   1.571 -0.1175  0.0115 -0.0900
  752SOL     OW 3052   0.689   0.557   1.499  0.6057  0.0382 -0.4449
  752SOL    HW2 3053   0.680   0.644   1.537  0.7211 -0.0951 -0.1094
  752SOL    HW3 3054   0.661   0.567   1.408 -0.8332  0.0865 -0.0057
  752SOL    MW4 3055   0.684   0.570   1.492  0.4311  0.0269 -0.3427
  753SOL     OW 3056   0.676   0.813   1.599 -0.3605 -0.2669 -0.1361
  753SOL    HW2 3057   0.699   0.807   1.691 -0.9064 -0.1109  0.0142
  753SOL    HW3 3058   0.753   0.850   1.557  0.0121 -0.6630  0.2063
  753SOL    MW4 3059   0.689   0.817   1.605 -0.3834 -0.2986 -0.0710
  754SOL     OW 3060   0.455   0.928   1.487 -0.1602 -0.1263 -0.0472
  754SOL    HW2 3061   0.430   1.007   1.535  1.8332  3.0163 -3.9438
  754SOL    HW3 3062   0.539   0.902   1.525 -0.0677  0.5364  0.2097
  754SOL    MW4 3063   0.463   0.935   1.499  0.1150  0.3757 -0.5274
  755SOL     OW 3064   0.432   1.165   1.644 -0.4679 -0.3445  0.2633
  755SOL    HW2 3065   0.509   1.209   1.607 -0.3740  0.2388  1.1427
  755SOL    HW3 3066   0.359   1.223   1.622 -0.5747 -0.5842 -0.0217
  755SOL    MW4 3067   0.433   1.179   1.636 -0.4696 -0.2991  0.3418
  756SOL     OW 3068   0.657   1.234   1.506 -0.3077  0.3896 -0.1770
  756SOL    HW2 3069   0.675   1.320   1.544  0.3746 -0.0250  0.4549
  756SOL    HW3 3070   0.651   1.250   1.412  0.3086  1.0541 -0.1101
  756SOL    MW4 3071   0.659   1.248   1.499 -0.1363  0.4226 -0.0848
  757SOL     OW 3072   0.671   1.491   1.600  1.0130  0.2205 -0.0827
  757SOL    HW2 3073   0.748   1.546   1.583  0.8451 -0.1026 -1.9514
  757SOL    HW3 3074   0.596   1.546   1.578  0.8026 -0.2856 -0.6619
  757SOL    MW4 3075   0.671   1.506   1.595  0.9632  0.1110 -0.4057
  758SOL     OW 3076   0.421   1.617   1.515  0.1128 -0.1155  0.1748
  758SOL    HW2 3077   0.406   1.708   1.538 -0.0855 -0.1782  0.2929
  758SOL    HW3 3078   0.353   1.568   1.562 -0.7085 -0.1890 -1.0763
  758SOL    MW4 3079   0.410   1.622   1.525 -0.0217 -0.1334  0.0253
  759SOL     OW 3080   0.393   1.896   1.631 -0.7240  0.4646  0.1365
  759SOL    HW2 3081   0.422   1.913   1.720 -0.6710  0.6962  0.0758
  759SOL    HW3 3082   0.318   1.954   1.618 -1.0396  0.0776  0.1949
  759SOL    MW4 3083   0.387   1.906   1.641 -0.7586  0.4442  0.1361
  760SOL     OW 3084   0.619   2.064   1.523  0.0655  0.2000 -0.9752
  760SOL    HW2 3085   0.690   2.018   1.569 -1.1166  0.2077  0.9375
  760SOL    HW3 3086   0.541   2.010   1.541 -0.9542  1.8181 -0.4616
  760SOL    MW4 3087   0.618   2.051   1.531 -0.2250  0.4141 -0.6551
  761SOL     OW 3088   0.633   2.340   1.624  0.1973 -0.4437  0.4387
  761SOL    HW2 3089   0.558   2.390   1.591 -0.2132 -0.5708  1.1773
  761SOL    HW3 3090   0.629   2.257   1.576  0.9845  0.2782 -0.9257
  761SOL    MW4 3091   0.623   2.336   1.613  0.2471 -0.3653  0.3561
  762SOL     OW 3092   0.385   2.441   1.511  0.0256  0.1266  0.1683
  762SOL    HW2 3093   0.394   2.529   1.548  3.1611  0.0010 -0.1059
  762SOL    HW3 3094   0.323   2.397   1.569  0.4679  1.7100  1.8984
  762SOL    MW4 3095   0.378   2.447   1.524  0.4976  0.3190  0.3604
  763SOL     OW 3096   0.444   2.705   1.594  0.5153 -0.0399  0.2467
  763SOL    HW2 3097   0.446   2.688   1.688  2.6347 -2.1782 -0.1247
  763SOL    HW3 3098   0.534   2.728   1.572  0.2188 -0.3772 -1.3796
  763SOL    MW4 3099   0.456   2.706   1.604  0.7558 -0.3664 -0.0169
  764SOL     OW 3100   0.718   2.818   1.542  0.7996 -0.0919  0.1661
  764SOL    HW2 3101   0.710   2.909   1.572  1.9034 -0.2985  1.1301
  764SOL    HW3 3102   0.689   2.821   1.451  4.1179  1.9371 -0.9338
  764SOL    MW4 3103   0.713   2.831   1.534  1.3831  0.1485  0.1482
  765SOL     OW 3104   0.704   3.080   1.631  0.2405 -0.5897  0.0830
  765SOL    HW2 3105   0.774   3.116   1.577 -0.2108  1.1690  0.6410
  765SOL    HW3 3106   0.626   3.131   1.606 -0.0141  0.1328  2.2252
  765SOL    MW4 3107   0.703   3.092   1.621  0.1473 -0.2623  0.4392
  766SOL     OW 3108   0.472   3.203   1.548 -0.1174 -0.5267  0.0471
  766SOL    HW2 3109   0.398   3.148   1.574  0.0674 -0.8270 -0.0637
  766SOL    HW3 3110   0.469   3.203   1.452 -0.8315  0.6261  0.0620
  766SOL    MW4 3111   0.462   3.196   1.539 -0.1872 -0.4146  0.0345
  767SOL     OW 3112   0.500   3.472   1.636 -0.4912  0.4664 -0.1595
  767SOL    HW2 3113   0.491   3.387   1.592  0.0963 -0.9730  2.3983
  767SOL    HW3 3114   0.416   3.515   1.620 -1.2554 -1.0915 -0.4968
  767SOL    MW4 3115   0.487   3.466   1.628 -0.5145  0.0708  0.1334
  768SOL     OW 3116   0.698   3.604   1.478  0.3546 -0.1787  0.3533
  768SOL    HW2 3117   0.774   3.562   1.519 -0.3369 -0.6570  1.1753
  768SOL    HW3 3118   0.623   3.555   1.513 -0.2729 -0.3742 -1.2246
  768SOL    MW4 3119   0.698   3.592   1.488  0.1805 -0.2675  0.2537
  769SOL     OW 3120   0.714   3.872   1.612  0.0111  0.0160 -0.6403
  769SOL    HW2 3121   0.781   3.910   1.555  0.2351  1.6539  0.6689
  769SOL    HW3 3122   0.721   3.778   1.598 -0.4496  0.4246 -3.8572
  769SOL    MW4 3123   0.724   3.865   1.603 -0.0202  0.2861 -0.8920
  770SOL     OW 3124   0.221   3.843   1.609 -0.5125  0.9151  0.0850
  770SOL    HW2 3125   0.219   3.834   1.704  0.9324 -0.6931 -0.0019
  770SOL    HW3 3126   0.300   3.896   1.592  1.1525 -1.6247 -0.3561
  770SOL    MW4 3127   0.231   3.849   1.619 -0.1022  0.3679  0.0154
  771SOL     OW 3128   0.487   4.231   1.598 -0.8216 -0.1360 -0.3970
  771SOL    HW2 3129   0.489   4.137   1.577  0.5797 -0.1596 -0.2462
  771SOL    HW3 3130   0.422   4.268   1.538 -0.5836 -1.0370 -1.2281
  771SOL    MW4 3131   0.479   4.223   1.587 -0.6053 -0.2580 -0.4869
  772SOL     OW 3132   0.709   4.368   1.490  0.4295 -0.0867  0.1839
  772SOL    HW2 3133   0.639   4.313   1.527  0.6962 -0.1146  0.6404
  772SOL    HW3 3134   0.691   4.456   1.523  1.2333 -0.2950  1.1730
  772SOL    MW4 3135   0.697   4.372   1.499  0.5707 -0.1183  0.3746
  773SOL     OW 3136   1.127   4.602   1.593 -0.1242  0.3849 -0.0333
  773SOL    HW2 3137   1.126   4.622   1.687 -0.8314  0.2374 -0.0091
  773SOL    HW3 3138   1.205   4.647   1.561  0.3584  0.0838  0.6985
  773SOL    MW4 3139   1.137   4.611   1.601 -0.1539  0.3252  0.0664
  774SOL     OW 3140   0.919   0.078   1.500  0.0732  0.0187 -0.4423
  774SOL    HW2 3141   0.923   0.168   1.533  0.5490 -0.3190  0.4365
  774SOL    HW3 3142   0.999   0.036   1.532 -0.3464 -0.8423 -0.4872
  774SOL    MW4 3143   0.930   0.084   1.508  0.0805 -0.1395 -0.3324
  775SOL     OW 3144   0.903   0.381   1.560 -0.2611  0.0730 -0.0142
  775SOL    HW2 3145   0.913   0.380   1.656  0.3240  0.0931 -0.0727
  775SOL    HW3 3146   0.838   0.449   1.543 -0.8145 -0.3422  0.4116
  775SOL    MW4 3147   0.896   0.390   1.571 -0.2570  0.0208  0.0342
  776SOL     OW 3148   1.140   0.508   1.451  0.0582 -0.3801  0.1611
  776SOL    HW2 3149   1.150   0.591   1.497 -0.8093  0.7109 -1.5691
  776SOL    HW3 3150   1.057   0.472   1.482  1.0081 -1.1939  1.8020
  776SOL    MW4 3151   1.131   0.514   1.461  0.0690 -0.3435  0.1494
  777SOL     OW 3152   1.160   0.742   1.585  0.0708 -0.6098  0.1086
  777SOL    HW2 3153   1.155   0.728   1.680  1.0221 -0.9759  0.1065
  777SOL    HW3 3154   1.218   0.818   1.575 -0.2333 -0.4120 -0.1722
  777SOL    MW4 3155   1.167   0.750   1.596  0.1562 -0.6320  0.0713
  778SOL     OW 3156   0.932   0.898   1.474 -0.2869 -0.7443  0.1234
  778SOL    HW2 3157   0.990   0.830   1.509  0.3776 -0.2439 -0.0003
  778SOL    HW3 3158   0.924   0.878   1.381 -1.5871 -1.7355  0.4366
  778SOL    MW4 3159   0.938   0.886   1.467 -0.3707 -0.8090  0.1485
  779SOL     OW 3160   0.902   1.139   1.605 -0.3054  0.2728  0.1935
  779SOL    HW2 3161   0.932   1.061   1.559  1.1202  1.1310 -0.3589
  779SOL    HW3 3162   0.812   1.151   1.574 -0.1786 -0.5374 -0.5317
  779SOL    MW4 3163   0.894   1.130   1.594 -0.1006  0.2791  0.0250
  780SOL     OW 3164   1.312   1.174   1.570  0.4513 -0.1460  0.0033
  780SOL    HW2 3165   1.330   1.191   1.663  0.1532 -1.3657  0.3012
  780SOL    HW3 3166   1.324   1.080   1.561 -0.2811 -0.1459 -1.0303
  780SOL    MW4 3167   1.316   1.164   1.581  0.3152 -0.3068 -0.0938
  781SOL     OW 3168   1.154   1.530   1.648  0.0026 -0.1259  0.2768
  781SOL    HW2 3169   1.138   1.457   1.588 -0.9272  1.2663 -1.2252
  781SOL    HW3 3170   1.237   1.568   1.618 -0.9415  1.1581 -0.7617
  781SOL    MW4 3171   1.163   1.526   1.636 -0.2446  0.2272 -0.0584
  782SOL     OW 3172   0.893   1.656   1.548 -0.0353 -0.5906  0.2379
  782SOL    HW2 3173   0.980   1.624   1.571 -0.3044 -1.6833 -0.2372
  782SOL    HW3 3174   0.893   1.660   1.452  0.1272  1.2216  0.3084
  782SOL    MW4 3175   0.904   1.652   1.538 -0.0493 -0.4957  0.1845
  783SOL     OW 3176   0.852   1.925   1.604 -0.2104 -0.1788  0.3897
  783SOL    HW2 3177   0.928   1.972   1.570  0.9298 -0.7812  2.0513
  783SOL    HW3 3178   0.869   1.833   1.581  0.2202 -0.4904  1.9345
  783SOL    MW4 3179   0.865   1.919   1.596 -0.0032 -0.2995  0.8128
  784SOL     OW 3180   1.093   2.034   1.541 -0.1536  0.2022  0.0623
  784SOL    HW2 3181   1.170   1.989   1.576 -0.9728 -0.4422  1.0653
  784SOL    HW3 3182   1.101   2.124   1.573  2.0465  1.1070 -2.8255
  784SOL    MW4 3183   1.105   2.040   1.550  0.0285  0.2365 -0.1864
  785SOL     OW 3184   1.142   2.282   1.650 -0.3991  0.5789  0.0310
  785SOL    HW2 3185   1.206   2.341   1.610 -0.6282 -0.1995 -1.5217
  785SOL    HW3 3186   1.059   2.329   1.645 -0.0100  1.5317  1.9226
  785SOL    MW4 3187   1.140   2.296   1.644 -0.3780  0.6020  0.0756
  786SOL     OW 3188   0.899   2.401   1.582  0.0307  0.5084  0.2938
  786SOL    HW2 3189   0.890   2.495   1.590 -3.0081  0.3052 -0.2629
  786SOL    HW3 3190   0.810   2.367   1.589  1.0076 -2.2841 -0.0063
  786SOL    MW4 3191   0.886   2.409   1.584 -0.2414  0.1130  0.1807
  787SOL     OW 3192   0.935   2.682   1.604 -0.2199  0.1039  0.1581
  787SOL    HW2 3193   0.916   2.672   1.697  0.3830 -0.6359  0.1987
  787SOL    HW3 3194   0.863   2.737   1.571 -1.0236 -0.5292  0.8370
  787SOL    MW4 3195   0.923   2.688   1.612 -0.2464 -0.0772  0.2528
  788SOL     OW 3196   1.124   2.875   1.482 -0.0198  0.3918 -0.1595
  788SOL    HW2 3197   1.121   2.961   1.525  0.5995 -0.0595  0.7855
  788SOL    HW3 3198   1.061   2.822   1.530  0.6847 -0.1163  0.2109
  788SOL    MW4 3199   1.115   2.880   1.494  0.1549  0.2651  0.0141
  789SOL     OW 3200   1.125   3.120   1.632 -0.5713  0.2411  0.2275
  789SOL    HW2 3201   1.131   3.140   1.725  0.5831 -1.4153  0.5375
  789SOL    HW3 3202   1.205   3.156   1.594  0.9563 -2.6155  0.6005
  789SOL    MW4 3203   1.136   3.127   1.639 -0.2174 -0.3543  0.3177
  790SOL     OW 3204   0.925   3.219   1.473  0.8338  0.0549  0.2569
  790SOL    HW2 3205   0.999   3.199   1.531  1.2657  0.2609 -0.2189
  790SOL    HW3 3206   0.954   3.193   1.386  0.6936  0.9858 -0.0767
  790SOL    MW4 3207   0.938   3.213   1.469  0.8723  0.2050  0.1501
  791SOL     OW 3208   0.916   3.485   1.599 -0.0656 -0.2944  0.0980
  791SOL    HW2 3209   0.989   3.528   1.555  0.2075 -0.2405  0.6066
  791SOL    HW3 3210   0.905   3.402   1.552 -1.2200  0.7234 -1.5330
  791SOL    MW4 3211   0.924   3.480   1.587 -0.1819 -0.1533 -0.0501
  792SOL     OW 3212   1.137   3.617   1.453  0.1429  0.0292  0.6529
  792SOL    HW2 3213   1.198   3.554   1.491 -0.6011 -0.0528  1.7442
  792SOL    HW3 3214   1.132   3.593   1.361  1.0978 -0.4966  0.7356
  792SOL    MW4 3215   1.144   3.606   1.446  0.1707 -0.0508  0.8078
  793SOL     OW 3216   1.114   3.822   1.625 -0.0751  0.1945 -0.5180
  793SOL    HW2 3217   1.179   3.888   1.601 -1.4038  1.1554 -1.5095
  793SOL    HW3 3218   1.137   3.745   1.572  2.1195 -0.5489  1.4112
  793SOL    MW4 3219   1.125   3.820   1.615  0.0393  0.2229 -0.3941
  794SOL     OW 3220   0.926   3.956   1.452  0.3672 -0.7154  0.4087
  794SOL    HW2 3221   0.925   4.039   1.501  1.9823 -0.3398 -0.1824
  794SOL    HW3 3222   0.968   3.894   1.510 -0.3573 -0.9993  0.6366
  794SOL    MW4 3223   0.931   3.959   1.466  0.4846 -0.7036  0.3607
  795SOL     OW 3224   0.919   4.205   1.578 -0.7138 -0.2529 -0.0907
  795SOL    HW2 3225   0.930   4.223   1.671 -0.7674 -0.8649  0.0377
  795SOL    HW3 3226   0.854   4.268   1.548  2.1759  2.6088 -0.5776
  795SOL    MW4 3227   0.912   4.215   1.586 -0.3396  0.0439 -0.1380
  796SOL     OW 3228   1.092   4.376   1.460  0.0795  0.0485  0.3013
  796SOL    HW2 3229   1.016   4.320   1.479 -0.9584  1.4515  0.3083
  796SOL    HW3 3230   1.085   4.448   1.521  1.1155  0.4942 -0.0912
  796SOL    MW4 3231   1.081   4.378   1.470  0.0792  0.2923  0.2505
  797SOL     OW 3232   1.537   4.664   1.578  0.1574  0.0562 -0.0046
  797SOL    HW2 3233   1.543   4.682   1.672  3.4695  0.4489 -0.2272
  797SOL    HW3 3234   1.465   4.720   1.548 -0.1685  0.8130  2.0894
  797SOL    MW4 3235   1.528   4.674   1.586  0.5513  0.2078  0.2424
  798SOL     OW 3236   1.306   0.109   1.476 -0.6396 -0.2403  0.3585
  798SOL    HW2 3237   1.315   0.194   1.519 -0.3533 -0.0655 -0.0438
  798SOL    HW3 3238   1.341   0.123   1.388 -0.8816 -0.6927  0.1894
  798SOL    MW4 3239   1.311   0.122   1.470 -0.6338 -0.2769  0.2831
  799SOL     OW 3240   1.351   0.376   1.581  0.1516 -0.5505 -0.4053
  799SOL    HW2 3241   1.285   0.424   1.532 -0.1987 -1.5115 -0.8891
  799SOL    HW3 3242   1.431   0.427   1.569 -0.2850  0.0841 -0.6383
  799SOL    MW4 3243   1.353   0.389   1.573  0.0478 -0.5935 -0.4998
  800SOL     OW 3244   1.596   0.506   1.510 -0.1379  0.1855  0.0481
  800SOL    HW2 3245   1.663   0.450   1.548 -0.0667 -0.3101 -0.7983
  800SOL    HW3 3246   1.623   0.517   1.418 -1.6645 -0.7212 -0.5342
  800SOL    MW4 3247   1.608   0.500   1.503 -0.3300  0.0004 -0.1404
  801SOL     OW 3248   1.552   0.754   1.613  0.3353 -0.4051  0.1348
  801SOL    HW2 3249   1.568   0.743   1.707 -0.1217 -0.6437  0.1864
  801SOL    HW3 3250   1.576   0.670   1.575  0.0153 -0.4817  0.1040
  801SOL    MW4 3251   1.557   0.742   1.621  0.2327 -0.4467  0.1374
  802SOL     OW 3252   1.350   0.916   1.520  0.2960 -0.1084 -0.1162
  802SOL    HW2 3253   1.426   0.863   1.544  1.1312  1.1264  0.0036
  802SOL    HW3 3254   1.361   0.933   1.426  0.2472  0.1777 -0.0715
  802SOL    MW4 3255   1.361   0.911   1.511  0.3998  0.0923 -0.0945
  803SOL     OW 3256   1.569   1.227   1.517  0.8099  0.1368  0.0794
  803SOL    HW2 3257   1.477   1.209   1.536  1.2036 -1.2327  0.7470
  803SOL    HW3 3258   1.572   1.241   1.422 -0.0566 -0.0151  0.0292
  803SOL    MW4 3259   1.557   1.227   1.507  0.7476 -0.0640  0.1608
  804SOL     OW 3260   1.619   1.483   1.600  0.0872 -0.4950 -0.1619
  804SOL    HW2 3261   1.652   1.497   1.688  0.0689  1.3153 -0.4161
  804SOL    HW3 3262   1.609   1.388   1.592  0.4051 -0.6884  1.6507
  804SOL    MW4 3263   1.622   1.473   1.610  0.1267 -0.2817  0.0436
  805SOL     OW 3264   1.380   1.640   1.539 -0.0871 -0.2873  0.2500
  805SOL    HW2 3265   1.457   1.589   1.565  1.5948  2.0435  0.0400
  805SOL    HW3 3266   1.373   1.626   1.445 -0.0596 -0.7253  0.3145
  805SOL    MW4 3267   1.390   1.632   1.530  0.1382 -0.0377  0.2308
  806SOL     OW 3268   0.162   0.736   0.541 -0.3654 -0.2732 -0.8086
  806SOL    HW2 3269   0.223   0.783   0.484  0.4264 -1.4775 -0.9761
  806SOL    HW3 3270   0.145   0.654   0.496 -1.3768 -0.3539 -0.3005
  806SOL    MW4 3271   0.168   0.732   0.528 -0.3943 -0.4427 -0.7637
  807SOL     OW 3272   1.314   1.910   1.630  0.2393  0.1719 -0.3810
  807SOL    HW2 3273   1.339   1.922   1.721 -2.1682 -0.4445  0.3969
  807SOL    HW3 3274   1.356   1.828   1.604 -0.0043 -0.2569  0.5393
  807SOL    MW4 3275   1.323   1.901   1.638 -0.1105  0.0340 -0.1569
  808SOL     OW 3276   1.551   2.049   1.558  0.0985 -0.3318 -0.1739
  808SOL    HW2 3277   1.470   2.000   1.571 -0.2069 -0.1149 -1.2065
  808SOL    HW3 3278   1.561   2.054   1.463 -0.8554  3.2372 -0.1369
  808SOL    MW4 3279   1.542   2.043   1.547 -0.0676  0.1676 -0.3053
  809SOL     OW 3280   1.571   2.309   1.670 -0.1704  0.4236 -0.1772
  809SOL    HW2 3281   1.652   2.342   1.632 -0.4939  0.6051 -0.7145
  809SOL    HW3 3282   1.548   2.233   1.617 -1.0501  1.1582 -0.8648
  809SOL    MW4 3283   1.578   2.304   1.658 -0.3293  0.5443 -0.3388
  810SOL     OW 3284   1.345   2.429   1.542 -0.0088 -0.7195  0.5995
  810SOL    HW2 3285   1.334   2.522   1.561  1.5673 -0.2788 -0.5926
  810SOL    HW3 3286   1.430   2.406   1.581 -1.2178 -2.1291  2.5328
  810SOL    MW4 3287   1.355   2.438   1.550  0.0397 -0.8473  0.6974
  811SOL     OW 3288   1.601   2.830   1.544 -0.3125  0.0190 -0.1463
  811SOL    HW2 3289   1.606   2.842   1.449  1.5694 -0.3015 -0.0954
  811SOL    HW3 3290   1.514   2.793   1.558 -0.2008 -0.9511 -1.8683
  811SOL    MW4 3291   1.590   2.826   1.533 -0.0494 -0.1514 -0.3667
  812SOL     OW 3292   1.783   2.650   1.657  0.0706 -0.1450  0.5328
  812SOL    HW2 3293   1.712   2.703   1.622 -0.9418 -2.2806 -0.7475
  812SOL    HW3 3294   1.863   2.696   1.631 -0.7885  1.5583  0.8158
  812SOL    MW4 3295   1.784   2.663   1.649 -0.1764 -0.2019  0.4011
  813SOL     OW 3296   1.542   3.097   1.646  0.0548 -0.4251 -0.1733
  813SOL    HW2 3297   1.619   3.150   1.623 -0.3039  0.0516 -0.2795
  813SOL    HW3 3298   1.561   3.011   1.609  0.0935 -0.0350 -1.0676
  813SOL    MW4 3299   1.555   3.093   1.638  0.0125 -0.3107 -0.3053
  814SOL     OW 3300   1.341   3.236   1.509  0.0002  0.1142  0.3643
  814SOL    HW2 3301   1.348   3.330   1.526  1.4016 -0.2436  1.8649
  814SOL    HW3 3302   1.418   3.198   1.550 -0.8164 -1.7641  0.2121
  814SOL    MW4 3303   1.352   3.244   1.517  0.0774 -0.1810  0.5420
  815SOL     OW 3304   1.362   3.488   1.621  0.2408 -0.0548 -0.5791
  815SOL    HW2 3305   1.355   3.474   1.715 -0.9078  0.2912 -0.6063
  815SOL    HW3 3306   1.450   3.524   1.609  0.8271 -1.1919  0.2140
  815SOL    MW4 3307   1.373   3.491   1.632  0.1665 -0.1593 -0.4781
  816SOL     OW 3308   1.611   3.605   1.569  0.0391 -0.0503  0.0714
  816SOL    HW2 3309   1.582   3.693   1.591  0.8100  0.0522  0.7165
  816SOL    HW3 3310   1.606   3.602   1.473 -2.6092 -0.2511  0.2017
  816SOL    MW4 3311   1.607   3.616   1.559 -0.2086 -0.0634  0.1737
  817SOL     OW 3312   1.571   3.879   1.655  0.3114  0.7516 -0.0059
  817SOL    HW2 3313   1.576   3.870   1.750  1.0074  0.1382 -0.0989
  817SOL    HW3 3314   1.481   3.908   1.639  0.2374  1.0211  0.8490
  817SOL    MW4 3315   1.559   3.881   1.665  0.3935  0.7067  0.0945
  818SOL     OW 3316   1.322   3.977   1.543 -0.0638 -0.5568 -0.0054
  818SOL    HW2 3317   1.296   4.064   1.572 -0.9185 -0.6433 -0.5031
  818SOL    HW3 3318   1.314   3.979   1.448  0.5208 -0.9895 -0.0749
  818SOL    MW4 3319   1.318   3.989   1.534 -0.0994 -0.6254 -0.0802
  819SOL     OW 3320   1.271   4.233   1.613  0.0203 -0.0580 -0.1274
  819SOL    HW2 3321   1.354   4.270   1.584 -0.4412  2.1386  1.2252
  819SOL    HW3 3322   1.205   4.276   1.558 -0.3612 -0.5638 -0.0738
  819SOL    MW4 3323   1.273   4.244   1.602 -0.0908  0.1655  0.0581
  820SOL     OW 3324   1.509   4.368   1.563 -0.7022 -0.8761 -0.0972
  820SOL    HW2 3325   1.595   4.332   1.583 -0.7647 -1.1994 -0.3956
  820SOL    HW3 3326   1.519   4.462   1.575 -0.1693 -0.8592 -0.6019
  820SOL    MW4 3327   1.522   4.375   1.567 -0.6400 -0.9165 -0.2033
  821SOL     OW 3328   2.044   4.662   1.635  0.6272  0.1090 -0.3728
  821SOL    HW2 3329   2.052   4.664   1.731  0.5653 -1.5468 -0.3208
  821SOL    HW3 3330   1.957   4.698   1.618  0.5272  0.1526  0.2067
  821SOL    MW4 3331   2.033   4.667   1.646  0.6056 -0.1040 -0.2894
  822SOL     OW 3332   1.800   0.103   1.495  0.2137 -0.2185  0.0165
  822SOL    HW2 3333   1.731   0.039   1.512 -0.1422 -0.1145 -1.0352
  822SOL    HW3 3334   1.810   0.104   1.400 -0.3759  1.9044 -0.0515
  822SOL    MW4 3335   1.793   0.095   1.485  0.0889  0.0753 -0.1311
  823SOL     OW 3336   1.811   0.364   1.618  0.0375 -0.4930 -0.1021
  823SOL    HW2 3337   1.875   0.420   1.573  3.2024 -3.2308  0.8074
  823SOL    HW3 3338   1.820   0.279   1.575 -2.0862 -1.2839  0.9674
  823SOL    MW4 3339   1.821   0.361   1.606  0.1749 -0.9585  0.1588
  824SOL     OW 3340   1.991   0.529   1.492  0.1825  0.4307  0.6537
  824SOL    HW2 3341   2.067   0.472   1.505  1.7190  2.1945 -0.4548
  824SOL    HW3 3342   2.004   0.601   1.554  0.4197  1.7329 -0.8874
  824SOL    MW4 3343   2.002   0.531   1.502  0.4165  0.8352  0.3041
  825SOL     OW 3344   2.039   0.737   1.669  0.0447 -0.0510  0.2858
  825SOL    HW2 3345   2.108   0.775   1.614 -0.3074 -0.9166 -0.7896
  825SOL    HW3 3346   1.959   0.779   1.638 -0.0248  0.2899  0.9204
  825SOL    MW4 3347   2.037   0.748   1.657 -0.0110 -0.1202  0.2276
  826SOL     OW 3348   1.793   0.859   1.542 -0.2765 -0.5774  0.3886
  826SOL    HW2 3349   1.813   0.941   1.587 -0.6226  1.2835 -2.6713
  826SOL    HW3 3350   1.711   0.829   1.581 -0.7348  1.1356  0.7800
  826SOL    MW4 3351   1.785   0.866   1.553 -0.3825 -0.1059  0.0366
  827SOL     OW 3352   1.801   1.127   1.638 -0.5393 -0.0760 -0.1220
  827SOL    HW2 3353   1.877   1.177   1.608 -1.2164 -0.6609 -2.9517
  827SOL    HW3 3354   1.727   1.170   1.596 -1.6685 -0.3085  1.5892
  827SOL    MW4 3355   1.802   1.139   1.629 -0.7775 -0.1839 -0.2698
  828SOL     OW 3356   2.044   1.229   1.570  0.1349 -0.2714 -0.7796
  828SOL    HW2 3357   2.030   1.319   1.600  1.8539  0.1665 -1.2315
  828SOL    HW3 3358   2.039   1.234   1.475  1.2737 -0.4476 -0.8595
  828SOL    MW4 3359   2.042   1.241   1.562  0.5119 -0.2369 -0.8497
  829SOL     OW 3360   1.989   1.499   1.644 -0.6710 -0.0426  0.4098
  829SOL    HW2 3361   2.069   1.543   1.613  0.5079 -1.8451  0.7959
  829SOL    HW3 3362   1.918   1.556   1.615  0.7587  1.6745  0.1674
  829SOL    MW4 3363   1.990   1.512   1.636 -0.3269 -0.0539  0.4288
  830SOL     OW 3364   1.812   1.665   1.522 -0.4705  0.6615 -0.7824
  830SOL    HW2 3365   1.748   1.596   1.541  0.4578 -0.3227 -1.1580
  830SOL    HW3 3366   1.826   1.660   1.427  0.3019  0.7365 -0.6797
  830SOL    MW4 3367   1.806   1.655   1.512 -0.2460  0.5416 -0.8184
  831SOL     OW 3368   1.758   1.919   1.659 -0.4142 -0.4624 -0.3048
  831SOL    HW2 3369   1.754   1.837   1.610  0.4239 -0.7163  0.0547
  831SOL    HW3 3370   1.681   1.968   1.629  0.8720  0.0080 -2.9466
  831SOL    MW4 3371   1.747   1.914   1.649 -0.1340 -0.4338 -0.6059
  832SOL     OW 3372   2.244   1.911   1.621 -0.2004 -0.0655 -0.1255
  832SOL    HW2 3373   2.228   1.903   1.715 -0.3240 -0.8360 -0.2119
  832SOL    HW3 3374   2.166   1.954   1.586 -0.2913 -0.0681  0.0766
  832SOL    MW4 3375   2.232   1.916   1.629 -0.2289 -0.1675 -0.1104
  833SOL     OW 3376   2.001   2.017   1.520 -0.1974  0.1764  0.0858
  833SOL    HW2 3377   2.004   2.099   1.570  1.1674  0.2098 -0.0424
  833SOL    HW3 3378   1.916   1.979   1.542 -0.1170  0.7727  1.5235
  833SOL    MW4 3379   1.990   2.023   1.530 -0.0066  0.2594  0.2586
  834SOL     OW 3380   2.027   2.263   1.611  0.5831 -0.1740  0.4460
  834SOL    HW2 3381   2.039   2.281   1.705 -0.3778 -1.3473  0.8041
  834SOL    HW3 3382   1.943   2.303   1.590  0.0746 -1.2230  0.4474
  834SOL    MW4 3383   2.018   2.271   1.621  0.3893 -0.4673  0.4934
  835SOL     OW 3384   1.797   2.405   1.543 -0.1251  0.5296  0.3801
  835SOL    HW2 3385   1.795   2.496   1.574  1.4809  0.8901 -0.5461
  835SOL    HW3 3386   1.813   2.412   1.449  2.1672 -0.7498  0.6401
  835SOL    MW4 3387   1.799   2.418   1.535  0.3891  0.4084  0.2923
  836SOL     OW 3388   2.027   2.784   1.536  0.0937  0.0737  0.3058
  836SOL    HW2 3389   2.013   2.876   1.558 -0.4898  0.4030 -1.4004
  836SOL    HW3 3390   2.028   2.781   1.440  0.8313 -1.5872  0.3354
  836SOL    MW4 3391   2.025   2.796   1.526  0.1142 -0.1020  0.0846
  837SOL     OW 3392   2.011   3.086   1.584  0.7062 -0.0066  0.8350
  837SOL    HW2 3393   1.999   3.092   1.679 -0.1931  0.2884  0.7094
  837SOL    HW3 3394   2.100   3.117   1.569  0.3883  1.2735  1.4643
  837SOL    MW4 3395   2.021   3.091   1.595  0.5457  0.2012  0.9015
  838SOL     OW 3396   1.776   3.217   1.565 -0.2386 -0.0242 -0.1129
  838SOL    HW2 3397   1.788   3.306   1.597 -0.3102 -0.0171 -0.1055
  838SOL    HW3 3398   1.859   3.173   1.585 -0.0115  0.1835 -0.5802
  838SOL    MW4 3399   1.789   3.223   1.572 -0.2180  0.0043 -0.1737
  839SOL     OW 3400   1.842   3.465   1.664  0.0363 -0.0946  0.3582
  839SOL    HW2 3401   1.845   3.479   1.759 -1.3646 -3.1129  0.9087
  839SOL    HW3 3402   1.771   3.521   1.634  0.2489  0.6138  1.1624
  839SOL    MW4 3403   1.833   3.474   1.672 -0.1205 -0.3994  0.5369
  840SOL     OW 3404   2.087   3.566   1.565 -0.0826  0.3296 -0.0032
  840SOL    HW2 3405   2.165   3.515   1.585  0.3293  1.4823  1.3266
  840SOL    HW3 3406   2.016   3.520   1.611  0.3405  1.1456  1.4642
  840SOL    MW4 3407   2.088   3.553   1.573  0.0274  0.5896  0.3660
  841SOL     OW 3408   2.046   3.836   1.592  0.1551 -0.4299 -0.3561
  841SOL    HW2 3409   2.127   3.884   1.574 -0.4519  0.5350 -0.5608
  841SOL    HW3 3410   2.071   3.744   1.583  1.1337 -0.1338 -0.8401
  841SOL    MW4 3411   2.060   3.830   1.588  0.2043 -0.2635 -0.4470
  842SOL     OW 3412   1.826   3.985   1.574  0.0532  0.2652 -0.1969
  842SOL    HW2 3413   1.891   3.916   1.586  1.0976  1.3168  0.3546
  842SOL    HW3 3414   1.742   3.940   1.579  0.7322 -1.1191 -0.9486
  842SOL    MW4 3415   1.824   3.970   1.577  0.2807  0.2213 -0.2234
  843SOL     OW 3416   1.761   4.254   1.605 -0.1691 -0.3001  0.2252
  843SOL    HW2 3417   1.845   4.299   1.592 -0.4843  0.3184  0.2982
  843SOL    HW3 3418   1.780   4.162   1.585  0.0644  0.1445 -1.7525
  843SOL    MW4 3419   1.775   4.248   1.601 -0.1798 -0.1597 -0.0261
  844SOL     OW 3420   2.007   4.395   1.548  0.0106  0.1313  0.1652
  844SOL    HW2 3421   2.083   4.348   1.582  0.3708  0.9571  0.5151
  844SOL    HW3 3422   2.019   4.484   1.579 -0.7224  0.4292 -0.4135
  844SOL    MW4 3423   2.019   4.400   1.557 -0.0386  0.2794  0.1351
  845SOL     OW 3424   2.498   4.633   1.598  0.1114 -0.4699  0.7779
  845SOL    HW2 3425   2.491   4.630   1.693  0.1673 -0.3968  0.7839
  845SOL    HW3 3426   2.421   4.681   1.569  0.3661 -0.0313  0.8187
  845SOL    MW4 3427   2.487   4.639   1.606  0.1526 -0.4029  0.7842
  846SOL     OW 3428   2.276   0.112   1.518 -0.4047  0.7265  0.1039
  846SOL    HW2 3429   2.200   0.068   1.555 -0.5390 -0.3976 -1.4247
  846SOL    HW3 3430   2.249   0.135   1.429  1.0160  0.3057 -0.4595
  846SOL    MW4 3431   2.263   0.109   1.511 -0.2351  0.5226 -0.1721
  847SOL     OW 3432   2.204   0.373   1.607  0.2163 -0.0956 -0.7093
  847SOL    HW2 3433   2.204   0.373   1.702  1.1041 -0.3583 -0.6981
  847SOL    HW3 3434   2.236   0.285   1.583  1.2726  0.4150 -1.2280
  847SOL    MW4 3435   2.208   0.361   1.616  0.4730 -0.0629 -0.7762
  848SOL     OW 3436   2.431   0.553   1.534 -0.6027  0.0908 -0.0556
  848SOL    HW2 3437   2.504   0.502   1.566 -0.4223  0.6014  0.3618
  848SOL    HW3 3438   2.353   0.509   1.568 -0.7727 -2.8500 -3.8164
  848SOL    MW4 3439   2.430   0.541   1.542 -0.6013 -0.2298 -0.4967
  849SOL     OW 3440   2.489   0.801   1.655  0.3708  0.0945 -0.3106
  849SOL    HW2 3441   2.405   0.835   1.623 -0.4320 -0.4498  1.1394
  849SOL    HW3 3442   2.491   0.710   1.625 -0.0492 -0.2006  0.5345
  849SOL    MW4 3443   2.478   0.794   1.647  0.2093 -0.0162 -0.0079
  850SOL     OW 3444   2.237   0.881   1.537  0.3122  0.2611  0.0593
  850SOL    HW2 3445   2.233   0.975   1.551 -0.5917  0.2877 -0.3590
  850SOL    HW3 3446   2.256   0.871   1.444 -1.4730  0.0235 -0.2964
  850SOL    MW4 3447   2.239   0.892   1.527 -0.0427  0.2332 -0.0429
  851SOL     OW 3448   2.281   1.124   1.668  0.0373 -0.1275 -0.5061
  851SOL    HW2 3449   2.278   1.116   1.763 -0.5982 -0.7432 -0.5742
  851SOL    HW3 3450   2.195   1.160   1.644  0.3849  0.4972 -0.7948
  851SOL    MW4 3451   2.269   1.127   1.677 -0.0010 -0.1264 -0.5533
  852SOL     OW 3452   2.465   1.280   1.549  0.0091 -0.0075  0.0882
  852SOL    HW2 3453   2.399   1.233   1.601  0.6127  0.2723  1.1312
  852SOL    HW3 3454   2.546   1.232   1.565  0.5343  1.0950  0.7682
  852SOL    MW4 3455   2.467   1.267   1.558  0.1581  0.1748  0.3157
  853SOL     OW 3456   2.462   1.542   1.611  0.3020 -0.0614  0.0809
  853SOL    HW2 3457   2.547   1.572   1.577  1.1405 -0.6139  1.6211
  853SOL    HW3 3458   2.473   1.447   1.620 -0.4016 -0.1016  0.5299
  853SOL    MW4 3459   2.475   1.533   1.608  0.3197 -0.1397  0.3434
  854SOL     OW 3460   2.238   1.667   1.254 -0.3527 -0.1438 -0.0208
  854SOL    HW2 3461   2.189   1.589   1.230 -1.6661  0.4336  0.7501
  854SOL    HW3 3462   2.217   1.681   1.346  1.0453  0.2694  0.2505
  854SOL    MW4 3463   2.229   1.659   1.263 -0.3417 -0.0131  0.1166
  855SOL     OW 3464   2.200   1.631   1.537  0.2803  0.4501 -0.0605
  855SOL    HW2 3465   2.194   1.723   1.561 -0.8890 -0.2741  2.6192
  855SOL    HW3 3466   2.287   1.604   1.564  0.3064  0.5495 -0.0466
  855SOL    MW4 3467   2.211   1.639   1.544  0.1297  0.3676  0.2948
  856SOL     OW 3468   2.492   2.010   1.553 -0.1236 -0.6225 -0.0835
  856SOL    HW2 3469   2.409   1.983   1.592  0.0667 -0.7462  0.2349
  856SOL    HW3 3470   2.485   1.984   1.461  0.3878 -2.5344  0.3860
  856SOL    MW4 3471   2.480   2.003   1.546 -0.0310 -0.8910  0.0204
  857SOL     OW 3472   2.484   2.294   1.599 -0.4989 -0.4185 -0.4722
  857SOL    HW2 3473   2.479   2.300   1.694  2.4841  1.2805 -0.3831
  857SOL    HW3 3474   2.477   2.200   1.581 -0.4408 -0.8072  1.4522
  857SOL    MW4 3475   2.482   2.282   1.609 -0.0975 -0.2456 -0.2065
  858SOL     OW 3476   2.248   2.420   1.535  0.0648  0.0195 -0.0774
  858SOL    HW2 3477   2.334   2.380   1.548  0.0678 -1.1150 -3.1247
  858SOL    HW3 3478   2.186   2.355   1.570  0.3270 -0.1819  0.0107
  858SOL    MW4 3479   2.251   2.406   1.542  0.0997 -0.1566 -0.4679
  859SOL     OW 3480   2.254   2.676   1.641 -0.3690  0.0483 -0.0657
  859SOL    HW2 3481   2.255   2.585   1.610 -0.7140  0.1796 -0.4668
  859SOL    HW3 3482   2.176   2.714   1.601 -0.1737  0.5517  0.0297
  859SOL    MW4 3483   2.244   2.669   1.632 -0.3886  0.1321 -0.1061
  860SOL     OW 3484   2.491   2.808   1.524  0.0532 -0.0871  0.6864
  860SOL    HW2 3485   2.509   2.888   1.574 -0.5524  0.0863  0.6317
  860SOL    HW3 3486   2.413   2.771   1.566  0.1569 -0.4961  0.5222
  860SOL    MW4 3487   2.483   2.813   1.536 -0.0129 -0.1180  0.6576
  861SOL     OW 3488   2.477   3.053   1.662 -0.2571 -0.2004  0.7212
  861SOL    HW2 3489   2.540   3.121   1.637 -0.7640  0.3955  1.0476
  861SOL    HW3 3490   2.394   3.083   1.625 -0.9552  0.5270  2.8230
  861SOL    MW4 3491   2.474   3.066   1.654 -0.4160 -0.0257  1.0418
  862SOL     OW 3492   2.261   3.181   1.537 -0.5083  0.3388 -0.5147
  862SOL    HW2 3493   2.278   3.260   1.587 -1.0950  0.3080 -0.2688
  862SOL    HW3 3494   2.290   3.202   1.448  1.8697 -0.0757  0.1110
  862SOL    MW4 3495   2.267   3.194   1.532 -0.2723  0.2801 -0.3996
  863SOL     OW 3496   2.291   3.416   1.675 -0.7672 -0.0239  0.0024
  863SOL    HW2 3497   2.292   3.452   1.763 -1.1729 -1.1136  0.4674
  863SOL    HW3 3498   2.363   3.460   1.630 -0.7901  0.8054  0.7611
  863SOL    MW4 3499   2.300   3.426   1.681 -0.8240 -0.0584  0.1639
  864SOL     OW 3500   2.474   3.581   1.562 -0.6318 -0.5695  0.0638
  864SOL    HW2 3501   2.565   3.553   1.572 -1.5017 -2.7559  2.2176
  864SOL    HW3 3502   2.466   3.659   1.616 -0.4876 -1.4353  1.3416
  864SOL    MW4 3503   2.485   3.588   1.570 -0.7277 -0.9720  0.5167
  865SOL     OW 3504   2.485   3.840   1.672  0.1478  0.0736 -0.0062
  865SOL    HW2 3505   2.481   3.843   1.768 -0.8583 -2.5106  0.0681
  865SOL    HW3 3506   2.577   3.857   1.651  0.6135 -0.5164  1.4892
  865SOL    MW4 3507   2.496   3.843   1.682  0.0763 -0.3455  0.2009
  866SOL     OW 3508   2.279   3.983   1.552 -0.5903 -0.1729  0.1227
  866SOL    HW2 3509   2.339   3.926   1.601  1.1221  2.1528  0.8119
  866SOL    HW3 3510   2.323   3.998   1.468 -1.3674 -0.4460 -0.3353
  866SOL    MW4 3511   2.293   3.977   1.547 -0.4668  0.0980  0.1532
  867SOL     OW 3512   2.244   4.248   1.642 -0.0319  0.7022 -0.5871
  867SOL    HW2 3513   2.324   4.295   1.621  1.1706 -0.3364  1.4685
  867SOL    HW3 3514   2.252   4.165   1.594  0.8340 -0.0055  0.7480
  867SOL    MW4 3515   2.256   4.243   1.633  0.2408  0.4721 -0.1397
  868SOL     OW 3516   2.471   4.366   1.553  0.2751 -0.2359  0.1014
  868SOL    HW2 3517   2.486   4.460   1.559  1.0896 -0.3488 -0.1206
  868SOL    HW3 3518   2.480   4.347   1.459  0.0886 -0.5373  0.1436
  868SOL    MW4 3519   2.474   4.376   1.541  0.3579 -0.2909  0.0777
  869SOL     OW 3520   2.938   4.590   1.591 -0.8830 -0.0246 -0.8330
  869SOL    HW2 3521   2.949   4.589   1.686 -2.6214 -1.7932 -0.6191
  869SOL    HW3 3522   2.878   4.662   1.574 -1.1017 -0.1325 -0.5241
  869SOL    MW4 3523   2.932   4.599   1.602 -1.1413 -0.2723 -0.7639
  870SOL     OW 3524   2.730   0.104   1.515 -0.1347 -0.3162  0.1663
  870SOL    HW2 3525   2.706   0.195   1.535 -0.1460 -0.1685 -0.5093
  870SOL    HW3 3526   2.648   0.056   1.526 -0.1881 -0.2058  0.2620
  870SOL    MW4 3527   2.716   0.110   1.519 -0.1435 -0.2821  0.0898
  871SOL     OW 3528   2.665   0.351   1.613  0.2057 -0.4697 -0.1927
  871SOL    HW2 3529   2.662   0.339   1.708 -0.2647 -0.1286 -0.1663
  871SOL    HW3 3530   2.747   0.398   1.598  0.7481 -1.3487 -0.0483
  871SOL    MW4 3531   2.676   0.355   1.623  0.2153 -0.5407 -0.1702
  872SOL     OW 3532   2.909   0.445   1.520 -0.0894  0.1796 -0.1481
  872SOL    HW2 3533   2.903   0.530   1.563  0.8401  0.3087 -0.2660
  872SOL    HW3 3534   2.907   0.465   1.426 -1.2409 -0.0357 -0.1775
  872SOL    MW4 3535   2.908   0.459   1.513 -0.1190  0.1682 -0.1676
  873SOL     OW 3536   2.906   0.706   1.642 -0.3263  0.1250  0.2130
  873SOL    HW2 3537   2.899   0.706   1.737 -1.9729 -0.5995  0.1171
  873SOL    HW3 3538   2.828   0.754   1.612  0.5535  0.9899 -0.7586
  873SOL    MW4 3539   2.895   0.713   1.650 -0.4272  0.1435  0.0721
  874SOL     OW 3540   2.703   0.853   1.506 -0.0760  0.3294 -0.7701
  874SOL    HW2 3541   2.616   0.849   1.547 -0.7179 -0.3789 -2.1566
  874SOL    HW3 3542   2.686   0.886   1.418  1.0112 -0.3159 -1.2247
  874SOL    MW4 3543   2.689   0.857   1.500 -0.0169  0.1507 -1.0130
  875SOL     OW 3544   2.693   1.145   1.596  0.0161 -0.3599 -0.0217
  875SOL    HW2 3545   2.703   1.053   1.571  0.6533 -0.4837  0.6549
  875SOL    HW3 3546   2.704   1.144   1.691  0.5459  0.4873 -0.0755
  875SOL    MW4 3547   2.695   1.133   1.605  0.1698 -0.2644  0.0604
  876SOL     OW 3548   2.911   1.305   1.504 -0.1220 -0.0014 -0.5493
  876SOL    HW2 3549   2.986   1.257   1.540  0.8447  1.4468 -0.5974
  876SOL    HW3 3550   2.835   1.259   1.539  0.7838  0.0599  1.6311
  876SOL    MW4 3551   2.911   1.292   1.514  0.1249  0.1976 -0.2680
  877SOL     OW 3552   2.966   1.526   1.676  0.2257 -0.1374  0.5632
  877SOL    HW2 3553   2.889   1.569   1.639  0.6950  0.5414  0.3690
  877SOL    HW3 3554   2.973   1.444   1.628  0.1296  0.1986 -0.0267
  877SOL    MW4 3555   2.957   1.521   1.665  0.2749 -0.0036  0.4598
  878SOL     OW 3556   2.731   1.650   1.546  0.3472  0.1661  0.5680
  878SOL    HW2 3557   2.721   1.739   1.581  0.8664  0.0886  0.9239
  878SOL    HW3 3558   2.723   1.661   1.451 -0.4826  0.4627  0.6686
  878SOL    MW4 3559   2.729   1.663   1.538  0.3064  0.1950  0.6281
  879SOL     OW 3560   2.738   1.910   1.642  0.2813  0.4148 -0.3399
  879SOL    HW2 3561   2.742   1.911   1.738  0.4192 -2.6555 -0.2433
  879SOL    HW3 3562   2.654   1.951   1.621 -0.8269 -0.9460  1.2365
  879SOL    MW4 3563   2.728   1.915   1.652  0.1531 -0.1698 -0.1191
  880SOL     OW 3564   2.959   2.034   1.540 -0.1085  0.3141  0.3098
  880SOL    HW2 3565   2.956   2.122   1.579  1.2212 -0.2478  1.7423
  880SOL    HW3 3566   2.876   1.994   1.564  0.3104  0.3063  1.7783
  880SOL    MW4 3567   2.948   2.041   1.548  0.1223  0.2389  0.6925
  881SOL     OW 3568   2.936   2.295   1.639  0.2356 -0.0375 -0.3340
  881SOL    HW2 3569   2.931   2.311   1.733  0.1412 -0.1079 -0.3278
  881SOL    HW3 3570   2.858   2.336   1.603 -0.1872 -0.7848 -0.2788
  881SOL    MW4 3571   2.925   2.303   1.647  0.1674 -0.1454 -0.3259
  882SOL     OW 3572   2.711   2.417   1.534 -0.1993 -0.1001 -0.3629
  882SOL    HW2 3573   2.713   2.489   1.598  0.5140 -0.6239  0.2021
  882SOL    HW3 3574   2.629   2.372   1.551 -1.1153  1.1413 -1.3482
  882SOL    MW4 3575   2.700   2.421   1.544 -0.2260 -0.0055 -0.4185
  883SOL     OW 3576   2.671   2.650   1.685 -0.5386 -0.2296  0.0662
  883SOL    HW2 3577   2.739   2.699   1.641 -0.4109  0.1005  0.6259
  883SOL    HW3 3578   2.590   2.673   1.639 -0.7011  1.6354  1.2254
  883SOL    MW4 3579   2.669   2.659   1.673 -0.5434  0.0601  0.2929
  884SOL     OW 3580   2.863   2.794   1.573  0.3340 -0.1322 -0.1314
  884SOL    HW2 3581   2.943   2.746   1.594  0.4330 -0.2917 -0.8465
  884SOL    HW3 3582   2.871   2.877   1.620  0.9019 -0.1688 -0.1672
  884SOL    MW4 3583   2.874   2.798   1.582  0.4218 -0.1581 -0.2306
  885SOL     OW 3584   2.893   3.047   1.692  0.0609  0.1315  0.5893
  885SOL    HW2 3585   2.885   3.075   1.784 -0.5090  1.7089  0.0794
  885SOL    HW3 3586   2.967   3.097   1.659 -0.3214  0.2775 -0.0535
  885SOL    MW4 3587   2.901   3.057   1.700 -0.0646  0.3588  0.4373
  886SOL     OW 3588   2.701   3.206   1.581  0.3309 -0.2939 -0.0393
  886SOL    HW2 3589   2.699   3.189   1.487  1.7803  0.9246 -0.3156
  886SOL    HW3 3590   2.771   3.149   1.615  1.5727  1.1372 -0.1329
  886SOL    MW4 3591   2.710   3.196   1.573  0.6859  0.0558 -0.0881
  887SOL     OW 3592   2.729   3.481   1.620 -0.2797 -0.9081  0.6383
  887SOL    HW2 3593   2.700   3.465   1.709 -1.7656 -0.1102  0.3147
  887SOL    HW3 3594   2.744   3.394   1.583  0.6211 -1.2251  1.7428
  887SOL    MW4 3595   2.728   3.468   1.627 -0.3569 -0.8445  0.7414
  888SOL     OW 3596   2.987   3.578   1.577 -0.3602  0.4997  0.5891
  888SOL    HW2 3597   2.899   3.549   1.600 -0.4143  0.0520 -0.1614
  888SOL    HW3 3598   2.987   3.580   1.481 -0.0036  1.8785  0.6108
  888SOL    MW4 3599   2.976   3.574   1.568 -0.3204  0.6225  0.4929
  889SOL     OW 3600   2.997   3.852   1.662 -0.0323 -0.4058  0.8407
  889SOL    HW2 3601   2.907   3.861   1.630 -0.4668 -0.7643  1.9366
  889SOL    HW3 3602   3.014   3.758   1.658  0.3430 -0.3277  0.5287
  889SOL    MW4 3603   2.987   3.841   1.657 -0.0403 -0.4427  0.9441
  890SOL     OW 3604   2.737   3.927   1.580 -0.0851  0.0836 -0.4346
  890SOL    HW2 3605   2.724   4.019   1.601  0.1959  0.0885 -0.2817
  890SOL    HW3 3606   2.690   3.914   1.497 -1.7983 -0.1092  0.5524
  890SOL    MW4 3607   2.729   3.937   1.572 -0.2739  0.0589 -0.2843
  891SOL     OW 3608   2.678   4.194   1.626  0.2952  0.3093  0.2810
  891SOL    HW2 3609   2.621   4.253   1.578  0.4784  0.2488 -0.0110
  891SOL    HW3 3610   2.766   4.227   1.610  0.2491  1.3663  2.0206
  891SOL    MW4 3611   2.682   4.206   1.618  0.3135  0.4406  0.4719
  892SOL     OW 3612   3.218   4.273   1.606 -0.2756  0.1631 -0.2973
  892SOL    HW2 3613   3.220   4.252   1.700  0.7591  0.7568 -0.1774
  892SOL    HW3 3614   3.132   4.311   1.592 -0.7990 -0.8153  0.2199
  892SOL    MW4 3615   3.207   4.275   1.617 -0.2084  0.1121 -0.2131
  893SOL     OW 3616   3.771   4.371   1.226 -0.7354  0.1040  0.7927
  893SOL    HW2 3617   3.701   4.310   1.202  0.0108 -1.0109  1.3979
  893SOL    HW3 3618   3.779   4.363   1.321  1.8580 -1.6482  0.4831
  893SOL    MW4 3619   3.763   4.362   1.235 -0.2949 -0.2742  0.8317
  894SOL     OW 3620   3.131   0.119   1.201 -0.0048  0.0181  0.1603
  894SOL    HW2 3621   3.203   0.078   1.155 -0.4992 -0.5126 -0.1479
  894SOL    HW3 3622   3.137   0.087   1.291 -0.5116 -0.8981 -0.1289
  894SOL    MW4 3623   3.141   0.110   1.207 -0.1371 -0.1728  0.0814
  895SOL     OW 3624   3.154   0.040   1.467 -0.3809 -0.3266 -0.1313
  895SOL    HW2 3625   3.229   0.031   1.525  0.1097  1.0672 -0.5318
  895SOL    HW3 3626   3.086  -0.014   1.507  0.3933 -0.4873  0.9880
  895SOL    MW4 3627   3.155   0.032   1.480 -0.2143 -0.1639 -0.0364
  896SOL     OW 3628   3.396   0.485   1.513  0.2002  0.3320 -0.0360
  896SOL    HW2 3629   3.325   0.421   1.514  0.8452 -0.3877  0.2669
  896SOL    HW3 3630   3.396   0.519   1.423 -0.1112 -0.1347 -0.2160
  896SOL    MW4 3631   3.387   0.481   1.501  0.2441  0.1755 -0.0199
  897SOL     OW 3632   3.380   0.734   1.628 -0.0224 -0.1117  0.1202
  897SOL    HW2 3633   3.377   0.729   1.724  0.7673  0.6715  0.1889
  897SOL    HW3 3634   3.397   0.644   1.600 -0.4175 -0.3723  0.7046
  897SOL    MW4 3635   3.382   0.721   1.637  0.0298 -0.0427  0.2065
  898SOL     OW 3636   3.139   0.879   1.518  0.1311 -0.1505 -0.0420
  898SOL    HW2 3637   3.222   0.859   1.562  0.5828 -1.3420 -1.4162
  898SOL    HW3 3638   3.074   0.827   1.566 -0.0683  1.7953  1.8835
  898SOL    MW4 3639   3.142   0.869   1.530  0.1645 -0.0510  0.0308
  899SOL     OW 3640   3.141   1.140   1.596 -0.3003  0.0522 -0.8124
  899SOL    HW2 3641   3.152   1.120   1.689 -1.2854 -1.8278 -1.0655
  899SOL    HW3 3642   3.122   1.055   1.556 -1.4969  1.0811 -2.4826
  899SOL    MW4 3643   3.140   1.126   1.603 -0.5882 -0.0600 -1.0662
  900SOL     OW 3644   3.384   1.273   1.529  0.5148 -0.6596 -0.3255
  900SOL    HW2 3645   3.302   1.230   1.555  1.0633 -1.1010  0.7095
  900SOL    HW3 3646   3.452   1.219   1.569  1.2894  0.0413 -0.6940
  900SOL    MW4 3647   3.382   1.260   1.538  0.6895 -0.6253 -0.2376
  901SOL     OW 3648   3.402   1.530   1.636  0.5803 -0.2038 -0.8063
  901SOL    HW2 3649   3.395   1.544   1.730 -1.9453  2.3632 -1.3002
  901SOL    HW3 3650   3.395   1.436   1.624  0.3786 -0.5050  1.5235
  901SOL    MW4 3651   3.400   1.520   1.646  0.2205  0.0952 -0.5641
  902SOL     OW 3652   3.178   1.645   1.529 -0.4842  0.1761 -0.1205
  902SOL    HW2 3653   3.257   1.600   1.560 -0.3286 -0.0258 -0.7868
  902SOL    HW3 3654   3.106   1.598   1.571 -0.2769 -0.0583 -0.0243
  902SOL    MW4 3655   3.179   1.633   1.538 -0.4361  0.1184 -0.1956
  903SOL     OW 3656   3.189   1.886   1.676 -0.3036  0.2065 -0.1200
  903SOL    HW2 3657   3.178   1.804   1.628 -1.6281  0.2756  0.0278
  903SOL    HW3 3658   3.115   1.940   1.649  0.4363  1.2765 -0.0475
  903SOL    MW4 3659   3.178   1.882   1.666 -0.3808  0.3568 -0.0908
  904SOL     OW 3660   3.365   2.072   1.582 -0.1250 -0.0340  0.3301
  904SOL    HW2 3661   3.314   1.992   1.594  1.6937 -1.3028 -0.1382
  904SOL    HW3 3662   3.369   2.083   1.487  0.2493  0.2141  0.3734
  904SOL    MW4 3663   3.359   2.063   1.571  0.1643 -0.1688  0.2741
  905SOL     OW 3664   3.360   2.338   1.660  0.3112 -0.1607  0.4919
  905SOL    HW2 3665   3.427   2.379   1.605 -0.7653  1.5296  0.3998
  905SOL    HW3 3666   3.375   2.244   1.650  2.1816  0.1789 -0.1195
  905SOL    MW4 3667   3.371   2.331   1.651  0.4158  0.1073  0.3991
  906SOL     OW 3668   3.142   2.429   1.500 -0.4367 -0.2287  0.8098
  906SOL    HW2 3669   3.225   2.407   1.543  0.7186  1.9233 -0.1828
  906SOL    HW3 3670   3.075   2.384   1.550  1.3954 -2.4154  1.3470
  906SOL    MW4 3671   3.144   2.420   1.512 -0.0424 -0.2334  0.7497
  907SOL     OW 3672   3.087   2.667   1.643 -0.4973 -0.4435  0.0026
  907SOL    HW2 3673   3.161   2.723   1.622 -0.2437 -0.7173  0.1690
  907SOL    HW3 3674   3.100   2.588   1.590 -1.6890  0.3027 -1.4393
  907SOL    MW4 3675   3.098   2.664   1.633 -0.6211 -0.3810 -0.1657
  908SOL     OW 3676   3.303   2.838   1.559 -0.1673 -0.5564 -0.1635
  908SOL    HW2 3677   3.326   2.929   1.580 -0.4899 -0.3893 -0.5263
  908SOL    HW3 3678   3.307   2.835   1.463 -3.2842 -0.1003 -0.3437
  908SOL    MW4 3679   3.307   2.850   1.549 -0.6213 -0.4742 -0.2350
  909SOL     OW 3680   3.384   3.098   1.635 -0.4996 -0.6075  0.3927
  909SOL    HW2 3681   3.297   3.113   1.600 -0.6008 -0.9116  0.5094
  909SOL    HW3 3682   3.371   3.083   1.729 -0.1338  1.1025  0.7256
  909SOL    MW4 3683   3.371   3.098   1.643 -0.4644 -0.4222  0.4522
  910SOL     OW 3684   3.105   3.157   1.571 -0.4153  0.5333 -0.1402
  910SOL    HW2 3685   3.131   3.178   1.481 -0.6316 -1.2338 -0.6239
  910SOL    HW3 3686   3.131   3.234   1.622  2.0954  0.4690 -1.2806
  910SOL    MW4 3687   3.112   3.170   1.566 -0.1128  0.2918 -0.3544
  911SOL     OW 3688   3.388   3.592   1.545 -0.5470 -0.4097 -0.1761
  911SOL    HW2 3689   3.373   3.593   1.451  1.1536  0.5260 -0.4554
  911SOL    HW3 3690   3.477   3.559   1.555 -0.4676  0.1511  1.0588
  911SOL    MW4 3691   3.398   3.588   1.534 -0.3121 -0.2122 -0.0501
  912SOL     OW 3692   3.179   3.419   1.645 -0.5178  0.4374 -0.3695
  912SOL    HW2 3693   3.253   3.459   1.599 -0.4713 -0.6952 -1.3015
  912SOL    HW3 3694   3.103   3.469   1.616 -0.1816  1.3890  0.3314
  912SOL    MW4 3695   3.179   3.431   1.635 -0.4673  0.4137 -0.4001
  913SOL     OW 3696   3.327   3.867   1.631 -0.0283 -0.9497  0.1010
  913SOL    HW2 3697   3.253   3.901   1.582 -0.6727 -0.7236  1.2073
  913SOL    HW3 3698   3.347   3.783   1.590  0.4791 -0.0267 -1.5575
  913SOL    MW4 3699   3.320   3.860   1.619 -0.0460 -0.7980  0.0281
  914SOL     OW 3700   3.145   4.019   1.503  0.8267  0.1057 -0.2073
  914SOL    HW2 3701   3.165   4.099   1.552  0.1972  0.1926 -0.0883
  914SOL    HW3 3702   3.090   3.968   1.563  2.4737 -1.1016  0.3093
  914SOL    MW4 3703   3.141   4.023   1.518  0.9611 -0.0424 -0.1235
  915SOL     OW 3704   3.394   4.440   1.440  0.0264  0.3302  0.1868
  915SOL    HW2 3705   3.329   4.407   1.502 -0.0272 -0.5474 -0.3133
  915SOL    HW3 3706   3.360   4.413   1.354  0.8440  0.2200 -0.1053
  915SOL    MW4 3707   3.381   4.432   1.437  0.1273  0.1998  0.0824
  916SOL     OW 3708   3.376   4.655   1.618 -0.5392 -0.2541 -0.2198
  916SOL    HW2 3709   3.407   4.592   1.553 -0.1120  0.4102 -0.6740
  916SOL    HW3 3710   3.429   4.734   1.602  0.9430 -0.7085  2.2347
  916SOL    MW4 3711   3.387   4.657   1.607 -0.2873 -0.2265  0.0441
  917SOL     OW 3712   3.784   4.637   1.603  0.6060  0.4637 -0.1267
  917SOL    HW2 3713   3.792   4.620   1.697  2.3371  0.9796 -0.1511
  917SOL    HW3 3714   3.857   4.696   1.584 -0.9106  1.9482 -1.4234
  917SOL    MW4 3715   3.795   4.643   1.613  0.6342  0.7277 -0.3010
  918SOL     OW 3716   3.377   4.616   1.888 -0.2595  0.4764  0.5961
  918SOL    HW2 3717   3.368   4.628   1.793  0.5123 -0.4165  0.4012
  918SOL    HW3 3718   3.375   4.521   1.900  0.1946  0.5687  1.4202
  918SOL    MW4 3719   3.375   4.605   1.877 -0.0980  0.3705  0.6791
  919SOL     OW 3720   3.616   0.378   1.653  0.2688 -0.5223 -0.2646
  919SOL    HW2 3721   3.638   0.294   1.614  0.0066 -0.4232 -0.6237
  919SOL    HW3 3722   3.543   0.411   1.601 -0.7936 -0.8939  0.9597
  919SOL    MW4 3723   3.609   0.372   1.641  0.0939 -0.5583 -0.1504
  920SOL     OW 3724   3.829   0.503   1.546 -0.1699 -0.3285 -0.1328
  920SOL    HW2 3725   3.756   0.465   1.595 -2.0831  1.6517 -1.3543
  920SOL    HW3 3726   3.811   0.480   1.455 -0.1592  1.5541 -0.6229
  920SOL    MW4 3727   3.817   0.495   1.540 -0.4210  0.1812 -0.3587
  921SOL     OW 3728   3.818   0.776   1.632  0.5681  0.2014 -0.6694
  921SOL    HW2 3729   3.734   0.814   1.608  0.3357 -0.3425 -0.7319
  921SOL    HW3 3730   3.814   0.686   1.600  1.0682  0.0899 -0.4344
  921SOL    MW4 3731   3.806   0.769   1.625  0.6032  0.1150 -0.6467
  922SOL     OW 3732   3.596   0.896   1.562 -0.5753 -0.2334 -0.2701
  922SOL    HW2 3733   3.511   0.855   1.579 -1.1789  1.1749  0.2349
  922SOL    HW3 3734   3.609   0.888   1.468 -1.7464  0.4090 -0.5029
  922SOL    MW4 3735   3.587   0.890   1.552 -0.8094  0.0372 -0.2342
  923SOL     OW 3736   3.598   1.146   1.666  0.0195  0.1176 -0.5270
  923SOL    HW2 3737   3.659   1.197   1.612 -0.5755  0.2897 -1.0368
  923SOL    HW3 3738   3.604   1.057   1.631  1.2558 -0.2352  0.5332
  923SOL    MW4 3739   3.607   1.141   1.654  0.1042  0.0937 -0.4543
  924SOL     OW 3740   3.775   1.299   1.501 -0.2602  0.2877 -0.1134
  924SOL    HW2 3741   3.858   1.252   1.511 -1.0476 -1.3199 -0.8354
  924SOL    HW3 3742   3.781   1.372   1.562  1.8586  0.4367 -0.4622
  924SOL    MW4 3743   3.786   1.302   1.510 -0.0846  0.0954 -0.2548
  925SOL     OW 3744   3.814   1.528   1.666 -0.0261 -0.3805  0.5635
  925SOL    HW2 3745   3.792   1.512   1.758  0.4758  1.4690  1.0100
  925SOL    HW3 3746   3.748   1.590   1.635 -0.9190 -1.8990 -0.6867
  925SOL    MW4 3747   3.802   1.534   1.674 -0.0775 -0.3368  0.4575
  926SOL     OW 3748   3.620   1.694   1.564 -0.1107  0.0391  0.4416
  926SOL    HW2 3749   3.560   1.622   1.585  1.7962 -1.3798  1.2344
  926SOL    HW3 3750   3.621   1.698   1.469 -2.2134  0.7567  0.4235
  926SOL    MW4 3751   3.612   1.685   1.554 -0.1369 -0.0534  0.5438
  927SOL     OW 3752   3.598   1.958   1.665  0.3520 -0.2109 -0.4962
  927SOL    HW2 3753   3.589   1.867   1.635 -0.8938 -1.3951  3.2153
  927SOL    HW3 3754   3.518   2.000   1.635  0.9579 -0.2707 -2.2899
  927SOL    MW4 3755   3.587   1.951   1.657  0.2675 -0.3750 -0.2432
  928SOL     OW 3756   3.782   2.093   1.490  0.0055  0.0949  0.2867
  928SOL    HW2 3757   3.798   2.175   1.537  0.2281 -0.5191  1.2965
  928SOL    HW3 3758   3.725   2.042   1.548  1.1924 -1.1360  0.4044
  928SOL    MW4 3759   3.776   2.097   1.504  0.1915 -0.1485  0.4355
  929SOL     OW 3760   3.822   2.355   1.612 -0.0930  0.1932 -0.0094
  929SOL    HW2 3761   3.828   2.351   1.707 -0.6813 -0.9717 -0.0108
  929SOL    HW3 3762   3.886   2.421   1.586  0.5560  0.0222  1.1442
  929SOL    MW4 3763   3.831   2.363   1.621 -0.0851  0.0167  0.1427
  930SOL     OW 3764   3.574   2.455   1.507  0.1653  0.2163  0.4310
  930SOL    HW2 3765   3.566   2.542   1.548  0.2068 -0.4016  1.7815
  930SOL    HW3 3766   3.665   2.429   1.523 -0.5299 -1.1646  2.2959
  930SOL    MW4 3767   3.585   2.463   1.515  0.0792 -0.0474  0.8553
  931SOL     OW 3768   3.594   2.728   1.594 -0.5387 -0.2414 -0.2686
  931SOL    HW2 3769   3.584   2.725   1.690 -0.8735  0.6463 -0.2730
  931SOL    HW3 3770   3.514   2.771   1.563 -0.2827 -0.2365 -0.9223
  931SOL    MW4 3771   3.582   2.733   1.603 -0.5488 -0.1235 -0.3555
  932SOL     OW 3772   3.827   2.840   1.491 -0.1416  0.0545  1.1240
  932SOL    HW2 3773   3.882   2.788   1.549  0.8554 -0.0307  0.1181
  932SOL    HW3 3774   3.738   2.816   1.515  0.2934 -1.7326  1.0221
  932SOL    MW4 3775   3.823   2.830   1.502  0.0474 -0.1926  0.9778
  933SOL     OW 3776   3.837   3.073   1.655 -0.1895  0.1969  0.2983
  933SOL    HW2 3777   3.919   3.116   1.629  0.9281 -0.6583  2.3777
  933SOL    HW3 3778   3.838   2.989   1.609  0.8736 -0.5075  1.6200
  933SOL    MW4 3779   3.848   3.068   1.645  0.0982 -0.0091  0.7470
  934SOL     OW 3780   3.624   3.189   1.510  0.0179  0.1617 -0.0672
  934SOL    HW2 3781   3.553   3.143   1.553  0.5994 -0.1016  0.6214
  934SOL    HW3 3782   3.704   3.148   1.544  0.5086  0.7561 -0.4788
  934SOL    MW4 3783   3.625   3.178   1.520  0.1593  0.2055 -0.0306
  935SOL     OW 3784   3.623   3.463   1.600  0.4301 -0.0227 -0.5045
  935SOL    HW2 3785   3.616   3.369   1.583  1.9830 -0.0211 -1.1575
  935SOL    HW3 3786   3.708   3.488   1.566  1.1901  1.1031  2.0955
  935SOL    MW4 3787   3.633   3.454   1.593  0.7353  0.1261 -0.2476
  936SOL     OW 3788   3.840   3.620   1.505  0.2450 -0.4491  0.0653
  936SOL    HW2 3789   3.909   3.567   1.546  0.2442 -1.1903 -0.8584
  936SOL    HW3 3790   3.839   3.702   1.554  0.4010 -1.2237  1.3920
  936SOL    MW4 3791   3.849   3.623   1.517  0.2656 -0.6490  0.1184
  937SOL     OW 3792   3.824   3.864   1.619  0.1612  0.4557  0.0525
  937SOL    HW2 3793   3.894   3.904   1.567 -0.7872 -1.1542 -2.5366
  937SOL    HW3 3794   3.744   3.907   1.589 -0.5572 -1.4616 -0.8596
  937SOL    MW4 3795   3.823   3.875   1.608 -0.0587 -0.0095 -0.4095
  938SOL     OW 3796   3.580   3.975   1.548 -0.3543 -0.1370  0.6546
  938SOL    HW2 3797   3.582   4.070   1.542  0.5316 -0.1616  0.5205
  938SOL    HW3 3798   3.493   3.955   1.584 -1.3128  0.5953 -1.2061
  938SOL    MW4 3799   3.569   3.985   1.552 -0.3638 -0.0436  0.3914
  939SOL     OW 3800   3.597   4.251   1.570 -0.1038  0.2206 -0.0995
  939SOL    HW2 3801   3.589   4.249   1.665 -0.7309  0.6865 -0.1385
  939SOL    HW3 3802   3.531   4.315   1.542 -0.6019 -0.6379 -0.9117
  939SOL    MW4 3803   3.587   4.259   1.579 -0.2522  0.1688 -0.2117
  940SOL     OW 3804   3.832   4.379   1.501 -0.3351  0.3925  0.1299
  940SOL    HW2 3805   3.763   4.332   1.548  1.3230 -1.5426  0.7354
  940SOL    HW3 3806   3.826   4.469   1.531 -1.2795 -0.1927  1.7268
  940SOL    MW4 3807   3.822   4.384   1.511 -0.2410  0.0601  0.4206
  941SOL     OW 3808   4.255   4.663   1.616 -0.0477 -0.0546 -0.0998
  941SOL    HW2 3809   4.274   4.652   1.709 -0.0186  1.6635  0.1032
  941SOL    HW3 3810   4.253   4.573   1.582 -1.0129 -0.7628  1.7358
  941SOL    MW4 3811   4.257   4.650   1.624 -0.1717  0.0787  0.1692
  942SOL     OW 3812   4.024   0.089   1.506  0.0505  0.3459  0.4450
  942SOL    HW2 3813   4.032   0.176   1.545 -0.3111 -0.2951  1.9897
  942SOL    HW3 3814   4.088   0.036   1.553  0.3406 -0.2045 -0.5692
  942SOL    MW4 3815   4.033   0.094   1.517  0.0415  0.1887  0.5149
  943SOL     OW 3816   4.046   0.346   1.626  0.1550 -0.3697  0.0410
  943SOL    HW2 3817   4.047   0.339   1.722 -1.5862 -0.2962  0.0787
  943SOL    HW3 3818   3.967   0.396   1.607  1.9803  2.1459 -1.2803
  943SOL    MW4 3819   4.036   0.352   1.636  0.1655 -0.0281 -0.1283
  944SOL     OW 3820   4.268   4.224   0.796 -0.2471  0.1871  0.0852
  944SOL    HW2 3821   4.357   4.233   0.830 -0.1357  0.4318 -0.2595
  944SOL    HW3 3822   4.280   4.212   0.701 -0.6194  1.3421 -0.1231
  944SOL    MW4 3823   4.282   4.224   0.788 -0.2813  0.3715  0.0123
  945SOL     OW 3824   4.292   0.464   1.529 -0.0718 -0.2668  0.2434
  945SOL    HW2 3825   4.218   0.428   1.578  0.6189 -0.6785  1.0139
  945SOL    HW3 3826   4.358   0.394   1.531 -0.4280 -0.7193 -2.2269
  945SOL    MW4 3827   4.291   0.450   1.536 -0.0272 -0.3809  0.0191
  946SOL     OW 3828   4.286   0.731   1.606 -0.6198 -0.1129  0.7974
  946SOL    HW2 3829   4.370   0.767   1.578 -1.0936 -1.3481 -2.5239
  946SOL    HW3 3830   4.293   0.637   1.587 -2.4835 -0.3452  1.1780
  946SOL    MW4 3831   4.298   0.723   1.600 -0.9284 -0.3065  0.4094
  947SOL     OW 3832   3.997   1.155   1.581  0.0262 -0.4169  0.0745
  947SOL    HW2 3833   4.014   1.171   1.674  1.0757 -0.8232 -0.0418
  947SOL    HW3 3834   3.981   1.060   1.577 -1.1747 -0.2245  0.0064
  947SOL    MW4 3835   3.997   1.144   1.593  0.0060 -0.4451  0.0503
  948SOL     OW 3836   4.238   1.256   1.486 -0.6314 -0.0054 -0.4881
  948SOL    HW2 3837   4.155   1.218   1.514  0.0437 -1.3891 -0.3046
  948SOL    HW3 3838   4.304   1.202   1.529  0.3618  1.4505 -0.1492
  948SOL    MW4 3839   4.236   1.244   1.495 -0.4115  0.0041 -0.4191
  949SOL     OW 3840   4.264   1.509   1.595 -0.1972 -0.3287 -0.0410
  949SOL    HW2 3841   4.270   1.418   1.565  0.1076 -0.5052  0.5434
  949SOL    HW3 3842   4.351   1.545   1.579  0.1100 -0.5616  1.0576
  949SOL    MW4 3843   4.276   1.502   1.589 -0.1168 -0.3828  0.1810
  950SOL     OW 3844   4.030   1.667   1.533 -0.3058 -0.2357  0.0445
  950SOL    HW2 3845   4.108   1.617   1.556  0.7950  0.7459 -1.4762
  950SOL    HW3 3846   3.958   1.620   1.576  1.0857 -1.2546  1.3068
  950SOL    MW4 3847   4.031   1.654   1.542  0.0229 -0.2407  0.0105
  951SOL     OW 3848   3.989   1.942   1.617 -0.3236 -0.2285  0.1392
  951SOL    HW2 3849   3.974   1.852   1.587 -3.0250 -0.2992  1.4910
  951SOL    HW3 3850   3.927   1.995   1.567 -0.4648  0.5245  1.0799
  951SOL    MW4 3851   3.979   1.937   1.607 -0.6986 -0.1383  0.4417
  952SOL     OW 3852   4.237   2.039   1.552  0.2540 -0.6813 -0.3776
  952SOL    HW2 3853   4.149   2.019   1.583 -0.3096  2.9864  0.6288
  952SOL    HW3 3854   4.235   2.017   1.459 -1.8865 -0.1733 -0.4751
  952SOL    MW4 3855   4.225   2.033   1.544 -0.1030 -0.1304 -0.2576
  953SOL     OW 3856   4.237   2.319   1.639 -0.2176 -0.6085  0.0105
  953SOL    HW2 3857   4.230   2.323   1.734 -1.6577 -0.0270 -0.1066
  953SOL    HW3 3858   4.234   2.226   1.618 -1.6778 -0.6639  0.4226
  953SOL    MW4 3859   4.236   2.307   1.649 -0.6003 -0.5391  0.0494
  954SOL     OW 3860   4.044   2.470   1.499  0.3166  0.4526 -0.0134
  954SOL    HW2 3861   4.062   2.557   1.536 -0.3390 -0.1277  1.7499
  954SOL    HW3 3862   4.096   2.410   1.553  1.5427 -0.1735 -1.8564
  954SOL    MW4 3863   4.053   2.474   1.511  0.3915  0.2937 -0.0238
  955SOL     OW 3864   4.032   2.701   1.634  0.3683 -0.4907  0.0511
  955SOL    HW2 3865   4.032   2.687   1.728 -1.1550 -0.0354  0.1389
  955SOL    HW3 3866   4.105   2.760   1.618  0.9403 -0.9652  0.8809
  955SOL    MW4 3867   4.042   2.707   1.644  0.2427 -0.4933  0.1724
  956SOL     OW 3868   4.255   2.830   1.516  0.0178 -0.1549  0.3916
  956SOL    HW2 3869   4.273   2.923   1.529 -0.5992 -0.1414  1.1469
  956SOL    HW3 3870   4.330   2.784   1.554  0.9362  0.0559 -1.0913
  956SOL    MW4 3871   4.267   2.836   1.523  0.0572 -0.1254  0.2955
  957SOL     OW 3872   4.312   3.083   1.619  0.2772  0.1793 -0.2155
  957SOL    HW2 3873   4.326   3.063   1.711  1.3743 -1.1852 -0.6586
  957SOL    HW3 3874   4.397   3.114   1.587  1.3138 -3.9677 -1.8749
  957SOL    MW4 3875   4.325   3.084   1.627  0.5589 -0.5479 -0.4929
  958SOL     OW 3876   4.061   3.201   1.542  0.3356 -0.0735 -0.4248
  958SOL    HW2 3877   4.074   3.290   1.575 -0.0777 -0.1570 -0.0253
  958SOL    HW3 3878   4.148   3.160   1.549  0.4707  0.2226 -0.3775
  958SOL    MW4 3879   4.074   3.207   1.548  0.2985 -0.0455 -0.3659
  959SOL     OW 3880   4.062   3.463   1.593  0.3757 -0.1140  0.4691
  959SOL    HW2 3881   4.044   3.473   1.687  0.8922 -0.4627  0.6040
  959SOL    HW3 3882   4.136   3.521   1.576  0.7685 -0.6256  0.4300
  959SOL    MW4 3883   4.069   3.472   1.603  0.4954 -0.2272  0.4817
  960SOL     OW 3884   4.299   3.608   1.511 -0.1146 -0.3919  0.6107
  960SOL    HW2 3885   4.290   3.699   1.541 -1.8232 -0.6778  1.0233
  960SOL    HW3 3886   4.289   3.613   1.416 -2.4310 -0.3963  0.8371
  960SOL    MW4 3887   4.297   3.621   1.503 -0.6456 -0.4299  0.6950
  961SOL     OW 3888   4.282   3.873   1.596  0.0380 -0.1885 -0.2030
  961SOL    HW2 3889   4.204   3.916   1.561  0.3019 -0.5922 -1.2866
  961SOL    HW3 3890   4.355   3.915   1.551  0.5477  1.0449  1.6907
  961SOL    MW4 3891   4.282   3.884   1.586  0.1402 -0.0792 -0.0961
  962SOL     OW 3892   4.044   3.995   1.495  0.2072  0.2799 -0.1389
  962SOL    HW2 3893   4.039   4.084   1.530 -1.0715  0.2771 -0.3249
  962SOL    HW3 3894   4.053   4.007   1.401  0.0541  0.2109 -0.1620
  962SOL    MW4 3895   4.045   4.008   1.487  0.0181  0.2708 -0.1664
  963SOL     OW 3896   4.046   4.250   1.611  0.4309  0.6901 -0.1877
  963SOL    HW2 3897   4.032   4.233   1.704  0.5001 -0.1518 -0.3194
  963SOL    HW3 3898   3.977   4.311   1.587  0.0248  0.4175  0.2750
  963SOL    MW4 3899   4.035   4.255   1.620  0.3862  0.5426 -0.1440
  964SOL     OW 3900   4.288   4.398   1.522 -0.4466 -0.7189  0.4978
  964SOL    HW2 3901   4.213   4.352   1.561  1.0194 -2.2051  1.6027
  964SOL    HW3 3902   4.273   4.392   1.428 -1.9661 -0.5604  0.7025
  964SOL    MW4 3903   4.276   4.391   1.515 -0.4535 -0.8941  0.6706
  965SOL     OW 3904   0.279   0.010   1.896 -0.1640  0.2016 -0.1757
  965SOL    HW2 3905   0.360   0.057   1.913 -0.5112  0.3586  1.0936
  965SOL    HW3 3906   0.285  -0.017   1.805  0.6845  1.4435 -0.4871
  965SOL    MW4 3907   0.290   0.013   1.886 -0.0978  0.3867 -0.0494
  966SOL     OW 3908   0.029   0.093   1.965  0.2863 -0.0862 -0.0531
  966SOL    HW2 3909   0.029   0.178   1.922  0.6613 -0.6158 -1.1231
  966SOL    HW3 3910   0.119   0.062   1.958  0.2742 -0.3428  0.8002
  966SOL    MW4 3911   0.041   0.100   1.959  0.3342 -0.1900 -0.0815
  967SOL     OW 3912   0.036   0.346   1.893 -0.2223 -0.0175  0.8003
  967SOL    HW2 3913  -0.051   0.379   1.917 -0.3714 -0.3875  0.7641
  967SOL    HW3 3914   0.096   0.400   1.944 -0.4623  0.4088  0.6345
  967SOL    MW4 3915   0.032   0.358   1.903 -0.2736 -0.0101  0.7737
  968SOL     OW 3916   0.252   0.490   2.003 -0.1273  0.0272 -0.2813
  968SOL    HW2 3917   0.330   0.458   1.958  1.4572  1.6640  1.2134
  968SOL    HW3 3918   0.241   0.579   1.971 -0.0435  0.5778  1.1985
  968SOL    MW4 3919   0.261   0.497   1.993  0.0928  0.3158  0.1111
  969SOL     OW 3920   0.197   0.734   1.920  0.3526 -0.3338 -0.1404
  969SOL    HW2 3921   0.279   0.773   1.949 -0.4732  0.2655  1.4253
  969SOL    HW3 3922   0.195   0.750   1.825  0.3277  2.9175  0.3570
  969SOL    MW4 3923   0.208   0.742   1.911  0.2404  0.1742  0.1317
  970SOL     OW 3924   4.455   0.884   2.004  0.0169  0.0125 -0.1579
  970SOL    HW2 3925   4.384   0.834   1.963  0.1989 -0.5401  0.1984
  970SOL    HW3 3926   4.535   0.837   1.980  0.2243  0.3522 -0.1401
  970SOL    MW4 3927   4.456   0.872   1.995  0.0677 -0.0156 -0.1085
  971SOL     OW 3928   4.483   1.133   1.881  0.0958  0.1262  0.3070
  971SOL    HW2 3929   4.396   1.167   1.902  0.1046  0.0191  0.5244
  971SOL    HW3 3930   4.481   1.043   1.914 -0.6853 -0.8327 -2.2318
  971SOL    MW4 3931   4.471   1.126   1.888 -0.0067 -0.0143  0.0007
  972SOL     OW 3932   0.218   1.261   1.979  0.2517 -0.0560 -0.4232
  972SOL    HW2 3933   0.216   1.353   1.953 -0.3282 -0.0287 -0.3002
  972SOL    HW3 3934   0.139   1.223   1.940  0.2769 -0.4064 -0.1393
  972SOL    MW4 3935   0.207   1.268   1.971  0.1785 -0.0987 -0.3694
  973SOL     OW 3936   0.203   1.526   1.928  0.2478 -0.3624 -0.1851
  973SOL    HW2 3937   0.280   1.580   1.944 -0.4535  0.2821  1.0672
  973SOL    HW3 3938   0.129   1.582   1.948 -0.4857 -2.0400  1.9978
  973SOL    MW4 3939   0.203   1.540   1.932  0.0585 -0.4987  0.2681
  974SOL     OW 3940   4.459   1.665   1.982  0.4225  0.0863  0.3157
  974SOL    HW2 3941   4.453   1.645   2.075 -0.5826  1.2220  0.5065
  974SOL    HW3 3942   4.393   1.610   1.940  0.6703 -0.2038  0.3042
  974SOL    MW4 3943   4.450   1.655   1.989  0.3228  0.1978  0.3394
  975SOL     OW 3944   0.016   1.935   1.932 -0.0463 -0.4739 -0.1635
  975SOL    HW2 3945  -0.068   1.978   1.947  1.3863  1.4628  2.8746
  975SOL    HW3 3946   0.001   1.844   1.957 -1.0825  0.0270  1.1206
  975SOL    MW4 3947   0.003   1.929   1.937  0.0057 -0.1522  0.4066
  976SOL     OW 3948   0.271   2.034   1.998 -0.5327  0.6229  0.1673
  976SOL    HW2 3949   0.254   2.125   1.974 -1.3887  0.8607  1.6337
  976SOL    HW3 3950   0.199   1.985   1.957  0.0673  0.5601 -0.8332
  976SOL    MW4 3951   0.259   2.039   1.990 -0.5665  0.6459  0.2288
  977SOL     OW 3952   0.222   2.298   1.926 -0.0180  0.5047 -0.2610
  977SOL    HW2 3953   0.294   2.350   1.962 -0.1806  1.5517 -1.4320
  977SOL    HW3 3954   0.143   2.334   1.967 -0.0997  1.0030 -0.8384
  977SOL    MW4 3955   0.221   2.310   1.936 -0.0502  0.7083 -0.4916
  978SOL     OW 3956   4.483   2.411   2.024 -0.4749 -0.0510  0.2828
  978SOL    HW2 3957   4.490   2.427   2.118  0.0280 -0.6922  0.3571
  978SOL    HW3 3958   4.477   2.498   1.986 -0.2145  0.2336  0.8788
  978SOL    MW4 3959   4.483   2.425   2.032 -0.3742 -0.0982  0.3712
  979SOL     OW 3960   4.483   2.664   1.922  0.3616  0.2916  0.8564
  979SOL    HW2 3961   4.408   2.703   1.966  0.4097  0.2581  0.9664
  979SOL    HW3 3962   4.467   2.681   1.829 -0.4828 -0.9132  0.7703
  979SOL    MW4 3963   4.471   2.671   1.915  0.2566  0.1280  0.8596
  980SOL     OW 3964   0.217   2.830   1.971  0.0153  0.2971 -0.6722
  980SOL    HW2 3965   0.224   2.915   1.928 -1.0575  1.4220  1.3202
  980SOL    HW3 3966   0.135   2.792   1.938 -0.0288  0.4892 -0.7795
  980SOL    MW4 3967   0.207   2.836   1.961 -0.1321  0.4709 -0.4236
  981SOL     OW 3968   0.217   3.097   1.895  0.0129  0.1051  0.6306
  981SOL    HW2 3969   0.296   3.142   1.924  0.3357 -0.0928  0.0680
  981SOL    HW3 3970   0.224   3.094   1.800  0.6091 -2.1977  0.7198
  981SOL    MW4 3971   0.228   3.102   1.886  0.1341 -0.2246  0.5680
  982SOL     OW 3972   4.490   3.255   1.967  0.2209 -0.0372  0.7737
  982SOL    HW2 3973   4.420   3.191   1.952 -0.1414  0.5685 -0.1755
  982SOL    HW3 3974   4.571   3.207   1.949 -0.1107  0.1410 -1.4090
  982SOL    MW4 3975   4.491   3.241   1.962  0.1294  0.0663  0.3606
  983SOL     OW 3976   0.009   3.528   1.896  0.0655 -0.0332 -0.7059
  983SOL    HW2 3977   0.079   3.542   1.959  0.0048 -1.3545 -0.3278
  983SOL    HW3 3978  -0.014   3.435   1.906  0.0200 -0.2446 -2.6256
  983SOL    MW4 3979   0.015   3.517   1.906  0.0515 -0.2356 -0.9093
  984SOL     OW 3980   0.228   3.611   2.023  0.2856  0.0663  0.0659
  984SOL    HW2 3981   0.238   3.626   2.117  0.2254  1.1285 -0.0925
  984SOL    HW3 3982   0.300   3.551   2.001  0.0767 -0.4771  0.8506
  984SOL    MW4 3983   0.239   3.605   2.033  0.2501  0.1347  0.1485
  985SOL     OW 3984   0.225   3.853   1.882 -0.0471 -0.2432  0.3527
  985SOL    HW2 3985   0.291   3.908   1.924 -1.1749  1.5623 -0.1642
  985SOL    HW3 3986   0.233   3.768   1.925  2.1230  0.1422  0.7724
  985SOL    MW4 3987   0.235   3.849   1.893  0.0904  0.0458  0.3399
  986SOL     OW 3988   0.000   4.011   1.969  0.1738 -0.1388 -0.1509
  986SOL    HW2 3989   0.012   4.105   1.957  0.1859 -0.2792 -1.2863
  986SOL    HW3 3990   0.079   3.971   1.930 -0.2968 -0.6653 -0.5748
  986SOL    MW4 3991   0.012   4.018   1.962  0.1133 -0.2270 -0.3566
  987SOL     OW 3992   0.056   4.286   1.878  0.1279  0.1133  0.6845
  987SOL    HW2 3993  -0.024   4.331   1.905  1.2858  1.6338  1.7299
  987SOL    HW3 3994   0.127   4.339   1.916  1.6702 -0.4562 -1.3120
  987SOL    MW4 3995   0.055   4.299   1.887  0.4841  0.2389  0.5590
  988SOL     OW 3996   0.286   4.403   2.001  0.2382  0.1943  0.3391
  988SOL    HW2 3997   0.283   4.409   2.096  1.8667  1.7340  0.3210
  988SOL    HW3 3998   0.300   4.493   1.971 -1.8030 -0.0489 -1.4384
  988SOL    MW4 3999   0.288   4.416   2.009  0.1837  0.3653  0.1023
  989SOL     OW 4000   0.710   4.634   1.879 -0.3275 -0.1686  0.2819
  989SOL    HW2 4001   0.705   4.544   1.909  1.9700 -0.5403 -0.3242
  989SOL    HW3 4002   0.700   4.628   1.784 -0.9249  0.2941  0.3121
  989SOL    MW4 4003   0.708   4.622   1.870 -0.1031 -0.1564  0.2058
  990SOL     OW 4004   0.503   0.125   1.973  0.3909 -0.4293  0.4123
  990SOL    HW2 4005   0.518   0.214   1.942  1.1712 -0.9696 -0.8491
  990SOL    HW3 4006   0.586   0.080   1.956  0.0109 -1.3851  1.0439
  990SOL    MW4 4007   0.516   0.131   1.966  0.4438 -0.6267  0.3293
  991SOL     OW 4008   0.491   0.409   1.885 -0.0265  0.2459 -0.4756
  991SOL    HW2 4009   0.557   0.472   1.916 -0.6024  0.5593  0.1060
  991SOL    HW3 4010   0.503   0.408   1.790  0.5785  0.5748 -0.4062
  991SOL    MW4 4011   0.502   0.417   1.876 -0.0226  0.3307 -0.3896
  992SOL     OW 4012   0.744   0.531   2.004 -0.3121 -0.3146 -0.3444
  992SOL    HW2 4013   0.755   0.515   2.098  1.9086  0.1406 -0.5004
  992SOL    HW3 4014   0.798   0.465   1.962 -0.8365 -0.1416 -1.2903
  992SOL    MW4 4015   0.753   0.520   2.011 -0.0883 -0.2317 -0.4897
  993SOL     OW 4016   0.693   0.783   1.883 -0.6401 -0.5513  0.2519
  993SOL    HW2 4017   0.778   0.820   1.902 -1.2249  0.8454  0.1766
  993SOL    HW3 4018   0.693   0.698   1.927  0.3435 -0.0429  1.2325
  993SOL    MW4 4019   0.704   0.776   1.891 -0.5876 -0.3000  0.3715
  994SOL     OW 4020   0.423   0.863   1.985 -0.0246  0.2245 -0.2245
  994SOL    HW2 4021   0.430   0.954   1.958  1.4659  0.3107  0.4110
  994SOL    HW3 4022   0.499   0.820   1.945 -0.7026 -0.7298 -0.5032
  994SOL    MW4 4023   0.434   0.869   1.976  0.0826  0.1099 -0.1774
  995SOL     OW 4024   0.447   1.116   1.915  0.4059  1.1654 -0.1546
  995SOL    HW2 4025   0.376   1.174   1.943 -2.4315 -0.7989 -2.9823
  995SOL    HW3 4026   0.445   1.119   1.819  2.5648 -0.8378 -0.3224
  995SOL    MW4 4027   0.437   1.124   1.906  0.3164  0.6419 -0.5499
  996SOL     OW 4028   0.691   1.269   1.973  0.0531  0.6222  0.2821
  996SOL    HW2 4029   0.698   1.268   2.069  0.5557 -0.8150  0.2455
  996SOL    HW3 4030   0.628   1.200   1.954  1.6116 -0.6045 -0.5299
  996SOL    MW4 4031   0.684   1.259   1.983  0.3250  0.2707  0.1702
  997SOL     OW 4032   0.678   1.526   1.869  0.0183  0.0684  0.2181
  997SOL    HW2 4033   0.668   1.436   1.902 -0.9527 -0.2678 -0.9617
  997SOL    HW3 4034   0.648   1.521   1.778  1.0348  1.3529 -0.1938
  997SOL    MW4 4035   0.673   1.513   1.861  0.0243  0.1935  0.0080
  998SOL     OW 4036   0.449   1.664   1.984 -0.3598 -0.2801 -0.1674
  998SOL    HW2 4037   0.462   1.661   2.078 -0.1628 -1.1429 -0.2239
  998SOL    HW3 4038   0.528   1.623   1.947 -0.7009 -0.4765 -0.6891
  998SOL    MW4 4039   0.461   1.658   1.991 -0.3788 -0.4197 -0.2437
  999SOL     OW 4040   0.486   1.928   1.886 -0.3824 -0.6542 -0.3240
  999SOL    HW2 4041   0.498   1.836   1.912 -0.4557 -0.4121  0.5628
  999SOL    HW3 4042   0.409   1.957   1.934 -1.7260 -0.7942 -2.3559
  999SOL    MW4 4043   0.478   1.919   1.896 -0.5694 -0.6409 -0.4750
 1000SOL     OW 4044   0.703   2.081   1.994  0.0851  0.3718  0.2839
 1000SOL    HW2 4045   0.682   2.096   2.086 -0.3972  0.9942  0.0728
 1000SOL    HW3 4046   0.623   2.044   1.956  0.6043 -0.8340  0.3363
 1000SOL    MW4 4047   0.690   2.078   2.001  0.0900  0.2949  0.2630
 1001SOL     OW 4048   0.707   2.323   1.885 -0.2135 -0.1325 -0.0036
 1001SOL    HW2 4049   0.701   2.230   1.907  0.0632 -0.0996  0.2120
 1001SOL    HW3 4050   0.664   2.330   1.800 -1.6364 -0.1957  0.6930
 1001SOL    MW4 4051   0.700   2.311   1.877 -0.3648 -0.1366  0.1168
 1002SOL     OW 4052   0.476   2.461   1.978 -0.0869  0.0249 -0.1242
 1002SOL    HW2 4053   0.475   2.453   2.074  1.0354  0.3122 -0.0794
 1002SOL    HW3 4054   0.560   2.425   1.952 -0.1291  0.5121 -0.9540
 1002SOL    MW4 4055   0.487   2.455   1.987  0.0556  0.1271 -0.2278
 1003SOL     OW 4056   0.464   2.707   1.883 -0.1409  0.0562  0.5287
 1003SOL    HW2 4057   0.450   2.619   1.919  0.8619  0.2833  1.5007
 1003SOL    HW3 4058   0.398   2.761   1.926 -0.2697 -0.0724  0.4944
 1003SOL    MW4 4059   0.453   2.703   1.894 -0.0257  0.0691  0.6524
 1004SOL     OW 4060   0.695   2.798   1.980  0.2978 -0.5389 -0.1080
 1004SOL    HW2 4061   0.666   2.796   2.071 -1.7755 -1.7282 -0.7434
 1004SOL    HW3 4062   0.619   2.766   1.931  1.7392 -0.8856 -2.1532
 1004SOL    MW4 4063   0.681   2.793   1.985  0.2143 -0.7412 -0.4616
 1005SOL     OW 4064   0.689   3.082   1.917 -0.0724 -0.1282  0.0068
 1005SOL    HW2 4065   0.695   2.989   1.938 -0.8449 -0.2392 -0.2575
 1005SOL    HW3 4066   0.717   3.089   1.826  2.5805  0.2615  0.7991
 1005SOL    MW4 4067   0.694   3.071   1.908  0.1757 -0.0916  0.0764
 1006SOL     OW 4068   0.455   3.206   2.007  0.5223  0.5041  0.0392
 1006SOL    HW2 4069   0.455   3.293   1.967  1.2624  0.9955  1.0825
 1006SOL    HW3 4070   0.518   3.156   1.955 -0.9095  0.1738 -1.4136
 1006SOL    MW4 4071   0.463   3.211   1.995  0.4310  0.5255 -0.0145
 1007SOL     OW 4072   0.445   3.465   1.916  0.1731  0.0810 -0.1146
 1007SOL    HW2 4073   0.516   3.525   1.938  1.0813 -0.8922 -0.3884
 1007SOL    HW3 4074   0.456   3.447   1.823 -0.3388 -0.2077 -0.1236
 1007SOL    MW4 4075   0.456   3.471   1.906  0.2254 -0.0854 -0.1519
 1008SOL     OW 4076   0.659   3.608   1.989 -0.7425  0.0577  0.0572
 1008SOL    HW2 4077   0.752   3.589   1.977 -0.5515 -0.8439  2.6201
 1008SOL    HW3 4078   0.650   3.701   1.969  0.9737  0.4639  1.0952
 1008SOL    MW4 4079   0.670   3.618   1.985 -0.4908 -0.0074  0.5323
 1009SOL     OW 4080   0.673   3.892   1.907  0.1572 -0.1137  0.2607
 1009SOL    HW2 4081   0.763   3.918   1.929 -0.4065  1.4707  0.7937
 1009SOL    HW3 4082   0.663   3.913   1.814  0.1142  0.3894  0.3777
 1009SOL    MW4 4083   0.684   3.899   1.898  0.0772  0.1619  0.3464
 1010SOL     OW 4084   0.439   4.004   2.011 -0.2826 -0.2908  0.0035
 1010SOL    HW2 4085   0.446   4.094   1.979 -0.6605 -0.0585  0.5755
 1010SOL    HW3 4086   0.516   3.960   1.976 -1.4655 -0.4440 -2.6093
 1010SOL    MW4 4087   0.450   4.010   2.002 -0.4885 -0.2804 -0.2656
 1011SOL     OW 4088   0.479   4.243   1.882 -0.4587  0.4735 -0.1865
 1011SOL    HW2 4089   0.393   4.271   1.912 -1.4564 -2.4691 -0.2040
 1011SOL    HW3 4090   0.472   4.238   1.787 -0.3329 -0.0444 -0.1671
 1011SOL    MW4 4091   0.467   4.246   1.874 -0.5738  0.0172 -0.1862
 1012SOL     OW 4092   0.691   4.366   2.007  0.2279 -0.4303  0.0907
 1012SOL    HW2 4093   0.765   4.329   1.959  0.6907  0.3475  0.2128
 1012SOL    HW3 4094   0.615   4.322   1.970  0.7171 -0.9476 -0.3017
 1012SOL    MW4 4095   0.691   4.355   1.996  0.3536 -0.3958  0.0551
 1013SOL     OW 4096   1.103   0.002   1.860  0.3624  0.0415 -0.8125
 1013SOL    HW2 4097   1.184   0.028   1.903  0.8095 -0.2425 -1.4695
 1013SOL    HW3 4098   1.079  -0.081   1.901 -0.2436  0.7143  0.2180
 1013SOL    MW4 4099   1.111  -0.006   1.871  0.3415  0.0930 -0.7632
 1014SOL     OW 4100   0.911   0.148   1.991 -0.4539 -0.1423  0.0005
 1014SOL    HW2 4101   0.978   0.098   1.946  0.3640 -0.3082  1.3603
 1014SOL    HW3 4102   0.832   0.094   1.987 -0.0654 -0.6943 -0.1652
 1014SOL    MW4 4103   0.909   0.135   1.985 -0.2947 -0.2370  0.1581
 1015SOL     OW 4104   0.905   0.384   1.841  0.0792  0.7486  0.5584
 1015SOL    HW2 4105   0.981   0.432   1.873  1.3468 -0.1700 -0.9827
 1015SOL    HW3 4106   0.919   0.295   1.873  0.9572  0.0028 -1.7897
 1015SOL    MW4 4107   0.917   0.378   1.849  0.3623  0.5290  0.0453
 1016SOL     OW 4108   1.121   0.495   1.973 -0.5874  0.1178  0.7337
 1016SOL    HW2 4109   1.198   0.445   1.945 -1.2286 -0.8819  0.7563
 1016SOL    HW3 4110   1.144   0.586   1.954  0.9870 -0.0843  1.6333
 1016SOL    MW4 4111   1.134   0.501   1.966 -0.4644 -0.0408  0.8553
 1017SOL     OW 4112   1.165   0.747   1.874  0.1172 -0.1163 -0.0492
 1017SOL    HW2 4113   1.233   0.807   1.903 -1.0724  0.1101  2.4039
 1017SOL    HW3 4114   1.083   0.783   1.910 -0.7816 -2.4442  0.3315
 1017SOL    MW4 4115   1.163   0.759   1.883 -0.1582 -0.3935  0.3247
 1018SOL     OW 4116   0.936   0.886   1.982 -0.0871  0.1483 -0.2001
 1018SOL    HW2 4117   0.933   0.899   2.077  0.5477 -0.7410 -0.0475
 1018SOL    HW3 4118   0.935   0.975   1.946  0.0038  0.5032  0.6504
 1018SOL    MW4 4119   0.936   0.900   1.990  0.0087  0.0778 -0.0678
 1019SOL     OW 4120   0.917   1.156   1.907  0.5448 -0.1888 -0.4612
 1019SOL    HW2 4121   0.828   1.181   1.933  0.2863 -0.2450 -1.2672
 1019SOL    HW3 4122   0.918   1.168   1.812  1.9926  1.6580 -0.2396
 1019SOL    MW4 4123   0.906   1.161   1.898  0.7017  0.0473 -0.5383
 1020SOL     OW 4124   1.138   1.265   2.034 -0.1825  0.0345  0.0437
 1020SOL    HW2 4125   1.135   1.354   1.999 -1.3459  0.4190  1.0928
 1020SOL    HW3 4126   1.066   1.220   1.991 -0.9833  0.2253  1.1666
 1020SOL    MW4 4127   1.128   1.271   2.024 -0.4414  0.1104  0.3302
 1021SOL     OW 4128   1.149   1.537   1.919 -0.7059  0.3235 -0.3189
 1021SOL    HW2 4129   1.061   1.565   1.942 -0.5774 -0.6198  1.4333
 1021SOL    HW3 4130   1.156   1.555   1.825 -2.2631  1.6808 -0.2039
 1021SOL    MW4 4131   1.138   1.543   1.910 -0.8945  0.3780 -0.0724
 1022SOL     OW 4132   0.910   1.640   2.003 -0.2370 -0.0661  0.4741
 1022SOL    HW2 4133   0.911   1.729   1.966  3.0491 -0.0922  0.3574
 1022SOL    HW3 4134   0.839   1.596   1.956 -0.5350  1.8808 -0.9943
 1022SOL    MW4 4135   0.901   1.646   1.992  0.1572  0.1874  0.2651
 1023SOL     OW 4136   0.898   1.894   1.881  0.4769 -0.1047  0.1327
 1023SOL    HW2 4137   0.834   1.954   1.918 -0.4743 -1.5405  0.8475
 1023SOL    HW3 4138   0.884   1.899   1.786 -1.6565 -1.4169  0.3366
 1023SOL    MW4 4139   0.888   1.903   1.873  0.0699 -0.4672  0.2539
 1024SOL     OW 4140   1.139   2.006   1.979 -0.3191  0.3478 -0.7055
 1024SOL    HW2 4141   1.129   2.100   1.965 -0.7026  0.5903  1.0431
 1024SOL    HW3 4142   1.057   1.969   1.948 -0.5480  0.6989 -0.5269
 1024SOL    MW4 4143   1.127   2.014   1.973 -0.3998  0.4261 -0.4512
 1025SOL     OW 4144   1.148   2.297   1.919  0.2320 -0.0136 -0.3968
 1025SOL    HW2 4145   1.218   2.358   1.941  0.8010 -0.3747 -1.1830
 1025SOL    HW3 4146   1.161   2.278   1.826 -0.5590 -0.5326 -0.4083
 1025SOL    MW4 4147   1.159   2.302   1.910  0.2028 -0.1297 -0.5021
 1026SOL     OW 4148   0.927   2.445   2.006 -0.0712  0.1446  0.1867
 1026SOL    HW2 4149   0.997   2.383   1.987 -0.4845 -0.2181 -0.1735
 1026SOL    HW3 4150   0.847   2.401   1.975 -0.2380  1.3154 -1.0850
 1026SOL    MW4 4151   0.925   2.431   2.000 -0.1478  0.2511 -0.0285
 1027SOL     OW 4152   0.925   2.684   1.877 -0.4430  0.2706  0.0148
 1027SOL    HW2 4153   0.940   2.596   1.911 -1.1127  0.1128 -0.1046
 1027SOL    HW3 4154   0.849   2.716   1.926 -0.8499  0.3864 -0.6968
 1027SOL    MW4 4155   0.917   2.677   1.888 -0.5851  0.2649 -0.0948
 1028SOL     OW 4156   1.132   2.857   1.996 -0.0671 -0.0205  0.3030
 1028SOL    HW2 4157   1.116   2.847   2.090 -1.2825  1.5361  0.2851
 1028SOL    HW3 4158   1.078   2.789   1.956 -2.3127  1.5415  0.5725
 1028SOL    MW4 4159   1.123   2.846   2.003 -0.5237  0.3908  0.3362
 1029SOL     OW 4160   1.095   3.124   1.901 -0.6720 -0.2487 -0.5583
 1029SOL    HW2 4161   1.006   3.156   1.911 -0.2226  0.3748  1.7077
 1029SOL    HW3 4162   1.091   3.032   1.926 -0.7716 -0.3506 -0.9468
 1029SOL    MW4 4163   1.083   3.116   1.905 -0.6258 -0.1800 -0.3107
 1030SOL     OW 4164   0.861   3.280   2.030 -0.2385  0.4345  0.2022
 1030SOL    HW2 4165   0.883   3.260   2.121 -0.0777  0.6452  0.2090
 1030SOL    HW3 4166   0.807   3.206   2.002  1.8424 -0.9416 -0.3233
 1030SOL    MW4 4167   0.856   3.268   2.039  0.0573  0.2806  0.1335
 1031SOL     OW 4168   0.888   3.528   1.881 -0.4182  0.0975  0.0128
 1031SOL    HW2 4169   0.879   3.437   1.911  0.0984  0.0517  0.0284
 1031SOL    HW3 4170   0.892   3.521   1.786 -0.0206  0.0751  0.0316
 1031SOL    MW4 4171   0.887   3.515   1.872 -0.2977  0.0882  0.0174
 1032SOL     OW 4172   1.137   3.616   1.982  0.1238 -0.3194  0.4777
 1032SOL    HW2 4173   1.126   3.604   2.076 -0.0268  1.0541  0.6430
 1032SOL    HW3 4174   1.051   3.597   1.945  0.5619 -2.3532  0.4489
 1032SOL    MW4 4175   1.124   3.612   1.989  0.1618 -0.4065  0.4957
 1033SOL     OW 4176   1.159   3.880   1.901  0.5227  0.2135 -0.3992
 1033SOL    HW2 4177   1.178   3.794   1.939  1.1917  0.0601 -1.0506
 1033SOL    HW3 4178   1.146   3.863   1.808 -0.5299  0.6606 -0.3385
 1033SOL    MW4 4179   1.160   3.867   1.894  0.4721  0.2522 -0.4771
 1034SOL     OW 4180   0.932   4.013   1.980  0.1495  0.2366  0.1413
 1034SOL    HW2 4181   0.914   4.002   2.073  0.3910 -0.1242  0.1455
 1034SOL    HW3 4182   1.004   3.953   1.962 -0.0197  0.1702 -0.3217
 1034SOL    MW4 4183   0.939   4.004   1.990  0.1590  0.1802  0.0807
 1035SOL     OW 4184   0.913   4.243   1.859 -0.3351  0.1750 -0.0116
 1035SOL    HW2 4185   0.982   4.303   1.889  0.0838 -0.2789 -0.0544
 1035SOL    HW3 4186   0.930   4.162   1.908 -0.6788 -0.0221 -0.2210
 1035SOL    MW4 4187   0.924   4.240   1.870 -0.3251  0.0892 -0.0449
 1036SOL     OW 4188   1.100   4.432   1.983  0.1317  0.1535 -0.3675
 1036SOL    HW2 4189   1.109   4.419   2.077 -0.3013 -0.2017 -0.3741
 1036SOL    HW3 4190   1.180   4.394   1.945  0.6975  1.0552 -0.0788
 1036SOL    MW4 4191   1.111   4.425   1.990  0.1493  0.2260 -0.3302
 1037SOL     OW 4192   1.585   4.654   1.861  0.2334 -0.3547 -0.6815
 1037SOL    HW2 4193   1.655   4.706   1.900 -0.8280  0.2775  0.4205
 1037SOL    HW3 4194   1.584   4.572   1.911 -0.5206  0.0777  0.0158
 1037SOL    MW4 4195   1.594   4.650   1.873 -0.0062 -0.2141 -0.4442
 1038SOL     OW 4196   1.341   0.110   1.974  0.2046 -0.1595 -0.2126
 1038SOL    HW2 4197   1.324   0.104   2.068  0.8596 -1.3937 -0.1563
 1038SOL    HW3 4198   1.427   0.068   1.963  0.9748  1.6159 -1.1161
 1038SOL    MW4 4199   1.350   0.104   1.985  0.3928 -0.0881 -0.3244
 1039SOL     OW 4200   1.341   0.367   1.877  0.5391 -0.0980 -0.7414
 1039SOL    HW2 4201   1.335   0.278   1.912  0.9798  0.1028 -0.1316
 1039SOL    HW3 4202   1.340   0.356   1.782  2.1651 -0.8754 -0.6847
 1039SOL    MW4 4203   1.340   0.354   1.869  0.8118 -0.1741 -0.6534
 1040SOL     OW 4204   1.551   0.505   2.026 -0.1390 -0.3748 -0.1139
 1040SOL    HW2 4205   1.623   0.476   1.970  0.7267 -1.4462  1.5076
 1040SOL    HW3 4206   1.475   0.459   1.991  0.0956  0.1576 -1.3535
 1040SOL    MW4 4207   1.550   0.495   2.014  0.0062 -0.4459 -0.0637
 1041SOL     OW 4208   1.563   0.737   1.889 -0.4701 -0.3417  0.2763
 1041SOL    HW2 4209   1.645   0.767   1.927 -1.8330  1.1918  2.1425
 1041SOL    HW3 4210   1.537   0.662   1.943 -0.7267 -0.2794  0.2424
 1041SOL    MW4 4211   1.570   0.731   1.901 -0.6838 -0.1312  0.5181
 1042SOL     OW 4212   1.365   0.913   1.976 -0.4068 -0.2221 -0.1550
 1042SOL    HW2 4213   1.377   0.917   2.071 -0.5996 -1.1252 -0.0878
 1042SOL    HW3 4214   1.437   0.857   1.946  1.0748  1.9841 -0.8242
 1042SOL    MW4 4215   1.376   0.906   1.985 -0.2367 -0.0502 -0.2344
 1043SOL     OW 4216   1.353   1.176   1.855 -0.1194 -0.4946 -0.3669
 1043SOL    HW2 4217   1.383   1.102   1.908  1.5110  0.6885  0.4108
 1043SOL    HW3 4218   1.280   1.213   1.905  0.4777 -0.2580  0.3372
 1043SOL    MW4 4219   1.347   1.171   1.869  0.1745 -0.3072 -0.1715
 1044SOL     OW 4220   1.579   1.309   1.974  0.0173  0.2247 -0.5391
 1044SOL    HW2 4221   1.605   1.390   1.929  0.2694  0.4765  0.0513
 1044SOL    HW3 4222   1.491   1.290   1.940 -0.9346  1.9064  0.8566
 1044SOL    MW4 4223   1.571   1.317   1.964 -0.0751  0.4799 -0.2770
 1045SOL     OW 4224   1.639   1.552   1.874  0.5745  0.0914  0.3981
 1045SOL    HW2 4225   1.710   1.586   1.928  0.5035 -0.6983  0.9937
 1045SOL    HW3 4226   1.560   1.592   1.910  0.7293  1.1639 -0.4197
 1045SOL    MW4 4227   1.638   1.562   1.886  0.5854  0.1289  0.3688
 1046SOL     OW 4228   1.396   1.652   2.006  0.1947  0.0390  0.2139
 1046SOL    HW2 4229   1.398   1.654   2.101 -0.6929  1.8322  0.2144
 1046SOL    HW3 4230   1.311   1.614   1.984  0.2846 -0.1159  0.1302
 1046SOL    MW4 4231   1.385   1.647   2.016  0.0895  0.2552  0.2031
 1047SOL     OW 4232   1.380   1.904   1.890 -0.4219  0.3094  0.2999
 1047SOL    HW2 4233   1.399   1.821   1.933 -0.2876 -0.1656 -0.6648
 1047SOL    HW3 4234   1.300   1.935   1.931 -0.2681 -0.1059  0.9276
 1047SOL    MW4 4235   1.372   1.897   1.901 -0.3839  0.1919  0.2553
 1048SOL     OW 4236   1.575   2.065   2.022  0.1107  0.3836 -0.1346
 1048SOL    HW2 4237   1.579   2.153   1.987 -0.0267 -0.2299 -1.7246
 1048SOL    HW3 4238   1.497   2.026   1.981  0.6827 -0.7622 -0.1667
 1048SOL    MW4 4239   1.565   2.071   2.012  0.1680  0.1516 -0.3486
 1049SOL     OW 4240   1.557   2.315   1.940 -0.0099  0.2406 -0.0166
 1049SOL    HW2 4241   1.643   2.352   1.964 -0.5452  1.4567  0.0674
 1049SOL    HW3 4242   1.555   2.319   1.845  0.0487  0.1722 -0.0204
 1049SOL    MW4 4243   1.568   2.321   1.931 -0.0727  0.3920 -0.0061
 1050SOL     OW 4244   1.343   2.710   1.868 -0.3345 -0.1393  0.3076
 1050SOL    HW2 4245   1.283   2.757   1.927 -1.6718 -2.5177  0.9218
 1050SOL    HW3 4246   1.353   2.623   1.909  1.8433 -0.5045 -0.9363
 1050SOL    MW4 4247   1.336   2.704   1.881 -0.2236 -0.5014  0.2245
 1051SOL     OW 4248   1.355   2.708   1.593 -0.0815 -0.2275  0.4607
 1051SOL    HW2 4249   1.338   2.722   1.686 -1.0915 -0.3537  0.2971
 1051SOL    HW3 4250   1.301   2.773   1.549  0.2802 -0.2701 -0.0460
 1051SOL    MW4 4251   1.346   2.718   1.599 -0.1669 -0.2496  0.3722
 1052SOL     OW 4252   1.552   2.836   2.003  0.2195 -0.3902 -0.1639
 1052SOL    HW2 4253   1.635   2.800   1.972 -0.3961 -0.7395 -1.4308
 1052SOL    HW3 4254   1.485   2.789   1.953 -0.8802 -1.9665  2.6368
 1052SOL    MW4 4255   1.554   2.825   1.993 -0.0069 -0.6442  0.0383
 1053SOL     OW 4256   1.551   3.092   1.925 -0.1537 -0.3956 -0.1640
 1053SOL    HW2 4257   1.544   3.000   1.952 -0.0506 -0.9195 -1.8912
 1053SOL    HW3 4258   1.540   3.090   1.830 -1.1617  1.5005 -0.0942
 1053SOL    MW4 4259   1.549   3.079   1.916 -0.2731 -0.2143 -0.3827
 1054SOL     OW 4260   1.335   3.244   2.029 -0.0532  0.1316 -0.0891
 1054SOL    HW2 4261   1.413   3.193   2.008 -0.1883  0.7357 -2.2027
 1054SOL    HW3 4262   1.265   3.200   1.981 -0.5377  1.1163 -0.2985
 1054SOL    MW4 4263   1.336   3.231   2.020 -0.1348  0.3412 -0.3958
 1055SOL     OW 4264   1.357   3.475   1.893 -0.0093  1.1574  0.5417
 1055SOL    HW2 4265   1.356   3.395   1.945 -1.6758  0.0460 -1.1316
 1055SOL    HW3 4266   1.282   3.526   1.925 -2.2393 -0.3974 -1.9835
 1055SOL    MW4 4267   1.347   3.471   1.904 -0.5233  0.8056 -0.0122
 1056SOL     OW 4268   1.585   3.598   1.998  0.0597  0.3219  0.1908
 1056SOL    HW2 4269   1.580   3.606   2.093  2.7185 -1.9086  0.5917
 1056SOL    HW3 4270   1.512   3.540   1.976 -0.8970  1.2740  0.7704
 1056SOL    MW4 4271   1.575   3.591   2.008  0.2844  0.1531  0.3204
 1057SOL     OW 4272   1.584   3.853   1.926  0.4612  0.2708 -0.1691
 1057SOL    HW2 4273   1.662   3.895   1.961  0.8972  0.5443 -1.4218
 1057SOL    HW3 4274   1.599   3.760   1.937  0.7205  0.3450  0.0997
 1057SOL    MW4 4275   1.596   3.847   1.932  0.5529  0.3169 -0.2989
 1058SOL     OW 4276   1.390   4.031   2.004 -0.7396  0.6615 -0.2066
 1058SOL    HW2 4277   1.459   3.966   2.009 -1.6416 -0.2399  0.6680
 1058SOL    HW3 4278   1.323   3.991   1.948 -0.2841  1.7977 -1.6073
 1058SOL    MW4 4279   1.390   4.017   1.997 -0.7985  0.6924 -0.2759
 1059SOL     OW 4280   1.338   4.300   1.894  0.2001  0.8681  0.4474
 1059SOL    HW2 4281   1.360   4.215   1.932 -0.0440  1.8469  2.8832
 1059SOL    HW3 4282   1.321   4.281   1.802  0.6548 -1.6304  0.8240
 1059SOL    MW4 4283   1.339   4.286   1.887  0.2279  0.6676  0.8185
 1060SOL     OW 4284   1.601   4.396   1.971  0.1421 -0.0602 -0.6244
 1060SOL    HW2 4285   1.590   4.401   2.066  0.7654 -0.1692 -0.5441
 1060SOL    HW3 4286   1.515   4.370   1.938 -0.3889  1.1240 -0.1958
 1060SOL    MW4 4287   1.588   4.393   1.979  0.1543  0.0811 -0.5571
 1061SOL     OW 4288   2.011   4.666   1.933 -0.2021  0.7121 -0.6341
 1061SOL    HW2 4289   2.096   4.706   1.954  0.2726  0.0296 -1.2507
 1061SOL    HW3 4290   2.021   4.574   1.959 -0.9518  0.7551 -0.1695
 1061SOL    MW4 4291   2.024   4.659   1.940 -0.2384  0.6280 -0.6541
 1062SOL     OW 4292   1.778   0.136   1.968  0.1106 -0.3646  0.4545
 1062SOL    HW2 4293   1.776   0.135   2.063  0.3063 -1.1544  0.4544
 1062SOL    HW3 4294   1.861   0.093   1.945 -1.1866 -2.6746 -0.0998
 1062SOL    MW4 4295   1.789   0.130   1.977 -0.0348 -0.7736  0.3814
 1063SOL     OW 4296   1.773   0.397   1.885  0.1489 -0.6312  0.3278
 1063SOL    HW2 4297   1.782   0.307   1.917 -0.1283 -0.3194  1.2721
 1063SOL    HW3 4298   1.798   0.391   1.792  1.0830 -1.5006  0.6228
 1063SOL    MW4 4299   1.778   0.384   1.877  0.2356 -0.7048  0.4914
 1064SOL     OW 4300   2.007   0.476   2.010  0.6337  0.1559 -0.0273
 1064SOL    HW2 4301   2.017   0.571   2.000  0.7560  0.0666 -0.7784
 1064SOL    HW3 4302   1.922   0.457   1.970  0.5096 -0.0262  0.3165
 1064SOL    MW4 4303   1.997   0.486   2.003  0.6336  0.1201 -0.0811
 1065SOL     OW 4304   2.020   0.727   1.949 -0.0590 -0.6144 -0.2615
 1065SOL    HW2 4305   2.089   0.778   1.991  0.3471 -1.2682 -0.1353
 1065SOL    HW3 4306   2.025   0.751   1.857 -1.6068  1.5914  0.1678
 1065SOL    MW4 4307   2.029   0.737   1.942 -0.2100 -0.4097 -0.1884
 1066SOL     OW 4308   1.787   0.864   2.021 -0.2743  0.0203 -0.1361
 1066SOL    HW2 4309   1.807   0.954   1.995 -0.2885 -0.3207 -1.3556
 1066SOL    HW3 4310   1.868   0.816   2.005 -0.6251 -0.4178 -0.5845
 1066SOL    MW4 4311   1.801   0.870   2.016 -0.3223 -0.0826 -0.3560
 1067SOL     OW 4312   1.812   1.144   1.927  0.0179 -0.3592  0.2505
 1067SOL    HW2 4313   1.731   1.189   1.953  0.5381 -0.3380  1.8498
 1067SOL    HW3 4314   1.808   1.142   1.831 -1.2812  0.7485  0.2662
 1067SOL    MW4 4315   1.800   1.150   1.917 -0.0848 -0.2104  0.4635
 1068SOL     OW 4316   2.042   1.251   2.026 -0.1340  0.1299 -0.3134
 1068SOL    HW2 4317   2.115   1.196   1.999  0.3962  1.2723 -1.2984
 1068SOL    HW3 4318   1.967   1.216   1.979  0.3368  0.6626 -1.4889
 1068SOL    MW4 4319   2.042   1.239   2.016 -0.0021  0.3508 -0.5987
 1069SOL     OW 4320   2.070   1.498   1.925 -0.0041  0.3733 -0.3733
 1069SOL    HW2 4321   2.070   1.417   1.976 -2.1573  0.5820  0.0099
 1069SOL    HW3 4322   2.052   1.470   1.835 -0.6335  0.3896 -0.2594
 1069SOL    MW4 4323   2.067   1.483   1.920 -0.3712  0.4030 -0.3077
 1070SOL     OW 4324   1.866   1.678   2.016 -0.1062  0.0695 -0.2110
 1070SOL    HW2 4325   1.843   1.757   1.968  1.3078  0.8306  0.3388
 1070SOL    HW3 4326   1.933   1.636   1.963 -0.5526 -0.5447 -0.2913
 1070SOL    MW4 4327   1.872   1.683   2.003  0.0215  0.0888 -0.1490
 1071SOL     OW 4328   1.810   1.941   1.932 -0.6390  0.6350 -0.0390
 1071SOL    HW2 4329   1.726   1.969   1.969 -1.3664 -0.6342 -0.7116
 1071SOL    HW3 4330   1.797   1.945   1.837 -0.6531 -1.6388 -0.1498
 1071SOL    MW4 4331   1.797   1.945   1.924 -0.7368  0.1674 -0.1423
 1072SOL     OW 4332   2.052   2.062   2.012 -0.2291 -0.0388 -0.3238
 1072SOL    HW2 4333   2.122   2.007   1.976 -0.0259 -0.6646  0.9918
 1072SOL    HW3 4334   1.972   2.015   1.990 -0.1521 -0.0892 -0.5064
 1072SOL    MW4 4335   2.051   2.049   2.004 -0.1926 -0.1283 -0.1743
 1073SOL     OW 4336   2.033   2.332   1.892  0.3593 -0.7167 -0.2437
 1073SOL    HW2 4337   2.104   2.389   1.922 -0.2014 -1.1046  1.8939
 1073SOL    HW3 4338   2.050   2.248   1.934 -0.3833 -1.3252 -1.1432
 1073SOL    MW4 4339   2.044   2.328   1.901  0.1874 -0.8481 -0.0805
 1074SOL     OW 4340   1.798   2.434   2.026  0.1570 -0.1340  0.0874
 1074SOL    HW2 4341   1.812   2.438   2.120  2.1805  0.7869 -0.2224
 1074SOL    HW3 4342   1.882   2.404   1.990 -0.2525  0.5177 -1.4847
 1074SOL    MW4 4343   1.811   2.431   2.034  0.3699  0.0734 -0.1612
 1075SOL     OW 4344   1.785   2.701   1.923 -0.1064  0.1539  0.5776
 1075SOL    HW2 4345   1.802   2.615   1.962  1.3276  0.3400  0.3620
 1075SOL    HW3 4346   1.778   2.684   1.829  1.1644  0.4158  0.4316
 1075SOL    MW4 4347   1.786   2.687   1.916  0.2506  0.2131  0.5299
 1076SOL     OW 4348   2.020   2.832   1.994 -0.3914 -0.0077 -0.4480
 1076SOL    HW2 4349   2.011   2.842   2.089  1.3327  0.5980 -0.3193
 1076SOL    HW3 4350   1.940   2.788   1.967 -1.2401  0.4692  1.1878
 1076SOL    MW4 4351   2.008   2.827   2.003 -0.2761  0.1352 -0.2153
 1077SOL     OW 4352   2.011   3.073   1.866  0.2476  0.7569  0.4199
 1077SOL    HW2 4353   1.952   3.127   1.918  1.0013  0.9174  1.1349
 1077SOL    HW3 4354   2.011   2.988   1.910  0.0104  0.5452  0.0130
 1077SOL    MW4 4355   2.004   3.069   1.879  0.3159  0.7503  0.4605
 1078SOL     OW 4356   1.800   3.176   2.010 -0.0178 -0.1731  0.3818
 1078SOL    HW2 4357   1.785   3.187   2.104 -1.4457  0.8454  0.0556
 1078SOL    HW3 4358   1.720   3.134   1.977  0.2603 -0.0561 -0.4554
 1078SOL    MW4 4359   1.787   3.172   2.018 -0.1696 -0.0234  0.2284
 1079SOL     OW 4360   1.836   3.470   1.955  0.1476  0.0545 -0.1332
 1079SOL    HW2 4361   1.814   3.378   1.967  1.5185 -0.4022 -0.9259
 1079SOL    HW3 4362   1.752   3.514   1.941 -0.5125 -1.0668  0.2654
 1079SOL    MW4 4363   1.822   3.464   1.955  0.2414 -0.1538 -0.1851
 1080SOL     OW 4364   2.039   3.597   2.095 -0.0821 -0.3627 -0.2470
 1080SOL    HW2 4365   2.031   3.678   2.044  1.7616 -1.5541 -2.5546
 1080SOL    HW3 4366   1.976   3.537   2.055 -0.5305 -0.4738  0.6234
 1080SOL    MW4 4367   2.030   3.600   2.083  0.1020 -0.5345 -0.4363
 1081SOL     OW 4368   2.013   3.827   1.898  0.0397  0.0349 -0.1441
 1081SOL    HW2 4369   2.098   3.867   1.918 -1.0066  3.1744 -1.5535
 1081SOL    HW3 4370   2.012   3.820   1.803 -0.9613 -0.6915 -0.0826
 1081SOL    MW4 4371   2.024   3.832   1.888 -0.2306  0.3531 -0.3220
 1082SOL     OW 4372   1.809   3.994   2.026  0.7762 -0.3389 -0.0576
 1082SOL    HW2 4373   1.800   4.083   1.993  1.9605 -0.3266 -0.3776
 1082SOL    HW3 4374   1.892   3.963   1.990  1.1639 -0.9992  1.3349
 1082SOL    MW4 4375   1.819   4.001   2.017  0.9836 -0.4239  0.0837
 1083SOL     OW 4376   1.815   4.235   1.898  0.2751 -0.2627  0.3168
 1083SOL    HW2 4377   1.739   4.285   1.928  0.4700 -0.2455  0.7899
 1083SOL    HW3 4378   1.814   4.243   1.803 -0.5754 -0.6414  0.2897
 1083SOL    MW4 4379   1.805   4.242   1.890  0.1886 -0.3104  0.3757
 1084SOL     OW 4380   2.045   4.394   1.985 -0.0567  0.0759 -0.5158
 1084SOL    HW2 4381   2.121   4.340   1.966  0.9887  1.2485  0.2913
 1084SOL    HW3 4382   1.970   4.337   1.967  0.9971 -0.9811 -1.6238
 1084SOL    MW4 4383   2.045   4.380   1.980  0.2203  0.0916 -0.5554
 1085SOL     OW 4384   2.466   4.629   1.868 -0.5249 -0.3762 -0.0507
 1085SOL    HW2 4385   2.546   4.668   1.905 -0.8519  0.3523 -0.1015
 1085SOL    HW3 4386   2.458   4.545   1.912 -0.3351  0.0321  0.7872
 1085SOL    MW4 4387   2.476   4.623   1.879 -0.5429 -0.2265  0.0532
 1086SOL     OW 4388   2.261   0.108   1.975  0.0404  0.1134 -0.5226
 1086SOL    HW2 4389   2.273   0.107   2.070 -2.1761 -1.7695 -0.2050
 1086SOL    HW3 4390   2.334   0.057   1.942 -0.0127 -0.5262  0.3144
 1086SOL    MW4 4391   2.272   0.101   1.983 -0.2589 -0.2194 -0.3703
 1087SOL     OW 4392   2.223   0.364   1.876 -0.4777 -0.2565  0.0392
 1087SOL    HW2 4393   2.245   0.278   1.912 -0.5311  0.3103  1.4722
 1087SOL    HW3 4394   2.149   0.394   1.929 -0.9786  0.3290 -0.9787
 1087SOL    MW4 4395   2.216   0.356   1.887 -0.5512 -0.1045  0.0941
 1088SOL     OW 4396   2.439   0.508   1.973  0.1009 -0.4398 -0.3925
 1088SOL    HW2 4397   2.511   0.452   1.945  0.8582 -0.4006  1.4445
 1088SOL    HW3 4398   2.360   0.463   1.943  0.6677 -2.7407  1.4746
 1088SOL    MW4 4399   2.438   0.495   1.965  0.2756 -0.7381  0.0962
 1089SOL     OW 4400   2.478   0.794   1.955  0.4072 -0.5652 -0.1479
 1089SOL    HW2 4401   2.471   0.700   1.974  0.4331 -0.5323  0.0284
 1089SOL    HW3 4402   2.460   0.801   1.862  0.7731 -0.7892 -0.2368
 1089SOL    MW4 4403   2.474   0.782   1.945  0.4587 -0.5904 -0.1364
 1090SOL     OW 4404   2.238   0.873   2.067  0.2674  0.0779  0.1664
 1090SOL    HW2 4405   2.258   0.868   2.160  0.0885  0.3756  0.2219
 1090SOL    HW3 4406   2.318   0.842   2.024 -0.0253 -1.0590  0.4334
 1090SOL    MW4 4407   2.251   0.868   2.073  0.2053 -0.0328  0.2089
 1091SOL     OW 4408   2.260   1.097   1.934 -0.1801  0.1439  0.7295
 1091SOL    HW2 4409   2.337   1.140   1.973 -0.2545  0.5937  0.3833
 1091SOL    HW3 4410   2.252   1.015   1.982  1.5717 -0.7244 -0.4311
 1091SOL    MW4 4411   2.269   1.092   1.946  0.0408  0.0888  0.5307
 1092SOL     OW 4412   2.482   1.249   1.991 -0.2266 -0.2545 -0.0117
 1092SOL    HW2 4413   2.478   1.259   2.086  0.3404  1.5503 -0.1530
 1092SOL    HW3 4414   2.469   1.338   1.958 -1.7805 -1.0754 -1.6710
 1092SOL    MW4 4415   2.480   1.262   1.999 -0.3567 -0.1246 -0.2491
 1093SOL     OW 4416   2.508   1.510   1.903  0.1313  0.2153  0.5772
 1093SOL    HW2 4417   2.430   1.553   1.940  1.5349  2.4602  1.0068
 1093SOL    HW3 4418   2.518   1.549   1.817 -0.1318 -1.2694 -0.1505
 1093SOL    MW4 4419   2.499   1.521   1.897  0.2818  0.3157  0.5379
 1094SOL     OW 4420   2.289   1.636   2.011 -0.1536  0.0135  0.1451
 1094SOL    HW2 4421   2.288   1.641   2.107 -2.0269 -0.0825  0.1532
 1094SOL    HW3 4422   2.207   1.591   1.989  1.1367 -1.6626 -1.4119
 1094SOL    MW4 4423   2.278   1.630   2.021 -0.2308 -0.2202 -0.0591
 1095SOL     OW 4424   2.227   1.891   1.897  0.1134 -0.3293  0.0865
 1095SOL    HW2 4425   2.306   1.935   1.928  0.4751 -0.5729 -0.4768
 1095SOL    HW3 4426   2.241   1.799   1.918 -0.6230 -0.2027  1.2210
 1095SOL    MW4 4427   2.239   1.885   1.904  0.0639 -0.3448  0.1618
 1096SOL     OW 4428   2.451   2.062   1.987  0.1201 -0.6369 -0.4149
 1096SOL    HW2 4429   2.535   2.024   1.964  0.8541  0.6640  0.0579
 1096SOL    HW3 4430   2.457   2.153   1.958 -1.0010 -0.4478 -0.0944
 1096SOL    MW4 4431   2.463   2.069   1.980  0.0691 -0.4404 -0.3101
 1097SOL     OW 4432   2.469   2.314   1.872  0.0173  0.2312 -0.2419
 1097SOL    HW2 4433   2.543   2.361   1.909  0.9297 -2.1456  1.0511
 1097SOL    HW3 4434   2.393   2.344   1.922  0.6013  0.2944  0.6184
 1097SOL    MW4 4435   2.469   2.324   1.883  0.2148 -0.0741  0.0421
 1098SOL     OW 4436   2.265   2.442   2.017  0.1031 -0.0205  0.2069
 1098SOL    HW2 4437   2.249   2.440   2.112  1.4041  0.7725  0.4537
 1098SOL    HW3 4438   2.269   2.535   1.996 -1.8805 -0.1737 -0.9420
 1098SOL    MW4 4439   2.263   2.454   2.027  0.0134  0.0639  0.0882
 1099SOL     OW 4440   2.252   2.716   1.903  0.0716 -0.2801  0.0119
 1099SOL    HW2 4441   2.170   2.754   1.934  0.1895 -0.0108 -0.0068
 1099SOL    HW3 4442   2.237   2.700   1.809  0.2257  0.2596 -0.1044
 1099SOL    MW4 4443   2.239   2.719   1.894  0.1075 -0.1733 -0.0058
 1100SOL     OW 4444   2.475   2.821   2.035  0.1893 -0.1145  0.0855
 1100SOL    HW2 4445   2.473   2.911   2.005 -1.0463 -0.0521  0.3388
 1100SOL    HW3 4446   2.406   2.777   1.985  0.2504 -0.7330  0.5350
 1100SOL    MW4 4447   2.466   2.827   2.025  0.0343 -0.1879  0.1783
 1101SOL     OW 4448   2.462   3.088   1.939 -0.0238 -0.5898  0.0965
 1101SOL    HW2 4449   2.384   3.141   1.957  1.3375  0.5048  3.1675
 1101SOL    HW3 4450   2.463   3.078   1.844 -3.7425 -0.4247 -0.0258
 1101SOL    MW4 4451   2.452   3.094   1.929 -0.3350 -0.4237  0.4855
 1102SOL     OW 4452   2.242   3.217   1.993 -0.0478 -0.1618  0.0832
 1102SOL    HW2 4453   2.217   3.197   2.084 -2.4644  2.0807 -0.0342
 1102SOL    HW3 4454   2.174   3.175   1.940 -0.9934  2.0375 -0.4735
 1102SOL    MW4 4455   2.230   3.209   1.998 -0.4916  0.4241 -0.0057
 1103SOL     OW 4456   2.260   3.502   1.958  0.1428 -0.0150  0.5426
 1103SOL    HW2 4457   2.262   3.408   1.972  0.5461 -0.2550 -1.0604
 1103SOL    HW3 4458   2.189   3.533   2.016  0.7808 -1.1162  1.9525
 1103SOL    MW4 4459   2.251   3.494   1.968  0.2801 -0.1917  0.5172
 1104SOL     OW 4460   2.509   3.596   2.075  0.2729 -0.0625 -0.1947
 1104SOL    HW2 4461   2.512   3.584   2.170  2.1773  0.7115 -0.1324
 1104SOL    HW3 4462   2.418   3.577   2.051 -0.1408 -0.6036  1.7296
 1104SOL    MW4 4463   2.497   3.592   2.085  0.4697 -0.0319  0.0675
 1105SOL     OW 4464   2.503   3.836   1.948 -0.1771  0.1763  0.3994
 1105SOL    HW2 4465   2.415   3.870   1.963 -0.9470 -1.0583 -1.2570
 1105SOL    HW3 4466   2.504   3.750   1.990 -0.2604 -0.4550 -0.8561
 1105SOL    MW4 4467   2.492   3.829   1.956 -0.2897 -0.0696  0.0151
 1106SOL     OW 4468   2.246   3.971   2.002 -0.1491 -0.2161  0.8505
 1106SOL    HW2 4469   2.220   3.974   2.094 -0.5881 -0.9101  0.7522
 1106SOL    HW3 4470   2.231   4.060   1.970 -1.5368 -0.3723  1.0298
 1106SOL    MW4 4471   2.241   3.983   2.010 -0.3901 -0.3283  0.8614
 1107SOL     OW 4472   2.250   4.241   1.913 -0.1107  0.5826 -0.3048
 1107SOL    HW2 4473   2.332   4.286   1.935  0.2838 -0.2729 -0.0144
 1107SOL    HW3 4474   2.253   4.231   1.818 -0.7361  2.1995 -0.5081
 1107SOL    MW4 4475   2.262   4.246   1.903 -0.1411  0.6833 -0.2935
 1108SOL     OW 4476   2.483   4.384   1.991 -0.2726 -0.3798  0.0684
 1108SOL    HW2 4477   2.480   4.373   2.086 -0.3272  0.4654  0.1651
 1108SOL    HW3 4478   2.563   4.339   1.964 -0.6750 -1.3274  0.4116
 1108SOL    MW4 4479   2.493   4.376   2.000 -0.3331 -0.3934  0.1264
 1109SOL     OW 4480   2.914   4.616   1.865 -0.1578  0.0096  0.3285
 1109SOL    HW2 4481   2.982   4.660   1.915  0.3908  0.4374 -0.7887
 1109SOL    HW3 4482   2.917   4.525   1.896  1.8684 -0.2973 -0.7186
 1109SOL    MW4 4483   2.923   4.610   1.876  0.1817  0.0253  0.0429
 1110SOL     OW 4484   2.693   0.112   1.971 -0.5737 -0.6888 -0.0632
 1110SOL    HW2 4485   2.694   0.116   2.067 -0.6332  0.7704 -0.1095
 1110SOL    HW3 4486   2.775   0.068   1.949 -0.0673 -0.1244  0.6368
 1110SOL    MW4 4487   2.704   0.107   1.981 -0.5150 -0.4218  0.0230
 1111SOL     OW 4488   2.660   0.365   1.894 -0.1667  0.0953 -0.0083
 1111SOL    HW2 4489   2.742   0.410   1.917 -0.2281 -0.0360  0.4901
 1111SOL    HW3 4490   2.673   0.276   1.926 -0.7272  0.2258  0.5914
 1111SOL    MW4 4491   2.673   0.359   1.902 -0.2487  0.0952  0.1367
 1112SOL     OW 4492   2.897   0.471   1.982  0.2884  0.1311  0.4876
 1112SOL    HW2 4493   2.918   0.474   2.075 -0.7589 -0.5905  0.7502
 1112SOL    HW3 4494   2.967   0.418   1.944  0.2336 -0.3107  0.9984
 1112SOL    MW4 4495   2.909   0.465   1.989  0.1431 -0.0224  0.5897
 1113SOL     OW 4496   2.894   0.738   1.909  0.2757 -0.3623  0.2181
 1113SOL    HW2 4497   2.978   0.780   1.924  0.4315 -0.3844 -0.5592
 1113SOL    HW3 4498   2.911   0.644   1.920  0.0848 -0.2823  1.2447
 1113SOL    MW4 4499   2.907   0.731   1.913  0.2708 -0.3547  0.2511
 1114SOL     OW 4500   2.712   0.908   2.019  0.3860  0.3910  0.2212
 1114SOL    HW2 4501   2.765   0.837   1.984 -0.0893  0.3589 -0.4570
 1114SOL    HW3 4502   2.624   0.890   1.985  0.1609  1.0170  0.4716
 1114SOL    MW4 4503   2.707   0.896   2.010  0.2935  0.4694  0.1647
 1115SOL     OW 4504   2.711   1.143   1.892 -0.4852  0.5352  0.0349
 1115SOL    HW2 4505   2.639   1.194   1.929 -0.3284  0.9393 -0.2057
 1115SOL    HW3 4506   2.707   1.059   1.937 -0.2748  1.0348  1.0016
 1115SOL    MW4 4507   2.701   1.139   1.903 -0.4368  0.6543  0.1308
 1116SOL     OW 4508   2.954   1.291   2.039 -0.5055  0.0401  0.7108
 1116SOL    HW2 4509   2.957   1.382   2.010 -0.5710  0.2136  1.2592
 1116SOL    HW3 4510   2.873   1.256   2.002  0.1511 -0.1632 -0.5896
 1116SOL    MW4 4511   2.944   1.298   2.030 -0.4275  0.0361  0.6115
 1117SOL     OW 4512   2.962   1.553   1.958  0.0338 -0.1269  0.1007
 1117SOL    HW2 4513   3.040   1.605   1.979 -2.0279  3.3344 -0.3221
 1117SOL    HW3 4514   2.959   1.550   1.863 -0.3615 -0.2287  0.1129
 1117SOL    MW4 4515   2.972   1.560   1.948 -0.2904  0.3164  0.0466
 1118SOL     OW 4516   2.717   1.650   2.026  0.2885  0.2660 -0.3662
 1118SOL    HW2 4517   2.799   1.609   1.998  0.1219  0.4042 -1.0746
 1118SOL    HW3 4518   2.648   1.593   1.990  0.0696  0.5957 -0.4707
 1118SOL    MW4 4519   2.718   1.637   2.017  0.2377  0.3276 -0.4733
 1119SOL     OW 4520   2.712   1.905   1.920  0.6520 -0.2838 -0.6974
 1119SOL    HW2 4521   2.775   1.953   1.975 -0.1704  0.6804 -0.5818
 1119SOL    HW3 4522   2.719   1.814   1.949  0.3875  0.1859  0.8557
 1119SOL    MW4 4523   2.721   1.900   1.931  0.5085 -0.0947 -0.4772
 1120SOL     OW 4524   2.912   2.072   2.031 -0.5597  0.3054  0.6064
 1120SOL    HW2 4525   2.922   2.083   2.125 -1.2565 -1.6506  0.9180
 1120SOL    HW3 4526   2.989   2.022   2.003  0.5306  2.3320 -0.1703
 1120SOL    MW4 4527   2.923   2.067   2.039 -0.5081  0.3147  0.5450
 1121SOL     OW 4528   2.922   2.316   1.915 -0.4610 -0.0466  0.1573
 1121SOL    HW2 4529   2.986   2.365   1.967 -1.0902 -0.2668  1.1429
 1121SOL    HW3 4530   2.935   2.225   1.941  1.1656 -0.5270 -2.1631
 1121SOL    MW4 4531   2.932   2.310   1.925 -0.3295 -0.1390 -0.0188
 1122SOL     OW 4532   2.661   2.454   1.992  0.0380  0.5967 -0.3348
 1122SOL    HW2 4533   2.677   2.546   1.971  0.4473  0.6311  0.1225
 1122SOL    HW3 4534   2.736   2.407   1.954  0.4719  0.5927  0.5176
 1122SOL    MW4 4535   2.673   2.460   1.984  0.1493  0.6006 -0.1619
 1123SOL     OW 4536   2.731   2.724   1.930 -0.1918 -0.6193  0.3534
 1123SOL    HW2 4537   2.656   2.777   1.958  0.5203  0.1778  0.7575
 1123SOL    HW3 4538   2.709   2.698   1.840 -0.8882 -0.2542  0.4154
 1123SOL    MW4 4539   2.718   2.728   1.922 -0.1900 -0.4661  0.4147
 1124SOL     OW 4540   2.947   2.842   2.034  0.3374 -0.1935 -0.0231
 1124SOL    HW2 4541   2.942   2.929   1.994  0.4743  0.1599  0.7245
 1124SOL    HW3 4542   2.868   2.797   2.002  0.3440  0.1474 -0.5369
 1124SOL    MW4 4543   2.936   2.848   2.024  0.3564 -0.1018  0.0076
 1125SOL     OW 4544   2.921   3.132   1.955 -0.5890  0.0173  0.0871
 1125SOL    HW2 4545   2.999   3.170   1.996 -1.1422 -0.5134  1.6879
 1125SOL    HW3 4546   2.848   3.183   1.990 -1.2495 -1.7582  1.4108
 1125SOL    MW4 4547   2.922   3.143   1.965 -0.7491 -0.2866  0.4729
 1126SOL     OW 4548   2.689   3.252   2.038  0.1073 -0.4234  0.3848
 1126SOL    HW2 4549   2.677   3.337   1.995  0.8429  0.0270  1.0480
 1126SOL    HW3 4550   2.609   3.203   2.019 -0.2494  0.3629 -0.1404
 1126SOL    MW4 4551   2.677   3.257   2.030  0.1574 -0.2601  0.4029
 1127SOL     OW 4552   2.687   3.484   1.891  0.0332  0.3913 -0.0186
 1127SOL    HW2 4553   2.766   3.530   1.919  0.2551 -1.0915  1.8800
 1127SOL    HW3 4554   2.616   3.527   1.939 -0.0662  0.3823 -0.1551
 1127SOL    MW4 4555   2.688   3.496   1.901  0.0491  0.1948  0.2140
 1128SOL     OW 4556   2.916   3.635   1.985 -0.0686 -0.3615 -0.3997
 1128SOL    HW2 4557   2.927   3.647   2.080 -3.0934 -0.2283 -0.0096
 1128SOL    HW3 4558   2.983   3.571   1.961 -0.9262 -2.3755  2.3147
 1128SOL    MW4 4559   2.926   3.628   1.995 -0.5810 -0.6094  0.0100
 1129SOL     OW 4560   2.924   3.905   1.918 -0.0823 -0.8526 -0.3602
 1129SOL    HW2 4561   2.914   3.811   1.935 -1.9435 -0.6827 -0.4587
 1129SOL    HW3 4562   2.944   3.910   1.825  2.1216 -1.2600  0.0510
 1129SOL    MW4 4563   2.926   3.893   1.908 -0.0367 -0.8841 -0.3190
 1130SOL     OW 4564   2.702   3.984   2.053  0.5478 -0.5871  0.6336
 1130SOL    HW2 4565   2.780   3.958   2.003 -0.2953 -1.0265 -0.4993
 1130SOL    HW3 4566   2.633   3.925   2.020 -0.5718  0.7113  0.6223
 1130SOL    MW4 4567   2.703   3.973   2.042  0.2892 -0.4737  0.4828
 1131SOL     OW 4568   2.692   4.240   1.911  0.3281 -0.1386 -0.0841
 1131SOL    HW2 4569   2.680   4.219   1.818 -2.4027 -0.3486  0.2906
 1131SOL    HW3 4570   2.715   4.157   1.951  0.5315 -0.2417 -0.4106
 1131SOL    MW4 4571   2.693   4.227   1.904 -0.0055 -0.1798 -0.0776
 1132SOL     OW 4572   2.944   4.375   1.965 -0.0362  0.2899  0.3997
 1132SOL    HW2 4573   2.946   4.378   2.061  1.1621 -0.8264  0.4132
 1132SOL    HW3 4574   2.860   4.333   1.945 -0.2851  0.5099  0.9566
 1132SOL    MW4 4575   2.933   4.370   1.975  0.0892  0.1717  0.4749
 1133SOL     OW 4576   3.150   0.093   1.961 -0.1817 -0.3638 -0.2430
 1133SOL    HW2 4577   3.154   0.125   2.051  1.9859 -0.0107 -0.4386
 1133SOL    HW3 4578   3.225   0.033   1.954  0.0917  0.1605 -2.0149
 1133SOL    MW4 4579   3.160   0.089   1.972  0.1400 -0.2481 -0.5025
 1134SOL     OW 4580   3.135   0.364   1.858  0.2126  0.3553 -0.0328
 1134SOL    HW2 4581   3.162   0.274   1.876 -0.3705 -0.1550 -1.6019
 1134SOL    HW3 4582   3.136   0.371   1.762 -1.3041  1.5195  0.0067
 1134SOL    MW4 4583   3.138   0.353   1.848 -0.0646  0.4416 -0.2346
 1135SOL     OW 4584   3.134   0.323   1.591 -0.0242  0.3587  0.5233
 1135SOL    HW2 4585   3.131   0.244   1.537 -0.0858  1.2939 -0.8697
 1135SOL    HW3 4586   3.055   0.372   1.566  1.4754  2.1928 -0.6830
 1135SOL    MW4 4587   3.123   0.319   1.581  0.1657  0.7241  0.1804
 1136SOL     OW 4588   3.364   0.473   2.012  0.0054 -0.0530  0.2411
 1136SOL    HW2 4589   3.436   0.420   1.978  1.1418  0.4761  1.7785
 1136SOL    HW3 4590   3.289   0.448   1.958  1.0676 -1.4534 -0.6302
 1136SOL    MW4 4591   3.364   0.463   2.000  0.2956 -0.1680  0.3287
 1137SOL     OW 4592   3.390   0.759   1.904 -0.4962  0.4296  0.7957
 1137SOL    HW2 4593   3.303   0.787   1.931 -1.4230 -1.2488 -0.3753
 1137SOL    HW3 4594   3.406   0.679   1.954 -1.1787 -1.2951 -1.6792
 1137SOL    MW4 4595   3.381   0.752   1.914 -0.7086 -0.0193  0.3147
 1138SOL     OW 4596   3.134   0.869   1.962 -0.7869 -0.2416  0.0857
 1138SOL    HW2 4597   3.126   0.882   2.057  0.9002 -1.0297  0.3616
 1138SOL    HW3 4598   3.147   0.957   1.927  0.1545 -0.1042  0.7690
 1138SOL    MW4 4599   3.135   0.882   1.970 -0.4401 -0.3275  0.2123
 1139SOL     OW 4600   3.145   1.149   1.883 -0.1282  0.0786 -0.3224
 1139SOL    HW2 4601   3.224   1.194   1.911 -0.4846  0.9809 -0.7509
 1139SOL    HW3 4602   3.073   1.199   1.922 -0.4960 -0.6337 -0.0761
 1139SOL    MW4 4603   3.146   1.161   1.892 -0.2234  0.1036 -0.3464
 1140SOL     OW 4604   3.356   1.296   1.984  0.2985  0.3361 -0.6133
 1140SOL    HW2 4605   3.340   1.294   2.078  0.6522  0.6792 -0.5448
 1140SOL    HW3 4606   3.363   1.389   1.963  0.5398  0.2491 -0.9265
 1140SOL    MW4 4607   3.355   1.308   1.993  0.3769  0.3697 -0.6456
 1141SOL     OW 4608   3.382   1.575   1.901  0.3383  0.0471 -0.1737
 1141SOL    HW2 4609   3.461   1.603   1.946  0.4921  0.1622 -0.5149
 1141SOL    HW3 4610   3.313   1.631   1.937  0.2237 -0.7458  0.8751
 1141SOL    MW4 4611   3.383   1.586   1.912  0.3433 -0.0422 -0.0803
 1142SOL     OW 4612   3.183   1.720   2.036  0.0006  0.4186 -0.5249
 1142SOL    HW2 4613   3.171   1.733   2.130 -0.9735  0.7448 -0.6879
 1142SOL    HW3 4614   3.181   1.808   1.999 -0.9410  0.2110 -0.9942
 1142SOL    MW4 4615   3.181   1.733   2.044 -0.2522  0.4342 -0.6084
 1143SOL     OW 4616   3.162   1.974   1.954  0.4212  0.7262 -0.3322
 1143SOL    HW2 4617   3.236   2.008   2.004 -0.4165  2.4988 -0.2535
 1143SOL    HW3 4618   3.194   1.964   1.865  1.1388  0.1762 -0.0130
 1143SOL    MW4 4619   3.176   1.977   1.949  0.4053  0.8875 -0.2799
 1144SOL     OW 4620   3.409   2.068   2.051  0.5561  0.2490 -0.2089
 1144SOL    HW2 4621   3.474   2.006   2.017  0.9157  1.0472 -0.9785
 1144SOL    HW3 4622   3.414   2.143   1.992 -0.1414  0.8634  0.5060
 1144SOL    MW4 4623   3.418   2.069   2.039  0.5114  0.4354 -0.2162
 1145SOL     OW 4624   3.379   2.317   1.934  0.0144  0.0742 -0.1969
 1145SOL    HW2 4625   3.294   2.356   1.953  0.3874  1.6986 -1.7202
 1145SOL    HW3 4626   3.382   2.312   1.838  1.6631  0.1009 -0.1671
 1145SOL    MW4 4627   3.369   2.321   1.924  0.2811  0.2918 -0.3939
 1146SOL     OW 4628   3.143   2.428   2.037 -0.2776 -0.2651 -0.5653
 1146SOL    HW2 4629   3.138   2.442   2.131 -1.8216 -0.6922 -0.5722
 1146SOL    HW3 4630   3.154   2.516   2.000  0.1880 -0.0875 -0.0045
 1146SOL    MW4 4631   3.144   2.442   2.044 -0.4203 -0.2980 -0.4923
 1147SOL     OW 4632   3.119   2.663   1.917 -1.0723 -0.6858 -0.6749
 1147SOL    HW2 4633   3.059   2.725   1.957  2.2768  2.9352 -1.0180
 1147SOL    HW3 4634   3.095   2.662   1.824 -2.3149 -1.3569 -0.3543
 1147SOL    MW4 4635   3.108   2.671   1.910 -0.7946 -0.2968 -0.6779
 1148SOL     OW 4636   3.395   2.807   2.017 -0.1835  0.6035  0.5430
 1148SOL    HW2 4637   3.390   2.818   2.112  0.1170  1.2617  0.4864
 1148SOL    HW3 4638   3.310   2.772   1.992 -0.4400  0.8882  0.9981
 1148SOL    MW4 4639   3.383   2.804   2.026 -0.1779  0.7279  0.5956
 1149SOL     OW 4640   3.332   3.083   1.902  0.5636 -0.0986 -0.1087
 1149SOL    HW2 4641   3.403   3.133   1.942 -0.3502  0.5315  0.7399
 1149SOL    HW3 4642   3.343   2.994   1.937  1.2127 -0.1136 -0.3497
 1149SOL    MW4 4643   3.343   3.078   1.912  0.5286 -0.0174 -0.0286
 1150SOL     OW 4644   3.173   3.249   2.036  0.2971 -0.3705  0.1707
 1150SOL    HW2 4645   3.180   3.333   1.990 -1.8304 -0.4599 -0.3651
 1150SOL    HW3 4646   3.222   3.187   1.982  1.0973  0.3172  0.0887
 1150SOL    MW4 4647   3.181   3.252   2.023  0.1214 -0.2916  0.0892
 1151SOL     OW 4648   3.170   3.489   1.918  0.2170  0.3805 -0.0556
 1151SOL    HW2 4649   3.237   3.550   1.948  0.1702  0.2750  0.2662
 1151SOL    HW3 4650   3.187   3.479   1.824  1.2429 -0.3803  0.2022
 1151SOL    MW4 4651   3.181   3.496   1.909  0.3459  0.2661  0.0210
 1152SOL     OW 4652   3.386   3.627   2.028  0.5381  0.0161  0.1796
 1152SOL    HW2 4653   3.463   3.589   1.985  0.7272  0.2123  0.3421
 1152SOL    HW3 4654   3.377   3.714   1.989 -0.0322 -0.2792 -0.3584
 1152SOL    MW4 4655   3.395   3.633   2.017  0.4876  0.0031  0.1302
 1153SOL     OW 4656   3.373   3.877   1.900 -0.2400 -0.1807  0.2832
 1153SOL    HW2 4657   3.307   3.923   1.951  1.5797  1.7896  0.9545
 1153SOL    HW3 4658   3.344   3.887   1.809 -0.2169  1.7691  0.4692
 1153SOL    MW4 4659   3.361   3.885   1.895  0.0031  0.3364  0.3964
 1154SOL     OW 4660   3.160   3.991   2.016  0.3454  0.1197 -0.0647
 1154SOL    HW2 4661   3.145   4.008   2.109  0.1157  1.9783 -0.4161
 1154SOL    HW3 4662   3.075   3.960   1.984  0.6092 -1.2218  0.4627
 1154SOL    MW4 4663   3.147   3.989   2.024  0.3498  0.1879 -0.0415
 1155SOL     OW 4664   3.163   4.228   1.870  0.1130  0.1966 -0.0550
 1155SOL    HW2 4665   3.160   4.146   1.919 -0.0044  0.5024  0.4561
 1155SOL    HW3 4666   3.089   4.279   1.904  0.6329  0.8100  0.1675
 1155SOL    MW4 4667   3.153   4.224   1.881  0.1662  0.3171  0.0417
 1156SOL     OW 4668   3.395   4.359   1.962 -0.0945  0.0817  0.5128
 1156SOL    HW2 4669   3.473   4.319   1.924 -0.4251 -0.0147 -0.0668
 1156SOL    HW3 4670   3.322   4.308   1.927 -0.4722  0.7321  0.3508
 1156SOL    MW4 4671   3.396   4.347   1.953 -0.1879  0.1545  0.4150
 1157SOL     OW 4672   3.832   4.604   1.869 -0.1226  0.4334  0.1856
 1157SOL    HW2 4673   3.842   4.517   1.907  0.3051  0.3921 -0.0098
 1157SOL    HW3 4674   3.768   4.648   1.924  0.2216  0.2515  0.7326
 1157SOL    MW4 4675   3.825   4.599   1.881 -0.0207  0.4039  0.2321
 1158SOL     OW 4676   3.612   0.058   1.996  0.8563  0.7475  0.0273
 1158SOL    HW2 4677   3.594   0.080   2.087 -0.0838  2.1088 -0.4638
 1158SOL    HW3 4678   3.533   0.012   1.966  1.1476  0.3381 -0.1141
 1158SOL    MW4 4679   3.599   0.055   2.004  0.7708  0.8731 -0.0563
 1159SOL     OW 4680   3.598   0.333   1.937 -0.4691  0.0157 -0.0642
 1159SOL    HW2 4681   3.602   0.237   1.932 -0.0188  0.0280 -0.0124
 1159SOL    HW3 4682   3.607   0.362   1.847 -2.1596 -0.0300 -0.2591
 1159SOL    MW4 4683   3.600   0.324   1.925 -0.6328  0.0113 -0.0830
 1160SOL     OW 4684   3.826   0.462   2.013  0.0429 -0.5004  0.2405
 1160SOL    HW2 4685   3.827   0.555   1.993  0.7235 -1.0023 -2.2121
 1160SOL    HW3 4686   3.737   0.433   1.993  0.5103 -0.8472 -1.4107
 1160SOL    MW4 4687   3.815   0.470   2.008  0.1945 -0.6123 -0.3009
 1161SOL     OW 4688   3.831   0.742   1.932  0.2483 -0.3474 -0.0998
 1161SOL    HW2 4689   3.758   0.796   1.964  1.0588  0.5468  0.2749
 1161SOL    HW3 4690   3.829   0.755   1.837  0.1907  0.0329 -0.0511
 1161SOL    MW4 4691   3.821   0.751   1.924  0.3476 -0.1793 -0.0439
 1162SOL     OW 4692   3.609   0.882   2.040  0.1712  0.0970 -0.0394
 1162SOL    HW2 4693   3.606   0.973   2.011  0.3014 -0.7008 -2.6832
 1162SOL    HW3 4694   3.525   0.845   2.011 -0.6435 -0.1982  2.5800
 1162SOL    MW4 4695   3.597   0.889   2.032  0.0808 -0.0472 -0.0424
 1163SOL     OW 4696   3.598   1.150   1.944 -0.4686 -0.2217  0.2343
 1163SOL    HW2 4697   3.518   1.200   1.960  0.3881  1.4400 -0.4971
 1163SOL    HW3 4698   3.609   1.153   1.849 -0.4419 -1.8990  0.1716
 1163SOL    MW4 4699   3.589   1.157   1.934 -0.3521 -0.2238  0.1295
 1164SOL     OW 4700   3.817   1.278   2.044 -0.3916 -0.3083 -0.2275
 1164SOL    HW2 4701   3.829   1.269   2.139  0.5834 -1.2771 -0.4383
 1164SOL    HW3 4702   3.731   1.240   2.027 -1.0654  0.8960  0.4176
 1164SOL    MW4 4703   3.807   1.272   2.054 -0.3519 -0.2770 -0.1705
 1165SOL     OW 4704   3.807   1.534   1.939 -0.0537  0.0906 -0.0223
 1165SOL    HW2 4705   3.889   1.574   1.967 -0.4445  0.7749  0.1770
 1165SOL    HW3 4706   3.812   1.443   1.968  0.3870  0.2799  0.4872
 1165SOL    MW4 4707   3.818   1.527   1.946 -0.0472  0.2058  0.0712
 1166SOL     OW 4708   3.584   1.653   2.062  0.0059 -0.3210  0.0308
 1166SOL    HW2 4709   3.608   1.731   2.011 -0.0235 -0.2260  0.1604
 1166SOL    HW3 4710   3.649   1.588   2.037  0.7605  0.1170  0.8059
 1166SOL    MW4 4711   3.596   1.655   2.052  0.1013 -0.2507  0.1502
 1167SOL     OW 4712   3.628   1.906   1.946 -0.4912 -0.3391 -0.2132
 1167SOL    HW2 4713   3.706   1.947   1.982 -1.4999  0.7687  0.7047
 1167SOL    HW3 4714   3.624   1.937   1.855  0.6917 -1.2191 -0.5825
 1167SOL    MW4 4715   3.638   1.915   1.939 -0.4685 -0.3091 -0.1409
 1168SOL     OW 4716   3.848   2.075   1.999  0.0191 -0.4685 -0.2310
 1168SOL    HW2 4717   3.922   2.027   1.960  1.7881  1.4589  0.6453
 1168SOL    HW3 4718   3.840   2.154   1.944  0.5730  0.7884  1.4519
 1168SOL    MW4 4719   3.857   2.079   1.986  0.3252 -0.0486  0.1066
 1169SOL     OW 4720   3.811   2.322   1.888  0.4125  0.0379 -0.4490
 1169SOL    HW2 4721   3.881   2.364   1.937  0.6122 -0.9381  0.1264
 1169SOL    HW3 4722   3.731   2.356   1.926  0.5442  1.9462 -1.7921
 1169SOL    MW4 4723   3.810   2.332   1.899  0.4563  0.1607 -0.5503
 1170SOL     OW 4724   3.616   2.462   2.021 -0.7172  0.1496  0.4506
 1170SOL    HW2 4725   3.625   2.549   1.981  0.6276 -0.5742 -0.8517
 1170SOL    HW3 4726   3.536   2.426   1.984 -1.8683  1.2583  1.8222
 1170SOL    MW4 4727   3.607   2.469   2.011 -0.6914  0.2005  0.4599
 1171SOL     OW 4728   3.611   2.728   1.862 -0.5291 -0.2976 -0.1460
 1171SOL    HW2 4729   3.687   2.777   1.893 -0.5615  0.4362 -1.1910
 1171SOL    HW3 4730   3.539   2.755   1.919 -0.3458  0.2125 -0.1501
 1171SOL    MW4 4731   3.611   2.738   1.874 -0.5093 -0.1335 -0.2843
 1172SOL     OW 4732   3.807   2.847   2.003  0.3409  0.6381  0.2840
 1172SOL    HW2 4733   3.787   2.840   2.097 -0.5076  0.4984  0.0987
 1172SOL    HW3 4734   3.801   2.941   1.985  0.4940  0.6644  0.3736
 1172SOL    MW4 4735   3.803   2.859   2.013  0.2491  0.6230  0.2711
 1173SOL     OW 4736   3.823   3.118   1.929 -0.3429 -0.1991  0.1188
 1173SOL    HW2 4737   3.739   3.146   1.963 -1.1272 -0.3294 -1.6489
 1173SOL    HW3 4738   3.809   3.109   1.835  2.0668  1.3293 -0.4403
 1173SOL    MW4 4739   3.810   3.121   1.921 -0.1285 -0.0148 -0.1881
 1174SOL     OW 4740   3.568   3.211   2.004  0.3338  0.1274  0.2057
 1174SOL    HW2 4741   3.562   3.193   2.098  0.4297  0.3955  0.2642
 1174SOL    HW3 4742   3.587   3.305   1.999  0.0312  0.1728 -0.0884
 1174SOL    MW4 4743   3.570   3.221   2.016  0.3066  0.1688  0.1745
 1175SOL     OW 4744   3.577   3.469   1.883  0.1826 -0.4254 -0.1305
 1175SOL    HW2 4745   3.658   3.505   1.920 -0.1815 -0.2053  0.4704
 1175SOL    HW3 4746   3.594   3.460   1.790  0.7503  0.0274 -0.0706
 1175SOL    MW4 4747   3.590   3.473   1.876  0.2096 -0.3366 -0.0434
 1176SOL     OW 4748   3.805   3.557   2.001  0.2840 -0.6848 -0.4460
 1176SOL    HW2 4749   3.891   3.531   1.969  0.5730  0.0066 -0.2437
 1176SOL    HW3 4750   3.797   3.649   1.975 -0.0678 -0.5287  0.2158
 1176SOL    MW4 4751   3.815   3.566   1.994  0.2759 -0.5732 -0.3321
 1177SOL     OW 4752   3.792   3.826   1.912  0.0418 -0.2058  0.5593
 1177SOL    HW2 4753   3.722   3.886   1.936  0.3587  0.2767  0.2677
 1177SOL    HW3 4754   3.792   3.827   1.816 -0.3235 -1.0950  0.5386
 1177SOL    MW4 4755   3.782   3.834   1.902  0.0353 -0.2594  0.5180
 1178SOL     OW 4756   3.586   4.016   1.981 -0.2548  0.0163 -0.0975
 1178SOL    HW2 4757   3.570   4.017   2.075 -1.1573  2.0423 -0.2625
 1178SOL    HW3 4758   3.508   3.976   1.944 -0.5368  0.5682 -0.1002
 1178SOL    MW4 4759   3.574   4.011   1.989 -0.4110  0.3562 -0.1196
 1179SOL     OW 4760   3.606   4.244   1.834  0.4619 -0.6437 -0.9529
 1179SOL    HW2 4761   3.680   4.283   1.880 -1.4584  0.8082  0.9840
 1179SOL    HW3 4762   3.604   4.153   1.864  0.6950 -0.3441 -0.0195
 1179SOL    MW4 4763   3.615   4.237   1.844  0.2396 -0.4129 -0.5744
 1180SOL     OW 4764   3.825   4.341   1.978  0.3889 -0.1381  0.1484
 1180SOL    HW2 4765   3.822   4.337   2.073 -1.1302 -0.3963  0.1115
 1180SOL    HW3 4766   3.904   4.294   1.954  0.2651 -0.9192  1.2463
 1180SOL    MW4 4767   3.835   4.334   1.987  0.1721 -0.2751  0.2884
 1181SOL     OW 4768   4.289   4.615   1.900  0.1891  0.0318 -0.1911
 1181SOL    HW2 4769   4.213   4.645   1.951  0.7122 -2.0215  1.8684
 1181SOL    HW3 4770   4.362   4.667   1.933  0.2375 -0.1911  0.0561
 1181SOL    MW4 4771   4.288   4.626   1.911  0.2637 -0.2685  0.1132
 1182SOL     OW 4772   4.040   0.052   1.997  0.1905 -0.0247  0.2883
 1182SOL    HW2 4773   4.014   0.066   2.088  0.0261  1.0567  0.0794
 1182SOL    HW3 4774   3.970  -0.003   1.961  0.7416 -1.2514  1.0599
 1182SOL    MW4 4775   4.027   0.047   2.004  0.2408 -0.0439  0.3624
 1183SOL     OW 4776   4.053   0.326   1.899 -0.4837  0.4942 -0.0686
 1183SOL    HW2 4777   4.065   0.236   1.929  0.2089  0.1097 -1.4767
 1183SOL    HW3 4778   3.982   0.360   1.954  1.7431  0.3067  3.0911
 1183SOL    MW4 4779   4.045   0.319   1.910 -0.0982  0.4188  0.1625
 1184SOL     OW 4780   4.276   0.475   1.963  0.4695 -0.4856  0.5702
 1184SOL    HW2 4781   4.280   0.477   2.058  0.0227  0.6932  0.5712
 1184SOL    HW3 4782   4.192   0.433   1.944  0.3749 -0.3523  0.6933
 1184SOL    MW4 4783   4.265   0.470   1.973  0.3982 -0.3125  0.5865
 1185SOL     OW 4784   4.230   0.736   1.873  0.0548 -0.0065  0.3759
 1185SOL    HW2 4785   4.262   0.648   1.894  3.0398  1.4389  2.2599
 1185SOL    HW3 4786   4.242   0.743   1.778 -0.0213 -1.5384  0.2353
 1185SOL    MW4 4787   4.236   0.725   1.863  0.4387 -0.0180  0.6059
 1186SOL     OW 4788   4.051   0.888   2.012  0.6456  0.1479 -0.0200
 1186SOL    HW2 4789   4.120   0.853   1.955  0.5348  0.2904 -0.2429
 1186SOL    HW3 4790   3.975   0.833   1.993  0.3438  0.8012 -0.7049
 1186SOL    MW4 4791   4.050   0.876   2.002  0.5918  0.2530 -0.1400
 1187SOL     OW 4792   3.997   1.142   1.870  0.6024  1.0146 -0.0276
 1187SOL    HW2 4793   4.002   1.056   1.912 -0.5033  0.8126 -0.3206
 1187SOL    HW3 4794   3.933   1.190   1.922  1.0349  1.5777 -0.0174
 1187SOL    MW4 4795   3.989   1.137   1.882  0.5138  1.0623 -0.0650
 1188SOL     OW 4796   4.239   1.230   1.957 -0.0751 -0.5654 -0.1224
 1188SOL    HW2 4797   4.243   1.213   2.051  0.1696 -1.4350 -0.2809
 1188SOL    HW3 4798   4.153   1.198   1.930 -0.8825  1.3609  0.1135
 1188SOL    MW4 4799   4.228   1.223   1.966 -0.1488 -0.4262 -0.1122
 1189SOL     OW 4800   4.261   1.512   1.872 -0.8168  0.3458 -0.2966
 1189SOL    HW2 4801   4.254   1.417   1.878  0.9954  0.1604 -0.9462
 1189SOL    HW3 4802   4.257   1.530   1.778  1.4091  0.6777 -0.3569
 1189SOL    MW4 4803   4.259   1.502   1.860 -0.2837  0.3651 -0.3902
 1190SOL     OW 4804   4.053   1.651   1.986  0.0020  0.0757 -0.2370
 1190SOL    HW2 4805   4.056   1.639   2.081 -0.8983  1.7863  0.0183
 1190SOL    HW3 4806   4.133   1.608   1.954  0.6030 -0.0048  1.3458
 1190SOL    MW4 4807   4.064   1.644   1.994 -0.0372  0.2909  0.0054
 1191SOL     OW 4808   4.064   1.922   1.897 -0.0601 -0.0113 -0.6444
 1191SOL    HW2 4809   4.052   1.828   1.911 -0.5608  0.1493  0.0353
 1191SOL    HW3 4810   4.042   1.936   1.805 -1.3329 -0.3556 -0.4128
 1191SOL    MW4 4811   4.059   1.912   1.887 -0.2942 -0.0356 -0.5242
 1192SOL     OW 4812   4.277   2.062   1.988  0.2041 -0.1774  0.6510
 1192SOL    HW2 4813   4.272   2.059   2.084 -0.9815  0.0233  0.6016
 1192SOL    HW3 4814   4.204   2.008   1.958  0.7557 -0.4928 -0.1492
 1192SOL    MW4 4815   4.267   2.054   1.997  0.1206 -0.1924  0.5391
 1193SOL     OW 4816   4.248   2.332   1.917 -0.3465  0.0476  0.5293
 1193SOL    HW2 4817   4.238   2.238   1.931 -1.5423  0.2740  1.1971
 1193SOL    HW3 4818   4.326   2.355   1.967  1.5532 -1.0538 -1.7792
 1193SOL    MW4 4819   4.257   2.322   1.925 -0.2537 -0.0679  0.3128
 1194SOL     OW 4820   4.030   2.460   2.022 -0.5937  0.2616  0.3812
 1194SOL    HW2 4821   4.032   2.460   2.118 -0.6293  0.0337  0.3832
 1194SOL    HW3 4822   4.110   2.414   1.996 -0.6872  0.1397  0.3058
 1194SOL    MW4 4823   4.041   2.454   2.031 -0.6108  0.2151  0.3715
 1195SOL     OW 4824   4.056   2.703   1.918 -0.1275 -0.3346  0.0442
 1195SOL    HW2 4825   4.046   2.612   1.944 -0.4291 -0.2338  0.2919
 1195SOL    HW3 4826   3.975   2.745   1.948 -0.0756 -0.0276 -0.2421
 1195SOL    MW4 4827   4.044   2.697   1.925 -0.1597 -0.2809  0.0391
 1196SOL     OW 4828   4.288   2.816   2.034 -0.8238  0.3208  0.1158
 1196SOL    HW2 4829   4.272   2.833   2.127 -0.8004  0.5287  0.0822
 1196SOL    HW3 4830   4.204   2.783   2.001 -0.1815 -1.9852  0.7258
 1196SOL    MW4 4831   4.275   2.814   2.042 -0.7362  0.0441  0.1917
 1197SOL     OW 4832   4.288   3.051   1.905 -0.5602  0.1943 -0.2104
 1197SOL    HW2 4833   4.215   3.099   1.944 -0.8988 -0.6496  0.2021
 1197SOL    HW3 4834   4.294   2.970   1.955  0.0473 -0.1753 -0.8598
 1197SOL    MW4 4835   4.279   3.047   1.916 -0.5250  0.0341 -0.2418
 1198SOL     OW 4836   4.087   3.196   2.006 -0.0177  0.6339  0.1900
 1198SOL    HW2 4837   4.089   3.200   2.102  0.1165  0.5803  0.1898
 1198SOL    HW3 4838   4.003   3.156   1.985  0.9115 -1.4261  0.3467
 1198SOL    MW4 4839   4.076   3.191   2.016  0.1230  0.3552  0.2108
 1199SOL     OW 4840   4.046   3.463   1.885  0.2981  0.3774  0.3051
 1199SOL    HW2 4841   4.115   3.505   1.937  0.1619  0.4482  0.4299
 1199SOL    HW3 4842   4.057   3.370   1.902 -0.4746  0.4652  1.3920
 1199SOL    MW4 4843   4.057   3.456   1.894  0.1783  0.3984  0.4649
 1200SOL     OW 4844   4.259   3.639   1.998 -0.0671  0.0077 -0.0681
 1200SOL    HW2 4845   4.265   3.725   1.958 -0.0841  1.8025  3.6111
 1200SOL    HW3 4846   4.339   3.594   1.970  0.6712  1.7392 -0.8096
 1200SOL    MW4 4847   4.270   3.644   1.989  0.0277  0.4730  0.3195
 1201SOL     OW 4848   4.265   3.880   1.865  0.0214 -0.5369 -0.0440
 1201SOL    HW2 4849   4.336   3.937   1.895 -0.2733 -0.8108  1.2007
 1201SOL    HW3 4850   4.275   3.878   1.770  1.8692 -0.8235  0.1321
 1201SOL    MW4 4851   4.276   3.887   1.857  0.2265 -0.6108  0.1435
 1202SOL     OW 4852   4.023   3.967   1.965 -0.0901 -0.2549 -0.4157
 1202SOL    HW2 4853   4.100   3.931   1.921  0.7169  0.4269  0.4230
 1202SOL    HW3 4854   3.952   3.908   1.940  0.1582  0.5590 -3.3111
 1202SOL    MW4 4855   4.024   3.955   1.956  0.0486 -0.0577 -0.6871
 1203SOL     OW 4856   4.052   4.227   1.887  0.6610 -0.3607 -0.6031
 1203SOL    HW2 4857   4.140   4.253   1.914  0.5260 -1.2165  0.7313
 1203SOL    HW3 4858   4.046   4.134   1.912 -0.7585 -0.1972 -0.2930
 1203SOL    MW4 4859   4.063   4.218   1.894  0.4559 -0.4525 -0.3862
 1204SOL     OW 4860   4.291   4.348   1.957  0.5081  0.3660  0.0034
 1204SOL    HW2 4861   4.274   4.349   2.051 -0.2146 -1.1702 -0.0967
 1204SOL    HW3 4862   4.290   4.440   1.932 -0.6612  0.7207  1.2611
 1204SOL    MW4 4863   4.288   4.360   1.966  0.2580  0.2098  0.1562
 1205SOL     OW 4864   0.251   4.650   2.361  0.9206 -0.4921 -0.0016
 1205SOL    HW2 4865   0.256   4.640   2.456  1.1985 -0.2774  0.0027
 1205SOL    HW3 4866   0.330   4.698   2.336  1.8042 -2.1892 -0.5612
 1205SOL    MW4 4867   0.262   4.655   2.370  1.0739 -0.6876 -0.0746
 1206SOL     OW 4868   4.463   0.099   2.258  0.3998  0.1589 -0.0341
 1206SOL    HW2 4869   4.544   0.057   2.288  0.2900 -0.1862 -0.2160
 1206SOL    HW3 4870   4.477   0.114   2.164  0.5446  0.7735  0.0847
 1206SOL    MW4 4871   4.476   0.095   2.249  0.4048  0.1944 -0.0424
 1207SOL     OW 4872   4.470   0.331   2.385 -0.1152 -0.4089 -0.2081
 1207SOL    HW2 4873   4.548   0.372   2.348 -0.0536 -0.7211 -0.4275
 1207SOL    HW3 4874   4.464   0.246   2.341 -1.7119  0.4455 -1.6564
 1207SOL    MW4 4875   4.480   0.325   2.375 -0.3176 -0.3373 -0.4280
 1208SOL     OW 4876   0.203   0.480   2.280  0.4884  0.7165 -0.3714
 1208SOL    HW2 4877   0.291   0.444   2.290 -0.1403 -1.1632 -1.2933
 1208SOL    HW3 4878   0.197   0.503   2.187  0.1350  1.1849 -0.2335
 1208SOL    MW4 4879   0.214   0.478   2.269  0.3589  0.5303 -0.4747
 1209SOL     OW 4880   0.232   0.761   2.377 -0.1757 -0.1971  0.2478
 1209SOL    HW2 4881   0.224   0.764   2.472 -0.0515 -1.4730  0.3098
 1209SOL    HW3 4882   0.239   0.668   2.356  2.0125  0.1820 -0.8429
 1209SOL    MW4 4883   0.232   0.749   2.386  0.1294 -0.3154  0.1121
 1210SOL     OW 4884   4.480   0.871   2.309 -0.1956  0.1610  0.1997
 1210SOL    HW2 4885   4.569   0.840   2.329 -0.0465 -0.3603 -1.1971
 1210SOL    HW3 4886   4.472   0.860   2.215 -1.1215  1.8979  0.0585
 1210SOL    MW4 4887   4.491   0.865   2.299 -0.2980  0.3214 -0.0033
 1211SOL     OW 4888   4.487   1.146   2.353 -0.2953  0.0524  0.0848
 1211SOL    HW2 4889   4.466   1.164   2.445 -2.0101  2.5231 -0.7120
 1211SOL    HW3 4890   4.493   1.051   2.347  1.3880 -0.0797  3.0533
 1211SOL    MW4 4891   4.485   1.136   2.364 -0.2995  0.3610  0.3712
 1212SOL     OW 4892   0.216   1.273   2.249 -0.0057 -0.2174  0.4860
 1212SOL    HW2 4893   0.138   1.229   2.285 -0.3504  0.6628  0.8249
 1212SOL    HW3 4894   0.209   1.260   2.155  0.0150 -1.0914  0.5972
 1212SOL    MW4 4895   0.204   1.265   2.242 -0.0484 -0.2166  0.5455
 1213SOL     OW 4896   0.223   1.539   2.348 -0.0022  0.3092  0.3475
 1213SOL    HW2 4897   0.194   1.527   2.438  0.5481  1.5116  0.6812
 1213SOL    HW3 4898   0.237   1.450   2.316 -1.5687 -0.1941  0.9943
 1213SOL    MW4 4899   0.221   1.526   2.355 -0.1363  0.4015  0.4766
 1214SOL     OW 4900   4.454   1.599   2.259 -0.3344 -0.1286  0.3306
 1214SOL    HW2 4901   4.453   1.694   2.271 -0.2102 -0.2153  1.0359
 1214SOL    HW3 4902   4.544   1.573   2.281 -0.0381 -0.2726 -0.9619
 1214SOL    MW4 4903   4.466   1.608   2.263 -0.2789 -0.1591  0.2530
 1215SOL     OW 4904   4.471   1.891   2.326 -0.6690 -0.6276  0.3476
 1215SOL    HW2 4905   4.387   1.937   2.322 -1.5093 -2.1909 -0.2999
 1215SOL    HW3 4906   4.535   1.957   2.299 -1.9566 -0.0374 -1.3909
 1215SOL    MW4 4907   4.468   1.906   2.322 -0.9499 -0.7560  0.0329
 1216SOL     OW 4908   0.191   2.053   2.257  0.1552 -0.2697 -0.7372
 1216SOL    HW2 4909   0.260   2.002   2.300  0.8691  0.3322 -1.1575
 1216SOL    HW3 4910   0.212   2.047   2.163  0.7202  1.4759 -0.7361
 1216SOL    MW4 4911   0.203   2.046   2.250  0.3239  0.0401 -0.7925
 1217SOL     OW 4912   0.238   2.305   2.354 -0.7356 -0.0898  0.2388
 1217SOL    HW2 4913   0.231   2.297   2.449 -1.1482 -0.4922  0.1760
 1217SOL    HW3 4914   0.222   2.216   2.321  0.8123 -0.2446 -0.1314
 1217SOL    MW4 4915   0.235   2.292   2.362 -0.5858 -0.1631  0.1817
 1218SOL     OW 4916   4.480   2.403   2.320  0.1504 -0.2053  0.3559
 1218SOL    HW2 4917   4.485   2.486   2.367  1.1010  0.0214 -0.1298
 1218SOL    HW3 4918   4.570   2.369   2.322 -0.1813 -1.1148  0.3474
 1218SOL    MW4 4919   4.492   2.409   2.327  0.2320 -0.2954  0.2906
 1219SOL     OW 4920   0.001   2.655   2.388 -0.3222  0.0324 -0.1631
 1219SOL    HW2 4921   0.003   2.667   2.482  0.2173 -0.7417 -0.0700
 1219SOL    HW3 4922   0.069   2.713   2.354  0.5038 -0.8013  0.0556
 1219SOL    MW4 4923   0.010   2.664   2.396 -0.1420 -0.1798 -0.1218
 1220SOL     OW 4924   0.201   2.829   2.281  0.2358  0.3623  0.1944
 1220SOL    HW2 4925   0.286   2.788   2.293  1.1420  1.6409 -1.6261
 1220SOL    HW3 4926   0.187   2.830   2.186 -1.1931  1.3624  0.3890
 1220SOL    MW4 4927   0.210   2.824   2.270  0.1668  0.6630 -0.0198
 1221SOL     OW 4928   0.233   3.076   2.417 -0.4247 -0.1156  0.3873
 1221SOL    HW2 4929   0.166   3.122   2.365 -0.6291 -0.3834  0.4136
 1221SOL    HW3 4930   0.234   2.987   2.381  0.0685 -0.0565  0.2449
 1221SOL    MW4 4931   0.224   3.070   2.405 -0.3866 -0.1433  0.3722
 1222SOL     OW 4932   0.032   3.239   2.254  0.2513  0.0324  0.2781
 1222SOL    HW2 4933   0.033   3.322   2.301 -1.2958  0.2270 -0.0033
 1222SOL    HW3 4934   0.069   3.259   2.168  1.9761 -0.0719  0.9666
 1222SOL    MW4 4935   0.037   3.253   2.249  0.2747  0.0446  0.3316
 1223SOL     OW 4936   0.002   3.486   2.384  0.5359 -0.0490  0.3701
 1223SOL    HW2 4937  -0.002   3.483   2.480  1.8756 -1.4510  0.3981
 1223SOL    HW3 4938  -0.071   3.542   2.359  0.1092  0.2524  2.2114
 1223SOL    MW4 4939  -0.008   3.493   2.394  0.6566 -0.1943  0.6166
 1224SOL     OW 4940   0.236   3.610   2.321  0.1582 -0.0359 -0.5374
 1224SOL    HW2 4941   0.304   3.555   2.359 -0.7875 -0.4042  0.6359
 1224SOL    HW3 4942   0.153   3.570   2.350 -0.5484  1.2614 -0.7272
 1224SOL    MW4 4943   0.234   3.598   2.330 -0.0598  0.0865 -0.4079
 1225SOL     OW 4944   0.216   3.881   2.397  0.9392 -0.0228 -0.3644
 1225SOL    HW2 4945   0.137   3.906   2.349  0.0633 -1.9233  0.0670
 1225SOL    HW3 4946   0.219   3.786   2.393  2.0213 -0.1037  1.5148
 1225SOL    MW4 4947   0.206   3.872   2.390  0.9664 -0.2842 -0.0596
 1226SOL     OW 4948   4.479   3.963   2.270  0.4163  0.1530 -0.0295
 1226SOL    HW2 4949   4.455   4.052   2.295  0.9590 -0.1406  1.5648
 1226SOL    HW3 4950   4.482   3.966   2.174 -0.2421  1.6655 -0.0249
 1226SOL    MW4 4951   4.476   3.975   2.260  0.4010  0.3138  0.1812
 1227SOL     OW 4952   4.485   4.238   2.321 -0.2884 -0.1141  0.1975
 1227SOL    HW2 4953   4.488   4.257   2.415 -0.9833  0.5862  0.0853
 1227SOL    HW3 4954   4.574   4.254   2.290  0.3533 -1.9460  1.0306
 1227SOL    MW4 4955   4.497   4.243   2.329 -0.2954 -0.2632  0.2928
 1228SOL     OW 4956   0.249   4.383   2.262  0.2573  0.0905  0.0751
 1228SOL    HW2 4957   0.319   4.351   2.319  0.8422  1.1203 -0.0655
 1228SOL    HW3 4958   0.235   4.473   2.288 -1.0020 -0.1037  0.0740
 1228SOL    MW4 4959   0.257   4.390   2.273  0.1684  0.2012  0.0567
 1229SOL     OW 4960   0.709   4.661   2.379 -0.2720 -0.2987  0.5451
 1229SOL    HW2 4961   0.723   4.657   2.473 -0.8089  0.7773  0.6759
 1229SOL    HW3 4962   0.769   4.729   2.348 -0.3062 -0.4456  0.1460
 1229SOL    MW4 4963   0.719   4.669   2.387 -0.3474 -0.1761  0.5097
 1230SOL     OW 4964   0.483   0.128   2.262 -0.0584 -0.5750 -0.6779
 1230SOL    HW2 4965   0.556   0.072   2.288  0.9147  1.0295  0.1466
 1230SOL    HW3 4966   0.492   0.135   2.167  2.1354  1.2676 -0.3827
 1230SOL    MW4 4967   0.494   0.121   2.253  0.3594 -0.1202 -0.5302
 1231SOL     OW 4968   0.455   0.407   2.348 -0.3534  0.3850 -0.2654
 1231SOL    HW2 4969   0.451   0.405   2.444  0.2616  1.9408 -0.1839
 1231SOL    HW3 4970   0.473   0.317   2.322  0.7135  0.1761  1.1593
 1231SOL    MW4 4971   0.457   0.395   2.357 -0.1315  0.5627 -0.0665
 1232SOL     OW 4972   0.699   0.521   2.291  0.0551 -0.1275 -0.0087
 1232SOL    HW2 4973   0.692   0.616   2.300 -0.0144 -0.2571  1.3359
 1232SOL    HW3 4974   0.614   0.488   2.319  0.4349 -0.6513  0.5341
 1232SOL    MW4 4975   0.687   0.529   2.296  0.0960 -0.2137  0.2401
 1233SOL     OW 4976   0.681   0.803   2.346 -0.1452  0.1460 -0.2584
 1233SOL    HW2 4977   0.682   0.801   2.441 -0.9340  0.3169 -0.2468
 1233SOL    HW3 4978   0.599   0.847   2.323 -0.7513 -1.3677 -1.0392
 1233SOL    MW4 4979   0.671   0.809   2.355 -0.3292 -0.0312 -0.3600
 1234SOL     OW 4980   0.446   0.908   2.269  0.2855 -0.7266 -0.1430
 1234SOL    HW2 4981   0.370   0.867   2.310  0.1825 -1.6966 -1.2788
 1234SOL    HW3 4982   0.434   0.894   2.175  0.2716  1.9174 -0.5675
 1234SOL    MW4 4983   0.434   0.901   2.262  0.2701 -0.5059 -0.3488
 1235SOL     OW 4984   0.441   1.184   2.366 -0.3862  0.4228  0.0640
 1235SOL    HW2 4985   0.435   1.089   2.352  0.4226  0.3005  0.5689
 1235SOL    HW3 4986   0.360   1.218   2.327 -0.9237 -0.5211  0.3304
 1235SOL    MW4 4987   0.430   1.176   2.359 -0.3504  0.2820  0.1657
 1236SOL     OW 4988   0.708   1.270   2.255 -0.2405 -0.2245 -0.3958
 1236SOL    HW2 4989   0.683   1.355   2.290  0.1452  0.0693 -0.8333
 1236SOL    HW3 4990   0.642   1.210   2.290  1.1920 -0.2764  2.3949
 1236SOL    MW4 4991   0.696   1.273   2.265 -0.0006 -0.1928 -0.0854
 1237SOL     OW 4992   0.694   1.527   2.365 -0.1832 -0.0273  0.3307
 1237SOL    HW2 4993   0.697   1.523   2.460 -0.2214 -0.6557  0.3098
 1237SOL    HW3 4994   0.780   1.561   2.339 -0.2349  0.3037  0.5938
 1237SOL    MW4 4995   0.706   1.531   2.374 -0.1950 -0.0663  0.3629
 1238SOL     OW 4996   0.449   1.636   2.261  0.4066  0.2685  0.3398
 1238SOL    HW2 4997   0.508   1.590   2.321  0.5823  1.5162  1.1412
 1238SOL    HW3 4998   0.364   1.594   2.276  1.1297 -1.7753 -1.0824
 1238SOL    MW4 4999   0.446   1.624   2.271  0.5252  0.1634  0.2580
 1239SOL     OW 5000   0.420   1.890   2.350 -0.3046 -0.4150 -0.0121
 1239SOL    HW2 5001   0.493   1.935   2.308 -0.1043 -0.4426  0.3031
 1239SOL    HW3 5002   0.427   1.799   2.321  0.1126 -0.5321  0.4600
 1239SOL    MW4 5003   0.430   1.884   2.341 -0.2231 -0.4340  0.0918
 1240SOL     OW 5004   0.640   2.044   2.269  0.1031  0.1778 -0.3008
 1240SOL    HW2 5005   0.720   1.997   2.293  0.3099  0.3324 -0.6848
 1240SOL    HW3 5006   0.638   2.120   2.327  0.8405  0.8011 -1.0802
 1240SOL    MW4 5007   0.650   2.048   2.280  0.2276  0.2806 -0.4544
 1241SOL     OW 5008   0.655   2.290   2.369 -0.0970 -0.6258  0.0044
 1241SOL    HW2 5009   0.656   2.309   2.463 -0.4056  0.4375 -0.1979
 1241SOL    HW3 5010   0.740   2.322   2.338  0.4750 -2.0064  0.1045
 1241SOL    MW4 5011   0.667   2.297   2.378 -0.0622 -0.6678 -0.0091
 1242SOL     OW 5012   0.458   2.440   2.256  0.0752 -0.2312  0.1606
 1242SOL    HW2 5013   0.532   2.388   2.287 -0.6354 -2.5886 -1.9725
 1242SOL    HW3 5014   0.382   2.402   2.301  0.0279  1.8643  1.9677
 1242SOL    MW4 5015   0.458   2.428   2.266 -0.0248 -0.2658  0.1178
 1243SOL     OW 5016   0.434   2.709   2.354 -0.1816  0.2256  0.0683
 1243SOL    HW2 5017   0.433   2.706   2.449  2.6021  0.3403  0.1641
 1243SOL    HW3 5018   0.451   2.619   2.327  0.8939  0.5049 -0.2275
 1243SOL    MW4 5019   0.436   2.697   2.363  0.3276  0.2775  0.0417
 1244SOL     OW 5020   0.694   2.842   2.293  0.4603  0.4672 -0.1276
 1244SOL    HW2 5021   0.779   2.800   2.306 -0.3171 -0.7964  1.0313
 1244SOL    HW3 5022   0.633   2.786   2.340 -0.9095  1.7794 -0.3228
 1244SOL    MW4 5023   0.697   2.829   2.301  0.1769  0.4735 -0.0005
 1245SOL     OW 5024   0.689   3.098   2.414  0.3332 -0.5800 -0.5187
 1245SOL    HW2 5025   0.608   3.143   2.389  1.1922 -0.0333 -2.4436
 1245SOL    HW3 5026   0.678   3.009   2.381 -0.4617 -1.2135  1.3717
 1245SOL    MW4 5027   0.677   3.092   2.406  0.3417 -0.5918 -0.5233
 1246SOL     OW 5028   0.448   3.223   2.285 -0.7673  0.0303 -0.0065
 1246SOL    HW2 5029   0.367   3.184   2.318 -1.1659  0.3262 -0.6113
 1246SOL    HW3 5030   0.443   3.209   2.190 -0.0443 -0.0646 -0.0345
 1246SOL    MW4 5031   0.436   3.216   2.277 -0.7245  0.0570 -0.0899
 1247SOL     OW 5032   0.458   3.459   2.400 -0.8566 -0.2040  0.4672
 1247SOL    HW2 5033   0.529   3.507   2.358 -0.1652 -0.5350  1.2412
 1247SOL    HW3 5034   0.457   3.373   2.357 -1.0208 -0.0724  0.2099
 1247SOL    MW4 5035   0.467   3.454   2.389 -0.7871 -0.2303  0.5352
 1248SOL     OW 5036   0.656   3.611   2.282  0.3800 -0.3388 -0.2086
 1248SOL    HW2 5037   0.657   3.703   2.309  0.0113 -0.8433  1.5676
 1248SOL    HW3 5038   0.643   3.615   2.187  0.3904  1.4414 -0.1651
 1248SOL    MW4 5039   0.654   3.624   2.273  0.3327 -0.1705  0.0315
 1249SOL     OW 5040   0.650   3.866   2.377 -0.0913 -0.1225 -0.0821
 1249SOL    HW2 5041   0.651   3.876   2.472  1.5941  1.8209 -0.2479
 1249SOL    HW3 5042   0.585   3.929   2.347 -1.3738 -1.4767 -0.1622
 1249SOL    MW4 5043   0.642   3.876   2.386 -0.0381 -0.0448 -0.1147
 1250SOL     OW 5044   0.429   4.019   2.291  0.2727 -0.2520 -0.1389
 1250SOL    HW2 5045   0.351   3.971   2.321  0.3346 -0.7252 -0.7447
 1250SOL    HW3 5046   0.437   3.997   2.199  0.1775  1.0893 -0.4840
 1250SOL    MW4 5047   0.420   4.010   2.283  0.2683 -0.1373 -0.2642
 1251SOL     OW 5048   0.489   4.275   2.424  0.1958 -0.2325 -0.0203
 1251SOL    HW2 5049   0.562   4.320   2.380 -1.5980  1.3071 -1.4986
 1251SOL    HW3 5050   0.479   4.193   2.376  0.8458 -0.3907  0.1011
 1251SOL    MW4 5051   0.497   4.270   2.412  0.0449 -0.0501 -0.1993
 1252SOL     OW 5052   0.711   4.382   2.293 -0.0115 -0.4753 -0.1404
 1252SOL    HW2 5053   0.725   4.476   2.307  0.2090 -0.4611 -0.4605
 1252SOL    HW3 5054   0.710   4.371   2.198 -0.5889 -0.7184 -0.1066
 1252SOL    MW4 5055   0.713   4.393   2.283 -0.0585 -0.5054 -0.1781
 1253SOL     OW 5056   1.135   4.643   2.348  0.2590  0.6844 -0.4455
 1253SOL    HW2 5057   1.132   4.655   2.442 -0.9464 -1.0429 -0.2385
 1253SOL    HW3 5058   1.064   4.698   2.314 -0.6651 -0.2968 -0.1410
 1253SOL    MW4 5059   1.125   4.652   2.356 -0.0221  0.3271 -0.3777
 1254SOL     OW 5060   0.940   0.156   2.265  0.3224 -0.3723  0.2020
 1254SOL    HW2 5061   0.940   0.247   2.295  0.5085 -0.4366  0.3921
 1254SOL    HW3 5062   0.923   0.162   2.171 -0.0452 -0.1597  0.2769
 1254SOL    MW4 5063   0.938   0.169   2.256  0.2984 -0.3528  0.2370
 1255SOL     OW 5064   0.927   0.405   2.401  0.3774  0.0981 -0.3289
 1255SOL    HW2 5065   1.007   0.439   2.362  0.4356 -1.0935 -1.2993
 1255SOL    HW3 5066   0.856   0.450   2.355  0.4443 -1.3790 -1.9125
 1255SOL    MW4 5067   0.928   0.415   2.390  0.3939 -0.2540 -0.6659
 1256SOL     OW 5068   1.153   0.516   2.265  0.2818  0.0000  0.2565
 1256SOL    HW2 5069   1.229   0.463   2.288 -1.7402 -3.2733 -0.3214
 1256SOL    HW3 5070   1.146   0.509   2.170 -0.8060  0.1857  0.3182
 1256SOL    MW4 5071   1.162   0.508   2.256 -0.1285 -0.4073  0.1884
 1257SOL     OW 5072   1.136   0.779   2.347 -0.7275  0.8397  0.2004
 1257SOL    HW2 5073   1.054   0.811   2.309 -1.0316  0.8099  0.8206
 1257SOL    HW3 5074   1.137   0.686   2.327  0.0200  1.1793 -1.3616
 1257SOL    MW4 5075   1.125   0.771   2.339 -0.6689  0.8805  0.0763
 1258SOL     OW 5076   0.911   0.927   2.253 -0.2305 -0.8578  0.2897
 1258SOL    HW2 5077   0.921   0.998   2.317  2.0865  0.0203 -0.9554
 1258SOL    HW3 5078   0.834   0.879   2.281  0.8383 -0.6114  3.8585
 1258SOL    MW4 5079   0.902   0.930   2.265  0.2162 -0.7095  0.5963
 1259SOL     OW 5080   0.922   1.164   2.396 -0.0048  0.1264  0.0017
 1259SOL    HW2 5081   1.001   1.210   2.369 -1.1875  1.4098 -1.3284
 1259SOL    HW3 5082   0.850   1.210   2.352 -1.3929 -1.7931  0.1670
 1259SOL    MW4 5083   0.923   1.176   2.387 -0.3440  0.0424 -0.1519
 1260SOL     OW 5084   1.171   1.257   2.311 -0.3373 -0.5057  0.2836
 1260SOL    HW2 5085   1.258   1.220   2.329  0.0521 -0.3994 -1.3125
 1260SOL    HW3 5086   1.162   1.252   2.216 -1.1156  1.6961  0.2201
 1260SOL    MW4 5087   1.181   1.251   2.301 -0.3885 -0.2011  0.0644
 1261SOL     OW 5088   1.156   1.519   2.354  0.2235 -0.1082  0.3179
 1261SOL    HW2 5089   1.073   1.559   2.328  0.6082  0.2107 -0.4573
 1261SOL    HW3 5090   1.143   1.426   2.338  0.7969  0.1854 -2.0668
 1261SOL    MW4 5091   1.143   1.512   2.348  0.3499 -0.0274 -0.0989
 1262SOL     OW 5092   0.918   1.647   2.272 -0.1546 -0.3240 -0.0576
 1262SOL    HW2 5093   0.893   1.735   2.300 -0.0449 -0.6579  1.0971
 1262SOL    HW3 5094   0.912   1.650   2.176 -3.1249  0.0284  0.1013
 1262SOL    MW4 5095   0.914   1.659   2.263 -0.5320 -0.3214  0.1156
 1263SOL     OW 5096   0.871   1.918   2.365  0.4448  0.1726  0.4869
 1263SOL    HW2 5097   0.886   1.925   2.459  1.6446  1.0048  0.2434
 1263SOL    HW3 5098   0.957   1.933   2.326 -0.1095  0.1504 -0.7588
 1263SOL    MW4 5099   0.884   1.921   2.372  0.5300  0.2795  0.2902
 1264SOL     OW 5100   1.128   2.011   2.257 -0.4392 -0.5747  0.0382
 1264SOL    HW2 5101   1.217   1.994   2.288 -0.1983  0.9304  0.2043
 1264SOL    HW3 5102   1.136   2.012   2.161 -0.3260 -0.6376  0.0462
 1264SOL    MW4 5103   1.141   2.009   2.248 -0.3924 -0.3846  0.0610
 1265SOL     OW 5104   1.105   2.261   2.386  0.0600  0.8271  0.0600
 1265SOL    HW2 5105   1.159   2.319   2.333  1.1750  0.0654  0.3498
 1265SOL    HW3 5106   1.101   2.180   2.337  0.3654  0.4135  0.7034
 1265SOL    MW4 5107   1.112   2.258   2.373  0.2475  0.6721  0.1833
 1266SOL     OW 5108   0.892   2.405   2.272  0.1052  0.2830  0.2411
 1266SOL    HW2 5109   0.964   2.357   2.313 -0.6269 -0.3349  0.8224
 1266SOL    HW3 5110   0.919   2.416   2.180  0.4827 -0.8203  0.2206
 1266SOL    MW4 5111   0.905   2.401   2.265  0.0584  0.0560  0.3154
 1267SOL     OW 5112   0.897   2.651   2.376  0.0826 -0.0065 -0.3425
 1267SOL    HW2 5113   0.901   2.632   2.470  2.9890 -1.3922 -0.7023
 1267SOL    HW3 5114   0.899   2.565   2.334 -2.4012  0.5409 -1.7043
 1267SOL    MW4 5115   0.898   2.638   2.383  0.1384 -0.1171 -0.5696
 1268SOL     OW 5116   1.101   2.813   2.257 -0.1828 -0.3168 -0.2559
 1268SOL    HW2 5117   1.165   2.755   2.300 -0.4770 -0.5033 -0.0727
 1268SOL    HW3 5118   1.018   2.766   2.263 -0.7163  0.8063  1.2445
 1268SOL    MW4 5119   1.099   2.799   2.263 -0.2922 -0.1931 -0.0339
 1269SOL     OW 5120   1.120   3.067   2.417  0.2375 -0.1191 -0.1204
 1269SOL    HW2 5121   1.052   3.115   2.370  0.1863 -1.0716 -1.0280
 1269SOL    HW3 5122   1.113   2.977   2.386  0.1954 -0.7842  1.7179
 1269SOL    MW4 5123   1.110   3.062   2.407  0.2253 -0.3324  0.0021
 1270SOL     OW 5124   0.920   3.227   2.302  0.1919  0.1007  0.5418
 1270SOL    HW2 5125   0.929   3.320   2.323  0.8622  0.2381 -0.2999
 1270SOL    HW3 5126   0.834   3.203   2.336 -0.3839  1.2629 -0.0482
 1270SOL    MW4 5127   0.910   3.236   2.309  0.2043  0.2723  0.3526
 1271SOL     OW 5128   0.895   3.505   2.365  0.0013 -0.3925  0.6659
 1271SOL    HW2 5129   0.880   3.493   2.459  0.8352 -1.1722  0.7013
 1271SOL    HW3 5130   0.810   3.534   2.331 -0.2529  0.0602  1.6881
 1271SOL    MW4 5131   0.881   3.507   2.373  0.0777 -0.4356  0.8054
 1272SOL     OW 5132   1.119   3.611   2.259 -0.0653 -0.7524 -0.0310
 1272SOL    HW2 5133   1.194   3.562   2.291 -0.7167 -1.9081 -0.2647
 1272SOL    HW3 5134   1.043   3.569   2.299 -0.6132  0.2192 -0.0325
 1272SOL    MW4 5135   1.119   3.599   2.268 -0.2235 -0.7768 -0.0620
 1273SOL     OW 5136   1.109   3.869   2.346  0.3401 -0.4408  0.1619
 1273SOL    HW2 5137   1.186   3.917   2.316 -0.0207  0.8801  1.2586
 1273SOL    HW3 5138   1.125   3.778   2.322  2.3865 -0.2320  0.6773
 1273SOL    MW4 5139   1.121   3.863   2.339  0.5624 -0.2389  0.3746
 1274SOL     OW 5140   0.883   3.981   2.264 -0.0504 -0.2981  0.2338
 1274SOL    HW2 5141   0.959   3.932   2.294  0.0375  0.0656  0.6120
 1274SOL    HW3 5142   0.808   3.936   2.304  0.0081 -0.2921  0.3489
 1274SOL    MW4 5143   0.883   3.969   2.273 -0.0311 -0.2494  0.2990
 1275SOL     OW 5144   0.914   4.227   2.391  0.3270 -0.1781  0.4384
 1275SOL    HW2 5145   0.901   4.139   2.354  0.3477  0.5500 -1.3311
 1275SOL    HW3 5146   0.854   4.283   2.342  0.7633  0.9223  1.1443
 1275SOL    MW4 5147   0.904   4.222   2.380  0.3873  0.0639  0.2980
 1276SOL     OW 5148   1.115   4.382   2.263 -0.3588  0.5491  0.0766
 1276SOL    HW2 5149   1.061   4.335   2.326  0.2807 -1.0005 -0.5042
 1276SOL    HW3 5150   1.107   4.474   2.289 -1.9134  0.1745  1.0101
 1276SOL    MW4 5151   1.107   4.388   2.275 -0.4795  0.2947  0.1230
 1277SOL     OW 5152   1.578   4.652   2.385 -0.2412 -0.5978 -0.2514
 1277SOL    HW2 5153   1.662   4.691   2.359 -0.5229  0.9985  1.0842
 1277SOL    HW3 5154   1.513   4.700   2.334 -0.2923 -2.6474 -2.1731
 1277SOL    MW4 5155   1.580   4.664   2.375 -0.2851 -0.6576 -0.3288
 1278SOL     OW 5156   1.342   0.120   2.250  0.2803  0.0770 -0.1296
 1278SOL    HW2 5157   1.330   0.210   2.282  1.5715  0.6888 -1.2760
 1278SOL    HW3 5158   1.279   0.068   2.299 -0.4615  1.6127  0.5818
 1278SOL    MW4 5159   1.332   0.125   2.260  0.3527  0.3603 -0.1872
 1279SOL     OW 5160   1.338   0.368   2.389 -0.1576 -0.2176  0.2743
 1279SOL    HW2 5161   1.345   0.364   2.484  0.9879 -1.4509  0.1451
 1279SOL    HW3 5162   1.419   0.410   2.361  1.2353 -3.2375 -0.3942
 1279SOL    MW4 5163   1.349   0.373   2.398  0.1773 -0.7788  0.1690
 1280SOL     OW 5164   1.562   0.521   2.304 -0.1200  0.2400 -0.0689
 1280SOL    HW2 5165   1.638   0.470   2.331 -1.3599 -1.3214  0.5890
 1280SOL    HW3 5166   1.568   0.525   2.209  0.3395 -0.5801 -0.0801
 1280SOL    MW4 5167   1.573   0.515   2.295 -0.2230 -0.0741  0.0162
 1281SOL     OW 5168   1.576   0.764   2.437 -0.1335 -0.0398 -0.1329
 1281SOL    HW2 5169   1.656   0.792   2.392 -0.1271 -0.5964 -0.4638
 1281SOL    HW3 5170   1.554   0.679   2.399 -0.3968 -0.2970  0.5741
 1281SOL    MW4 5171   1.583   0.757   2.426 -0.1673 -0.1472 -0.0834
 1282SOL     OW 5172   1.387   0.844   2.244 -0.4673 -0.4999  0.1362
 1282SOL    HW2 5173   1.449   0.824   2.313 -1.7220  2.5455  2.2670
 1282SOL    HW3 5174   1.304   0.809   2.275 -0.8120 -0.1576 -0.3804
 1282SOL    MW4 5175   1.384   0.837   2.257 -0.6784 -0.0530  0.3493
 1283SOL     OW 5176   1.427   1.116   2.353 -0.3938 -0.0778  0.1619
 1283SOL    HW2 5177   1.421   1.136   2.446 -2.5543  0.2857 -0.0260
 1283SOL    HW3 5178   1.402   1.023   2.347  0.9552 -0.4389  0.0779
 1283SOL    MW4 5179   1.423   1.106   2.364 -0.5008 -0.0774  0.1261
 1284SOL     OW 5180   1.639   1.284   2.244  0.2106 -0.0751  0.7135
 1284SOL    HW2 5181   1.563   1.232   2.272 -1.1201  1.1427 -0.5055
 1284SOL    HW3 5182   1.619   1.307   2.153  1.9726  0.4376  0.4390
 1284SOL    MW4 5183   1.626   1.280   2.236  0.2674  0.1532  0.5167
 1285SOL     OW 5184   1.611   1.524   2.388  0.3511  0.2914 -0.6314
 1285SOL    HW2 5185   1.690   1.574   2.365  2.0702 -2.4194 -0.8630
 1285SOL    HW3 5186   1.602   1.460   2.317 -1.0693 -0.5548  0.2892
 1285SOL    MW4 5187   1.621   1.522   2.375  0.3905 -0.1779 -0.5405
 1286SOL     OW 5188   1.387   1.651   2.276  0.1735 -0.4082  0.2735
 1286SOL    HW2 5189   1.460   1.605   2.317  0.6035  0.9415  1.0598
 1286SOL    HW3 5190   1.310   1.600   2.300  0.5288 -0.1612  2.0023
 1286SOL    MW4 5191   1.386   1.638   2.285  0.2770 -0.1974  0.6053
 1287SOL     OW 5192   1.362   1.910   2.390  0.3913 -0.0192 -0.0308
 1287SOL    HW2 5193   1.444   1.946   2.354 -0.2302 -0.2126 -1.6657
 1287SOL    HW3 5194   1.370   1.816   2.377 -1.7371  0.2478 -3.7764
 1287SOL    MW4 5195   1.374   1.902   2.384  0.0286 -0.0095 -0.7408
 1288SOL     OW 5196   1.598   2.020   2.312  0.1291 -0.3677 -0.6950
 1288SOL    HW2 5197   1.684   1.989   2.340  0.3502  1.4295  0.7080
 1288SOL    HW3 5198   1.603   2.024   2.217  0.7929 -2.5434 -0.7722
 1288SOL    MW4 5199   1.610   2.016   2.304  0.2459 -0.4177 -0.5202
 1289SOL     OW 5200   1.527   2.283   2.386 -0.3860 -0.0950 -0.3087
 1289SOL    HW2 5201   1.540   2.285   2.481 -2.3156 -0.5245 -0.0137
 1289SOL    HW3 5202   1.546   2.193   2.362  0.0236 -0.0061 -0.3246
 1289SOL    MW4 5203   1.531   2.271   2.395 -0.5864 -0.1397 -0.2716
 1290SOL     OW 5204   1.336   2.475   2.009 -0.2831 -0.0373  0.0276
 1290SOL    HW2 5205   1.332   2.449   2.101 -2.4418 -1.4426 -0.4241
 1290SOL    HW3 5206   1.416   2.436   1.976  0.6501  0.7114  1.3629
 1290SOL    MW4 5207   1.346   2.467   2.017 -0.4448 -0.1240  0.1442
 1291SOL     OW 5208   1.302   2.414   2.275  0.3653 -0.1036 -0.5575
 1291SOL    HW2 5209   1.306   2.502   2.312 -2.0947 -0.0331 -0.3790
 1291SOL    HW3 5210   1.380   2.370   2.310  0.6933  1.4495  0.7574
 1291SOL    MW4 5211   1.313   2.420   2.284  0.0839  0.1109 -0.3605
 1292SOL     OW 5212   1.551   2.818   2.286 -0.8108  0.7632  0.2091
 1292SOL    HW2 5213   1.543   2.904   2.328 -0.2311  0.5572  0.7578
 1292SOL    HW3 5214   1.516   2.831   2.198 -3.8198  0.7331  1.3462
 1292SOL    MW4 5215   1.546   2.831   2.280 -1.1313  0.7319  0.4315
 1293SOL     OW 5216   1.544   3.100   2.407  0.3682 -0.0783 -0.2491
 1293SOL    HW2 5217   1.561   3.112   2.501 -0.9157 -0.8621  0.1021
 1293SOL    HW3 5218   1.468   3.156   2.389  0.2823 -0.3349 -0.7001
 1293SOL    MW4 5219   1.536   3.109   2.417  0.1875 -0.2158 -0.2625
 1294SOL     OW 5220   1.325   3.232   2.312 -0.3845  0.2772 -0.0617
 1294SOL    HW2 5221   1.255   3.170   2.332  0.5259 -0.1057  2.0307
 1294SOL    HW3 5222   1.318   3.246   2.217  0.5560 -4.4167 -0.9286
 1294SOL    MW4 5223   1.315   3.226   2.302 -0.1404 -0.3927  0.0997
 1295SOL     OW 5224   1.353   3.504   2.415 -0.5574  0.0605  0.3322
 1295SOL    HW2 5225   1.347   3.494   2.510  1.7800 -0.4935  0.4377
 1295SOL    HW3 5226   1.350   3.414   2.382  1.4356  0.0703  0.0818
 1295SOL    MW4 5227   1.352   3.491   2.423  0.0141 -0.0112  0.3128
 1296SOL     OW 5228   1.589   3.600   2.285 -0.2732  0.0015  0.4387
 1296SOL    HW2 5229   1.599   3.694   2.301 -0.5594  0.4702 -1.8822
 1296SOL    HW3 5230   1.519   3.572   2.344  0.1654  1.1384  1.5039
 1296SOL    MW4 5231   1.581   3.609   2.295 -0.2531  0.2136  0.2730
 1297SOL     OW 5232   1.591   3.864   2.380 -0.3930 -0.0870  0.4388
 1297SOL    HW2 5233   1.580   3.856   2.474 -0.1506  2.6033  0.7224
 1297SOL    HW3 5234   1.659   3.929   2.368 -1.0298  0.2704 -1.6098
 1297SOL    MW4 5235   1.598   3.871   2.391 -0.4450  0.3152  0.2058
 1298SOL     OW 5236   1.354   3.989   2.291 -0.4022 -0.2579  0.0721
 1298SOL    HW2 5237   1.438   3.947   2.308  0.2780  0.9538 -0.2541
 1298SOL    HW3 5238   1.362   4.024   2.203 -0.6632  1.2352  0.6249
 1298SOL    MW4 5239   1.366   3.988   2.282 -0.3469  0.0992  0.1018
 1299SOL     OW 5240   1.357   4.258   2.345  0.3000  0.2115  0.5719
 1299SOL    HW2 5241   1.339   4.167   2.322 -0.8698  0.8229 -0.9733
 1299SOL    HW3 5242   1.277   4.305   2.324  0.7876  1.5594  1.6484
 1299SOL    MW4 5243   1.344   4.252   2.339  0.2099  0.4702  0.5100
 1300SOL     OW 5244   1.545   4.422   2.229  0.1106 -0.1530 -0.2278
 1300SOL    HW2 5245   1.481   4.365   2.272  0.4814 -0.0594  0.4534
 1300SOL    HW3 5246   1.559   4.493   2.290  0.2473  0.2616 -0.7384
 1300SOL    MW4 5247   1.539   4.424   2.243  0.1776 -0.0863 -0.2053
 1301SOL     OW 5248   2.022   0.017   2.367  0.3821  0.4437  0.7010
 1301SOL    HW2 5249   2.091   0.069   2.325  0.3255 -0.8488 -1.0426
 1301SOL    HW3 5250   2.031  -0.071   2.329 -1.7745  0.0709  0.9700
 1301SOL    MW4 5251   2.032   0.012   2.357  0.0899  0.2240  0.5066
 1302SOL     OW 5252   1.780   0.124   2.268  0.1982 -0.0073  0.5077
 1302SOL    HW2 5253   1.767   0.202   2.323  1.4111  0.2547  0.4368
 1302SOL    HW3 5254   1.861   0.086   2.299 -0.1991 -1.0494  0.2871
 1302SOL    MW4 5255   1.789   0.129   2.279  0.3058 -0.1102  0.4690
 1303SOL     OW 5256   1.761   0.361   2.420 -0.3859 -0.4512  0.1947
 1303SOL    HW2 5257   1.789   0.382   2.509 -2.2006  0.9171  0.4685
 1303SOL    HW3 5258   1.836   0.386   2.365  0.3849 -0.4339  1.2292
 1303SOL    MW4 5259   1.775   0.367   2.425 -0.5236 -0.2684  0.3672
 1304SOL     OW 5260   1.988   0.467   2.294  0.0656  0.0199 -0.1208
 1304SOL    HW2 5261   2.009   0.551   2.334 -1.1873  0.3723 -0.1737
 1304SOL    HW3 5262   2.000   0.481   2.200 -0.1234  0.1438 -0.1277
 1304SOL    MW4 5263   1.992   0.480   2.287 -0.1247  0.0828 -0.1287
 1305SOL     OW 5264   2.049   0.727   2.380 -0.1759  0.2632 -0.3039
 1305SOL    HW2 5265   2.128   0.782   2.377 -0.3222  0.4177 -1.3380
 1305SOL    HW3 5266   1.977   0.786   2.358 -0.7966  0.4745  2.1066
 1305SOL    MW4 5267   2.050   0.742   2.377 -0.2770  0.3115 -0.1225
 1306SOL     OW 5268   1.815   0.886   2.318 -0.0875 -0.2469 -0.4388
 1306SOL    HW2 5269   1.793   0.977   2.340  0.4748  0.3362 -2.2089
 1306SOL    HW3 5270   1.793   0.878   2.225 -1.6053 -2.3953  0.0846
 1306SOL    MW4 5271   1.809   0.897   2.309 -0.2136 -0.4534 -0.6030
 1307SOL     OW 5272   1.789   1.134   2.414  0.2161  0.0861  0.2655
 1307SOL    HW2 5273   1.876   1.171   2.399 -0.1727  0.6458 -0.6429
 1307SOL    HW3 5274   1.731   1.186   2.358 -0.6845 -0.3600  0.7797
 1307SOL    MW4 5275   1.793   1.146   2.404  0.0460  0.1011  0.2134
 1308SOL     OW 5276   2.027   1.231   2.304 -0.2128  0.1429  0.0831
 1308SOL    HW2 5277   2.043   1.312   2.353  0.2871  0.8781 -1.2634
 1308SOL    HW3 5278   2.044   1.255   2.213  0.6854 -1.6863 -0.2506
 1308SOL    MW4 5279   2.031   1.245   2.298 -0.0284 -0.0017 -0.1388
 1309SOL     OW 5280   2.050   1.485   2.410 -0.1563 -0.2163 -0.0611
 1309SOL    HW2 5281   2.042   1.513   2.502 -0.8967  0.2811 -0.2735
 1309SOL    HW3 5282   1.983   1.536   2.364  0.8305  0.2072 -1.0353
 1309SOL    MW4 5283   2.040   1.495   2.416 -0.1237 -0.0949 -0.2174
 1310SOL     OW 5284   1.848   1.641   2.303 -0.3760 -0.3482 -0.2107
 1310SOL    HW2 5285   1.854   1.725   2.349 -0.1797 -0.7503  0.5050
 1310SOL    HW3 5286   1.848   1.665   2.210  0.3837  0.4055 -0.0263
 1310SOL    MW4 5287   1.849   1.656   2.296 -0.2499 -0.3017 -0.0918
 1311SOL     OW 5288   1.860   1.894   2.420  0.8112 -0.2537 -0.1888
 1311SOL    HW2 5289   1.847   1.922   2.510 -0.2374 -0.2651 -0.3221
 1311SOL    HW3 5290   1.921   1.957   2.383  0.6140  0.2306  0.3040
 1311SOL    MW4 5291   1.866   1.906   2.427  0.6469 -0.1915 -0.1411
 1312SOL     OW 5292   2.038   2.077   2.286 -0.3455  0.1937 -0.1739
 1312SOL    HW2 5293   2.108   2.046   2.343 -0.9565  0.3174  0.6463
 1312SOL    HW3 5294   2.064   2.048   2.198  0.0775 -0.9007  0.3091
 1312SOL    MW4 5295   2.051   2.069   2.282 -0.3700  0.0656 -0.0019
 1313SOL     OW 5296   2.034   2.327   2.394 -0.2166  0.1737  0.2977
 1313SOL    HW2 5297   2.109   2.380   2.367 -0.5060  0.3057 -0.2446
 1313SOL    HW3 5298   2.044   2.245   2.346 -0.7624  0.4311 -0.2620
 1313SOL    MW4 5299   2.045   2.323   2.384 -0.3269  0.2253  0.1523
 1314SOL     OW 5300   1.781   2.425   2.307  0.1612  0.0242  0.3675
 1314SOL    HW2 5301   1.842   2.374   2.361 -0.5636 -0.9646  0.2717
 1314SOL    HW3 5302   1.697   2.380   2.318 -0.0419 -0.0568 -1.4050
 1314SOL    MW4 5303   1.778   2.412   2.316  0.0387 -0.1171  0.1206
 1315SOL     OW 5304   1.780   2.694   2.390  1.0070  0.3704 -0.3067
 1315SOL    HW2 5305   1.785   2.617   2.333  0.0000 -0.6610  0.9541
 1315SOL    HW3 5306   1.700   2.739   2.362 -0.1900 -0.8306  1.1074
 1315SOL    MW4 5307   1.770   2.689   2.379  0.7162  0.0761  0.0460
 1316SOL     OW 5308   2.013   2.818   2.273  0.0045  0.2826  0.3105
 1316SOL    HW2 5309   2.092   2.784   2.314  0.0915 -1.3893 -1.1816
 1316SOL    HW3 5310   1.941   2.777   2.322  0.1021 -0.6010 -0.2620
 1316SOL    MW4 5311   2.014   2.808   2.285  0.0288 -0.0546  0.0381
 1317SOL     OW 5312   1.988   3.077   2.378  0.2501  0.3297  0.0801
 1317SOL    HW2 5313   2.067   3.127   2.359  0.7435 -0.6656 -0.4843
 1317SOL    HW3 5314   1.992   3.001   2.320 -2.1199  1.3033 -1.4449
 1317SOL    MW4 5315   1.999   3.074   2.368  0.0024  0.3269 -0.1957
 1318SOL     OW 5316   1.762   3.213   2.279  0.0395  0.1287  0.1687
 1318SOL    HW2 5317   1.830   3.172   2.332 -1.4489 -0.7007  1.4600
 1318SOL    HW3 5318   1.680   3.193   2.324 -1.1388  0.5690 -1.7108
 1318SOL    MW4 5319   1.760   3.205   2.292 -0.3122  0.0772  0.0911
 1319SOL     OW 5320   1.772   3.453   2.429 -0.5318  0.1489  0.0817
 1319SOL    HW2 5321   1.764   3.369   2.383 -0.2998  0.2805 -0.2049
 1319SOL    HW3 5322   1.713   3.512   2.382  0.0332  0.3984 -0.3250
 1319SOL    MW4 5323   1.764   3.450   2.417 -0.4267  0.1993 -0.0098
 1320SOL     OW 5324   2.013   3.612   2.376 -0.2534 -0.5694  0.1464
 1320SOL    HW2 5325   1.924   3.585   2.399 -0.6532 -0.8688 -1.6557
 1320SOL    HW3 5326   2.015   3.609   2.280  1.4579  0.2129  0.1340
 1320SOL    MW4 5327   2.001   3.608   2.366 -0.0803 -0.5057 -0.0932
 1321SOL     OW 5328   2.003   3.881   2.432  0.2938  0.0106 -0.2680
 1321SOL    HW2 5329   1.995   3.884   2.527  0.0554  1.5249 -0.3274
 1321SOL    HW3 5330   1.978   3.791   2.409 -1.2472  0.0974  0.9571
 1321SOL    MW4 5331   1.999   3.869   2.442  0.0591  0.2220 -0.1140
 1322SOL     OW 5332   1.797   4.042   2.307 -0.7317  0.4980 -0.0812
 1322SOL    HW2 5333   1.857   3.988   2.357  0.6637  1.6138 -0.5268
 1322SOL    HW3 5334   1.820   4.026   2.216 -0.1871  1.9636 -0.2127
 1322SOL    MW4 5335   1.808   4.033   2.302 -0.4759  0.8383 -0.1571
 1323SOL     OW 5336   1.775   4.327   2.331 -0.2329 -0.3785 -0.2409
 1323SOL    HW2 5337   1.762   4.232   2.335 -1.3086 -0.2074  0.9551
 1323SOL    HW3 5338   1.695   4.360   2.290  1.0784 -0.1563 -2.6730
 1323SOL    MW4 5339   1.762   4.319   2.326 -0.2017 -0.3266 -0.4041
 1324SOL     OW 5340   2.034   4.426   2.262 -0.3499  0.0146 -0.0314
 1324SOL    HW2 5341   1.942   4.400   2.272 -0.1244 -0.2772  1.3373
 1324SOL    HW3 5342   2.050   4.421   2.167 -1.4378 -0.9847 -0.1709
 1324SOL    MW4 5343   2.024   4.422   2.251 -0.4637 -0.1559  0.1307
 1325SOL     OW 5344   2.477   0.007   2.339  0.2909  0.6175  0.4219
 1325SOL    HW2 5345   2.556   0.053   2.310 -0.1892  0.0162 -1.9942
 1325SOL    HW3 5346   2.486  -0.081   2.302 -1.0460  0.2568  0.9287
 1325SOL    MW4 5347   2.489   0.001   2.330  0.0510  0.4907  0.1700
 1326SOL     OW 5348   2.260   0.131   2.239  0.2485 -0.4685 -0.6774
 1326SOL    HW2 5349   2.274   0.222   2.266  1.9883  0.1026 -3.3785
 1326SOL    HW3 5350   2.321   0.081   2.292  0.0224  0.0341  0.0760
 1326SOL    MW4 5351   2.270   0.137   2.250  0.4480 -0.3268 -0.9344
 1327SOL     OW 5352   2.254   0.388   2.352 -0.0227  0.1658  0.2282
 1327SOL    HW2 5353   2.261   0.393   2.448  0.1972 -0.3539  0.2444
 1327SOL    HW3 5354   2.160   0.390   2.335 -0.0515  0.6264  0.4312
 1327SOL    MW4 5355   2.243   0.389   2.363  0.0026  0.1580  0.2570
 1328SOL     OW 5356   2.496   0.527   2.262  0.5236 -0.5279  0.2662
 1328SOL    HW2 5357   2.415   0.500   2.307  0.4850  0.1853  0.6302
 1328SOL    HW3 5358   2.476   0.515   2.169 -0.3313  0.5378  0.3061
 1328SOL    MW4 5359   2.482   0.522   2.256  0.4055 -0.2931  0.3197
 1329SOL     OW 5360   2.538   0.734   2.422  0.6124 -0.0671  0.4132
 1329SOL    HW2 5361   2.603   0.789   2.378  0.1588 -1.5747 -2.2837
 1329SOL    HW3 5362   2.532   0.656   2.367 -1.4937 -1.1732  2.1163
 1329SOL    MW4 5363   2.546   0.731   2.409  0.2747 -0.4119  0.2818
 1330SOL     OW 5364   2.277   0.876   2.354  0.4985 -0.1851 -0.3949
 1330SOL    HW2 5365   2.261   0.967   2.379 -0.8545 -0.3794 -0.5073
 1330SOL    HW3 5366   2.361   0.854   2.394  0.5323  0.9249  0.1526
 1330SOL    MW4 5367   2.286   0.885   2.363  0.3245 -0.0643 -0.3374
 1331SOL     OW 5368   2.258   1.149   2.431 -0.1439 -0.1047 -0.0021
 1331SOL    HW2 5369   2.336   1.188   2.390 -0.1201  0.2942  0.4165
 1331SOL    HW3 5370   2.185   1.182   2.378 -0.0302 -0.4478 -0.3723
 1331SOL    MW4 5371   2.259   1.159   2.419 -0.1256 -0.0972  0.0043
 1332SOL     OW 5372   2.469   1.256   2.278 -0.2880  0.1157  0.5766
 1332SOL    HW2 5373   2.539   1.194   2.299  0.6092  0.6286 -0.7479
 1332SOL    HW3 5374   2.495   1.337   2.322 -0.3576  0.1374  0.5773
 1332SOL    MW4 5375   2.482   1.258   2.286 -0.1791  0.1863  0.4020
 1333SOL     OW 5376   2.515   1.483   2.418 -0.4958  0.0068 -0.1033
 1333SOL    HW2 5377   2.512   1.478   2.514  0.3315  0.5303 -0.0434
 1333SOL    HW3 5378   2.582   1.549   2.400  0.5768 -1.3122 -1.0564
 1333SOL    MW4 5379   2.524   1.491   2.428 -0.2449 -0.0981 -0.2213
 1334SOL     OW 5380   2.281   1.627   2.311 -0.6394  0.4503  0.0669
 1334SOL    HW2 5381   2.355   1.603   2.367  0.1725  0.4949 -0.9699
 1334SOL    HW3 5382   2.206   1.581   2.349  0.0858 -0.2739  0.6304
 1334SOL    MW4 5383   2.281   1.618   2.324 -0.4365  0.3606  0.0043
 1335SOL     OW 5384   2.247   1.908   2.403 -0.2326 -0.0395  0.0452
 1335SOL    HW2 5385   2.328   1.939   2.361 -1.1018  0.5770 -1.2236
 1335SOL    HW3 5386   2.246   1.814   2.387 -0.5238  0.1782 -1.3198
 1335SOL    MW4 5387   2.258   1.900   2.395 -0.3858  0.0706 -0.3021
 1336SOL     OW 5388   2.459   2.038   2.282 -0.0925  0.7163  0.1626
 1336SOL    HW2 5389   2.544   2.007   2.313  0.4268  1.3660 -0.5907
 1336SOL    HW3 5390   2.466   2.036   2.186 -0.9464  0.7053  0.0956
 1336SOL    MW4 5391   2.471   2.034   2.273 -0.1369  0.8006  0.0544
 1337SOL     OW 5392   2.450   2.317   2.391  0.0873 -0.3984 -0.9789
 1337SOL    HW2 5393   2.529   2.352   2.350  0.2466 -1.4317 -1.5690
 1337SOL    HW3 5394   2.440   2.230   2.354 -0.3156 -0.9753  0.4434
 1337SOL    MW4 5395   2.459   2.310   2.381  0.0553 -0.6108 -0.8693
 1338SOL     OW 5396   2.240   2.461   2.289  0.3920 -0.5096 -0.0457
 1338SOL    HW2 5397   2.238   2.552   2.319  0.4166 -0.2410 -0.8500
 1338SOL    HW3 5398   2.316   2.423   2.332  0.7869  0.0402 -0.2517
 1338SOL    MW4 5399   2.250   2.468   2.299  0.4473 -0.4017 -0.1791
 1339SOL     OW 5400   2.240   2.718   2.401 -0.3324 -0.1083  0.0364
 1339SOL    HW2 5401   2.241   2.728   2.496 -2.7532  0.8693 -0.0043
 1339SOL    HW3 5402   2.320   2.761   2.370  0.3097 -0.1746  1.6025
 1339SOL    MW4 5403   2.250   2.725   2.409 -0.5670  0.0119  0.2379
 1340SOL     OW 5404   2.474   2.825   2.302  0.2535 -0.0826 -0.6953
 1340SOL    HW2 5405   2.546   2.772   2.336 -0.6051 -0.8730 -0.0948
 1340SOL    HW3 5406   2.476   2.809   2.207  2.6361  2.1141 -1.0795
 1340SOL    MW4 5407   2.484   2.816   2.294  0.4547  0.1028 -0.6666
 1341SOL     OW 5408   2.484   3.084   2.388  0.7626 -0.6575 -0.4415
 1341SOL    HW2 5409   2.550   3.124   2.332 -0.8335 -1.2888 -2.8576
 1341SOL    HW3 5410   2.489   2.990   2.366 -0.7119 -0.7420 -0.4441
 1341SOL    MW4 5411   2.494   3.077   2.378  0.3574 -0.7520 -0.7608
 1342SOL     OW 5412   2.221   3.208   2.320  0.4450 -0.0607  0.0732
 1342SOL    HW2 5413   2.232   3.297   2.354  0.0628 -0.7900  2.2025
 1342SOL    HW3 5414   2.301   3.162   2.345 -0.0146 -0.7252  0.3272
 1342SOL    MW4 5415   2.233   3.214   2.328  0.3338 -0.2446  0.3877
 1343SOL     OW 5416   2.241   3.477   2.436  0.2255  0.0367 -0.1212
 1343SOL    HW2 5417   2.238   3.477   2.531  1.4310 -1.0172 -0.0716
 1343SOL    HW3 5418   2.158   3.516   2.409  0.1883  1.0039  1.3600
 1343SOL    MW4 5419   2.230   3.482   2.445  0.3798  0.0253  0.0808
 1344SOL     OW 5420   2.467   3.594   2.344 -0.3218  0.5186 -0.1198
 1344SOL    HW2 5421   2.459   3.686   2.369 -1.3279  0.6937 -1.0785
 1344SOL    HW3 5422   2.389   3.552   2.380 -0.7046  0.3642 -1.1249
 1344SOL    MW4 5423   2.456   3.600   2.352 -0.5052  0.5214 -0.3788
 1345SOL     OW 5424   2.461   3.871   2.431  0.3357  0.0082 -0.0200
 1345SOL    HW2 5425   2.440   3.850   2.522  0.0167 -2.0717 -0.5454
 1345SOL    HW3 5426   2.383   3.916   2.398 -1.0639 -2.5770 -0.3249
 1345SOL    MW4 5427   2.448   3.874   2.439  0.1087 -0.6075 -0.1295
 1346SOL     OW 5428   2.239   3.987   2.324 -0.0584  0.0814 -0.4797
 1346SOL    HW2 5429   2.238   4.080   2.348  0.5623  0.1918 -0.8448
 1346SOL    HW3 5430   2.154   3.954   2.351  0.0976  0.5229  0.5730
 1346SOL    MW4 5431   2.228   3.995   2.330  0.0443  0.1540 -0.3889
 1347SOL     OW 5432   2.250   4.264   2.351 -0.0532  0.5754 -0.0473
 1347SOL    HW2 5433   2.251   4.261   2.446  0.2618  0.6098 -0.0495
 1347SOL    HW3 5434   2.172   4.315   2.329 -1.2405 -1.0832  0.1521
 1347SOL    MW4 5435   2.240   4.270   2.361 -0.1683  0.3614 -0.0215
 1348SOL     OW 5436   2.486   4.410   2.271 -0.4859 -0.3276  0.0210
 1348SOL    HW2 5437   2.569   4.376   2.305 -1.3148 -0.3637  2.1173
 1348SOL    HW3 5438   2.420   4.346   2.300 -1.3842  0.3212 -0.5601
 1348SOL    MW4 5439   2.488   4.397   2.280 -0.7138 -0.2465  0.2208
 1349SOL     OW 5440   2.928   0.009   2.362  0.4966  0.1407 -0.3233
 1349SOL    HW2 5441   3.014   0.041   2.337  0.0987  0.8417 -0.8243
 1349SOL    HW3 5442   2.927  -0.083   2.335  1.3780 -0.0956  0.4294
 1349SOL    MW4 5443   2.939   0.001   2.355  0.5600  0.2017 -0.2902
 1350SOL     OW 5444   2.702   0.127   2.244 -0.1542  0.8594  0.3411
 1350SOL    HW2 5445   2.726   0.211   2.283  1.5968  0.3880  0.3163
 1350SOL    HW3 5446   2.761   0.063   2.285 -0.2752 -0.0848 -0.9113
 1350SOL    MW4 5447   2.713   0.130   2.255  0.0608  0.6726  0.1729
 1351SOL     OW 5448   2.695   0.370   2.353  0.1892 -0.5056 -0.0765
 1351SOL    HW2 5449   2.613   0.416   2.335 -0.4044 -1.6981 -0.4911
 1351SOL    HW3 5450   2.712   0.386   2.446  1.1726  2.3919 -0.7076
 1351SOL    MW4 5451   2.687   0.378   2.363  0.2408 -0.2806 -0.2141
 1352SOL     OW 5452   2.930   0.489   2.253  0.1088  0.5293 -0.0855
 1352SOL    HW2 5453   2.933   0.574   2.296  0.8648  0.6664 -0.3950
 1352SOL    HW3 5454   2.850   0.448   2.286 -0.6783  1.6703 -0.5360
 1352SOL    MW4 5455   2.920   0.495   2.263  0.1049  0.6979 -0.1857
 1353SOL     OW 5456   2.963   0.745   2.363  0.1212  0.5971 -0.0094
 1353SOL    HW2 5457   2.963   0.761   2.458  0.0221 -0.8445  0.2518
 1353SOL    HW3 5458   2.875   0.770   2.334 -0.3653 -0.4270  0.5547
 1353SOL    MW4 5459   2.951   0.750   2.372  0.0439  0.2718  0.0992
 1354SOL     OW 5460   2.732   0.871   2.288  0.0164 -0.4507  0.6137
 1354SOL    HW2 5461   2.729   0.962   2.316  1.2583 -0.5430  1.0820
 1354SOL    HW3 5462   2.717   0.874   2.194  1.1777  0.3359  0.4515
 1354SOL    MW4 5463   2.729   0.883   2.280  0.3338 -0.3590  0.6540
 1355SOL     OW 5464   2.693   1.124   2.380 -0.3453 -0.3769  0.4053
 1355SOL    HW2 5465   2.675   1.130   2.474 -1.7940  1.0732  0.0800
 1355SOL    HW3 5466   2.766   1.184   2.365  0.8363 -1.6940  0.8098
 1355SOL    MW4 5467   2.700   1.133   2.390 -0.3805 -0.3593  0.4158
 1356SOL     OW 5468   2.923   1.292   2.305  0.5826 -0.0076 -0.4201
 1356SOL    HW2 5469   2.979   1.227   2.349 -0.8124 -0.5400  0.6173
 1356SOL    HW3 5470   2.949   1.287   2.213  1.8194 -0.6744 -0.0522
 1356SOL    MW4 5471   2.934   1.283   2.299  0.5615 -0.1658 -0.2346
 1357SOL     OW 5472   2.930   1.575   2.433 -1.0238  0.3387 -0.2484
 1357SOL    HW2 5473   2.933   1.571   2.528  1.2378  1.7886 -0.2350
 1357SOL    HW3 5474   2.942   1.484   2.405 -0.3221  0.0997  0.8161
 1357SOL    MW4 5475   2.932   1.562   2.441 -0.6325  0.4985 -0.1059
 1358SOL     OW 5476   2.687   1.650   2.301 -0.0665 -0.3149  0.2518
 1358SOL    HW2 5477   2.773   1.632   2.339  0.6079  0.9833 -0.6394
 1358SOL    HW3 5478   2.702   1.652   2.206 -0.6475  2.1681  0.1952
 1358SOL    MW4 5479   2.700   1.648   2.293 -0.0544  0.1841  0.1264
 1359SOL     OW 5480   2.711   1.919   2.398 -0.3607  0.4663 -0.0779
 1359SOL    HW2 5481   2.702   1.893   2.489  1.5276 -0.0210 -0.0190
 1359SOL    HW3 5482   2.677   1.844   2.348  0.0212  0.1187  0.1881
 1359SOL    MW4 5483   2.705   1.905   2.403 -0.0610  0.3561 -0.0350
 1360SOL     OW 5484   2.905   2.096   2.314  0.1089 -0.1267  0.4395
 1360SOL    HW2 5485   2.987   2.052   2.337  0.2292  0.2846  0.8114
 1360SOL    HW3 5486   2.837   2.034   2.338  0.3684 -1.2346 -1.6073
 1360SOL    MW4 5487   2.907   2.082   2.321  0.1590 -0.2184  0.2186
 1361SOL     OW 5488   2.881   2.359   2.404  0.6267 -0.0066  0.0749
 1361SOL    HW2 5489   2.866   2.362   2.499 -0.7927  0.0567 -0.1357
 1361SOL    HW3 5490   2.883   2.266   2.383  1.4811 -0.0273  0.2469
 1361SOL    MW4 5491   2.879   2.347   2.414  0.5522 -0.0012  0.0699
 1362SOL     OW 5492   2.664   2.447   2.265 -0.3085  0.2859 -0.7008
 1362SOL    HW2 5493   2.752   2.415   2.283 -0.4361 -0.5605 -1.5669
 1362SOL    HW3 5494   2.663   2.464   2.171 -0.4289  2.2901 -0.3588
 1362SOL    MW4 5495   2.675   2.445   2.255 -0.3417  0.4387 -0.7699
 1363SOL     OW 5496   2.702   2.689   2.412 -0.0737 -0.0642 -1.0435
 1363SOL    HW2 5497   2.773   2.749   2.388  2.2343 -2.0279  0.6940
 1363SOL    HW3 5498   2.714   2.613   2.355 -1.5297  0.0360 -1.5320
 1363SOL    MW4 5499   2.713   2.687   2.401  0.0386 -0.3102 -0.8786
 1364SOL     OW 5500   2.907   2.854   2.298  0.2111  0.5258 -0.2807
 1364SOL    HW2 5501   2.916   2.942   2.334 -2.0109  0.5634  0.2318
 1364SOL    HW3 5502   2.944   2.861   2.210 -1.7535  2.5122 -1.0006
 1364SOL    MW4 5503   2.913   2.866   2.291 -0.3412  0.7925 -0.3080
 1365SOL     OW 5504   2.926   3.102   2.401  0.0260  0.5164  0.1032
 1365SOL    HW2 5505   3.001   3.151   2.368  0.2179  0.9424  1.1519
 1365SOL    HW3 5506   2.849   3.149   2.367  0.1984  1.7867  1.4049
 1365SOL    MW4 5507   2.925   3.115   2.392  0.0741  0.7401  0.4132
 1366SOL     OW 5508   2.700   3.219   2.297  0.3765 -0.2313 -0.1250
 1366SOL    HW2 5509   2.695   3.305   2.337 -1.5584 -0.3113 -0.1736
 1366SOL    HW3 5510   2.703   3.236   2.203 -0.6944 -0.2369 -0.1621
 1366SOL    MW4 5511   2.700   3.232   2.290 -0.0198 -0.2425 -0.1361
 1367SOL     OW 5512   2.713   3.469   2.406  0.1488  0.0734 -0.6984
 1367SOL    HW2 5513   2.765   3.520   2.344  0.5592  2.1259  1.2545
 1367SOL    HW3 5514   2.629   3.514   2.409  0.6385  0.9144  1.3249
 1367SOL    MW4 5515   2.709   3.481   2.399  0.2675  0.4551 -0.1738
 1368SOL     OW 5516   2.896   3.633   2.295 -0.0399  0.6318  0.2643
 1368SOL    HW2 5517   2.984   3.603   2.316  0.4810  1.1878 -1.0425
 1368SOL    HW3 5518   2.892   3.721   2.333 -0.3078  0.3014  1.0014
 1368SOL    MW4 5519   2.907   3.641   2.303 -0.0067  0.6616  0.1891
 1369SOL     OW 5520   2.888   3.905   2.378  0.2121  0.0756  0.3086
 1369SOL    HW2 5521   2.882   3.903   2.474 -1.3056 -1.4270  0.2146
 1369SOL    HW3 5522   2.803   3.939   2.350  0.0931 -0.8798 -0.5304
 1369SOL    MW4 5523   2.876   3.909   2.387 -0.0041 -0.2489  0.1857
 1370SOL     OW 5524   2.644   4.053   2.319  0.4568 -0.0319  0.0392
 1370SOL    HW2 5525   2.589   3.985   2.358  0.9145  0.1394  0.9831
 1370SOL    HW3 5526   2.657   4.024   2.229 -0.4257 -0.5322  0.0635
 1370SOL    MW4 5527   2.638   4.040   2.312  0.4008 -0.0749  0.1671
 1371SOL     OW 5528   2.704   4.301   2.395 -0.0588 -0.1148  0.0968
 1371SOL    HW2 5529   2.693   4.290   2.490  0.0521  1.9163  0.3645
 1371SOL    HW3 5530   2.682   4.215   2.359  0.3044 -1.0415  1.9918
 1371SOL    MW4 5531   2.699   4.288   2.403  0.0036  0.0315  0.3822
 1372SOL     OW 5532   2.929   4.402   2.256 -0.2238 -0.0414 -0.3009
 1372SOL    HW2 5533   3.002   4.354   2.294  0.0445  0.8140  0.2697
 1372SOL    HW3 5534   2.851   4.366   2.299 -0.0325 -0.0275  0.0556
 1372SOL    MW4 5535   2.928   4.391   2.267 -0.1631  0.0734 -0.1788
 1373SOL     OW 5536   3.337   4.631   2.368  0.0898 -0.1453 -0.3482
 1373SOL    HW2 5537   3.359   4.632   2.461  2.2164 -2.2106 -0.7774
 1373SOL    HW3 5538   3.414   4.669   2.325 -0.6155  0.2144 -1.3098
 1373SOL    MW4 5539   3.350   4.636   2.375  0.2773 -0.3700 -0.5317
 1374SOL     OW 5540   3.150   0.130   2.258 -0.3841  0.3813  0.2461
 1374SOL    HW2 5541   3.145   0.209   2.313  1.7575  0.6432  0.0789
 1374SOL    HW3 5542   3.222   0.080   2.295 -1.0168 -0.9831 -0.3503
 1374SOL    MW4 5543   3.159   0.134   2.270 -0.1853  0.2358  0.1454
 1375SOL     OW 5544   3.124   0.347   2.406  0.3033 -0.0221  0.0740
 1375SOL    HW2 5545   3.202   0.390   2.369  0.9022 -1.0078  0.1553
 1375SOL    HW3 5546   3.050   0.393   2.367  0.9317  1.0451  0.1333
 1375SOL    MW4 5547   3.125   0.359   2.396  0.4652 -0.0114  0.0927
 1376SOL     OW 5548   3.362   0.483   2.313  0.0596 -0.4499  0.0744
 1376SOL    HW2 5549   3.453   0.454   2.327  0.0770 -1.4720 -1.9854
 1376SOL    HW3 5550   3.351   0.483   2.218 -0.7159  4.0804  0.0291
 1376SOL    MW4 5551   3.373   0.479   2.302 -0.0405  0.0130 -0.2034
 1377SOL     OW 5552   3.367   0.766   2.379  0.5206 -0.3051  0.0248
 1377SOL    HW2 5553   3.447   0.811   2.351  1.0339  0.8184  3.1568
 1377SOL    HW3 5554   3.382   0.674   2.357  1.8428  0.1965 -1.2203
 1377SOL    MW4 5555   3.379   0.760   2.372  0.7629 -0.0907  0.2735
 1378SOL     OW 5556   3.171   0.897   2.249 -0.7254  0.1490  0.4992
 1378SOL    HW2 5557   3.239   0.843   2.288 -0.2657 -1.2612 -2.1326
 1378SOL    HW3 5558   3.089   0.858   2.278 -0.3913 -1.4403 -0.6029
 1378SOL    MW4 5559   3.169   0.885   2.258 -0.6204 -0.2468  0.0067
 1379SOL     OW 5560   3.157   1.136   2.390  0.2261  0.0016  0.3405
 1379SOL    HW2 5561   3.232   1.181   2.353  0.0578  0.0487  0.0526
 1379SOL    HW3 5562   3.165   1.046   2.358  0.9932 -0.3654  1.5613
 1379SOL    MW4 5563   3.168   1.130   2.381  0.3052 -0.0405  0.4635
 1380SOL     OW 5564   3.376   1.271   2.258 -0.1080  0.1229  0.0577
 1380SOL    HW2 5565   3.457   1.232   2.291 -0.4782 -0.7118 -0.0121
 1380SOL    HW3 5566   3.380   1.363   2.286  1.0281  0.1766 -0.2566
 1380SOL    MW4 5567   3.387   1.278   2.266 -0.0072  0.0198  0.0069
 1381SOL     OW 5568   3.371   1.527   2.374 -0.2403  0.7997  0.2301
 1381SOL    HW2 5569   3.368   1.539   2.469 -0.8382  1.2317  0.1610
 1381SOL    HW3 5570   3.303   1.586   2.341 -0.8196 -0.2039 -0.3785
 1381SOL    MW4 5571   3.362   1.537   2.382 -0.3955  0.7243  0.1407
 1382SOL     OW 5572   3.162   1.704   2.301 -0.1772 -0.0938 -0.0843
 1382SOL    HW2 5573   3.167   1.796   2.329  0.7400  0.2629 -1.3735
 1382SOL    HW3 5574   3.086   1.669   2.348  0.2832  0.9403  1.4890
 1382SOL    MW4 5575   3.153   1.712   2.311  0.0045  0.0898 -0.0470
 1383SOL     OW 5576   3.144   1.951   2.366 -0.1926  0.0633  0.3818
 1383SOL    HW2 5577   3.142   1.946   2.461  0.3867 -0.3315  0.3758
 1383SOL    HW3 5578   3.222   2.004   2.347 -0.1162 -0.1425  0.1207
 1383SOL    MW4 5579   3.154   1.957   2.376 -0.1063 -0.0161  0.3464
 1384SOL     OW 5580   3.368   2.104   2.333 -0.1639  0.3047 -0.3045
 1384SOL    HW2 5581   3.451   2.066   2.363 -0.4984 -0.0059  0.2360
 1384SOL    HW3 5582   3.378   2.111   2.238  0.6149  0.5900 -0.2082
 1384SOL    MW4 5583   3.380   2.100   2.325 -0.1051  0.3014 -0.2205
 1385SOL     OW 5584   3.363   2.374   2.397 -0.2915 -0.1956  0.1384
 1385SOL    HW2 5585   3.284   2.405   2.353  0.1196  0.9221  0.1573
 1385SOL    HW3 5586   3.368   2.281   2.377 -2.2151 -0.5069  1.0651
 1385SOL    MW4 5587   3.353   2.366   2.389 -0.4909 -0.0896  0.2632
 1386SOL     OW 5588   3.114   2.475   2.324  0.3597  0.3757 -0.1271
 1386SOL    HW2 5589   3.128   2.555   2.373 -0.5494 -0.0241  0.7860
 1386SOL    HW3 5590   3.048   2.427   2.373  1.8730 -1.5522  0.0659
 1386SOL    MW4 5591   3.107   2.479   2.337  0.4394  0.0684  0.0186
 1387SOL     OW 5592   3.123   2.733   2.400 -0.7120 -0.7996 -0.2168
 1387SOL    HW2 5593   3.116   2.745   2.494 -0.0998 -0.4022 -0.2199
 1387SOL    HW3 5594   3.045   2.776   2.364 -0.1194  0.4746 -0.0047
 1387SOL    MW4 5595   3.112   2.740   2.407 -0.5531 -0.5791 -0.1893
 1388SOL     OW 5596   3.357   2.850   2.296 -0.3475  0.0286 -0.0144
 1388SOL    HW2 5597   3.353   2.936   2.337 -0.5549 -0.7008  1.5561
 1388SOL    HW3 5598   3.279   2.804   2.330 -1.1169 -0.2348 -2.0860
 1388SOL    MW4 5599   3.346   2.855   2.306 -0.4766 -0.1025 -0.0806
 1389SOL     OW 5600   3.378   3.105   2.429  0.4156 -0.5011  0.0963
 1389SOL    HW2 5601   3.454   3.132   2.378  0.4573  0.9900  0.9259
 1389SOL    HW3 5602   3.304   3.149   2.386  0.2586 -0.4706  0.3989
 1389SOL    MW4 5603   3.378   3.114   2.416  0.4005 -0.3004  0.2458
 1390SOL     OW 5604   3.147   3.250   2.315 -0.2539  0.0223 -0.2029
 1390SOL    HW2 5605   3.139   3.331   2.365 -3.5867 -0.6235  0.4534
 1390SOL    HW3 5606   3.137   3.277   2.223 -0.3994  0.4593 -0.0583
 1390SOL    MW4 5607   3.144   3.264   2.309 -0.7126 -0.0052 -0.0973
 1391SOL     OW 5608   3.131   3.508   2.443  0.5809 -0.1881  0.1386
 1391SOL    HW2 5609   3.127   3.513   2.538  0.6679  1.6382  0.0695
 1391SOL    HW3 5610   3.224   3.522   2.422  0.4487  0.1478 -0.2339
 1391SOL    MW4 5611   3.143   3.511   2.453  0.5751  0.0973  0.0801
 1392SOL     OW 5612   3.380   3.580   2.301  0.2522 -0.0764 -1.1161
 1392SOL    HW2 5613   3.455   3.531   2.335  0.3396  0.6377 -0.2543
 1392SOL    HW3 5614   3.394   3.584   2.207  1.1553 -0.1816 -0.9865
 1392SOL    MW4 5615   3.391   3.574   2.293  0.3829  0.0038 -0.9854
 1393SOL     OW 5616   3.336   3.846   2.365  0.1686 -0.1487  0.2022
 1393SOL    HW2 5617   3.411   3.904   2.351  0.4381 -0.3077  0.9709
 1393SOL    HW3 5618   3.366   3.761   2.330  0.4910 -0.3072  0.8528
 1393SOL    MW4 5619   3.350   3.842   2.358  0.2465 -0.1903  0.3898
 1394SOL     OW 5620   3.124   4.012   2.293 -0.1866  0.1003  0.3617
 1394SOL    HW2 5621   3.172   3.956   2.354 -0.2321  0.7318  0.9918
 1394SOL    HW3 5622   3.031   3.992   2.310 -0.1637 -0.7586 -0.5061
 1394SOL    MW4 5623   3.118   4.002   2.304 -0.1895  0.0701  0.3302
 1395SOL     OW 5624   3.147   4.267   2.384 -0.0466  0.5069 -0.0611
 1395SOL    HW2 5625   3.223   4.301   2.337  0.7132  0.7919  1.3547
 1395SOL    HW3 5626   3.146   4.173   2.364 -0.2761  0.7700 -1.3683
 1395SOL    MW4 5627   3.157   4.259   2.375  0.0234  0.5794 -0.0470
 1396SOL     OW 5628   3.350   4.387   2.239  0.4831 -0.9884 -0.1315
 1396SOL    HW2 5629   3.359   4.481   2.254 -1.3747 -0.6916 -0.7361
 1396SOL    HW3 5630   3.362   4.377   2.144 -2.0910 -0.9725 -0.4902
 1396SOL    MW4 5631   3.353   4.398   2.228 -0.1016 -0.9470 -0.2589
 1397SOL     OW 5632   3.772   4.611   2.413 -0.0394 -0.1448 -0.0433
 1397SOL    HW2 5633   3.787   4.633   2.505 -2.5340  3.0264 -0.3301
 1397SOL    HW3 5634   3.843   4.653   2.366  0.5881 -0.8114  0.2884
 1397SOL    MW4 5635   3.783   4.619   2.419 -0.2861  0.1855 -0.0374
 1398SOL     OW 5636   3.565   0.084   2.274  0.2440 -0.0423  0.0716
 1398SOL    HW2 5637   3.556   0.176   2.297 -0.1308  0.2566 -1.2575
 1398SOL    HW3 5638   3.639   0.053   2.327  1.5115  1.4648 -0.7737
 1398SOL    MW4 5639   3.574   0.092   2.284  0.3619  0.1960 -0.2151
 1399SOL     OW 5640   3.595   0.353   2.375 -0.3698  0.0806 -0.3803
 1399SOL    HW2 5641   3.595   0.354   2.470  0.6271  0.2423 -0.3794
 1399SOL    HW3 5642   3.680   0.387   2.350 -0.5875 -0.0465 -1.3312
 1399SOL    MW4 5643   3.606   0.357   2.384 -0.2670  0.0851 -0.5057
 1400SOL     OW 5644   3.831   0.473   2.291  0.1349  0.3139  0.1536
 1400SOL    HW2 5645   3.815   0.565   2.312  0.2975  0.0218  1.6127
 1400SOL    HW3 5646   3.824   0.468   2.196 -0.8090  1.6574  0.1443
 1400SOL    MW4 5647   3.828   0.484   2.281  0.0315  0.4526  0.3450
 1401SOL     OW 5648   3.798   0.755   2.361 -1.0828 -0.0359  0.2850
 1401SOL    HW2 5649   3.772   0.758   2.453 -0.9231 -0.6845  0.3545
 1401SOL    HW3 5650   3.884   0.797   2.359 -1.7226  1.2785  0.2010
 1401SOL    MW4 5651   3.806   0.761   2.373 -1.1463  0.0519  0.2830
 1402SOL     OW 5652   3.580   0.935   2.307 -0.0105  0.0238  0.3314
 1402SOL    HW2 5653   3.665   0.895   2.327 -0.8714 -2.3734 -0.6048
 1402SOL    HW3 5654   3.568   0.920   2.213 -1.0411  1.1781  0.2704
 1402SOL    MW4 5655   3.589   0.927   2.297 -0.2601 -0.1401  0.1996
 1403SOL     OW 5656   3.574   1.188   2.416 -0.3413 -0.3351 -0.4849
 1403SOL    HW2 5657   3.540   1.184   2.506 -1.6637 -0.3827 -0.9656
 1403SOL    HW3 5658   3.570   1.097   2.386  1.1702 -0.5031 -0.2281
 1403SOL    MW4 5659   3.569   1.175   2.424 -0.3161 -0.3636 -0.5145
 1404SOL     OW 5660   3.836   1.267   2.331 -0.1965 -0.1520 -0.4486
 1404SOL    HW2 5661   3.835   1.363   2.336 -0.9383 -0.1596 -0.4991
 1404SOL    HW3 5662   3.759   1.239   2.379  0.0258 -0.7321 -0.4212
 1404SOL    MW4 5663   3.826   1.276   2.338 -0.2651 -0.2295 -0.4518
 1405SOL     OW 5664   3.857   1.526   2.465  0.1318 -0.3424 -0.1217
 1405SOL    HW2 5665   3.845   1.507   2.559 -1.2444  0.7061 -0.0644
 1405SOL    HW3 5666   3.783   1.584   2.443  2.7276  2.8206 -0.8869
 1405SOL    MW4 5667   3.845   1.531   2.475  0.2928  0.2133 -0.2151
 1406SOL     OW 5668   3.576   1.706   2.335  0.0184 -0.4438  0.3117
 1406SOL    HW2 5669   3.518   1.633   2.358  0.1733 -0.3177  1.1205
 1406SOL    HW3 5670   3.582   1.703   2.240 -2.0245  0.0739  0.1323
 1406SOL    MW4 5671   3.569   1.696   2.326 -0.2308 -0.3588  0.3948
 1407SOL     OW 5672   3.599   1.976   2.402  0.5989 -0.3295 -0.5454
 1407SOL    HW2 5673   3.685   2.002   2.368  0.1747 -0.1018 -1.4735
 1407SOL    HW3 5674   3.593   1.882   2.380  0.6571 -0.3700 -0.3867
 1407SOL    MW4 5675   3.610   1.967   2.394  0.5507 -0.3047 -0.6468
 1408SOL     OW 5676   3.836   2.083   2.288 -0.5161 -0.1298  0.3852
 1408SOL    HW2 5677   3.901   2.016   2.306  0.0807  0.2454 -0.3566
 1408SOL    HW3 5678   3.836   2.093   2.192 -1.8355 -0.3027  0.3485
 1408SOL    MW4 5679   3.844   2.075   2.278 -0.6113 -0.1032  0.2828
 1409SOL     OW 5680   3.832   2.337   2.424 -0.8640 -0.5887  0.1206
 1409SOL    HW2 5681   3.754   2.381   2.391 -2.8666 -3.7103  0.4530
 1409SOL    HW3 5682   3.828   2.249   2.386  2.9726 -0.5646 -0.5554
 1409SOL    MW4 5683   3.821   2.331   2.415 -0.6220 -0.9975  0.0751
 1410SOL     OW 5684   3.618   2.452   2.308 -0.0143 -0.4500  0.2000
 1410SOL    HW2 5685   3.527   2.425   2.320  0.1290 -0.2412  1.9046
 1410SOL    HW3 5686   3.633   2.445   2.214 -1.3255 -2.0038  0.0808
 1410SOL    MW4 5687   3.608   2.447   2.297 -0.1686 -0.6275  0.4091
 1411SOL     OW 5688   3.607   2.722   2.417  0.2817 -0.0806 -0.2692
 1411SOL    HW2 5689   3.611   2.630   2.392 -1.8964 -0.4337  0.5720
 1411SOL    HW3 5690   3.517   2.749   2.396  0.0985  1.1339  1.9348
 1411SOL    MW4 5691   3.595   2.714   2.411 -0.0296  0.0331  0.1326
 1412SOL     OW 5692   3.787   2.837   2.272  0.1313  0.5788 -0.3479
 1412SOL    HW2 5693   3.803   2.920   2.317  0.2458 -0.0868  0.8574
 1412SOL    HW3 5694   3.718   2.795   2.323 -1.8676  1.1381 -2.5430
 1412SOL    MW4 5695   3.780   2.843   2.285 -0.1175  0.5648 -0.4785
 1413SOL     OW 5696   3.829   3.088   2.376 -0.8034  0.0997  0.4702
 1413SOL    HW2 5697   3.816   3.105   2.469 -0.6598  1.2302  0.3012
 1413SOL    HW3 5698   3.914   3.128   2.356 -0.7437 -0.3100 -0.0990
 1413SOL    MW4 5699   3.838   3.096   2.386 -0.7765  0.1950  0.3729
 1414SOL     OW 5700   3.590   3.205   2.278 -0.0890  0.1719 -0.2755
 1414SOL    HW2 5701   3.594   3.290   2.322  2.0241  1.3422 -2.5992
 1414SOL    HW3 5702   3.664   3.156   2.315 -0.2452 -0.0122 -0.2089
 1414SOL    MW4 5703   3.600   3.210   2.289  0.1695  0.3021 -0.5734
 1415SOL     OW 5704   3.609   3.458   2.386 -0.2195 -0.3264  0.1671
 1415SOL    HW2 5705   3.621   3.463   2.481  1.5204  0.4227 -0.0680
 1415SOL    HW3 5706   3.682   3.509   2.350 -1.4601  0.3016 -1.5477
 1415SOL    MW4 5707   3.620   3.466   2.393 -0.1533 -0.1447 -0.0901
 1416SOL     OW 5708   3.837   3.607   2.289 -0.0475  0.6878  0.1721
 1416SOL    HW2 5709   3.819   3.700   2.305 -0.2599  0.5579  0.6874
 1416SOL    HW3 5710   3.823   3.596   2.195  1.4125  1.5085 -0.1699
 1416SOL    MW4 5711   3.833   3.618   2.279  0.1171  0.7792  0.1950
 1417SOL     OW 5712   3.798   3.871   2.334 -0.2790  0.7057  0.4918
 1417SOL    HW2 5713   3.807   3.868   2.429  1.6662  1.3780  0.3424
 1417SOL    HW3 5714   3.875   3.919   2.303 -0.1477 -0.7358 -1.5357
 1417SOL    MW4 5715   3.809   3.877   2.342 -0.0050  0.6042  0.2043
 1418SOL     OW 5716   3.563   3.995   2.272 -0.0945  0.0396  0.3785
 1418SOL    HW2 5717   3.565   4.087   2.298  1.4788  0.1137  0.0529
 1418SOL    HW3 5718   3.651   3.962   2.293 -0.6605 -1.4072  0.5528
 1418SOL    MW4 5719   3.575   4.003   2.278  0.0384 -0.1416  0.3586
 1419SOL     OW 5720   3.567   4.265   2.371  0.0911 -0.1339 -0.4679
 1419SOL    HW2 5721   3.640   4.300   2.319  0.6314  0.2831  0.5490
 1419SOL    HW3 5722   3.491   4.315   2.343  0.0526 -1.0288 -2.0259
 1419SOL    MW4 5723   3.567   4.276   2.360  0.1571 -0.1974 -0.5391
 1420SOL     OW 5724   3.798   4.384   2.274 -0.0217  0.1150  0.2593
 1420SOL    HW2 5725   3.880   4.344   2.302  0.5627  0.3950 -1.0210
 1420SOL    HW3 5726   3.787   4.459   2.332  0.2712 -0.3196  0.8841
 1420SOL    MW4 5727   3.807   4.388   2.285  0.0944  0.0944  0.1729
 1421SOL     OW 5728   4.260   4.630   2.383 -0.0019 -0.1676  0.3529
 1421SOL    HW2 5729   4.269   4.639   2.478  1.2535 -0.3432  0.2557
 1421SOL    HW3 5730   4.324   4.691   2.347 -1.9219  1.4256 -0.4034
 1421SOL    MW4 5731   4.270   4.639   2.391 -0.0896  0.0191  0.2406
 1422SOL     OW 5732   4.006   0.069   2.286 -0.3000 -0.3047  0.0222
 1422SOL    HW2 5733   3.992   0.155   2.327  0.2977 -1.0648  1.8812
 1422SOL    HW3 5734   4.091   0.041   2.319  0.7272 -0.4565 -2.6813
 1422SOL    MW4 5735   4.015   0.077   2.296 -0.0854 -0.4250 -0.0894
 1423SOL     OW 5736   4.022   0.332   2.406 -0.3771  0.1595  0.5351
 1423SOL    HW2 5737   4.103   0.378   2.385  0.1474 -0.5255  1.0389
 1423SOL    HW3 5738   3.953   0.385   2.366  0.4886 -0.4552 -1.8546
 1423SOL    MW4 5739   4.024   0.345   2.398 -0.1936 -0.0120  0.2863
 1424SOL     OW 5740   4.262   0.436   2.254 -0.2187 -0.0244  0.0363
 1424SOL    HW2 5741   4.267   0.523   2.293 -1.6731 -0.5786  1.5017
 1424SOL    HW3 5742   4.333   0.387   2.296  0.4444  0.3663 -0.6088
 1424SOL    MW4 5743   4.272   0.441   2.265 -0.3233 -0.0460  0.1445
 1425SOL     OW 5744   4.254   0.692   2.367  0.1155  0.0943 -0.0787
 1425SOL    HW2 5745   4.182   0.747   2.333 -0.1886 -0.1190  0.2199
 1425SOL    HW3 5746   4.332   0.746   2.354 -0.1699  0.5648  0.1225
 1425SOL    MW4 5747   4.255   0.707   2.361  0.0377  0.1282 -0.0126
 1426SOL     OW 5748   4.042   0.890   2.317  0.1287  0.4466  0.7251
 1426SOL    HW2 5749   4.045   0.973   2.364 -1.4765  0.5212  0.7365
 1426SOL    HW3 5750   4.031   0.915   2.225  0.6306  0.2533  0.6092
 1426SOL    MW4 5751   4.041   0.904   2.311 -0.0167  0.4309  0.7112
 1427SOL     OW 5752   4.028   1.120   2.453 -0.5793  0.0187 -0.5184
 1427SOL    HW2 5753   4.000   1.119   2.545 -0.4866  0.6219 -0.4809
 1427SOL    HW3 5754   3.961   1.170   2.408  0.2212  1.1215 -0.4965
 1427SOL    MW4 5755   4.016   1.126   2.459 -0.4616  0.2435 -0.5105
 1428SOL     OW 5756   4.240   1.227   2.249 -0.0058  0.4534  0.2286
 1428SOL    HW2 5757   4.178   1.196   2.314  0.4716  0.6117  0.7650
 1428SOL    HW3 5758   4.325   1.192   2.277  0.1455  0.2049 -0.5142
 1428SOL    MW4 5759   4.243   1.218   2.261  0.0777  0.4414  0.2012
 1429SOL     OW 5760   4.245   1.459   2.392 -0.0755  0.4499 -0.5985
 1429SOL    HW2 5761   4.229   1.375   2.350  0.1588 -0.6766  1.5200
 1429SOL    HW3 5762   4.331   1.486   2.361 -0.3534  0.1446 -1.6430
 1429SOL    MW4 5763   4.254   1.451   2.383 -0.0815  0.2609 -0.4570
 1430SOL     OW 5764   4.029   1.611   2.261  0.4442  0.2190  0.3198
 1430SOL    HW2 5765   4.117   1.580   2.286  0.2481 -2.0961 -1.6773
 1430SOL    HW3 5766   3.971   1.574   2.328  0.4687 -2.1819 -0.9169
 1430SOL    MW4 5767   4.033   1.602   2.273  0.4215 -0.4033 -0.1068
 1431SOL     OW 5768   4.009   1.895   2.390 -0.0589 -0.3806 -0.2991
 1431SOL    HW2 5769   3.987   1.911   2.482  0.1963  0.5939 -0.4070
 1431SOL    HW3 5770   4.016   1.800   2.384  0.6757 -0.4131  0.8629
 1431SOL    MW4 5771   4.007   1.884   2.401  0.0715 -0.2563 -0.1600
 1432SOL     OW 5772   4.228   2.022   2.286  0.2365 -0.4345 -0.0271
 1432SOL    HW2 5773   4.219   2.110   2.323  0.5584 -1.0130  1.4692
 1432SOL    HW3 5774   4.152   1.975   2.318  0.4994 -0.9286 -0.1285
 1432SOL    MW4 5775   4.217   2.028   2.295  0.3128 -0.5763  0.1571
 1433SOL     OW 5776   4.241   2.274   2.373 -0.5208  0.1233  0.2726
 1433SOL    HW2 5777   4.176   2.340   2.349 -0.0204  0.8406  0.8509
 1433SOL    HW3 5778   4.324   2.310   2.341 -0.5675 -1.3984 -1.6286
 1433SOL    MW4 5779   4.243   2.288   2.366 -0.4611  0.0172  0.0980
 1434SOL     OW 5780   4.059   2.469   2.304  0.1756  0.4566 -0.1613
 1434SOL    HW2 5781   4.050   2.564   2.312  1.0320  0.4845  0.4490
 1434SOL    HW3 5782   3.981   2.434   2.346 -0.2203  0.8920 -0.5234
 1434SOL    MW4 5783   4.048   2.477   2.310  0.2365  0.5178 -0.1285
 1435SOL     OW 5784   4.032   2.739   2.357  0.0016  0.2737 -0.1426
 1435SOL    HW2 5785   4.036   2.756   2.451 -1.0934  0.4717 -0.1257
 1435SOL    HW3 5786   3.941   2.756   2.333  0.5177  1.2565 -1.4412
 1435SOL    MW4 5787   4.020   2.743   2.366 -0.0749  0.4296 -0.3116
 1436SOL     OW 5788   4.279   2.850   2.305 -0.5442 -0.8847 -0.1893
 1436SOL    HW2 5789   4.193   2.808   2.308 -0.6629 -0.5962  0.5955
 1436SOL    HW3 5790   4.338   2.788   2.348 -0.3838 -1.0154 -0.5920
 1436SOL    MW4 5791   4.276   2.836   2.311 -0.5379 -0.8638 -0.1390
 1437SOL     OW 5792   4.295   3.097   2.396 -0.4342 -0.1670  0.1858
 1437SOL    HW2 5793   4.297   3.004   2.373 -0.4378  0.1245 -1.0751
 1437SOL    HW3 5794   4.367   3.136   2.345 -0.1546  0.4527  1.0343
 1437SOL    MW4 5795   4.305   3.090   2.386 -0.3977 -0.0467  0.1316
 1438SOL     OW 5796   4.072   3.209   2.295  0.0281  0.1131  0.0253
 1438SOL    HW2 5797   4.054   3.291   2.343 -2.1232  0.0546 -0.6208
 1438SOL    HW3 5798   4.153   3.177   2.333 -0.7527  0.9305  2.5074
 1438SOL    MW4 5799   4.080   3.216   2.306 -0.3586  0.2136  0.2675
 1439SOL     OW 5800   4.041   3.465   2.447  0.0977  0.1284 -0.2168
 1439SOL    HW2 5801   4.104   3.508   2.389  0.1300 -0.9733 -1.0079
 1439SOL    HW3 5802   3.958   3.510   2.429  0.4467  0.9398  0.1442
 1439SOL    MW4 5803   4.038   3.477   2.437  0.1483  0.0901 -0.2732
 1440SOL     OW 5804   4.252   3.613   2.293  0.3261  0.0517  0.1988
 1440SOL    HW2 5805   4.242   3.707   2.309 -1.5783  0.0688 -0.9410
 1440SOL    HW3 5806   4.260   3.605   2.198 -0.9499 -1.0336  0.1665
 1440SOL    MW4 5807   4.251   3.624   2.283 -0.0935 -0.0896  0.0441
 1441SOL     OW 5808   4.219   3.878   2.358 -0.1900 -0.4549 -0.0790
 1441SOL    HW2 5809   4.221   3.896   2.452  0.0910 -0.6097 -0.0518
 1441SOL    HW3 5810   4.308   3.899   2.329 -0.5334  0.4752 -0.4808
 1441SOL    MW4 5811   4.231   3.883   2.367 -0.1979 -0.3526 -0.1283
 1442SOL     OW 5812   4.013   4.034   2.239  0.2969 -0.4904  0.7763
 1442SOL    HW2 5813   4.089   3.985   2.270  3.4949  3.3138 -0.5009
 1442SOL    HW3 5814   4.010   4.016   2.145  0.9221  0.8942  0.4678
 1442SOL    MW4 5815   4.022   4.025   2.231  0.8016  0.1941  0.5670
 1443SOL     OW 5816   4.026   4.279   2.372  0.1733  0.2591 -0.2104
 1443SOL    HW2 5817   4.109   4.320   2.348 -0.3161 -0.1223 -2.6871
 1443SOL    HW3 5818   4.029   4.193   2.329 -1.3222  0.0821  0.0216
 1443SOL    MW4 5819   4.037   4.273   2.363 -0.0892  0.1860 -0.5066
 1444SOL     OW 5820   4.260   4.385   2.256 -0.0042  0.1821 -0.1925
 1444SOL    HW2 5821   4.278   4.471   2.292  0.3736 -0.2922  0.7453
 1444SOL    HW3 5822   4.339   4.334   2.272 -0.3883 -0.4762 -0.3502
 1444SOL    MW4 5823   4.273   4.389   2.263 -0.0048  0.0329 -0.0894
 1445SOL     OW 5824   0.250   4.627   2.633 -0.4384  0.1742  0.3498
 1445SOL    HW2 5825   0.235   4.539   2.669 -1.8314 -0.2702 -1.2709
 1445SOL    HW3 5826   0.185   4.681   2.677 -0.1454  0.2444  0.7071
 1445SOL    MW4 5827   0.240   4.622   2.644 -0.5835  0.1245  0.1831
 1446SOL     OW 5828   0.058   0.124   2.752  0.1132 -0.0234 -0.4915
 1446SOL    HW2 5829   0.043   0.128   2.847  0.6729 -0.4452 -0.3810
 1446SOL    HW3 5830   0.064   0.215   2.724 -0.9315  0.1198 -0.2600
 1446SOL    MW4 5831   0.057   0.136   2.761  0.0492 -0.0602 -0.4463
 1447SOL     OW 5832   4.490   0.385   2.671 -0.1971  0.3354 -0.3805
 1447SOL    HW2 5833   4.562   0.442   2.697 -0.9434  1.4538 -0.7226
 1447SOL    HW3 5834   4.488   0.390   2.575 -2.3781  2.4185 -0.2756
 1447SOL    MW4 5835   4.499   0.393   2.662 -0.5833  0.7578 -0.4115
 1448SOL     OW 5836   0.212   0.518   2.748 -0.6350 -0.6890  0.2926
 1448SOL    HW2 5837   0.218   0.534   2.842  1.3641  1.5484 -0.1360
 1448SOL    HW3 5838   0.287   0.462   2.728  0.6302  1.1840 -0.3596
 1448SOL    MW4 5839   0.223   0.513   2.757 -0.2043 -0.1467  0.1500
 1449SOL     OW 5840   0.194   0.791   2.652  0.2280  0.1596 -0.8456
 1449SOL    HW2 5841   0.266   0.830   2.701  0.2446 -0.4235 -0.4068
 1449SOL    HW3 5842   0.195   0.699   2.677 -1.4225  0.3772  0.0800
 1449SOL    MW4 5843   0.203   0.784   2.661  0.0124  0.1113 -0.6657
 1450SOL     OW 5844   4.452   0.911   2.742 -0.1367  0.6345 -0.0478
 1450SOL    HW2 5845   4.378   0.866   2.701  1.3043 -0.8421 -1.0720
 1450SOL    HW3 5846   4.529   0.874   2.699  1.2429  1.5255  1.6292
 1450SOL    MW4 5847   4.452   0.900   2.731  0.2356  0.5572  0.0384
 1451SOL     OW 5848   4.460   1.166   2.633 -0.7097  0.7479 -0.3249
 1451SOL    HW2 5849   4.543   1.190   2.673  0.3531  0.5671 -2.3576
 1451SOL    HW3 5850   4.443   1.077   2.664 -0.3862  0.9482  0.4517
 1451SOL    MW4 5851   4.468   1.158   2.642 -0.5264  0.7503 -0.4907
 1452SOL     OW 5852   0.204   1.230   2.745  0.2667 -0.0720 -0.3490
 1452SOL    HW2 5853   0.285   1.190   2.712  0.7536  0.3472  0.3483
 1452SOL    HW3 5854   0.203   1.317   2.706  0.2547  0.0004 -0.1858
 1452SOL    MW4 5855   0.215   1.236   2.735  0.3293 -0.0072 -0.2356
 1453SOL     OW 5856   0.192   1.509   2.648 -0.1384 -0.0360  0.1463
 1453SOL    HW2 5857   0.277   1.550   2.665 -0.7194  0.5948  1.5467
 1453SOL    HW3 5858   0.129   1.564   2.694 -1.1904 -1.1700  0.0775
 1453SOL    MW4 5859   0.195   1.522   2.656 -0.3538 -0.1024  0.3221
 1454SOL     OW 5860   4.457   1.644   2.754  0.4139 -0.0339 -0.1273
 1454SOL    HW2 5861   4.454   1.656   2.849  1.1055 -1.0466  0.0333
 1454SOL    HW3 5862   4.441   1.731   2.718  0.0707  0.3390  0.9170
 1454SOL    MW4 5863   4.455   1.657   2.762  0.4606 -0.1185  0.0317
 1455SOL     OW 5864   4.463   1.883   2.609  0.5165  0.3118 -0.1452
 1455SOL    HW2 5865   4.538   1.940   2.624 -0.4995  1.9333 -1.0931
 1455SOL    HW3 5866   4.461   1.870   2.514 -1.9911  2.5293 -0.4453
 1455SOL    MW4 5867   4.473   1.889   2.598  0.0515  0.8184 -0.3097
 1456SOL     OW 5868   0.179   2.035   2.712 -0.3938  0.1731 -0.0510
 1456SOL    HW2 5869   0.262   1.993   2.691 -1.6087 -2.4406  0.1876
 1456SOL    HW3 5870   0.182   2.119   2.665  2.0432 -0.1939 -0.6222
 1456SOL    MW4 5871   0.190   2.041   2.703 -0.2326 -0.2203 -0.0949
 1457SOL     OW 5872   0.191   2.297   2.622 -0.1789 -0.0507  0.1570
 1457SOL    HW2 5873   0.261   2.341   2.669  0.5891 -1.2456  0.1278
 1457SOL    HW3 5874   0.111   2.332   2.661  0.4182  1.2906  0.2091
 1457SOL    MW4 5875   0.189   2.307   2.633  0.0012 -0.0312  0.1602
 1458SOL     OW 5876   4.470   2.412   2.750  0.0366  0.3117  0.6949
 1458SOL    HW2 5877   4.453   2.417   2.844  0.5967 -0.5108  0.8491
 1458SOL    HW3 5878   4.395   2.366   2.714  0.9169 -1.4745  1.0821
 1458SOL    MW4 5879   4.458   2.407   2.758  0.2270 -0.0324  0.7665
 1459SOL     OW 5880   4.463   2.673   2.676 -0.4602  0.1830 -0.0568
 1459SOL    HW2 5881   4.391   2.724   2.713  0.3128  0.5369  0.9939
 1459SOL    HW3 5882   4.456   2.587   2.718  1.1075  0.9383  1.8650
 1459SOL    MW4 5883   4.452   2.669   2.687 -0.1513  0.3293  0.3352
 1460SOL     OW 5884   0.203   2.766   2.791 -0.4772 -0.8583 -0.0190
 1460SOL    HW2 5885   0.195   2.853   2.751 -1.4580 -1.0881 -0.3277
 1460SOL    HW3 5886   0.118   2.725   2.776  0.0606 -1.9658 -0.0884
 1460SOL    MW4 5887   0.191   2.772   2.783 -0.5357 -1.0347 -0.0691
 1461SOL     OW 5888   0.226   3.039   2.709 -0.2678 -0.1794  0.1794
 1461SOL    HW2 5889   0.304   3.094   2.718 -0.8152  0.8407 -1.1707
 1461SOL    HW3 5890   0.212   3.032   2.615 -1.3704 -0.9797  0.3909
 1461SOL    MW4 5891   0.234   3.045   2.698 -0.4855 -0.1504  0.0291
 1462SOL     OW 5892   0.021   3.228   2.777 -0.0073  0.3777  0.1589
 1462SOL    HW2 5893  -0.066   3.200   2.747 -0.5541  0.8961  1.2389
 1462SOL    HW3 5894   0.078   3.154   2.756 -0.2126  1.0435 -2.8843
 1462SOL    MW4 5895   0.017   3.214   2.770 -0.1065  0.5338 -0.0999
 1463SOL     OW 5896   0.019   3.466   2.660 -0.8357  0.6317  0.0389
 1463SOL    HW2 5897   0.089   3.521   2.697  2.1334 -1.0276 -2.8049
 1463SOL    HW3 5898   0.033   3.380   2.701 -1.7177  0.4757  0.0175
 1463SOL    MW4 5899   0.030   3.462   2.671 -0.5603  0.3922 -0.3390
 1464SOL     OW 5900   0.207   3.639   2.795 -0.3944 -0.2453  0.1425
 1464SOL    HW2 5901   0.228   3.644   2.889 -0.5927  0.8407  0.1377
 1464SOL    HW3 5902   0.276   3.584   2.758 -0.8761 -1.5014  1.0879
 1464SOL    MW4 5903   0.219   3.632   2.803 -0.4841 -0.2677  0.2668
 1465SOL     OW 5904   0.215   3.891   2.670  0.2291  0.4894  0.0615
 1465SOL    HW2 5905   0.219   3.804   2.711 -1.4387  0.9801  1.2982
 1465SOL    HW3 5906   0.219   3.874   2.576 -2.9980 -1.1529  0.1568
 1465SOL    MW4 5907   0.216   3.877   2.663 -0.4167  0.3374  0.2375
 1466SOL     OW 5908   4.470   4.048   2.698 -0.1662 -0.0438  0.8634
 1466SOL    HW2 5909   4.494   4.132   2.660  0.5578 -1.0294 -0.9092
 1466SOL    HW3 5910   4.548   3.993   2.689 -0.6588 -0.9307  1.8899
 1466SOL    MW4 5911   4.483   4.051   2.691 -0.1359 -0.2904  0.7651
 1467SOL     OW 5912   4.486   4.311   2.600  0.2226  0.4414  0.2451
 1467SOL    HW2 5913   4.426   4.359   2.658 -0.1151  0.5870 -0.2170
 1467SOL    HW3 5914   4.573   4.345   2.622  0.1204  0.3793  0.7758
 1467SOL    MW4 5915   4.489   4.322   2.611  0.1645  0.4520  0.2539
 1468SOL     OW 5916   0.227   4.384   2.744  0.4267  0.2861 -0.2387
 1468SOL    HW2 5917   0.218   4.391   2.839  0.1141 -3.6135  0.0862
 1468SOL    HW3 5918   0.319   4.365   2.730  0.0673 -1.2639 -0.5435
 1468SOL    MW4 5919   0.238   4.383   2.755  0.3381 -0.4330 -0.2360
 1469SOL     OW 5920   0.710   4.638   2.664  0.3162 -0.2811  0.3884
 1469SOL    HW2 5921   0.784   4.697   2.679  0.0841  0.1151  0.0012
 1469SOL    HW3 5922   0.633   4.689   2.690 -0.2382  0.9352 -3.3435
 1469SOL    MW4 5923   0.710   4.652   2.670  0.2124 -0.0684 -0.1550
 1470SOL     OW 5924   0.481   0.112   2.714 -0.3524  0.3200 -0.1719
 1470SOL    HW2 5925   0.465   0.121   2.808 -0.4724 -0.7163 -0.0828
 1470SOL    HW3 5926   0.398   0.078   2.680  0.1833 -0.7884 -0.4043
 1470SOL    MW4 5927   0.468   0.108   2.722 -0.2975  0.0371 -0.1910
 1471SOL     OW 5928   0.437   0.378   2.622 -0.3765  0.5566  0.3154
 1471SOL    HW2 5929   0.499   0.433   2.671  0.5141  0.2139 -0.4061
 1471SOL    HW3 5930   0.454   0.290   2.653 -0.0699  0.3855 -0.3321
 1471SOL    MW4 5931   0.447   0.374   2.633 -0.2185  0.4888  0.1352
 1472SOL     OW 5932   0.652   0.526   2.738  0.4344  0.4612 -0.4331
 1472SOL    HW2 5933   0.654   0.512   2.832 -0.1966  0.4592 -0.4166
 1472SOL    HW3 5934   0.735   0.492   2.706 -0.0549 -1.0832 -0.0957
 1472SOL    MW4 5935   0.663   0.520   2.746  0.2866  0.2571 -0.3862
 1473SOL     OW 5936   0.668   0.769   2.616 -0.4148  0.3329 -0.5006
 1473SOL    HW2 5937   0.747   0.806   2.656 -0.3009  0.8175 -1.1604
 1473SOL    HW3 5938   0.655   0.685   2.661  0.8847 -0.0777 -0.8547
 1473SOL    MW4 5939   0.677   0.763   2.627 -0.2283  0.3427 -0.6344
 1474SOL     OW 5940   0.454   0.893   2.739  0.1103  0.2429 -0.0306
 1474SOL    HW2 5941   0.446   0.979   2.697 -0.2216  0.3075  0.1615
 1474SOL    HW3 5942   0.535   0.856   2.703 -0.8987 -0.3079 -1.8218
 1474SOL    MW4 5943   0.464   0.900   2.728 -0.0666  0.1788 -0.2418
 1475SOL     OW 5944   0.453   1.149   2.632  0.0574 -0.1095 -0.5794
 1475SOL    HW2 5945   0.529   1.193   2.669 -1.5064  2.7571 -0.6348
 1475SOL    HW3 5946   0.453   1.173   2.540 -0.1676 -1.1978 -0.8734
 1475SOL    MW4 5947   0.463   1.158   2.625 -0.1786  0.1252 -0.6256
 1476SOL     OW 5948   0.674   1.276   2.732  0.8089  0.1843 -0.0791
 1476SOL    HW2 5949   0.691   1.263   2.825  0.5350  0.3038 -0.0117
 1476SOL    HW3 5950   0.755   1.249   2.689  1.5064  1.6173  0.2970
 1476SOL    MW4 5951   0.687   1.270   2.739  0.8647  0.3891 -0.0207
 1477SOL     OW 5952   0.693   1.559   2.635 -1.1394  0.4590 -0.1847
 1477SOL    HW2 5953   0.606   1.596   2.652 -0.5495  1.5957  0.4838
 1477SOL    HW3 5954   0.698   1.484   2.694 -0.9692  1.5123  1.1917
 1477SOL    MW4 5955   0.682   1.554   2.645 -1.0391  0.7479  0.0851
 1478SOL     OW 5956   0.444   1.634   2.703  0.2995  0.2067  0.3409
 1478SOL    HW2 5957   0.433   1.627   2.798 -0.9693 -0.5999  0.1490
 1478SOL    HW3 5958   0.428   1.726   2.683 -0.2781  0.2073  0.8051
 1478SOL    MW4 5959   0.440   1.645   2.713  0.0559  0.1004  0.3769
 1479SOL     OW 5960   0.427   1.918   2.638  0.2791  0.2501  0.2036
 1479SOL    HW2 5961   0.510   1.965   2.649  0.1031  0.3196  1.3466
 1479SOL    HW3 5962   0.410   1.919   2.544  0.3328  2.4130  0.1951
 1479SOL    MW4 5963   0.435   1.925   2.627  0.2629  0.5445  0.3531
 1480SOL     OW 5964   0.667   2.045   2.727 -0.1443 -0.0650 -0.0625
 1480SOL    HW2 5965   0.662   2.042   2.823 -1.5206 -2.1144 -0.1621
 1480SOL    HW3 5966   0.751   2.004   2.706 -0.4389 -0.8523  0.2448
 1480SOL    MW4 5967   0.677   2.039   2.737 -0.3648 -0.4392 -0.0350
 1481SOL     OW 5968   0.629   2.310   2.653 -0.1284 -0.3176 -0.4389
 1481SOL    HW2 5969   0.715   2.346   2.676 -0.3192 -0.3260  0.3284
 1481SOL    HW3 5970   0.635   2.217   2.677 -0.7016 -0.0880  0.6642
 1481SOL    MW4 5971   0.641   2.302   2.659 -0.2292 -0.2885 -0.1919
 1482SOL     OW 5972   0.398   2.438   2.729  0.0666 -0.4505  0.0346
 1482SOL    HW2 5973   0.411   2.528   2.698 -0.3964  0.2743  1.8844
 1482SOL    HW3 5974   0.479   2.393   2.706  0.8454  0.8026  0.2846
 1482SOL    MW4 5975   0.410   2.444   2.722  0.1082 -0.1895  0.3119
 1483SOL     OW 5976   0.423   2.701   2.635 -0.8598  0.4628  0.4181
 1483SOL    HW2 5977   0.492   2.721   2.698 -0.3522 -2.0906  0.7362
 1483SOL    HW3 5978   0.342   2.718   2.682 -0.4744  1.0297  0.8915
 1483SOL    MW4 5979   0.422   2.706   2.649 -0.7420  0.2005  0.5224
 1484SOL     OW 5980   0.642   2.840   2.775 -0.6028  0.8515  0.3837
 1484SOL    HW2 5981   0.674   2.842   2.865 -2.5167  0.7104  1.0839
 1484SOL    HW3 5982   0.626   2.932   2.753  1.0916  1.0093 -0.2892
 1484SOL    MW4 5983   0.644   2.853   2.784 -0.6317  0.8535  0.3874
 1485SOL     OW 5984   0.682   3.105   2.694  0.2137  0.0764 -0.0204
 1485SOL    HW2 5985   0.764   3.140   2.729 -0.3860  1.5115 -0.0143
 1485SOL    HW3 5986   0.693   3.107   2.599  0.6881 -1.0064 -0.0020
 1485SOL    MW4 5987   0.694   3.110   2.686  0.1972  0.1230 -0.0172
 1486SOL     OW 5988   0.437   3.211   2.786  0.3215 -0.4188 -0.2922
 1486SOL    HW2 5989   0.457   3.222   2.879  0.4951 -0.0685 -0.3746
 1486SOL    HW3 5990   0.519   3.180   2.747  0.3473 -0.2237 -0.3932
 1486SOL    MW4 5991   0.450   3.208   2.794  0.3478 -0.3467 -0.3164
 1487SOL     OW 5992   0.389   3.456   2.670  0.2669 -0.1260  0.0921
 1487SOL    HW2 5993   0.391   3.364   2.696 -1.3310 -0.0404  0.5595
 1487SOL    HW3 5994   0.405   3.453   2.575 -0.4122 -0.9477 -0.0133
 1487SOL    MW4 5995   0.392   3.443   2.661 -0.0336 -0.2229  0.1402
 1488SOL     OW 5996   0.630   3.575   2.753  0.3557  0.3027  0.2818
 1488SOL    HW2 5997   0.635   3.587   2.848  0.7911  1.6641  0.1033
 1488SOL    HW3 5998   0.547   3.529   2.739  0.2737  0.1177  1.3112
 1488SOL    MW4 5999   0.620   3.571   2.764  0.4023  0.4578  0.3943
 1489SOL     OW 6000   0.691   3.872   2.654  0.2656 -0.4529 -0.1892
 1489SOL    HW2 6001   0.616   3.925   2.682  0.4045  0.6047 -1.7518
 1489SOL    HW3 6002   0.671   3.784   2.683 -0.4940  0.2534  1.4909
 1489SOL    MW4 6003   0.678   3.868   2.662  0.1837 -0.2201 -0.1738
 1490SOL     OW 6004   0.466   3.990   2.745 -0.2502  0.0536  0.5485
 1490SOL    HW2 6005   0.455   4.083   2.725  0.9182 -0.1617 -1.2412
 1490SOL    HW3 6006   0.382   3.950   2.721 -0.8459  0.6897  1.5838
 1490SOL    MW4 6007   0.453   3.997   2.739 -0.1747  0.1092  0.4492
 1491SOL     OW 6008   0.466   4.268   2.693 -0.6717  0.0985 -0.5395
 1491SOL    HW2 6009   0.535   4.318   2.737 -2.6492  2.4755 -0.0273
 1491SOL    HW3 6010   0.482   4.283   2.600  0.6933 -1.0599 -0.5147
 1491SOL    MW4 6011   0.477   4.276   2.687 -0.7525  0.2594 -0.4687
 1492SOL     OW 6012   0.686   4.392   2.807  0.4203 -0.6117  0.2795
 1492SOL    HW2 6013   0.755   4.341   2.765  1.7229  0.5520  0.9450
 1492SOL    HW3 6014   0.686   4.475   2.759  0.9012  0.1597  1.5778
 1492SOL    MW4 6015   0.695   4.396   2.795  0.6556 -0.3567  0.5386
 1493SOL     OW 6016   1.131   4.642   2.615  0.2639  0.3055  0.0566
 1493SOL    HW2 6017   1.199   4.691   2.661 -0.4794  1.3690  0.0277
 1493SOL    HW3 6018   1.138   4.553   2.650  2.3496  0.1455 -0.7003
 1493SOL    MW4 6019   1.141   4.636   2.626  0.4411  0.4249 -0.0470
 1494SOL     OW 6020   0.926   0.143   2.736 -0.2446  0.2876  0.2347
 1494SOL    HW2 6021   0.904   0.122   2.827  0.1554  1.4644  0.6144
 1494SOL    HW3 6022   1.014   0.108   2.723 -0.4564 -0.2278  0.1770
 1494SOL    MW4 6023   0.934   0.136   2.746 -0.2198  0.3748  0.2773
 1495SOL     OW 6024   0.896   0.402   2.678 -0.1271  0.4006 -0.2318
 1495SOL    HW2 6025   0.893   0.308   2.697 -0.6711  0.3049 -0.7487
 1495SOL    HW3 6026   0.918   0.406   2.585 -0.2590  0.7806 -0.2453
 1495SOL    MW4 6027   0.899   0.390   2.668 -0.2164  0.4382 -0.3018
 1496SOL     OW 6028   1.130   0.525   2.747 -0.1389 -0.7003 -0.3952
 1496SOL    HW2 6029   1.121   0.612   2.709 -0.7320 -0.0738  1.1435
 1496SOL    HW3 6030   1.043   0.486   2.739  0.1209 -1.1530 -1.0643
 1496SOL    MW4 6031   1.117   0.532   2.741 -0.1829 -0.6773 -0.2806
 1497SOL     OW 6032   1.120   0.773   2.648 -0.7724 -0.2752  1.0200
 1497SOL    HW2 6033   1.195   0.825   2.676  0.1016 -1.3234  0.6709
 1497SOL    HW3 6034   1.126   0.773   2.552 -1.2182 -0.3590  0.9926
 1497SOL    MW4 6035   1.131   0.780   2.639 -0.7160 -0.4246  0.9701
 1498SOL     OW 6036   0.886   0.898   2.730 -0.1918  0.0327 -0.4642
 1498SOL    HW2 6037   0.902   0.906   2.824 -0.1478 -2.0634 -0.2677
 1498SOL    HW3 6038   0.961   0.850   2.696  0.0961  1.3164 -1.6954
 1498SOL    MW4 6039   0.898   0.893   2.738 -0.1481 -0.0745 -0.6006
 1499SOL     OW 6040   0.925   1.164   2.667  0.2585  0.1633  0.4794
 1499SOL    HW2 6041   0.894   1.077   2.691 -0.5288  0.2167 -0.3214
 1499SOL    HW3 6042   0.924   1.164   2.571  0.1201  1.1038  0.4798
 1499SOL    MW4 6043   0.921   1.152   2.657  0.1363  0.2946  0.3738
 1500SOL     OW 6044   1.199   1.276   2.701 -0.4281  0.1440  0.0201
 1500SOL    HW2 6045   1.179   1.370   2.699 -0.3051  0.1919  0.8831
 1500SOL    HW3 6046   1.118   1.234   2.672 -0.6444  0.4965  0.1100
 1500SOL    MW4 6047   1.185   1.283   2.696 -0.4405  0.1968  0.1462
 1501SOL     OW 6048   1.168   1.554   2.640  0.5205 -0.0279 -0.2213
 1501SOL    HW2 6049   1.094   1.602   2.677  0.3459 -0.4115 -0.0764
 1501SOL    HW3 6050   1.147   1.547   2.547  0.3657 -0.1595 -0.1757
 1501SOL    MW4 6051   1.155   1.560   2.633  0.4770 -0.0958 -0.1957
 1502SOL     OW 6052   0.916   1.681   2.748 -0.0055  0.9481  0.3040
 1502SOL    HW2 6053   0.909   1.676   2.843 -0.0648  1.1824  0.3132
 1502SOL    HW3 6054   0.828   1.656   2.717  0.0802  0.6463  0.3019
 1502SOL    MW4 6055   0.903   1.677   2.756 -0.0020  0.9392  0.3052
 1503SOL     OW 6056   0.927   1.941   2.649 -0.3899  0.0335  0.1043
 1503SOL    HW2 6057   0.998   1.973   2.705 -1.0790  0.3826  0.7864
 1503SOL    HW3 6058   0.917   1.849   2.674 -1.1439  0.3591  1.0456
 1503SOL    MW4 6059   0.935   1.933   2.660 -0.5803  0.1225  0.3185
 1504SOL     OW 6060   1.130   2.042   2.803 -0.0485 -0.4198  0.4017
 1504SOL    HW2 6061   1.209   2.005   2.764  0.7171  0.2364  1.3309
 1504SOL    HW3 6062   1.125   2.130   2.766  0.2413 -0.0810  1.1742
 1504SOL    MW4 6063   1.140   2.049   2.793  0.0908 -0.2887  0.6261
 1505SOL     OW 6064   1.118   2.307   2.679  0.4686 -0.6056 -0.0374
 1505SOL    HW2 6065   1.192   2.364   2.697  0.1738 -0.3875  0.4884
 1505SOL    HW3 6066   1.125   2.288   2.585  0.2716  0.7101 -0.3297
 1505SOL    MW4 6067   1.129   2.312   2.669  0.4039 -0.4032 -0.0067
 1506SOL     OW 6068   0.872   2.424   2.755 -0.1983 -0.0872 -0.3878
 1506SOL    HW2 6069   0.855   2.515   2.733  0.9781  0.2780  0.1596
 1506SOL    HW3 6070   0.960   2.407   2.721  1.1273  0.0916  2.7913
 1506SOL    MW4 6071   0.881   2.434   2.748  0.1318 -0.0153  0.1042
 1507SOL     OW 6072   0.864   2.688   2.671 -0.0467 -0.0670 -0.1814
 1507SOL    HW2 6073   0.939   2.737   2.703 -1.4828  1.5725  0.7044
 1507SOL    HW3 6074   0.791   2.749   2.676 -1.3398 -1.4514 -1.6050
 1507SOL    MW4 6075   0.865   2.702   2.676 -0.4068 -0.0334 -0.2522
 1508SOL     OW 6076   1.099   2.817   2.767 -0.3852  0.1336 -0.2333
 1508SOL    HW2 6077   1.115   2.822   2.862 -1.3605 -0.6611 -0.0205
 1508SOL    HW3 6078   1.182   2.786   2.731 -0.1534 -0.0181  0.4137
 1508SOL    MW4 6079   1.112   2.814   2.775 -0.4833  0.0086 -0.1199
 1509SOL     OW 6080   1.148   3.096   2.703  0.0000  0.0000 -0.2701
 1509SOL    HW2 6081   1.122   3.007   2.726  0.0000  0.0000 -0.2686
 1509SOL    HW3 6082   1.136   3.101   2.608  0.0000  0.0000 -0.2702
 1509SOL    MW4 6083   1.143   3.085   2.694  0.0000  0.0000 -0.2699
 1510SOL     OW 6084   0.919   3.208   2.772  0.0000  0.0000  0.5643
 1510SOL    HW2 6085   0.903   3.287   2.719  0.0000  0.0000  0.5899
 1510SOL    HW3 6086   1.006   3.179   2.744  0.0000  0.0000  0.5129
 1510SOL    MW4 6087   0.928   3.215   2.761  0.0000  0.0000  0.5610
 1511SOL     OW 6088   0.887   3.462   2.632  0.0000  0.0000  0.1301
 1511SOL    HW2 6089   0.960   3.508   2.674  0.0000  0.0000  0.1105
 1511SOL    HW3 6090   0.810   3.512   2.660  0.0000  0.0000  0.1404
 1511SOL    MW4 6091   0.887   3.475   2.642  0.0000  0.0000  0.1287
 1512SOL     OW 6092   1.102   3.599   2.748  0.0000  0.0000 -0.1453
 1512SOL    HW2 6093   1.101   3.626   2.840  0.0000  0.0000 -0.1475
 1512SOL    HW3 6094   1.100   3.681   2.699  0.0000  0.0000 -0.1518
 1512SOL    MW4 6095   1.102   3.613   2.754  0.0000  0.0000 -0.1464
 1513SOL     OW 6096   1.098   3.851   2.641  0.0000  0.0000 -0.5890
 1513SOL    HW2 6097   1.178   3.889   2.679  0.0000  0.0000 -0.5890
 1513SOL    HW3 6098   1.110   3.859   2.547  0.0000  0.0000 -0.5892
 1513SOL    MW4 6099   1.110   3.857   2.634  0.0000  0.0000 -0.5891
 1514SOL     OW 6100   0.893   4.008   2.768  0.0000  0.0000  0.1348
 1514SOL    HW2 6101   0.957   3.963   2.713  0.0000  0.0000  0.1146
 1514SOL    HW3 6102   0.809   3.969   2.741  0.0000  0.0000  0.1623
 1514SOL    MW4 6103   0.890   3.997   2.757  0.0000  0.0000  0.1357
 1515SOL     OW 6104   0.888   4.266   2.669  0.0000  0.0000  0.2233
 1515SOL    HW2 6105   0.892   4.174   2.694  0.0000  0.0000  0.2186
 1515SOL    HW3 6106   0.884   4.265   2.573  0.0000  0.0000  0.2235
 1515SOL    MW4 6107   0.888   4.254   2.659  0.0000  0.0000  0.2227
 1516SOL     OW 6108   1.144   4.351   2.742  0.0000  0.0000 -0.1497
 1516SOL    HW2 6109   1.137   4.378   2.834  0.0000  0.0000 -0.1514
 1516SOL    HW3 6110   1.055   4.327   2.717  0.0000  0.0000 -0.1531
 1516SOL    MW4 6111   1.131   4.351   2.751  0.0000  0.0000 -0.1504
 1517SOL     OW 6112   1.593   4.643   2.665  0.0000  0.0000 -1.1428
 1517SOL    HW2 6113   1.588   4.549   2.681  0.0000  0.0000 -1.1203
 1517SOL    HW3 6114   1.581   4.652   2.570  0.0000  0.0000 -1.1449
 1517SOL    MW4 6115   1.591   4.632   2.654  0.0000  0.0000 -1.1404
 1518SOL     OW 6116   1.338   0.102   2.722 -0.3160 -0.0876  0.3647
 1518SOL    HW2 6117   1.371   0.190   2.704 -1.2401  0.1465 -0.1783
 1518SOL    HW3 6118   1.417   0.047   2.721 -0.0709  0.2540 -2.2777
 1518SOL    MW4 6119   1.353   0.106   2.720 -0.4054 -0.0117 -0.0558
 1519SOL     OW 6120   1.354   0.377   2.659  0.0227 -0.0600 -0.1448
 1519SOL    HW2 6121   1.427   0.410   2.712  0.5187 -0.2724 -0.6851
 1519SOL    HW3 6122   1.276   0.418   2.697  0.5434  1.0718 -0.2727
 1519SOL    MW4 6123   1.353   0.387   2.671  0.1570  0.0612 -0.2329
 1520SOL     OW 6124   1.581   0.502   2.780 -0.1090  0.4557  0.8107
 1520SOL    HW2 6125   1.667   0.475   2.749 -0.6653 -0.6433  0.1994
 1520SOL    HW3 6126   1.577   0.596   2.762  1.5654  0.8371  2.2762
 1520SOL    MW4 6127   1.592   0.511   2.774  0.0384  0.3610  0.9236
 1521SOL     OW 6128   1.600   0.769   2.736  0.4059  0.1783  0.0183
 1521SOL    HW2 6129   1.528   0.809   2.784  2.0682  1.7160  1.3095
 1521SOL    HW3 6130   1.579   0.785   2.644 -1.5019 -0.5011  0.3085
 1521SOL    MW4 6131   1.588   0.777   2.730  0.3735  0.2916  0.2272
 1522SOL     OW 6132   1.349   0.919   2.726  0.3306 -0.1452  0.0175
 1522SOL    HW2 6133   1.345   0.939   2.820  0.5224  0.9507 -0.1911
 1522SOL    HW3 6134   1.386   0.998   2.687  0.3257 -0.6270 -0.9745
 1522SOL    MW4 6135   1.353   0.932   2.733  0.3552 -0.0643 -0.1407
 1523SOL     OW 6136   1.436   1.154   2.631  0.0401  0.1404 -0.4519
 1523SOL    HW2 6137   1.501   1.194   2.689  0.1589  0.8349 -1.0654
 1523SOL    HW3 6138   1.356   1.204   2.647  0.0788  0.3462 -0.9027
 1523SOL    MW4 6139   1.434   1.166   2.641  0.0608  0.2593 -0.5920
 1524SOL     OW 6140   1.611   1.299   2.781 -0.3823  0.1457  0.4937
 1524SOL    HW2 6141   1.590   1.283   2.873 -0.3515  0.6495  0.5869
 1524SOL    HW3 6142   1.687   1.243   2.764 -0.9271 -0.6090  0.5339
 1524SOL    MW4 6143   1.618   1.289   2.791 -0.4501  0.1127  0.5114
 1525SOL     OW 6144   1.616   1.550   2.664  0.0718  0.1653  0.0401
 1525SOL    HW2 6145   1.626   1.460   2.695  0.3086  0.8953  2.1689
 1525SOL    HW3 6146   1.608   1.542   2.569  1.4783 -1.9827  0.0744
 1525SOL    MW4 6147   1.616   1.537   2.655  0.2885 -0.0219  0.3254
 1526SOL     OW 6148   1.382   1.662   2.769  0.1824  0.5146  0.0741
 1526SOL    HW2 6149   1.454   1.605   2.745  0.1936  0.5530  0.0168
 1526SOL    HW3 6150   1.306   1.625   2.723  0.2371  0.6861 -0.1531
 1526SOL    MW4 6151   1.381   1.650   2.760  0.1912  0.5423  0.0362
 1527SOL     OW 6152   1.343   1.931   2.692 -0.1700 -0.6230 -0.3336
 1527SOL    HW2 6153   1.377   1.843   2.709  1.2846  0.0440  0.3142
 1527SOL    HW3 6154   1.344   1.938   2.596  1.7949 -0.5252 -0.3208
 1527SOL    MW4 6155   1.348   1.920   2.681  0.2812 -0.5220 -0.2468
 1528SOL     OW 6156   1.554   2.063   2.795 -0.1161  0.0205  0.8965
 1528SOL    HW2 6157   1.625   2.014   2.754 -0.2866 -0.9589  1.7615
 1528SOL    HW3 6158   1.474   2.020   2.765 -0.2420 -0.7239  2.2416
 1528SOL    MW4 6159   1.553   2.051   2.786 -0.1553 -0.2067  1.1880
 1529SOL     OW 6160   1.568   2.307   2.668 -0.6522 -0.1336 -0.3087
 1529SOL    HW2 6161   1.635   2.360   2.711 -0.4686  0.2346 -1.0413
 1529SOL    HW3 6162   1.573   2.222   2.711  0.0594 -0.0043 -0.1295
 1529SOL    MW4 6163   1.578   2.303   2.679 -0.5341 -0.0679 -0.3815
 1530SOL     OW 6164   1.344   2.723   2.648  0.0845  0.1657 -0.2536
 1530SOL    HW2 6165   1.423   2.769   2.676  0.2487  0.8447 -1.8223
 1530SOL    HW3 6166   1.350   2.637   2.691  0.6702  0.9390  1.2420
 1530SOL    MW4 6167   1.355   2.717   2.658  0.1835  0.3572 -0.2635
 1531SOL     OW 6168   1.308   2.679   2.378 -0.0216 -0.4871 -0.3437
 1531SOL    HW2 6169   1.317   2.680   2.473 -0.5331 -0.9563 -0.2882
 1531SOL    HW3 6170   1.386   2.725   2.345 -1.3710  2.5120  0.4274
 1531SOL    MW4 6171   1.319   2.685   2.386 -0.2673 -0.1531 -0.2348
 1532SOL     OW 6172   1.536   2.879   2.766  0.1420  0.2203 -0.0897
 1532SOL    HW2 6173   1.511   2.878   2.858  1.6931  1.1896  0.3613
 1532SOL    HW3 6174   1.613   2.823   2.761 -1.4521 -1.9527 -1.2922
 1532SOL    MW4 6175   1.543   2.872   2.777  0.1364  0.0620 -0.1888
 1533SOL     OW 6176   1.599   3.121   2.675  0.3778  0.1880 -0.3650
 1533SOL    HW2 6177   1.679   3.145   2.722  0.2773  0.1515 -0.1738
 1533SOL    HW3 6178   1.577   3.034   2.710  0.2309  0.2172 -0.3871
 1533SOL    MW4 6179   1.607   3.112   2.686  0.3452  0.1872 -0.3426
 1534SOL     OW 6180   1.391   3.241   2.832  0.2958  0.2255  0.1295
 1534SOL    HW2 6181   1.468   3.216   2.779 -0.1253  0.4771 -0.6098
 1534SOL    HW3 6182   1.316   3.208   2.782 -0.0821 -0.0751  0.8841
 1534SOL    MW4 6183   1.392   3.233   2.818  0.1903  0.2186  0.1316
 1535SOL     OW 6184   1.350   3.487   2.683  0.1540 -0.0906  0.2260
 1535SOL    HW2 6185   1.361   3.415   2.745 -1.4521 -1.3623 -0.8977
 1535SOL    HW3 6186   1.269   3.530   2.711  2.0816  2.5221  2.0384
 1535SOL    MW4 6187   1.340   3.483   2.695  0.1966  0.0861  0.3166
 1536SOL     OW 6188   1.588   3.620   2.718  0.0652  0.4789 -0.0907
 1536SOL    HW2 6189   1.650   3.548   2.707  0.1201  0.6238 -0.7286
 1536SOL    HW3 6190   1.503   3.582   2.697  0.1088  0.6307 -0.5412
 1536SOL    MW4 6191   1.585   3.606   2.714  0.0782  0.5183 -0.2344
 1537SOL     OW 6192   1.599   3.895   2.651 -0.0846  0.1710  0.3211
 1537SOL    HW2 6193   1.509   3.921   2.669 -0.3994 -1.1069  0.6712
 1537SOL    HW3 6194   1.603   3.803   2.678  0.8798 -0.2528 -1.1818
 1537SOL    MW4 6195   1.588   3.886   2.657  0.0012 -0.0536  0.1693
 1538SOL     OW 6196   1.335   3.973   2.712 -0.2756  0.3081 -0.0207
 1538SOL    HW2 6197   1.352   3.985   2.806  0.2732 -0.2634 -0.0422
 1538SOL    HW3 6198   1.332   4.062   2.676 -4.3704  0.8014  1.1880
 1538SOL    MW4 6199   1.337   3.986   2.720 -0.7435  0.2978  0.1359
 1539SOL     OW 6200   1.354   4.228   2.631 -0.4054 -0.7010 -0.0387
 1539SOL    HW2 6201   1.278   4.266   2.673 -0.6122 -0.9679 -0.1697
 1539SOL    HW3 6202   1.341   4.244   2.538 -0.5474 -1.1836 -0.1036
 1539SOL    MW4 6203   1.342   4.235   2.625 -0.4514 -0.7997 -0.0646
 1540SOL     OW 6204   1.599   4.354   2.715 -0.1959 -0.0297  0.5804
 1540SOL    HW2 6205   1.581   4.386   2.803 -1.9910 -1.9421  0.9427
 1540SOL    HW3 6206   1.519   4.308   2.689  0.7647 -0.5620 -1.5681
 1540SOL    MW4 6207   1.586   4.352   2.723 -0.3059 -0.3524  0.3445
 1541SOL     OW 6208   1.982   0.026   2.644 -0.3772 -0.9420 -0.0096
 1541SOL    HW2 6209   2.062   0.060   2.684  0.0610 -2.0081  0.0388
 1541SOL    HW3 6210   1.999   0.029   2.550 -0.9362  0.4150 -0.0756
 1541SOL    MW4 6211   1.995   0.031   2.637 -0.3930 -0.9037 -0.0119
 1542SOL     OW 6212   1.781   0.136   2.790  0.5102 -0.2642 -0.1373
 1542SOL    HW2 6213   1.850   0.100   2.734  0.8862  2.1570 -1.2630
 1542SOL    HW3 6214   1.703   0.087   2.766  1.4233 -1.7506 -0.1642
 1542SOL    MW4 6215   1.780   0.125   2.780  0.6803 -0.1409 -0.2894
 1543SOL     OW 6216   1.824   0.395   2.690  0.4356  0.6939 -0.1758
 1543SOL    HW2 6217   1.916   0.414   2.705  0.5318  1.5670 -1.7612
 1543SOL    HW3 6218   1.812   0.307   2.726  1.2765  1.5227  2.2778
 1543SOL    MW4 6219   1.834   0.386   2.697  0.5592  0.9185 -0.0613
 1544SOL     OW 6220   2.052   0.503   2.761  0.0475 -0.1005 -0.0385
 1544SOL    HW2 6221   2.058   0.596   2.739  0.3966 -0.3834 -1.1883
 1544SOL    HW3 6222   2.054   0.501   2.856  1.4697  0.9938 -0.0202
 1544SOL    MW4 6223   2.053   0.515   2.771  0.2813  0.0065 -0.1879
 1545SOL     OW 6224   2.072   0.760   2.673 -0.3066 -0.0676 -0.5589
 1545SOL    HW2 6225   1.992   0.802   2.705  0.1294  0.2136  0.1743
 1545SOL    HW3 6226   2.061   0.756   2.578 -1.8909 -1.4689 -0.3344
 1545SOL    MW4 6227   2.060   0.765   2.664 -0.4580 -0.2154 -0.4327
 1546SOL     OW 6228   1.852   0.869   2.805 -0.2560 -0.2098  0.2495
 1546SOL    HW2 6229   1.852   0.961   2.778  1.1718 -0.0723  0.6825
 1546SOL    HW3 6230   1.771   0.833   2.768 -1.4804  1.5313  1.2056
 1546SOL    MW4 6231   1.841   0.876   2.796 -0.2291  0.0381  0.4327
 1547SOL     OW 6232   1.837   1.114   2.688 -0.0026  0.5633 -0.0280
 1547SOL    HW2 6233   1.910   1.168   2.719  2.1777 -2.1304 -0.1950
 1547SOL    HW3 6234   1.835   1.129   2.594  0.0181  1.0132  0.0409
 1547SOL    MW4 6235   1.846   1.123   2.680  0.2877  0.2674 -0.0410
 1548SOL     OW 6236   2.021   1.302   2.780 -0.0549  0.7483 -0.1653
 1548SOL    HW2 6237   2.009   1.297   2.874  0.5565  2.6390  0.0416
 1548SOL    HW3 6238   2.090   1.238   2.761 -0.4068  0.1264  0.6075
 1548SOL    MW4 6239   2.029   1.293   2.790 -0.0207  0.9159 -0.0360
 1549SOL     OW 6240   2.040   1.548   2.668 -0.2529 -0.0227 -0.4154
 1549SOL    HW2 6241   1.957   1.585   2.698 -0.0024 -0.5071  0.9011
 1549SOL    HW3 6242   2.047   1.464   2.713  1.8466  0.8572  0.9973
 1549SOL    MW4 6243   2.030   1.542   2.678  0.0570  0.0293 -0.0553
 1550SOL     OW 6244   1.820   1.684   2.755 -0.3820  0.2952 -0.0246
 1550SOL    HW2 6245   1.825   1.660   2.847  0.1219  1.6069  0.3101
 1550SOL    HW3 6246   1.737   1.646   2.724 -0.3487 -0.5007  0.8551
 1550SOL    MW4 6247   1.809   1.676   2.763 -0.3110  0.3633  0.1357
 1551SOL     OW 6248   1.791   1.956   2.688  0.0385 -0.0912 -0.2723
 1551SOL    HW2 6249   1.867   2.005   2.718  0.2605 -0.0550 -0.8996
 1551SOL    HW3 6250   1.806   1.866   2.718 -0.5661  0.2899  1.2442
 1551SOL    MW4 6251   1.803   1.950   2.696 -0.0119 -0.0362 -0.1550
 1552SOL     OW 6252   2.032   2.090   2.779 -0.0030  0.4842 -0.7771
 1552SOL    HW2 6253   2.024   2.092   2.875  0.7337  0.9543 -0.7231
 1552SOL    HW3 6254   2.024   2.181   2.752  1.0532  0.4997 -1.0512
 1552SOL    MW4 6255   2.030   2.102   2.788  0.2339  0.5486 -0.8063
 1553SOL     OW 6256   2.018   2.343   2.672  0.2492 -0.2638  0.1571
 1553SOL    HW2 6257   2.092   2.395   2.705  0.0050  1.1753 -1.5027
 1553SOL    HW3 6258   2.038   2.331   2.579 -1.7808  0.4566 -0.3907
 1553SOL    MW4 6259   2.031   2.348   2.664 -0.0508  0.0215 -0.1342
 1554SOL     OW 6260   1.801   2.455   2.778  1.3425 -0.5368 -0.3386
 1554SOL    HW2 6261   1.811   2.450   2.873 -0.0077  1.3728 -0.0718
 1554SOL    HW3 6262   1.878   2.410   2.743  2.2741 -0.5210  1.6597
 1554SOL    MW4 6263   1.813   2.448   2.786  1.2873 -0.2832 -0.0396
 1555SOL     OW 6264   1.782   2.728   2.667 -0.4405  0.2452  0.0481
 1555SOL    HW2 6265   1.766   2.641   2.702  0.7789  0.1858  0.5022
 1555SOL    HW3 6266   1.792   2.715   2.573 -1.2819  0.0527 -0.0193
 1555SOL    MW4 6267   1.781   2.715   2.659 -0.3905  0.2120  0.0989
 1556SOL     OW 6268   1.995   2.856   2.817  0.2475 -0.0345 -0.0038
 1556SOL    HW2 6269   2.076   2.815   2.785  0.3740  0.1686  0.0556
 1556SOL    HW3 6270   1.925   2.810   2.770  0.4105 -0.0357 -0.2486
 1556SOL    MW4 6271   1.996   2.845   2.806  0.2857 -0.0076 -0.0279
 1557SOL     OW 6272   2.043   3.080   2.652  0.1435  0.5411  0.0245
 1557SOL    HW2 6273   2.025   2.999   2.700 -0.8764  0.4314 -0.5118
 1557SOL    HW3 6274   2.009   3.063   2.564 -1.1391  1.9542  0.2246
 1557SOL    MW4 6275   2.036   3.067   2.647 -0.1602  0.7131 -0.0198
 1558SOL     OW 6276   1.830   3.196   2.831  0.4657 -0.2569 -0.2789
 1558SOL    HW2 6277   1.802   3.278   2.793  0.8019 -0.0670 -0.1195
 1558SOL    HW3 6278   1.911   3.173   2.785  0.7238 -0.1655  0.1168
 1558SOL    MW4 6279   1.837   3.204   2.820  0.5440 -0.2201 -0.2058
 1559SOL     OW 6280   1.797   3.433   2.701 -0.1365 -0.0234 -0.0810
 1559SOL    HW2 6281   1.862   3.495   2.735  0.4893 -0.5934 -0.2389
 1559SOL    HW3 6282   1.803   3.443   2.606 -0.6813  0.3267 -0.0829
 1559SOL    MW4 6283   1.806   3.443   2.693 -0.1258 -0.0522 -0.1023
 1560SOL     OW 6284   1.982   3.621   2.800 -0.1786  0.5048 -0.0080
 1560SOL    HW2 6285   2.001   3.646   2.891  1.0956 -0.1705 -0.0780
 1560SOL    HW3 6286   2.068   3.600   2.763 -0.7325  0.4709 -1.2794
 1560SOL    MW4 6287   1.996   3.622   2.808 -0.0836  0.4115 -0.1850
 1561SOL     OW 6288   1.966   3.891   2.693  0.3242  0.1294 -0.2045
 1561SOL    HW2 6289   1.892   3.942   2.725  1.4388  1.2812  0.5819
 1561SOL    HW3 6290   1.960   3.808   2.741 -0.2313  0.3788  0.1592
 1561SOL    MW4 6291   1.956   3.887   2.704  0.3979  0.3142 -0.0527
 1562SOL     OW 6292   1.774   4.042   2.792 -0.0156 -0.1196 -0.2357
 1562SOL    HW2 6293   1.794   4.112   2.729  0.5828 -0.1434 -0.0756
 1562SOL    HW3 6294   1.707   3.990   2.749 -0.1708  0.3184 -0.5328
 1562SOL    MW4 6295   1.768   4.045   2.778  0.0428 -0.0653 -0.2537
 1563SOL     OW 6296   1.807   4.254   2.606  0.0192  0.0019  0.1723
 1563SOL    HW2 6297   1.724   4.292   2.635  0.2504  0.4018  0.3066
 1563SOL    HW3 6298   1.816   4.283   2.516  0.2622  0.3705  0.3177
 1563SOL    MW4 6299   1.797   4.263   2.598  0.0818  0.1030  0.2093
 1564SOL     OW 6300   2.009   4.430   2.722  0.3213 -0.1821 -0.1489
 1564SOL    HW2 6301   1.936   4.374   2.694  0.7796 -0.4244 -0.8662
 1564SOL    HW3 6302   1.992   4.514   2.680 -0.8443  0.5060  1.6411
 1564SOL    MW4 6303   1.997   4.434   2.713  0.2280 -0.1235 -0.0074
 1565SOL     OW 6304   2.469   4.655   2.621  0.3816  0.3356  0.4200
 1565SOL    HW2 6305   2.551   4.695   2.651  0.6648  0.4401 -0.4869
 1565SOL    HW3 6306   2.477   4.652   2.526  0.7348 -2.6732  0.4908
 1565SOL    MW4 6307   2.481   4.660   2.612  0.4654 -0.0477  0.3097
 1566SOL     OW 6308   2.260   0.109   2.722  0.3129 -0.4278  0.2985
 1566SOL    HW2 6309   2.272   0.103   2.816  0.8309  1.3218  0.3593
 1566SOL    HW3 6310   2.337   0.067   2.685  0.0760 -1.1755  0.6460
 1566SOL    MW4 6311   2.271   0.103   2.729  0.3500 -0.2956  0.3524
 1567SOL     OW 6312   2.262   0.386   2.626  0.1964 -0.2726 -0.2908
 1567SOL    HW2 6313   2.196   0.431   2.678  0.0796 -1.0299  0.2303
 1567SOL    HW3 6314   2.249   0.293   2.646 -0.2356 -0.6253 -2.1304
 1567SOL    MW4 6315   2.252   0.379   2.636  0.1240 -0.4191 -0.4644
 1568SOL     OW 6316   2.501   0.447   2.790  0.0884  0.8109 -0.1407
 1568SOL    HW2 6317   2.501   0.540   2.768 -0.1502  0.9922  0.5948
 1568SOL    HW3 6318   2.443   0.407   2.725  0.1800  1.1786 -0.4493
 1568SOL    MW4 6319   2.493   0.454   2.779  0.0687  0.8834 -0.0844
 1569SOL     OW 6320   2.543   0.704   2.697 -0.0349 -0.4562  0.5493
 1569SOL    HW2 6321   2.460   0.751   2.713  0.8724  1.1658  0.6180
 1569SOL    HW3 6322   2.548   0.696   2.602 -0.1082 -0.2679  0.5295
 1569SOL    MW4 6323   2.532   0.709   2.687  0.0751 -0.2174  0.5558
 1570SOL     OW 6324   2.315   0.861   2.753 -0.4771  0.0564 -0.3352
 1570SOL    HW2 6325   2.307   0.880   2.847  0.6743 -0.7195 -0.0662
 1570SOL    HW3 6326   2.230   0.823   2.729 -1.1738  1.2746  0.1348
 1570SOL    MW4 6327   2.303   0.859   2.762 -0.4170  0.1147 -0.2377
 1571SOL     OW 6328   2.230   1.133   2.714 -0.4003 -0.8727  0.8496
 1571SOL    HW2 6329   2.247   1.044   2.743 -0.3084 -0.7848  1.0733
 1571SOL    HW3 6330   2.248   1.133   2.620  2.7469 -0.3320  1.3803
 1571SOL    MW4 6331   2.235   1.121   2.706  0.0272 -0.7898  0.9491
 1572SOL     OW 6332   2.457   1.268   2.821 -0.1850  0.1744 -0.2476
 1572SOL    HW2 6333   2.531   1.216   2.792 -0.5466 -0.1662 -0.5680
 1572SOL    HW3 6334   2.384   1.239   2.767 -0.5856  0.4110  0.1561
 1572SOL    MW4 6335   2.457   1.258   2.810 -0.2856  0.1607 -0.2367
 1573SOL     OW 6336   2.499   1.509   2.700 -0.1073  0.3348  0.3441
 1573SOL    HW2 6337   2.417   1.551   2.724 -0.8586 -0.0381 -1.4899
 1573SOL    HW3 6338   2.504   1.431   2.755 -0.9495  0.4042  0.5226
 1573SOL    MW4 6339   2.489   1.504   2.710 -0.3173  0.2946  0.1259
 1574SOL     OW 6340   2.276   1.664   2.749  0.2960 -0.2507  0.4866
 1574SOL    HW2 6341   2.285   1.752   2.712  0.9347  0.3749  2.0564
 1574SOL    HW3 6342   2.192   1.633   2.717  0.5614  0.4973 -0.9751
 1574SOL    MW4 6343   2.266   1.671   2.740  0.4151 -0.0695  0.5009
 1575SOL     OW 6344   2.248   1.936   2.691  0.3112 -0.2556  0.0724
 1575SOL    HW2 6345   2.161   1.977   2.701 -0.6438 -2.1431 -0.2339
 1575SOL    HW3 6346   2.255   1.918   2.597  0.5178 -1.1882  0.2617
 1575SOL    MW4 6347   2.237   1.939   2.680  0.2124 -0.6278  0.0567
 1576SOL     OW 6348   2.462   2.079   2.789 -0.4822 -0.0995  0.0126
 1576SOL    HW2 6349   2.438   2.168   2.764 -1.3014  0.1405  1.5370
 1576SOL    HW3 6350   2.385   2.026   2.765 -1.0881  0.0605  1.5064
 1576SOL    MW4 6351   2.448   2.084   2.783 -0.6702 -0.0467  0.4106
 1577SOL     OW 6352   2.417   2.315   2.670  0.4789 -0.3948 -0.6425
 1577SOL    HW2 6353   2.488   2.375   2.694  0.8939 -1.4159  0.7502
 1577SOL    HW3 6354   2.425   2.304   2.576  1.9215 -0.1953 -0.5565
 1577SOL    MW4 6355   2.427   2.322   2.661  0.7243 -0.5031 -0.4473
 1578SOL     OW 6356   2.231   2.490   2.808  0.0272  0.6677 -0.2750
 1578SOL    HW2 6357   2.243   2.479   2.902 -0.6287 -0.0139 -0.2688
 1578SOL    HW3 6358   2.290   2.425   2.769 -1.4922 -0.7197 -0.2906
 1578SOL    MW4 6359   2.240   2.480   2.815 -0.2599  0.3948 -0.2763
 1579SOL     OW 6360   2.231   2.739   2.686 -0.5180 -0.5473  0.3676
 1579SOL    HW2 6361   2.314   2.777   2.714 -0.5594  0.1234 -0.3890
 1579SOL    HW3 6362   2.221   2.660   2.740  0.9139 -0.9830  0.0186
 1579SOL    MW4 6363   2.240   2.734   2.697 -0.3347 -0.5162  0.2215
 1580SOL     OW 6364   2.445   2.862   2.817  0.1948 -0.1396  0.5075
 1580SOL    HW2 6365   2.522   2.811   2.793 -0.2971 -0.9482  0.6308
 1580SOL    HW3 6366   2.459   2.948   2.777 -0.1028 -1.1049 -1.7407
 1580SOL    MW4 6367   2.457   2.866   2.809  0.0904 -0.3736  0.2270
 1581SOL     OW 6368   2.510   3.100   2.673  0.1322  0.4696  0.4534
 1581SOL    HW2 6369   2.431   3.151   2.689 -0.7569 -0.8047  0.1687
 1581SOL    HW3 6370   2.522   3.104   2.578 -1.1259 -1.5589  0.1795
 1581SOL    MW4 6371   2.501   3.107   2.662 -0.1512  0.0341  0.3798
 1582SOL     OW 6372   2.270   3.214   2.738  0.3276  0.3890  0.0434
 1582SOL    HW2 6373   2.263   3.203   2.832  0.0766  1.6012  0.1822
 1582SOL    HW3 6374   2.197   3.164   2.702 -0.3282  0.9634  0.5707
 1582SOL    MW4 6375   2.260   3.206   2.745  0.2079  0.6247  0.1314
 1583SOL     OW 6376   2.230   3.483   2.724  0.8724 -0.2189 -0.5163
 1583SOL    HW2 6377   2.309   3.527   2.757  0.1431 -0.4890  1.6861
 1583SOL    HW3 6378   2.246   3.390   2.739 -0.3501 -0.1979  1.1786
 1583SOL    MW4 6379   2.242   3.476   2.730  0.6151 -0.2515 -0.0021
 1584SOL     OW 6380   2.484   3.577   2.787 -0.3878  0.5487 -0.3855
 1584SOL    HW2 6381   2.481   3.576   2.882 -2.4572 -1.0044 -0.4344
 1584SOL    HW3 6382   2.458   3.666   2.763 -1.4803  0.4702  0.4715
 1584SOL    MW4 6383   2.480   3.588   2.796 -0.8049  0.3333 -0.2787
 1585SOL     OW 6384   2.420   3.834   2.713 -0.0427 -0.4632 -0.5406
 1585SOL    HW2 6385   2.502   3.883   2.722 -0.9136  0.7926  0.7504
 1585SOL    HW3 6386   2.352   3.901   2.713 -1.1268 -1.5480 -0.8603
 1585SOL    MW4 6387   2.422   3.849   2.714 -0.3006 -0.4404 -0.4125
 1586SOL     OW 6388   2.216   4.029   2.725  0.2765 -0.3916  0.0300
 1586SOL    HW2 6389   2.221   4.021   2.820 -0.8449 -1.7566 -0.0031
 1586SOL    HW3 6390   2.125   4.010   2.704  0.5834 -0.4173 -1.3422
 1586SOL    MW4 6391   2.205   4.025   2.735  0.1688 -0.5751 -0.1554
 1587SOL     OW 6392   2.231   4.272   2.627  0.1505 -0.1298  0.1806
 1587SOL    HW2 6393   2.229   4.184   2.664  1.3150  0.5357  1.8380
 1587SOL    HW3 6394   2.144   4.308   2.645  0.2591 -0.3042  1.0686
 1587SOL    MW4 6395   2.219   4.265   2.634  0.3185 -0.0648  0.5169
 1588SOL     OW 6396   2.431   4.428   2.778 -0.4406  0.0611  0.1602
 1588SOL    HW2 6397   2.365   4.378   2.730  0.6510 -0.5241 -0.7663
 1588SOL    HW3 6398   2.447   4.505   2.723  1.2540 -0.9093 -0.7797
 1588SOL    MW4 6399   2.425   4.432   2.764 -0.0732 -0.1440 -0.0861
 1589SOL     OW 6400   2.932   4.650   2.659  0.3302  0.1854  0.3746
 1589SOL    HW2 6401   2.994   4.712   2.697 -1.6390  1.8050  1.0535
 1589SOL    HW3 6402   2.928   4.673   2.566  1.4240 -0.5264  0.1459
 1589SOL    MW4 6403   2.940   4.661   2.652  0.2151  0.3057  0.4337
 1590SOL     OW 6404   2.707   0.112   2.717 -0.1461  0.0832 -0.1280
 1590SOL    HW2 6405   2.692   0.113   2.811  0.0264  1.8981 -0.1021
 1590SOL    HW3 6406   2.777   0.047   2.704 -0.4186 -0.4322  0.9351
 1590SOL    MW4 6407   2.714   0.103   2.727 -0.1595  0.2546  0.0155
 1591SOL     OW 6408   2.708   0.369   2.629 -0.6099 -0.0336 -0.4407
 1591SOL    HW2 6409   2.706   0.274   2.641 -1.0487 -0.1252 -1.2426
 1591SOL    HW3 6410   2.652   0.403   2.700  1.1867 -0.2334  1.1227
 1591SOL    MW4 6411   2.700   0.361   2.640 -0.4306 -0.0721 -0.3402
 1592SOL     OW 6412   2.939   0.493   2.739  0.0535  0.3011  0.6135
 1592SOL    HW2 6413   2.954   0.576   2.694  0.1145 -0.1651 -0.2470
 1592SOL    HW3 6414   2.862   0.456   2.696  0.0777 -0.1316  0.9331
 1592SOL    MW4 6415   2.931   0.499   2.727  0.0646  0.1825  0.5422
 1593SOL     OW 6416   2.939   0.787   2.648 -0.3731 -0.8069  0.1623
 1593SOL    HW2 6417   3.008   0.812   2.709 -0.3272  2.4360 -1.0981
 1593SOL    HW3 6418   2.862   0.837   2.677 -0.4900  0.3611 -2.0304
 1593SOL    MW4 6419   2.938   0.797   2.659 -0.3824 -0.2249 -0.2933
 1594SOL     OW 6420   2.711   0.934   2.779 -0.5076  0.2738  0.2465
 1594SOL    HW2 6421   2.707   0.934   2.875 -0.2380 -1.3915  0.2729
 1594SOL    HW3 6422   2.655   0.861   2.753  0.7971 -0.3774 -0.7899
 1594SOL    MW4 6423   2.703   0.925   2.788 -0.2999 -0.0318  0.1128
 1595SOL     OW 6424   2.719   1.194   2.694 -0.2454  0.2295 -0.1999
 1595SOL    HW2 6425   2.786   1.247   2.736 -0.2936  0.5973 -0.5892
 1595SOL    HW3 6426   2.733   1.106   2.729  0.2510  0.3624 -0.0617
 1595SOL    MW4 6427   2.729   1.189   2.704 -0.1864  0.2955 -0.2329
 1596SOL     OW 6428   2.919   1.322   2.828 -0.2122  0.0915 -0.1031
 1596SOL    HW2 6429   2.923   1.294   2.919 -0.6025 -0.3200 -0.2063
 1596SOL    HW3 6430   2.988   1.271   2.785 -0.0748  0.2329 -0.0483
 1596SOL    MW4 6431   2.929   1.311   2.834 -0.2456  0.0558 -0.1094
 1597SOL     OW 6432   2.953   1.573   2.716  0.1098  0.4082  0.6021
 1597SOL    HW2 6433   2.868   1.609   2.742  0.0129  0.6743 -0.0607
 1597SOL    HW3 6434   2.947   1.480   2.737 -0.6403  0.2757 -0.1647
 1597SOL    MW4 6435   2.941   1.566   2.722 -0.0019  0.4259  0.4134
 1598SOL     OW 6436   2.703   1.658   2.796  0.0245 -0.1417  0.0255
 1598SOL    HW2 6437   2.693   1.659   2.891  0.8843 -0.1549  0.1226
 1598SOL    HW3 6438   2.629   1.606   2.765 -0.9327  0.8708  0.5959
 1598SOL    MW4 6439   2.692   1.651   2.805  0.0117 -0.0099  0.1135
 1599SOL     OW 6440   2.687   1.915   2.668 -0.4176 -0.1089  0.1899
 1599SOL    HW2 6441   2.690   1.835   2.719 -1.5160 -0.3830 -0.1614
 1599SOL    HW3 6442   2.610   1.962   2.700 -0.3516  0.3419 -0.2952
 1599SOL    MW4 6443   2.677   1.911   2.679 -0.5536 -0.0856  0.0792
 1600SOL     OW 6444   2.901   2.065   2.751 -0.3128 -0.1968 -0.5277
 1600SOL    HW2 6445   2.892   2.156   2.723  0.8161  0.1513  0.1726
 1600SOL    HW3 6446   2.829   2.019   2.708  0.4466  0.5861 -2.7155
 1600SOL    MW4 6447   2.891   2.071   2.742 -0.0637 -0.0474 -0.7241
 1601SOL     OW 6448   2.858   2.342   2.680 -0.4260  0.2284 -0.6539
 1601SOL    HW2 6449   2.940   2.374   2.718 -0.5158 -1.1026  0.7179
 1601SOL    HW3 6450   2.790   2.389   2.727 -0.4796  0.9067 -1.3931
 1601SOL    MW4 6451   2.860   2.352   2.691 -0.4449  0.1421 -0.5703
 1602SOL     OW 6452   2.619   2.464   2.769  0.1946  0.5406 -0.0971
 1602SOL    HW2 6453   2.649   2.467   2.860  2.1419 -0.7392 -0.6418
 1602SOL    HW3 6454   2.641   2.550   2.733  1.4429  0.3077  0.0748
 1602SOL    MW4 6455   2.626   2.476   2.776  0.6161  0.3412 -0.1462
 1603SOL     OW 6456   2.688   2.724   2.691  0.0517 -0.0798 -0.1600
 1603SOL    HW2 6457   2.765   2.774   2.721 -0.2273  0.5644 -0.5041
 1603SOL    HW3 6458   2.710   2.699   2.602 -0.3699  0.5886 -0.4543
 1603SOL    MW4 6459   2.701   2.728   2.684 -0.0410  0.0932 -0.2441
 1604SOL     OW 6460   2.916   2.864   2.782  0.2656  0.0072  0.7368
 1604SOL    HW2 6461   2.915   2.871   2.878 -0.2709 -0.6573  0.7884
 1604SOL    HW3 6462   2.922   2.954   2.751 -1.1513  0.3331  1.3802
 1604SOL    MW4 6463   2.917   2.876   2.791  0.0076 -0.0374  0.8287
 1605SOL     OW 6464   2.961   3.101   2.670  0.4362  0.0657 -0.3499
 1605SOL    HW2 6465   2.878   3.137   2.703  0.5880  0.4752 -0.4100
 1605SOL    HW3 6466   2.951   3.102   2.575  0.6584  0.4836 -0.3728
 1605SOL    MW4 6467   2.949   3.106   2.662  0.4857  0.1750 -0.3610
 1606SOL     OW 6468   2.741   3.218   2.788  0.0439  0.2800 -0.2422
 1606SOL    HW2 6469   2.740   3.304   2.744 -0.1613 -0.7487 -2.3111
 1606SOL    HW3 6470   2.664   3.173   2.754  0.5407 -0.9843  0.2955
 1606SOL    MW4 6471   2.731   3.224   2.778  0.0820 -0.0224 -0.4444
 1607SOL     OW 6472   2.764   3.496   2.729 -0.0133 -0.6697  0.1347
 1607SOL    HW2 6473   2.675   3.518   2.759  0.0653 -0.0859 -0.0483
 1607SOL    HW3 6474   2.760   3.505   2.634  0.6944  1.1057  0.2477
 1607SOL    MW4 6475   2.752   3.500   2.720  0.0904 -0.3586  0.1256
 1608SOL     OW 6476   2.968   3.678   2.808  0.0984  0.2804 -0.2227
 1608SOL    HW2 6477   2.972   3.681   2.903  0.1631 -1.4328 -0.1549
 1608SOL    HW3 6478   2.898   3.615   2.789  1.9233 -1.4578 -1.2905
 1608SOL    MW4 6479   2.959   3.670   2.818  0.3476 -0.1750 -0.3548
 1609SOL     OW 6480   2.889   3.895   2.666 -0.2300  0.1134 -0.9539
 1609SOL    HW2 6481   2.974   3.936   2.685  0.8296 -1.8407 -1.3582
 1609SOL    HW3 6482   2.894   3.809   2.708 -1.6835 -0.3627 -1.7158
 1609SOL    MW4 6483   2.901   3.889   2.674 -0.2816 -0.2072 -1.1079
 1610SOL     OW 6484   2.650   3.994   2.731  0.0604 -0.3727 -0.0552
 1610SOL    HW2 6485   2.652   4.088   2.713 -1.8483 -0.5374 -1.2209
 1610SOL    HW3 6486   2.740   3.965   2.715  1.0135  1.4589  1.6604
 1610SOL    MW4 6487   2.662   4.002   2.727 -0.0658 -0.1531  0.0174
 1611SOL     OW 6488   2.657   4.270   2.677  0.1375 -0.3255  0.7562
 1611SOL    HW2 6489   2.732   4.314   2.715 -0.2432 -0.8239  2.1045
 1611SOL    HW3 6490   2.582   4.321   2.706 -0.2809 -1.6151  2.0064
 1611SOL    MW4 6491   2.657   4.282   2.686  0.0319 -0.5612  1.0991
 1612SOL     OW 6492   2.905   4.389   2.758  0.7731  0.1241  0.7423
 1612SOL    HW2 6493   2.914   4.401   2.852  0.0772  1.1844  0.6831
 1612SOL    HW3 6494   2.922   4.476   2.721 -0.7317  0.1171  0.0200
 1612SOL    MW4 6495   2.909   4.402   2.765  0.4826  0.2637  0.6392
 1613SOL     OW 6496   3.405   4.634   2.644  0.0113  0.1209 -0.2702
 1613SOL    HW2 6497   3.397   4.541   2.667 -0.7301  0.0913 -0.6261
 1613SOL    HW3 6498   3.326   4.674   2.679  0.8276  0.8128  0.7888
 1613SOL    MW4 6499   3.393   4.627   2.651  0.0210  0.2084 -0.1774
 1614SOL     OW 6500   3.173   0.100   2.746  0.9824 -0.4013 -0.0899
 1614SOL    HW2 6501   3.180   0.118   2.840 -1.6811  1.6125 -0.2318
 1614SOL    HW3 6502   3.184   0.186   2.705 -1.5666 -0.6774 -1.4048
 1614SOL    MW4 6503   3.176   0.114   2.753  0.2947 -0.1721 -0.2820
 1615SOL     OW 6504   3.186   0.374   2.666  0.4546  0.2123  0.6063
 1615SOL    HW2 6505   3.110   0.418   2.704 -0.5305 -0.3743 -0.6603
 1615SOL    HW3 6506   3.171   0.376   2.572  1.9953  0.0577  0.3389
 1615SOL    MW4 6507   3.174   0.380   2.659  0.5279  0.1145  0.4039
 1616SOL     OW 6508   3.407   0.513   2.775  0.0431  0.3183  0.3547
 1616SOL    HW2 6509   3.394   0.599   2.735  0.1953 -0.2330 -0.9239
 1616SOL    HW3 6510   3.340   0.457   2.734 -0.1465 -0.1381  1.2767
 1616SOL    MW4 6511   3.396   0.517   2.764  0.0381  0.1853  0.3078
 1617SOL     OW 6512   3.341   0.756   2.663  0.5399  0.5722  0.0291
 1617SOL    HW2 6513   3.429   0.793   2.676  1.4258 -0.8513 -1.7743
 1617SOL    HW3 6514   3.324   0.765   2.569 -1.5149  1.3915  0.4510
 1617SOL    MW4 6515   3.351   0.762   2.652  0.3860  0.4925 -0.1535
 1618SOL     OW 6516   3.151   0.920   2.795 -0.0761 -0.5120 -0.0977
 1618SOL    HW2 6517   3.160   0.909   2.890  0.3186 -0.7887 -0.1682
 1618SOL    HW3 6518   3.226   0.874   2.758  0.9021  1.3308 -0.4710
 1618SOL    MW4 6519   3.162   0.912   2.803  0.1049 -0.3053 -0.1562
 1619SOL     OW 6520   3.102   1.173   2.661  0.1426  0.0559 -0.2434
 1619SOL    HW2 6521   3.110   1.081   2.685 -0.0085  0.2538  0.5604
 1619SOL    HW3 6522   3.119   1.175   2.566  0.1909 -0.7866 -0.2492
 1619SOL    MW4 6523   3.105   1.161   2.651  0.1287 -0.0292 -0.1380
 1620SOL     OW 6524   3.341   1.288   2.771 -0.1695  0.5901 -0.5708
 1620SOL    HW2 6525   3.338   1.314   2.863 -1.8040  1.2545 -0.7958
 1620SOL    HW3 6526   3.253   1.258   2.752  0.4484 -0.5496 -1.6436
 1620SOL    MW4 6527   3.329   1.288   2.781 -0.3035  0.5274 -0.7420
 1621SOL     OW 6528   3.382   1.552   2.647  0.3514 -0.4334 -0.4711
 1621SOL    HW2 6529   3.319   1.620   2.671  1.4529 -0.0907  1.5071
 1621SOL    HW3 6530   3.362   1.478   2.704  1.7984 -0.2871  0.2407
 1621SOL    MW4 6531   3.371   1.551   2.658  0.6876 -0.3687 -0.1163
 1622SOL     OW 6532   3.191   1.706   2.770 -0.1180  0.2159  0.3309
 1622SOL    HW2 6533   3.170   1.793   2.736  0.4229 -1.0884 -3.5509
 1622SOL    HW3 6534   3.116   1.652   2.746  0.8219 -1.0190  0.0873
 1622SOL    MW4 6535   3.178   1.710   2.762  0.0772 -0.1191 -0.2134
 1623SOL     OW 6536   3.142   1.948   2.636 -0.0801 -0.1550  0.0302
 1623SOL    HW2 6537   3.217   1.984   2.684 -0.2957 -1.2819  1.2558
 1623SOL    HW3 6538   3.067   1.997   2.670 -0.2594 -1.0982  1.0274
 1623SOL    MW4 6539   3.142   1.959   2.647 -0.1321 -0.4281  0.3233
 1624SOL     OW 6540   3.342   2.077   2.782 -1.0252 -0.2883  0.3648
 1624SOL    HW2 6541   3.360   2.077   2.876  0.6119  0.3271  0.0618
 1624SOL    HW3 6542   3.332   2.169   2.759 -0.4061 -0.3735 -0.2524
 1624SOL    MW4 6543   3.343   2.089   2.791 -0.7277 -0.2186  0.2437
 1625SOL     OW 6544   3.344   2.335   2.680 -0.6030 -0.2923 -0.4393
 1625SOL    HW2 6545   3.430   2.365   2.708 -1.4730  0.5187  1.4519
 1625SOL    HW3 6546   3.337   2.365   2.589  1.7256 -1.7768 -1.1452
 1625SOL    MW4 6547   3.354   2.343   2.671 -0.4103 -0.3812 -0.2832
 1626SOL     OW 6548   3.103   2.458   2.798 -0.1865  0.0947  0.0814
 1626SOL    HW2 6549   3.116   2.546   2.764 -0.8118  0.2630  0.2699
 1626SOL    HW3 6550   3.175   2.406   2.760  1.2398  1.0703  1.3775
 1626SOL    MW4 6551   3.114   2.462   2.789 -0.0808  0.2456  0.2775
 1627SOL     OW 6552   3.130   2.721   2.679  0.4651  0.1773  0.1942
 1627SOL    HW2 6553   3.200   2.770   2.723  1.1434  0.1095 -0.7774
 1627SOL    HW3 6554   3.050   2.770   2.698  0.9602  0.9507  0.2898
 1627SOL    MW4 6555   3.129   2.734   2.687  0.6199  0.2704  0.0784
 1628SOL     OW 6556   3.381   2.810   2.786 -0.0408 -0.1805 -0.3232
 1628SOL    HW2 6557   3.404   2.802   2.879 -1.0168 -1.6723 -0.1877
 1628SOL    HW3 6558   3.462   2.790   2.739  0.1753 -0.5611  0.2027
 1628SOL    MW4 6559   3.395   2.806   2.792 -0.1409 -0.4275 -0.2360
 1629SOL     OW 6560   3.368   3.088   2.704  0.1358 -0.2051 -0.1170
 1629SOL    HW2 6561   3.372   2.997   2.734 -0.3148  0.2054  1.2268
 1629SOL    HW3 6562   3.369   3.082   2.609  1.1021 -1.5698 -0.0273
 1629SOL    MW4 6563   3.368   3.075   2.695  0.2038 -0.3309  0.0720
 1630SOL     OW 6564   3.139   3.247   2.805 -0.0746 -0.1988 -0.1972
 1630SOL    HW2 6565   3.215   3.191   2.787  0.1163 -0.4414  1.2567
 1630SOL    HW3 6566   3.065   3.200   2.767  0.1767 -1.1443  0.4581
 1630SOL    MW4 6567   3.139   3.233   2.798 -0.0165 -0.3555  0.0811
 1631SOL     OW 6568   3.157   3.502   2.711  0.6259  0.2470 -0.0629
 1631SOL    HW2 6569   3.150   3.416   2.753  0.5565 -0.2272 -1.0076
 1631SOL    HW3 6570   3.091   3.556   2.753 -0.8679 -0.8218 -0.9817
 1631SOL    MW4 6571   3.148   3.498   2.722  0.4196  0.0432 -0.3085
 1632SOL     OW 6572   3.394   3.624   2.758 -0.5691  0.1476  0.0761
 1632SOL    HW2 6573   3.389   3.642   2.852 -0.9918 -3.8510  0.8758
 1632SOL    HW3 6574   3.313   3.578   2.738  0.1823 -0.3362 -1.9677
 1632SOL    MW4 6575   3.382   3.620   2.768 -0.5257 -0.4437 -0.0880
 1633SOL     OW 6576   3.354   3.861   2.633 -0.2578 -0.2288 -0.0893
 1633SOL    HW2 6577   3.366   3.776   2.676  0.6581  0.7520  1.6500
 1633SOL    HW3 6578   3.358   3.841   2.539  1.1891 -1.9493  0.3068
 1633SOL    MW4 6579   3.356   3.847   2.626  0.0536 -0.3264  0.1924
 1634SOL     OW 6580   3.133   3.992   2.712 -0.0201 -0.0119  0.4373
 1634SOL    HW2 6581   3.149   4.085   2.700  1.5391  0.2552  3.8719
 1634SOL    HW3 6582   3.215   3.950   2.685 -0.7863 -0.4170 -1.2842
 1634SOL    MW4 6583   3.146   3.999   2.707  0.0846 -0.0300  0.6635
 1635SOL     OW 6584   3.142   4.274   2.669  0.4451  0.5157  0.2613
 1635SOL    HW2 6585   3.063   4.321   2.694  0.5227  0.0402  1.4623
 1635SOL    HW3 6586   3.143   4.276   2.573 -2.5813 -2.0239  0.0985
 1635SOL    MW4 6587   3.132   4.280   2.660  0.0560  0.1173  0.3982
 1636SOL     OW 6588   3.396   4.385   2.741 -0.2869  0.3999 -0.1397
 1636SOL    HW2 6589   3.389   4.411   2.833  1.7246 -2.0115  0.7647
 1636SOL    HW3 6590   3.315   4.338   2.723  0.1514 -0.8507  1.0358
 1636SOL    MW4 6591   3.384   4.382   2.751  0.0362 -0.0834  0.1345
 1637SOL     OW 6592   3.831   4.657   2.695 -0.0764 -0.6856 -0.2608
 1637SOL    HW2 6593   3.821   4.564   2.715 -0.9007 -0.4957  0.2311
 1637SOL    HW3 6594   3.754   4.698   2.733  1.2674  0.4737  1.2957
 1637SOL    MW4 6595   3.820   4.650   2.703 -0.0081 -0.5074  0.0093
 1638SOL     OW 6596   3.596   0.122   2.793  0.4446 -0.4215 -0.9254
 1638SOL    HW2 6597   3.601   0.200   2.738 -2.3365  0.1179 -0.4787
 1638SOL    HW3 6598   3.528   0.068   2.753  2.0787 -2.4673 -1.0164
 1638SOL    MW4 6599   3.588   0.125   2.781  0.2933 -0.6202 -0.8783
 1639SOL     OW 6600   3.602   0.366   2.662  0.2777 -0.3515  0.6064
 1639SOL    HW2 6601   3.682   0.409   2.691 -0.0806 -0.1244  1.2700
 1639SOL    HW3 6602   3.532   0.427   2.686  0.1702  1.1977 -3.3569
 1639SOL    MW4 6603   3.603   0.380   2.669  0.2160 -0.1171  0.1709
 1640SOL     OW 6604   3.831   0.533   2.738  0.6775  0.1825  0.0260
 1640SOL    HW2 6605   3.834   0.538   2.834  0.3954 -1.2276  0.1284
 1640SOL    HW3 6606   3.910   0.484   2.715  1.6794  2.0598 -0.6062
 1640SOL    MW4 6607   3.842   0.527   2.748  0.7725  0.2441 -0.0441
 1641SOL     OW 6608   3.812   0.790   2.649  0.1698  0.0210  0.0126
 1641SOL    HW2 6609   3.737   0.817   2.703  0.0412 -0.5149  0.1088
 1641SOL    HW3 6610   3.816   0.695   2.660 -0.7136 -0.2795 -2.0318
 1641SOL    MW4 6611   3.802   0.781   2.658  0.0362 -0.0893 -0.2444
 1642SOL     OW 6612   3.578   0.864   2.773 -0.1984 -0.0626 -0.6797
 1642SOL    HW2 6613   3.607   0.874   2.864 -0.6496 -0.2505 -0.5140
 1642SOL    HW3 6614   3.556   0.953   2.745  0.0234  0.0070 -0.6321
 1642SOL    MW4 6615   3.579   0.877   2.781 -0.2286 -0.0783 -0.6516
 1643SOL     OW 6616   3.556   1.125   2.719  0.7849  0.5092 -0.0238
 1643SOL    HW2 6617   3.634   1.173   2.746  0.6465  1.4569 -1.2827
 1643SOL    HW3 6618   3.483   1.183   2.738  0.6866  1.2218 -2.4270
 1643SOL    MW4 6619   3.557   1.139   2.725  0.7536  0.7284 -0.5071
 1644SOL     OW 6620   3.772   1.276   2.809 -0.3312 -0.4165  0.0214
 1644SOL    HW2 6621   3.845   1.228   2.770 -0.8597  0.1474 -1.6935
 1644SOL    HW3 6622   3.800   1.368   2.808 -0.9198 -0.2390 -0.3117
 1644SOL    MW4 6623   3.786   1.282   2.804 -0.4787 -0.3186 -0.2487
 1645SOL     OW 6624   3.816   1.526   2.735  0.6021  0.1894  0.2026
 1645SOL    HW2 6625   3.880   1.596   2.748  0.6191  0.2497 -0.2073
 1645SOL    HW3 6626   3.731   1.569   2.745  0.6260  0.0566  1.0147
 1645SOL    MW4 6627   3.814   1.541   2.738  0.6077  0.1799  0.2558
 1646SOL     OW 6628   3.593   1.689   2.780 -1.1888  0.0010  0.0147
 1646SOL    HW2 6629   3.585   1.781   2.755 -0.9772 -0.0939 -0.4114
 1646SOL    HW3 6630   3.522   1.645   2.734  0.3800 -0.4873 -2.0068
 1646SOL    MW4 6631   3.582   1.695   2.771 -0.9539 -0.0758 -0.3083
 1647SOL     OW 6632   3.574   1.949   2.696 -0.3917  0.3874  0.5948
 1647SOL    HW2 6633   3.501   2.006   2.718  0.3643  1.6102 -0.0074
 1647SOL    HW3 6634   3.579   1.951   2.601  0.7979  0.7944  0.6561
 1647SOL    MW4 6635   3.565   1.957   2.687 -0.1349  0.6024  0.5236
 1648SOL     OW 6636   3.815   2.061   2.810 -0.3459  0.3593 -0.6808
 1648SOL    HW2 6637   3.880   2.006   2.766  1.2726  2.0056 -0.4276
 1648SOL    HW3 6638   3.731   2.033   2.773  0.6000 -1.0116 -1.8738
 1648SOL    MW4 6639   3.812   2.050   2.800 -0.0076  0.3955 -0.8049
 1649SOL     OW 6640   3.834   2.318   2.707 -0.1322 -0.2534 -0.3029
 1649SOL    HW2 6641   3.836   2.229   2.740 -0.4328  0.0639  0.5727
 1649SOL    HW3 6642   3.819   2.308   2.613 -0.8293 -1.1029 -0.1049
 1649SOL    MW4 6643   3.832   2.305   2.699 -0.2637 -0.3235 -0.1612
 1650SOL     OW 6644   3.594   2.438   2.733 -0.2231  0.7083 -0.2768
 1650SOL    HW2 6645   3.566   2.421   2.823 -0.0725 -0.7615 -0.4957
 1650SOL    HW3 6646   3.684   2.406   2.730 -0.5223 -0.0412 -1.1933
 1650SOL    MW4 6647   3.602   2.432   2.745 -0.2429  0.4156 -0.4265
 1651SOL     OW 6648   3.609   2.702   2.682 -0.1690 -0.3492 -0.2486
 1651SOL    HW2 6649   3.596   2.609   2.700  1.8318 -0.8694 -1.3493
 1651SOL    HW3 6650   3.616   2.707   2.587 -0.3494  0.9457 -0.2054
 1651SOL    MW4 6651   3.608   2.690   2.672  0.0710 -0.2470 -0.3879
 1652SOL     OW 6652   3.827   2.869   2.768 -0.1923  0.3967 -0.0436
 1652SOL    HW2 6653   3.902   2.817   2.740  0.7486  1.3037  0.7219
 1652SOL    HW3 6654   3.750   2.823   2.733  0.8395  0.7703 -2.9695
 1652SOL    MW4 6655   3.826   2.856   2.760  0.0682  0.5658 -0.3285
 1653SOL     OW 6656   3.830   3.122   2.674  0.1645 -0.0428 -0.2663
 1653SOL    HW2 6657   3.763   3.163   2.728  1.6384  0.6023  1.1141
 1653SOL    HW3 6658   3.828   3.030   2.699 -0.2318 -0.0315 -0.2530
 1653SOL    MW4 6659   3.821   3.115   2.684  0.3066  0.0439 -0.0823
 1654SOL     OW 6660   3.602   3.224   2.797  0.5158  0.0135 -0.2609
 1654SOL    HW2 6661   3.591   3.310   2.758  0.3047 -0.2949 -0.8921
 1654SOL    HW3 6662   3.534   3.170   2.756 -0.4625 -0.0244  1.3883
 1654SOL    MW4 6663   3.592   3.228   2.786  0.3588 -0.0322 -0.1266
 1655SOL     OW 6664   3.615   3.505   2.660 -0.0451 -0.2621 -0.0431
 1655SOL    HW2 6665   3.670   3.551   2.723  0.2754 -1.1105  0.3129
 1655SOL    HW3 6666   3.526   3.535   2.678  0.0641 -0.3681  0.6991
 1655SOL    MW4 6667   3.611   3.515   2.671  0.0114 -0.3879  0.1020
 1656SOL     OW 6668   3.801   3.648   2.793  0.1876  0.2831  0.1612
 1656SOL    HW2 6669   3.878   3.600   2.763  0.4813  1.0400 -0.3173
 1656SOL    HW3 6670   3.789   3.717   2.727 -0.1397  0.9565  0.9207
 1656SOL    MW4 6671   3.809   3.651   2.780  0.1831  0.4718  0.1986
 1657SOL     OW 6672   3.818   3.860   2.613  0.1938  0.0191  0.3775
 1657SOL    HW2 6673   3.889   3.913   2.649 -0.4290  1.7465 -0.9238
 1657SOL    HW3 6674   3.739   3.911   2.629 -0.4080 -0.5171 -0.8893
 1657SOL    MW4 6675   3.817   3.873   2.620  0.0319  0.1762  0.0389
 1658SOL     OW 6676   3.590   3.977   2.719 -0.3813  0.4974  0.0671
 1658SOL    HW2 6677   3.593   4.071   2.703 -0.1353  0.5211  0.2429
 1658SOL    HW3 6678   3.503   3.950   2.690  0.7356  0.1867 -3.2116
 1658SOL    MW4 6679   3.579   3.986   2.713 -0.2012  0.4594 -0.3419
 1659SOL     OW 6680   3.630   4.242   2.645 -0.1713  0.0319 -0.0021
 1659SOL    HW2 6681   3.549   4.281   2.677 -0.7366 -0.9238 -0.2737
 1659SOL    HW3 6682   3.627   4.253   2.550  0.4016  0.7180  0.0499
 1659SOL    MW4 6683   3.619   4.249   2.637 -0.1702 -0.0033 -0.0308
 1660SOL     OW 6684   3.841   4.380   2.757  0.3298  0.2382 -0.0171
 1660SOL    HW2 6685   3.911   4.340   2.705  0.2472  1.2629 -0.9106
 1660SOL    HW3 6686   3.763   4.329   2.735  0.5453 -0.1402  0.0775
 1660SOL    MW4 6687   3.840   4.368   2.748  0.3474  0.3233 -0.1223
 1661SOL     OW 6688   4.272   4.666   2.664 -0.1167  0.0245  0.7789
 1661SOL    HW2 6689   4.205   4.715   2.711  0.1735  1.0978  0.0801
 1661SOL    HW3 6690   4.355   4.707   2.690  0.0858  0.2700 -0.2457
 1661SOL    MW4 6691   4.274   4.678   2.674 -0.0520  0.1979  0.5515
 1662SOL     OW 6692   4.056   0.115   2.784 -0.2067  0.4026 -0.5297
 1662SOL    HW2 6693   4.049   0.123   2.879  0.4380 -0.9504 -0.3630
 1662SOL    HW3 6694   3.974   0.073   2.758 -0.5046  1.0312 -0.5990
 1662SOL    MW4 6695   4.044   0.110   2.793 -0.1607  0.3070 -0.5169
 1663SOL     OW 6696   4.040   0.374   2.681  0.3239  0.4239 -0.4119
 1663SOL    HW2 6697   4.058   0.289   2.722  0.6674  0.1986 -1.0239
 1663SOL    HW3 6698   4.027   0.354   2.588 -0.9392  0.8673 -0.3425
 1663SOL    MW4 6699   4.041   0.360   2.674  0.2022  0.4527 -0.4838
 1664SOL     OW 6700   4.261   0.521   2.767 -0.4476  0.6440 -0.4648
 1664SOL    HW2 6701   4.183   0.467   2.751  0.2103 -0.9939  1.6173
 1664SOL    HW3 6702   4.333   0.471   2.728  0.0096  0.5313  0.5076
 1664SOL    MW4 6703   4.260   0.507   2.760 -0.3004  0.4131 -0.0618
 1665SOL     OW 6704   4.238   0.775   2.629 -0.3831 -0.6303  0.2880
 1665SOL    HW2 6705   4.231   0.693   2.677  3.3594 -2.1350 -1.5535
 1665SOL    HW3 6706   4.233   0.749   2.537  1.6410  1.0581 -0.3351
 1665SOL    MW4 6707   4.236   0.761   2.623  0.3777 -0.6061 -0.0374
 1666SOL     OW 6708   4.032   0.879   2.795  0.6884  0.5609 -0.3496
 1666SOL    HW2 6709   4.113   0.850   2.754  1.2889 -1.2501  1.9929
 1666SOL    HW3 6710   3.964   0.825   2.754  1.3696 -1.7525  1.4632
 1666SOL    MW4 6711   4.033   0.868   2.784  0.8574  0.0167  0.1986
 1667SOL     OW 6712   4.001   1.134   2.718 -0.5137 -0.2452 -0.5774
 1667SOL    HW2 6713   4.087   1.170   2.741 -0.6094 -0.7904  0.6620
 1667SOL    HW3 6714   4.007   1.042   2.741 -1.9779  0.0558  1.0395
 1667SOL    MW4 6715   4.013   1.127   2.724 -0.7191 -0.2774 -0.2005
 1668SOL     OW 6716   4.245   1.257   2.798  0.0914 -0.0040 -0.0570
 1668SOL    HW2 6717   4.222   1.345   2.766  0.0438 -0.3471 -0.9923
 1668SOL    HW3 6718   4.327   1.236   2.753  0.7719  0.0760  1.1357
 1668SOL    MW4 6719   4.253   1.266   2.788  0.1750 -0.0387 -0.0231
 1669SOL     OW 6720   4.194   1.509   2.669  0.4017  0.5893  0.0950
 1669SOL    HW2 6721   4.278   1.546   2.697  1.3479 -1.2030 -0.2458
 1669SOL    HW3 6722   4.211   1.477   2.580  0.0200 -1.8353  0.8716
 1669SOL    MW4 6723   4.207   1.510   2.661  0.4764  0.0330  0.1526
 1670SOL     OW 6724   4.040   1.704   2.790  0.1954  0.2666 -0.2749
 1670SOL    HW2 6725   4.033   1.687   2.884  1.2651  2.6149  0.2871
 1670SOL    HW3 6726   4.099   1.636   2.758 -1.6305 -1.6622  0.3935
 1670SOL    MW4 6727   4.047   1.693   2.799  0.0958  0.3219 -0.1125
 1671SOL     OW 6728   4.002   1.938   2.663 -0.1343  0.6169  0.2752
 1671SOL    HW2 6729   4.085   1.982   2.684 -0.2913  0.1122  2.0067
 1671SOL    HW3 6730   4.005   1.856   2.712 -0.8617 -0.2629 -1.1153
 1671SOL    MW4 6731   4.013   1.933   2.672 -0.2513  0.4344  0.3202
 1672SOL     OW 6732   4.252   2.063   2.768  0.0667  0.2653  0.4144
 1672SOL    HW2 6733   4.246   2.143   2.715 -0.6787  1.2045  1.8620
 1672SOL    HW3 6734   4.321   2.012   2.727 -1.1635  0.5119 -2.0479
 1672SOL    MW4 6735   4.260   2.067   2.755 -0.1941  0.4218  0.2804
 1673SOL     OW 6736   4.246   2.316   2.648  0.2939 -0.3683  0.5034
 1673SOL    HW2 6737   4.172   2.366   2.681  1.3606  1.5448  0.0138
 1673SOL    HW3 6738   4.237   2.320   2.552  0.5102 -0.9400  0.4546
 1673SOL    MW4 6739   4.235   2.323   2.640  0.4635 -0.1912  0.4323
 1674SOL     OW 6740   4.036   2.489   2.760 -0.2579 -0.0395 -0.2494
 1674SOL    HW2 6741   4.039   2.497   2.855  0.8912 -1.4425 -0.1474
 1674SOL    HW3 6742   3.961   2.433   2.742 -0.2030 -0.1497 -0.1355
 1674SOL    MW4 6743   4.027   2.483   2.770 -0.0992 -0.2391 -0.2205
 1675SOL     OW 6744   4.038   2.746   2.625 -0.2242 -0.3824 -0.3704
 1675SOL    HW2 6745   4.111   2.794   2.665 -1.5219  0.3637  1.1297
 1675SOL    HW3 6746   4.035   2.663   2.673 -1.4154  0.2721  0.6896
 1675SOL    MW4 6747   4.048   2.741   2.636 -0.5527 -0.1976 -0.0324
 1676SOL     OW 6748   4.264   2.854   2.754  0.5699  0.2591 -0.0386
 1676SOL    HW2 6749   4.256   2.862   2.849 -1.9820  0.5621 -0.2562
 1676SOL    HW3 6750   4.274   2.945   2.724 -1.1405  0.3917 -0.2486
 1676SOL    MW4 6751   4.264   2.867   2.763  0.0076  0.3166 -0.0949
 1677SOL     OW 6752   4.280   3.107   2.678  0.3022 -0.4067 -0.5125
 1677SOL    HW2 6753   4.206   3.160   2.706  0.3740 -1.4576  1.7891
 1677SOL    HW3 6754   4.271   3.101   2.583 -1.1114  1.5930 -0.5203
 1677SOL    MW4 6755   4.269   3.113   2.669  0.1249 -0.2818 -0.2100
 1678SOL     OW 6756   4.063   3.250   2.757 -0.0540 -0.1794 -0.2585
 1678SOL    HW2 6757   4.056   3.345   2.752  2.6350  0.0269 -0.9612
 1678SOL    HW3 6758   3.987   3.218   2.710 -0.6843  1.6335 -0.5236
 1678SOL    MW4 6759   4.052   3.258   2.750  0.2179  0.0868 -0.3862
 1679SOL     OW 6760   4.039   3.520   2.725 -0.2600 -0.2035 -0.5693
 1679SOL    HW2 6761   4.120   3.566   2.748 -1.1349  0.7258  0.6977
 1679SOL    HW3 6762   4.037   3.521   2.629  2.5424 -2.5507 -0.7249
 1679SOL    MW4 6763   4.050   3.526   2.715 -0.0062 -0.3908 -0.4230
 1680SOL     OW 6764   4.296   3.611   2.751 -0.0211  0.2757 -0.2265
 1680SOL    HW2 6765   4.295   3.599   2.846  0.3515  1.8946 -0.0092
 1680SOL    HW3 6766   4.364   3.551   2.720  0.5427  0.4657  0.6229
 1680SOL    MW4 6767   4.304   3.601   2.760  0.1020  0.5145 -0.0858
 1681SOL     OW 6768   4.259   3.864   2.641  0.1224  0.6832 -0.1136
 1681SOL    HW2 6769   4.283   3.778   2.676  0.0746 -0.3413 -2.4891
 1681SOL    HW3 6770   4.326   3.923   2.675  0.7668 -0.4860  0.6988
 1681SOL    MW4 6771   4.271   3.860   2.650  0.2007  0.3939 -0.3200
 1682SOL     OW 6772   4.042   3.974   2.740  0.2047  0.4854  0.2446
 1682SOL    HW2 6773   4.038   3.964   2.835 -0.8319 -0.2972  0.1289
 1682SOL    HW3 6774   4.125   3.935   2.715 -0.2634 -0.8054  0.6629
 1682SOL    MW4 6775   4.052   3.967   2.749  0.0057  0.2115  0.2847
 1683SOL     OW 6776   4.085   4.251   2.659  0.0847 -0.0009 -0.2870
 1683SOL    HW2 6777   4.063   4.164   2.692  1.0591  0.3960  1.4430
 1683SOL    HW3 6778   4.070   4.244   2.565 -1.4820 -1.5304  0.0438
 1683SOL    MW4 6779   4.080   4.238   2.651  0.0067 -0.1502 -0.0153
 1684SOL     OW 6780   4.278   4.407   2.778 -0.3627  0.0947  0.1324
 1684SOL    HW2 6781   4.204   4.350   2.758  0.5087 -0.5947 -1.1484
 1684SOL    HW3 6782   4.256   4.490   2.735 -0.4926 -0.0482 -0.0793
 1684SOL    MW4 6783   4.265   4.411   2.770 -0.2651 -0.0157 -0.0646
 1685SOL     OW 6784   0.248   4.655   3.129 -0.1592  0.1200 -0.4119
 1685SOL    HW2 6785   0.258   4.643   3.223  0.6638 -0.2907 -0.5494
 1685SOL    HW3 6786   0.167   4.706   3.120 -0.8839 -0.8481  0.4567
 1685SOL    MW4 6787   0.238   4.660   3.140 -0.1462 -0.0615 -0.3152
 1686SOL     OW 6788   0.030   0.136   3.037 -0.1007  0.4916  0.3782
 1686SOL    HW2 6789  -0.044   0.098   3.084 -0.4617  0.2771 -0.3718
 1686SOL    HW3 6790   0.032   0.228   3.065 -0.8518  0.5818  0.1376
 1686SOL    MW4 6791   0.021   0.143   3.047 -0.2475  0.4752  0.2475
 1687SOL     OW 6792   0.012   0.395   3.147 -0.3046  0.5623  0.0214
 1687SOL    HW2 6793   0.017   0.374   3.241 -1.0734 -2.2585 -0.5115
 1687SOL    HW3 6794  -0.061   0.457   3.140 -0.6541  0.3027  1.2241
 1687SOL    MW4 6795   0.003   0.400   3.159 -0.4522  0.1559  0.1097
 1688SOL     OW 6796   0.243   0.501   3.028  0.0851 -0.1960  0.0344
 1688SOL    HW2 6797   0.314   0.448   3.064 -0.5858 -0.8096  0.4596
 1688SOL    HW3 6798   0.163   0.455   3.052 -0.5527  1.3972  1.0896
 1688SOL    MW4 6799   0.242   0.488   3.036 -0.0876 -0.0668  0.2298
 1689SOL     OW 6800   0.234   0.763   3.124  0.0594  0.0200 -0.3944
 1689SOL    HW2 6801   0.214   0.787   3.215 -0.5981  0.6331 -0.6926
 1689SOL    HW3 6802   0.210   0.671   3.117  1.7796 -0.5176  0.5348
 1689SOL    MW4 6803   0.228   0.754   3.135  0.1996  0.0300 -0.3114
 1690SOL     OW 6804   4.488   0.894   3.016 -0.2346 -0.1480  0.4387
 1690SOL    HW2 6805   4.568   0.841   3.020 -1.1587 -1.5566  0.7071
 1690SOL    HW3 6806   4.477   0.913   2.923  1.0050  0.9895  0.5181
 1690SOL    MW4 6807   4.497   0.889   3.004 -0.1931 -0.1838  0.4847
 1691SOL     OW 6808   0.050   1.133   3.171 -0.3575  0.2232 -0.3915
 1691SOL    HW2 6809  -0.027   1.182   3.143 -1.4214 -1.7414 -0.9664
 1691SOL    HW3 6810   0.045   1.050   3.123  1.6422 -0.2779  0.2222
 1691SOL    MW4 6811   0.039   1.128   3.161 -0.2341 -0.1019 -0.3862
 1692SOL     OW 6812   0.223   1.285   3.007  0.2593  0.2210 -0.3586
 1692SOL    HW2 6813   0.218   1.254   2.916  1.7447 -0.4313 -0.2308
 1692SOL    HW3 6814   0.161   1.229   3.055 -0.1595  0.2374 -0.8727
 1692SOL    MW4 6815   0.214   1.273   3.001  0.4000  0.1371 -0.4094
 1693SOL     OW 6816   0.198   1.524   3.121  0.1304  0.3350 -0.1799
 1693SOL    HW2 6817   0.121   1.563   3.080 -0.3148  0.1710  0.4989
 1693SOL    HW3 6818   0.201   1.434   3.087 -0.7644 -0.0909  0.8478
 1693SOL    MW4 6819   0.188   1.517   3.111 -0.0464  0.2571  0.0453
 1694SOL     OW 6820   4.469   1.667   3.010  0.1672 -0.2340 -0.6772
 1694SOL    HW2 6821   4.400   1.623   3.060 -0.2047 -0.6978 -1.5873
 1694SOL    HW3 6822   4.478   1.753   3.051 -1.6277  0.1985 -1.1494
 1694SOL    MW4 6823   4.461   1.672   3.022 -0.1187 -0.2381 -0.8597
 1695SOL     OW 6824   4.482   1.900   3.147  0.2407 -0.0282 -0.1920
 1695SOL    HW2 6825   4.409   1.960   3.131  0.8411  0.5767 -0.6942
 1695SOL    HW3 6826   4.558   1.944   3.110  0.9346 -0.4901  0.6568
 1695SOL    MW4 6827   4.482   1.914   3.140  0.4115 -0.0093 -0.1462
 1696SOL     OW 6828   0.163   2.048   2.990  0.4257 -0.2241  0.4769
 1696SOL    HW2 6829   0.164   2.139   3.021 -2.1787 -0.3729  1.1114
 1696SOL    HW3 6830   0.138   2.054   2.898 -1.1110 -0.3648  0.8739
 1696SOL    MW4 6831   0.160   2.061   2.982 -0.1206 -0.2625  0.6130
 1697SOL     OW 6832   0.188   2.322   3.072  0.3640  0.5909 -0.1657
 1697SOL    HW2 6833   0.221   2.334   3.161 -2.4662  0.7573  0.9102
 1697SOL    HW3 6834   0.251   2.368   3.016  1.4909  1.5589  1.8686
 1697SOL    MW4 6835   0.201   2.330   3.076  0.1393  0.7408  0.2446
 1698SOL     OW 6836   4.426   2.449   3.022 -0.0101  0.4640  0.4003
 1698SOL    HW2 6837   4.426   2.539   3.055 -2.1325  0.4902  0.3639
 1698SOL    HW3 6838   4.512   2.414   3.048  0.7902  2.4582  0.4803
 1698SOL    MW4 6839   4.438   2.456   3.030 -0.1845  0.7305  0.4063
 1699SOL     OW 6840   4.485   2.703   3.130 -0.2589 -0.1238  0.1659
 1699SOL    HW2 6841   4.485   2.684   3.224 -1.9578 -0.8250  0.0383
 1699SOL    HW3 6842   4.558   2.764   3.118  1.9024 -2.3881  1.4244
 1699SOL    MW4 6843   4.494   2.709   3.141 -0.1979 -0.5150  0.3152
 1700SOL     OW 6844   0.226   2.859   3.047  0.1063  0.1940  0.2309
 1700SOL    HW2 6845   0.284   2.795   3.089  0.3806  0.6578  0.5568
 1700SOL    HW3 6846   0.219   2.829   2.956  1.4687  0.5637 -0.0030
 1700SOL    MW4 6847   0.232   2.847   3.040  0.3222  0.3040  0.2432
 1701SOL     OW 6848   0.209   3.114   3.146 -0.0560  0.6369 -0.3873
 1701SOL    HW2 6849   0.137   3.171   3.119  0.7296  1.1206 -1.4818
 1701SOL    HW3 6850   0.204   3.039   3.086  0.4076  0.7161 -0.5286
 1701SOL    MW4 6851   0.199   3.111   3.134  0.1089  0.7110 -0.5503
 1702SOL     OW 6852   4.460   3.245   3.057 -0.3716 -0.8058 -0.0489
 1702SOL    HW2 6853   4.382   3.202   3.091 -0.0994 -0.1169  1.4455
 1702SOL    HW3 6854   4.449   3.242   2.962 -1.7298 -1.6026  0.1250
 1702SOL    MW4 6855   4.448   3.239   3.049 -0.5149 -0.8199  0.1714
 1703SOL     OW 6856   0.006   3.516   3.158  0.6226  0.3783  0.1195
 1703SOL    HW2 6857  -0.057   3.568   3.107 -0.0327  0.9183  1.4631
 1703SOL    HW3 6858  -0.006   3.426   3.126  0.3577  0.7426 -0.8152
 1703SOL    MW4 6859  -0.004   3.511   3.147  0.5012  0.4976  0.1733
 1704SOL     OW 6860   0.241   3.650   3.064 -0.0161 -0.3588 -0.5986
 1704SOL    HW2 6861   0.213   3.742   3.060 -0.2227 -0.4655 -1.8168
 1704SOL    HW3 6862   0.166   3.604   3.101 -0.1961 -0.1380 -0.6805
 1704SOL    MW4 6863   0.227   3.656   3.068 -0.0671 -0.3438 -0.7701
 1705SOL     OW 6864   0.177   3.940   3.106 -0.1004  0.2819  0.2513
 1705SOL    HW2 6865   0.213   3.913   3.191 -0.5440 -0.2793  0.2689
 1705SOL    HW3 6866   0.252   3.976   3.058  0.1571  0.5805  0.8712
 1705SOL    MW4 6867   0.192   3.941   3.111 -0.1250  0.2472  0.3352
 1706SOL     OW 6868   4.426   4.018   2.982 -0.1027  0.3562 -0.1322
 1706SOL    HW2 6869   4.510   3.989   3.018 -0.8288 -0.7756  0.7094
 1706SOL    HW3 6870   4.445   4.040   2.891  1.2877  0.9947  0.2997
 1706SOL    MW4 6871   4.440   4.017   2.975 -0.0148  0.2913  0.0360
 1707SOL     OW 6872   4.450   4.278   3.123  0.4918  0.0624  0.2873
 1707SOL    HW2 6873   4.474   4.273   3.215 -0.1046  0.3342  0.4577
 1707SOL    HW3 6874   4.433   4.188   3.097  0.3970  0.0159  0.5129
 1707SOL    MW4 6875   4.451   4.266   3.132  0.4005  0.0920  0.3395
 1708SOL     OW 6876   0.186   4.383   3.013  0.2430 -0.5765 -0.2760
 1708SOL    HW2 6877   0.104   4.346   3.045  0.1853 -0.3537 -0.1700
 1708SOL    HW3 6878   0.194   4.468   3.056  0.6430 -0.6961 -0.1081
 1708SOL    MW4 6879   0.176   4.389   3.023  0.2882 -0.5627 -0.2398
 1709SOL     OW 6880   0.638   4.632   3.157  0.1147  0.8701  0.3611
 1709SOL    HW2 6881   0.652   4.543   3.126  2.9000  1.5430 -0.4635
 1709SOL    HW3 6882   0.582   4.672   3.091  0.7762  0.3976 -0.5040
 1709SOL    MW4 6883   0.633   4.626   3.144  0.5695  0.8969  0.1383
 1710SOL     OW 6884   0.465   0.113   2.990 -0.0059  0.4532 -0.2207
 1710SOL    HW2 6885   0.464   0.199   3.030  0.2585  0.3074  0.1068
 1710SOL    HW3 6886   0.384   0.072   3.019  0.3970  0.1829  0.5394
 1710SOL    MW4 6887   0.454   0.119   2.999  0.0822  0.3983 -0.0772
 1711SOL     OW 6888   0.452   0.359   3.143 -0.1680  0.2124  0.4177
 1711SOL    HW2 6889   0.464   0.372   3.237 -1.1521  0.7461  0.4793
 1711SOL    HW3 6890   0.513   0.421   3.103  1.6843 -1.4158  0.6906
 1711SOL    MW4 6891   0.461   0.369   3.150 -0.0534  0.0680  0.4621
 1712SOL     OW 6892   0.655   0.491   3.015 -0.3270  0.9895 -0.0363
 1712SOL    HW2 6893   0.723   0.440   3.059 -1.7164 -1.3410 -0.4663
 1712SOL    HW3 6894   0.667   0.580   3.047  0.6821 -0.0548  2.6329
 1712SOL    MW4 6895   0.665   0.496   3.025 -0.3773  0.5442  0.2592
 1713SOL     OW 6896   0.674   0.759   3.101  0.0200 -0.0163 -0.3887
 1713SOL    HW2 6897   0.681   0.770   3.196  1.0013  2.1807 -0.6867
 1713SOL    HW3 6898   0.599   0.813   3.075  0.4669  0.3112 -1.0142
 1713SOL    MW4 6899   0.665   0.767   3.110  0.2084  0.3168 -0.5107
 1714SOL     OW 6900   0.448   0.899   3.013  0.0760 -0.1766 -0.4438
 1714SOL    HW2 6901   0.376   0.850   3.053 -0.5159  1.9324  1.1450
 1714SOL    HW3 6902   0.436   0.885   2.919 -1.2916 -1.3805 -0.1140
 1714SOL    MW4 6903   0.437   0.891   3.006 -0.1825 -0.0571 -0.1905
 1715SOL     OW 6904   0.460   1.176   3.099 -0.3208  0.2624  0.0296
 1715SOL    HW2 6905   0.442   1.084   3.079  0.1650  0.4797 -1.4613
 1715SOL    HW3 6906   0.380   1.222   3.074 -0.1020  0.4007 -0.4205
 1715SOL    MW4 6907   0.447   1.170   3.093 -0.2278  0.3092 -0.2263
 1716SOL     OW 6908   0.723   1.258   3.005  0.4179  0.0472  0.0239
 1716SOL    HW2 6909   0.801   1.222   3.047  0.2810  0.1048  0.3315
 1716SOL    HW3 6910   0.651   1.203   3.036  0.2627  0.3365  0.1791
 1716SOL    MW4 6911   0.724   1.246   3.015  0.3794  0.0930  0.0849
 1717SOL     OW 6912   0.646   1.528   3.089 -0.1909  0.4403  0.1017
 1717SOL    HW2 6913   0.657   1.551   3.182  2.6284 -1.4561  0.2962
 1717SOL    HW3 6914   0.679   1.438   3.083 -2.4310 -0.2470 -2.3436
 1717SOL    MW4 6915   0.652   1.519   3.101 -0.1144  0.0993 -0.1957
 1718SOL     OW 6916   0.417   1.626   2.980  0.1067  0.3219 -0.0962
 1718SOL    HW2 6917   0.493   1.588   3.024  1.0204 -0.1114 -2.0062
 1718SOL    HW3 6918   0.341   1.593   3.029  1.1257  0.7494  1.8093
 1718SOL    MW4 6919   0.417   1.617   2.992  0.3617  0.3211 -0.0970
 1719SOL     OW 6920   0.405   1.911   3.076 -0.4187  0.0628  0.7169
 1719SOL    HW2 6921   0.412   1.823   3.040 -2.1872 -0.8415  2.4789
 1719SOL    HW3 6922   0.324   1.946   3.038  0.5153  1.1085 -0.3337
 1719SOL    MW4 6923   0.395   1.904   3.066 -0.5288  0.0815  0.8109
 1720SOL     OW 6924   0.628   2.059   3.014  0.3127  0.4485  0.1098
 1720SOL    HW2 6925   0.706   2.019   3.053  0.2451  0.9696  0.7856
 1720SOL    HW3 6926   0.555   2.010   3.052  0.2258  1.2575  1.0028
 1720SOL    MW4 6927   0.629   2.047   3.025  0.2923  0.6237  0.3169
 1721SOL     OW 6928   0.667   2.311   3.101  0.1964 -0.0165 -0.4177
 1721SOL    HW2 6929   0.662   2.303   3.196  0.4335  0.5647 -0.3572
 1721SOL    HW3 6930   0.633   2.228   3.068  1.1218 -0.6583  0.2014
 1721SOL    MW4 6931   0.662   2.299   3.109  0.3498 -0.0246 -0.3281
 1722SOL     OW 6932   0.441   2.464   3.007 -0.3994  0.6617  0.3831
 1722SOL    HW2 6933   0.523   2.422   3.035 -0.0058  1.8263  0.9872
 1722SOL    HW3 6934   0.448   2.469   2.912  0.1752  0.6381  0.4235
 1722SOL    MW4 6935   0.453   2.459   2.998 -0.2717  0.8121  0.4680
 1723SOL     OW 6936   0.442   2.707   3.138 -0.0731 -0.7844 -0.0265
 1723SOL    HW2 6937   0.524   2.739   3.100  0.4450 -0.9485  0.9323
 1723SOL    HW3 6938   0.438   2.616   3.111  0.7940 -1.1730  1.1361
 1723SOL    MW4 6939   0.453   2.700   3.129  0.1097 -0.8571  0.2532
 1724SOL     OW 6940   0.683   2.808   3.054 -0.0869  0.2293  0.3511
 1724SOL    HW2 6941   0.762   2.765   3.088 -0.2933  0.2803  0.9001
 1724SOL    HW3 6942   0.697   2.901   3.071 -0.5921  0.1672  1.1286
 1724SOL    MW4 6943   0.695   2.815   3.060 -0.1808  0.2277  0.5260
 1725SOL     OW 6944   0.705   3.071   3.138 -0.0745 -0.0538 -0.1568
 1725SOL    HW2 6945   0.687   3.080   3.232 -1.7925 -1.0777 -0.3516
 1725SOL    HW3 6946   0.625   3.100   3.096 -0.3563 -2.2038 -1.1907
 1725SOL    MW4 6947   0.692   3.076   3.145 -0.3383 -0.4723 -0.3190
 1726SOL     OW 6948   0.472   3.204   3.073 -0.5834 -0.2422  0.2255
 1726SOL    HW2 6949   0.466   3.299   3.079 -1.4675 -0.3674  1.7178
 1726SOL    HW3 6950   0.384   3.173   3.098 -0.2978 -1.4395 -0.2321
 1726SOL    MW4 6951   0.459   3.212   3.077 -0.6624 -0.4165  0.3619
 1727SOL     OW 6952   0.455   3.487   3.106  0.3325 -0.0783  0.1644
 1727SOL    HW2 6953   0.478   3.496   3.198 -1.1281 -0.7009  0.6087
 1727SOL    HW3 6954   0.378   3.542   3.095 -0.1548 -0.8742 -0.4203
 1727SOL    MW4 6955   0.448   3.495   3.117  0.0755 -0.2654  0.1457
 1728SOL     OW 6956   0.665   3.617   3.015  0.2245  0.0874  0.1469
 1728SOL    HW2 6957   0.730   3.557   3.052  0.2128  0.6615  1.1084
 1728SOL    HW3 6958   0.581   3.584   3.049  0.3503  1.5211  1.8782
 1728SOL    MW4 6959   0.662   3.605   3.024  0.2396  0.3524  0.5023
 1729SOL     OW 6960   0.642   3.875   3.102 -0.3023 -0.4209 -0.0594
 1729SOL    HW2 6961   0.659   3.880   3.196  1.8886 -0.1826 -0.4473
 1729SOL    HW3 6962   0.654   3.782   3.081  1.2913 -0.1333 -0.4656
 1729SOL    MW4 6963   0.646   3.863   3.112  0.1970 -0.3517 -0.1638
 1730SOL     OW 6964   0.422   4.018   3.013  0.3881 -0.4042  0.4253
 1730SOL    HW2 6965   0.493   3.959   3.039 -1.1596 -2.1443  0.8279
 1730SOL    HW3 6966   0.430   4.026   2.918  0.2106 -1.8042  0.2881
 1730SOL    MW4 6967   0.432   4.011   3.004  0.1605 -0.8183  0.4601
 1731SOL     OW 6968   0.431   4.260   3.146 -0.2409  0.0061 -0.2223
 1731SOL    HW2 6969   0.427   4.174   3.105  0.9199 -0.4615  0.6591
 1731SOL    HW3 6970   0.372   4.314   3.092 -0.9665 -1.3152 -0.7778
 1731SOL    MW4 6971   0.422   4.256   3.133 -0.1835 -0.2303 -0.1795
 1732SOL     OW 6972   0.689   4.378   3.083  0.0626  0.0704 -0.0176
 1732SOL    HW2 6973   0.617   4.319   3.107 -1.2466  1.6162 -0.0638
 1732SOL    HW3 6974   0.692   4.375   2.988  2.9766 -3.3707  0.0902
 1732SOL    MW4 6975   0.680   4.370   3.074  0.2743 -0.1798 -0.0093
 1733SOL     OW 6976   1.096   4.641   3.120  0.2952 -0.2870  0.5510
 1733SOL    HW2 6977   1.168   4.699   3.095  1.0453 -2.3575 -2.4333
 1733SOL    HW3 6978   1.017   4.690   3.100  0.8778  0.8841  1.0576
 1733SOL    MW4 6979   1.095   4.655   3.114  0.4710 -0.4057  0.2244
 1734SOL     OW 6980   0.867   0.093   3.020 -0.0299  0.3746  0.0141
 1734SOL    HW2 6981   0.859   0.185   3.046 -0.9295  0.0283  1.0111
 1734SOL    HW3 6982   0.790   0.051   3.057 -0.0461 -0.6405 -1.1179
 1734SOL    MW4 6983   0.856   0.100   3.028 -0.1507  0.1950 -0.0038
 1735SOL     OW 6984   0.873   0.353   3.110  0.3267 -0.4155 -0.0962
 1735SOL    HW2 6985   0.903   0.357   3.201 -1.4429  0.0009  0.4735
 1735SOL    HW3 6986   0.946   0.390   3.059  0.8798  0.3543  1.2421
 1735SOL    MW4 6987   0.887   0.358   3.115  0.1662 -0.2590  0.1557
 1736SOL     OW 6988   1.100   0.520   3.024 -0.1915  0.0892 -0.2572
 1736SOL    HW2 6989   1.167   0.460   3.058 -0.1846 -1.2561 -2.5267
 1736SOL    HW3 6990   1.121   0.529   2.931 -2.6489  0.3527 -0.8147
 1736SOL    MW4 6991   1.112   0.513   3.016 -0.5147 -0.0536 -0.6301
 1737SOL     OW 6992   1.127   0.802   3.430  0.1060  0.0493 -0.6485
 1737SOL    HW2 6993   1.218   0.825   3.446  0.7285 -0.3696 -3.3287
 1737SOL    HW3 6994   1.124   0.707   3.442  0.0544  0.0474 -0.6769
 1737SOL    MW4 6995   1.139   0.792   3.434  0.1813 -0.0062 -1.0059
 1738SOL     OW 6996   1.139   0.766   3.139  0.0255 -0.3491  0.2943
 1738SOL    HW2 6997   1.127   0.671   3.134  0.3089 -0.4255  1.0595
 1738SOL    HW3 6998   1.115   0.789   3.228  0.5663  0.2128  0.2979
 1738SOL    MW4 6999   1.134   0.756   3.150  0.1343 -0.2850  0.3955
 1739SOL     OW 7000   0.917   0.877   2.999  0.3060 -0.6364 -0.2632
 1739SOL    HW2 7001   0.993   0.822   3.015 -0.6627 -1.8897  0.0540
 1739SOL    HW3 7002   0.843   0.827   3.033 -0.6073  0.7754 -0.1336
 1739SOL    MW4 7003   0.917   0.863   3.006  0.0578 -0.6155 -0.2043
 1740SOL     OW 7004   1.174   1.287   2.968 -0.8401 -0.1379 -0.5465
 1740SOL    HW2 7005   1.113   1.225   3.008  1.2854 -2.4291 -0.7175
 1740SOL    HW3 7006   1.176   1.262   2.875 -0.9304  1.0300 -0.8689
 1740SOL    MW4 7007   1.166   1.275   2.961 -0.5716 -0.2862 -0.6118
 1741SOL     OW 7008   1.144   1.535   3.106 -0.5791 -0.0915 -0.1870
 1741SOL    HW2 7009   1.219   1.593   3.092 -0.1955 -0.0939  1.8183
 1741SOL    HW3 7010   1.165   1.457   3.055  0.9815 -0.2621  0.7024
 1741SOL    MW4 7011   1.157   1.533   3.097 -0.3227 -0.1143  0.1948
 1742SOL     OW 7012   0.904   1.662   3.019  0.0351  0.2073 -0.1402
 1742SOL    HW2 7013   0.976   1.609   3.053  1.1617  2.6450  1.4088
 1742SOL    HW3 7014   0.826   1.627   3.062  0.6037 -0.8812  0.0161
 1742SOL    MW4 7015   0.903   1.651   3.029  0.2587  0.3854  0.0849
 1743SOL     OW 7016   0.843   1.918   3.117 -0.5728 -0.1701 -1.0774
 1743SOL    HW2 7017   0.858   1.913   3.212  2.2037  0.8075 -1.4240
 1743SOL    HW3 7018   0.866   1.831   3.085 -2.0942 -0.6862 -0.7939
 1743SOL    MW4 7019   0.848   1.906   3.126 -0.4073 -0.1093 -1.0858
 1744SOL     OW 7020   1.103   2.048   3.077 -0.0206 -0.0822 -0.0979
 1744SOL    HW2 7021   1.024   2.005   3.110 -1.1595  1.5584 -0.5804
 1744SOL    HW3 7022   1.098   2.037   2.982  0.0667  0.4500 -0.1671
 1744SOL    MW4 7023   1.092   2.041   3.069 -0.1593  0.2046 -0.1709
 1745SOL     OW 7024   1.129   2.322   3.152 -0.1197  0.2854 -0.0556
 1745SOL    HW2 7025   1.052   2.351   3.104  0.0240  0.4548 -0.1859
 1745SOL    HW3 7026   1.140   2.230   3.128  0.0535  0.4157 -0.4829
 1745SOL    MW4 7027   1.120   2.314   3.143 -0.0778  0.3252 -0.1292
 1746SOL     OW 7028   0.886   2.436   3.024  0.1996 -0.0617  0.2588
 1746SOL    HW2 7029   0.815   2.385   3.063  1.5169 -0.9836  1.4825
 1746SOL    HW3 7030   0.878   2.420   2.930 -0.7832 -0.7055  0.4449
 1746SOL    MW4 7031   0.876   2.427   3.017  0.2437 -0.2682  0.4447
 1747SOL     OW 7032   0.940   2.665   3.155 -0.2503  0.9624  0.0417
 1747SOL    HW2 7033   0.919   2.643   3.246  2.3296  0.4014  0.5409
 1747SOL    HW3 7034   0.920   2.585   3.106  0.7750  0.4199  0.5094
 1747SOL    MW4 7035   0.934   2.651   3.161  0.2254  0.8171  0.1690
 1748SOL     OW 7036   1.163   2.802   3.037  0.4011  0.1484  0.3712
 1748SOL    HW2 7037   1.168   2.878   3.094  0.8376  0.3193  0.1060
 1748SOL    HW3 7038   1.084   2.756   3.065 -0.5450  1.3517 -0.2926
 1748SOL    MW4 7039   1.153   2.806   3.048  0.3339  0.3297  0.2489
 1749SOL     OW 7040   1.162   3.042   3.178 -0.0706 -0.7786  0.2673
 1749SOL    HW2 7041   1.209   3.125   3.171  0.0148 -0.7451  1.1070
 1749SOL    HW3 7042   1.071   3.064   3.156  0.2879 -0.8350 -1.3043
 1749SOL    MW4 7043   1.156   3.056   3.174 -0.0122 -0.7815  0.1707
 1750SOL     OW 7044   0.933   3.191   3.074  0.4996 -0.2856 -0.0089
 1750SOL    HW2 7045   0.854   3.141   3.094  0.8079 -1.5886 -1.9133
 1750SOL    HW3 7046   0.935   3.196   2.978  2.5063  0.0497  0.0262
 1750SOL    MW4 7047   0.923   3.185   3.064  0.8051 -0.4134 -0.2556
 1751SOL     OW 7048   0.869   3.477   3.118 -0.4166 -0.2252 -0.0281
 1751SOL    HW2 7049   0.930   3.505   3.049 -0.3878  1.0133  0.4946
 1751SOL    HW3 7050   0.873   3.381   3.116  2.4721 -0.1681  0.8076
 1751SOL    MW4 7051   0.878   3.468   3.108 -0.0317 -0.0544  0.1509
 1752SOL     OW 7052   1.130   3.631   3.016  0.4719  0.1666 -0.2428
 1752SOL    HW2 7053   1.212   3.591   3.046  2.6828  2.0975 -3.3323
 1752SOL    HW3 7054   1.129   3.717   3.058 -0.0357  0.1024 -0.1263
 1752SOL    MW4 7055   1.141   3.637   3.026  0.6967  0.4127 -0.6351
 1753SOL     OW 7056   1.149   3.902   3.104 -0.6155 -0.4014 -0.2554
 1753SOL    HW2 7057   1.156   3.894   3.199  0.2007 -0.4824 -0.3244
 1753SOL    HW3 7058   1.062   3.940   3.090  0.1653  1.7638  0.6450
 1753SOL    MW4 7059   1.138   3.906   3.115 -0.4047 -0.1261 -0.1459
 1754SOL     OW 7060   0.887   3.991   3.043  0.1579 -0.7337 -0.0394
 1754SOL    HW2 7061   0.806   3.945   3.067  0.3658 -1.4223 -0.6524
 1754SOL    HW3 7062   0.895   3.979   2.949  0.5922 -0.0330 -0.0963
 1754SOL    MW4 7063   0.877   3.983   3.034  0.2427 -0.7324 -0.1278
 1755SOL     OW 7064   0.939   4.255   3.113 -0.7551 -0.0516 -0.1496
 1755SOL    HW2 7065   0.917   4.167   3.082  0.2743  0.1036 -1.3698
 1755SOL    HW3 7066   0.858   4.304   3.106 -1.5607 -1.1313  1.3897
 1755SOL    MW4 7067   0.926   4.250   3.108 -0.7256 -0.1736 -0.1075
 1756SOL     OW 7068   1.160   4.382   3.011 -0.0534  0.0951  0.4763
 1756SOL    HW2 7069   1.089   4.324   3.038 -1.2692  0.9308 -0.8543
 1756SOL    HW3 7070   1.133   4.469   3.041 -0.4300  0.6936 -1.5257
 1756SOL    MW4 7071   1.147   4.386   3.019 -0.2635  0.2837  0.0367
 1757SOL     OW 7072   1.553   0.041   3.128 -0.0439  0.1255 -0.1504
 1757SOL    HW2 7073   1.555   0.036   3.224  1.1721  2.6072  0.0023
 1757SOL    HW3 7074   1.463   0.063   3.107  0.3570  2.7142  0.6639
 1757SOL    MW4 7075   1.541   0.043   3.138  0.1695  0.7945 -0.0229
 1758SOL     OW 7076   1.317   0.125   3.008 -0.5359 -0.4515 -0.2799
 1758SOL    HW2 7077   1.344   0.213   3.034 -2.0446 -0.1233  0.2874
 1758SOL    HW3 7078   1.317   0.126   2.913 -2.3566  0.7782 -0.2946
 1758SOL    MW4 7079   1.320   0.137   2.999 -0.9753 -0.2460 -0.2069
 1759SOL     OW 7080   1.364   0.414   3.108  0.6783 -0.4223  0.1241
 1759SOL    HW2 7081   1.356   0.415   3.204  2.8047 -0.4038  0.3099
 1759SOL    HW3 7082   1.442   0.466   3.090  0.8999 -1.3152 -1.5528
 1759SOL    MW4 7083   1.373   0.421   3.119  0.9881 -0.5376 -0.0727
 1760SOL     OW 7084   1.604   0.520   3.068  0.5673  0.2874  0.0811
 1760SOL    HW2 7085   1.613   0.615   3.080 -0.0734  0.2712  0.7345
 1760SOL    HW3 7086   1.604   0.507   2.973  0.5387  0.9507 -0.0081
 1760SOL    MW4 7087   1.606   0.531   3.057  0.4790  0.3728  0.1554
 1761SOL     OW 7088   1.619   0.778   3.133 -0.0781  0.1000  0.3383
 1761SOL    HW2 7089   1.606   0.763   3.226 -0.2932 -0.1553  0.2690
 1761SOL    HW3 7090   1.544   0.832   3.107  1.4123  2.4747  0.8706
 1761SOL    MW4 7091   1.607   0.783   3.142  0.0901  0.3796  0.3996
 1762SOL     OW 7092   1.365   0.894   3.046 -0.5276 -0.2809 -0.0382
 1762SOL    HW2 7093   1.354   0.985   3.075 -0.7842 -0.3429  0.0649
 1762SOL    HW3 7094   1.281   0.853   3.068 -0.8956 -0.2147 -1.3196
 1762SOL    MW4 7095   1.352   0.901   3.053 -0.6101 -0.2803 -0.1938
 1763SOL     OW 7096   1.363   1.150   3.126  0.2582  0.4689 -0.3607
 1763SOL    HW2 7097   1.308   1.209   3.074  0.5423 -0.6843 -1.9885
 1763SOL    HW3 7098   1.453   1.173   3.102  0.4366  0.7754  0.5684
 1763SOL    MW4 7099   1.367   1.161   3.116  0.3192  0.3572 -0.4530
 1764SOL     OW 7100   1.615   1.267   3.051 -0.6692  0.0532 -0.0236
 1764SOL    HW2 7101   1.684   1.246   3.113  0.4157  0.5397 -1.0508
 1764SOL    HW3 7102   1.590   1.357   3.071 -1.5400 -0.3589  0.8230
 1764SOL    MW4 7103   1.621   1.276   3.062 -0.6409  0.0631 -0.0474
 1765SOL     OW 7104   1.585   1.518   3.162  0.1564  0.6053 -0.1550
 1765SOL    HW2 7105   1.664   1.545   3.116  0.1480  0.6750 -0.1285
 1765SOL    HW3 7106   1.515   1.569   3.121  0.0837  0.3343 -0.3736
 1765SOL    MW4 7107   1.586   1.528   3.151  0.1459  0.5788 -0.1802
 1766SOL     OW 7108   1.388   1.680   3.059 -0.0149 -0.1402 -0.4961
 1766SOL    HW2 7109   1.375   1.765   3.101  1.4018 -0.6148  0.9201
 1766SOL    HW3 7110   1.361   1.694   2.968 -1.9169  1.2265  0.2395
 1766SOL    MW4 7111   1.382   1.693   3.053 -0.0789 -0.0224 -0.2122
 1767SOL     OW 7112   1.348   1.942   3.143 -0.3431  0.0439  0.6415
 1767SOL    HW2 7113   1.338   1.926   3.237 -1.6190 -1.6288  0.2447
 1767SOL    HW3 7114   1.263   1.977   3.115  0.1295  0.8255  0.1504
 1767SOL    MW4 7115   1.335   1.945   3.152 -0.4491 -0.0738  0.5243
 1768SOL     OW 7116   1.585   2.049   3.077 -0.6696  0.3864  0.1726
 1768SOL    HW2 7117   1.501   2.009   3.101 -0.3727  0.7908  1.9556
 1768SOL    HW3 7118   1.577   2.068   2.984 -2.2521 -0.3266  0.1490
 1768SOL    MW4 7119   1.573   2.046   3.068 -0.8390  0.3455  0.4048
 1769SOL     OW 7120   1.349   2.419   3.014 -0.4812 -0.2028  0.4953
 1769SOL    HW2 7121   1.280   2.388   3.073 -0.6795  1.6571  1.2727
 1769SOL    HW3 7122   1.431   2.389   3.055 -0.5644  1.9159  2.2598
 1769SOL    MW4 7123   1.351   2.411   3.027 -0.5183  0.3223  0.8307
 1770SOL     OW 7124   1.355   2.462   2.741  0.1212  0.6072 -0.2574
 1770SOL    HW2 7125   1.349   2.469   2.836 -0.3766 -0.9682 -0.1607
 1770SOL    HW3 7126   1.438   2.417   2.725 -0.4209 -0.2986 -0.5164
 1770SOL    MW4 7127   1.365   2.457   2.751 -0.0160  0.2799 -0.2792
 1771SOL     OW 7128   1.366   2.672   3.147  0.4212  0.2849  0.2666
 1771SOL    HW2 7129   1.380   2.587   3.106  2.2751  0.9345 -0.4899
 1771SOL    HW3 7130   1.285   2.705   3.108  0.5651 -0.4193 -0.6306
 1771SOL    MW4 7131   1.358   2.665   3.137  0.6846  0.2780  0.0486
 1772SOL     OW 7132   1.519   2.875   3.038  0.3115  0.3605  0.0841
 1772SOL    HW2 7133   1.607   2.840   3.053 -0.0574 -0.0494  1.3073
 1772SOL    HW3 7134   1.461   2.812   3.081 -0.4504  1.6775  0.9967
 1772SOL    MW4 7135   1.523   2.862   3.046  0.1622  0.4804  0.3660
 1773SOL     OW 7136   1.591   3.099   3.172  0.2731  0.4757  0.2429
 1773SOL    HW2 7137   1.574   3.100   3.266  2.2486 -1.0290  0.6394
 1773SOL    HW3 7138   1.561   3.013   3.143 -3.5598  2.1794 -1.1846
 1773SOL    MW4 7139   1.585   3.088   3.180  0.0280  0.5021  0.1068
 1774SOL     OW 7140   1.361   3.241   3.104 -0.0574 -1.1416 -0.2672
 1774SOL    HW2 7141   1.446   3.210   3.134  0.4556 -0.0117 -0.5406
 1774SOL    HW3 7142   1.365   3.237   3.009  0.5026  1.0057 -0.3569
 1774SOL    MW4 7143   1.373   3.236   3.096  0.0840 -0.7093 -0.3152
 1775SOL     OW 7144   1.374   3.504   3.136 -0.7305  0.3232  0.1003
 1775SOL    HW2 7145   1.454   3.532   3.090 -0.8286  1.5770  0.6794
 1775SOL    HW3 7146   1.361   3.414   3.107  1.0290  0.0198  0.1799
 1775SOL    MW4 7147   1.383   3.496   3.126 -0.5113  0.4487  0.1874
 1776SOL     OW 7148   1.599   3.649   3.007 -0.4822  0.1704  0.2689
 1776SOL    HW2 7149   1.602   3.643   2.911 -0.1827 -1.9475  0.3823
 1776SOL    HW3 7150   1.601   3.743   3.025 -1.1376  0.6189 -1.8161
 1776SOL    MW4 7151   1.600   3.660   2.996 -0.5292 -0.0501  0.0091
 1777SOL     OW 7152   1.601   3.920   3.100  0.2264  0.5622  0.0576
 1777SOL    HW2 7153   1.595   3.900   3.193  0.2944  2.5031  0.5143
 1777SOL    HW3 7154   1.680   3.975   3.093 -0.1678  0.9986 -1.0347
 1777SOL    MW4 7155   1.611   3.925   3.111  0.1833  0.8759 -0.0262
 1778SOL     OW 7156   1.376   4.030   2.999  0.0736  0.3560  0.0834
 1778SOL    HW2 7157   1.455   3.990   3.035 -0.4796  0.4938  1.5182
 1778SOL    HW3 7158   1.304   3.983   3.042 -0.6141  0.5513 -0.8391
 1778SOL    MW4 7159   1.377   4.018   3.010 -0.0902  0.4001  0.1507
 1779SOL     OW 7160   1.393   4.303   3.127  0.2069 -0.4765  0.4501
 1779SOL    HW2 7161   1.411   4.215   3.094  0.5892  0.3703 -1.6863
 1779SOL    HW3 7162   1.307   4.324   3.090  1.2428  1.0178 -1.1608
 1779SOL    MW4 7163   1.384   4.294   3.118  0.3940 -0.1678 -0.0441
 1780SOL     OW 7164   1.595   4.431   2.998 -0.3675 -0.4288  0.1672
 1780SOL    HW2 7165   1.525   4.390   3.048  0.3628 -0.5992  1.0724
 1780SOL    HW3 7166   1.598   4.521   3.030 -1.6459  0.2166 -1.4718
 1780SOL    MW4 7167   1.586   4.437   3.009 -0.4398 -0.3657  0.0706
 1781SOL     OW 7168   2.022   4.657   3.120  0.0629 -0.2573  0.0197
 1781SOL    HW2 7169   2.034   4.658   3.215  1.0103  0.9998 -0.1114
 1781SOL    HW3 7170   1.938   4.702   3.106  1.0117  1.5804  0.1188
 1781SOL    MW4 7171   2.012   4.663   3.130  0.3130  0.1510  0.0153
 1782SOL     OW 7172   1.800   0.161   3.072  0.2200  0.1046 -0.3630
 1782SOL    HW2 7173   1.708   0.144   3.093  0.5747 -1.3963  0.0888
 1782SOL    HW3 7174   1.803   0.165   2.977  0.1565 -2.9558 -0.5343
 1782SOL    MW4 7175   1.789   0.159   3.062  0.2584 -0.4972 -0.3262
 1783SOL     OW 7176   1.837   0.419   3.209  0.5100 -0.2686  0.0440
 1783SOL    HW2 7177   1.830   0.336   3.162  0.1845  0.4544 -1.2034
 1783SOL    HW3 7178   1.761   0.469   3.180  0.9239  0.6180  0.4809
 1783SOL    MW4 7179   1.826   0.414   3.199  0.5218 -0.0563 -0.0629
 1784SOL     OW 7180   2.065   0.793   3.131 -0.2532 -0.4537  0.2002
 1784SOL    HW2 7181   1.981   0.837   3.117 -0.6712 -1.4486 -0.5454
 1784SOL    HW3 7182   2.072   0.785   3.226 -1.4217 -1.1015  0.2502
 1784SOL    MW4 7183   2.055   0.798   3.141 -0.4623 -0.6704  0.1082
 1785SOL     OW 7184   2.053   0.537   3.066  0.3432 -0.3778  0.0878
 1785SOL    HW2 7185   2.061   0.626   3.099 -1.2314 -0.1003 -0.2421
 1785SOL    HW3 7186   1.988   0.496   3.122 -0.2161 -0.7949 -0.8566
 1785SOL    MW4 7187   2.046   0.543   3.078  0.0618 -0.3962 -0.0803
 1786SOL     OW 7188   1.849   0.922   3.087  0.6944 -0.3738 -0.0452
 1786SOL    HW2 7189   1.764   0.882   3.107  1.3668 -1.4824  0.5851
 1786SOL    HW3 7190   1.860   0.909   2.993 -0.1702  0.4577 -0.2849
 1786SOL    MW4 7191   1.839   0.915   3.078  0.6690 -0.4104  0.0062
 1787SOL     OW 7192   1.816   1.177   3.198  0.2145  0.1188  0.6124
 1787SOL    HW2 7193   1.833   1.172   3.292  0.2817 -0.5248  0.5653
 1787SOL    HW3 7194   1.806   1.086   3.171  0.9724  0.2640 -0.1512
 1787SOL    MW4 7195   1.817   1.164   3.207  0.3233  0.0532  0.5057
 1788SOL     OW 7196   2.039   1.271   3.062  0.0501 -0.3357 -0.4655
 1788SOL    HW2 7197   2.107   1.210   3.090 -1.1550 -0.9544  1.2065
 1788SOL    HW3 7198   1.961   1.243   3.109 -0.1470  3.5478  1.7212
 1788SOL    MW4 7199   2.038   1.259   3.072 -0.1349  0.0950  0.0439
 1789SOL     OW 7200   2.071   1.544   3.137  0.0765  0.0471  0.1430
 1789SOL    HW2 7201   2.079   1.546   3.233  0.3267  0.5373  0.1105
 1789SOL    HW3 7202   2.068   1.451   3.116 -0.2110 -0.0625  0.6506
 1789SOL    MW4 7203   2.072   1.532   3.147  0.0713  0.0973  0.2058
 1790SOL     OW 7204   1.808   1.606   3.011  0.0214 -0.2392  0.6432
 1790SOL    HW2 7205   1.782   1.693   3.039  0.3322  0.1947 -0.3882
 1790SOL    HW3 7206   1.889   1.588   3.059 -0.3033 -0.1590  1.2155
 1790SOL    MW4 7207   1.816   1.615   3.021  0.0197 -0.1714  0.5827
 1791SOL     OW 7208   1.791   1.846   3.100 -0.1685 -0.5720 -0.4973
 1791SOL    HW2 7209   1.859   1.913   3.090 -0.3196 -0.3998 -0.3727
 1791SOL    HW3 7210   1.709   1.895   3.097 -0.2606 -0.6801  0.2087
 1791SOL    MW4 7211   1.789   1.861   3.098 -0.2006 -0.5636 -0.3877
 1792SOL     OW 7212   2.010   2.049   3.070  0.2167 -0.1402 -0.0776
 1792SOL    HW2 7213   2.093   2.005   3.089  0.6259  1.1985  1.3913
 1792SOL    HW3 7214   2.028   2.142   3.087 -1.1412  0.3655 -1.3025
 1792SOL    MW4 7215   2.024   2.056   3.075  0.0913  0.1030 -0.0455
 1793SOL     OW 7216   2.040   2.317   3.130  0.5193  0.8271  0.6943
 1793SOL    HW2 7217   2.115   2.372   3.109  0.2382  1.0759  0.3410
 1793SOL    HW3 7218   1.964   2.371   3.108  0.2481 -0.2320 -0.9956
 1793SOL    MW4 7219   2.040   2.332   3.125  0.4466  0.7203  0.4249
 1794SOL     OW 7220   1.804   2.480   3.051  0.0537  0.0737 -0.1224
 1794SOL    HW2 7221   1.773   2.564   3.084 -1.1417 -0.2055 -0.5384
 1794SOL    HW3 7222   1.737   2.417   3.077  1.4994 -0.9717  1.2391
 1794SOL    MW4 7223   1.791   2.483   3.059  0.0868 -0.1013  0.0021
 1795SOL     OW 7224   1.755   2.742   3.167  0.2963 -0.3057 -0.1048
 1795SOL    HW2 7225   1.745   2.747   3.262  0.3147  0.3118 -0.1344
 1795SOL    HW3 7226   1.843   2.776   3.151  0.0350  0.2249 -0.4024
 1795SOL    MW4 7227   1.766   2.747   3.178  0.2643 -0.1543 -0.1478
 1796SOL     OW 7228   1.980   2.867   3.105 -0.1881 -0.0036 -0.1160
 1796SOL    HW2 7229   1.985   2.956   3.141  0.6467  0.2949 -0.9491
 1796SOL    HW3 7230   1.993   2.878   3.011 -0.3773 -0.9783 -0.2608
 1796SOL    MW4 7231   1.983   2.880   3.098 -0.1029 -0.0930 -0.2451
 1797SOL     OW 7232   2.022   3.138   3.183  0.4434 -0.0920 -0.0412
 1797SOL    HW2 7233   2.045   3.178   3.267  0.9680  0.0335 -0.2476
 1797SOL    HW3 7234   1.942   3.184   3.156  1.0763  0.8494 -0.3060
 1797SOL    MW4 7235   2.014   3.150   3.191  0.5963  0.0486 -0.1032
 1798SOL     OW 7236   1.794   3.257   3.084 -0.3756  0.0314  0.0232
 1798SOL    HW2 7237   1.724   3.193   3.096 -1.5981  1.3514  0.0387
 1798SOL    HW3 7238   1.817   3.250   2.991 -0.2669 -0.6671  0.0997
 1798SOL    MW4 7239   1.788   3.248   3.073 -0.5225  0.1135  0.0353
 1799SOL     OW 7240   1.837   3.528   3.196  0.2069 -0.1382  0.3552
 1799SOL    HW2 7241   1.842   3.442   3.154  1.4199  0.0502  0.0871
 1799SOL    HW3 7242   1.748   3.557   3.180 -0.9675 -2.3544  2.5001
 1799SOL    MW4 7243   1.826   3.521   3.188  0.2121 -0.4055  0.6030
 1800SOL     OW 7244   2.048   3.655   3.072  0.2894  0.1485  0.0672
 1800SOL    HW2 7245   2.053   3.745   3.102  1.1108  0.4450 -0.9694
 1800SOL    HW3 7246   1.970   3.620   3.117  0.5950  1.0341  1.3195
 1800SOL    MW4 7247   2.038   3.662   3.082  0.4380  0.3045  0.0958
 1801SOL     OW 7248   2.044   3.918   3.156 -0.1551 -0.2335 -0.0323
 1801SOL    HW2 7249   2.050   3.913   3.251  0.5390  0.2030 -0.0467
 1801SOL    HW3 7250   1.982   3.989   3.138 -0.5660 -0.5602  0.0951
 1801SOL    MW4 7251   2.037   3.927   3.166 -0.1175 -0.2191 -0.0176
 1802SOL     OW 7252   1.817   4.089   3.066  0.1601  0.0193  0.2086
 1802SOL    HW2 7253   1.840   4.180   3.083  0.9445 -0.0469 -0.4687
 1802SOL    HW3 7254   1.803   4.085   2.972  1.6422 -0.8811  0.0103
 1802SOL    MW4 7255   1.818   4.100   3.056  0.4591 -0.1078  0.0935
 1803SOL     OW 7256   1.832   4.346   3.154  0.2764 -0.3887 -0.1428
 1803SOL    HW2 7257   1.900   4.373   3.092  0.4870  0.9665  0.6650
 1803SOL    HW3 7258   1.750   4.358   3.106  0.5143 -0.5525 -0.5941
 1803SOL    MW4 7259   1.830   4.351   3.139  0.3355 -0.2317 -0.0956
 1804SOL     OW 7260   2.046   4.420   2.995 -0.1923 -0.2533 -0.1743
 1804SOL    HW2 7261   2.054   4.507   3.032  0.1454 -0.6612  0.7237
 1804SOL    HW3 7262   2.036   4.435   2.901 -1.6402  0.8144  0.1334
 1804SOL    MW4 7263   2.046   4.433   2.988 -0.3388 -0.1664 -0.0150
 1805SOL     OW 7264   2.493   0.042   3.139  0.0450  0.1931 -0.0114
 1805SOL    HW2 7265   2.490  -0.052   3.156  0.0927 -0.4475 -3.2654
 1805SOL    HW3 7266   2.415   0.059   3.085  0.0247  2.0277  0.5778
 1805SOL    MW4 7267   2.482   0.032   3.134  0.0486  0.3506 -0.3629
 1806SOL     OW 7268   2.252   0.122   2.989  0.2263 -0.1391  0.6426
 1806SOL    HW2 7269   2.249   0.210   3.026 -0.0368 -0.8443  2.3891
 1806SOL    HW3 7270   2.180   0.076   3.032 -0.1638 -0.9750 -0.8774
 1806SOL    MW4 7271   2.242   0.127   3.000  0.1400 -0.3424  0.6723
 1807SOL     OW 7272   2.257   0.360   3.137  0.0096 -0.1106  0.2779
 1807SOL    HW2 7273   2.272   0.373   3.230  1.0355  1.2413 -0.0487
 1807SOL    HW3 7274   2.187   0.422   3.115  0.2791  0.1031  0.0109
 1807SOL    MW4 7275   2.250   0.370   3.146  0.1805  0.0959  0.1996
 1808SOL     OW 7276   2.508   0.512   3.059  0.4589 -0.3417  0.0599
 1808SOL    HW2 7277   2.426   0.467   3.080 -0.6687  1.6367  0.0155
 1808SOL    HW3 7278   2.517   0.502   2.964 -0.0508 -0.0548 -0.0210
 1808SOL    MW4 7279   2.498   0.504   3.049  0.2427 -0.0428  0.0434
 1809SOL     OW 7280   2.490   0.770   3.154 -0.2206  0.1309  0.2042
 1809SOL    HW2 7281   2.561   0.826   3.122  0.4804 -1.1299 -0.4906
 1809SOL    HW3 7282   2.513   0.682   3.123 -1.4913 -0.4846  0.9659
 1809SOL    MW4 7283   2.503   0.766   3.146 -0.2956 -0.1168  0.2127
 1810SOL     OW 7284   2.298   0.904   3.029  0.3397  0.6018 -0.3030
 1810SOL    HW2 7285   2.373   0.865   3.075 -0.3921  1.6631  1.8107
 1810SOL    HW3 7286   2.223   0.853   3.059 -0.1350  1.2658 -0.3753
 1810SOL    MW4 7287   2.298   0.892   3.039  0.1807  0.8295 -0.0339
 1811SOL     OW 7288   2.264   1.138   3.188  0.0347 -0.3184  0.1807
 1811SOL    HW2 7289   2.269   1.133   3.284  0.6402 -0.6102  0.1322
 1811SOL    HW3 7290   2.273   1.047   3.159  0.9689 -0.1078 -0.2074
 1811SOL    MW4 7291   2.266   1.125   3.197  0.2377 -0.3291  0.1233
 1812SOL     OW 7292   2.471   1.305   3.101 -0.4584  0.2701  0.1531
 1812SOL    HW2 7293   2.399   1.247   3.124 -1.2240  1.2073  0.1439
 1812SOL    HW3 7294   2.473   1.303   3.005 -1.5195  1.4804  0.0867
 1812SOL    MW4 7295   2.462   1.297   3.091 -0.6993  0.5534  0.1435
 1813SOL     OW 7296   2.451   1.567   3.211 -0.2538  0.6792 -0.0943
 1813SOL    HW2 7297   2.393   1.609   3.148  0.4266  0.2630 -0.9996
 1813SOL    HW3 7298   2.459   1.476   3.180  2.2644  1.1625 -0.9627
 1813SOL    MW4 7299   2.444   1.560   3.199  0.1681  0.6880 -0.3283
 1814SOL     OW 7300   2.286   1.697   3.033 -0.1994 -0.7470 -0.3353
 1814SOL    HW2 7301   2.202   1.665   3.064 -0.6315  0.5105 -0.1904
 1814SOL    HW3 7302   2.279   1.695   2.938  0.1720 -2.0841 -0.3517
 1814SOL    MW4 7303   2.274   1.692   3.025 -0.2074 -0.7575 -0.3183
 1815SOL     OW 7304   2.285   1.986   3.116 -0.0648  0.2044 -0.3814
 1815SOL    HW2 7305   2.364   2.025   3.077  0.1758 -0.5945 -0.7046
 1815SOL    HW3 7306   2.283   1.897   3.081 -0.4668 -0.1615  0.5630
 1815SOL    MW4 7307   2.296   1.979   3.106 -0.0861  0.0507 -0.2995
 1816SOL     OW 7308   2.545   2.098   3.067 -0.1014 -0.4811  0.0980
 1816SOL    HW2 7309   2.614   2.034   3.084  0.0709 -0.0933  0.8593
 1816SOL    HW3 7310   2.538   2.102   2.972  0.7766 -0.6840  0.0306
 1816SOL    MW4 7311   2.553   2.090   3.057  0.0372 -0.4568  0.1895
 1817SOL     OW 7312   2.487   2.347   3.194  0.5959  0.0241  0.5541
 1817SOL    HW2 7313   2.472   2.341   3.288  1.0879  0.2516  0.6501
 1817SOL    HW3 7314   2.503   2.257   3.166  0.0594 -0.0887  0.6232
 1817SOL    MW4 7315   2.487   2.334   3.202  0.5901  0.0393  0.5760
 1818SOL     OW 7316   2.258   2.465   3.081 -0.1635  0.6526  0.0664
 1818SOL    HW2 7317   2.236   2.555   3.106  0.1294  0.7645 -0.0736
 1818SOL    HW3 7318   2.342   2.449   3.123 -0.5096  0.2258  0.6016
 1818SOL    MW4 7319   2.266   2.475   3.090 -0.1705  0.6111  0.1185
 1819SOL     OW 7320   2.195   2.715   3.207 -0.3052 -0.0608  0.2972
 1819SOL    HW2 7321   2.272   2.753   3.166 -1.0554 -0.5503 -1.5842
 1819SOL    HW3 7322   2.125   2.777   3.188 -0.2985  0.6552  2.4549
 1819SOL    MW4 7323   2.196   2.728   3.199 -0.4032 -0.0310  0.3335
 1820SOL     OW 7324   2.411   2.810   3.087  0.2251 -0.6109  0.1763
 1820SOL    HW2 7325   2.430   2.899   3.116  0.7442 -0.5798 -0.2552
 1820SOL    HW3 7326   2.414   2.814   2.991 -1.0334 -0.8157  0.1102
 1820SOL    MW4 7327   2.414   2.822   3.078  0.1273 -0.6337  0.1106
 1821SOL     OW 7328   2.460   3.083   3.141 -0.1804 -0.0041  0.0407
 1821SOL    HW2 7329   2.535   3.141   3.124  0.4744 -1.1533 -1.1176
 1821SOL    HW3 7330   2.387   3.123   3.094 -0.1926  0.8913  0.8121
 1821SOL    MW4 7331   2.461   3.096   3.132 -0.0956 -0.0377 -0.0103
 1822SOL     OW 7332   2.227   3.189   3.015  0.1753  0.1090 -0.4806
 1822SOL    HW2 7333   2.241   3.279   3.045 -2.0667  0.5047 -0.5698
 1822SOL    HW3 7334   2.142   3.164   3.051 -0.0174 -1.3855 -1.8843
 1822SOL    MW4 7335   2.218   3.197   3.024 -0.1462 -0.0360 -0.6773
 1823SOL     OW 7336   2.243   3.465   3.131 -0.5407 -0.3848  0.0697
 1823SOL    HW2 7337   2.333   3.498   3.126 -1.3368  1.9365  0.4043
 1823SOL    HW3 7338   2.190   3.534   3.093 -2.2634 -1.4748  0.4204
 1823SOL    MW4 7339   2.248   3.478   3.125 -0.8733 -0.2224  0.1600
 1824SOL     OW 7340   2.516   3.578   3.084 -0.4077 -0.4024  0.1992
 1824SOL    HW2 7341   2.605   3.554   3.111  0.3049  0.5547 -1.1943
 1824SOL    HW3 7342   2.506   3.669   3.114 -1.2843 -0.8241  1.2070
 1824SOL    MW4 7343   2.527   3.587   3.091 -0.4294 -0.3316  0.1483
 1825SOL     OW 7344   2.472   3.870   3.133  0.1808  0.5377 -0.0165
 1825SOL    HW2 7345   2.495   3.886   3.225 -1.1299  2.8468 -0.0326
 1825SOL    HW3 7346   2.545   3.907   3.084  0.2419  0.5592  0.0889
 1825SOL    MW4 7347   2.485   3.877   3.139  0.0160  0.8452 -0.0048
 1826SOL     OW 7348   2.249   4.011   3.010 -0.3907 -0.3642 -0.2390
 1826SOL    HW2 7349   2.325   3.969   3.050 -0.9565 -0.0395  1.2047
 1826SOL    HW3 7350   2.175   3.981   3.062 -1.1210  0.2325 -0.9222
 1826SOL    MW4 7351   2.250   4.002   3.022 -0.5617 -0.2427 -0.1388
 1827SOL     OW 7352   2.210   4.259   3.140  0.4830 -0.3573  0.0449
 1827SOL    HW2 7353   2.234   4.186   3.083  0.6111 -0.7407  0.5871
 1827SOL    HW3 7354   2.155   4.315   3.086  0.8345 -0.5763 -0.5446
 1827SOL    MW4 7355   2.206   4.257   3.125  0.5465 -0.4368  0.0386
 1828SOL     OW 7356   2.474   4.425   3.054  0.0431  0.2021  0.0169
 1828SOL    HW2 7357   2.399   4.375   3.086  0.7503 -1.1684 -0.4338
 1828SOL    HW3 7358   2.456   4.441   2.962  0.5301 -0.5639 -0.2154
 1828SOL    MW4 7359   2.462   4.421   3.046  0.2007 -0.0801 -0.0734
 1829SOL     OW 7360   2.934   0.041   3.137 -0.2233  0.2712  0.2228
 1829SOL    HW2 7361   3.022   0.063   3.107  0.0160 -0.5423  0.3238
 1829SOL    HW3 7362   2.921  -0.049   3.109 -0.8727  0.2580  0.5585
 1829SOL    MW4 7363   2.944   0.032   3.129 -0.2773  0.1621  0.2804
 1830SOL     OW 7364   2.716   0.118   2.982 -0.1766 -0.0991  0.3262
 1830SOL    HW2 7365   2.805   0.098   3.011 -0.0693  1.3820  1.0730
 1830SOL    HW3 7366   2.660   0.088   3.053 -0.2634 -0.8242 -0.0450
 1830SOL    MW4 7367   2.721   0.111   2.995 -0.1740  0.0007  0.3757
 1831SOL     OW 7368   2.735   0.375   3.113  0.2109 -0.2788  0.4041
 1831SOL    HW2 7369   2.729   0.298   3.056 -0.0998 -0.5487  0.7907
 1831SOL    HW3 7370   2.648   0.416   3.107  0.3190 -0.0629  0.3376
 1831SOL    MW4 7371   2.723   0.370   3.105  0.1843 -0.2859  0.4463
 1832SOL     OW 7372   2.934   0.528   3.040  0.0817 -0.3080 -0.4779
 1832SOL    HW2 7373   2.862   0.481   3.082  0.2443 -0.2672 -0.1526
 1832SOL    HW3 7374   2.922   0.512   2.947  1.0678 -2.3105 -0.2845
 1832SOL    MW4 7375   2.923   0.520   3.033  0.2329 -0.5669 -0.4094
 1833SOL     OW 7376   2.926   0.779   3.148 -0.3232 -0.2498 -0.0367
 1833SOL    HW2 7377   2.943   0.776   3.242  0.1624 -1.0670 -0.1396
 1833SOL    HW3 7378   2.946   0.690   3.118 -0.3294  0.0482 -0.9315
 1833SOL    MW4 7379   2.931   0.767   3.156 -0.2599 -0.3183 -0.1683
 1834SOL     OW 7380   2.700   0.922   3.058 -0.6083  0.1737  0.3118
 1834SOL    HW2 7381   2.713   1.008   3.098  0.4519  0.1246  0.0673
 1834SOL    HW3 7382   2.781   0.874   3.075 -1.6297 -1.1916  1.4614
 1834SOL    MW4 7383   2.712   0.927   3.066 -0.6037 -0.0129  0.4315
 1835SOL     OW 7384   2.696   1.169   3.181 -0.2640  0.5958  0.0348
 1835SOL    HW2 7385   2.773   1.223   3.164  0.9362 -0.2999  2.4395
 1835SOL    HW3 7386   2.623   1.220   3.145  1.2349  2.2238 -0.7968
 1835SOL    MW4 7387   2.697   1.183   3.174  0.0923  0.6925  0.2425
 1836SOL     OW 7388   2.940   1.262   3.111 -0.1858  0.0892  0.3787
 1836SOL    HW2 7389   3.022   1.224   3.140  0.1646 -0.1271 -0.8429
 1836SOL    HW3 7390   2.942   1.353   3.142 -0.0118 -0.2442  1.3482
 1836SOL    MW4 7391   2.951   1.269   3.119 -0.1168  0.0166  0.3455
 1837SOL     OW 7392   2.930   1.520   3.182 -0.3889  0.0677  0.2473
 1837SOL    HW2 7393   2.931   1.562   3.268 -0.7351  0.3618  0.1102
 1837SOL    HW3 7394   2.984   1.577   3.127  0.4533 -0.5239  0.4545
 1837SOL    MW4 7395   2.937   1.533   3.186 -0.3235  0.0285  0.2565
 1838SOL     OW 7396   2.705   1.648   3.082  0.1412  0.4050  0.5825
 1838SOL    HW2 7397   2.774   1.586   3.104 -0.2244 -0.2167  0.0220
 1838SOL    HW3 7398   2.625   1.609   3.119 -0.0550  0.6712  0.4434
 1838SOL    MW4 7399   2.703   1.635   3.090  0.0672  0.3580  0.4900
 1839SOL     OW 7400   2.715   1.913   3.165 -0.2912  0.5608  0.0300
 1839SOL    HW2 7401   2.798   1.951   3.137 -0.8770  1.1092 -1.0010
 1839SOL    HW3 7402   2.719   1.822   3.136  0.1365  0.4617  0.3960
 1839SOL    MW4 7403   2.726   1.906   3.157 -0.3121  0.6201 -0.0577
 1840SOL     OW 7404   2.925   2.066   3.021  0.1685 -0.1127  0.2988
 1840SOL    HW2 7405   2.907   2.156   3.047 -0.4509 -0.3736  0.8044
 1840SOL    HW3 7406   2.908   2.064   2.927  0.0611  0.2694  0.3113
 1840SOL    MW4 7407   2.920   2.078   3.012  0.0730 -0.0968  0.3672
 1841SOL     OW 7408   2.898   2.326   3.141  0.2333 -0.0628  0.3175
 1841SOL    HW2 7409   2.962   2.390   3.109 -0.0076  0.3295  0.6290
 1841SOL    HW3 7410   2.815   2.354   3.103 -0.0998  0.5431  1.4785
 1841SOL    MW4 7411   2.896   2.338   3.131  0.1576  0.0691  0.5116
 1842SOL     OW 7412   2.678   2.461   3.042 -0.1612 -0.3544  0.1841
 1842SOL    HW2 7413   2.693   2.548   3.080  0.5257 -0.7112  0.7544
 1842SOL    HW3 7414   2.614   2.420   3.100 -0.4598 -0.2357 -0.0655
 1842SOL    MW4 7415   2.672   2.467   3.055 -0.1099 -0.3855  0.2265
 1843SOL     OW 7416   2.690   2.735   3.162 -0.1451 -0.2581 -0.4071
 1843SOL    HW2 7417   2.701   2.744   3.257 -0.2293 -3.2882 -0.0704
 1843SOL    HW3 7418   2.601   2.767   3.146 -0.0467  0.4999  0.4797
 1843SOL    MW4 7419   2.679   2.741   3.173 -0.1431 -0.5579 -0.2458
 1844SOL     OW 7420   2.918   2.886   3.063  0.3755 -1.1204 -0.1274
 1844SOL    HW2 7421   3.000   2.855   3.101  0.6026  0.3180  0.5697
 1844SOL    HW3 7422   2.850   2.830   3.102  0.8113 -0.9579  0.8573
 1844SOL    MW4 7423   2.920   2.875   3.073  0.4628 -0.9093  0.0944
 1845SOL     OW 7424   2.908   3.136   3.153 -0.3838  0.3726 -0.0720
 1845SOL    HW2 7425   2.822   3.155   3.117  1.0119  1.7754 -2.8193
 1845SOL    HW3 7426   2.926   3.046   3.127 -1.1811 -0.0915  0.9259
 1845SOL    MW4 7427   2.899   3.127   3.145 -0.3047  0.4964 -0.3030
 1846SOL     OW 7428   2.680   3.276   3.063  0.1905  0.0702 -0.8261
 1846SOL    HW2 7429   2.727   3.351   3.099  0.1866  0.4439 -1.5805
 1846SOL    HW3 7430   2.695   3.282   2.968  2.2465 -2.2460 -0.7134
 1846SOL    MW4 7431   2.688   3.287   3.055  0.4613 -0.1862 -0.9108
 1847SOL     OW 7432   2.779   3.494   3.216 -0.0497 -0.2263  0.0580
 1847SOL    HW2 7433   2.747   3.541   3.293 -1.2542 -0.1817 -0.4587
 1847SOL    HW3 7434   2.835   3.558   3.171 -2.7760  1.2481 -1.3769
 1847SOL    MW4 7435   2.782   3.509   3.220 -0.5682 -0.0257 -0.1996
 1848SOL     OW 7436   2.944   3.670   3.086 -0.0008  0.3579 -0.3785
 1848SOL    HW2 7437   3.034   3.645   3.108 -0.3744 -0.4775  0.2392
 1848SOL    HW3 7438   2.934   3.757   3.124 -0.2649 -0.5936  1.8131
 1848SOL    MW4 7439   2.955   3.678   3.094 -0.0849  0.1221 -0.0079
 1849SOL     OW 7440   2.930   3.953   3.140  0.6842  0.0577  0.4687
 1849SOL    HW2 7441   2.914   3.947   3.234 -0.8821  0.8555  0.2741
 1849SOL    HW3 7442   2.843   3.968   3.102  1.2781 -0.4322 -1.1217
 1849SOL    MW4 7443   2.916   3.954   3.147  0.5558  0.0987  0.2332
 1850SOL     OW 7444   2.677   4.028   3.023 -0.2850 -1.0361  0.0105
 1850SOL    HW2 7445   2.671   4.122   3.044 -1.8841 -0.8861 -1.0440
 1850SOL    HW3 7446   2.680   4.026   2.927  1.0797 -2.0169  0.0552
 1850SOL    MW4 7447   2.677   4.040   3.013 -0.3159 -1.1458 -0.1228
 1851SOL     OW 7448   2.701   4.289   3.099 -0.5775  0.4356 -0.2345
 1851SOL    HW2 7449   2.694   4.265   3.191 -2.1835  0.1292 -0.4267
 1851SOL    HW3 7450   2.619   4.333   3.079 -0.5817 -0.2283 -1.7344
 1851SOL    MW4 7451   2.690   4.292   3.109 -0.7899  0.3076 -0.4578
 1852SOL     OW 7452   2.911   4.440   3.042  0.1175  0.0809  0.2489
 1852SOL    HW2 7453   2.990   4.387   3.056  0.0654  0.2415  1.1602
 1852SOL    HW3 7454   2.839   4.383   3.069 -0.1821 -0.4900 -1.6749
 1852SOL    MW4 7455   2.912   4.425   3.047  0.0713  0.0262  0.1156
 1853SOL     OW 7456   3.382   0.013   3.131  0.1752  0.2056 -0.4636
 1853SOL    HW2 7457   3.461   0.055   3.097 -0.5855  0.3099 -2.1587
 1853SOL    HW3 7458   3.390  -0.079   3.104  0.5673 -0.1743  0.9237
 1853SOL    MW4 7459   3.394   0.006   3.123  0.1266  0.1693 -0.5043
 1854SOL     OW 7460   3.166   0.135   3.022  0.2023 -0.2120  0.0767
 1854SOL    HW2 7461   3.163   0.225   3.056 -0.4405 -0.1847 -0.0481
 1854SOL    HW3 7462   3.246   0.098   3.060 -0.2233 -0.0079  1.2054
 1854SOL    MW4 7463   3.176   0.142   3.032  0.0613 -0.1815  0.2089
 1855SOL     OW 7464   3.170   0.400   3.130 -0.3525  0.0216  0.1483
 1855SOL    HW2 7465   3.246   0.443   3.092  0.8479 -0.7203  1.6465
 1855SOL    HW3 7466   3.094   0.444   3.091  0.8438  2.3149  0.3736
 1855SOL    MW4 7467   3.170   0.412   3.120 -0.0362  0.2263  0.3757
 1856SOL     OW 7468   3.417   0.529   3.055 -0.3239  0.4563 -0.2138
 1856SOL    HW2 7469   3.491   0.478   3.086 -0.5543  0.0682 -0.2943
 1856SOL    HW3 7470   3.425   0.528   2.960 -0.6594  0.0621 -0.2415
 1856SOL    MW4 7471   3.428   0.522   3.047 -0.3984  0.3531 -0.2284
 1857SOL     OW 7472   3.377   0.762   3.168 -0.1163 -0.0054 -0.4506
 1857SOL    HW2 7473   3.385   0.756   3.263 -1.8099  0.3582 -0.2712
 1857SOL    HW3 7474   3.399   0.674   3.137 -0.3225 -0.3448  0.3440
 1857SOL    MW4 7475   3.381   0.750   3.176 -0.3669 -0.0022 -0.3223
 1858SOL     OW 7476   3.160   0.894   3.071  0.7040  0.1820 -0.0532
 1858SOL    HW2 7477   3.223   0.838   3.117  0.7592  0.8690  0.7082
 1858SOL    HW3 7478   3.075   0.851   3.084  1.0878 -1.1432 -1.6963
 1858SOL    MW4 7479   3.157   0.881   3.079  0.7622  0.0979 -0.1695
 1859SOL     OW 7480   3.197   1.149   3.201 -0.3129 -0.0186  0.2039
 1859SOL    HW2 7481   3.243   1.210   3.142  1.3903  0.3900  1.8945
 1859SOL    HW3 7482   3.193   1.067   3.152  0.9442  0.3570 -0.5743
 1859SOL    MW4 7483   3.203   1.147   3.187  0.0777  0.0849  0.3242
 1860SOL     OW 7484   3.328   1.326   3.036  0.3280  0.0106  0.6975
 1860SOL    HW2 7485   3.409   1.276   3.051  0.9525  0.0372 -2.3197
 1860SOL    HW3 7486   3.341   1.408   3.083  3.0075  0.9062 -1.4875
 1860SOL    MW4 7487   3.340   1.330   3.044  0.7641  0.1322  0.0112
 1861SOL     OW 7488   3.321   1.602   3.183 -0.1358 -0.8807  0.1587
 1861SOL    HW2 7489   3.336   1.584   3.276  1.3532  0.8798  0.2759
 1861SOL    HW3 7490   3.404   1.635   3.151 -1.2935  0.7044 -1.2614
 1861SOL    MW4 7491   3.334   1.604   3.191 -0.0920 -0.4392 -0.0134
 1862SOL     OW 7492   3.109   1.707   3.035 -0.2963  0.1403  0.1453
 1862SOL    HW2 7493   3.178   1.662   3.082 -0.6226  0.0475  0.5397
 1862SOL    HW3 7494   3.135   1.702   2.943 -0.1167 -0.4812  0.2307
 1862SOL    MW4 7495   3.121   1.700   3.029 -0.3154  0.0461  0.2086
 1863SOL     OW 7496   3.157   1.970   3.150 -0.5406 -0.1639 -0.3415
 1863SOL    HW2 7497   3.145   1.879   3.123  1.1675  0.0394 -1.8772
 1863SOL    HW3 7498   3.082   2.017   3.111 -1.7411 -0.9783  0.9423
 1863SOL    MW4 7499   3.145   1.965   3.141 -0.4737 -0.2445 -0.3746
 1864SOL     OW 7500   3.380   2.087   3.056  0.3172 -0.1068 -0.1362
 1864SOL    HW2 7501   3.450   2.036   3.097 -0.1474  0.2785  1.1744
 1864SOL    HW3 7502   3.299   2.052   3.094 -0.1704 -0.2428 -1.2931
 1864SOL    MW4 7503   3.378   2.076   3.067  0.1915 -0.0739 -0.1156
 1865SOL     OW 7504   3.309   2.359   3.142  0.2226  0.3442 -0.2542
 1865SOL    HW2 7505   3.328   2.342   3.234  2.6353  1.3510 -0.5248
 1865SOL    HW3 7506   3.316   2.273   3.100  1.4118  0.2359  0.1387
 1865SOL    MW4 7507   3.313   2.345   3.149  0.6979  0.4628 -0.2382
 1866SOL     OW 7508   3.084   2.516   3.069 -0.4054 -0.0441 -0.2954
 1866SOL    HW2 7509   3.163   2.466   3.089  0.0057  1.6554  2.5949
 1866SOL    HW3 7510   3.074   2.508   2.974  3.2579 -0.3098 -0.7315
 1866SOL    MW4 7511   3.093   2.509   3.059  0.1323  0.1447  0.0284
 1867SOL     OW 7512   3.142   2.770   3.182 -0.4945 -0.3718  0.4653
 1867SOL    HW2 7513   3.138   2.776   3.278 -1.9268  0.0632  0.3843
 1867SOL    HW3 7514   3.114   2.680   3.163 -2.0405  0.1280  0.3541
 1867SOL    MW4 7515   3.138   2.759   3.192 -0.8874 -0.2484  0.4399
 1868SOL     OW 7516   3.409   2.846   3.074 -0.5922 -0.0386 -0.1371
 1868SOL    HW2 7517   3.409   2.939   3.097  2.5133  0.2732 -1.1665
 1868SOL    HW3 7518   3.320   2.816   3.095 -1.6962  3.1750  0.0414
 1868SOL    MW4 7519   3.397   2.855   3.080 -0.3283  0.4268 -0.2494
 1869SOL     OW 7520   3.351   3.120   3.154  0.3892  0.3043  0.5973
 1869SOL    HW2 7521   3.342   3.103   3.248 -0.8384  0.1540  0.4621
 1869SOL    HW3 7522   3.277   3.177   3.133  1.1581  1.0621 -0.1092
 1869SOL    MW4 7523   3.340   3.126   3.164  0.3283  0.3843  0.4864
 1870SOL     OW 7524   3.134   3.280   3.078 -0.1740  0.7464 -0.1408
 1870SOL    HW2 7525   3.056   3.238   3.114  0.1870  1.3019  1.3421
 1870SOL    HW3 7526   3.132   3.260   2.985 -2.4320  1.2980 -0.2359
 1870SOL    MW4 7527   3.124   3.272   3.070 -0.4241  0.8922  0.0424
 1871SOL     OW 7528   3.166   3.538   3.167 -0.3781  0.1304  0.9075
 1871SOL    HW2 7529   3.252   3.557   3.129 -0.2326  0.0490  1.1926
 1871SOL    HW3 7530   3.147   3.449   3.138 -1.7432  1.2263 -1.6844
 1871SOL    MW4 7531   3.175   3.529   3.158 -0.5391  0.2642  0.6030
 1872SOL     OW 7532   3.388   3.647   3.043 -0.0654  0.1934  0.0451
 1872SOL    HW2 7533   3.462   3.607   3.088 -1.7204 -1.8543  1.0598
 1872SOL    HW3 7534   3.376   3.731   3.087  0.6182 -0.1958  0.9886
 1872SOL    MW4 7535   3.396   3.652   3.055 -0.1934 -0.1283  0.3035
 1873SOL     OW 7536   3.381   3.909   3.121  0.2644 -0.0744  0.0719
 1873SOL    HW2 7537   3.377   3.923   3.216 -1.3876 -3.1350  0.4963
 1873SOL    HW3 7538   3.309   3.961   3.086  0.2984  0.3210  0.5760
 1873SOL    MW4 7539   3.371   3.918   3.129  0.0505 -0.4263  0.1943
 1874SOL     OW 7540   3.174   4.018   2.995  0.0436  0.0899 -0.3039
 1874SOL    HW2 7541   3.094   3.980   3.029 -0.9113  1.9580 -0.3935
 1874SOL    HW3 7542   3.162   4.016   2.900  0.1832  0.2065 -0.3231
 1874SOL    MW4 7543   3.162   4.013   2.987 -0.0639  0.3519 -0.3183
 1875SOL     OW 7544   3.147   4.274   3.083 -0.5439 -0.6070  0.3114
 1875SOL    HW2 7545   3.139   4.270   3.179 -0.3193 -0.1819  0.3510
 1875SOL    HW3 7546   3.164   4.183   3.057  1.5485 -0.4206  0.8895
 1875SOL    MW4 7547   3.148   4.261   3.093 -0.2384 -0.5269  0.3929
 1876SOL     OW 7548   3.392   4.418   3.044  0.1112  0.2719 -0.3622
 1876SOL    HW2 7549   3.464   4.360   3.070  1.2378  1.3796 -1.0195
 1876SOL    HW3 7550   3.313   4.370   3.070  1.0343 -1.4559 -0.6658
 1876SOL    MW4 7551   3.391   4.404   3.051  0.3817  0.1903 -0.4892
 1877SOL     OW 7552   3.856   4.650   3.201  0.0103  0.3310  0.2047
 1877SOL    HW2 7553   3.851   4.570   3.149  0.7684  0.1275  0.4284
 1877SOL    HW3 7554   3.778   4.700   3.177  0.6290  0.4945 -1.5324
 1877SOL    MW4 7555   3.845   4.646   3.191  0.1919  0.3257  0.0050
 1878SOL     OW 7556   3.637   0.124   3.078  0.5263 -0.4053  0.4225
 1878SOL    HW2 7557   3.665   0.213   3.097  0.2024 -0.5381  1.5681
 1878SOL    HW3 7558   3.629   0.121   2.983  0.9111  0.6752  0.3521
 1878SOL    MW4 7559   3.639   0.135   3.068  0.5343 -0.2803  0.5643
 1879SOL     OW 7560   3.655   0.395   3.161  0.1612  0.2210 -0.0277
 1879SOL    HW2 7561   3.671   0.395   3.255 -0.6493 -1.5170  0.1192
 1879SOL    HW3 7562   3.725   0.451   3.125 -0.4969  2.2490  1.7371
 1879SOL    MW4 7563   3.667   0.402   3.168 -0.0329  0.2593  0.2244
 1880SOL     OW 7564   3.849   0.570   3.041 -0.2880 -0.4848 -0.4950
 1880SOL    HW2 7565   3.932   0.543   3.081  0.0486 -0.6779 -1.3047
 1880SOL    HW3 7566   3.822   0.646   3.091  0.4073 -0.3889 -0.2540
 1880SOL    MW4 7567   3.857   0.576   3.053 -0.1519 -0.4977 -0.5701
 1881SOL     OW 7568   3.810   0.793   3.199 -0.3506  0.3836 -0.1728
 1881SOL    HW2 7569   3.840   0.780   3.289 -0.7083 -1.1582 -0.2711
 1881SOL    HW3 7570   3.888   0.825   3.152 -0.0754  0.8556  0.5872
 1881SOL    MW4 7571   3.824   0.796   3.204 -0.3614  0.2424 -0.0858
 1882SOL     OW 7572   3.582   0.883   3.045 -0.4195 -0.0437  0.0403
 1882SOL    HW2 7573   3.650   0.851   3.105  0.3262 -3.7314 -2.5507
 1882SOL    HW3 7574   3.501   0.845   3.079 -0.1855 -1.0612 -0.5096
 1882SOL    MW4 7575   3.580   0.874   3.058 -0.2904 -0.6645 -0.3741
 1883SOL     OW 7576   3.565   1.160   3.100  0.0211 -0.4171  0.3901
 1883SOL    HW2 7577   3.652   1.199   3.099 -0.3825  0.5935  2.3560
 1883SOL    HW3 7578   3.579   1.067   3.084  1.4538 -0.2657  0.7520
 1883SOL    MW4 7579   3.578   1.153   3.097  0.1569 -0.2638  0.6971
 1884SOL     OW 7580   3.822   1.252   3.088  0.1671  0.1892  0.0054
 1884SOL    HW2 7581   3.811   1.341   3.121  1.2420 -0.2192  1.5349
 1884SOL    HW3 7582   3.804   1.258   2.994 -2.0672  1.5587  0.4914
 1884SOL    MW4 7583   3.819   1.264   3.080  0.0138  0.3160  0.2713
 1885SOL     OW 7584   3.798   1.540   3.151  0.3489  0.0410  0.2169
 1885SOL    HW2 7585   3.800   1.549   3.246 -0.0403  0.0631  0.2234
 1885SOL    HW3 7586   3.713   1.576   3.125  1.6905  2.7929 -0.4346
 1885SOL    MW4 7587   3.787   1.546   3.160  0.4745  0.4070  0.1321
 1886SOL     OW 7588   3.571   1.691   3.072 -0.0581 -0.6059  0.3018
 1886SOL    HW2 7589   3.583   1.782   3.101  0.4355 -0.4116 -0.4872
 1886SOL    HW3 7590   3.561   1.698   2.977 -2.3519 -1.1690  0.4689
 1886SOL    MW4 7591   3.571   1.704   3.063 -0.2954 -0.6546  0.2196
 1887SOL     OW 7592   3.590   1.936   3.164 -0.2179 -0.2560 -0.0555
 1887SOL    HW2 7593   3.576   1.923   3.257 -1.2554 -2.2719 -0.4655
 1887SOL    HW3 7594   3.677   1.974   3.158  0.1678 -0.8150  1.6999
 1887SOL    MW4 7595   3.600   1.939   3.175 -0.3037 -0.5958  0.1223
 1888SOL     OW 7596   3.839   2.075   3.095  0.4946  0.2737 -0.0692
 1888SOL    HW2 7597   3.818   2.163   3.125 -1.2504  0.0067 -0.4768
 1888SOL    HW3 7598   3.838   2.082   2.999  0.0863 -0.2618 -0.1010
 1888SOL    MW4 7599   3.836   2.088   3.086  0.2103  0.1676 -0.1273
 1889SOL     OW 7600   3.783   2.343   3.156 -0.0828  0.8602  0.0340
 1889SOL    HW2 7601   3.771   2.327   3.250  1.4163  1.1346  0.2873
 1889SOL    HW3 7602   3.696   2.366   3.124 -0.9036 -0.7330  1.0598
 1889SOL    MW4 7603   3.770   2.344   3.164  0.0064  0.6864  0.2029
 1890SOL     OW 7604   3.554   2.436   3.032 -0.2450 -0.3708 -0.2654
 1890SOL    HW2 7605   3.570   2.523   3.066 -0.5500 -0.4035 -0.0402
 1890SOL    HW3 7606   3.463   2.417   3.055 -0.4143 -0.4405 -0.9779
 1890SOL    MW4 7607   3.544   2.445   3.039 -0.3076 -0.3843 -0.3295
 1891SOL     OW 7608   3.613   2.673   3.162  0.6905 -0.2006 -0.1007
 1891SOL    HW2 7609   3.678   2.697   3.096 -0.6479 -0.8117 -1.6935
 1891SOL    HW3 7610   3.533   2.718   3.133 -0.1515 -1.2544  0.5646
 1891SOL    MW4 7611   3.611   2.682   3.149  0.4027 -0.4203 -0.2232
 1892SOL     OW 7612   3.819   2.855   3.041  0.1557  0.0031  0.9168
 1892SOL    HW2 7613   3.819   2.946   3.070  0.4283  0.2265  0.2241
 1892SOL    HW3 7614   3.803   2.859   2.947 -0.4950 -0.7065  0.9949
 1892SOL    MW4 7615   3.817   2.867   3.033  0.1061 -0.0613  0.8359
 1893SOL     OW 7616   3.796   3.121   3.177 -0.2473 -0.4686  0.1180
 1893SOL    HW2 7617   3.868   3.162   3.129 -1.0946 -0.3411 -1.0438
 1893SOL    HW3 7618   3.717   3.164   3.146 -0.8406 -0.5704  1.4358
 1893SOL    MW4 7619   3.795   3.132   3.167 -0.4375 -0.4652  0.1388
 1894SOL     OW 7620   3.585   3.263   3.080 -0.0782  0.0794  0.2737
 1894SOL    HW2 7621   3.508   3.215   3.111 -0.1267 -0.3565 -0.5090
 1894SOL    HW3 7622   3.594   3.237   2.988  0.3754  0.9429  0.0649
 1894SOL    MW4 7623   3.576   3.254   3.072 -0.0250  0.1359  0.1426
 1895SOL     OW 7624   3.604   3.524   3.170  0.5340  0.0298  0.0920
 1895SOL    HW2 7625   3.692   3.556   3.148  2.0482 -2.7012  1.7948
 1895SOL    HW3 7626   3.598   3.439   3.126 -0.7819 -0.3524  0.9798
 1895SOL    MW4 7627   3.615   3.517   3.161  0.5603 -0.3808  0.4339
 1896SOL     OW 7628   3.840   3.607   3.075  0.6008 -0.2049  0.1611
 1896SOL    HW2 7629   3.857   3.692   3.114 -2.5185 -0.0603  1.2819
 1896SOL    HW3 7630   3.819   3.626   2.984 -0.5675  0.2768  0.5279
 1896SOL    MW4 7631   3.840   3.620   3.068  0.0350 -0.1223  0.3574
 1897SOL     OW 7632   3.830   3.880   3.160 -0.0003 -0.0303  0.0481
 1897SOL    HW2 7633   3.806   3.911   3.247  0.1335  2.3198 -0.7145
 1897SOL    HW3 7634   3.761   3.912   3.103  0.5909 -0.4527 -0.9213
 1897SOL    MW4 7635   3.818   3.888   3.164  0.0951  0.2241 -0.1805
 1898SOL     OW 7636   3.631   3.963   2.995 -0.3320  0.6824 -0.3115
 1898SOL    HW2 7637   3.544   3.953   3.033  0.5460  0.2883  1.6336
 1898SOL    HW3 7638   3.619   3.938   2.903 -2.2526  0.5975 -0.0704
 1898SOL    MW4 7639   3.618   3.959   2.988 -0.4694  0.6194 -0.0229
 1899SOL     OW 7640   3.603   4.248   3.086 -0.2244  0.0749 -0.1478
 1899SOL    HW2 7641   3.683   4.298   3.067  0.1809 -0.3715  0.3688
 1899SOL    HW3 7642   3.626   4.158   3.063 -1.0843  0.1798 -1.4744
 1899SOL    MW4 7643   3.617   4.243   3.080 -0.2842  0.0300 -0.2546
 1900SOL     OW 7644   3.827   4.419   3.042 -0.1316 -0.0294  0.0563
 1900SOL    HW2 7645   3.898   4.360   3.068  0.0751  0.7658  1.3359
 1900SOL    HW3 7646   3.824   4.412   2.947  1.7877  0.0578 -0.0328
 1900SOL    MW4 7647   3.836   4.411   3.033  0.1490  0.0868  0.2134
 1901SOL     OW 7648   4.293   0.035   3.136  0.3266 -0.3325 -0.3542
 1901SOL    HW2 7649   4.285   0.018   3.230 -1.9756 -2.3325 -0.8444
 1901SOL    HW3 7650   4.273  -0.049   3.095  0.4859  0.7068 -2.6525
 1901SOL    MW4 7651   4.289   0.022   3.143  0.0443 -0.4593 -0.7222
 1902SOL     OW 7652   4.048   0.164   3.068 -0.0580  0.4786  0.9219
 1902SOL    HW2 7653   4.131   0.130   3.100 -0.0171 -1.5674 -1.1740
 1902SOL    HW3 7654   3.981   0.111   3.111 -0.1841  0.8229  1.1478
 1902SOL    MW4 7655   4.050   0.153   3.078 -0.0696  0.2541  0.6752
 1903SOL     OW 7656   4.058   0.432   3.163  0.5708 -0.3708 -0.6100
 1903SOL    HW2 7657   4.145   0.460   3.135  2.1324 -2.6684  1.7257
 1903SOL    HW3 7658   4.055   0.338   3.144 -1.0716 -0.4886  0.1336
 1903SOL    MW4 7659   4.069   0.424   3.157  0.5598 -0.6895 -0.2034
 1904SOL     OW 7660   4.284   0.526   3.038 -0.0540  0.0075  0.1561
 1904SOL    HW2 7661   4.294   0.609   3.085  0.4137  0.0114  0.0551
 1904SOL    HW3 7662   4.260   0.552   2.949 -0.9723 -0.0006  0.3994
 1904SOL    MW4 7663   4.282   0.540   3.032 -0.1135  0.0070  0.1750
 1905SOL     OW 7664   4.284   0.767   3.166  0.2504 -0.0248 -0.8141
 1905SOL    HW2 7665   4.206   0.813   3.134  0.1531 -0.8089 -1.7021
 1905SOL    HW3 7666   4.357   0.814   3.126  0.3369  1.6163  1.1413
 1905SOL    MW4 7667   4.283   0.780   3.157  0.2489  0.0883 -0.6733
 1906SOL     OW 7668   4.042   0.892   3.073 -0.5731 -0.2376  0.0920
 1906SOL    HW2 7669   4.053   0.984   3.098 -0.5273 -0.2529  0.1269
 1906SOL    HW3 7670   4.069   0.889   2.981 -0.5871 -0.2137  0.0871
 1906SOL    MW4 7671   4.047   0.904   3.064 -0.5693 -0.2365  0.0961
 1907SOL     OW 7672   4.061   1.140   3.191 -0.4734 -0.2573  0.4632
 1907SOL    HW2 7673   4.049   1.145   3.286 -0.6506 -0.1850  0.4374
 1907SOL    HW3 7674   3.985   1.185   3.155 -0.0005  0.4060  0.2936
 1907SOL    MW4 7675   4.049   1.146   3.199 -0.4339 -0.1602  0.4375
 1908SOL     OW 7676   4.280   1.242   3.072 -0.1513  0.0874 -0.1811
 1908SOL    HW2 7677   4.206   1.210   3.123 -0.5721 -0.4627 -1.1213
 1908SOL    HW3 7678   4.252   1.233   2.981  0.7353  0.6958 -0.5205
 1908SOL    MW4 7679   4.267   1.236   3.067 -0.0906  0.0951 -0.3500
 1909SOL     OW 7680   4.273   1.529   3.147 -0.1988 -0.5198  0.4767
 1909SOL    HW2 7681   4.188   1.567   3.125  1.1067  1.1899 -1.9386
 1909SOL    HW3 7682   4.271   1.441   3.110 -0.3589  0.0942 -1.0052
 1909SOL    MW4 7683   4.262   1.522   3.139 -0.0482 -0.2134 -0.0374
 1910SOL     OW 7684   4.034   1.622   3.053 -0.2619 -0.6130  0.5716
 1910SOL    HW2 7685   4.038   1.712   3.086  1.3342 -0.1875 -0.6888
 1910SOL    HW3 7686   3.947   1.591   3.079 -1.3850  1.7549 -0.1834
 1910SOL    MW4 7687   4.023   1.630   3.061 -0.1993 -0.2444  0.3059
 1911SOL     OW 7688   4.036   1.883   3.153 -0.2576  0.5485  0.5405
 1911SOL    HW2 7689   4.111   1.933   3.122  0.5464  0.8005  2.7955
 1911SOL    HW3 7690   3.960   1.936   3.127  0.4118  1.0560 -0.4052
 1911SOL    MW4 7691   4.035   1.897   3.145 -0.0629  0.6486  0.7136
 1912SOL     OW 7692   4.232   2.032   3.046  0.0513 -0.3697  0.3099
 1912SOL    HW2 7693   4.228   2.122   3.079 -1.4528 -1.0250  1.9348
 1912SOL    HW3 7694   4.237   2.043   2.951  0.7726  1.4495  0.5263
 1912SOL    MW4 7695   4.232   2.046   3.038 -0.0525 -0.2158  0.5529
 1913SOL     OW 7696   4.219   2.290   3.134  0.4630  0.4870  0.3472
 1913SOL    HW2 7697   4.138   2.329   3.100  0.0988 -0.2029  0.4293
 1913SOL    HW3 7698   4.289   2.337   3.087 -0.0192  0.1142 -0.7591
 1913SOL    MW4 7699   4.218   2.301   3.123  0.3514  0.3467  0.2122
 1914SOL     OW 7700   4.040   2.462   3.036  0.1319 -0.0023 -0.3602
 1914SOL    HW2 7701   4.042   2.546   3.081  2.8813 -0.8421  1.1725
 1914SOL    HW3 7702   3.961   2.419   3.069 -1.3155  1.9528 -1.1957
 1914SOL    MW4 7703   4.029   2.467   3.046  0.3037  0.1450 -0.2685
 1915SOL     OW 7704   4.022   2.715   3.139 -0.6344  0.3385 -0.5100
 1915SOL    HW2 7705   4.010   2.728   3.233 -0.5139  0.1135 -0.4639
 1915SOL    HW3 7706   3.950   2.764   3.099 -0.7058  0.4053 -0.2996
 1915SOL    MW4 7707   4.010   2.723   3.146 -0.6270  0.3176 -0.4761
 1916SOL     OW 7708   4.259   2.856   3.035 -0.2184  0.4152  0.0394
 1916SOL    HW2 7709   4.181   2.810   3.067  0.5261 -0.9625 -0.0938
 1916SOL    HW3 7710   4.331   2.798   3.058  0.5719  0.6839 -1.7388
 1916SOL    MW4 7711   4.258   2.842   3.043 -0.0157  0.2687 -0.2127
 1917SOL     OW 7712   4.231   3.110   3.132 -0.2500  0.0075  0.2352
 1917SOL    HW2 7713   4.150   3.148   3.100 -0.4555 -0.1934  0.5161
 1917SOL    HW3 7714   4.236   3.024   3.091 -0.1642  0.0323  0.1927
 1917SOL    MW4 7715   4.221   3.104   3.122 -0.2656 -0.0162  0.2666
 1918SOL     OW 7716   3.995   3.221   3.011  0.1825  0.5564 -0.1925
 1918SOL    HW2 7717   4.008   3.312   3.040  2.0153  0.4668 -0.6708
 1918SOL    HW3 7718   4.010   3.224   2.916 -1.5457  0.0689 -0.5032
 1918SOL    MW4 7719   3.999   3.234   3.002  0.1962  0.4799 -0.2968
 1919SOL     OW 7720   4.069   3.455   3.138 -0.4213  0.6499  0.1116
 1919SOL    HW2 7721   4.074   3.441   3.232  1.1776  1.3175  0.1386
 1919SOL    HW3 7722   4.002   3.522   3.127  0.5424  1.7570  0.9118
 1919SOL    MW4 7723   4.061   3.462   3.149 -0.0834  0.8841  0.2208
 1920SOL     OW 7724   4.273   3.609   3.026 -0.0467  0.2103  0.1457
 1920SOL    HW2 7725   4.267   3.694   3.070 -0.1778 -0.3653  1.2265
 1920SOL    HW3 7726   4.210   3.553   3.070 -0.1814 -0.3770 -0.7684
 1920SOL    MW4 7727   4.264   3.613   3.037 -0.0815  0.0570  0.1676
 1921SOL     OW 7728   4.269   3.856   3.139  0.3008  0.1033  0.1617
 1921SOL    HW2 7729   4.183   3.883   3.108  0.3867  0.8544  0.5578
 1921SOL    HW3 7730   4.328   3.923   3.106  1.0800 -1.5718 -2.0011
 1921SOL    MW4 7731   4.266   3.868   3.131  0.4139 -0.0184 -0.0713
 1922SOL     OW 7732   4.047   3.980   3.013  0.3876  0.5250 -0.3025
 1922SOL    HW2 7733   4.044   4.075   3.026 -0.4624  0.4532  0.0814
 1922SOL    HW3 7734   3.971   3.947   3.061  1.0242 -0.4146  0.0839
 1922SOL    MW4 7735   4.037   3.988   3.021  0.3595  0.3915 -0.2010
 1923SOL     OW 7736   4.033   4.259   3.101  0.5987  0.1307  0.3746
 1923SOL    HW2 7737   4.040   4.246   3.195 -1.9615  1.0444  0.7215
 1923SOL    HW3 7738   4.101   4.323   3.080  1.2694 -0.1851  1.5482
 1923SOL    MW4 7739   4.043   4.266   3.111  0.3495  0.2093  0.5751
 1924SOL     OW 7740   4.251   4.442   3.052  0.5763 -0.1636 -0.2136
 1924SOL    HW2 7741   4.324   4.392   3.089 -0.3703 -0.9915  0.5561
 1924SOL    HW3 7742   4.257   4.425   2.958  0.8744 -0.9188 -0.0673
 1924SOL    MW4 7743   4.261   4.433   3.044  0.4907 -0.3724 -0.0927
 1925SOL     OW 7744   0.262   4.663   3.406  0.4760  0.2395  0.3190
 1925SOL    HW2 7745   0.338   4.709   3.441  0.9685 -0.3125 -0.0203
 1925SOL    HW3 7746   0.272   4.573   3.437  1.0128 -0.2952 -1.3812
 1925SOL    MW4 7747   0.273   4.658   3.415  0.6118  0.0958  0.0501
 1926SOL     OW 7748   0.047   0.070   3.557  0.0164  0.3460 -0.1812
 1926SOL    HW2 7749   0.029   0.158   3.524 -0.2928 -0.1391 -1.3216
 1926SOL    HW3 7750   0.120   0.039   3.504  1.4173  0.6475  1.5225
 1926SOL    MW4 7751   0.054   0.077   3.545  0.1604  0.3218 -0.1070
 1927SOL     OW 7752   0.023   0.341   3.449  0.4623  0.5313 -0.6039
 1927SOL    HW2 7753  -0.056   0.379   3.487  1.1850  0.5652  0.9240
 1927SOL    HW3 7754   0.088   0.411   3.453  1.3147 -0.3020  0.6458
 1927SOL    MW4 7755   0.021   0.355   3.455  0.6701  0.4259 -0.2372
 1928SOL     OW 7756   1.409   0.316   4.211  0.3618  0.0587 -0.1203
 1928SOL    HW2 7757   1.321   0.299   4.245 -1.2411  0.1592 -4.0112
 1928SOL    HW3 7758   1.421   0.411   4.219  0.0718  0.0662  0.2349
 1928SOL    MW4 7759   1.399   0.326   4.217  0.1121  0.0730 -0.5875
 1929SOL     OW 7760   0.238   0.534   3.504 -0.1563 -0.1066  0.5335
 1929SOL    HW2 7761   0.239   0.621   3.464  2.2094 -0.1949  0.3288
 1929SOL    HW3 7762   0.244   0.551   3.598  1.0805 -0.0582  0.4497
 1929SOL    MW4 7763   0.239   0.548   3.511  0.3190 -0.1119  0.4952
 1930SOL     OW 7764   0.227   0.800   3.433  0.1330 -0.4250  0.3143
 1930SOL    HW2 7765   0.305   0.840   3.470 -0.1410  0.1996  0.2282
 1930SOL    HW3 7766   0.154   0.845   3.476 -0.1782 -1.0005  0.3951
 1930SOL    MW4 7767   0.227   0.812   3.443  0.0558 -0.4185  0.3135
 1931SOL     OW 7768   0.271   1.266   3.507  0.1604 -0.1771 -0.2723
 1931SOL    HW2 7769   0.264   1.351   3.463  1.5223 -0.9522 -2.0305
 1931SOL    HW3 7770   0.350   1.226   3.470 -0.4362 -2.1915  0.5634
 1931SOL    MW4 7771   0.281   1.272   3.496  0.2613 -0.5453 -0.3939
 1932SOL     OW 7772   0.496   1.172   3.389 -0.3491 -0.3450 -0.5040
 1932SOL    HW2 7773   0.489   1.208   3.301 -1.0937  0.9117  0.0628
 1932SOL    HW3 7774   0.584   1.195   3.418 -0.0734 -0.8315 -0.9380
 1932SOL    MW4 7775   0.507   1.180   3.381 -0.4110 -0.2433 -0.4864
 1933SOL     OW 7776   0.686   1.535   3.375  0.3305 -0.3751  0.0457
 1933SOL    HW2 7777   0.608   1.575   3.413 -0.1383 -0.8084 -0.4521
 1933SOL    HW3 7778   0.759   1.589   3.407  0.0826 -1.5124  2.6548
 1933SOL    MW4 7779   0.685   1.548   3.384  0.2360 -0.5823  0.3242
 1934SOL     OW 7780   0.251   1.516   3.387 -0.3253  0.3492  0.3797
 1934SOL    HW2 7781   0.234   1.516   3.292 -0.7374  2.4440  0.4310
 1934SOL    HW3 7782   0.337   1.558   3.395 -0.6833  0.9668  0.9867
 1934SOL    MW4 7783   0.260   1.522   3.375 -0.4269  0.7071  0.4666
 1935SOL     OW 7784   0.001   1.941   3.432 -0.1089 -0.4580 -0.0864
 1935SOL    HW2 7785   0.016   1.851   3.461 -0.2334 -0.5472 -0.2972
 1935SOL    HW3 7786  -0.011   1.934   3.338  0.9446 -0.0821 -0.2464
 1935SOL    MW4 7787   0.001   1.928   3.424  0.0134 -0.4202 -0.1352
 1936SOL     OW 7788   0.229   2.088   3.483  0.6756  0.4316 -0.0256
 1936SOL    HW2 7789   0.229   2.122   3.573  0.3829 -0.4347  0.3105
 1936SOL    HW3 7790   0.140   2.054   3.471  1.3354 -1.4114  0.1252
 1936SOL    MW4 7791   0.217   2.088   3.493  0.7240  0.0744  0.0386
 1937SOL     OW 7792   0.234   2.323   3.359 -0.5012  0.1627 -0.0283
 1937SOL    HW2 7793   0.145   2.347   3.385 -0.5873 -0.5105  0.2864
 1937SOL    HW3 7794   0.252   2.241   3.404 -0.2554 -0.4631 -1.2445
 1937SOL    MW4 7795   0.225   2.316   3.369 -0.4801 -0.0088 -0.1473
 1938SOL     OW 7796   4.486   2.672   3.411 -0.1612  0.2535  0.1453
 1938SOL    HW2 7797   4.557   2.721   3.453 -0.1313 -0.1058  0.5192
 1938SOL    HW3 7798   4.510   2.580   3.424  0.3708  0.1318 -1.5480
 1938SOL    MW4 7799   4.498   2.666   3.418 -0.0873  0.1903 -0.0286
 1939SOL     OW 7800   4.474   2.383   3.483 -0.4363  0.4585  0.8891
 1939SOL    HW2 7801   4.470   2.354   3.574 -1.8788  1.4184  1.1608
 1939SOL    HW3 7802   4.390   2.355   3.446  0.4406 -0.5710 -0.3523
 1939SOL    MW4 7803   4.462   2.376   3.490 -0.5112  0.4492  0.7610
 1940SOL     OW 7804   0.194   2.807   3.526  0.1404  0.0351 -0.0079
 1940SOL    HW2 7805   0.189   2.903   3.522 -0.7352 -0.0229 -0.4672
 1940SOL    HW3 7806   0.268   2.784   3.469  0.2490  0.4263 -0.0268
 1940SOL    MW4 7807   0.203   2.817   3.518  0.0392  0.0792 -0.0710
 1941SOL     OW 7808   0.179   3.070   3.421  0.6079  0.6595  0.0353
 1941SOL    HW2 7809   0.107   3.125   3.452 -1.5772 -1.9002 -0.3481
 1941SOL    HW3 7810   0.182   3.086   3.327 -0.1777  0.0049 -0.1110
 1941SOL    MW4 7811   0.170   3.079   3.413  0.2159  0.2351 -0.0346
 1942SOL     OW 7812   4.487   3.250   3.525  0.1928  0.1443  0.2062
 1942SOL    HW2 7813   4.418   3.203   3.479 -0.0323  0.5347  0.1510
 1942SOL    HW3 7814   4.489   3.337   3.486  0.0898  0.4386  0.8418
 1942SOL    MW4 7815   4.478   3.255   3.514  0.1493  0.2348  0.2830
 1943SOL     OW 7816   0.026   3.495   3.433  0.0466 -1.0525  0.1761
 1943SOL    HW2 7817  -0.047   3.544   3.472  0.9237 -0.9081  1.6644
 1943SOL    HW3 7818   0.012   3.503   3.338 -1.0958  0.1436  0.4251
 1943SOL    MW4 7819   0.014   3.503   3.425  0.0117 -0.8755  0.4053
 1944SOL     OW 7820   0.269   3.622   3.512 -0.1822  0.4710 -0.1970
 1944SOL    HW2 7821   0.261   3.708   3.471  0.8329  0.0403 -1.3216
 1944SOL    HW3 7822   0.200   3.569   3.472 -0.8388  0.7656  0.5314
 1944SOL    MW4 7823   0.259   3.627   3.502 -0.1349  0.4530 -0.2491
 1945SOL     OW 7824   0.239   3.874   3.385  0.2306 -0.3342  0.4475
 1945SOL    HW2 7825   0.314   3.910   3.433  0.2141  1.4062 -0.7850
 1945SOL    HW3 7826   0.168   3.936   3.402 -0.7714 -1.6709  1.1364
 1945SOL    MW4 7827   0.240   3.887   3.393  0.0962 -0.2811  0.3760
 1946SOL     OW 7828   0.016   4.010   3.477 -0.1781 -0.2856 -0.4470
 1946SOL    HW2 7829   0.051   4.014   3.566  1.3584 -1.4287 -0.9761
 1946SOL    HW3 7830   0.001   4.101   3.453 -0.2935  0.0521  0.8554
 1946SOL    MW4 7831   0.019   4.023   3.486  0.0094 -0.3920 -0.3448
 1947SOL     OW 7832   0.023   4.271   3.391 -0.1086  0.0798  0.5630
 1947SOL    HW2 7833  -0.053   4.308   3.436  0.7934  0.7495  1.5706
 1947SOL    HW3 7834   0.097   4.320   3.426  0.6650  0.3868 -1.4229
 1947SOL    MW4 7835   0.023   4.283   3.402  0.1130  0.2084  0.4339
 1948SOL     OW 7836   0.247   4.398   3.509  0.3475  0.2140  0.1733
 1948SOL    HW2 7837   0.277   4.431   3.593  0.9427  0.8375 -0.2754
 1948SOL    HW3 7838   0.315   4.336   3.482 -0.3848 -0.8166  0.6535
 1948SOL    MW4 7839   0.260   4.394   3.516  0.3294  0.1597  0.1776
 1949SOL     OW 7840   0.678   4.632   3.426  0.2140  0.2658  0.2680
 1949SOL    HW2 7841   0.694   4.540   3.447  0.2897  0.0925 -0.5210
 1949SOL    HW3 7842   0.650   4.631   3.334  1.1057  1.1055 -0.0264
 1949SOL    MW4 7843   0.677   4.620   3.416  0.3417  0.3538  0.1252
 1950SOL     OW 7844   0.954   3.709   4.420 -0.1401  0.3234  0.2788
 1950SOL    HW2 7845   0.955   3.777   4.487 -0.3583 -0.7897  1.4278
 1950SOL    HW3 7846   0.978   3.629   4.466 -1.7268 -0.7375 -0.6750
 1950SOL    MW4 7847   0.957   3.707   4.435 -0.3781  0.0365  0.3042
 1951SOL     OW 7848   0.423   1.477   4.400  0.2274 -0.3710 -0.6466
 1951SOL    HW2 7849   0.518   1.479   4.415  0.4015 -0.3010 -1.6905
 1951SOL    HW3 7850   0.396   1.569   4.408  0.1193 -0.4828  0.3734
 1951SOL    MW4 7851   0.432   1.489   4.403  0.2361 -0.3765 -0.6499
 1952SOL     OW 7852   0.945   0.350   3.369  0.1497 -0.2687 -0.3047
 1952SOL    HW2 7853   0.927   0.261   3.400 -1.1725 -0.4513 -1.5347
 1952SOL    HW3 7854   0.871   0.402   3.399 -0.8406 -0.3161 -2.5195
 1952SOL    MW4 7855   0.933   0.345   3.377 -0.1553 -0.2990 -0.7594
 1953SOL     OW 7856   0.482   0.892   3.513 -0.2919  0.2693 -0.8689
 1953SOL    HW2 7857   0.485   0.968   3.455  2.7584  0.7610 -0.1609
 1953SOL    HW3 7858   0.506   0.927   3.599  1.2561 -1.4855 -0.5582
 1953SOL    MW4 7859   0.485   0.907   3.517  0.3148  0.1026 -0.7343
 1954SOL     OW 7860   0.726   1.322   3.521 -0.0426 -0.1942  0.2802
 1954SOL    HW2 7861   0.704   1.401   3.472 -0.1350 -0.4974 -0.1762
 1954SOL    HW3 7862   0.795   1.281   3.469  0.5714  0.0062  0.9422
 1954SOL    MW4 7863   0.732   1.327   3.507  0.0262 -0.2078  0.3076
 1955SOL     OW 7864   0.595   0.863   4.425  0.2856 -0.0179  0.4800
 1955SOL    HW2 7865   0.679   0.908   4.431  0.5031 -0.3660  0.0511
 1955SOL    HW3 7866   0.565   0.855   4.515  1.2949 -1.0105  0.7271
 1955SOL    MW4 7867   0.602   0.868   4.438  0.4475 -0.1947  0.4559
 1956SOL     OW 7868   4.480   1.915   4.365 -0.2779 -0.4106 -0.0986
 1956SOL    HW2 7869   4.433   1.999   4.359 -0.5244 -0.4099  1.7177
 1956SOL    HW3 7870   4.446   1.864   4.292 -0.4772  0.8958 -0.9508
 1956SOL    MW4 7871   4.469   1.920   4.355 -0.3366 -0.2382  0.0286
 1957SOL     OW 7872   0.886   1.660   3.511 -0.0688 -0.2194  0.4471
 1957SOL    HW2 7873   0.977   1.637   3.492 -0.6056 -2.0564  0.0319
 1957SOL    HW3 7874   0.876   1.749   3.476  1.3660 -0.2751 -0.1345
 1957SOL    MW4 7875   0.897   1.669   3.504  0.0497 -0.4691  0.3157
 1958SOL     OW 7876   0.470   1.722   3.458 -0.1595  0.4776 -0.3552
 1958SOL    HW2 7877   0.427   1.744   3.540 -0.2690  1.6779 -0.7129
 1958SOL    HW3 7878   0.458   1.801   3.404  0.9450  0.1463 -1.0834
 1958SOL    MW4 7879   0.462   1.736   3.461 -0.0283  0.5924 -0.4983
 1959SOL     OW 7880   0.436   1.968   3.344  0.4509  0.3924  0.0553
 1959SOL    HW2 7881   0.359   2.007   3.385 -1.2302 -3.2442  0.5536
 1959SOL    HW3 7882   0.413   1.959   3.252 -0.2418 -1.7743  0.4119
 1959SOL    MW4 7883   0.423   1.972   3.337  0.1377 -0.3731  0.1681
 1960SOL     OW 7884   0.878   1.910   3.390 -0.1347  0.5543 -0.0411
 1960SOL    HW2 7885   0.950   1.955   3.435 -0.9387  2.3704 -0.5170
 1960SOL    HW3 7886   0.799   1.952   3.424 -0.9088 -0.4768 -0.5485
 1960SOL    MW4 7887   0.877   1.921   3.400 -0.3428  0.6579 -0.1709
 1961SOL     OW 7888   0.685   2.284   3.389 -0.0157 -0.3112 -0.4990
 1961SOL    HW2 7889   0.750   2.324   3.446  0.6517 -0.0248 -1.4442
 1961SOL    HW3 7890   0.689   2.190   3.410 -0.1463 -0.1415  0.2861
 1961SOL    MW4 7891   0.694   2.277   3.399  0.0551 -0.2511 -0.5202
 1962SOL     OW 7892   0.455   2.452   3.483 -0.0270 -0.5248 -0.2532
 1962SOL    HW2 7893   0.529   2.404   3.444 -0.2491 -0.9927 -0.1067
 1962SOL    HW3 7894   0.378   2.420   3.436 -0.0636  0.5140 -0.9189
 1962SOL    MW4 7895   0.455   2.441   3.471 -0.0611 -0.4494 -0.3216
 1963SOL     OW 7896   0.425   2.719   3.400 -0.3264 -0.0453 -0.0174
 1963SOL    HW2 7897   0.423   2.624   3.413 -1.1056 -0.1339 -0.6806
 1963SOL    HW3 7898   0.435   2.729   3.305  2.1254  0.5545  0.2741
 1963SOL    MW4 7899   0.426   2.707   3.389 -0.1057  0.0222 -0.0663
 1964SOL     OW 7900   0.655   2.847   3.494  0.0064  0.2573 -0.1749
 1964SOL    HW2 7901   0.731   2.799   3.461  0.1041 -0.6164  1.3134
 1964SOL    HW3 7902   0.580   2.795   3.465  0.1118 -0.8190  1.4349
 1964SOL    MW4 7903   0.655   2.834   3.486  0.0333  0.0002  0.2339
 1965SOL     OW 7904   0.686   3.103   3.421  0.6196 -0.0106 -0.1501
 1965SOL    HW2 7905   0.604   3.149   3.436  0.3971 -0.1581 -0.8757
 1965SOL    HW3 7906   0.671   3.014   3.452  0.9538  0.3218  0.9808
 1965SOL    MW4 7907   0.674   3.097   3.427  0.6344  0.0138 -0.0966
 1966SOL     OW 7908   0.431   3.224   3.511 -0.2726  0.0871 -0.6696
 1966SOL    HW2 7909   0.416   3.254   3.601  0.9033  2.3090 -1.1863
 1966SOL    HW3 7910   0.360   3.162   3.495 -1.1477  0.4888  1.4171
 1966SOL    MW4 7911   0.420   3.220   3.521 -0.2329  0.4337 -0.4625
 1967SOL     OW 7912   0.495   3.475   3.401 -0.8608 -0.0753  0.0895
 1967SOL    HW2 7913   0.479   3.382   3.420 -1.0909  0.1097  0.8406
 1967SOL    HW3 7914   0.416   3.519   3.432 -0.1438  0.5275  1.0887
 1967SOL    MW4 7915   0.482   3.468   3.408 -0.7966  0.0284  0.3204
 1968SOL     OW 7916   0.734   3.617   3.476 -0.4726  0.0743 -0.2924
 1968SOL    HW2 7917   0.814   3.569   3.450 -0.1613  0.8879 -0.8572
 1968SOL    HW3 7918   0.663   3.557   3.455  0.1153 -1.8249  2.8308
 1968SOL    MW4 7919   0.735   3.602   3.470 -0.3540 -0.0691  0.0451
 1969SOL     OW 7920   0.678   3.870   3.375  0.0667 -0.2426 -0.0259
 1969SOL    HW2 7921   0.615   3.914   3.431  2.5929 -0.0634  2.8260
 1969SOL    HW3 7922   0.689   3.783   3.414  1.7353 -0.1795 -0.2872
 1969SOL    MW4 7923   0.671   3.864   3.387  0.6201 -0.2103  0.3157
 1970SOL     OW 7924   0.463   3.969   3.519 -0.1152  0.4131 -0.0187
 1970SOL    HW2 7925   0.504   3.975   3.605  0.4807  1.1892 -0.3392
 1970SOL    HW3 7926   0.442   4.060   3.496 -1.9547  0.0454  0.0932
 1970SOL    MW4 7927   0.466   3.982   3.527 -0.2793  0.4671 -0.0463
 1971SOL     OW 7928   0.446   4.243   3.427 -0.3617 -0.0994 -0.5928
 1971SOL    HW2 7929   0.533   4.273   3.453 -0.5792  0.4907 -0.5542
 1971SOL    HW3 7930   0.449   4.243   3.331 -0.4222  0.2174 -0.5949
 1971SOL    MW4 7931   0.458   4.247   3.417 -0.3984  0.0205 -0.5879
 1972SOL     OW 7932   0.924   0.091   3.487 -0.1105 -0.1593  0.3829
 1972SOL    HW2 7933   0.846   0.037   3.474 -0.8187  1.0854 -0.6240
 1972SOL    HW3 7934   0.994   0.042   3.444 -0.6448 -0.5194 -0.0940
 1972SOL    MW4 7935   0.923   0.077   3.480 -0.2744 -0.0426  0.1874
 1973SOL     OW 7936   1.130   0.531   3.497 -0.2015  0.3699  0.1025
 1973SOL    HW2 7937   1.064   0.469   3.467 -0.7869  1.2072 -0.3387
 1973SOL    HW3 7938   1.119   0.533   3.592 -0.0126 -0.3899  0.1422
 1973SOL    MW4 7939   1.120   0.523   3.506 -0.2538  0.3801  0.0494
 1974SOL     OW 7940   3.111   0.402   4.293 -0.1207  0.3669 -0.1506
 1974SOL    HW2 7941   3.074   0.339   4.231 -0.7900 -0.1536  0.7633
 1974SOL    HW3 7942   3.065   0.385   4.375  1.0096  0.8033  0.5906
 1974SOL    MW4 7943   3.100   0.391   4.295 -0.0598  0.3558  0.0677
 1975SOL     OW 7944   4.244   4.154   4.149 -0.4646  0.0500  0.0333
 1975SOL    HW2 7945   4.226   4.127   4.058 -1.4326  0.3039  0.1388
 1975SOL    HW3 7946   4.192   4.234   4.161  0.0881  0.3155  0.6413
 1975SOL    MW4 7947   4.234   4.161   4.138 -0.5188  0.1183  0.1268
 1976SOL     OW 7948   0.726   0.518   3.451  0.3098  0.3706  0.2586
 1976SOL    HW2 7949   0.653   0.457   3.438 -0.2031  1.1506 -0.5623
 1976SOL    HW3 7950   0.730   0.531   3.546 -0.6898  0.4048  0.3036
 1976SOL    MW4 7951   0.717   0.512   3.462  0.1103  0.4780  0.1564
 1977SOL     OW 7952   0.970   1.144   3.098  0.6681  0.0789 -0.2087
 1977SOL    HW2 7953   0.935   1.058   3.073 -2.4202  1.2741 -0.1080
 1977SOL    HW3 7954   0.949   1.152   3.191  1.1176  0.9097 -0.1742
 1977SOL    MW4 7955   0.963   1.133   3.107  0.3200  0.3463 -0.1910
 1978SOL     OW 7956   0.711   0.765   3.373 -0.4143  0.6477 -0.8028
 1978SOL    HW2 7957   0.637   0.809   3.415 -1.6166 -0.0115 -2.1614
 1978SOL    HW3 7958   0.707   0.675   3.405  0.2438  0.7877 -0.3201
 1978SOL    MW4 7959   0.701   0.759   3.383 -0.4861  0.5792 -0.9181
 1979SOL     OW 7960   0.916   1.137   3.378  0.1878  0.7388  0.0264
 1979SOL    HW2 7961   0.927   1.051   3.418  0.4022  1.2681  1.1045
 1979SOL    HW3 7962   0.996   1.185   3.401  0.4123  0.9762 -1.2091
 1979SOL    MW4 7963   0.928   1.132   3.386  0.2457  0.8399  0.0057
 1980SOL     OW 7964   1.134   1.289   3.497 -0.1532 -0.0901  0.0613
 1980SOL    HW2 7965   1.127   1.305   3.591  2.7224 -1.3721  0.5567
 1980SOL    HW3 7966   1.145   1.376   3.459 -3.4498  0.6427  0.6319
 1980SOL    MW4 7967   1.134   1.303   3.505 -0.2087 -0.1626  0.2019
 1981SOL     OW 7968   1.113   1.534   3.391 -0.0889 -0.3293  0.2681
 1981SOL    HW2 7969   1.196   1.572   3.420  0.0921 -0.0807 -0.5665
 1981SOL    HW3 7970   1.125   1.519   3.298 -0.2902 -2.0941  0.5094
 1981SOL    MW4 7971   1.125   1.537   3.383 -0.0917 -0.5293  0.1898
 1982SOL     OW 7972   1.088   2.057   3.508 -0.2980 -0.2610 -0.0286
 1982SOL    HW2 7973   1.063   2.142   3.472  0.1435  0.1523  0.6320
 1982SOL    HW3 7974   1.181   2.048   3.488  0.0849  0.2145  1.4605
 1982SOL    MW4 7975   1.097   2.067   3.500 -0.1892 -0.1440  0.2551
 1983SOL     OW 7976   0.815   2.192   3.938 -0.1358 -0.0141 -0.4348
 1983SOL    HW2 7977   0.852   2.276   3.910  0.6676  0.7913  2.7935
 1983SOL    HW3 7978   0.887   2.129   3.926  0.3058  0.3830  0.0892
 1983SOL    MW4 7979   0.830   2.195   3.933  0.0284  0.1445  0.0601
 1984SOL     OW 7980   1.276   2.146   3.926  0.4757  0.2701 -0.3594
 1984SOL    HW2 7981   1.357   2.097   3.940  0.2426  0.3351  1.2536
 1984SOL    HW3 7982   1.277   2.214   3.993 -0.7878  0.4531 -0.5113
 1984SOL    MW4 7983   1.287   2.149   3.936  0.2782  0.3028 -0.1667
 1985SOL     OW 7984   1.080   2.309   3.419 -0.2364 -0.6606  0.2237
 1985SOL    HW2 7985   1.164   2.332   3.459  1.1075 -4.1432 -0.4157
 1985SOL    HW3 7986   1.097   2.312   3.324 -1.3307  0.3265  0.0492
 1985SOL    MW4 7987   1.093   2.313   3.411 -0.2036 -0.9897  0.1163
 1986SOL     OW 7988   0.871   2.437   3.550 -0.1372  0.5253 -0.0630
 1986SOL    HW2 7989   0.896   2.435   3.642  0.7445  0.8143 -0.2910
 1986SOL    HW3 7990   0.941   2.390   3.505 -0.1885  1.0192 -0.6650
 1986SOL    MW4 7991   0.883   2.431   3.556 -0.0277  0.6287 -0.1729
 1987SOL     OW 7992   0.869   2.682   3.432  0.0532  0.2902 -0.6055
 1987SOL    HW2 7993   0.955   2.716   3.457  0.4503 -1.5008  0.5496
 1987SOL    HW3 7994   0.864   2.596   3.473 -2.1524  0.2055 -0.9731
 1987SOL    MW4 7995   0.880   2.675   3.440 -0.1854  0.0427 -0.5016
 1988SOL     OW 7996   1.112   2.793   3.535  0.1784 -0.1448 -0.2111
 1988SOL    HW2 7997   1.104   2.772   3.628 -1.1183 -1.3819 -0.5903
 1988SOL    HW3 7998   1.195   2.752   3.509 -0.1887 -1.0737  0.0613
 1988SOL    MW4 7999   1.122   2.785   3.544 -0.0412 -0.4306 -0.2253
 1989SOL     OW 8000   1.129   3.051   3.465 -0.0125 -0.2295  0.4449
 1989SOL    HW2 8001   1.108   2.961   3.489 -2.1249 -0.1352 -0.8396
 1989SOL    HW3 8002   1.163   3.045   3.376 -0.8299  0.2888  0.0875
 1989SOL    MW4 8003   1.130   3.038   3.456 -0.3991 -0.1485  0.2284
 1990SOL     OW 8004   0.940   3.242   3.475  0.7272 -0.0418 -0.0245
 1990SOL    HW2 8005   0.998   3.168   3.458  0.4372 -0.0875 -0.8192
 1990SOL    HW3 8006   0.853   3.210   3.454  0.5484  0.3933  0.0409
 1990SOL    MW4 8007   0.937   3.228   3.470  0.6654  0.0098 -0.1206
 1991SOL     OW 8008   0.974   3.509   3.384 -0.3462  0.5759 -0.3121
 1991SOL    HW2 8009   0.968   3.424   3.427 -2.9292  0.3296 -1.0701
 1991SOL    HW3 8010   0.946   3.492   3.294  0.5138  1.9603 -0.8532
 1991SOL    MW4 8011   0.970   3.496   3.377 -0.5736  0.7260 -0.4835
 1992SOL     OW 8012   1.188   3.628   3.500 -0.4615 -0.4879  0.0274
 1992SOL    HW2 8013   1.159   3.636   3.591  0.3758 -2.7321  0.5347
 1992SOL    HW3 8014   1.120   3.575   3.458 -0.2306 -0.5036 -0.3282
 1992SOL    MW4 8015   1.175   3.622   3.506 -0.3207 -0.7861  0.0474
 1993SOL     OW 8016   0.902   0.396   3.899 -0.2408  0.1806  0.3619
 1993SOL    HW2 8017   0.834   0.396   3.967  0.3980  0.7933  1.0080
 1993SOL    HW3 8018   0.888   0.314   3.852 -0.7328 -0.2299  1.1977
 1993SOL    MW4 8019   0.891   0.385   3.902 -0.2214  0.2073  0.5574
 1994SOL     OW 8020   1.530   1.412   4.313 -0.0724  0.0850  0.1060
 1994SOL    HW2 8021   1.614   1.367   4.325 -0.8623 -1.4591 -0.0850
 1994SOL    HW3 8022   1.472   1.371   4.377 -0.6188  1.3281  0.4143
 1994SOL    MW4 8023   1.534   1.401   4.323 -0.2487  0.0453  0.1216
 1995SOL     OW 8024   0.957   4.248   3.409 -0.4208  0.3505 -0.4710
 1995SOL    HW2 8025   0.950   4.157   3.440  0.9040  0.1301 -0.7879
 1995SOL    HW3 8026   0.955   4.241   3.314 -0.6317  0.6854 -0.4917
 1995SOL    MW4 8027   0.956   4.235   3.401 -0.2738  0.3662 -0.5157
 1996SOL     OW 8028   1.315   0.161   3.520 -0.1706 -0.2862 -0.0001
 1996SOL    HW2 8029   1.319   0.236   3.460  0.7757 -0.5405 -0.2701
 1996SOL    HW3 8030   1.251   0.103   3.480 -0.3422  0.0354 -0.2009
 1996SOL    MW4 8031   1.307   0.164   3.506 -0.0683 -0.2773 -0.0625
 1997SOL     OW 8032   1.559   0.043   3.454  0.1653 -0.0158  0.3633
 1997SOL    HW2 8033   1.537  -0.047   3.478  0.8554 -0.0900  0.7290
 1997SOL    HW3 8034   1.484   0.095   3.484 -0.0028 -0.4004  0.6126
 1997SOL    MW4 8035   1.546   0.038   3.461  0.2341 -0.0764  0.4447
 1998SOL     OW 8036   2.190   0.416   3.762  0.5609  0.2020  0.0095
 1998SOL    HW2 8037   2.168   0.323   3.764  0.1712  0.3159  1.2608
 1998SOL    HW3 8038   2.285   0.419   3.766  0.5699 -0.1406  0.0387
 1998SOL    MW4 8039   2.199   0.404   3.763  0.5107  0.1718  0.1786
 1999SOL     OW 8040   1.358   0.400   3.378 -0.1652 -0.2694  0.0311
 1999SOL    HW2 8041   1.305   0.477   3.401  0.7089  0.8448 -1.5286
 1999SOL    HW3 8042   1.442   0.416   3.420  0.0532 -0.3051 -0.3837
 1999SOL    MW4 8043   1.362   0.413   3.386 -0.0211 -0.1271 -0.2294
 2000SOL     OW 8044   1.743   0.892   3.538 -0.0785 -0.1617 -0.2496
 2000SOL    HW2 8045   1.725   0.823   3.475 -0.4770 -0.2939  0.0091
 2000SOL    HW3 8046   1.666   0.894   3.595  0.5988 -0.5497  0.6997
 2000SOL    MW4 8047   1.730   0.883   3.537 -0.0418 -0.2303 -0.0904
 2001SOL     OW 8048   1.398   0.876   3.455  0.0677 -0.3746  0.5591
 2001SOL    HW2 8049   1.389   0.966   3.422 -0.2426 -1.0412 -1.2288
 2001SOL    HW3 8050   1.430   0.887   3.545  0.8123  1.5091  0.1042
 2001SOL    MW4 8051   1.401   0.890   3.462  0.1249 -0.2140  0.2635
 2002SOL     OW 8052   1.608   1.810   4.134  0.4635  0.1712  0.0695
 2002SOL    HW2 8053   1.691   1.765   4.145  1.5868  1.8440 -1.4186
 2002SOL    HW3 8054   1.615   1.889   4.188 -0.5949 -0.2000  0.7890
 2002SOL    MW4 8055   1.620   1.814   4.143  0.4722  0.3430 -0.0324
 2003SOL     OW 8056   1.589   1.254   3.532 -0.0217 -0.2322 -0.0892
 2003SOL    HW2 8057   1.575   1.242   3.626  0.4601  1.8311  0.2739
 2003SOL    HW3 8058   1.510   1.220   3.491  0.0723 -1.8262  1.0141
 2003SOL    MW4 8059   1.577   1.248   3.539  0.0544 -0.1701  0.1042
 2004SOL     OW 8060   1.309   1.840   4.248  0.3586 -0.3701  0.0641
 2004SOL    HW2 8061   1.355   1.779   4.305 -0.2164 -0.7100  0.1591
 2004SOL    HW3 8062   1.332   1.927   4.282 -2.0452 -0.6201  2.3903
 2004SOL    MW4 8063   1.318   1.843   4.260 -0.0343 -0.4481  0.3839
 2005SOL     OW 8064   1.580   1.528   3.434  0.2650 -0.1169  0.0313
 2005SOL    HW2 8065   1.586   1.438   3.466  0.7626  0.0665  0.4760
 2005SOL    HW3 8066   1.589   1.521   3.339  2.3486 -0.3618  0.2261
 2005SOL    MW4 8067   1.582   1.515   3.426  0.6056 -0.1251  0.1156
 2006SOL     OW 8068   1.365   1.638   3.546  0.0981  0.8278 -0.0624
 2006SOL    HW2 8069   1.392   1.679   3.628  0.4632  2.2546 -0.8907
 2006SOL    HW3 8070   1.442   1.589   3.517 -0.1666 -0.0253  0.6524
 2006SOL    MW4 8071   1.378   1.637   3.553  0.1113  0.9036 -0.0772
 2007SOL     OW 8072   1.334   1.917   3.444 -0.1544  0.4895  0.1666
 2007SOL    HW2 8073   1.414   1.966   3.462  0.9622 -1.0560 -0.3876
 2007SOL    HW3 8074   1.340   1.839   3.500 -0.8061 -0.0874 -0.5437
 2007SOL    MW4 8075   1.345   1.913   3.454 -0.0931  0.2096 -0.0005
 2008SOL     OW 8076   1.572   2.054   3.465 -0.3955  0.6340 -0.2416
 2008SOL    HW2 8077   1.648   2.019   3.419 -0.4085  0.5546 -0.2027
 2008SOL    HW3 8078   1.576   2.149   3.450  0.0449  0.6946  0.2636
 2008SOL    MW4 8079   1.583   2.062   3.457 -0.3390  0.6316 -0.1698
 2009SOL     OW 8080   1.598   2.331   3.128  0.4216 -0.0927  0.4294
 2009SOL    HW2 8081   1.599   2.336   3.224 -0.5310  1.0708  0.4062
 2009SOL    HW3 8082   1.582   2.239   3.109 -1.6881  0.0207  1.4418
 2009SOL    MW4 8083   1.596   2.320   3.139  0.0176  0.0758  0.5598
 2010SOL     OW 8084   1.335   2.431   3.526 -0.1463  0.2473  0.0521
 2010SOL    HW2 8085   1.337   2.432   3.622 -0.3817 -0.3903  0.0676
 2010SOL    HW3 8086   1.337   2.523   3.501  1.0074  0.3827  0.6417
 2010SOL    MW4 8087   1.335   2.443   3.536 -0.0250  0.1812  0.1318
 2011SOL     OW 8088   1.357   2.693   3.432  0.1050  0.0139 -0.2766
 2011SOL    HW2 8089   1.423   2.757   3.458  0.8367 -1.1026  0.6605
 2011SOL    HW3 8090   1.368   2.684   3.338  0.8357  0.3373 -0.2228
 2011SOL    MW4 8091   1.367   2.700   3.423  0.2980 -0.0911 -0.1459
 2012SOL     OW 8092   1.811   2.726   3.450 -0.1032  0.2377 -0.3012
 2012SOL    HW2 8093   1.881   2.784   3.480  0.5039  0.1226 -1.4584
 2012SOL    HW3 8094   1.731   2.765   3.486  0.4593  0.9023  0.2507
 2012SOL    MW4 8095   1.809   2.739   3.458  0.0511  0.3102 -0.3810
 2013SOL     OW 8096   1.568   3.138   3.452 -0.1296  0.4603  0.6747
 2013SOL    HW2 8097   1.653   3.175   3.473  0.2733 -0.8603  1.3932
 2013SOL    HW3 8098   1.514   3.157   3.529 -0.6511  1.7366  0.0196
 2013SOL    MW4 8099   1.572   3.146   3.465 -0.1452  0.4544  0.6831
 2014SOL     OW 8100   1.362   3.164   3.661 -0.3142  0.0357 -0.2142
 2014SOL    HW2 8101   1.350   3.168   3.756 -0.8241  2.1789 -0.3496
 2014SOL    HW3 8102   1.277   3.135   3.628  0.1116 -1.5171  0.0317
 2014SOL    MW4 8103   1.349   3.161   3.669 -0.3252  0.1135 -0.1993
 2015SOL     OW 8104   1.435   3.545   3.406  0.6333  0.0235 -0.0775
 2015SOL    HW2 8105   1.432   3.504   3.320  0.2174 -0.4557  0.1598
 2015SOL    HW3 8106   1.346   3.577   3.421  0.5698 -0.3699  0.3999
 2015SOL    MW4 8107   1.423   3.544   3.397  0.5702 -0.0916  0.0169
 2016SOL     OW 8108   0.652   3.638   3.739 -0.4751  0.1923  0.1173
 2016SOL    HW2 8109   0.683   3.653   3.650 -1.0622  0.4594 -0.0448
 2016SOL    HW3 8110   0.671   3.546   3.756  1.8219  0.7378  0.5914
 2016SOL    MW4 8111   0.658   3.628   3.730 -0.2494  0.2999  0.1583
 2017SOL     OW 8112   1.582   3.790   3.384  0.3863  0.0481 -0.6012
 2017SOL    HW2 8113   1.541   3.707   3.409  0.2195  0.4834  0.5668
 2017SOL    HW3 8114   1.666   3.790   3.429  1.3849 -0.4988 -2.3939
 2017SOL    MW4 8115   1.587   3.779   3.393  0.4960  0.0334 -0.6835
 2018SOL     OW 8116   1.407   3.993   3.475 -0.0043  0.0119  0.1601
 2018SOL    HW2 8117   1.331   3.953   3.434  1.2304 -0.5661 -1.6271
 2018SOL    HW3 8118   1.479   3.934   3.454  0.9224  0.4556  1.9691
 2018SOL    MW4 8119   1.407   3.980   3.467  0.2810 -0.0057  0.1631
 2019SOL     OW 8120   1.145   4.400   3.514 -0.1087  0.1284  0.2107
 2019SOL    HW2 8121   1.066   4.364   3.474 -0.2120 -1.5295  1.8328
 2019SOL    HW3 8122   1.215   4.342   3.484  0.1849  0.4202  0.3359
 2019SOL    MW4 8123   1.144   4.387   3.505 -0.0834 -0.0510  0.4411
 2020SOL     OW 8124   1.365   4.263   3.396  0.7867  1.1971 -0.2893
 2020SOL    HW2 8125   1.369   4.170   3.417  1.0398  1.1381 -0.6025
 2020SOL    HW3 8126   1.361   4.266   3.301 -1.0325  1.4348 -0.2360
 2020SOL    MW4 8127   1.365   4.251   3.386  0.5801  1.2207 -0.3238
 2021SOL     OW 8128   2.454   4.651   3.831  0.2553  0.5883  0.1145
 2021SOL    HW2 8129   2.455   4.661   3.736 -0.1986  0.2235  0.0744
 2021SOL    HW3 8130   2.485   4.736   3.864 -0.4871  1.0340 -0.3321
 2021SOL    MW4 8131   2.458   4.664   3.823  0.0975  0.5989  0.0505
 2022SOL     OW 8132   1.361   3.879   3.715  0.3071 -0.3971  0.6621
 2022SOL    HW2 8133   1.380   3.919   3.629  0.9390 -1.0392  0.4996
 2022SOL    HW3 8134   1.393   3.789   3.707 -0.9928 -0.9025  1.0756
 2022SOL    MW4 8135   1.368   3.873   3.702  0.2190 -0.5488  0.6952
 2023SOL     OW 8136   1.851   0.385   3.479  0.1345 -0.0372  0.1613
 2023SOL    HW2 8137   1.846   0.292   3.501 -1.1339 -0.4613 -1.8358
 2023SOL    HW3 8138   1.833   0.389   3.385  0.7329  2.1780  0.1148
 2023SOL    MW4 8139   1.848   0.373   3.470  0.0460  0.1991 -0.1082
 2024SOL     OW 8140   2.093   0.792   3.420  0.4208  0.2498  0.0398
 2024SOL    HW2 8141   2.082   0.697   3.426  1.5306  0.1394  0.3754
 2024SOL    HW3 8142   2.175   0.810   3.466 -0.2759  1.4864  0.8554
 2024SOL    MW4 8143   2.102   0.782   3.427  0.4754  0.3983  0.1917
 2025SOL     OW 8144   2.340   0.883   3.585  0.3493  0.1646 -0.1464
 2025SOL    HW2 8145   2.326   0.970   3.548  2.0224  0.0499 -1.1252
 2025SOL    HW3 8146   2.408   0.845   3.529  2.3622 -0.3235  2.5446
 2025SOL    MW4 8147   2.347   0.890   3.573  0.8357  0.0851  0.0794
 2026SOL     OW 8148   1.854   1.151   3.475 -0.8019  0.4362 -0.0914
 2026SOL    HW2 8149   1.775   1.184   3.519 -0.3395  0.0095  1.0721
 2026SOL    HW3 8150   1.853   1.056   3.491 -1.7797 -0.0905 -2.8645
 2026SOL    MW4 8151   1.843   1.143   3.483 -0.8698  0.3104 -0.3040
 2027SOL     OW 8152   2.077   1.305   3.550  0.2389  0.2660  0.1429
 2027SOL    HW2 8153   2.076   1.380   3.491  0.4494  0.0853 -0.0912
 2027SOL    HW3 8154   2.010   1.246   3.516  0.2821  0.2116  0.1527
 2027SOL    MW4 8155   2.068   1.307   3.538  0.2725  0.2350  0.1132
 2028SOL     OW 8156   1.588   1.270   4.611 -0.2113  0.3200 -0.0016
 2028SOL    HW2 8157   1.658   1.327   4.643 -0.7028  0.2111  1.2914
 2028SOL    HW3 8158   1.627   1.183   4.606  0.2312  0.5598 -0.9532
 2028SOL    MW4 8159   1.602   1.266   4.614 -0.2177  0.3371  0.0439
 2029SOL     OW 8160   2.071   1.553   3.423  0.3245  0.2027  0.1397
 2029SOL    HW2 8161   2.145   1.604   3.455 -0.0160  0.4587  0.5306
 2029SOL    HW3 8162   1.996   1.587   3.472  0.0584 -0.5137  0.2338
 2029SOL    MW4 8163   2.071   1.564   3.434  0.2446  0.1419  0.2036
 2030SOL     OW 8164   1.825   1.660   3.514  0.3280 -0.2565 -0.2305
 2030SOL    HW2 8165   1.815   1.745   3.471  1.7226 -0.2973 -0.6669
 2030SOL    HW3 8166   1.744   1.613   3.494 -0.3171  0.8501 -0.2545
 2030SOL    MW4 8167   1.813   1.665   3.505  0.4269 -0.1160 -0.2913
 2031SOL     OW 8168   1.797   1.919   3.375  0.5333 -0.4976 -0.0505
 2031SOL    HW2 8169   1.885   1.936   3.410  0.2751  2.1796 -0.6473
 2031SOL    HW3 8170   1.813   1.873   3.293  1.3694  0.0464 -0.1955
 2031SOL    MW4 8171   1.811   1.915   3.369  0.6094 -0.0727 -0.1483
 2032SOL     OW 8172   2.039   2.015   3.483  0.2670 -0.4760  0.4701
 2032SOL    HW2 8173   2.112   1.990   3.425 -0.2225 -0.9721  0.0540
 2032SOL    HW3 8174   2.030   2.109   3.471  0.5459 -0.4863  0.1647
 2032SOL    MW4 8175   2.048   2.024   3.474  0.2391 -0.5426  0.3748
 2033SOL     OW 8176   2.001   2.273   3.401 -0.0208 -0.2821 -0.5477
 2033SOL    HW2 8177   2.013   2.299   3.309 -0.4618 -1.3721 -0.9295
 2033SOL    HW3 8178   2.081   2.304   3.445 -0.8615  2.3670 -0.7889
 2033SOL    MW4 8179   2.013   2.280   3.394 -0.1898 -0.0763 -0.6297
 2034SOL     OW 8180   1.581   2.330   3.420 -0.3507  0.1975  0.1791
 2034SOL    HW2 8181   1.653   2.383   3.452  0.0983  0.1374 -0.7390
 2034SOL    HW3 8182   1.503   2.370   3.460  0.0459  1.1078  0.0580
 2034SOL    MW4 8183   1.580   2.342   3.429 -0.2391  0.3097  0.0420
 2035SOL     OW 8184   1.819   2.479   3.531 -0.4874  0.9146  0.2656
 2035SOL    HW2 8185   1.846   2.568   3.506 -0.5731  0.3653 -1.8476
 2035SOL    HW3 8186   1.883   2.422   3.489 -2.4782 -0.1901 -1.3802
 2035SOL    MW4 8187   1.831   2.483   3.522 -0.7613  0.6964 -0.2306
 2036SOL     OW 8188   2.090   3.162   3.470  0.2156 -0.3964 -0.5308
 2036SOL    HW2 8189   2.085   3.176   3.565 -0.3065 -0.0022 -0.6168
 2036SOL    HW3 8190   2.184   3.151   3.453  0.3800  0.2487 -0.0697
 2036SOL    MW4 8191   2.102   3.162   3.480  0.1683 -0.2589 -0.4814
 2037SOL     OW 8192   1.908   3.505   3.470 -0.2778 -0.3207 -0.4861
 2037SOL    HW2 8193   1.891   3.525   3.378  0.0687  0.9650 -0.2892
 2037SOL    HW3 8194   2.003   3.504   3.478 -0.2639  2.2005  0.3540
 2037SOL    MW4 8195   1.918   3.508   3.459 -0.2302  0.1814 -0.3493
 2038SOL     OW 8196   1.733   3.173   3.753  0.2553  0.0731  0.6327
 2038SOL    HW2 8197   1.770   3.237   3.814  0.3848  0.4483  0.1588
 2038SOL    HW3 8198   1.758   3.204   3.666  0.8573 -0.9613  0.4256
 2038SOL    MW4 8199   1.741   3.186   3.750  0.3517 -0.0138  0.5431
 2039SOL     OW 8200   1.526   3.385   3.651 -0.4629  0.1447  0.4742
 2039SOL    HW2 8201   1.478   3.302   3.657  1.0560 -0.7866  0.0140
 2039SOL    HW3 8202   1.504   3.419   3.564 -1.5677  0.5474  0.8959
 2039SOL    MW4 8203   1.516   3.379   3.640 -0.4083  0.0749  0.4690
 2040SOL     OW 8204   2.070   3.793   3.424  0.3084 -0.2084 -0.6191
 2040SOL    HW2 8205   2.109   3.706   3.429  0.4871 -0.1425 -0.8410
 2040SOL    HW3 8206   1.986   3.784   3.468  1.3297  0.0856  1.4875
 2040SOL    MW4 8207   2.064   3.781   3.431  0.4668 -0.1609 -0.3705
 2041SOL     OW 8208   1.619   3.468   4.311 -0.4320 -0.2018  0.6529
 2041SOL    HW2 8209   1.582   3.452   4.224 -0.9866  2.1848  0.4171
 2041SOL    HW3 8210   1.567   3.412   4.369 -0.4506 -1.3702 -0.4529
 2041SOL    MW4 8211   1.607   3.458   4.307 -0.5076 -0.0412  0.4754
 2042SOL     OW 8212   2.261   3.977   3.466 -0.5743 -0.1265  0.2287
 2042SOL    HW2 8213   2.179   3.929   3.466 -0.4326 -0.4045 -2.1665
 2042SOL    HW3 8214   2.238   4.065   3.434  0.0241 -0.1593 -0.3146
 2042SOL    MW4 8215   2.247   3.982   3.462 -0.4766 -0.1671 -0.1593
 2043SOL     OW 8216   1.767   4.374   3.446 -0.0535 -0.0927 -0.1610
 2043SOL    HW2 8217   1.686   4.426   3.446  0.4813  0.7503 -0.0397
 2043SOL    HW3 8218   1.784   4.356   3.354 -0.1924  0.0202 -0.2095
 2043SOL    MW4 8219   1.758   4.379   3.434 -0.0013  0.0334 -0.1514
 2044SOL     OW 8220   2.025   4.423   3.515  0.4375 -0.3239  0.0394
 2044SOL    HW2 8221   1.930   4.419   3.502  0.6840 -1.1850 -1.6110
 2044SOL    HW3 8222   2.036   4.418   3.610 -1.1510 -0.4574  0.2330
 2044SOL    MW4 8223   2.014   4.422   3.526  0.2608 -0.4549 -0.1528
 2045SOL     OW 8224   2.964   4.657   3.415  0.0255 -0.4225 -0.2066
 2045SOL    HW2 8225   3.043   4.708   3.434 -0.7275  0.6644  0.0316
 2045SOL    HW3 8226   2.943   4.679   3.324 -0.4085 -0.1517 -0.0433
 2045SOL    MW4 8227   2.972   4.667   3.405 -0.1309 -0.2433 -0.1538
 2046SOL     OW 8228   2.308   0.388   3.400 -0.1524 -0.0587 -0.1626
 2046SOL    HW2 8229   2.236   0.431   3.447  0.9572  1.7783 -0.1372
 2046SOL    HW3 8230   2.387   0.419   3.444  0.8649  0.9548 -2.6845
 2046SOL    MW4 8231   2.309   0.398   3.412  0.1283  0.3174 -0.4916
 2047SOL     OW 8232   2.850   1.031   4.394 -0.2294  0.0142  0.3772
 2047SOL    HW2 8233   2.936   1.033   4.351 -0.6616  1.1282 -0.4595
 2047SOL    HW3 8234   2.830   1.123   4.411 -0.9646 -0.2896  1.1717
 2047SOL    MW4 8235   2.859   1.043   4.390 -0.3834  0.1212  0.3719
 2048SOL     OW 8236   2.881   0.491   4.022  0.2868  0.0062 -0.3668
 2048SOL    HW2 8237   2.914   0.574   4.057  0.2323 -0.3556  0.5268
 2048SOL    HW3 8238   2.794   0.482   4.061  1.0904 -1.4659  1.1047
 2048SOL    MW4 8239   2.874   0.501   4.032  0.3858 -0.2358 -0.0548
 2049SOL     OW 8240   2.548   0.756   3.444 -0.0226  0.1779  0.3885
 2049SOL    HW2 8241   2.528   0.751   3.351 -2.1264  0.3195  0.8031
 2049SOL    HW3 8242   2.549   0.665   3.473  1.9220  0.0547 -0.0076
 2049SOL    MW4 8243   2.545   0.743   3.436 -0.0436  0.1803  0.3912
 2050SOL     OW 8244   2.185   1.389   4.140  0.2229 -0.1432 -0.3324
 2050SOL    HW2 8245   2.264   1.418   4.093  0.1148 -0.3292 -0.6317
 2050SOL    HW3 8246   2.194   1.294   4.145  1.1748  0.0225  1.7170
 2050SOL    MW4 8247   2.197   1.380   4.134  0.3343 -0.1459 -0.1011
 2051SOL     OW 8248   2.272   1.129   3.456 -0.0830 -0.6419 -0.5573
 2051SOL    HW2 8249   2.353   1.178   3.472  0.5611 -1.6417 -0.6859
 2051SOL    HW3 8250   2.202   1.188   3.484  0.8476 -1.1377  2.9949
 2051SOL    MW4 8251   2.274   1.143   3.461  0.1249 -0.8392 -0.1056
 2052SOL     OW 8252   2.482   1.292   3.535  0.0675 -0.0095 -0.5152
 2052SOL    HW2 8253   2.468   1.295   3.630  0.0092  1.1919 -0.5462
 2052SOL    HW3 8254   2.554   1.231   3.523  0.8316  0.7002  0.4118
 2052SOL    MW4 8255   2.490   1.285   3.546  0.1607  0.2426 -0.3970
 2053SOL     OW 8256   2.290   1.682   3.536  0.6403 -0.0264  0.6764
 2053SOL    HW2 8257   2.371   1.635   3.518  0.7434 -0.0073  1.0871
 2053SOL    HW3 8258   2.303   1.768   3.495  0.7944 -0.0505  0.6732
 2053SOL    MW4 8259   2.302   1.687   3.528  0.6740 -0.0271  0.7303
 2054SOL     OW 8260   2.088   1.764   3.913 -0.1577 -0.1792  0.0879
 2054SOL    HW2 8261   2.080   1.834   3.849 -1.5858  1.1467  1.6612
 2054SOL    HW3 8262   2.092   1.809   3.998  0.4646 -1.9354  1.0171
 2054SOL    MW4 8263   2.088   1.779   3.916 -0.2639 -0.2360  0.4182
 2055SOL     OW 8264   2.577   1.921   3.422  0.4321  0.4564 -0.0180
 2055SOL    HW2 8265   2.612   1.949   3.338  1.0469  0.7406  0.3303
 2055SOL    HW3 8266   2.642   1.858   3.455 -1.2124 -1.8519 -1.0652
 2055SOL    MW4 8267   2.590   1.916   3.416  0.2964  0.1893 -0.1101
 2056SOL     OW 8268   2.286   1.914   3.392  0.0246 -0.7172  0.0808
 2056SOL    HW2 8269   2.278   1.938   3.299 -0.5709 -2.4467 -0.3381
 2056SOL    HW3 8270   2.380   1.912   3.408  0.1130  1.2375 -0.0191
 2056SOL    MW4 8271   2.297   1.917   3.382 -0.0422 -0.6876  0.0124
 2057SOL     OW 8272   2.463   2.360   3.485  0.0649 -0.3005  0.6288
 2057SOL    HW2 8273   2.536   2.420   3.497  0.1339 -0.1317 -0.5134
 2057SOL    HW3 8274   2.480   2.288   3.546  0.5995  0.2725  1.1556
 2057SOL    MW4 8275   2.475   2.358   3.494  0.1445 -0.2029  0.5476
 2058SOL     OW 8276   1.907   2.135   3.873 -0.0942 -0.5370 -0.7711
 2058SOL    HW2 8277   1.954   2.216   3.853  0.9746 -1.3925 -1.7974
 2058SOL    HW3 8278   1.825   2.142   3.825 -0.4930  0.4115  0.0310
 2058SOL    MW4 8279   1.903   2.146   3.864 -0.0057 -0.5250 -0.8008
 2059SOL     OW 8280   2.208   2.419   3.562 -0.5193  0.0788 -0.0023
 2059SOL    HW2 8281   2.292   2.389   3.526  0.2141 -1.0068  2.5015
 2059SOL    HW3 8282   2.201   2.510   3.534  1.0579 -0.0890 -1.0131
 2059SOL    MW4 8283   2.218   2.427   3.554 -0.2146 -0.0865  0.1948
 2060SOL     OW 8284   2.433   2.897   3.486 -0.0255  0.1507  0.0901
 2060SOL    HW2 8285   2.512   2.861   3.446  0.0976  0.1274  0.3541
 2060SOL    HW3 8286   2.367   2.828   3.475  0.2504 -0.2252  0.7260
 2060SOL    MW4 8287   2.435   2.883   3.479  0.0269  0.0982  0.2089
 2061SOL     OW 8288   2.354   3.134   3.386 -0.3123 -0.2305  0.3515
 2061SOL    HW2 8289   2.397   3.116   3.302  1.0325  0.6331  0.8292
 2061SOL    HW3 8290   2.374   3.057   3.440 -0.4516 -0.4012  0.1608
 2061SOL    MW4 8291   2.362   3.121   3.382 -0.1531 -0.1390  0.3893
 2062SOL     OW 8292   2.055   3.160   3.746  0.4940  0.1628  0.6716
 2062SOL    HW2 8293   2.142   3.161   3.784  1.3620 -0.1284 -1.2352
 2062SOL    HW3 8294   1.997   3.187   3.817  2.0090 -0.6075  2.2420
 2062SOL    MW4 8295   2.059   3.163   3.760  0.8080  0.0224  0.6273
 2063SOL     OW 8296   2.010   3.470   3.756 -0.2043  0.0439 -0.0722
 2063SOL    HW2 8297   1.974   3.523   3.827 -1.3413  0.2862 -0.8148
 2063SOL    HW3 8298   1.938   3.460   3.694  1.2796  1.3472 -2.0838
 2063SOL    MW4 8299   1.996   3.476   3.757 -0.1584  0.2480 -0.4356
 2064SOL     OW 8300   2.644   4.020   3.961  0.6715 -0.5996 -0.3646
 2064SOL    HW2 8301   2.628   3.984   4.048 -1.6761  0.0328 -0.5125
 2064SOL    HW3 8302   2.615   3.951   3.901 -0.7752  0.2311 -0.6368
 2064SOL    MW4 8303   2.638   4.006   3.964  0.1707 -0.4063 -0.4199
 2065SOL     OW 8304   2.509   3.870   3.397 -0.2209  0.4284  0.6736
 2065SOL    HW2 8305   2.561   3.930   3.451  0.2817  0.0914  0.5666
 2065SOL    HW3 8306   2.418   3.894   3.417 -0.0296  1.1894  0.6720
 2065SOL    MW4 8307   2.504   3.881   3.407 -0.1292  0.4845  0.6595
 2066SOL     OW 8308   1.830   3.923   3.814 -0.6302  0.4582  0.2114
 2066SOL    HW2 8309   1.896   3.990   3.798  0.1072 -0.6490 -1.4903
 2066SOL    HW3 8310   1.749   3.972   3.826 -0.2267  1.6352 -1.7044
 2066SOL    MW4 8311   1.828   3.938   3.814 -0.4796  0.4673 -0.2656
 2067SOL     OW 8312   2.209   4.237   3.406  0.2889 -0.0204  0.7013
 2067SOL    HW2 8313   2.130   4.281   3.438  1.0764  0.3409  2.2156
 2067SOL    HW3 8314   2.203   4.243   3.311 -0.3812  2.0488  0.8429
 2067SOL    MW4 8315   2.197   4.244   3.398  0.3042  0.3004  0.9198
 2068SOL     OW 8316   2.442   4.384   3.403  0.3868  0.4755 -0.2113
 2068SOL    HW2 8317   2.354   4.347   3.407 -0.6119  2.7400 -0.2366
 2068SOL    HW3 8318   2.441   4.454   3.469  2.6249 -0.4008  0.7849
 2068SOL    MW4 8319   2.430   4.389   3.412  0.5503  0.6585 -0.0832
 2069SOL     OW 8320   2.861   4.405   3.502  0.2727  0.2152  0.0743
 2069SOL    HW2 8321   2.872   4.493   3.466  0.4466 -0.1685 -0.8113
 2069SOL    HW3 8322   2.845   4.420   3.596 -0.6558  1.2374 -0.2284
 2069SOL    MW4 8323   2.860   4.419   3.510  0.1733  0.2995 -0.0825
 2070SOL     OW 8324   3.554   0.531   4.755  0.4094 -0.5117  0.0168
 2070SOL    HW2 8325   3.610   0.456   4.734  0.2695 -0.7673  0.5556
 2070SOL    HW3 8326   3.594   0.570   4.832  0.2612 -0.2567 -0.0356
 2070SOL    MW4 8327   3.566   0.526   4.762  0.3715 -0.5118  0.0806
 2071SOL     OW 8328   2.725   0.338   3.393  0.0130 -0.5441 -0.1744
 2071SOL    HW2 8329   2.800   0.393   3.418 -0.0100 -0.6094  0.0429
 2071SOL    HW3 8330   2.735   0.325   3.299  0.4577 -0.8256 -0.0908
 2071SOL    MW4 8331   2.736   0.344   3.384  0.0684 -0.5898 -0.1347
 2072SOL     OW 8332   2.938   0.490   3.479  0.0376 -0.2031  0.3689
 2072SOL    HW2 8333   2.950   0.487   3.574  1.7208  0.6731  0.2027
 2072SOL    HW3 8334   2.944   0.583   3.457 -2.3689 -0.1977 -0.3637
 2072SOL    MW4 8335   2.941   0.502   3.488 -0.0577 -0.0868  0.2503
 2073SOL     OW 8336   2.972   0.800   3.423 -0.0306  0.1176 -0.5594
 2073SOL    HW2 8337   3.049   0.823   3.475 -0.9282  2.9876 -0.4495
 2073SOL    HW3 8338   2.898   0.837   3.471 -1.1456  0.3918 -2.4318
 2073SOL    MW4 8339   2.972   0.808   3.436 -0.2961  0.5324 -0.7920
 2074SOL     OW 8340   2.763   0.915   3.548 -0.4180  0.0834  0.1854
 2074SOL    HW2 8341   2.696   0.863   3.504 -0.5158 -0.5189  1.0393
 2074SOL    HW3 8342   2.748   1.005   3.517 -1.1747 -0.1626 -0.1634
 2074SOL    MW4 8343   2.752   0.920   3.538 -0.5310 -0.0285  0.2520
 2075SOL     OW 8344   2.696   1.147   3.441  0.0688  0.1490  0.0282
 2075SOL    HW2 8345   2.784   1.180   3.460  0.5619 -0.5514 -0.9822
 2075SOL    HW3 8346   2.693   1.141   3.345 -0.1217 -2.3461  0.1628
 2075SOL    MW4 8347   2.707   1.150   3.431  0.1090 -0.2725 -0.0877
 2076SOL     OW 8348   2.897   1.310   3.523  0.1096 -0.4494 -0.3760
 2076SOL    HW2 8349   2.899   1.340   3.614 -0.4951  1.0090 -0.8230
 2076SOL    HW3 8350   2.982   1.268   3.509  1.0803  1.2717  0.2206
 2076SOL    MW4 8351   2.908   1.308   3.533  0.1581 -0.0299 -0.3562
 2077SOL     OW 8352   2.914   1.595   3.454 -0.2076  0.7358  0.4075
 2077SOL    HW2 8353   2.862   1.638   3.522  0.7435  0.6465  1.1955
 2077SOL    HW3 8354   2.898   1.501   3.467 -0.0557  0.7201  0.4798
 2077SOL    MW4 8355   2.905   1.588   3.464 -0.0620  0.7219  0.5209
 2078SOL     OW 8356   2.529   1.558   3.478  0.0757 -0.3522 -0.3204
 2078SOL    HW2 8357   2.519   1.571   3.384 -1.6235 -0.1632 -0.1342
 2078SOL    HW3 8358   2.512   1.464   3.491  2.1700 -0.7650 -0.4162
 2078SOL    MW4 8359   2.525   1.547   3.468  0.1278 -0.3817 -0.3085
 2079SOL     OW 8360   2.597   2.115   3.636  0.3352 -0.6840 -0.2739
 2079SOL    HW2 8361   2.552   2.080   3.713  1.8744 -1.4970  0.2703
 2079SOL    HW3 8362   2.577   2.053   3.567 -0.1293 -0.5431 -0.2734
 2079SOL    MW4 8363   2.588   2.102   3.637  0.4773 -0.7727 -0.2019
 2080SOL     OW 8364   2.876   2.110   3.552 -0.8370  0.0591  0.1789
 2080SOL    HW2 8365   2.909   2.131   3.639  0.1562 -0.0964 -0.1565
 2080SOL    HW3 8366   2.781   2.105   3.563 -0.7048 -0.1454  1.2862
 2080SOL    MW4 8367   2.867   2.112   3.565 -0.6883  0.0117  0.2806
 2081SOL     OW 8368   2.891   2.362   3.422 -0.2662 -0.2583 -0.0712
 2081SOL    HW2 8369   2.884   2.278   3.466  0.3065 -0.7210 -0.8616
 2081SOL    HW3 8370   2.891   2.341   3.329 -0.7151  0.6568 -0.2844
 2081SOL    MW4 8371   2.890   2.348   3.416 -0.2499 -0.1986 -0.2034
 2082SOL     OW 8372   4.342   0.675   4.211 -0.0794 -0.3741  0.0282
 2082SOL    HW2 8373   4.370   0.761   4.242  0.6191 -0.8167  0.6222
 2082SOL    HW3 8374   4.276   0.647   4.274 -0.3496 -0.2480 -0.1982
 2082SOL    MW4 8375   4.337   0.683   4.223 -0.0229 -0.4159  0.0772
 2083SOL     OW 8376   3.110   2.764   3.458  0.6084  0.1670  0.1557
 2083SOL    HW2 8377   3.203   2.771   3.480  0.7131 -2.2062  0.5678
 2083SOL    HW3 8378   3.088   2.673   3.476 -1.8013  0.6988  0.0099
 2083SOL    MW4 8379   3.120   2.753   3.463  0.3042 -0.0758  0.1907
 2084SOL     OW 8380   3.511   3.789   4.827 -0.1858  0.3358  0.0197
 2084SOL    HW2 8381   3.556   3.858   4.779 -0.1750 -0.1533 -0.6766
 2084SOL    HW3 8382   3.580   3.745   4.877 -0.4188  1.7760  1.6294
 2084SOL    MW4 8383   3.526   3.792   4.827 -0.2151  0.4613  0.1397
 2085SOL     OW 8384   2.872   3.187   3.430  0.2351  0.8022  0.6181
 2085SOL    HW2 8385   2.877   3.099   3.468  0.8800  0.5366 -0.0672
 2085SOL    HW3 8386   2.875   3.172   3.336  0.8996  1.5999  0.5111
 2085SOL    MW4 8387   2.873   3.174   3.423  0.4077  0.8726  0.5136
 2086SOL     OW 8388   2.216   4.542   3.982 -0.2552  0.4051  0.1391
 2086SOL    HW2 8389   2.228   4.535   4.077 -1.7481  1.2714  0.4070
 2086SOL    HW3 8390   2.303   4.565   3.949  0.7242 -1.7942  1.0712
 2086SOL    MW4 8391   2.229   4.544   3.991 -0.3228  0.2284  0.2978
 2087SOL     OW 8392   2.555   3.234   3.780 -0.2380 -0.0374  0.2480
 2087SOL    HW2 8393   2.544   3.302   3.847 -0.7603  0.2258 -0.1020
 2087SOL    HW3 8394   2.640   3.254   3.740  0.1401 -0.2743  0.9120
 2087SOL    MW4 8395   2.565   3.246   3.783 -0.2568 -0.0339  0.2892
 2088SOL     OW 8396   2.363   3.039   3.750 -0.0598  0.2639 -0.2725
 2088SOL    HW2 8397   2.417   2.974   3.705 -0.0745  1.2793 -1.7792
 2088SOL    HW3 8398   2.425   3.104   3.782 -0.1849  0.2437  0.0201
 2088SOL    MW4 8399   2.378   3.039   3.749 -0.0784  0.3951 -0.4327
 2089SOL     OW 8400   2.937   3.898   3.433  0.1219  0.0556  0.5359
 2089SOL    HW2 8401   2.861   3.932   3.481 -0.6128 -2.5374  1.2547
 2089SOL    HW3 8402   2.945   3.807   3.461  2.6813 -0.1122 -0.5819
 2089SOL    MW4 8403   2.928   3.891   3.443  0.3624 -0.3088  0.4833
 2090SOL     OW 8404   2.237   3.653   4.404 -0.2449  0.1979  0.1177
 2090SOL    HW2 8405   2.152   3.646   4.447  0.3931 -0.0333  1.3725
 2090SOL    HW3 8406   2.294   3.693   4.470  1.0215 -1.1619 -0.1349
 2090SOL    MW4 8407   2.234   3.658   4.418  0.0064 -0.0117  0.2494
 2091SOL     OW 8408   1.996   4.012   4.325  0.1913 -0.1465 -0.0111
 2091SOL    HW2 8409   1.962   3.938   4.375 -0.0119 -0.0431  0.0024
 2091SOL    HW3 8410   1.986   4.087   4.384  2.0867 -0.4066  0.6942
 2091SOL    MW4 8411   1.990   4.012   4.339  0.4146 -0.1674  0.0839
 2092SOL     OW 8412   2.939   0.426   3.750  0.2074  0.1024  0.0937
 2092SOL    HW2 8413   2.887   0.346   3.747 -0.9261  0.7692  1.6049
 2092SOL    HW3 8414   2.912   0.469   3.831  1.4904  1.5598 -0.2397
 2092SOL    MW4 8415   2.929   0.421   3.760  0.2272  0.3827  0.2489
 2093SOL     OW 8416   3.433   0.052   3.395  0.2375 -0.1293  0.4596
 2093SOL    HW2 8417   3.362   0.109   3.423 -0.2924 -0.7414  0.3617
 2093SOL    HW3 8418   3.428   0.051   3.299 -0.5935 -1.3956  0.5038
 2093SOL    MW4 8419   3.423   0.059   3.386  0.0579 -0.3771  0.4525
 2094SOL     OW 8420   3.176   0.175   3.473 -0.5617 -0.6729  0.6569
 2094SOL    HW2 8421   3.162   0.167   3.567  3.0190  1.1845  1.4399
 2094SOL    HW3 8422   3.184   0.269   3.458  1.2138 -1.0850 -1.1292
 2094SOL    MW4 8423   3.175   0.187   3.483  0.1450 -0.4822  0.5245
 2095SOL     OW 8424   3.184   0.442   3.398 -0.4396  0.6545  0.0226
 2095SOL    HW2 8425   3.093   0.457   3.423 -0.2582 -0.4869  1.4637
 2095SOL    HW3 8426   3.183   0.437   3.303 -1.6542  2.0849 -0.0493
 2095SOL    MW4 8427   3.172   0.443   3.389 -0.5758  0.6926  0.2034
 2096SOL     OW 8428   3.436   0.525   3.549 -0.2993 -0.7268  0.4340
 2096SOL    HW2 8429   3.432   0.497   3.641  1.0326 -2.6008 -0.0395
 2096SOL    HW3 8430   3.363   0.479   3.508 -0.7591 -0.0614  0.4953
 2096SOL    MW4 8431   3.426   0.515   3.556 -0.1845 -0.8863  0.3796
 2097SOL     OW 8432   3.674   0.433   3.443 -0.1751 -0.3585 -0.4124
 2097SOL    HW2 8433   3.600   0.473   3.489 -0.6297  0.5443 -1.8704
 2097SOL    HW3 8434   3.751   0.464   3.490 -0.6877 -0.8789  0.8000
 2097SOL    MW4 8435   3.675   0.443   3.455 -0.3026 -0.3081 -0.4447
 2098SOL     OW 8436   3.167   0.913   3.584 -0.0930 -0.0449  0.1917
 2098SOL    HW2 8437   3.135   1.002   3.565  1.2767  0.4190  0.0146
 2098SOL    HW3 8438   3.243   0.903   3.527 -1.2924 -2.0209 -1.1183
 2098SOL    MW4 8439   3.172   0.923   3.574 -0.0706 -0.2444 -0.0043
 2099SOL     OW 8440   3.121   1.161   3.478  0.3422  0.0814  0.4238
 2099SOL    HW2 8441   3.125   1.144   3.384  1.2777  0.1060  0.4579
 2099SOL    HW3 8442   3.203   1.206   3.498  0.4134 -0.4549  1.3648
 2099SOL    MW4 8443   3.132   1.165   3.469  0.4752  0.0138  0.5524
 2100SOL     OW 8444   3.384   1.271   3.540 -0.0889 -0.0782  0.5823
 2100SOL    HW2 8445   3.384   1.361   3.507 -1.8205 -0.5993 -0.9155
 2100SOL    HW3 8446   3.453   1.227   3.491 -1.4234 -0.3779 -1.0558
 2100SOL    MW4 8447   3.393   1.277   3.529 -0.4933 -0.1864  0.1686
 2101SOL     OW 8448   3.368   1.528   3.439 -0.5667  0.3486 -0.8794
 2101SOL    HW2 8449   3.440   1.573   3.482 -0.4497 -0.6701  0.0141
 2101SOL    HW3 8450   3.289   1.573   3.471 -0.3649  1.1878 -1.5342
 2101SOL    MW4 8451   3.367   1.540   3.449 -0.5248  0.3251 -0.8478
 2102SOL     OW 8452   3.173   1.713   3.536  0.0219  0.2790 -0.6800
 2102SOL    HW2 8453   3.181   1.806   3.517  0.3009  0.2335 -0.7783
 2102SOL    HW3 8454   3.092   1.687   3.492 -0.1817  0.5263 -0.4542
 2102SOL    MW4 8455   3.163   1.722   3.528  0.0319  0.3054 -0.6630
 2103SOL     OW 8456   3.370   2.104   3.544  0.2474 -0.0043 -0.4629
 2103SOL    HW2 8457   3.366   2.188   3.499  0.5195  0.5550  0.5349
 2103SOL    HW3 8458   3.285   2.063   3.527 -0.3292  0.9869  0.0291
 2103SOL    MW4 8459   3.358   2.109   3.536  0.2074  0.2005 -0.2663
 2104SOL     OW 8460   3.577   1.929   3.445  0.5854  0.0319 -0.0494
 2104SOL    HW2 8461   3.510   1.992   3.472  0.9802  0.8811 -1.0079
 2104SOL    HW3 8462   3.659   1.967   3.477  0.6952 -0.6258  0.4563
 2104SOL    MW4 8463   3.579   1.942   3.453  0.6521  0.0572 -0.1092
 2105SOL     OW 8464   3.352   2.356   3.431 -0.0815  0.1372 -0.2635
 2105SOL    HW2 8465   3.426   2.399   3.472 -0.6114  0.7497  0.0507
 2105SOL    HW3 8466   3.275   2.393   3.474 -0.5835 -0.2870 -0.7788
 2105SOL    MW4 8467   3.351   2.366   3.442 -0.2177  0.1621 -0.2902
 2106SOL     OW 8468   3.127   2.480   3.512 -0.2817 -0.3384 -0.0263
 2106SOL    HW2 8469   3.120   2.498   3.606 -1.3654  0.7065 -0.2940
 2106SOL    HW3 8470   3.047   2.432   3.490 -0.5126  0.2987 -0.6071
 2106SOL    MW4 8471   3.115   2.476   3.521 -0.4551 -0.1166 -0.1383
 2107SOL     OW 8472   2.710   2.774   3.436 -0.0639  0.0099 -0.0966
 2107SOL    HW2 8473   2.718   2.686   3.473  0.5130  0.3201  0.5162
 2107SOL    HW3 8474   2.778   2.825   3.480 -2.1816  1.4545  1.5215
 2107SOL    MW4 8475   2.720   2.769   3.446 -0.2673  0.2413  0.1976
 2108SOL     OW 8476   2.628   1.317   4.681  0.2323  0.0565  1.0186
 2108SOL    HW2 8477   2.614   1.410   4.661  0.3457 -0.3517 -1.1735
 2108SOL    HW3 8478   2.562   1.272   4.627  2.3836 -1.2963 -0.5576
 2108SOL    MW4 8479   2.617   1.323   4.671  0.5310 -0.1758  0.5212
 2109SOL     OW 8480   3.596   3.231   3.550  0.2024 -0.3904  0.0429
 2109SOL    HW2 8481   3.601   3.317   3.509  1.7381  0.1964  1.3851
 2109SOL    HW3 8482   3.516   3.191   3.515 -0.4407  1.5227 -0.6908
 2109SOL    MW4 8483   3.586   3.237   3.540  0.3202 -0.0608  0.1233
 2110SOL     OW 8484   3.128   3.232   3.553  0.3231 -0.2599 -0.2993
 2110SOL    HW2 8485   3.141   3.318   3.511  0.5189  0.7744  1.8431
 2110SOL    HW3 8486   3.043   3.202   3.519  0.1296  0.8864 -0.8742
 2110SOL    MW4 8487   3.118   3.240   3.543  0.3233  0.0277 -0.0925
 2111SOL     OW 8488   2.670   3.614   3.454 -0.0131  0.1628 -0.1132
 2111SOL    HW2 8489   2.627   3.699   3.447  0.6909  0.4211 -1.5151
 2111SOL    HW3 8490   2.751   3.632   3.502 -1.1174 -0.2102  1.9555
 2111SOL    MW4 8491   2.675   3.627   3.460 -0.0660  0.1476 -0.0250
 2112SOL     OW 8492   2.690   4.531   3.973 -0.3501  0.3229  0.1013
 2112SOL    HW2 8493   2.631   4.578   3.915 -0.0787 -1.5875 -1.7912
 2112SOL    HW3 8494   2.638   4.459   4.009  0.3295 -0.3474 -0.2248
 2112SOL    MW4 8495   2.676   4.528   3.970 -0.2246 -0.0176 -0.1915
 2113SOL     OW 8496   3.375   3.982   3.391  0.6387 -0.3418 -0.1068
 2113SOL    HW2 8497   3.446   3.983   3.455  1.2824  2.8135 -0.7472
 2113SOL    HW3 8498   3.301   4.021   3.436  1.1301  2.0122 -1.2384
 2113SOL    MW4 8499   3.375   3.987   3.405  0.7887  0.3850 -0.3407
 2114SOL     OW 8500   3.134   4.088   3.541  0.4089 -0.0004 -0.4327
 2114SOL    HW2 8501   3.118   4.164   3.485 -0.3173  0.4886  0.4343
 2114SOL    HW3 8502   3.077   4.019   3.505  1.0422 -0.1326 -1.1975
 2114SOL    MW4 8503   3.124   4.089   3.529  0.3965  0.0463 -0.4191
 2115SOL     OW 8504   3.129   4.339   3.371 -0.4652 -0.4866  0.0309
 2115SOL    HW2 8505   3.195   4.393   3.415  0.0759 -0.6993 -0.5083
 2115SOL    HW3 8506   3.046   4.364   3.412  0.1308 -1.3070  1.7651
 2115SOL    MW4 8507   3.127   4.350   3.382 -0.3152 -0.6227  0.1884
 2116SOL     OW 8508   3.370   4.459   3.474 -0.4061 -0.5227  0.2212
 2116SOL    HW2 8509   3.335   4.461   3.563 -0.7812  0.5008  0.0664
 2116SOL    HW3 8510   3.400   4.549   3.458  0.9288 -1.0300 -0.1879
 2116SOL    MW4 8511   3.369   4.471   3.484 -0.2792 -0.4549  0.1469
 2117SOL     OW 8512   3.841   4.618   3.482 -0.1919  0.2036  0.1541
 2117SOL    HW2 8513   3.780   4.688   3.506 -0.6474 -0.0701 -0.1966
 2117SOL    HW3 8514   3.854   4.628   3.388 -1.6859 -1.2879 -0.2382
 2117SOL    MW4 8515   3.835   4.628   3.473 -0.4492 -0.0291  0.0563
 2118SOL     OW 8516   3.902   1.334   4.226  0.0761 -0.0394  0.2209
 2118SOL    HW2 8517   3.918   1.403   4.290  2.3981 -0.2921 -0.0263
 2118SOL    HW3 8518   3.885   1.256   4.278 -2.2458  0.6106  0.5008
 2118SOL    MW4 8519   3.902   1.333   4.241  0.0761  0.0131  0.2251
 2119SOL     OW 8520   3.656   0.157   3.517 -0.0021 -0.3016  0.5051
 2119SOL    HW2 8521   3.578   0.132   3.467  2.1201 -0.6861 -2.7987
 2119SOL    HW3 8522   3.669   0.249   3.497  0.8538 -0.4495  0.3421
 2119SOL    MW4 8523   3.648   0.166   3.508  0.3908 -0.3718  0.0477
 2120SOL     OW 8524   3.888   0.528   3.602 -0.5461 -0.0151  0.4501
 2120SOL    HW2 8525   3.887   0.485   3.687 -0.0369 -0.4196  0.2520
 2120SOL    HW3 8526   3.957   0.483   3.553 -0.1298  0.8995  0.1859
 2120SOL    MW4 8527   3.897   0.517   3.607 -0.4239  0.0521  0.3889
 2121SOL     OW 8528   3.866   0.767   3.482  0.0663  0.0472 -0.3691
 2121SOL    HW2 8529   3.938   0.822   3.514 -1.6199  1.5922  0.8556
 2121SOL    HW3 8530   3.880   0.683   3.526 -0.2136  1.0691  1.7646
 2121SOL    MW4 8531   3.877   0.763   3.492 -0.1931  0.3858  0.0739
 2122SOL     OW 8532   3.408   4.246   4.219  0.3171 -0.4807 -0.0873
 2122SOL    HW2 8533   3.493   4.290   4.225 -0.4037  0.8177  0.6289
 2122SOL    HW3 8534   3.376   4.269   4.131 -0.3787  1.0546  0.5418
 2122SOL    MW4 8535   3.415   4.255   4.208  0.1302 -0.1063  0.0901
 2123SOL     OW 8536   3.575   1.161   3.385  0.3038 -0.2906  0.2012
 2123SOL    HW2 8537   3.585   1.070   3.411 -3.8804 -1.0462 -0.5573
 2123SOL    HW3 8538   3.561   1.158   3.291 -1.3596  0.9936  0.3822
 2123SOL    MW4 8539   3.574   1.149   3.376 -0.4680 -0.2209  0.1249
 2124SOL     OW 8540   3.614   0.905   3.524  0.3504 -0.1088 -0.3545
 2124SOL    HW2 8541   3.620   0.886   3.618 -0.6395 -0.8420 -0.4242
 2124SOL    HW3 8542   3.696   0.874   3.487  0.9497  0.6318  0.3435
 2124SOL    MW4 8543   3.625   0.899   3.532  0.2987 -0.1078 -0.2718
 2125SOL     OW 8544   3.794   1.518   3.420 -0.3109 -0.1203  0.3058
 2125SOL    HW2 8545   3.866   1.559   3.469  1.2498 -0.1264 -1.8910
 2125SOL    HW3 8546   3.793   1.427   3.451  1.2129 -0.3457 -0.2450
 2125SOL    MW4 8547   3.803   1.511   3.431  0.0961 -0.1507 -0.0565
 2126SOL     OW 8548   3.585   1.666   3.538 -0.7039  0.2844  0.1249
 2126SOL    HW2 8549   3.580   1.756   3.505  0.9398  0.2230 -0.3203
 2126SOL    HW3 8550   3.657   1.626   3.489  0.5158 -0.3983  2.3688
 2126SOL    MW4 8551   3.594   1.673   3.527 -0.3259  0.1862  0.3622
 2127SOL     OW 8552   3.820   2.055   3.533 -0.4299 -0.0757 -0.6703
 2127SOL    HW2 8553   3.905   2.016   3.511 -0.1306  0.6607 -0.8111
 2127SOL    HW3 8554   3.815   2.047   3.628  0.2556  0.8183 -0.5522
 2127SOL    MW4 8555   3.831   2.049   3.543 -0.2999  0.1395 -0.6735
 2128SOL     OW 8556   2.533   2.456   4.339  0.0212  0.5652  0.1585
 2128SOL    HW2 8557   2.560   2.443   4.248 -1.0629 -0.4383 -0.0325
 2128SOL    HW3 8558   2.450   2.504   4.332 -0.0361  0.5327  0.6240
 2128SOL    MW4 8559   2.526   2.461   4.326 -0.1295  0.4284  0.1945
 2129SOL     OW 8560   3.790   2.309   3.426  0.0711 -0.0288 -0.0097
 2129SOL    HW2 8561   3.874   2.342   3.456 -0.4325 -0.9935  2.5790
 2129SOL    HW3 8562   3.786   2.219   3.460 -2.1162  0.1206  0.1895
 2129SOL    MW4 8563   3.800   2.301   3.435 -0.2840 -0.1361  0.3581
 2130SOL     OW 8564   3.590   2.468   3.555  0.0564  0.1653 -0.5416
 2130SOL    HW2 8565   3.581   2.552   3.510  1.1339  1.2316  1.1998
 2130SOL    HW3 8566   3.653   2.420   3.502  0.5422  1.0121 -0.7408
 2130SOL    MW4 8567   3.597   2.473   3.542  0.2627  0.4177 -0.3381
 2131SOL     OW 8568   3.588   2.722   3.442 -0.2652 -0.0495  0.2129
 2131SOL    HW2 8569   3.656   2.769   3.492 -0.6620  0.0910  0.6280
 2131SOL    HW3 8570   3.614   2.733   3.351 -0.4894  1.2092  0.2840
 2131SOL    MW4 8571   3.601   2.730   3.437 -0.3471  0.1352  0.2773
 2132SOL     OW 8572   3.496   2.530   4.201  0.1563 -0.3263  0.5590
 2132SOL    HW2 8573   3.435   2.457   4.212 -1.3868  1.0318  1.0745
 2132SOL    HW3 8574   3.448   2.607   4.230  2.3098  0.6916  1.5464
 2132SOL    MW4 8575   3.482   2.530   4.206  0.2372 -0.0129  0.7572
 2133SOL     OW 8576   3.792   2.862   3.558 -0.2596  0.4232 -0.1728
 2133SOL    HW2 8577   3.817   2.853   3.650  0.2712  0.6638 -0.2861
 2133SOL    HW3 8578   3.810   2.954   3.538  1.5066 -0.0949 -1.0541
 2133SOL    MW4 8579   3.798   2.873   3.567  0.0434  0.3870 -0.3040
 2134SOL     OW 8580   3.841   3.131   3.470  0.3725  0.2241 -0.1414
 2134SOL    HW2 8581   3.825   3.126   3.376  0.2622 -1.5617 -0.0374
 2134SOL    HW3 8582   3.767   3.181   3.504  1.4369  2.6234 -1.2341
 2134SOL    MW4 8583   3.829   3.137   3.462  0.4985  0.3052 -0.2718
 2135SOL     OW 8584   3.619   3.494   3.445 -0.0744 -0.1733  0.0982
 2135SOL    HW2 8585   3.544   3.528   3.494 -0.4427  0.4759 -0.9011
 2135SOL    HW3 8586   3.594   3.504   3.353  0.4209 -1.7806 -0.2350
 2135SOL    MW4 8587   3.606   3.500   3.439 -0.0577 -0.2997 -0.0777
 2136SOL     OW 8588   3.854   3.639   3.475 -0.2547  0.3701 -0.2003
 2136SOL    HW2 8589   3.863   3.609   3.565 -1.4060  1.8925  0.4422
 2136SOL    HW3 8590   3.769   3.604   3.447  0.0103  0.0666 -0.6275
 2136SOL    MW4 8591   3.844   3.631   3.483 -0.3717  0.5312 -0.1719
 2137SOL     OW 8592   3.809   3.909   3.422  0.5245  0.1965  0.2078
 2137SOL    HW2 8593   3.722   3.942   3.444 -0.2355  0.4856 -2.9128
 2137SOL    HW3 8594   3.806   3.816   3.444  0.0429  0.5595  1.7514
 2137SOL    MW4 8595   3.797   3.901   3.428  0.3612  0.2825 -0.0002
 2138SOL     OW 8596   3.594   4.012   3.559 -0.2703 -0.1353  0.0240
 2138SOL    HW2 8597   3.606   4.005   3.653 -0.0542  0.9369  0.0741
 2138SOL    HW3 8598   3.589   4.106   3.541  0.5616 -0.2942 -1.1412
 2138SOL    MW4 8599   3.595   4.023   3.569 -0.1323 -0.0148 -0.1230
 2139SOL     OW 8600   3.571   4.270   3.410 -0.3217  0.4771 -0.3642
 2139SOL    HW2 8601   3.506   4.335   3.437  1.2683  1.6942  0.6559
 2139SOL    HW3 8602   3.572   4.276   3.315 -0.1951  1.9619 -0.2866
 2139SOL    MW4 8603   3.562   4.280   3.401 -0.0954  0.8335 -0.2191
 2140SOL     OW 8604   3.804   4.347   3.547 -0.4891 -0.2973 -0.0056
 2140SOL    HW2 8605   3.722   4.333   3.500 -0.9438 -1.6011  1.1534
 2140SOL    HW3 8606   3.817   4.442   3.546 -0.5673 -0.2778 -2.6195
 2140SOL    MW4 8607   3.795   4.358   3.540 -0.5593 -0.4668 -0.1974
 2141SOL     OW 8608   4.271   4.631   3.416 -0.4232  0.2272 -0.8242
 2141SOL    HW2 8609   4.253   4.538   3.432  0.3537  0.0086 -1.1750
 2141SOL    HW3 8610   4.349   4.649   3.467  0.9297  0.0151 -2.7677
 2141SOL    MW4 8611   4.279   4.621   3.424 -0.1426  0.1707 -1.1265
 2142SOL     OW 8612   4.062   0.119   3.524  0.5130  0.1705 -0.0625
 2142SOL    HW2 8613   3.986   0.061   3.515  0.7971 -0.1090 -0.6732
 2142SOL    HW3 8614   4.137   0.064   3.500  0.6970  1.0485 -1.5277
 2142SOL    MW4 8615   4.062   0.104   3.520  0.5746  0.2495 -0.3364
 2143SOL     OW 8616   4.090   0.385   3.467 -0.2150  0.0518  1.3478
 2143SOL    HW2 8617   4.091   0.394   3.372  0.7011  0.2510  1.3739
 2143SOL    HW3 8618   4.069   0.293   3.482 -0.0123 -0.0607  0.9481
 2143SOL    MW4 8619   4.087   0.374   3.457 -0.0672  0.0633  1.2987
 2144SOL     OW 8620   4.309   0.491   3.573 -0.1718 -0.2231 -0.6540
 2144SOL    HW2 8621   4.307   0.580   3.537 -1.4898 -0.0299 -0.1294
 2144SOL    HW3 8622   4.230   0.449   3.537 -0.5895 -0.5657  0.6523
 2144SOL    MW4 8623   4.299   0.497   3.563 -0.4005 -0.2428 -0.4127
 2145SOL     OW 8624   4.490   0.919   3.551  0.0414  0.0460  0.0545
 2145SOL    HW2 8625   4.499   0.910   3.646  0.4427 -1.0394 -0.0866
 2145SOL    HW3 8626   4.489   1.014   3.537 -1.9447  0.2558  1.3161
 2145SOL    MW4 8627   4.491   0.931   3.562 -0.1677 -0.0695  0.2024
 2146SOL     OW 8628   4.288   0.751   3.458  0.3612  0.3509 -0.0092
 2146SOL    HW2 8629   4.292   0.769   3.364  1.9435  1.1066  0.1814
 2146SOL    HW3 8630   4.358   0.804   3.495  0.3048 -0.6018  1.4972
 2146SOL    MW4 8631   4.298   0.760   3.450  0.5627  0.3250  0.2146
 2147SOL     OW 8632   4.086   0.915   3.590 -0.2305 -0.1592 -0.2101
 2147SOL    HW2 8633   4.067   0.991   3.535  0.6693 -0.8330 -1.4806
 2147SOL    HW3 8634   4.161   0.874   3.548  0.5049 -0.6667  1.5648
 2147SOL    MW4 8635   4.093   0.920   3.577 -0.0148 -0.3150 -0.1435
 2148SOL     OW 8636   0.013   1.179   3.464  0.1672 -0.5248 -0.8156
 2148SOL    HW2 8637   0.012   1.132   3.381  1.8506  0.7922 -1.6182
 2148SOL    HW3 8638   0.103   1.213   3.471 -0.8946  2.2921 -0.1486
 2148SOL    MW4 8639   0.025   1.177   3.454  0.2492  0.0206 -0.8335
 2149SOL     OW 8640   4.042   1.152   3.472  0.5921  0.0715  0.0146
 2149SOL    HW2 8641   4.102   1.210   3.519 -0.2390 -0.0905  1.2767
 2149SOL    HW3 8642   3.955   1.174   3.505  0.2977 -2.2340  0.8787
 2149SOL    MW4 8643   4.039   1.163   3.482  0.4439 -0.2542  0.2952
 2150SOL     OW 8644   4.019   1.660   3.543  0.0684 -0.5127  0.0641
 2150SOL    HW2 8645   4.037   1.670   3.636 -1.6588 -0.9027  0.4635
 2150SOL    HW3 8646   4.030   1.747   3.506  2.3978 -0.6781  0.3142
 2150SOL    MW4 8647   4.022   1.672   3.550  0.1478 -0.5862  0.1497
 2151SOL     OW 8648   4.054   1.924   3.435 -0.0670  0.2444 -0.3115
 2151SOL    HW2 8649   4.134   1.972   3.456 -0.1503  0.3815 -0.3046
 2151SOL    HW3 8650   4.060   1.906   3.341  1.6742 -2.9031  0.3480
 2151SOL    MW4 8651   4.065   1.928   3.425  0.1521 -0.1529 -0.2236
 2152SOL     OW 8652   4.270   2.067   3.573  0.1285 -0.0892  0.1971
 2152SOL    HW2 8653   4.350   2.037   3.530 -0.0715  0.8685 -0.8755
 2152SOL    HW3 8654   4.250   2.151   3.531 -2.1231 -0.8900 -0.4367
 2152SOL    MW4 8655   4.278   2.074   3.561 -0.1950 -0.0684 -0.0281
 2153SOL     OW 8656   4.217   2.291   3.418  0.5268  0.3337  0.3981
 2153SOL    HW2 8657   4.153   2.357   3.445  0.8537  1.0600 -0.5620
 2153SOL    HW3 8658   4.211   2.289   3.323 -0.9269 -2.5124  0.5174
 2153SOL    MW4 8659   4.208   2.300   3.409  0.3781  0.0541  0.2873
 2154SOL     OW 8660   4.019   2.474   3.505 -0.3265  0.4306 -0.0387
 2154SOL    HW2 8661   3.987   2.494   3.593  0.2680  1.1841  0.0174
 2154SOL    HW3 8662   4.015   2.557   3.459 -2.4045 -0.3404 -1.3143
 2154SOL    MW4 8663   4.014   2.487   3.511 -0.5226  0.4284 -0.1996
 2155SOL     OW 8664   4.027   2.739   3.418 -0.3609 -0.5230  0.3209
 2155SOL    HW2 8665   4.101   2.777   3.464 -0.1851  0.2611 -0.5909
 2155SOL    HW3 8666   3.950   2.782   3.457 -0.2343 -0.1209  0.1351
 2155SOL    MW4 8667   4.027   2.750   3.429 -0.3214 -0.3667  0.1762
 2156SOL     OW 8668   4.285   2.844   3.507 -0.0141  0.2542 -0.7976
 2156SOL    HW2 8669   4.329   2.891   3.578 -1.0151 -0.5188  0.3557
 2156SOL    HW3 8670   4.349   2.780   3.477  0.1788  0.1390 -0.1405
 2156SOL    MW4 8671   4.299   2.842   3.512 -0.1202  0.1373 -0.5586
 2157SOL     OW 8672   4.262   3.111   3.414 -0.2423  0.0605  0.8041
 2157SOL    HW2 8673   4.270   3.018   3.436 -0.3571  0.0593  0.8405
 2157SOL    HW3 8674   4.257   3.113   3.318  1.1194  0.1295  0.7279
 2157SOL    MW4 8675   4.262   3.099   3.404 -0.0777  0.0696  0.7989
 2158SOL     OW 8676   4.088   3.246   3.564 -0.2256  0.1459  0.7324
 2158SOL    HW2 8677   4.012   3.201   3.526 -1.0456  0.6973  1.7231
 2158SOL    HW3 8678   4.158   3.230   3.501 -1.2401 -0.0822 -0.3558
 2158SOL    MW4 8679   4.087   3.238   3.551 -0.4678  0.1886  0.7193
 2159SOL     OW 8680   4.090   3.496   3.428 -0.1269 -0.5513  0.4205
 2159SOL    HW2 8681   4.078   3.408   3.462 -3.1597 -0.6693 -0.7962
 2159SOL    HW3 8682   4.004   3.537   3.437  0.5948  1.4252 -1.3719
 2159SOL    MW4 8683   4.077   3.490   3.434 -0.4315 -0.3059  0.0236
 2160SOL     OW 8684   4.312   3.619   3.547 -0.0849  0.3915  0.4929
 2160SOL    HW2 8685   4.296   3.688   3.482 -0.8927 -0.4717 -0.2507
 2160SOL    HW3 8686   4.238   3.559   3.536  0.7371 -0.7216  0.9563
 2160SOL    MW4 8687   4.300   3.620   3.537 -0.0830  0.1307  0.4561
 2161SOL     OW 8688   4.283   3.844   3.411 -0.8235  0.3289 -0.3144
 2161SOL    HW2 8689   4.365   3.883   3.442  0.4162 -1.8098 -0.7960
 2161SOL    HW3 8690   4.282   3.862   3.317 -1.3160  1.0471 -0.1764
 2161SOL    MW4 8691   4.294   3.851   3.403 -0.7243  0.1414 -0.3595
 2162SOL     OW 8692   4.053   3.998   3.540  0.2429 -0.4288  0.1571
 2162SOL    HW2 8693   4.113   3.956   3.478 -0.3064  0.7134 -1.1949
 2162SOL    HW3 8694   3.967   3.965   3.515  0.1704 -1.1450  1.3226
 2162SOL    MW4 8695   4.050   3.988   3.528  0.1607 -0.3729  0.1328
 2163SOL     OW 8696   4.037   4.237   3.395  0.0852  0.1418 -0.1544
 2163SOL    HW2 8697   4.031   4.148   3.431  0.6709 -0.1900 -0.8621
 2163SOL    HW3 8698   3.955   4.279   3.421 -0.1436 -0.5705  0.2851
 2163SOL    MW4 8699   4.025   4.231   3.403  0.1326  0.0038 -0.1900
 2164SOL     OW 8700   4.277   4.346   3.497  0.6865 -0.1876  0.1348
 2164SOL    HW2 8701   4.288   4.344   3.592  2.2733 -0.3195 -0.0501
 2164SOL    HW3 8702   4.193   4.303   3.482  0.4279 -0.1772  1.4690
 2164SOL    MW4 8703   4.267   4.340   3.507  0.8616 -0.2031  0.2863
 2165SOL     OW 8704   3.398   3.551   3.642  0.2343 -0.1110 -0.6550
 2165SOL    HW2 8705   3.431   3.470   3.680  0.0923  0.6273  1.0886
 2165SOL    HW3 8706   3.375   3.605   3.717 -1.2103  0.9202 -1.8097
 2165SOL    MW4 8707   3.399   3.548   3.657  0.0253  0.1228 -0.5772
 2166SOL     OW 8708   0.199   3.986   4.317  0.1825  0.6140 -0.3775
 2166SOL    HW2 8709   0.288   3.984   4.352  0.0994 -0.7593 -0.2128
 2166SOL    HW3 8710   0.143   3.970   4.393 -0.1097 -0.2604 -0.7730
 2166SOL    MW4 8711   0.204   3.984   4.332  0.1330  0.3176 -0.4082
 2167SOL     OW 8712   1.774   0.135   4.220  0.2818 -0.4690 -0.2966
 2167SOL    HW2 8713   1.838   0.068   4.245  0.7128 -0.4119 -1.2033
 2167SOL    HW3 8714   1.717   0.145   4.296  0.6612 -1.3497  0.1040
 2167SOL    MW4 8715   1.775   0.127   4.233  0.3886 -0.5777 -0.3633
 2168SOL     OW 8716   0.886   2.466   3.854 -0.0104  0.1870  0.2581
 2168SOL    HW2 8717   0.979   2.471   3.873 -0.0580 -0.9416  0.8268
 2168SOL    HW3 8718   0.847   2.541   3.900  0.8232  1.6828 -1.4086
 2168SOL    MW4 8719   0.893   2.477   3.863  0.0932  0.2351  0.1132
 2169SOL     OW 8720   0.091   0.045   3.837  0.6303 -0.1342 -0.2702
 2169SOL    HW2 8721   0.032   0.031   3.912  0.6407  1.7198  0.1181
 2169SOL    HW3 8722   0.033   0.045   3.761  0.5687 -1.6334 -0.2380
 2169SOL    MW4 8723   0.075   0.043   3.837  0.6235 -0.0874 -0.2146
 2170SOL     OW 8724   0.130   0.893   4.688  0.3965 -0.0560 -0.2994
 2170SOL    HW2 8725   0.112   0.799   4.690 -1.2512  0.2606  1.2593
 2170SOL    HW3 8726   0.131   0.915   4.595  0.2610 -1.5090 -0.6641
 2170SOL    MW4 8727   0.128   0.883   4.676  0.1612 -0.2059 -0.1421
 2171SOL     OW 8728   4.159   0.415   4.616 -0.0601  0.3721 -0.3401
 2171SOL    HW2 8729   4.242   0.427   4.570  0.3299 -0.4947  0.1449
 2171SOL    HW3 8730   4.129   0.504   4.634  0.7846  0.6857 -0.4633
 2171SOL    MW4 8731   4.166   0.429   4.612  0.1030  0.2992 -0.2923
 2172SOL     OW 8732   0.559   0.980   4.884 -0.3310  0.1006  0.0865
 2172SOL    HW2 8733   0.574   1.069   4.851  3.5686 -0.5049  0.0092
 2172SOL    HW3 8734   0.576   0.985   4.978 -0.3819 -0.5323  0.1353
 2172SOL    MW4 8735   0.563   0.992   4.892  0.1767 -0.0628  0.0825
 2173SOL     OW 8736   1.972   1.107   4.438  0.4323 -0.0570  0.0962
 2173SOL    HW2 8737   1.923   1.159   4.374  0.2062 -0.1534  0.1921
 2173SOL    HW3 8738   1.914   1.100   4.514  0.7294  0.1156  0.3405
 2173SOL    MW4 8739   1.958   1.113   4.439  0.4418 -0.0470  0.1407
 2174SOL     OW 8740   4.295   1.551   3.415 -0.6594 -0.3496  0.3792
 2174SOL    HW2 8741   4.210   1.581   3.449 -1.5066 -2.2609  0.0186
 2174SOL    HW3 8742   4.281   1.541   3.321  0.4930  0.9925  0.0503
 2174SOL    MW4 8743   4.282   1.553   3.407 -0.6199 -0.4247  0.2880
 2175SOL     OW 8744   2.944   2.456   4.658 -0.3187  0.3709  0.2437
 2175SOL    HW2 8745   2.921   2.364   4.645 -0.3194  0.4050  0.0076
 2175SOL    HW3 8746   2.866   2.505   4.633 -0.5281  0.4019  0.9690
 2175SOL    MW4 8747   2.931   2.451   4.653 -0.3467  0.3793  0.3085
 2176SOL     OW 8748   1.882   1.953   4.492  0.1740  0.0640  0.1432
 2176SOL    HW2 8749   1.919   2.020   4.549 -1.1883  1.3250 -0.4428
 2176SOL    HW3 8750   1.940   1.877   4.505  0.7591  0.7938  2.0563
 2176SOL    MW4 8751   1.895   1.952   4.502  0.0715  0.3266  0.3185
 2177SOL     OW 8752   0.245   0.146   4.610 -0.0195  0.3532 -0.6376
 2177SOL    HW2 8753   0.309   0.211   4.582  0.6300 -0.6082 -1.4250
 2177SOL    HW3 8754   0.252   0.076   4.545 -0.7351 -0.4768  0.1704
 2177SOL    MW4 8755   0.255   0.145   4.598 -0.0282  0.1168 -0.6347
 2178SOL     OW 8756   3.470   1.352   4.905 -0.3546 -0.2315 -0.2929
 2178SOL    HW2 8757   3.506   1.375   4.991 -1.7785  2.0294 -0.2608
 2178SOL    HW3 8758   3.441   1.261   4.914 -0.6549  0.0430  1.6741
 2178SOL    MW4 8759   3.471   1.343   4.917 -0.5820  0.1030 -0.0291
 2179SOL     OW 8760   3.860   4.183   4.339 -0.8455  0.0882 -0.0886
 2179SOL    HW2 8761   3.925   4.114   4.327  0.4905  0.8358  2.4556
 2179SOL    HW3 8762   3.832   4.173   4.430 -1.3688  2.2782  0.0026
 2179SOL    MW4 8763   3.865   4.172   4.350 -0.7379  0.4754  0.2589
 2180SOL     OW 8764   4.160   3.096   4.569 -0.3458 -0.0782 -0.0509
 2180SOL    HW2 8765   4.236   3.038   4.566  0.0838  0.4330  1.0047
 2180SOL    HW3 8766   4.097   3.049   4.624 -0.6860 -0.3607 -0.6752
 2180SOL    MW4 8767   4.161   3.082   4.575 -0.3343 -0.0479  0.0057
 2181SOL     OW 8768   3.806   3.853   3.886  0.2804  0.5462 -0.2866
 2181SOL    HW2 8769   3.834   3.855   3.977  1.6303  0.3304 -0.6746
 2181SOL    HW3 8770   3.806   3.760   3.863 -0.5100  0.5651 -0.3779
 2181SOL    MW4 8771   3.810   3.841   3.895  0.3543  0.5205 -0.3500
 2182SOL     OW 8772   4.080   2.350   3.918  0.5594  0.1592  0.1055
 2182SOL    HW2 8773   4.025   2.348   3.996 -1.0115 -0.2766 -0.9920
 2182SOL    HW3 8774   4.054   2.430   3.872 -0.5878 -1.0512 -1.4079
 2182SOL    MW4 8775   4.069   2.360   3.922  0.2003 -0.0582 -0.2389
 2183SOL     OW 8776   0.132   4.076   3.755 -0.4875  0.1241 -0.4551
 2183SOL    HW2 8777   0.058   4.031   3.796 -0.0124  0.7304  1.1220
 2183SOL    HW3 8778   0.117   4.169   3.775  0.9578  0.2043  0.3480
 2183SOL    MW4 8779   0.120   4.082   3.763 -0.2342  0.2151 -0.1411
 2184SOL     OW 8780   0.245   4.643   4.392 -0.2271  0.0447 -0.0976
 2184SOL    HW2 8781   0.183   4.591   4.340  1.0771 -0.4923 -1.1592
 2184SOL    HW3 8782   0.271   4.713   4.333  0.9760 -0.3463 -0.0420
 2184SOL    MW4 8783   0.240   4.645   4.377  0.1037 -0.0772 -0.2303
 2185SOL     OW 8784   4.133   3.552   3.876  0.2406  0.2186 -0.2982
 2185SOL    HW2 8785   4.212   3.594   3.841  0.6403 -0.5669 -0.3544
 2185SOL    HW3 8786   4.155   3.459   3.878  0.0626  0.2050  1.6329
 2185SOL    MW4 8787   4.147   3.545   3.872  0.2704  0.1132 -0.0510
 2186SOL     OW 8788   0.914   4.287   3.826  0.3464 -0.2710  0.0764
 2186SOL    HW2 8789   0.820   4.273   3.812  0.2921 -0.5983  0.7388
 2186SOL    HW3 8790   0.950   4.199   3.840  0.5483 -0.0470  1.0041
 2186SOL    MW4 8791   0.906   4.274   3.826  0.3659 -0.2847  0.2863
 2187SOL     OW 8792   4.120   1.682   3.809 -0.1291 -0.1549  0.4426
 2187SOL    HW2 8793   4.081   1.695   3.895 -1.0635  1.2349 -0.1693
 2187SOL    HW3 8794   4.179   1.607   3.820  0.0662  0.2656  2.3723
 2187SOL    MW4 8795   4.122   1.674   3.822 -0.2265  0.0839  0.6163
 2188SOL     OW 8796   4.044   0.685   4.596  0.1644 -0.3694  0.1312
 2188SOL    HW2 8797   4.074   0.773   4.574 -1.7355  0.3782  0.4444
 2188SOL    HW3 8798   3.951   0.695   4.616  0.0740 -2.3334  0.8643
 2188SOL    MW4 8799   4.036   0.698   4.596 -0.0978 -0.5299  0.2689
 2189SOL     OW 8800   4.295   0.326   3.946  0.5971  0.0004  0.0882
 2189SOL    HW2 8801   4.264   0.412   3.917 -2.3872 -0.5280  1.5618
 2189SOL    HW3 8802   4.246   0.263   3.894 -0.2257 -0.8385  1.8238
 2189SOL    MW4 8803   4.285   0.329   3.936  0.0949 -0.1800  0.5116
 2190SOL     OW 8804   4.210   1.716   4.729 -0.3103 -0.2743  0.3994
 2190SOL    HW2 8805   4.141   1.782   4.714 -0.0145  0.0966  0.6591
 2190SOL    HW3 8806   4.168   1.650   4.783 -0.6068 -0.2926  0.1532
 2190SOL    MW4 8807   4.195   1.716   4.734 -0.3104 -0.2278  0.4015
 2191SOL     OW 8808   2.252   0.224   4.391 -0.6630 -0.1095  0.3262
 2191SOL    HW2 8809   2.208   0.298   4.434  1.1776  0.1443  1.8410
 2191SOL    HW3 8810   2.250   0.245   4.298 -1.3237  1.2096  0.6299
 2191SOL    MW4 8811   2.246   0.236   4.385 -0.5074  0.0980  0.5660
 2192SOL     OW 8812   0.732   4.581   4.157 -0.1281 -0.1132 -0.2861
 2192SOL    HW2 8813   0.763   4.494   4.133  0.7043 -0.3046  1.4686
 2192SOL    HW3 8814   0.810   4.637   4.154 -0.1577  0.0260  1.1363
 2192SOL    MW4 8815   0.746   4.577   4.153 -0.0222 -0.1202  0.1330
 2193SOL     OW 8816   0.401   0.352   4.487 -0.0112 -0.3835 -0.1208
 2193SOL    HW2 8817   0.382   0.379   4.397 -2.6816 -1.2507  0.1492
 2193SOL    HW3 8818   0.400   0.433   4.538  0.7744  0.0151 -0.7236
 2193SOL    MW4 8819   0.399   0.366   4.482 -0.2599 -0.4453 -0.1655
 2194SOL     OW 8820   3.796   1.105   4.362 -0.2781  0.2319 -1.0261
 2194SOL    HW2 8821   3.867   1.054   4.322  1.5564  0.6516  1.5037
 2194SOL    HW3 8822   3.719   1.085   4.310  1.1322 -2.4156 -2.1895
 2194SOL    MW4 8823   3.795   1.096   4.350  0.1497 -0.0621 -0.8459
 2195SOL     OW 8824   4.268   1.264   4.015  0.4132  0.1406 -0.0939
 2195SOL    HW2 8825   4.262   1.306   4.100 -0.1343 -0.2979  0.0840
 2195SOL    HW3 8826   4.304   1.331   3.957 -0.2839  0.7922  0.2308
 2195SOL    MW4 8827   4.272   1.278   4.018  0.2489  0.1687 -0.0277
 2196SOL     OW 8828   2.331   1.701   3.814  0.0972 -0.2936 -0.3453
 2196SOL    HW2 8829   2.327   1.693   3.718 -1.1819 -1.2608 -0.2265
 2196SOL    HW3 8830   2.245   1.734   3.838 -0.0010 -1.2365  0.5882
 2196SOL    MW4 8831   2.319   1.704   3.804 -0.0842 -0.5455 -0.2065
 2197SOL     OW 8832   0.007   3.379   4.375  0.1027 -0.2236 -0.0982
 2197SOL    HW2 8833  -0.056   3.388   4.304 -0.9472  3.5864  1.1967
 2197SOL    HW3 8834  -0.046   3.358   4.452  0.5664  1.0242  0.5888
 2197SOL    MW4 8835  -0.008   3.378   4.376  0.0254  0.4437  0.1631
 2198SOL     OW 8836   2.535   0.165   4.471  0.3516  0.6331 -0.0145
 2198SOL    HW2 8837   2.450   0.205   4.457 -1.3164 -2.4197  0.8920
 2198SOL    HW3 8838   2.536   0.143   4.565  1.0416 -1.6437 -0.5208
 2198SOL    MW4 8839   2.524   0.167   4.482  0.2224 -0.0701  0.0381
 2199SOL     OW 8840   3.414   2.645   4.692  0.1435  0.0203  0.0806
 2199SOL    HW2 8841   3.465   2.650   4.611 -0.5919  0.3437 -0.3570
 2199SOL    HW3 8842   3.367   2.728   4.696  0.4118  0.1355  0.9987
 2199SOL    MW4 8843   3.415   2.657   4.682  0.0820  0.0782  0.1435
 2200SOL     OW 8844   0.685   3.623   4.121 -0.3406 -0.2234 -0.4719
 2200SOL    HW2 8845   0.692   3.665   4.207 -0.9373 -0.9813 -0.0471
 2200SOL    HW3 8846   0.592   3.630   4.098 -0.5272 -1.6345 -0.2171
 2200SOL    MW4 8847   0.674   3.630   4.130 -0.4439 -0.5093 -0.3824
 2201SOL     OW 8848   0.729   3.353   4.345 -0.7658 -0.4735 -0.3115
 2201SOL    HW2 8849   0.646   3.351   4.298 -0.5683  2.4053 -0.8389
 2201SOL    HW3 8850   0.707   3.323   4.434 -2.5930  1.2480 -0.1564
 2201SOL    MW4 8851   0.715   3.349   4.351 -0.9808  0.1333 -0.3610
 2202SOL     OW 8852   0.339   1.846   4.702 -0.3555 -0.5349  0.0133
 2202SOL    HW2 8853   0.425   1.812   4.726  0.1038 -0.1355 -1.0537
 2202SOL    HW3 8854   0.278   1.774   4.720  0.3907 -1.3314 -0.6586
 2202SOL    MW4 8855   0.342   1.832   4.708 -0.1964 -0.5875 -0.2160
 2203SOL     OW 8856   1.247   4.324   3.872  0.0231 -0.2274 -0.3057
 2203SOL    HW2 8857   1.206   4.242   3.846  0.4326  0.1537 -2.2475
 2203SOL    HW3 8858   1.205   4.390   3.817  0.7526  0.6473  0.1690
 2203SOL    MW4 8859   1.236   4.322   3.861  0.1733 -0.0615 -0.4990
 2204SOL     OW 8860   0.248   3.506   4.342 -0.1668 -0.2833 -0.6415
 2204SOL    HW2 8861   0.179   3.442   4.358 -1.0384  0.7791 -0.0600
 2204SOL    HW3 8862   0.231   3.576   4.406  0.2037  0.9612 -1.8830
 2204SOL    MW4 8863   0.236   3.507   4.353 -0.2329  0.0210 -0.7291
 2205SOL     OW 8864   0.394   2.431   4.130  0.1570 -0.0248  0.3524
 2205SOL    HW2 8865   0.321   2.443   4.192  0.8958 -0.8123  1.3759
 2205SOL    HW3 8866   0.394   2.338   4.111  0.7307  0.0171  0.1479
 2205SOL    MW4 8867   0.384   2.421   4.136  0.3302 -0.1230  0.4601
 2206SOL     OW 8868   0.873   4.117   4.420 -0.2331 -0.1003 -0.3546
 2206SOL    HW2 8869   0.808   4.153   4.480 -0.5782 -1.3239  0.0111
 2206SOL    HW3 8870   0.941   4.184   4.416 -1.1766  0.8744 -0.1909
 2206SOL    MW4 8871   0.874   4.131   4.427 -0.4032 -0.1330 -0.2842
 2207SOL     OW 8872   0.273   1.136   4.003 -0.3644 -0.3175 -0.7635
 2207SOL    HW2 8873   0.357   1.150   4.048 -0.8938 -2.5065  0.9579
 2207SOL    HW3 8874   0.286   1.176   3.917  2.5628 -0.8577 -0.6405
 2207SOL    MW4 8875   0.286   1.143   3.998 -0.0481 -0.6776 -0.5198
 2208SOL     OW 8876   0.369   1.746   4.436 -0.1567 -0.1334 -0.5557
 2208SOL    HW2 8877   0.315   1.813   4.393 -0.3579 -0.1951 -0.4014
 2208SOL    HW3 8878   0.365   1.769   4.529  0.2844  0.0065 -0.5731
 2208SOL    MW4 8879   0.361   1.758   4.443 -0.1251 -0.1231 -0.5374
 2209SOL     OW 8880   0.392   3.626   3.766 -0.0955 -0.8374  0.2725
 2209SOL    HW2 8881   0.359   3.615   3.677  1.7204  0.5214 -0.5803
 2209SOL    HW3 8882   0.487   3.635   3.757  0.0031  0.5502  2.2117
 2209SOL    MW4 8883   0.400   3.626   3.753  0.1571 -0.4752  0.4158
 2210SOL     OW 8884   0.733   0.834   3.733 -0.7697 -0.2210 -0.7974
 2210SOL    HW2 8885   0.799   0.854   3.666 -0.4659 -0.1058 -0.4665
 2210SOL    HW3 8886   0.683   0.914   3.743  0.1011  0.2142  0.1401
 2210SOL    MW4 8887   0.735   0.847   3.725 -0.6147 -0.1484 -0.6301
 2211SOL     OW 8888   2.200   3.050   4.133 -0.0064 -0.6420 -0.0170
 2211SOL    HW2 8889   2.219   2.992   4.207 -1.3885 -0.2622  0.6546
 2211SOL    HW3 8890   2.213   2.995   4.056  0.1681 -1.4161  0.5607
 2211SOL    MW4 8891   2.204   3.035   4.133 -0.1657 -0.6940  0.1483
 2212SOL     OW 8892   2.155   0.155   3.851 -0.0922  0.3482 -0.2720
 2212SOL    HW2 8893   2.204   0.080   3.884  0.5204  0.2121 -1.4663
 2212SOL    HW3 8894   2.066   0.122   3.839  0.0878 -0.0837 -0.4261
 2212SOL    MW4 8895   2.150   0.140   3.853  0.0126  0.2733 -0.4499
 2213SOL     OW 8896   0.474   0.107   3.548 -0.4896  0.1114  0.1498
 2213SOL    HW2 8897   0.541   0.064   3.494 -2.1777  0.4556 -2.2830
 2213SOL    HW3 8898   0.513   0.110   3.636  1.7870 -1.6466 -0.7378
 2213SOL    MW4 8899   0.488   0.102   3.553 -0.4120 -0.0751 -0.2882
 2214SOL     OW 8900   0.808   1.768   4.144 -0.0914  0.1631  0.1438
 2214SOL    HW2 8901   0.830   1.800   4.056 -2.4991  2.2240  0.2310
 2214SOL    HW3 8902   0.867   1.817   4.202 -1.3356  1.9274 -0.0261
 2214SOL    MW4 8903   0.819   1.779   4.140 -0.5732  0.6678  0.1326
 2215SOL     OW 8904   0.698   4.178   4.619 -0.4793  0.2172  0.1372
 2215SOL    HW2 8905   0.736   4.266   4.627 -0.1859  0.1687 -0.7509
 2215SOL    HW3 8906   0.604   4.193   4.622 -0.4304  0.5582  0.0634
 2215SOL    MW4 8907   0.691   4.192   4.621 -0.4342  0.2561  0.0100
 2216SOL     OW 8908   4.182   4.587   3.918 -0.1848 -0.3211  0.6997
 2216SOL    HW2 8909   4.105   4.576   3.974  1.2359 -1.6269  2.4707
 2216SOL    HW3 8910   4.247   4.627   3.975  0.7581 -0.1199 -0.5112
 2216SOL    MW4 8911   4.180   4.590   3.933  0.1268 -0.4668  0.7737
 2217SOL     OW 8912   0.476   3.991   4.403 -0.1368  0.3347 -0.2244
 2217SOL    HW2 8913   0.461   4.071   4.452  1.8650 -0.3783  1.6159
 2217SOL    HW3 8914   0.526   4.019   4.326  1.5812  0.7569  0.9997
 2217SOL    MW4 8915   0.481   4.005   4.399  0.3540  0.2961  0.1802
 2218SOL     OW 8916   0.036   1.882   3.944  0.2665 -0.0086 -0.4119
 2218SOL    HW2 8917   0.070   1.813   3.888  0.1446 -0.3051 -0.1181
 2218SOL    HW3 8918  -0.048   1.906   3.906  0.9147  0.9101 -1.2984
 2218SOL    MW4 8919   0.030   1.876   3.931  0.3359  0.0734 -0.4900
 2219SOL     OW 8920   1.396   1.774   3.790 -0.0787 -0.3177 -0.1161
 2219SOL    HW2 8921   1.323   1.776   3.852  1.6161  2.5764  1.8744
 2219SOL    HW3 8922   1.463   1.723   3.835  0.6754  0.6638 -0.1232
 2219SOL    MW4 8923   1.395   1.767   3.804  0.2444  0.1936  0.1457
 2220SOL     OW 8924   4.342   3.732   4.574 -0.1630  0.1145  0.5516
 2220SOL    HW2 8925   4.335   3.649   4.622 -0.4291  0.2093  0.6797
 2220SOL    HW3 8926   4.266   3.782   4.602  1.3506  1.4419  2.4738
 2220SOL    MW4 8927   4.331   3.728   4.584  0.0019  0.3021  0.8216
 2221SOL     OW 8928   2.640   0.282   4.242 -0.5389 -0.3780  0.4641
 2221SOL    HW2 8929   2.612   0.283   4.333  1.0928  1.5123  0.9625
 2221SOL    HW3 8930   2.622   0.370   4.210 -0.4283 -0.8180 -0.8646
 2221SOL    MW4 8931   2.634   0.294   4.250 -0.3092 -0.1867  0.3543
 2222SOL     OW 8932   0.762   1.622   3.765  0.3976 -0.1476  0.6320
 2222SOL    HW2 8933   0.778   1.625   3.670  0.9749 -2.0759  0.6450
 2222SOL    HW3 8934   0.829   1.679   3.802  1.1765 -0.6235 -0.0268
 2222SOL    MW4 8935   0.773   1.630   3.757  0.5766 -0.4648  0.5467
 2223SOL     OW 8936   4.191   2.618   4.409  0.4237  0.5564  0.0425
 2223SOL    HW2 8937   4.277   2.641   4.445  0.2606  1.1361  0.0741
 2223SOL    HW3 8938   4.184   2.670   4.329  0.3458  0.0670 -0.2716
 2223SOL    MW4 8939   4.201   2.628   4.403  0.3920  0.5686  0.0048
 2224SOL     OW 8940   1.474   3.036   4.182  0.2418  0.3155 -0.3039
 2224SOL    HW2 8941   1.427   3.110   4.220  0.8586  0.9950 -0.8392
 2224SOL    HW3 8942   1.406   2.971   4.163 -0.1989  0.3984  0.9475
 2224SOL    MW4 8943   1.459   3.037   4.184  0.2651  0.4160 -0.2098
 2225SOL     OW 8944   3.234   1.800   4.544 -0.2496 -0.3525  1.0239
 2225SOL    HW2 8945   3.231   1.894   4.562 -1.2737 -0.3686  0.9815
 2225SOL    HW3 8946   3.218   1.792   4.450 -1.6085 -0.6401  1.2645
 2225SOL    MW4 8947   3.232   1.811   4.534 -0.5641 -0.3926  1.0505
 2226SOL     OW 8948   0.821   1.482   4.178 -0.3800  0.0639  0.0382
 2226SOL    HW2 8949   0.912   1.490   4.207  0.0224 -1.2505 -0.7981
 2226SOL    HW3 8950   0.799   1.568   4.144  0.3380  0.5775  0.8324
 2226SOL    MW4 8951   0.830   1.494   4.177 -0.2322 -0.0417  0.0329
 2227SOL     OW 8952   0.195   2.615   3.733  0.8318 -0.1673 -0.0681
 2227SOL    HW2 8953   0.286   2.616   3.763  1.0210  0.8935 -0.6352
 2227SOL    HW3 8954   0.197   2.668   3.652 -0.4493  0.6134  0.4053
 2227SOL    MW4 8955   0.208   2.622   3.726  0.6877  0.0758 -0.0808
 2228SOL     OW 8956   1.137   2.506   3.933  0.1656 -0.2081 -0.2159
 2228SOL    HW2 8957   1.125   2.493   4.027  2.1700 -1.1330 -0.0692
 2228SOL    HW3 8958   1.203   2.442   3.908  2.5987  2.6901 -1.5194
 2228SOL    MW4 8959   1.144   2.496   3.942  0.7510  0.0525 -0.3686
 2229SOL     OW 8960   1.085   4.508   3.765  0.0927 -0.6127 -0.1679
 2229SOL    HW2 8961   1.033   4.432   3.792  2.2124 -2.3993 -0.9479
 2229SOL    HW3 8962   1.111   4.488   3.675  0.6641  1.0578 -0.3861
 2229SOL    MW4 8963   1.082   4.495   3.757  0.4479 -0.6275 -0.2997
 2230SOL     OW 8964   1.492   3.839   4.072  0.3115  0.1495  0.0132
 2230SOL    HW2 8965   1.583   3.812   4.088  0.5981  2.1534  2.1488
 2230SOL    HW3 8966   1.499   3.906   4.004  0.3637 -0.1438 -0.2719
 2230SOL    MW4 8967   1.505   3.844   4.065  0.3562  0.3753  0.2570
 2231SOL     OW 8968   2.619   1.830   4.503  0.4949 -0.2487 -0.0222
 2231SOL    HW2 8969   2.639   1.802   4.414 -0.2510 -0.7589 -0.0271
 2231SOL    HW3 8970   2.523   1.837   4.505  0.5254 -0.0140  0.6730
 2231SOL    MW4 8971   2.609   1.828   4.491  0.4005 -0.2850  0.0691
 2232SOL     OW 8972   1.507   4.321   3.792 -0.4416 -0.1748  0.1825
 2232SOL    HW2 8973   1.415   4.335   3.815  0.1955 -0.2196  2.8713
 2232SOL    HW3 8974   1.555   4.380   3.849  1.1539  1.1951 -2.4734
 2232SOL    MW4 8975   1.501   4.330   3.802 -0.1471  0.0000  0.1867
 2233SOL     OW 8976   1.292   3.218   4.236 -0.2026 -0.9335 -0.8902
 2233SOL    HW2 8977   1.210   3.213   4.286  1.0110 -2.8743  1.0039
 2233SOL    HW3 8978   1.304   3.311   4.218 -1.0436 -0.2513  1.8726
 2233SOL    MW4 8979   1.283   3.230   4.240 -0.1534 -1.0993 -0.2756
 2234SOL     OW 8980   0.517   1.001   3.759  0.1130  0.3623 -0.2590
 2234SOL    HW2 8981   0.464   0.941   3.812 -0.6207  0.6227 -0.7041
 2234SOL    HW3 8982   0.470   1.084   3.761  0.7746  0.7416 -0.2211
 2234SOL    MW4 8983   0.504   1.004   3.767  0.1035  0.4466 -0.3123
 2235SOL     OW 8984   1.382   4.581   4.138 -0.0627  0.4419  0.2208
 2235SOL    HW2 8985   1.380   4.654   4.076  1.0617 -0.1719 -0.5774
 2235SOL    HW3 8986   1.369   4.621   4.224  1.0515  1.6555 -0.1590
 2235SOL    MW4 8987   1.380   4.596   4.141  0.2327  0.5212  0.0653
 2236SOL     OW 8988   2.539   4.577   4.315  0.0559 -0.1899 -0.0892
 2236SOL    HW2 8989   2.553   4.655   4.368 -1.1458  0.9290 -1.3941
 2236SOL    HW3 8990   2.614   4.521   4.335  1.4271  1.6848  0.1599
 2236SOL    MW4 8991   2.551   4.580   4.324  0.0782  0.2050 -0.2289
 2237SOL     OW 8992   2.080   2.552   4.213  0.7047 -0.1995  0.3275
 2237SOL    HW2 8993   2.165   2.581   4.247 -0.5209  0.3248  3.0612
 2237SOL    HW3 8994   2.068   2.465   4.249  0.3285 -0.5208 -0.5626
 2237SOL    MW4 8995   2.090   2.545   4.222  0.4930 -0.1729  0.5708
 2238SOL     OW 8996   2.050   3.475   4.145 -0.3974 -0.1318 -0.1699
 2238SOL    HW2 8997   2.060   3.560   4.103  0.7096 -0.1632  0.0119
 2238SOL    HW3 8998   2.010   3.495   4.230 -1.5593  0.0452 -0.7534
 2238SOL    MW4 8999   2.046   3.489   4.151 -0.4046 -0.1130 -0.2232
 2239SOL     OW 9000   0.493   4.652   4.036 -0.1693  0.8464  0.4048
 2239SOL    HW2 9001   0.433   4.703   4.090  0.3781  0.4104  1.4381
 2239SOL    HW3 9002   0.570   4.639   4.091 -0.8223 -2.2618  0.7327
 2239SOL    MW4 9003   0.495   4.657   4.050 -0.1832  0.3786  0.5846
 2240SOL     OW 9004   2.501   4.003   4.867  0.4083  0.1514  0.2351
 2240SOL    HW2 9005   2.464   3.980   4.952 -0.7276 -0.0538 -0.2984
 2240SOL    HW3 9006   2.424   4.015   4.810  1.1409  0.6252 -0.6678
 2240SOL    MW4 9007   2.486   4.002   4.871  0.3550  0.1869  0.0453
 2241SOL     OW 9008   0.421   4.210   4.586  0.0241 -0.4620  0.1576
 2241SOL    HW2 9009   0.439   4.288   4.533  1.3344  0.6893  2.2281
 2241SOL    HW3 9010   0.331   4.223   4.616 -0.2991 -0.5211 -0.7573
 2241SOL    MW4 9011   0.411   4.222   4.583  0.1543 -0.3181  0.3104
 2242SOL     OW 9012   0.492   2.170   4.385 -0.1981 -0.1008  0.4778
 2242SOL    HW2 9013   0.557   2.100   4.382  1.4746  1.4678 -1.2158
 2242SOL    HW3 9014   0.443   2.161   4.303 -1.2056 -0.3834  1.0920
 2242SOL    MW4 9015   0.494   2.160   4.374 -0.1103  0.0689  0.3357
 2243SOL     OW 9016   1.476   3.567   4.047 -0.1823  0.2884  0.0301
 2243SOL    HW2 9017   1.414   3.554   4.119  0.8438  0.8117  1.0193
 2243SOL    HW3 9018   1.478   3.662   4.034  0.4068  0.2738  0.0011
 2243SOL    MW4 9019   1.468   3.578   4.054  0.0308  0.3552  0.1564
 2244SOL     OW 9020   4.413   0.457   4.531 -0.0983 -0.0930 -0.2815
 2244SOL    HW2 9021   4.479   0.422   4.590  1.5231 -0.8651 -2.4641
 2244SOL    HW3 9022   4.457   0.460   4.446 -2.1307  1.6381 -1.3108
 2244SOL    MW4 9023   4.428   0.453   4.527 -0.1526  0.0335 -0.7057
 2245SOL     OW 9024   0.354   1.260   3.772 -0.1523 -0.1768 -0.3684
 2245SOL    HW2 9025   0.310   1.265   3.688 -2.9772  1.9072  1.1613
 2245SOL    HW3 9026   0.393   1.346   3.784 -2.5601  0.6706  1.8606
 2245SOL    MW4 9027   0.354   1.272   3.763 -0.8427  0.2098  0.1276
 2246SOL     OW 9028   2.926   4.514   4.575  0.2046 -0.2310  0.1408
 2246SOL    HW2 9029   2.964   4.589   4.529  1.1013 -1.1181 -0.5890
 2246SOL    HW3 9030   2.994   4.447   4.572 -0.2140 -0.7504  1.6379
 2246SOL    MW4 9031   2.940   4.515   4.568  0.2675 -0.4163  0.2418
 2247SOL     OW 9032   3.340   4.073   3.904 -0.3221 -0.0342  0.2080
 2247SOL    HW2 9033   3.324   4.164   3.929 -0.3884 -0.3185  1.2120
 2247SOL    HW3 9034   3.430   4.072   3.870 -0.5135  0.5051 -0.3260
 2247SOL    MW4 9035   3.350   4.085   3.903 -0.3562 -0.0005  0.2701
 2248SOL     OW 9036   1.973   4.615   4.205  0.1542 -0.2641  0.0391
 2248SOL    HW2 9037   2.040   4.646   4.144  0.0732 -0.8575 -0.3643
 2248SOL    HW3 9038   1.931   4.543   4.158 -1.0270  0.3602  0.1375
 2248SOL    MW4 9039   1.977   4.609   4.190 -0.0124 -0.2599 -0.0014
 2249SOL     OW 9040   3.030   4.034   4.479 -0.3211 -0.6414  0.0475
 2249SOL    HW2 9041   3.093   3.964   4.496 -0.9045 -1.3030 -0.4423
 2249SOL    HW3 9042   2.994   4.013   4.392  0.0081  0.6647 -0.4165
 2249SOL    MW4 9043   3.033   4.022   4.469 -0.3545 -0.5560 -0.0787
 2250SOL     OW 9044   1.181   2.760   3.815 -0.2751  0.0076 -0.4616
 2250SOL    HW2 9045   1.160   2.679   3.861  0.3736  0.7848  1.2159
 2250SOL    HW3 9046   1.273   2.749   3.789 -0.0787  0.3614  0.0874
 2250SOL    MW4 9047   1.191   2.748   3.817 -0.1637  0.1566 -0.1676
 2251SOL     OW 9048   2.039   2.879   3.535 -0.0134 -0.4749  0.5137
 2251SOL    HW2 9049   2.037   2.856   3.628  0.4088  0.2987  0.7232
 2251SOL    HW3 9050   2.056   2.973   3.534 -0.7635 -0.3458 -0.3385
 2251SOL    MW4 9051   2.041   2.888   3.547 -0.0565 -0.3557  0.4289
 2252SOL     OW 9052   1.562   2.862   3.522  0.0603 -0.0140 -0.6997
 2252SOL    HW2 9053   1.541   2.863   3.616  1.2715 -1.5761 -0.3804
 2252SOL    HW3 9054   1.556   2.953   3.495  0.2995  0.5462  1.0498
 2252SOL    MW4 9055   1.558   2.874   3.531  0.2517 -0.1462 -0.4268
 2253SOL     OW 9056   1.400   3.620   3.770 -0.1726  0.5374  0.1015
 2253SOL    HW2 9057   1.420   3.597   3.860  0.2804 -0.0521 -0.1457
 2253SOL    HW3 9058   1.431   3.545   3.719 -2.3130 -0.0855 -0.3563
 2253SOL    MW4 9059   1.407   3.607   3.775 -0.3952  0.3774  0.0086
 2254SOL     OW 9060   1.686   2.536   4.420  0.6524  0.1182 -0.1777
 2254SOL    HW2 9061   1.732   2.594   4.360  0.6610  1.4525  1.0845
 2254SOL    HW3 9062   1.594   2.561   4.411  0.3361 -1.5238 -1.6062
 2254SOL    MW4 9063   1.680   2.547   4.411  0.6117  0.0775 -0.1998
 2255SOL     OW 9064   1.862   2.711   4.280  0.0974  0.2462  0.3355
 2255SOL    HW2 9065   1.830   2.769   4.212 -0.2823  1.0599  1.1974
 2255SOL    HW3 9066   1.943   2.674   4.244  0.6419  1.7336 -0.0070
 2255SOL    MW4 9067   1.868   2.714   4.267  0.1191  0.5496  0.4039
 2256SOL     OW 9068   1.864   4.098   3.503  0.7035 -0.4791  0.6005
 2256SOL    HW2 9069   1.797   4.166   3.497  0.9053 -0.3237  0.0527
 2256SOL    HW3 9070   1.926   4.131   3.568  1.5802  0.5556 -0.7296
 2256SOL    MW4 9071   1.864   4.112   3.511  0.8459 -0.3219  0.3529
 2257SOL     OW 9072   1.818   3.837   3.539 -0.9388 -0.1316  0.3247
 2257SOL    HW2 9073   1.824   3.837   3.635  0.7300 -1.5906  0.2329
 2257SOL    HW3 9074   1.820   3.930   3.515  0.4737  0.1840  1.6011
 2257SOL    MW4 9075   1.819   3.849   3.549 -0.5323 -0.2825  0.4809
 2258SOL     OW 9076   3.105   3.592   4.605  0.4140 -0.6779  0.1105
 2258SOL    HW2 9077   3.067   3.620   4.688  0.7913 -2.4194  0.8806
 2258SOL    HW3 9078   3.148   3.671   4.571 -2.4650  0.8752 -0.0151
 2258SOL    MW4 9079   3.106   3.606   4.612  0.0839 -0.7026  0.1955
 2259SOL     OW 9080   0.121   3.566   4.795 -0.4301 -0.3440  0.2531
 2259SOL    HW2 9081   0.155   3.478   4.778 -0.0935 -0.7090  2.6750
 2259SOL    HW3 9082   0.187   3.624   4.757 -0.3715 -1.1236 -0.8631
 2259SOL    MW4 9083   0.134   3.562   4.788 -0.3780 -0.4950  0.4253
 2260SOL     OW 9084   1.524   4.446   3.537 -0.2615  0.1182  0.8755
 2260SOL    HW2 9085   1.545   4.401   3.619 -0.1288  0.7407  1.1885
 2260SOL    HW3 9086   1.463   4.388   3.492  0.5314 -0.7510  0.9110
 2260SOL    MW4 9087   1.519   4.432   3.542 -0.1395  0.0858  0.9217
 2261SOL     OW 9088   1.762   3.806   4.138  0.1625  0.0974 -0.1407
 2261SOL    HW2 9089   1.785   3.898   4.129  0.7017 -0.0830 -0.6450
 2261SOL    HW3 9090   1.813   3.762   4.070 -1.1473 -0.3972 -0.8409
 2261SOL    MW4 9091   1.772   3.812   4.128  0.0609  0.0086 -0.2999
 2262SOL     OW 9092   1.671   0.218   3.985 -0.0220  0.0355  0.5708
 2262SOL    HW2 9093   1.694   0.311   3.985  1.0597 -0.2201 -0.2146
 2262SOL    HW3 9094   1.705   0.185   4.068  0.3165  0.1806  0.4929
 2262SOL    MW4 9095   1.679   0.226   3.996  0.1653  0.0209  0.4570
 2263SOL     OW 9096   1.933   3.217   4.498 -0.1496 -0.4244  0.7660
 2263SOL    HW2 9097   1.948   3.169   4.416 -0.5848 -0.6442  0.8123
 2263SOL    HW3 9098   2.021   3.232   4.533 -0.0114 -1.3752  0.8548
 2263SOL    MW4 9099   1.947   3.212   4.492 -0.1887 -0.5789  0.7834
 2264SOL     OW 9100   2.188   0.262   4.120  0.1146  0.4722  0.0756
 2264SOL    HW2 9101   2.187   0.240   4.027  0.0182  1.5349 -0.1822
 2264SOL    HW3 9102   2.228   0.349   4.124 -0.3173  0.6364  0.9799
 2264SOL    MW4 9103   2.193   0.271   4.109  0.0448  0.6340  0.1607
 2265SOL     OW 9104   1.602   4.445   4.030 -0.5038  0.1592 -0.3255
 2265SOL    HW2 9105   1.535   4.498   4.074 -2.0669 -1.1791 -1.0681
 2265SOL    HW3 9106   1.621   4.374   4.092  0.3023  0.5614 -0.0945
 2265SOL    MW4 9107   1.596   4.443   4.044 -0.6037  0.0353 -0.3929
 2266SOL     OW 9108   4.077   0.145   3.809  0.7614  0.6317  0.2475
 2266SOL    HW2 9109   4.101   0.056   3.835  0.0909 -0.0989 -1.5379
 2266SOL    HW3 9110   4.074   0.142   3.714  1.2998  2.7370  0.1355
 2266SOL    MW4 9111   4.080   0.133   3.800  0.7443  0.8131 -0.0029
 2267SOL     OW 9112   1.056   1.829   4.523 -0.6389  0.6765 -0.5903
 2267SOL    HW2 9113   1.086   1.910   4.564  1.9175  0.2740 -1.6318
 2267SOL    HW3 9114   1.047   1.850   4.431 -1.4982  0.1981 -0.6234
 2267SOL    MW4 9115   1.058   1.842   4.516 -0.4150  0.5602 -0.7319
 2268SOL     OW 9116   1.456   2.924   4.479  0.0117  1.0254 -0.1407
 2268SOL    HW2 9117   1.453   2.945   4.385 -0.2996  0.6306 -0.2208
 2268SOL    HW3 9118   1.542   2.955   4.508 -0.2294  1.9458 -0.3691
 2268SOL    MW4 9119   1.467   2.931   4.470 -0.0613  1.0946 -0.1817
 2269SOL     OW 9120   3.782   1.753   4.391 -0.1674 -0.2126 -0.0130
 2269SOL    HW2 9121   3.711   1.767   4.329 -1.0187  0.7308  1.1280
 2269SOL    HW3 9122   3.747   1.784   4.475  1.5132  0.0780  0.6138
 2269SOL    MW4 9123   3.768   1.759   4.394 -0.0579 -0.0498  0.2208
 2270SOL     OW 9124   0.994   1.144   4.836 -0.5200 -0.2467 -0.1978
 2270SOL    HW2 9125   1.012   1.213   4.772 -1.4258 -1.1271 -1.4207
 2270SOL    HW3 9126   1.062   1.155   4.903  0.6492  0.4563 -1.4783
 2270SOL    MW4 9127   1.005   1.155   4.836 -0.4852 -0.2701 -0.5283
 2271SOL     OW 9128   1.822   1.061   4.667 -0.1617 -0.1143 -0.4988
 2271SOL    HW2 9129   1.854   1.040   4.755 -1.2239 -0.1717 -0.1212
 2271SOL    HW3 9130   1.823   0.978   4.620 -0.6837 -0.3041 -0.1820
 2271SOL    MW4 9131   1.826   1.048   4.672 -0.3707 -0.1470 -0.4067
 2272SOL     OW 9132   3.678   2.475   3.816  0.2683  0.2093 -0.2867
 2272SOL    HW2 9133   3.699   2.387   3.848 -1.5978 -0.6654 -1.3796
 2272SOL    HW3 9134   3.642   2.460   3.728 -2.3406  1.8321  0.4559
 2272SOL    MW4 9135   3.676   2.461   3.809 -0.3221  0.3080 -0.3326
 2273SOL     OW 9136   4.191   2.970   3.896  0.0531 -0.0106  0.3461
 2273SOL    HW2 9137   4.273   2.973   3.946  0.6522 -0.9399 -0.5751
 2273SOL    HW3 9138   4.170   3.063   3.882  0.8049  0.2459  0.8109
 2273SOL    MW4 9139   4.199   2.983   3.901  0.2317 -0.0994  0.2861
 2274SOL     OW 9140   1.029   2.039   3.798 -0.5098 -0.1987  0.0747
 2274SOL    HW2 9141   1.037   2.015   3.705  0.6113 -0.7541  0.3068
 2274SOL    HW3 9142   1.116   2.070   3.822 -1.1640  1.2797  0.5843
 2274SOL    MW4 9143   1.042   2.040   3.789 -0.4482 -0.0768  0.1726
 2275SOL     OW 9144   1.913   1.044   3.866 -0.0087 -0.2522 -0.5086
 2275SOL    HW2 9145   1.934   0.992   3.789 -0.3768  1.0648 -1.5329
 2275SOL    HW3 9146   1.915   1.135   3.834 -0.6807  0.2729  0.9084
 2275SOL    MW4 9147   1.916   1.049   3.852 -0.1459 -0.0093 -0.4568
 2276SOL     OW 9148   1.857   2.872   4.547  0.0107  0.2171  0.3572
 2276SOL    HW2 9149   1.830   2.826   4.468  1.6389 -0.0053 -0.0888
 2276SOL    HW3 9150   1.798   2.948   4.552 -0.3933 -0.0182 -0.8156
 2276SOL    MW4 9151   1.846   2.876   4.537  0.1724  0.1569  0.1435
 2277SOL     OW 9152   1.891   3.658   3.932 -0.1474  0.1281 -0.0237
 2277SOL    HW2 9153   1.817   3.598   3.937 -1.0058  1.2061  0.4975
 2277SOL    HW3 9154   1.856   3.735   3.887  1.0516  0.0761 -1.0734
 2277SOL    MW4 9155   1.876   3.661   3.927 -0.1025  0.2632 -0.0935
 2278SOL     OW 9156   2.749   3.876   4.843  0.3994  0.2938 -0.1803
 2278SOL    HW2 9157   2.667   3.923   4.857 -0.2649 -0.5244 -1.3637
 2278SOL    HW3 9158   2.738   3.831   4.760  2.0126  0.0953 -0.3011
 2278SOL    MW4 9159   2.737   3.876   4.834  0.5245  0.1597 -0.3524
 2279SOL     OW 9160   2.748   3.353   3.593  0.0534  0.3561  0.5704
 2279SOL    HW2 9161   2.797   3.296   3.534 -2.0684 -1.3679  0.4080
 2279SOL    HW3 9162   2.710   3.419   3.536  0.2371  0.2989  0.3789
 2279SOL    MW4 9163   2.750   3.354   3.578 -0.2024  0.1211  0.5236
 2280SOL     OW 9164   1.734   2.933   4.116  0.1897 -0.3584 -0.1184
 2280SOL    HW2 9165   1.724   2.931   4.021 -0.5154  0.7775 -0.0775
 2280SOL    HW3 9166   1.651   2.967   4.148  0.8463  0.3929  0.8276
 2280SOL    MW4 9167   1.722   2.938   4.108  0.1832 -0.1092  0.0114
 2281SOL     OW 9168   2.038   4.103   3.794 -0.3778  0.5861 -0.1496
 2281SOL    HW2 9169   2.051   4.197   3.802 -1.1353  0.5833  1.2365
 2281SOL    HW3 9170   2.125   4.068   3.774  0.2330  1.3945  1.0718
 2281SOL    MW4 9171   2.051   4.111   3.792 -0.3970  0.6924  0.1943
 2282SOL     OW 9172   0.088   2.729   4.242 -0.3089  0.2854 -0.5053
 2282SOL    HW2 9173   0.023   2.726   4.172 -0.2510  1.8691 -0.6461
 2282SOL    HW3 9174   0.165   2.768   4.201  1.0918 -2.4159 -0.5916
 2282SOL    MW4 9175   0.089   2.734   4.227 -0.1164  0.1380 -0.5355
 2283SOL     OW 9176   1.490   2.743   3.797 -0.5152  0.5737 -0.1414
 2283SOL    HW2 9177   1.478   2.681   3.869  1.1432 -1.3386 -1.4516
 2283SOL    HW3 9178   1.565   2.796   3.824  0.7318 -0.7859 -0.8393
 2283SOL    MW4 9179   1.499   2.742   3.810 -0.1318  0.1421 -0.4060
 2284SOL     OW 9180   3.948   4.600   4.084 -0.0752 -0.3077 -0.4377
 2284SOL    HW2 9181   3.929   4.694   4.082  1.3479 -0.0086 -0.1338
 2284SOL    HW3 9182   3.870   4.559   4.046 -0.6977  0.9905 -0.5824
 2284SOL    MW4 9183   3.935   4.607   4.079  0.0305 -0.0968 -0.4168
 2285SOL     OW 9184   1.184   1.155   3.964 -0.2948  0.3602  0.2092
 2285SOL    HW2 9185   1.155   1.073   3.925 -0.6836  0.6127 -0.0300
 2285SOL    HW3 9186   1.159   1.222   3.901 -0.3432  0.7038  0.5909
 2285SOL    MW4 9187   1.177   1.153   3.950 -0.3524  0.4389  0.2277
 2286SOL     OW 9188   2.085   0.544   3.545  0.5165 -0.0354 -0.0222
 2286SOL    HW2 9189   2.125   0.499   3.619 -0.6083 -1.0454 -0.0017
 2286SOL    HW3 9190   2.002   0.498   3.531 -1.0617  2.5156  0.4961
 2286SOL    MW4 9191   2.079   0.532   3.553  0.1600  0.1679  0.0489
 2287SOL     OW 9192   1.402   2.636   4.420 -0.4198 -0.0796  0.5860
 2287SOL    HW2 9193   1.412   2.723   4.460  0.3199  0.4062 -0.6436
 2287SOL    HW3 9194   1.378   2.653   4.329  1.7539 -1.1166 -0.2303
 2287SOL    MW4 9195   1.400   2.650   4.413 -0.0353 -0.1523  0.3161
 2288SOL     OW 9196   1.101   2.421   4.209  0.3884 -0.1473 -0.1203
 2288SOL    HW2 9197   1.046   2.482   4.259  2.4348  0.8457  0.9650
 2288SOL    HW3 9198   1.082   2.335   4.247  0.2915  0.3112  0.8777
 2288SOL    MW4 9199   1.091   2.418   4.220  0.6455  0.0446  0.1550
 2289SOL     OW 9200   3.544   4.655   3.907 -0.4866 -0.8548  0.6376
 2289SOL    HW2 9201   3.606   4.589   3.937  0.3377 -0.5554 -0.3596
 2289SOL    HW3 9202   3.599   4.725   3.871 -1.3765 -0.1289  0.6670
 2289SOL    MW4 9203   3.559   4.656   3.906 -0.4952 -0.7195  0.5100
 2290SOL     OW 9204   0.810   2.311   4.204 -0.1261 -0.0463 -0.2772
 2290SOL    HW2 9205   0.796   2.256   4.127 -0.7189  2.3082 -1.9246
 2290SOL    HW3 9206   0.755   2.388   4.188  2.7360  2.2726  0.6403
 2290SOL    MW4 9207   0.801   2.314   4.191  0.1733  0.5703 -0.3738
 2291SOL     OW 9208   1.326   0.886   4.115  0.1177 -0.0873  0.1145
 2291SOL    HW2 9209   1.418   0.862   4.099 -0.2415 -1.9503  0.6602
 2291SOL    HW3 9210   1.328   0.934   4.198  0.5278 -0.6192  0.4151
 2291SOL    MW4 9211   1.339   0.889   4.124  0.1245 -0.4032  0.2260
 2292SOL     OW 9212   2.610   4.292   4.103 -0.3305  0.0862 -0.3936
 2292SOL    HW2 9213   2.520   4.261   4.116 -0.3607  0.6283  0.7845
 2292SOL    HW3 9214   2.653   4.222   4.054 -0.8504 -1.0670  0.7678
 2292SOL    MW4 9215   2.604   4.279   4.098 -0.4032  0.0052 -0.0849
 2293SOL     OW 9216   3.534   1.199   4.513 -0.0477  0.1199  0.0174
 2293SOL    HW2 9217   3.565   1.233   4.429  0.9071  0.6421  0.5677
 2293SOL    HW3 9218   3.447   1.237   4.523 -0.1994  0.0005 -0.7671
 2293SOL    MW4 9219   3.526   1.209   4.503  0.0579  0.1731 -0.0134
 2294SOL     OW 9220   3.977   2.044   4.611 -0.6080 -0.1304 -0.5507
 2294SOL    HW2 9221   3.948   2.016   4.524  1.4088  0.7406 -1.5423
 2294SOL    HW3 9222   3.969   2.140   4.609 -3.0538 -0.2340  1.1900
 2294SOL    MW4 9223   3.972   2.053   4.599 -0.6645 -0.0293 -0.4520
 2295SOL     OW 9224   0.738   3.099   3.827  0.2729  0.5523  0.3806
 2295SOL    HW2 9225   0.690   3.019   3.806  0.7401  0.4409 -0.2817
 2295SOL    HW3 9226   0.772   3.086   3.915  0.3268  0.0326  0.2805
 2295SOL    MW4 9227   0.736   3.087   3.836  0.3416  0.4692  0.2799
 2296SOL     OW 9228   2.422   3.362   3.562 -0.0996  0.6265 -0.3873
 2296SOL    HW2 9229   2.402   3.283   3.511 -1.4464  1.1086 -0.6222
 2296SOL    HW3 9230   2.473   3.329   3.637 -0.6460 -0.4703 -0.4794
 2296SOL    MW4 9231   2.426   3.347   3.566 -0.3493  0.5453 -0.4303
 2297SOL     OW 9232   2.608   3.618   4.141 -0.2317 -0.5882  0.1326
 2297SOL    HW2 9233   2.535   3.558   4.122  0.6082 -0.9387 -2.2295
 2297SOL    HW3 9234   2.672   3.564   4.187 -1.8257 -0.0358  3.0910
 2297SOL    MW4 9235   2.607   3.603   4.145 -0.3312 -0.5620  0.2108
 2298SOL     OW 9236   3.028   3.325   3.980  0.2920 -0.3630 -0.5373
 2298SOL    HW2 9237   3.006   3.397   3.922  2.1200 -0.0511 -0.8710
 2298SOL    HW3 9238   3.071   3.366   4.055 -1.4178 -0.8258  0.7224
 2298SOL    MW4 9239   3.031   3.340   3.983  0.3073 -0.3829 -0.4151
 2299SOL     OW 9240   1.471   2.598   4.029  0.1149 -0.2709 -0.4730
 2299SOL    HW2 9241   1.433   2.511   4.022  0.5336 -0.4868 -0.0717
 2299SOL    HW3 9242   1.566   2.584   4.023  0.1430  0.2533 -1.3722
 2299SOL    MW4 9243   1.479   2.585   4.027  0.1738 -0.2303 -0.5383
 2300SOL     OW 9244   0.686   4.360   3.493 -0.1724  0.3436 -0.1400
 2300SOL    HW2 9245   0.662   4.336   3.583 -0.6360 -2.4385 -0.9698
 2300SOL    HW3 9246   0.773   4.321   3.480 -0.9900 -1.0554 -1.5634
 2300SOL    MW4 9247   0.694   4.352   3.503 -0.3415 -0.2079 -0.4373
 2301SOL     OW 9248   3.802   3.766   4.636  0.3922 -0.0194 -0.4342
 2301SOL    HW2 9249   3.811   3.676   4.665 -1.1709 -0.1925 -0.4418
 2301SOL    HW3 9250   3.889   3.804   4.649  0.8008 -1.2351  0.5268
 2301SOL    MW4 9251   3.814   3.759   4.642  0.2398 -0.2027 -0.3080
 2302SOL     OW 9252   0.740   0.558   3.733  0.1466  0.2946 -0.7218
 2302SOL    HW2 9253   0.735   0.653   3.742  1.9328  0.2359  1.0086
 2302SOL    HW3 9254   0.790   0.529   3.809  0.9539 -1.8853 -2.0537
 2302SOL    MW4 9255   0.746   0.567   3.744  0.4889 -0.0008 -0.6692
 2303SOL     OW 9256   3.254   3.277   4.413  0.4658  0.0620  0.3018
 2303SOL    HW2 9257   3.329   3.297   4.469 -0.4694 -1.2002  2.0481
 2303SOL    HW3 9258   3.230   3.187   4.437 -2.2465  0.7978  0.5188
 2303SOL    MW4 9259   3.261   3.267   4.423 -0.0155 -0.0076  0.5608
 2304SOL     OW 9260   2.888   4.199   4.169  0.4077 -0.2397 -0.2862
 2304SOL    HW2 9261   2.818   4.231   4.225  0.9519  1.4836 -0.5550
 2304SOL    HW3 9262   2.944   4.276   4.154  2.0568 -1.4551 -0.5068
 2304SOL    MW4 9263   2.886   4.213   4.174  0.6969 -0.1726 -0.3510
 2305SOL     OW 9264   2.276   4.500   4.244 -0.2046  0.3136 -0.3528
 2305SOL    HW2 9265   2.361   4.535   4.270 -0.6519  0.3880  1.0696
 2305SOL    HW3 9266   2.245   4.452   4.321 -2.8576  2.9926  0.3474
 2305SOL    MW4 9267   2.283   4.499   4.258 -0.6135  0.6771 -0.0730
 2306SOL     OW 9268   2.682   4.257   3.371 -0.4904  0.0318  0.0659
 2306SOL    HW2 9269   2.751   4.311   3.409  0.3999 -0.4213 -0.8786
 2306SOL    HW3 9270   2.601   4.306   3.386 -0.4822 -1.0154  4.3118
 2306SOL    MW4 9271   2.680   4.270   3.378 -0.3717 -0.1664  0.5014
 2307SOL     OW 9272   3.263   3.926   4.806  0.0654 -0.0930  0.5866
 2307SOL    HW2 9273   3.344   3.886   4.837 -0.5687  0.0968  2.5791
 2307SOL    HW3 9274   3.279   4.020   4.811  0.1984 -0.0687 -0.3252
 2307SOL    MW4 9275   3.275   3.933   4.811 -0.0007 -0.0648  0.7286
 2308SOL     OW 9276   3.029   4.472   4.150  0.3977  0.1097 -0.2848
 2308SOL    HW2 9277   3.103   4.521   4.187  0.5381 -1.0846  1.0609
 2308SOL    HW3 9278   2.952   4.505   4.196  0.5458 -1.2282  0.9426
 2308SOL    MW4 9279   3.029   4.483   4.161  0.4356 -0.2246  0.0548
 2309SOL     OW 9280   3.422   0.707   4.146  0.4413  0.2050 -0.2926
 2309SOL    HW2 9281   3.421   0.629   4.201  0.9270 -0.1429 -0.7648
 2309SOL    HW3 9282   3.487   0.687   4.079  0.4255  0.9424 -0.5257
 2309SOL    MW4 9283   3.430   0.694   4.144  0.5035  0.2565 -0.3862
 2310SOL     OW 9284   3.159   0.106   3.756  0.2572  0.3037 -0.5345
 2310SOL    HW2 9285   3.199   0.166   3.819  0.8907 -1.0600  0.3802
 2310SOL    HW3 9286   3.104   0.048   3.809  0.6665 -0.7584 -1.2498
 2310SOL    MW4 9287   3.157   0.106   3.771  0.3948 -0.0164 -0.5083
 2311SOL     OW 9288   2.502   0.427   3.784  0.0572 -0.1614 -0.1260
 2311SOL    HW2 9289   2.513   0.514   3.824 -1.5665 -0.5730  1.2655
 2311SOL    HW3 9290   2.532   0.366   3.851 -0.4108 -0.7506 -0.4476
 2311SOL    MW4 9291   2.507   0.431   3.798 -0.2186 -0.2934  0.0150
 2312SOL     OW 9292   2.046   0.048   4.455 -0.0760 -0.1120  0.3904
 2312SOL    HW2 9293   2.038   0.014   4.366 -2.0536  2.7622 -0.6329
 2312SOL    HW3 9294   2.116   0.113   4.450  0.6485 -0.8138  1.2464
 2312SOL    MW4 9295   2.054   0.052   4.443 -0.2415  0.1747  0.3681
 2313SOL     OW 9296   1.833   1.648   4.173  0.0814  0.5555  0.0869
 2313SOL    HW2 9297   1.883   1.724   4.144 -1.5486  1.3133 -0.7569
 2313SOL    HW3 9298   1.870   1.575   4.124  0.7647  0.9991 -0.0696
 2313SOL    MW4 9299   1.844   1.648   4.163 -0.0435  0.7141 -0.0458
 2314SOL     OW 9300   3.333   2.041   4.235 -0.7969  0.3372  0.0843
 2314SOL    HW2 9301   3.291   1.999   4.160  1.0430 -0.5767 -0.4784
 2314SOL    HW3 9302   3.426   2.021   4.224  0.2813  5.1215 -0.5451
 2314SOL    MW4 9303   3.340   2.033   4.224 -0.4117  0.8478 -0.0730
 2315SOL     OW 9304   1.363   4.177   4.241 -0.5581 -0.0519 -0.1223
 2315SOL    HW2 9305   1.317   4.249   4.199  0.1327  1.6937  2.0603
 2315SOL    HW3 9306   1.456   4.193   4.221 -0.4088 -0.3642  0.3043
 2315SOL    MW4 9307   1.369   4.188   4.233 -0.4473  0.1378  0.2222
 2316SOL     OW 9308   3.273   1.488   4.766 -0.0149 -0.3060 -0.1071
 2316SOL    HW2 9309   3.322   1.546   4.707  1.7437 -1.3376  0.3111
 2316SOL    HW3 9310   3.339   1.457   4.828 -1.4241 -0.9407  1.0785
 2316SOL    MW4 9311   3.289   1.492   4.766  0.0312 -0.5257  0.1044
 2317SOL     OW 9312   2.294   2.625   4.359 -0.1768  0.1372  0.2364
 2317SOL    HW2 9313   2.279   2.634   4.454  1.5548  0.8077  0.4576
 2317SOL    HW3 9314   2.324   2.711   4.331  1.2063 -0.5964 -0.5686
 2317SOL    MW4 9315   2.296   2.638   4.368  0.2341  0.1287  0.1588
 2318SOL     OW 9316   3.173   1.072   3.935 -0.1429 -0.2236  0.2989
 2318SOL    HW2 9317   3.151   0.986   3.899  2.3233 -0.2001 -1.3954
 2318SOL    HW3 9318   3.226   1.052   4.013 -0.6743 -0.2237  0.6665
 2318SOL    MW4 9319   3.177   1.058   3.941  0.1123 -0.2205  0.1240
 2319SOL     OW 9320   1.219   2.958   4.628 -0.3764  0.1073 -0.4646
 2319SOL    HW2 9321   1.299   2.948   4.577 -1.1214  1.4562 -1.9073
 2319SOL    HW3 9322   1.215   3.051   4.649 -0.4794 -0.2979  1.4214
 2319SOL    MW4 9323   1.229   2.969   4.624 -0.4883  0.2322 -0.4063
 2320SOL     OW 9324   2.277   3.312   4.195  0.4658  0.0632 -0.0503
 2320SOL    HW2 9325   2.193   3.353   4.176 -0.0900 -1.1745 -0.3053
 2320SOL    HW3 9326   2.266   3.220   4.169  1.4412 -0.4229  1.1866
 2320SOL    MW4 9327   2.264   3.305   4.189  0.5212 -0.1640  0.0796
 2321SOL     OW 9328   2.526   2.634   4.722  0.7447 -0.0363 -0.5510
 2321SOL    HW2 9329   2.555   2.713   4.768  1.0803  0.0286 -0.8711
 2321SOL    HW3 9330   2.435   2.651   4.699  1.1818  0.7527 -1.7115
 2321SOL    MW4 9331   2.518   2.646   4.725  0.8469  0.0765 -0.7467
 2322SOL     OW 9332   1.738   2.472   3.983 -0.3857  0.1358 -0.3216
 2322SOL    HW2 9333   1.715   2.453   3.892  0.9274 -0.6360 -0.5054
 2322SOL    HW3 9334   1.821   2.519   3.977  0.0087 -0.4364  0.4983
 2322SOL    MW4 9335   1.746   2.476   3.970 -0.1605 -0.0415 -0.2377
 2323SOL     OW 9336   1.631   3.755   4.365 -0.1358 -0.1910  0.2503
 2323SOL    HW2 9337   1.608   3.662   4.369  0.5354 -0.3358  0.8436
 2323SOL    HW3 9338   1.689   3.761   4.289  0.2374 -0.3498  0.5219
 2323SOL    MW4 9339   1.636   3.743   4.355  0.0019 -0.2310  0.3643
 2324SOL     OW 9340   3.874   3.557   3.769  0.3849  0.3578 -0.2810
 2324SOL    HW2 9341   3.851   3.485   3.827  0.0992  0.6059 -0.0828
 2324SOL    HW3 9342   3.970   3.565   3.776  0.4928 -0.4400 -0.8276
 2324SOL    MW4 9343   3.884   3.549   3.777  0.3614  0.2851 -0.3271
 2325SOL     OW 9344   2.807   1.954   4.701 -0.0145  0.3484  0.3559
 2325SOL    HW2 9345   2.741   1.936   4.633  0.3932  0.8791 -0.1862
 2325SOL    HW3 9346   2.843   1.868   4.722 -1.2898 -0.0269  1.0846
 2325SOL    MW4 9347   2.803   1.941   4.695 -0.1292  0.3687  0.3805
 2326SOL     OW 9348   0.852   1.278   4.570  0.0179 -0.3116 -0.0592
 2326SOL    HW2 9349   0.797   1.332   4.514  0.5375  0.2909  0.0036
 2326SOL    HW3 9350   0.849   1.190   4.531 -0.8138 -0.2305 -0.1685
 2326SOL    MW4 9351   0.845   1.273   4.557 -0.0232 -0.2214 -0.0648
 2327SOL     OW 9352   2.378   3.739   4.629 -0.2864 -0.2011 -0.2477
 2327SOL    HW2 9353   2.473   3.750   4.639 -0.3715  0.0623  0.3156
 2327SOL    HW3 9354   2.342   3.827   4.642 -0.5336 -0.1065 -1.5185
 2327SOL    MW4 9355   2.386   3.752   4.632 -0.3302 -0.1540 -0.3409
 2328SOL     OW 9356   2.292   4.018   3.737 -0.0325  0.8209 -0.5458
 2328SOL    HW2 9357   2.266   3.999   3.646  0.3679 -0.4950 -0.3997
 2328SOL    HW3 9358   2.283   3.934   3.782 -0.4861  1.5310  0.7066
 2328SOL    MW4 9359   2.288   4.004   3.731 -0.0396  0.7410 -0.3614
 2329SOL     OW 9360   0.251   1.978   4.322  0.3059 -0.1878  0.1259
 2329SOL    HW2 9361   0.278   2.039   4.391  1.1528 -0.9581  0.4828
 2329SOL    HW3 9362   0.156   1.968   4.335  0.4889 -0.4773  1.2964
 2329SOL    MW4 9363   0.242   1.985   4.333  0.4418 -0.3276  0.3276
 2330SOL     OW 9364   3.023   3.813   3.994 -0.4677 -0.0103  0.2991
 2330SOL    HW2 9365   2.944   3.775   3.958  0.2606 -1.0797 -0.1926
 2330SOL    HW3 9366   3.048   3.882   3.932 -1.3557  0.7608  0.7887
 2330SOL    MW4 9367   3.016   3.817   3.981 -0.4885 -0.0496  0.2987
 2331SOL     OW 9368   2.052   0.001   3.410  0.2155 -0.0592 -0.2758
 2331SOL    HW2 9369   2.142   0.031   3.400  0.8679 -1.6899  0.5670
 2331SOL    HW3 9370   2.060  -0.092   3.434 -1.6985 -0.5132 -1.2629
 2331SOL    MW4 9371   2.065  -0.008   3.412  0.0491 -0.3342 -0.2947
 2332SOL     OW 9372   2.903   2.937   3.556 -0.0524  0.1632 -0.3831
 2332SOL    HW2 9373   2.985   2.887   3.549 -1.3062 -1.9944 -0.0498
 2332SOL    HW3 9374   2.894   2.955   3.649 -1.0768 -1.5816 -0.1213
 2332SOL    MW4 9375   2.913   2.933   3.567 -0.3529 -0.3517 -0.3047
 2333SOL     OW 9376   2.801   1.595   3.913  0.3877 -0.5119  0.1969
 2333SOL    HW2 9377   2.890   1.621   3.891  0.2573 -1.3286 -1.3340
 2333SOL    HW3 9378   2.745   1.664   3.878  0.3999 -0.1089  0.9646
 2333SOL    MW4 9379   2.805   1.607   3.906  0.3719 -0.5665  0.0961
 2334SOL     OW 9380   4.423   0.922   4.267 -0.1563  0.7734  0.0659
 2334SOL    HW2 9381   4.503   0.940   4.317  0.0773 -0.6613  0.2304
 2334SOL    HW3 9382   4.426   0.982   4.193  1.5249  0.1451 -0.4001
 2334SOL    MW4 9383   4.434   0.932   4.264  0.0968  0.5012  0.0262
 2335SOL     OW 9384   2.794   0.157   3.793 -0.1997 -0.2533 -0.5644
 2335SOL    HW2 9385   2.864   0.096   3.815  0.2693  0.2948 -0.5452
 2335SOL    HW3 9386   2.767   0.131   3.705  1.5108  0.9049 -1.4568
 2335SOL    MW4 9387   2.800   0.145   3.784  0.0880 -0.0282 -0.6797
 2336SOL     OW 9388   1.574   0.485   4.458  0.1348  0.3727 -0.1333
 2336SOL    HW2 9389   1.489   0.512   4.495  0.2309  0.9217 -0.3104
 2336SOL    HW3 9390   1.576   0.525   4.371  0.5609  0.3347 -0.1414
 2336SOL    MW4 9391   1.563   0.494   4.452  0.2038  0.4401 -0.1578
 2337SOL     OW 9392   3.253   0.322   3.956 -0.1324 -0.2084 -0.1427
 2337SOL    HW2 9393   3.163   0.299   3.979 -0.3152  0.1027 -0.5465
 2337SOL    HW3 9394   3.307   0.264   4.010 -0.6054 -2.1817 -1.7348
 2337SOL    MW4 9395   3.248   0.311   3.966 -0.2189 -0.4277 -0.4060
 2338SOL     OW 9396   3.950   0.878   3.827 -0.2233 -0.4036 -0.8093
 2338SOL    HW2 9397   3.993   0.903   3.745  1.4168 -1.5467 -0.3131
 2338SOL    HW3 9398   4.000   0.923   3.895 -0.0145 -1.4773 -0.2523
 2338SOL    MW4 9399   3.962   0.887   3.825  0.0205 -0.6961 -0.6702
 2339SOL     OW 9400   4.077   0.953   4.522  0.1528  0.4111  0.4588
 2339SOL    HW2 9401   4.080   0.986   4.432  1.0569  1.2397  0.7869
 2339SOL    HW3 9402   4.027   1.018   4.570 -1.9201 -0.9359  0.2077
 2339SOL    MW4 9403   4.071   0.966   4.516 -0.0014  0.3426  0.4692
 2340SOL     OW 9404   2.971   1.927   3.931  0.1093 -0.0009  0.0111
 2340SOL    HW2 9405   2.953   2.007   3.882 -0.5138 -0.2743 -0.2196
 2340SOL    HW3 9406   2.969   1.858   3.865 -0.7899 -0.3797  0.4226
 2340SOL    MW4 9407   2.968   1.928   3.916 -0.0918 -0.0871  0.0346
 2341SOL     OW 9408   0.936   2.558   4.398 -0.5603  0.0422  0.0008
 2341SOL    HW2 9409   0.872   2.527   4.463 -1.0325 -0.2980 -0.6240
 2341SOL    HW3 9410   0.906   2.646   4.375 -2.3257 -1.1011 -2.2360
 2341SOL    MW4 9411   0.924   2.565   4.404 -0.8556 -0.1535 -0.3767
 2342SOL     OW 9412   3.130   1.991   3.431  0.4846 -0.5205 -0.1474
 2342SOL    HW2 9413   3.135   1.992   3.335  3.0162 -0.4164 -0.0347
 2342SOL    HW3 9414   3.045   2.030   3.450  0.4398  0.5414 -2.3260
 2342SOL    MW4 9415   3.119   1.996   3.421  0.8128 -0.3667 -0.4203
 2343SOL     OW 9416   0.367   1.393   4.658  0.4521  0.0855  0.2908
 2343SOL    HW2 9417   0.401   1.418   4.572  2.1459  3.2969  1.7943
 2343SOL    HW3 9418   0.301   1.459   4.678 -0.6587 -1.2253  1.0759
 2343SOL    MW4 9419   0.363   1.405   4.649  0.5290  0.3362  0.5927
 2344SOL     OW 9420   3.098   3.453   4.233  0.0157  0.0354 -0.3990
 2344SOL    HW2 9421   3.119   3.398   4.309 -1.1607  0.2593  0.0956
 2344SOL    HW3 9422   3.176   3.507   4.221  0.3455 -0.2374  0.4403
 2344SOL    MW4 9423   3.111   3.453   4.241 -0.0958  0.0288 -0.2232
 2345SOL     OW 9424   1.890   3.464   4.377 -0.6708 -0.3484  0.0061
 2345SOL    HW2 9425   1.900   3.373   4.404 -0.9578 -0.5224 -0.4760
 2345SOL    HW3 9426   1.799   3.470   4.346 -0.9568  0.3362  0.9438
 2345SOL    MW4 9427   1.879   3.453   4.376 -0.7464 -0.2811  0.0658
 2346SOL     OW 9428   3.936   2.802   3.820 -0.3231 -0.0903 -0.1196
 2346SOL    HW2 9429   4.010   2.862   3.831 -0.1154 -0.1884 -0.9419
 2346SOL    HW3 9430   3.881   2.818   3.897  0.0773  0.6541  0.0242
 2346SOL    MW4 9431   3.939   2.812   3.832 -0.2429 -0.0050 -0.2093
 2347SOL     OW 9432   0.669   2.565   4.147 -0.4057 -0.4588  0.5412
 2347SOL    HW2 9433   0.659   2.636   4.209 -1.1724  1.7564 -2.0283
 2347SOL    HW3 9434   0.581   2.526   4.141 -0.3774 -0.5454  0.6841
 2347SOL    MW4 9435   0.656   2.569   4.154 -0.5031 -0.1779  0.2213
 2348SOL     OW 9436   2.245   0.668   4.394 -0.4731 -0.2095 -0.3156
 2348SOL    HW2 9437   2.192   0.607   4.445 -0.9457  0.8283  0.4451
 2348SOL    HW3 9438   2.183   0.735   4.364  0.5769  1.7217  1.6671
 2348SOL    MW4 9439   2.230   0.669   4.397 -0.3967  0.1822  0.0463
 2349SOL     OW 9440   2.148   4.457   4.494 -0.4481 -0.4070  0.3300
 2349SOL    HW2 9441   2.221   4.459   4.556  1.1128 -1.7914 -1.3880
 2349SOL    HW3 9442   2.111   4.545   4.496  3.3153  1.3073 -1.1188
 2349SOL    MW4 9443   2.153   4.469   4.502  0.2546 -0.3633 -0.0877
 2350SOL     OW 9444   0.338   3.210   3.786 -0.1605  0.2086  0.1207
 2350SOL    HW2 9445   0.243   3.220   3.785 -0.3042 -1.1065  0.2850
 2350SOL    HW3 9446   0.368   3.263   3.860 -0.7882  0.4546  0.1947
 2350SOL    MW4 9447   0.330   3.218   3.796 -0.2623  0.0677  0.1521
 2351SOL     OW 9448   3.212   3.193   3.816 -0.5099 -0.0683 -0.1280
 2351SOL    HW2 9449   3.164   3.243   3.882  0.4437 -1.7669  1.8941
 2351SOL    HW3 9450   3.167   3.213   3.734 -1.8152  1.9603  1.0308
 2351SOL    MW4 9451   3.200   3.202   3.814 -0.5560 -0.0246  0.2916
 2352SOL     OW 9452   3.690   1.293   4.723 -0.5816 -1.0012  0.4020
 2352SOL    HW2 9453   3.647   1.247   4.651 -1.6051 -1.1103  1.0692
 2352SOL    HW3 9454   3.618   1.324   4.777  0.1673 -0.3714  1.0401
 2352SOL    MW4 9455   3.675   1.291   4.721 -0.6182 -0.9326  0.5736
 2353SOL     OW 9456   3.671   4.349   4.242  0.2651 -0.2195 -0.0266
 2353SOL    HW2 9457   3.721   4.277   4.280 -0.2169  0.0337  1.1092
 2353SOL    HW3 9458   3.694   4.425   4.295  1.8795  0.8135 -2.0910
 2353SOL    MW4 9459   3.681   4.350   4.254  0.4146 -0.0496 -0.1493
 2354SOL     OW 9460   3.594   0.630   3.954  0.0411 -0.3627  0.0555
 2354SOL    HW2 9461   3.619   0.704   3.898  2.0080 -0.7416  0.3783
 2354SOL    HW3 9462   3.552   0.568   3.895  0.2392  0.1272 -0.6104
 2354SOL    MW4 9463   3.592   0.632   3.939  0.3269 -0.3480  0.0103
 2355SOL     OW 9464   0.597   2.835   3.796  0.3491  0.1352  0.0391
 2355SOL    HW2 9465   0.601   2.841   3.701 -0.1105 -0.8010 -0.0391
 2355SOL    HW3 9466   0.510   2.868   3.818  0.6378  0.8252  0.1835
 2355SOL    MW4 9467   0.586   2.840   3.787  0.3266  0.1025  0.0477
 2356SOL     OW 9468   2.689   4.025   3.575  0.0066  0.0009  0.7755
 2356SOL    HW2 9469   2.681   4.097   3.512  2.3069 -0.8460 -0.5476
 2356SOL    HW3 9470   2.733   4.063   3.650  0.1244  0.2556  0.5787
 2356SOL    MW4 9471   2.694   4.039   3.576  0.3259 -0.0777  0.5748
 2357SOL     OW 9472   3.843   3.092   4.499  0.0388 -0.1907  0.0782
 2357SOL    HW2 9473   3.883   3.085   4.413 -2.5007 -0.9741 -1.1046
 2357SOL    HW3 9474   3.887   3.025   4.552  1.7908  0.4721 -0.5079
 2357SOL    MW4 9475   3.854   3.082   4.495 -0.0653 -0.2067 -0.1554
 2358SOL     OW 9476   3.113   4.256   4.848  0.1005 -0.3629  0.4978
 2358SOL    HW2 9477   3.065   4.337   4.864  0.0683 -0.0090 -1.3263
 2358SOL    HW3 9478   3.048   4.187   4.858 -0.5870  0.0556 -1.0334
 2358SOL    MW4 9479   3.098   4.258   4.852  0.0057 -0.2608  0.0553
 2359SOL     OW 9480   3.244   0.300   4.617 -0.2709 -0.0224  0.1601
 2359SOL    HW2 9481   3.150   0.293   4.604 -0.1137  0.5399 -1.2934
 2359SOL    HW3 9482   3.268   0.383   4.577  1.4951 -2.0868 -3.2892
 2359SOL    MW4 9483   3.235   0.310   4.610 -0.0172 -0.2206 -0.4869
 2360SOL     OW 9484   2.776   0.814   3.803  0.1018  0.1028  0.4216
 2360SOL    HW2 9485   2.780   0.855   3.717 -0.4089  1.6035  1.0926
 2360SOL    HW3 9486   2.868   0.807   3.831  0.2995 -0.8644 -0.4487
 2360SOL    MW4 9487   2.789   0.818   3.796  0.0606  0.1732  0.3955
 2361SOL     OW 9488   3.496   0.931   4.553 -0.2474 -0.3107 -0.2054
 2361SOL    HW2 9489   3.567   0.897   4.499  0.5372  0.5604  0.2597
 2361SOL    HW3 9490   3.508   1.026   4.551 -1.2069 -0.1747  0.1447
 2361SOL    MW4 9491   3.507   0.939   4.546 -0.2704 -0.1778 -0.0978
 2362SOL     OW 9492   0.197   2.475   4.333 -0.2065  0.0196 -0.4879
 2362SOL    HW2 9493   0.206   2.454   4.426 -1.1695 -0.6545 -0.5381
 2362SOL    HW3 9494   0.159   2.563   4.332 -0.9024 -0.2752 -0.2372
 2362SOL    MW4 9495   0.193   2.484   4.346 -0.4253 -0.1082 -0.4606
 2363SOL     OW 9496   0.023   3.093   4.345  0.2003 -0.0053  0.5617
 2363SOL    HW2 9497   0.026   3.186   4.368 -2.5506 -0.2386  2.0715
 2363SOL    HW3 9498  -0.032   3.089   4.267  1.4454 -0.2657 -0.3308
 2363SOL    MW4 9499   0.016   3.105   4.338  0.0016 -0.0703  0.6433
 2364SOL     OW 9500   3.096   0.927   4.310  0.2569  0.4837  0.2695
 2364SOL    HW2 9501   3.140   0.915   4.394  0.3023  0.9628  0.3177
 2364SOL    HW3 9502   3.046   0.847   4.297 -0.8985  0.9904  1.4628
 2364SOL    MW4 9503   3.095   0.915   4.319  0.1104  0.6137  0.4330
 2365SOL     OW 9504   1.937   0.370   4.234 -0.0468 -0.0247  0.1008
 2365SOL    HW2 9505   1.886   0.289   4.230  1.3074 -0.8335 -1.2274
 2365SOL    HW3 9506   2.023   0.346   4.201  0.7958  1.6478  1.0120
 2365SOL    MW4 9507   1.941   0.357   4.229  0.2432  0.0892  0.0453
 2366SOL     OW 9508   4.260   1.360   4.279 -0.1387  0.2104  0.5617
 2366SOL    HW2 9509   4.270   1.282   4.334 -2.6719  0.2964  1.1669
 2366SOL    HW3 9510   4.200   1.416   4.326  0.5743  1.9486 -0.5545
 2366SOL    MW4 9511   4.254   1.357   4.292 -0.3786  0.4512  0.4940
 2367SOL     OW 9512   0.517   0.402   3.834  0.0093 -0.1540  0.0942
 2367SOL    HW2 9513   0.595   0.453   3.811  0.0344 -0.5733 -0.7762
 2367SOL    HW3 9514   0.543   0.311   3.818 -0.6198 -0.3025 -0.0820
 2367SOL    MW4 9515   0.531   0.397   3.829 -0.0703 -0.2289 -0.0439
 2368SOL     OW 9516   2.631   1.809   3.857  0.2175 -0.3864 -0.2346
 2368SOL    HW2 9517   2.618   1.875   3.925 -0.5530 -1.0700  0.2938
 2368SOL    HW3 9518   2.550   1.758   3.857  0.6187 -1.0405 -0.9593
 2368SOL    MW4 9519   2.618   1.811   3.866  0.1686 -0.5629 -0.2608
 2369SOL     OW 9520   4.146   1.965   4.242  0.0749 -0.0807 -0.1288
 2369SOL    HW2 9521   4.214   2.020   4.280  0.8813 -0.4650 -1.0036
 2369SOL    HW3 9522   4.132   2.001   4.155  0.2886 -0.9828 -0.5405
 2369SOL    MW4 9523   4.153   1.977   4.236  0.2093 -0.2505 -0.2985
 2370SOL     OW 9524   2.215   3.726   4.113  0.1130 -0.3333  0.6387
 2370SOL    HW2 9525   2.240   3.815   4.090  2.1880 -1.2098 -0.5903
 2370SOL    HW3 9526   2.231   3.720   4.207  2.1722 -0.1061  0.3103
 2370SOL    MW4 9527   2.220   3.737   4.122  0.6585 -0.4191  0.4330
 2371SOL     OW 9528   0.007   2.380   3.780  0.5057 -0.6499 -0.0018
 2371SOL    HW2 9529  -0.046   2.393   3.859 -0.9910 -1.1535 -0.9076
 2371SOL    HW3 9530   0.042   2.467   3.761 -1.0420 -0.0339 -0.1212
 2371SOL    MW4 9531   0.005   2.393   3.788  0.1035 -0.6351 -0.1369
 2372SOL     OW 9532   1.302   3.496   4.252  0.6105  0.4251 -0.5048
 2372SOL    HW2 9533   1.214   3.531   4.238  0.9638  0.9273 -1.4851
 2372SOL    HW3 9534   1.327   3.526   4.339 -0.1957  0.2621 -0.2152
 2372SOL    MW4 9535   1.294   3.504   4.262  0.5507  0.4702 -0.5960
 2373SOL     OW 9536   2.890   0.809   4.581  0.1361 -0.0039  0.0134
 2373SOL    HW2 9537   2.983   0.790   4.567 -0.1921 -1.4216 -0.3573
 2373SOL    HW3 9538   2.870   0.879   4.519  1.3592  1.5258  1.3028
 2373SOL    MW4 9539   2.900   0.816   4.571  0.2544  0.0109  0.1340
 2374SOL     OW 9540   2.938   3.620   3.529 -0.2024 -0.0783  0.4592
 2374SOL    HW2 9541   3.016   3.584   3.487  1.0442  1.4054  1.4452
 2374SOL    HW3 9542   2.943   3.591   3.620 -1.6403 -1.2853  0.1756
 2374SOL    MW4 9543   2.949   3.612   3.535 -0.2277 -0.0417  0.5517
 2375SOL     OW 9544   0.699   3.794   4.804 -0.1794 -0.0226  0.1180
 2375SOL    HW2 9545   0.742   3.879   4.801 -0.2687  0.0828  1.3686
 2375SOL    HW3 9546   0.626   3.801   4.742 -1.7469  1.6971  2.0829
 2375SOL    MW4 9547   0.695   3.806   4.796 -0.3980  0.2182  0.5422
 2376SOL     OW 9548   3.146   2.946   3.891  0.5027  0.2620  0.0201
 2376SOL    HW2 9549   3.051   2.951   3.881  0.4489 -1.3828 -0.3229
 2376SOL    HW3 9550   3.178   3.029   3.855 -0.6116 -0.2559 -2.2255
 2376SOL    MW4 9551   3.138   2.958   3.885  0.3486 -0.0238 -0.3214
 2377SOL     OW 9552   4.119   1.023   4.000 -0.2807  0.1185 -0.2008
 2377SOL    HW2 9553   4.173   1.102   4.001  1.0759 -0.8031  1.4846
 2377SOL    HW3 9554   4.179   0.953   3.975 -1.3186 -0.5116 -0.9966
 2377SOL    MW4 9555   4.134   1.024   3.997 -0.2389 -0.0863 -0.0832
 2378SOL     OW 9556   2.936   1.905   4.206  0.1243 -0.3587  0.2223
 2378SOL    HW2 9557   2.901   1.987   4.241 -0.0583 -0.8784  1.2704
 2378SOL    HW3 9558   2.932   1.917   4.111 -1.6740  0.1257  0.3261
 2378SOL    MW4 9559   2.931   1.918   4.198 -0.1369 -0.3633  0.3743
 2379SOL     OW 9560   3.485   3.349   4.562  0.0077  0.0557  0.1113
 2379SOL    HW2 9561   3.440   3.422   4.604  1.0097  0.1341  1.0749
 2379SOL    HW3 9562   3.566   3.386   4.528  1.1684 -0.8484  1.7864
 2379SOL    MW4 9563   3.490   3.363   4.563  0.2930 -0.0532  0.4597
 2380SOL     OW 9564   3.783   4.221   3.799  0.2927  0.4653 -0.0547
 2380SOL    HW2 9565   3.803   4.270   3.719  0.2494  0.7190  0.0893
 2380SOL    HW3 9566   3.853   4.155   3.804 -0.5955 -0.5812 -1.1361
 2380SOL    MW4 9567   3.795   4.219   3.789  0.1700  0.3600 -0.1786
 2381SOL     OW 9568   1.115   1.341   4.654  0.0148  0.0503  0.1999
 2381SOL    HW2 9569   1.023   1.327   4.630 -0.7958  0.1624  2.9634
 2381SOL    HW3 9570   1.128   1.435   4.642 -0.2363  0.0282 -0.2531
 2381SOL    MW4 9571   1.104   1.352   4.649 -0.1253  0.0622  0.5045
 2382SOL     OW 9572   1.321   0.540   4.548  0.1747  0.0800 -0.0795
 2382SOL    HW2 9573   1.271   0.483   4.606  0.2036 -1.1766 -1.2602
 2382SOL    HW3 9574   1.287   0.521   4.461  0.2211  1.8474 -0.4959
 2382SOL    MW4 9575   1.310   0.530   4.544  0.1848  0.1473 -0.2899
 2383SOL     OW 9576   0.256   3.002   4.532  0.1114 -0.3791  0.8919
 2383SOL    HW2 9577   0.305   2.921   4.549 -0.8693 -1.3301 -0.6934
 2383SOL    HW3 9578   0.171   2.972   4.501 -0.3154  1.2659  0.4478
 2383SOL    MW4 9579   0.251   2.987   4.530 -0.0743 -0.2875  0.6242
 2384SOL     OW 9580   2.061   4.373   3.800 -0.1446  0.2322 -0.2031
 2384SOL    HW2 9581   2.147   4.393   3.836 -0.1981 -1.8903  1.1705
 2384SOL    HW3 9582   2.001   4.430   3.847  0.3031  0.5027  0.0381
 2384SOL    MW4 9583   2.064   4.383   3.811 -0.0925 -0.0119  0.0098
 2385SOL     OW 9584   3.732   1.829   3.965 -0.2563  0.4708  0.2400
 2385SOL    HW2 9585   3.813   1.801   4.009 -0.9910 -0.4020  1.0543
 2385SOL    HW3 9586   3.706   1.754   3.913 -2.1798 -0.3856  2.3453
 2385SOL    MW4 9587   3.739   1.816   3.964 -0.6073  0.2427  0.6254
 2386SOL     OW 9588   4.309   0.232   4.782 -0.4006 -0.7035 -0.3172
 2386SOL    HW2 9589   4.273   0.299   4.725  0.9742  0.8165  0.5702
 2386SOL    HW3 9590   4.235   0.202   4.834 -0.9746  0.2724 -0.5565
 2386SOL    MW4 9591   4.295   0.237   4.781 -0.2952 -0.3742 -0.2317
 2387SOL     OW 9592   2.816   0.036   4.158 -0.0093 -0.4306 -0.4867
 2387SOL    HW2 9593   2.746   0.071   4.212  0.1176  0.4411 -0.8825
 2387SOL    HW3 9594   2.774  -0.032   4.104 -0.6144  0.3018 -0.9424
 2387SOL    MW4 9595   2.801   0.031   4.158 -0.0727 -0.2190 -0.5994
 2388SOL     OW 9596   0.660   2.726   4.679 -0.6974  0.5369  0.3508
 2388SOL    HW2 9597   0.661   2.712   4.774 -3.0595 -1.8106  0.0915
 2388SOL    HW3 9598   0.693   2.815   4.668 -1.4146  1.2601  3.4850
 2388SOL    MW4 9599   0.664   2.736   4.690 -1.1038  0.3226  0.7300
 2389SOL     OW 9600   0.368   1.762   3.730  0.0080 -0.2542  0.1010
 2389SOL    HW2 9601   0.278   1.734   3.744  0.2632 -1.5622 -0.7176
 2389SOL    HW3 9602   0.421   1.692   3.768  0.6637 -0.9588 -2.0400
 2389SOL    MW4 9603   0.363   1.749   3.737  0.1282 -0.5198 -0.2897
 2390SOL     OW 9604   0.194   4.225   4.136  0.5150  0.2264  0.8906
 2390SOL    HW2 9605   0.289   4.239   4.134  0.4223  0.7941  0.4184
 2390SOL    HW3 9606   0.182   4.158   4.203  1.2737 -0.0340  0.7840
 2390SOL    MW4 9607   0.205   4.218   4.144  0.6029  0.2670  0.8140
 2391SOL     OW 9608   4.183   0.325   4.218  0.4303  0.3700 -0.0276
 2391SOL    HW2 9609   4.232   0.342   4.137 -0.0015 -0.2624 -0.4243
 2391SOL    HW3 9610   4.225   0.248   4.256 -1.1662 -1.0851 -1.1311
 2391SOL    MW4 9611   4.195   0.317   4.212  0.1631  0.0946 -0.2260
 2392SOL     OW 9612   3.938   2.547   3.751  0.2191 -0.5441  0.2831
 2392SOL    HW2 9613   3.948   2.642   3.759  1.0111 -0.3924 -2.0855
 2392SOL    HW3 9614   3.851   2.529   3.785 -0.0628  1.0718  0.4693
 2392SOL    MW4 9615   3.928   2.558   3.756  0.2866 -0.3109 -0.0050
 2393SOL     OW 9616   3.376   4.309   4.526  0.0943 -0.5368  0.2576
 2393SOL    HW2 9617   3.280   4.317   4.529  0.2918  2.2950  0.4619
 2393SOL    HW3 9618   3.394   4.267   4.442 -1.2491  0.4321 -0.5356
 2393SOL    MW4 9619   3.366   4.304   4.515 -0.0567 -0.0358  0.1798
 2394SOL     OW 9620   0.833   3.119   4.121 -0.0988 -0.0176 -0.1618
 2394SOL    HW2 9621   0.836   3.214   4.128  0.1400  0.0143 -0.7068
 2394SOL    HW3 9622   0.776   3.091   4.193  0.2605  0.4988  0.3291
 2394SOL    MW4 9623   0.826   3.128   4.132 -0.0198  0.0548 -0.1688
 2395SOL     OW 9624   1.034   2.838   4.081  0.6443  0.0013 -0.0868
 2395SOL    HW2 9625   1.027   2.933   4.066 -0.8853  0.1493  1.3807
 2395SOL    HW3 9626   0.974   2.800   4.017  1.3715 -0.0018 -0.7784
 2395SOL    MW4 9627   1.025   2.846   4.070  0.5383  0.0205  0.0157
 2396SOL     OW 9628   3.958   2.897   4.648  0.0452 -0.3714 -0.4844
 2396SOL    HW2 9629   3.886   2.891   4.710 -1.3327 -0.5415 -2.0621
 2396SOL    HW3 9630   3.976   2.806   4.624  0.4943 -0.2979 -0.4371
 2396SOL    MW4 9631   3.951   2.884   4.653 -0.0772 -0.3841 -0.6862
 2397SOL     OW 9632   0.011   1.073   4.037  0.3819 -0.0429  0.0568
 2397SOL    HW2 9633   0.101   1.104   4.032  0.1909  0.8652  1.6639
 2397SOL    HW3 9634  -0.041   1.153   4.038 -0.2356 -0.4336  2.3880
 2397SOL    MW4 9635   0.016   1.088   4.036  0.2747  0.0254  0.5765
 2398SOL     OW 9636   3.337   2.244   4.589 -0.1693 -0.4316  0.3692
 2398SOL    HW2 9637   3.285   2.322   4.609 -0.5057 -0.1863 -1.4385
 2398SOL    HW3 9638   3.424   2.279   4.567  0.1699 -0.7002  1.2421
 2398SOL    MW4 9639   3.342   2.259   4.589 -0.1688 -0.4349  0.2456
 2399SOL     OW 9640   3.233   4.622   4.275 -0.1138  0.7231 -0.2854
 2399SOL    HW2 9641   3.295   4.594   4.342 -1.0226 -0.4900  0.0625
 2399SOL    HW3 9642   3.284   4.676   4.215  1.0834  0.4204  0.4646
 2399SOL    MW4 9643   3.248   4.625   4.276 -0.0758  0.5231 -0.1411
 2400SOL     OW 9644   0.651   4.263   3.764  0.3757  0.1712  0.3419
 2400SOL    HW2 9645   0.592   4.318   3.816  0.3324 -1.6101  2.2386
 2400SOL    HW3 9646   0.611   4.177   3.765  1.3139 -0.3003 -1.1767
 2400SOL    MW4 9647   0.638   4.259   3.771  0.4938 -0.1264  0.3917
 2401SOL     OW 9648   3.479   3.462   4.047  0.0466 -0.1311 -0.1423
 2401SOL    HW2 9649   3.572   3.481   4.063  0.1538 -1.4646  0.8498
 2401SOL    HW3 9650   3.477   3.428   3.958  0.2819  1.4130 -0.7609
 2401SOL    MW4 9651   3.491   3.460   4.037  0.0918 -0.1035 -0.0930
 2402SOL     OW 9652   2.353   4.103   4.451 -0.6748 -0.2342  0.2052
 2402SOL    HW2 9653   2.347   4.065   4.363  0.0203 -1.2435  0.5888
 2402SOL    HW3 9654   2.440   4.143   4.454 -1.4986  1.6298 -0.2821
 2402SOL    MW4 9655   2.364   4.103   4.440 -0.6919 -0.1211  0.1917
 2403SOL     OW 9656   0.478   0.392   4.117 -0.1141  0.3475 -0.3415
 2403SOL    HW2 9657   0.491   0.393   4.022 -0.8407  0.2354 -0.4414
 2403SOL    HW3 9658   0.438   0.477   4.136  2.2221  1.3741  0.1787
 2403SOL    MW4 9659   0.474   0.403   4.107  0.0983  0.4682 -0.2861
 2404SOL     OW 9660   1.645   4.288   4.505  0.4487  0.7315  0.2398
 2404SOL    HW2 9661   1.650   4.229   4.580 -0.0010  0.5055  0.0914
 2404SOL    HW3 9662   1.641   4.375   4.544 -0.4839  0.5771  0.4986
 2404SOL    MW4 9663   1.645   4.292   4.520  0.2663  0.6819  0.2542
 2405SOL     OW 9664   1.066   4.548   4.611  0.4157 -0.2898  0.2692
 2405SOL    HW2 9665   1.066   4.485   4.539  1.7359  0.6503 -0.5794
 2405SOL    HW3 9666   1.154   4.541   4.649 -0.0099 -0.2123  1.2959
 2405SOL    MW4 9667   1.078   4.538   4.607  0.5338 -0.1550  0.2928
 2406SOL     OW 9668   3.229   1.946   4.012  0.0327  0.0492  0.7003
 2406SOL    HW2 9669   3.258   2.017   3.955 -0.8071 -0.0077  0.2036
 2406SOL    HW3 9670   3.135   1.939   3.997  0.1955 -1.5863  0.2754
 2406SOL    MW4 9671   3.220   1.954   4.003 -0.0565 -0.1742  0.5779
 2407SOL     OW 9672   2.681   1.580   4.611  0.1428 -0.0100  0.2974
 2407SOL    HW2 9673   2.747   1.605   4.675 -0.7249  0.1793  1.1355
 2407SOL    HW3 9674   2.634   1.662   4.592  1.0615  0.1633 -1.3872
 2407SOL    MW4 9675   2.683   1.594   4.617  0.1493  0.0378  0.1855
 2408SOL     OW 9676   0.468   0.402   3.417  0.4687  0.0823  0.5908
 2408SOL    HW2 9677   0.473   0.321   3.469  4.2089  0.5213  1.1003
 2408SOL    HW3 9678   0.392   0.448   3.452  0.4669 -1.5421  2.8542
 2408SOL    MW4 9679   0.459   0.397   3.429  0.9620 -0.0741  0.9568
 2409SOL     OW 9680   0.677   4.561   4.429 -0.3464 -0.2377 -0.2287
 2409SOL    HW2 9681   0.710   4.568   4.340  0.7279  1.6101  0.2844
 2409SOL    HW3 9682   0.654   4.650   4.454 -1.5244 -0.8632  1.0181
 2409SOL    MW4 9683   0.678   4.574   4.421 -0.3601 -0.0763  0.0033
 2410SOL     OW 9684   0.325   2.832   4.157  0.3167  0.0762  0.0550
 2410SOL    HW2 9685   0.326   2.872   4.070  2.7415  0.6200  0.2957
 2410SOL    HW3 9686   0.361   2.900   4.215  1.3632 -1.2465  0.9931
 2410SOL    MW4 9687   0.330   2.846   4.153  0.7747 -0.0267  0.2108
 2411SOL     OW 9688   3.792   0.122   4.374  0.0945 -0.3996 -0.5365
 2411SOL    HW2 9689   3.704   0.158   4.359  0.5078  1.4620  1.2836
 2411SOL    HW3 9690   3.841   0.149   4.296  0.2225  2.5548  0.4836
 2411SOL    MW4 9691   3.787   0.130   4.361  0.1659  0.2358 -0.1616
 2412SOL     OW 9692   1.000   0.158   4.547 -0.4561  0.1334 -0.0439
 2412SOL    HW2 9693   1.007   0.064   4.564  1.0978  0.2272 -0.0954
 2412SOL    HW3 9694   1.044   0.170   4.462  1.0102  1.1559  0.8310
 2412SOL    MW4 9695   1.007   0.147   4.538 -0.0578  0.2807  0.0648
 2413SOL     OW 9696   2.921   3.948   4.234  0.1458  0.0416  0.0515
 2413SOL    HW2 9697   2.973   3.891   4.177 -0.0550 -0.4870  0.3905
 2413SOL    HW3 9698   2.917   4.031   4.188  1.8659  0.2956  0.3472
 2413SOL    MW4 9699   2.927   3.951   4.221  0.3462  0.0055  0.1349
 2414SOL     OW 9700   1.125   2.071   4.672 -0.1485  0.3185  0.2703
 2414SOL    HW2 9701   1.077   2.152   4.651 -2.2472 -0.9997 -0.1386
 2414SOL    HW3 9702   1.091   2.044   4.757  0.3782 -0.2892  0.2901
 2414SOL    MW4 9703   1.115   2.078   4.680 -0.3558  0.0646  0.2193
 2415SOL     OW 9704   0.471   1.966   3.910 -0.0580 -0.2012 -0.1495
 2415SOL    HW2 9705   0.537   2.005   3.854  0.0101  0.7051  0.5327
 2415SOL    HW3 9706   0.427   1.901   3.856  1.2224 -0.6274 -0.6743
 2415SOL    MW4 9707   0.474   1.963   3.896  0.1199 -0.1379 -0.1285
 2416SOL     OW 9708   0.732   1.235   4.068  0.6391  0.2899 -0.0452
 2416SOL    HW2 9709   0.763   1.229   3.977  3.2554 -0.8578  0.8670
 2416SOL    HW3 9710   0.770   1.316   4.100  0.2274  0.3790  0.2198
 2416SOL    MW4 9711   0.741   1.245   4.060  0.9299  0.1502  0.1101
 2417SOL     OW 9712   1.303   3.545   4.519  0.3868  0.1181  0.0045
 2417SOL    HW2 9713   1.293   3.639   4.530  0.6393  0.1160  0.2677
 2417SOL    HW3 9714   1.217   3.509   4.541 -0.1478  0.4004 -1.5681
 2417SOL    MW4 9715   1.290   3.552   4.524  0.3495  0.1552 -0.1688
 2418SOL     OW 9716   1.186   0.499   4.301  0.2671  0.1820  0.0493
 2418SOL    HW2 9717   1.154   0.410   4.316  0.9782 -0.2092 -0.7065
 2418SOL    HW3 9718   1.112   0.555   4.325 -1.3929 -0.7430 -2.6165
 2418SOL    MW4 9719   1.172   0.494   4.306  0.1420  0.0083 -0.4020
 2419SOL     OW 9720   2.669   4.220   4.763  0.1303 -0.1609  0.0982
 2419SOL    HW2 9721   2.754   4.175   4.767  0.5585  0.6638  0.4198
 2419SOL    HW3 9722   2.609   4.161   4.809  0.3440 -1.1460 -0.8740
 2419SOL    MW4 9723   2.672   4.206   4.770  0.2151 -0.1822  0.0129
 2420SOL     OW 9724   0.868   2.809   4.311  0.3989  0.5463  0.0423
 2420SOL    HW2 9725   0.787   2.858   4.318 -1.8331 -2.6144 -2.3563
 2420SOL    HW3 9726   0.897   2.821   4.221  1.3064 -0.2970  0.2016
 2420SOL    MW4 9727   0.861   2.817   4.300  0.2242  0.0179 -0.2532
 2421SOL     OW 9728   4.304   4.356   3.768  0.1028  0.2801 -0.2248
 2421SOL    HW2 9729   4.244   4.418   3.808 -1.1262 -1.4977  0.7480
 2421SOL    HW3 9730   4.383   4.361   3.822  0.2276  1.4077 -0.5032
 2421SOL    MW4 9731   4.307   4.365   3.780 -0.0429  0.1945 -0.1335
 2422SOL     OW 9732   4.325   2.160   4.370 -0.1876  0.5362 -0.4188
 2422SOL    HW2 9733   4.247   2.212   4.390 -0.1799  0.6047 -0.5638
 2422SOL    HW3 9734   4.378   2.217   4.313  0.3631  0.8205  0.3671
 2422SOL    MW4 9735   4.322   2.175   4.365 -0.1140  0.5829 -0.3343
 2423SOL     OW 9736   0.489   2.683   4.337  0.5580  0.4455 -0.0886
 2423SOL    HW2 9737   0.453   2.723   4.416  0.6749  0.6577 -0.1425
 2423SOL    HW3 9738   0.429   2.709   4.267  0.0903 -0.2849  0.0383
 2423SOL    MW4 9739   0.476   2.692   4.338  0.5117  0.3772 -0.0787
 2424SOL     OW 9740   4.283   0.112   4.373 -0.3843  0.1323 -0.0368
 2424SOL    HW2 9741   4.259   0.022   4.352  2.7222 -0.4110 -1.6541
 2424SOL    HW3 9742   4.213   0.144   4.430 -0.0353 -4.2682  3.0737
 2424SOL    MW4 9743   4.271   0.104   4.378  0.0720 -0.5200  0.1602
 2425SOL     OW 9744   3.580   1.881   4.197  0.1561  0.4299 -0.4016
 2425SOL    HW2 9745   3.639   1.866   4.123  1.1209  0.0839  0.4201
 2425SOL    HW3 9746   3.534   1.799   4.209 -0.3331  0.6319 -0.9111
 2425SOL    MW4 9747   3.582   1.868   4.189  0.2189  0.4109 -0.3600
 2426SOL     OW 9748   1.021   3.478   4.568 -0.1233  0.3653  0.1470
 2426SOL    HW2 9749   0.930   3.474   4.596 -0.3829 -0.5043 -0.7868
 2426SOL    HW3 9750   1.035   3.396   4.520  0.5392  1.4416 -1.5380
 2426SOL    MW4 9751   1.011   3.466   4.565 -0.0703  0.3927 -0.1988
 2427SOL     OW 9752   1.105   1.338   3.789 -0.4438 -0.2654  0.0473
 2427SOL    HW2 9753   1.011   1.324   3.799 -0.4685  0.2361  0.5460
 2427SOL    HW3 9754   1.125   1.412   3.847 -0.0159  0.6374 -1.2128
 2427SOL    MW4 9755   1.095   1.346   3.798 -0.3904 -0.0801 -0.0529
 2428SOL     OW 9756   4.260   1.316   3.554 -0.2123 -0.1927 -0.0914
 2428SOL    HW2 9757   4.263   1.393   3.496  1.2397 -0.3206 -0.2172
 2428SOL    HW3 9758   4.343   1.271   3.537  0.0543 -0.4515  1.7798
 2428SOL    MW4 9759   4.272   1.320   3.544  0.0138 -0.2438  0.1385
 2429SOL     OW 9760   1.154   4.042   3.825 -0.5498 -0.2927  0.5232
 2429SOL    HW2 9761   1.235   4.010   3.785 -0.2334  0.3725  0.6336
 2429SOL    HW3 9762   1.088   3.977   3.800  0.3823 -1.8817  2.0134
 2429SOL    MW4 9763   1.156   4.029   3.817 -0.3852 -0.4144  0.7343
 2430SOL     OW 9764   0.066   0.343   3.884 -0.2844 -0.2306  0.0378
 2430SOL    HW2 9765  -0.028   0.346   3.902 -0.3347 -0.7813 -0.1205
 2430SOL    HW3 9766   0.076   0.267   3.826  0.1402  0.3361 -0.6314
 2430SOL    MW4 9767   0.055   0.333   3.879 -0.2350 -0.2286 -0.0715
 2431SOL     OW 9768   4.275   1.921   3.834 -0.1681  0.7614  0.3271
 2431SOL    HW2 9769   4.268   1.970   3.753 -0.2042  1.4513  0.7426
 2431SOL    HW3 9770   4.218   1.845   3.821 -0.6089  1.1592 -0.0788
 2431SOL    MW4 9771   4.266   1.917   3.822 -0.2308  0.9049  0.3285
 2432SOL     OW 9772   2.242   1.213   4.477  0.2592  0.0512 -0.1447
 2432SOL    HW2 9773   2.234   1.208   4.381 -1.0067  0.4164 -0.0543
 2432SOL    HW3 9774   2.168   1.162   4.510 -0.9675  2.3261  0.6696
 2432SOL    MW4 9775   2.231   1.205   4.468 -0.0696  0.3996 -0.0253
 2433SOL     OW 9776   2.602   0.528   4.120  0.0151  0.3430  0.5053
 2433SOL    HW2 9777   2.583   0.580   4.198  0.6284  1.9143 -0.3776
 2433SOL    HW3 9778   2.588   0.588   4.047  0.4086 -0.8364 -0.5576
 2433SOL    MW4 9779   2.597   0.542   4.121  0.1478  0.3948  0.2484
 2434SOL     OW 9780   0.088   0.344   4.718 -0.1080 -0.2651  0.0777
 2434SOL    HW2 9781   0.143   0.271   4.689 -0.2922  0.4050 -2.0449
 2434SOL    HW3 9782   0.024   0.303   4.776  1.4870 -1.3384  1.1366
 2434SOL    MW4 9783   0.087   0.329   4.722  0.0781 -0.3183 -0.0625
 2435SOL     OW 9784   0.650   3.271   4.617 -0.4845 -0.0443 -0.1872
 2435SOL    HW2 9785   0.555   3.287   4.616 -0.6686 -0.8688  1.7998
 2435SOL    HW3 9786   0.687   3.355   4.644 -0.8480 -0.4427  1.6169
 2435SOL    MW4 9787   0.642   3.285   4.620 -0.5568 -0.2055  0.3128
 2436SOL     OW 9788   3.752   0.450   4.157 -0.0442  0.2645  0.1983
 2436SOL    HW2 9789   3.814   0.512   4.195 -0.8507  1.1224  0.1254
 2436SOL    HW3 9790   3.697   0.503   4.099 -1.0858 -0.4260  0.5374
 2436SOL    MW4 9791   3.753   0.465   4.154 -0.2880  0.2866  0.2337
 2437SOL     OW 9792   2.809   3.484   4.254  0.0074  0.2729 -0.0416
 2437SOL    HW2 9793   2.764   3.403   4.230 -0.8390  0.1079  1.9852
 2437SOL    HW3 9794   2.899   3.472   4.225  0.1156 -1.7869  1.1023
 2437SOL    MW4 9795   2.815   3.472   4.247 -0.0901 -0.0207  0.3767
 2438SOL     OW 9796   0.932   0.126   4.152 -0.1980  0.2881 -0.7229
 2438SOL    HW2 9797   0.858   0.180   4.126 -0.2326  0.1623 -0.8842
 2438SOL    HW3 9798   0.975   0.102   4.070  0.6767  1.2954 -0.5705
 2438SOL    MW4 9799   0.928   0.130   4.138 -0.0872  0.4044 -0.7238
 2439SOL     OW 9800   0.988   2.186   4.357  0.1455  0.0735 -0.2437
 2439SOL    HW2 9801   0.916   2.234   4.316  0.5518  0.6238 -0.3103
 2439SOL    HW3 9802   0.998   2.225   4.443  0.0330 -0.3425 -0.0415
 2439SOL    MW4 9803   0.980   2.197   4.363  0.1842  0.0911 -0.2265
 2440SOL     OW 9804   3.884   0.720   4.177  0.0441  0.1845  0.0022
 2440SOL    HW2 9805   3.895   0.683   4.090 -0.3120 -0.0326  0.0483
 2440SOL    HW3 9806   3.964   0.696   4.224  0.3136  0.4535 -0.3185
 2440SOL    MW4 9807   3.896   0.712   4.172  0.0327  0.1913 -0.0339
 2441SOL     OW 9808   2.835   4.148   3.795  0.1426 -0.4496 -0.0174
 2441SOL    HW2 9809   2.780   4.103   3.858  0.5818 -2.7610 -1.2203
 2441SOL    HW3 9810   2.917   4.098   3.796  0.3105 -0.2424 -2.0448
 2441SOL    MW4 9811   2.839   4.135   3.803  0.2227 -0.7272 -0.4435
 2442SOL     OW 9812   4.480   1.698   4.555  0.0037  0.0789 -0.0308
 2442SOL    HW2 9813   4.407   1.719   4.613  1.1525 -0.0583  1.4966
 2442SOL    HW3 9814   4.486   1.774   4.496 -0.2919  0.8698  0.9431
 2442SOL    MW4 9815   4.471   1.711   4.554  0.1159  0.1652  0.2995
 2443SOL     OW 9816   2.041   0.865   4.352 -0.2778  0.0382  0.3183
 2443SOL    HW2 9817   2.020   0.952   4.385 -0.3059  0.2440 -0.2551
 2443SOL    HW3 9818   2.009   0.863   4.262  2.2515  0.4378 -0.6484
 2443SOL    MW4 9819   2.034   0.876   4.345  0.0525  0.1181  0.1154
 2444SOL     OW 9820   1.918   1.378   4.074 -0.0234 -0.3029  0.0695
 2444SOL    HW2 9821   1.908   1.357   3.981 -1.5184 -0.6567  0.2867
 2444SOL    HW3 9822   2.012   1.383   4.088  0.2009  1.0796 -1.7550
 2444SOL    MW4 9823   1.929   1.376   4.063 -0.1910 -0.1670 -0.1431
 2445SOL     OW 9824   0.259   3.687   4.547  0.0522 -0.1093 -0.2308
 2445SOL    HW2 9825   0.204   3.763   4.528 -1.0245 -0.4236  1.4635
 2445SOL    HW3 9826   0.344   3.724   4.571 -0.4040  0.5692  0.3774
 2445SOL    MW4 9827   0.263   3.702   4.548 -0.1501 -0.0613  0.0730
 2446SOL     OW 9828   1.541   3.938   4.570  0.1493 -0.1425  0.1598
 2446SOL    HW2 9829   1.454   3.898   4.572  0.3782 -0.6465  0.0250
 2446SOL    HW3 9830   1.580   3.906   4.488 -0.7450  2.6321 -1.4238
 2446SOL    MW4 9831   1.535   3.929   4.559  0.0616  0.1569 -0.0668
 2447SOL     OW 9832   0.345   0.787   3.874 -0.2681 -0.6307  0.4098
 2447SOL    HW2 9833   0.321   0.704   3.834  0.8864 -0.9197  0.3069
 2447SOL    HW3 9834   0.383   0.762   3.959  0.8496 -0.2665  0.0222
 2447SOL    MW4 9835   0.347   0.773   3.880  0.0317 -0.6208  0.3452
 2448SOL     OW 9836   1.791   2.227   4.117 -0.1279 -0.3635 -0.0242
 2448SOL    HW2 9837   1.825   2.183   4.039 -3.8205 -0.0641 -1.9065
 2448SOL    HW3 9838   1.767   2.315   4.087 -0.7145  0.0992  1.7194
 2448SOL    MW4 9839   1.793   2.233   4.103 -0.6925 -0.2630 -0.0429
 2449SOL     OW 9840   2.933   1.283   4.769  0.3443  0.2261  0.5586
 2449SOL    HW2 9841   2.941   1.278   4.673  2.5129  0.6631  0.6943
 2449SOL    HW3 9842   2.842   1.258   4.786 -0.2394  0.6607 -1.6553
 2449SOL    MW4 9843   2.922   1.279   4.758  0.5534  0.3411  0.2842
 2450SOL     OW 9844   0.077   4.327   3.868 -0.4741 -0.1272 -0.1593
 2450SOL    HW2 9845   0.123   4.404   3.835  0.2185 -0.7514 -0.6645
 2450SOL    HW3 9846   0.084   4.335   3.964 -0.1315  0.2666 -0.2133
 2450SOL    MW4 9847   0.084   4.338   3.877 -0.3375 -0.1578 -0.2332
 2451SOL     OW 9848   0.814   1.320   3.799 -0.2487  0.2918 -0.2290
 2451SOL    HW2 9849   0.810   1.416   3.793  0.1007  0.3883  0.9963
 2451SOL    HW3 9850   0.786   1.290   3.712 -0.4984  1.4980 -0.5823
 2451SOL    MW4 9851   0.810   1.329   3.787 -0.2356  0.4637 -0.1140
 2452SOL     OW 9852   2.821   1.562   4.192 -0.2422 -0.0225  0.4550
 2452SOL    HW2 9853   2.803   1.584   4.101 -0.2526 -0.7876  0.2683
 2452SOL    HW3 9854   2.734   1.545   4.230 -0.2008 -0.1792  0.4813
 2452SOL    MW4 9855   2.807   1.563   4.185 -0.2382 -0.1440  0.4339
 2453SOL     OW 9856   4.050   3.968   4.364 -0.4640 -0.0324 -0.3380
 2453SOL    HW2 9857   3.991   3.940   4.294  0.3845 -0.8611 -0.7348
 2453SOL    HW3 9858   4.126   4.004   4.319 -0.2763  0.2043  0.1615
 2453SOL    MW4 9859   4.052   3.969   4.349 -0.3271 -0.1104 -0.3242
 2454SOL     OW 9860   0.757   2.481   4.594  0.4483 -0.0388  0.3704
 2454SOL    HW2 9861   0.734   2.572   4.615 -0.6981 -0.3865  0.6245
 2454SOL    HW3 9862   0.673   2.436   4.587  1.0234 -1.1605  0.6001
 2454SOL    MW4 9863   0.743   2.487   4.596  0.3729 -0.2327  0.4344
 2455SOL     OW 9864   1.643   4.522   4.675  0.5001 -0.0177  0.1250
 2455SOL    HW2 9865   1.712   4.585   4.656  0.8527 -0.5262 -0.3189
 2455SOL    HW3 9866   1.656   4.498   4.767  1.2032 -0.4531 -0.0839
 2455SOL    MW4 9867   1.654   4.527   4.684  0.6393 -0.1411  0.0386
 2456SOL     OW 9868   0.848   1.014   4.456 -0.2141  0.1771  0.0669
 2456SOL    HW2 9869   0.901   0.949   4.502  0.1412  0.6478  0.3152
 2456SOL    HW3 9870   0.897   1.032   4.376  0.3156  1.0717  0.5845
 2456SOL    MW4 9871   0.861   1.008   4.451 -0.0974  0.3572  0.1678
 2457SOL     OW 9872   2.784   1.310   3.826  0.6188  0.0780  0.2710
 2457SOL    HW2 9873   2.805   1.398   3.855  2.7520 -0.6467  0.9770
 2457SOL    HW3 9874   2.831   1.252   3.887 -0.2453 -1.5436 -0.5551
 2457SOL    MW4 9875   2.793   1.314   3.838  0.7865 -0.2316  0.2551
 2458SOL     OW 9876   2.601   3.829   3.773  0.7964  0.0401 -0.2604
 2458SOL    HW2 9877   2.515   3.789   3.788  1.2422 -0.5309  0.8677
 2458SOL    HW3 9878   2.589   3.886   3.697 -0.2841 -0.9432 -0.8356
 2458SOL    MW4 9879   2.588   3.831   3.765  0.7126 -0.1650 -0.1874
 2459SOL     OW 9880   3.965   0.621   3.946  0.0506 -0.4420  0.0700
 2459SOL    HW2 9881   4.056   0.599   3.926 -0.5150 -2.2983 -0.5993
 2459SOL    HW3 9882   3.946   0.695   3.889  0.6844 -1.0474 -0.9575
 2459SOL    MW4 9883   3.975   0.628   3.936  0.0596 -0.7668 -0.1538
 2460SOL     OW 9884   1.953   4.244   4.473 -0.1684  0.5141  0.1840
 2460SOL    HW2 9885   1.877   4.301   4.482  0.0522  0.5199  2.3937
 2460SOL    HW3 9886   2.029   4.302   4.483  0.1069  0.2201 -0.1415
 2460SOL    MW4 9887   1.953   4.259   4.476 -0.1030  0.4759  0.4325
 2461SOL     OW 9888   1.964   0.829   3.692 -0.2909 -0.5248 -0.0128
 2461SOL    HW2 9889   2.025   0.837   3.619  0.0126 -0.1980  0.2783
 2461SOL    HW3 9890   1.877   0.844   3.653 -0.1282 -0.3277 -0.2991
 2461SOL    MW4 9891   1.960   0.832   3.677 -0.2294 -0.4557 -0.0122
 2462SOL     OW 9892   4.209   1.501   4.521  1.1343 -0.2775 -0.6170
 2462SOL    HW2 9893   4.197   1.576   4.580 -1.5237 -0.9846 -0.2052
 2462SOL    HW3 9894   4.207   1.424   4.579 -2.2107 -1.0225 -1.6222
 2462SOL    MW4 9895   4.207   1.501   4.537  0.3424 -0.4692 -0.6952
 2463SOL     OW 9896   2.703   2.562   4.535  0.2824 -0.1721  0.3927
 2463SOL    HW2 9897   2.648   2.577   4.611 -1.6317  0.9908 -1.1731
 2463SOL    HW3 9898   2.642   2.531   4.467  1.3329  2.0978 -1.6787
 2463SOL    MW4 9899   2.688   2.560   4.536  0.1686  0.2811 -0.0868
 2464SOL     OW 9900   1.885   4.524   3.949  0.3574 -0.1107 -0.1133
 2464SOL    HW2 9901   1.898   4.614   3.921  1.8932 -0.3825 -0.3046
 2464SOL    HW3 9902   1.794   4.521   3.978  0.1784  1.3932 -0.4817
 2464SOL    MW4 9903   1.875   4.535   3.949  0.5364  0.0520 -0.1872
 2465SOL     OW 9904   0.938   3.974   3.458 -0.1106 -0.1482  0.3574
 2465SOL    HW2 9905   0.856   3.940   3.423 -0.2724  0.1506  0.4435
 2465SOL    HW3 9906   0.940   3.941   3.548 -0.6227  0.6664  0.6782
 2465SOL    MW4 9907   0.927   3.965   3.466 -0.1996 -0.0014  0.4110
 2466SOL     OW 9908   3.728   2.837   4.008  0.8812  0.1620  0.5550
 2466SOL    HW2 9909   3.674   2.767   3.971  1.2581 -0.2662  0.8142
 2466SOL    HW3 9910   3.669   2.881   4.071  0.3609  0.6587 -0.2705
 2466SOL    MW4 9911   3.713   2.834   4.012  0.8624  0.1712  0.4807
 2467SOL     OW 9912   0.329   0.153   4.179  0.5809  0.0208  0.5489
 2467SOL    HW2 9913   0.384   0.229   4.160  0.5422 -0.1482 -0.2612
 2467SOL    HW3 9914   0.242   0.179   4.149  0.7628 -0.7011 -0.6416
 2467SOL    MW4 9915   0.325   0.167   4.173  0.5999 -0.0967  0.2851
 2468SOL     OW 9916   0.141   2.126   4.018  0.2243 -0.1449 -0.1955
 2468SOL    HW2 9917   0.167   2.166   3.935  0.0472  1.0778  0.3330
 2468SOL    HW3 9918   0.115   2.037   3.994  0.5719  0.0587 -1.3866
 2468SOL    MW4 9919   0.141   2.119   4.004  0.2469  0.0432 -0.2828
 2469SOL     OW 9920   4.384   3.293   4.612  0.1288  0.3669  0.2219
 2469SOL    HW2 9921   4.355   3.372   4.658 -1.1568  2.0351 -3.2452
 2469SOL    HW3 9922   4.309   3.233   4.619  0.6773 -0.1562  1.8930
 2469SOL    MW4 9923   4.370   3.295   4.619  0.0319  0.5178 -0.0148
 2470SOL     OW 9924   0.154   0.998   4.440 -0.1351 -0.0421  0.5737
 2470SOL    HW2 9925   0.230   0.976   4.386 -0.9857  0.6747 -0.9316
 2470SOL    HW3 9926   0.161   1.092   4.454 -0.5992 -0.0236  0.6914
 2470SOL    MW4 9927   0.165   1.007   4.435 -0.3086  0.0550  0.3910
 2471SOL     OW 9928   1.470   3.312   4.478 -0.1546  0.0699 -0.1675
 2471SOL    HW2 9929   1.416   3.274   4.409 -1.1616 -2.3773  1.8932
 2471SOL    HW3 9930   1.414   3.376   4.521 -0.6834 -0.8354  0.5128
 2471SOL    MW4 9931   1.456   3.316   4.474 -0.3572 -0.3724  0.1945
 2472SOL     OW 9932   3.388   4.206   4.790  0.4345 -0.0977  0.2010
 2472SOL    HW2 9933   3.382   4.255   4.707 -0.2334 -2.5414 -1.2407
 2472SOL    HW3 9934   3.314   4.238   4.842 -0.2355  0.1492 -0.8882
 2472SOL    MW4 9935   3.377   4.217   4.786  0.2580 -0.3877 -0.1330
 2473SOL     OW 9936   3.589   3.018   4.161  0.5214  0.1043  0.1988
 2473SOL    HW2 9937   3.607   2.988   4.250 -0.8064  0.1686  0.5069
 2473SOL    HW3 9938   3.520   3.085   4.172 -1.8574 -2.0410 -1.1148
 2473SOL    MW4 9939   3.582   3.023   4.174  0.0322 -0.1702  0.0658
 2474SOL     OW 9940   3.722   2.945   4.829  0.3007 -0.3171  0.0827
 2474SOL    HW2 9941   3.706   2.864   4.878 -0.4083  1.5943  3.1049
 2474SOL    HW3 9942   3.635   2.972   4.800  0.4873 -0.3842 -0.5497
 2474SOL    MW4 9943   3.708   2.938   4.831  0.2315 -0.0739  0.3982
 2475SOL     OW 9944   0.014   1.477   4.393 -0.1145 -0.5719  0.0022
 2475SOL    HW2 9945  -0.007   1.553   4.447  1.7693  1.1189 -1.5523
 2475SOL    HW3 9946  -0.069   1.450   4.355 -1.1242 -0.5242  2.0854
 2475SOL    MW4 9947   0.000   1.483   4.395  0.0009 -0.3425  0.0720
 2476SOL     OW 9948   0.129   1.506   4.127 -0.1431  0.1672 -0.4096
 2476SOL    HW2 9949   0.106   1.495   4.219 -0.6733 -0.9824 -0.6697
 2476SOL    HW3 9950   0.219   1.538   4.128 -0.4983  1.1635  0.5296
 2476SOL    MW4 9951   0.138   1.509   4.139 -0.2599  0.1470 -0.3195
 2477SOL     OW 9952   0.605   0.168   4.471 -0.8742 -0.0662  0.6158
 2477SOL    HW2 9953   0.683   0.208   4.433 -0.6415 -1.7159 -0.6661
 2477SOL    HW3 9954   0.545   0.241   4.484 -0.2339  0.8082 -1.1575
 2477SOL    MW4 9955   0.607   0.183   4.468 -0.7591 -0.1685  0.2131
 2478SOL     OW 9956   0.941   1.793   3.889  0.1416 -0.6491  0.6339
 2478SOL    HW2 9957   1.031   1.778   3.916  0.2570 -2.1197 -0.4983
 2478SOL    HW3 9958   0.941   1.881   3.851  1.1367 -0.7302  0.4426
 2478SOL    MW4 9959   0.953   1.803   3.888  0.2881 -0.8538  0.4590
 2479SOL     OW 9960   0.474   3.382   4.228  0.0154 -0.3062  0.0195
 2479SOL    HW2 9961   0.475   3.417   4.140 -0.5402 -0.7253 -0.1557
 2479SOL    HW3 9962   0.397   3.421   4.269  0.1239 -0.3153  0.2329
 2479SOL    MW4 9963   0.464   3.392   4.222 -0.0436 -0.3629  0.0243
 2480SOL     OW 9964   2.544   3.871   4.187  0.0772  0.2271 -0.7775
 2480SOL    HW2 9965   2.569   3.781   4.167 -1.3775 -0.6219  1.0723
 2480SOL    HW3 9966   2.449   3.873   4.172 -0.0369  1.2160  0.0314
 2480SOL    MW4 9967   2.535   3.860   4.182 -0.1297  0.2458 -0.4268
 2481SOL     OW 9968   2.073   1.752   4.458 -0.3124 -0.1794 -0.1400
 2481SOL    HW2 9969   2.064   1.657   4.458  0.2611 -0.2538 -1.6046
 2481SOL    HW3 9970   2.166   1.767   4.474 -0.4002  0.1424  0.0800
 2481SOL    MW4 9971   2.084   1.741   4.460 -0.2482 -0.1469 -0.3042
 2482SOL     OW 9972   3.629   2.941   4.435 -0.0652  0.3076 -0.3364
 2482SOL    HW2 9973   3.691   2.997   4.483 -0.0988  0.0459  0.0167
 2482SOL    HW3 9974   3.674   2.857   4.429 -0.0433  0.3523 -0.8078
 2482SOL    MW4 9975   3.643   2.937   4.441 -0.0668  0.2792 -0.3519
 2483SOL     OW 9976   3.300   0.562   4.567 -0.3747 -0.0692  0.5838
 2483SOL    HW2 9977   3.259   0.649   4.564  1.1558  0.6197 -1.4905
 2483SOL    HW3 9978   3.347   0.561   4.650 -0.1567  1.2185  0.4926
 2483SOL    MW4 9979   3.300   0.574   4.578 -0.1440  0.1916  0.2985
 2484SOL     OW 9980   0.510   3.788   4.578  1.0669 -0.6518  0.8313
 2484SOL    HW2 9981   0.495   3.866   4.524  0.0711  0.0526  2.1065
 2484SOL    HW3 9982   0.565   3.731   4.523  0.2855  0.1580 -0.8217
 2484SOL    MW4 9983   0.515   3.791   4.564  0.8324 -0.4520  0.7811
 2485SOL     OW 9984   2.926   2.203   3.845  0.0913  0.3243 -0.1870
 2485SOL    HW2 9985   2.845   2.235   3.885 -0.4545  0.8020 -1.6260
 2485SOL    HW3 9986   2.996   2.252   3.888 -0.3742 -0.1455  1.1190
 2485SOL    MW4 9987   2.924   2.214   3.856 -0.0422  0.3257 -0.2046
 2486SOL     OW 9988   1.013   1.910   4.268  0.0106 -0.1051 -0.1340
 2486SOL    HW2 9989   1.006   2.001   4.296 -2.2124 -0.4808  0.6469
 2486SOL    HW3 9990   1.100   1.903   4.229  0.9097  1.8907  1.4434
 2486SOL    MW4 9991   1.023   1.921   4.267 -0.1639  0.1087  0.1774
 2487SOL     OW 9992   2.402   2.037   3.836 -0.3523 -0.3233  0.2724
 2487SOL    HW2 9993   2.337   1.980   3.796 -1.3172  1.2044 -0.3935
 2487SOL    HW3 9994   2.354   2.117   3.857  1.5587  1.2692 -1.2551
 2487SOL    MW4 9995   2.387   2.040   3.834 -0.2272  0.0885 -0.0169
 2488SOL     OW 9996   1.186   1.584   4.545  0.0369  0.3069 -0.2631
 2488SOL    HW2 9997   1.268   1.609   4.502 -0.3798 -0.2032 -1.3644
 2488SOL    HW3 9998   1.130   1.661   4.537 -0.0969  0.1545 -0.7616
 2488SOL    MW4 9999   1.190   1.597   4.538 -0.0359  0.2195 -0.4745
 2489SOL     OW10000   2.040   2.493   4.613 -0.2306 -0.2245  0.2506
 2489SOL    HW210001   1.956   2.532   4.638 -0.0121  0.0038  0.6390
 2489SOL    HW310002   2.018   2.429   4.545 -0.7918 -0.6255  0.8079
 2489SOL    MW410003   2.026   2.490   4.607 -0.2759 -0.2472  0.3757
 2490SOL     OW10004   3.923   1.186   4.613  0.5316 -0.1592 -0.1537
 2490SOL    HW210005   3.861   1.226   4.674  1.2929 -1.9097  1.8051
 2490SOL    HW310006   3.872   1.171   4.533 -0.4561  2.2041 -0.0081
 2490SOL    MW410007   3.908   1.189   4.610  0.5019 -0.0783  0.1240
 2491SOL     OW10008   3.884   0.364   3.829  0.1151 -0.3207  0.1057
 2491SOL    HW210009   3.946   0.291   3.836 -0.1060 -0.4952  0.2159
 2491SOL    HW310010   3.899   0.416   3.907 -0.9610 -1.1965  0.9040
 2491SOL    MW410011   3.894   0.361   3.840 -0.0560 -0.4592  0.2253
 2492SOL     OW10012   0.076   4.486   4.233  0.0114  0.5460 -0.1787
 2492SOL    HW210013   0.128   4.419   4.188 -0.2075  0.2330  0.0345
 2492SOL    HW310014   0.021   4.437   4.294 -1.0413  0.8119 -0.9039
 2492SOL    MW410015   0.075   4.471   4.235 -0.1564  0.5398 -0.2460
 2493SOL     OW10016   1.060   3.619   4.176 -0.2342  0.1241  0.3692
 2493SOL    HW210017   1.016   3.651   4.254 -0.3301  1.1392 -0.0933
 2493SOL    HW310018   1.082   3.698   4.126 -2.7109 -0.6094 -2.0061
 2493SOL    MW410019   1.057   3.634   4.179 -0.5738  0.1612 -0.0052
 2494SOL     OW10020   0.499   2.430   4.492  0.0469 -0.1361 -0.3354
 2494SOL    HW210021   0.501   2.511   4.441 -2.5979 -0.2882 -0.7716
 2494SOL    HW310022   0.492   2.361   4.426 -0.8336 -0.5002  0.1327
 2494SOL    MW410023   0.498   2.431   4.476 -0.4182 -0.2046 -0.3314
 2495SOL     OW10024   0.208   3.613   4.096 -0.2951 -0.7341  0.0054
 2495SOL    HW210025   0.244   3.559   4.166  0.3843  0.7698  0.8293
 2495SOL    HW310026   0.280   3.671   4.071 -0.8918 -0.4646 -1.1450
 2495SOL    MW410027   0.223   3.614   4.102 -0.2842 -0.5000 -0.0381
 2496SOL     OW10028   0.260   0.602   4.322 -0.2405 -0.5524  0.3920
 2496SOL    HW210029   0.331   0.642   4.270 -0.1599 -0.1701  0.7904
 2496SOL    HW310030   0.288   0.613   4.413  0.0958 -2.1292  0.4889
 2496SOL    MW410031   0.273   0.609   4.327 -0.1855 -0.7100  0.4573
 2497SOL     OW10032   3.596   4.022   4.690  0.1295 -0.2546  0.5017
 2497SOL    HW210033   3.545   4.090   4.733 -0.0006  0.0996 -0.1968
 2497SOL    HW310034   3.587   4.042   4.596 -0.2147 -1.4385  0.2742
 2497SOL    MW410035   3.588   4.034   4.683  0.0670 -0.3643  0.3796
 2498SOL     OW10036   3.308   3.851   4.075  0.4179 -0.3070 -0.0834
 2498SOL    HW210037   3.215   3.837   4.060  0.4506 -0.5015 -0.1035
 2498SOL    HW310038   3.330   3.925   4.018  0.5380 -1.0371 -0.9936
 2498SOL    MW410039   3.299   3.859   4.065  0.4380 -0.4287 -0.2069
 2499SOL     OW10040   0.679   3.365   3.802  0.3295  0.1234 -0.1629
 2499SOL    HW210041   0.693   3.271   3.793 -1.2940 -0.1711  0.2162
 2499SOL    HW310042   0.741   3.393   3.868 -0.5642 -1.0546  1.1961
 2499SOL    MW410043   0.689   3.357   3.809 -0.0026 -0.0708  0.0665
 2500SOL     OW10044   3.745   3.264   4.840  0.2994  0.1496 -0.0322
 2500SOL    HW210045   3.812   3.213   4.886  0.8831 -0.7984 -1.8783
 2500SOL    HW310046   3.672   3.203   4.829 -0.2658  0.7078  0.5940
 2500SOL    MW410047   3.744   3.249   4.844  0.3016  0.0982 -0.1931
 2501SOL     OW10048   4.107   2.341   4.376  0.0441 -0.4012  0.1892
 2501SOL    HW210049   4.055   2.336   4.456  0.8626 -0.4376  0.7230
 2501SOL    HW310050   4.151   2.426   4.380  0.5745 -0.6673  0.0806
 2501SOL    MW410051   4.106   2.351   4.387  0.2217 -0.4411  0.2460
 2502SOL     OW10052   0.700   1.493   4.422  0.4081  0.5553 -0.2635
 2502SOL    HW210053   0.728   1.487   4.330 -0.2652 -0.0086 -0.4431
 2502SOL    HW310054   0.738   1.575   4.454 -0.7563  1.6396 -1.5587
 2502SOL    MW410055   0.709   1.503   4.414  0.1657  0.6241 -0.4578
 2503SOL     OW10056   4.359   3.093   4.092 -0.3590  0.3188 -0.2508
 2503SOL    HW210057   4.277   3.135   4.115  0.0197  0.7377  0.3475
 2503SOL    HW310058   4.396   3.148   4.023  0.0300  0.8430  0.3752
 2503SOL    MW410059   4.353   3.105   4.086 -0.2580  0.4435 -0.0892
 2504SOL     OW10060   3.676   0.816   4.344 -0.5768  0.4435 -0.0918
 2504SOL    HW210061   3.621   0.860   4.279 -0.4727  0.5497 -0.1079
 2504SOL    HW310062   3.748   0.780   4.293  0.6773  2.4026  0.2482
 2504SOL    MW410063   3.678   0.817   4.329 -0.3977  0.7160 -0.0491
 2505SOL     OW10064   0.403   3.071   4.290 -0.4033 -0.3864 -0.4947
 2505SOL    HW210065   0.425   3.163   4.278  0.0337 -0.4944 -0.5467
 2505SOL    HW310066   0.365   3.067   4.377 -0.7919 -0.0916 -0.6499
 2505SOL    MW410067   0.401   3.083   4.300 -0.3969 -0.3619 -0.5226
 2506SOL     OW10068   0.738   0.326   4.130  0.3961 -0.2628  0.0640
 2506SOL    HW210069   0.649   0.359   4.119  0.2949 -0.6660 -0.3433
 2506SOL    HW310070   0.757   0.338   4.224 -0.1864 -0.4250  0.2049
 2506SOL    MW410071   0.729   0.332   4.141  0.3059 -0.3374  0.0286
 2507SOL     OW10072   0.260   2.391   4.622 -0.7357  0.7151 -0.4567
 2507SOL    HW210073   0.342   2.401   4.573 -0.4410  1.7172  0.2282
 2507SOL    HW310074   0.253   2.297   4.638  1.0472  0.7771  0.7714
 2507SOL    MW410075   0.270   2.380   4.617 -0.4616  0.8554 -0.2041
 2508SOL     OW10076   2.396   1.515   3.986 -0.3968 -0.7157  0.0436
 2508SOL    HW210077   2.391   1.565   4.068 -0.1947 -1.8998  0.7995
 2508SOL    HW310078   2.373   1.578   3.918  0.6449  0.6119  0.8850
 2508SOL    MW410079   2.392   1.530   3.988 -0.2327 -0.6968  0.2544
 2509SOL     OW10080   4.132   2.787   4.191  0.1383 -0.0706 -0.4521
 2509SOL    HW210081   4.132   2.864   4.247  0.3655 -0.4178  0.0252
 2509SOL    HW310082   4.208   2.798   4.134  1.2705 -0.8728  0.8966
 2509SOL    MW410083   4.142   2.798   4.191  0.3181 -0.2222 -0.2112
 2510SOL     OW10084   0.361   0.614   4.585  0.1013 -0.3185 -0.4446
 2510SOL    HW210085   0.275   0.624   4.625 -0.0001  2.0195 -1.1422
 2510SOL    HW310086   0.412   0.687   4.619  1.2231 -0.5893 -1.5020
 2510SOL    MW410087   0.357   0.625   4.594  0.2360 -0.0457 -0.6766
 2511SOL     OW10088   1.793   1.274   4.302  0.1346  0.3375  0.2234
 2511SOL    HW210089   1.838   1.313   4.227  2.4849 -1.3673  0.6832
 2511SOL    HW310090   1.803   1.339   4.372  2.0230 -0.0597  0.3462
 2511SOL    MW410091   1.800   1.288   4.302  0.6938  0.0602  0.3004
 2512SOL     OW10092   0.707   2.999   4.581 -0.1172  0.2795  0.0207
 2512SOL    HW210093   0.677   3.082   4.619 -0.9208  0.8014 -1.6915
 2512SOL    HW310094   0.802   3.008   4.574 -0.1343  0.7895  0.4473
 2512SOL    MW410095   0.715   3.011   4.585 -0.2255  0.4156 -0.1493
 2513SOL     OW10096   2.482   1.314   3.799  0.0568 -0.4531  0.2870
 2513SOL    HW210097   2.578   1.310   3.795  0.0980  1.6553 -1.8773
 2513SOL    HW310098   2.464   1.372   3.873  0.5105  0.4840 -0.3240
 2513SOL    MW410099   2.492   1.321   3.808  0.1223 -0.0514 -0.0794
 2514SOL     OW10100   4.422   3.930   3.875  0.0747  0.0546  0.2940
 2514SOL    HW210101   4.455   3.919   3.964 -1.2601 -0.8583  0.6683
 2514SOL    HW310102   4.355   3.998   3.882  2.1363  2.3041 -0.5638
 2514SOL    MW410103   4.418   3.938   3.888  0.1712  0.2310  0.2301
 2515SOL     OW10104   0.369   0.931   4.301  0.3020  0.4753  0.2062
 2515SOL    HW210105   0.388   1.015   4.261 -0.7331  0.4928 -0.2666
 2515SOL    HW310106   0.451   0.905   4.343  0.7708  1.4704 -0.0829
 2515SOL    MW410107   0.383   0.938   4.301  0.2273  0.6089  0.1059
 2516SOL     OW10108   2.683   2.523   3.536  0.2849  0.4662  0.2466
 2516SOL    HW210109   2.757   2.471   3.503 -0.0808 -0.0201  0.1939
 2516SOL    HW310110   2.706   2.540   3.628  0.8234  0.9671  0.0231
 2516SOL    MW410111   2.696   2.519   3.544  0.3078  0.4678  0.2103
 2517SOL     OW10112   2.438   1.657   4.232  0.6955  0.1506 -0.3111
 2517SOL    HW210113   2.475   1.583   4.279  0.0741  0.0565  0.0307
 2517SOL    HW310114   2.514   1.702   4.195  1.1567  0.0193  0.4671
 2517SOL    MW410115   2.453   1.653   4.233  0.6745  0.1208 -0.1631
 2518SOL     OW10116   1.047   3.261   4.406  0.2383  0.4097  0.4023
 2518SOL    HW210117   0.984   3.292   4.341 -0.2782 -0.8632  0.2701
 2518SOL    HW310118   1.009   3.178   4.438  1.2341  0.2618  1.2241
 2518SOL    MW410119   1.033   3.254   4.402  0.3016  0.2224  0.4935
 2519SOL     OW10120   1.314   4.251   4.511  0.0276 -0.1924  0.2222
 2519SOL    HW210121   1.307   4.199   4.591  0.2244 -0.4444  0.0775
 2519SOL    HW310122   1.375   4.201   4.456 -0.0038  0.0479 -0.0298
 2519SOL    MW410123   1.321   4.237   4.514  0.0495 -0.1941  0.1698
 2520SOL     OW10124   0.636   2.113   3.753  0.0310  0.5288 -0.2149
 2520SOL    HW210125   0.577   2.188   3.744  1.9641  2.0509 -0.4197
 2520SOL    HW310126   0.709   2.146   3.805  2.0473 -0.5401 -2.3093
 2520SOL    MW410127   0.638   2.127   3.759  0.5521  0.5887 -0.5181
 2521SOL     OW10128   0.012   3.822   4.122  0.0037  0.4021  0.5620
 2521SOL    HW210129   0.071   3.881   4.169 -1.0049  0.1778  2.1564
 2521SOL    HW310130   0.060   3.740   4.116  0.5555  0.7442  0.2516
 2521SOL    MW410131   0.026   3.819   4.127 -0.0572  0.4175  0.7310
 2522SOL     OW10132   2.893   4.434   4.832  0.0829 -0.5084  0.5397
 2522SOL    HW210133   2.896   4.474   4.745 -0.2807  1.2525  1.3347
 2522SOL    HW310134   2.807   4.393   4.837 -0.1642 -0.0102  0.3416
 2522SOL    MW410135   2.882   4.434   4.821  0.0026 -0.2108  0.6185
 2523SOL     OW10136   2.268   2.269   3.963 -0.1405  0.2252  0.6180
 2523SOL    HW210137   2.335   2.313   4.015  1.5870 -0.5965 -0.8960
 2523SOL    HW310138   2.228   2.207   4.024 -0.2132  1.4125  1.7978
 2523SOL    MW410139   2.271   2.267   3.978  0.0777  0.2732  0.5739
 2524SOL     OW10140   1.360   0.995   4.362 -0.2869  0.7270 -0.1016
 2524SOL    HW210141   1.369   1.080   4.407 -0.1314  0.3994  0.4909
 2524SOL    HW310142   1.321   0.938   4.428  0.3944  0.1085 -0.2359
 2524SOL    MW410143   1.356   0.999   4.377 -0.1764  0.6021 -0.0410
 2525SOL     OW10144   2.566   0.219   3.975  0.2721  0.2134  0.2091
 2525SOL    HW210145   2.596   0.215   4.066  1.6408  2.5625 -0.1012
 2525SOL    HW310146   2.643   0.192   3.924 -0.5545 -1.3083 -0.2686
 2525SOL    MW410147   2.580   0.215   3.980  0.3433  0.3226  0.1049
 2526SOL     OW10148   0.865   4.035   3.998 -0.4228 -0.5098  0.3997
 2526SOL    HW210149   0.810   3.958   3.982 -0.2585 -0.6825  0.6793
 2526SOL    HW310150   0.947   3.999   4.032 -0.4252 -0.1935  0.7325
 2526SOL    MW410151   0.869   4.020   4.000 -0.4014 -0.4911  0.4804
 2527SOL     OW10152   0.434   1.821   4.129  0.0708  0.0768  0.4110
 2527SOL    HW210153   0.398   1.887   4.187  1.6528  0.6872  0.7203
 2527SOL    HW310154   0.468   1.870   4.054 -1.5622 -0.6606 -0.8516
 2527SOL    MW410155   0.434   1.836   4.127  0.0641  0.0601  0.2847
 2528SOL     OW10156   1.544   0.798   3.980  0.0956 -0.2011  0.2323
 2528SOL    HW210157   1.555   0.705   4.001  0.9886 -0.3423 -0.8421
 2528SOL    HW310158   1.631   0.836   3.993  0.2500  0.0484 -1.4722
 2528SOL    MW410159   1.557   0.791   3.985  0.2339 -0.1868 -0.1347
 2529SOL     OW10160   4.075   2.057   3.984 -0.2735  0.2735  0.2155
 2529SOL    HW210161   4.063   2.150   3.969  0.7014  0.7399  2.1134
 2529SOL    HW310162   4.140   2.029   3.920  0.8225  1.3182  0.8540
 2529SOL    MW410163   4.082   2.065   3.974  0.0000  0.4730  0.5503
 2530SOL     OW10164   2.450   1.099   3.972  0.3511  0.3485 -0.2112
 2530SOL    HW210165   2.540   1.070   3.983  0.2826 -0.2965 -1.3108
 2530SOL    HW310166   2.456   1.177   3.918  0.2311  0.1734 -0.4776
 2530SOL    MW410167   2.463   1.105   3.967  0.3262  0.2402 -0.3912
 2531SOL     OW10168   3.451   1.635   4.610  0.0039 -0.0525  0.3220
 2531SOL    HW210169   3.488   1.624   4.522  0.1573  1.6120  0.1514
 2531SOL    HW310170   3.377   1.695   4.597 -0.4585 -0.4224  1.2185
 2531SOL    MW410171   3.446   1.642   4.597 -0.0372  0.1184  0.4182
 2532SOL     OW10172   0.030   0.474   4.268 -0.1533 -0.7367  0.0723
 2532SOL    HW210173   0.108   0.518   4.301 -0.4479 -0.3656  0.2914
 2532SOL    HW310174  -0.024   0.545   4.232 -0.7111 -0.8927  0.5824
 2532SOL    MW410175   0.033   0.490   4.268 -0.2658 -0.7084  0.1683
 2533SOL     OW10176   3.010   0.246   4.074 -0.3434  0.1016  0.2666
 2533SOL    HW210177   2.945   0.189   4.115  0.5612 -1.2435 -0.1219
 2533SOL    HW310178   2.961   0.324   4.048 -1.3366  0.1110  2.0421
 2533SOL    MW410179   2.995   0.249   4.076 -0.3548 -0.0746  0.4492
 2534SOL     OW10180   3.056   1.413   4.132 -0.1341 -0.5379  0.0773
 2534SOL    HW210181   3.108   1.436   4.210  0.2499  0.4272 -0.4555
 2534SOL    HW310182   2.971   1.454   4.147 -0.5146 -1.4959  0.6061
 2534SOL    MW410183   3.052   1.421   4.145 -0.1338 -0.5370  0.0763
 2535SOL     OW10184   3.734   3.094   3.932 -0.7099 -0.2639 -0.2321
 2535SOL    HW210185   3.698   3.090   4.020  0.1477 -0.4199  0.1146
 2535SOL    HW310186   3.730   3.004   3.900 -3.1533  0.1795 -1.2207
 2535SOL    MW410187   3.729   3.081   3.939 -0.9191 -0.2260 -0.3171
 2536SOL     OW10188   0.419   1.537   4.117 -0.1230 -0.0735  0.0352
 2536SOL    HW210189   0.442   1.507   4.205  1.8431 -0.0774 -0.4630
 2536SOL    HW310190   0.433   1.632   4.120 -0.5987  0.0012 -0.1124
 2536SOL    MW410191   0.424   1.546   4.129  0.0736 -0.0643 -0.0496
 2537SOL     OW10192   3.071   0.819   3.851 -0.0734 -0.4045 -0.4776
 2537SOL    HW210193   3.116   0.747   3.894  1.0923  1.1275  0.9281
 2537SOL    HW310194   3.097   0.813   3.759  0.4836 -1.4025 -0.2617
 2537SOL    MW410195   3.080   0.809   3.845  0.1538 -0.3341 -0.2637
 2538SOL     OW10196   3.774   0.417   4.446  0.4319 -0.4922  0.5468
 2538SOL    HW210197   3.737   0.425   4.358 -2.5375  1.9868  1.9244
 2538SOL    HW310198   3.771   0.506   4.481  0.9511 -1.5589  3.3747
 2538SOL    MW410199   3.768   0.430   4.439  0.1082 -0.3059  1.1020
 2539SOL     OW10200   3.353   2.148   3.833  0.5320 -0.2149  0.1769
 2539SOL    HW210201   3.436   2.187   3.859 -0.0969  0.7740  0.7320
 2539SOL    HW310202   3.360   2.139   3.738  0.9228  0.6934  0.1135
 2539SOL    MW410203   3.365   2.152   3.824  0.5007  0.0355  0.2415
 2540SOL     OW10204   0.617   1.891   4.343  0.0043 -0.0437 -0.4298
 2540SOL    HW210205   0.658   1.863   4.261  0.2558  1.6772 -0.9114
 2540SOL    HW310206   0.530   1.850   4.341  0.3670 -0.7939 -1.0957
 2540SOL    MW410207   0.611   1.882   4.332  0.0854  0.0845 -0.5808
 2541SOL     OW10208   0.009   2.303   4.179 -0.0743 -0.9243  0.0598
 2541SOL    HW210209   0.079   2.342   4.231 -0.5631  0.3510 -0.2342
 2541SOL    HW310210   0.052   2.232   4.130  0.1996 -2.8145  2.9167
 2541SOL    MW410211   0.024   2.299   4.180 -0.1030 -1.0052  0.3982
 2542SOL     OW10212   0.798   1.724   4.519 -0.4550  0.3924 -0.4842
 2542SOL    HW210213   0.887   1.753   4.538 -0.0582 -0.8361 -0.4172
 2542SOL    HW310214   0.759   1.797   4.469  0.8156  0.6380 -1.1479
 2542SOL    MW410215   0.805   1.738   4.515 -0.2350  0.2626 -0.5631
 2543SOL     OW10216   0.689   3.628   4.415 -0.1846  0.0024  0.2741
 2543SOL    HW210217   0.770   3.678   4.402 -0.0666 -0.1798  0.3063
 2543SOL    HW310218   0.710   3.540   4.383 -0.4248  0.0007  0.1186
 2543SOL    MW410219   0.703   3.623   4.409 -0.2007 -0.0215  0.2580
 2544SOL     OW10220   2.954   1.710   4.670  0.3759  0.2457  0.5728
 2544SOL    HW210221   2.956   1.648   4.743  1.3376 -1.6760 -1.0316
 2544SOL    HW310222   3.039   1.754   4.674  0.9410 -0.7554 -0.1028
 2544SOL    MW410223   2.966   1.708   4.680  0.5770 -0.1401  0.2718
 2545SOL     OW10224   1.732   1.727   4.415  0.3431  0.0762  0.3189
 2545SOL    HW210225   1.770   1.708   4.329  1.3802 -0.1807  0.8285
 2545SOL    HW310226   1.780   1.804   4.446 -1.6829  1.6733 -0.3656
 2545SOL    MW410227   1.743   1.735   4.408  0.2127  0.2531  0.2956
 2546SOL     OW10228   3.372   2.852   3.540  0.0634 -0.2271  0.5836
 2546SOL    HW210229   3.357   2.808   3.624 -1.8380  0.0987  0.4476
 2546SOL    HW310230   3.451   2.811   3.505  0.2644 -1.1182  2.0468
 2546SOL    MW410231   3.380   2.841   3.546 -0.1609 -0.3018  0.7586
 2547SOL     OW10232   3.670   1.782   4.650  0.4008  0.0938  0.0429
 2547SOL    HW210233   3.715   1.704   4.683 -0.1597 -0.2455  0.0210
 2547SOL    HW310234   3.581   1.752   4.633 -0.0932  1.0083  0.9990
 2547SOL    MW410235   3.664   1.768   4.652  0.2615  0.1698  0.1659
 2548SOL     OW10236   0.040   3.211   3.806 -0.0491  0.3815 -0.0784
 2548SOL    HW210237   0.032   3.297   3.848  0.3176  0.4226 -0.0912
 2548SOL    HW310238   0.035   3.230   3.712  1.3655  0.5404 -0.1269
 2548SOL    MW410239   0.038   3.225   3.799  0.1859  0.4077 -0.0868
 2549SOL     OW10240   1.063   4.315   4.391  0.2421  0.3666 -0.1504
 2549SOL    HW210241   1.141   4.275   4.430  0.1629  0.6117  0.2657
 2549SOL    HW310242   1.092   4.348   4.306  0.0022 -1.7230 -1.0693
 2549SOL    MW410243   1.077   4.314   4.385  0.1998  0.1230 -0.2165
 2550SOL     OW10244   3.382   3.570   4.663  0.5138  0.4409 -0.0487
 2550SOL    HW210245   3.287   3.576   4.654  0.3086 -1.3401  0.7384
 2550SOL    HW310246   3.404   3.636   4.729 -0.1688  0.8304 -0.2054
 2550SOL    MW410247   3.373   3.579   4.671  0.3967  0.2573  0.0343
 2551SOL     OW10248   2.936   1.153   4.019 -0.0874 -0.6777  0.5928
 2551SOL    HW210249   3.023   1.118   4.000  0.3095 -0.6995  2.3504
 2551SOL    HW310250   2.952   1.228   4.075 -1.1264  0.3659 -0.4803
 2551SOL    MW410251   2.950   1.158   4.024 -0.1721 -0.5430  0.6833
 2552SOL     OW10252   2.510   1.187   4.417  0.4888 -0.3869  0.0324
 2552SOL    HW210253   2.422   1.170   4.451  0.7490 -0.2299  0.8173
 2552SOL    HW310254   2.537   1.105   4.376  0.4100 -0.7984  0.7885
 2552SOL    MW410255   2.502   1.174   4.416  0.5126 -0.4206  0.2356
 2553SOL     OW10256   3.799   1.262   3.543 -0.5169  0.3248 -0.0133
 2553SOL    HW210257   3.760   1.299   3.622 -0.4235 -0.4810  0.4172
 2553SOL    HW310258   3.724   1.224   3.496 -0.6673  1.3776 -0.6359
 2553SOL    MW410259   3.784   1.262   3.547 -0.5245  0.3573 -0.0384
 2554SOL     OW10260   0.301   2.120   4.608 -0.7347  0.3656 -0.0243
 2554SOL    HW210261   0.312   2.043   4.665 -1.0864  0.0255 -0.4086
 2554SOL    HW310262   0.384   2.128   4.562 -1.8343 -1.8917 -2.5531
 2554SOL    MW410263   0.314   2.111   4.609 -0.9262  0.0229 -0.4086
 2555SOL     OW10264   1.618   0.714   3.381 -0.0435  0.0785 -0.0984
 2555SOL    HW210265   1.610   0.630   3.427  0.0135 -0.0984 -0.4096
 2555SOL    HW310266   1.535   0.759   3.399 -1.1377 -1.0682 -1.9504
 2555SOL    MW410267   1.606   0.709   3.389 -0.1802 -0.0961 -0.3836
 2556SOL     OW10268   3.253   2.982   4.145 -0.3419  0.2184 -0.1837
 2556SOL    HW210269   3.205   2.956   4.067  0.8588  1.4403 -1.3602
 2556SOL    HW310270   3.295   3.064   4.121  1.8846 -0.5352  0.9857
 2556SOL    MW410271   3.252   2.989   4.132  0.1099  0.2801 -0.1841
 2557SOL     OW10272   2.823   4.418   3.770 -0.0114  0.0325  0.3892
 2557SOL    HW210273   2.771   4.443   3.846 -0.0006  1.0042  0.0818
 2557SOL    HW310274   2.827   4.322   3.774 -0.7002  0.0326  1.1522
 2557SOL    MW410275   2.816   4.408   3.780 -0.1006  0.1607  0.4497
 2558SOL     OW10276   3.207   3.466   3.428  0.0645 -0.2225 -0.0007
 2558SOL    HW210277   3.276   3.520   3.465 -1.7682  0.9268  1.8254
 2558SOL    HW310278   3.201   3.496   3.337  1.0499  0.6184  0.1939
 2558SOL    MW410279   3.215   3.477   3.421 -0.0472  0.0398  0.2661
 2559SOL     OW10280   0.094   4.543   4.705 -0.2009  0.0303 -0.2897
 2559SOL    HW210281   0.017   4.587   4.669  0.4892  0.4989 -1.2309
 2559SOL    HW310282   0.140   4.612   4.752 -1.3602 -0.6937  1.9621
 2559SOL    MW410283   0.090   4.558   4.706 -0.2628 -0.0029 -0.1173
 2560SOL     OW10284   0.989   2.303   4.609 -0.0856 -0.0297  0.3065
 2560SOL    HW210285   0.900   2.335   4.623  0.2999  0.4389  1.7293
 2560SOL    HW310286   1.043   2.382   4.608  0.1520 -0.2025 -1.9388
 2560SOL    MW410287   0.985   2.318   4.611 -0.0034  0.0093  0.1979
 2561SOL     OW10288   3.101   4.293   4.564  0.4088  0.0565 -0.5328
 2561SOL    HW210289   3.092   4.270   4.656  1.9815  1.4245 -0.0162
 2561SOL    HW310290   3.083   4.211   4.517 -0.0518 -0.7266  0.9934
 2561SOL    MW410291   3.098   4.279   4.570  0.5555  0.1340 -0.2632
 2562SOL     OW10292   0.477   4.398   3.937 -0.0365  0.0448 -0.3719
 2562SOL    HW210293   0.489   4.348   4.018  1.4298  0.0404 -0.5805
 2562SOL    HW310294   0.489   4.489   3.963 -1.0813  0.1696 -0.3051
 2562SOL    MW410295   0.481   4.403   3.951  0.0191  0.0606 -0.3910
 2563SOL     OW10296   0.165   4.285   4.748 -0.4094 -0.2299 -0.1905
 2563SOL    HW210297   0.199   4.299   4.836  1.8716 -0.9599 -0.9030
 2563SOL    HW310298   0.126   4.369   4.723 -1.6215 -0.2126  1.7189
 2563SOL    MW410299   0.164   4.298   4.756 -0.2684 -0.3242 -0.0324
 2564SOL     OW10300   2.664   1.813   4.213  0.1973  0.2218 -0.2382
 2564SOL    HW210301   2.759   1.797   4.212  0.1746  0.1510 -1.6540
 2564SOL    HW310302   2.654   1.901   4.176 -0.3540 -0.1411 -0.9665
 2564SOL    MW410303   2.675   1.823   4.208  0.1218  0.1644 -0.5212
 2565SOL     OW10304   1.691   1.044   4.176  0.0022 -0.2655  0.0656
 2565SOL    HW210305   1.749   1.108   4.215 -0.4529  0.0679  0.2055
 2565SOL    HW310306   1.616   1.095   4.144  0.2238 -0.5725 -0.9618
 2565SOL    MW410307   1.689   1.059   4.177 -0.0285 -0.2620 -0.0520
 2566SOL     OW10308   2.609   4.214   4.491  0.4114 -0.0384  0.0022
 2566SOL    HW210309   2.665   4.146   4.452  0.0726 -0.7313  0.7022
 2566SOL    HW310310   2.633   4.215   4.583  0.1001  0.4894  0.0780
 2566SOL    MW410311   2.619   4.205   4.498  0.3257 -0.0606  0.1040
 2567SOL     OW10312   2.044   1.857   4.174  0.3665  0.2496  0.7712
 2567SOL    HW210313   2.097   1.936   4.178  0.2226  0.2858  2.1174
 2567SOL    HW310314   2.058   1.814   4.259 -0.0883 -0.8167  0.3167
 2567SOL    MW410315   2.052   1.861   4.186  0.2878  0.1136  0.8888
 2568SOL     OW10316   3.171   1.759   4.275  0.4562 -0.2127 -0.3255
 2568SOL    HW210317   3.093   1.813   4.262 -0.3801 -1.6358 -1.3422
 2568SOL    HW310318   3.235   1.795   4.213 -0.1929 -0.5617 -1.2116
 2568SOL    MW410319   3.170   1.771   4.265  0.2601 -0.4464 -0.5765
 2569SOL     OW10320   2.770   2.149   4.278  0.6022  0.5873 -0.3835
 2569SOL    HW210321   2.735   2.215   4.219  0.3464  1.1687  0.4089
 2569SOL    HW310322   2.796   2.198   4.356 -0.8876 -0.4277  0.7701
 2569SOL    MW410323   2.769   2.164   4.280  0.3722  0.5302 -0.1273
 2570SOL     OW10324   4.325   1.459   3.806  0.1911 -0.4701  0.0705
 2570SOL    HW210325   4.301   1.399   3.736  1.4450 -2.3549  1.2144
 2570SOL    HW310326   4.421   1.462   3.803  0.1974  0.3211  0.9809
 2570SOL    MW410327   4.334   1.452   3.796  0.3567 -0.6144  0.3414
 2571SOL     OW10328   1.099   0.580   3.801 -0.5923  0.2067 -0.2523
 2571SOL    HW210329   1.153   0.606   3.876  0.7200 -0.9403 -0.7657
 2571SOL    HW310330   1.037   0.517   3.837 -0.1062 -0.1796 -0.0813
 2571SOL    MW410331   1.098   0.575   3.816 -0.3551  0.0044 -0.2973
 2572SOL     OW10332   1.584   0.189   4.415 -0.3467 -0.2754 -0.2326
 2572SOL    HW210333   1.636   0.159   4.490 -1.1811  1.6688  1.1611
 2572SOL    HW310334   1.580   0.284   4.425 -1.7060 -0.1300 -1.9403
 2572SOL    MW410335   1.590   0.198   4.427 -0.6361  0.0003 -0.2742
 2573SOL     OW10336   0.338   4.035   3.962 -0.3388  0.3283  0.6508
 2573SOL    HW210337   0.306   4.101   4.023 -2.4366 -0.6360  0.6384
 2573SOL    HW310338   0.279   4.042   3.886 -0.1094 -1.0392  0.3326
 2573SOL    MW410339   0.326   4.044   3.960 -0.5853  0.0205  0.6070
 2574SOL     OW10340   1.238   0.256   3.781 -0.1922  0.3876  0.5688
 2574SOL    HW210341   1.276   0.218   3.701 -0.4134  0.9820  0.1737
 2574SOL    HW310342   1.292   0.221   3.852 -1.0285 -1.4483  0.3081
 2574SOL    MW410343   1.250   0.246   3.780 -0.3316  0.2238  0.4821
 2575SOL     OW10344   1.929   3.095   4.232 -0.5980  0.0010 -0.3257
 2575SOL    HW210345   1.863   3.035   4.198 -0.1708 -0.9471  0.4900
 2575SOL    HW310346   2.011   3.066   4.193 -0.3421 -0.1583  0.3177
 2575SOL    MW410347   1.931   3.083   4.223 -0.5080 -0.1452 -0.1330
 2576SOL     OW10348   2.608   0.950   4.299  0.0105 -0.5758  0.3386
 2576SOL    HW210349   2.692   0.971   4.339  1.4920 -0.7814 -2.5348
 2576SOL    HW310350   2.622   0.962   4.205 -3.0006 -1.2078 -0.2615
 2576SOL    MW410351   2.621   0.954   4.292 -0.1912 -0.6863 -0.1197
 2577SOL     OW10352   3.596   4.054   4.412  0.8126 -0.0865 -0.4946
 2577SOL    HW210353   3.516   4.027   4.366  0.7966  1.3036 -1.3222
 2577SOL    HW310354   3.663   3.993   4.381  0.1569 -1.0140 -0.0967
 2577SOL    MW410355   3.594   4.043   4.402  0.7243 -0.0253 -0.5512
 2578SOL     OW10356   1.975   2.811   3.802 -0.0897 -0.3010  0.5253
 2578SOL    HW210357   1.986   2.730   3.853 -0.4650 -0.4056  0.4412
 2578SOL    HW310358   2.028   2.875   3.848 -1.6042 -0.0090  1.9322
 2578SOL    MW410359   1.983   2.809   3.815 -0.3390 -0.2763  0.7000
 2579SOL     OW10360   4.338   2.449   4.004  0.3808  0.0551  0.0745
 2579SOL    HW210361   4.396   2.395   4.059  1.6003  1.1864 -0.0883
 2579SOL    HW310362   4.253   2.405   4.009  0.6429 -0.2317  2.3228
 2579SOL    MW410363   4.335   2.436   4.012  0.5760  0.1667  0.3500
 2580SOL     OW10364   1.594   1.641   3.926  0.0502 -0.4219  0.0372
 2580SOL    HW210365   1.684   1.641   3.892 -0.2383  1.1244 -0.7701
 2580SOL    HW310366   1.599   1.694   4.006 -0.0265 -0.9263  0.3858
 2580SOL    MW410367   1.607   1.648   3.932  0.0021 -0.2846 -0.0236
 2581SOL     OW10368   1.633   2.402   3.727 -0.0739 -0.3008 -0.3135
 2581SOL    HW210369   1.641   2.308   3.711  0.7089 -0.2198 -0.4166
 2581SOL    HW310370   1.699   2.442   3.671  0.7312  0.1930  0.9636
 2581SOL    MW410371   1.643   2.395   3.718  0.1357 -0.2251 -0.1583
 2582SOL     OW10372   0.890   0.902   3.513 -0.3526  0.2897 -0.3926
 2582SOL    HW210373   0.834   0.850   3.455  0.3537 -0.4059 -0.4781
 2582SOL    HW310374   0.979   0.870   3.494 -0.1436 -0.1755  1.3062
 2582SOL    MW410375   0.894   0.891   3.503 -0.2319  0.1366 -0.1800
 2583SOL     OW10376   2.425   3.463   4.378 -0.2395  0.1480  0.0914
 2583SOL    HW210377   2.361   3.530   4.403 -0.3757  0.2938 -0.6302
 2583SOL    HW310378   2.376   3.403   4.321 -0.5354 -1.4328  1.9511
 2583SOL    MW410379   2.410   3.464   4.374 -0.2966 -0.0415  0.2418
 2584SOL     OW10380   2.038   0.950   4.081 -0.0319  0.1848  0.2484
 2584SOL    HW210381   2.088   0.875   4.048  0.1851  0.0221  0.9436
 2584SOL    HW310382   1.998   0.988   4.003 -0.0105 -0.5589 -0.1298
 2584SOL    MW410383   2.040   0.945   4.066 -0.0005  0.0651  0.2899
 2585SOL     OW10384   2.422   2.076   4.298 -0.0390 -0.4870 -0.7134
 2585SOL    HW210385   2.494   2.115   4.346 -0.0688 -1.3365  0.0263
 2585SOL    HW310386   2.456   2.065   4.209  0.0137  1.0754 -0.9057
 2585SOL    MW410387   2.436   2.080   4.292 -0.0360 -0.3929 -0.6409
 2586SOL     OW10388   1.347   0.032   4.405  0.6027 -0.2977  0.0096
 2586SOL    HW210389   1.435   0.069   4.396  0.5075  0.1689  0.8760
 2586SOL    HW310390   1.346  -0.005   4.494  0.4221 -1.6529 -0.5534
 2586SOL    MW410391   1.359   0.032   4.416  0.5665 -0.4150  0.0491
 2587SOL     OW10392   3.671   0.212   3.775 -0.3964 -0.5031  0.3816
 2587SOL    HW210393   3.679   0.191   3.682 -0.0705 -1.4021  0.6110
 2587SOL    HW310394   3.749   0.265   3.795 -1.8333  2.0177 -0.4802
 2587SOL    MW410395   3.682   0.216   3.765 -0.5429 -0.2891  0.2980
 2588SOL     OW10396   1.175   0.331   4.682  0.4433 -0.6517  0.3155
 2588SOL    HW210397   1.137   0.260   4.630  0.3075  1.1033 -2.0374
 2588SOL    HW310398   1.101   0.364   4.733 -0.3930  0.3055 -1.4650
 2588SOL    MW410399   1.160   0.326   4.682  0.3152 -0.2939 -0.2298
 2589SOL     OW10400   1.408   0.156   3.978 -0.1506  0.0964 -0.1243
 2589SOL    HW210401   1.499   0.153   3.950 -0.3467  0.3694 -0.8112
 2589SOL    HW310402   1.406   0.221   4.048  0.0884  0.4916 -0.4803
 2589SOL    MW410403   1.420   0.164   3.983 -0.1451  0.1846 -0.2618
 2590SOL     OW10404   2.238   2.693   3.489  0.1695 -0.1439  0.5490
 2590SOL    HW210405   2.236   2.710   3.394  0.1643 -0.1813  0.5423
 2590SOL    HW310406   2.176   2.757   3.525  1.0938  0.6974  0.6571
 2590SOL    MW410407   2.229   2.704   3.481  0.2906 -0.0379  0.5622
 2591SOL     OW10408   1.600   3.270   4.041  0.3321 -0.4893  0.0077
 2591SOL    HW210409   1.694   3.257   4.048  0.4136  0.5089  0.8600
 2591SOL    HW310410   1.563   3.188   4.075  0.8844 -1.1879 -1.0529
 2591SOL    MW410411   1.607   3.257   4.047  0.4157 -0.4499 -0.0200
 2592SOL     OW10412   2.171   2.107   4.184  0.3133  0.3469 -0.1365
 2592SOL    HW210413   2.254   2.102   4.231  0.0079  0.9707  0.4794
 2592SOL    HW310414   2.115   2.162   4.239 -0.6555 -0.4340 -0.3265
 2592SOL    MW410415   2.175   2.114   4.197  0.1452  0.3264 -0.0806
 2593SOL     OW10416   1.997   3.629   4.579 -0.3755  0.1793 -0.1536
 2593SOL    HW210417   2.071   3.592   4.627 -0.4041 -0.4923 -0.6351
 2593SOL    HW310418   1.960   3.556   4.530 -0.2202  0.9134 -1.3722
 2593SOL    MW410419   2.002   3.615   4.579 -0.3588  0.1874 -0.3777
 2594SOL     OW10420   0.940   0.813   4.114  0.2185 -0.0553  0.3250
 2594SOL    HW210421   1.005   0.810   4.043  0.9347 -1.1804  1.0074
 2594SOL    HW310422   0.933   0.905   4.137  0.9294  0.1686 -0.3472
 2594SOL    MW410423   0.948   0.825   4.108  0.4068 -0.1742  0.3266
 2595SOL     OW10424   2.007   2.292   4.307  0.1565 -0.1727 -0.3432
 2595SOL    HW210425   1.939   2.267   4.243 -0.1821 -1.1680  0.4006
 2595SOL    HW310426   1.971   2.266   4.391  1.0239  0.2688  0.1662
 2595SOL    MW410427   1.993   2.286   4.309  0.2261 -0.2460 -0.1774
 2596SOL     OW10428   2.206   3.535   3.425 -0.2488  0.0131  0.0717
 2596SOL    HW210429   2.208   3.514   3.332  0.1681  1.6383 -0.3068
 2596SOL    HW310430   2.284   3.494   3.461 -1.3855 -2.2047  0.0794
 2596SOL    MW410431   2.217   3.527   3.418 -0.3438 -0.0651  0.0229
 2597SOL     OW10432   3.892   0.085   4.708  0.1045 -0.0526 -0.2729
 2597SOL    HW210433   3.951   0.099   4.635 -1.3396  0.0177 -1.4570
 2597SOL    HW310434   3.830   0.158   4.704  0.0495 -0.0001  1.0647
 2597SOL    MW410435   3.891   0.097   4.698 -0.0930 -0.0364 -0.2527
 2598SOL     OW10436   4.240   0.580   3.861  0.2270  0.1362  0.1826
 2598SOL    HW210437   4.271   0.567   3.772  1.4018  0.5354  0.5327
 2598SOL    HW310438   4.261   0.671   3.882  0.8274 -0.2263  1.2093
 2598SOL    MW410439   4.247   0.590   3.852  0.4611  0.1410  0.3645
 2599SOL     OW10440   3.897   3.859   4.142  0.5638  0.1449  0.1513
 2599SOL    HW210441   3.822   3.831   4.196  0.4374  0.7528  0.2968
 2599SOL    HW310442   3.951   3.780   4.135 -1.4352 -1.0747 -2.2709
 2599SOL    MW410443   3.894   3.845   4.148  0.2832  0.0644 -0.1493
 2600SOL     OW10444   0.770   3.527   4.661  0.2026 -0.1559  0.4582
 2600SOL    HW210445   0.752   3.586   4.733 -2.2575 -0.5550  0.2197
 2600SOL    HW310446   0.724   3.565   4.586 -0.3490 -1.6573  0.0019
 2600SOL    MW410447   0.762   3.540   4.660 -0.1947 -0.4065  0.3662
 2601SOL     OW10448   3.756   0.665   4.584 -0.0878  0.2492  0.1559
 2601SOL    HW210449   3.681   0.660   4.643 -0.4157  1.8163 -0.1100
 2601SOL    HW310450   3.727   0.721   4.512 -0.4340 -3.3203 -2.6551
 2601SOL    MW410451   3.742   0.671   4.582 -0.1767 -0.0150 -0.2503
 2602SOL     OW10452   3.469   0.415   3.811 -0.0675 -0.5819 -0.3998
 2602SOL    HW210453   3.535   0.346   3.803 -0.8239 -1.2096 -1.3329
 2602SOL    HW310454   3.397   0.373   3.859  0.2166  0.1075  0.6400
 2602SOL    MW410455   3.468   0.400   3.816 -0.1299 -0.5738 -0.3860
 2603SOL     OW10456   3.935   2.370   4.159 -0.1353  0.2974  0.1313
 2603SOL    HW210457   3.990   2.373   4.237 -1.2707 -0.3605  0.9678
 2603SOL    HW310458   3.921   2.462   4.136  1.0426  0.4732  0.0988
 2603SOL    MW410459   3.941   2.383   4.166 -0.1297  0.2339  0.2375
 2604SOL     OW10460   1.107   3.675   3.772  0.1256  0.1984 -0.4769
 2604SOL    HW210461   1.196   3.710   3.780  1.4208 -2.2532 -3.2984
 2604SOL    HW310462   1.106   3.598   3.829 -0.5958  0.9156  0.4942
 2604SOL    MW410463   1.118   3.670   3.780  0.2013 -0.0305 -0.7212
 2605SOL     OW10464   3.762   1.402   3.795 -0.1827 -0.1720 -0.1249
 2605SOL    HW210465   3.850   1.418   3.829 -0.0519  0.2635 -0.6558
 2605SOL    HW310466   3.710   1.477   3.825 -0.5550 -0.7994  0.8149
 2605SOL    MW410467   3.767   1.414   3.803 -0.2146 -0.1972 -0.0710
 2606SOL     OW10468   1.713   2.920   3.852  0.1624  0.3572 -0.2747
 2606SOL    HW210469   1.697   3.005   3.811  0.5095  0.7008  0.2863
 2606SOL    HW310470   1.802   2.897   3.826 -0.3281 -0.3666 -1.3395
 2606SOL    MW410471   1.722   2.929   3.843  0.1435  0.3071 -0.3412
 2607SOL     OW10472   0.500   1.539   3.847 -0.1543  0.0348  0.0920
 2607SOL    HW210473   0.593   1.554   3.857 -0.0230 -0.3420 -0.5230
 2607SOL    HW310474   0.466   1.535   3.937  0.0894  2.0772  0.2928
 2607SOL    MW410475   0.508   1.540   3.860 -0.1048  0.2546  0.0374
 2608SOL     OW10476   3.391   3.220   4.157  0.7387 -0.4945 -0.2153
 2608SOL    HW210477   3.412   3.297   4.104  2.7471 -1.1879 -0.4502
 2608SOL    HW310478   3.344   3.256   4.233  2.8138  1.1394  0.3638
 2608SOL    MW410479   3.388   3.235   4.160  1.2772 -0.3705 -0.1698
 2609SOL     OW10480   0.284   4.506   3.763  0.4802  0.1716  0.4164
 2609SOL    HW210481   0.250   4.593   3.779  1.4461  0.9891 -1.7237
 2609SOL    HW310482   0.340   4.487   3.838 -0.5890  0.9332  1.4217
 2609SOL    MW410483   0.287   4.515   3.775  0.4666  0.3800  0.2666
 2610SOL     OW10484   3.008   3.762   4.804  0.1438  0.7343  0.0231
 2610SOL    HW210485   2.935   3.795   4.857 -0.1775  0.1943 -0.0753
 2610SOL    HW310486   3.077   3.828   4.813  1.8925 -1.5160  5.0236
 2610SOL    MW410487   3.008   3.775   4.812  0.3319  0.3662  0.6695
 2611SOL     OW10488   4.322   0.829   3.948  0.0310 -0.4952  0.2960
 2611SOL    HW210489   4.334   0.782   4.030 -0.3614  1.7609  1.6793
 2611SOL    HW310490   4.409   0.831   3.908  0.5286 -0.3025  1.3837
 2611SOL    MW410491   4.335   0.823   3.953  0.0443 -0.1721  0.6220
 2612SOL     OW10492   4.089   0.092   4.896 -0.4681 -0.0255  0.1780
 2612SOL    HW210493   4.003   0.089   4.855 -0.8731 -2.0392  1.1143
 2612SOL    HW310494   4.071   0.107   4.989  0.2530  0.5612  0.2310
 2612SOL    MW410495   4.075   0.094   4.902 -0.4268 -0.2138  0.3080
 2613SOL     OW10496   2.103   1.980   3.760 -0.0830 -0.1031  0.1122
 2613SOL    HW210497   2.094   1.989   3.665 -0.5146  0.7297  0.2228
 2613SOL    HW310498   2.037   2.039   3.796 -1.3140 -1.9437  0.9414
 2613SOL    MW410499   2.093   1.989   3.752 -0.3023 -0.2359  0.2363
 2614SOL     OW10500   3.243   2.337   4.230  0.9323  0.0997  0.2293
 2614SOL    HW210501   3.173   2.359   4.291 -0.5811 -1.7567 -0.7772
 2614SOL    HW310502   3.279   2.255   4.264  1.8490  0.4435  0.1007
 2614SOL    MW410503   3.238   2.329   4.243  0.8533 -0.0999  0.0801
 2615SOL     OW10504   3.377   2.773   4.285  0.0488  0.0118  0.1506
 2615SOL    HW210505   3.354   2.846   4.229 -0.3754  0.2359  0.6128
 2615SOL    HW310506   3.293   2.739   4.316  0.3065  0.6236  1.5697
 2615SOL    MW410507   3.363   2.778   4.282  0.0269  0.1218  0.3991
 2616SOL     OW10508   1.304   3.905   4.258 -0.5236 -0.4736 -0.0423
 2616SOL    HW210509   1.377   3.880   4.201  0.6855  0.2530  1.1645
 2616SOL    HW310510   1.304   4.001   4.256 -1.0676 -0.4610  0.4539
 2616SOL    MW410511   1.314   3.915   4.250 -0.4358 -0.3760  0.1822
 2617SOL     OW10512   3.392   1.240   3.835 -0.2312  0.4000  0.6327
 2617SOL    HW210513   3.392   1.249   3.740  0.2425  1.2087  0.7113
 2617SOL    HW310514   3.326   1.173   3.852 -0.2708  0.2002 -0.2675
 2617SOL    MW410515   3.384   1.232   3.825 -0.1738  0.4804  0.5243
 2618SOL     OW10516   1.357   1.158   3.406 -0.2203 -0.3363 -0.1793
 2618SOL    HW210517   1.279   1.196   3.445 -0.8544 -0.2141 -1.5363
 2618SOL    HW310518   1.348   1.174   3.312  0.7890 -1.4886 -0.4953
 2618SOL    MW410519   1.346   1.165   3.399 -0.1707 -0.4723 -0.3998
 2619SOL     OW10520   3.973   1.696   4.037  0.1301  0.4268 -0.1093
 2619SOL    HW210521   4.035   1.695   4.110 -0.8532  0.1860  0.7188
 2619SOL    HW310522   3.955   1.604   4.020 -0.4161  0.5137  0.0027
 2619SOL    MW410523   3.979   1.684   4.044 -0.0715  0.4064  0.0148
 2620SOL     OW10524   0.867   4.359   4.092 -0.4984  0.3133  0.2216
 2620SOL    HW210525   0.958   4.376   4.115 -0.5073 -0.6341  0.9646
 2620SOL    HW310526   0.872   4.324   4.003  0.1435 -2.5990  1.3655
 2620SOL    MW410527   0.880   4.357   4.083 -0.4150 -0.1960  0.4702
 2621SOL     OW10528   2.288   3.474   3.772  0.6610  0.0977  0.0525
 2621SOL    HW210529   2.332   3.456   3.689 -0.1114  2.1588 -0.8598
 2621SOL    HW310530   2.195   3.468   3.752  0.4763  0.1310  0.8766
 2621SOL    MW410531   2.281   3.471   3.758  0.5350  0.3741  0.0408
 2622SOL     OW10532   1.816   3.249   3.505 -0.4296 -0.4252 -0.5959
 2622SOL    HW210533   1.903   3.215   3.485 -0.0902 -0.1480  0.3824
 2622SOL    HW310534   1.822   3.343   3.490 -0.4579 -0.3557 -0.1787
 2622SOL    MW410535   1.828   3.257   3.500 -0.3884 -0.3798 -0.4117
 2623SOL     OW10536   1.584   0.489   3.527 -0.7338 -0.8182 -0.2828
 2623SOL    HW210537   1.669   0.446   3.533 -1.7518 -3.1273 -1.7642
 2623SOL    HW310538   1.555   0.496   3.618  0.6572 -0.7523  0.1777
 2623SOL    MW410539   1.591   0.484   3.540 -0.6846 -1.1142 -0.4177
 2624SOL     OW10540   2.724   1.730   3.593  0.2510 -0.3127  0.2370
 2624SOL    HW210541   2.687   1.780   3.665 -1.6900 -0.1235 -0.8594
 2624SOL    HW310542   2.652   1.676   3.561  1.2252 -0.8064 -1.2113
 2624SOL    MW410543   2.710   1.729   3.598  0.1235 -0.3529 -0.0987
 2625SOL     OW10544   3.361   1.685   3.986  0.2001 -0.3281  0.0056
 2625SOL    HW210545   3.310   1.766   3.976 -0.1150 -0.4965  0.2425
 2625SOL    HW310546   3.312   1.619   3.938  1.3916  0.0037 -1.7444
 2625SOL    MW410547   3.348   1.687   3.979  0.3154 -0.3066 -0.1938
 2626SOL     OW10548   3.227   1.485   4.350  0.3420  0.2571 -1.0530
 2626SOL    HW210549   3.256   1.573   4.324 -0.0692  0.1701 -1.8337
 2626SOL    HW310550   3.146   1.500   4.399 -0.5079  0.2370 -2.4056
 2626SOL    MW410551   3.220   1.499   4.353  0.1760  0.2429 -1.3342
 2627SOL     OW10552   3.088   2.573   3.786  0.1218 -0.2949 -0.1532
 2627SOL    HW210553   3.115   2.501   3.843 -0.1582  0.6581  1.2042
 2627SOL    HW310554   3.166   2.627   3.777 -0.1532  0.1880  0.3114
 2627SOL    MW410555   3.102   2.571   3.793  0.0486 -0.1054  0.0870
 2628SOL     OW10556   3.131   1.099   4.677 -0.0967 -0.1819 -0.3939
 2628SOL    HW210557   3.178   1.162   4.622  1.0536  0.9092  1.7943
 2628SOL    HW310558   3.075   1.153   4.732 -2.2356 -1.3491 -1.3724
 2628SOL    MW410559   3.130   1.115   4.677 -0.2270 -0.1919 -0.2337
 2629SOL     OW10560   3.224   3.850   4.548  0.0545  0.6086 -0.1614
 2629SOL    HW210561   3.264   3.895   4.623  1.0202 -0.4381 -0.0444
 2629SOL    HW310562   3.278   3.876   4.473  0.7425 -0.4961 -0.0628
 2629SOL    MW410563   3.236   3.860   4.548  0.2728  0.3245 -0.1330
 2630SOL     OW10564   1.172   3.882   3.388  0.0849 -0.2905 -0.0343
 2630SOL    HW210565   1.164   3.795   3.427 -1.0708 -0.2044 -0.0518
 2630SOL    HW310566   1.090   3.926   3.412 -0.5589 -0.1720 -2.3716
 2630SOL    MW410567   1.160   3.877   3.396 -0.1525 -0.2632 -0.3450
 2631SOL     OW10568   0.417   2.153   4.121  0.0704 -0.0334  0.0580
 2631SOL    HW210569   0.485   2.111   4.068  1.2406  2.9092 -0.8570
 2631SOL    HW310570   0.336   2.133   4.075  0.7251 -0.2748 -1.0214
 2631SOL    MW410571   0.415   2.144   4.108  0.3112  0.3231 -0.2050
 2632SOL     OW10572   2.260   1.122   4.199 -0.2192 -0.5872  0.3202
 2632SOL    HW210573   2.327   1.095   4.137  0.9725 -0.4364  1.5127
 2632SOL    HW310574   2.186   1.064   4.182  0.7126 -1.6575 -0.1101
 2632SOL    MW410575   2.259   1.111   4.189  0.0613 -0.7086  0.4210
 2633SOL     OW10576   3.374   0.478   4.308 -0.2200 -0.2669 -0.2992
 2633SOL    HW210577   3.288   0.439   4.291 -0.5580 -0.0376  0.8672
 2633SOL    HW310578   3.369   0.509   4.398  0.8795  0.3082 -0.4305
 2633SOL    MW410579   3.362   0.477   4.317 -0.1197 -0.1608 -0.1626
 2634SOL     OW10580   1.366   4.522   4.627 -0.4350  0.1177  0.7997
 2634SOL    HW210581   1.357   4.437   4.584  0.2010  1.0936 -1.3239
 2634SOL    HW310582   1.461   4.533   4.639 -0.5828  0.0441  2.0808
 2634SOL    MW410583   1.378   4.512   4.623 -0.3707  0.2370  0.6881
 2635SOL     OW10584   3.505   3.129   4.735 -0.2672 -0.0172  0.0730
 2635SOL    HW210585   3.492   3.201   4.674 -2.0159 -1.3523 -1.1846
 2635SOL    HW310586   3.444   3.061   4.706  0.5432 -1.5873  1.8928
 2635SOL    MW410587   3.495   3.129   4.723 -0.3912 -0.4005  0.1478
 2636SOL     OW10588   3.845   3.495   4.681  0.6324  0.2730 -0.4962
 2636SOL    HW210589   3.912   3.445   4.634 -1.3693 -0.6573 -2.4336
 2636SOL    HW310590   3.810   3.434   4.746 -0.4931 -0.2689 -1.5928
 2636SOL    MW410591   3.850   3.481   4.684  0.2198  0.0787 -0.8960
 2637SOL     OW10592   4.401   2.980   3.713  0.3530 -0.0284 -0.1321
 2637SOL    HW210593   4.439   3.057   3.755 -0.2167  0.6566 -0.8583
 2637SOL    HW310594   4.321   2.963   3.763  0.3472  0.0070 -0.1300
 2637SOL    MW410595   4.395   2.988   3.725  0.2770  0.0668 -0.2277
 2638SOL     OW10596   3.462   1.630   4.259 -0.5529  0.0823 -0.2208
 2638SOL    HW210597   3.423   1.634   4.171 -2.2133  1.0998  0.5432
 2638SOL    HW310598   3.498   1.542   4.265 -2.2938 -0.7262 -1.1604
 2638SOL    MW410599   3.461   1.619   4.248 -1.0021  0.1098 -0.2446
 2639SOL     OW10600   3.481   0.116   4.562  0.2662 -0.0532  0.1737
 2639SOL    HW210601   3.398   0.159   4.582  0.7760  0.5708  0.9630
 2639SOL    HW310602   3.456   0.039   4.510 -0.7651  0.3639  0.0433
 2639SOL    MW410603   3.466   0.111   4.558  0.1976  0.0841  0.2608
 2640SOL     OW10604   3.343   4.517   3.750  0.0744 -0.5248 -0.2068
 2640SOL    HW210605   3.430   4.540   3.783 -0.2236 -0.3782  0.4807
 2640SOL    HW310606   3.298   4.601   3.742  0.2941 -0.5121 -1.4352
 2640SOL    MW410607   3.349   4.531   3.753  0.0641 -0.5040 -0.2782
 2641SOL     OW10608   3.069   4.024   3.809  0.1693 -0.0009  0.2679
 2641SOL    HW210609   3.097   4.085   3.877 -1.9811  0.9784  0.3074
 2641SOL    HW310610   3.124   4.047   3.733 -1.3284  2.7977 -0.0677
 2641SOL    MW410611   3.080   4.035   3.808 -0.3121  0.4973  0.2289
 2642SOL     OW10612   2.596   1.475   4.363 -0.2379  0.1400  0.3974
 2642SOL    HW210613   2.576   1.381   4.366  0.6927 -0.2055 -2.2691
 2642SOL    HW310614   2.633   1.495   4.449  0.8050 -2.2625  0.5385
 2642SOL    MW410615   2.598   1.465   4.375  0.0224 -0.2226  0.0644
 2643SOL     OW10616   2.841   1.290   4.495 -0.0480  0.3942 -0.0825
 2643SOL    HW210617   2.769   1.310   4.555 -0.8154 -0.7676 -0.5828
 2643SOL    HW310618   2.893   1.370   4.491 -1.7321  1.4889 -0.2866
 2643SOL    MW410619   2.838   1.303   4.503 -0.3715  0.3853 -0.1755
 2644SOL     OW10620   2.516   0.474   3.509  0.0697 -0.2562 -0.6985
 2644SOL    HW210621   2.539   0.443   3.597 -0.3837 -1.8557 -1.1367
 2644SOL    HW310622   2.581   0.433   3.452  0.9336  1.5051 -1.0329
 2644SOL    MW410623   2.528   0.465   3.513  0.1237 -0.2348 -0.8004
 2645SOL     OW10624   0.347   2.929   3.896  0.4098  0.1490  0.5809
 2645SOL    HW210625   0.334   3.021   3.872  1.2708 -0.0581 -0.6919
 2645SOL    HW310626   0.260   2.890   3.885  0.1899  0.6574  0.4595
 2645SOL    MW410627   0.334   2.936   3.892  0.4944  0.1886  0.3970
 2646SOL     OW10628   1.244   0.628   4.044 -0.1304 -0.6214 -0.0479
 2646SOL    HW210629   1.278   0.710   4.078  0.0622 -0.8410  0.2929
 2646SOL    HW310630   1.243   0.569   4.120 -0.2329 -0.9421 -0.2971
 2646SOL    MW410631   1.248   0.631   4.058 -0.1185 -0.6926 -0.0358
 2647SOL     OW10632   0.114   1.675   3.772 -0.0100 -0.0159 -0.0318
 2647SOL    HW210633   0.121   1.580   3.782  0.9883 -0.0102 -0.5905
 2647SOL    HW310634   0.087   1.687   3.681 -0.3353  0.2340  0.0957
 2647SOL    MW410635   0.111   1.664   3.761  0.0788  0.0176 -0.0887
 2648SOL     OW10636   2.925   3.485   3.783  0.1994 -0.2787 -0.1817
 2648SOL    HW210637   2.869   3.442   3.718 -1.1296 -0.5449  1.1086
 2648SOL    HW310638   2.867   3.548   3.826  0.6265 -1.2609  1.8656
 2648SOL    MW410639   2.910   3.488   3.780  0.0801 -0.4435  0.2587
 2649SOL     OW10640   1.331   3.285   3.937 -0.5105 -0.7296  0.0965
 2649SOL    HW210641   1.420   3.291   3.970 -0.8095  1.5418  0.5733
 2649SOL    HW310642   1.295   3.206   3.978 -0.0780  0.6766  3.2854
 2649SOL    MW410643   1.338   3.275   3.947 -0.4929 -0.2444  0.5801
 2650SOL     OW10644   3.893   3.321   3.935  0.2174  0.3197  0.0512
 2650SOL    HW210645   3.881   3.348   4.026  0.2529 -0.1354  0.1891
 2650SOL    HW310646   3.830   3.251   3.922 -0.7643  1.3085 -0.6752
 2650SOL    MW410647   3.883   3.316   3.945  0.0923  0.3901 -0.0265
 2651SOL     OW10648   1.824   4.090   4.119  0.3501 -0.2998 -0.2480
 2651SOL    HW210649   1.868   4.097   4.034  0.7179 -1.4871 -0.1604
 2651SOL    HW310650   1.895   4.096   4.183  0.4147 -2.1906 -0.1031
 2651SOL    MW410651   1.839   4.092   4.117  0.4070 -0.7052 -0.2170
 2652SOL     OW10652   2.709   3.978   4.396 -0.1944  0.4394 -0.4724
 2652SOL    HW210653   2.786   3.943   4.352  1.4314  2.1561  0.9346
 2652SOL    HW310654   2.635   3.946   4.345  1.4909 -0.3686 -2.4479
 2652SOL    MW410655   2.710   3.969   4.384  0.2425  0.5593 -0.5474
 2653SOL     OW10656   1.959   0.571   3.836  0.2031  0.5760  0.3703
 2653SOL    HW210657   2.026   0.519   3.791  2.6854  2.6195  1.5968
 2653SOL    HW310658   1.947   0.648   3.780 -1.6550 -0.0896 -0.1794
 2653SOL    MW410659   1.966   0.574   3.823  0.2855  0.7578  0.4594
 2654SOL     OW10660   0.985   3.189   3.733 -0.1860 -0.2666  0.0745
 2654SOL    HW210661   0.968   3.203   3.640  1.7686 -0.1976 -0.2860
 2654SOL    HW310662   0.898   3.172   3.770 -0.9062 -1.0560 -1.8790
 2654SOL    MW410663   0.971   3.188   3.726 -0.0232 -0.3617 -0.2306
 2655SOL     OW10664   0.058   3.900   4.531 -0.6115 -0.1784 -0.1988
 2655SOL    HW210665   0.021   3.974   4.578  0.5593 -0.3034  0.9245
 2655SOL    HW310666  -0.013   3.835   4.528 -0.9268  0.1188  0.7456
 2655SOL    MW410667   0.044   3.901   4.537 -0.4987 -0.1557  0.0739
 2656SOL     OW10668   1.901   0.110   3.859  0.1600 -0.6107 -0.1940
 2656SOL    HW210669   1.858   0.125   3.775  0.7931 -0.7352 -0.5476
 2656SOL    HW310670   1.838   0.140   3.924 -0.9839 -2.0018 -0.6367
 2656SOL    MW410671   1.887   0.116   3.857  0.0926 -0.8107 -0.2995
 2657SOL     OW10672   3.183   2.051   4.475  0.4285  0.3263 -0.0497
 2657SOL    HW210673   3.230   2.049   4.392  0.1836  0.9627 -0.2097
 2657SOL    HW310674   3.223   2.122   4.525 -0.9075  1.4522 -0.5304
 2657SOL    MW410675   3.194   2.060   4.471  0.2196  0.5589 -0.1340
 2658SOL     OW10676   4.314   1.132   4.443  0.0318  0.1123 -0.4277
 2658SOL    HW210677   4.330   1.051   4.395 -3.0881 -1.0630  0.4041
 2658SOL    HW310678   4.334   1.109   4.534  1.5874  1.0415 -0.5187
 2658SOL    MW410679   4.319   1.118   4.449 -0.1745  0.0798 -0.3300
 2659SOL     OW10680   2.528   0.676   3.898 -0.0161  0.4438  0.2928
 2659SOL    HW210681   2.603   0.724   3.863  0.0512 -0.2252 -0.4866
 2659SOL    HW310682   2.452   0.731   3.877  0.1422  0.5947  0.1219
 2659SOL    MW410683   2.528   0.690   3.891  0.0138  0.3754  0.1674
 2660SOL     OW10684   0.447   4.431   4.379 -0.2140 -0.1349 -0.1810
 2660SOL    HW210685   0.527   4.482   4.393 -0.2516  0.1407 -0.9550
 2660SOL    HW310686   0.376   4.492   4.399 -0.2467 -0.2057 -0.0758
 2660SOL    MW410687   0.448   4.446   4.384 -0.2232 -0.1073 -0.2694
 2661SOL     OW10688   1.140   4.651   3.391  0.1652  0.2849  0.2824
 2661SOL    HW210689   1.151   4.573   3.446  0.7224  1.2524  1.5976
 2661SOL    HW310690   1.140   4.619   3.301  0.8972 -1.1715  0.7993
 2661SOL    MW410691   1.142   4.637   3.387  0.3352  0.2208  0.5240
 2662SOL     OW10692   2.213   2.884   3.919 -0.2312 -0.1109 -0.3458
 2662SOL    HW210693   2.269   2.808   3.930  0.2160  0.1707 -0.6348
 2662SOL    HW310694   2.256   2.936   3.851 -1.0161 -0.0493 -0.8049
 2662SOL    MW410695   2.226   2.881   3.912 -0.2759 -0.0658 -0.4447
 2663SOL     OW10696   2.573   2.019   4.051 -0.1927 -0.7735 -0.4810
 2663SOL    HW210697   2.499   2.023   3.990  0.4110 -0.0881 -1.1748
 2663SOL    HW310698   2.624   2.097   4.032 -0.0222 -0.5167  0.9545
 2663SOL    MW410699   2.570   2.030   4.041 -0.0906 -0.6490 -0.3829
 2664SOL     OW10700   3.977   4.042   3.792 -0.4404 -0.3419 -0.3406
 2664SOL    HW210701   3.932   3.960   3.812  1.3002 -1.6784 -1.6886
 2664SOL    HW310702   3.996   4.037   3.698  2.1894  0.2735  0.1049
 2664SOL    MW410703   3.974   4.030   3.782  0.1359 -0.4373 -0.4597
 2665SOL     OW10704   1.648   2.291   4.584 -0.2792  0.0562 -0.3046
 2665SOL    HW210705   1.653   2.381   4.550 -0.6461 -0.6526 -2.2686
 2665SOL    HW310706   1.555   2.269   4.579 -0.0454 -0.8194 -0.8303
 2665SOL    MW410707   1.636   2.300   4.579 -0.2968 -0.1528 -0.6332
 2666SOL     OW10708   0.094   2.819   3.871  0.0112 -0.4047  0.3620
 2666SOL    HW210709   0.135   2.744   3.830  1.7289  1.1762 -0.9004
 2666SOL    HW310710   0.045   2.861   3.800 -2.6509 -1.4534  1.5194
 2666SOL    MW410711   0.093   2.815   3.856 -0.1134 -0.3345  0.3481
 2667SOL     OW10712   3.705   4.458   3.992  0.0941  0.0096  0.6355
 2667SOL    HW210713   3.666   4.425   4.074 -2.4613 -0.3712 -0.6655
 2667SOL    HW310714   3.728   4.379   3.943  2.1735  0.2367  1.1992
 2667SOL    MW410715   3.703   4.443   3.997  0.0315 -0.0105  0.5383
 2668SOL     OW10716   4.431   1.727   4.142 -0.2310 -0.3304  0.9731
 2668SOL    HW210717   4.457   1.791   4.076  0.0515  1.0229  2.3862
 2668SOL    HW310718   4.500   1.661   4.141 -0.5185 -0.6384 -0.4765
 2668SOL    MW410719   4.443   1.727   4.133 -0.2317 -0.1925  0.9685
 2669SOL     OW10720   2.346   4.249   4.124  0.4530 -0.5074 -0.0605
 2669SOL    HW210721   2.328   4.334   4.162 -0.5277 -0.9620  0.5126
 2669SOL    HW310722   2.338   4.262   4.030  2.2933  0.4845 -0.0979
 2669SOL    MW410723   2.343   4.262   4.117  0.5662 -0.4363  0.0105
 2670SOL     OW10724   2.071   2.354   3.802  0.5152 -0.3879  0.3384
 2670SOL    HW210725   2.103   2.379   3.715 -0.6905 -1.0678 -0.3127
 2670SOL    HW310726   2.147   2.316   3.845  1.3433  0.7299 -0.1020
 2670SOL    MW410727   2.085   2.352   3.796  0.4654 -0.3300  0.1945
 2671SOL     OW10728   3.609   2.207   3.961  0.0693 -0.1154 -0.2411
 2671SOL    HW210729   3.685   2.164   3.923  0.2502  0.1422 -0.1732
 2671SOL    HW310730   3.622   2.200   4.056 -0.9079 -1.6976 -0.1988
 2671SOL    MW410731   3.621   2.200   3.969 -0.0358 -0.2899 -0.2265
 2672SOL     OW10732   4.091   0.591   4.328 -0.1958 -0.3942  0.1269
 2672SOL    HW210733   4.118   0.499   4.325 -1.1097 -0.6648  0.1458
 2672SOL    HW310734   4.079   0.609   4.422  0.6785 -0.0480  0.1764
 2672SOL    MW410735   4.093   0.581   4.340 -0.2012 -0.3843  0.1354
 2673SOL     OW10736   1.803   0.828   4.502 -0.2466 -0.1555 -0.0522
 2673SOL    HW210737   1.729   0.835   4.441 -0.1734 -0.6346 -0.2013
 2673SOL    HW310738   1.879   0.813   4.445  0.0412  0.8519  0.0681
 2673SOL    MW410739   1.803   0.827   4.486 -0.1990 -0.0858 -0.0553
 2674SOL     OW10740   2.721   0.984   4.027  0.5260 -0.6509  0.2395
 2674SOL    HW210741   2.737   0.919   3.958 -2.5513 -0.1965 -0.9558
 2674SOL    HW310742   2.797   1.042   4.023 -0.2988  0.2720 -3.8721
 2674SOL    MW410743   2.733   0.983   4.018  0.0110 -0.4693 -0.4606
 2675SOL     OW10744   3.813   1.539   4.677 -0.0354  0.4735 -0.1600
 2675SOL    HW210745   3.756   1.464   4.698  0.0296  0.3832 -0.3094
 2675SOL    HW310746   3.866   1.509   4.604 -0.2816  0.8037 -0.4735
 2675SOL    MW410747   3.812   1.525   4.670 -0.0591  0.5051 -0.2208
 2676SOL     OW10748   2.718   0.110   3.545  0.1091  0.2069  0.0810
 2676SOL    HW210749   2.799   0.071   3.513  0.2455  0.3196  0.2855
 2676SOL    HW310750   2.709   0.192   3.496 -0.3294 -0.2241 -0.5553
 2676SOL    MW410751   2.727   0.116   3.535  0.0694  0.1649  0.0241
 2677SOL     OW10752   0.430   0.696   4.133  0.0080  0.4422  0.3263
 2677SOL    HW210753   0.421   0.781   4.175 -1.1619 -0.6576  2.3732
 2677SOL    HW310754   0.519   0.695   4.098 -0.1061  2.6411 -0.0533
 2677SOL    MW410755   0.440   0.707   4.134 -0.1614  0.5872  0.5460
 2678SOL     OW10756   3.305   3.618   4.210  0.2971 -0.7366  0.4776
 2678SOL    HW210757   3.289   3.701   4.165 -0.3131 -0.8236  0.5426
 2678SOL    HW310758   3.363   3.570   4.151  1.0847 -0.0490  0.6834
 2678SOL    MW410759   3.311   3.622   4.196  0.3204 -0.6576  0.5136
 2679SOL     OW10760   4.363   2.737   4.055  0.3305  0.3133 -0.3980
 2679SOL    HW210761   4.426   2.764   3.988 -0.4643  1.1457 -0.8165
 2679SOL    HW310762   4.350   2.643   4.040  1.5265  0.1230 -0.2598
 2679SOL    MW410763   4.370   2.728   4.044  0.3839  0.3979 -0.4349
 2680SOL     OW10764   0.840   3.385   4.034 -0.1770  0.2066 -0.4994
 2680SOL    HW210765   0.808   3.466   4.074 -0.6877 -1.3897  2.4525
 2680SOL    HW310766   0.934   3.400   4.023  0.0551  0.5374  1.7153
 2680SOL    MW410767   0.848   3.398   4.037 -0.2138  0.0398  0.1826
 2681SOL     OW10768   3.778   4.521   4.431  0.2438 -0.2423  0.0805
 2681SOL    HW210769   3.833   4.490   4.504 -0.9462 -1.2526  0.5755
 2681SOL    HW310770   3.802   4.613   4.420  1.1242 -0.3341  1.1309
 2681SOL    MW410771   3.788   4.529   4.439  0.2031 -0.3872  0.2847
 2682SOL     OW10772   1.007   0.695   4.374 -0.3885 -0.1804  0.3136
 2682SOL    HW210773   0.988   0.736   4.290 -0.3444  1.3445  1.0303
 2682SOL    HW310774   0.922   0.664   4.405 -0.5181 -0.0924  0.0481
 2682SOL    MW410775   0.993   0.697   4.367 -0.3998  0.0323  0.3734
 2683SOL     OW10776   0.695   4.070   4.221  0.7079 -0.2440 -0.0261
 2683SOL    HW210777   0.743   4.079   4.139 -0.9678 -0.0473 -0.9978
 2683SOL    HW310778   0.762   4.078   4.289  1.7728  1.9825 -1.3034
 2683SOL    MW410779   0.710   4.072   4.219  0.6273  0.0758 -0.3228
 2684SOL     OW10780   3.371   1.055   4.815 -0.4523 -0.7031  0.6727
 2684SOL    HW210781   3.287   1.064   4.772 -1.5619 -0.9493  2.7278
 2684SOL    HW310782   3.414   0.982   4.770 -0.8355  0.1861 -1.1421
 2684SOL    MW410783   3.366   1.046   4.804 -0.6492 -0.6182  0.7043
 2685SOL     OW10784   0.446   2.336   3.734  0.2491  0.8895 -0.5851
 2685SOL    HW210785   0.445   2.411   3.793  0.9276 -0.1079  0.7142
 2685SOL    HW310786   0.446   2.375   3.646  1.1668  2.4213  0.0739
 2685SOL    MW410787   0.446   2.351   3.730  0.4597  0.9601 -0.3266
 2686SOL     OW10788   0.081   0.890   3.830  0.6656 -0.0544 -0.1660
 2686SOL    HW210789   0.052   0.953   3.896  0.5307  0.4799 -0.7318
 2686SOL    HW310790   0.174   0.876   3.849  0.1137 -1.6191  1.5300
 2686SOL    MW410791   0.089   0.896   3.841  0.5750 -0.1904 -0.0167
 2687SOL     OW10792   1.591   1.144   3.813 -0.1495 -0.4086  0.0461
 2687SOL    HW210793   1.683   1.127   3.834 -0.1795 -1.2700 -0.5007
 2687SOL    HW310794   1.548   1.152   3.898  0.1240 -1.7024  0.3058
 2687SOL    MW410795   1.597   1.143   3.827 -0.1173 -0.6928  0.0083
 2688SOL     OW10796   2.336   0.865   3.870  0.4003 -0.2303 -0.0672
 2688SOL    HW210797   2.377   0.948   3.893 -1.0809  0.0751  1.6073
 2688SOL    HW310798   2.328   0.867   3.774  0.0625  1.6952 -0.0009
 2688SOL    MW410799   2.340   0.876   3.860  0.1602  0.0640  0.1626
 2689SOL     OW10800   0.086   0.634   4.686 -0.0389 -0.2304 -0.1595
 2689SOL    HW210801   0.013   0.601   4.633 -0.0015 -0.7050  0.0825
 2689SOL    HW310802   0.107   0.562   4.745 -1.6094  1.1268  2.1243
 2689SOL    MW410803   0.079   0.620   4.687 -0.2412 -0.1140  0.1736
 2690SOL     OW10804   0.729   0.786   4.695  0.0250  0.1703 -0.7253
 2690SOL    HW210805   0.816   0.825   4.699  0.0553  0.0130  0.2618
 2690SOL    HW310806   0.678   0.835   4.758 -0.6113  0.2636 -1.3068
 2690SOL    MW410807   0.734   0.797   4.703 -0.0549  0.1619 -0.6719
 2691SOL     OW10808   1.827   0.098   3.547  0.0571  0.5802 -0.1000
 2691SOL    HW210809   1.893   0.039   3.510  0.1557  0.9236 -0.4786
 2691SOL    HW310810   1.745   0.071   3.505  0.6037  2.7756 -2.7388
 2691SOL    MW410811   1.825   0.087   3.536  0.1422  0.9151 -0.4981
 2692SOL     OW10812   1.075   0.084   3.908  0.6037 -0.4960  0.0098
 2692SOL    HW210813   1.104  -0.001   3.874 -0.2791 -1.1559  0.8889
 2692SOL    HW310814   1.124   0.148   3.856  1.4859 -1.5406 -0.4776
 2692SOL    MW410815   1.086   0.081   3.896  0.6034 -0.7209  0.0615
 2693SOL     OW10816   1.126   0.880   3.888  0.0078  0.0030  0.4547
 2693SOL    HW210817   1.136   0.804   3.831 -0.1015 -0.9657  1.7114
 2693SOL    HW310818   1.192   0.868   3.956 -0.3390  0.7866  0.9298
 2693SOL    MW410819   1.136   0.868   3.889 -0.0523 -0.0213  0.6833
 2694SOL     OW10820   1.636   4.255   4.234 -0.0697 -0.6384 -0.2380
 2694SOL    HW210821   1.703   4.192   4.207  1.0429  0.5160 -0.1750
 2694SOL    HW310822   1.654   4.271   4.327  1.3390  1.8045 -0.8880
 2694SOL    MW410823   1.647   4.248   4.243  0.2629 -0.1636 -0.3152
 2695SOL     OW10824   1.560   4.049   3.847 -0.2402 -0.1841  0.4477
 2695SOL    HW210825   1.546   4.142   3.832 -0.1218 -0.0329  1.2204
 2695SOL    HW310826   1.505   4.005   3.783  0.9652  0.4240 -1.0183
 2695SOL    MW410827   1.551   4.056   3.837 -0.0656 -0.0834  0.3560
 2696SOL     OW10828   0.170   3.248   4.677 -0.5464  0.2792 -0.0799
 2696SOL    HW210829   0.200   3.163   4.643 -0.0126  0.7229 -0.7273
 2696SOL    HW310830   0.076   3.249   4.658 -0.6627 -0.4069  0.4415
 2696SOL    MW410831   0.161   3.237   4.670 -0.4913  0.2470 -0.0963
 2697SOL     OW10832   0.400   3.400   4.589 -0.4054  0.0469 -0.7367
 2697SOL    HW210833   0.374   3.482   4.549 -1.9276  0.4032  0.9440
 2697SOL    HW310834   0.320   3.364   4.627  0.8684 -0.4783  1.5905
 2697SOL    MW410835   0.386   3.406   4.589 -0.4382  0.0246 -0.2074
 2698SOL     OW10836   1.805   2.612   4.646  0.3148 -0.4157  0.0307
 2698SOL    HW210837   1.750   2.595   4.570  0.0127  0.4903  0.0470
 2698SOL    HW310838   1.822   2.706   4.644 -1.4041  0.0029  2.2181
 2698SOL    MW410839   1.800   2.622   4.636  0.0482 -0.2410  0.3214
 2699SOL     OW10840   1.934   1.349   3.802 -0.0766 -0.3233 -0.1359
 2699SOL    HW210841   1.898   1.436   3.786  0.2901  0.2244  1.8878
 2699SOL    HW310842   2.010   1.344   3.745 -0.6210  0.3345 -0.9321
 2699SOL    MW410843   1.939   1.360   3.793 -0.0999 -0.1643  0.0260
 2700SOL     OW10844   1.345   4.068   4.760 -0.0053  0.8509  0.4316
 2700SOL    HW210845   1.432   4.106   4.747  0.3857  1.0590  3.3844
 2700SOL    HW310846   1.357   4.002   4.828 -2.3856  1.7398  1.7666
 2700SOL    MW410847   1.358   4.064   4.767 -0.2676  0.9961  0.9975
 2701SOL     OW10848   4.186   1.272   4.688  0.5715  0.7393  0.4761
 2701SOL    HW210849   4.246   1.201   4.709  0.7253  0.2676 -1.4714
 2701SOL    HW310850   4.109   1.229   4.652 -0.1339  1.4567  1.0960
 2701SOL    MW410851   4.184   1.257   4.686  0.4988  0.7718  0.3004
 2702SOL     OW10852   1.282   3.832   4.525  0.1429 -0.3118  0.6880
 2702SOL    HW210853   1.284   3.846   4.431  0.2872 -2.0843  0.4125
 2702SOL    HW310854   1.229   3.905   4.559 -0.1835  0.1578 -0.7822
 2702SOL    MW410855   1.275   3.843   4.517  0.1190 -0.4838  0.4578
 2703SOL     OW10856   3.583   2.670   4.901 -0.0381  0.3749  0.1241
 2703SOL    HW210857   3.549   2.616   4.972  0.2478  0.7725  0.5694
 2703SOL    HW310858   3.519   2.661   4.830  0.0534 -0.6047  0.1624
 2703SOL    MW410859   3.570   2.662   4.901  0.0117  0.2980  0.1879
 2704SOL     OW10860   1.124   1.257   4.219  0.3012  0.2227 -0.1653
 2704SOL    HW210861   1.149   1.233   4.129  0.2025  2.2135 -0.7493
 2704SOL    HW310862   1.196   1.224   4.273  0.5977 -0.5795 -1.0238
 2704SOL    MW410863   1.137   1.250   4.214  0.3273  0.3796 -0.3562
 2705SOL     OW10864   4.388   4.150   4.597 -0.1948 -0.1494 -0.2923
 2705SOL    HW210865   4.427   4.213   4.657 -0.2884 -0.8851  0.5443
 2705SOL    HW310866   4.295   4.152   4.617 -0.4500  0.7693 -1.5114
 2705SOL    MW410867   4.381   4.159   4.607 -0.2408 -0.1254 -0.3428
 2706SOL     OW10868   4.052   3.021   4.314 -0.2330  0.1891 -0.5036
 2706SOL    HW210869   4.051   3.103   4.265 -0.3750  0.1903 -0.4994
 2706SOL    HW310870   4.098   3.042   4.396 -0.7198  0.3905 -0.2826
 2706SOL    MW410871   4.058   3.035   4.318 -0.3161  0.2160 -0.4740
 2707SOL     OW10872   1.932   2.227   4.583 -0.2053  0.2505  0.0012
 2707SOL    HW210873   1.958   2.271   4.664 -0.6508 -1.2352  0.9555
 2707SOL    HW310874   1.837   2.225   4.586 -0.1748 -1.3936  0.3018
 2707SOL    MW410875   1.923   2.233   4.594 -0.2600 -0.1624  0.1664
 2708SOL     OW10876   3.898   2.656   4.166 -0.0317  0.0267 -0.0419
 2708SOL    HW210877   3.979   2.697   4.199 -0.2364 -0.6518  1.3188
 2708SOL    HW310878   3.856   2.725   4.114  0.1792  1.1972  1.3132
 2708SOL    MW410879   3.903   2.671   4.163 -0.0308  0.0918  0.3161
 2709SOL     OW10880   3.482   3.673   4.406 -0.4947  0.0790 -0.4634
 2709SOL    HW210881   3.445   3.660   4.493 -0.3185  0.0888 -0.3846
 2709SOL    HW310882   3.413   3.646   4.346 -0.4797 -0.3030 -0.3144
 2709SOL    MW410883   3.468   3.668   4.410 -0.4694  0.0298 -0.4330
 2710SOL     OW10884   3.603   1.377   4.296 -0.6474  0.1796 -0.1342
 2710SOL    HW210885   3.595   1.319   4.220 -0.9092 -1.4445  1.1075
 2710SOL    HW310886   3.693   1.411   4.290  0.2594 -2.0201  0.2592
 2710SOL    MW410887   3.614   1.373   4.285 -0.5622 -0.3247  0.0811
 2711SOL     OW10888   1.858   1.632   3.808  0.2712  0.8211 -0.3503
 2711SOL    HW210889   1.946   1.657   3.836  1.1067 -1.7165 -0.5728
 2711SOL    HW310890   1.856   1.650   3.714  0.7652  0.2645 -0.4640
 2711SOL    MW410891   1.869   1.638   3.799  0.4466  0.4128 -0.3946
 2712SOL     OW10892   3.660   0.859   3.820 -0.3177 -0.6445  0.0467
 2712SOL    HW210893   3.637   0.946   3.854 -0.8317 -1.2703  1.3367
 2712SOL    HW310894   3.755   0.857   3.819 -0.3036 -0.0159 -0.1381
 2712SOL    MW410895   3.669   0.870   3.824 -0.3839 -0.6442  0.1924
 2713SOL     OW10896   4.347   3.523   4.780 -0.1423 -0.3650  0.0011
 2713SOL    HW210897   4.315   3.511   4.869 -0.9344 -2.2448 -0.5055
 2713SOL    HW310898   4.440   3.540   4.789 -0.1170 -1.0872  1.1558
 2713SOL    MW410899   4.355   3.524   4.793 -0.2437 -0.7081  0.0868
 2714SOL     OW10900   1.401   2.112   4.319  0.4739  0.5131 -0.0323
 2714SOL    HW210901   1.379   2.141   4.407 -0.6583 -4.1218  1.3393
 2714SOL    HW310902   1.493   2.085   4.326  0.3300 -0.0248 -0.1950
 2714SOL    MW410903   1.411   2.112   4.332  0.3054 -0.1695  0.1268
 2715SOL     OW10904   0.751   0.627   4.459  0.3299  0.3015  0.1260
 2715SOL    HW210905   0.746   0.672   4.544  0.0991  0.4403  0.0420
 2715SOL    HW310906   0.679   0.665   4.409  0.2545 -0.0254 -0.0149
 2715SOL    MW410907   0.741   0.638   4.464  0.2895  0.2767  0.0958
 2716SOL     OW10908   0.983   2.992   4.497 -0.0165 -0.1659 -0.3004
 2716SOL    HW210909   1.064   2.964   4.540  1.0787  1.4860 -1.2278
 2716SOL    HW310910   0.965   2.924   4.433 -0.6193 -1.6836  1.4419
 2716SOL    MW410911   0.991   2.979   4.495  0.0485 -0.1483 -0.1931
 2717SOL     OW10912   1.183   4.390   4.150  0.2867  0.3403  0.0588
 2717SOL    HW210913   1.250   4.459   4.147  0.8318 -0.2040 -0.3111
 2717SOL    HW310914   1.208   4.330   4.080  0.4332 -0.8200  1.0992
 2717SOL    MW410915   1.195   4.391   4.140  0.3778  0.1159  0.1473
 2718SOL     OW10916   2.487   4.599   3.548 -0.2207 -0.5358  0.2478
 2718SOL    HW210917   2.421   4.650   3.499 -0.4991 -0.0627  1.1076
 2718SOL    HW310918   2.570   4.643   3.529 -0.1201 -1.1894 -0.9161
 2718SOL    MW410919   2.489   4.612   3.539 -0.2441 -0.5598  0.2077
 2719SOL     OW10920   4.001   3.330   4.492  0.2753  0.7522  0.9473
 2719SOL    HW210921   4.060   3.267   4.534 -0.4968  0.1698  1.1838
 2719SOL    HW310922   3.919   3.281   4.480  0.3701  1.0080 -0.9375
 2719SOL    MW410923   3.998   3.315   4.496  0.1860  0.7093  0.7300
 2720SOL     OW10924   0.606   1.203   4.746 -0.2267  0.1718  0.5245
 2720SOL    HW210925   0.685   1.239   4.706 -0.4601  1.2653  1.0075
 2720SOL    HW310926   0.534   1.251   4.705 -0.7203 -1.5885 -0.7130
 2720SOL    MW410927   0.607   1.214   4.735 -0.3226  0.0838  0.4244
 2721SOL     OW10928   1.805   0.413   4.619  0.0480  0.0107 -0.7522
 2721SOL    HW210929   1.795   0.453   4.705 -0.5828 -0.4381 -0.6111
 2721SOL    HW310930   1.731   0.447   4.568 -0.1635 -0.5277 -0.8039
 2721SOL    MW410931   1.794   0.423   4.624 -0.0632 -0.1195 -0.7405
 2722SOL     OW10932   1.416   0.545   3.848  0.3618  0.0209 -0.2227
 2722SOL    HW210933   1.363   0.492   3.789  0.9715 -1.6313  0.6720
 2722SOL    HW310934   1.355   0.573   3.916  0.2531 -0.4012 -0.1444
 2722SOL    MW410935   1.401   0.542   3.849  0.4280 -0.2528 -0.0942
 2723SOL     OW10936   2.435   4.452   4.547 -0.1725  0.0301 -0.3010
 2723SOL    HW210937   2.450   4.480   4.456 -1.3623 -0.9083 -0.8071
 2723SOL    HW310938   2.472   4.364   4.551 -1.8108 -0.6848 -0.4247
 2723SOL    MW410939   2.442   4.444   4.535 -0.5455 -0.1884 -0.3839
 2724SOL     OW10940   2.924   2.201   4.582 -0.2870 -0.5122  0.1349
 2724SOL    HW210941   2.891   2.127   4.633 -2.2797 -0.1727 -0.6053
 2724SOL    HW310942   3.001   2.167   4.536 -0.0896 -1.5868  1.2470
 2724SOL    MW410943   2.930   2.187   4.583 -0.5238 -0.6092  0.1845
 2725SOL     OW10944   2.271   4.005   4.189  0.0462  0.3659  0.4465
 2725SOL    HW210945   2.187   4.023   4.230 -0.4962 -1.6032  0.2872
 2725SOL    HW310946   2.301   4.089   4.154 -2.4453  0.8594 -0.5675
 2725SOL    MW410947   2.264   4.018   4.190 -0.3541  0.1707  0.2918
 2726SOL     OW10948   3.358   3.111   3.452  0.0047  0.0857  0.4058
 2726SOL    HW210949   3.361   3.022   3.487  0.8381 -0.7270 -1.6410
 2726SOL    HW310950   3.282   3.151   3.495 -1.1086 -1.9974  0.4544
 2726SOL    MW410951   3.349   3.105   3.462 -0.0322 -0.2966  0.1423
 2727SOL     OW10952   1.328   2.251   4.584 -0.0883 -0.2100  0.2467
 2727SOL    HW210953   1.270   2.327   4.584 -1.8949 -1.5614  0.3941
 2727SOL    HW310954   1.276   2.181   4.622  1.2190 -1.7955 -0.8126
 2727SOL    MW410955   1.314   2.252   4.589 -0.1541 -0.5975  0.1268
 2728SOL     OW10956   4.208   4.479   4.394 -0.0026 -0.0742 -0.3232
 2728SOL    HW210957   4.155   4.459   4.317 -0.4592  1.2585 -0.3718
 2728SOL    HW310958   4.260   4.400   4.409 -1.1328 -0.9579 -0.9899
 2728SOL    MW410959   4.208   4.466   4.386 -0.2127 -0.0153 -0.4177
 2729SOL     OW10960   0.429   0.883   4.653 -0.3238 -0.3430 -0.2678
 2729SOL    HW210961   0.469   0.925   4.730  0.3714 -1.4753  0.0037
 2729SOL    HW310962   0.335   0.894   4.665 -0.2560 -1.2557  1.1846
 2729SOL    MW410963   0.422   0.890   4.665 -0.2232 -0.6129 -0.0410
 2730SOL     OW10964   3.178   2.353   3.953  0.1719  0.3347 -0.2844
 2730SOL    HW210965   3.241   2.287   3.921  1.7368  2.3391 -1.4763
 2730SOL    HW310966   3.205   2.369   4.043  0.4879  0.1467 -0.3408
 2730SOL    MW410967   3.190   2.346   3.960  0.4201  0.5744 -0.4489
 2731SOL     OW10968   4.382   2.938   4.519  0.0042  0.4303  0.2394
 2731SOL    HW210969   4.399   2.845   4.510 -2.2174  0.1694 -1.8035
 2731SOL    HW310970   4.446   2.980   4.461 -1.5320 -0.1237 -1.9574
 2731SOL    MW410971   4.393   2.931   4.510 -0.4916  0.3226 -0.3195
 2732SOL     OW10972   0.845   4.015   4.798 -0.0288 -0.3219 -0.6663
 2732SOL    HW210973   0.854   4.060   4.881 -1.7230 -1.7813  0.3444
 2732SOL    HW310974   0.799   4.077   4.741 -0.0324  0.1903 -0.0975
 2732SOL    MW410975   0.840   4.029   4.801 -0.2529 -0.4463 -0.4578
 2733SOL     OW10976   1.454   1.441   4.057  0.2175 -0.1249  0.2396
 2733SOL    HW210977   1.509   1.505   4.012  1.4550 -2.3706 -1.5361
 2733SOL    HW310978   1.486   1.441   4.148  2.2534 -0.4197 -0.4614
 2733SOL    MW410979   1.465   1.450   4.063  0.6493 -0.4601 -0.0868
 2734SOL     OW10980   2.839   3.566   4.512 -0.1062  0.0528  0.0782
 2734SOL    HW210981   2.931   3.590   4.519 -0.4686  1.3182  0.5298
 2734SOL    HW310982   2.830   3.532   4.422  0.3969  1.6463 -0.5883
 2734SOL    MW410983   2.850   3.565   4.501 -0.0877  0.4301  0.0501
 2735SOL     OW10984   0.540   4.009   3.778  0.0179 -0.0294  0.0497
 2735SOL    HW210985   0.604   3.959   3.827 -0.8271 -1.1272  0.0608
 2735SOL    HW310986   0.475   4.035   3.843  0.2445  0.7406 -0.0301
 2735SOL    MW410987   0.540   4.006   3.793 -0.0637 -0.0725  0.0405
 2736SOL     OW10988   3.521   2.655   3.948 -0.4830 -0.3191  0.3256
 2736SOL    HW210989   3.549   2.576   3.902  0.8609  0.3991 -0.1042
 2736SOL    HW310990   3.515   2.628   4.040  0.9901 -0.6728  0.3356
 2736SOL    MW410991   3.524   2.641   3.954 -0.1111 -0.2711  0.2701
 2737SOL     OW10992   1.453   1.655   4.409  0.7125  0.1807  0.1520
 2737SOL    HW210993   1.541   1.685   4.432  1.1873 -0.6517 -0.5462
 2737SOL    HW310994   1.465   1.566   4.376 -0.3495  0.1775 -0.2730
 2737SOL    MW410995   1.466   1.647   4.407  0.6349  0.0706  0.0043
 2738SOL     OW10996   4.038   3.622   4.145  0.0545  0.0699  0.6079
 2738SOL    HW210997   4.067   3.605   4.055  0.2086  2.1494  0.2534
 2738SOL    HW310998   4.111   3.669   4.186 -0.9900  1.3033  1.0759
 2738SOL    MW410999   4.052   3.626   4.139 -0.0634  0.5066  0.6227
 2739SOL     OW11000   3.320   2.742   3.790 -0.4911 -0.2671  0.2613
 2739SOL    HW211001   3.274   2.815   3.832  0.0754 -0.9964  2.2410
 2739SOL    HW311002   3.383   2.712   3.857 -0.0353 -1.9251 -0.8709
 2739SOL    MW411003   3.322   2.747   3.804 -0.3560 -0.5822  0.3734
 2740SOL     OW11004   2.619   3.400   4.569 -0.2982 -0.1297 -0.0991
 2740SOL    HW211005   2.547   3.423   4.510 -1.5944  1.2748  1.9524
 2740SOL    HW311006   2.679   3.474   4.565 -0.3732 -0.0438  0.2976
 2740SOL    MW411007   2.617   3.413   4.561 -0.4790  0.0670  0.2236
 2741SOL     OW11008   3.798   2.699   4.430 -0.3734 -0.3300 -0.3302
 2741SOL    HW211009   3.823   2.670   4.342 -0.3909 -0.1708 -0.3886
 2741SOL    HW311010   3.722   2.645   4.453 -0.1156 -0.6563 -0.2453
 2741SOL    MW411011   3.791   2.688   4.421 -0.3419 -0.3521 -0.3262
 2742SOL     OW11012   0.056   0.228   4.139 -0.1224 -0.2141  0.4569
 2742SOL    HW211013   0.046   0.304   4.196  0.4686 -0.3834  0.7910
 2742SOL    HW311014   0.082   0.264   4.055 -0.1715 -0.0250  0.5232
 2742SOL    MW411015   0.058   0.243   4.136 -0.0509 -0.2115  0.5102
 2743SOL     OW11016   0.920   1.069   4.182 -0.2149 -0.0161 -0.6754
 2743SOL    HW211017   0.981   1.142   4.173  0.8987 -0.8057  0.2615
 2743SOL    HW311018   0.842   1.096   4.133 -0.0022  1.9953  0.0588
 2743SOL    MW411019   0.918   1.082   4.175 -0.0399  0.1451 -0.4544
 2744SOL     OW11020   3.003   1.531   4.867 -0.1337  0.6604  0.1371
 2744SOL    HW211021   2.970   1.443   4.849 -0.3198  0.5662  0.9124
 2744SOL    HW311022   3.098   1.523   4.856  0.2108 -0.4256  3.2107
 2744SOL    MW411023   3.011   1.518   4.863 -0.1130  0.5047  0.6452
 2745SOL     OW11024   4.030   0.192   4.496  0.0132  0.2529  0.2462
 2745SOL    HW211025   4.056   0.274   4.536  1.8297  1.8051 -3.7956
 2745SOL    HW311026   3.937   0.204   4.475 -0.7342 -0.2681  3.0441
 2745SOL    MW411027   4.021   0.204   4.498  0.1535  0.3890  0.0830
 2746SOL     OW11028   4.124   4.166   4.694  0.2225  0.0102 -0.4796
 2746SOL    HW211029   4.032   4.155   4.670 -0.5172  0.5602  1.9539
 2746SOL    HW311030   4.140   4.260   4.689  0.5743 -0.0522 -0.5922
 2746SOL    MW411031   4.114   4.177   4.690  0.1717  0.0749 -0.1736
 2747SOL     OW11032   1.537   0.582   4.192 -0.1089  0.0259  0.2024
 2747SOL    HW211033   1.559   0.668   4.227  0.3669  0.7086 -1.7374
 2747SOL    HW311034   1.614   0.557   4.140  0.0772 -1.9002  1.3229
 2747SOL    MW411035   1.550   0.590   4.190 -0.0217 -0.1381  0.0939
 2748SOL     OW11036   2.993   0.056   4.385  0.1802  0.3668 -0.0482
 2748SOL    HW211037   2.933   0.056   4.310 -1.2505  0.8191  1.0671
 2748SOL    HW311038   3.080   0.062   4.347 -0.5086  0.0343 -1.6964
 2748SOL    MW411039   2.996   0.057   4.370 -0.0994  0.3826 -0.1187
 2749SOL     OW11040   2.986   4.611   3.877 -0.6117  0.1819  0.0655
 2749SOL    HW211041   2.928   4.548   3.834 -0.1774  0.2680 -0.6551
 2749SOL    HW311042   2.989   4.583   3.968 -1.3714 -0.1316 -0.0026
 2749SOL    MW411043   2.978   4.599   3.883 -0.6547  0.1521 -0.0386
 2750SOL     OW11044   2.162   2.951   4.581  0.6575  0.1791  0.2186
 2750SOL    HW211045   2.172   3.046   4.577 -0.4811  0.3784  1.8111
 2750SOL    HW311046   2.071   2.935   4.556  0.9585 -0.5365 -0.4581
 2750SOL    MW411047   2.152   2.961   4.577  0.5472  0.1109  0.3395
 2751SOL     OW11048   0.585   1.687   4.711  0.2416  0.1471  0.2719
 2751SOL    HW211049   0.659   1.682   4.650  1.0865  0.0794  1.2920
 2751SOL    HW311050   0.532   1.610   4.690  0.8511 -0.2151  0.0338
 2751SOL    MW411051   0.588   1.676   4.700  0.4335  0.0905  0.3753
 2752SOL     OW11052   0.415   3.767   3.997  0.0717 -0.2250 -0.4715
 2752SOL    HW211053   0.387   3.859   3.998 -0.7703 -0.4627  3.0855
 2752SOL    HW311054   0.387   3.735   3.911 -2.5636  1.9736 -0.5124
 2752SOL    MW411055   0.408   3.775   3.985 -0.3870  0.0339 -0.0079
 2753SOL     OW11056   0.686   0.727   4.004  0.3878  0.0707 -0.3412
 2753SOL    HW211057   0.691   0.761   3.915 -0.3559  0.2344 -0.3242
 2753SOL    HW311058   0.772   0.745   4.042  0.6664  0.1067 -0.9856
 2753SOL    MW411059   0.698   0.734   3.997  0.3265  0.0970 -0.4239
 2754SOL     OW11060   0.107   1.404   3.854 -0.4849  0.0484 -0.1574
 2754SOL    HW211061   0.187   1.353   3.841  0.2776  1.4682 -1.1443
 2754SOL    HW311062   0.114   1.436   3.944 -1.4996 -2.4649  0.8526
 2754SOL    MW411063   0.119   1.402   3.864 -0.5182 -0.0960 -0.1543
 2755SOL     OW11064   2.276   3.986   4.705  0.2335 -0.1549 -0.1239
 2755SOL    HW211065   2.184   3.966   4.723 -0.1906  1.0649 -0.8767
 2755SOL    HW311066   2.274   4.039   4.625  1.5388  0.3432  0.1563
 2755SOL    MW411067   2.263   3.991   4.697  0.3498  0.0718 -0.1869
 2756SOL     OW11068   1.883   3.851   4.506 -0.0033 -0.0716  0.4960
 2756SOL    HW211069   1.916   3.771   4.547  1.2782  0.1842 -0.0090
 2756SOL    HW311070   1.805   3.823   4.459 -0.6134 -0.6662  1.8283
 2756SOL    MW411071   1.877   3.837   4.505  0.0852 -0.1161  0.6056
 2757SOL     OW11072   4.360   0.015   4.617  0.1636 -0.0114 -0.3681
 2757SOL    HW211073   4.362   0.053   4.529 -0.8008  0.7443 -0.0673
 2757SOL    HW311074   4.332   0.087   4.674  1.6857 -0.2424  0.6922
 2757SOL    MW411075   4.357   0.030   4.613  0.2370  0.0578 -0.1888
 2758SOL     OW11076   3.390   0.790   3.444 -0.3373  0.4403  0.5122
 2758SOL    HW211077   3.406   0.701   3.477 -0.4814 -0.1242 -0.8892
 2758SOL    HW311078   3.462   0.842   3.479  0.7490 -0.6191 -0.1252
 2758SOL    MW411079   3.401   0.785   3.453 -0.2127  0.2261  0.2429
 2759SOL     OW11080   3.371   2.917   4.601 -0.2490 -0.1058  0.2306
 2759SOL    HW211081   3.310   2.916   4.528 -1.8396 -2.6953  1.5046
 2759SOL    HW311082   3.457   2.901   4.560 -1.1645 -1.9290 -1.0492
 2759SOL    MW411083   3.374   2.915   4.586 -0.5796 -0.6881  0.2298
 2760SOL     OW11084   4.371   3.665   3.806  0.2378 -0.1312 -0.4603
 2760SOL    HW211085   4.360   3.662   3.711 -1.2136  0.4570 -0.3322
 2760SOL    HW311086   4.382   3.758   3.827 -0.7232 -0.1212  0.0590
 2760SOL    MW411087   4.371   3.677   3.796 -0.0806 -0.0522 -0.3748
 2761SOL     OW11088   3.533   0.237   4.313  0.2482  0.1628  0.1139
 2761SOL    HW211089   3.507   0.327   4.292 -1.2710 -0.2634  0.1545
 2761SOL    HW311090   3.500   0.222   4.401 -0.4304 -0.8066 -0.3084
 2761SOL    MW411091   3.525   0.247   4.322 -0.0420 -0.0214  0.0634
 2762SOL     OW11092   4.409   4.287   4.363  0.6114 -0.8106  0.2590
 2762SOL    HW211093   4.412   4.232   4.441  0.7853 -1.1901 -0.0132
 2762SOL    HW311094   4.366   4.232   4.297 -2.1526  0.5173  0.8899
 2762SOL    MW411095   4.404   4.272   4.365  0.2699 -0.6862  0.3061
 2763SOL     OW11096   3.581   2.519   4.469  0.6820 -0.1843 -0.3857
 2763SOL    HW211097   3.599   2.432   4.505 -0.3303 -0.6413 -0.9604
 2763SOL    HW311098   3.544   2.502   4.383  1.7880  0.8625 -1.0765
 2763SOL    MW411099   3.578   2.505   4.463  0.6943 -0.1066 -0.5531
 2764SOL     OW11100   1.146   0.230   4.306  0.7493  0.0921  0.2659
 2764SOL    HW211101   1.190   0.146   4.325  1.4182  0.1027 -1.1978
 2764SOL    HW311102   1.065   0.205   4.263 -0.1146  0.1283  1.8225
 2764SOL    MW411103   1.141   0.215   4.303  0.7235  0.0983  0.2785
 2765SOL     OW11104   2.779   3.672   3.926  0.0535 -0.2387  0.4363
 2765SOL    HW211105   2.729   3.745   3.890 -1.2078 -1.5366 -0.4688
 2765SOL    HW311106   2.729   3.643   4.002  0.2865 -0.4824  0.4982
 2765SOL    MW411107   2.766   3.678   3.931 -0.0823 -0.4418  0.3254
 2766SOL     OW11108   3.887   2.011   4.339  0.0829 -0.3437 -0.2582
 2766SOL    HW211109   3.971   2.006   4.294  0.4294 -0.8772  0.4405
 2766SOL    HW311110   3.857   1.920   4.344  0.2459 -0.3322  0.9632
 2766SOL    MW411111   3.894   1.998   4.334  0.1502 -0.4123 -0.0048
 2767SOL     OW11112   2.971   0.331   4.513 -0.0131  0.1227 -0.4727
 2767SOL    HW211113   2.952   0.238   4.503  0.5258 -0.0217 -0.2018
 2767SOL    HW311114   2.887   0.371   4.533  0.0267 -0.5827  1.2286
 2767SOL    MW411115   2.958   0.324   4.514  0.0629  0.0105 -0.2127
 2768SOL     OW11116   3.697   3.459   4.457  0.4531 -0.0406  0.3868
 2768SOL    HW211117   3.633   3.530   4.445 -1.4521 -1.8599 -0.6493
 2768SOL    HW311118   3.745   3.483   4.536  0.6266  2.9701 -0.5939
 2768SOL    MW411119   3.695   3.471   4.466  0.2246  0.1163  0.1211
 2769SOL     OW11120   2.950   0.659   4.269  0.1069 -0.0393 -0.0538
 2769SOL    HW211121   2.887   0.617   4.328 -0.2007  0.4264 -0.0437
 2769SOL    HW311122   3.020   0.595   4.259 -0.4928 -0.6700 -0.2660
 2769SOL    MW411123   2.951   0.645   4.276 -0.0126 -0.0611 -0.0811
 2770SOL     OW11124   3.323   0.972   4.167  0.7081  0.3790 -0.0089
 2770SOL    HW211125   3.348   0.885   4.138  0.4346  0.9873 -2.1013
 2770SOL    HW311126   3.241   0.959   4.215  0.8438 -0.5355 -0.0206
 2770SOL    MW411127   3.315   0.959   4.170  0.6900  0.3386 -0.2866
 2771SOL     OW11128   3.471   4.563   4.413 -0.6697 -0.0259 -0.0298
 2771SOL    HW211129   3.565   4.570   4.426 -0.4781 -0.4441 -1.1982
 2771SOL    HW311130   3.448   4.480   4.455 -0.7586  0.7715  1.5331
 2771SOL    MW411131   3.480   4.553   4.421 -0.6559  0.0248  0.0229
 2772SOL     OW11132   1.911   3.258   4.000 -0.5866 -0.1668  0.4116
 2772SOL    HW211133   1.968   3.331   4.025  0.2831 -0.0781 -1.7491
 2772SOL    HW311134   1.920   3.195   4.072  1.7989  0.0981  0.3746
 2772SOL    MW411135   1.919   3.259   4.013 -0.1572 -0.1204  0.1216
 2773SOL     OW11136   3.725   3.777   4.350  0.2711 -0.1260 -0.5206
 2773SOL    HW211137   3.772   3.758   4.431  1.4498 -0.8224 -1.3389
 2773SOL    HW311138   3.640   3.735   4.360 -0.2668  1.3211  1.0671
 2773SOL    MW411139   3.720   3.769   4.362  0.3557 -0.0267 -0.4191
 2774SOL     OW11140   3.042   1.674   3.773 -0.6579 -0.2785 -0.5569
 2774SOL    HW211141   3.096   1.606   3.813 -0.3507  0.2475 -0.0721
 2774SOL    HW311142   3.093   1.703   3.697 -0.5996 -0.2928 -0.5234
 2774SOL    MW411143   3.055   1.669   3.768 -0.6099 -0.2109 -0.4885
 2775SOL     OW11144   3.208   0.838   4.554  0.3724 -0.0078 -0.1706
 2775SOL    HW211145   3.184   0.899   4.625  1.0149  0.7450 -0.5917
 2775SOL    HW311146   3.298   0.863   4.531  0.6236 -1.0974 -0.3801
 2775SOL    MW411147   3.217   0.850   4.560  0.4904 -0.0523 -0.2537
 2776SOL     OW11148   2.346   1.845   4.428  0.1946  0.6828 -0.2756
 2776SOL    HW211149   2.375   1.924   4.382  0.7850 -0.1132 -1.2896
 2776SOL    HW311150   2.354   1.775   4.363 -0.9237 -0.1076  0.4248
 2776SOL    MW411151   2.351   1.846   4.413  0.1249  0.4734 -0.3176
 2777SOL     OW11152   1.973   4.027   4.691  0.1135  0.0398 -0.3649
 2777SOL    HW211153   1.969   4.102   4.632 -1.0020  0.9628  0.8609
 2777SOL    HW311154   1.936   3.954   4.641 -1.0119  0.8614 -0.7502
 2777SOL    MW411155   1.968   4.027   4.677 -0.1822  0.2694 -0.2537
 2778SOL     OW11156   3.398   0.139   4.102 -0.3468 -0.0620 -0.0318
 2778SOL    HW211157   3.457   0.167   4.171 -0.4868  0.3847 -0.0904
 2778SOL    HW311158   3.453   0.089   4.041 -0.1687 -0.2113  0.2540
 2778SOL    MW411159   3.413   0.136   4.103 -0.3419 -0.0228 -0.0019
 2779SOL     OW11160   0.812   0.357   4.402  0.0261  0.0476 -0.4972
 2779SOL    HW211161   0.869   0.302   4.456 -0.7005 -1.2077 -0.9923
 2779SOL    HW311162   0.802   0.437   4.452 -0.3132 -0.9449  1.0635
 2779SOL    MW411163   0.818   0.360   4.416 -0.1146 -0.2490 -0.3567
 2780SOL     OW11164   2.368   4.256   3.846  0.1306 -0.1049 -0.4790
 2780SOL    HW211165   2.422   4.290   3.775 -2.1001  1.0969 -1.6435
 2780SOL    HW311166   2.357   4.163   3.825  2.0358 -0.4671 -0.0022
 2780SOL    MW411167   2.374   4.248   3.834  0.0873  0.0062 -0.5698
 2781SOL     OW11168   0.482   1.187   4.166 -0.1638  0.1973  0.0817
 2781SOL    HW211169   0.567   1.217   4.135  0.0244 -0.3654  0.0536
 2781SOL    HW311170   0.435   1.268   4.188  0.6490  0.4756  0.8308
 2781SOL    MW411171   0.487   1.202   4.165 -0.0318  0.1596  0.1769
 2782SOL     OW11172   3.710   2.205   4.217  0.3759  0.5214 -0.2255
 2782SOL    HW211173   3.783   2.263   4.198  0.8662 -0.2463 -0.6891
 2782SOL    HW311174   3.750   2.119   4.231 -0.3833  0.2007  0.0204
 2782SOL    MW411175   3.725   2.201   4.217  0.3405  0.3779 -0.2542
 2783SOL     OW11176   0.934   3.877   3.724  0.0452  0.3888 -0.0236
 2783SOL    HW211177   0.876   3.885   3.799  0.2782  2.0192  0.0078
 2783SOL    HW311178   0.993   3.805   3.747  0.4638  1.2153  1.6130
 2783SOL    MW411179   0.934   3.869   3.737  0.1312  0.7131  0.1965
 2784SOL     OW11180   4.398   4.662   4.067  0.1532  0.3804  0.0837
 2784SOL    HW211181   4.410   4.746   4.112  0.6810  0.3744 -0.0535
 2784SOL    HW311182   4.447   4.599   4.119  0.6706  0.3514 -0.4381
 2784SOL    MW411183   4.406   4.665   4.080  0.2913  0.3757 -0.0033
 2785SOL     OW11184   1.096   3.406   3.891 -0.1973 -0.1645 -0.1274
 2785SOL    HW211185   1.187   3.387   3.914 -0.1445  1.2249  0.8789
 2785SOL    HW311186   1.069   3.332   3.836  1.3989 -0.7984 -0.0856
 2785SOL    MW411187   1.105   3.393   3.887  0.0201 -0.0648  0.0107
 2786SOL     OW11188   1.680   4.123   4.731 -0.6310 -0.1059  0.0308
 2786SOL    HW211189   1.637   4.053   4.681 -0.9289 -0.5013  0.8434
 2786SOL    HW311190   1.770   4.092   4.741 -0.7346 -0.3188  0.2969
 2786SOL    MW411191   1.686   4.110   4.725 -0.6839 -0.1864  0.1736
 2787SOL     OW11192   3.718   2.067   4.747  0.1840  0.1875 -0.1753
 2787SOL    HW211193   3.813   2.057   4.752  0.4505  0.2046 -4.0083
 2787SOL    HW311194   3.685   1.977   4.737 -0.5165 -0.1177  3.9025
 2787SOL    MW411195   3.726   2.054   4.746  0.1268  0.1497 -0.1431
 2788SOL     OW11196   3.822   2.058   3.809 -0.2022 -0.7477  0.6436
 2788SOL    HW211197   3.911   2.070   3.843  0.7091 -2.2019 -1.1279
 2788SOL    HW311198   3.786   1.985   3.859 -1.3677  1.4179  3.1005
 2788SOL    MW411199   3.829   2.050   3.820 -0.2353 -0.6540  0.7341
 2789SOL     OW11200   0.172   2.642   4.671 -0.2046 -0.0737  0.0113
 2789SOL    HW211201   0.138   2.658   4.759  1.8982  1.0201  0.6657
 2789SOL    HW311202   0.200   2.550   4.673 -0.8519 -0.2710  0.2300
 2789SOL    MW411203   0.171   2.632   4.683 -0.0126  0.0443  0.1264
 2790SOL     OW11204   1.008   3.935   4.581 -0.5914 -0.1052  0.2467
 2790SOL    HW211205   0.965   3.999   4.524  0.9927  1.7039  1.0037
 2790SOL    HW311206   0.963   3.945   4.665  0.9324  1.4273  0.8997
 2790SOL    MW411207   0.996   3.945   4.585 -0.1814  0.3357  0.4325
 2791SOL     OW11208   1.647   2.125   3.729 -0.0600  0.5244 -0.0904
 2791SOL    HW211209   1.612   2.092   3.646  1.6294  0.3680 -0.7569
 2791SOL    HW311210   1.604   2.072   3.796 -1.4015  0.6136 -0.8497
 2791SOL    MW411211   1.637   2.114   3.727 -0.0142  0.5155 -0.2785
 2792SOL     OW11212   3.191   3.011   4.405 -0.0086 -0.1227  0.0976
 2792SOL    HW211213   3.215   3.003   4.312  0.3521  0.5577  0.1256
 2792SOL    HW311214   3.098   2.988   4.407  0.0111 -0.2610 -0.4163
 2792SOL    MW411215   3.182   3.007   4.393  0.0415 -0.0510  0.0334
 2793SOL     OW11216   3.634   1.136   3.913 -0.1734  0.3376 -0.1118
 2793SOL    HW211217   3.544   1.165   3.896  0.0703  0.2228 -1.6382
 2793SOL    HW311218   3.687   1.215   3.900 -0.1095  0.5510  1.3954
 2793SOL    MW411219   3.629   1.150   3.909 -0.1330  0.3506 -0.1144
 2794SOL     OW11220   1.357   2.383   3.800  0.1962  0.3326 -0.0630
 2794SOL    HW211221   1.448   2.387   3.772  0.3854  1.4251  0.6749
 2794SOL    HW311222   1.342   2.290   3.819  0.9905  0.0705 -0.6994
 2794SOL    MW411223   1.367   2.371   3.799  0.3260  0.4420 -0.0496
 2795SOL     OW11224   2.083   0.443   4.473 -0.2292 -0.3176  0.5228
 2795SOL    HW211225   2.012   0.450   4.536 -0.7375 -1.7929  0.1238
 2795SOL    HW311226   2.040   0.417   4.391  0.7055 -0.7240  0.1538
 2795SOL    MW411227   2.068   0.441   4.470 -0.1731 -0.5658  0.4220
 2796SOL     OW11228   2.791   0.577   4.483 -0.3654 -0.5359 -0.0476
 2796SOL    HW211229   2.703   0.609   4.464 -0.4104  0.0721  1.1138
 2796SOL    HW311230   2.828   0.642   4.543  1.0695 -0.5047 -0.9360
 2796SOL    MW411231   2.784   0.590   4.489 -0.1822 -0.4516 -0.0114
 2797SOL     OW11232   3.770   3.455   4.181 -0.2699  0.5806  0.7547
 2797SOL    HW211233   3.755   3.458   4.276 -0.3577 -0.6332  0.7845
 2797SOL    HW311234   3.837   3.521   4.165  0.2248  0.3368  1.7619
 2797SOL    MW411235   3.777   3.464   4.191 -0.2165  0.3881  0.8917
 2798SOL     OW11236   1.593   0.823   4.317  0.1201  0.4166 -0.1028
 2798SOL    HW211237   1.631   0.887   4.257 -0.5843  1.9363  1.0452
 2798SOL    HW311238   1.509   0.861   4.344 -0.0574 -0.7238  1.0308
 2798SOL    MW411239   1.587   0.837   4.313  0.0039  0.4666  0.1974
 2799SOL     OW11240   4.143   3.254   3.856  0.2856 -0.8573  0.1691
 2799SOL    HW211241   4.121   3.235   3.765 -0.1595  0.9253 -0.1230
 2799SOL    HW311242   4.058   3.269   3.898  0.5725 -0.1290  0.4990
 2799SOL    MW411243   4.128   3.253   3.849  0.2646 -0.5260  0.1738
 2800SOL     OW11244   2.552   0.021   4.723  0.5665 -0.0657 -0.1469
 2800SOL    HW211245   2.523  -0.062   4.684  1.5093 -0.2324 -0.4987
 2800SOL    HW311246   2.576  -0.002   4.813 -2.0220  0.4009  0.6873
 2800SOL    MW411247   2.551   0.007   4.729  0.3495 -0.0262 -0.0834
 2801SOL     OW11248   2.673   3.772   4.581  0.1414  0.3467 -0.3725
 2801SOL    HW211249   2.741   3.714   4.547  1.6215  1.4009  0.7151
 2801SOL    HW311250   2.691   3.856   4.540  0.5391  1.0483  1.1919
 2801SOL    MW411251   2.684   3.775   4.571  0.3889  0.5784 -0.0224
 2802SOL     OW11252   2.222   3.215   4.523  0.2980 -0.4648 -0.4920
 2802SOL    HW211253   2.293   3.179   4.470 -0.4976 -0.5859 -1.4805
 2802SOL    HW311254   2.248   3.306   4.540  0.2451 -0.2274 -1.6555
 2802SOL    MW411255   2.235   3.223   4.518  0.1862 -0.4494 -0.7758
 2803SOL     OW11256   0.212   2.205   3.729  0.1759 -0.0556 -0.6727
 2803SOL    HW211257   0.140   2.266   3.745 -0.0417 -0.1090 -1.4372
 2803SOL    HW311258   0.289   2.249   3.765 -0.2063  0.0683  0.0096
 2803SOL    MW411259   0.213   2.218   3.736  0.0968 -0.0463 -0.6835
 2804SOL     OW11260   3.654   2.277   4.568 -0.2621 -0.0406  0.2935
 2804SOL    HW211261   3.675   2.214   4.636 -0.9587  0.3124  0.8413
 2804SOL    HW311262   3.677   2.232   4.486 -0.4360 -0.8810  0.6950
 2804SOL    MW411263   3.660   2.263   4.566 -0.3772 -0.1049  0.4187
 2805SOL     OW11264   2.768   4.422   4.374  0.4919  1.0756  0.5115
 2805SOL    HW211265   2.721   4.352   4.418  0.6961  0.1618 -0.6966
 2805SOL    HW311266   2.817   4.466   4.443 -1.3479  1.4224  1.6342
 2805SOL    MW411267   2.768   4.419   4.389  0.2761  1.0009  0.5002
 2806SOL     OW11268   1.992   2.578   3.949 -0.3439 -0.9687 -0.7011
 2806SOL    HW211269   2.028   2.504   3.899 -0.9915 -0.8748 -1.3180
 2806SOL    HW311270   2.033   2.571   4.035  1.1122 -0.8866 -1.3672
 2806SOL    MW411271   2.002   2.567   3.954 -0.2372 -0.9453 -0.8702
 2807SOL     OW11272   0.859   0.163   3.763  0.4799  0.3453  0.2218
 2807SOL    HW211273   0.930   0.123   3.814  0.0098 -2.1493 -1.0329
 2807SOL    HW311274   0.886   0.153   3.672  0.0375  2.3488 -0.1373
 2807SOL    MW411275   0.872   0.156   3.758  0.3595  0.2805  0.0088
 2808SOL     OW11276   1.221   0.825   4.540 -0.2937  0.4264  0.5531
 2808SOL    HW211277   1.277   0.753   4.569 -0.9827 -0.3350  0.0244
 2808SOL    HW311278   1.156   0.783   4.483 -0.0613  1.6334 -0.6041
 2808SOL    MW411279   1.220   0.810   4.536 -0.3541  0.4851  0.3304
 2809SOL     OW11280   0.043   1.682   3.514  0.4537  0.3970  0.2414
 2809SOL    HW211281   0.122   1.647   3.474 -0.2534  0.2921 -1.1072
 2809SOL    HW311282  -0.027   1.626   3.480 -0.3062  1.0837  0.6560
 2809SOL    MW411283   0.044   1.670   3.504  0.2602  0.4737  0.1180
 2810SOL     OW11284   1.154   3.035   3.911  0.1101 -0.0594  0.6039
 2810SOL    HW211285   1.095   3.072   3.845  0.5750 -1.9867 -0.9295
 2810SOL    HW311286   1.153   2.941   3.894  0.2687 -0.5867  3.3456
 2810SOL    MW411287   1.146   3.028   3.900  0.1924 -0.3834  0.7634
 2811SOL     OW11288   3.585   1.071   4.196 -0.0881 -0.1830 -0.0036
 2811SOL    HW211289   3.596   1.090   4.103 -0.4468  0.7350  0.1288
 2811SOL    HW311290   3.491   1.060   4.208  0.1078 -1.9191 -0.0391
 2811SOL    MW411291   3.574   1.072   4.186 -0.1097 -0.2909  0.0095
 2812SOL     OW11292   0.669   2.030   3.506 -0.1964 -0.1141 -0.2886
 2812SOL    HW211293   0.651   2.028   3.600  0.4000 -0.1213 -0.1754
 2812SOL    HW311294   0.582   2.028   3.466 -0.4338 -0.7104  0.2469
 2812SOL    MW411295   0.655   2.030   3.513 -0.1490 -0.1936 -0.2031
 2813SOL     OW11296   4.444   2.660   4.489  0.5345 -0.0613  0.1849
 2813SOL    HW211297   4.526   2.645   4.537  0.8035  0.3987 -0.1286
 2813SOL    HW311298   4.473   2.689   4.402  0.0745 -1.6144 -0.5098
 2813SOL    MW411299   4.459   2.662   4.484  0.5093 -0.2053  0.0515
 2814SOL     OW11300   2.251   2.681   4.643  0.6095 -0.1761 -0.5514
 2814SOL    HW211301   2.177   2.621   4.649  0.8757 -0.2464  2.9527
 2814SOL    HW311302   2.211   2.768   4.649  0.7028 -0.1928  0.4409
 2814SOL    MW411303   2.236   2.685   4.645  0.6568 -0.1876  0.0420
 2815SOL     OW11304   3.983   1.423   3.974  0.3849 -0.1938  0.0453
 2815SOL    HW211305   4.071   1.388   3.963  1.5734  2.3762  1.0349
 2815SOL    HW311306   3.953   1.388   4.058  0.8454 -0.2752  0.1721
 2815SOL    MW411307   3.990   1.414   3.984  0.6025  0.1346  0.1924
 2816SOL     OW11308   1.755   0.484   4.035  0.0362 -0.4524  0.1360
 2816SOL    HW211309   1.815   0.526   3.973 -0.2528 -0.0732  0.1110
 2816SOL    HW311310   1.811   0.457   4.107  0.0833  0.8701  0.6089
 2816SOL    MW411311   1.771   0.486   4.036  0.0042 -0.2279  0.1955
 2817SOL     OW11312   2.082   1.466   4.400 -0.1206  0.3193  0.0312
 2817SOL    HW211313   2.118   1.465   4.312 -0.9193 -0.5546 -0.2921
 2817SOL    HW311314   2.134   1.401   4.448 -0.5062 -0.1146 -0.1334
 2817SOL    MW411315   2.094   1.457   4.395 -0.2768  0.1467 -0.0339
 2818SOL     OW11316   2.148   0.707   3.985 -0.1510 -0.0548  0.4475
 2818SOL    HW211317   2.085   0.674   3.921  0.2802 -0.2496  0.1248
 2818SOL    HW311318   2.202   0.769   3.936 -0.9017  1.0856  1.0241
 2818SOL    MW411319   2.147   0.711   3.970 -0.1934  0.0700  0.4814
 2819SOL     OW11320   2.534   0.680   4.355 -0.0335  0.1791  0.1977
 2819SOL    HW211321   2.439   0.674   4.369  0.2893  1.0249  2.9306
 2819SOL    HW311322   2.551   0.773   4.346  0.4390 -0.0336 -1.3021
 2819SOL    MW411323   2.524   0.691   4.355  0.0715  0.2627  0.3605
 2820SOL     OW11324   3.932   1.512   4.429  0.3986 -0.7044  0.0387
 2820SOL    HW211325   4.025   1.529   4.448  0.4020  1.1774 -1.4649
 2820SOL    HW311326   3.890   1.597   4.440 -0.7790 -1.0874 -1.3558
 2820SOL    MW411327   3.939   1.526   4.433  0.2434 -0.5066 -0.3438
 2821SOL     OW11328   3.280   1.303   4.560  0.5278 -0.1023  0.0814
 2821SOL    HW211329   3.260   1.360   4.487 -0.6045  0.9681  1.1974
 2821SOL    HW311330   3.274   1.359   4.637 -0.1703 -1.6108  1.1580
 2821SOL    MW411331   3.276   1.318   4.561  0.2863 -0.1601  0.3705
 2822SOL     OW11332   2.332   3.747   3.857 -0.4945 -0.0420 -0.0906
 2822SOL    HW211333   2.300   3.725   3.945 -3.2571 -0.8506 -1.2320
 2822SOL    HW311334   2.323   3.666   3.807  0.1952  0.6393 -1.3466
 2822SOL    MW411335   2.326   3.733   3.862 -0.7679 -0.0587 -0.4070
 2823SOL     OW11336   3.218   2.507   4.586  0.3148  0.0793 -0.0622
 2823SOL    HW211337   3.137   2.520   4.634 -0.7233 -3.9923 -0.5757
 2823SOL    HW311338   3.285   2.548   4.641 -1.6873  1.0502  1.7260
 2823SOL    MW411339   3.216   2.514   4.600 -0.0863 -0.3300  0.1059
 2824SOL     OW11340   2.978   1.530   4.450 -0.5099 -0.0157 -0.8071
 2824SOL    HW211341   2.940   1.547   4.364  1.1112  0.7407 -1.3931
 2824SOL    HW311342   2.948   1.603   4.505 -0.0981  0.4511 -1.2024
 2824SOL    MW411343   2.969   1.542   4.446 -0.2418  0.1458 -0.9365
 2825SOL     OW11344   3.603   4.034   3.835  0.4860  0.7713  0.3063
 2825SOL    HW211345   3.660   4.109   3.822 -0.4566  1.5655  0.6277
 2825SOL    HW311346   3.655   3.972   3.886  0.9865  1.5695  0.7654
 2825SOL    MW411347   3.617   4.036   3.840  0.4275  0.9818  0.4096
 2826SOL     OW11348   4.222   4.111   3.873  0.2408 -0.0990  0.5187
 2826SOL    HW211349   4.241   4.188   3.819 -0.6473  1.1950  2.0090
 2826SOL    HW311350   4.136   4.082   3.844  0.5181 -0.4634  0.0486
 2826SOL    MW411351   4.213   4.118   3.862  0.1602  0.0234  0.6530
 2827SOL     OW11352   3.989   0.969   4.235  0.2713 -0.4494 -0.2284
 2827SOL    HW211353   4.037   1.001   4.159  0.5021 -1.2152 -0.4168
 2827SOL    HW311354   3.940   0.893   4.202 -1.0788  0.3250 -0.0414
 2827SOL    MW411355   3.989   0.963   4.221  0.1237 -0.4483 -0.2289
 2828SOL     OW11356   2.912   4.082   4.762  0.0648 -0.4068 -0.6908
 2828SOL    HW211357   2.941   4.046   4.678 -0.6306 -1.3942 -0.5247
 2828SOL    HW311358   2.857   4.013   4.799  0.0109  0.2041  0.3775
 2828SOL    MW411359   2.908   4.068   4.755 -0.0341 -0.4563 -0.5279
 2829SOL     OW11360   0.026   3.477   3.934  0.2705 -0.6897  0.5219
 2829SOL    HW211361   0.086   3.522   3.994  0.5005  0.3830 -0.4807
 2829SOL    HW311362  -0.027   3.547   3.897 -1.0994 -1.5579  0.8341
 2829SOL    MW411363   0.027   3.492   3.937  0.1201 -0.6630  0.4308
 2830SOL     OW11364   1.315   2.804   4.167 -0.3963 -0.1555 -0.2238
 2830SOL    HW211365   1.230   2.824   4.128 -0.7777 -1.2129  0.0484
 2830SOL    HW311366   1.358   2.749   4.102  0.1827  0.5703 -0.4630
 2830SOL    MW411367   1.309   2.799   4.154 -0.3703 -0.1991 -0.2203
 2831SOL     OW11368   3.841   4.172   4.640 -0.1185 -0.3280  0.0362
 2831SOL    HW211369   3.761   4.122   4.656 -0.2240  0.3876  1.8448
 2831SOL    HW311370   3.825   4.257   4.680  1.0312  0.2898 -0.7831
 2831SOL    MW411371   3.828   4.177   4.647  0.0191 -0.1521  0.1669
 2832SOL     OW11372   3.269   4.343   3.975  0.4353  0.1785 -0.4672
 2832SOL    HW211373   3.284   4.389   3.893 -2.6260  1.8216 -0.2144
 2832SOL    HW311374   3.203   4.396   4.020  0.4847 -1.8221  2.1142
 2832SOL    MW411375   3.262   4.356   3.970  0.0379  0.1307 -0.0930
 2833SOL     OW11376   4.103   3.277   4.213  0.2397  0.4950 -0.2212
 2833SOL    HW211377   4.062   3.312   4.292 -1.2241  1.1363 -1.2446
 2833SOL    HW311378   4.178   3.334   4.197  1.1681 -0.2670  1.2785
 2833SOL    MW411379   4.107   3.289   4.221  0.1688  0.4792 -0.1583
 2834SOL     OW11380   0.670   3.014   4.314  0.0543  0.3438  0.4373
 2834SOL    HW211381   0.682   3.027   4.409  1.6462 -1.8122  0.5486
 2834SOL    HW311382   0.580   3.041   4.298 -0.6035 -0.3574  2.7726
 2834SOL    MW411383   0.660   3.020   4.325  0.1774 -0.0334  0.7596
 2835SOL     OW11384   0.737   3.812   3.920  0.6160 -0.0999 -0.5515
 2835SOL    HW211385   0.720   3.750   3.849  2.6057 -0.5205 -0.6841
 2835SOL    HW311386   0.722   3.762   4.000  0.9099 -0.3613 -0.6622
 2835SOL    MW411387   0.733   3.797   3.921  0.9173 -0.1898 -0.5836
 2836SOL     OW11388   2.448   3.427   3.978  0.0931  0.6305  0.0090
 2836SOL    HW211389   2.402   3.378   4.047  1.1576  1.2876  1.2047
 2836SOL    HW311390   2.380   3.448   3.914 -0.6725 -1.0870  0.2211
 2836SOL    MW411391   2.433   3.423   3.978  0.1326  0.4904  0.1948
 2837SOL     OW11392   0.574   0.130   3.809 -0.4317 -0.2959  0.2956
 2837SOL    HW211393   0.669   0.115   3.804 -0.5749 -0.7804 -1.3461
 2837SOL    HW311394   0.546   0.081   3.886  0.8853  1.1140  1.6865
 2837SOL    MW411395   0.583   0.121   3.818 -0.2769 -0.1738  0.2630
 2838SOL     OW11396   1.095   3.885   4.055 -0.4765  0.0638  0.2357
 2838SOL    HW211397   1.124   3.913   3.968 -0.8795 -0.4983 -0.0897
 2838SOL    HW311398   1.174   3.888   4.109  0.3954 -2.3005 -0.8440
 2838SOL    MW411399   1.109   3.889   4.051 -0.4146 -0.3223  0.0505
 2839SOL     OW11400   4.170   1.669   4.244 -0.2059 -0.2001  0.1258
 2839SOL    HW211401   4.137   1.752   4.278 -0.9604 -0.0778 -0.8716
 2839SOL    HW311402   4.260   1.688   4.219 -0.1928  0.1638  0.4376
 2839SOL    MW411403   4.177   1.682   4.245 -0.3042 -0.1359  0.0353
 2840SOL     OW11404   2.223   3.507   4.715  0.2953 -0.1105  0.0542
 2840SOL    HW211405   2.297   3.565   4.697  1.0926 -1.3505 -0.7139
 2840SOL    HW311406   2.263   3.427   4.750 -0.7180 -0.6115  0.0814
 2840SOL    MW411407   2.238   3.504   4.717  0.2666 -0.3405 -0.0439
 2841SOL     OW11408   4.139   4.445   4.657 -0.1553  0.1036 -0.8473
 2841SOL    HW211409   4.142   4.461   4.562  0.3799  0.5629 -0.7561
 2841SOL    HW311410   4.197   4.511   4.694 -1.6248  0.9606 -0.0444
 2841SOL    MW411411   4.147   4.456   4.649 -0.2789  0.2770 -0.7296
 2842SOL     OW11412   3.932   0.214   4.143  0.4862 -0.3535 -0.1633
 2842SOL    HW211413   4.020   0.249   4.158  0.4933 -0.4078 -0.0865
 2842SOL    HW311414   3.875   0.290   4.151  0.2214 -0.7838  2.5056
 2842SOL    MW411415   3.936   0.229   4.146  0.4523 -0.4175  0.1988
 2843SOL     OW11416   3.197   1.477   3.896  0.1807  0.6242  0.4646
 2843SOL    HW211417   3.152   1.468   3.980 -0.3103  0.5687  0.1981
 2843SOL    HW311418   3.222   1.387   3.873  0.3671  0.6465  0.5797
 2843SOL    MW411419   3.194   1.464   3.904  0.1407  0.6199  0.4449
 2844SOL     OW11420   3.603   1.621   3.836 -0.2198  0.2688 -0.3563
 2844SOL    HW211421   3.589   1.641   3.744 -0.1538  1.3475 -0.1499
 2844SOL    HW311422   3.517   1.633   3.876 -0.2412 -0.1645 -0.2760
 2844SOL    MW411423   3.590   1.625   3.829 -0.2136  0.3539 -0.3183
 2845SOL     OW11424   2.268   0.519   4.156 -0.6871 -0.1476 -0.1401
 2845SOL    HW211425   2.253   0.588   4.092 -1.9414 -1.1512 -0.9673
 2845SOL    HW311426   2.294   0.564   4.236 -0.7102  1.2165 -0.8986
 2845SOL    MW411427   2.269   0.534   4.158 -0.8557 -0.1001 -0.3490
 2846SOL     OW11428   1.185   2.499   4.527  0.1082  0.6154  0.4222
 2846SOL    HW211429   1.121   2.530   4.463  0.4468  2.7068  1.0644
 2846SOL    HW311430   1.269   2.536   4.497  0.7763 -0.8448  0.4312
 2846SOL    MW411431   1.188   2.508   4.514  0.2412  0.6986  0.5083
 2847SOL     OW11432   1.467   1.156   4.061 -0.9412 -0.0678  0.1858
 2847SOL    HW211433   1.453   1.251   4.060 -3.0185 -0.3602 -0.2176
 2847SOL    HW311434   1.385   1.120   4.027  0.1471 -1.9710 -0.4462
 2847SOL    MW411435   1.454   1.164   4.056 -1.0718 -0.3575  0.0496
 2848SOL     OW11436   1.664   3.108   4.546 -0.0939  0.0431  0.4561
 2848SOL    HW211437   1.595   3.172   4.531 -1.3607 -1.0041  1.6663
 2848SOL    HW311438   1.746   3.157   4.533 -1.0197  2.0215  1.7973
 2848SOL    MW411439   1.666   3.123   4.543 -0.3833  0.1657  0.7925
 2849SOL     OW11440   3.984   2.605   4.602 -0.0535 -0.0149  0.2118
 2849SOL    HW211441   4.059   2.594   4.543 -0.4502 -1.4071 -0.0514
 2849SOL    HW311442   3.912   2.632   4.545 -0.3165 -0.8920  0.1209
 2849SOL    MW411443   3.984   2.607   4.587 -0.1407 -0.3147  0.1655
 2850SOL     OW11444   0.266   0.531   3.788 -0.3189 -0.2452  0.0302
 2850SOL    HW211445   0.187   0.488   3.822  0.7396 -1.1395  1.3960
 2850SOL    HW311446   0.332   0.462   3.788  0.8783  0.8894  0.3947
 2850SOL    MW411447   0.264   0.516   3.793 -0.0213 -0.2134  0.2584
 2851SOL     OW11448   1.506   0.909   3.694  0.1077  0.0759 -0.4164
 2851SOL    HW211449   1.491   0.857   3.773 -3.5977  0.9836 -0.4491
 2851SOL    HW311450   1.525   0.997   3.727 -1.1504  0.3875 -0.4919
 2851SOL    MW411451   1.507   0.913   3.709 -0.5472  0.2368 -0.4311
 2852SOL     OW11452   1.360   2.337   4.124  0.3052 -0.5590  0.6029
 2852SOL    HW211453   1.281   2.366   4.171  1.6966  2.9498  0.9786
 2852SOL    HW311454   1.411   2.291   4.190 -1.0232 -2.1450  0.5633
 2852SOL    MW411455   1.356   2.335   4.139  0.3135 -0.3054  0.6471
 2853SOL     OW11456   3.869   4.459   4.722 -0.2962 -0.1195 -0.3080
 2853SOL    HW211457   3.861   4.554   4.722  1.2816  0.0442  0.8597
 2853SOL    HW311458   3.964   4.443   4.722 -0.5295 -1.7137 -2.2256
 2853SOL    MW411459   3.881   4.470   4.722 -0.1187 -0.3080 -0.4072
 2854SOL     OW11460   0.475   4.238   4.174 -0.1113  0.2578 -0.2100
 2854SOL    HW211461   0.557   4.194   4.194 -0.4498 -0.5163 -0.5155
 2854SOL    HW311462   0.478   4.319   4.227  0.8370  0.2403 -0.2271
 2854SOL    MW411463   0.486   4.243   4.184 -0.0309  0.1535 -0.2522
 2855SOL     OW11464   1.322   1.262   4.472  0.0794 -0.0185 -0.2090
 2855SOL    HW211465   1.398   1.278   4.527  0.2935  2.9535 -1.2830
 2855SOL    HW311466   1.247   1.278   4.529  0.2971  1.6244 -0.3623
 2855SOL    MW411467   1.322   1.267   4.487  0.1363  0.5904 -0.3710
 2856SOL     OW11468   4.444   1.144   4.714 -0.2925 -0.0300 -0.2310
 2856SOL    HW211469   4.483   1.204   4.651  1.5382 -0.2391  0.6910
 2856SOL    HW311470   4.504   1.070   4.718 -0.7100 -0.3078  1.2916
 2856SOL    MW411471   4.457   1.142   4.706 -0.1063 -0.0943  0.0916
 2857SOL     OW11472   0.433   3.422   3.944  0.0585 -0.0377  0.1064
 2857SOL    HW211473   0.517   3.398   3.905 -0.4885 -1.1414 -0.3973
 2857SOL    HW311474   0.400   3.491   3.886 -0.9672 -1.9885 -1.7133
 2857SOL    MW411475   0.440   3.428   3.931 -0.1490 -0.4408 -0.2000
 2858SOL     OW11476   1.194   1.758   3.991 -0.0738  0.2734  0.1529
 2858SOL    HW211477   1.180   1.668   4.021  1.0617 -0.0815 -0.3289
 2858SOL    HW311478   1.214   1.807   4.071 -3.4764  0.7230  0.8026
 2858SOL    MW411479   1.195   1.753   4.006 -0.3730  0.2857  0.1750
 2859SOL     OW11480   0.192   1.588   4.722  0.4342 -0.4856 -0.2796
 2859SOL    HW211481   0.139   1.613   4.647  0.4355 -0.1496 -0.1726
 2859SOL    HW311482   0.130   1.554   4.786  0.5351 -1.6309 -0.7787
 2859SOL    MW411483   0.177   1.587   4.721  0.4477 -0.5924 -0.3314
 2860SOL     OW11484   3.461   3.328   3.778  0.2236 -0.1324  0.6992
 2860SOL    HW211485   3.391   3.266   3.798  0.7706 -1.2767 -0.8334
 2860SOL    HW311486   3.518   3.281   3.717  0.8767  1.7187 -0.1560
 2860SOL    MW411487   3.459   3.314   3.773  0.3819 -0.0389  0.3841
 2861SOL     OW11488   0.161   1.275   4.523 -0.5620  0.0823  0.3125
 2861SOL    HW211489   0.120   1.343   4.470 -1.3054 -0.0159  0.7489
 2861SOL    HW311490   0.241   1.315   4.556 -0.5833  0.4677 -0.1023
 2861SOL    MW411491   0.166   1.290   4.520 -0.6629  0.1202  0.3157
 2862SOL     OW11492   2.279   2.902   4.347  0.1194  0.0539  0.3656
 2862SOL    HW211493   2.239   2.908   4.434 -0.5539 -0.9663  0.1338
 2862SOL    HW311494   2.369   2.932   4.360 -0.5632  1.9036  0.9967
 2862SOL    MW411495   2.286   2.907   4.360 -0.0596  0.1631  0.4187
 2863SOL     OW11496   4.077   3.875   4.623 -0.2484 -0.4147  0.3116
 2863SOL    HW211497   4.056   3.918   4.539 -1.6464 -0.3735  0.6708
 2863SOL    HW311498   4.098   3.948   4.682 -0.3695 -0.3732  0.3034
 2863SOL    MW411499   4.077   3.891   4.619 -0.4487 -0.4039  0.3581
 2864SOL     OW11500   1.672   2.032   4.301  0.1387  0.4095 -0.1593
 2864SOL    HW211501   1.697   2.105   4.245  1.4367 -0.5152 -0.8038
 2864SOL    HW311502   1.740   2.028   4.368  0.2088 -0.3709 -0.2733
 2864SOL    MW411503   1.684   2.041   4.303  0.3192  0.1843 -0.2599
 2865SOL     OW11504   4.317   3.453   4.163  0.1707  0.3107 -0.5159
 2865SOL    HW211505   4.387   3.464   4.098  0.0432 -0.0414 -0.7165
 2865SOL    HW311506   4.293   3.542   4.188  1.7415  0.4092  0.6912
 2865SOL    MW411507   4.323   3.466   4.158  0.3610  0.2773 -0.3824
 2866SOL     OW11508   3.933   2.332   4.607 -0.2605 -0.4752 -0.0865
 2866SOL    HW211509   3.837   2.330   4.598 -0.2775 -0.0679 -0.0045
 2866SOL    HW311510   3.953   2.423   4.630 -0.0896 -1.1634  2.5859
 2866SOL    MW411511   3.923   2.344   4.609 -0.2401 -0.5126  0.2770
 2867SOL     OW11512   3.682   0.277   4.664 -0.3847  0.4204  0.0416
 2867SOL    HW211513   3.718   0.307   4.581  2.7944  0.1606  1.2467
 2867SOL    HW311514   3.613   0.216   4.640  0.5417  0.2995 -2.4054
 2867SOL    MW411515   3.678   0.273   4.650  0.1566  0.3702 -0.1221
 2868SOL     OW11516   3.238   0.618   3.969  0.2929  0.8086 -0.5581
 2868SOL    HW211517   3.247   0.523   3.978 -0.8966  0.7590  0.3184
 2868SOL    HW311518   3.296   0.653   4.036  1.1764  0.7204 -1.2686
 2868SOL    MW411519   3.247   0.610   3.979  0.2525  0.7905 -0.5360
 2869SOL     OW11520   2.321   0.081   3.368  0.0740 -0.0693 -0.5602
 2869SOL    HW211521   2.369   0.075   3.285  0.6204  0.9886 -0.3275
 2869SOL    HW311522   2.307   0.175   3.381  0.1649 -0.2156  0.6457
 2869SOL    MW411523   2.325   0.093   3.359  0.1583  0.0510 -0.3703
 2870SOL     OW11524   1.072   1.517   4.281 -0.4085 -0.1486  0.1422
 2870SOL    HW211525   1.099   1.426   4.273 -0.2808  0.0135 -1.6306
 2870SOL    HW311526   1.090   1.540   4.372  1.6786 -1.2364  0.0460
 2870SOL    MW411527   1.078   1.508   4.292 -0.1162 -0.2706 -0.1044
 2871SOL     OW11528   3.335   3.987   4.312 -0.4416 -0.1428 -0.1140
 2871SOL    HW211529   3.342   4.076   4.278 -1.9530  0.3759  0.8894
 2871SOL    HW311530   3.334   3.931   4.234  0.1594  0.7377 -0.7569
 2871SOL    MW411531   3.336   3.991   4.297 -0.5612  0.0417 -0.0663
 2872SOL     OW11532   0.808   4.412   4.629  0.4220  0.3654 -0.4403
 2872SOL    HW211533   0.881   4.473   4.636  0.1508  0.6212  0.2280
 2872SOL    HW311534   0.747   4.453   4.567 -0.1644  1.2038  0.6608
 2872SOL    MW411535   0.809   4.425   4.622  0.3089  0.5097 -0.2069
 2873SOL     OW11536   1.685   3.507   3.867 -0.0020 -0.2764  0.4735
 2873SOL    HW211537   1.653   3.456   3.792 -2.2854  1.8688 -0.0885
 2873SOL    HW311538   1.635   3.473   3.941 -1.1807  0.7544  0.1783
 2873SOL    MW411539   1.674   3.495   3.867 -0.4588  0.1426  0.3603
 2874SOL     OW11540   0.427   2.607   3.885  0.1460 -0.2563 -0.1688
 2874SOL    HW211541   0.437   2.564   3.970 -0.4909 -1.6918 -0.7957
 2874SOL    HW311542   0.503   2.665   3.877  1.4494 -1.8696  0.3540
 2874SOL    MW411543   0.438   2.609   3.895  0.2339 -0.6585 -0.1826
 2875SOL     OW11544   4.061   4.368   4.180  0.8446 -0.1495 -0.4768
 2875SOL    HW211545   3.984   4.320   4.210  1.0782  0.7713  1.6729
 2875SOL    HW311546   4.026   4.447   4.138  0.6175  0.3580  0.6573
 2875SOL    MW411547   4.046   4.372   4.178  0.8454  0.0396 -0.0434
 2876SOL     OW11548   0.817   2.709   3.962 -0.1632 -0.4410 -0.4605
 2876SOL    HW211549   0.772   2.662   4.033 -1.4631 -0.2221 -1.1277
 2876SOL    HW311550   0.749   2.764   3.923  0.6103 -0.3452 -1.6896
 2876SOL    MW411551   0.802   2.710   3.967 -0.2326 -0.3996 -0.7107
 2877SOL     OW11552   4.045   1.504   4.826 -0.2594  0.2834 -0.2363
 2877SOL    HW211553   4.086   1.427   4.787  0.3077 -0.6826  2.1679
 2877SOL    HW311554   3.961   1.512   4.780 -1.1204 -2.8399  0.6324
 2877SOL    MW411555   4.039   1.495   4.815 -0.2980 -0.2561  0.1950
 2878SOL     OW11556   4.271   3.715   4.250  0.1953  0.2344 -0.1582
 2878SOL    HW211557   4.270   3.724   4.346 -0.6803  0.0727 -0.1454
 2878SOL    HW311558   4.349   3.763   4.223  0.5098  0.1947  0.6486
 2878SOL    MW411559   4.281   3.723   4.259  0.1211  0.2079 -0.0501
 2879SOL     OW11560   0.391   2.763   4.579  0.1931 -0.9288 -0.1442
 2879SOL    HW211561   0.474   2.760   4.626 -0.1754 -1.8907  0.4538
 2879SOL    HW311562   0.326   2.732   4.642 -0.7161  0.4194 -0.4074
 2879SOL    MW411563   0.394   2.758   4.593  0.0245 -0.8779 -0.0997
 2880SOL     OW11564   1.811   0.104   4.609 -0.0255 -0.0912 -0.6996
 2880SOL    HW211565   1.807   0.189   4.652 -0.5573 -0.0815 -0.7596
 2880SOL    HW311566   1.890   0.106   4.556  0.0702  0.2894 -0.5374
 2880SOL    MW411567   1.821   0.115   4.608 -0.0830 -0.0397 -0.6857
 2881SOL     OW11568   0.980   0.907   4.683 -0.2676 -0.7132 -0.2932
 2881SOL    HW211569   0.976   0.981   4.744  0.5552 -0.3152 -0.7204
 2881SOL    HW311570   1.073   0.898   4.662 -0.5358 -0.9355 -1.3934
 2881SOL    MW411571   0.991   0.915   4.689 -0.1945 -0.6900 -0.4945
 2882SOL     OW11572   1.502   1.978   3.927 -0.1281 -0.1665 -0.0190
 2882SOL    HW211573   1.535   1.925   4.000 -0.4399  0.8185  0.8453
 2882SOL    HW311574   1.467   1.913   3.865 -1.3589 -0.9593  1.4524
 2882SOL    MW411575   1.502   1.962   3.928 -0.3315 -0.1413  0.2890
 2883SOL     OW11576   1.179   1.488   4.015 -0.1474 -0.3326  0.1817
 2883SOL    HW211577   1.150   1.491   4.106 -0.4842  1.0460  0.0378
 2883SOL    HW311578   1.272   1.466   4.021 -0.0110  0.3938  0.9049
 2883SOL    MW411579   1.188   1.485   4.028 -0.1738 -0.0548  0.2580
 2884SOL     OW11580   1.816   1.463   4.500 -0.6275  0.5600  0.4667
 2884SOL    HW211581   1.905   1.453   4.467 -1.4646 -1.4357 -1.3240
 2884SOL    HW311582   1.788   1.549   4.470 -0.4241 -0.1269 -1.7727
 2884SOL    MW411583   1.824   1.473   4.492 -0.7110  0.2060 -0.0648
 2885NA      NA11584   3.546   3.773   0.738  0.0196 -0.0119  0.5159
   4.49070   4.66690  10.00000
