Gromacs Runs On Most of All Computer Systems in water
11558
    1RG35     P    1   2.297   2.423   4.370 -0.0961  0.0317  0.0644
    1RG35   O1P    2   2.407   2.473   4.447  0.0058  0.1692 -0.0297
    1RG35   O2P    3   2.281   2.278   4.371  0.3781  0.1199 -0.5022
    1RG35   O5'    4   2.172   2.472   4.443 -0.2158 -0.1514 -0.4211
    1RG35   C5'    5   2.119   2.602   4.430  0.2953 -0.2058 -0.2035
    1RG35  H5'1    6   2.092   2.622   4.326  0.3969  0.9825 -0.0003
    1RG35  H5'2    7   2.198   2.673   4.450 -0.7174  0.5218  1.2888
    1RG35   C4'    8   2.007   2.635   4.531  0.1279  0.6277 -0.2171
    1RG35   H4'    9   2.000   2.743   4.544 -0.1152  0.7884 -1.5794
    1RG35   O4'   10   1.879   2.582   4.500 -0.9593 -0.0715 -0.2694
    1RG35   C1'   11   1.797   2.597   4.622 -0.0998  0.1626  0.3798
    1RG35   H1'   12   1.734   2.685   4.615 -0.7320 -0.2781  0.5142
    1RG35    N9   13   1.710   2.476   4.640 -0.8968 -0.5257  0.4862
    1RG35    C8   14   1.581   2.466   4.599  0.6477 -0.0316  0.1113
    1RG35    H8   15   1.528   2.549   4.555  0.1520 -1.0744 -1.2931
    1RG35    N7   16   1.526   2.350   4.624  0.1302 -0.2940 -0.0792
    1RG35    C5   17   1.632   2.275   4.676  0.2578  0.1148  0.7662
    1RG35    C6   18   1.636   2.136   4.703 -0.0242  0.1871 -0.4985
    1RG35    O6   19   1.550   2.053   4.684  0.1254  0.0135  0.0295
    1RG35    N1   20   1.761   2.093   4.757 -0.2776  0.0747  0.2310
    1RG35    H1   21   1.777   1.994   4.768  0.0834  0.1530  0.4180
    1RG35    C2   22   1.867   2.172   4.769  0.1028 -0.4782  0.2799
    1RG35    N2   23   1.975   2.118   4.816  0.0179  0.3391  0.0933
    1RG35   H21   24   1.986   2.021   4.841  0.4058  0.2609 -0.3695
    1RG35   H22   25   2.058   2.174   4.830  1.2806 -1.7421  1.3113
    1RG35    N3   26   1.869   2.303   4.734 -0.3875 -0.1936  0.2118
    1RG35    C4   27   1.747   2.351   4.686 -0.1963  0.0425  0.0638
    1RG35   C3'   28   2.033   2.576   4.670 -0.7843 -0.3945  0.6515
    1RG35   H3'   29   2.055   2.470   4.658 -1.1772 -0.2085 -1.7949
    1RG35   C2'   30   1.901   2.613   4.733 -0.0348  0.1653 -0.4426
    1RG35  H2'1   31   1.873   2.545   4.814  1.5345 -0.9923 -0.8345
    1RG35   O2'   32   1.900   2.750   4.786 -0.3359 -0.0769  0.7007
    1RG35  HO'2   33   1.974   2.750   4.847  1.1926  0.7022 -1.0787
    1RG35   O3'   34   2.139   2.645   4.735 -0.1770 -0.0606 -0.4974
    1RG35   H3T   35   2.213   2.587   4.719 -0.4436 -0.6808  0.4661
    1RG35   O3P   36   2.285   2.480   4.233 -0.4826  0.0964 -0.1426
    1SOL     OW   37   2.286   1.634   0.463  0.0743  0.4533  0.9559
    1SOL    HW2   38   2.332   1.551   0.474 -1.8834 -0.6567  1.0230
    1SOL    HW3   39   2.269   1.664   0.552 -0.3454  0.2754  0.9371
    1SOL    MW4   40   2.290   1.627   0.476 -0.2391  0.2832  0.9623
    1SOL     OW   41   4.268   3.594   0.726 -0.4991 -0.4940  0.1295
    1SOL    HW2   42   4.259   3.681   0.764  0.3300 -0.5292  0.4203
    1SOL    HW3   43   4.190   3.546   0.755 -0.4358 -0.1667  0.8352
    1SOL    MW4   44   4.257   3.599   0.735 -0.3815 -0.4556  0.2610
    1SOL     OW   45   2.704   0.447   0.243 -0.1600  0.3384 -0.1197
    1SOL    HW2   46   2.785   0.451   0.292 -0.3022  0.3153  0.1173
    1SOL    HW3   47   2.675   0.356   0.252  0.0970  0.1916 -0.7052
    1SOL    MW4   48   2.711   0.435   0.251 -0.1447  0.3160 -0.1656
    1SOL     OW   49   2.341   2.591   0.355 -0.0771 -0.4431  0.0452
    1SOL    HW2   50   2.294   2.607   0.273 -0.5150 -1.0269  0.1845
    1SOL    HW3   51   2.422   2.547   0.329  0.4752  0.6904 -0.2084
    1SOL    MW4   52   2.346   2.588   0.341 -0.0620 -0.3703  0.0301
    1SOL     OW   53   4.392   3.699   0.434 -0.0284  0.4557  0.4645
    1SOL    HW2   54   4.379   3.719   0.526 -1.8133  0.0012  0.3203
    1SOL    HW3   55   4.485   3.677   0.427  0.5972  2.5830  1.7530
    1SOL    MW4   56   4.403   3.699   0.445 -0.1817  0.6762  0.6155
    1SOL     OW   57   0.012   2.454   0.703 -0.6080 -0.1569  0.1872
    1SOL    HW2   58  -0.063   2.469   0.645  0.2383  0.9619 -0.6283
    1SOL    HW3   59   0.023   2.536   0.750  1.1272  0.2431 -0.8839
    1SOL    MW4   60   0.003   2.467   0.701 -0.2675  0.0439 -0.0618
    1SOL     OW   61   1.507   0.445   0.482 -0.1838  0.3237 -0.0114
    1SOL    HW2   62   1.571   0.503   0.441 -0.3628  0.8188  0.4030
    1SOL    HW3   63   1.556   0.365   0.500  0.4024  0.7896  0.5421
    1SOL    MW4   64   1.522   0.442   0.479 -0.1301  0.4505  0.1163
    1SOL     OW   65   4.014   0.146   0.477 -0.3173  0.0989 -0.2999
    1SOL    HW2   66   4.108   0.161   0.488 -0.3280  1.0891 -1.4488
    1SOL    HW3   67   4.008   0.063   0.429 -0.0971 -0.8463  1.2629
    1SOL    MW4   68   4.025   0.137   0.472 -0.2899  0.1048 -0.2453
    1SOL     OW   69   2.698   1.640   0.431  0.2867  0.5668 -0.1566
    1SOL    HW2   70   2.629   1.687   0.385 -0.5415  0.3244  0.8311
    1SOL    HW3   71   2.689   1.549   0.402 -0.3831  0.3712  0.6450
    1SOL    MW4   72   2.688   1.634   0.421  0.0892  0.5090  0.0795
    1SOL     OW   73   2.165   0.115   0.730  0.1478 -0.4606  0.0410
    1SOL    HW2   74   2.250   0.075   0.749  0.8197  0.2456 -1.3169
    1SOL    HW3   75   2.158   0.111   0.634 -1.6711 -1.1419  0.1837
    1SOL    MW4   76   2.175   0.110   0.720 -0.0036 -0.4573 -0.1193
    1SOL     OW   77   4.042   1.150   0.814 -0.2562 -0.1719  0.3400
    1SOL    HW2   78   4.049   1.163   0.909 -1.1793 -1.9538  0.6737
    1SOL    HW3   79   3.951   1.173   0.794 -0.2969 -0.6149  0.0256
    1SOL    MW4   80   4.031   1.155   0.824 -0.3839 -0.4653  0.3425
    1SOL     OW   81   0.440   2.443   0.712  0.5802 -0.4872  0.2683
    1SOL    HW2   82   0.441   2.419   0.620 -0.6625  0.2803  0.0449
    1SOL    HW3   83   0.377   2.383   0.752 -0.1094  0.2524  0.3059
    1SOL    MW4   84   0.432   2.432   0.705  0.3252 -0.2885  0.2438
    1SOL     OW   85   3.546   0.649   0.498  0.0972  0.1908  0.5935
    1SOL    HW2   86   3.494   0.568   0.501  1.6620 -0.8756 -0.4422
    1SOL    HW3   87   3.485   0.715   0.467 -0.7783 -0.9479 -0.1576
    1SOL    MW4   88   3.531   0.647   0.494  0.1881 -0.1001  0.3578
    1SOL     OW   89   4.019   1.925   0.806  0.0447 -0.1320  1.0419
    1SOL    HW2   90   4.020   1.834   0.777 -0.9901 -0.2997  1.5053
    1SOL    HW3   91   4.015   1.920   0.901 -0.5246  0.3942  1.0445
    1SOL    MW4   92   4.018   1.912   0.814 -0.1674 -0.0846  1.1034
    1SOL     OW   93   3.732   3.079   0.352 -0.0800 -0.2004 -0.3615
    1SOL    HW2   94   3.755   3.147   0.288 -0.0190  0.8543  0.7705
    1SOL    HW3   95   3.654   3.114   0.396  0.0697 -0.7762  0.3641
    1SOL    MW4   96   3.724   3.093   0.349 -0.0522 -0.1373 -0.1164
    1SOL     OW   97   0.711   0.704   0.524 -0.2397  0.0626 -0.4615
    1SOL    HW2   98   0.704   0.617   0.564  1.0489  0.4819  0.6799
    1SOL    HW3   99   0.800   0.707   0.488  0.0881  1.3144  0.4423
    1SOL    MW4  100   0.722   0.693   0.524 -0.0264  0.2831 -0.1917
    1SOL     OW  101   3.321   0.007   0.354  0.6133  0.0748 -0.1465
    1SOL    HW2  102   3.248   0.050   0.399  1.1212  0.0220  0.7323
    1SOL    HW3  103   3.328   0.054   0.271  0.5277  1.0500  0.3908
    1SOL    MW4  104   3.312   0.019   0.349  0.6690  0.1965  0.0403
    1SOL     OW  105   1.834   4.598   0.284  0.2856  0.3813 -0.0696
    1SOL    HW2  106   1.918   4.560   0.310 -0.3780 -0.6579  0.5685
    1SOL    HW3  107   1.846   4.692   0.297  1.0313  0.1563  0.9532
    1SOL    MW4  108   1.847   4.605   0.289  0.2965  0.2146  0.1495
    1SOL     OW  109   2.580   2.447   0.269 -0.3445  0.2156  0.2590
    1SOL    HW2  110   2.529   2.366   0.268 -0.9851  0.6186 -0.1509
    1SOL    HW3  111   2.665   2.422   0.307 -0.1829 -0.8629 -0.7819
    1SOL    MW4  112   2.585   2.433   0.274 -0.4077  0.1264  0.0676
    1SOL     OW  113   0.053   0.696   0.660  0.4732  0.1310 -0.3352
    1SOL    HW2  114   0.097   0.735   0.736 -0.9831 -0.3700  0.7829
    1SOL    HW3  115   0.052   0.766   0.595  1.1689  0.7776  0.3410
    1SOL    MW4  116   0.059   0.711   0.662  0.3728  0.1502 -0.0985
    1SOL     OW  117   2.868   2.398   0.372 -0.8708 -0.3421 -0.2804
    1SOL    HW2  118   2.876   2.384   0.466 -1.6415 -0.1055 -0.1709
    1SOL    HW3  119   2.919   2.328   0.332 -0.3217 -0.2844  0.3179
    1SOL    MW4  120   2.876   2.387   0.379 -0.9000 -0.3030 -0.1870
    1SOL     OW  121   0.516   0.230   0.386 -0.2695  0.2896  0.1683
    1SOL    HW2  122   0.609   0.230   0.409  0.1013 -0.3855 -1.2900
    1SOL    HW3  123   0.509   0.298   0.319 -0.8657  0.4436  0.3870
    1SOL    MW4  124   0.528   0.239   0.380 -0.2992  0.2208  0.0048
    1SOL     OW  125   3.795   1.213   0.712  0.9037 -0.1100  0.2390
    1SOL    HW2  126   3.827   1.178   0.629  0.3007  0.0607 -0.0667
    1SOL    HW3  127   3.705   1.182   0.719  0.6538  0.6338  0.3963
    1SOL    MW4  128   3.787   1.204   0.702  0.7913  0.0106  0.2194
    1SOL     OW  129   0.413   3.975   0.764 -0.2586  0.3294  0.1555
    1SOL    HW2  130   0.422   3.975   0.669 -1.8199 -0.4385 -0.0056
    1SOL    HW3  131   0.422   4.067   0.789 -3.0354  0.9772 -1.0773
    1SOL    MW4  132   0.415   3.987   0.755 -0.8309  0.3135 -0.0284
    1SOL     OW  133   0.146   4.564   0.859  0.0956  0.2156  0.2838
    1SOL    HW2  134   0.054   4.580   0.877  0.3449  1.4223  0.5376
    1SOL    HW3  135   0.170   4.629   0.793  0.7328 -0.1785  0.1163
    1SOL    MW4  136   0.137   4.574   0.853  0.2126  0.3228  0.2951
    1SOL     OW  137   4.451   1.656   0.430 -0.4203 -0.1290 -0.2711
    1SOL    HW2  138   4.362   1.680   0.402  0.0020  0.3854 -1.1641
    1SOL    HW3  139   4.446   1.656   0.526 -1.2234  0.5164 -0.3043
    1SOL    MW4  140   4.438   1.659   0.439 -0.4706  0.0240 -0.3933
    1SOL     OW  141   2.017   2.311   0.825 -0.0658  0.2919 -0.2799
    1SOL    HW2  142   2.029   2.326   0.918  0.0569  0.8285 -0.3824
    1SOL    HW3  143   1.939   2.361   0.802 -0.4585 -0.3386 -0.3412
    1SOL    MW4  144   2.008   2.320   0.834 -0.1016  0.2794 -0.3015
    1SOL     OW  145   4.362   4.352   0.588  0.6854 -0.5351  0.0060
    1SOL    HW2  146   4.384   4.303   0.667 -0.4221 -1.6377 -0.3625
    1SOL    HW3  147   4.414   4.432   0.595  2.6656 -1.8354  0.5148
    1SOL    MW4  148   4.372   4.356   0.600  0.8006 -0.8521  0.0245
    1SOL     OW  149   1.109   4.163   0.389  0.4522  0.1232  0.2905
    1SOL    HW2  150   1.073   4.225   0.325  0.6801  1.4049  1.3925
    1SOL    HW3  151   1.041   4.154   0.455  0.8114 -0.0480  0.6423
    1SOL    MW4  152   1.095   4.170   0.389  0.5296  0.2699  0.4823
    1SOL     OW  153   1.569   2.332   0.801  0.2239 -0.0198 -0.2832
    1SOL    HW2  154   1.484   2.367   0.773  0.5154  1.2197  0.3216
    1SOL    HW3  155   1.571   2.243   0.766 -0.6393  0.4922 -1.6752
    1SOL    MW4  156   1.558   2.325   0.793  0.1484  0.2115 -0.3871
    1SOL     OW  157   2.003   3.060   0.874  0.5005  0.1232  0.1543
    1SOL    HW2  158   2.013   2.979   0.823  0.7459  0.5746 -0.5168
    1SOL    HW3  159   1.926   3.102   0.838 -0.6585 -0.6600  1.6791
    1SOL    MW4  160   1.994   3.055   0.863  0.3799  0.0796  0.2669
    1SOL     OW  161   2.694   2.691   0.253  0.1747  0.3038 -0.3405
    1SOL    HW2  162   2.779   2.651   0.236  0.1775 -0.2793  1.0022
    1SOL    HW3  163   2.632   2.618   0.250  0.0220  0.3662  0.8829
    1SOL    MW4  164   2.697   2.676   0.250  0.1550  0.2348 -0.0020
    1SOL     OW  165   0.193   0.060   0.626  0.4568  0.3496 -0.0947
    1SOL    HW2  166   0.114   0.022   0.588  0.3383 -1.2820  1.6746
    1SOL    HW3  167   0.182   0.154   0.617 -0.5043  0.0766 -2.1429
    1SOL    MW4  168   0.181   0.067   0.620  0.3143  0.0983 -0.1315
    1SOL     OW  169   1.602   3.152   0.142  0.3783  0.0565  0.0189
    1SOL    HW2  170   1.595   3.113   0.055  0.8896  0.4974 -0.2236
    1SOL    HW3  171   1.666   3.097   0.188 -0.5777 -0.7277  0.4286
    1SOL    MW4  172   1.610   3.140   0.137  0.3196  0.0112  0.0409
    1SOL     OW  173   3.114   4.438   0.499 -0.0386  0.1059 -0.1144
    1SOL    HW2  174   3.020   4.429   0.515 -0.0051  1.1377  0.7373
    1SOL    HW3  175   3.131   4.532   0.512  1.2819 -0.2457  0.7191
    1SOL    MW4  176   3.104   4.450   0.503  0.1400  0.1955  0.1079
    1SOL     OW  177   0.476   1.180   0.451  0.3242 -0.0710  0.2758
    1SOL    HW2  178   0.442   1.094   0.479 -1.1519  0.3063 -0.3070
    1SOL    HW3  179   0.399   1.236   0.448  1.1938  1.1270  0.0464
    1SOL    MW4  180   0.461   1.176   0.455  0.2442  0.1369  0.1686
    1SOL     OW  181   3.336   0.722   0.819 -0.7855 -0.3447 -0.2725
    1SOL    HW2  182   3.336   0.627   0.809  0.1075 -0.5442  1.4657
    1SOL    HW3  183   3.428   0.747   0.810 -0.7182  0.0924  1.4526
    1SOL    MW4  184   3.348   0.713   0.816 -0.6588 -0.3134  0.1844
    1SOL     OW  185   1.790   3.198   0.763 -0.3118 -0.2373 -0.0441
    1SOL    HW2  186   1.795   3.201   0.668  1.9026 -1.2315 -0.0001
    1SOL    HW3  187   1.702   3.166   0.782 -0.7218 -0.1475 -1.7530
    1SOL    MW4  188   1.779   3.194   0.753 -0.0737 -0.3569 -0.2636
    1SOL     OW  189   1.996   2.835   0.664 -0.1392 -0.1864 -0.5023
    1SOL    HW2  190   2.035   2.897   0.602 -0.7804  0.2555 -0.4742
    1SOL    HW3  191   2.069   2.779   0.691  0.7634  1.4414  0.5435
    1SOL    MW4  192   2.011   2.836   0.659 -0.1051  0.0868 -0.3607
    1SOL     OW  193   1.993   1.990   0.403  0.6438 -0.0783  0.3681
    1SOL    HW2  194   2.062   2.014   0.341  0.7823  1.2390  1.0284
    1SOL    HW3  195   2.026   2.017   0.488 -0.7452  0.7029  0.6804
    1SOL    MW4  196   2.006   1.996   0.406  0.4787  0.1984  0.4964
    1SOL     OW  197   3.577   1.931   0.736  0.5802  0.1085 -0.1011
    1SOL    HW2  198   3.659   1.975   0.716  2.1219 -1.1628  3.0742
    1SOL    HW3  199   3.594   1.839   0.718 -0.6914  0.0405 -0.9996
    1SOL    MW4  200   3.590   1.925   0.731  0.6158 -0.0684  0.1993
    1SOL     OW  201   0.212   2.837   0.745 -0.2378 -0.0308 -0.1028
    1SOL    HW2  202   0.301   2.802   0.745 -0.1838  0.0942  0.3604
    1SOL    HW3  203   0.221   2.924   0.785 -0.1400  1.1320 -2.6027
    1SOL    MW4  204   0.225   2.844   0.750 -0.2178  0.1395 -0.3715
    1SOL     OW  205   1.917   0.188   0.359 -0.2748  0.3722  0.2804
    1SOL    HW2  206   1.943   0.273   0.322 -0.2368  0.2723  0.0778
    1SOL    HW3  207   1.998   0.152   0.395 -0.3884  0.6416  0.8012
    1SOL    MW4  208   1.931   0.195   0.359 -0.2848  0.3946  0.3224
    1SOL     OW  209   4.090   2.792   0.495 -0.4826 -0.6798  0.2745
    1SOL    HW2  210   4.147   2.816   0.568 -1.6050  0.0427  0.9311
    1SOL    HW3  211   4.150   2.763   0.427  0.7094  0.5690  0.7593
    1SOL    MW4  212   4.106   2.792   0.496 -0.4730 -0.4194  0.4250
    1SOL     OW  213   2.473   2.015   0.721  0.0053 -0.3743 -0.2406
    1SOL    HW2  214   2.499   2.023   0.629 -1.8498  0.0607 -0.7534
    1SOL    HW3  215   2.466   2.105   0.752 -0.2686 -0.4949  0.0504
    1SOL    MW4  216   2.475   2.028   0.713 -0.2759 -0.3326 -0.2699
    1SOL     OW  217   2.854   3.117   0.910 -0.3205  0.2534  0.8067
    1SOL    HW2  218   2.786   3.163   0.860  0.5437 -0.4146 -1.0388
    1SOL    HW3  219   2.856   3.029   0.872 -0.9046 -0.8512  3.2867
    1SOL    MW4  220   2.846   3.111   0.898 -0.2835  0.0193  0.8904
    1SOL     OW  221   0.915   4.330   0.852  0.0319  0.5160  0.2009
    1SOL    HW2  222   0.932   4.295   0.764  1.2261 -0.3482  0.7716
    1SOL    HW3  223   0.974   4.406   0.858  0.5077  0.1197  0.5421
    1SOL    MW4  224   0.925   4.336   0.841  0.2522  0.3500  0.3212
    1SOL     OW  225   2.948   1.296   0.473  0.2816  0.4468 -0.5135
    1SOL    HW2  226   3.039   1.325   0.472 -0.0800  1.6173 -0.4821
    1SOL    HW3  227   2.932   1.268   0.563  0.3358  1.1382 -0.2896
    1SOL    MW4  228   2.958   1.296   0.485  0.2410  0.6925 -0.4798
    1SOL     OW  229   0.968   2.812   0.160 -0.1066 -0.0908  0.6104
    1SOL    HW2  230   1.057   2.846   0.162 -0.5928  1.3161 -1.0047
    1SOL    HW3  231   0.959   2.771   0.075 -1.4193  0.9758  0.2138
    1SOL    MW4  232   0.978   2.811   0.149 -0.3440  0.2358  0.3450
    1SOL     OW  233   2.154   0.090   0.462  0.4546  0.2784  0.1809
    1SOL    HW2  234   2.142   0.002   0.425  0.4581  0.9542 -1.4429
    1SOL    HW3  235   2.244   0.113   0.440  0.5968  0.5270  0.9911
    1SOL    MW4  236   2.164   0.081   0.454  0.4737  0.4004  0.0736
    1SOL     OW  237   0.413   3.979   0.491  0.1069  0.2997 -0.0344
    1SOL    HW2  238   0.359   4.043   0.445 -0.0083 -0.6563 -1.2589
    1SOL    HW3  239   0.501   3.992   0.456  0.0220 -0.4286 -0.5122
    1SOL    MW4  240   0.418   3.989   0.481  0.0805  0.0775 -0.2590
    1SOL     OW  241   0.446   2.377   0.439 -0.1704  0.2141 -0.1698
    1SOL    HW2  242   0.370   2.434   0.433 -0.5777 -0.4620 -1.5229
    1SOL    HW3  243   0.411   2.288   0.431  0.4053 -0.2850  2.2578
    1SOL    MW4  244   0.432   2.372   0.437 -0.1482  0.0591 -0.0280
    1SOL     OW  245   1.318   0.849   0.559 -0.1343 -0.2321  0.0279
    1SOL    HW2  246   1.282   0.761   0.548 -0.9301 -0.0901  1.4399
    1SOL    HW3  247   1.326   0.861   0.654 -0.9750  1.5938 -0.0997
    1SOL    MW4  248   1.314   0.839   0.570 -0.3500  0.0276  0.1973
    1SOL     OW  249   0.149   3.843   0.797 -0.4704 -0.2080  0.6006
    1SOL    HW2  250   0.154   3.821   0.890  0.3914 -2.0920  0.1351
    1SOL    HW3  251   0.237   3.873   0.775 -0.5256 -0.3000  0.2572
    1SOL    MW4  252   0.161   3.844   0.806 -0.3640 -0.4687  0.4938
    1SOL     OW  253   2.211   0.984   0.471  0.3039 -0.1659 -0.2597
    1SOL    HW2  254   2.121   0.978   0.438 -0.3254  0.6741  1.2457
    1SOL    HW3  255   2.257   0.913   0.427 -0.8745 -0.0365 -1.7539
    1SOL    MW4  256   2.205   0.974   0.461  0.0653 -0.0380 -0.2582
    1SOL     OW  257   0.447   0.933   0.786  0.3301  0.1147  0.5992
    1SOL    HW2  258   0.532   0.889   0.794 -0.2723 -1.5154 -1.5442
    1SOL    HW3  259   0.384   0.873   0.826 -0.2176 -0.0982 -0.5548
    1SOL    MW4  260   0.450   0.920   0.792  0.1784 -0.1284  0.1641
    1SOL     OW  261   2.930   4.141   0.420  0.1181 -0.0125  0.1387
    1SOL    HW2  262   2.852   4.086   0.416  0.3012 -0.3937  1.4203
    1SOL    HW3  263   2.895   4.231   0.422 -0.3086 -0.1861  0.8618
    1SOL    MW4  264   2.915   4.146   0.420  0.0858 -0.0858  0.4032
    1SOL     OW  265   1.405   1.598   0.289 -0.6371 -0.4106  0.1161
    1SOL    HW2  266   1.456   1.595   0.208 -0.8243 -1.4541  0.0293
    1SOL    HW3  267   1.321   1.636   0.262 -0.5321 -0.3172 -0.0821
    1SOL    MW4  268   1.400   1.603   0.275 -0.6479 -0.5360  0.0785
    1SOL     OW  269   1.334   3.238   0.730  0.0778  0.4591 -0.4734
    1SOL    HW2  270   1.337   3.250   0.636  0.5796 -0.2342 -0.5533
    1SOL    HW3  271   1.251   3.191   0.746 -0.0938  0.7363 -0.5445
    1SOL    MW4  272   1.323   3.233   0.720  0.1214  0.4041 -0.4933
    1SOL     OW  273   0.256   0.539   0.565  0.2745  0.1984 -0.2684
    1SOL    HW2  274   0.183   0.595   0.591  0.2989  0.7461 -1.3520
    1SOL    HW3  275   0.292   0.507   0.648  0.1618  1.6652  0.3685
    1SOL    MW4  276   0.251   0.542   0.579  0.2628  0.4642 -0.3273
    1SOL     OW  277   2.439   0.157   0.502  0.4607  0.1815  0.1668
    1SOL    HW2  278   2.492   0.145   0.580 -0.6068  0.3076  0.9158
    1SOL    HW3  279   2.417   0.250   0.502 -0.3182 -0.0034  0.2185
    1SOL    MW4  280   2.443   0.168   0.512  0.2172  0.1738  0.2725
    1SOL     OW  281   1.070   3.126   0.849 -0.1901 -0.2906  0.4808
    1SOL    HW2  282   1.006   3.158   0.786  0.0514  0.3938  0.5860
    1SOL    HW3  283   1.069   3.031   0.837 -0.9874 -0.2573  0.2610
    1SOL    MW4  284   1.062   3.117   0.839 -0.2635 -0.1957  0.4658
    1SOL     OW  285   0.382   1.525   0.193 -0.1498  0.0045 -0.0159
    1SOL    HW2  286   0.334   1.451   0.230  0.2415 -0.1976  0.1015
    1SOL    HW3  287   0.375   1.513   0.098 -0.4087  0.0262  0.0028
    1SOL    MW4  288   0.375   1.513   0.186 -0.1323 -0.0193  0.0021
    1SOL     OW  289   2.162   1.623   0.188 -0.1253 -0.1788  0.3243
    1SOL    HW2  290   2.069   1.647   0.181  0.0414  0.6983  0.8913
    1SOL    HW3  291   2.179   1.623   0.283 -0.5332 -4.3418  0.4840
    1SOL    MW4  292   2.152   1.626   0.200 -0.1574 -0.6123  0.4202
    1SOL     OW  293   0.677   3.064   0.791 -0.0663  0.1946  0.3903
    1SOL    HW2  294   0.604   3.105   0.747  0.3514 -0.2739 -0.7548
    1SOL    HW3  295   0.674   3.099   0.880  0.5866  3.0934 -0.6741
    1SOL    MW4  296   0.667   3.074   0.797  0.0750  0.5155  0.0988
    1SOL     OW  297   0.824   3.829   0.422 -0.2917  0.1066  0.3662
    1SOL    HW2  298   0.830   3.854   0.514  1.2357 -0.2544  0.3699
    1SOL    HW3  299   0.910   3.793   0.401 -1.0337 -1.0078 -0.8492
    1SOL    MW4  300   0.836   3.827   0.432 -0.1881 -0.0882  0.2063
    1SOL     OW  301   0.876   3.180   0.408 -0.0844  0.2427  0.0830
    1SOL    HW2  302   0.799   3.235   0.391 -0.0377  0.4167  0.4349
    1SOL    HW3  303   0.950   3.231   0.377 -0.2220 -0.4620 -1.4602
    1SOL    MW4  304   0.876   3.194   0.402 -0.0963  0.1726 -0.0742
    1SOL     OW  305   1.722   0.868   0.808 -0.6154  0.1658 -0.1367
    1SOL    HW2  306   1.747   0.959   0.826 -0.9450  0.1852  0.2564
    1SOL    HW3  307   1.804   0.820   0.805 -0.3433  0.7321 -1.8362
    1SOL    MW4  308   1.736   0.874   0.810 -0.6230  0.2431 -0.3089
    1SOL     OW  309   4.400   3.968   0.690 -0.0868  0.2236  0.2301
    1SOL    HW2  310   4.334   3.924   0.743 -0.8230 -0.8631 -1.5621
    1SOL    HW3  311   4.483   3.934   0.723 -0.4164  1.1238  2.0724
    1SOL    MW4  312   4.402   3.958   0.702 -0.2275  0.1991  0.2367
    1SOL     OW  313   3.350   4.647   0.834 -0.0060 -0.3358  0.0934
    1SOL    HW2  314   3.349   4.635   0.928 -0.1747  0.7950  0.2398
    1SOL    HW3  315   3.435   4.686   0.815 -0.7891  1.3955  0.0399
    1SOL    MW4  316   3.361   4.651   0.844 -0.1314  0.0415  0.1056
    1SOL     OW  317   4.485   2.389   0.300  0.0241 -0.3182  0.0898
    1SOL    HW2  318   4.408   2.373   0.356 -0.2263 -0.6362 -0.3432
    1SOL    HW3  319   4.532   2.306   0.299 -0.0990 -0.3826 -0.3677
    1SOL    MW4  320   4.481   2.376   0.307 -0.0252 -0.3688 -0.0277
    1SOL     OW  321   0.659   2.041   0.505 -0.1402  0.5182 -0.0302
    1SOL    HW2  322   0.572   2.050   0.468 -1.3126 -1.3448  2.1490
    1SOL    HW3  323   0.685   1.951   0.484  1.2157  1.0234 -0.5659
    1SOL    MW4  324   0.651   2.030   0.498 -0.1159  0.3390  0.1867
    1SOL     OW  325   2.469   4.380   0.732 -0.5098  0.6485 -0.3798
    1SOL    HW2  326   2.398   4.325   0.764 -0.0626  0.5496  0.4553
    1SOL    HW3  327   2.482   4.352   0.642  0.1858 -1.1248  0.2436
    1SOL    MW4  328   2.461   4.369   0.725 -0.3593  0.4015 -0.1873
    1SOL     OW  329   3.291   3.070   0.362  0.3397  0.1327  0.2252
    1SOL    HW2  330   3.276   3.064   0.268 -0.7735  0.1276  0.3930
    1SOL    HW3  331   3.308   2.980   0.390  1.2548  0.2146 -0.0624
    1SOL    MW4  332   3.291   3.058   0.353  0.3135  0.1426  0.2095
    1SOL     OW  333   2.727   3.950   0.432 -0.0784  0.0071  0.0692
    1SOL    HW2  334   2.723   3.966   0.526  1.0843 -1.4800  0.3951
    1SOL    HW3  335   2.705   3.857   0.423  1.0323 -0.1555 -1.0156
    1SOL    MW4  336   2.723   3.940   0.443  0.2213 -0.2105 -0.0309
    1SOL     OW  337   4.262   1.289   0.762 -0.4152 -0.3680 -0.7269
    1SOL    HW2  338   4.304   1.232   0.697 -1.1239 -1.8622  0.1218
    1SOL    HW3  339   4.174   1.253   0.773 -0.4522  0.1310  0.7414
    1SOL    MW4  340   4.256   1.277   0.755 -0.5136 -0.4992 -0.4212
    1SOL     OW  341   1.922   1.290   0.461  0.8610 -0.0200 -0.2525
    1SOL    HW2  342   1.854   1.332   0.408  1.4087  1.7060  0.3592
    1SOL    HW3  343   1.921   1.198   0.434  0.0498  0.5087 -2.0871
    1SOL    MW4  344   1.913   1.283   0.451  0.8261  0.2775 -0.4138
    1SOL     OW  345   2.119   2.587   0.166 -0.5041  0.2000  0.0868
    1SOL    HW2  346   2.109   2.497   0.199  0.2648 -0.1563 -0.6507
    1SOL    HW3  347   2.130   2.577   0.072 -1.7817  1.1698 -0.1835
    1SOL    MW4  348   2.119   2.574   0.158 -0.5710  0.2809 -0.0462
    1SOL     OW  349   0.230   3.085   0.233 -0.6566 -0.1199 -0.1278
    1SOL    HW2  350   0.298   3.086   0.166  0.2868 -0.0670  0.8226
    1SOL    HW3  351   0.199   3.175   0.238  0.7547  0.3128  0.9962
    1SOL    MW4  352   0.235   3.097   0.225 -0.3459 -0.0560  0.1459
    1SOL     OW  353   0.357   3.246   0.461  0.8805 -0.2797  0.0587
    1SOL    HW2  354   0.346   3.153   0.438 -0.0746 -0.5550  1.5187
    1SOL    HW3  355   0.279   3.288   0.423  1.3745 -0.0398 -0.7070
    1SOL    MW4  356   0.345   3.239   0.453  0.8197 -0.2847  0.1503
    1SOL     OW  357   2.440   2.843   0.766  0.2919  1.0541  0.0078
    1SOL    HW2  358   2.446   2.931   0.802  0.8627  0.2138  2.0097
    1SOL    HW3  359   2.524   2.803   0.785  0.3067  0.2969 -1.5480
    1SOL    MW4  360   2.452   2.849   0.773  0.3693  0.8433  0.0667
    1SOL     OW  361   3.972   4.307   0.386 -0.3163 -0.3756  0.5256
    1SOL    HW2  362   3.890   4.326   0.431 -0.9318 -0.8390 -0.4114
    1SOL    HW3  363   4.006   4.393   0.360 -0.6702 -0.2122  0.6066
    1SOL    MW4  364   3.966   4.321   0.389 -0.4444 -0.4153  0.4127
    1SOL     OW  365   3.317   3.092   0.862  0.1153  0.2529 -0.6087
    1SOL    HW2  366   3.233   3.132   0.840  0.1159 -0.0892 -1.2633
    1SOL    HW3  367   3.317   3.087   0.957 -0.5116  0.4663 -0.5939
    1SOL    MW4  368   3.305   3.096   0.871  0.0324  0.2358 -0.6932
    1SOL     OW  369   2.586   1.110   0.313 -0.0900  0.0277  0.6054
    1SOL    HW2  370   2.609   1.018   0.321  0.8327  0.1260 -0.7127
    1SOL    HW3  371   2.492   1.110   0.297  0.2471 -0.8170 -1.5011
    1SOL    MW4  372   2.576   1.098   0.312  0.0765 -0.0708  0.1535
    1SOL     OW  373   4.244   2.068   0.768  0.6279 -0.1902  0.1084
    1SOL    HW2  374   4.319   2.014   0.792  0.8767 -1.0660 -2.4556
    1SOL    HW3  375   4.168   2.015   0.790  0.7065  0.6791  2.6719
    1SOL    MW4  376   4.244   2.054   0.774  0.6709 -0.1912  0.1084
    1SOL     OW  377   0.109   4.557   0.271 -0.0667 -0.5689 -0.5109
    1SOL    HW2  378   0.164   4.515   0.337 -0.7487  0.3269  0.6518
    1SOL    HW3  379   0.170   4.598   0.211  0.5485 -0.4053  0.2180
    1SOL    MW4  380   0.124   4.557   0.272 -0.0755 -0.4292 -0.2613
    1SOL     OW  381   4.271   3.070   0.833 -0.1840  0.1261 -0.1402
    1SOL    HW2  382   4.197   3.121   0.800 -0.6040 -0.2501  0.2203
    1SOL    HW3  383   4.348   3.125   0.816 -0.4025 -0.0049 -1.6207
    1SOL    MW4  384   4.272   3.084   0.827 -0.2680  0.0591 -0.2880
    1SOL     OW  385   0.202   2.016   0.699  0.1436 -0.3350 -0.0964
    1SOL    HW2  386   0.276   1.997   0.757 -0.3049 -1.0823  0.2359
    1SOL    HW3  387   0.184   2.109   0.712  0.5769 -0.3142  0.3460
    1SOL    MW4  388   0.209   2.026   0.708  0.1416 -0.4311  0.0058
    1SOL     OW  389   4.427   4.210   0.808  0.3841 -0.1992  0.3362
    1SOL    HW2  390   4.418   4.206   0.903 -0.6271  1.0150  0.2940
    1SOL    HW3  391   4.417   4.119   0.779  0.3628 -0.5223  1.3523
    1SOL    MW4  392   4.425   4.197   0.816  0.2480 -0.0815  0.4647
    1SOL     OW  393   1.779   2.996   0.313  0.2786 -0.3265 -0.2854
    1SOL    HW2  394   1.838   2.922   0.301  0.5393 -0.3168  0.8290
    1SOL    HW3  395   1.703   2.958   0.358 -0.2550 -0.2039 -1.0793
    1SOL    MW4  396   1.776   2.981   0.318  0.2425 -0.3090 -0.2431
    1SOL     OW  397   2.921   2.047   0.696 -0.1852 -0.0299  0.2593
    1SOL    HW2  398   2.997   1.992   0.715  0.7528  1.3334  0.5342
    1SOL    HW3  399   2.849   2.007   0.746  0.3981 -1.1984  0.1720
    1SOL    MW4  400   2.921   2.035   0.705  0.0155 -0.0043  0.2841
    1SOL     OW  401   1.754   0.106   0.755 -0.0909  0.1476  0.2376
    1SOL    HW2  402   1.691   0.050   0.800  0.3168  0.6333  1.4306
    1SOL    HW3  403   1.833   0.052   0.750 -0.0993  0.1371  0.2199
    1SOL    MW4  404   1.756   0.091   0.760 -0.0380  0.2104  0.3927
    1SOL     OW  405   2.366   4.518   0.428 -0.2546 -0.3752 -0.4625
    1SOL    HW2  406   2.442   4.462   0.444 -1.4074 -1.9750 -0.4643
    1SOL    HW3  407   2.386   4.599   0.475  1.6881 -0.5555 -0.9099
    1SOL    MW4  408   2.379   4.521   0.436 -0.1504 -0.6099 -0.5217
    1SOL     OW  409   1.569   2.074   0.720  0.0250 -0.1213  0.3093
    1SOL    HW2  410   1.539   2.080   0.629  1.6221 -1.4245 -0.3307
    1SOL    HW3  411   1.503   2.020   0.763  0.2135 -1.0373 -0.5309
    1SOL    MW4  412   1.556   2.068   0.714  0.2607 -0.4141  0.1140
    1SOL     OW  413   1.576   0.835   0.157 -0.0178 -0.3039  0.3469
    1SOL    HW2  414   1.563   0.808   0.066  0.7331 -0.7835  0.3839
    1SOL    HW3  415   1.589   0.753   0.204 -2.9312 -0.2859  1.3155
    1SOL    MW4  416   1.576   0.820   0.151 -0.3030 -0.3647  0.4795
    1SOL     OW  417   2.002   3.958   0.411  0.0861  0.0754  0.0083
    1SOL    HW2  418   1.911   3.970   0.384 -0.1768 -0.8877  0.4672
    1SOL    HW3  419   2.015   3.863   0.412  1.2358  0.2176 -0.5146
    1SOL    MW4  420   1.992   3.947   0.407  0.2031 -0.0327 -0.0001
    1SOL     OW  421   1.716   4.015   0.425  0.2980 -0.4080  0.2963
    1SOL    HW2  422   1.733   4.106   0.399  0.8257 -0.3908  0.7087
    1SOL    HW3  423   1.712   4.017   0.520 -0.2244 -0.7270  0.2823
    1SOL    MW4  424   1.718   4.027   0.434  0.2986 -0.4478  0.3489
    1SOL     OW  425   1.077   1.534   0.828  0.0550  0.0799  0.4256
    1SOL    HW2  426   1.075   1.444   0.798  0.1962  0.0210  0.5932
    1SOL    HW3  427   1.154   1.572   0.787  0.5225 -0.1338  1.0907
    1SOL    MW4  428   1.087   1.527   0.819  0.1353  0.0439  0.5355
    1SOL     OW  429   1.305   0.046   0.722  0.5934 -0.5347 -0.0264
    1SOL    HW2  430   1.384   0.034   0.776  1.4970  1.1497 -0.9407
    1SOL    HW3  431   1.280   0.137   0.737 -0.6795 -0.8076 -0.4416
    1SOL    MW4  432   1.312   0.056   0.731  0.5448 -0.3485 -0.2018
    1SOL     OW  433   3.418   1.935   0.316  0.1026 -0.3149 -0.2026
    1SOL    HW2  434   3.425   1.886   0.399  0.6362  1.5043  0.8508
    1SOL    HW3  435   3.473   1.886   0.255 -0.2603 -1.6639  0.5135
    1SOL    MW4  436   3.426   1.922   0.319  0.1252 -0.2527  0.0309
    1SOL     OW  437   1.831   1.234   0.128 -0.2071 -0.2701  0.7165
    1SOL    HW2  438   1.918   1.272   0.139 -0.1965  0.2914 -1.0326
    1SOL    HW3  439   1.774   1.285   0.184  0.5001 -0.2817  1.4458
    1SOL    MW4  440   1.835   1.246   0.137 -0.1125 -0.1976  0.5819
    1SOL     OW  441   0.816   3.942   0.669  0.2720  0.3063 -0.5423
    1SOL    HW2  442   0.745   3.929   0.732 -0.2034 -0.4921 -1.2478
    1SOL    HW3  443   0.896   3.926   0.720 -0.1417 -1.1580 -0.3455
    1SOL    MW4  444   0.817   3.938   0.684  0.1547  0.0076 -0.6093
    1SOL     OW  445   4.005   2.726   0.793  0.0975  0.1762  0.0616
    1SOL    HW2  446   3.994   2.631   0.785  0.1491 -0.1696  3.3948
    1SOL    HW3  447   4.088   2.744   0.748  0.3729 -1.4276 -0.1169
    1SOL    MW4  448   4.015   2.716   0.786  0.1407 -0.0808  0.4779
    1SOL     OW  449   3.849   3.576   0.422  0.0184 -0.3176  0.0735
    1SOL    HW2  450   3.826   3.668   0.412 -0.6201 -0.7136 -2.3033
    1SOL    HW3  451   3.939   3.577   0.455  0.7558  1.1582 -1.8830
    1SOL    MW4  452   3.858   3.588   0.425  0.0312 -0.1750 -0.4982
    1SOL     OW  453   0.788   0.283   0.487  0.0293 -0.2680 -0.4542
    1SOL    HW2  454   0.847   0.341   0.439  1.0647 -0.3120  0.7438
    1SOL    HW3  455   0.748   0.340   0.552 -1.0962 -0.2920 -1.1135
    1SOL    MW4  456   0.791   0.298   0.489  0.0175 -0.2770 -0.3831
    1SOL     OW  457   2.646   0.879   0.717 -0.1212  0.0483 -0.2002
    1SOL    HW2  458   2.647   0.964   0.759 -0.3056 -0.1965  0.2993
    1SOL    HW3  459   2.726   0.836   0.748  0.0131  0.0717 -0.5133
    1SOL    MW4  460   2.657   0.884   0.726 -0.1278  0.0191 -0.1756
    1SOL     OW  461   1.785   1.940   0.817 -0.0700  0.7338 -0.1171
    1SOL    HW2  462   1.709   1.976   0.772 -1.9452 -0.8222  1.7052
    1SOL    HW3  463   1.790   1.849   0.790  0.8002  0.6731  0.2136
    1SOL    MW4  464   1.776   1.933   0.808 -0.2027  0.5205  0.1671
    1SOL     OW  465   1.689   0.651   0.327 -0.0502  0.4446  0.2773
    1SOL    HW2  466   1.751   0.597   0.278 -0.9740 -0.3277 -0.0603
    1SOL    HW3  467   1.744   0.702   0.386  0.9419  0.0853 -0.3098
    1SOL    MW4  468   1.704   0.650   0.328 -0.0412  0.2952  0.1552
    1SOL     OW  469   0.864   3.480   0.856 -0.5246 -0.2257  0.5572
    1SOL    HW2  470   0.861   3.403   0.799 -0.2200  0.4197 -0.3632
    1SOL    HW3  471   0.814   3.546   0.808  0.8603  0.7316  0.3925
    1SOL    MW4  472   0.857   3.478   0.842 -0.3018 -0.0141  0.4140
    1SOL     OW  473   1.981   1.314   0.759  0.7358  0.3482  0.0819
    1SOL    HW2  474   1.968   1.303   0.665  0.7742  0.1975  0.0944
    1SOL    HW3  475   2.061   1.266   0.778  0.2440 -0.3746  0.3469
    1SOL    MW4  476   1.990   1.306   0.749  0.6758  0.2329  0.1184
    1SOL     OW  477   4.208   3.309   0.515  0.0366 -0.5013  0.4845
    1SOL    HW2  478   4.132   3.258   0.487 -1.2348  1.1813  0.8188
    1SOL    HW3  479   4.181   3.400   0.505  1.6566  0.1167  1.5842
    1SOL    MW4  480   4.195   3.314   0.510  0.0830 -0.1976  0.6737
    1SOL     OW  481   0.403   1.679   0.828 -0.5024 -0.0005 -0.0303
    1SOL    HW2  482   0.492   1.646   0.839  0.0723  1.9306  1.4406
    1SOL    HW3  483   0.410   1.773   0.844 -2.5629  0.4290 -1.3603
    1SOL    MW4  484   0.415   1.687   0.831 -0.6984  0.3110 -0.0117
    1SOL     OW  485   1.097   4.553   0.395 -0.4524 -0.0555 -0.6819
    1SOL    HW2  486   1.023   4.594   0.440 -1.2309 -1.4207 -0.6885
    1SOL    HW3  487   1.167   4.618   0.399 -1.3014  0.8095  0.3260
    1SOL    MW4  488   1.096   4.567   0.402 -0.6670 -0.1221 -0.5498
    1SOL     OW  489   1.330   2.434   0.734  0.1934 -0.7143  0.2050
    1SOL    HW2  490   1.336   2.459   0.642  1.1464 -0.3141  0.3823
    1SOL    HW3  491   1.312   2.515   0.781  0.4713 -0.8031  0.4647
    1SOL    MW4  492   1.328   2.448   0.728  0.3558 -0.6731  0.2627
    1SOL     OW  493   1.610   2.826   0.451 -0.1273 -0.0678  0.0678
    1SOL    HW2  494   1.548   2.760   0.419 -1.0586  1.1173 -0.6191
    1SOL    HW3  495   1.575   2.852   0.536  0.2559 -0.4744  0.3517
    1SOL    MW4  496   1.597   2.820   0.458 -0.1997  0.0350  0.0146
    1SOL     OW  497   3.100   0.079   0.526 -0.1386  0.2416 -0.4536
    1SOL    HW2  498   3.012   0.057   0.495 -0.4031  2.3175 -1.2306
    1SOL    HW3  499   3.087   0.100   0.618 -0.2763 -0.4496 -0.3083
    1SOL    MW4  500   3.086   0.079   0.534 -0.1917  0.4243 -0.5370
    1SOL     OW  501   2.902   4.395   0.715  0.3888 -0.1059  0.0376
    1SOL    HW2  502   2.886   4.479   0.758  0.4406 -0.1316  0.1083
    1SOL    HW3  503   2.836   4.337   0.753 -0.6773  0.2894 -1.1724
    1SOL    MW4  504   2.891   4.398   0.726  0.2551 -0.0577 -0.1127
    1SOL     OW  505   0.237   1.697   0.384  0.2762  0.2353  0.2920
    1SOL    HW2  506   0.275   1.651   0.309 -2.5607  0.9202 -1.6143
    1SOL    HW3  507   0.151   1.657   0.396  0.4461  0.5501  2.8360
    1SOL    MW4  508   0.231   1.686   0.376 -0.0757  0.3673  0.3761
    1SOL     OW  509   1.543   1.279   0.742 -0.2635 -0.1547  0.5446
    1SOL    HW2  510   1.541   1.259   0.649 -0.0459  0.2257  0.4558
    1SOL    HW3  511   1.473   1.227   0.780 -1.1464  0.6094 -0.0207
    1SOL    MW4  512   1.534   1.270   0.735 -0.3513 -0.0037  0.4584
    1SOL     OW  513   1.330   3.507   0.831  0.3875 -0.2703  0.6303
    1SOL    HW2  514   1.396   3.552   0.778  0.8484 -0.2235  1.2431
    1SOL    HW3  515   1.327   3.418   0.795 -0.4800  0.2177 -0.5397
    1SOL    MW4  516   1.338   3.501   0.819  0.3338 -0.1998  0.5569
    1SOL     OW  517   3.785   2.304   0.841 -0.0608  0.1231 -0.1047
    1SOL    HW2  518   3.702   2.343   0.813 -0.7332 -1.8116 -0.9124
    1SOL    HW3  519   3.789   2.221   0.793  0.9256 -1.1920  2.2077
    1SOL    MW4  520   3.774   2.298   0.831 -0.0193 -0.3057  0.0939
    1SOL     OW  521   1.981   4.605   0.824  0.2729 -0.0982 -0.2468
    1SOL    HW2  522   2.048   4.667   0.795 -0.9462  0.5786 -1.6265
    1SOL    HW3  523   2.013   4.520   0.793  0.9594  0.0973 -0.0829
    1SOL    MW4  524   1.994   4.602   0.816  0.2027  0.0172 -0.4072
    1SOL     OW  525   2.636   0.181   0.313 -0.0667  0.2055 -0.6820
    1SOL    HW2  526   2.591   0.128   0.247 -1.5935  0.4114  0.1738
    1SOL    HW3  527   2.571   0.196   0.381  0.8551  1.7752 -0.1070
    1SOL    MW4  528   2.622   0.176   0.313 -0.1464  0.4398 -0.4932
    1SOL     OW  529   1.083   0.242   0.288  0.2387 -0.0314 -0.1156
    1SOL    HW2  530   1.123   0.238   0.201  0.1688  0.2379 -0.1605
    1SOL    HW3  531   1.137   0.184   0.342  1.5424  1.4062  0.1673
    1SOL    MW4  532   1.096   0.234   0.284  0.4015  0.1938 -0.0842
    1SOL     OW  533   0.672   2.095   0.761 -0.1258  0.0800  0.4934
    1SOL    HW2  534   0.659   2.070   0.669 -0.4644 -0.5520  0.7035
    1SOL    HW3  535   0.664   2.190   0.762 -1.4306 -0.0083  0.0586
    1SOL    MW4  536   0.669   2.104   0.749 -0.3427 -0.0150  0.4638
    1SOL     OW  537   2.408   2.232   0.317 -0.2658 -0.0539 -0.0165
    1SOL    HW2  538   2.459   2.171   0.370 -0.2858  0.2216  0.3198
    1SOL    HW3  539   2.361   2.286   0.381 -1.6715 -0.8771 -0.3149
    1SOL    MW4  540   2.408   2.231   0.332 -0.4539 -0.1261 -0.0114
    1SOL     OW  541   2.489   1.795   0.357  0.1817  0.3503 -0.4935
    1SOL    HW2  542   2.433   1.735   0.406 -0.4407  1.5809  0.3425
    1SOL    HW3  543   2.443   1.810   0.275  0.7488 -0.9517 -1.0629
    1SOL    MW4  544   2.476   1.789   0.353  0.1745  0.3408 -0.4583
    1SOL     OW  545   3.696   4.298   0.483  0.1356 -0.2680  0.4576
    1SOL    HW2  546   3.624   4.354   0.454  1.0231  0.4207 -0.4484
    1SOL    HW3  547   3.662   4.209   0.475 -0.5294  0.0411 -0.2119
    1SOL    MW4  548   3.682   4.294   0.478  0.1650 -0.1364  0.2497
    1SOL     OW  549   2.080   2.311   0.267 -0.0422  0.4895 -0.5175
    1SOL    HW2  550   2.125   2.339   0.348 -0.4265  0.8607 -0.4333
    1SOL    HW3  551   2.117   2.224   0.249  1.8258  1.4002 -1.2703
    1SOL    MW4  552   2.091   2.303   0.276  0.1535  0.6588 -0.6057
    1SOL     OW  553   2.925   0.495   0.424  0.2160  0.0551 -0.0050
    1SOL    HW2  554   2.896   0.477   0.514 -1.3889  0.0744 -0.5004
    1SOL    HW3  555   2.931   0.591   0.420 -1.2498  0.1551 -0.3504
    1SOL    MW4  556   2.922   0.506   0.435 -0.1891  0.0708 -0.1159
    1SOL     OW  557   4.170   4.452   0.747 -0.1053 -0.4797  0.1996
    1SOL    HW2  558   4.240   4.486   0.803 -0.0362 -0.3503  0.0365
    1SOL    HW3  559   4.215   4.401   0.680 -0.1559 -0.2757  0.0100
    1SOL    MW4  560   4.185   4.450   0.745 -0.1030 -0.4358  0.1530
    1SOL     OW  561   1.513   0.701   0.900 -0.4161 -0.3673 -0.5382
    1SOL    HW2  562   1.590   0.749   0.871 -0.8837 -0.4108 -1.8731
    1SOL    HW3  563   1.440   0.762   0.887 -0.3577  0.5425  2.9075
    1SOL    MW4  564   1.514   0.715   0.894 -0.4700 -0.2530 -0.2597
    1SOL     OW  565   0.641   3.843   0.873  0.1351 -0.0835 -0.7432
    1SOL    HW2  566   0.558   3.879   0.844  0.5093  1.3509 -0.0882
    1SOL    HW3  567   0.652   3.763   0.821 -1.3171  0.0604 -1.3057
    1SOL    MW4  568   0.632   3.837   0.862 -0.0072  0.1249 -0.7310
    1SOL     OW  569   1.082   3.697   0.482 -0.0132 -0.3907 -0.1143
    1SOL    HW2  570   1.069   3.655   0.567 -1.9238  0.8503  0.2226
    1SOL    HW3  571   1.142   3.769   0.500 -0.2141 -0.2847  0.1327
    1SOL    MW4  572   1.088   3.701   0.496 -0.2918 -0.2127 -0.0373
    1SOL     OW  573   0.876   1.692   0.714  0.3700  0.0969 -0.3652
    1SOL    HW2  574   0.897   1.782   0.739 -0.8902  0.3387 -0.1318
    1SOL    HW3  575   0.955   1.642   0.736  0.8066  1.0174  0.1974
    1SOL    MW4  576   0.889   1.697   0.720  0.2614  0.2503 -0.2602
    1SOL     OW  577   4.483   1.310   0.393  0.2638 -0.2431 -0.4348
    1SOL    HW2  578   4.472   1.394   0.438 -2.3094 -0.1882 -1.1131
    1SOL    HW3  579   4.485   1.245   0.463  0.4973  0.2138 -0.0161
    1SOL    MW4  580   4.482   1.312   0.408 -0.0448 -0.1757 -0.4690
    1SOL     OW  581   0.599   0.062   0.835 -0.2582  0.2173  0.3029
    1SOL    HW2  582   0.558   0.090   0.917  0.0716 -0.4192  0.6878
    1SOL    HW3  583   0.592  -0.033   0.837 -0.2202  0.2021 -0.3965
    1SOL    MW4  584   0.592   0.053   0.846 -0.2097  0.1312  0.2614
    1SOL     OW  585   0.202   3.602   0.679 -0.8358 -0.0023  0.1397
    1SOL    HW2  586   0.184   3.685   0.722 -0.2529 -0.5036  1.3639
    1SOL    HW3  587   0.286   3.573   0.716 -0.6130 -0.7261 -0.8938
    1SOL    MW4  588   0.211   3.609   0.689 -0.7295 -0.1643  0.1648
    1SOL     OW  589   4.465   3.222   0.478 -0.2923 -0.0448  0.0881
    1SOL    HW2  590   4.377   3.258   0.492 -0.3079 -0.8608  2.3835
    1SOL    HW3  591   4.450   3.133   0.446 -0.2898  0.2660 -0.7812
    1SOL    MW4  592   4.451   3.215   0.476 -0.2942 -0.1116  0.2763
    1SOL     OW  593   2.685   0.870   0.432 -0.3292  0.8475  0.1459
    1SOL    HW2  594   2.663   0.888   0.523 -0.0488 -1.8164  0.7851
    1SOL    HW3  595   2.780   0.864   0.430 -0.3024  1.4179 -0.4277
    1SOL    MW4  596   2.694   0.872   0.443 -0.2887  0.5713  0.1546
    1SOL     OW  597   3.118   3.584   0.448  0.0317 -0.4736  0.4675
    1SOL    HW2  598   3.092   3.615   0.534 -0.7123 -0.0583  0.0937
    1SOL    HW3  599   3.050   3.521   0.423  0.7076 -1.2512  0.5555
    1SOL    MW4  600   3.106   3.580   0.456  0.0226 -0.5217  0.4298
    1SOL     OW  601   2.722   1.901   0.825  0.2973  0.6950 -0.1858
    1SOL    HW2  602   2.644   1.939   0.784 -0.3276 -0.5942 -0.1911
    1SOL    HW3  603   2.705   1.907   0.919 -0.3253 -0.6510 -0.2055
    1SOL    MW4  604   2.709   1.907   0.832  0.1330  0.3473 -0.1891
    1SOL     OW  605   1.318   4.243   0.840 -0.2669  0.4590 -0.2504
    1SOL    HW2  606   1.266   4.275   0.766 -0.1550 -1.5829 -1.2671
    1SOL    HW3  607   1.384   4.311   0.855 -0.4764  1.0342 -1.8635
    1SOL    MW4  608   1.320   4.256   0.832 -0.2798  0.2656 -0.5974
    1SOL     OW  609   2.190   3.483   0.461  0.1261  0.7132  0.0030
    1SOL    HW2  610   2.121   3.549   0.452 -1.0274 -0.4917 -0.0167
    1SOL    HW3  611   2.144   3.399   0.457  1.4967 -0.0860  0.8466
    1SOL    MW4  612   2.175   3.481   0.459  0.1550  0.4489  0.1117
    1SOL     OW  613   2.861   4.646   0.813  0.4437 -0.1484  0.3438
    1SOL    HW2  614   2.935   4.705   0.805 -1.1404  1.8365 -0.0024
    1SOL    HW3  615   2.785   4.700   0.793 -1.1401 -2.0358  1.1141
    1SOL    MW4  616   2.861   4.661   0.809  0.0260 -0.1349  0.3997
    1SOL     OW  617   2.692   3.678   0.379 -0.4066  0.0281  0.3778
    1SOL    HW2  618   2.602   3.651   0.395  0.2959 -1.4772  1.9446
    1SOL    HW3  619   2.741   3.595   0.370  0.6636  0.8166 -1.4498
    1SOL    MW4  620   2.687   3.663   0.380 -0.1726 -0.0665  0.3434
    1SOL     OW  621   2.472   3.890   0.823 -0.1232 -0.1821 -0.4565
    1SOL    HW2  622   2.386   3.916   0.790  0.4526  0.3913 -1.5176
    1SOL    HW3  623   2.481   3.798   0.796 -0.2090 -0.1089 -0.7319
    1SOL    MW4  624   2.462   3.881   0.815 -0.0587 -0.0970 -0.6329
    1SOL     OW  625   2.636   2.937   0.402 -0.4214  0.3044 -0.4231
    1SOL    HW2  626   2.549   2.901   0.418  0.1298 -0.9483 -0.1511
    1SOL    HW3  627   2.673   2.881   0.334  0.5498  0.2015  0.1780
    1SOL    MW4  628   2.629   2.925   0.395 -0.2203  0.1254 -0.3079
    1SOL     OW  629   0.745   1.314   0.440 -0.1579  0.1022  0.4282
    1SOL    HW2  630   0.668   1.258   0.435  0.2142 -0.4455  0.7822
    1SOL    HW3  631   0.714   1.400   0.410 -1.1626  0.1436  1.5413
    1SOL    MW4  632   0.731   1.318   0.436 -0.2415  0.0355  0.6218
    1SOL     OW  633   4.118   1.748   0.457  0.0885  0.3520 -0.1445
    1SOL    HW2  634   4.149   1.834   0.485 -0.7539  0.8970 -0.8463
    1SOL    HW3  635   4.084   1.707   0.536  0.3230  0.7374  0.1552
    1SOL    MW4  636   4.117   1.754   0.471  0.0086  0.4747 -0.1975
    1SOL     OW  637   4.336   2.723   0.347 -0.0404  0.1552  0.5523
    1SOL    HW2  638   4.395   2.670   0.293 -0.6890  0.8434 -0.8793
    1SOL    HW3  639   4.372   2.812   0.341 -0.8598  0.4650  0.1929
    1SOL    MW4  640   4.349   2.728   0.339 -0.2341  0.2868  0.3160
    1SOL     OW  641   3.496   1.719   0.459  0.5412 -0.0311 -0.0913
    1SOL    HW2  642   3.552   1.724   0.382  1.2534 -0.3904  0.3870
    1SOL    HW3  643   3.418   1.672   0.429  1.0999 -0.7547 -0.4366
    1SOL    MW4  644   3.493   1.713   0.445  0.7091 -0.1740 -0.0738
    1SOL     OW  645   2.634   0.099   0.693 -0.7733  0.0694  0.3911
    1SOL    HW2  646   2.637   0.188   0.727 -0.2072 -0.4563  1.7259
    1SOL    HW3  647   2.573   0.053   0.751 -0.5729 -0.5709  0.1011
    1SOL    MW4  648   2.626   0.104   0.705 -0.6723 -0.0845  0.5289
    1SOL     OW  649   3.231   1.611   0.432  0.3085  0.2400  0.3277
    1SOL    HW2  650   3.144   1.642   0.407  0.0520  0.7358  1.7837
    1SOL    HW3  651   3.225   1.515   0.428  0.5030  0.2951 -2.1746
    1SOL    MW4  652   3.219   1.602   0.428  0.3004  0.3127  0.1896
    1SOL     OW  653   1.343   1.908   0.789 -0.2418  0.1034  0.0284
    1SOL    HW2  654   1.325   1.823   0.747 -1.9264  0.5142 -0.1028
    1SOL    HW3  655   1.318   1.894   0.881  0.0684  0.2690  0.1354
    1SOL    MW4  656   1.337   1.895   0.796 -0.4232  0.1795  0.0252
    1SOL     OW  657   0.418   1.957   0.860  0.4629 -0.5357 -0.3514
    1SOL    HW2  658   0.493   2.000   0.819 -0.5755  1.0526 -0.6322
    1SOL    HW3  659   0.432   1.969   0.954  0.2255  0.3478 -0.4258
    1SOL    MW4  660   0.429   1.964   0.867  0.2946 -0.2096 -0.3982
    1SOL     OW  661   4.311   3.971   0.429 -0.5694  0.5831  0.3807
    1SOL    HW2  662   4.331   3.881   0.405 -0.3165  0.5547  0.6977
    1SOL    HW3  663   4.345   3.981   0.518 -0.5132  1.0160  0.3157
    1SOL    MW4  664   4.318   3.961   0.438 -0.5288  0.6363  0.4140
    1SOL     OW  665   0.871   3.226   0.689 -0.1294 -0.2333 -0.2864
    1SOL    HW2  666   0.866   3.223   0.594  1.3682 -2.7516 -0.3316
    1SOL    HW3  667   0.801   3.168   0.719 -0.4335  0.3545  0.1668
    1SOL    MW4  668   0.861   3.218   0.680  0.0280 -0.4878 -0.2326
    1SOL     OW  669   1.628   3.380   0.370  0.1890  0.4377 -0.1231
    1SOL    HW2  670   1.629   3.350   0.279 -0.6527  1.7692 -0.5887
    1SOL    HW3  671   1.700   3.333   0.412  1.3929  0.7519 -1.7895
    1SOL    MW4  672   1.638   3.370   0.364  0.2369  0.6549 -0.4045
    1SOL     OW  673   2.936   3.864   0.770 -0.0003 -0.0531 -0.4701
    1SOL    HW2  674   2.860   3.917   0.746  0.6007  0.9743 -0.1282
    1SOL    HW3  675   2.932   3.858   0.866 -1.2132 -2.3704 -0.6265
    1SOL    MW4  676   2.926   3.870   0.780 -0.0808 -0.2232 -0.4456
    1SOL     OW  677   1.043   0.971   0.506  0.3109  0.0301  0.0401
    1SOL    HW2  678   0.989   0.939   0.578  0.1216 -0.8433 -0.4806
    1SOL    HW3  679   1.133   0.951   0.533  0.2855  0.3476  0.3521
    1SOL    MW4  680   1.048   0.964   0.519  0.2825 -0.0432  0.0125
    1SOL     OW  681   1.571   3.658   0.730  0.4210  0.2594  0.1204
    1SOL    HW2  682   1.633   3.597   0.770  0.4356 -0.0821 -0.4171
    1SOL    HW3  683   1.584   3.647   0.636 -1.9992 -1.4118 -0.0679
    1SOL    MW4  684   1.581   3.648   0.723  0.1036 -0.0062  0.0247
    1SOL     OW  685   2.568   4.332   0.466 -0.0175  0.4436 -0.1438
    1SOL    HW2  686   2.662   4.346   0.455  0.0822  0.0532  0.2098
    1SOL    HW3  687   2.547   4.262   0.403  0.1785 -0.3908  0.7083
    1SOL    MW4  688   2.578   4.324   0.456  0.0217  0.2818  0.0153
    1SOL     OW  689   0.413   4.648   0.465 -0.0722 -0.0613  0.1528
    1SOL    HW2  690   0.435   4.729   0.418  2.5447  0.3212  1.8938
    1SOL    HW3  691   0.344   4.674   0.526 -1.0414  0.2383 -1.0439
    1SOL    MW4  692   0.407   4.662   0.467  0.1452  0.0286  0.2246
    1SOL     OW  693   4.326   4.471   0.243  0.0735 -0.4344 -0.0189
    1SOL    HW2  694   4.413   4.508   0.226  0.0018 -0.3451 -0.2037
    1SOL    HW3  695   4.341   4.378   0.260  0.2258 -0.3762  0.1557
    1SOL    MW4  696   4.339   4.464   0.243  0.0844 -0.4144 -0.0203
    1SOL     OW  697   2.469   2.277   0.846  0.3553  0.3249 -0.2127
    1SOL    HW2  698   2.545   2.334   0.834 -0.4955  1.7846  1.1070
    1SOL    HW3  699   2.397   2.326   0.806 -0.2228 -0.2406  0.1412
    1SOL    MW4  700   2.470   2.291   0.839  0.1667  0.4427  0.0081
    1SOL     OW  701   4.122   3.602   0.472  0.0363  0.2782 -0.0303
    1SOL    HW2  702   4.170   3.618   0.554  0.8425  1.0995 -0.6562
    1SOL    HW3  703   4.187   3.615   0.403 -0.9913  0.9921 -0.8781
    1SOL    MW4  704   4.137   3.605   0.474  0.0072  0.4807 -0.2248
    1SOL     OW  705   3.149   1.919   0.800  0.2734 -0.0431  0.0602
    1SOL    HW2  706   3.149   1.949   0.890 -0.4507  0.0984  0.0139
    1SOL    HW3  707   3.221   1.967   0.758  0.7489 -0.2699  0.6073
    1SOL    MW4  708   3.159   1.929   0.806  0.2403 -0.0542  0.1262
    1SOL     OW  709   2.875   3.462   0.451  0.5900 -0.0395 -0.4475
    1SOL    HW2  710   2.891   3.495   0.540  0.5706 -0.5096 -0.2701
    1SOL    HW3  711   2.856   3.369   0.463 -1.1794  0.2523 -0.7444
    1SOL    MW4  712   2.874   3.454   0.465  0.3541 -0.0629 -0.4633
    1SOL     OW  713   1.497   4.422   0.518 -0.1959  0.3942  0.4958
    1SOL    HW2  714   1.502   4.484   0.445 -0.1611 -0.6617 -0.4232
    1SOL    HW3  715   1.403   4.405   0.528 -0.1653  0.1662  0.3840
    1SOL    MW4  716   1.485   4.428   0.509 -0.1873  0.2246  0.3597
    1SOL     OW  717   3.110   2.739   0.833  0.3436 -0.2970 -0.0590
    1SOL    HW2  718   3.080   2.668   0.776  1.6073 -0.8727 -0.0365
    1SOL    HW3  719   3.193   2.766   0.796  0.2111  0.6948  0.3586
    1SOL    MW4  720   3.117   2.733   0.821  0.4926 -0.2422 -0.0010
    1SOL     OW  721   2.664   0.349   0.833  0.0713 -0.2211  0.4628
    1SOL    HW2  722   2.675   0.359   0.927  0.2377 -0.3716  0.4585
    1SOL    HW3  723   2.733   0.403   0.794 -0.4078  0.3733  0.4182
    1SOL    MW4  724   2.674   0.358   0.840  0.0300 -0.1625  0.4563
    1SOL     OW  725   3.084   2.515   0.677 -0.6613  0.3344 -0.4408
    1SOL    HW2  726   3.137   2.456   0.730  0.8223  0.2377 -1.9648
    1SOL    HW3  727   3.001   2.470   0.665  0.0778 -0.9767 -0.7121
    1SOL    MW4  728   3.080   2.502   0.682 -0.3681  0.1485 -0.6776
    1SOL     OW  729   1.514   2.407   0.167 -0.0841  0.0351 -0.2646
    1SOL    HW2  730   1.504   2.406   0.071 -0.1522 -1.5141 -0.2602
    1SOL    HW3  731   1.606   2.386   0.182  0.2042  1.4375 -0.0030
    1SOL    MW4  732   1.525   2.404   0.156 -0.0551  0.0157 -0.2295
    1SOL     OW  733   0.635   3.624   0.417  0.6721  0.1238  0.3552
    1SOL    HW2  734   0.555   3.666   0.386  1.0519  0.2817 -0.4154
    1SOL    HW3  735   0.704   3.688   0.399  1.2710 -0.8555 -0.9239
    1SOL    MW4  736   0.634   3.638   0.411  0.8013  0.0155  0.0848
    1SOL     OW  737   1.785   2.727   0.809 -0.2255 -0.0973 -0.3192
    1SOL    HW2  738   1.704   2.776   0.792  0.8666  2.3362  1.1909
    1SOL    HW3  739   1.849   2.764   0.749  0.8403  0.9959  1.4407
    1SOL    MW4  740   1.782   2.738   0.799  0.0591  0.3679  0.1122
    1SOL     OW  741   2.454   3.626   0.734 -0.4455 -0.4777  0.5635
    1SOL    HW2  742   2.458   3.633   0.639  0.9569  0.4450  0.6783
    1SOL    HW3  743   2.534   3.579   0.758 -1.2649 -1.5664  1.2185
    1SOL    MW4  744   2.465   3.621   0.725 -0.3684 -0.4997  0.6651
    1SOL     OW  745   2.659   3.238   0.749  0.1059  0.2807 -0.0363
    1SOL    HW2  746   2.699   3.225   0.663 -0.8748  0.7679 -0.5727
    1SOL    HW3  747   2.652   3.333   0.759 -1.3451  0.2070 -0.1707
    1SOL    MW4  748   2.663   3.249   0.739 -0.2153  0.3350 -0.1248
    1SOL     OW  749   2.690   4.227   0.828  0.1831 -0.1884  0.2197
    1SOL    HW2  750   2.704   4.222   0.923  0.4375  0.3010  0.2112
    1SOL    HW3  751   2.606   4.273   0.819  0.9965  1.3282  0.1829
    1SOL    MW4  752   2.681   4.233   0.839  0.3242  0.0763  0.2137
    1SOL     OW  753   0.393   3.753   0.335 -0.5588 -0.8620 -0.0581
    1SOL    HW2  754   0.405   3.796   0.250 -0.5741 -0.7797 -0.0183
    1SOL    HW3  755   0.393   3.824   0.398 -0.8844 -0.8913 -0.0202
    1SOL    MW4  756   0.394   3.768   0.332 -0.6038 -0.8550 -0.0478
    1SOL     OW  757   1.511   4.422   0.809 -0.3442  0.1622  0.1038
    1SOL    HW2  758   1.522   4.422   0.714  1.0101  1.5291  0.2487
    1SOL    HW3  759   1.590   4.378   0.841  0.1024  1.3763  0.6824
    1SOL    MW4  760   1.523   4.416   0.801 -0.1066  0.5026  0.1993
    1SOL     OW  761   1.006   1.853   0.345  0.5214  0.0016 -0.0093
    1SOL    HW2  762   0.914   1.842   0.371  0.2177  1.0947 -0.6056
    1SOL    HW3  763   1.024   1.946   0.358  1.6578 -0.2674  0.4280
    1SOL    MW4  764   0.996   1.864   0.350  0.6312  0.1105 -0.0303
    1SOL     OW  765   2.124   2.971   0.462  0.2289  0.1693  0.4857
    1SOL    HW2  766   2.210   2.929   0.465  0.1106 -0.2636 -1.3356
    1SOL    HW3  767   2.073   2.916   0.402 -0.9295  1.1246  0.5830
    1SOL    MW4  768   2.129   2.958   0.455  0.0608  0.2384  0.2583
    1SOL     OW  769   0.821   2.912   0.382 -0.2757 -0.2889 -0.1191
    1SOL    HW2  770   0.856   2.872   0.302  0.7416 -0.8579  0.5939
    1SOL    HW3  771   0.836   3.006   0.370  0.8645 -0.4618 -0.1421
    1SOL    MW4  772   0.828   2.919   0.370  0.0089 -0.3867 -0.0280
    1SOL     OW  773   1.977   2.780   0.324  0.2812 -0.0380  0.3525
    1SOL    HW2  774   2.003   2.724   0.251  2.9008  1.5980 -0.0335
    1SOL    HW3  775   1.942   2.719   0.390  0.6706 -1.8322 -1.0631
    1SOL    MW4  776   1.975   2.765   0.323  0.6782 -0.0589  0.1148
    1SOL     OW  777   3.606   3.414   0.378  0.4218  0.0806  0.0109
    1SOL    HW2  778   3.694   3.452   0.385 -0.0213  0.9606  0.8053
    1SOL    HW3  779   3.547   3.485   0.402 -0.5805 -0.2069 -1.5198
    1SOL    MW4  780   3.610   3.428   0.382  0.2308  0.1588 -0.0862
    1SOL     OW  781   1.294   0.063   0.441 -0.0555 -0.3192  0.3039
    1SOL    HW2  782   1.307   0.073   0.536 -0.8257  0.4262  0.3392
    1SOL    HW3  783   1.380   0.037   0.407  0.1023 -1.1102  1.2773
    1SOL    MW4  784   1.307   0.061   0.449 -0.1365 -0.3253  0.4370
    1SOL     OW  785   0.627   3.338   0.402 -0.6459 -0.0340 -0.3056
    1SOL    HW2  786   0.609   3.428   0.375  1.5601  0.4395 -0.2536
    1SOL    HW3  787   0.540   3.298   0.410 -1.6907  2.2976  0.4512
    1SOL    MW4  788   0.613   3.344   0.399 -0.4927  0.3362 -0.1989
    1SOL     OW  789   4.242   0.171   0.824  0.1211  0.6400 -0.2748
    1SOL    HW2  790   4.166   0.114   0.810  1.0659 -0.9214  0.6844
    1SOL    HW3  791   4.205   0.259   0.834 -1.4376  0.1034 -1.1291
    1SOL    MW4  792   4.227   0.175   0.824  0.0396  0.3632 -0.2609
    1SOL     OW  793   0.450   0.686   0.392 -0.1253  0.2085 -0.1111
    1SOL    HW2  794   0.536   0.703   0.431  0.5333  1.1056 -1.8816
    1SOL    HW3  795   0.404   0.633   0.456  1.7230 -0.1908  0.9023
    1SOL    MW4  796   0.455   0.682   0.405  0.2054  0.2742 -0.2109
    1SOL     OW  797   2.132   0.555   0.477 -0.4605  0.0091 -0.0321
    1SOL    HW2  798   2.212   0.502   0.481 -0.0671  0.6215  0.2776
    1SOL    HW3  799   2.082   0.530   0.554 -0.0605  0.4209  0.3656
    1SOL    MW4  800   2.136   0.545   0.488 -0.3557  0.1442  0.0612
    1SOL     OW  801   0.983   0.702   0.463  0.6458  0.2733  0.2751
    1SOL    HW2  802   1.068   0.658   0.455  0.1179 -0.5578 -0.9543
    1SOL    HW3  803   1.001   0.793   0.437  1.5479  0.5784  1.9230
    1SOL    MW4  804   0.997   0.708   0.459  0.6951  0.2038  0.3304
    1SOL     OW  805   2.185   0.347   0.861  0.6655  0.2216  0.1569
    1SOL    HW2  806   2.173   0.266   0.812  0.2896 -0.0934  0.7785
    1SOL    HW3  807   2.112   0.403   0.833  0.0533 -0.2140  0.8865
    1SOL    MW4  808   2.174   0.344   0.851  0.5350  0.1225  0.3352
    1SOL     OW  809   3.370   4.387   0.688  0.4360 -0.2345 -0.2441
    1SOL    HW2  810   3.381   4.464   0.743  1.1437 -0.2966 -0.2996
    1SOL    HW3  811   3.291   4.344   0.723  1.3945 -0.7697  1.3182
    1SOL    MW4  812   3.361   4.391   0.700  0.6559 -0.3133 -0.0452
    1SOL     OW  813   3.511   4.241   0.863 -0.3846 -0.2886  0.1696
    1SOL    HW2  814   3.454   4.284   0.799  1.1573 -0.0350 -1.0490
    1SOL    HW3  815   3.533   4.157   0.823  0.1110 -0.3871  0.6398
    1SOL    MW4  816   3.506   4.235   0.850 -0.1159 -0.2680  0.0709
    1SOL     OW  817   0.774   4.295   0.402 -0.0573 -0.4129  0.1096
    1SOL    HW2  818   0.812   4.313   0.316 -0.0728  0.1428  0.2150
    1SOL    HW3  819   0.723   4.374   0.422  2.0940  0.6021  1.8083
    1SOL    MW4  820   0.772   4.308   0.393  0.2246 -0.2055  0.3477
    1SOL     OW  821   2.246   2.377   0.490  0.1564  0.0083  0.1240
    1SOL    HW2  822   2.274   2.462   0.457 -0.6060 -0.7433 -2.5619
    1SOL    HW3  823   2.242   2.389   0.585  1.3147  2.5695 -0.0967
    1SOL    MW4  824   2.249   2.390   0.499  0.2086  0.2472 -0.2595
    1SOL     OW  825   3.370   0.440   0.773 -0.2149  0.2932 -0.0751
    1SOL    HW2  826   3.376   0.427   0.678 -0.6612 -2.8728  0.2943
    1SOL    HW3  827   3.455   0.412   0.806  0.5678  3.0289  0.3368
    1SOL    MW4  828   3.382   0.435   0.765 -0.1707  0.2364  0.0281
    1SOL     OW  829   0.715   2.517   0.463  0.1156 -0.2919 -0.1698
    1SOL    HW2  830   0.658   2.589   0.438 -0.4760 -0.2322  1.3151
    1SOL    HW3  831   0.661   2.438   0.451  0.3580 -0.3962 -0.6013
    1SOL    MW4  832   0.701   2.516   0.458  0.0694 -0.2978 -0.0308
    1SOL     OW  833   0.209   4.169   0.375  0.1052 -0.0450 -0.4705
    1SOL    HW2  834   0.119   4.171   0.342 -1.0201 -0.7506  2.4581
    1SOL    HW3  835   0.230   4.262   0.389 -0.6425  0.0514  0.0719
    1SOL    MW4  836   0.200   4.182   0.372 -0.1419 -0.1249 -0.0125
    1SOL     OW  837   0.518   0.465   0.217 -0.3239 -0.3910  0.2657
    1SOL    HW2  838   0.488   0.542   0.266 -0.1110 -0.3076  0.2638
    1SOL    HW3  839   0.559   0.501   0.139  1.1907 -0.4447  1.0203
    1SOL    MW4  840   0.519   0.480   0.213 -0.0960 -0.3870  0.3650
    1SOL     OW  841   1.969   3.672   0.754  0.2174  0.3652 -0.5265
    1SOL    HW2  842   2.042   3.617   0.782 -0.5859  0.4425  1.7425
    1SOL    HW3  843   1.891   3.618   0.765 -0.1820  0.5179 -2.3085
    1SOL    MW4  844   1.969   3.658   0.759  0.0588  0.3955 -0.4623
    1SOL     OW  845   4.132   0.425   0.868  0.0406  0.3233 -0.1561
    1SOL    HW2  846   4.044   0.433   0.832  0.0296  0.2527 -0.1433
    1SOL    HW3  847   4.182   0.494   0.824  0.6268 -1.2904 -2.1272
    1SOL    MW4  848   4.127   0.435   0.858  0.1163  0.1011 -0.4144
    1SOL     OW  849   2.846   2.010   0.408 -0.1124 -0.2351  0.3373
    1SOL    HW2  850   2.878   1.993   0.497 -1.5988  1.1631  1.1537
    1SOL    HW3  851   2.913   2.068   0.370 -0.0694  0.1281  0.9545
    1SOL    MW4  852   2.859   2.016   0.415 -0.3028 -0.0026  0.5265
    1SOL     OW  853   1.339   3.124   0.234 -0.1200 -0.1404  0.5059
    1SOL    HW2  854   1.426   3.121   0.192  0.2847  0.1321  1.3080
    1SOL    HW3  855   1.356   3.161   0.321 -1.0627  0.0160  0.6269
    1SOL    MW4  856   1.353   3.129   0.240 -0.1910 -0.0837  0.6277
    1SOL     OW  857   1.003   2.563   0.496  0.6208 -0.1697 -0.2487
    1SOL    HW2  858   0.924   2.567   0.442  0.3125  0.8024  0.2587
    1SOL    HW3  859   1.031   2.654   0.504  1.5035 -0.4577  0.0077
    1SOL    MW4  860   0.996   2.575   0.490  0.6967 -0.0794 -0.1480
    1SOL     OW  861   1.750   4.322   0.402  0.0562 -0.0758  0.1748
    1SOL    HW2  862   1.769   4.406   0.360  1.8566  0.3505  1.7346
    1SOL    HW3  863   1.662   4.332   0.439  0.9133  1.7909  1.8348
    1SOL    MW4  864   1.741   4.334   0.402  0.4070  0.2265  0.5996
    1SOL     OW  865   3.250   1.335   0.452  0.2302  0.7368 -0.3849
    1SOL    HW2  866   3.270   1.268   0.386  1.9759  0.6861  0.1624
    1SOL    HW3  867   3.276   1.295   0.535  4.0742  3.1003 -0.3225
    1SOL    MW4  868   3.256   1.321   0.454  0.9677  1.0419 -0.3045
    1SOL     OW  869   0.700   2.387   0.797 -0.0052 -0.2123 -0.2918
    1SOL    HW2  870   0.701   2.374   0.892  0.9643  0.6561 -0.1715
    1SOL    HW3  871   0.611   2.416   0.778 -0.4705 -1.2791  0.2225
    1SOL    MW4  872   0.689   2.389   0.807  0.0613 -0.2384 -0.2081
    1SOL     OW  873   0.161   3.613   0.409  0.2515 -0.0159  0.0930
    1SOL    HW2  874   0.236   3.663   0.376 -0.0967  0.1859 -0.4060
    1SOL    HW3  875   0.176   3.605   0.503  0.5924  0.5489  0.0847
    1SOL    MW4  876   0.173   3.619   0.417  0.2505  0.0851  0.0261
    1SOL     OW  877   3.341   2.842   0.717  0.4722  0.2708  0.2102
    1SOL    HW2  878   3.327   2.924   0.764  0.4106  0.8651 -0.8280
    1SOL    HW3  879   3.410   2.798   0.767 -1.5228 -0.3923  2.4480
    1SOL    MW4  880   3.349   2.847   0.729  0.2007  0.2618  0.3685
    1SOL     OW  881   0.444   2.706   0.814 -0.0739  0.2727 -0.2394
    1SOL    HW2  882   0.525   2.741   0.777 -0.0787  0.6408  0.0944
    1SOL    HW3  883   0.437   2.618   0.778 -0.3510  0.8073 -1.5318
    1SOL    MW4  884   0.454   2.699   0.804 -0.1111  0.3920 -0.3659
    1SOL     OW  885   3.155   0.322   0.397  0.2167  0.3462 -0.0877
    1SOL    HW2  886   3.135   0.253   0.460  0.6993  0.8775  0.6566
    1SOL    HW3  887   3.080   0.380   0.399  0.1509  0.2637 -0.1433
    1SOL    MW4  888   3.143   0.320   0.406  0.2716  0.4054  0.0032
    1SOL     OW  889   2.222   3.951   0.721 -0.0072  0.2503 -0.2193
    1SOL    HW2  890   2.225   3.924   0.630  0.0986 -2.7632  0.6002
    1SOL    HW3  891   2.132   3.932   0.749 -0.5714  2.8555 -0.1397
    1SOL    MW4  892   2.210   3.945   0.713 -0.0679  0.1967 -0.1007
    1SOL     OW  893   1.309   3.985   0.756 -0.1941  0.0153  0.0356
    1SOL    HW2  894   1.217   3.956   0.758 -0.2111 -0.1599 -2.5245
    1SOL    HW3  895   1.306   4.075   0.788 -1.1614 -0.2004  0.5902
    1SOL    MW4  896   1.296   3.993   0.761 -0.3240 -0.0362 -0.2290
    1SOL     OW  897   3.338   0.858   0.472 -0.5747  0.3121  0.1382
    1SOL    HW2  898   3.331   0.826   0.562  2.5899 -2.7987 -0.6362
    1SOL    HW3  899   3.253   0.836   0.433 -0.9354 -0.9104  1.5566
    1SOL    MW4  900   3.326   0.851   0.479 -0.2048 -0.2596  0.2232
    1SOL     OW  901   4.468   1.926   0.824  0.6182  0.4409  0.1425
    1SOL    HW2  902   4.551   1.966   0.800  0.6717  0.0559 -0.3175
    1SOL    HW3  903   4.455   1.856   0.760 -0.6845  1.3296 -0.5943
    1SOL    MW4  904   4.477   1.922   0.813  0.4535  0.5072 -0.0154
    1SOL     OW  905   0.001   1.000   0.851  0.4107  0.2273  0.3877
    1SOL    HW2  906  -0.003   1.050   0.933 -0.0760  0.4919  0.2033
    1SOL    HW3  907  -0.078   0.946   0.852  1.3553 -1.1928  0.9967
    1SOL    MW4  908  -0.010   1.000   0.862  0.4716  0.0747  0.4438
    1SOL     OW  909   3.034   3.059   0.511 -0.1678 -0.0436  0.0907
    1SOL    HW2  910   3.112   3.066   0.456 -1.6057  0.5029 -1.9069
    1SOL    HW3  911   3.004   2.968   0.499  0.6838 -0.5460  1.6141
    1SOL    MW4  912   3.040   3.048   0.502 -0.2451 -0.0379  0.0281
    1SOL     OW  913   1.805   2.371   0.239  0.1577  0.0121  0.5408
    1SOL    HW2  914   1.895   2.341   0.240 -0.0414 -0.5841  1.4975
    1SOL    HW3  915   1.799   2.434   0.311 -0.2971 -0.2960  0.7794
    1SOL    MW4  916   1.816   2.376   0.249  0.0714 -0.1073  0.6985
    1SOL     OW  917   3.119   1.098   0.845  0.3667  0.2731 -0.2454
    1SOL    HW2  918   3.195   1.146   0.812  0.5308  0.1019 -0.1238
    1SOL    HW3  919   3.123   1.110   0.940 -1.2779  2.5013 -0.4142
    1SOL    MW4  920   3.130   1.106   0.853  0.1714  0.5445 -0.2517
    1SOL     OW  921   2.783   3.191   0.500  0.1858 -0.0812 -0.2335
    1SOL    HW2  922   2.715   3.130   0.471  0.5478 -0.5292 -0.1483
    1SOL    HW3  923   2.863   3.139   0.499  0.5189  0.4411 -0.3060
    1SOL    MW4  924   2.784   3.176   0.496  0.2775 -0.0715 -0.2318
    1SOL     OW  925   1.322   0.873   0.838  0.6890 -0.2651  0.0712
    1SOL    HW2  926   1.317   0.968   0.824  0.1879 -0.1970  0.7111
    1SOL    HW3  927   1.231   0.845   0.848  0.8143 -0.8702 -0.4694
    1SOL    MW4  928   1.310   0.882   0.837  0.6394 -0.3359  0.0843
    1SOL     OW  929   3.852   0.598   0.434  0.9971 -0.4141  0.0095
    1SOL    HW2  930   3.764   0.636   0.432  1.0757 -0.2524 -0.5782
    1SOL    HW3  931   3.842   0.516   0.483  0.6575 -0.0524  0.5387
    1SOL    MW4  932   3.839   0.592   0.440  0.9627 -0.3451  0.0018
    1SOL     OW  933   4.023   2.441   0.761 -0.0972  0.3011  0.1450
    1SOL    HW2  934   4.093   2.396   0.809 -0.8069 -0.8491  0.1146
    1SOL    HW3  935   3.945   2.388   0.777 -0.6997  0.8728 -0.8664
    1SOL    MW4  936   4.022   2.428   0.769 -0.2704  0.2248  0.0076
    1SOL     OW  937   1.771   1.609   0.460 -0.3567  0.1978 -0.3068
    1SOL    HW2  938   1.838   1.654   0.408  0.4463 -0.6063  0.0025
    1SOL    HW3  939   1.795   1.627   0.551 -0.8526  0.3132 -0.1984
    1SOL    MW4  940   1.783   1.617   0.465 -0.3163  0.1069 -0.2517
    1SOL     OW  941   1.522   0.970   0.404 -0.2336  0.0488 -0.1968
    1SOL    HW2  942   1.457   0.929   0.462  0.4346  0.4741  0.8851
    1SOL    HW3  943   1.513   0.925   0.321 -1.9996  0.1941 -0.0923
    1SOL    MW4  944   1.512   0.959   0.401 -0.3784  0.1241 -0.0403
    1SOL     OW  945   1.742   0.874   0.537  0.1537  0.3825 -0.0385
    1SOL    HW2  946   1.725   0.868   0.631 -0.8328 -0.7657 -0.2685
    1SOL    HW3  947   1.665   0.919   0.502 -0.3287 -0.7739 -0.5098
    1SOL    MW4  948   1.729   0.879   0.545 -0.0401  0.0784 -0.1310
    1SOL     OW  949   4.020   0.884   0.791  0.2812  0.0843 -0.0937
    1SOL    HW2  950   4.039   0.977   0.806  2.0163 -0.1789 -0.5414
    1SOL    HW3  951   4.076   0.838   0.854 -0.9781 -0.6649  0.5097
    1SOL    MW4  952   4.030   0.890   0.802  0.3443 -0.0494 -0.0731
    1SOL     OW  953   0.763   1.779   0.454 -0.9512 -0.0914 -0.2550
    1SOL    HW2  954   0.714   1.705   0.418 -0.6437 -0.1526 -0.5555
    1SOL    HW3  955   0.799   1.745   0.536 -0.2154 -0.5151 -0.7399
    1SOL    MW4  956   0.762   1.765   0.460 -0.8136 -0.1553 -0.3586
    1SOL     OW  957   0.155   3.352   0.300  0.3144  0.2289  0.1795
    1SOL    HW2  958   0.152   3.446   0.320  0.0816  0.6808 -1.7941
    1SOL    HW3  959   0.076   3.317   0.341 -0.4918  1.2159 -0.4843
    1SOL    MW4  960   0.144   3.360   0.308  0.1773  0.4187 -0.1685
    1SOL     OW  961   1.098   3.270   0.242  0.1938  0.3887  0.1908
    1SOL    HW2  962   1.119   3.358   0.210  0.4575  0.3667  0.3045
    1SOL    HW3  963   1.177   3.219   0.226  0.1743  0.2672  0.4887
    1SOL    MW4  964   1.111   3.275   0.236  0.2259  0.3698  0.2451
    1SOL     OW  965   1.344   2.270   0.335 -0.2514 -0.1120 -0.0577
    1SOL    HW2  966   1.394   2.304   0.260 -0.3215  0.0535 -0.0305
    1SOL    HW3  967   1.381   2.183   0.351  0.1264  0.0650  0.0521
    1SOL    MW4  968   1.356   2.263   0.327 -0.2108 -0.0668 -0.0396
    1SOL     OW  969   3.270   1.102   0.304 -0.0847 -0.2159 -0.3400
    1SOL    HW2  970   3.196   1.051   0.272 -0.4016 -0.6140  1.0007
    1SOL    HW3  971   3.322   1.041   0.356  0.6281  0.3280 -0.3900
    1SOL    MW4  972   3.267   1.087   0.306 -0.0324 -0.1967 -0.1697
    1SOL     OW  973   1.684   1.824   0.195  0.4911 -0.1836 -0.1094
    1SOL    HW2  974   1.710   1.916   0.205 -1.0820  0.3718 -0.9672
    1SOL    HW3  975   1.641   1.802   0.277  1.0101 -0.2095  0.1591
    1SOL    MW4  976   1.682   1.833   0.207  0.3521 -0.1137 -0.1871
    1SOL     OW  977   4.213   1.996   0.512 -0.1919  0.0569  0.0372
    1SOL    HW2  978   4.240   2.034   0.596  0.3853 -1.3159  0.4864
    1SOL    HW3  979   4.294   1.992   0.461 -0.4510  0.4211 -0.3983
    1SOL    MW4  980   4.227   2.000   0.516 -0.1497 -0.0761  0.0390
    1SOL     OW  981   3.524   3.175   0.491  0.3087 -0.3118 -0.4231
    1SOL    HW2  982   3.538   3.265   0.462  0.6109 -0.1386  0.2737
    1SOL    HW3  983   3.435   3.154   0.461 -0.3686  0.7597  0.7927
    1SOL    MW4  984   3.514   3.184   0.483  0.2594 -0.1476 -0.1708
    1SOL     OW  985   1.302   2.696   0.828  0.0676 -0.1257 -0.7263
    1SOL    HW2  986   1.289   2.689   0.922  0.7356 -1.1468 -0.7030
    1SOL    HW3  987   1.227   2.748   0.797  0.3157  0.9594  0.4732
    1SOL    MW4  988   1.290   2.702   0.836  0.1884 -0.1173 -0.5649
    1SOL     OW  989   3.591   0.194   0.510 -0.4437  0.0556 -0.8286
    1SOL    HW2  990   3.589   0.148   0.594  0.3365  2.1580  0.3799
    1SOL    HW3  991   3.555   0.131   0.448  1.3818 -2.5308  0.5913
    1SOL    MW4  992   3.586   0.180   0.513 -0.0999 -0.0083 -0.4818
    1SOL     OW  993   4.043   3.442   0.785  0.1255 -0.6983  0.1138
    1SOL    HW2  994   4.044   3.355   0.745  0.9284 -0.8222  0.3958
    1SOL    HW3  995   4.049   3.426   0.879  1.0142 -0.3186  0.1294
    1SOL    MW4  996   4.044   3.429   0.792  0.3486 -0.6645  0.1531
    1SOL     OW  997   0.337   0.446   0.829  0.1842  0.1404  0.1660
    1SOL    HW2  998   0.247   0.420   0.843  1.4165 -2.9382  2.9175
    1SOL    HW3  999   0.380   0.368   0.794  2.4410  0.5745  1.8225
    1SOL    MW4 1000   0.331   0.433   0.826  0.6445 -0.2085  0.7476
    1SOL     OW 1001   1.994   4.225   0.488 -0.0340  0.4857 -0.3800
    1SOL    HW2 1002   1.904   4.239   0.461 -0.0767 -0.5707 -0.7876
    1SOL    HW3 1003   2.007   4.131   0.485  1.1779  0.6427 -0.6226
    1SOL    MW4 1004   1.984   4.215   0.484  0.1203  0.3672 -0.4657
    1SOL     OW 1005   0.068   0.380   0.864 -0.2172  0.2055 -0.0493
    1SOL    HW2 1006  -0.000   0.444   0.843 -1.1187 -0.8187 -0.3326
    1SOL    HW3 1007   0.057   0.363   0.957 -0.7886 -0.4360 -0.2247
    1SOL    MW4 1008   0.057   0.386   0.873 -0.4115 -0.0142 -0.1098
    1SOL     OW 1009   1.927   1.751   0.282 -0.0101  0.2550 -0.3221
    1SOL    HW2 1010   1.948   1.831   0.331 -0.7003  0.3875 -0.2405
    1SOL    HW3 1011   1.857   1.777   0.223 -1.3065 -0.6607  0.7867
    1SOL    MW4 1012   1.921   1.765   0.281 -0.2722  0.1516 -0.1650
    1SOL     OW 1013   0.216   0.818   0.868  0.2319 -0.2270 -0.5965
    1SOL    HW2 1014   0.225   0.790   0.959  0.3560  1.8976  0.0667
    1SOL    HW3 1015   0.145   0.883   0.869  0.9314  0.5867 -1.8371
    1SOL    MW4 1016   0.208   0.823   0.880  0.3406  0.1608 -0.6726
    1SOL     OW 1017   4.083   0.686   0.588 -0.5316  0.0166 -0.4960
    1SOL    HW2 1018   4.012   0.664   0.527 -0.3866 -1.2617 -0.2201
    1SOL    HW3 1019   4.045   0.752   0.647 -0.9488  0.6077 -1.4090
    1SOL    MW4 1020   4.068   0.692   0.588 -0.5679 -0.0741 -0.5801
    1SOL     OW 1021   0.386   1.537   0.577  0.5381 -0.0253  0.1464
    1SOL    HW2 1022   0.397   1.580   0.662 -0.9781  0.1555  0.2655
    1SOL    HW3 1023   0.332   1.597   0.526  2.4808  0.4657 -1.4312
    1SOL    MW4 1024   0.381   1.550   0.581  0.5944  0.0635 -0.0460
    1SOL     OW 1025   0.041   1.148   0.624 -0.4819 -0.0798 -0.3099
    1SOL    HW2 1026   0.119   1.199   0.646 -0.2966 -0.7371  0.5953
    1SOL    HW3 1027   0.023   1.097   0.703 -2.0530  0.3455 -0.3910
    1SOL    MW4 1028   0.049   1.148   0.637 -0.6647 -0.1105 -0.2011
    1SOL     OW 1029   0.252   1.311   0.673 -0.2049  0.8249  0.1847
    1SOL    HW2 1030   0.308   1.282   0.746  1.6685 -1.9732 -2.2622
    1SOL    HW3 1031   0.296   1.388   0.638  1.2007 -0.3319 -0.6270
    1SOL    MW4 1032   0.265   1.317   0.678  0.2277  0.3030 -0.2452
    1SOL     OW 1033   1.077   2.853   0.785  0.0267 -0.2615 -0.0066
    1SOL    HW2 1034   1.004   2.791   0.786 -0.4152  0.2511 -0.4781
    1SOL    HW3 1035   1.090   2.873   0.692  0.3794  0.1029  0.1221
    1SOL    MW4 1036   1.069   2.848   0.773  0.0149 -0.1454 -0.0519
    1SOL     OW 1037   3.959   2.112   0.442  0.5748  0.1224  0.1012
    1SOL    HW2 1038   3.988   2.202   0.428  1.4201 -0.0617  0.6236
    1SOL    HW3 1039   4.039   2.064   0.464  0.1167 -0.7384 -0.0866
    1SOL    MW4 1040   3.973   2.117   0.443  0.6258 -0.0155  0.1453
    1SOL     OW 1041   1.079   2.345   0.794 -0.0584  0.0007 -0.5314
    1SOL    HW2 1042   1.089   2.253   0.769  0.1582  0.6124 -2.8312
    1SOL    HW3 1043   1.164   2.384   0.777  0.7004  0.1132  3.0488
    1SOL    MW4 1044   1.091   2.338   0.788  0.0703  0.0958 -0.3625
    1SOL     OW 1045   0.361   2.933   0.414 -0.1120 -0.5443 -0.1943
    1SOL    HW2 1046   0.297   2.868   0.443 -0.2904  0.8122  2.6700
    1SOL    HW3 1047   0.313   2.989   0.353 -1.0785 -0.7872  0.3263
    1SOL    MW4 1048   0.346   2.931   0.410 -0.2631 -0.3972  0.2523
    1SOL     OW 1049   4.273   2.342   0.852  0.1583  0.2234  0.3669
    1SOL    HW2 1050   4.265   2.251   0.824  0.4603  0.5526 -0.8088
    1SOL    HW3 1051   4.350   2.375   0.807  0.0346  1.0750  0.7545
    1SOL    MW4 1052   4.282   2.335   0.842  0.1822  0.3793  0.2629
    1SOL     OW 1053   0.248   1.283   0.294  0.2302 -0.2000  0.1614
    1SOL    HW2 1054   0.159   1.274   0.327 -0.0148  0.3980 -0.3172
    1SOL    HW3 1055   0.263   1.203   0.244  0.5096 -0.9824  1.4862
    1SOL    MW4 1056   0.238   1.272   0.292  0.2348 -0.2242  0.2730
    1SOL     OW 1057   4.022   1.666   0.704  0.1145 -0.5286  0.2042
    1SOL    HW2 1058   3.944   1.616   0.730 -0.1475 -0.5383 -0.5783
    1SOL    HW3 1059   4.096   1.613   0.735 -0.1723 -1.0972 -0.0662
    1SOL    MW4 1060   4.021   1.652   0.712  0.0429 -0.6047  0.0653
    1SOL     OW 1061   0.235   3.090   0.850  0.1751  0.2788 -0.0524
    1SOL    HW2 1062   0.228   3.077   0.945 -0.4971 -1.2232 -0.2933
    1SOL    HW3 1063   0.149   3.123   0.825  0.2061  0.2459 -0.2009
    1SOL    MW4 1064   0.223   3.093   0.859  0.0905  0.0763 -0.1038
    1SOL     OW 1065   1.515   1.241   0.476  0.1083  0.5909 -0.1157
    1SOL    HW2 1066   1.424   1.271   0.479  0.0417  0.3248  0.7556
    1SOL    HW3 1067   1.510   1.152   0.444  0.0334  0.4826  0.1930
    1SOL    MW4 1068   1.503   1.234   0.472  0.0896  0.5416  0.0400
    1SOL     OW 1069   0.176   2.484   0.494 -0.4957 -0.0514 -0.0766
    1SOL    HW2 1070   0.110   2.472   0.563 -0.2651 -1.9116 -0.1637
    1SOL    HW3 1071   0.127   2.473   0.413 -0.2499 -0.6144 -0.1532
    1SOL    MW4 1072   0.161   2.481   0.493 -0.4328 -0.3712 -0.0983
    1SOL     OW 1073   0.005   3.209   0.761  0.6210 -0.2505 -0.2498
    1SOL    HW2 1074  -0.012   3.218   0.667 -0.2045 -0.3943 -0.1202
    1SOL    HW3 1075   0.012   3.299   0.792  0.7528 -0.1981 -0.4291
    1SOL    MW4 1076   0.003   3.222   0.752  0.5293 -0.2627 -0.2564
    1SOL     OW 1077   0.446   3.491   0.811 -0.1734  0.2854  0.2599
    1SOL    HW2 1078   0.456   3.481   0.906 -3.5698 -1.4143  0.5167
    1SOL    HW3 1079   0.452   3.402   0.777  1.2755  0.9171 -1.1922
    1SOL    MW4 1080   0.448   3.478   0.819 -0.4303  0.1442  0.1022
    1SOL     OW 1081   0.160   2.749   0.486 -0.3917 -0.2709 -0.5674
    1SOL    HW2 1082   0.183   2.657   0.483  0.1063 -0.1438 -0.6756
    1SOL    HW3 1083   0.165   2.773   0.579 -0.4183 -0.3250 -0.5523
    1SOL    MW4 1084   0.164   2.740   0.498 -0.3295 -0.2611 -0.5797
    1SOL     OW 1085   0.414   1.226   0.883 -0.1132  0.1412  0.6871
    1SOL    HW2 1086   0.418   1.141   0.840 -0.0381 -0.3092  1.5743
    1SOL    HW3 1087   0.486   1.276   0.844  0.4629 -0.5371  0.8798
    1SOL    MW4 1088   0.424   1.222   0.872 -0.0273 -0.0076  0.8295
    1SOL     OW 1089   0.479   0.251   0.673  0.1035  0.0357  0.4491
    1SOL    HW2 1090   0.483   0.238   0.578 -0.7943  0.1432  0.3984
    1SOL    HW3 1091   0.529   0.178   0.709  0.3118 -0.0955 -0.0997
    1SOL    MW4 1092   0.486   0.240   0.665  0.0126  0.0326  0.3701
    1SOL     OW 1093   0.475   0.420   1.063 -0.0892  0.4114  0.1270
    1SOL    HW2 1094   0.422   0.423   0.983 -0.5429 -2.0155  0.3009
    1SOL    HW3 1095   0.415   0.442   1.133 -0.3445 -0.1707  0.0904
    1SOL    MW4 1096   0.460   0.423   1.062 -0.1827  0.0144  0.1452
    1SOL     OW 1097   2.020   2.062   0.683  0.0141 -0.0699 -0.1036
    1SOL    HW2 1098   2.029   2.145   0.729 -0.3709 -0.5189  0.8188
    1SOL    HW3 1099   1.949   2.017   0.729  0.6709 -1.1854 -0.1482
    1SOL    MW4 1100   2.012   2.067   0.695  0.0498 -0.2761  0.0122
    1SOL     OW 1101   3.314   1.252   0.701  0.1958 -0.3264  0.3451
    1SOL    HW2 1102   3.387   1.192   0.713 -0.6119 -1.1779  1.1638
    1SOL    HW3 1103   3.340   1.332   0.746  1.0359 -0.2608 -0.2471
    1SOL    MW4 1104   3.327   1.255   0.708  0.2000 -0.4300  0.3750
    1SOL     OW 1105   3.621   1.627   0.686  0.0714  0.4142 -0.0246
    1SOL    HW2 1106   3.541   1.593   0.726  0.9298 -1.4210  0.2290
    1SOL    HW3 1107   3.596   1.649   0.596 -0.5575 -0.8815 -0.1835
    1SOL    MW4 1108   3.608   1.625   0.679  0.1016  0.0011 -0.0120
    1SOL     OW 1109   0.884   0.100   0.787  0.0135  0.3483  0.3954
    1SOL    HW2 1110   0.887   0.085   0.693  1.5426  0.6950  0.3739
    1SOL    HW3 1111   0.796   0.074   0.813 -0.4996  0.5050 -1.1677
    1SOL    MW4 1112   0.873   0.094   0.778  0.1476  0.4147  0.1863
    1SOL     OW 1113   0.670   2.820   0.699 -0.6129  0.3447  0.2645
    1SOL    HW2 1114   0.665   2.907   0.740  0.3976  0.3460  0.3844
    1SOL    HW3 1115   0.639   2.834   0.610 -1.3696  0.6401  0.5684
    1SOL    MW4 1116   0.665   2.833   0.693 -0.5794  0.3839  0.3204
    1SOL     OW 1117   1.550   4.659   0.340 -0.2777 -0.3333 -0.1038
    1SOL    HW2 1118   1.622   4.622   0.289 -0.4674 -1.4275  0.4054
    1SOL    HW3 1119   1.590   4.725   0.395 -0.2070  1.5983 -2.3659
    1SOL    MW4 1120   1.564   4.663   0.340 -0.2934 -0.2227 -0.3350
    1SOL     OW 1121   0.453   3.225   0.729 -0.2266 -0.1767 -0.0716
    1SOL    HW2 1122   0.425   3.232   0.638  0.3945 -0.1822 -0.2603
    1SOL    HW3 1123   0.376   3.190   0.775 -0.7503  0.4271 -0.4798
    1SOL    MW4 1124   0.439   3.222   0.723 -0.2137 -0.0978 -0.1503
    1SOL     OW 1125   0.648   1.320   0.761  0.0371 -0.1067  0.4343
    1SOL    HW2 1126   0.658   1.323   0.666  0.3438 -0.3789  0.4550
    1SOL    HW3 1127   0.661   1.410   0.790  2.0120 -0.3657  0.4121
    1SOL    MW4 1128   0.651   1.332   0.752  0.3381 -0.1768  0.4341
    1SOL     OW 1129   2.900   1.494   0.820 -0.1942  0.0523  0.3145
    1SOL    HW2 1130   2.825   1.541   0.784  0.4242  1.7989  1.2581
    1SOL    HW3 1131   2.976   1.536   0.781  0.3534 -0.6913  0.5587
    1SOL    MW4 1132   2.900   1.506   0.810 -0.0403  0.1847  0.4712
    1SOL     OW 1133   0.168   1.548   0.870 -0.0147 -0.3354 -0.7881
    1SOL    HW2 1134   0.163   1.462   0.827 -0.4572 -0.2233 -0.9619
    1SOL    HW3 1135   0.260   1.573   0.861 -0.5132  0.6496 -3.5921
    1SOL    MW4 1136   0.179   1.540   0.863 -0.1388 -0.1906 -1.1810
    1SOL     OW 1137   1.501   3.819   0.385 -0.0419 -0.0844 -0.2266
    1SOL    HW2 1138   1.416   3.857   0.410 -0.6658 -0.8640 -1.1006
    1SOL    HW3 1139   1.559   3.894   0.376 -1.0885  0.6282 -1.3143
    1SOL    MW4 1140   1.497   3.834   0.387 -0.2624 -0.0932 -0.4854
    1SOL     OW 1141   0.859   2.236   0.554  0.3474  0.6994 -0.2890
    1SOL    HW2 1142   0.929   2.185   0.513 -0.3033 -0.5191  0.0836
    1SOL    HW3 1143   0.780   2.182   0.542 -0.5318  2.0355 -0.6847
    1SOL    MW4 1144   0.857   2.222   0.547  0.1456  0.7153 -0.2921
    1SOL     OW 1145   2.818   0.033   0.471  0.0338  0.0374 -0.1414
    1SOL    HW2 1146   2.779   0.094   0.408 -0.5461 -0.6202 -0.4161
    1SOL    HW3 1147   2.762   0.039   0.548  0.5124  0.5428  0.1686
    1SOL    MW4 1148   2.806   0.042   0.473  0.0203  0.0173 -0.1367
    1SOL     OW 1149   0.594   2.778   0.438 -0.3625 -0.1653  0.0592
    1SOL    HW2 1150   0.680   2.817   0.419 -0.5272 -0.0128 -0.3839
    1SOL    HW3 1151   0.531   2.840   0.402 -0.6287 -0.7261 -0.4634
    1SOL    MW4 1152   0.597   2.791   0.431 -0.4193 -0.2193 -0.0682
    1SOL     OW 1153   0.024   1.955   0.475  0.5621 -0.5807  0.3116
    1SOL    HW2 1154   0.026   1.866   0.441  2.0987 -0.9693  1.3347
    1SOL    HW3 1155   0.089   1.955   0.545  1.1231  1.5341 -0.1664
    1SOL    MW4 1156   0.033   1.943   0.480  0.8389 -0.3529  0.3836
    1SOL     OW 1157   3.338   3.831   0.787  0.2971  0.0239 -0.1535
    1SOL    HW2 1158   3.351   3.737   0.770  2.6293  0.0009  1.5585
    1SOL    HW3 1159   3.327   3.837   0.881  1.0464  1.5747 -0.1541
    1SOL    MW4 1160   3.338   3.819   0.797  0.7036  0.2258  0.0723
    1SOL     OW 1161   3.539   2.433   0.774  0.1282 -0.2649  0.1000
    1SOL    HW2 1162   3.546   2.524   0.803  1.6060 -0.2558 -0.2691
    1SOL    HW3 1163   3.455   2.404   0.809 -0.8521  1.5515 -0.6462
    1SOL    MW4 1164   3.529   2.442   0.783  0.1941 -0.0241 -0.0471
    1SOL     OW 1165   0.007   3.477   0.830 -0.1483  0.1600  0.0223
    1SOL    HW2 1166   0.082   3.506   0.777 -0.0779  1.2060  0.6714
    1SOL    HW3 1167  -0.069   3.517   0.788 -0.4644 -1.6308 -1.1646
    1SOL    MW4 1168   0.007   3.486   0.818 -0.1807  0.0618 -0.0486
    1SOL     OW 1169   0.674   3.618   0.696  0.0164 -0.1016  0.2760
    1SOL    HW2 1170   0.594   3.578   0.728 -0.5491  0.0709 -0.8852
    1SOL    HW3 1171   0.662   3.624   0.601  1.3003  0.1413  0.1098
    1SOL    MW4 1172   0.662   3.614   0.688  0.1112 -0.0470  0.1008
    1SOL     OW 1173   2.830   4.406   0.464 -0.7703 -0.4677  0.1085
    1SOL    HW2 1174   2.818   4.500   0.449 -0.0629 -0.4135 -0.1265
    1SOL    HW3 1175   2.826   4.396   0.559 -0.0399 -0.0797  0.1872
    1SOL    MW4 1176   2.828   4.417   0.474 -0.5808 -0.4096  0.0879
    1SOL     OW 1177   0.240   4.425   0.473 -0.1864  0.2090 -0.4079
    1SOL    HW2 1178   0.313   4.488   0.476  1.3029 -1.4744 -0.5771
    1SOL    HW3 1179   0.227   4.398   0.564  2.3170 -2.7146 -0.8392
    1SOL    MW4 1180   0.248   4.430   0.485  0.3404 -0.3986 -0.4872
    1SOL     OW 1181   0.431   4.245   0.811  0.1857 -0.5575 -0.4559
    1SOL    HW2 1182   0.430   4.244   0.907 -0.7309 -0.4015 -0.4586
    1SOL    HW3 1183   0.341   4.267   0.787  0.3593 -0.8437 -1.3577
    1SOL    MW4 1184   0.419   4.248   0.821  0.0876 -0.5751 -0.5752
    1SOL     OW 1185   0.633   4.454   0.799  0.1487  0.4702 -0.4886
    1SOL    HW2 1186   0.712   4.408   0.826  0.4087  0.1105 -1.8364
    1SOL    HW3 1187   0.568   4.384   0.786 -0.1931  0.7059 -0.0744
    1SOL    MW4 1188   0.635   4.438   0.801  0.1379  0.4539 -0.6117
    1SOL     OW 1189   1.835   0.962   0.173 -0.8079 -0.4476 -0.0261
    1SOL    HW2 1190   1.843   1.052   0.141  0.0896 -0.2047  0.8461
    1SOL    HW3 1191   1.742   0.942   0.166 -0.9578  0.4258 -0.5682
    1SOL    MW4 1192   1.824   0.971   0.168 -0.7093 -0.3003  0.0174
    1SOL     OW 1193   1.791   1.134   0.838 -0.0757 -0.4630  0.3770
    1SOL    HW2 1194   1.706   1.176   0.825  0.3828 -0.1589 -1.8636
    1SOL    HW3 1195   1.854   1.201   0.815  0.7649 -0.9717  1.1780
    1SOL    MW4 1196   1.788   1.148   0.833  0.0957 -0.4900  0.1870
    1SOL     OW 1197   1.941   0.481   0.292 -0.4075 -0.1366  0.3517
    1SOL    HW2 1198   2.008   0.513   0.352 -1.5510  1.6399  0.7300
    1SOL    HW3 1199   1.960   0.527   0.210 -0.9825  0.1687  0.3872
    1SOL    MW4 1200   1.952   0.491   0.289 -0.6344  0.1380  0.4063
    1SOL     OW 1201   1.033   0.779   0.802  0.2508 -0.0078 -0.0443
    1SOL    HW2 1202   1.031   0.779   0.898 -0.6267 -0.3704 -0.0569
    1SOL    HW3 1203   1.065   0.692   0.778  0.5824  0.1234 -0.0800
    1SOL    MW4 1204   1.037   0.767   0.811  0.1788 -0.0383 -0.0507
    1SOL     OW 1205   3.836   0.451   0.818  0.2077  0.4412  0.2295
    1SOL    HW2 1206   3.838   0.427   0.725 -1.1691  0.3947  0.2065
    1SOL    HW3 1207   3.818   0.546   0.818 -1.9974  0.0532  0.4729
    1SOL    MW4 1208   3.834   0.461   0.805 -0.2649  0.3839  0.2586
    1SOL     OW 1209   2.027   0.738   0.147  0.1701 -0.5249 -0.1162
    1SOL    HW2 1210   2.106   0.765   0.194  0.6805  1.6736 -2.1048
    1SOL    HW3 1211   1.969   0.814   0.153 -1.0280 -1.4246 -0.2614
    1SOL    MW4 1212   2.030   0.751   0.154  0.0796 -0.3534 -0.3978
    1SOL     OW 1213   1.042   1.267   0.470  0.1153  0.0792 -0.1750
    1SOL    HW2 1214   0.960   1.300   0.432  0.6832  1.6533 -0.0542
    1SOL    HW3 1215   1.034   1.172   0.464 -1.8145  0.2051 -0.0016
    1SOL    MW4 1216   1.030   1.259   0.464 -0.0645  0.3036 -0.1361
    1SOL     OW 1217   0.572   0.657   0.842  0.5040  0.0063 -0.0988
    1SOL    HW2 1218   0.618   0.588   0.795 -0.3597 -1.0118  0.5272
    1SOL    HW3 1219   0.481   0.627   0.846  0.4829  0.3055  1.8210
    1SOL    MW4 1220   0.566   0.644   0.836  0.3873 -0.0885  0.2372
    1SOL     OW 1221   0.647   1.572   0.841  0.1475  0.4401 -0.2538
    1SOL    HW2 1222   0.729   1.609   0.806  0.5586 -1.4519 -1.3305
    1SOL    HW3 1223   0.661   1.571   0.936  0.8345  1.3850 -0.3275
    1SOL    MW4 1224   0.660   1.577   0.849  0.2924  0.3152 -0.4055
    1SOL     OW 1225   3.819   2.074   0.702 -0.1849  0.4099 -0.1695
    1SOL    HW2 1226   3.847   2.089   0.612  0.8840  0.4473  0.1575
    1SOL    HW3 1227   3.894   2.030   0.743  0.2414  2.4163  1.2902
    1SOL    MW4 1228   3.833   2.070   0.696  0.0124  0.6795  0.0662
    1SOL     OW 1229   1.261   2.502   0.463 -0.2523  0.1878 -0.4776
    1SOL    HW2 1230   1.270   2.411   0.434 -0.5936 -0.5498  1.6353
    1SOL    HW3 1231   1.166   2.515   0.472 -0.1613  0.4789  0.0757
    1SOL    MW4 1232   1.249   2.492   0.460 -0.2853  0.1290 -0.1258
    1SOL     OW 1233   2.862   0.488   0.699  0.6318 -0.2366  0.5337
    1SOL    HW2 1234   2.852   0.583   0.705 -0.1825 -0.2760 -0.0918
    1SOL    HW3 1235   2.934   0.467   0.758  1.3062  0.8639  0.1100
    1SOL    MW4 1236   2.870   0.497   0.707  0.6135 -0.0966  0.3953
    1SOL     OW 1237   3.368   3.897   0.439  0.2572 -0.3901 -0.0103
    1SOL    HW2 1238   3.399   3.807   0.451  1.6744 -0.2131 -2.0581
    1SOL    HW3 1239   3.445   3.951   0.453 -0.8510  0.6602  2.4581
    1SOL    MW4 1240   3.382   3.892   0.442  0.2980 -0.2282  0.0452
    1SOL     OW 1241   0.183   4.322   0.734 -0.4000 -0.2286 -0.0987
    1SOL    HW2 1242   0.164   4.404   0.781  0.8224 -0.6012  1.0852
    1SOL    HW3 1243   0.109   4.265   0.754 -0.4956  0.0531  0.3677
    1SOL    MW4 1244   0.171   4.325   0.743 -0.2513 -0.2403  0.1190
    1SOL     OW 1245   1.142   1.658   0.197 -0.1619 -0.3605 -0.0441
    1SOL    HW2 1246   1.085   1.642   0.122  1.1149 -0.1077 -1.0976
    1SOL    HW3 1247   1.097   1.725   0.248 -0.6903  0.0168 -0.9880
    1SOL    MW4 1248   1.129   1.665   0.194 -0.0632 -0.2774 -0.3076
    1SOL     OW 1249   0.885   0.028   0.515  0.0302  0.1669 -0.3929
    1SOL    HW2 1250   0.855   0.109   0.473 -0.9711  0.2067  0.3589
    1SOL    HW3 1251   0.813  -0.034   0.500  1.1506 -0.8283 -1.6747
    1SOL    MW4 1252   0.871   0.031   0.508  0.0458  0.0405 -0.4629
    1SOL     OW 1253   0.376   2.114   0.473 -0.4587 -0.4168  0.2173
    1SOL    HW2 1254   0.294   2.102   0.425 -0.5795 -1.9433  0.7838
    1SOL    HW3 1255   0.354   2.094   0.564 -0.1753  2.2431  0.9136
    1SOL    MW4 1256   0.362   2.110   0.479 -0.4373 -0.2673  0.3839
    1SOL     OW 1257   1.246   2.871   0.230  0.1191 -0.5912 -0.2342
    1SOL    HW2 1258   1.321   2.820   0.261 -0.2033 -0.2228  1.1866
    1SOL    HW3 1259   1.277   2.962   0.232  0.3778 -0.6442 -1.8325
    1SOL    MW4 1260   1.260   2.876   0.235  0.1106 -0.5496 -0.2576
    1SOL     OW 1261   2.427   1.398   0.456 -0.6796  0.0611  0.3548
    1SOL    HW2 1262   2.378   1.338   0.401 -0.1204  1.2302 -1.4782
    1SOL    HW3 1263   2.514   1.402   0.415  0.2601 -0.2681  2.2515
    1SOL    MW4 1264   2.432   1.391   0.443 -0.4821  0.1718  0.3632
    1SOL     OW 1265   2.296   3.913   0.455 -0.5478 -0.2153  0.0382
    1SOL    HW2 1266   2.214   3.939   0.412 -0.5836 -1.2064 -0.5228
    1SOL    HW3 1267   2.364   3.960   0.408 -0.5197 -1.8485 -1.6330
    1SOL    MW4 1268   2.294   3.922   0.443 -0.5488 -0.5612 -0.2563
    1SOL     OW 1269   3.367   3.564   0.748  0.0447  0.2350 -0.2608
    1SOL    HW2 1270   3.434   3.517   0.798 -1.0622 -1.0486  0.0679
    1SOL    HW3 1271   3.285   3.520   0.773 -0.7974  1.1884 -1.3431
    1SOL    MW4 1272   3.365   3.552   0.758 -0.2124  0.1917 -0.3603
    1SOL     OW 1273   4.472   1.668   0.699 -0.2872 -0.0501 -0.1432
    1SOL    HW2 1274   4.549   1.634   0.746 -0.2353  1.2754  0.7385
    1SOL    HW3 1275   4.397   1.627   0.742 -0.0599 -1.9504 -1.5011
    1SOL    MW4 1276   4.472   1.658   0.711 -0.2508 -0.1260 -0.2060
    1SOL     OW 1277   1.227   4.352   0.570 -0.0802  0.2112  0.0176
    1SOL    HW2 1278   1.173   4.424   0.537 -0.2953 -0.1292 -0.3750
    1SOL    HW3 1279   1.209   4.279   0.511  1.0069  0.1674 -0.2773
    1SOL    MW4 1280   1.218   4.352   0.558  0.0348  0.1602 -0.0731
    1SOL     OW 1281   1.791   2.475   0.683  0.2193  0.3349  0.2644
    1SOL    HW2 1282   1.792   2.562   0.723  1.4448  0.3652  0.1825
    1SOL    HW3 1283   1.722   2.428   0.729 -0.8075  1.5163 -0.0531
    1SOL    MW4 1284   1.782   2.480   0.694  0.2455  0.4947  0.2117
    1SOL     OW 1285   1.532   0.011   0.886  0.4030 -0.2792 -0.2711
    1SOL    HW2 1286   1.526   0.011   0.982 -1.4693  0.2265 -0.3742
    1SOL    HW3 1287   1.534  -0.082   0.863  0.6980 -0.4078  0.2463
    1SOL    MW4 1288   1.532  -0.001   0.896  0.1949 -0.2294 -0.2164
    1SOL     OW 1289   1.094   4.600   0.868 -0.0532 -0.3725  0.0219
    1SOL    HW2 1290   1.169   4.634   0.819  0.6425  0.9340  1.9628
    1SOL    HW3 1291   1.019   4.648   0.834  0.4409  0.5825  0.2739
    1SOL    MW4 1292   1.094   4.611   0.857  0.1038 -0.0739  0.3113
    1SOL     OW 1293   1.320   0.338   0.835  0.0058  0.3220 -0.2273
    1SOL    HW2 1294   1.324   0.336   0.930  0.6099 -0.5425 -0.2655
    1SOL    HW3 1295   1.406   0.370   0.808 -0.4634  1.4076 -0.4623
    1SOL    MW4 1296   1.332   0.342   0.844  0.0234  0.3512 -0.2634
    1SOL     OW 1297   1.556   0.465   0.752  0.0127 -0.1214 -0.6302
    1SOL    HW2 1298   1.531   0.470   0.660  1.0493 -0.4707 -0.9350
    1SOL    HW3 1299   1.535   0.552   0.788 -0.9068 -0.1654 -1.0562
    1SOL    MW4 1300   1.550   0.477   0.745  0.0283 -0.1733 -0.7266
    1SOL     OW 1301   2.980   1.762   0.409  0.1791  0.1097  0.6676
    1SOL    HW2 1302   2.906   1.703   0.421  0.2801 -0.0219  0.6470
    1SOL    HW3 1303   2.941   1.849   0.398  0.0556  0.1282  1.2629
    1SOL    MW4 1304   2.965   1.766   0.409  0.1760  0.0948  0.7434
    1SOL     OW 1305   0.824   0.908   0.669  0.0558  0.3334  0.0105
    1SOL    HW2 1306   0.773   0.847   0.615 -0.9462  1.1185  0.0527
    1SOL    HW3 1307   0.881   0.852   0.721  0.6914 -0.4661 -1.5031
    1SOL    MW4 1308   0.825   0.893   0.668  0.0075  0.3314 -0.1836
    1SOL     OW 1309   1.318   1.138   0.826  0.5818 -0.1906  0.0142
    1SOL    HW2 1310   1.320   1.151   0.920 -0.1128 -0.2053  0.0351
    1SOL    HW3 1311   1.257   1.205   0.794 -0.0971 -0.9519 -0.2896
    1SOL    MW4 1312   1.310   1.149   0.834  0.4005 -0.2931 -0.0231
    1SOL     OW 1313   3.347   2.079   0.713  0.0602 -0.8925  0.2984
    1SOL    HW2 1314   3.327   2.105   0.624 -1.1118  1.1789  1.1213
    1SOL    HW3 1315   3.436   2.044   0.709  0.1986 -0.3606 -1.5638
    1SOL    MW4 1316   3.356   2.077   0.701 -0.0765 -0.5488  0.1612
    1SOL     OW 1317   0.640   4.039   0.344  0.6140  0.1371 -0.4577
    1SOL    HW2 1318   0.673   4.128   0.355 -0.1475  0.1222  2.1331
    1SOL    HW3 1319   0.718   3.983   0.354  0.5186  0.3252  1.3223
    1SOL    MW4 1320   0.655   4.043   0.346  0.5010  0.1602  0.1189
    1SOL     OW 1321   3.660   1.769   0.233 -0.2614 -0.2009  0.4130
    1SOL    HW2 1322   3.722   1.809   0.294 -1.8278  1.1986  1.1181
    1SOL    HW3 1323   3.711   1.754   0.153  0.7663  1.7560  0.6655
    1SOL    MW4 1324   3.675   1.772   0.231 -0.3324  0.2420  0.5393
    1SOL     OW 1325   1.691   1.369   0.323 -0.2626 -0.3631  0.0763
    1SOL    HW2 1326   1.696   1.455   0.365  0.4406  0.4083 -1.5857
    1SOL    HW3 1327   1.631   1.319   0.379 -0.5787  1.1607  1.1181
    1SOL    MW4 1328   1.684   1.374   0.336 -0.2115 -0.0602 -0.0055
    1SOL     OW 1329   3.477   2.414   0.509  0.0872 -0.4969  0.2922
    1SOL    HW2 1330   3.505   2.429   0.599 -0.2280  2.0123  0.0029
    1SOL    HW3 1331   3.539   2.465   0.456  0.5144 -2.2574 -0.9703
    1SOL    MW4 1332   3.489   2.423   0.514  0.1020 -0.3984  0.0874
    1SOL     OW 1333   3.804   3.857   0.409  0.2881  0.0407 -0.2631
    1SOL    HW2 1334   3.795   3.865   0.314  1.0327  1.2834 -0.2409
    1SOL    HW3 1335   3.880   3.910   0.430 -0.4931  0.6305  1.1518
    1SOL    MW4 1336   3.813   3.865   0.399  0.2830  0.2825 -0.0735
    1SOL     OW 1337   1.078   3.613   0.766 -0.2746 -0.6754  0.1657
    1SOL    HW2 1338   1.164   3.570   0.773 -0.6363 -1.5628 -0.7092
    1SOL    HW3 1339   1.017   3.552   0.806 -0.3241  0.5607  2.0259
    1SOL    MW4 1340   1.081   3.599   0.772 -0.3289 -0.6294  0.2957
    1SOL     OW 1341   0.883   2.677   0.789 -0.0511  0.2989 -0.6639
    1SOL    HW2 1342   0.885   2.679   0.884  2.8068  0.8238 -0.7056
    1SOL    HW3 1343   0.814   2.738   0.765 -0.9529 -0.0129  1.0510
    1SOL    MW4 1344   0.874   2.685   0.798  0.2070  0.3269 -0.4432
    1SOL     OW 1345   1.520   2.846   0.727 -0.2441 -0.0850  0.0982
    1SOL    HW2 1346   1.515   2.925   0.781 -0.3949  0.8130 -1.2002
    1SOL    HW3 1347   1.443   2.795   0.751 -0.6701  0.6269  0.2521
    1SOL    MW4 1348   1.510   2.849   0.737 -0.3202  0.1273 -0.0528
    1SOL     OW 1349   3.472   4.445   0.430  0.0959 -0.8376 -0.1452
    1SOL    HW2 1350   3.416   4.511   0.390  0.3908 -0.2822  0.3677
    1SOL    HW3 1351   3.426   4.420   0.510  0.7378 -0.1488  0.4398
    1SOL    MW4 1352   3.458   4.450   0.435  0.2196 -0.6733 -0.0004
    1SOL     OW 1353   4.071   4.577   0.320  0.3893  0.0272  0.3299
    1SOL    HW2 1354   4.054   4.625   0.239  1.0357  0.5437  0.4998
    1SOL    HW3 1355   4.156   4.535   0.306  0.6870  0.4330  0.8842
    1SOL    MW4 1356   4.080   4.578   0.308  0.5140  0.1488  0.4254
    1SOL     OW 1357   1.046   3.878   0.819 -0.5168 -0.0081  0.6224
    1SOL    HW2 1358   1.051   3.784   0.805 -0.9535  0.0064  0.3428
    1SOL    HW3 1359   1.084   3.892   0.905 -0.4837 -0.4444  0.6788
    1SOL    MW4 1360   1.051   3.868   0.828 -0.5701 -0.0637  0.5929
    1SOL     OW 1361   3.986   4.245   0.824  0.1329  0.2667  0.1616
    1SOL    HW2 1362   3.898   4.279   0.804  0.2422  0.2582 -0.3345
    1SOL    HW3 1363   4.045   4.312   0.791  0.3305 -0.0009 -0.0198
    1SOL    MW4 1364   3.982   4.258   0.817  0.1731  0.2308  0.0722
    1SOL     OW 1365   2.210   3.252   0.764  0.3959 -0.0750 -0.0171
    1SOL    HW2 1366   2.138   3.207   0.809  0.4684 -0.0213  0.1541
    1SOL    HW3 1367   2.287   3.198   0.783  0.7523  0.8990  1.4011
    1SOL    MW4 1368   2.211   3.239   0.772  0.4525  0.0608  0.1926
    1SOL     OW 1369   2.236   1.703   0.712  0.1137 -0.3527  0.0080
    1SOL    HW2 1370   2.300   1.652   0.761  0.2937 -0.5499 -0.4257
    1SOL    HW3 1371   2.221   1.781   0.765 -0.0358 -0.7757  0.5981
    1SOL    MW4 1372   2.242   1.707   0.725  0.1180 -0.4345  0.0287
    1SOL     OW 1373   2.013   4.328   0.747 -0.3704 -0.4749 -0.2690
    1SOL    HW2 1374   2.004   4.294   0.658  0.9864 -3.4151  0.6510
    1SOL    HW3 1375   1.926   4.316   0.786 -1.0544  1.1051 -1.2604
    1SOL    MW4 1376   2.000   4.322   0.741 -0.2813 -0.6547 -0.2785
    1SOL     OW 1377   2.498   4.087   0.314 -0.1759 -0.0422  0.0377
    1SOL    HW2 1378   2.470   4.065   0.225 -0.9269  0.3710  0.1632
    1SOL    HW3 1379   2.583   4.045   0.324 -0.5413 -0.9453 -0.5309
    1SOL    MW4 1380   2.505   4.078   0.304 -0.3231 -0.1063 -0.0208
    1SOL     OW 1381   2.419   4.648   0.838  0.4143 -0.1652  0.2926
    1SOL    HW2 1382   2.408   4.641   0.933  0.5574 -1.2122  0.2356
    1SOL    HW3 1383   2.436   4.558   0.809 -0.0990  0.0759 -0.7813
    1SOL    MW4 1384   2.420   4.635   0.847  0.3653 -0.2713  0.1433
    1SOL     OW 1385   1.807   3.204   0.490 -0.0842  0.2617 -0.0020
    1SOL    HW2 1386   1.898   3.232   0.486  0.0162 -0.0954 -0.2812
    1SOL    HW3 1387   1.804   3.125   0.436 -0.3073 -0.3960  0.9491
    1SOL    MW4 1388   1.819   3.197   0.482 -0.1004  0.1278  0.0866
    1SOL     OW 1389   1.796   0.361   0.849  0.2569  0.5864  0.0290
    1SOL    HW2 1390   1.715   0.402   0.816  0.7712  0.5416 -1.3039
    1SOL    HW3 1391   1.792   0.271   0.818  0.4642  0.3810  0.5983
    1SOL    MW4 1392   1.785   0.355   0.841  0.3520  0.5534 -0.0718
    1SOL     OW 1393   4.456   4.626   0.528  0.1402 -0.3144 -0.3467
    1SOL    HW2 1394   4.403   4.704   0.540  0.2712 -0.4349  1.0588
    1SOL    HW3 1395   4.455   4.611   0.433 -0.3704  1.0377 -0.5672
    1SOL    MW4 1396   4.449   4.634   0.517  0.0896 -0.1521 -0.1903
    1SOL     OW 1397   3.250   4.230   0.387 -0.1357 -0.4002  0.0264
    1SOL    HW2 1398   3.335   4.273   0.387  0.1321 -0.8894  1.9684
    1SOL    HW3 1399   3.188   4.297   0.417 -0.4639 -0.0149 -1.4814
    1SOL    MW4 1400   3.253   4.244   0.391 -0.1438 -0.4144  0.0837
    1SOL     OW 1401   1.534   3.098   0.862 -0.5742 -0.1988  0.1653
    1SOL    HW2 1402   1.507   3.079   0.952 -2.0104 -0.0236 -0.2269
    1SOL    HW3 1403   1.468   3.159   0.829  1.0504  1.3257 -0.3649
    1SOL    MW4 1404   1.522   3.104   0.870 -0.5492  0.0253  0.0436
    1SOL     OW 1405   3.619   4.031   0.488  0.0432  0.0214 -0.2357
    1SOL    HW2 1406   3.604   3.993   0.574  0.8769 -0.0710 -0.1265
    1SOL    HW3 1407   3.678   3.969   0.444 -0.1076  0.2363 -0.7477
    1SOL    MW4 1408   3.625   4.018   0.493  0.1330  0.0377 -0.2889
    1SOL     OW 1409   1.673   3.633   0.485 -0.0921  0.2374  0.5200
    1SOL    HW2 1410   1.624   3.694   0.430  0.5096  0.7838  0.5794
    1SOL    HW3 1411   1.657   3.547   0.445 -0.8845  0.4425  0.3950
    1SOL    MW4 1412   1.665   3.630   0.472 -0.1173  0.3364  0.5113
    1SOL     OW 1413   2.452   1.579   0.836  0.4091  0.0423 -0.0501
    1SOL    HW2 1414   2.456   1.488   0.808 -0.9846  0.4872 -1.7556
    1SOL    HW3 1415   2.529   1.620   0.797  0.6607 -0.2422  0.1445
    1SOL    MW4 1416   2.463   1.573   0.827  0.2584  0.0634 -0.2495
    1SOL     OW 1417   4.020   4.010   0.700  0.3358  0.2439  0.4413
    1SOL    HW2 1418   4.023   4.026   0.606  0.1702  0.4888  0.4753
    1SOL    HW3 1419   4.016   4.098   0.739 -0.0418  0.1328  0.6570
    1SOL    MW4 1420   4.020   4.024   0.693  0.2637  0.2613  0.4742
    1SOL     OW 1421   1.437   2.656   0.297 -0.0064 -0.1143  0.1174
    1SOL    HW2 1422   1.367   2.622   0.353  0.1335 -0.3767  0.1333
    1SOL    HW3 1423   1.467   2.580   0.248 -1.5440  0.4907 -1.8432
    1SOL    MW4 1424   1.432   2.642   0.298 -0.1907 -0.0691 -0.1392
    1SOL     OW 1425   3.858   1.847   0.395 -0.2886 -0.2582  0.0857
    1SOL    HW2 1426   3.868   1.940   0.417  0.1051  0.0206 -1.2325
    1SOL    HW3 1427   3.939   1.806   0.425 -0.7107 -0.2866  1.2054
    1SOL    MW4 1428   3.870   1.854   0.402 -0.2923 -0.2251  0.0595
    1SOL     OW 1429   1.493   2.050   0.454  0.3983  0.0923 -0.2442
    1SOL    HW2 1430   1.575   2.063   0.406  0.7543 -1.0211  0.0440
    1SOL    HW3 1431   1.487   1.955   0.466  0.1413  0.3243  1.6200
    1SOL    MW4 1432   1.503   2.039   0.449  0.4113 -0.0241  0.0398
    1SOL     OW 1433   3.549   1.093   0.779  0.1290  0.5872  0.1184
    1SOL    HW2 1434   3.557   0.999   0.761 -0.4890  0.4046  0.7834
    1SOL    HW3 1435   3.541   1.098   0.874 -2.4959  1.1079 -0.0966
    1SOL    MW4 1436   3.549   1.081   0.789 -0.2990  0.6318  0.1777
    1SOL     OW 1437   1.252   3.927   0.483  0.2653 -0.3204  0.1638
    1SOL    HW2 1438   1.228   4.017   0.461 -1.7325 -0.9776 -0.4497
    1SOL    HW3 1439   1.280   3.931   0.574  0.2472  0.9352  0.1217
    1SOL    MW4 1440   1.252   3.939   0.492 -0.0008 -0.2418  0.0773
    1SOL     OW 1441   1.130   2.072   0.722 -0.3291 -0.3048 -0.3382
    1SOL    HW2 1442   1.057   2.024   0.759 -0.3943  0.3425  0.3945
    1SOL    HW3 1443   1.208   2.030   0.759 -0.3733 -0.0938 -0.0064
    1SOL    MW4 1444   1.131   2.060   0.732 -0.3434 -0.1917 -0.1978
    1SOL     OW 1445   3.408   0.413   0.504 -0.5721 -0.1620 -0.1318
    1SOL    HW2 1446   3.329   0.375   0.466 -0.2837 -0.5182 -0.3812
    1SOL    HW3 1447   3.472   0.342   0.500 -0.1788  0.1943 -0.1310
    1SOL    MW4 1448   3.406   0.399   0.498 -0.4823 -0.1620 -0.1646
    1SOL     OW 1449   2.897   2.814   0.492  0.1941 -0.1744  0.3551
    1SOL    HW2 1450   2.808   2.817   0.457  0.5609  0.4895 -0.5417
    1SOL    HW3 1451   2.940   2.744   0.443  0.4547  0.1727  0.0865
    1SOL    MW4 1452   2.891   2.805   0.481  0.2766 -0.0408  0.2014
    1SOL     OW 1453   1.781   3.493   0.829  0.0823  0.0692  0.1383
    1SOL    HW2 1454   1.812   3.480   0.919  0.4876 -0.1361 -0.0313
    1SOL    HW3 1455   1.787   3.407   0.788 -0.2232  0.1355 -0.0500
    1SOL    MW4 1456   1.786   3.480   0.836  0.0955  0.0510  0.0912
    1SOL     OW 1457   4.476   2.967   0.368 -0.2029  0.1778 -0.0249
    1SOL    HW2 1458   4.544   2.977   0.302  1.0711  1.7265  1.4641
    1SOL    HW3 1459   4.513   2.906   0.432  0.5877  2.3911  1.7132
    1SOL    MW4 1460   4.490   2.960   0.368  0.0695  0.6740  0.4009
    1SOL     OW 1461   2.084   1.337   0.210 -0.5912  0.1213  0.2248
    1SOL    HW2 1462   2.104   1.427   0.185  2.7024 -0.4369  0.5564
    1SOL    HW3 1463   2.055   1.343   0.301  0.1700  0.8028  0.4241
    1SOL    MW4 1464   2.083   1.349   0.219 -0.0565  0.1376  0.2949
    1SOL     OW 1465   0.881   0.378   0.831 -0.2630 -0.1351 -0.0736
    1SOL    HW2 1466   0.880   0.283   0.827  2.0802 -0.1698 -0.3867
    1SOL    HW3 1467   0.880   0.399   0.924 -0.0364 -0.4803  0.0046
    1SOL    MW4 1468   0.880   0.368   0.843  0.0761 -0.1852 -0.1045
    1SOL     OW 1469   4.419   4.213   0.326  0.1720 -0.0622  0.1242
    1SOL    HW2 1470   4.377   4.130   0.347  1.0177 -0.7354 -0.8246
    1SOL    HW3 1471   4.413   4.264   0.407 -1.8897 -0.3836  0.1854
    1SOL    MW4 1472   4.413   4.209   0.339  0.0114 -0.1931  0.0071
    1SOL     OW 1473   1.678   0.198   0.493  0.0684 -0.3927  0.1050
    1SOL    HW2 1474   1.698   0.164   0.580 -0.8505 -0.8427  0.1503
    1SOL    HW3 1475   1.762   0.200   0.447  0.4912 -0.5274  0.8688
    1SOL    MW4 1476   1.692   0.194   0.498  0.0030 -0.4699  0.2118
    1SOL     OW 1477   0.149   2.127   0.310  0.1362 -0.0288 -0.0526
    1SOL    HW2 1478   0.131   2.111   0.218  1.5163  1.1131 -0.5498
    1SOL    HW3 1479   0.097   2.062   0.357 -0.6252 -0.5785 -1.6292
    1SOL    MW4 1480   0.140   2.117   0.304  0.2178  0.0494 -0.3262
    1SOL     OW 1481   2.236   0.382   1.137 -0.0090 -0.3926  0.8681
    1SOL    HW2 1482   2.231   0.373   1.041 -1.3543 -0.0768  0.8975
    1SOL    HW3 1483   2.170   0.448   1.158  0.4595 -0.2827  1.9937
    1SOL    MW4 1484   2.227   0.389   1.127 -0.1247 -0.3364  1.0203
    1SOL     OW 1485   4.308   0.578   0.696 -0.1922 -0.1952  0.3537
    1SOL    HW2 1486   4.233   0.615   0.649  0.3677 -0.1919 -0.5597
    1SOL    HW3 1487   4.383   0.632   0.668  0.0633  0.1318  1.6589
    1SOL    MW4 1488   4.308   0.590   0.686 -0.0844 -0.1516  0.4054
    1SOL     OW 1489   2.548   0.625   0.388 -0.2269 -0.4682 -0.0233
    1SOL    HW2 1490   2.603   0.583   0.321 -0.9395  0.3478 -1.1280
    1SOL    HW3 1491   2.588   0.710   0.402 -0.9257 -0.0624 -0.4765
    1SOL    MW4 1492   2.561   0.630   0.381 -0.4127 -0.3070 -0.2289
    1SOL     OW 1493   2.693   1.373   0.354 -0.0889 -0.2748  0.2677
    1SOL    HW2 1494   2.669   1.285   0.325 -0.5602 -0.0471 -0.0264
    1SOL    HW3 1495   2.786   1.366   0.376 -0.1789 -0.9009  0.4516
    1SOL    MW4 1496   2.702   1.361   0.353 -0.1628 -0.3273  0.2532
    1SOL     OW 1497   2.470   1.330   0.724 -0.1679 -0.5125  0.0460
    1SOL    HW2 1498   2.454   1.347   0.631 -0.7097  0.6234  0.3414
    1SOL    HW3 1499   2.394   1.281   0.754 -0.3491 -0.2211  0.0646
    1SOL    MW4 1500   2.458   1.326   0.716 -0.2635 -0.3242  0.0874
    1SOL     OW 1501   2.232   1.197   0.803 -0.0568  0.2661  0.2555
    1SOL    HW2 1502   2.226   1.117   0.750 -2.0582  0.8827 -0.5169
    1SOL    HW3 1503   2.226   1.167   0.893 -1.8948 -0.3935 -0.0632
    1SOL    MW4 1504   2.230   1.183   0.808 -0.5634  0.2605  0.1116
    1SOL     OW 1505   1.555   1.568   0.811  0.4150 -0.1530 -0.7852
    1SOL    HW2 1506   1.546   1.558   0.906 -0.5938  0.2382 -0.8303
    1SOL    HW3 1507   1.538   1.481   0.775 -0.4809 -0.0331 -0.6780
    1SOL    MW4 1508   1.551   1.555   0.819  0.1637 -0.0856 -0.7771
    1SOL     OW 1509   3.113   0.852   0.716 -0.1714  0.0638 -0.4732
    1SOL    HW2 1510   3.186   0.813   0.764  0.9618  0.2740 -1.9955
    1SOL    HW3 1511   3.108   0.942   0.748  0.8943  0.3460 -1.0861
    1SOL    MW4 1512   3.122   0.859   0.726  0.1185  0.1287 -0.7549
    1SOL     OW 1513   1.222   0.575   0.487  0.4688 -0.1746 -0.1302
    1SOL    HW2 1514   1.189   0.544   0.571  1.2095  0.7966  0.5385
    1SOL    HW3 1515   1.301   0.523   0.472  1.6262  1.2242  0.9166
    1SOL    MW4 1516   1.228   0.564   0.496  0.7192  0.1380  0.0962
    1SOL     OW 1517   2.223   1.960   0.828 -0.4162 -0.0214 -0.2228
    1SOL    HW2 1518   2.163   1.983   0.757  0.4125 -0.0632 -0.9440
    1SOL    HW3 1519   2.311   1.972   0.791  0.0267  0.3456  0.9199
    1SOL    MW4 1520   2.227   1.964   0.814 -0.2484  0.0213 -0.1672
    1SOL     OW 1521   2.416   3.650   0.457  0.2301 -0.2932  0.0007
    1SOL    HW2 1522   2.338   3.601   0.431 -0.4056 -0.6050  2.3339
    1SOL    HW3 1523   2.386   3.741   0.464  0.4864 -0.1529 -0.6779
    1SOL    MW4 1524   2.402   3.655   0.455  0.1800 -0.3159  0.2190
    1SOL     OW 1525   3.356   2.819   0.429 -0.0960  0.7584  0.1926
    1SOL    HW2 1526   3.344   2.823   0.524 -0.8044  0.1141  0.1367
    1SOL    HW3 1527   3.313   2.738   0.403 -0.5336  1.2914 -0.7730
    1SOL    MW4 1528   3.349   2.809   0.438 -0.2472  0.7434  0.0578
    1SOL     OW 1529   2.265   2.442   0.760 -0.0945 -0.0437  0.2444
    1SOL    HW2 1530   2.180   2.401   0.776 -0.9570  0.2174 -3.3164
    1SOL    HW3 1531   2.253   2.534   0.785 -0.8464 -0.0191 -0.1929
    1SOL    MW4 1532   2.253   2.449   0.766 -0.3076 -0.0057 -0.2831
    1SOL     OW 1533   2.208   2.698   0.806  0.8937  0.4490  0.3148
    1SOL    HW2 1534   2.202   2.712   0.900 -0.1143  0.3409  0.2712
    1SOL    HW3 1535   2.287   2.746   0.780  1.2092  0.4286  1.2184
    1SOL    MW4 1536   2.217   2.706   0.815  0.8023  0.4323  0.4283
    1SOL     OW 1537   2.082   4.489   0.408 -0.3502 -0.5674  0.1521
    1SOL    HW2 1538   2.178   4.491   0.406 -0.2827 -1.7519  1.2834
    1SOL    HW3 1539   2.060   4.402   0.439 -1.7530  0.2658  1.6184
    1SOL    MW4 1540   2.092   4.478   0.412 -0.5264 -0.6137  0.4948
    1SOL     OW 1541   1.760   4.311   0.861  0.4141 -0.1123  0.4636
    1SOL    HW2 1542   1.774   4.274   0.948 -0.4613 -0.2158  0.5626
    1SOL    HW3 1543   1.744   4.236   0.805  1.1522 -0.0578  0.1786
    1SOL    MW4 1544   1.760   4.296   0.865  0.3960 -0.1187  0.4391
    1SOL     OW 1545   2.086   3.237   0.514  0.2082 -0.1103 -0.1111
    1SOL    HW2 1546   2.114   3.148   0.491 -0.6908 -0.1311 -1.1794
    1SOL    HW3 1547   2.139   3.260   0.590  1.4334 -1.0369 -0.6704
    1SOL    MW4 1548   2.096   3.228   0.521  0.2515 -0.2353 -0.3259
    1SOL     OW 1549   2.988   2.628   0.294 -0.0775  0.2119 -0.1283
    1SOL    HW2 1550   2.949   2.543   0.309  0.0959  0.1575  0.0112
    1SOL    HW3 1551   3.083   2.612   0.294  0.0249  0.6637  1.5412
    1SOL    MW4 1552   2.996   2.615   0.296 -0.0410  0.2644  0.1104
    1SOL     OW 1553   1.278   3.544   0.332 -0.0653 -0.3346 -0.0209
    1SOL    HW2 1554   1.349   3.607   0.316 -0.1748  0.3857  2.2286
    1SOL    HW3 1555   1.206   3.596   0.367 -0.7514 -1.4844  0.3240
    1SOL    MW4 1556   1.278   3.559   0.334 -0.1704 -0.3912  0.3214
    1SOL     OW 1557   1.733   4.073   0.695  0.0516  0.5132  0.0028
    1SOL    HW2 1558   1.810   4.029   0.731  0.1878  0.3149 -0.5191
    1SOL    HW3 1559   1.659   4.022   0.728  0.0609  1.5499  1.6755
    1SOL    MW4 1560   1.734   4.061   0.704  0.0708  0.6237  0.1547
    1SOL     OW 1561   3.147   3.998   0.685  0.3293 -0.0832  0.1727
    1SOL    HW2 1562   3.070   3.951   0.715  0.1559  0.0172 -0.1127
    1SOL    HW3 1563   3.219   3.936   0.697  0.0717 -0.5025 -0.3950
    1SOL    MW4 1564   3.146   3.984   0.690  0.2723 -0.1249  0.0602
    1SOL     OW 1565   2.199   2.066   0.243 -0.6651  0.5806 -0.4494
    1SOL    HW2 1566   2.262   2.130   0.274 -1.3553 -0.0038  2.2379
    1SOL    HW3 1567   2.252   1.997   0.202  0.2512  1.4449 -0.7200
    1SOL    MW4 1568   2.214   2.065   0.241 -0.6354  0.6175 -0.1305
    1SOL     OW 1569   2.307   1.200   0.316  0.0083 -0.1029  0.0564
    1SOL    HW2 1570   2.230   1.236   0.271  0.5915  0.2424 -0.6663
    1SOL    HW3 1571   2.270   1.137   0.379 -0.8840  0.2733 -0.0801
    1SOL    MW4 1572   2.292   1.196   0.319 -0.0322 -0.0076 -0.0570
    1SOL     OW 1573   2.875   0.732   0.794 -0.3498  0.1167  0.4187
    1SOL    HW2 1574   2.874   0.726   0.890 -0.5349 -0.8281  0.3579
    1SOL    HW3 1575   2.948   0.791   0.775  0.1478 -0.2585  1.1146
    1SOL    MW4 1576   2.885   0.739   0.804 -0.3088 -0.0574  0.5025
    1SOL     OW 1577   3.020   3.858   0.373  0.0483  0.1100 -0.5689
    1SOL    HW2 1578   2.925   3.866   0.365  0.0526  1.8194  0.8786
    1SOL    HW3 1579   3.036   3.764   0.385 -1.6472  0.0998  1.6918
    1SOL    MW4 1580   3.010   3.846   0.373 -0.1748  0.3343 -0.0796
    1SOL     OW 1581   2.421   0.778   0.828 -0.3780  0.1198  0.1480
    1SOL    HW2 1582   2.499   0.813   0.785 -0.2816  0.1505  0.3478
    1SOL    HW3 1583   2.423   0.684   0.807 -0.2473  0.1072  0.2109
    1SOL    MW4 1584   2.432   0.770   0.820 -0.3476  0.1221  0.1827
    1SOL     OW 1585   1.943   1.004   0.413 -0.4929 -0.1006  0.5446
    1SOL    HW2 1586   1.888   0.950   0.471 -1.1672 -0.6596 -0.6039
    1SOL    HW3 1587   1.919   0.976   0.325 -0.1603  1.4367 -0.0349
    1SOL    MW4 1588   1.932   0.993   0.409 -0.5380  0.0285  0.3166
    1SOL     OW 1589   2.966   1.038   0.321 -0.3757 -0.0304  0.6001
    1SOL    HW2 1590   2.969   1.118   0.373 -1.9263 -0.1446  0.9055
    1SOL    HW3 1591   2.904   1.058   0.250 -0.8029 -0.9524  0.7031
    1SOL    MW4 1592   2.958   1.051   0.319 -0.6366 -0.1671  0.6540
    1SOL     OW 1593   1.068   2.849   0.516 -0.1054  0.0503  0.4237
    1SOL    HW2 1594   0.992   2.891   0.475 -0.2014 -0.2224  0.3210
    1SOL    HW3 1595   1.132   2.842   0.445 -0.4771 -0.9284  0.1787
    1SOL    MW4 1596   1.067   2.854   0.501 -0.1670 -0.1149  0.3778
    1SOL     OW 1597   3.234   2.555   0.434  0.2724 -0.2924  0.0118
    1SOL    HW2 1598   3.187   2.542   0.516  0.6480 -0.3356  0.2207
    1SOL    HW3 1599   3.320   2.517   0.449  1.0044  1.4081  0.2448
    1SOL    MW4 1600   3.239   2.548   0.447  0.4182 -0.0739  0.0701
    1SOL     OW 1601   2.704   1.650   0.709 -0.1839 -0.3047 -0.4488
    1SOL    HW2 1602   2.707   1.668   0.615  2.7232  1.0936 -0.1591
    1SOL    HW3 1603   2.722   1.735   0.750  1.6823 -1.4850  1.2697
    1SOL    MW4 1604   2.707   1.664   0.702  0.4456 -0.2759 -0.1838
    1SOL     OW 1605   3.133   1.656   0.721  0.1634 -0.2482  0.6019
    1SOL    HW2 1606   3.162   1.669   0.630  1.4607  0.2693  1.0876
    1SOL    HW3 1607   3.136   1.744   0.759  2.3004 -0.8740  1.9351
    1SOL    MW4 1608   3.137   1.669   0.714  0.6166 -0.2624  0.8419
    1SOL     OW 1609   4.285   0.197   0.536 -0.0772  0.0457 -0.0683
    1SOL    HW2 1610   4.288   0.187   0.631 -0.2275 -0.5013 -0.1217
    1SOL    HW3 1611   4.362   0.251   0.516  0.1502 -0.1272  0.3270
    1SOL    MW4 1612   4.296   0.203   0.546 -0.0668 -0.0493 -0.0232
    1SOL     OW 1613   1.775   2.581   0.424 -0.0773  0.2043 -0.2211
    1SOL    HW2 1614   1.770   2.544   0.512 -1.6792 -0.0867 -0.4178
    1SOL    HW3 1615   1.709   2.650   0.423 -0.0127  0.2669 -1.1666
    1SOL    MW4 1616   1.766   2.586   0.435 -0.2800  0.1743 -0.3718
    1SOL     OW 1617   2.654   1.146   0.830  0.2837  0.0912  0.6248
    1SOL    HW2 1618   2.729   1.173   0.778 -0.2019 -1.5847 -1.0096
    1SOL    HW3 1619   2.583   1.204   0.801  0.8224  1.3757  1.8463
    1SOL    MW4 1620   2.654   1.157   0.819  0.2904  0.0395  0.5702
    1SOL     OW 1621   2.862   2.322   0.647 -0.0994  0.1982  0.4572
    1SOL    HW2 1622   2.800   2.363   0.708  0.6553  0.3770  1.1253
    1SOL    HW3 1623   2.873   2.233   0.680  1.0380  0.5857  1.1579
    1SOL    MW4 1624   2.855   2.316   0.660  0.1502  0.2730  0.6378
    1SOL     OW 1625   2.698   2.423   0.843  0.2985 -0.1073  0.2608
    1SOL    HW2 1626   2.756   2.417   0.920 -0.3307 -0.3515  0.7206
    1SOL    HW3 1627   2.680   2.517   0.835  1.0474  0.0086 -0.1037
    1SOL    MW4 1628   2.703   2.435   0.852  0.3142 -0.1245  0.2734
    1SOL     OW 1629   2.652   2.697   0.829 -0.2187  0.3394  0.2688
    1SOL    HW2 1630   2.724   2.752   0.801 -0.6439  0.1965 -1.1260
    1SOL    HW3 1631   2.647   2.710   0.924  0.0692  2.2198  0.0356
    1SOL    MW4 1632   2.661   2.706   0.838 -0.2367  0.5686  0.0541
    1SOL     OW 1633   1.088   1.263   0.747 -0.1299 -0.0851  0.0435
    1SOL    HW2 1634   1.031   1.197   0.786 -0.1804  0.7408  1.4071
    1SOL    HW3 1635   1.058   1.271   0.656 -1.2874 -0.6268  0.3721
    1SOL    MW4 1636   1.077   1.256   0.740 -0.2892 -0.0476  0.2667
    1SOL     OW 1637   1.289   1.429   0.510  0.0788  0.1064  0.1478
    1SOL    HW2 1638   1.335   1.470   0.437  0.4216 -0.9520 -0.2398
    1SOL    HW3 1639   1.205   1.403   0.474  0.5143 -1.0395 -0.0670
    1SOL    MW4 1640   1.284   1.431   0.496  0.1816 -0.1844  0.0683
    1SOL     OW 1641   2.439   3.102   0.862 -0.6417  0.2622  0.3567
    1SOL    HW2 1642   2.509   3.151   0.819  0.6089 -1.8126 -0.0392
    1SOL    HW3 1643   2.449   3.122   0.955 -1.6887  2.6551 -0.0027
    1SOL    MW4 1644   2.449   3.111   0.868 -0.6149  0.3040  0.2570
    1SOL     OW 1645   2.726   3.506   0.805 -0.4384  0.4412  0.6147
    1SOL    HW2 1646   2.818   3.529   0.790 -0.7981  2.1646  0.8636
    1SOL    HW3 1647   2.722   3.484   0.898 -0.2105 -0.0037  0.5214
    1SOL    MW4 1648   2.738   3.506   0.815 -0.4559  0.6099  0.6353
    1SOL     OW 1649   2.957   3.589   0.689  0.3783 -0.4828  0.0444
    1SOL    HW2 1650   3.022   3.558   0.753 -0.1908  0.6326  1.1838
    1SOL    HW3 1651   2.931   3.675   0.722  0.2592  0.2253 -1.8372
    1SOL    MW4 1652   2.962   3.597   0.702  0.2878 -0.2425 -0.0536
    1SOL     OW 1653   2.377   2.854   0.485  0.0827  0.2426  0.4052
    1SOL    HW2 1654   2.392   2.855   0.580 -0.0165  0.7880  0.4150
    1SOL    HW3 1655   2.357   2.762   0.465  0.3204  0.0855  0.8764
    1SOL    MW4 1656   2.377   2.842   0.495  0.1009  0.2940  0.4687
    1SOL     OW 1657   0.657   4.530   0.528 -0.1751  0.2856  0.0998
    1SOL    HW2 1658   0.651   4.513   0.622 -0.8408  0.8999  0.1723
    1SOL    HW3 1659   0.570   4.559   0.503 -0.2197 -0.6654 -0.8735
    1SOL    MW4 1660   0.645   4.532   0.537 -0.2688  0.2413 -0.0190
    1SOL     OW 1661   2.704   3.987   0.706 -0.0698  0.5652 -0.0813
    1SOL    HW2 1662   2.700   4.073   0.749 -0.2092  0.0231  1.0007
    1SOL    HW3 1663   2.638   3.935   0.751  2.2379 -1.1060  1.5090
    1SOL    MW4 1664   2.695   3.992   0.718  0.2162  0.2732  0.2713
    1SOL     OW 1665   2.903   1.242   0.739 -0.2803  0.2474 -0.1588
    1SOL    HW2 1666   2.909   1.333   0.771 -0.8360  0.0101  0.6377
    1SOL    HW3 1667   2.962   1.193   0.797 -0.5600 -0.0292 -0.1089
    1SOL    MW4 1668   2.912   1.248   0.751 -0.3903  0.1795 -0.0471
    1SOL     OW 1669   1.990   0.502   0.725  0.7603 -0.2343  0.1930
    1SOL    HW2 1670   1.920   0.447   0.758  0.1029 -0.4061 -1.4500
    1SOL    HW3 1671   1.982   0.584   0.774 -0.9064 -0.0650 -0.3445
    1SOL    MW4 1672   1.980   0.506   0.736  0.4538 -0.2347 -0.0947
    1SOL     OW 1673   2.375   0.444   0.491  0.5137 -0.5679 -0.2427
    1SOL    HW2 1674   2.432   0.502   0.441 -0.1007  0.3824  0.1635
    1SOL    HW3 1675   2.382   0.474   0.581 -1.2892  0.1031 -0.3073
    1SOL    MW4 1676   2.384   0.456   0.496  0.1948 -0.3540 -0.1977
    1SOL     OW 1677   1.085   2.095   0.445 -0.1028  0.3969  0.0354
    1SOL    HW2 1678   1.151   2.144   0.397 -1.0216  0.4733 -1.1702
    1SOL    HW3 1679   1.128   2.070   0.527  1.7639 -0.5062 -1.1980
    1SOL    MW4 1680   1.099   2.098   0.450  0.0223  0.2878 -0.2864
    1SOL     OW 1681   3.099   0.409   0.854 -0.1774 -0.0439  0.3423
    1SOL    HW2 1682   3.110   0.402   0.948  0.5785 -1.0330  0.1875
    1SOL    HW3 1683   3.188   0.411   0.819 -0.4558 -0.6545 -0.4116
    1SOL    MW4 1684   3.112   0.409   0.862 -0.1144 -0.2550  0.2224
    1SOL     OW 1685   2.560   2.047   0.465  0.2791 -0.2264 -0.1557
    1SOL    HW2 1686   2.651   2.068   0.441  0.8614 -3.2595 -0.8446
    1SOL    HW3 1687   2.542   1.964   0.420 -2.8641  0.3252 -0.0350
    1SOL    MW4 1688   2.570   2.039   0.456 -0.0587 -0.5541 -0.2306
    1SOL     OW 1689   2.414   0.501   0.772 -0.0226 -0.5767 -0.6062
    1SOL    HW2 1690   2.342   0.446   0.800 -0.7288  1.0427  0.8477
    1SOL    HW3 1691   2.492   0.463   0.813 -0.4480 -0.7032  0.0736
    1SOL    MW4 1692   2.415   0.489   0.781 -0.1719 -0.3797 -0.3247
    1SOL     OW 1693   3.728   4.370   0.765  0.2818  0.1053  0.2248
    1SOL    HW2 1694   3.652   4.327   0.804  1.1219 -1.2202  0.4403
    1SOL    HW3 1695   3.716   4.358   0.671  0.1975 -0.0514  0.2549
    1SOL    MW4 1696   3.716   4.363   0.758  0.3812 -0.0901  0.2571
    1SOL     OW 1697   3.374   1.512   0.785  0.0218  0.3517 -0.0712
    1SOL    HW2 1698   3.302   1.558   0.743 -0.8392 -0.6900  0.2315
    1SOL    HW3 1699   3.358   1.524   0.879 -1.0842 -1.8333  0.0465
    1SOL    MW4 1700   3.362   1.520   0.792 -0.2379 -0.0739 -0.0158
    1SOL     OW 1701   2.197   0.891   0.737  0.1511  0.0173 -0.0779
    1SOL    HW2 1702   2.220   0.897   0.644  1.8061  1.0317  0.3784
    1SOL    HW3 1703   2.272   0.847   0.777  0.3710  1.4356  1.1065
    1SOL    MW4 1704   2.210   0.886   0.730  0.3984  0.3382  0.1386
    1SOL     OW 1705   3.568   0.825   0.697 -0.3771 -0.7610 -0.6214
    1SOL    HW2 1706   3.582   0.778   0.615 -0.0316 -1.9207  0.0999
    1SOL    HW3 1707   3.645   0.805   0.750 -1.0025 -0.7174  0.3171
    1SOL    MW4 1708   3.580   0.817   0.693 -0.4139 -0.9082 -0.4024
    1SOL     OW 1709   4.018   2.367   0.489 -0.2588  0.2447  0.0999
    1SOL    HW2 1710   4.022   2.372   0.585  0.0124  0.0964  0.0958
    1SOL    HW3 1711   3.958   2.438   0.464  0.3961  0.8853  0.3214
    1SOL    MW4 1712   4.011   2.377   0.499 -0.1369  0.3095  0.1287
    1SOL     OW 1713   1.566   3.918   0.835  0.1089 -0.3258 -0.1098
    1SOL    HW2 1714   1.473   3.937   0.818  0.3511 -0.0319 -1.1473
    1SOL    HW3 1715   1.577   3.827   0.809  0.1878 -0.2583 -0.3139
    1SOL    MW4 1716   1.555   3.908   0.829  0.1513 -0.2780 -0.2736
    1SOL     OW 1717   3.832   0.346   0.562  0.1533 -0.0380  0.2324
    1SOL    HW2 1718   3.904   0.294   0.527 -0.0885 -1.7678  2.1928
    1SOL    HW3 1719   3.755   0.291   0.548 -0.5958  1.2400 -0.6765
    1SOL    MW4 1720   3.831   0.332   0.556  0.0224 -0.0975  0.3713
    1SOL     OW 1721   3.650   2.808   0.413  0.4908 -0.2979  0.0911
    1SOL    HW2 1722   3.555   2.815   0.405  0.4115 -1.2124  0.1140
    1SOL    HW3 1723   3.684   2.889   0.375 -0.3560  0.6820  1.4134
    1SOL    MW4 1724   3.642   2.819   0.407  0.3684 -0.2892  0.2686
    1SOL     OW 1725   2.884   2.885   0.767 -0.0815 -0.0011 -0.2924
    1SOL    HW2 1726   2.963   2.854   0.811 -0.6895 -1.8257 -0.4554
    1SOL    HW3 1727   2.903   2.876   0.674 -0.2598  0.1550 -0.3456
    1SOL    MW4 1728   2.897   2.880   0.760 -0.1848 -0.2210 -0.3209
    1SOL     OW 1729   1.785   1.690   0.724  0.2159  0.0700  0.3612
    1SOL    HW2 1730   1.712   1.649   0.770  0.1610  0.1067  0.3060
    1SOL    HW3 1731   1.863   1.646   0.759  0.1657  0.0110  0.3982
    1SOL    MW4 1732   1.786   1.679   0.735  0.2021  0.0671  0.3588
    1SOL     OW 1733   1.374   3.298   0.460 -0.0387  0.0904 -0.2001
    1SOL    HW2 1734   1.465   3.325   0.451 -0.6775  3.4221  2.4332
    1SOL    HW3 1735   1.324   3.367   0.416 -1.4278 -0.3542  0.6691
    1SOL    MW4 1736   1.379   3.311   0.453 -0.3062  0.4714  0.2620
    1SOL     OW 1737   3.074   3.202   0.776 -0.2075 -0.1798  0.4216
    1SOL    HW2 1738   2.998   3.172   0.825 -0.1053 -0.1723  0.5850
    1SOL    HW3 1739   3.073   3.150   0.695 -0.9879  0.5678 -0.0571
    1SOL    MW4 1740   3.064   3.191   0.772 -0.2968 -0.0803  0.3801
    1SOL     OW 1741   3.130   3.467   0.873  0.2602 -0.1550  0.1735
    1SOL    HW2 1742   3.127   3.375   0.846  0.5570 -0.5140  1.3419
    1SOL    HW3 1743   3.126   3.464   0.968 -0.3661  1.0808  0.1931
    1SOL    MW4 1744   3.129   3.455   0.882  0.2167 -0.0393  0.3302
    1SOL     OW 1745   3.392   3.612   0.476 -0.3681 -0.5298 -0.3899
    1SOL    HW2 1746   3.300   3.597   0.453 -0.1028 -0.7436 -1.3356
    1SOL    HW3 1747   3.397   3.593   0.570 -1.6906  1.4297  0.0808
    1SOL    MW4 1748   3.381   3.607   0.485 -0.5076 -0.2992 -0.4526
    1SOL     OW 1749   3.602   3.972   0.770 -0.0477 -0.3600  0.2970
    1SOL    HW2 1750   3.542   3.905   0.802  0.1048 -0.2404  0.8355
    1SOL    HW3 1751   3.688   3.942   0.796 -0.0028  0.1853  0.7819
    1SOL    MW4 1752   3.605   3.959   0.777 -0.0215 -0.2723  0.4320
    1SOL     OW 1753   0.098   0.310   0.567 -0.0434  0.2788 -0.2676
    1SOL    HW2 1754   0.161   0.379   0.544 -0.4928  1.2564  1.3177
    1SOL    HW3 1755   0.068   0.334   0.655 -2.2430 -0.4635 -0.7957
    1SOL    MW4 1756   0.103   0.322   0.576 -0.3929  0.3099 -0.1281
    1SOL     OW 1757   3.138   4.259   0.790 -0.0993 -0.1954 -0.2938
    1SOL    HW2 1758   3.069   4.307   0.745 -0.3035 -0.5507 -0.3582
    1SOL    HW3 1759   3.141   4.174   0.746 -0.8604 -0.8473  0.8952
    1SOL    MW4 1760   3.129   4.254   0.778 -0.2267 -0.3285 -0.1454
    1SOL     OW 1761   2.994   0.779   0.457  0.3391 -0.0641  0.1733
    1SOL    HW2 1762   3.047   0.800   0.533  0.5199 -0.4520  0.1571
    1SOL    HW3 1763   2.983   0.863   0.412  0.4608  0.1185  0.4775
    1SOL    MW4 1764   3.000   0.793   0.461  0.3791 -0.0912  0.2113
    1SOL     OW 1765   2.014   1.588   0.832  0.2458  0.3086  0.3359
    1SOL    HW2 1766   2.010   1.496   0.807  1.3296  0.2549  0.3577
    1SOL    HW3 1767   2.085   1.624   0.780  1.7005  0.4880  2.4050
    1SOL    MW4 1768   2.023   1.581   0.822  0.5808  0.3252  0.6118
    1SOL     OW 1769   3.083   0.136   0.796 -0.2053  0.3041 -0.1918
    1SOL    HW2 1770   3.098   0.228   0.818  1.1068  0.5047 -1.8258
    1SOL    HW3 1771   3.165   0.092   0.819 -0.5136 -0.2991 -0.2328
    1SOL    MW4 1772   3.096   0.142   0.802 -0.0727  0.2510 -0.4128
    1SOL     OW 1773   3.606   0.352   0.903 -0.1584 -0.2975  0.0179
    1SOL    HW2 1774   3.692   0.382   0.874  0.1160 -1.4380 -0.3734
    1SOL    HW3 1775   3.610   0.352   0.998  0.4934 -0.9635 -0.0094
    1SOL    MW4 1776   3.618   0.356   0.912 -0.0362 -0.5358 -0.0374
    1SOL     OW 1777   0.681   0.456   0.673 -0.3291  0.1162 -0.1174
    1SOL    HW2 1778   0.610   0.393   0.684 -0.9883  1.1077  1.4039
    1SOL    HW3 1779   0.749   0.426   0.733 -0.5200  0.6785  0.3780
    1SOL    MW4 1780   0.681   0.443   0.682 -0.4412  0.3212  0.1487
    1SOL     OW 1781   3.784   0.738   0.827 -0.2038  0.4112  0.0264
    1SOL    HW2 1782   3.783   0.734   0.923 -0.4496 -0.6431 -0.0117
    1SOL    HW3 1783   3.853   0.801   0.806  0.5965 -0.1692  0.8751
    1SOL    MW4 1784   3.793   0.746   0.837 -0.1307  0.1955  0.1334
    1SOL     OW 1785   1.531   1.778   0.441  0.1901 -0.0141 -0.0654
    1SOL    HW2 1786   1.487   1.704   0.399 -0.2678  0.3334 -0.2116
    1SOL    HW3 1787   1.614   1.742   0.473  0.0445 -0.5485 -0.2770
    1SOL    MW4 1788   1.536   1.763   0.440  0.1105 -0.0387 -0.1126
    1SOL     OW 1789   3.828   1.474   0.790  0.2104 -0.1217  0.1829
    1SOL    HW2 1790   3.819   1.388   0.750  2.1423  0.0391 -0.6685
    1SOL    HW3 1791   3.759   1.527   0.749  0.0647 -0.8405 -0.4993
    1SOL    MW4 1792   3.817   1.470   0.779  0.4461 -0.1953 -0.0194
    1SOL     OW 1793   3.072   2.195   0.328  0.6490 -0.1079  0.2404
    1SOL    HW2 1794   3.137   2.201   0.398  0.9870  0.6756 -0.1316
    1SOL    HW3 1795   3.103   2.123   0.273  0.1864 -0.9719  1.0795
    1SOL    MW4 1796   3.085   2.186   0.330  0.6328 -0.1185  0.3020
    1SOL     OW 1797   4.261   2.817   0.713 -0.3920  0.1001  0.1553
    1SOL    HW2 1798   4.333   2.757   0.734 -0.2228 -0.0951 -0.9434
    1SOL    HW3 1799   4.285   2.899   0.755  0.2729 -0.0792  0.1380
    1SOL    MW4 1800   4.273   2.820   0.722 -0.2818  0.0508  0.0080
    1SOL     OW 1801   1.118   0.513   0.725 -0.2279 -0.4836 -0.3163
    1SOL    HW2 1802   1.186   0.450   0.748  0.2254  0.2614  0.4278
    1SOL    HW3 1803   1.036   0.468   0.744  0.1080 -0.6041  0.8525
    1SOL    MW4 1804   1.116   0.499   0.730 -0.1239 -0.4012 -0.0639
    1SOL     OW 1805   3.882   2.605   0.442  0.3614  0.3452  0.8298
    1SOL    HW2 1806   3.812   2.665   0.418 -0.6332 -0.9925  0.2966
    1SOL    HW3 1807   3.955   2.661   0.466  0.6056  1.7393 -2.9351
    1SOL    MW4 1808   3.882   2.620   0.442  0.2625  0.3526  0.2628
    1SOL     OW 1809   3.268   2.335   0.830 -0.4488 -0.0586  0.1306
    1SOL    HW2 1810   3.292   2.328   0.922 -0.2042  0.1418  0.0818
    1SOL    HW3 1811   3.270   2.244   0.798  1.3164  0.0481 -0.1415
    1SOL    MW4 1812   3.271   2.322   0.838 -0.1833 -0.0181  0.0883
    1SOL     OW 1813   3.764   2.327   1.124  0.1319 -0.2144 -0.1567
    1SOL    HW2 1814   3.840   2.377   1.153  0.7236 -1.3067  0.1981
    1SOL    HW3 1815   3.769   2.330   1.028 -0.6381  1.5924 -0.1631
    1SOL    MW4 1816   3.775   2.334   1.115  0.1087 -0.1204 -0.1107
    1SOL     OW 1817   1.739   2.085   0.327 -0.0376  0.3501  0.4377
    1SOL    HW2 1818   1.741   2.175   0.295  0.9516  0.1484 -0.0780
    1SOL    HW3 1819   1.829   2.067   0.354  0.2371 -1.1695 -1.4141
    1SOL    MW4 1820   1.751   2.095   0.327  0.1292  0.1230  0.1253
    1SOL     OW 1821   3.533   2.691   0.834  0.2203 -0.0529 -0.2959
    1SOL    HW2 1822   3.574   2.689   0.920 -0.1969 -0.2890 -0.1029
    1SOL    HW3 1823   3.600   2.729   0.777  1.7250 -2.8212 -0.5020
    1SOL    MW4 1824   3.547   2.696   0.838  0.3641 -0.4494 -0.2975
    1SOL     OW 1825   1.969   3.672   0.471 -0.1042  0.4241  0.1873
    1SOL    HW2 1826   1.877   3.670   0.447 -0.4259  0.1412  1.3915
    1SOL    HW3 1827   1.969   3.661   0.566  1.1574  0.6634  0.2250
    1SOL    MW4 1828   1.957   3.671   0.480  0.0198  0.4182  0.3511
    1SOL     OW 1829   3.800   3.064   0.831 -0.4104  0.3175  0.0917
    1SOL    HW2 1830   3.722   3.108   0.799 -0.8288 -0.7416 -0.3462
    1SOL    HW3 1831   3.795   2.976   0.795  0.8747  0.1730  0.2389
    1SOL    MW4 1832   3.789   3.058   0.822 -0.2961  0.1588  0.0532
    1SOL     OW 1833   4.314   2.487   0.496  0.4411  0.2197 -0.0352
    1SOL    HW2 1834   4.222   2.465   0.508  0.0031  0.6709 -2.4156
    1SOL    HW3 1835   4.315   2.579   0.471  1.6963  0.7349  1.7685
    1SOL    MW4 1836   4.302   2.496   0.494  0.5488  0.3471 -0.1113
    1SOL     OW 1837   3.575   3.199   0.757  0.4282 -0.3150 -0.0814
    1SOL    HW2 1838   3.573   3.171   0.665 -0.1169 -1.7690  0.3562
    1SOL    HW3 1839   3.487   3.179   0.790  0.1876  1.4869  0.3875
    1SOL    MW4 1840   3.563   3.192   0.749  0.3247 -0.2694  0.0382
    1SOL     OW 1841   4.030   4.031   0.412  0.0332 -0.2360 -0.4214
    1SOL    HW2 1842   4.125   4.031   0.398  0.0677  0.2234 -0.2089
    1SOL    HW3 1843   4.002   4.118   0.383 -0.2673 -0.2296 -0.1111
    1SOL    MW4 1844   4.039   4.042   0.406 -0.0019 -0.1740 -0.3525
    1SOL     OW 1845   3.817   3.584   0.721  0.3822 -0.2079  0.7395
    1SOL    HW2 1846   3.886   3.521   0.745  0.1832 -1.0185 -0.7355
    1SOL    HW3 1847   3.820   3.587   0.625 -2.2635 -0.9796  0.6023
    1SOL    MW4 1848   3.827   3.576   0.711  0.0069 -0.4168  0.5268
    1SOL     OW 1849   0.590   1.541   0.390 -0.1346 -0.5561 -0.1963
    1SOL    HW2 1850   0.525   1.553   0.320  0.8153 -0.3290 -1.0508
    1SOL    HW3 1851   0.538   1.531   0.469 -1.1660  1.8211 -0.5456
    1SOL    MW4 1852   0.574   1.541   0.391 -0.1454 -0.2127 -0.3551
    1SOL     OW 1853   2.206   3.521   0.825 -0.3336 -0.4715 -0.3694
    1SOL    HW2 1854   2.220   3.427   0.814 -0.0354 -0.4961  0.2092
    1SOL    HW3 1855   2.291   3.560   0.804 -0.4945 -0.3199 -0.7452
    1SOL    MW4 1856   2.219   3.514   0.820 -0.3152 -0.4549 -0.3427
    1SOL     OW 1857   0.921   4.184   0.609 -0.6046 -0.2875  0.1382
    1SOL    HW2 1858   0.871   4.107   0.634 -0.5438 -0.9329 -1.6420
    1SOL    HW3 1859   0.876   4.218   0.531 -0.3585  1.2001  0.6270
    1SOL    MW4 1860   0.908   4.179   0.602 -0.5640 -0.1760 -0.0322
    1SOL     OW 1861   4.376   4.616   0.888 -0.2414 -0.0864 -0.4782
    1SOL    HW2 1862   4.344   4.603   0.978 -0.8351 -0.4560 -0.7345
    1SOL    HW3 1863   4.339   4.700   0.862  0.6733  0.4516 -0.0648
    1SOL    MW4 1864   4.367   4.625   0.897 -0.1993 -0.0644 -0.4575
    1SOL     OW 1865   3.600   0.092   0.778  0.3622  0.0004 -0.5227
    1SOL    HW2 1866   3.596   0.176   0.825  1.3267 -0.7075  0.8457
    1SOL    HW3 1867   3.675   0.047   0.816  1.0211 -0.6997 -2.6040
    1SOL    MW4 1868   3.609   0.097   0.789  0.5763 -0.1853 -0.6168
    1SOL     OW 1869   0.082   0.905   0.486 -0.0853  0.1294  0.3765
    1SOL    HW2 1870   0.056   0.997   0.497  0.9092  0.6849 -1.6072
    1SOL    HW3 1871   0.177   0.906   0.493 -0.0695 -0.7360  0.3113
    1SOL    MW4 1872   0.091   0.918   0.488  0.0480  0.0886  0.1062
    1SOL     OW 1873   0.002   2.688   0.826  0.1651 -0.2776 -0.0625
    1SOL    HW2 1874  -0.008   2.676   0.920  0.9241 -3.0520 -0.3056
    1SOL    HW3 1875   0.089   2.726   0.815  0.3405 -0.5684  0.3245
    1SOL    MW4 1876   0.012   2.692   0.837  0.2880 -0.6819 -0.0436
    1SOL     OW 1877   4.273   0.805   0.890  0.0152  0.1364  0.3083
    1SOL    HW2 1878   4.281   0.779   0.981 -0.8641 -1.2371  0.0048
    1SOL    HW3 1879   4.298   0.728   0.840 -0.9671  0.3964 -0.6070
    1SOL    MW4 1880   4.277   0.791   0.895 -0.2303 -0.0106  0.1475
    1SOL     OW 1881   4.021   3.074   0.464  0.1212  0.0146  0.1798
    1SOL    HW2 1882   3.929   3.055   0.452 -0.3158  1.0578  1.7169
    1SOL    HW3 1883   4.062   2.989   0.476 -0.6075 -0.4584 -0.5999
    1SOL    MW4 1884   4.015   3.060   0.464 -0.0329  0.0899  0.2798
    1SOL     OW 1885   1.313   1.646   0.709 -0.1593  0.3856  0.0128
    1SOL    HW2 1886   1.394   1.626   0.754 -0.1203 -0.0680 -0.2569
    1SOL    HW3 1887   1.308   1.582   0.638  0.5731  2.0893 -1.6195
    1SOL    MW4 1888   1.323   1.635   0.705 -0.0575  0.5505 -0.2382
    1SOL     OW 1889   2.248   4.221   0.802 -0.0085  0.2717 -0.3132
    1SOL    HW2 1890   2.165   4.258   0.770 -0.3221  0.1739  0.3711
    1SOL    HW3 1891   2.241   4.127   0.782  0.2268  0.3734 -0.8681
    1SOL    MW4 1892   2.236   4.213   0.795 -0.0186  0.2723 -0.2961
    1SOL     OW 1893   4.251   1.561   0.811  0.1166  0.4290 -0.0666
    1SOL    HW2 1894   4.258   1.467   0.795  0.9953  0.8273 -2.3379
    1SOL    HW3 1895   4.258   1.570   0.906  0.5909 -1.7475  0.1406
    1SOL    MW4 1896   4.253   1.550   0.821  0.2947  0.1943 -0.3390
    1SOL     OW 1897   0.834   1.122   0.843  0.0163 -0.0951  0.1920
    1SOL    HW2 1898   0.778   1.190   0.804  1.2981 -0.8056 -3.1317
    1SOL    HW3 1899   0.817   1.044   0.791  3.6595 -0.4532 -0.6329
    1SOL    MW4 1900   0.824   1.121   0.831  0.6661 -0.2362 -0.3554
    1SOL     OW 1901   1.003   4.367   0.214  0.2204  0.0737 -0.5725
    1SOL    HW2 1902   1.029   4.443   0.266 -0.7030  0.4548 -0.6490
    1SOL    HW3 1903   1.047   4.380   0.130 -1.1657  1.3605 -1.1298
    1SOL    MW4 1904   1.012   4.379   0.210 -0.0843  0.2937 -0.6562
    1SOL     OW 1905   4.039   3.178   0.727 -0.5701  0.2625 -0.2860
    1SOL    HW2 1906   3.964   3.147   0.778  0.4603 -1.5697  0.1684
    1SOL    HW3 1907   4.032   3.132   0.644 -0.2882  0.5741 -0.4843
    1SOL    MW4 1908   4.028   3.168   0.723 -0.3967  0.0620 -0.2522
    1SOL     OW 1909   0.209   2.319   1.042 -0.8234  0.3779  0.0200
    1SOL    HW2 1910   0.134   2.352   1.091 -0.8741  0.2805  0.0085
    1SOL    HW3 1911   0.284   2.340   1.097 -0.9292 -0.2607  0.4261
    1SOL    MW4 1912   0.209   2.326   1.056 -0.8440  0.2809  0.0720
    1SOL     OW 1913   1.952   3.938   0.807  0.2834  0.1674  0.1274
    1SOL    HW2 1914   1.954   3.941   0.903  1.6204 -0.1358  0.1150
    1SOL    HW3 1915   1.944   3.845   0.787 -0.8446  0.2942 -0.0566
    1SOL    MW4 1916   1.951   3.926   0.817  0.3110  0.1442  0.1015
    1SOL     OW 1917   3.746   2.821   0.705 -0.3603  0.2689 -0.3095
    1SOL    HW2 1918   3.830   2.777   0.698 -1.5300 -2.0802  0.0305
    1SOL    HW3 1919   3.718   2.836   0.615 -0.5093 -0.8119 -0.4509
    1SOL    MW4 1920   3.753   2.817   0.693 -0.5343 -0.1836 -0.2833
    1SOL     OW 1921   0.902   1.959   0.840  0.1462 -0.2694 -0.4812
    1SOL    HW2 1922   0.826   2.007   0.806  0.4274 -0.1116 -0.8857
    1SOL    HW3 1923   0.881   1.946   0.933  0.2035  0.9231 -0.2827
    1SOL    MW4 1924   0.889   1.964   0.848  0.1909 -0.0913 -0.5083
    1SOL     OW 1925   2.288   0.754   0.351 -0.1874 -0.0467 -0.4674
    1SOL    HW2 1926   2.372   0.708   0.345 -1.2578 -1.7909 -2.1635
    1SOL    HW3 1927   2.226   0.688   0.382 -1.0164  1.1619  0.5067
    1SOL    MW4 1928   2.291   0.739   0.355 -0.4377 -0.1174 -0.5626
    1SOL     OW 1929   3.324   2.179   0.463  0.0031 -0.3758  0.2317
    1SOL    HW2 1930   3.368   2.131   0.393  2.3268 -0.0458  1.4126
    1SOL    HW3 1931   3.386   2.249   0.487 -0.8298 -0.3418  2.4449
    1SOL    MW4 1932   3.338   2.182   0.457  0.1998 -0.3281  0.6795
    1SOL     OW 1933   3.605   3.471   0.859 -0.6388  0.2842 -0.3139
    1SOL    HW2 1934   3.673   3.524   0.818  0.8631 -0.0688  1.6193
    1SOL    HW3 1935   3.616   3.384   0.822 -0.4066  0.3576 -0.4180
    1SOL    MW4 1936   3.615   3.467   0.849 -0.4101  0.2475 -0.0725
    1SOL     OW 1937   4.205   3.858   0.838 -0.2789  0.2304 -0.0129
    1SOL    HW2 1938   4.126   3.891   0.795 -1.5861 -1.8493  0.7383
    1SOL    HW3 1939   4.185   3.862   0.931  0.7494  0.2237  0.2214
    1SOL    MW4 1940   4.192   3.863   0.845 -0.3157 -0.0446  0.1171
    1SOL     OW 1941   0.346   0.920   0.492  0.1477 -0.0561 -0.1589
    1SOL    HW2 1942   0.367   0.840   0.444  2.1106  0.2365  0.1443
    1SOL    HW3 1943   0.388   0.907   0.578 -0.4808  0.8240  0.2888
    1SOL    MW4 1944   0.355   0.908   0.497  0.3238  0.0986 -0.0598
    1SOL     OW 1945   3.837   3.859   0.854 -0.0871  0.3392 -0.3082
    1SOL    HW2 1946   3.908   3.898   0.803  0.7148 -2.4634 -1.4598
    1SOL    HW3 1947   3.815   3.779   0.807 -2.7684  0.2127  1.0580
    1SOL    MW4 1948   3.843   3.854   0.841 -0.3350 -0.0474 -0.2799
    1SOL     OW 1949   4.015   0.034   0.751 -0.0581 -0.1294 -0.2892
    1SOL    HW2 1950   4.068  -0.044   0.737  0.0520  0.1091 -1.2138
    1SOL    HW3 1951   4.014   0.078   0.666  0.1248  1.0160  0.2944
    1SOL    MW4 1952   4.022   0.030   0.738 -0.0191  0.0532 -0.3342
    1SOL     OW 1953   3.797   4.611   0.883 -0.0133  0.3608  0.2760
    1SOL    HW2 1954   3.777   4.524   0.847  1.7548 -0.5965  1.5032
    1SOL    HW3 1955   3.883   4.632   0.847 -0.5594  1.7539 -0.2475
    1SOL    MW4 1956   3.806   4.602   0.873  0.1478  0.4177  0.3688
    1SOL     OW 1957   0.244   4.625   1.111 -0.1510  0.0987  0.5945
    1SOL    HW2 1958   0.322   4.680   1.107 -1.4626  2.0551  1.1546
    1SOL    HW3 1959   0.225   4.604   1.019  0.5406  0.3253  0.3937
    1SOL    MW4 1960   0.252   4.630   1.098 -0.2328  0.3867  0.6419
    1SOL     OW 1961   0.034   0.113   1.221 -0.1270  0.5312  0.1923
    1SOL    HW2 1962  -0.046   0.062   1.206 -0.8331  1.3707  1.0396
    1SOL    HW3 1963   0.105   0.055   1.192 -1.0256 -0.2789 -0.4376
    1SOL    MW4 1964   0.033   0.099   1.215 -0.3387  0.5350  0.2209
    1SOL     OW 1965   0.028   0.369   1.145  0.3142  0.3937  0.0424
    1SOL    HW2 1966  -0.052   0.393   1.190 -0.8582 -1.8232 -0.8186
    1SOL    HW3 1967   0.040   0.276   1.163  2.8332  0.7276  0.3489
    1SOL    MW4 1968   0.019   0.360   1.153  0.4919  0.1453 -0.0306
    1SOL     OW 1969   0.256   0.494   1.258 -0.2371 -0.0457  0.3611
    1SOL    HW2 1970   0.259   0.586   1.230 -0.2449  0.3291  1.5658
    1SOL    HW3 1971   0.177   0.459   1.218  0.8096 -0.0758 -1.7419
    1SOL    MW4 1972   0.246   0.502   1.249 -0.1000 -0.0002  0.2425
    1SOL     OW 1973   0.251   0.750   1.141  0.0848 -0.6504 -0.3728
    1SOL    HW2 1974   0.334   0.795   1.153  0.4135 -1.0861 -0.9925
    1SOL    HW3 1975   0.185   0.813   1.170  0.6663 -0.5483  0.7553
    1SOL    MW4 1976   0.253   0.764   1.147  0.2049 -0.6945 -0.3055
    1SOL     OW 1977   0.021   0.906   1.221  0.0902  0.1823  0.1782
    1SOL    HW2 1978   0.017   0.908   1.317 -2.7428  1.2884  0.0645
    1SOL    HW3 1979   0.005   0.996   1.194 -0.4363 -0.3636 -1.3924
    1SOL    MW4 1980   0.018   0.918   1.230 -0.3530  0.2562 -0.0440
    1SOL     OW 1981   4.487   1.147   1.088 -0.0846 -0.1009 -0.1284
    1SOL    HW2 1982   4.412   1.198   1.116  0.1049  0.2231 -0.2044
    1SOL    HW3 1983   4.561   1.187   1.134 -0.0794 -0.9520  0.5999
    1SOL    MW4 1984   4.487   1.159   1.098 -0.0596 -0.1705 -0.0423
    1SOL     OW 1985   0.191   1.295   1.236 -0.1457 -0.1452 -0.3579
    1SOL    HW2 1986   0.197   1.294   1.332 -1.2144  1.5977 -0.2531
    1SOL    HW3 1987   0.279   1.271   1.207 -0.1228 -1.8612  1.0462
    1SOL    MW4 1988   0.204   1.292   1.245 -0.2837 -0.1415 -0.1588
    1SOL     OW 1989   0.182   1.558   1.147 -0.3935  0.4092 -0.4585
    1SOL    HW2 1990   0.180   1.467   1.177  0.1670  0.6249  0.2457
    1SOL    HW3 1991   0.165   1.553   1.053 -3.7021 -0.1697  0.1117
    1SOL    MW4 1992   0.180   1.546   1.139 -0.7561  0.3613 -0.2903
    1SOL     OW 1993   4.461   1.728   1.238  0.1722 -0.1538  0.0495
    1SOL    HW2 1994   4.472   1.814   1.197 -0.6579 -0.6487 -1.2433
    1SOL    HW3 1995   4.537   1.678   1.208  0.4226 -0.0027  0.4386
    1SOL    MW4 1996   4.473   1.733   1.228  0.0963 -0.1992 -0.0697
    1SOL     OW 1997   4.472   1.979   1.121 -0.4156 -0.5070  0.1531
    1SOL    HW2 1998   4.381   1.992   1.148 -0.8268 -0.3646 -1.2514
    1SOL    HW3 1999   4.468   1.969   1.026  1.1881  1.0245 -0.1114
    1SOL    MW4 2000   4.460   1.980   1.112 -0.2584 -0.2861 -0.0672
    1SOL     OW 2001   0.210   2.109   1.223  0.3854  0.0390 -0.2120
    1SOL    HW2 2002   0.212   2.189   1.171 -1.7399  0.2638  0.0216
    1SOL    HW3 2003   0.133   2.061   1.191 -0.2625 -0.3685  1.9154
    1SOL    MW4 2004   0.201   2.113   1.212  0.0195  0.0148  0.0997
    1SOL     OW 2005   0.226   2.281   0.763 -0.5115 -0.2997  0.4455
    1SOL    HW2 2006   0.153   2.337   0.737  0.0895  0.4298  0.3136
    1SOL    HW3 2007   0.226   2.284   0.859 -0.8092 -0.4961  0.4496
    1SOL    MW4 2008   0.217   2.288   0.773 -0.4715 -0.2294  0.4287
    1SOL     OW 2009   0.014   2.408   1.225  0.5003  0.0878 -0.2026
    1SOL    HW2 2010  -0.002   2.426   1.318  2.0736  0.3919  0.0341
    1SOL    HW3 2011  -0.071   2.382   1.190  0.1689 -1.4017  1.6387
    1SOL    MW4 2012   0.001   2.407   1.233  0.6642 -0.0684  0.0716
    1SOL     OW 2013   4.468   2.669   1.100  0.4462 -0.0682  0.3028
    1SOL    HW2 2014   4.400   2.706   1.156  0.4615  0.5139 -0.0519
    1SOL    HW3 2015   4.501   2.593   1.148  0.3434  0.3235  1.0049
    1SOL    MW4 2016   4.464   2.664   1.114  0.4344  0.0603  0.3487
    1SOL     OW 2017   0.207   2.803   1.160  0.1979  0.6441  0.3840
    1SOL    HW2 2018   0.192   2.812   1.254 -1.6010  1.1816  0.0622
    1SOL    HW3 2019   0.138   2.744   1.130  1.1024  0.0338 -0.5159
    1SOL    MW4 2020   0.196   2.796   1.169  0.0799  0.6344  0.2228
    1SOL     OW 2021   0.218   3.078   1.131 -0.3327 -0.4901 -0.0230
    1SOL    HW2 2022   0.301   3.114   1.162 -0.7328 -0.1142  0.6300
    1SOL    HW3 2023   0.222   2.985   1.151  0.0474 -0.5236 -0.2546
    1SOL    MW4 2024   0.230   3.071   1.138 -0.3354 -0.4449  0.0327
    1SOL     OW 2025   4.461   3.235   1.184 -0.7899  0.1372  0.2949
    1SOL    HW2 2026   4.391   3.192   1.136 -2.6725  1.5129  1.7146
    1SOL    HW3 2027   4.535   3.174   1.179 -1.9861 -1.2219 -1.4446
    1SOL    MW4 2028   4.462   3.222   1.177 -1.1961  0.1392  0.2527
    1SOL     OW 2029   4.449   3.498   1.117  0.4848  0.4356  0.0313
    1SOL    HW2 2030   4.473   3.408   1.139  0.2334  0.1795 -0.7078
    1SOL    HW3 2031   4.462   3.503   1.022 -0.6343  0.8253 -0.1035
    1SOL    MW4 2032   4.454   3.486   1.107  0.3037  0.4532 -0.0839
    1SOL     OW 2033   0.212   3.577   1.201  0.0784 -0.2649  0.1150
    1SOL    HW2 2034   0.202   3.600   1.293 -1.3015  0.1396 -0.1268
    1SOL    HW3 2035   0.123   3.556   1.172  0.7015 -1.7327 -0.7746
    1SOL    MW4 2036   0.199   3.577   1.209 -0.0215 -0.4053 -0.0343
    1SOL     OW 2037   0.167   3.812   1.071  0.2909 -0.5254 -0.0813
    1SOL    HW2 2038   0.109   3.866   1.125  1.8912  0.8162  0.3549
    1SOL    HW3 2039   0.191   3.738   1.127 -1.0627 -1.1399 -0.3011
    1SOL    MW4 2040   0.163   3.810   1.085  0.3235 -0.4294 -0.0528
    1SOL     OW 2041   4.450   3.977   1.207  0.3028 -0.0483 -0.4219
    1SOL    HW2 2042   4.462   3.972   1.302  0.3201  1.1428 -0.3516
    1SOL    HW3 2043   4.374   3.922   1.189  0.5376 -0.5939  0.2298
    1SOL    MW4 2044   4.442   3.969   1.217  0.3357  0.0367 -0.3268
    1SOL     OW 2045   0.003   4.224   1.076 -0.4973 -0.0011 -0.1668
    1SOL    HW2 2046   0.086   4.266   1.100 -0.4946  0.4236 -0.8832
    1SOL    HW3 2047   0.004   4.141   1.123  1.0230 -0.6734 -1.3309
    1SOL    MW4 2048   0.014   4.219   1.085 -0.2961 -0.0334 -0.4148
    1SOL     OW 2049   0.233   4.365   1.183  0.0752 -0.2494  0.0998
    1SOL    HW2 2050   0.226   4.376   1.277 -1.4551 -0.1241 -0.0139
    1SOL    HW3 2051   0.240   4.454   1.149 -1.8872 -0.1265 -0.0645
    1SOL    MW4 2052   0.233   4.378   1.191 -0.3856 -0.2165  0.0632
    1SOL     OW 2053   0.602   0.001   1.274  0.0875 -0.2487  0.3786
    1SOL    HW2 2054   0.689   0.029   1.246  0.1913  0.1593  1.1015
    1SOL    HW3 2055   0.597  -0.091   1.249  0.2777  0.0403 -0.7361
    1SOL    MW4 2056   0.613  -0.008   1.267  0.1263 -0.1564  0.3269
    1SOL     OW 2057   0.470   0.138   1.064  0.0946  0.2271  0.4140
    1SOL    HW2 2058   0.488   0.231   1.074 -1.8476  0.6090  0.5175
    1SOL    HW3 2059   0.504   0.099   1.145 -0.4575  1.0641  1.0681
    1SOL    MW4 2060   0.477   0.145   1.076 -0.2345  0.3879  0.5138
    1SOL     OW 2061   2.320   1.840   0.142 -0.0758  0.0253 -0.2338
    1SOL    HW2 2062   2.346   1.850   0.050  2.1775  0.4749  0.4289
    1SOL    HW3 2063   2.261   1.765   0.142  1.0441 -0.8757 -1.8270
    1SOL    MW4 2064   2.315   1.832   0.130  0.3691 -0.0343 -0.3566
    1SOL     OW 2065   0.664   0.510   1.231  0.1614  0.1006  0.2508
    1SOL    HW2 2066   0.680   0.595   1.191 -0.5090  0.0064 -0.2312
    1SOL    HW3 2067   0.622   0.458   1.161 -0.4445 -0.2626  0.8764
    1SOL    MW4 2068   0.660   0.514   1.216 -0.0070  0.0402  0.2697
    1SOL     OW 2069   0.711   0.733   1.091  0.0300 -0.0474  0.3646
    1SOL    HW2 2070   0.649   0.799   1.123  0.1362  0.0074  0.4553
    1SOL    HW3 2071   0.677   0.709   1.004  0.7726  1.1343 -0.2640
    1SOL    MW4 2072   0.698   0.738   1.083  0.1420  0.1157  0.2937
    1SOL     OW 2073   0.472   0.889   1.198 -0.0853  0.3258  0.4271
    1SOL    HW2 2074   0.462   0.887   1.293  1.6115  2.7959  0.7207
    1SOL    HW3 2075   0.456   0.981   1.174 -1.2041 -0.4123 -1.7604
    1SOL    MW4 2076   0.469   0.901   1.208 -0.0090  0.5543  0.1773
    1SOL     OW 2077   0.419   1.149   1.142  0.0532 -0.0210 -0.2851
    1SOL    HW2 2078   0.499   1.185   1.181 -0.6050  1.8307 -0.5966
    1SOL    HW3 2079   0.425   1.172   1.050 -0.7566 -0.0221 -0.3359
    1SOL    MW4 2080   0.430   1.157   1.135 -0.1405  0.2232 -0.3328
    1SOL     OW 2081   0.678   1.294   1.241  0.1787  0.5590 -0.3630
    1SOL    HW2 2082   0.748   1.247   1.196  1.2919  1.6408  0.2124
    1SOL    HW3 2083   0.670   1.377   1.193 -0.2386  0.7206 -0.0164
    1SOL    MW4 2084   0.686   1.299   1.228  0.2705  0.7231 -0.2414
    1SOL     OW 2085   0.645   1.553   1.116 -0.1708 -0.2200  0.0877
    1SOL    HW2 2086   0.719   1.605   1.146 -1.3673  1.1008  0.8335
    1SOL    HW3 2087   0.569   1.594   1.157 -1.5648 -0.1588 -2.4596
    1SOL    MW4 2088   0.644   1.565   1.126 -0.5126 -0.0376 -0.1500
    1SOL     OW 2089   0.435   1.698   1.222 -0.0958  0.4830 -0.2467
    1SOL    HW2 2090   0.428   1.699   1.318  0.3837  1.1803 -0.2138
    1SOL    HW3 2091   0.355   1.654   1.193  0.5405 -1.2570  0.5366
    1SOL    MW4 2092   0.424   1.692   1.231  0.0514  0.3455 -0.1390
    1SOL     OW 2093   0.451   1.967   1.138 -0.1088 -0.2249 -0.0174
    1SOL    HW2 2094   0.455   1.882   1.183 -0.9567 -0.5456 -0.5427
    1SOL    HW3 2095   0.363   2.000   1.156 -0.0448  0.1937 -0.4555
    1SOL    MW4 2096   0.440   1.960   1.147 -0.2123 -0.2121 -0.1446
    1SOL     OW 2097   0.680   2.110   1.204  0.1179 -0.2383 -0.3676
    1SOL    HW2 2098   0.685   2.106   1.299  1.3953  0.4005 -0.4098
    1SOL    HW3 2099   0.601   2.059   1.183  0.5090 -1.4359  0.9425
    1SOL    MW4 2100   0.670   2.103   1.214  0.3380 -0.3123 -0.2004
    1SOL     OW 2101   0.685   2.377   1.087  0.3513  0.0280  0.0633
    1SOL    HW2 2102   0.597   2.412   1.103  1.0816  1.2912  1.4493
    1SOL    HW3 2103   0.686   2.294   1.134 -0.1205 -0.0244 -0.0135
    1SOL    MW4 2104   0.674   2.371   1.095  0.3855  0.1879  0.2360
    1SOL     OW 2105   0.421   2.454   1.174 -0.2033 -0.2034 -0.5842
    1SOL    HW2 2106   0.422   2.453   1.270  1.4357 -2.8057 -0.5664
    1SOL    HW3 2107   0.415   2.546   1.151 -0.9284  0.4506  2.0214
    1SOL    MW4 2108   0.420   2.466   1.184 -0.0827 -0.4604 -0.2381
    1SOL     OW 2109   0.455   2.702   1.091  0.9018  0.4081  0.1115
    1SOL    HW2 2110   0.364   2.724   1.112  0.6163 -0.6398  0.0095
    1SOL    HW3 2111   0.461   2.712   0.996  0.2180 -1.8864 -0.1968
    1SOL    MW4 2112   0.444   2.706   1.081  0.7739 -0.0329  0.0573
    1SOL     OW 2113   0.674   2.846   1.190  0.5620  0.3292  0.3573
    1SOL    HW2 2114   0.661   2.858   1.284  0.2326  0.3122  0.3152
    1SOL    HW3 2115   0.588   2.819   1.157  0.6898  0.2802  0.0606
    1SOL    MW4 2116   0.661   2.844   1.198  0.5354  0.3204  0.3126
    1SOL     OW 2117   0.676   3.112   1.086  0.3204 -0.0634  0.5755
    1SOL    HW2 2118   0.734   3.163   1.143  0.8017 -1.7206  1.5994
    1SOL    HW3 2119   0.677   3.024   1.123 -1.1955 -0.6234 -0.6488
    1SOL    MW4 2120   0.683   3.107   1.098  0.1839 -0.3560  0.5491
    1SOL     OW 2121   0.449   3.207   1.218 -0.0635  0.5360  0.2515
    1SOL    HW2 2122   0.455   3.295   1.182  0.5548  1.1400  1.8103
    1SOL    HW3 2123   0.524   3.161   1.180  0.0440  0.8967  0.0214
    1SOL    MW4 2124   0.460   3.212   1.208  0.0323  0.6630  0.4269
    1SOL     OW 2125   0.452   3.459   1.086  0.6676 -0.3074 -0.1289
    1SOL    HW2 2126   0.522   3.490   1.144  0.2635 -0.2912  0.3536
    1SOL    HW3 2127   0.374   3.505   1.116  0.3729 -0.6222 -0.4148
    1SOL    MW4 2128   0.451   3.469   1.098  0.5754 -0.3469 -0.1031
    1SOL     OW 2129   0.646   3.571   1.230  0.2564  0.2903  0.5524
    1SOL    HW2 2130   0.650   3.585   1.324  1.1729  1.5470  0.3458
    1SOL    HW3 2131   0.620   3.657   1.194  0.6149  0.0159 -0.3850
    1SOL    MW4 2132   0.643   3.585   1.237  0.4247  0.4199  0.4016
    1SOL     OW 2133   0.624   3.834   1.138  0.1381  0.2058  0.1662
    1SOL    HW2 2134   0.545   3.881   1.166  0.1586  0.1944  0.2433
    1SOL    HW3 2135   0.622   3.840   1.042  0.0894  0.2805  0.1714
    1SOL    MW4 2136   0.613   3.841   1.129  0.1343  0.2143  0.1770
    1SOL     OW 2137   0.379   3.972   1.199  0.3705 -0.6346 -0.2367
    1SOL    HW2 2138   0.407   4.056   1.162 -1.5398  0.4565  0.6800
    1SOL    HW3 2139   0.316   3.938   1.135  0.6481 -1.0479 -0.2879
    1SOL    MW4 2140   0.374   3.979   1.186  0.1551 -0.5453 -0.1224
    1SOL     OW 2141   0.456   4.205   1.100  0.4171 -0.1787  0.2488
    1SOL    HW2 2142   0.520   4.260   1.145  0.0933 -0.4509  1.0493
    1SOL    HW3 2143   0.371   4.243   1.122  0.3130  0.3838 -1.0839
    1SOL    MW4 2144   0.453   4.217   1.108  0.3607 -0.1402  0.1786
    1SOL     OW 2145   0.650   4.384   1.216  0.3358 -0.0866 -0.1515
    1SOL    HW2 2146   0.650   4.367   1.310  0.5918 -0.8042 -0.2760
    1SOL    HW3 2147   0.731   4.344   1.184 -0.2643 -0.7732 -0.8395
    1SOL    MW4 2148   0.661   4.376   1.224  0.2905 -0.2723 -0.2588
    1SOL     OW 2149   1.039   4.607   1.129 -0.2900  0.0412  0.0517
    1SOL    HW2 2150   1.059   4.520   1.165  0.5816  0.2706  0.1356
    1SOL    HW3 2151   1.062   4.600   1.036 -0.5041  0.0929 -0.0043
    1SOL    MW4 2152   1.045   4.594   1.122 -0.2033  0.0792  0.0554
    1SOL     OW 2153   0.848   0.117   1.237  0.0374 -0.1230  0.1314
    1SOL    HW2 2154   0.893   0.124   1.322  0.0459 -0.7837  0.1828
    1SOL    HW3 2155   0.905   0.060   1.185  0.8010  1.4919 -0.8333
    1SOL    MW4 2156   0.862   0.110   1.242  0.1393  0.0029  0.0108
    1SOL     OW 2157   0.858   0.362   1.123  0.1607  0.3942 -0.7058
    1SOL    HW2 2158   0.864   0.279   1.170 -1.1918 -0.4112 -1.9184
    1SOL    HW3 2159   0.786   0.408   1.166 -0.5970 -0.0367 -1.4961
    1SOL    MW4 2160   0.849   0.357   1.135 -0.1177  0.2311 -0.9701
    1SOL     OW 2161   1.066   0.514   1.214 -0.0581  0.2548  0.3401
    1SOL    HW2 2162   1.093   0.518   1.305  1.9875 -0.8958 -0.1650
    1SOL    HW3 2163   0.989   0.457   1.213  1.6742 -2.1763  1.0078
    1SOL    MW4 2164   1.060   0.507   1.226  0.4404 -0.2178  0.3616
    1SOL     OW 2165   1.098   0.767   1.082 -0.5785  0.1007 -0.3609
    1SOL    HW2 2166   1.037   0.822   1.130  1.0539  0.5897  1.2382
    1SOL    HW3 2167   1.078   0.678   1.111 -0.8815  0.2120 -0.2291
    1SOL    MW4 2168   1.088   0.763   1.092 -0.4030  0.1798 -0.1324
    1SOL     OW 2169   0.891   0.903   1.212 -0.0970 -0.0774 -1.0821
    1SOL    HW2 2170   0.874   0.990   1.175  0.5707  0.0433 -1.1271
    1SOL    HW3 2171   0.831   0.845   1.167 -2.0358  0.6897  0.4563
    1SOL    MW4 2172   0.881   0.907   1.201 -0.2646  0.0398 -0.8850
    1SOL     OW 2173   0.873   1.156   1.122 -0.2650 -0.3194  0.0142
    1SOL    HW2 2174   0.964   1.182   1.133 -0.1498 -0.5779 -0.3146
    1SOL    HW3 2175   0.862   1.145   1.028 -0.7753  0.2099  0.0134
    1SOL    MW4 2176   0.883   1.158   1.111 -0.3172 -0.2837 -0.0293
    1SOL     OW 2177   1.127   1.264   1.192  0.1828  0.5511  0.2240
    1SOL    HW2 2178   1.141   1.258   1.287 -0.0590  0.2213  0.2416
    1SOL    HW3 2179   1.206   1.229   1.153  0.6903  1.5878  0.2922
    1SOL    MW4 2180   1.139   1.259   1.200  0.2178  0.6443  0.2352
    1SOL     OW 2181   1.075   1.528   1.112  0.0356 -0.0592 -0.3875
    1SOL    HW2 2182   1.093   1.436   1.129  1.2126 -0.0939 -1.7295
    1SOL    HW3 2183   1.061   1.533   1.018 -0.4831  1.0660 -0.2601
    1SOL    MW4 2184   1.076   1.517   1.102  0.1224  0.0849 -0.5479
    1SOL     OW 2185   0.866   1.691   1.226 -0.2823 -0.1096  0.1314
    1SOL    HW2 2186   0.871   1.782   1.197  0.7908  0.5212  2.2208
    1SOL    HW3 2187   0.938   1.647   1.180 -0.2567  0.2860 -0.2063
    1SOL    MW4 2188   0.876   1.697   1.216 -0.1374  0.0259  0.3625
    1SOL     OW 2189   0.880   1.936   1.112  0.3059  0.3057  0.2028
    1SOL    HW2 2190   0.964   1.974   1.138 -0.3799  1.4802  0.7938
    1SOL    HW3 2191   0.815   2.000   1.143 -0.8270 -0.8268  0.2127
    1SOL    MW4 2192   0.883   1.949   1.120  0.0659  0.3113  0.2820
    1SOL     OW 2193   1.135   2.067   1.158 -0.3548  0.0482  0.1577
    1SOL    HW2 2194   1.116   2.063   1.251 -0.8157 -0.7907  0.0246
    1SOL    HW3 2195   1.128   2.160   1.136 -0.2292  0.2480  0.9554
    1SOL    MW4 2196   1.132   2.079   1.167 -0.3990 -0.0362  0.2453
    1SOL     OW 2197   1.091   2.331   1.075 -0.4815 -0.1836 -0.0753
    1SOL    HW2 2198   1.173   2.365   1.110  0.1986 -1.6275 -0.2365
    1SOL    HW3 2199   1.097   2.344   0.981 -0.7159  0.2900 -0.0269
    1SOL    MW4 2200   1.102   2.337   1.067 -0.4227 -0.3116 -0.0901
    1SOL     OW 2201   0.926   2.492   1.224 -0.5687  0.1573 -0.2702
    1SOL    HW2 2202   0.988   2.445   1.169 -0.7169  0.6094 -0.8299
    1SOL    HW3 2203   0.840   2.459   1.197 -0.6239  0.1732 -0.1134
    1SOL    MW4 2204   0.923   2.482   1.213 -0.5955  0.2191 -0.3234
    1SOL     OW 2205   0.896   2.722   1.064 -0.0623 -0.0863 -0.1270
    1SOL    HW2 2206   0.899   2.654   1.131  0.0274  0.2403  0.2052
    1SOL    HW3 2207   0.825   2.780   1.092 -1.3337 -1.0189 -1.3625
    1SOL    MW4 2208   0.887   2.721   1.076 -0.2182 -0.1659 -0.2463
    1SOL     OW 2209   1.130   2.825   1.167 -0.0829  0.3569  0.1734
    1SOL    HW2 2210   1.118   2.828   1.261  0.8615  1.3708  0.2856
    1SOL    HW3 2211   1.054   2.778   1.133 -0.6888  0.4558  1.3918
    1SOL    MW4 2212   1.118   2.819   1.175 -0.0383  0.5035  0.3490
    1SOL     OW 2213   1.053   3.088   1.132 -0.4173 -0.0434 -0.2626
    1SOL    HW2 2214   1.066   2.994   1.127 -0.1060 -0.0158 -0.0085
    1SOL    HW3 2215   1.041   3.116   1.041  0.9336 -0.1271 -0.4753
    1SOL    MW4 2216   1.053   3.079   1.119 -0.1980 -0.0508 -0.2571
    1SOL     OW 2217   0.852   3.246   1.253  0.0455 -0.3016  0.2772
    1SOL    HW2 2218   0.867   3.332   1.212 -0.3151  0.7123  2.2412
    1SOL    HW3 2219   0.932   3.196   1.233  1.0227  1.0939  0.6104
    1SOL    MW4 2220   0.865   3.251   1.245  0.1269  0.0165  0.5803
    1SOL     OW 2221   0.905   3.494   1.135  0.0601 -0.0688 -0.2576
    1SOL    HW2 2222   0.818   3.520   1.164  0.6955  0.1527  1.5083
    1SOL    HW3 2223   0.901   3.498   1.040 -1.4991  1.0969 -0.1566
    1SOL    MW4 2224   0.893   3.498   1.126 -0.0617  0.1142 -0.0113
    1SOL     OW 2225   1.139   3.639   1.217  0.2569 -0.0915  0.3945
    1SOL    HW2 2226   1.199   3.574   1.180 -0.2697 -0.3434 -0.0237
    1SOL    HW3 2227   1.057   3.625   1.171 -0.7817 -1.2253  2.4865
    1SOL    MW4 2228   1.136   3.629   1.206  0.0503 -0.2742  0.6154
    1SOL     OW 2229   1.133   3.912   1.091  0.3419 -0.1789  0.1839
    1SOL    HW2 2230   1.051   3.949   1.123 -0.4264 -1.8298  0.1589
    1SOL    HW3 2231   1.135   3.823   1.126  0.6408 -1.1968 -2.2999
    1SOL    MW4 2232   1.122   3.905   1.100  0.2799 -0.5312 -0.1472
    1SOL     OW 2233   0.867   3.959   1.168  0.2385  0.2100 -0.0725
    1SOL    HW2 2234   0.877   3.962   1.263  0.4917 -0.8740 -0.0597
    1SOL    HW3 2235   0.792   3.901   1.153  1.2182 -0.9378 -0.5883
    1SOL    MW4 2236   0.858   3.952   1.178  0.4012 -0.0842 -0.1389
    1SOL     OW 2237   0.851   4.228   1.108 -0.0077 -0.7982 -0.0022
    1SOL    HW2 2238   0.840   4.133   1.119 -0.2775 -1.0400 -2.0775
    1SOL    HW3 2239   0.894   4.237   1.023 -0.0116  0.9540  0.1658
    1SOL    MW4 2240   0.855   4.216   1.098 -0.0438 -0.5989 -0.2539
    1SOL     OW 2241   1.086   4.354   1.217 -0.2227  0.0349  0.2092
    1SOL    HW2 2242   1.080   4.347   1.312 -0.2215  0.0021  0.2069
    1SOL    HW3 2243   1.007   4.310   1.185 -0.3268  0.2231  0.2023
    1SOL    MW4 2244   1.075   4.348   1.225 -0.2363  0.0553  0.2080
    1SOL     OW 2245   1.502   4.660   1.154  0.3405  0.4728  0.0312
    1SOL    HW2 2246   1.588   4.693   1.181 -1.0339  3.2406  1.2600
    1SOL    HW3 2247   1.509   4.565   1.164  2.7936  0.7467  1.5313
    1SOL    MW4 2248   1.514   4.652   1.159  0.4828  0.8745  0.3912
    1SOL     OW 2249   1.243   0.096   1.232 -0.0185  0.3581  0.4409
    1SOL    HW2 2250   1.332   0.078   1.201  0.1368  1.0265  0.4713
    1SOL    HW3 2251   1.187   0.037   1.182  0.4204  0.1404  0.2091
    1SOL    MW4 2252   1.247   0.086   1.221  0.0598  0.4176  0.4144
    1SOL     OW 2253   1.262   0.330   1.107 -0.2485  0.3144  0.2628
    1SOL    HW2 2254   1.241   0.243   1.142 -0.8958 -0.1175 -1.1583
    1SOL    HW3 2255   1.203   0.390   1.152 -0.2051 -0.0580  0.8185
    1SOL    MW4 2256   1.252   0.326   1.118 -0.3281  0.2083  0.1487
    1SOL     OW 2257   1.531   0.410   1.233  0.1127  0.0657  0.1971
    1SOL    HW2 2258   1.530   0.506   1.226 -0.7942  0.2123  1.8954
    1SOL    HW3 2259   1.453   0.381   1.186  0.1867  0.2031 -0.0072
    1SOL    MW4 2260   1.520   0.419   1.226  0.0027  0.1031  0.3942
    1SOL     OW 2261   1.534   0.691   1.168  0.0151 -0.1611  0.2484
    1SOL    HW2 2262   1.615   0.740   1.183  0.4567 -1.0882  0.9877
    1SOL    HW3 2263   1.523   0.691   1.073  0.7241  0.2342  0.1638
    1SOL    MW4 2264   1.543   0.697   1.158  0.1669 -0.2313  0.3347
    1SOL     OW 2265   1.321   0.866   1.207 -0.2132 -0.2054 -0.1289
    1SOL    HW2 2266   1.391   0.804   1.187 -0.1619  0.0776 -0.8445
    1SOL    HW3 2267   1.245   0.833   1.158 -0.4569 -0.2650  0.2887
    1SOL    MW4 2268   1.320   0.854   1.198 -0.2387 -0.1760 -0.1683
    1SOL     OW 2269   1.356   1.131   1.103  0.5808 -0.2900 -0.1028
    1SOL    HW2 2270   1.336   1.053   1.155 -0.3225 -0.3128 -0.4648
    1SOL    HW3 2271   1.424   1.176   1.151 -0.6277 -0.0246  1.3903
    1SOL    MW4 2272   1.362   1.127   1.116  0.3021 -0.2581  0.0465
    1SOL     OW 2273   1.557   1.287   1.210  0.2483 -0.1643 -0.1059
    1SOL    HW2 2274   1.634   1.240   1.181  0.3306 -1.0611  1.5169
    1SOL    HW3 2275   1.556   1.276   1.305 -1.5865  0.2676 -0.0527
    1SOL    MW4 2276   1.567   1.279   1.219  0.0172 -0.2257  0.1153
    1SOL     OW 2277   1.568   1.533   1.115  0.0680 -0.1702  0.2398
    1SOL    HW2 2278   1.645   1.564   1.162 -0.1346  0.6456  0.0336
    1SOL    HW3 2279   1.561   1.441   1.140  1.5704 -0.4593 -0.3523
    1SOL    MW4 2280   1.578   1.525   1.125  0.2396 -0.1006  0.1345
    1SOL     OW 2281   1.334   1.652   1.209  0.2340 -0.1114 -0.2722
    1SOL    HW2 2282   1.413   1.607   1.179  0.1499  0.0829 -0.7951
    1SOL    HW3 2283   1.262   1.595   1.181  0.1565  0.0415 -0.3852
    1SOL    MW4 2284   1.335   1.638   1.201  0.2126 -0.0657 -0.3562
    1SOL     OW 2285   1.343   1.914   1.079  0.1931 -0.0395  0.0726
    1SOL    HW2 2286   1.335   1.830   1.124  1.8823 -0.2842 -0.0527
    1SOL    HW3 2287   1.269   1.966   1.111 -1.0400 -1.6624 -0.0732
    1SOL    MW4 2288   1.332   1.910   1.089  0.2531 -0.2860  0.0370
    1SOL     OW 2289   1.570   2.032   1.175 -0.0447 -0.1510 -0.2994
    1SOL    HW2 2290   1.563   2.111   1.121 -0.8974 -0.2586 -0.3634
    1SOL    HW3 2291   1.488   1.985   1.159 -1.2872  0.8749  2.6919
    1SOL    MW4 2292   1.558   2.036   1.166 -0.3213 -0.0298  0.0868
    1SOL     OW 2293   1.585   2.295   1.071  0.5051  0.0252  0.1977
    1SOL    HW2 2294   1.495   2.321   1.092  0.3684 -0.7573  0.6079
    1SOL    HW3 2295   1.590   2.303   0.975  0.5564  1.7836  0.3305
    1SOL    MW4 2296   1.574   2.299   1.061  0.4939  0.1540  0.2693
    1SOL     OW 2297   1.323   2.399   1.190 -0.6293  0.2322  0.0541
    1SOL    HW2 2298   1.324   2.385   1.285 -3.4280 -0.1614  0.0587
    1SOL    HW3 2299   1.335   2.493   1.180  0.8938  0.1318  0.7164
    1SOL    MW4 2300   1.325   2.409   1.201 -0.7976  0.1674  0.1422
    1SOL     OW 2301   1.338   2.665   1.088 -0.0670 -0.1462 -0.3428
    1SOL    HW2 2302   1.417   2.710   1.118 -0.2933  0.1975 -0.2510
    1SOL    HW3 2303   1.266   2.719   1.122 -0.3601 -1.3549  0.9605
    1SOL    MW4 2304   1.339   2.678   1.096 -0.1354 -0.2601 -0.1588
    1SOL     OW 2305   1.545   2.785   1.228  0.7918  0.3738  0.5080
    1SOL    HW2 2306   1.626   2.752   1.189  1.1644  0.6666  1.0215
    1SOL    HW3 2307   1.535   2.872   1.191 -0.3127 -0.3832 -1.0229
    1SOL    MW4 2308   1.555   2.792   1.218  0.6955  0.3126  0.3737
    1SOL     OW 2309   1.497   3.034   1.137  0.0689 -0.0617 -0.1571
    1SOL    HW2 2310   1.572   3.088   1.164  0.3277  0.3924 -1.7607
    1SOL    HW3 2311   1.421   3.082   1.169  0.3695  0.4874 -0.2553
    1SOL    MW4 2312   1.497   3.048   1.145  0.1426  0.0708 -0.3816
    1SOL     OW 2313   1.298   3.199   1.209 -0.1369  0.1662  0.1039
    1SOL    HW2 2314   1.304   3.219   1.302 -0.8200  1.3859 -0.1091
    1SOL    HW3 2315   1.218   3.148   1.200 -0.7697  1.1773 -0.0072
    1SOL    MW4 2316   1.288   3.195   1.220 -0.3104  0.4606  0.0612
    1SOL     OW 2317   1.325   3.454   1.132  0.0200 -0.0712  0.5931
    1SOL    HW2 2318   1.306   3.361   1.140  0.2234 -0.0232  1.6543
    1SOL    HW3 2319   1.338   3.467   1.038 -0.3140 -1.0470  0.4004
    1SOL    MW4 2320   1.324   3.443   1.121  0.0029 -0.1936  0.7079
    1SOL     OW 2321   1.549   3.595   1.180 -0.3597  0.0503 -0.0203
    1SOL    HW2 2322   1.543   3.682   1.139  1.2883  1.1871  2.0314
    1SOL    HW3 2323   1.465   3.554   1.161 -0.2353  1.1025 -3.1752
    1SOL    MW4 2324   1.537   3.601   1.172 -0.1259  0.3390 -0.1661
    1SOL     OW 2325   1.566   3.849   1.091 -0.0311 -0.0614  0.0587
    1SOL    HW2 2326   1.500   3.910   1.125 -2.0061 -0.7752 -2.3265
    1SOL    HW3 2327   1.572   3.869   0.998  1.1616 -1.8198 -0.2726
    1SOL    MW4 2328   1.558   3.860   1.083 -0.1343 -0.3877 -0.2997
    1SOL     OW 2329   1.362   4.012   1.194  0.2900  0.4407 -0.7462
    1SOL    HW2 2330   1.357   4.106   1.178  0.8215  0.5425 -0.3182
    1SOL    HW3 2331   1.287   3.976   1.146 -0.0869  1.1093 -0.6641
    1SOL    MW4 2332   1.352   4.020   1.185  0.3104  0.5426 -0.6789
    1SOL     OW 2333   1.324   4.266   1.108 -0.7984 -0.0691  0.1245
    1SOL    HW2 2334   1.248   4.302   1.154 -0.1480  1.3967  0.0533
    1SOL    HW3 2335   1.293   4.252   1.019 -1.3306 -0.6240  0.3850
    1SOL    MW4 2336   1.310   4.269   1.102 -0.7828  0.0515  0.1495
    1SOL     OW 2337   1.561   4.397   1.186 -0.4120  0.1332 -0.2676
    1SOL    HW2 2338   1.535   4.387   1.278 -0.7195 -1.4206 -0.5057
    1SOL    HW3 2339   1.493   4.350   1.137  0.1460  0.3323 -1.2405
    1SOL    MW4 2340   1.549   4.390   1.192 -0.3791 -0.0458 -0.4275
    1SOL     OW 2341   1.974   4.654   1.098  0.2019  0.0276  0.3536
    1SOL    HW2 2342   1.971   4.569   1.141 -1.0613 -0.9481 -1.5893
    1SOL    HW3 2343   1.966   4.635   1.005  0.3697  2.2487 -0.1602
    1SOL    MW4 2344   1.972   4.640   1.091  0.0573  0.1922  0.0294
    1SOL     OW 2345   1.752   0.103   1.213  0.0953  0.9111 -0.1942
    1SOL    HW2 2346   1.758   0.199   1.214  0.9056  0.8703 -0.6986
    1SOL    HW3 2347   1.824   0.075   1.157 -0.8421  0.0560 -1.0060
    1SOL    MW4 2348   1.762   0.112   1.205  0.0786  0.7929 -0.3678
    1SOL     OW 2349   1.807   0.366   1.156 -0.1364 -0.1445 -0.4846
    1SOL    HW2 2350   1.713   0.378   1.167 -0.2430 -1.1103 -0.3404
    1SOL    HW3 2351   1.821   0.367   1.062 -0.2776  0.0555 -0.5048
    1SOL    MW4 2352   1.797   0.368   1.145 -0.1690 -0.2455 -0.4681
    1SOL     OW 2353   2.016   0.791   1.130  0.3835 -0.1456 -0.0737
    1SOL    HW2 2354   2.095   0.840   1.152  0.8928 -0.1826 -1.7226
    1SOL    HW3 2355   2.029   0.705   1.171  2.1644 -0.8531 -1.9841
    1SOL    MW4 2356   2.028   0.786   1.138  0.6855 -0.2438 -0.5434
    1SOL     OW 2357   1.963   0.743   0.854  0.2629  0.3385  0.0040
    1SOL    HW2 2358   2.024   0.808   0.819  2.0907 -1.3800 -0.0902
    1SOL    HW3 2359   1.963   0.759   0.949  2.2649 -0.7865  0.2157
    1SOL    MW4 2360   1.971   0.754   0.862  0.7681 -0.0366  0.0196
    1SOL     OW 2361   1.765   0.866   1.212 -0.0910  0.0776 -0.1002
    1SOL    HW2 2362   1.769   0.864   1.307  0.3034  0.4229 -0.1071
    1SOL    HW3 2363   1.850   0.833   1.183  0.1657  0.9065 -0.3170
    1SOL    MW4 2364   1.777   0.861   1.221 -0.0050  0.2325 -0.1298
    1SOL     OW 2365   1.788   1.156   1.119  0.1707  0.3710  0.2695
    1SOL    HW2 2366   1.785   1.064   1.146 -0.8298  0.0782 -0.7729
    1SOL    HW3 2367   1.801   1.153   1.024  0.8833  1.3261  0.3287
    1SOL    MW4 2368   1.789   1.144   1.110  0.1328  0.4585  0.1397
    1SOL     OW 2369   2.022   1.308   1.166  0.7375  0.3527 -0.1168
    1SOL    HW2 2370   2.102   1.265   1.136 -0.2057 -1.3033 -0.3151
    1SOL    HW3 2371   1.952   1.251   1.137 -0.5287  1.8035  0.0424
    1SOL    MW4 2372   2.024   1.295   1.158  0.4458  0.3254 -0.1220
    1SOL     OW 2373   2.057   1.572   1.102 -0.2385 -0.2522 -0.5940
    1SOL    HW2 2374   2.061   1.477   1.118 -1.4952 -0.4223 -1.2012
    1SOL    HW3 2375   2.033   1.580   1.010 -0.0215  0.6544 -0.5708
    1SOL    MW4 2376   2.054   1.560   1.092 -0.3757 -0.1552 -0.6710
    1SOL     OW 2377   1.794   1.673   1.217 -0.0184  0.0091  0.0807
    1SOL    HW2 2378   1.804   1.758   1.173 -0.5187  0.1519  0.2425
    1SOL    HW3 2379   1.872   1.623   1.190  0.2120  0.4697 -0.1196
    1SOL    MW4 2380   1.806   1.678   1.207 -0.0540  0.0886  0.0757
    1SOL     OW 2381   1.825   1.920   1.081  0.5919 -0.2091 -0.1010
    1SOL    HW2 2382   1.743   1.955   1.115  0.9938 -0.0317  0.6858
    1SOL    HW3 2383   1.817   1.928   0.986  0.0345  0.5539  0.0076
    1SOL    MW4 2384   1.813   1.926   1.073  0.5715 -0.0849  0.0169
    1SOL     OW 2385   1.999   2.087   1.207  0.9338 -0.5284 -0.0313
    1SOL    HW2 2386   1.992   2.061   1.299 -0.5619 -0.3645 -0.0834
    1SOL    HW3 2387   1.939   2.029   1.161  1.4548 -0.4101 -0.8692
    1SOL    MW4 2388   1.990   2.076   1.213  0.8053 -0.4909 -0.1487
    1SOL     OW 2389   2.038   2.346   1.114 -0.1932  0.1012 -0.0791
    1SOL    HW2 2390   2.111   2.396   1.151  1.0187 -0.5163 -1.5930
    1SOL    HW3 2391   2.032   2.268   1.170  0.0082  0.3684  0.3220
    1SOL    MW4 2392   2.047   2.342   1.126 -0.0067  0.0551 -0.2260
    1SOL     OW 2393   1.796   2.443   1.174 -0.4284  0.2695 -0.0284
    1SOL    HW2 2394   1.882   2.412   1.148  0.3312  0.3354  2.3184
    1SOL    HW3 2395   1.735   2.376   1.142  0.7812 -1.4148  1.1563
    1SOL    MW4 2396   1.799   2.430   1.166 -0.1687  0.0560  0.4374
    1SOL     OW 2397   1.789   2.704   1.115  0.1002  0.2362  0.2383
    1SOL    HW2 2398   1.790   2.610   1.136 -2.9865  0.2186  0.4546
    1SOL    HW3 2399   1.789   2.706   1.019  0.9656  0.0600  0.2248
    1SOL    MW4 2400   1.789   2.692   1.105 -0.1929  0.2110  0.2652
    1SOL     OW 2401   1.990   2.874   1.246 -0.0620  0.2819  0.0682
    1SOL    HW2 2402   1.978   2.966   1.225  0.6805  0.4378  0.3154
    1SOL    HW3 2403   1.911   2.831   1.212  0.3244  0.7783 -1.5109
    1SOL    MW4 2404   1.978   2.880   1.238  0.0868  0.3684 -0.1076
    1SOL     OW 2405   1.979   3.131   1.147 -0.0359  0.1820  0.4887
    1SOL    HW2 2406   1.889   3.164   1.157 -0.4134 -0.7336  0.1299
    1SOL    HW3 2407   1.984   3.100   1.057  0.4238 -0.4133  0.7125
    1SOL    MW4 2408   1.968   3.131   1.137 -0.0249 -0.0174  0.4708
    1SOL     OW 2409   1.710   3.208   1.196  0.2702 -0.4636 -0.1056
    1SOL    HW2 2410   1.728   3.206   1.290  1.2664 -1.8194 -0.3137
    1SOL    HW3 2411   1.740   3.294   1.167  1.1626 -0.5395  0.5841
    1SOL    MW4 2412   1.716   3.219   1.204  0.5194 -0.6526 -0.0420
    1SOL     OW 2413   1.792   3.454   1.101 -0.5924 -0.6800 -0.2182
    1SOL    HW2 2414   1.857   3.500   1.155 -0.3017 -1.8288  0.4288
    1SOL    HW3 2415   1.711   3.502   1.116  0.1296  0.8585 -1.1511
    1SOL    MW4 2416   1.790   3.466   1.110 -0.4587 -0.6287 -0.2558
    1SOL     OW 2417   1.981   3.643   1.206  0.5413 -0.3085 -0.4204
    1SOL    HW2 2418   1.991   3.644   1.301 -0.4456  1.4745 -0.3069
    1SOL    HW3 2419   2.062   3.604   1.173  0.4858 -1.7972  1.1785
    1SOL    MW4 2420   1.993   3.638   1.214  0.4039 -0.2697 -0.1944
    1SOL     OW 2421   1.991   3.901   1.082 -0.4514  0.1266  0.0794
    1SOL    HW2 2422   1.935   3.945   1.146 -0.2028 -0.7173  0.8998
    1SOL    HW3 2423   1.997   3.810   1.114  0.4564 -0.0694 -0.6165
    1SOL    MW4 2424   1.984   3.895   1.095 -0.2989 -0.0107  0.0958
    1SOL     OW 2425   1.777   3.978   1.229  0.3794  0.6333  0.3011
    1SOL    HW2 2426   1.792   3.962   1.322 -3.0092  1.5856  1.1168
    1SOL    HW3 2427   1.707   3.917   1.205 -1.3436  2.8526 -0.6239
    1SOL    MW4 2428   1.769   3.968   1.238 -0.2949  1.0517  0.2866
    1SOL     OW 2429   1.781   4.234   1.119 -0.7707 -0.0626  0.1691
    1SOL    HW2 2430   1.775   4.147   1.158 -0.4665  0.0625  0.4984
    1SOL    HW3 2431   1.706   4.282   1.154  0.1861  0.4300  1.5674
    1SOL    MW4 2432   1.770   4.229   1.129 -0.6043  0.0191  0.3971
    1SOL     OW 2433   2.036   4.389   1.201  0.5235 -0.5571  0.0561
    1SOL    HW2 2434   2.046   4.383   1.296  0.2164  0.1705  0.1337
    1SOL    HW3 2435   1.966   4.327   1.181  2.5992 -2.9412 -0.0619
    1SOL    MW4 2436   2.028   4.380   1.211  0.7567 -0.7758  0.0508
    1SOL     OW 2437   2.399   4.656   1.124  0.4509  0.0279 -0.0913
    1SOL    HW2 2438   2.476   4.710   1.139  0.2780 -0.2920  2.1528
    1SOL    HW3 2439   2.327   4.704   1.165 -0.2326 -0.4973 -0.6520
    1SOL    MW4 2440   2.400   4.670   1.132  0.3378 -0.0839  0.1308
    1SOL     OW 2441   2.183   0.122   1.228  0.4533 -0.2986  0.1502
    1SOL    HW2 2442   2.197   0.207   1.186 -0.4272 -0.2951 -0.1341
    1SOL    HW3 2443   2.111   0.082   1.180 -1.3180  0.1612  2.3120
    1SOL    MW4 2444   2.175   0.128   1.216  0.1032 -0.2375  0.3978
    1SOL     OW 2445   2.023   0.547   1.243  0.0236  0.0717 -0.3286
    1SOL    HW2 2446   2.021   0.529   1.337  0.0835 -1.0963 -0.5427
    1SOL    HW3 2447   1.942   0.508   1.210  0.4102 -0.2637 -0.8844
    1SOL    MW4 2448   2.012   0.540   1.251  0.0825 -0.1267 -0.4302
    1SOL     OW 2449   2.473   0.528   1.208 -0.3157  0.1318 -0.0305
    1SOL    HW2 2450   2.480   0.520   1.303 -0.9981  0.5536  0.0555
    1SOL    HW3 2451   2.400   0.472   1.184  0.1217 -0.3055 -0.3603
    1SOL    MW4 2452   2.464   0.520   1.217 -0.3479  0.1297 -0.0626
    1SOL     OW 2453   2.446   0.786   1.110  0.4502  0.1825  0.2858
    1SOL    HW2 2454   2.461   0.694   1.129  0.4487  0.0515 -0.3117
    1SOL    HW3 2455   2.428   0.788   1.016  0.8674  0.8422  0.2160
    1SOL    MW4 2456   2.446   0.774   1.100  0.5052  0.2523  0.1978
    1SOL     OW 2457   2.239   0.927   1.226 -0.6194  0.4020 -0.0531
    1SOL    HW2 2458   2.237   0.902   1.318 -2.3218  0.4445 -0.0599
    1SOL    HW3 2459   2.315   0.881   1.190 -1.2562 -1.4003  0.8635
    1SOL    MW4 2460   2.249   0.918   1.234 -0.9282  0.1699  0.0669
    1SOL     OW 2461   2.262   1.174   1.100  0.2058  0.0282  0.2981
    1SOL    HW2 2462   2.340   1.209   1.143 -0.4304  0.1512  1.3812
    1SOL    HW3 2463   2.242   1.094   1.147 -0.6256  0.2711  0.3775
    1SOL    MW4 2464   2.270   1.168   1.112  0.0122  0.0763  0.4516
    1SOL     OW 2465   2.484   1.272   1.204  0.0339  0.5150  0.4526
    1SOL    HW2 2466   2.551   1.216   1.166  0.6552  0.9303  0.9210
    1SOL    HW3 2467   2.502   1.359   1.168  0.1958  0.7709  1.1464
    1SOL    MW4 2468   2.495   1.276   1.195  0.1373  0.6036  0.6058
    1SOL     OW 2469   2.490   1.543   1.101 -0.2814  0.0331  0.3777
    1SOL    HW2 2470   2.420   1.605   1.124 -1.4632 -0.9475 -0.4972
    1SOL    HW3 2471   2.498   1.550   1.006  0.6534 -0.0478  0.4486
    1SOL    MW4 2472   2.481   1.552   1.092 -0.3142 -0.1069  0.2716
    1SOL     OW 2473   2.271   1.687   1.194 -0.0416 -0.1257 -0.6827
    1SOL    HW2 2474   2.249   1.776   1.168 -0.2173 -0.4509 -1.6745
    1SOL    HW3 2475   2.196   1.634   1.166 -0.1951 -0.5096  0.4119
    1SOL    MW4 2476   2.258   1.691   1.187 -0.0851 -0.2193 -0.6692
    1SOL     OW 2477   2.236   1.972   1.106 -0.3196  0.2942 -0.1148
    1SOL    HW2 2478   2.162   2.010   1.152 -1.1937 -1.0807 -0.3464
    1SOL    HW3 2479   2.218   1.987   1.013  0.3820  1.1685 -0.1196
    1SOL    MW4 2480   2.224   1.979   1.100 -0.3421  0.2280 -0.1460
    1SOL     OW 2481   2.475   2.074   1.211  0.0134  0.1593 -0.5439
    1SOL    HW2 2482   2.553   2.032   1.176  0.5153  1.1572 -0.6492
    1SOL    HW3 2483   2.402   2.024   1.175  0.6068 -1.0904 -0.0559
    1SOL    MW4 2484   2.476   2.062   1.202  0.1576  0.1261 -0.4934
    1SOL     OW 2485   2.470   2.329   1.128  0.3966  0.0754  0.1933
    1SOL    HW2 2486   2.478   2.246   1.175 -0.2166 -0.7193 -1.0847
    1SOL    HW3 2487   2.449   2.304   1.038 -1.6803  1.6546  0.2088
    1SOL    MW4 2488   2.468   2.315   1.123  0.0415  0.1786  0.0265
    1SOL     OW 2489   2.253   2.489   1.219 -0.3611 -0.5866 -0.1640
    1SOL    HW2 2490   2.257   2.488   1.314 -1.5927 -0.0144 -0.0972
    1SOL    HW3 2491   2.325   2.432   1.191 -0.1244 -0.9191  1.1021
    1SOL    MW4 2492   2.263   2.481   1.228 -0.4923 -0.5548  0.0118
    1SOL     OW 2493   2.214   2.732   1.095 -0.0126 -0.3988  0.0202
    1SOL    HW2 2494   2.207   2.650   1.144 -0.0108  0.0935  0.8613
    1SOL    HW3 2495   2.144   2.787   1.131  0.0720  0.0206 -0.4464
    1SOL    MW4 2496   2.204   2.728   1.106 -0.0012 -0.2787  0.0696
    1SOL     OW 2497   2.454   2.854   1.183 -0.0730 -0.0529  0.1985
    1SOL    HW2 2498   2.429   2.861   1.275 -1.2161  0.7253 -0.1725
    1SOL    HW3 2499   2.385   2.801   1.143 -1.6075  2.7768 -0.9971
    1SOL    MW4 2500   2.441   2.848   1.190 -0.4265  0.4230 -0.0081
    1SOL     OW 2501   2.468   3.124   1.128 -0.2777  0.1334  0.2112
    1SOL    HW2 2502   2.391   3.164   1.166 -1.1794 -0.5208 -0.8846
    1SOL    HW3 2503   2.460   3.031   1.150  0.6824  0.2136  0.9035
    1SOL    MW4 2504   2.457   3.117   1.136 -0.2701  0.0575  0.1578
    1SOL     OW 2505   2.240   3.266   1.190  0.2698  0.4484 -0.2226
    1SOL    HW2 2506   2.240   3.354   1.153 -0.5176  0.1600 -0.9193
    1SOL    HW3 2507   2.153   3.231   1.169  0.5186 -0.4285  0.1995
    1SOL    MW4 2508   2.228   3.273   1.183  0.1991  0.2947 -0.2589
    1SOL     OW 2509   2.211   3.540   1.097  0.1227  0.6873 -0.1578
    1SOL    HW2 2510   2.290   3.590   1.117  0.4691 -0.2850  0.9112
    1SOL    HW3 2511   2.212   3.531   1.001  1.6548  0.1020 -0.1016
    1SOL    MW4 2512   2.221   3.546   1.087  0.3707  0.4818 -0.0093
    1SOL     OW 2513   2.491   3.621   1.179  0.3117  0.0923  0.2197
    1SOL    HW2 2514   2.512   3.613   1.272 -1.7416 -0.8564  0.6307
    1SOL    HW3 2515   2.487   3.715   1.164 -0.5507  0.2505  1.3713
    1SOL    MW4 2516   2.494   3.633   1.189 -0.0732 -0.0122  0.4259
    1SOL     OW 2517   2.488   3.882   1.110  0.4759 -0.0560 -0.3223
    1SOL    HW2 2518   2.404   3.924   1.129 -0.0911 -1.7682  1.1228
    1SOL    HW3 2519   2.494   3.882   1.015  0.3966  3.0498 -0.3606
    1SOL    MW4 2520   2.477   3.887   1.100  0.3905  0.1276 -0.1367
    1SOL     OW 2521   2.247   3.996   1.181 -0.4783 -0.1575  0.0865
    1SOL    HW2 2522   2.270   4.083   1.148  1.1534 -0.3726  0.6404
    1SOL    HW3 2523   2.179   3.965   1.121 -0.7007  1.2849 -0.4249
    1SOL    MW4 2524   2.241   4.004   1.169 -0.2925  0.0048  0.0919
    1SOL     OW 2525   2.251   4.257   1.084  0.0072  0.0057  0.1591
    1SOL    HW2 2526   2.187   4.320   1.117  0.5043  0.1370  0.8747
    1SOL    HW3 2527   2.228   4.247   0.991 -1.4098 -0.3990  0.5406
    1SOL    MW4 2528   2.239   4.264   1.076 -0.1142 -0.0305  0.3039
    1SOL     OW 2529   2.495   4.374   1.158  0.0016  0.0917 -0.2028
    1SOL    HW2 2530   2.413   4.333   1.133 -0.3445  0.9282 -0.4528
    1SOL    HW3 2531   2.479   4.468   1.149  1.2825  0.2313 -1.2375
    1SOL    MW4 2532   2.482   4.381   1.153  0.1252  0.2208 -0.3723
    1SOL     OW 2533   2.875   4.636   1.092 -0.1171 -0.3481  0.1326
    1SOL    HW2 2534   2.914   4.551   1.114  0.3160  0.0895  1.0579
    1SOL    HW3 2535   2.876   4.638   0.996  1.8818 -0.4635  0.1331
    1SOL    MW4 2536   2.880   4.625   1.082  0.2038 -0.3057  0.2548
    1SOL     OW 2537   2.648   0.127   1.176 -0.4651 -0.1189  0.6140
    1SOL    HW2 2538   2.659   0.119   1.271 -0.1009 -0.1966  0.5657
    1SOL    HW3 2539   2.724   0.081   1.140 -0.3829  0.2738  0.2887
    1SOL    MW4 2540   2.660   0.120   1.184 -0.4058 -0.0774  0.5647
    1SOL     OW 2541   2.700   0.391   1.097 -0.2700  0.1195 -0.1653
    1SOL    HW2 2542   2.696   0.297   1.116 -0.3712 -0.0174 -0.8536
    1SOL    HW3 2543   2.626   0.429   1.145 -0.2179 -0.1514  0.1260
    1SOL    MW4 2544   2.690   0.384   1.106 -0.2766  0.0657 -0.2177
    1SOL     OW 2545   2.892   0.512   1.231 -0.1753 -0.3827 -0.1022
    1SOL    HW2 2546   2.905   0.597   1.189  0.0441 -0.0252  0.6698
    1SOL    HW3 2547   2.820   0.472   1.182 -0.2859  0.2504 -0.4687
    1SOL    MW4 2548   2.884   0.518   1.219 -0.1612 -0.2520 -0.0488
    1SOL     OW 2549   2.907   0.753   1.078 -0.4824  0.1047 -0.1638
    1SOL    HW2 2550   2.972   0.797   1.134  0.0925 -0.8267 -0.0841
    1SOL    HW3 2551   2.822   0.781   1.112 -0.1172  1.1548 -0.1203
    1SOL    MW4 2552   2.905   0.762   1.090 -0.3583  0.1204 -0.1476
    1SOL     OW 2553   2.695   0.876   1.213 -0.0639 -0.4093  0.0920
    1SOL    HW2 2554   2.710   0.967   1.189  0.0165 -0.2848  0.6055
    1SOL    HW3 2555   2.604   0.859   1.190 -0.1183 -0.1560  0.1228
    1SOL    MW4 2556   2.685   0.886   1.207 -0.0606 -0.3595  0.1637
    1SOL     OW 2557   2.698   1.131   1.106  0.3968 -0.2017 -0.0220
    1SOL    HW2 2558   2.696   1.135   1.010 -1.3513  1.3309  0.0631
    1SOL    HW3 2559   2.785   1.166   1.129  1.3561 -1.8263 -1.0751
    1SOL    MW4 2560   2.709   1.136   1.096  0.2925 -0.2136 -0.1496
    1SOL     OW 2561   2.920   1.261   1.180  0.3679 -0.2130  0.0292
    1SOL    HW2 2562   2.919   1.265   1.276 -0.0271 -1.0558  0.0676
    1SOL    HW3 2563   2.921   1.352   1.152  0.5062  0.0393  0.8381
    1SOL    MW4 2564   2.920   1.274   1.189  0.3343 -0.2908  0.1411
    1SOL     OW 2565   2.911   1.520   1.108 -0.2422  0.0235 -0.0165
    1SOL    HW2 2566   2.989   1.563   1.145  0.1339 -0.2918 -0.4357
    1SOL    HW3 2567   2.931   1.509   1.015 -0.5703 -0.5373 -0.0248
    1SOL    MW4 2568   2.924   1.524   1.101 -0.2358 -0.0920 -0.0728
    1SOL     OW 2569   2.712   1.697   1.196  0.4771 -0.0728 -0.0251
    1SOL    HW2 2570   2.786   1.637   1.190  0.9132  0.4537  0.0884
    1SOL    HW3 2571   2.637   1.646   1.164  0.6118 -1.0644  1.2258
    1SOL    MW4 2572   2.712   1.683   1.191  0.5522 -0.1342  0.1550
    1SOL     OW 2573   2.693   1.945   1.090 -0.0008  0.0685 -0.0302
    1SOL    HW2 2574   2.775   1.990   1.111 -0.5077  0.3788  1.3389
    1SOL    HW3 2575   2.704   1.857   1.125 -0.6457  0.4270  1.1024
    1SOL    MW4 2576   2.705   1.939   1.097 -0.1526  0.1569  0.2999
    1SOL     OW 2577   2.905   2.109   1.169 -0.2558 -0.2811 -0.0499
    1SOL    HW2 2578   2.887   2.139   1.259 -1.9333 -0.9149 -0.1565
    1SOL    HW3 2579   2.891   2.186   1.115 -1.3250 -0.4188  0.0210
    1SOL    MW4 2580   2.901   2.123   1.174 -0.6182 -0.3831 -0.0547
    1SOL     OW 2581   2.877   2.345   1.049 -0.3264 -0.5966  0.0889
    1SOL    HW2 2582   2.961   2.377   1.082  0.5117 -3.2620  0.7105
    1SOL    HW3 2583   2.812   2.379   1.110  0.3535  1.0661 -0.1072
    1SOL    MW4 2584   2.879   2.354   1.062 -0.1264 -0.7291  0.1451
    1SOL     OW 2585   2.696   2.444   1.238 -0.0648  0.4494 -0.2792
    1SOL    HW2 2586   2.694   2.455   1.333  1.0466 -0.1940 -0.1731
    1SOL    HW3 2587   2.615   2.398   1.217 -0.5643  1.0660  0.2929
    1SOL    MW4 2588   2.685   2.439   1.248  0.0157  0.4456 -0.1897
    1SOL     OW 2589   2.679   2.699   1.109  0.3215  0.5941 -0.0543
    1SOL    HW2 2590   2.656   2.616   1.151 -0.0022  0.0822 -1.2143
    1SOL    HW3 2591   2.612   2.760   1.138 -0.6956 -0.0999 -0.8983
    1SOL    MW4 2592   2.667   2.696   1.118  0.1447  0.4351 -0.3188
    1SOL     OW 2593   2.910   2.807   1.228  0.2040  0.1773 -0.0682
    1SOL    HW2 2594   2.903   2.799   1.323  0.8669 -1.8246 -0.1740
    1SOL    HW3 2595   2.831   2.766   1.194  0.9199 -0.9423 -0.4296
    1SOL    MW4 2596   2.899   2.801   1.236  0.3860 -0.2346 -0.1298
    1SOL     OW 2597   2.903   3.073   1.172  0.9924 -0.4435 -0.6401
    1SOL    HW2 2598   2.906   2.978   1.179  0.3907 -0.6209 -2.5046
    1SOL    HW3 2599   2.885   3.090   1.079 -0.4125  1.4475 -0.0527
    1SOL    MW4 2600   2.901   3.063   1.160  0.7274 -0.2177 -0.8086
    1SOL     OW 2601   2.700   3.235   1.251  0.2712  0.1864  0.0162
    1SOL    HW2 2602   2.775   3.179   1.234 -0.7413 -1.0976 -0.3239
    1SOL    HW3 2603   2.628   3.196   1.201 -0.5113  1.6836 -0.0851
    1SOL    MW4 2604   2.700   3.223   1.242  0.0343  0.2148 -0.0420
    1SOL     OW 2605   2.712   3.490   1.086 -0.0453  0.0145  0.1586
    1SOL    HW2 2606   2.712   3.409   1.136  0.3482  0.0723  0.2549
    1SOL    HW3 2607   2.630   3.533   1.110  0.1831  0.0863  0.8265
    1SOL    MW4 2608   2.701   3.485   1.096  0.0367  0.0315  0.2596
    1SOL     OW 2609   2.898   3.625   1.222  0.1333 -0.0386 -0.3299
    1SOL    HW2 2610   2.980   3.592   1.187  0.1777 -0.6272  0.3344
    1SOL    HW3 2611   2.830   3.575   1.176  0.1243  0.6825 -1.1258
    1SOL    MW4 2612   2.900   3.614   1.211  0.1380 -0.0210 -0.3473
    1SOL     OW 2613   2.917   3.853   1.056 -0.0755 -0.3506 -0.1268
    1SOL    HW2 2614   2.983   3.918   1.080  1.3718 -0.8471 -2.6635
    1SOL    HW3 2615   2.926   3.785   1.123 -0.7370  1.4175  1.8109
    1SOL    MW4 2616   2.927   3.852   1.068  0.0281 -0.1829 -0.2059
    1SOL     OW 2617   2.716   3.983   1.241 -0.3164 -0.2048  0.2695
    1SOL    HW2 2618   2.773   3.928   1.187 -0.2577 -0.8505  0.9889
    1SOL    HW3 2619   2.628   3.967   1.207 -0.4158 -1.4922  1.1086
    1SOL    MW4 2620   2.712   3.974   1.229 -0.3221 -0.4599  0.4753
    1SOL     OW 2621   2.728   4.238   1.101 -0.2099  0.6395 -0.1891
    1SOL    HW2 2622   2.717   4.159   1.154 -1.2537  1.3299  0.6448
    1SOL    HW3 2623   2.657   4.296   1.129  0.7698  2.0294 -0.5178
    1SOL    MW4 2624   2.717   4.236   1.112 -0.2186  0.9141 -0.1225
    1SOL     OW 2625   2.955   4.387   1.179  0.3602 -0.2916  0.2699
    1SOL    HW2 2626   3.026   4.331   1.147  0.0266 -1.0786  0.8983
    1SOL    HW3 2627   2.875   4.340   1.157  0.0667  0.0799  0.5397
    1SOL    MW4 2628   2.954   4.373   1.172  0.2773 -0.3467  0.3885
    1SOL     OW 2629   3.341   4.653   1.112  0.8200  0.6832 -0.5663
    1SOL    HW2 2630   3.412   4.697   1.158  0.6358 -0.8326  1.2487
    1SOL    HW3 2631   3.264   4.708   1.129  1.0516  0.9312 -0.3214
    1SOL    MW4 2632   3.340   4.666   1.120  0.8264  0.5159 -0.2946
    1SOL     OW 2633   3.082   0.117   1.197 -0.5228 -0.0603 -0.3731
    1SOL    HW2 2634   3.088   0.112   1.293 -1.0996  0.9896 -0.2646
    1SOL    HW3 2635   2.999   0.075   1.176 -0.1352 -0.7771 -0.4588
    1SOL    MW4 2636   3.072   0.111   1.207 -0.5479 -0.0163 -0.3700
    1SOL     OW 2637   3.119   0.385   1.136 -0.1460 -0.5098 -0.1247
    1SOL    HW2 2638   3.107   0.294   1.166 -2.0579 -0.4909 -0.7712
    1SOL    HW3 2639   3.048   0.433   1.178  0.3611  0.5421 -0.4560
    1SOL    MW4 2640   3.108   0.379   1.146 -0.3314 -0.3685 -0.2537
    1SOL     OW 2641   3.375   0.484   1.232 -0.7660  0.2370 -0.1205
    1SOL    HW2 2642   3.382   0.573   1.197 -1.3440  0.1281 -0.5288
    1SOL    HW3 2643   3.305   0.444   1.181  0.4582 -0.9193 -0.9244
    1SOL    MW4 2644   3.366   0.491   1.221 -0.6807  0.0701 -0.2804
    1SOL     OW 2645   3.357   0.739   1.093  0.0749  0.1153  0.2246
    1SOL    HW2 2646   3.352   0.737   0.998  0.3827  0.9294  0.1940
    1SOL    HW3 2647   3.272   0.775   1.121  0.4697  1.0667  0.2088
    1SOL    MW4 2648   3.345   0.743   1.084  0.1674  0.3483  0.2186
    1SOL     OW 2649   3.140   0.853   1.196 -0.0367 -0.3419 -0.1648
    1SOL    HW2 2650   3.145   0.851   1.292  0.0698 -0.2465 -0.1672
    1SOL    HW3 2651   3.143   0.947   1.174  0.6038 -0.3868 -0.2901
    1SOL    MW4 2652   3.141   0.865   1.206  0.0618 -0.3353 -0.1817
    1SOL     OW 2653   3.142   1.114   1.117 -0.1598 -0.0966 -0.1009
    1SOL    HW2 2654   3.214   1.158   1.162  0.7580  0.7266 -2.3298
    1SOL    HW3 2655   3.065   1.167   1.136  0.0356 -0.3101  1.3031
    1SOL    MW4 2656   3.142   1.127   1.125 -0.0129 -0.0161 -0.2098
    1SOL     OW 2657   3.338   1.270   1.207  0.3897 -0.3090  0.0267
    1SOL    HW2 2658   3.363   1.288   1.298  0.3038 -1.0923  0.2127
    1SOL    HW3 2659   3.325   1.357   1.168  1.9756  0.0663  0.3098
    1SOL    MW4 2660   3.339   1.284   1.214  0.5875 -0.3629  0.0886
    1SOL     OW 2661   3.326   1.514   1.090  0.8394  0.1319 -0.6030
    1SOL    HW2 2662   3.410   1.547   1.121  0.6062  0.8024 -0.6810
    1SOL    HW3 2663   3.260   1.570   1.132  0.4447 -0.2174 -0.7482
    1SOL    MW4 2664   3.328   1.526   1.100  0.7565  0.1743 -0.6323
    1SOL     OW 2665   3.143   1.675   1.202 -0.1996  0.2467 -0.2116
    1SOL    HW2 2666   3.142   1.685   1.297  1.4909 -0.9236 -0.0325
    1SOL    HW3 2667   3.147   1.764   1.168 -1.0870  0.6780  0.8159
    1SOL    MW4 2668   3.144   1.688   1.210 -0.0937  0.1491 -0.0523
    1SOL     OW 2669   3.117   1.936   1.095 -0.5495 -0.0689 -0.5782
    1SOL    HW2 2670   3.194   1.977   1.134 -0.1683  0.0120 -1.4009
    1SOL    HW3 2671   3.043   1.981   1.137 -0.2013 -1.5825  1.7471
    1SOL    MW4 2672   3.117   1.948   1.106 -0.4532 -0.2580 -0.3799
    1SOL     OW 2673   3.362   2.041   1.190 -0.0353  0.3748  0.6639
    1SOL    HW2 2674   3.419   1.998   1.127 -1.6275  0.5718 -0.9436
    1SOL    HW3 2675   3.356   2.131   1.159 -0.3020  0.6487  1.4945
    1SOL    MW4 2676   3.369   2.047   1.177 -0.2809  0.4368  0.5614
    1SOL     OW 2677   3.329   2.302   1.107 -0.3391 -0.2519 -0.3436
    1SOL    HW2 2678   3.393   2.357   1.152  0.0865 -1.2486  0.2898
    1SOL    HW3 2679   3.245   2.330   1.141  0.0072 -1.3279  1.4770
    1SOL    MW4 2680   3.327   2.313   1.117 -0.2370 -0.5255 -0.0198
    1SOL     OW 2681   3.100   2.435   1.202  0.2095 -0.3118 -0.2806
    1SOL    HW2 2682   3.116   2.433   1.297 -0.3630  0.3774 -0.1652
    1SOL    HW3 2683   3.129   2.523   1.176  0.1407 -0.4179 -0.7088
    1SOL    MW4 2684   3.106   2.446   1.211  0.1249 -0.2348 -0.3220
    1SOL     OW 2685   3.132   2.699   1.107  0.2017 -0.0568 -0.1247
    1SOL    HW2 2686   3.046   2.723   1.141 -0.5297 -0.8772 -1.3573
    1SOL    HW3 2687   3.128   2.722   1.014  1.0290 -0.8579 -0.3696
    1SOL    MW4 2688   3.120   2.706   1.099  0.2143 -0.2706 -0.3197
    1SOL     OW 2689   3.368   2.815   1.192 -0.0853  0.3935 -0.5140
    1SOL    HW2 2690   3.378   2.906   1.165 -0.4082  0.0846 -1.6562
    1SOL    HW3 2691   3.289   2.785   1.149 -0.8005 -0.0083  1.0357
    1SOL    MW4 2692   3.359   2.823   1.183 -0.2222  0.2999 -0.4603
    1SOL     OW 2693   3.340   3.092   1.161 -0.1753 -0.4245 -0.2977
    1SOL    HW2 2694   3.415   3.133   1.204 -0.3166 -0.6001  0.1194
    1SOL    HW3 2695   3.263   3.134   1.201 -0.3089 -0.6774 -0.2866
    1SOL    MW4 2696   3.339   3.103   1.172 -0.2117 -0.4809 -0.2413
    1SOL     OW 2697   3.112   3.227   1.283  0.0696  0.3743 -0.5301
    1SOL    HW2 2698   3.131   3.186   1.368  0.0407  1.0337 -0.2004
    1SOL    HW3 2699   3.034   3.182   1.252 -0.9493  1.3030  0.6130
    1SOL    MW4 2700   3.104   3.215   1.290 -0.0682  0.5839 -0.3358
    1SOL     OW 2701   3.119   3.456   1.143 -0.0138  0.5276 -0.4876
    1SOL    HW2 2702   3.201   3.497   1.168  0.0619 -0.0395  0.2280
    1SOL    HW3 2703   3.116   3.375   1.194 -0.5677  0.0777 -1.2197
    1SOL    MW4 2704   3.129   3.451   1.153 -0.0765  0.3934 -0.4898
    1SOL     OW 2705   3.356   3.587   1.220  0.4035  0.4860  0.0379
    1SOL    HW2 2706   3.376   3.596   1.313  2.1391  1.4090 -0.4044
    1SOL    HW3 2707   3.429   3.537   1.184 -0.2446  0.1585 -0.8463
    1SOL    MW4 2708   3.368   3.582   1.227  0.5469  0.5648 -0.1371
    1SOL     OW 2709   3.363   3.837   1.096  0.0896  0.5237 -0.4369
    1SOL    HW2 2710   3.366   3.748   1.131  0.8384  0.4494 -0.6789
    1SOL    HW3 2711   3.288   3.877   1.139  0.7770  0.3169  0.9876
    1SOL    MW4 2712   3.354   3.831   1.106  0.2794  0.4866 -0.2810
    1SOL     OW 2713   3.125   3.979   1.175 -0.0684  0.0058 -0.7155
    1SOL    HW2 2714   3.129   3.972   1.270 -0.8270 -1.5977 -0.7761
    1SOL    HW3 2715   3.147   4.070   1.156  0.7645  0.1641  0.9429
    1SOL    MW4 2716   3.128   3.990   1.185 -0.0587 -0.1850 -0.5047
    1SOL     OW 2717   3.143   4.231   1.070  0.3919 -0.0394 -0.0831
    1SOL    HW2 2718   3.210   4.292   1.099 -0.3101  0.7588 -0.0998
    1SOL    HW3 2719   3.122   4.259   0.981 -2.0549  1.6029  0.9506
    1SOL    MW4 2720   3.149   4.243   1.062 -0.0234  0.2823  0.0510
    1SOL     OW 2721   3.312   4.405   1.228  0.1480  0.2931  0.4129
    1SOL    HW2 2722   3.400   4.370   1.216 -0.2739 -1.1958  1.5000
    1SOL    HW3 2723   3.320   4.498   1.207  1.4442 -0.3145 -1.8712
    1SOL    MW4 2724   3.325   4.413   1.224  0.2637  0.0167  0.2550
    1SOL     OW 2725   3.828   4.629   1.169  0.1886 -0.1591  0.2761
    1SOL    HW2 2726   3.819   4.542   1.207  0.9041 -0.7941 -0.9715
    1SOL    HW3 2727   3.813   4.616   1.075  1.1497  0.9163 -0.0459
    1SOL    MW4 2728   3.824   4.616   1.162  0.4101 -0.1006  0.0689
    1SOL     OW 2729   3.567   0.083   1.231  0.2245 -0.2056  0.1046
    1SOL    HW2 2730   3.582   0.174   1.204 -0.2718  0.0100  0.5503
    1SOL    HW3 2731   3.651   0.040   1.217  0.4649  0.3273 -0.1019
    1SOL    MW4 2732   3.580   0.089   1.225  0.1907 -0.1069  0.1361
    1SOL     OW 2733   3.602   0.351   1.167 -0.0439  0.0275  0.2070
    1SOL    HW2 2734   3.679   0.403   1.193 -0.3478  1.3051 -1.3931
    1SOL    HW3 2735   3.527   0.403   1.195 -0.3360 -0.2242 -0.1052
    1SOL    MW4 2736   3.603   0.365   1.174 -0.1223  0.1628 -0.0453
    1SOL     OW 2737   3.821   0.488   1.251  0.3918  0.1750 -0.0506
    1SOL    HW2 2738   3.902   0.453   1.216  0.5943  0.7425 -0.1474
    1SOL    HW3 2739   3.814   0.576   1.214  0.5480  0.7326  1.2290
    1SOL    MW4 2740   3.830   0.495   1.242  0.4394  0.3235  0.1055
    1SOL     OW 2741   3.805   0.733   1.106 -0.4616 -0.1186  0.4024
    1SOL    HW2 2742   3.881   0.780   1.139 -0.2225 -0.0049 -0.3025
    1SOL    HW3 2743   3.731   0.769   1.155 -0.3165  1.1551 -0.2909
    1SOL    MW4 2744   3.805   0.744   1.117 -0.4110  0.0645  0.2179
    1SOL     OW 2745   3.576   0.891   1.187  0.1346 -0.1694  0.2439
    1SOL    HW2 2746   3.572   0.977   1.144  2.5174  0.7508  1.7523
    1SOL    HW3 2747   3.497   0.846   1.157 -0.9799  2.3947 -0.8977
    1SOL    MW4 2748   3.565   0.897   1.177  0.3018  0.2904  0.2924
    1SOL     OW 2749   3.549   1.137   1.064 -0.5398  0.5020  0.1044
    1SOL    HW2 2750   3.631   1.179   1.090  0.3421 -0.8081 -0.4909
    1SOL    HW3 2751   3.480   1.194   1.099  0.6163  2.0013 -0.0019
    1SOL    MW4 2752   3.551   1.150   1.072 -0.2708  0.5269  0.0118
    1SOL     OW 2753   3.784   1.257   1.154 -0.0785 -0.1583 -0.5371
    1SOL    HW2 2754   3.789   1.266   1.249  1.0060 -0.9449 -0.5071
    1SOL    HW3 2755   3.778   1.347   1.122 -0.3228  0.1183  0.2633
    1SOL    MW4 2756   3.784   1.270   1.162  0.0324 -0.2254 -0.4275
    1SOL     OW 2757   3.803   1.518   1.081 -0.1421  0.1615  0.3288
    1SOL    HW2 2758   3.885   1.562   1.104  0.1314 -1.0904  1.8272
    1SOL    HW3 2759   3.809   1.505   0.986  2.5186 -2.0849  0.7552
    1SOL    MW4 2760   3.815   1.522   1.071  0.2449 -0.2999  0.5828
    1SOL     OW 2761   3.563   1.625   1.179 -0.0463 -0.4530 -0.0738
    1SOL    HW2 2762   3.563   1.714   1.143 -1.6629 -0.6199 -0.5093
    1SOL    HW3 2763   3.651   1.592   1.161  0.1453  0.5825 -1.0968
    1SOL    MW4 2764   3.575   1.633   1.172 -0.2344 -0.3384 -0.2662
    1SOL     OW 2765   3.565   1.893   1.044 -0.5009 -0.3312  0.1749
    1SOL    HW2 2766   3.650   1.932   1.064 -0.9991  1.3253 -0.8306
    1SOL    HW3 2767   3.559   1.895   0.949 -2.2909  1.0228  0.2703
    1SOL    MW4 2768   3.575   1.899   1.034 -0.8025  0.0660  0.0547
    1SOL     OW 2769   4.008   1.949   1.097 -0.1481 -0.7097 -0.1595
    1SOL    HW2 2770   3.924   1.983   1.129  0.1224 -0.7114  0.5794
    1SOL    HW3 2771   4.009   1.858   1.126 -0.2064 -0.9097 -0.7956
    1SOL    MW4 2772   3.997   1.942   1.105 -0.1202 -0.7364 -0.1459
    1SOL     OW 2773   3.773   2.057   1.182 -0.3092 -0.4089  0.0903
    1SOL    HW2 2774   3.773   2.152   1.170  0.4772 -0.5629 -1.1983
    1SOL    HW3 2775   3.777   2.045   1.277  2.3431  0.8569  0.1923
    1SOL    MW4 2776   3.773   2.068   1.193  0.1447 -0.2623 -0.0662
    1SOL     OW 2777   3.536   2.438   1.220  0.1403  0.3307  0.3767
    1SOL    HW2 2778   3.546   2.434   1.315 -0.0783 -0.5920  0.3637
    1SOL    HW3 2779   3.618   2.400   1.187  0.1082  0.4204  0.1972
    1SOL    MW4 2780   3.548   2.432   1.228  0.1070  0.2210  0.3514
    1SOL     OW 2781   3.619   2.676   1.097  0.3575 -0.3860 -0.0969
    1SOL    HW2 2782   3.589   2.593   1.134  1.2575 -1.2814 -1.3525
    1SOL    HW3 2783   3.545   2.735   1.109  0.1665 -1.0073  1.9518
    1SOL    MW4 2784   3.605   2.673   1.104  0.4511 -0.5863  0.0079
    1SOL     OW 2785   3.820   2.841   1.228  0.3810  0.2584  0.4683
    1SOL    HW2 2786   3.814   2.836   1.324  0.5581  0.1891  0.4758
    1SOL    HW3 2787   3.753   2.780   1.197 -0.3022  0.9728  0.5420
    1SOL    MW4 2788   3.810   2.832   1.237  0.3142  0.3436  0.4790
    1SOL     OW 2789   3.797   3.086   1.116  0.4858 -0.3540 -0.5090
    1SOL    HW2 2790   3.800   2.997   1.151  0.2723 -0.3054 -0.3658
    1SOL    HW3 2791   3.790   3.074   1.021  0.9419 -0.4844 -0.5234
    1SOL    MW4 2792   3.796   3.073   1.108  0.5181 -0.3648 -0.4920
    1SOL     OW 2793   3.578   3.212   1.237 -0.3284  0.1685  0.2550
    1SOL    HW2 2794   3.600   3.297   1.201 -0.7740 -0.1580 -0.8043
    1SOL    HW3 2795   3.645   3.152   1.203 -0.7817 -0.1522 -0.0751
    1SOL    MW4 2796   3.590   3.215   1.228 -0.4473  0.0832  0.0716
    1SOL     OW 2797   3.602   3.478   1.152  0.0205  0.2707  0.4114
    1SOL    HW2 2798   3.679   3.515   1.195 -0.8598  0.2377  2.0342
    1SOL    HW3 2799   3.628   3.469   1.060  1.5018  1.4552  0.7016
    1SOL    MW4 2800   3.616   3.481   1.145  0.0999  0.4230  0.6639
    1SOL     OW 2801   3.849   3.590   1.207 -0.8057 -0.1464  0.1474
    1SOL    HW2 2802   3.849   3.607   1.301  1.3606  0.4884  0.0734
    1SOL    HW3 2803   3.846   3.677   1.167 -1.9827 -0.4209 -0.3754
    1SOL    MW4 2804   3.849   3.604   1.214 -0.6750 -0.0987  0.0685
    1SOL     OW 2805   3.801   3.839   1.125 -0.1060 -0.4328 -0.0847
    1SOL    HW2 2806   3.720   3.885   1.148 -0.8186 -1.5336 -0.3594
    1SOL    HW3 2807   3.809   3.850   1.030  0.0540 -0.3323 -0.0588
    1SOL    MW4 2808   3.791   3.846   1.115 -0.1788 -0.5648 -0.1175
    1SOL     OW 2809   3.572   3.986   1.219 -0.0837 -0.2704  0.4168
    1SOL    HW2 2810   3.579   3.982   1.314 -0.7260 -1.1394  0.4385
    1SOL    HW3 2811   3.496   3.930   1.198 -0.5699  0.7155 -0.5207
    1SOL    MW4 2812   3.563   3.978   1.229 -0.2325 -0.2553  0.2960
    1SOL     OW 2813   3.545   4.253   1.144 -0.3755 -0.0217  0.1156
    1SOL    HW2 2814   3.547   4.159   1.163  2.6186  0.0750  0.5161
    1SOL    HW3 2815   3.542   4.257   1.048  0.4929 -0.5694  0.0484
    1SOL    MW4 2816   3.545   4.241   1.134  0.1342 -0.0806  0.1594
    1SOL     OW 2817   3.805   4.353   1.232  0.3386  0.7266 -0.0985
    1SOL    HW2 2818   3.808   4.336   1.326 -1.1082  2.5670  0.3132
    1SOL    HW3 2819   3.724   4.311   1.203 -0.5955  2.4285 -0.0131
    1SOL    MW4 2820   3.795   4.345   1.241  0.0248  1.1935 -0.0330
    1SOL     OW 2821   4.296   4.635   1.166 -0.6978  0.3181 -0.5094
    1SOL    HW2 2822   4.289   4.541   1.185  0.9779  0.8555  3.0963
    1SOL    HW3 2823   4.211   4.671   1.189 -0.8883 -0.1011 -0.5586
    1SOL    MW4 2824   4.284   4.627   1.171 -0.5021  0.3333 -0.0402
    1SOL     OW 2825   4.059   0.099   1.204  0.0868  0.0777 -0.0059
    1SOL    HW2 2826   4.054   0.115   1.298 -2.6160  0.7821 -0.2297
    1SOL    HW3 2827   3.986   0.040   1.185 -0.3663  1.1903 -1.9068
    1SOL    MW4 2828   4.049   0.093   1.214 -0.3295  0.3174 -0.2863
    1SOL     OW 2829   4.072   0.382   1.133  0.2375  0.0457 -0.2211
    1SOL    HW2 2830   4.076   0.286   1.130 -0.0945  0.0023  0.5545
    1SOL    HW3 2831   4.078   0.410   1.042  0.6719 -0.7055 -0.4201
    1SOL    MW4 2832   4.073   0.373   1.120  0.2508 -0.0591 -0.1448
    1SOL     OW 2833   4.302   0.500   1.251 -0.2054 -0.1305  0.2779
    1SOL    HW2 2834   4.285   0.499   1.345 -0.2513  1.9365  0.2948
    1SOL    HW3 2835   4.230   0.447   1.214 -1.5308  0.9820  1.1995
    1SOL    MW4 2836   4.290   0.493   1.258 -0.3862  0.2890  0.4017
    1SOL     OW 2837   4.285   0.771   1.161 -0.4012 -0.1584 -0.3531
    1SOL    HW2 2838   4.296   0.683   1.196 -1.9899  0.2315  1.2242
    1SOL    HW3 2839   4.361   0.819   1.193 -0.8032 -0.3401  0.9113
    1SOL    MW4 2840   4.296   0.766   1.170 -0.6638 -0.1309  0.0219
    1SOL     OW 2841   4.021   0.875   1.219 -0.1456 -0.7775  0.2180
    1SOL    HW2 2842   4.027   0.898   1.312  1.1856  0.1891 -0.0999
    1SOL    HW3 2843   4.106   0.836   1.198 -0.1283 -0.2273 -0.7930
    1SOL    MW4 2844   4.033   0.873   1.228  0.0334 -0.5774  0.0426
    1SOL     OW 2845   4.044   1.146   1.120  0.3485  0.2953 -0.5566
    1SOL    HW2 2846   4.046   1.060   1.162  1.2236 -0.5462 -2.2321
    1SOL    HW3 2847   3.954   1.176   1.131 -0.0613 -0.9979 -0.2306
    1SOL    MW4 2848   4.033   1.138   1.127  0.4096  0.0137 -0.7347
    1SOL     OW 2849   4.275   1.284   1.170  0.2925  0.3553 -0.1883
    1SOL    HW2 2850   4.286   1.281   1.265 -2.4517  2.3349  0.2457
    1SOL    HW3 2851   4.196   1.233   1.153  0.1956  0.8542 -1.3013
    1SOL    MW4 2852   4.266   1.277   1.180 -0.0825  0.6824 -0.2779
    1SOL     OW 2853   4.244   1.553   1.102  0.0010 -0.2934 -0.4049
    1SOL    HW2 2854   4.257   1.459   1.114  0.4685 -0.5342 -2.4797
    1SOL    HW3 2855   4.312   1.594   1.156  0.0117 -1.1577  0.2469
    1SOL    MW4 2856   4.255   1.546   1.111  0.0634 -0.4393 -0.5927
    1SOL     OW 2857   4.022   1.689   1.170  0.0746  0.3264 -0.2583
    1SOL    HW2 2858   4.022   1.680   1.266  0.2367  0.1297 -0.2757
    1SOL    HW3 2859   4.100   1.641   1.142  0.1571  0.5835 -0.4705
    1SOL    MW4 2860   4.032   1.681   1.179  0.1068  0.3344 -0.2885
    1SOL     OW 2861   3.138   1.938   0.243 -0.2114  0.1995  0.5709
    1SOL    HW2 2862   3.232   1.928   0.257 -0.1297 -0.8943 -0.6675
    1SOL    HW3 2863   3.098   1.865   0.289 -0.4425  0.4991  0.8519
    1SOL    MW4 2864   3.145   1.927   0.251 -0.2310  0.0947  0.4446
    1SOL     OW 2865   4.219   2.063   1.218 -0.4990 -0.0886 -0.3051
    1SOL    HW2 2866   4.218   2.155   1.192 -0.3659 -0.3760 -1.3876
    1SOL    HW3 2867   4.147   2.023   1.168 -1.1484 -0.3957  0.8567
    1SOL    MW4 2868   4.209   2.069   1.208 -0.5674 -0.1671 -0.2948
    1SOL     OW 2869   4.251   2.338   1.127 -0.0784  1.0096  0.1454
    1SOL    HW2 2870   4.166   2.374   1.152 -0.4239  0.2539  0.0878
    1SOL    HW3 2871   4.251   2.342   1.031 -0.3337  0.3975  0.1135
    1SOL    MW4 2872   4.240   2.343   1.117 -0.1578  0.8292  0.1335
    1SOL     OW 2873   4.001   2.441   1.200  0.0821 -0.0377  0.0388
    1SOL    HW2 2874   4.003   2.446   1.295 -2.5830  0.5765  0.0937
    1SOL    HW3 2875   4.031   2.527   1.171  2.5840 -0.7818  0.2394
    1SOL    MW4 2876   4.006   2.453   1.209  0.0601 -0.0548  0.0725
    1SOL     OW 2877   4.036   2.701   1.103  0.0568  0.0022 -0.1338
    1SOL    HW2 2878   3.968   2.747   1.153 -0.6868 -1.0968 -0.1252
    1SOL    HW3 2879   4.010   2.713   1.012  1.8104  2.6373 -0.3596
    1SOL    MW4 2880   4.024   2.709   1.098  0.1898  0.2050 -0.1626
    1SOL     OW 2881   4.266   2.806   1.233  0.3681 -0.0533  0.0084
    1SOL    HW2 2882   4.271   2.897   1.203 -0.0208 -0.1660 -0.4027
    1SOL    HW3 2883   4.188   2.771   1.190  0.0240 -0.3293  0.8590
    1SOL    MW4 2884   4.256   2.814   1.223  0.2718 -0.1049  0.0664
    1SOL     OW 2885   4.256   3.049   1.106 -0.1999  0.2083  0.0049
    1SOL    HW2 2886   4.180   3.095   1.141 -0.0801  0.8764 -0.6021
    1SOL    HW3 2887   4.255   3.069   1.013 -0.3895 -1.3818 -0.3393
    1SOL    MW4 2888   4.246   3.058   1.099 -0.2089  0.0865 -0.1205
    1SOL     OW 2889   4.043   3.191   1.190 -0.0014 -0.5361 -0.1357
    1SOL    HW2 2890   4.026   3.211   1.282  1.2852  1.7513 -0.3503
    1SOL    HW3 2891   3.959   3.163   1.156 -1.3400  1.9391  0.9415
    1SOL    MW4 2892   4.030   3.190   1.198 -0.0081  0.0920 -0.0217
    1SOL     OW 2893   4.008   3.432   1.061 -0.0994 -0.3335  0.2380
    1SOL    HW2 2894   4.020   3.348   1.106  1.1996 -0.7194 -0.8083
    1SOL    HW3 2895   3.941   3.477   1.113  1.2386 -0.8293  2.4725
    1SOL    MW4 2896   4.001   3.426   1.074  0.2484 -0.4497  0.3946
    1SOL     OW 2897   4.191   3.595   1.218 -0.0467  0.0684  0.1958
    1SOL    HW2 2898   4.125   3.548   1.167  0.0480 -0.8216  0.8878
    1SOL    HW3 2899   4.274   3.569   1.179 -0.0447  0.4620 -0.0709
    1SOL    MW4 2900   4.193   3.586   1.206 -0.0339  0.0029  0.2520
    1SOL     OW 2901   4.213   3.857   1.126  0.0229 -0.2944  0.1024
    1SOL    HW2 2902   4.137   3.898   1.167 -0.0423 -0.9737  0.6535
    1SOL    HW3 2903   4.213   3.767   1.158 -0.8177 -1.2372 -2.4116
    1SOL    MW4 2904   4.203   3.851   1.135 -0.0968 -0.5085 -0.1566
    1SOL     OW 2905   4.005   4.027   1.227 -0.1092 -0.2724  0.1887
    1SOL    HW2 2906   4.030   4.113   1.191  0.9346 -0.4328  0.4980
    1SOL    HW3 2907   3.922   4.007   1.185 -0.0590  0.6153 -0.3589
    1SOL    MW4 2908   3.998   4.036   1.216  0.0353 -0.1760  0.1574
    1SOL     OW 2909   4.044   4.275   1.088  0.3977  0.0781 -0.2072
    1SOL    HW2 2910   3.965   4.313   1.126  0.5081  1.5567 -1.3776
    1SOL    HW3 2911   4.023   4.264   0.995  0.4480 -2.5800  0.0677
    1SOL    MW4 2912   4.031   4.279   1.081  0.4191 -0.0768 -0.3253
    1SOL     OW 2913   4.291   4.357   1.204  0.2919 -0.5664 -0.4158
    1SOL    HW2 2914   4.218   4.324   1.151 -0.2199 -0.4117  0.1902
    1SOL    HW3 2915   4.368   4.311   1.170 -0.2299 -1.4664 -0.3951
    1SOL    MW4 2916   4.292   4.347   1.192  0.1550 -0.6647 -0.3332
    1SOL     OW 2917   0.241   4.623   1.641  0.2041  0.1851 -0.0952
    1SOL    HW2 2918   0.327   4.646   1.607  0.7323  0.3854  1.3572
    1SOL    HW3 2919   0.180   4.676   1.590  1.0413  1.0296 -0.2299
    1SOL    MW4 2920   0.244   4.633   1.630  0.3843  0.3228  0.0787
    1SOL     OW 2921   0.029   0.100   1.498 -0.5262  0.5928 -0.5826
    1SOL    HW2 2922  -0.060   0.067   1.511 -0.1777  0.0141  0.3799
    1SOL    HW3 2923   0.034   0.118   1.404 -1.2962 -0.4324 -0.8361
    1SOL    MW4 2924   0.018   0.098   1.487 -0.5818  0.3812 -0.4891
    1SOL     OW 2925   4.485   0.364   1.588 -0.0600 -0.2430  0.2060
    1SOL    HW2 2926   4.479   0.363   1.684  0.5702 -1.5667  0.2420
    1SOL    HW3 2927   4.512   0.275   1.565 -0.3652  0.0256 -1.2152
    1SOL    MW4 2928   4.488   0.352   1.598 -0.0171 -0.3822  0.0232
    1SOL     OW 2929   0.234   0.484   1.530 -0.0915  0.0565 -0.0302
    1SOL    HW2 2930   0.150   0.449   1.559  0.0971 -0.1691  0.2574
    1SOL    HW3 2931   0.228   0.487   1.435 -0.3994 -0.0267 -0.0141
    1SOL    MW4 2932   0.222   0.479   1.522 -0.1072  0.0157  0.0098
    1SOL     OW 2933   0.274   0.740   1.598 -0.0379  0.4911  0.0779
    1SOL    HW2 2934   0.270   0.650   1.564 -0.6716  0.9546 -1.1013
    1SOL    HW3 2935   0.353   0.777   1.558  0.1859  0.4919  0.5116
    1SOL    MW4 2936   0.284   0.733   1.588 -0.0920  0.5524 -0.0205
    1SOL     OW 2937   0.067   0.865   1.481 -0.4127 -0.1796 -0.1939
    1SOL    HW2 2938   0.042   0.942   1.534 -1.7781 -0.2700 -0.6797
    1SOL    HW3 2939   0.141   0.827   1.528 -1.1008  0.2003  1.2272
    1SOL    MW4 2940   0.073   0.870   1.494 -0.6837 -0.1414 -0.0706
    1SOL     OW 2941   0.007   1.105   1.600 -0.3622 -0.7920  0.0413
    1SOL    HW2 2942   0.013   1.108   1.695 -0.3830  0.0026  0.0180
    1SOL    HW3 2943   0.077   1.163   1.569 -1.0948 -0.1245 -0.4001
    1SOL    MW4 2944   0.017   1.113   1.608 -0.4616 -0.5989 -0.0200
    1SOL     OW 2945   0.204   1.285   1.509  0.2494 -0.2383  0.3642
    1SOL    HW2 2946   0.293   1.250   1.513 -0.0675 -0.9914  0.9636
    1SOL    HW3 2947   0.213   1.375   1.539  0.8816 -0.1666 -0.0176
    1SOL    MW4 2948   0.217   1.292   1.514  0.2910 -0.3281  0.3929
    1SOL     OW 2949   0.210   1.558   1.603 -0.3550  0.3653 -0.0435
    1SOL    HW2 2950   0.199   1.556   1.698 -0.1929 -1.7496 -0.0462
    1SOL    HW3 2951   0.128   1.594   1.570 -1.6480 -1.7929  0.7271
    1SOL    MW4 2952   0.198   1.562   1.611 -0.5042 -0.1985  0.0577
    1SOL     OW 2953   4.467   1.671   1.516 -0.3963  0.0396 -0.0193
    1SOL    HW2 2954   4.459   1.756   1.558 -2.2367 -0.5729  0.9202
    1SOL    HW3 2955   4.458   1.689   1.422 -0.6270  0.8969  0.1688
    1SOL    MW4 2956   4.465   1.685   1.509 -0.6695  0.0719  0.1296
    1SOL     OW 2957   4.462   1.940   1.566 -0.0472 -0.4890  0.4257
    1SOL    HW2 2958   4.460   1.936   1.662  0.3810  0.6014  0.4857
    1SOL    HW3 2959   4.376   1.974   1.542  0.4597  0.9065  0.5260
    1SOL    MW4 2960   4.450   1.944   1.576  0.0763 -0.1612  0.4469
    1SOL     OW 2961   0.194   2.068   1.485  0.1875  0.1581 -0.3661
    1SOL    HW2 2962   0.110   2.025   1.505  0.6087 -0.2960  0.4520
    1SOL    HW3 2963   0.194   2.078   1.390 -0.9177  0.4032 -0.3456
    1SOL    MW4 2964   0.183   2.063   1.476  0.0973  0.1304 -0.2555
    1SOL     OW 2965   0.172   2.311   1.579 -0.1376 -0.5718 -0.3327
    1SOL    HW2 2966   0.187   2.306   1.674  1.4897 -0.9573 -0.6050
    1SOL    HW3 2967   0.170   2.219   1.551 -1.0548 -0.4708 -0.6128
    1SOL    MW4 2968   0.174   2.298   1.588 -0.0439 -0.6094 -0.4055
    1SOL     OW 2969   4.420   2.456   1.479  0.4826  0.3339  0.1411
    1SOL    HW2 2970   4.349   2.393   1.492  1.0616 -0.5749 -1.0334
    1SOL    HW3 2971   4.487   2.430   1.542  0.6309 -0.1006 -0.1923
    1SOL    MW4 2972   4.419   2.444   1.489  0.5784  0.1566 -0.0578
    1SOL     OW 2973   4.454   2.706   1.593  0.0846  0.1479 -0.1435
    1SOL    HW2 2974   4.374   2.755   1.576  0.4630  0.4847 -0.9489
    1SOL    HW3 2975   4.433   2.617   1.565 -0.4905 -0.1045  1.0178
    1SOL    MW4 2976   4.441   2.700   1.587  0.0587  0.1590 -0.0966
    1SOL     OW 2977   0.195   2.810   1.438  0.4551  0.6061  0.1195
    1SOL    HW2 2978   0.261   2.777   1.499  0.2591  0.1579  0.0941
    1SOL    HW3 2979   0.112   2.796   1.484  0.3208  0.4327 -0.1754
    1SOL    MW4 2980   0.192   2.804   1.452  0.4115  0.5240  0.0772
    1SOL     OW 2981   0.234   3.072   1.582  0.2108 -0.2323 -0.1199
    1SOL    HW2 2982   0.153   3.106   1.544 -1.2359 -0.7985  2.3441
    1SOL    HW3 2983   0.240   2.983   1.549 -0.6551 -0.4872  0.3928
    1SOL    MW4 2984   0.224   3.065   1.573 -0.0944 -0.3409  0.2729
    1SOL     OW 2985   4.487   3.200   1.471 -0.4791  0.0211  0.6822
    1SOL    HW2 2986   4.502   3.280   1.522  0.3779 -0.0033  0.4756
    1SOL    HW3 2987   4.470   3.231   1.382  0.8271 -0.0684  0.3958
    1SOL    MW4 2988   4.487   3.215   1.466 -0.1937  0.0060  0.6171
    1SOL     OW 2989   0.011   3.454   1.586  0.0135 -0.0815 -0.0142
    1SOL    HW2 2990   0.015   3.454   1.682 -0.7250 -2.2845  0.0393
    1SOL    HW3 2991  -0.063   3.511   1.565 -0.5633 -0.5485  0.7503
    1SOL    MW4 2992   0.002   3.462   1.596 -0.1597 -0.4339  0.0938
    1SOL     OW 2993   0.205   3.629   1.472 -0.2158 -0.3792  0.0644
    1SOL    HW2 2994   0.211   3.707   1.527 -0.4804  0.2261 -0.7536
    1SOL    HW3 2995   0.134   3.578   1.511  0.2596 -0.4290  0.8716
    1SOL    MW4 2996   0.196   3.633   1.485 -0.1880 -0.3061  0.0631
    1SOL     OW 2997   0.221   3.864   1.612 -0.0076  0.6940 -0.1571
    1SOL    HW2 2998   0.236   3.845   1.705  0.5849 -1.1786 -0.6242
    1SOL    HW3 2999   0.296   3.918   1.587  0.5393  0.0646  0.1123
    1SOL    MW4 3000   0.233   3.869   1.621  0.1427  0.3641 -0.1832
    1SOL     OW 3001   0.005   3.995   1.485 -0.2517  0.0119  0.0176
    1SOL    HW2 3002   0.002   4.084   1.521  1.5782  0.1878 -0.2240
    1SOL    HW3 3003   0.078   3.953   1.530  0.2877 -0.6631 -1.4597
    1SOL    MW4 3004   0.014   4.001   1.495  0.0610 -0.0544 -0.2092
    1SOL     OW 3005   0.047   4.251   1.586  0.3378 -0.0839 -0.4117
    1SOL    HW2 3006   0.049   4.249   1.682  0.0299 -0.9240 -0.4239
    1SOL    HW3 3007  -0.033   4.300   1.565  1.2894  1.6108 -0.2399
    1SOL    MW4 3008   0.037   4.257   1.596  0.4227  0.0286 -0.3905
    1SOL     OW 3009   0.245   4.402   1.456  0.3803 -0.5232  0.1553
    1SOL    HW2 3010   0.179   4.341   1.489  0.6412 -0.2885  1.1331
    1SOL    HW3 3011   0.240   4.476   1.515 -2.2970  1.9570 -2.9810
    1SOL    MW4 3012   0.236   4.403   1.468  0.0615 -0.1655 -0.1295
    1SOL     OW 3013   0.745   4.579   1.633 -0.0376  0.0074  0.4041
    1SOL    HW2 3014   0.818   4.624   1.591  0.4893  0.2059  1.5025
    1SOL    HW3 3015   0.667   4.611   1.588  0.5328  0.0147 -0.5853
    1SOL    MW4 3016   0.745   4.589   1.621  0.1072  0.0343  0.4184
    1SOL     OW 3017   0.504   0.040   1.537 -0.8518 -0.0541 -0.0608
    1SOL    HW2 3018   0.497   0.131   1.565 -0.0051  0.2845 -0.9259
    1SOL    HW3 3019   0.550   0.044   1.453  1.7231 -1.4804  1.2224
    1SOL    MW4 3020   0.509   0.052   1.530 -0.4004 -0.1976 -0.0055
    1SOL     OW 3021   0.467   0.322   1.576 -0.7305  0.1307  0.6990
    1SOL    HW2 3022   0.546   0.370   1.552 -1.0691 -0.0315 -0.7923
    1SOL    HW3 3023   0.396   0.382   1.557 -1.0763 -0.4543  0.1337
    1SOL    MW4 3024   0.468   0.336   1.570 -0.8208  0.0321  0.4275
    1SOL     OW 3025   0.692   0.463   1.506  0.0850  0.4416 -0.0817
    1SOL    HW2 3026   0.707   0.547   1.549 -1.5673  0.6395  0.1581
    1SOL    HW3 3027   0.689   0.483   1.413 -1.1398  0.8008  0.0247
    1SOL    MW4 3028   0.694   0.476   1.499 -0.2946  0.5151 -0.0359
    1SOL     OW 3029   0.681   0.728   1.599 -0.0178  0.0648  0.0419
    1SOL    HW2 3030   0.676   0.740   1.693  1.9036 -0.9608  0.2934
    1SOL    HW3 3031   0.758   0.778   1.572  1.3736 -2.3080 -0.4989
    1SOL    MW4 3032   0.690   0.736   1.608  0.4193 -0.3836  0.0038
    1SOL     OW 3033   0.493   0.884   1.479 -0.5573 -0.5149  0.6267
    1SOL    HW2 3034   0.498   0.974   1.513 -0.4852  0.1606 -1.0988
    1SOL    HW3 3035   0.566   0.839   1.520 -0.2195  0.3924  1.0487
    1SOL    MW4 3036   0.503   0.890   1.489 -0.5032 -0.3061  0.4547
    1SOL     OW 3037   0.456   1.146   1.534 -0.1239  0.2541  0.1367
    1SOL    HW2 3038   0.538   1.188   1.511 -1.0338  1.3529 -1.1826
    1SOL    HW3 3039   0.449   1.157   1.629  1.0356  0.5403  0.1921
    1SOL    MW4 3040   0.466   1.153   1.543 -0.0910  0.4369 -0.0302
    1SOL     OW 3041   0.707   1.258   1.504 -0.0955 -0.4734 -0.0502
    1SOL    HW2 3042   0.701   1.351   1.528 -0.3731 -0.4730 -0.1213
    1SOL    HW3 3043   0.704   1.258   1.408 -1.2032 -0.6292 -0.0303
    1SOL    MW4 3044   0.706   1.270   1.494 -0.2783 -0.4940 -0.0570
    1SOL     OW 3045   0.643   1.525   1.573  0.2792 -0.0515 -0.1875
    1SOL    HW2 3046   0.723   1.567   1.543 -0.1219 -0.2596 -1.5841
    1SOL    HW3 3047   0.572   1.582   1.542 -0.2299 -1.3122 -1.3751
    1SOL    MW4 3048   0.644   1.538   1.565  0.1591 -0.2453 -0.5285
    1SOL     OW 3049   0.434   1.678   1.500  0.2310 -0.2064  0.3175
    1SOL    HW2 3050   0.445   1.758   1.552 -2.5149  0.6304 -0.3150
    1SOL    HW3 3051   0.354   1.638   1.533  0.8690 -2.0075 -0.2732
    1SOL    MW4 3052   0.425   1.684   1.511 -0.0471 -0.3337  0.1562
    1SOL     OW 3053   0.425   1.938   1.580  0.2153 -0.6505 -0.3192
    1SOL    HW2 3054   0.422   1.951   1.675 -0.1347 -2.1439 -0.1128
    1SOL    HW3 3055   0.339   1.969   1.549  0.4327  0.0949 -0.1965
    1SOL    MW4 3056   0.413   1.944   1.588  0.1978 -0.7491 -0.2759
    1SOL     OW 3057   0.652   2.063   1.471  0.6908  0.0153 -0.5610
    1SOL    HW2 3058   0.727   2.010   1.496  0.7632  0.6402  0.5611
    1SOL    HW3 3059   0.576   2.015   1.506  0.6666  0.0542 -0.5597
    1SOL    MW4 3060   0.652   2.050   1.479  0.6971  0.1028 -0.4127
    1SOL     OW 3061   0.672   2.358   1.539  0.0516  0.1651 -0.1363
    1SOL    HW2 3062   0.587   2.397   1.518 -0.2017 -0.6997 -0.7605
    1SOL    HW3 3063   0.664   2.267   1.510  1.4084  0.2335 -0.7793
    1SOL    MW4 3064   0.660   2.351   1.532  0.1972  0.0603 -0.3034
    1SOL     OW 3065   0.423   2.462   1.451 -0.8929  0.1585  0.3055
    1SOL    HW2 3066   0.427   2.536   1.512  0.1947  1.2509 -1.0593
    1SOL    HW3 3067   0.346   2.413   1.478 -2.0971  2.2227  0.7480
    1SOL    MW4 3068   0.413   2.466   1.463 -0.9083  0.5748  0.1838
    1SOL     OW 3069   0.410   2.729   1.599 -0.0431  0.0767  0.2332
    1SOL    HW2 3070   0.419   2.701   1.691 -0.2394  0.6612  0.4307
    1SOL    HW3 3071   0.493   2.772   1.580 -0.2780  0.5910  0.3601
    1SOL    MW4 3072   0.422   2.731   1.609 -0.1000  0.2217  0.2761
    1SOL     OW 3073   0.637   2.859   1.464  0.3595  0.0248  0.5474
    1SOL    HW2 3074   0.652   2.940   1.513 -0.6003 -0.3811  1.5390
    1SOL    HW3 3075   0.701   2.798   1.501  0.4003  0.0417  0.5044
    1SOL    MW4 3076   0.648   2.861   1.476  0.2381 -0.0267  0.6725
    1SOL     OW 3077   0.679   3.096   1.610 -0.0444 -0.3285  0.0591
    1SOL    HW2 3078   0.755   3.135   1.566  1.0948  0.2117  2.4755
    1SOL    HW3 3079   0.604   3.133   1.562  1.1686 -1.4535 -2.8381
    1SOL    MW4 3080   0.679   3.106   1.598  0.2658 -0.4058 -0.0042
    1SOL     OW 3081   0.452   3.216   1.485 -0.0658  0.2405  0.2003
    1SOL    HW2 3082   0.382   3.163   1.523  1.5026 -1.0043  1.4195
    1SOL    HW3 3083   0.442   3.204   1.390 -1.2725 -0.2026  0.3691
    1SOL    MW4 3084   0.441   3.208   1.477 -0.0181  0.0179  0.3834
    1SOL     OW 3085   0.450   3.490   1.571  0.3529 -0.0302 -0.4903
    1SOL    HW2 3086   0.461   3.406   1.527  1.0911 -0.4831  0.5315
    1SOL    HW3 3087   0.368   3.525   1.537  0.2566 -0.9655 -1.2369
    1SOL    MW4 3088   0.441   3.484   1.561  0.4376 -0.2134 -0.4539
    1SOL     OW 3089   0.681   3.647   1.509  0.3878  0.2942  0.4372
    1SOL    HW2 3090   0.754   3.592   1.537  0.6709  1.3337  1.8274
    1SOL    HW3 3091   0.602   3.600   1.537  0.6110  0.2459  0.9917
    1SOL    MW4 3092   0.680   3.634   1.516  0.4546  0.4249  0.6938
    1SOL     OW 3093   0.678   3.914   1.531 -0.0021 -0.0506  0.1264
    1SOL    HW2 3094   0.768   3.941   1.515  0.1864 -0.7638 -0.0163
    1SOL    HW3 3095   0.677   3.820   1.515 -0.6135 -0.1700  0.8049
    1SOL    MW4 3096   0.690   3.906   1.527 -0.0579 -0.1605  0.1971
    1SOL     OW 3097   0.417   4.001   1.477  0.1420  0.4174  0.5199
    1SOL    HW2 3098   0.504   3.963   1.491 -0.4663 -0.3687  2.2742
    1SOL    HW3 3099   0.411   4.013   1.382  1.4576 -1.2203  0.2170
    1SOL    MW4 3100   0.428   3.998   1.466  0.2353  0.0980  0.7114
    1SOL     OW 3101   0.443   4.251   1.596  0.1613 -0.2104 -0.1078
    1SOL    HW2 3102   0.441   4.165   1.555  1.0417  0.3550 -1.3699
    1SOL    HW3 3103   0.374   4.300   1.551  0.3113  0.0350 -0.0722
    1SOL    MW4 3104   0.433   4.246   1.584  0.2972 -0.1040 -0.2697
    1SOL     OW 3105   0.670   4.359   1.493 -0.0786  0.4789 -0.2301
    1SOL    HW2 3106   0.591   4.330   1.537  1.9951 -1.2417  2.4793
    1SOL    HW3 3107   0.697   4.438   1.541  0.9883 -0.1482  0.2189
    1SOL    MW4 3108   0.664   4.366   1.505  0.3358  0.1693  0.1867
    1SOL     OW 3109   1.128   4.561   1.635 -0.1477  0.0908  0.4848
    1SOL    HW2 3110   1.132   4.588   1.727 -1.7638  0.5611  0.4292
    1SOL    HW3 3111   1.202   4.605   1.594 -0.9990  2.0636  1.0200
    1SOL    MW4 3112   1.138   4.570   1.641 -0.4733  0.4134  0.5479
    1SOL     OW 3113   0.945   0.063   1.500  0.0227 -0.4739  0.2302
    1SOL    HW2 3114   0.940   0.144   1.553 -1.8018 -0.1480 -0.4185
    1SOL    HW3 3115   1.016   0.013   1.541 -0.2237  0.5234  1.9564
    1SOL    MW4 3116   0.954   0.067   1.513 -0.2505 -0.2993  0.3725
    1SOL     OW 3117   0.922   0.330   1.613 -0.5116 -0.2792  0.7787
    1SOL    HW2 3118   0.917   0.351   1.706  1.1731 -0.4605  0.9231
    1SOL    HW3 3119   0.850   0.379   1.573  0.4785  2.0462  1.7782
    1SOL    MW4 3120   0.912   0.339   1.620 -0.1587  0.0037  0.9295
    1SOL     OW 3121   1.110   0.494   1.498 -0.1064  0.5484  0.1344
    1SOL    HW2 3122   1.098   0.580   1.538 -2.3799  0.0273  0.6555
    1SOL    HW3 3123   1.042   0.439   1.538  0.3303 -1.0792 -1.2977
    1SOL    MW4 3124   1.099   0.498   1.508 -0.3487  0.2649  0.0142
    1SOL     OW 3125   1.105   0.756   1.614  0.5665 -0.4480  0.4634
    1SOL    HW2 3126   1.109   0.747   1.710 -0.2965 -0.1853  0.5320
    1SOL    HW3 3127   1.191   0.789   1.589  1.4906 -2.4369  0.9272
    1SOL    MW4 3128   1.117   0.759   1.624  0.5745 -0.6757  0.5336
    1SOL     OW 3129   0.899   0.893   1.485 -0.1341 -0.6344 -0.1781
    1SOL    HW2 3130   0.971   0.836   1.511  1.6843  1.7291  0.1020
    1SOL    HW3 3131   0.910   0.904   1.390  2.3223  2.9208  0.4459
    1SOL    MW4 3132   0.910   0.887   1.476  0.4299  0.1464 -0.0589
    1SOL     OW 3133   0.925   1.148   1.596  0.2413 -0.2585 -0.1525
    1SOL    HW2 3134   0.914   1.055   1.576 -0.5836 -0.6950  2.0966
    1SOL    HW3 3135   0.845   1.189   1.561 -0.1254 -0.6497  0.2110
    1SOL    MW4 3136   0.913   1.141   1.589  0.0840 -0.3676  0.1924
    1SOL     OW 3137   1.163   1.255   1.483  0.1939  0.1022  0.1492
    1SOL    HW2 3138   1.231   1.188   1.487  0.5808  0.5773  1.6714
    1SOL    HW3 3139   1.089   1.217   1.530 -0.1549  0.1134 -0.3785
    1SOL    MW4 3140   1.162   1.241   1.490  0.1988  0.1664  0.2805
    1SOL     OW 3141   1.144   1.509   1.586  0.4101  0.4759  0.1662
    1SOL    HW2 3142   1.216   1.553   1.542 -0.2577 -0.0511 -1.4726
    1SOL    HW3 3143   1.150   1.417   1.558 -0.0393  0.1275  1.1537
    1SOL    MW4 3144   1.154   1.502   1.577  0.2626  0.3603  0.0802
    1SOL     OW 3145   0.900   1.644   1.505 -0.4982  0.1363  0.5668
    1SOL    HW2 3146   0.972   1.584   1.525  0.3936  1.4368  1.3505
    1SOL    HW3 3147   0.893   1.643   1.410  0.6281  0.0728  0.4854
    1SOL    MW4 3148   0.908   1.636   1.495 -0.2319  0.2993  0.6595
    1SOL     OW 3149   0.866   1.910   1.553 -0.3104  0.2501  0.3463
    1SOL    HW2 3150   0.955   1.941   1.537 -0.1231  0.0119  0.9145
    1SOL    HW3 3151   0.863   1.822   1.515 -0.4068  0.3936  0.0215
    1SOL    MW4 3152   0.877   1.902   1.546 -0.2984  0.2376  0.3785
    1SOL     OW 3153   1.083   2.027   1.432 -0.1534 -0.1287 -0.0419
    1SOL    HW2 3154   1.163   1.986   1.466  0.5052  0.8769 -0.3385
    1SOL    HW3 3155   1.083   2.114   1.472 -1.6849 -0.5081  0.8240
    1SOL    MW4 3156   1.094   2.033   1.442 -0.2687 -0.0463  0.0331
    1SOL     OW 3157   1.097   2.261   1.591 -0.1463  0.1743 -0.1796
    1SOL    HW2 3158   1.172   2.308   1.554 -0.4230  0.6877 -0.0959
    1SOL    HW3 3159   1.020   2.310   1.560 -0.4145  0.0828  0.3405
    1SOL    MW4 3160   1.097   2.274   1.582 -0.2183  0.2301 -0.1000
    1SOL     OW 3161   0.935   2.461   1.491  0.4173 -0.3163  0.0822
    1SOL    HW2 3162   0.924   2.452   1.397 -1.4085  1.7956  0.0405
    1SOL    HW3 3163   0.851   2.434   1.528  0.9959 -0.7835  1.1011
    1SOL    MW4 3164   0.922   2.456   1.484  0.2527 -0.0992  0.2111
    1SOL     OW 3165   0.865   2.703   1.564 -0.2094 -0.2002 -0.0766
    1SOL    HW2 3166   0.890   2.711   1.656 -1.5798  0.3991  0.2618
    1SOL    HW3 3167   0.891   2.615   1.540  0.1548 -0.3658  0.8941
    1SOL    MW4 3168   0.872   2.693   1.573 -0.3421 -0.1431  0.0961
    1SOL     OW 3169   1.105   2.823   1.447  0.6380 -0.1469 -0.4143
    1SOL    HW2 3170   1.112   2.906   1.493 -0.3251  0.8120 -1.9548
    1SOL    HW3 3171   1.024   2.784   1.480  0.2366  0.2836 -0.8904
    1SOL    MW4 3172   1.095   2.829   1.458  0.4579  0.0367 -0.6803
    1SOL     OW 3173   1.115   3.059   1.566  0.0233 -0.0560  0.2506
    1SOL    HW2 3174   1.106   3.065   1.661  0.8784  0.1201  0.3206
    1SOL    HW3 3175   1.189   3.115   1.545 -1.9542  2.2434 -0.8387
    1SOL    MW4 3176   1.124   3.067   1.576 -0.1248  0.2708  0.1162
    1SOL     OW 3177   0.908   3.229   1.526  0.6924 -0.0053  0.1393
    1SOL    HW2 3178   0.984   3.170   1.528  2.3234  2.0849  1.0526
    1SOL    HW3 3179   0.895   3.246   1.433 -0.4436 -2.5644 -0.2275
    1SOL    MW4 3180   0.917   3.223   1.514  0.7578 -0.0670  0.2115
    1SOL     OW 3181   0.890   3.492   1.603  0.2754 -0.5008 -0.3190
    1SOL    HW2 3182   0.969   3.529   1.563  0.1299 -0.3666 -0.4858
    1SOL    HW3 3183   0.898   3.397   1.590  0.0754 -0.4313 -0.9507
    1SOL    MW4 3184   0.901   3.484   1.596  0.2298 -0.4740 -0.4243
    1SOL     OW 3185   1.127   3.588   1.507 -0.7955  0.8657 -0.2430
    1SOL    HW2 3186   1.206   3.538   1.527 -0.5391  1.4551  0.2188
    1SOL    HW3 3187   1.122   3.587   1.411 -0.0826  1.0606 -0.2834
    1SOL    MW4 3188   1.137   3.581   1.497 -0.6676  0.9692 -0.1874
    1SOL     OW 3189   1.117   3.856   1.593  0.5832  0.2426 -0.2278
    1SOL    HW2 3190   1.191   3.898   1.549 -0.7652  0.8817 -1.9741
    1SOL    HW3 3191   1.123   3.764   1.567  1.4338  0.0526  0.6110
    1SOL    MW4 3192   1.128   3.849   1.584  0.5174  0.3016 -0.3474
    1SOL     OW 3193   0.922   4.000   1.442  0.0822 -0.1955 -0.5184
    1SOL    HW2 3194   0.908   4.081   1.492  0.3557  0.5749 -1.6523
    1SOL    HW3 3195   0.988   3.952   1.492 -1.0499 -0.3370  0.8637
    1SOL    MW4 3196   0.929   4.005   1.455 -0.0311 -0.1125 -0.4857
    1SOL     OW 3197   0.868   4.216   1.620 -0.0860 -0.2310 -0.2919
    1SOL    HW2 3198   0.886   4.242   1.710  1.7910  0.5832 -0.8620
    1SOL    HW3 3199   0.809   4.283   1.587 -0.1297 -0.0792  0.0939
    1SOL    MW4 3200   0.863   4.228   1.627  0.1559 -0.1035 -0.3163
    1SOL     OW 3201   1.085   4.321   1.494 -0.4629 -0.5631  0.4320
    1SOL    HW2 3202   1.012   4.269   1.526 -1.2379 -0.2350 -0.7638
    1SOL    HW3 3203   1.088   4.397   1.551 -1.0209 -0.6060  0.5180
    1SOL    MW4 3204   1.076   4.324   1.506 -0.6387 -0.5255  0.2855
    1SOL     OW 3205   1.539   4.596   1.564  0.0746  0.0037 -0.4193
    1SOL    HW2 3206   1.546   4.589   1.659  0.8623  1.6575 -0.3407
    1SOL    HW3 3207   1.457   4.643   1.549  0.2426  0.2622 -0.5317
    1SOL    MW4 3208   1.529   4.601   1.574  0.2007  0.2556 -0.4237
    1SOL     OW 3209   1.307   0.063   1.514 -0.0433  0.2628  0.2097
    1SOL    HW2 3210   1.311   0.152   1.550  3.2478  0.8861 -1.4892
    1SOL    HW3 3211   1.263   0.074   1.429  0.4315  0.2801 -0.0341
    1SOL    MW4 3212   1.301   0.076   1.507  0.4535  0.3473 -0.0467
    1SOL     OW 3213   1.296   0.329   1.604  0.0271  0.0564 -0.0470
    1SOL    HW2 3214   1.379   0.371   1.581  0.1845 -0.8369 -1.1843
    1SOL    HW3 3215   1.229   0.382   1.561  0.2476 -0.9944 -1.7458
    1SOL    MW4 3216   1.298   0.341   1.595  0.0770 -0.2001 -0.4212
    1SOL     OW 3217   1.535   0.441   1.498  0.0286 -0.3856  0.1518
    1SOL    HW2 3218   1.622   0.409   1.518  0.9555  1.3385 -0.9421
    1SOL    HW3 3219   1.527   0.431   1.403 -0.4872  0.5672  0.0861
    1SOL    MW4 3220   1.545   0.436   1.488  0.0827 -0.0324 -0.0013
    1SOL     OW 3221   1.589   0.699   1.589 -0.2580  0.2281 -0.0816
    1SOL    HW2 3222   1.563   0.710   1.680 -1.8146  0.7275 -0.5709
    1SOL    HW3 3223   1.575   0.605   1.571  1.2375 -0.1204  0.5433
    1SOL    MW4 3224   1.584   0.688   1.599 -0.2661  0.2480 -0.0637
    1SOL     OW 3225   1.344   0.813   1.484  0.0718 -0.0002 -0.1830
    1SOL    HW2 3226   1.434   0.781   1.498  0.8086  1.4978 -1.3420
    1SOL    HW3 3227   1.340   0.830   1.390 -1.3185  0.3148 -0.0662
    1SOL    MW4 3228   1.356   0.811   1.474 -0.0144  0.2391 -0.3203
    1SOL     OW 3229   1.389   1.085   1.565 -0.2457 -0.5802 -0.3776
    1SOL    HW2 3230   1.360   1.102   1.655 -1.3364 -0.3183 -0.7706
    1SOL    HW3 3231   1.373   0.992   1.552  0.8854 -0.8458  0.0356
    1SOL    MW4 3232   1.383   1.075   1.575 -0.2403 -0.5808 -0.3749
    1SOL     OW 3233   1.616   1.249   1.481  0.2580 -0.2881  0.2890
    1SOL    HW2 3234   1.541   1.199   1.514 -0.2179 -0.0793 -0.4521
    1SOL    HW3 3235   1.693   1.203   1.515 -0.1943 -0.9949  0.3607
    1SOL    MW4 3236   1.616   1.236   1.490  0.1355 -0.3537  0.2006
    1SOL     OW 3237   1.593   1.497   1.586 -0.2830  0.1498 -0.0241
    1SOL    HW2 3238   1.575   1.489   1.680  1.2519  0.9145  0.3504
    1SOL    HW3 3239   1.594   1.407   1.554 -0.6477 -0.1267  0.7142
    1SOL    MW4 3240   1.591   1.484   1.595 -0.1286  0.2142  0.1227
    1SOL     OW 3241   1.365   1.650   1.485  0.2344  0.0249 -0.2056
    1SOL    HW2 3242   1.440   1.598   1.513 -0.2316 -0.5427 -0.0101
    1SOL    HW3 3243   1.360   1.635   1.390  0.7508  0.5714 -0.3258
    1SOL    MW4 3244   1.375   1.641   1.476  0.2410  0.0221 -0.1956
    1SOL     OW 3245   1.314   1.927   1.569 -0.1574  0.0872  0.1375
    1SOL    HW2 3246   1.301   1.947   1.662 -0.1765 -1.1389  0.4041
    1SOL    HW3 3247   1.332   1.833   1.567 -1.5383 -0.1635 -1.2331
    1SOL    MW4 3248   1.314   1.917   1.581 -0.3422 -0.1076 -0.0081
    1SOL     OW 3249   1.566   2.060   1.455  0.0062  0.0465 -0.2472
    1SOL    HW2 3250   1.482   2.016   1.464 -0.1915  0.4299 -0.1701
    1SOL    HW3 3251   1.580   2.065   1.360 -0.1591  0.1664 -0.2667
    1SOL    MW4 3252   1.556   2.055   1.444 -0.0417  0.1130 -0.2397
    1SOL     OW 3253   1.564   2.324   1.540  0.5135 -0.3386  0.4964
    1SOL    HW2 3254   1.640   2.364   1.499 -1.0893  0.6740 -1.5605
    1SOL    HW3 3255   1.560   2.236   1.504 -0.4568  0.2992 -0.9991
    1SOL    MW4 3256   1.574   2.318   1.530  0.1740 -0.1209  0.0277
    1SOL     OW 3257   1.311   2.392   1.472 -0.0170  0.1774  0.0745
    1SOL    HW2 3258   1.320   2.487   1.482  0.5591  0.0831  0.5134
    1SOL    HW3 3259   1.398   2.358   1.493  0.1571 -0.3440 -1.4224
    1SOL    MW4 3260   1.324   2.400   1.476  0.0819  0.0961 -0.0650
    1SOL     OW 3261   1.335   2.672   1.522  0.1649 -0.4572 -0.2584
    1SOL    HW2 3262   1.407   2.734   1.504 -0.5008 -0.0377 -1.4830
    1SOL    HW3 3263   1.256   2.719   1.495 -0.7787 -0.2490  2.6533
    1SOL    MW4 3264   1.334   2.687   1.516 -0.0473 -0.3746 -0.0359
    1SOL     OW 3265   1.557   2.833   1.494 -0.4999 -0.0424 -0.4441
    1SOL    HW2 3266   1.626   2.778   1.532 -0.9156 -0.5407 -0.4075
    1SOL    HW3 3267   1.565   2.819   1.399  0.4119  1.0531 -0.5473
    1SOL    MW4 3268   1.567   2.824   1.486 -0.4344  0.0362 -0.4528
    1SOL     OW 3269   1.551   3.089   1.586 -0.1464 -0.3434 -0.0530
    1SOL    HW2 3270   1.632   3.126   1.553 -1.1837  0.4826 -1.7378
    1SOL    HW3 3271   1.547   3.001   1.549 -0.9097  0.2883 -1.5106
    1SOL    MW4 3272   1.561   3.082   1.577 -0.3839 -0.1512 -0.4677
    1SOL     OW 3273   1.328   3.229   1.498 -0.0908 -0.0282 -0.5960
    1SOL    HW2 3274   1.337   3.315   1.540  2.1132 -0.3445 -0.3720
    1SOL    HW3 3275   1.400   3.177   1.534 -1.9376 -2.2626 -0.0693
    1SOL    MW4 3276   1.339   3.234   1.508 -0.0437 -0.3648 -0.4969
    1SOL     OW 3277   1.357   3.472   1.635 -0.2129  0.2761 -0.0119
    1SOL    HW2 3278   1.357   3.482   1.731 -0.1110  1.0837 -0.0909
    1SOL    HW3 3279   1.443   3.503   1.608 -1.0720  2.2403 -0.5752
    1SOL    MW4 3280   1.368   3.477   1.644 -0.3128  0.6418 -0.0966
    1SOL     OW 3281   1.557   3.601   1.468 -0.2184 -0.2246 -0.2950
    1SOL    HW2 3282   1.570   3.692   1.494 -1.0997 -0.1911  0.0309
    1SOL    HW3 3283   1.561   3.603   1.372  1.2622 -0.0856 -0.2546
    1SOL    MW4 3284   1.560   3.614   1.458 -0.1394 -0.2019 -0.2466
    1SOL     OW 3285   1.592   3.868   1.573 -0.2607  0.1522  0.2980
    1SOL    HW2 3286   1.606   3.877   1.667 -0.2026  1.1616  0.1894
    1SOL    HW3 3287   1.504   3.904   1.559  0.2957  1.3169 -0.2434
    1SOL    MW4 3288   1.582   3.874   1.584 -0.1798  0.4394  0.2122
    1SOL     OW 3289   1.353   3.974   1.484  0.1840  0.3803 -0.2950
    1SOL    HW2 3290   1.347   4.063   1.520  0.2325  0.2945 -0.0730
    1SOL    HW3 3291   1.369   3.987   1.391 -0.9177  0.6128 -0.4664
    1SOL    MW4 3292   1.354   3.988   1.476  0.0452  0.3998 -0.2884
    1SOL     OW 3293   1.315   4.223   1.607 -0.1334 -0.3045 -0.2324
    1SOL    HW2 3294   1.387   4.268   1.562 -0.0816 -0.9949 -0.8576
    1SOL    HW3 3295   1.236   4.257   1.566 -0.0650 -1.3784 -1.2865
    1SOL    MW4 3296   1.314   4.233   1.595 -0.1175 -0.5379 -0.4538
    1SOL     OW 3297   1.512   4.345   1.448 -0.6481  0.1676  0.1805
    1SOL    HW2 3298   1.591   4.305   1.484 -0.7271  0.4071  0.6342
    1SOL    HW3 3299   1.513   4.434   1.484 -0.5123  0.5432 -0.7580
    1SOL    MW4 3300   1.523   4.352   1.458 -0.6407  0.2484  0.1166
    1SOL     OW 3301   1.990   4.640   1.591  0.3046 -0.1282 -0.4093
    1SOL    HW2 3302   1.985   4.625   1.685  1.0948  0.3222 -0.2870
    1SOL    HW3 3303   1.906   4.678   1.568  0.6134  1.0577  0.3627
    1SOL    MW4 3304   1.979   4.643   1.600  0.4497  0.0877 -0.2912
    1SOL     OW 3305   1.762   0.101   1.506 -0.1467  0.0926  0.1940
    1SOL    HW2 3306   1.683   0.048   1.516  1.5944 -2.4889  0.6577
    1SOL    HW3 3307   1.780   0.101   1.412 -0.4557  0.2844  0.1371
    1SOL    MW4 3308   1.754   0.094   1.495  0.0423 -0.2227  0.2476
    1SOL     OW 3309   1.781   0.362   1.600  0.1039  0.4675 -0.4562
    1SOL    HW2 3310   1.867   0.395   1.575  0.3393 -0.1374 -0.4405
    1SOL    HW3 3311   1.782   0.270   1.577  0.4539 -0.1949  2.0576
    1SOL    MW4 3312   1.792   0.354   1.594  0.1811  0.3003 -0.1224
    1SOL     OW 3313   2.016   0.471   1.518 -0.2805 -0.1951 -0.4094
    1SOL    HW2 3314   2.086   0.409   1.540  0.3405  0.3550 -0.8204
    1SOL    HW3 3315   2.046   0.555   1.553 -0.8493 -0.0040 -0.3731
    1SOL    MW4 3316   2.029   0.474   1.526 -0.2737 -0.0973 -0.4587
    1SOL     OW 3317   2.050   0.744   1.583  0.3684  0.2466 -0.4090
    1SOL    HW2 3318   2.042   0.740   1.678  0.6159  0.0426 -0.3971
    1SOL    HW3 3319   1.972   0.792   1.554 -0.8822 -1.6740 -0.3070
    1SOL    MW4 3320   2.039   0.750   1.592  0.2360 -0.0337 -0.3939
    1SOL     OW 3321   1.815   0.845   1.480 -0.2874  0.3554  0.1732
    1SOL    HW2 3322   1.818   0.934   1.517 -1.9994  0.5000  0.0090
    1SOL    HW3 3323   1.743   0.803   1.527 -0.4340 -0.4783 -0.7952
    1SOL    MW4 3324   1.806   0.851   1.491 -0.5325  0.2645  0.0237
    1SOL     OW 3325   1.830   1.103   1.599 -0.1576 -0.3325  0.0628
    1SOL    HW2 3326   1.888   1.157   1.546  0.6787 -2.8237 -1.5920
    1SOL    HW3 3327   1.856   1.122   1.689 -0.7802  3.0044 -0.3699
    1SOL    MW4 3328   1.841   1.113   1.604 -0.1295 -0.2209 -0.2126
    1SOL     OW 3329   2.007   1.245   1.456 -0.0613  0.1283  0.5564
    1SOL    HW2 3330   2.006   1.333   1.493  1.2386  0.0826  0.7210
    1SOL    HW3 3331   2.020   1.258   1.362  1.3580  0.0842  0.7326
    1SOL    MW4 3332   2.009   1.258   1.448  0.2973  0.1166  0.6014
    1SOL     OW 3333   1.966   1.510   1.547  0.1253  0.4993 -0.0618
    1SOL    HW2 3334   2.039   1.558   1.507  0.8121 -0.0951  0.4532
    1SOL    HW3 3335   1.892   1.570   1.541  0.6720  1.1445 -0.5356
    1SOL    MW4 3336   1.966   1.524   1.541  0.2879  0.5060 -0.0563
    1SOL     OW 3337   1.767   1.700   1.511 -0.1075  0.0347 -0.0541
    1SOL    HW2 3338   1.717   1.624   1.540 -0.0611  0.9809  2.6441
    1SOL    HW3 3339   1.785   1.683   1.418 -0.3120 -3.1215  0.4199
    1SOL    MW4 3340   1.763   1.688   1.503 -0.1284 -0.2569  0.3644
    1SOL     OW 3341   1.781   1.959   1.609 -0.0323 -0.4064 -0.6210
    1SOL    HW2 3342   1.780   1.872   1.569 -0.2249 -0.2087 -1.0440
    1SOL    HW3 3343   1.704   2.003   1.572 -0.7206 -0.5335  0.6379
    1SOL    MW4 3344   1.771   1.953   1.599 -0.1487 -0.3970 -0.5108
    1SOL     OW 3345   2.001   2.064   1.480 -0.0379 -0.3740 -0.5934
    1SOL    HW2 3346   2.081   2.020   1.508 -0.0277 -0.2528 -0.4331
    1SOL    HW3 3347   1.931   2.023   1.531  0.0672  0.3288  0.1225
    1SOL    MW4 3348   2.002   2.053   1.490 -0.0226 -0.2651 -0.4778
    1SOL     OW 3349   1.990   2.333   1.554  0.1438  0.1324 -0.0697
    1SOL    HW2 3350   2.008   2.334   1.648 -3.1624  1.2327  0.6053
    1SOL    HW3 3351   1.976   2.240   1.533 -0.7328  0.0555  0.8478
    1SOL    MW4 3352   1.991   2.321   1.564 -0.4081  0.2675  0.1404
    1SOL     OW 3353   1.787   2.465   1.442  0.0794 -0.2640  0.6006
    1SOL    HW2 3354   1.861   2.420   1.483 -0.8180 -1.9946  0.3545
    1SOL    HW3 3355   1.808   2.463   1.348  0.5172  0.7572  0.6608
    1SOL    MW4 3356   1.800   2.459   1.435  0.0187 -0.3576  0.5760
    1SOL     OW 3357   1.796   2.689   1.595 -0.2478  0.0855  0.0669
    1SOL    HW2 3358   1.868   2.733   1.551 -0.2544  1.1274  1.0790
    1SOL    HW3 3359   1.798   2.599   1.561  0.8542  0.4011 -0.7018
    1SOL    MW4 3360   1.806   2.683   1.585 -0.1034  0.2644  0.0989
    1SOL     OW 3361   2.018   2.821   1.529  0.0279  0.1411 -0.3720
    1SOL    HW2 3362   2.008   2.910   1.562  0.2530  0.3417 -0.8445
    1SOL    HW3 3363   2.012   2.830   1.434 -0.0459 -0.3601 -0.4159
    1SOL    MW4 3364   2.016   2.834   1.521  0.0479  0.1016 -0.4401
    1SOL     OW 3365   2.007   3.094   1.593 -0.1905  0.9266 -0.1077
    1SOL    HW2 3366   2.002   3.120   1.685 -0.4984  2.2268 -0.4772
    1SOL    HW3 3367   2.079   3.145   1.558 -0.2521  0.6399 -0.6537
    1SOL    MW4 3368   2.016   3.104   1.601 -0.2391  1.0602 -0.2285
    1SOL     OW 3369   1.783   3.212   1.475 -0.1580  0.1541 -0.3796
    1SOL    HW2 3370   1.787   3.305   1.496 -0.8526  0.6603 -2.4091
    1SOL    HW3 3371   1.862   3.175   1.514  0.0681  1.5516  0.5411
    1SOL    MW4 3372   1.794   3.219   1.483 -0.2197  0.4053 -0.5258
    1SOL     OW 3373   1.784   3.478   1.569 -0.2632  0.4545  0.2248
    1SOL    HW2 3374   1.775   3.494   1.663 -0.2951  0.4967  0.2146
    1SOL    HW3 3375   1.705   3.517   1.531 -0.1908  0.5481  0.1683
    1SOL    MW4 3376   1.773   3.486   1.576 -0.2580  0.4725  0.2160
    1SOL     OW 3377   2.003   3.607   1.480  0.3289 -0.1147 -0.2989
    1SOL    HW2 3378   2.086   3.566   1.506 -0.0726  0.6038  2.2038
    1SOL    HW3 3379   1.935   3.554   1.521 -0.2761  1.7496  1.1893
    1SOL    MW4 3380   2.005   3.595   1.489  0.1965  0.2260  0.2277
    1SOL     OW 3381   2.070   3.850   1.597  0.2528  0.0007  0.3936
    1SOL    HW2 3382   2.141   3.904   1.562 -0.3061 -0.1089 -0.9125
    1SOL    HW3 3383   2.064   3.776   1.538 -0.8297 -0.0831  0.6044
    1SOL    MW4 3384   2.078   3.848   1.585  0.0362 -0.0248  0.2491
    1SOL     OW 3385   1.846   3.984   1.501 -0.0887  0.6656  0.4616
    1SOL    HW2 3386   1.910   3.920   1.534 -0.0371  0.8736  0.7702
    1SOL    HW3 3387   1.763   3.958   1.541 -0.2153  0.3423 -0.0105
    1SOL    MW4 3388   1.844   3.972   1.511 -0.0986  0.6502  0.4399
    1SOL     OW 3389   1.792   4.248   1.537 -0.1878 -0.1992  0.1550
    1SOL    HW2 3390   1.867   4.305   1.523 -0.2300  0.4612  2.3309
    1SOL    HW3 3391   1.825   4.160   1.521  0.2826  0.3015 -1.7292
    1SOL    MW4 3392   1.806   4.244   1.533 -0.1314 -0.0463  0.1937
    1SOL     OW 3393   2.025   4.397   1.481  0.5865  0.3537 -0.6993
    1SOL    HW2 3394   2.097   4.357   1.531 -1.2876 -1.8105  0.3565
    1SOL    HW3 3395   2.016   4.485   1.519  1.9241  0.2267 -0.0631
    1SOL    MW4 3396   2.033   4.404   1.493  0.5157  0.0510 -0.4760
    1SOL     OW 3397   2.452   4.636   1.575 -0.3955  0.0887 -0.2151
    1SOL    HW2 3398   2.462   4.636   1.670 -0.9503  0.8855 -0.1566
    1SOL    HW3 3399   2.378   4.693   1.558  0.2400  0.6381 -1.1838
    1SOL    MW4 3400   2.444   4.643   1.585 -0.3848  0.2666 -0.3352
    1SOL     OW 3401   2.215   0.102   1.499  0.4272  0.1182  0.3067
    1SOL    HW2 3402   2.138   0.053   1.526  0.7879 -1.1704 -0.9461
    1SOL    HW3 3403   2.200   0.122   1.407  1.4910  0.0325  0.1072
    1SOL    MW4 3404   2.203   0.099   1.490  0.6151 -0.0631  0.1149
    1SOL     OW 3405   2.258   0.358   1.606  0.3349 -0.2634  0.3140
    1SOL    HW2 3406   2.271   0.325   1.695  0.8532 -0.8305  0.0330
    1SOL    HW3 3407   2.251   0.279   1.552  0.6492  0.0804 -0.2367
    1SOL    MW4 3408   2.259   0.343   1.611  0.4447 -0.2929  0.2043
    1SOL     OW 3409   2.458   0.487   1.477  0.3903  0.1897 -0.0554
    1SOL    HW2 3410   2.530   0.447   1.525 -0.2268  0.8396  1.4280
    1SOL    HW3 3411   2.380   0.439   1.506  0.1805 -0.4077 -1.5316
    1SOL    MW4 3412   2.457   0.476   1.487  0.2811  0.1967 -0.0544
    1SOL     OW 3413   2.501   0.747   1.560 -0.0481 -0.3528 -0.1304
    1SOL    HW2 3414   2.414   0.782   1.544  0.1627  0.5209  0.6120
    1SOL    HW3 3415   2.493   0.653   1.543 -1.5950 -0.5845  1.7642
    1SOL    MW4 3416   2.489   0.739   1.555 -0.2241 -0.2681  0.2176
    1SOL     OW 3417   2.270   0.868   1.495 -0.3568  0.5117 -0.2381
    1SOL    HW2 3418   2.271   0.944   1.553  2.4228 -0.7378  1.4485
    1SOL    HW3 3419   2.193   0.818   1.522  0.5737  0.2391  2.0450
    1SOL    MW4 3420   2.260   0.871   1.506  0.1328  0.3109  0.2856
    1SOL     OW 3421   2.255   1.136   1.591 -0.7158 -0.3137 -0.3234
    1SOL    HW2 3422   2.236   1.151   1.683 -0.4838 -1.5856 -0.0545
    1SOL    HW3 3423   2.175   1.160   1.545 -1.0046 -0.1774  0.2539
    1SOL    MW4 3424   2.242   1.141   1.597 -0.7231 -0.4635 -0.2118
    1SOL     OW 3425   2.462   1.267   1.483  0.1134 -0.2147 -0.2674
    1SOL    HW2 3426   2.385   1.216   1.508  0.6315 -0.9725 -0.2027
    1SOL    HW3 3427   2.473   1.250   1.390  0.1356 -0.0078 -0.3037
    1SOL    MW4 3428   2.453   1.258   1.474  0.1845 -0.2874 -0.2636
    1SOL     OW 3429   2.439   1.547   1.529  0.1137  0.1495  0.0887
    1SOL    HW2 3430   2.513   1.581   1.478  0.5811 -0.4389  0.3569
    1SOL    HW3 3431   2.446   1.452   1.520  0.9036 -0.0226  2.1656
    1SOL    MW4 3432   2.450   1.539   1.521  0.2797  0.0492  0.3982
    1SOL     OW 3433   2.186   1.661   1.455  0.0002  0.0018 -0.1079
    1SOL    HW2 3434   2.262   1.611   1.484  0.5589  1.2724  0.7155
    1SOL    HW3 3435   2.204   1.681   1.363  0.6577  0.2791  0.0761
    1SOL    MW4 3436   2.199   1.657   1.447  0.1607  0.2060  0.0249
    1SOL     OW 3437   2.224   1.917   1.556 -0.0182  0.2116  0.1952
    1SOL    HW2 3438   2.223   1.918   1.651  1.1094  0.4359  0.2067
    1SOL    HW3 3439   2.203   1.827   1.533  0.7926 -0.1056  0.6751
    1SOL    MW4 3440   2.221   1.906   1.565  0.2377  0.1993  0.2601
    1SOL     OW 3441   2.467   2.013   1.489  0.1218 -0.1692 -0.0189
    1SOL    HW2 3442   2.378   1.985   1.511  0.0629  1.2341  1.6186
    1SOL    HW3 3443   2.459   2.046   1.399 -1.0675  0.1563  0.1921
    1SOL    MW4 3444   2.454   2.014   1.480 -0.0429  0.0589  0.2249
    1SOL     OW 3445   2.439   2.287   1.620  0.1475 -0.1560 -0.1099
    1SOL    HW2 3446   2.444   2.267   1.713 -0.0094 -2.0207 -0.4831
    1SOL    HW3 3447   2.469   2.207   1.576  1.0466  0.9900 -1.6503
    1SOL    MW4 3448   2.444   2.274   1.627  0.2453 -0.2508 -0.3624
    1SOL     OW 3449   2.252   2.457   1.484  0.2498  0.3975  0.1380
    1SOL    HW2 3450   2.316   2.409   1.536  1.0292 -0.6910 -1.7514
    1SOL    HW3 3451   2.169   2.413   1.500  0.3741  0.4160  0.8596
    1SOL    MW4 3452   2.249   2.445   1.493  0.3691  0.2565 -0.0160
    1SOL     OW 3453   2.271   2.723   1.590  0.0442  0.1626  0.2516
    1SOL    HW2 3454   2.271   2.647   1.533  0.8879  0.5749 -0.3091
    1SOL    HW3 3455   2.186   2.765   1.575 -0.0624 -0.1794 -0.0911
    1SOL    MW4 3456   2.260   2.719   1.581  0.1414  0.1719  0.1326
    1SOL     OW 3457   2.483   2.845   1.464 -0.5799 -0.2419 -0.4414
    1SOL    HW2 3458   2.477   2.937   1.490 -0.2788 -0.2222 -0.4407
    1SOL    HW3 3459   2.403   2.805   1.500 -0.9221  0.1055 -0.8083
    1SOL    MW4 3460   2.471   2.852   1.472 -0.5851 -0.1934 -0.4897
    1SOL     OW 3461   2.469   3.099   1.550 -0.1377  0.4238  0.3246
    1SOL    HW2 3462   2.538   3.164   1.539 -0.5493  0.6767 -0.7823
    1SOL    HW3 3463   2.393   3.137   1.506 -1.1711  0.4364  2.0539
    1SOL    MW4 3464   2.468   3.112   1.543 -0.3283  0.4590  0.4067
    1SOL     OW 3465   2.239   3.214   1.458 -0.1617  0.4170  0.2523
    1SOL    HW2 3466   2.238   3.299   1.502 -0.0411  0.0754  0.9345
    1SOL    HW3 3467   2.224   3.233   1.366 -1.4930  1.0621  0.5995
    1SOL    MW4 3468   2.237   3.227   1.452 -0.3216  0.4568  0.3881
    1SOL     OW 3469   2.244   3.483   1.561 -0.5257  0.3700  0.3494
    1SOL    HW2 3470   2.250   3.503   1.655 -0.6152  1.7266  0.0826
    1SOL    HW3 3471   2.319   3.529   1.522 -0.8095  0.2759 -0.3144
    1SOL    MW4 3472   2.255   3.492   1.568 -0.5751  0.5367  0.2266
    1SOL     OW 3473   2.483   3.632   1.467 -0.3946 -0.0566  0.2282
    1SOL    HW2 3474   2.530   3.570   1.522  0.1715 -0.4178 -0.6628
    1SOL    HW3 3475   2.487   3.715   1.515  2.0491  0.1692 -0.3243
    1SOL    MW4 3476   2.490   3.635   1.481  0.0026 -0.0744  0.0377
    1SOL     OW 3477   2.478   3.892   1.598 -0.0624 -0.0489 -0.3365
    1SOL    HW2 3478   2.475   3.886   1.693 -0.1210  1.2673 -0.2589
    1SOL    HW3 3479   2.564   3.929   1.578  0.1857 -0.8597 -0.8313
    1SOL    MW4 3480   2.489   3.896   1.608 -0.0372  0.0181 -0.3915
    1SOL     OW 3481   2.267   4.021   1.472 -0.3859  0.0841 -0.2516
    1SOL    HW2 3482   2.346   3.974   1.498 -1.5773 -1.6590  0.2665
    1SOL    HW3 3483   2.272   4.025   1.376 -0.0688 -0.7247 -0.2705
    1SOL    MW4 3484   2.279   4.016   1.463 -0.5012 -0.2527 -0.1857
    1SOL     OW 3485   2.267   4.284   1.553  0.1977  0.1801  0.0329
    1SOL    HW2 3486   2.339   4.317   1.499 -0.6569 -0.4460 -1.5337
    1SOL    HW3 3487   2.259   4.191   1.529 -0.6307  0.0545  0.7491
    1SOL    MW4 3488   2.275   4.276   1.542 -0.0243  0.0806 -0.0793
    1SOL     OW 3489   2.503   4.392   1.438  0.0073 -0.0937 -0.2005
    1SOL    HW2 3490   2.471   4.478   1.464 -0.7248 -0.1165 -1.0139
    1SOL    HW3 3491   2.514   4.397   1.344 -0.7414 -1.1220 -0.3558
    1SOL    MW4 3492   2.501   4.404   1.429 -0.1876 -0.2327 -0.3284
    1SOL     OW 3493   2.894   4.656   1.547 -0.1890 -0.3507 -0.0837
    1SOL    HW2 3494   2.887   4.643   1.641 -1.5550 -0.9821 -0.2652
    1SOL    HW3 3495   2.820   4.712   1.524 -0.4464 -1.0181 -0.9190
    1SOL    MW4 3496   2.884   4.661   1.556 -0.4034 -0.5221 -0.2177
    1SOL     OW 3497   2.654   0.124   1.448 -0.4080  0.1671 -0.1208
    1SOL    HW2 3498   2.657   0.209   1.492 -1.7497  0.7698 -1.1502
    1SOL    HW3 3499   2.592   0.072   1.500 -0.0647  0.0223  0.1472
    1SOL    MW4 3500   2.646   0.128   1.461 -0.5395  0.2275 -0.2213
    1SOL     OW 3501   2.676   0.367   1.585 -0.2173  0.1075 -0.2849
    1SOL    HW2 3502   2.685   0.365   1.680 -0.6630  0.6054 -0.2358
    1SOL    HW3 3503   2.754   0.413   1.554 -1.1178  1.8335 -0.0287
    1SOL    MW4 3504   2.688   0.373   1.594 -0.3951  0.4009 -0.2447
    1SOL     OW 3505   2.910   0.503   1.512 -0.4110  0.1075 -0.2618
    1SOL    HW2 3506   2.903   0.593   1.544 -2.9235  0.0312 -0.5038
    1SOL    HW3 3507   2.913   0.513   1.416 -1.1802 -0.0780 -0.3084
    1SOL    MW4 3508   2.910   0.516   1.503 -0.8440  0.0729 -0.2998
    1SOL     OW 3509   2.943   0.760   1.638 -0.0499 -0.1870  0.5771
    1SOL    HW2 3510   2.927   0.753   1.732  1.2488  1.7895  0.9650
    1SOL    HW3 3511   2.864   0.802   1.603  0.1919  0.6591  1.0405
    1SOL    MW4 3512   2.930   0.764   1.646  0.1533  0.1854  0.6894
    1SOL     OW 3513   2.723   0.896   1.491 -0.2733 -0.1604 -0.4694
    1SOL    HW2 3514   2.645   0.847   1.518  0.8520 -1.5823  0.3104
    1SOL    HW3 3515   2.731   0.880   1.397 -1.3007  0.5452 -0.6777
    1SOL    MW4 3516   2.714   0.887   1.482 -0.2604 -0.2549 -0.3941
    1SOL     OW 3517   2.720   1.166   1.580 -0.4488  0.0181 -0.1304
    1SOL    HW2 3518   2.726   1.074   1.557 -0.6532 -0.3728  1.3815
    1SOL    HW3 3519   2.637   1.195   1.541 -0.2130 -0.3388 -0.9009
    1SOL    MW4 3520   2.710   1.158   1.572 -0.4447 -0.0805 -0.0325
    1SOL     OW 3521   2.928   1.271   1.445  0.8018 -0.5846  0.2728
    1SOL    HW2 3522   3.000   1.216   1.478  0.5256 -1.0692  0.0722
    1SOL    HW3 3523   2.850   1.238   1.490  0.3951 -1.3760 -0.9972
    1SOL    MW4 3524   2.928   1.259   1.455  0.7117 -0.7529  0.0788
    1SOL     OW 3525   2.908   1.525   1.556 -0.2611 -0.1958 -0.3950
    1SOL    HW2 3526   2.833   1.571   1.521  0.5680  0.5481 -1.2259
    1SOL    HW3 3527   2.908   1.441   1.512  0.5758  0.5997 -1.9695
    1SOL    MW4 3528   2.898   1.520   1.546 -0.0412  0.0074 -0.7124
    1SOL     OW 3529   2.684   1.677   1.471 -0.2412  0.1941 -0.4976
    1SOL    HW2 3530   2.691   1.761   1.517  0.6519 -0.0894 -0.0994
    1SOL    HW3 3531   2.690   1.699   1.378  0.4754  0.5370 -0.3761
    1SOL    MW4 3532   2.686   1.691   1.465 -0.0288  0.2021 -0.4290
    1SOL     OW 3533   2.698   1.920   1.583  0.1024 -0.2176 -0.3156
    1SOL    HW2 3534   2.678   1.907   1.676  1.2587  1.0647  0.1361
    1SOL    HW3 3535   2.617   1.955   1.546 -0.0591  0.2396  0.4461
    1SOL    MW4 3536   2.685   1.923   1.590  0.2339  0.0120 -0.1556
    1SOL     OW 3537   2.910   2.089   1.505 -0.2467 -0.1043  0.1064
    1SOL    HW2 3538   2.893   2.177   1.539 -0.2849  0.0376 -0.2718
    1SOL    HW3 3539   2.842   2.035   1.545 -0.6128  0.1613 -0.1511
    1SOL    MW4 3540   2.898   2.094   1.515 -0.3002 -0.0508  0.0225
    1SOL     OW 3541   2.888   2.356   1.591  0.1708  0.0174  0.2407
    1SOL    HW2 3542   2.865   2.332   1.681  0.1443 -0.1361  0.1926
    1SOL    HW3 3543   2.807   2.391   1.554 -0.6198 -2.6903 -0.6757
    1SOL    MW4 3544   2.874   2.357   1.598  0.0627 -0.3598  0.1136
    1SOL     OW 3545   2.645   2.464   1.507 -0.2260 -0.0416  0.1168
    1SOL    HW2 3546   2.646   2.551   1.547 -0.6756 -0.6232  1.4087
    1SOL    HW3 3547   2.586   2.412   1.562  0.8162 -1.4366 -0.0450
    1SOL    MW4 3548   2.638   2.468   1.520 -0.1478 -0.3026  0.2661
    1SOL     OW 3549   2.652   2.699   1.632 -0.5991  0.0571 -0.1457
    1SOL    HW2 3550   2.733   2.723   1.587 -0.5606  1.7244  0.7656
    1SOL    HW3 3551   2.586   2.757   1.595 -0.7021  0.9686  1.4079
    1SOL    MW4 3552   2.654   2.710   1.621 -0.6077  0.3970  0.1798
    1SOL     OW 3553   2.874   2.809   1.497 -0.0011  0.4936 -0.0470
    1SOL    HW2 3554   2.951   2.774   1.541 -0.0967  1.2045  0.6914
    1SOL    HW3 3555   2.868   2.899   1.527 -0.1746  0.9340 -1.3752
    1SOL    MW4 3556   2.883   2.816   1.506 -0.0367  0.6454 -0.1248
    1SOL     OW 3557   2.871   3.065   1.597  0.3272  0.1236 -0.9961
    1SOL    HW2 3558   2.855   3.079   1.690  1.0382 -2.7623 -0.3814
    1SOL    HW3 3559   2.966   3.074   1.587  0.2968  0.0465 -1.3656
    1SOL    MW4 3560   2.882   3.068   1.608  0.4170 -0.2675 -0.9637
    1SOL     OW 3561   2.689   3.252   1.524  0.1863  0.1327 -0.3290
    1SOL    HW2 3562   2.767   3.201   1.547 -0.2450 -0.5681 -0.4153
    1SOL    HW3 3563   2.684   3.247   1.429  0.6147  1.0353 -0.4016
    1SOL    MW4 3564   2.699   3.245   1.514  0.1862  0.1595 -0.3499
    1SOL     OW 3565   2.692   3.500   1.612  0.4355 -0.4206 -0.2112
    1SOL    HW2 3566   2.705   3.503   1.707 -1.4570 -0.1525  0.0690
    1SOL    HW3 3567   2.690   3.407   1.591 -0.4339 -0.5137  0.2329
    1SOL    MW4 3568   2.693   3.488   1.622  0.0710 -0.3977 -0.1156
    1SOL     OW 3569   2.934   3.574   1.512 -0.3988 -0.0855 -0.0582
    1SOL    HW2 3570   2.848   3.546   1.543 -0.2711  0.0802  0.4523
    1SOL    HW3 3571   2.921   3.595   1.420 -0.4030 -2.2884 -0.5916
    1SOL    MW4 3572   2.921   3.573   1.504 -0.3824 -0.3545 -0.0610
    1SOL     OW 3573   2.957   3.842   1.613  0.1239  0.0499  0.1375
    1SOL    HW2 3574   2.873   3.875   1.581 -0.3573 -1.4961 -0.2045
    1SOL    HW3 3575   2.957   3.749   1.591  3.1230  0.5737 -2.5017
    1SOL    MW4 3576   2.946   3.834   1.606  0.4559 -0.0851 -0.2559
    1SOL     OW 3577   2.722   3.989   1.518 -0.2355  0.0970 -0.0145
    1SOL    HW2 3578   2.729   4.080   1.545 -0.1686 -0.1985  0.9583
    1SOL    HW3 3579   2.722   3.993   1.422 -0.9431  1.1713  0.0219
    1SOL    MW4 3580   2.723   4.001   1.509 -0.3202  0.1998  0.1186
    1SOL     OW 3581   2.714   4.258   1.570 -0.4724 -0.0596  0.0249
    1SOL    HW2 3582   2.787   4.306   1.531 -0.4498  0.1066  0.2752
    1SOL    HW3 3583   2.636   4.303   1.537 -0.4694 -0.4757 -0.5525
    1SOL    MW4 3584   2.713   4.270   1.560 -0.4690 -0.0930 -0.0182
    1SOL     OW 3585   2.948   4.402   1.472  0.4271  0.1086 -0.4249
    1SOL    HW2 3586   2.928   4.494   1.490 -2.4963 -0.6447  0.4000
    1SOL    HW3 3587   2.967   4.401   1.378  0.0355  1.4983 -0.5400
    1SOL    MW4 3588   2.948   4.414   1.462 -0.0100  0.1922 -0.3314
    1SOL     OW 3589   3.338   4.602   1.581  0.1210 -0.5339  0.0511
    1SOL    HW2 3590   3.407   4.657   1.544 -1.7730  0.0494 -2.7399
    1SOL    HW3 3591   3.360   4.514   1.553  0.4252 -0.5330  0.2785
    1SOL    MW4 3592   3.350   4.598   1.573 -0.0889 -0.4568 -0.2872
    1SOL     OW 3593   3.130   0.104   1.475  0.2814 -0.1946  0.3574
    1SOL    HW2 3594   3.194   0.047   1.518  1.2026 -0.9135 -1.8930
    1SOL    HW3 3595   3.045   0.067   1.499  0.8200 -1.4044  0.4289
    1SOL    MW4 3596   3.127   0.092   1.484  0.4740 -0.4491  0.0699
    1SOL     OW 3597   3.134   0.369   1.616 -0.7620  0.0869 -0.1362
    1SOL    HW2 3598   3.134   0.279   1.585 -0.8873 -0.0473  0.2427
    1SOL    HW3 3599   3.054   0.407   1.581 -0.2101  0.3422 -1.1187
    1SOL    MW4 3600   3.123   0.362   1.608 -0.7055  0.1029 -0.2159
    1SOL     OW 3601   3.378   0.473   1.518  0.2557  0.1106 -0.0347
    1SOL    HW2 3602   3.295   0.438   1.550  0.3431  0.2023  0.2973
    1SOL    HW3 3603   3.375   0.460   1.424 -0.0337 -0.1057  0.0040
    1SOL    MW4 3604   3.367   0.467   1.510  0.2289  0.0941  0.0142
    1SOL     OW 3605   3.398   0.764   1.543  0.1136  0.6119  0.0907
    1SOL    HW2 3606   3.392   0.771   1.638  2.9493  0.3199  0.3338
    1SOL    HW3 3607   3.389   0.671   1.525 -0.7589  0.7051  0.0432
    1SOL    MW4 3608   3.396   0.753   1.553  0.3729  0.5856  0.1166
    1SOL     OW 3609   3.157   0.868   1.476  0.2935  0.0282 -0.0441
    1SOL    HW2 3610   3.244   0.833   1.494  1.1532  2.1137  0.0309
    1SOL    HW3 3611   3.099   0.821   1.535  1.1944 -2.1616 -0.8735
    1SOL    MW4 3612   3.161   0.858   1.486  0.5257  0.0145 -0.1436
    1SOL     OW 3613   3.165   1.142   1.555 -0.2457 -0.0501 -0.0064
    1SOL    HW2 3614   3.162   1.142   1.651 -1.9259  1.4384 -0.0469
    1SOL    HW3 3615   3.163   1.049   1.531  0.5994 -0.4475  1.3996
    1SOL    MW4 3616   3.165   1.129   1.564 -0.3557  0.0939  0.1737
    1SOL     OW 3617   3.377   1.305   1.487  0.1095 -0.2658 -0.2760
    1SOL    HW2 3618   3.443   1.248   1.526  1.3356  1.0930 -0.3215
    1SOL    HW3 3619   3.294   1.269   1.517  0.9290 -0.8362  1.4064
    1SOL    MW4 3620   3.375   1.293   1.496  0.3798 -0.1618 -0.0601
    1SOL     OW 3621   3.351   1.564   1.611 -0.0514  0.5383  0.3774
    1SOL    HW2 3622   3.370   1.563   1.705  0.8763 -1.1661  0.1868
    1SOL    HW3 3623   3.367   1.474   1.583 -0.3521  1.0401 -1.4160
    1SOL    MW4 3624   3.356   1.552   1.620  0.0310  0.3797  0.1156
    1SOL     OW 3625   3.128   1.681   1.482 -0.2337  0.0926  0.0196
    1SOL    HW2 3626   3.201   1.648   1.533 -0.4328  1.4260  1.1730
    1SOL    HW3 3627   3.055   1.623   1.504 -0.3826  0.8011  1.4569
    1SOL    MW4 3628   3.128   1.669   1.491 -0.2797  0.3620  0.3613
    1SOL     OW 3629   3.129   1.941   1.560  0.0422  0.1604  0.3026
    1SOL    HW2 3630   3.120   1.855   1.519  0.9435  0.5405 -0.7183
    1SOL    HW3 3631   3.048   1.987   1.539 -0.2158 -0.2549  0.3994
    1SOL    MW4 3632   3.117   1.936   1.552  0.1268  0.1557  0.1807
    1SOL     OW 3633   3.374   2.027   1.460  0.1185  0.1058 -0.0706
    1SOL    HW2 3634   3.288   1.994   1.485  1.2326 -2.0576  1.0407
    1SOL    HW3 3635   3.365   2.049   1.367 -1.8246  0.6277  0.2131
    1SOL    MW4 3636   3.361   2.026   1.451  0.0091 -0.1106  0.1135
    1SOL     OW 3637   3.354   2.278   1.572 -0.0337 -0.5322  0.1747
    1SOL    HW2 3638   3.426   2.336   1.548 -0.1157 -0.8687 -0.8733
    1SOL    HW3 3639   3.381   2.191   1.543 -1.0541 -0.5880 -0.6501
    1SOL    MW4 3640   3.367   2.274   1.565 -0.1793 -0.5839 -0.0725
    1SOL     OW 3641   3.150   2.461   1.492  0.5132  0.0388 -0.1047
    1SOL    HW2 3642   3.232   2.413   1.508  1.1122  1.6516  1.9841
    1SOL    HW3 3643   3.085   2.414   1.544  1.1288  1.4730  2.0572
    1SOL    MW4 3644   3.153   2.448   1.501  0.6733  0.4406  0.4562
    1SOL     OW 3645   3.119   2.716   1.596  0.0520 -0.5038  0.0927
    1SOL    HW2 3646   3.197   2.768   1.573  0.5283 -0.2431  2.2389
    1SOL    HW3 3647   3.126   2.638   1.541 -0.3975  1.4245 -2.7874
    1SOL    MW4 3648   3.131   2.713   1.586  0.0556 -0.2151 -0.0041
    1SOL     OW 3649   3.353   2.810   1.464 -0.0157  0.0790 -0.3866
    1SOL    HW2 3650   3.359   2.903   1.488 -1.8502 -0.0647  0.7628
    1SOL    HW3 3651   3.359   2.810   1.369 -0.8384  1.4681 -0.4622
    1SOL    MW4 3652   3.355   2.822   1.455 -0.3662  0.2434 -0.2450
    1SOL     OW 3653   3.362   3.069   1.587 -0.4105 -0.5503 -0.6171
    1SOL    HW2 3654   3.353   3.068   1.682  0.1915  0.4153 -0.5444
    1SOL    HW3 3655   3.443   3.117   1.571  0.3851 -2.1842 -1.5549
    1SOL    MW4 3656   3.371   3.075   1.597 -0.2263 -0.6387 -0.7313
    1SOL     OW 3657   3.119   3.175   1.565  0.0927 -0.1506  0.1818
    1SOL    HW2 3658   3.131   3.270   1.562  1.2935 -0.1860  2.8939
    1SOL    HW3 3659   3.208   3.140   1.568 -0.3541 -1.3768 -0.7059
    1SOL    MW4 3660   3.132   3.183   1.565  0.1922 -0.3169  0.4224
    1SOL     OW 3661   3.149   3.449   1.615 -0.1522 -0.2062 -0.5265
    1SOL    HW2 3662   3.139   3.482   1.704 -0.0162  0.6733 -0.8304
    1SOL    HW3 3663   3.065   3.467   1.573  0.0310  0.0598 -0.7849
    1SOL    MW4 3664   3.137   3.456   1.621 -0.1104 -0.0553 -0.6006
    1SOL     OW 3665   3.362   3.595   1.511  0.0044  0.5124 -0.2184
    1SOL    HW2 3666   3.445   3.573   1.553  0.1633  0.7534 -0.4051
    1SOL    HW3 3667   3.300   3.532   1.547  0.2260  0.4529  0.0675
    1SOL    MW4 3668   3.365   3.584   1.521  0.0546  0.5367 -0.2053
    1SOL     OW 3669   3.345   3.857   1.600  0.1783  0.3895  0.5026
    1SOL    HW2 3670   3.280   3.892   1.540  1.1555 -1.0460 -1.4861
    1SOL    HW3 3671   3.348   3.763   1.580  1.1539  0.0248  2.2085
    1SOL    MW4 3672   3.337   3.849   1.590  0.4356  0.1521  0.4653
    1SOL     OW 3673   3.130   3.971   1.439 -0.4136  0.1089 -0.2169
    1SOL    HW2 3674   3.122   4.056   1.481 -1.4103  0.3384 -0.8399
    1SOL    HW3 3675   3.071   3.913   1.488  1.5976 -0.6863  1.3205
    1SOL    MW4 3676   3.121   3.974   1.451 -0.2797  0.0341 -0.0963
    1SOL     OW 3677   3.137   4.224   1.575 -0.0313 -0.5068 -0.2946
    1SOL    HW2 3678   3.136   4.227   1.671  1.1253  1.3715 -0.3252
    1SOL    HW3 3679   3.071   4.288   1.549  0.9084  0.2952 -0.7478
    1SOL    MW4 3680   3.128   4.233   1.584  0.2451 -0.1531 -0.3586
    1SOL     OW 3681   3.366   4.349   1.483  0.0660 -0.1824 -0.0678
    1SOL    HW2 3682   3.290   4.306   1.521 -0.0452  0.8068  0.8404
    1SOL    HW3 3683   3.338   4.374   1.395 -1.4848  2.3276  1.0877
    1SOL    MW4 3684   3.353   4.346   1.476 -0.1535  0.2789  0.2044
    1SOL     OW 3685   3.800   4.613   1.582  0.1046  0.3954  0.2806
    1SOL    HW2 3686   3.823   4.630   1.673  0.1071  2.2243 -0.0407
    1SOL    HW3 3687   3.878   4.637   1.532  0.3626 -1.3091 -0.1546
    1SOL    MW4 3688   3.813   4.619   1.587  0.1388  0.4120  0.1808
    1SOL     OW 3689   3.560   0.083   1.507 -0.1548  0.0197  0.3280
    1SOL    HW2 3690   3.641   0.039   1.532 -0.5211 -0.5699  0.5020
    1SOL    HW3 3691   3.559   0.079   1.412 -0.3072 -0.5769  0.3537
    1SOL    MW4 3692   3.571   0.076   1.498 -0.2236 -0.1368  0.3542
    1SOL     OW 3693   3.608   0.333   1.595 -0.2767 -0.2715 -0.0086
    1SOL    HW2 3694   3.599   0.247   1.556 -1.0605  0.5976 -1.8030
    1SOL    HW3 3695   3.526   0.378   1.574  0.0132  0.8183  1.1201
    1SOL    MW4 3696   3.596   0.328   1.587 -0.3419 -0.0131 -0.0964
    1SOL     OW 3697   3.831   0.511   1.553 -0.5794 -0.4811  0.1810
    1SOL    HW2 3698   3.760   0.451   1.573 -0.2098 -0.8728  0.3348
    1SOL    HW3 3699   3.851   0.496   1.460 -0.3603 -0.7326  0.2684
    1SOL    MW4 3700   3.825   0.501   1.543 -0.5019 -0.5659  0.2129
    1SOL     OW 3701   3.828   0.787   1.598 -0.0246 -0.1311 -0.0936
    1SOL    HW2 3702   3.747   0.819   1.559 -0.3106  0.5187  1.0088
    1SOL    HW3 3703   3.833   0.695   1.574 -1.0023 -0.1241 -0.3068
    1SOL    MW4 3704   3.818   0.779   1.590 -0.1912 -0.0445  0.0237
    1SOL     OW 3705   3.610   0.914   1.469 -0.0625 -0.5451  0.3269
    1SOL    HW2 3706   3.538   0.871   1.515 -1.1895 -0.1049 -1.0065
    1SOL    HW3 3707   3.589   0.905   1.376  0.8437  0.8728 -0.0430
    1SOL    MW4 3708   3.597   0.908   1.463 -0.0916 -0.3000  0.1023
    1SOL     OW 3709   3.584   1.160   1.595  0.0178  0.2029  0.3459
    1SOL    HW2 3710   3.658   1.201   1.551  1.3854 -1.1408  1.3298
    1SOL    HW3 3711   3.571   1.078   1.548 -1.6845  0.9970 -0.6143
    1SOL    MW4 3712   3.592   1.155   1.583 -0.0262  0.1303  0.3492
    1SOL     OW 3713   3.804   1.267   1.466  0.3912  0.2648  0.2991
    1SOL    HW2 3714   3.872   1.213   1.507  1.0841  0.9495  0.0747
    1SOL    HW3 3715   3.821   1.356   1.500  0.1956  0.6036 -0.4889
    1SOL    MW4 3716   3.816   1.272   1.476  0.4570  0.3999  0.1656
    1SOL     OW 3717   3.819   1.529   1.566  0.2726  0.0847  0.3097
    1SOL    HW2 3718   3.812   1.550   1.659 -0.5845 -0.7490  0.4511
    1SOL    HW3 3719   3.744   1.572   1.526 -0.4376 -1.1290  0.3130
    1SOL    MW4 3720   3.808   1.537   1.573  0.0658 -0.1854  0.3287
    1SOL     OW 3721   3.593   1.650   1.472 -0.6702 -0.4780 -0.0791
    1SOL    HW2 3722   3.527   1.593   1.512 -0.7044 -1.4406 -1.4350
    1SOL    HW3 3723   3.575   1.643   1.378  0.0311  0.9265 -0.3205
    1SOL    MW4 3724   3.582   1.641   1.465 -0.5822 -0.4199 -0.2898
    1SOL     OW 3725   3.582   1.909   1.578  0.0847 -0.1635  0.0988
    1SOL    HW2 3726   3.585   1.821   1.541  0.6133  0.1429 -0.5871
    1SOL    HW3 3727   3.509   1.952   1.533  0.5963  0.1407 -0.4498
    1SOL    MW4 3728   3.573   1.903   1.567  0.2217 -0.0830 -0.0640
    1SOL     OW 3729   3.821   2.026   1.459  0.1747 -0.3062  0.2636
    1SOL    HW2 3730   3.820   2.112   1.499  1.4143 -0.0215 -0.2789
    1SOL    HW3 3731   3.742   1.982   1.492 -0.6580  1.1619  0.2362
    1SOL    MW4 3732   3.810   2.031   1.469  0.2284 -0.0746  0.1885
    1SOL     OW 3733   3.792   2.262   1.605 -0.0828  0.3469 -0.3559
    1SOL    HW2 3734   3.792   2.263   1.700  0.6776  0.4754 -0.3567
    1SOL    HW3 3735   3.867   2.316   1.580  1.1995 -1.7060 -1.0059
    1SOL    MW4 3736   3.802   2.269   1.614  0.1869  0.0930 -0.4419
    1SOL     OW 3737   3.592   2.434   1.506 -0.1893 -0.4009  0.0686
    1SOL    HW2 3738   3.581   2.521   1.543  1.1084  0.3419 -1.2196
    1SOL    HW3 3739   3.663   2.395   1.557 -0.1202 -0.3397  0.0194
    1SOL    MW4 3740   3.600   2.440   1.517 -0.0088 -0.2947 -0.1078
    1SOL     OW 3741   3.574   2.694   1.586  0.4137 -0.6847  0.2252
    1SOL    HW2 3742   3.548   2.693   1.679 -0.6818 -0.2917 -0.0636
    1SOL    HW3 3743   3.502   2.739   1.542  1.7873  0.7716 -0.5672
    1SOL    MW4 3744   3.561   2.700   1.593  0.4506 -0.4404  0.0824
    1SOL     OW 3745   3.800   2.835   1.502 -0.2033 -0.3470 -0.1005
    1SOL    HW2 3746   3.874   2.786   1.536  0.0924  0.4204  0.3687
    1SOL    HW3 3747   3.724   2.782   1.524  0.2092 -1.1442 -0.5993
    1SOL    MW4 3748   3.800   2.822   1.509 -0.1097 -0.3507 -0.1043
    1SOL     OW 3749   3.800   3.092   1.617 -0.1021 -0.2734  0.2636
    1SOL    HW2 3750   3.876   3.132   1.576  0.2916 -0.4557  0.8172
    1SOL    HW3 3751   3.798   3.003   1.582 -0.0590 -0.2705  0.2542
    1SOL    MW4 3752   3.809   3.085   1.607 -0.0446 -0.2971  0.3356
    1SOL     OW 3753   3.589   3.247   1.525 -0.3118 -0.0043 -0.1164
    1SOL    HW2 3754   3.657   3.193   1.564 -0.2666  0.0323 -0.1454
    1SOL    HW3 3755   3.593   3.228   1.432  0.7609  1.2273 -0.3357
    1SOL    MW4 3756   3.598   3.237   1.518 -0.1643  0.1633 -0.1490
    1SOL     OW 3757   3.605   3.520   1.630  0.5333  0.0539 -0.0908
    1SOL    HW2 3758   3.679   3.558   1.583 -1.0526  0.8974 -1.9824
    1SOL    HW3 3759   3.598   3.431   1.597  0.3554  0.1511 -0.3110
    1SOL    MW4 3760   3.614   3.514   1.620  0.3006  0.1779 -0.3694
    1SOL     OW 3761   3.816   3.618   1.483  0.1433 -0.1220 -0.1512
    1SOL    HW2 3762   3.882   3.565   1.527 -0.2763 -0.2879  0.2874
    1SOL    HW3 3763   3.824   3.705   1.522 -2.2207 -0.9798  2.4583
    1SOL    MW4 3764   3.825   3.623   1.494 -0.2241 -0.2570  0.2509
    1SOL     OW 3765   3.842   3.850   1.606  0.3595  0.4881  0.0524
    1SOL    HW2 3766   3.903   3.912   1.567 -0.0211  1.2178  0.6027
    1SOL    HW3 3767   3.756   3.880   1.579  0.2287 -0.5124 -0.6810
    1SOL    MW4 3768   3.839   3.862   1.597  0.2921  0.4525  0.0283
    1SOL     OW 3769   3.603   3.934   1.508  0.1086 -0.7326 -0.6026
    1SOL    HW2 3770   3.605   4.028   1.524 -0.0939 -0.6445 -1.0658
    1SOL    HW3 3771   3.520   3.905   1.544  0.0441 -0.6829 -0.7095
    1SOL    MW4 3772   3.593   3.943   1.515  0.0734 -0.7143 -0.6778
    1SOL     OW 3773   3.579   4.195   1.592 -0.3309  0.0099 -0.1400
    1SOL    HW2 3774   3.573   4.207   1.686  1.5706 -0.2970  0.0481
    1SOL    HW3 3775   3.509   4.249   1.556  0.5382  2.1778  1.3127
    1SOL    MW4 3776   3.569   4.203   1.599  0.0346  0.2556  0.0764
    1SOL     OW 3777   3.809   4.361   1.515 -0.0329  0.1666  0.0769
    1SOL    HW2 3778   3.729   4.314   1.540 -0.3562  0.7336  0.1251
    1SOL    HW3 3779   3.796   4.449   1.550 -0.5201  1.0016 -2.1269
    1SOL    MW4 3780   3.797   4.366   1.523 -0.1397  0.3514 -0.2075
    1SOL     OW 3781   4.270   4.662   1.537  0.0730 -0.2861 -0.3800
    1SOL    HW2 3782   4.277   4.683   1.630 -1.2357  1.0340 -0.5564
    1SOL    HW3 3783   4.264   4.567   1.533 -3.0615 -0.1993  1.1313
    1SOL    MW4 3784   4.270   4.652   1.548 -0.5136 -0.1005 -0.2040
    1SOL     OW 3785   4.023   0.103   1.494 -0.0103  0.4186 -0.1662
    1SOL    HW2 3786   4.019   0.173   1.559 -0.3908  0.8275 -0.6276
    1SOL    HW3 3787   4.106   0.058   1.512 -0.1013  0.5445  0.5845
    1SOL    MW4 3788   4.033   0.106   1.505 -0.0730  0.4892 -0.1280
    1SOL     OW 3789   4.038   0.341   1.642 -0.5088  0.0210 -0.5225
    1SOL    HW2 3790   4.047   0.328   1.737  0.5165  2.6763 -0.2434
    1SOL    HW3 3791   3.955   0.387   1.633 -0.8686 -0.7074 -0.9904
    1SOL    MW4 3792   4.028   0.345   1.654 -0.4206  0.2753 -0.5474
    1SOL     OW 3793   4.244   0.458   1.509 -0.0310 -0.1956 -0.3239
    1SOL    HW2 3794   4.168   0.425   1.557  0.2728 -0.1288  0.2011
    1SOL    HW3 3795   4.315   0.399   1.533  0.2106  0.0657 -0.4057
    1SOL    MW4 3796   4.243   0.446   1.518  0.0410 -0.1523 -0.2655
    1SOL     OW 3797   4.297   0.746   1.561 -0.7355 -0.0394 -0.5101
    1SOL    HW2 3798   4.311   0.652   1.551 -1.1302 -0.4115  2.1180
    1SOL    HW3 3799   4.382   0.785   1.541 -0.3660 -1.0267 -0.8684
    1SOL    MW4 3800   4.310   0.739   1.557 -0.7381 -0.2187 -0.2106
    1SOL     OW 3801   4.062   0.896   1.485  0.3544  0.4419 -0.5731
    1SOL    HW2 3802   4.126   0.828   1.506  0.3018  0.7715  0.6536
    1SOL    HW3 3803   3.982   0.867   1.529  0.1744  1.0124 -0.5274
    1SOL    MW4 3804   4.060   0.883   1.493  0.3242  0.5607 -0.4054
    1SOL     OW 3805   4.053   1.170   1.552  0.2267  0.0054 -0.2657
    1SOL    HW2 3806   4.057   1.180   1.647 -0.2248  0.7054 -0.3173
    1SOL    HW3 3807   4.045   1.076   1.539 -1.3920  0.0204  0.4643
    1SOL    MW4 3808   4.053   1.159   1.563 -0.0467  0.0998 -0.1763
    1SOL     OW 3809   4.314   1.247   1.458 -0.1750  0.3753  0.5335
    1SOL    HW2 3810   4.236   1.201   1.491 -0.2598  0.3063  0.2442
    1SOL    HW3 3811   4.387   1.202   1.499 -0.2682  0.1227  0.4267
    1SOL    MW4 3812   4.313   1.235   1.468 -0.1984  0.3330  0.4812
    1SOL     OW 3813   4.245   1.487   1.580  0.0592  0.2664  0.0347
    1SOL    HW2 3814   4.266   1.410   1.527  0.7779  0.6176 -0.2014
    1SOL    HW3 3815   4.325   1.541   1.577 -0.3651  0.9236  0.3622
    1SOL    MW4 3816   4.259   1.484   1.573  0.0982  0.3994  0.0467
    1SOL     OW 3817   4.057   1.628   1.444 -0.0874  0.2690  0.2560
    1SOL    HW2 3818   4.120   1.572   1.490 -0.3215  0.8066  1.2440
    1SOL    HW3 3819   3.972   1.599   1.476 -0.3752 -0.6600 -1.3023
    1SOL    MW4 3820   4.054   1.617   1.454 -0.1564  0.2173  0.1807
    1SOL     OW 3821   4.010   1.877   1.575  0.6659 -0.6704 -0.1856
    1SOL    HW2 3822   4.027   1.793   1.532  1.0812 -0.8013  0.2248
    1SOL    HW3 3823   3.934   1.913   1.530 -0.5636 -2.0523  0.7536
    1SOL    MW4 3824   4.003   1.871   1.563  0.5589 -0.8700 -0.0076
    1SOL     OW 3825   4.215   2.034   1.484 -0.3727 -0.3406 -0.8824
    1SOL    HW2 3826   4.144   1.976   1.513 -0.7559  0.4560 -0.1963
    1SOL    HW3 3827   4.204   2.040   1.389 -2.2358  1.0665 -0.6109
    1SOL    MW4 3828   4.204   2.027   1.476 -0.6695 -0.0501 -0.7560
    1SOL     OW 3829   4.214   2.288   1.565 -0.4234 -0.2600  0.4646
    1SOL    HW2 3830   4.219   2.306   1.659 -0.8543 -0.1948  0.4770
    1SOL    HW3 3831   4.236   2.195   1.557  0.5013 -0.0575  0.5339
    1SOL    MW4 3832   4.218   2.278   1.576 -0.3586 -0.2248  0.4754
    1SOL     OW 3833   3.989   2.420   1.473  0.5404  0.1638  0.4607
    1SOL    HW2 3834   3.996   2.507   1.512 -1.4931  0.4897  0.1413
    1SOL    HW3 3835   4.065   2.373   1.506  1.2019  1.7964  1.3214
    1SOL    MW4 3836   4.000   2.425   1.482  0.3593  0.4220  0.5322
    1SOL     OW 3837   4.008   2.678   1.599 -0.0879  0.4102 -0.1169
    1SOL    HW2 3838   4.013   2.698   1.693 -0.4258 -0.3704  0.0728
    1SOL    HW3 3839   4.091   2.709   1.563 -0.5444  2.0344  0.1875
    1SOL    MW4 3840   4.020   2.684   1.607 -0.1926  0.5214 -0.0516
    1SOL     OW 3841   4.225   2.830   1.493  0.5354 -0.1033  0.0019
    1SOL    HW2 3842   4.247   2.916   1.531  1.5530 -0.3866  0.0865
    1SOL    HW3 3843   4.263   2.833   1.404 -0.7171  0.0817 -0.5333
    1SOL    MW4 3844   4.233   2.842   1.486  0.5050 -0.1163 -0.0575
    1SOL     OW 3845   4.262   3.102   1.598 -0.2583  0.0541  0.1651
    1SOL    HW2 3846   4.268   3.107   1.694 -1.5947 -0.4897  0.2854
    1SOL    HW3 3847   4.346   3.135   1.568 -0.0963  0.9276  1.5128
    1SOL    MW4 3848   4.274   3.107   1.607 -0.4129  0.0975  0.3589
    1SOL     OW 3849   4.034   3.204   1.480 -0.0796  0.1560 -0.0432
    1SOL    HW2 3850   4.045   3.296   1.503  1.4194  0.2629 -1.0800
    1SOL    HW3 3851   4.109   3.160   1.520 -0.2817 -0.4557 -0.3310
    1SOL    MW4 3852   4.046   3.210   1.488  0.0916  0.0892 -0.2180
    1SOL     OW 3853   4.029   3.455   1.572 -0.0996 -0.0057  0.0283
    1SOL    HW2 3854   4.021   3.440   1.666 -0.6666 -1.3117 -0.2292
    1SOL    HW3 3855   4.109   3.507   1.563  1.1753 -1.7491  1.0376
    1SOL    MW4 3856   4.038   3.460   1.583 -0.0062 -0.4082  0.1274
    1SOL     OW 3857   4.256   3.598   1.502  0.2601 -0.0672 -0.1973
    1SOL    HW2 3858   4.251   3.691   1.526  0.7890  0.0305 -0.4631
    1SOL    HW3 3859   4.220   3.594   1.414 -2.0008 -0.4783  0.7021
    1SOL    MW4 3860   4.251   3.610   1.494  0.0315 -0.1085 -0.1138
    1SOL     OW 3861   4.267   3.871   1.579 -0.0239  0.8447  0.1880
    1SOL    HW2 3862   4.196   3.929   1.551  0.1203  1.4248  1.0168
    1SOL    HW3 3863   4.346   3.913   1.547 -0.0444  0.1408 -0.8340
    1SOL    MW4 3864   4.268   3.884   1.571 -0.0076  0.8285  0.1625
    1SOL     OW 3865   4.037   4.022   1.496  0.5067  0.1532 -0.1249
    1SOL    HW2 3866   4.061   4.108   1.532  2.2827 -0.1926 -0.4134
    1SOL    HW3 3867   4.015   4.039   1.405  0.2858  0.3895 -0.0282
    1SOL    MW4 3868   4.037   4.036   1.489  0.7119  0.1383 -0.1502
    1SOL     OW 3869   4.061   4.259   1.605 -0.8212 -0.0521 -0.0293
    1SOL    HW2 3870   4.073   4.263   1.700 -2.8919 -2.1814  0.3610
    1SOL    HW3 3871   3.976   4.300   1.590 -1.0122 -0.7281 -0.8291
    1SOL    MW4 3872   4.051   4.265   1.616 -1.1196 -0.4225 -0.0833
    1SOL     OW 3873   4.292   4.384   1.498 -0.1490 -0.3237 -0.5203
    1SOL    HW2 3874   4.220   4.329   1.527 -0.0585 -0.2662 -0.1806
    1SOL    HW3 3875   4.289   4.380   1.402 -0.3642 -0.6258 -0.5013
    1SOL    MW4 3876   4.283   4.376   1.489 -0.1650 -0.3557 -0.4730
    1SOL     OW 3877   0.232   4.661   1.909 -0.0076 -0.2629 -0.6756
    1SOL    HW2 3878   0.322   4.686   1.930 -0.1428  1.7020 -2.3346
    1SOL    HW3 3879   0.228   4.663   1.813 -2.6726  2.8741 -0.5851
    1SOL    MW4 3880   0.243   4.664   1.899 -0.3771  0.4101 -0.8824
    1SOL     OW 3881   0.013   0.123   2.017 -0.4810  0.0739 -0.4352
    1SOL    HW2 3882  -0.003   0.205   1.972  0.9100  0.6678  0.1043
    1SOL    HW3 3883   0.089   0.085   1.972 -0.3950 -0.3430  0.0489
    1SOL    MW4 3884   0.021   0.129   2.005 -0.2861  0.0972 -0.3004
    1SOL     OW 3885   4.473   0.357   1.864  0.2186 -0.3788 -0.0288
    1SOL    HW2 3886   4.401   0.409   1.900 -0.5112 -0.8000 -0.8606
    1SOL    HW3 3887   4.551   0.393   1.905 -0.3683  0.7659  0.1002
    1SOL    MW4 3888   4.474   0.368   1.874  0.0443 -0.2834 -0.1215
    1SOL     OW 3889   0.216   0.476   1.971  0.2411  0.1638  0.0418
    1SOL    HW2 3890   0.295   0.429   1.943  0.9788  1.7846 -0.6327
    1SOL    HW3 3891   0.231   0.566   1.943 -0.8512  0.9626  1.9989
    1SOL    MW4 3892   0.228   0.482   1.963  0.1943  0.4830  0.2110
    1SOL     OW 3893   0.214   0.726   1.871 -0.1838 -0.1283 -0.0522
    1SOL    HW2 3894   0.289   0.779   1.897  0.2466 -0.7301 -0.0389
    1SOL    HW3 3895   0.217   0.725   1.775 -0.7110  0.5999 -0.0775
    1SOL    MW4 3896   0.224   0.733   1.862 -0.1965 -0.1116 -0.0538
    1SOL     OW 3897   4.484   0.847   1.985 -0.1994 -0.2807 -0.4096
    1SOL    HW2 3898   4.412   0.829   1.925  0.1282  2.3402 -1.6946
    1SOL    HW3 3899   4.559   0.800   1.948 -0.7568 -1.3507 -0.1992
    1SOL    MW4 3900   4.484   0.839   1.973 -0.2298 -0.0761 -0.5513
    1SOL     OW 3901   0.018   1.102   1.892 -0.0973 -0.5294 -0.0964
    1SOL    HW2 3902  -0.059   1.145   1.931 -0.4256  0.1232 -1.4497
    1SOL    HW3 3903   0.025   1.019   1.940 -0.2155  0.4536  1.6753
    1SOL    MW4 3904   0.009   1.097   1.904 -0.1564 -0.3135 -0.0411
    1SOL     OW 3905   0.231   1.275   1.964  0.5048 -0.1921 -0.1173
    1SOL    HW2 3906   0.216   1.363   1.930 -0.1358  1.0319  3.2174
    1SOL    HW3 3907   0.149   1.228   1.947  0.7477 -0.1126 -1.6276
    1SOL    MW4 3908   0.218   1.280   1.957  0.4523 -0.0200  0.1234
    1SOL     OW 3909   0.184   1.540   1.880  0.3733 -0.1781 -0.2497
    1SOL    HW2 3910   0.256   1.596   1.911  1.3222  0.1479 -2.9277
    1SOL    HW3 3911   0.105   1.591   1.898  1.1270  1.3983 -1.2885
    1SOL    MW4 3912   0.183   1.554   1.886  0.5980  0.0730 -0.7401
    1SOL     OW 3913   4.428   1.662   1.929  0.2224 -0.1944  0.4693
    1SOL    HW2 3914   4.431   1.659   2.024  0.4149 -1.4311  0.4337
    1SOL    HW3 3915   4.345   1.620   1.906  0.9344 -1.3795  0.0373
    1SOL    MW4 3916   4.418   1.656   1.938  0.3419 -0.5140  0.4076
    1SOL     OW 3917   4.470   1.932   1.839 -0.5459  0.6118 -0.4794
    1SOL    HW2 3918   4.399   1.983   1.876 -0.3189  0.1508  0.6078
    1SOL    HW3 3919   4.455   1.843   1.872 -0.2938  0.2067 -1.4271
    1SOL    MW4 3920   4.458   1.927   1.848 -0.4826  0.4976 -0.4609
    1SOL     OW 3921   0.200   2.055   1.978  0.2953  0.2633 -0.0044
    1SOL    HW2 3922   0.219   2.142   1.941 -1.0347  1.1731  1.4086
    1SOL    HW3 3923   0.126   2.023   1.926 -0.4640  0.8043  0.7453
    1SOL    MW4 3924   0.193   2.062   1.966  0.0196  0.4544  0.2809
    1SOL     OW 3925   0.243   2.295   1.855  0.4695 -0.2307 -0.1316
    1SOL    HW2 3926   0.323   2.333   1.894 -0.5112  1.8731 -0.1341
    1SOL    HW3 3927   0.174   2.356   1.879 -1.3561 -2.5883  0.7690
    1SOL    MW4 3928   0.245   2.308   1.864  0.0993 -0.2644 -0.0130
    1SOL     OW 3929   0.005   2.433   1.905  0.3320 -0.0299 -0.4292
    1SOL    HW2 3930  -0.014   2.432   1.999  2.7311  0.6939  0.0991
    1SOL    HW3 3931   0.015   2.526   1.884 -1.6109 -0.0929 -1.7246
    1SOL    MW4 3932   0.004   2.445   1.914  0.3924  0.0575 -0.5304
    1SOL     OW 3933   4.482   2.707   1.866 -0.5034 -0.0982  0.0827
    1SOL    HW2 3934   4.397   2.740   1.894  0.1637  0.3370  1.6693
    1SOL    HW3 3935   4.480   2.712   1.770 -1.8810  0.8502  0.1514
    1SOL    MW4 3936   4.470   2.712   1.857 -0.5970  0.0844  0.3011
    1SOL     OW 3937   0.208   2.808   1.997  0.3344 -0.1644  0.1606
    1SOL    HW2 3938   0.221   2.887   1.945  0.8120  0.3098  0.9931
    1SOL    HW3 3939   0.132   2.766   1.958  0.7202  0.1479 -0.9723
    1SOL    MW4 3940   0.200   2.813   1.985  0.4483 -0.0603  0.1210
    1SOL     OW 3941   0.244   3.068   1.876  0.1882 -0.0876 -0.2103
    1SOL    HW2 3942   0.313   3.128   1.906 -0.0442  0.0264  0.1034
    1SOL    HW3 3943   0.257   3.062   1.782  1.4922 -1.1646  0.0198
    1SOL    MW4 3944   0.255   3.075   1.868  0.3296 -0.2148 -0.1385
    1SOL     OW 3945   0.012   3.208   1.966  0.0260  0.0269 -0.0441
    1SOL    HW2 3946  -0.067   3.159   1.946 -0.0325  0.5325 -1.1129
    1SOL    HW3 3947   0.083   3.156   1.928  0.1712 -0.2681  0.6357
    1SOL    MW4 3948   0.011   3.195   1.958  0.0375  0.0548 -0.0956
    1SOL     OW 3949   4.487   3.459   1.862  0.0155  0.4788  0.9111
    1SOL    HW2 3950   4.548   3.518   1.905  0.6525 -0.2488  1.0013
    1SOL    HW3 3951   4.496   3.376   1.908  1.2412 -0.5188 -1.0783
    1SOL    MW4 3952   4.496   3.456   1.874  0.2613  0.2515  0.6605
    1SOL     OW 3953   0.227   3.588   1.983  0.2147 -0.2326  0.0567
    1SOL    HW2 3954   0.240   3.601   2.077  0.4728  0.4072 -0.0626
    1SOL    HW3 3955   0.314   3.565   1.950 -0.0960 -1.5886  0.1486
    1SOL    MW4 3956   0.241   3.587   1.991  0.2078 -0.3273  0.0532
    1SOL     OW 3957   0.223   3.847   1.890  0.0150 -0.2025 -0.3329
    1SOL    HW2 3958   0.306   3.877   1.926  0.3614 -1.0243 -0.4521
    1SOL    HW3 3959   0.205   3.765   1.936 -0.9677  0.2098  0.0426
    1SOL    MW4 3960   0.231   3.840   1.901 -0.0689 -0.2565 -0.2990
    1SOL     OW 3961   4.485   3.997   1.975  0.9586  0.2335 -0.5223
    1SOL    HW2 3962   4.494   4.088   1.944 -0.5104 -0.0973 -1.9464
    1SOL    HW3 3963   4.556   3.950   1.931 -0.4594 -0.0127 -2.5802
    1SOL    MW4 3964   4.496   4.003   1.965  0.5774  0.1574 -0.9817
    1SOL     OW 3965   0.020   4.249   1.856 -0.5077 -0.0558  0.5599
    1SOL    HW2 3966  -0.059   4.300   1.876 -0.4860 -0.5287  1.8742
    1SOL    HW3 3967   0.093   4.306   1.879 -0.4782 -0.3029  1.0811
    1SOL    MW4 3968   0.019   4.263   1.861 -0.5012 -0.1507  0.8020
    1SOL     OW 3969   0.228   4.388   1.973  0.4646 -0.0174  0.3459
    1SOL    HW2 3970   0.202   4.383   2.065 -0.0246  0.0648  0.2144
    1SOL    HW3 3971   0.232   4.482   1.955  1.7766 -0.0116  0.6193
    1SOL    MW4 3972   0.225   4.400   1.983  0.5732 -0.0057  0.3645
    1SOL     OW 3973   0.730   4.616   1.900 -0.1024 -0.1888  0.2520
    1SOL    HW2 3974   0.710   4.531   1.939 -0.9550  0.4341  1.1918
    1SOL    HW3 3975   0.746   4.596   1.808  1.0983 -1.5546  0.7251
    1SOL    MW4 3976   0.730   4.602   1.893 -0.0565 -0.2866  0.4383
    1SOL     OW 3977   0.483   0.094   1.970  0.0192 -0.4636  0.1757
    1SOL    HW2 3978   0.500   0.181   1.935 -0.2399  0.0136  1.2063
    1SOL    HW3 3979   0.557   0.041   1.940  0.0887  0.0678 -0.5958
    1SOL    MW4 3980   0.495   0.098   1.962 -0.0058 -0.3306  0.2099
    1SOL     OW 3981   0.444   0.352   1.873  0.1689 -0.0946  0.0658
    1SOL    HW2 3982   0.519   0.405   1.901  0.2026 -0.3296  0.4189
    1SOL    HW3 3983   0.452   0.347   1.778 -1.5494  3.1890 -0.3270
    1SOL    MW4 3984   0.455   0.359   1.864 -0.0534  0.3076  0.0607
    1SOL     OW 3985   0.681   0.482   1.973  0.7134  0.0829 -0.2297
    1SOL    HW2 3986   0.670   0.485   2.068  0.7697  0.5602 -0.2389
    1SOL    HW3 3987   0.754   0.420   1.960 -0.2428 -1.1003 -0.0425
    1SOL    MW4 3988   0.689   0.474   1.984  0.5947 -0.0103 -0.2062
    1SOL     OW 3989   0.651   0.734   1.869 -0.5138  0.6330 -0.3229
    1SOL    HW2 3990   0.730   0.783   1.890 -1.0186  0.8474  1.0881
    1SOL    HW3 3991   0.667   0.646   1.904  0.1023 -0.0536 -2.2316
    1SOL    MW4 3992   0.663   0.729   1.876 -0.4992  0.5707 -0.3885
    1SOL     OW 3993   0.445   0.884   1.949  0.3319  0.1318  0.1711
    1SOL    HW2 3994   0.452   0.878   2.044  1.0074 -0.8142  0.0659
    1SOL    HW3 3995   0.518   0.831   1.916 -0.4434 -0.2974 -0.8831
    1SOL    MW4 3996   0.456   0.876   1.957  0.3187 -0.0497  0.0181
    1SOL     OW 3997   0.437   1.141   1.833  0.2066  0.3796  0.5692
    1SOL    HW2 3998   0.370   1.179   1.890 -0.9473  0.4585 -0.8206
    1SOL    HW3 3999   0.452   1.054   1.869 -0.9502  0.2041  0.6426
    1SOL    MW4 4000   0.430   1.135   1.845 -0.0982  0.3670  0.3957
    1SOL     OW 4001   0.658   1.271   1.935  0.0227 -0.0667 -0.3399
    1SOL    HW2 4002   0.664   1.264   2.030  1.1499 -0.7240 -0.4513
    1SOL    HW3 4003   0.590   1.208   1.911 -0.2056  0.0409  0.0276
    1SOL    MW4 4004   0.650   1.261   1.944  0.1413 -0.1392 -0.3060
    1SOL     OW 4005   0.619   1.528   1.833  0.1352  0.0560  0.2198
    1SOL    HW2 4006   0.615   1.437   1.861 -1.0504  0.3842  1.1471
    1SOL    HW3 4007   0.625   1.524   1.737  0.4048 -0.9944  0.2811
    1SOL    MW4 4008   0.619   1.516   1.824  0.0144 -0.0392  0.3502
    1SOL     OW 4009   0.430   1.684   1.953 -0.0845 -0.4004  0.1297
    1SOL    HW2 4010   0.452   1.661   2.044 -0.6030 -0.7799  0.1571
    1SOL    HW3 4011   0.500   1.646   1.901  1.1771  1.3153  0.5202
    1SOL    MW4 4012   0.442   1.676   1.958  0.0135 -0.2241  0.1849
    1SOL     OW 4013   0.430   1.954   1.864 -0.4829  0.4539  0.2020
    1SOL    HW2 4014   0.429   1.869   1.907  0.1297  0.5049  0.3231
    1SOL    HW3 4015   0.352   1.999   1.896 -1.8985 -0.8273 -1.3981
    1SOL    MW4 4016   0.420   1.949   1.874 -0.5888  0.2916  0.0068
    1SOL     OW 4017   0.667   2.121   1.928 -0.6256 -0.6236  0.2064
    1SOL    HW2 4018   0.663   2.101   2.021  0.4756 -2.4375 -0.1247
    1SOL    HW3 4019   0.584   2.090   1.893 -1.2201  0.4417  0.6269
    1SOL    MW4 4020   0.655   2.115   1.935 -0.5587 -0.7224  0.2183
    1SOL     OW 4021   0.675   2.384   1.819 -0.3823  0.3267 -0.3884
    1SOL    HW2 4022   0.676   2.293   1.847  1.4282  0.4168 -0.1059
    1SOL    HW3 4023   0.674   2.380   1.723 -0.1844 -0.0032 -0.3761
    1SOL    MW4 4024   0.675   2.372   1.810 -0.1173  0.2949 -0.3496
    1SOL     OW 4025   0.451   2.428   1.957  0.3533 -0.2481  0.0630
    1SOL    HW2 4026   0.463   2.411   2.051  0.7106  0.8181  0.2148
    1SOL    HW3 4027   0.537   2.410   1.919 -0.2452 -2.4152 -0.3382
    1SOL    MW4 4028   0.464   2.423   1.965  0.3215 -0.3932  0.0302
    1SOL     OW 4029   0.425   2.699   1.873  0.1387 -0.0895 -0.2497
    1SOL    HW2 4030   0.436   2.611   1.909 -0.7515 -0.3899 -0.7151
    1SOL    HW3 4031   0.347   2.734   1.915  0.8735  0.7582  0.4583
    1SOL    MW4 4032   0.416   2.692   1.884  0.1182 -0.0172 -0.2177
    1SOL     OW 4033   0.662   2.841   1.973 -0.1867  0.3990 -0.3821
    1SOL    HW2 4034   0.645   2.834   2.067  1.7668 -0.7174 -0.0788
    1SOL    HW3 4035   0.590   2.794   1.932 -1.2827  1.2663  0.5313
    1SOL    MW4 4036   0.651   2.834   1.980 -0.0736  0.3662 -0.2216
    1SOL     OW 4037   0.699   3.107   1.901 -0.5068 -0.2075  0.2369
    1SOL    HW2 4038   0.675   3.018   1.926  1.1755 -0.7611 -0.0366
    1SOL    HW3 4039   0.682   3.111   1.807  0.7249 -0.7093 -0.0230
    1SOL    MW4 4040   0.694   3.096   1.892 -0.1222 -0.3464  0.1665
    1SOL     OW 4041   0.458   3.228   1.965  0.1895 -0.1256 -0.1547
    1SOL    HW2 4042   0.437   3.316   1.932 -1.0560 -0.5953 -0.6776
    1SOL    HW3 4043   0.547   3.212   1.936  0.5631  1.1115  0.2614
    1SOL    MW4 4044   0.467   3.238   1.957  0.0744 -0.0241 -0.1688
    1SOL     OW 4045   0.442   3.492   1.842 -0.4487  0.2406  0.3821
    1SOL    HW2 4046   0.524   3.535   1.865  0.5291 -2.0893  1.3380
    1SOL    HW3 4047   0.444   3.487   1.746  0.5139  0.1802  0.4025
    1SOL    MW4 4048   0.453   3.497   1.832 -0.1927 -0.0749  0.5109
    1SOL     OW 4049   0.675   3.624   1.957  0.4412 -0.1289  0.1530
    1SOL    HW2 4050   0.747   3.569   1.925 -0.4028 -0.7874 -0.6575
    1SOL    HW3 4051   0.686   3.707   1.909  0.8210 -0.1270  0.2386
    1SOL    MW4 4052   0.686   3.628   1.946  0.3799 -0.2155  0.0573
    1SOL     OW 4053   0.665   3.893   1.815  0.3206  0.4348 -0.0672
    1SOL    HW2 4054   0.747   3.923   1.853  1.0254  0.5223 -1.6074
    1SOL    HW3 4055   0.675   3.909   1.721 -1.3424  0.1817 -0.3027
    1SOL    MW4 4056   0.677   3.899   1.808  0.1942  0.4129 -0.3014
    1SOL     OW 4057   0.453   3.976   1.978 -0.2553  0.1298 -0.4504
    1SOL    HW2 4058   0.443   4.067   1.950  1.8922  0.9898  1.3762
    1SOL    HW3 4059   0.528   3.943   1.927 -0.7392 -0.4671 -0.7788
    1SOL    MW4 4060   0.462   3.984   1.967 -0.0358  0.1643 -0.2528
    1SOL     OW 4061   0.446   4.240   1.883 -0.1213  0.2515  0.3409
    1SOL    HW2 4062   0.371   4.295   1.907 -0.3509 -0.6336  1.7269
    1SOL    HW3 4063   0.448   4.241   1.788 -1.5344  0.7688  0.3088
    1SOL    MW4 4064   0.437   4.248   1.874 -0.3380  0.2027  0.5195
    1SOL     OW 4065   0.673   4.367   1.989  0.3211 -0.2832 -0.1128
    1SOL    HW2 4066   0.746   4.315   1.954 -0.4167 -0.3368 -1.6190
    1SOL    HW3 4067   0.595   4.315   1.968 -0.2178  0.2042  0.6736
    1SOL    MW4 4068   0.672   4.353   1.981  0.1526 -0.2260 -0.2078
    1SOL     OW 4069   1.114   4.609   1.922 -0.1915  0.0861  0.4877
    1SOL    HW2 4070   1.190   4.663   1.943 -0.3744  0.3644  0.4444
    1SOL    HW3 4071   1.134   4.523   1.958 -0.1690  0.3538  1.1294
    1SOL    MW4 4072   1.126   4.605   1.930 -0.2128  0.1583  0.5667
    1SOL     OW 4073   0.902   0.118   2.007 -0.0712  0.4983  0.4677
    1SOL    HW2 4074   0.989   0.090   1.977 -0.3051  0.4824 -0.2163
    1SOL    HW3 4075   0.842   0.053   1.970 -0.3546  0.3930  1.1132
    1SOL    MW4 4076   0.906   0.106   1.998 -0.1395  0.4823  0.4627
    1SOL     OW 4077   0.894   0.345   1.889 -0.2956  0.0343  0.1654
    1SOL    HW2 4078   0.970   0.396   1.918 -0.4416 -1.1653  2.7987
    1SOL    HW3 4079   0.900   0.263   1.937 -3.5230  0.1200  0.8717
    1SOL    MW4 4080   0.905   0.341   1.899 -0.7407 -0.1127  0.6059
    1SOL     OW 4081   1.122   0.455   1.991 -0.3141 -0.2538  0.3121
    1SOL    HW2 4082   1.204   0.432   1.947 -0.0693  0.3255  0.4509
    1SOL    HW3 4083   1.107   0.547   1.968 -1.6591 -0.7520 -0.8286
    1SOL    MW4 4084   1.131   0.464   1.982 -0.4593 -0.2431  0.1800
    1SOL     OW 4085   1.100   0.728   1.898 -0.5935 -0.1382  0.0100
    1SOL    HW2 4086   1.176   0.782   1.920 -0.8273 -0.3208  1.3637
    1SOL    HW3 4087   1.024   0.779   1.927 -1.0887  0.5628 -2.4048
    1SOL    MW4 4088   1.100   0.741   1.905 -0.6897 -0.0698 -0.1298
    1SOL     OW 4089   0.873   0.880   1.939 -0.0721 -0.2079  0.2371
    1SOL    HW2 4090   0.884   0.888   2.034 -0.5719 -0.5848  0.3280
    1SOL    HW3 4091   0.873   0.971   1.908 -0.3138 -0.0627  0.6466
    1SOL    MW4 4092   0.875   0.893   1.947 -0.1699 -0.2384  0.3029
    1SOL     OW 4093   0.905   1.154   1.871  0.1862 -0.3870 -0.2017
    1SOL    HW2 4094   0.831   1.211   1.893  1.3115  0.5686  1.1652
    1SOL    HW3 4095   0.910   1.159   1.775 -0.3107  1.1005 -0.1719
    1SOL    MW4 4096   0.896   1.162   1.861  0.2692 -0.0647 -0.0174
    1SOL     OW 4097   1.157   1.261   1.939  0.3433  0.4962 -0.3240
    1SOL    HW2 4098   1.143   1.351   1.910  0.2646  0.6887  0.3130
    1SOL    HW3 4099   1.076   1.215   1.914  0.5623  0.4953 -1.0499
    1SOL    MW4 4100   1.144   1.267   1.932  0.3618  0.5214 -0.3358
    1SOL     OW 4101   1.090   1.517   1.854 -0.1946  0.3116  0.4019
    1SOL    HW2 4102   1.015   1.574   1.869 -0.9636 -0.8671  1.1795
    1SOL    HW3 4103   1.105   1.521   1.760 -0.6898  1.2409  0.3610
    1SOL    MW4 4104   1.082   1.525   1.843 -0.3614  0.2788  0.4991
    1SOL     OW 4105   0.857   1.667   1.929 -0.0976  0.6652  0.5110
    1SOL    HW2 4106   0.871   1.758   1.903  0.4207  0.6314  0.6658
    1SOL    HW3 4107   0.787   1.636   1.871  0.4964  0.8352 -0.3050
    1SOL    MW4 4108   0.849   1.675   1.918  0.0492  0.6832  0.4238
    1SOL     OW 4109   0.875   1.939   1.837  0.5167 -0.0110 -0.4971
    1SOL    HW2 4110   0.800   1.992   1.862  1.4462  1.4045 -0.6532
    1SOL    HW3 4111   0.871   1.935   1.741  0.3748 -0.3330 -0.4781
    1SOL    MW4 4112   0.865   1.945   1.828  0.6206  0.1333 -0.5152
    1SOL     OW 4113   1.082   2.059   1.958 -0.1972  0.3535  0.0025
    1SOL    HW2 4114   1.056   2.150   1.939 -1.1866  0.2001  0.6038
    1SOL    HW3 4115   1.012   2.006   1.919 -0.2943 -0.1066  0.8084
    1SOL    MW4 4116   1.069   2.064   1.950 -0.3405  0.2725  0.1882
    1SOL     OW 4117   1.091   2.332   1.871 -0.2074 -0.1057  1.1667
    1SOL    HW2 4118   1.176   2.374   1.883 -0.8039  1.6183 -0.3610
    1SOL    HW3 4119   1.094   2.297   1.781 -1.4965  0.9403  0.7071
    1SOL    MW4 4120   1.103   2.333   1.860 -0.4562  0.2599  0.9044
    1SOL     OW 4121   0.875   2.483   1.975 -0.0995  0.1276 -0.3448
    1SOL    HW2 4122   0.947   2.431   1.939 -0.0093  0.0129  0.0040
    1SOL    HW3 4123   0.796   2.448   1.933  0.2392  1.6106 -2.3123
    1SOL    MW4 4124   0.874   2.472   1.965 -0.0429  0.3083 -0.5584
    1SOL     OW 4125   0.883   2.720   1.847 -0.0019  0.2842 -0.0186
    1SOL    HW2 4126   0.873   2.633   1.886 -1.2581  0.6393  0.4790
    1SOL    HW3 4127   0.812   2.771   1.885 -0.4691  0.9901 -1.8212
    1SOL    MW4 4128   0.872   2.715   1.857 -0.2292  0.4239 -0.1907
    1SOL     OW 4129   1.115   2.834   1.938 -0.3230  0.0366 -0.2509
    1SOL    HW2 4130   1.104   2.846   2.032  0.0628 -0.8347 -0.0923
    1SOL    HW3 4131   1.033   2.793   1.909  0.3920 -1.6260  0.0579
    1SOL    MW4 4132   1.102   2.831   1.946 -0.1777 -0.2978 -0.1892
    1SOL     OW 4133   1.117   3.097   1.836 -0.4961 -0.5534 -0.2744
    1SOL    HW2 4134   1.074   3.146   1.905  0.6007  0.0010  0.0344
    1SOL    HW3 4135   1.126   3.009   1.871  2.9250  0.4667  1.6291
    1SOL    MW4 4136   1.113   3.092   1.850  0.1001 -0.3457  0.0174
    1SOL     OW 4137   0.944   3.240   2.006  0.3330  0.0974 -0.0057
    1SOL    HW2 4138   0.943   3.241   2.102  2.0767  0.1484  0.0240
    1SOL    HW3 4139   0.862   3.196   1.982 -1.1125  1.9121  1.4471
    1SOL    MW4 4140   0.933   3.234   2.015  0.3724  0.3433  0.1900
    1SOL     OW 4141   0.910   3.476   1.880 -0.2654  0.0355 -0.4311
    1SOL    HW2 4142   0.934   3.391   1.916 -1.0562 -0.3911 -0.9058
    1SOL    HW3 4143   0.908   3.463   1.785  0.3140  0.7703 -0.5515
    1SOL    MW4 4144   0.913   3.463   1.872 -0.2933  0.0763 -0.5095
    1SOL     OW 4145   1.133   3.603   1.978 -0.0390  0.5752  0.0947
    1SOL    HW2 4146   1.125   3.601   2.074  0.3522 -0.7026  0.1135
    1SOL    HW3 4147   1.050   3.568   1.946 -0.0991  0.8308 -0.0295
    1SOL    MW4 4148   1.121   3.598   1.987  0.0045  0.4404  0.0809
    1SOL     OW 4149   1.141   3.864   1.869 -0.4183  0.2956  0.6666
    1SOL    HW2 4150   1.138   3.773   1.898  2.4999 -0.2153 -0.4517
    1SOL    HW3 4151   1.130   3.859   1.774 -0.4309  1.1434  0.6211
    1SOL    MW4 4152   1.139   3.851   1.860 -0.0349  0.3400  0.5131
    1SOL     OW 4153   0.885   3.996   1.962  0.2398  0.4801  0.6287
    1SOL    HW2 4154   0.871   3.983   2.055 -0.3429  0.0617  0.4875
    1SOL    HW3 4155   0.960   3.940   1.941 -1.0859 -1.2598  0.3999
    1SOL    MW4 4156   0.893   3.987   1.971 -0.0119  0.1955  0.5798
    1SOL     OW 4157   0.900   4.262   1.887  0.0302 -0.4722  0.1242
    1SOL    HW2 4158   0.976   4.302   1.927 -0.7813  0.3700  0.8518
    1SOL    HW3 4159   0.900   4.172   1.918 -0.5696  0.1596  2.0042
    1SOL    MW4 4160   0.910   4.256   1.896 -0.1560 -0.2775  0.4681
    1SOL     OW 4161   1.131   4.347   2.015 -0.0323  0.0270 -0.0856
    1SOL    HW2 4162   1.149   4.361   2.108 -0.9771 -1.0904  0.2786
    1SOL    HW3 4163   1.204   4.292   1.985  0.3557  0.5173 -0.0470
    1SOL    MW4 4164   1.143   4.341   2.023 -0.1057 -0.0553 -0.0324
    1SOL     OW 4165   1.583   4.624   1.842 -0.3770  0.2433 -0.0047
    1SOL    HW2 4166   1.659   4.662   1.887 -1.1529  0.0699  1.4879
    1SOL    HW3 4167   1.576   4.536   1.879 -2.3651  0.8764  1.2188
    1SOL    MW4 4168   1.592   4.618   1.853 -0.7416  0.3042  0.3537
    1SOL     OW 4169   1.367   0.078   1.937 -0.0734  0.0654  0.2738
    1SOL    HW2 4170   1.383   0.085   2.031  0.3494  0.9607  0.1411
    1SOL    HW3 4171   1.446   0.038   1.902  0.0236  0.3072  0.2164
    1SOL    MW4 4172   1.379   0.074   1.944 -0.0049  0.2154  0.2489
    1SOL     OW 4173   1.332   0.342   1.871 -0.2776  0.2134  0.4073
    1SOL    HW2 4174   1.344   0.256   1.911  2.7709 -0.2175 -1.2900
    1SOL    HW3 4175   1.305   0.323   1.781 -1.5379  1.0854  0.5897
    1SOL    MW4 4176   1.330   0.328   1.864 -0.0416  0.2716  0.2074
    1SOL     OW 4177   1.575   0.491   1.969 -0.4487  0.6890  0.0794
    1SOL    HW2 4178   1.659   0.454   1.940 -0.3885  0.3828  0.6373
    1SOL    HW3 4179   1.509   0.434   1.930 -0.3795  0.5371  0.1841
    1SOL    MW4 4180   1.578   0.479   1.960 -0.4317  0.6286  0.1669
    1SOL     OW 4181   1.549   0.745   1.863 -0.1196 -0.7212  0.1368
    1SOL    HW2 4182   1.628   0.780   1.903 -0.1722  0.5909 -0.8756
    1SOL    HW3 4183   1.540   0.657   1.900  1.9703 -1.0048  0.0008
    1SOL    MW4 4184   1.558   0.738   1.873  0.1491 -0.5856 -0.0149
    1SOL     OW 4185   1.345   0.880   1.963 -0.0516  0.6110  0.0230
    1SOL    HW2 4186   1.357   0.889   2.058  1.1028  4.1286 -0.3561
    1SOL    HW3 4187   1.418   0.824   1.935 -1.0192 -1.3409  1.3111
    1SOL    MW4 4188   1.356   0.874   1.972 -0.0269  0.8177  0.1429
    1SOL     OW 4189   1.358   1.125   1.830 -1.0077  0.2381 -0.6465
    1SOL    HW2 4190   1.360   1.037   1.868 -0.3438  0.5028 -0.0479
    1SOL    HW3 4191   1.285   1.169   1.874  0.2079  0.7777  0.8864
    1SOL    MW4 4192   1.349   1.119   1.841 -0.7597  0.3442 -0.3654
    1SOL     OW 4193   1.570   1.260   1.965  0.0404  0.0824  0.2649
    1SOL    HW2 4194   1.560   1.351   1.935  0.6400  0.1487  0.2554
    1SOL    HW3 4195   1.495   1.214   1.927 -0.0390  0.4875 -0.0777
    1SOL    MW4 4196   1.559   1.266   1.956  0.1092  0.1445  0.2185
    1SOL     OW 4197   1.536   1.528   1.860 -0.4065  0.1723  0.3433
    1SOL    HW2 4198   1.604   1.593   1.878 -0.4374  0.4535 -0.5378
    1SOL    HW3 4199   1.454   1.577   1.865 -0.3822  0.4030 -1.1517
    1SOL    MW4 4200   1.535   1.543   1.863 -0.4075  0.2397  0.0299
    1SOL     OW 4201   1.312   1.679   1.939 -0.3276  0.3441  0.4032
    1SOL    HW2 4202   1.321   1.666   2.033  0.3090  0.3922  0.3516
    1SOL    HW3 4203   1.235   1.628   1.915 -0.4639  0.2943  0.9435
    1SOL    MW4 4204   1.303   1.671   1.948 -0.2615  0.3440  0.4677
    1SOL     OW 4205   1.306   1.953   1.851 -0.2579 -0.4155 -0.2322
    1SOL    HW2 4206   1.305   1.862   1.882  0.8786  0.2153  1.6881
    1SOL    HW3 4207   1.229   1.993   1.891  1.1250  0.3594  1.6863
    1SOL    MW4 4208   1.295   1.946   1.860  0.0746 -0.2301  0.2742
    1SOL     OW 4209   1.541   2.081   1.953  0.0250  0.1976 -0.0411
    1SOL    HW2 4210   1.535   2.164   1.905  1.0250  1.1027  1.3622
    1SOL    HW3 4211   1.459   2.036   1.932 -0.0534  1.0657 -1.6814
    1SOL    MW4 4212   1.529   2.086   1.944  0.1465  0.4315 -0.0724
    1SOL     OW 4213   1.547   2.319   1.814  0.0064  0.4391  0.6855
    1SOL    HW2 4214   1.634   2.347   1.841 -0.2526 -0.1615  2.1630
    1SOL    HW3 4215   1.555   2.302   1.720  1.9987 -1.5864  1.1811
    1SOL    MW4 4216   1.560   2.320   1.805  0.2352  0.0925  0.9458
    1SOL     OW 4217   1.337   2.443   1.943  0.6124  0.1392  0.4726
    1SOL    HW2 4218   1.335   2.521   1.887 -0.5100 -1.2270 -1.4708
    1SOL    HW3 4219   1.408   2.389   1.907 -1.0909 -1.4265 -0.6425
    1SOL    MW4 4220   1.346   2.446   1.931  0.2396 -0.2477  0.0690
    1SOL     OW 4221   1.310   2.682   1.822  0.4144 -0.2038 -0.7063
    1SOL    HW2 4222   1.241   2.742   1.848  0.1219 -0.6910 -0.3589
    1SOL    HW3 4223   1.311   2.686   1.727  0.0560 -0.0333 -0.7024
    1SOL    MW4 4224   1.301   2.690   1.813  0.3284 -0.2453 -0.6599
    1SOL     OW 4225   1.553   2.809   1.939  0.3902 -0.0897 -0.1993
    1SOL    HW2 4226   1.624   2.751   1.912 -1.0883 -0.8372 -2.6583
    1SOL    HW3 4227   1.473   2.765   1.909 -1.1897  0.4904  2.9324
    1SOL    MW4 4228   1.552   2.795   1.931 -0.0131 -0.1118 -0.1104
    1SOL     OW 4229   1.624   3.089   1.856 -0.0526 -0.0719  0.4262
    1SOL    HW2 4230   1.604   3.007   1.902 -1.9783  0.0207 -0.1807
    1SOL    HW3 4231   1.604   3.070   1.764  2.0101  0.2944 -0.1090
    1SOL    MW4 4232   1.618   3.076   1.850 -0.0346 -0.0112  0.2754
    1SOL     OW 4233   1.363   3.200   1.966  0.0119 -0.0518 -0.1742
    1SOL    HW2 4234   1.439   3.163   1.920  0.2850 -0.1926  0.3878
    1SOL    HW3 4235   1.288   3.161   1.922  0.2869 -0.7808 -0.0093
    1SOL    MW4 4236   1.363   3.190   1.954  0.0842 -0.1667 -0.0783
    1SOL     OW 4237   1.375   3.486   1.908  0.3677  0.0957  0.3306
    1SOL    HW2 4238   1.361   3.400   1.947  0.5445 -0.4466 -0.7930
    1SOL    HW3 4239   1.302   3.539   1.942  1.7018  0.2542  3.1106
    1SOL    MW4 4240   1.363   3.482   1.918  0.5670  0.0446  0.5492
    1SOL     OW 4241   1.582   3.649   2.002  0.0139 -0.4903  0.3038
    1SOL    HW2 4242   1.575   3.648   2.098  0.9562 -0.6576  0.3766
    1SOL    HW3 4243   1.512   3.590   1.973 -0.4225 -0.2679  0.8750
    1SOL    MW4 4244   1.572   3.641   2.011  0.0805 -0.4830  0.3889
    1SOL     OW 4245   1.635   3.874   1.866 -0.7528  0.4642  0.5267
    1SOL    HW2 4246   1.713   3.904   1.913  0.0818  1.1151 -1.2402
    1SOL    HW3 4247   1.594   3.811   1.925  1.6332 -0.6097  1.0655
    1SOL    MW4 4248   1.640   3.870   1.880 -0.3279  0.4082  0.3645
    1SOL     OW 4249   1.389   3.967   1.973 -0.0655 -0.2672  0.2584
    1SOL    HW2 4250   1.461   3.915   1.936  1.2143  0.7500  1.3107
    1SOL    HW3 4251   1.310   3.928   1.935  1.1071 -0.5010 -2.0226
    1SOL    MW4 4252   1.388   3.955   1.963  0.2580 -0.1638  0.0962
    1SOL     OW 4253   1.335   4.216   1.888 -0.1221  0.4835  0.1505
    1SOL    HW2 4254   1.351   4.125   1.913  0.6330  0.5147 -0.2083
    1SOL    HW3 4255   1.314   4.212   1.794 -0.6572  0.6151  0.2653
    1SOL    MW4 4256   1.335   4.204   1.879 -0.0930  0.5050  0.1184
    1SOL     OW 4257   1.575   4.373   1.947  0.3134  0.0443 -0.3014
    1SOL    HW2 4258   1.572   4.404   2.037 -0.9982 -0.0275 -0.3153
    1SOL    HW3 4259   1.497   4.318   1.937  0.3808  0.1424 -1.5024
    1SOL    MW4 4260   1.564   4.370   1.957  0.1491  0.0477 -0.4616
    1SOL     OW 4261   2.014   4.634   1.871  0.3013  0.1506 -0.1142
    1SOL    HW2 4262   2.095   4.658   1.915  1.5042 -0.0647 -2.1348
    1SOL    HW3 4263   1.995   4.546   1.903  1.0618  0.0691  0.1355
    1SOL    MW4 4264   2.022   4.626   1.881  0.5603  0.1121 -0.3479
    1SOL     OW 4265   1.787   0.107   1.981 -0.2423  0.1163 -0.0631
    1SOL    HW2 4266   1.781   0.112   2.076 -0.2776 -0.2431 -0.0457
    1SOL    HW3 4267   1.865   0.054   1.964  0.0740  0.6354 -0.2409
    1SOL    MW4 4268   1.796   0.101   1.991 -0.2052  0.1373 -0.0843
    1SOL     OW 4269   1.795   0.358   1.889  0.4831  0.3593 -0.0659
    1SOL    HW2 4270   1.782   0.268   1.918 -0.9831  1.1042  1.7114
    1SOL    HW3 4271   1.800   0.353   1.794 -0.9773 -1.4430 -0.0544
    1SOL    MW4 4272   1.794   0.346   1.881  0.0972  0.2198  0.1700
    1SOL     OW 4273   2.032   0.484   1.957  0.1539  0.0472 -0.4092
    1SOL    HW2 4274   2.029   0.570   1.916 -1.9042 -0.5750 -1.6196
    1SOL    HW3 4275   1.948   0.443   1.934  0.7626 -1.9593  0.8247
    1SOL    MW4 4276   2.021   0.490   1.948 -0.0374 -0.2996 -0.4061
    1SOL     OW 4277   2.006   0.745   1.855  0.1351 -0.0212 -0.5693
    1SOL    HW2 4278   2.080   0.801   1.881  1.2274 -1.6139 -0.1307
    1SOL    HW3 4279   1.929   0.791   1.888  0.9170  1.7217 -1.1054
    1SOL    MW4 4280   2.006   0.758   1.863  0.3822 -0.0015 -0.5821
    1SOL     OW 4281   1.786   0.879   1.952  0.1895  0.0910 -0.2623
    1SOL    HW2 4282   1.794   0.970   1.924 -0.5166  0.3890  0.5107
    1SOL    HW3 4283   1.778   0.883   2.047 -0.4059 -0.7421 -0.2724
    1SOL    MW4 4284   1.786   0.891   1.960  0.0179  0.0204 -0.1616
    1SOL     OW 4285   1.820   1.147   1.887  0.4429 -0.1578  0.3979
    1SOL    HW2 4286   1.736   1.187   1.910  0.3219 -1.2310  1.9118
    1SOL    HW3 4287   1.886   1.209   1.918  0.2220  0.5153 -0.4646
    1SOL    MW4 4288   1.818   1.161   1.894  0.3978 -0.2106  0.4838
    1SOL     OW 4289   2.017   1.339   1.958 -0.1584  0.0027  0.3082
    1SOL    HW2 4290   2.082   1.281   1.921 -1.7348 -0.9145 -1.0984
    1SOL    HW3 4291   2.010   1.313   2.050  0.8999 -0.3786  0.2804
    1SOL    MW4 4292   2.024   1.328   1.966 -0.2270 -0.1687  0.1189
    1SOL     OW 4293   1.983   1.588   1.810  0.0899 -0.2966  0.0441
    1SOL    HW2 4294   2.004   1.504   1.852 -1.1058 -0.4117  0.4104
    1SOL    HW3 4295   1.960   1.565   1.720 -1.3550 -0.4913  0.4555
    1SOL    MW4 4296   1.983   1.574   1.804 -0.2586 -0.3374  0.1466
    1SOL     OW 4297   1.753   1.697   1.922  0.1926  0.2380 -0.3545
    1SOL    HW2 4298   1.746   1.792   1.911  0.4956  0.4267  0.9015
    1SOL    HW3 4299   1.844   1.677   1.899  0.8017  0.6157  1.6108
    1SOL    MW4 4300   1.764   1.707   1.918  0.3129  0.3127  0.0705
    1SOL     OW 4301   1.807   1.983   1.896  0.3372  0.1342 -0.5986
    1SOL    HW2 4302   1.726   2.029   1.920 -0.5557 -1.3288 -0.7632
    1SOL    HW3 4303   1.801   1.973   1.801  0.5859 -0.2215 -0.5781
    1SOL    MW4 4304   1.795   1.988   1.887  0.2522 -0.1056 -0.6176
    1SOL     OW 4305   2.060   2.085   1.968  0.2198  0.5838 -0.4240
    1SOL    HW2 4306   2.117   2.024   1.920  0.2418 -1.0565  1.6438
    1SOL    HW3 4307   1.973   2.045   1.962  0.1621  0.5627  0.5843
    1SOL    MW4 4308   2.056   2.071   1.961  0.2151  0.3645 -0.0182
    1SOL     OW 4309   2.053   2.334   1.848 -0.0160 -0.0821  0.2539
    1SOL    HW2 4310   2.115   2.378   1.906  0.4971 -0.8988  0.3295
    1SOL    HW3 4311   2.058   2.242   1.874 -0.5860 -0.2878 -0.3619
    1SOL    MW4 4312   2.062   2.328   1.859 -0.0236 -0.2170  0.1825
    1SOL     OW 4313   1.794   2.391   1.924 -0.4148 -0.3633 -0.0450
    1SOL    HW2 4314   1.802   2.372   2.018  0.4290  0.8385  0.1361
    1SOL    HW3 4315   1.884   2.387   1.891 -0.3722  1.7798 -0.2838
    1SOL    MW4 4316   1.807   2.388   1.932 -0.2978  0.0780 -0.0526
    1SOL     OW 4317   1.810   2.693   1.870  0.3135 -0.4606 -0.0914
    1SOL    HW2 4318   1.788   2.602   1.894 -1.3695  0.0079  0.2327
    1SOL    HW3 4319   1.799   2.696   1.775 -0.5656 -0.3573  0.0115
    1SOL    MW4 4320   1.806   2.681   1.861 -0.0246 -0.3853 -0.0350
    1SOL     OW 4321   2.021   2.844   1.964  0.7066 -0.1602  0.6410
    1SOL    HW2 4322   2.002   2.866   2.055  0.1060  1.0600  0.2340
    1SOL    HW3 4323   1.941   2.802   1.931  0.6778  0.0106  0.4897
    1SOL    MW4 4324   2.008   2.842   1.971  0.6237  0.0231  0.5673
    1SOL     OW 4325   2.018   3.120   1.863  0.1662  0.2044  0.0212
    1SOL    HW2 4326   1.939   3.158   1.901  1.5093  0.9529  2.1769
    1SOL    HW3 4327   2.011   3.026   1.880 -0.6053  0.1569 -0.5113
    1SOL    MW4 4328   2.007   3.113   1.870  0.2418  0.2968  0.2353
    1SOL     OW 4329   1.798   3.264   1.947  0.0112  0.3754 -0.6562
    1SOL    HW2 4330   1.794   3.270   2.043 -0.5006  1.3241 -0.7412
    1SOL    HW3 4331   1.731   3.199   1.925 -0.5668  0.8986 -0.4503
    1SOL    MW4 4332   1.789   3.256   1.957 -0.1327  0.5693 -0.6403
    1SOL     OW 4333   1.790   3.512   1.857 -0.2483 -0.2891  0.4610
    1SOL    HW2 4334   1.796   3.420   1.882 -1.8674 -0.6227 -0.2429
    1SOL    HW3 4335   1.725   3.549   1.917  0.3307  0.3724  0.6819
    1SOL    MW4 4336   1.782   3.504   1.868 -0.3854 -0.2456  0.3973
    1SOL     OW 4337   2.027   3.608   1.964 -0.1955 -0.0791  0.5806
    1SOL    HW2 4338   2.024   3.703   1.956  0.1764 -0.2120 -1.4872
    1SOL    HW3 4339   1.940   3.578   1.936 -1.0149 -0.2675  3.1647
    1SOL    MW4 4340   2.015   3.616   1.959 -0.2544 -0.1214  0.6486
    1SOL     OW 4341   2.045   3.858   1.880 -0.3526 -0.1145  0.0361
    1SOL    HW2 4342   2.126   3.907   1.892 -1.0600  1.3971 -1.2308
    1SOL    HW3 4343   2.041   3.839   1.786  0.0395 -2.8646  0.5316
    1SOL    MW4 4344   2.055   3.862   1.869 -0.3941 -0.2780 -0.0657
    1SOL     OW 4345   1.850   4.012   1.989 -0.0197 -0.3654 -0.0720
    1SOL    HW2 4346   1.842   4.087   1.930 -1.0572 -0.5241 -0.1424
    1SOL    HW3 4347   1.919   3.959   1.951  0.3975  0.3235 -0.2794
    1SOL    MW4 4348   1.858   4.015   1.976 -0.1017 -0.2956 -0.1088
    1SOL     OW 4349   1.787   4.228   1.828  0.3729  0.3712  0.0371
    1SOL    HW2 4350   1.707   4.268   1.861  0.2469  0.3862 -0.2848
    1SOL    HW3 4351   1.779   4.233   1.733  0.8524  0.5611  0.0086
    1SOL    MW4 4352   1.775   4.234   1.820  0.4195  0.3986 -0.0091
    1SOL     OW 4353   1.980   4.374   1.958 -0.2831  0.1897 -0.1764
    1SOL    HW2 4354   2.050   4.324   1.915 -0.9058 -0.6020 -0.2821
    1SOL    HW3 4355   1.900   4.341   1.918 -0.7535  0.6906  0.3582
    1SOL    MW4 4356   1.979   4.363   1.947 -0.4271  0.1512 -0.1198
    1SOL     OW 4357   2.464   0.000   1.848  0.0376  0.2875  0.0379
    1SOL    HW2 4358   2.549   0.037   1.869  0.1044  0.8944 -1.2718
    1SOL    HW3 4359   2.465  -0.087   1.888  1.0033  0.5601  0.6184
    1SOL    MW4 4360   2.475  -0.006   1.856  0.1740  0.4034 -0.0583
    1SOL     OW 4361   2.234   0.066   1.996 -0.0049  0.2227 -0.3823
    1SOL    HW2 4362   2.251   0.057   2.090 -1.4034 -2.0242 -0.3117
    1SOL    HW3 4363   2.315   0.036   1.954  0.4331  0.7299  0.0937
    1SOL    MW4 4364   2.247   0.061   2.003 -0.1316 -0.0068 -0.3099
    1SOL     OW 4365   2.249   0.316   1.889 -0.0216 -0.0805 -0.0113
    1SOL    HW2 4366   2.237   0.233   1.935  1.1471  0.6926  1.7139
    1SOL    HW3 4367   2.171   0.367   1.911 -0.3377 -0.3857 -0.3994
    1SOL    MW4 4368   2.237   0.312   1.898  0.0908 -0.0188  0.1651
    1SOL     OW 4369   2.453   0.521   1.957 -0.0217  0.2702  0.7258
    1SOL    HW2 4370   2.535   0.489   1.919 -0.6290  1.0075 -1.2694
    1SOL    HW3 4371   2.386   0.459   1.926 -0.4298  0.5246  1.0909
    1SOL    MW4 4372   2.455   0.509   1.948 -0.1557  0.4010  0.5108
    1SOL     OW 4373   2.437   0.781   1.836 -0.1010  0.1494  0.3100
    1SOL    HW2 4374   2.442   0.693   1.875 -0.3838  0.3411  0.7843
    1SOL    HW3 4375   2.446   0.766   1.742 -0.6635 -0.4361  0.3451
    1SOL    MW4 4376   2.439   0.767   1.829 -0.2124  0.0974  0.3772
    1SOL     OW 4377   2.219   0.912   1.930 -0.4173  0.0308  0.3865
    1SOL    HW2 4378   2.220   0.916   2.025  1.6875  0.3791  0.3744
    1SOL    HW3 4379   2.296   0.859   1.907 -0.5621  0.4380 -1.1239
    1SOL    MW4 4380   2.229   0.905   1.939 -0.1588  0.1305  0.1857
    1SOL     OW 4381   2.214   1.173   1.857 -0.0688  0.0110 -0.6364
    1SOL    HW2 4382   2.300   1.207   1.883 -1.0041  0.6142  1.7659
    1SOL    HW3 4383   2.218   1.079   1.877  0.0251  0.0350 -0.5441
    1SOL    MW4 4384   2.226   1.165   1.863 -0.1798  0.0936 -0.3072
    1SOL     OW 4385   2.473   1.290   1.912  0.4696 -0.1080 -0.0647
    1SOL    HW2 4386   2.460   1.306   2.006 -0.3687  0.3598 -0.2603
    1SOL    HW3 4387   2.458   1.375   1.871 -1.0311 -0.7122 -0.8126
    1SOL    MW4 4388   2.469   1.304   1.919  0.1609 -0.1260 -0.1891
    1SOL     OW 4389   2.470   1.550   1.816  0.1909 -0.3425 -0.3502
    1SOL    HW2 4390   2.397   1.596   1.859  0.8738  1.7060 -1.3003
    1SOL    HW3 4391   2.448   1.553   1.723  0.4426 -1.6611 -0.4608
    1SOL    MW4 4392   2.457   1.557   1.809  0.3142 -0.2460 -0.4902
    1SOL     OW 4393   2.257   1.681   1.928 -0.1109 -0.2176  0.6398
    1SOL    HW2 4394   2.260   1.675   2.024 -0.1369 -0.3035  0.6349
    1SOL    HW3 4395   2.166   1.662   1.906  0.4340 -2.7570  0.4115
    1SOL    MW4 4396   2.245   1.678   1.938 -0.0424 -0.5640  0.6090
    1SOL     OW 4397   2.251   1.931   1.840 -0.4133  0.1690 -0.3829
    1SOL    HW2 4398   2.328   1.977   1.873 -2.6115  1.9227  2.5217
    1SOL    HW3 4399   2.261   1.842   1.872  0.4904  0.3397 -0.1821
    1SOL    MW4 4400   2.263   1.925   1.848 -0.5839  0.4228  0.0269
    1SOL     OW 4401   2.456   2.036   1.963 -0.1896  0.1106 -0.6319
    1SOL    HW2 4402   2.541   1.999   1.940  0.0820  0.3993 -0.1089
    1SOL    HW3 4403   2.464   2.129   1.943 -0.2891  0.1839 -0.3348
    1SOL    MW4 4404   2.468   2.043   1.958 -0.1669  0.1585 -0.5238
    1SOL     OW 4405   2.473   2.308   1.900 -0.1800  0.2773 -0.3476
    1SOL    HW2 4406   2.552   2.351   1.931  0.6553  0.2505 -2.3720
    1SOL    HW3 4407   2.402   2.351   1.948  1.1021 -0.4005  2.2372
    1SOL    MW4 4408   2.474   2.319   1.910  0.0994  0.1845 -0.2738
    1SOL     OW 4409   2.253   2.455   1.998 -0.4394 -0.2889 -0.5989
    1SOL    HW2 4410   2.240   2.455   2.093 -0.3959 -2.4038 -0.5678
    1SOL    HW3 4411   2.264   2.548   1.975 -0.9025  0.2812  1.3850
    1SOL    MW4 4412   2.253   2.468   2.007 -0.4942 -0.4930 -0.3331
    1SOL     OW 4413   2.243   2.700   1.863 -0.2259 -0.0523 -0.1144
    1SOL    HW2 4414   2.158   2.744   1.875 -1.2064 -1.9743  0.2674
    1SOL    HW3 4415   2.251   2.688   1.769 -0.4589 -0.0148 -0.1392
    1SOL    MW4 4416   2.233   2.704   1.852 -0.3860 -0.3009 -0.0674
    1SOL     OW 4417   2.448   2.874   1.964  0.3449 -0.5071 -0.4108
    1SOL    HW2 4418   2.467   2.957   1.920  1.8096 -0.8422 -0.4434
    1SOL    HW3 4419   2.376   2.835   1.913  0.9628 -0.1605 -1.5663
    1SOL    MW4 4420   2.441   2.880   1.951  0.6196 -0.5057 -0.5674
    1SOL     OW 4421   2.486   3.112   1.846 -0.2075 -0.0464 -0.1388
    1SOL    HW2 4422   2.411   3.164   1.875  0.1205  0.2473  0.1802
    1SOL    HW3 4423   2.476   3.105   1.751 -1.7938 -1.7852  0.1173
    1SOL    MW4 4424   2.475   3.118   1.837 -0.3736 -0.2370 -0.0628
    1SOL     OW 4425   2.264   3.249   1.944  0.0690  0.1492  0.1430
    1SOL    HW2 4426   2.275   3.264   2.038  0.9133 -0.7134  0.1855
    1SOL    HW3 4427   2.187   3.192   1.937  0.1471  0.0222  0.3274
    1SOL    MW4 4428   2.255   3.243   1.955  0.1907  0.0186  0.1729
    1SOL     OW 4429   2.255   3.494   1.829  0.3581  0.2922 -0.0016
    1SOL    HW2 4430   2.252   3.402   1.858 -0.3989 -0.1438 -1.4155
    1SOL    HW3 4431   2.182   3.535   1.876  0.8204  0.2202  0.7879
    1SOL    MW4 4432   2.245   3.487   1.839  0.3192  0.2253 -0.0839
    1SOL     OW 4433   2.443   3.621   2.005 -0.0458  0.0189  0.3233
    1SOL    HW2 4434   2.463   3.593   2.095  0.3177  0.0873  0.2643
    1SOL    HW3 4435   2.389   3.551   1.970 -1.0836  0.4908  0.9510
    1SOL    MW4 4436   2.439   3.608   2.012 -0.1347  0.0904  0.3982
    1SOL     OW 4437   2.491   3.882   1.872  0.4049  0.6489  0.4066
    1SOL    HW2 4438   2.417   3.934   1.903 -0.5641  0.0688 -0.8902
    1SOL    HW3 4439   2.480   3.797   1.916 -0.6402  0.0201 -1.0310
    1SOL    MW4 4440   2.480   3.877   1.882  0.1392  0.4895  0.0458
    1SOL     OW 4441   2.262   4.012   1.968  0.2106 -0.0959 -0.4291
    1SOL    HW2 4442   2.256   4.013   2.063  0.3324  0.5156 -0.4267
    1SOL    HW3 4443   2.267   4.104   1.943 -0.1777 -0.2353 -1.0492
    1SOL    MW4 4444   2.262   4.024   1.977  0.1755 -0.0334 -0.5106
    1SOL     OW 4445   2.243   4.273   1.846 -0.3130 -0.4861  0.0653
    1SOL    HW2 4446   2.308   4.329   1.889  0.2285 -1.7515  0.9071
    1SOL    HW3 4447   2.258   4.287   1.752  0.2798  0.2537  0.2641
    1SOL    MW4 4448   2.254   4.282   1.839 -0.1633 -0.5550  0.2028
    1SOL     OW 4449   2.450   4.417   1.954 -0.5338  0.2149  0.1373
    1SOL    HW2 4450   2.469   4.395   2.045  0.3867  2.0513  0.4104
    1SOL    HW3 4451   2.512   4.364   1.903 -0.1458  0.1682  0.6535
    1SOL    MW4 4452   2.461   4.407   1.959 -0.3612  0.4511  0.2415
    1SOL     OW 4453   2.917   4.626   1.826  0.3646  0.2463 -0.2124
    1SOL    HW2 4454   2.988   4.676   1.866 -0.7322  0.0738  2.0889
    1SOL    HW3 4455   2.929   4.537   1.860 -0.2404 -0.0502 -0.7689
    1SOL    MW4 4456   2.928   4.621   1.836  0.1400  0.1841  0.0179
    1SOL     OW 4457   2.704   0.106   1.912  0.0027  0.2925 -0.3776
    1SOL    HW2 4458   2.694   0.091   2.006 -2.2010  0.7269 -0.5219
    1SOL    HW3 4459   2.782   0.055   1.888 -0.8351 -1.8420  1.2221
    1SOL    MW4 4460   2.713   0.097   1.921 -0.3984  0.0682 -0.1856
    1SOL     OW 4461   2.691   0.391   1.865 -0.3412 -0.5505  0.2605
    1SOL    HW2 4462   2.771   0.425   1.906 -0.6015 -0.0109  0.3199
    1SOL    HW3 4463   2.686   0.301   1.896  1.0905 -1.0839 -0.9885
    1SOL    MW4 4464   2.701   0.384   1.875 -0.1869 -0.5497  0.1036
    1SOL     OW 4465   2.927   0.489   1.995 -0.0556 -0.0357  0.5132
    1SOL    HW2 4466   3.008   0.442   1.976 -0.7278 -0.5102 -1.1958
    1SOL    HW3 4467   2.944   0.578   1.965  0.2718  0.1996  1.3525
    1SOL    MW4 4468   2.940   0.495   1.989 -0.1011 -0.0673  0.3984
    1SOL     OW 4469   2.928   0.759   1.921 -0.2371  0.2162 -0.0924
    1SOL    HW2 4470   3.001   0.812   1.952 -0.0356  0.6361 -1.3005
    1SOL    HW3 4471   2.850   0.808   1.947 -0.0470  1.8463 -2.4681
    1SOL    MW4 4472   2.928   0.772   1.929 -0.1855  0.4867 -0.5653
    1SOL     OW 4473   2.689   0.907   1.937 -0.6045 -0.0194  0.3682
    1SOL    HW2 4474   2.680   1.001   1.921 -0.7531 -0.2362 -0.8790
    1SOL    HW3 4475   2.604   0.871   1.916 -0.4683 -0.4785  0.5956
    1SOL    MW4 4476   2.677   0.915   1.932 -0.6063 -0.1085  0.2337
    1SOL     OW 4477   2.716   1.162   1.865 -0.0592  0.5560 -0.0505
    1SOL    HW2 4478   2.640   1.213   1.893  1.0288  2.6144 -0.7173
    1SOL    HW3 4479   2.717   1.172   1.770  0.4035 -0.3879 -0.1439
    1SOL    MW4 4480   2.706   1.170   1.856  0.1457  0.7031 -0.1509
    1SOL     OW 4481   2.960   1.292   1.911 -0.0081  0.0746  0.1685
    1SOL    HW2 4482   2.927   1.380   1.894  0.9769  0.3780 -0.1672
    1SOL    HW3 4483   2.882   1.237   1.906 -0.6135  0.9028  0.2455
    1SOL    MW4 4484   2.945   1.297   1.908  0.0420  0.2240  0.1343
    1SOL     OW 4485   2.901   1.557   1.837  0.1286 -0.1224 -0.3561
    1SOL    HW2 4486   2.987   1.578   1.872 -0.4144  0.5877  0.5642
    1SOL    HW3 4487   2.911   1.566   1.742  0.9065  0.5629 -0.2107
    1SOL    MW4 4488   2.913   1.561   1.829  0.1595  0.0618 -0.2154
    1SOL     OW 4489   2.694   1.685   1.957 -0.4074 -0.3011 -0.2263
    1SOL    HW2 4490   2.771   1.639   1.923 -0.2823 -1.2858  1.3610
    1SOL    HW3 4491   2.622   1.654   1.903 -0.1637 -1.6147  0.1934
    1SOL    MW4 4492   2.695   1.675   1.945 -0.3588 -0.6043  0.0384
    1SOL     OW 4493   2.697   1.930   1.860 -0.2418 -0.2139 -0.6253
    1SOL    HW2 4494   2.772   1.970   1.905 -0.5096  0.3552 -0.6846
    1SOL    HW3 4495   2.692   1.841   1.896 -0.6961  0.3651  0.7684
    1SOL    MW4 4496   2.706   1.924   1.871 -0.3369 -0.0625 -0.4493
    1SOL     OW 4497   2.915   2.038   1.971 -0.3699 -0.2558  0.3409
    1SOL    HW2 4498   2.932   2.041   2.065  0.8087 -0.4054  0.1417
    1SOL    HW3 4499   2.996   2.005   1.933 -0.8363 -0.1942 -0.7326
    1SOL    MW4 4500   2.928   2.034   1.978 -0.2759 -0.2675  0.1729
    1SOL     OW 4501   2.861   2.309   1.862 -0.2155 -0.3512 -0.0975
    1SOL    HW2 4502   2.943   2.349   1.889  0.3022 -1.0779 -0.5738
    1SOL    HW3 4503   2.864   2.221   1.898 -1.9368  0.4399  2.0882
    1SOL    MW4 4504   2.872   2.303   1.870 -0.3738 -0.3424  0.1280
    1SOL     OW 4505   2.677   2.423   2.023  0.2751 -0.0508  0.1738
    1SOL    HW2 4506   2.668   2.514   1.994  1.0314 -0.1312 -0.3278
    1SOL    HW3 4507   2.748   2.388   1.970  0.1010 -0.8888  0.4886
    1SOL    MW4 4508   2.685   2.431   2.012  0.3521 -0.1719  0.1490
    1SOL     OW 4509   2.629   2.678   1.914  0.5579 -0.0112 -0.1807
    1SOL    HW2 4510   2.571   2.752   1.932  0.4839 -0.1839  0.2914
    1SOL    HW3 4511   2.636   2.676   1.818  1.5827  1.4069 -0.1505
    1SOL    MW4 4512   2.622   2.688   1.904  0.6833  0.1528 -0.1143
    1SOL     OW 4513   2.870   2.833   1.934  0.2468  0.2881  0.1917
    1SOL    HW2 4514   2.868   2.925   1.905 -0.3866  0.0768 -0.4586
    1SOL    HW3 4515   2.777   2.809   1.941  0.4153 -0.3467  0.2031
    1SOL    MW4 4516   2.857   2.842   1.931  0.1853  0.1767  0.1074
    1SOL     OW 4517   2.858   3.098   1.870  0.5364  0.3796 -0.0013
    1SOL    HW2 4518   2.936   3.136   1.910  0.0621  0.1968  1.1117
    1SOL    HW3 4519   2.785   3.134   1.920 -0.2106  1.8616 -2.0953
    1SOL    MW4 4520   2.859   3.108   1.881  0.3753  0.5512 -0.1307
    1SOL     OW 4521   2.661   3.229   2.022 -0.3378  0.3830 -0.1306
    1SOL    HW2 4522   2.672   3.310   1.973  0.8440 -0.0776 -0.6599
    1SOL    HW3 4523   2.598   3.178   1.970 -0.5386  0.6649 -0.1668
    1SOL    MW4 4524   2.654   3.233   2.009 -0.2084  0.3598 -0.2053
    1SOL     OW 4525   2.659   3.477   1.885 -0.2506 -0.0872  0.0722
    1SOL    HW2 4526   2.735   3.515   1.928 -1.3143  0.0567  1.8916
    1SOL    HW3 4527   2.584   3.515   1.931 -1.4253 -0.4794 -1.4602
    1SOL    MW4 4528   2.659   3.487   1.897 -0.5460 -0.1202  0.1101
    1SOL     OW 4529   2.872   3.618   1.996 -0.2015  0.2941 -0.0095
    1SOL    HW2 4530   2.893   3.610   2.089 -1.2378 -1.8850  0.0627
    1SOL    HW3 4531   2.945   3.575   1.951  0.1322  1.0535 -0.2170
    1SOL    MW4 4532   2.885   3.612   2.002 -0.2942  0.1066 -0.0277
    1SOL     OW 4533   2.932   3.866   1.898 -0.2238 -0.6148  0.3531
    1SOL    HW2 4534   2.925   3.775   1.926  0.9950 -1.8698 -3.1510
    1SOL    HW3 4535   2.936   3.862   1.803 -0.6038  3.1626  0.0943
    1SOL    MW4 4536   2.932   3.853   1.889 -0.1130 -0.2820 -0.1434
    1SOL     OW 4537   2.709   3.995   2.010  0.0268  0.1204  0.4524
    1SOL    HW2 4538   2.786   3.946   1.981 -0.9449 -0.4399 -1.2767
    1SOL    HW3 4539   2.635   3.941   1.981 -1.0690  2.3517 -1.0565
    1SOL    MW4 4540   2.709   3.981   2.002 -0.2463  0.3407  0.0253
    1SOL     OW 4541   2.674   4.243   1.868 -0.4643 -0.1747  0.1231
    1SOL    HW2 4542   2.678   4.156   1.909 -0.3992 -0.4921 -0.5590
    1SOL    HW3 4543   2.685   4.227   1.775  2.7672  0.8601  0.2535
    1SOL    MW4 4544   2.676   4.229   1.861 -0.0293 -0.0801  0.0504
    1SOL     OW 4545   2.913   4.368   1.935  0.3207 -0.2464  0.1588
    1SOL    HW2 4546   2.920   4.386   2.029  1.1668 -0.4811  0.1398
    1SOL    HW3 4547   2.825   4.330   1.925  0.3222 -0.4477  0.8878
    1SOL    MW4 4548   2.902   4.365   1.946  0.4325 -0.3037  0.2525
    1SOL     OW 4549   3.361   4.613   1.872  0.9772 -0.2407 -0.0905
    1SOL    HW2 4550   3.355   4.524   1.905 -0.6603 -0.3667 -0.6503
    1SOL    HW3 4551   3.367   4.603   1.777  0.2235  0.2368 -0.2004
    1SOL    MW4 4552   3.361   4.600   1.864  0.6618 -0.1941 -0.1788
    1SOL     OW 4553   3.130   0.080   1.954 -0.0179  0.1545 -0.4105
    1SOL    HW2 4554   3.136   0.074   2.050  0.0995 -1.2599 -0.4924
    1SOL    HW3 4555   3.212   0.043   1.923 -0.2610  0.1649 -1.0734
    1SOL    MW4 4556   3.141   0.075   1.963 -0.0346 -0.0307 -0.5085
    1SOL     OW 4557   3.165   0.365   1.906  0.7091 -0.0413 -0.0868
    1SOL    HW2 4558   3.146   0.274   1.927 -1.3644  0.0859 -1.2466
    1SOL    HW3 4559   3.150   0.372   1.812  1.1434  1.4334 -0.0597
    1SOL    MW4 4560   3.160   0.354   1.896  0.4928  0.1701 -0.2363
    1SOL     OW 4561   3.404   0.510   1.969 -0.5381 -0.3441  0.2287
    1SOL    HW2 4562   3.467   0.439   1.956 -0.8034 -0.3182 -1.3232
    1SOL    HW3 4563   3.320   0.474   1.939 -0.8704  0.2953  0.3819
    1SOL    MW4 4564   3.401   0.496   1.963 -0.6173 -0.2562  0.0441
    1SOL     OW 4565   3.415   0.781   1.817 -0.3906  0.3609  0.1149
    1SOL    HW2 4566   3.330   0.805   1.852 -0.2108 -0.5222  1.1676
    1SOL    HW3 4567   3.439   0.701   1.863  1.1844  0.8064  0.1097
    1SOL    MW4 4568   3.407   0.773   1.827 -0.1590  0.3032  0.2531
    1SOL     OW 4569   3.190   0.894   1.938  0.2568 -0.1710 -0.1485
    1SOL    HW2 4570   3.199   0.909   2.032 -2.3472  1.1107 -0.0612
    1SOL    HW3 4571   3.183   0.981   1.900  1.7173 -0.6730 -1.5980
    1SOL    MW4 4572   3.190   0.907   1.946  0.1059 -0.0682 -0.3282
    1SOL     OW 4573   3.184   1.152   1.829 -0.0830  0.1898  0.4610
    1SOL    HW2 4574   3.252   1.195   1.881  0.1110 -0.1435  0.4796
    1SOL    HW3 4575   3.103   1.198   1.853  0.0737  0.3248  0.7287
    1SOL    MW4 4576   3.182   1.164   1.839 -0.0365  0.1636  0.4988
    1SOL     OW 4577   3.403   1.246   1.983 -0.6349 -0.5202  0.3179
    1SOL    HW2 4578   3.390   1.237   2.077 -0.2915 -0.9939  0.3210
    1SOL    HW3 4579   3.369   1.333   1.962  2.0035  0.8424  1.3899
    1SOL    MW4 4580   3.397   1.256   1.992 -0.2415 -0.4028  0.4598
    1SOL     OW 4581   3.374   1.517   1.895 -0.0071 -0.4258 -0.6540
    1SOL    HW2 4582   3.447   1.576   1.915  0.7095 -1.5126 -0.0082
    1SOL    HW3 4583   3.296   1.571   1.904  0.6836  0.5891 -0.7255
    1SOL    MW4 4584   3.373   1.532   1.899  0.1788 -0.4355 -0.5782
    1SOL     OW 4585   3.134   1.661   1.956  0.1378  0.0689 -0.4367
    1SOL    HW2 4586   3.131   1.676   2.051  1.4144  0.6348 -0.4867
    1SOL    HW3 4587   3.122   1.748   1.918 -1.8815 -0.3455 -0.8332
    1SOL    MW4 4588   3.132   1.674   1.964  0.0401  0.0890 -0.4957
    1SOL     OW 4589   3.132   1.906   1.850  0.4937 -0.0374  0.5207
    1SOL    HW2 4590   3.204   1.961   1.881  0.2352 -0.3424  1.6879
    1SOL    HW3 4591   3.126   1.925   1.757  0.0159  2.4017  1.0149
    1SOL    MW4 4592   3.141   1.916   1.842  0.3965  0.2440  0.7399
    1SOL     OW 4593   3.327   2.055   1.977  0.6140  0.1879 -0.4706
    1SOL    HW2 4594   3.407   2.024   1.935  1.7777  1.2546  0.9110
    1SOL    HW3 4595   3.314   2.142   1.940  1.1444  0.7667  0.6930
    1SOL    MW4 4596   3.336   2.062   1.967  0.8376  0.4048 -0.1347
    1SOL     OW 4597   3.338   2.299   1.849  0.0807 -0.4774  0.0157
    1SOL    HW2 4598   3.252   2.335   1.871  0.8270  1.7262 -0.5664
    1SOL    HW3 4599   3.340   2.297   1.753  0.6695 -0.5428  0.0241
    1SOL    MW4 4600   3.327   2.303   1.839  0.2568 -0.1950 -0.0601
    1SOL     OW 4601   3.107   2.428   1.909  0.1064 -0.0737  0.0797
    1SOL    HW2 4602   3.118   2.419   2.004  0.1946  1.3957  0.2249
    1SOL    HW3 4603   3.117   2.522   1.893 -0.8307 -0.1966 -1.2687
    1SOL    MW4 4604   3.110   2.439   1.920 -0.0055  0.1040 -0.0792
    1SOL     OW 4605   3.105   2.707   1.863 -0.2572 -0.4464 -0.3401
    1SOL    HW2 4606   3.027   2.760   1.881  0.6048  1.0850 -1.0806
    1SOL    HW3 4607   3.111   2.705   1.768  0.5858 -0.6248 -0.2805
    1SOL    MW4 4608   3.095   2.713   1.853 -0.0322 -0.2677 -0.4300
    1SOL     OW 4609   3.329   2.860   1.931 -0.1756  0.0206 -0.6628
    1SOL    HW2 4610   3.337   2.834   2.023  1.2885  0.9012 -0.5282
    1SOL    HW3 4611   3.250   2.815   1.901 -1.0147  0.1889  1.1786
    1SOL    MW4 4612   3.320   2.850   1.939 -0.0930  0.1590 -0.4021
    1SOL     OW 4613   3.355   3.142   1.870  0.0457  0.2973 -0.4710
    1SOL    HW2 4614   3.429   3.196   1.899 -0.6631  0.7620  0.4871
    1SOL    HW3 4615   3.362   3.062   1.921 -2.0231  1.6843  2.1085
    1SOL    MW4 4616   3.366   3.139   1.880 -0.3204  0.5417 -0.0044
    1SOL     OW 4617   3.104   3.222   1.962  0.1782 -0.1054 -0.3800
    1SOL    HW2 4618   3.139   3.197   2.048  1.2490  1.4446 -0.3383
    1SOL    HW3 4619   3.174   3.202   1.901  0.4606  1.3333 -0.5354
    1SOL    MW4 4620   3.117   3.216   1.965  0.3569  0.2892 -0.3949
    1SOL     OW 4621   3.096   3.493   1.893  0.0413  0.4419 -0.0590
    1SOL    HW2 4622   3.098   3.399   1.915  0.4605 -0.0949 -2.2629
    1SOL    HW3 4623   3.178   3.527   1.931  0.8768 -0.5020 -0.9673
    1SOL    MW4 4624   3.107   3.485   1.901  0.2069  0.2465 -0.4698
    1SOL     OW 4625   3.335   3.623   1.964 -0.0918  0.1723 -0.2026
    1SOL    HW2 4626   3.420   3.581   1.951  0.5341  1.1039  0.8422
    1SOL    HW3 4627   3.343   3.708   1.921 -0.4170  0.3627  0.1032
    1SOL    MW4 4628   3.347   3.629   1.956 -0.0522  0.3202 -0.0244
    1SOL     OW 4629   3.350   3.884   1.876 -0.0921  0.2659  0.4311
    1SOL    HW2 4630   3.271   3.927   1.910  0.0445  1.3695 -0.6211
    1SOL    HW3 4631   3.341   3.889   1.781  1.6635  1.1988  0.2974
    1SOL    MW4 4632   3.339   3.890   1.868  0.1576  0.5348  0.2745
    1SOL     OW 4633   3.138   4.028   1.998  0.0720 -0.2955 -0.0055
    1SOL    HW2 4634   3.146   4.038   2.093  2.3744 -2.1080  0.0282
    1SOL    HW3 4635   3.067   3.964   1.987 -0.3213  0.0522  0.4922
    1SOL    MW4 4636   3.129   4.021   2.009  0.3238 -0.4892  0.0644
    1SOL     OW 4637   3.152   4.262   1.850 -0.2223 -0.5892 -0.0356
    1SOL    HW2 4638   3.147   4.174   1.887 -0.6672  0.4108  2.3504
    1SOL    HW3 4639   3.072   4.306   1.880  0.1848  0.7469 -0.8484
    1SOL    MW4 4640   3.141   4.256   1.859 -0.2272 -0.2804  0.1720
    1SOL     OW 4641   3.345   4.365   2.000  0.5489 -0.0019  0.1587
    1SOL    HW2 4642   3.421   4.329   1.955  0.6087  1.0335 -0.5915
    1SOL    HW3 4643   3.270   4.324   1.958  0.6640 -0.5256  0.4562
    1SOL    MW4 4644   3.345   4.355   1.989  0.5717  0.0658  0.0992
    1SOL     OW 4645   3.847   4.659   1.860  0.2743 -0.1773  0.5059
    1SOL    HW2 4646   3.846   4.568   1.891 -1.4378 -0.6060 -0.7202
    1SOL    HW3 4647   3.764   4.696   1.890  0.5914  0.7345  0.2700
    1SOL    MW4 4648   3.836   4.652   1.868  0.0904 -0.1135  0.3130
    1SOL     OW 4649   3.596   0.071   1.954 -0.0350  0.1795  0.1323
    1SOL    HW2 4650   3.576   0.095   2.045  0.0441 -0.2228  0.2560
    1SOL    HW3 4651   3.512   0.043   1.917  0.0430 -0.1944  0.2448
    1SOL    MW4 4652   3.582   0.071   1.961 -0.0143  0.0771  0.1636
    1SOL     OW 4653   3.625   0.328   1.891 -0.5851 -0.4938 -0.4914
    1SOL    HW2 4654   3.607   0.236   1.908  0.1015 -0.6555 -0.6388
    1SOL    HW3 4655   3.620   0.337   1.796 -0.3943 -0.4375 -0.4976
    1SOL    MW4 4656   3.622   0.317   1.881 -0.4694 -0.5077 -0.5118
    1SOL     OW 4657   3.823   0.477   2.019  0.4654 -0.0480 -0.0539
    1SOL    HW2 4658   3.819   0.560   1.972 -0.2104  1.1430  2.0281
    1SOL    HW3 4659   3.743   0.431   1.994 -0.7657  1.3285  1.2319
    1SOL    MW4 4660   3.812   0.482   2.009  0.2139  0.2908  0.3905
    1SOL     OW 4661   3.802   0.724   1.861 -0.0306  0.2130  0.7501
    1SOL    HW2 4662   3.731   0.784   1.884 -0.9338 -0.6375  0.2030
    1SOL    HW3 4663   3.825   0.747   1.771 -1.2019 -1.0644  0.1206
    1SOL    MW4 4664   3.796   0.735   1.852 -0.3042 -0.0677  0.5949
    1SOL     OW 4665   3.605   0.912   1.979  0.2672 -0.4045 -0.3061
    1SOL    HW2 4666   3.622   1.002   1.951  0.4953 -0.6886 -1.1097
    1SOL    HW3 4667   3.526   0.886   1.931  0.7147 -0.9280 -0.7769
    1SOL    MW4 4668   3.597   0.920   1.969  0.3564 -0.5111 -0.4742
    1SOL     OW 4669   3.642   1.162   1.865 -0.7036 -0.7437 -0.4124
    1SOL    HW2 4670   3.559   1.188   1.906 -0.7944  1.0498 -1.6729
    1SOL    HW3 4671   3.619   1.148   1.773  0.1956 -1.2712 -0.5584
    1SOL    MW4 4672   3.628   1.164   1.858 -0.5968 -0.5767 -0.5980
    1SOL     OW 4673   3.823   1.328   1.936  0.2270 -0.4586  0.0270
    1SOL    HW2 4674   3.841   1.328   2.030  1.3727  0.0657 -0.1809
    1SOL    HW3 4675   3.746   1.272   1.927 -0.3329  0.0701  1.3539
    1SOL    MW4 4676   3.816   1.321   1.947  0.3042 -0.3195  0.1746
    1SOL     OW 4677   3.773   1.595   1.848 -0.2626  0.1860 -0.4649
    1SOL    HW2 4678   3.849   1.627   1.896  0.2402  0.4545 -1.4198
    1SOL    HW3 4679   3.768   1.502   1.870 -0.2880  0.3965  0.4282
    1SOL    MW4 4680   3.783   1.587   1.857 -0.1998  0.2491 -0.4731
    1SOL     OW 4681   3.569   1.701   2.000 -0.3092 -0.0053 -0.2309
    1SOL    HW2 4682   3.552   1.785   1.958 -0.3837  0.1628  0.1282
    1SOL    HW3 4683   3.642   1.664   1.952  1.4317  1.4276  1.2209
    1SOL    MW4 4684   3.576   1.707   1.988 -0.0894  0.2060  0.0079
    1SOL     OW 4685   3.536   1.944   1.856 -0.1506 -0.3619 -0.5903
    1SOL    HW2 4686   3.621   1.981   1.880 -1.0667  2.3581 -1.3098
    1SOL    HW3 4687   3.538   1.938   1.761  0.0753 -2.4362 -0.4570
    1SOL    MW4 4688   3.547   1.948   1.847 -0.2418 -0.2768 -0.6677
    1SOL     OW 4689   3.783   2.021   1.932  0.2899  0.2344  0.0217
    1SOL    HW2 4690   3.852   1.968   1.893 -0.2628  0.0075 -0.6808
    1SOL    HW3 4691   3.801   2.110   1.902  0.3365  0.1894 -0.0844
    1SOL    MW4 4692   3.794   2.025   1.923  0.2232  0.1986 -0.0851
    1SOL     OW 4693   3.799   2.297   1.894  0.5140  0.2003  0.0148
    1SOL    HW2 4694   3.871   2.340   1.940  0.8038 -0.1908 -0.0642
    1SOL    HW3 4695   3.721   2.347   1.918  0.6642  0.0206  0.8969
    1SOL    MW4 4696   3.798   2.309   1.903  0.5720  0.1252  0.1209
    1SOL     OW 4697   3.552   2.432   1.962  0.3230 -0.2377 -0.1150
    1SOL    HW2 4698   3.538   2.523   1.933  0.0563  0.1182  1.1267
    1SOL    HW3 4699   3.475   2.385   1.929 -0.9424  0.5564  1.6470
    1SOL    MW4 4700   3.540   2.438   1.954  0.1206 -0.0861  0.2812
    1SOL     OW 4701   3.540   2.695   1.859 -0.2413  0.1935  0.1421
    1SOL    HW2 4702   3.622   2.713   1.906 -0.9651 -0.1197  1.5496
    1SOL    HW3 4703   3.476   2.753   1.900 -0.8086  0.1671 -0.7075
    1SOL    MW4 4704   3.542   2.705   1.870 -0.4117  0.1485  0.2156
    1SOL     OW 4705   3.785   2.776   1.967 -0.0044  0.1113 -0.4420
    1SOL    HW2 4706   3.808   2.792   2.059  1.9088 -1.4025 -0.6215
    1SOL    HW3 4707   3.775   2.864   1.929  2.9397  0.8298  0.3249
    1SOL    MW4 4708   3.787   2.790   1.974  0.6363  0.0062 -0.3647
    1SOL     OW 4709   3.781   3.054   1.905 -0.0742 -0.1513  0.6789
    1SOL    HW2 4710   3.710   3.101   1.949 -1.2061 -0.3584 -0.8756
    1SOL    HW3 4711   3.766   3.069   1.812  2.1508  0.0997  0.3246
    1SOL    MW4 4712   3.770   3.062   1.899  0.0699 -0.1454  0.4270
    1SOL     OW 4713   3.580   3.234   1.983  0.2188  0.2179 -0.0347
    1SOL    HW2 4714   3.574   3.230   2.078 -1.2739  0.0415 -0.1286
    1SOL    HW3 4715   3.574   3.327   1.963  0.3288  0.2383  0.0238
    1SOL    MW4 4716   3.579   3.246   1.993  0.0365  0.1972 -0.0395
    1SOL     OW 4717   3.579   3.507   1.921 -0.3440 -0.1463  0.0267
    1SOL    HW2 4718   3.658   3.557   1.942  0.0040 -1.1931  1.2300
    1SOL    HW3 4719   3.575   3.509   1.825  1.5818 -0.7256 -0.0922
    1SOL    MW4 4720   3.589   3.514   1.911 -0.0441 -0.3610  0.1698
    1SOL     OW 4721   3.811   3.659   1.969  0.0971  0.2428 -0.0847
    1SOL    HW2 4722   3.873   3.612   1.914 -0.0741 -0.5598  0.4122
    1SOL    HW3 4723   3.816   3.750   1.938  2.6710  0.5102  0.9905
    1SOL    MW4 4724   3.820   3.665   1.957  0.4141  0.1724  0.1228
    1SOL     OW 4725   3.827   3.935   1.868  0.4385  0.4293 -0.1094
    1SOL    HW2 4726   3.738   3.954   1.897  0.0305 -1.9992  0.3807
    1SOL    HW3 4727   3.817   3.905   1.778  0.6287 -0.7552  0.2539
    1SOL    MW4 4728   3.814   3.933   1.860  0.4096 -0.0474  0.0032
    1SOL     OW 4729   3.590   4.011   1.986  0.2199 -0.1937 -0.0315
    1SOL    HW2 4730   3.594   3.988   2.079 -1.8129 -0.8553 -0.1010
    1SOL    HW3 4731   3.506   3.977   1.956  1.3922 -1.0991 -2.4197
    1SOL    MW4 4732   3.580   4.003   1.995  0.1063 -0.4010 -0.3557
    1SOL     OW 4733   3.570   4.270   1.885  0.0945  0.0463 -0.3492
    1SOL    HW2 4734   3.661   4.295   1.899 -0.2959  0.9367  0.6216
    1SOL    HW3 4735   3.560   4.188   1.934 -0.2649  1.2200  1.6199
    1SOL    MW4 4736   3.580   4.262   1.893 -0.0045  0.3185  0.0387
    1SOL     OW 4737   3.814   4.389   1.938  0.0854  0.3635 -0.5964
    1SOL    HW2 4738   3.797   4.385   2.032  0.0048  0.1306 -0.6189
    1SOL    HW3 4739   3.885   4.326   1.924 -0.0832  0.2002 -0.7300
    1SOL    MW4 4740   3.822   4.380   1.948  0.0527  0.3104 -0.6170
    1SOL     OW 4741   4.307   0.066   1.808 -0.3451  0.0417  0.0968
    1SOL    HW2 4742   4.224   0.079   1.853  0.3002  0.0664  1.3045
    1SOL    HW3 4743   4.374   0.093   1.872  0.6343 -0.9497 -0.4857
    1SOL    MW4 4744   4.305   0.071   1.822 -0.1307 -0.0858  0.1793
    1SOL     OW 4745   4.099   0.066   2.012  0.3799 -0.7003  0.0204
    1SOL    HW2 4746   4.081   0.056   2.106  0.4213 -0.6579  0.0328
    1SOL    HW3 4747   4.017   0.041   1.969  0.2484 -0.3897  0.0859
    1SOL    MW4 4748   4.086   0.062   2.019  0.3676 -0.6537  0.0305
    1SOL     OW 4749   4.048   0.328   1.947 -0.1077  0.0096  0.8298
    1SOL    HW2 4750   4.056   0.244   1.991  1.8906  0.1439  0.7875
    1SOL    HW3 4751   3.968   0.367   1.982 -0.5644 -1.5146  1.5033
    1SOL    MW4 4752   4.038   0.322   1.957  0.0958 -0.1737  0.9130
    1SOL     OW 4753   4.274   0.517   1.969  0.1444 -0.2128  0.4585
    1SOL    HW2 4754   4.301   0.518   2.060  0.2771  0.9898  0.4115
    1SOL    HW3 4755   4.198   0.458   1.967 -0.4648  0.5262  1.5117
    1SOL    MW4 4756   4.268   0.509   1.980  0.0815  0.0433  0.5913
    1SOL     OW 4757   4.266   0.761   1.842  0.3928  0.8020  1.0013
    1SOL    HW2 4758   4.273   0.673   1.879  0.3167  0.8511  1.1320
    1SOL    HW3 4759   4.266   0.747   1.747 -3.6880  0.3415  1.0133
    1SOL    MW4 4760   4.267   0.748   1.834 -0.1559  0.7477  1.0202
    1SOL     OW 4761   4.008   0.888   1.947  0.1626 -0.3936  0.2836
    1SOL    HW2 4762   4.071   0.837   1.896 -0.1129 -0.3617 -0.0906
    1SOL    HW3 4763   3.925   0.841   1.938 -0.4590  0.9630 -1.3806
    1SOL    MW4 4764   4.005   0.875   1.939  0.0443 -0.2105  0.0145
    1SOL     OW 4765   4.033   1.162   1.837 -0.0283  0.6153 -0.6289
    1SOL    HW2 4766   3.997   1.076   1.858 -0.5811  0.2995 -2.7427
    1SOL    HW3 4767   3.968   1.224   1.870 -0.4441  0.1722 -0.6094
    1SOL    MW4 4768   4.020   1.159   1.844 -0.1559  0.5151 -0.9052
    1SOL     OW 4769   4.293   1.246   1.962  0.0796 -0.2587 -0.2924
    1SOL    HW2 4770   4.282   1.251   2.057  0.8317  1.8611 -0.3038
    1SOL    HW3 4771   4.209   1.214   1.930 -0.9390  1.1380  0.9089
    1SOL    MW4 4772   4.281   1.242   1.970  0.0443  0.2052 -0.1352
    1SOL     OW 4773   4.214   1.500   1.860 -0.0032 -0.1375 -0.0052
    1SOL    HW2 4774   4.239   1.414   1.895 -0.3785 -0.3812 -0.3310
    1SOL    HW3 4775   4.217   1.489   1.765  0.2984  0.3156 -0.0527
    1SOL    MW4 4776   4.218   1.487   1.852 -0.0124 -0.1099 -0.0546
    1SOL     OW 4777   4.006   1.650   1.978  0.3088  0.2446 -0.2947
    1SOL    HW2 4778   4.017   1.658   2.073  0.1323  1.0711 -0.3420
    1SOL    HW3 4779   4.079   1.595   1.950  0.8389  0.6880  0.2092
    1SOL    MW4 4780   4.017   1.644   1.987  0.3552  0.4121 -0.2344
    1SOL     OW 4781   4.014   1.904   1.842  0.1185  0.1577  0.0532
    1SOL    HW2 4782   4.022   1.818   1.882 -2.3821 -0.2516 -0.2103
    1SOL    HW3 4783   4.015   1.886   1.748  1.6115  0.6395 -0.0253
    1SOL    MW4 4784   4.015   1.890   1.835 -0.0143  0.1671  0.0082
    1SOL     OW 4785   4.246   2.047   1.932  0.4862 -0.2442  0.1361
    1SOL    HW2 4786   4.246   2.032   2.026  1.1745  0.9850  0.3342
    1SOL    HW3 4787   4.173   1.994   1.899 -0.5130  0.2688  1.4992
    1SOL    MW4 4788   4.237   2.038   1.940  0.4454 -0.0143  0.3421
    1SOL     OW 4789   4.253   2.312   1.839 -0.2778  0.4401  0.2323
    1SOL    HW2 4790   4.268   2.221   1.865 -0.5558  0.4323  0.3769
    1SOL    HW3 4791   4.336   2.356   1.855  0.1042  0.0332 -0.6340
    1SOL    MW4 4792   4.266   2.306   1.845 -0.2637  0.3850  0.1371
    1SOL     OW 4793   4.028   2.454   1.981  0.2183 -0.1453  0.3339
    1SOL    HW2 4794   4.030   2.437   2.075 -0.4679 -0.4700  0.2857
    1SOL    HW3 4795   4.108   2.412   1.947  0.5816  0.1657  0.7978
    1SOL    MW4 4796   4.039   2.446   1.989  0.1760 -0.1473  0.3887
    1SOL     OW 4797   4.041   2.699   1.885 -0.0517 -0.0308 -0.2500
    1SOL    HW2 4798   4.042   2.610   1.920  0.0935  0.1810  0.3030
    1SOL    HW3 4799   3.951   2.729   1.898 -0.2257 -0.2726 -0.8949
    1SOL    MW4 4800   4.029   2.691   1.892 -0.0558 -0.0348 -0.2621
    1SOL     OW 4801   4.257   2.842   1.968 -0.2245 -0.7137 -0.1178
    1SOL    HW2 4802   4.270   2.838   2.063 -2.7023 -0.3363  0.2610
    1SOL    HW3 4803   4.166   2.818   1.955 -0.1027 -0.0683 -2.3507
    1SOL    MW4 4804   4.247   2.839   1.979 -0.5355 -0.5786 -0.3625
    1SOL     OW 4805   4.273   3.098   1.865 -0.2372 -0.1900 -0.4971
    1SOL    HW2 4806   4.199   3.147   1.903  0.8523  0.8818  0.2934
    1SOL    HW3 4807   4.259   3.008   1.894 -0.7692  0.1625  0.3733
    1SOL    MW4 4808   4.261   3.093   1.874 -0.1636 -0.0021 -0.2779
    1SOL     OW 4809   4.024   3.212   1.963  0.0672  0.0859  0.1976
    1SOL    HW2 4810   4.025   3.234   2.056  1.2745  0.2573  0.1448
    1SOL    HW3 4811   3.942   3.164   1.951 -0.0901  0.0553  1.3503
    1SOL    MW4 4812   4.013   3.208   1.974  0.2060  0.1044  0.3427
    1SOL     OW 4813   4.003   3.485   1.850 -0.0667  0.4143 -0.1251
    1SOL    HW2 4814   4.091   3.511   1.877  0.0771 -0.9768  0.8142
    1SOL    HW3 4815   3.997   3.392   1.875 -1.8577  0.5481 -0.0105
    1SOL    MW4 4816   4.014   3.476   1.857 -0.2837  0.2484  0.0141
    1SOL     OW 4817   4.257   3.596   1.956 -0.6708 -0.3330  0.2233
    1SOL    HW2 4818   4.264   3.685   1.923 -3.1291 -0.9321 -2.1661
    1SOL    HW3 4819   4.334   3.551   1.922 -0.4551  0.4044 -0.2612
    1SOL    MW4 4820   4.268   3.602   1.947 -0.9670 -0.3147 -0.1558
    1SOL     OW 4821   4.281   3.847   1.862 -0.1046 -0.1219 -0.3896
    1SOL    HW2 4822   4.344   3.914   1.890 -1.6168  0.8229  0.8072
    1SOL    HW3 4823   4.285   3.849   1.767  2.3726 -0.7517 -0.3451
    1SOL    MW4 4824   4.290   3.856   1.853  0.0219 -0.0803 -0.2259
    1SOL     OW 4825   4.068   3.971   1.988  0.1779 -0.3020 -0.1593
    1SOL    HW2 4826   4.130   3.911   1.945 -0.0961  0.2222 -1.3267
    1SOL    HW3 4827   3.991   3.969   1.932 -0.3363  0.1115  0.5361
    1SOL    MW4 4828   4.066   3.963   1.975  0.0744 -0.1781 -0.2216
    1SOL     OW 4829   4.068   4.250   1.892  0.1981 -0.1817  0.3352
    1SOL    HW2 4830   4.146   4.297   1.923  0.3194 -0.2177  0.0891
    1SOL    HW3 4831   4.073   4.165   1.936  0.5878 -0.3836 -0.0874
    1SOL    MW4 4832   4.079   4.245   1.902  0.2656 -0.2131  0.2469
    1SOL     OW 4833   4.313   4.426   1.974  0.4778 -0.4008  0.3897
    1SOL    HW2 4834   4.288   4.434   2.066  1.5778 -0.6617  0.7218
    1SOL    HW3 4835   4.336   4.515   1.947  1.5139 -0.5439  0.7757
    1SOL    MW4 4836   4.312   4.439   1.982  0.7591 -0.4539  0.4845
    1SOL     OW 4837   0.223   4.620   2.377  0.2284 -0.0117 -0.0605
    1SOL    HW2 4838   0.230   4.651   2.467  0.2035 -0.5832  0.1408
    1SOL    HW3 4839   0.291   4.668   2.329 -0.8005  1.4640 -0.0694
    1SOL    MW4 4840   0.233   4.630   2.382  0.0894  0.1076 -0.0353
    1SOL     OW 4841   4.450   0.053   2.284 -0.2123 -0.1938 -0.1185
    1SOL    HW2 4842   4.537   0.022   2.308 -0.4229 -0.0345  0.8780
    1SOL    HW3 4843   4.455   0.070   2.190  1.4463  1.7840  0.2991
    1SOL    MW4 4844   4.462   0.051   2.275 -0.0210  0.0882  0.0679
    1SOL     OW 4845   4.453   0.336   2.352 -0.4469 -0.1385  0.5065
    1SOL    HW2 4846   4.534   0.379   2.324 -0.7101 -0.4055 -0.6839
    1SOL    HW3 4847   4.465   0.244   2.328 -1.6531  0.0686 -0.9577
    1SOL    MW4 4848   4.465   0.330   2.345 -0.6404 -0.1464  0.1559
    1SOL     OW 4849   0.203   0.477   2.270  0.5073 -0.4007  0.1323
    1SOL    HW2 4850   0.282   0.444   2.311  0.3093 -2.0911 -0.8020
    1SOL    HW3 4851   0.223   0.476   2.176  0.0569  0.9796  0.0141
    1SOL    MW4 4852   0.216   0.473   2.263  0.4217 -0.4417 -0.0064
    1SOL     OW 4853   0.186   0.758   2.339 -0.3813  0.2073 -0.8338
    1SOL    HW2 4854   0.178   0.768   2.434 -0.9477 -0.2141 -0.8398
    1SOL    HW3 4855   0.181   0.664   2.323 -0.2292  0.2700 -1.2767
    1SOL    MW4 4856   0.185   0.747   2.349 -0.4359  0.1599 -0.8929
    1SOL     OW 4857   4.445   0.884   2.249 -0.1166  0.0724  0.3534
    1SOL    HW2 4858   4.520   0.831   2.277 -0.2685  0.2919  1.1826
    1SOL    HW3 4859   4.442   0.874   2.154  0.7507 -0.2213  0.3606
    1SOL    MW4 4860   4.454   0.876   2.240 -0.0224  0.0626  0.4637
    1SOL     OW 4861   4.470   1.141   2.342 -0.4695  0.0735 -0.3027
    1SOL    HW2 4862   4.469   1.128   2.436 -1.7925  1.3160 -0.1330
    1SOL    HW3 4863   4.452   1.053   2.306 -0.9645 -0.2067  0.6212
    1SOL    MW4 4864   4.467   1.127   2.349 -0.7093  0.2006 -0.1583
    1SOL     OW 4865   0.209   1.272   2.234 -0.2802  0.1261 -0.1532
    1SOL    HW2 4866   0.132   1.219   2.254 -0.9204  1.1660  0.1457
    1SOL    HW3 4867   0.207   1.283   2.139 -0.4410  0.0706 -0.1562
    1SOL    MW4 4868   0.199   1.266   2.224 -0.3859  0.2559 -0.1142
    1SOL     OW 4869   0.196   1.531   2.324  0.6574 -0.5304 -0.1551
    1SOL    HW2 4870   0.181   1.533   2.419 -1.1215 -1.4066 -0.3932
    1SOL    HW3 4871   0.197   1.438   2.301  0.0186 -0.3071 -1.1357
    1SOL    MW4 4872   0.194   1.519   2.333  0.3384 -0.6166 -0.3159
    1SOL     OW 4873   4.469   1.653   2.205  0.2343 -0.0858 -0.0560
    1SOL    HW2 4874   4.470   1.733   2.258  0.7205  0.3531 -0.7049
    1SOL    HW3 4875   4.551   1.609   2.227  0.8002  0.4752 -0.9827
    1SOL    MW4 4876   4.480   1.658   2.215  0.3734  0.0460 -0.2642
    1SOL     OW 4877   4.484   1.902   2.346 -0.6491 -0.1549  0.2655
    1SOL    HW2 4878   4.423   1.964   2.306  0.2127  0.1419 -0.6077
    1SOL    HW3 4879   4.571   1.936   2.324 -0.1295 -2.6453 -1.7519
    1SOL    MW4 4880   4.487   1.915   2.338 -0.4663 -0.4443 -0.1156
    1SOL     OW 4881   0.238   2.018   2.265 -0.2392  0.1110  0.0105
    1SOL    HW2 4882   0.328   1.988   2.281  0.0296  1.4261  1.0974
    1SOL    HW3 4883   0.235   2.037   2.171  0.8846  0.8457  0.1048
    1SOL    MW4 4884   0.249   2.017   2.255 -0.0554  0.3812  0.1664
    1SOL     OW 4885   0.201   2.279   2.359 -0.0081 -0.2311 -0.3375
    1SOL    HW2 4886   0.227   2.290   2.450 -1.1379  0.5925 -0.1083
    1SOL    HW3 4887   0.213   2.186   2.341 -1.5548 -0.7479  1.2115
    1SOL    MW4 4888   0.206   2.269   2.369 -0.3612 -0.1907 -0.1030
    1SOL     OW 4889   0.005   2.399   2.203  0.4683  0.1820  0.3840
    1SOL    HW2 4890   0.000   2.493   2.219 -1.2769 -0.0158  1.1395
    1SOL    HW3 4891   0.066   2.366   2.269  1.1843  0.8030  0.0299
    1SOL    MW4 4892   0.012   2.407   2.214  0.3324  0.2377  0.4373
    1SOL     OW 4893   4.460   2.648   2.291  0.2042  0.1714 -0.0945
    1SOL    HW2 4894   4.450   2.634   2.386  2.1605 -0.2516  0.0748
    1SOL    HW3 4895   4.531   2.712   2.284 -1.7268  2.2668 -1.2264
    1SOL    MW4 4896   4.468   2.655   2.303  0.2074  0.3920 -0.2215
    1SOL     OW 4897   0.215   2.779   2.279 -0.4353  0.2611 -0.1434
    1SOL    HW2 4898   0.290   2.729   2.310 -1.1183 -0.9222 -0.4061
    1SOL    HW3 4899   0.235   2.799   2.188 -0.1488  0.4991 -0.0287
    1SOL    MW4 4900   0.227   2.775   2.271 -0.4876  0.1364 -0.1633
    1SOL     OW 4901   0.254   3.039   2.363 -0.2041  0.0851  0.2659
    1SOL    HW2 4902   0.165   3.073   2.352 -0.8289 -1.0900  1.5892
    1SOL    HW3 4903   0.246   2.945   2.347  0.7685 -0.0468  0.5299
    1SOL    MW4 4904   0.241   3.031   2.359 -0.1582 -0.0877  0.4752
    1SOL     OW 4905   0.033   3.180   2.256  0.1487  0.0502 -0.7094
    1SOL    HW2 4906   0.046   3.269   2.288  0.2983 -0.4905  0.7862
    1SOL    HW3 4907   0.035   3.188   2.161  0.1656  1.6387 -0.5883
    1SOL    MW4 4908   0.035   3.193   2.247  0.1707  0.1884 -0.4964
    1SOL     OW 4909   0.035   3.447   2.359  0.3543  0.0548  0.3275
    1SOL    HW2 4910   0.030   3.472   2.451  0.4376 -2.1201  0.9470
    1SOL    HW3 4911  -0.055   3.454   2.328 -0.1017 -1.4600  1.2237
    1SOL    MW4 4912   0.022   3.451   2.367  0.3047 -0.4323  0.5271
    1SOL     OW 4913   0.243   3.601   2.265  0.4130  0.1256  0.5223
    1SOL    HW2 4914   0.322   3.548   2.276 -0.0458 -0.4070  1.2832
    1SOL    HW3 4915   0.172   3.547   2.299 -0.2750  0.6324 -0.0875
    1SOL    MW4 4916   0.244   3.587   2.271  0.2617  0.1223  0.5419
    1SOL     OW 4917   0.219   3.848   2.352 -0.6339  0.1322  0.7685
    1SOL    HW2 4918   0.136   3.872   2.310 -0.6629 -0.7800  0.2920
    1SOL    HW3 4919   0.232   3.756   2.328  0.1120  0.0406  1.5119
    1SOL    MW4 4920   0.210   3.839   2.343 -0.5393  0.0000  0.8037
    1SOL     OW 4921   4.467   3.972   2.249  0.0983  0.0492  0.1445
    1SOL    HW2 4922   4.471   4.060   2.288  0.5759  0.2434 -0.3281
    1SOL    HW3 4923   4.464   3.989   2.155 -1.9728 -0.3916  0.1167
    1SOL    MW4 4924   4.467   3.986   2.242 -0.1120  0.0169  0.0787
    1SOL     OW 4925   4.458   4.248   2.353  0.4192  0.2098 -0.0896
    1SOL    HW2 4926   4.477   4.264   2.445  1.5344 -0.8177 -0.1323
    1SOL    HW3 4927   4.533   4.285   2.306  0.5089 -0.4758 -0.4914
    1SOL    MW4 4928   4.470   4.255   2.359  0.5779 -0.0162 -0.1481
    1SOL     OW 4929   0.195   4.366   2.254 -0.2572 -0.5627 -0.0715
    1SOL    HW2 4930   0.278   4.325   2.278  0.1021 -0.1523 -0.6012
    1SOL    HW3 4931   0.197   4.451   2.298 -0.8132 -0.9314  0.6791
    1SOL    MW4 4932   0.206   4.372   2.263 -0.2832 -0.5574 -0.0422
    1SOL     OW 4933   0.642   0.000   2.358  0.1240 -0.2823 -0.2737
    1SOL    HW2 4934   0.636  -0.016   2.452 -1.2318  2.0926  0.0858
    1SOL    HW3 4935   0.721   0.053   2.348 -1.3073  1.9994 -0.0376
    1SOL    MW4 4936   0.652   0.005   2.369 -0.2437  0.3319 -0.1953
    1SOL     OW 4937   0.415   0.120   2.256 -0.3270 -0.4855  0.3656
    1SOL    HW2 4938   0.496   0.071   2.274  0.4592  1.1476  1.4036
    1SOL    HW3 4939   0.415   0.132   2.161  0.5697 -0.6312  0.3431
    1SOL    MW4 4940   0.426   0.115   2.246 -0.1050 -0.2892  0.4997
    1SOL     OW 4941   0.423   0.369   2.380 -0.0348 -0.3529 -0.3158
    1SOL    HW2 4942   0.439   0.371   2.474 -1.2429 -0.3024 -0.1011
    1SOL    HW3 4943   0.428   0.276   2.357 -1.5999 -0.5784  0.1543
    1SOL    MW4 4944   0.426   0.357   2.390 -0.4007 -0.3760 -0.2255
    1SOL     OW 4945   0.652   0.492   2.243 -0.0646 -0.0591 -0.3116
    1SOL    HW2 4946   0.664   0.585   2.265  0.4465 -0.7246  2.3078
    1SOL    HW3 4947   0.575   0.465   2.293  1.2198 -1.6610  0.8211
    1SOL    MW4 4948   0.643   0.501   2.252  0.1723 -0.3583  0.1838
    1SOL     OW 4949   0.659   0.770   2.322  0.4286  0.4695  0.0461
    1SOL    HW2 4950   0.643   0.775   2.416  0.5457  0.1101  0.0874
    1SOL    HW3 4951   0.582   0.810   2.282  0.2259  0.3176  0.2860
    1SOL    MW4 4952   0.647   0.776   2.329  0.4173  0.4020  0.0832
    1SOL     OW 4953   0.421   0.885   2.232  0.1486 -0.0224  0.3452
    1SOL    HW2 4954   0.431   0.970   2.275 -0.4803 -0.1601  0.7783
    1SOL    HW3 4955   0.341   0.849   2.270  0.3906 -0.7898  0.1230
    1SOL    MW4 4956   0.412   0.892   2.242  0.0975 -0.1418  0.3731
    1SOL     OW 4957   0.445   1.139   2.335  0.0993 -0.0198 -0.2253
    1SOL    HW2 4958   0.450   1.137   2.431 -0.0904 -0.4013 -0.2203
    1SOL    HW3 4959   0.364   1.186   2.316 -1.1027 -1.9842 -0.1530
    1SOL    MW4 4960   0.435   1.145   2.345 -0.0843 -0.3294 -0.2153
    1SOL     OW 4961   0.679   1.229   2.208  0.0984  0.3746  0.3192
    1SOL    HW2 4962   0.667   1.321   2.233  0.1434  0.9178 -1.5393
    1SOL    HW3 4963   0.604   1.184   2.244  0.5789  0.9641  2.0972
    1SOL    MW4 4964   0.668   1.235   2.216  0.1678  0.5240  0.3088
    1SOL     OW 4965   0.651   1.479   2.331 -0.0571 -0.7282 -0.2144
    1SOL    HW2 4966   0.676   1.488   2.423 -0.2261 -1.7481 -0.0708
    1SOL    HW3 4967   0.720   1.527   2.283 -0.9521  1.3912  0.5385
    1SOL    MW4 4968   0.664   1.487   2.337 -0.1975 -0.5832 -0.0963
    1SOL     OW 4969   0.435   1.634   2.231  0.2126  0.1168 -0.3383
    1SOL    HW2 4970   0.507   1.580   2.262 -0.0443  0.0770  0.2076
    1SOL    HW3 4971   0.357   1.596   2.272  0.1174  1.3421  0.6533
    1SOL    MW4 4972   0.434   1.622   2.240  0.1662  0.2732 -0.1354
    1SOL     OW 4973   0.477   1.882   2.324 -0.1971 -0.4481  0.0479
    1SOL    HW2 4974   0.562   1.909   2.291 -1.1411  1.3171 -1.0297
    1SOL    HW3 4975   0.469   1.790   2.299  1.1260 -0.4541 -0.3685
    1SOL    MW4 4976   0.487   1.873   2.316 -0.1470 -0.2161 -0.1495
    1SOL     OW 4977   0.690   2.047   2.186 -0.1111 -0.0324  0.1364
    1SOL    HW2 4978   0.758   2.002   2.236 -0.7809 -0.7190  0.4271
    1SOL    HW3 4979   0.662   2.119   2.242  0.4797  0.3483 -0.0478
    1SOL    MW4 4980   0.695   2.051   2.200 -0.1215 -0.0730  0.1502
    1SOL     OW 4981   0.651   2.275   2.341  0.1069  0.1999  0.3120
    1SOL    HW2 4982   0.652   2.279   2.437  0.5986 -0.9539  0.3658
    1SOL    HW3 4983   0.729   2.322   2.314  0.4335 -0.2199  0.5174
    1SOL    MW4 4984   0.661   2.282   2.350  0.2149 -0.0079  0.3462
    1SOL     OW 4985   0.421   2.402   2.255 -0.5611 -0.0965  0.3214
    1SOL    HW2 4986   0.497   2.354   2.290 -0.3371  0.3251  0.4085
    1SOL    HW3 4987   0.346   2.358   2.294 -0.3927 -0.9536 -0.2985
    1SOL    MW4 4988   0.422   2.390   2.265 -0.5093 -0.1540  0.2511
    1SOL     OW 4989   0.449   2.675   2.346  0.2722  0.4060 -0.3535
    1SOL    HW2 4990   0.462   2.666   2.441 -0.9014  0.4236 -0.1792
    1SOL    HW3 4991   0.449   2.586   2.313  0.8477  0.4074 -0.3616
    1SOL    MW4 4992   0.451   2.662   2.354  0.1932  0.4084 -0.3314
    1SOL     OW 4993   0.653   2.811   2.252 -0.1703 -0.0170  0.4452
    1SOL    HW2 4994   0.735   2.784   2.295 -1.1592  1.0722  3.1507
    1SOL    HW3 4995   0.589   2.746   2.281 -0.6859  0.2722 -0.0485
    1SOL    MW4 4996   0.655   2.799   2.262 -0.3688  0.1647  0.7370
    1SOL     OW 4997   0.662   3.091   2.375 -0.0211  0.5702  0.0253
    1SOL    HW2 4998   0.584   3.139   2.349 -0.6759  0.4861  1.7632
    1SOL    HW3 4999   0.646   3.001   2.345  0.4046  1.0196 -1.5992
    1SOL    MW4 5000   0.650   3.085   2.368 -0.0513  0.6187  0.0403
    1SOL     OW 5001   0.442   3.204   2.244  0.2103  0.3524 -0.2314
    1SOL    HW2 5002   0.377   3.138   2.269  1.3441 -0.9607 -0.6686
    1SOL    HW3 5003   0.445   3.200   2.149 -0.3748  1.6845 -0.3015
    1SOL    MW4 5004   0.434   3.195   2.235  0.2827  0.3548 -0.2980
    1SOL     OW 5005   0.472   3.452   2.347 -0.1094 -0.2973  0.0137
    1SOL    HW2 5006   0.537   3.493   2.290 -0.3853  0.4146  0.2068
    1SOL    HW3 5007   0.462   3.363   2.312  1.8700 -0.8281  0.7027
    1SOL    MW4 5008   0.479   3.446   2.335  0.1153 -0.2732  0.1299
    1SOL     OW 5009   0.682   3.571   2.238  0.7035 -0.4517  0.3937
    1SOL    HW2 5010   0.684   3.647   2.296 -0.4272 -0.4460  0.4375
    1SOL    HW3 5011   0.654   3.607   2.153  1.1889 -0.6491  0.1503
    1SOL    MW4 5012   0.678   3.586   2.234  0.6183 -0.4771  0.3674
    1SOL     OW 5013   0.673   3.829   2.369 -0.6167 -0.0064 -0.5837
    1SOL    HW2 5014   0.677   3.832   2.464 -0.4999 -1.8858 -0.5144
    1SOL    HW3 5015   0.585   3.860   2.347 -0.7363  0.1745  0.1474
    1SOL    MW4 5016   0.662   3.834   2.378 -0.6171 -0.2306 -0.4783
    1SOL     OW 5017   0.454   3.969   2.265  0.1111 -0.3425  0.1012
    1SOL    HW2 5018   0.369   3.940   2.298  0.3587 -2.1852 -0.8018
    1SOL    HW3 5019   0.443   3.973   2.170  0.5894  0.9164  0.0939
    1SOL    MW4 5020   0.442   3.966   2.257  0.2069 -0.4196 -0.0191
    1SOL     OW 5021   0.431   4.248   2.334  0.1792  0.4011 -0.3833
    1SOL    HW2 5022   0.508   4.295   2.302  0.4284  0.1804 -0.1019
    1SOL    HW3 5023   0.451   4.156   2.322 -0.2405  0.3568 -0.7642
    1SOL    MW4 5024   0.444   4.242   2.328  0.1567  0.3662 -0.3965
    1SOL     OW 5025   0.663   4.411   2.265  0.3957  0.2692 -0.0771
    1SOL    HW2 5026   0.665   4.496   2.309  0.7246  0.2387 -0.0332
    1SOL    HW3 5027   0.653   4.432   2.172 -0.2813  0.3335  0.0089
    1SOL    MW4 5028   0.662   4.425   2.258  0.3498  0.2737 -0.0598
    1SOL     OW 5029   1.151   4.643   2.339 -0.0691 -0.1983 -0.1418
    1SOL    HW2 5030   1.152   4.644   2.435  0.3037  1.6850 -0.1606
    1SOL    HW3 5031   1.061   4.669   2.317 -0.3433 -1.2575 -0.3142
    1SOL    MW4 5032   1.139   4.646   2.349 -0.0561 -0.0892 -0.1674
    1SOL     OW 5033   0.896   0.099   2.286 -0.0801  0.1959 -0.5805
    1SOL    HW2 5034   0.886   0.193   2.303  0.8182  0.5294 -1.8598
    1SOL    HW3 5035   0.886   0.091   2.191 -1.5400 -1.1905 -0.3381
    1SOL    MW4 5036   0.893   0.111   2.276 -0.1542  0.0570 -0.7174
    1SOL     OW 5037   0.853   0.354   2.379  0.2716 -0.1873  0.1051
    1SOL    HW2 5038   0.926   0.384   2.325  0.1224 -0.1959 -0.1016
    1SOL    HW3 5039   0.775   0.386   2.334  0.0401 -1.9585 -0.7833
    1SOL    MW4 5040   0.853   0.362   2.366  0.2214 -0.4221 -0.0393
    1SOL     OW 5041   1.071   0.452   2.260  0.4493  0.0932 -0.1914
    1SOL    HW2 5042   1.158   0.428   2.293  0.6116  0.9433  0.0001
    1SOL    HW3 5043   1.081   0.450   2.165  0.8406  0.7718 -0.1659
    1SOL    MW4 5044   1.084   0.448   2.252  0.5223  0.2949 -0.1628
    1SOL     OW 5045   1.102   0.752   2.369 -0.0434 -0.0747 -0.2796
    1SOL    HW2 5046   1.035   0.809   2.330 -1.2527 -0.7579  0.7415
    1SOL    HW3 5047   1.083   0.665   2.333  0.1209 -0.3254  0.2424
    1SOL    MW4 5048   1.090   0.748   2.359 -0.1812 -0.1979 -0.0763
    1SOL     OW 5049   0.886   0.898   2.219 -0.3439  0.4845 -0.8058
    1SOL    HW2 5050   0.897   0.972   2.279  1.0791 -1.0318  0.8952
    1SOL    HW3 5051   0.810   0.851   2.252  0.6731 -0.5698  0.0950
    1SOL    MW4 5052   0.878   0.901   2.231 -0.0219  0.1454 -0.4623
    1SOL     OW 5053   0.887   1.161   2.365  0.3622 -0.0684  0.2392
    1SOL    HW2 5054   0.963   1.195   2.317  0.4005 -1.8486 -0.9915
    1SOL    HW3 5055   0.811   1.196   2.319  0.4232  0.7247  0.7384
    1SOL    MW4 5056   0.887   1.170   2.353  0.3753 -0.1987  0.1426
    1SOL     OW 5057   1.088   1.258   2.209  0.3405  0.4140 -0.2831
    1SOL    HW2 5058   1.163   1.230   2.262  0.0008  0.4886  0.2440
    1SOL    HW3 5059   1.122   1.265   2.120  0.2441 -2.6353 -0.6180
    1SOL    MW4 5060   1.103   1.255   2.205  0.2829  0.0216 -0.2575
    1SOL     OW 5061   1.086   1.506   2.324  0.0496  0.0532 -0.5276
    1SOL    HW2 5062   1.013   1.556   2.286 -0.5674  0.4928  1.1833
    1SOL    HW3 5063   1.078   1.419   2.287 -0.7950  0.3653 -1.0760
    1SOL    MW4 5064   1.075   1.501   2.314 -0.1433  0.1523 -0.3743
    1SOL     OW 5065   0.860   1.624   2.211  0.0346 -0.1714 -0.0564
    1SOL    HW2 5066   0.879   1.714   2.237 -0.7327  0.1568 -0.6028
    1SOL    HW3 5067   0.863   1.626   2.116  1.4240 -1.0490 -0.0436
    1SOL    MW4 5068   0.863   1.636   2.202  0.1167 -0.2438 -0.1266
    1SOL     OW 5069   0.893   1.914   2.309 -0.6483 -0.2991  0.0802
    1SOL    HW2 5070   0.889   1.907   2.405  1.2423  0.7349  0.2715
    1SOL    HW3 5071   0.969   1.971   2.293  0.3130 -2.1432 -2.1093
    1SOL    MW4 5072   0.902   1.921   2.320 -0.2720 -0.4059 -0.1831
    1SOL     OW 5073   1.105   2.100   2.240 -0.4409  0.1588 -0.2010
    1SOL    HW2 5074   1.164   2.033   2.275 -0.2606  0.2420 -0.3492
    1SOL    HW3 5075   1.092   2.076   2.149 -1.6949 -0.6192  0.1620
    1SOL    MW4 5076   1.111   2.088   2.233 -0.5826  0.0672 -0.1726
    1SOL     OW 5077   1.117   2.362   2.325 -0.0060  0.1850  0.0529
    1SOL    HW2 5078   1.184   2.411   2.278  1.2901 -1.0188  0.6212
    1SOL    HW3 5079   1.123   2.273   2.290 -0.5890 -0.1809  0.8657
    1SOL    MW4 5080   1.126   2.356   2.314  0.0881 -0.0217  0.2353
    1SOL     OW 5081   0.857   2.439   2.257  0.0709 -0.0717 -0.4578
    1SOL    HW2 5082   0.941   2.401   2.281  0.6947  0.4879 -1.6813
    1SOL    HW3 5083   0.868   2.464   2.165 -2.1341 -1.9258 -1.2742
    1SOL    MW4 5084   0.869   2.437   2.248 -0.1378 -0.2425 -0.7269
    1SOL     OW 5085   0.895   2.701   2.338 -0.5317  0.0073  0.2406
    1SOL    HW2 5086   0.891   2.687   2.432  0.2606 -1.2791  0.0956
    1SOL    HW3 5087   0.872   2.616   2.300  0.0762  0.2609 -0.7148
    1SOL    MW4 5088   0.891   2.688   2.345 -0.3470 -0.1290  0.0954
    1SOL     OW 5089   1.101   2.844   2.205  0.2542  0.0328 -0.0916
    1SOL    HW2 5090   1.182   2.802   2.235  0.3656 -0.3357 -0.8845
    1SOL    HW3 5091   1.031   2.798   2.251  0.3910 -0.8790 -0.7735
    1SOL    MW4 5092   1.103   2.833   2.215  0.2869 -0.1359 -0.2861
    1SOL     OW 5093   1.095   3.080   2.371 -0.0470  0.3317  0.0646
    1SOL    HW2 5094   1.022   3.125   2.328 -0.6816 -0.2914  0.4748
    1SOL    HW3 5095   1.106   3.000   2.321 -0.7942 -0.4025  1.0515
    1SOL    MW4 5096   1.087   3.076   2.359 -0.2291  0.1526  0.2491
    1SOL     OW 5097   0.893   3.204   2.261  0.1550 -0.3422  0.4050
    1SOL    HW2 5098   0.882   3.285   2.311 -2.1910  0.8064 -1.8407
    1SOL    HW3 5099   0.813   3.154   2.277 -0.1233 -0.4604 -1.2274
    1SOL    MW4 5100   0.881   3.208   2.269 -0.1913 -0.2065 -0.1066
    1SOL     OW 5101   0.915   3.471   2.346 -0.2343 -0.1684 -0.1416
    1SOL    HW2 5102   0.910   3.467   2.441 -0.7560  1.2776 -0.1082
    1SOL    HW3 5103   0.825   3.485   2.317  0.1933  1.4239 -0.7441
    1SOL    MW4 5104   0.902   3.472   2.355 -0.2466  0.2325 -0.2165
    1SOL     OW 5105   1.137   3.613   2.265 -0.3093 -0.2251  0.0974
    1SOL    HW2 5106   1.206   3.563   2.307  0.2576  0.5930  0.1385
    1SOL    HW3 5107   1.056   3.577   2.302  0.1560  0.1456  1.5471
    1SOL    MW4 5108   1.135   3.602   2.276 -0.1731 -0.0682  0.2940
    1SOL     OW 5109   1.104   3.887   2.328  0.3899 -0.6154 -0.6913
    1SOL    HW2 5110   1.188   3.930   2.308  1.4973 -2.2348  0.3110
    1SOL    HW3 5111   1.117   3.796   2.301 -1.1425 -0.8311 -0.7360
    1SOL    MW4 5112   1.117   3.880   2.322  0.3339 -0.8576 -0.5651
    1SOL     OW 5113   0.857   3.997   2.256 -0.1692  0.0920  0.7830
    1SOL    HW2 5114   0.942   3.961   2.281 -1.1250 -2.4647  0.4449
    1SOL    HW3 5115   0.793   3.940   2.298 -1.7356  1.4926  0.3529
    1SOL    MW4 5116   0.860   3.985   2.265 -0.5019 -0.0606  0.6816
    1SOL     OW 5117   0.878   4.252   2.349  0.4404  0.0664 -0.0792
    1SOL    HW2 5118   0.857   4.169   2.305  1.2714 -0.1985  0.0162
    1SOL    HW3 5119   0.818   4.316   2.310  0.2128 -0.4553 -0.5913
    1SOL    MW4 5120   0.867   4.249   2.338  0.5200 -0.0372 -0.1340
    1SOL     OW 5121   1.143   4.370   2.296 -0.1832  0.3070 -0.0037
    1SOL    HW2 5122   1.054   4.338   2.314 -0.0527 -0.3139 -0.4689
    1SOL    HW3 5123   1.139   4.463   2.317 -0.8212  0.1853  0.4350
    1SOL    MW4 5124   1.130   4.378   2.301 -0.2502  0.2093 -0.0074
    1SOL     OW 5125   1.581   0.007   2.375 -0.3833 -0.2515 -0.3539
    1SOL    HW2 5126   1.664   0.042   2.343 -0.7407  1.3098  0.3803
    1SOL    HW3 5127   1.515   0.046   2.318 -0.5601 -2.1603 -1.4801
    1SOL    MW4 5128   1.583   0.017   2.364 -0.4537 -0.2974 -0.4058
    1SOL     OW 5129   1.372   0.123   2.234  0.3883  0.4731 -0.0416
    1SOL    HW2 5130   1.343   0.209   2.265 -0.6779  0.3552 -0.7276
    1SOL    HW3 5131   1.302   0.063   2.260  0.8414 -0.0909 -0.1178
    1SOL    MW4 5132   1.359   0.126   2.242  0.3076  0.3832 -0.1423
    1SOL     OW 5133   1.313   0.379   2.344 -0.2752  0.1190 -0.1199
    1SOL    HW2 5134   1.329   0.379   2.438 -1.1504  0.1991  0.0365
    1SOL    HW3 5135   1.390   0.422   2.306  0.0085  0.2207  0.5685
    1SOL    MW4 5136   1.325   0.385   2.351 -0.3533  0.1430 -0.0083
    1SOL     OW 5137   1.538   0.491   2.243  0.4362 -0.1707 -0.5251
    1SOL    HW2 5138   1.617   0.446   2.273  0.5553 -0.3188 -1.0652
    1SOL    HW3 5139   1.545   0.492   2.148  0.3677  0.8869 -0.5203
    1SOL    MW4 5140   1.549   0.485   2.235  0.4429 -0.0506 -0.5956
    1SOL     OW 5141   1.496   0.748   2.337 -0.1469 -0.0754 -0.0485
    1SOL    HW2 5142   1.570   0.786   2.291  0.9965 -0.2450  1.5901
    1SOL    HW3 5143   1.500   0.654   2.316  0.7011 -0.2402  0.8040
    1SOL    MW4 5144   1.506   0.740   2.328  0.1158 -0.1194  0.2801
    1SOL     OW 5145   1.298   0.894   2.233 -0.2831  0.0522  0.4687
    1SOL    HW2 5146   1.366   0.841   2.273 -1.0702 -1.3861 -0.0584
    1SOL    HW3 5147   1.217   0.863   2.273 -0.8436  0.2344 -0.5016
    1SOL    MW4 5148   1.296   0.883   2.244 -0.4609 -0.1135  0.2711
    1SOL     OW 5149   1.308   1.174   2.328  0.4269 -0.4318 -0.5388
    1SOL    HW2 5150   1.311   1.160   2.423 -1.3034 -0.9037 -0.5354
    1SOL    HW3 5151   1.304   1.086   2.291 -0.4759 -0.2137 -0.9751
    1SOL    MW4 5152   1.308   1.160   2.336  0.0795 -0.4654 -0.5958
    1SOL     OW 5153   1.549   1.294   2.240 -0.1853  0.1455 -0.2081
    1SOL    HW2 5154   1.468   1.252   2.270 -0.1169 -0.1122 -0.3857
    1SOL    HW3 5155   1.549   1.282   2.145  0.4672 -0.5784 -0.1212
    1SOL    MW4 5156   1.538   1.287   2.231 -0.0902  0.0161 -0.2203
    1SOL     OW 5157   1.584   1.539   2.388  0.3114 -0.2364  0.1700
    1SOL    HW2 5158   1.644   1.593   2.335  1.1312  0.3013  1.6183
    1SOL    HW3 5159   1.592   1.451   2.351  0.7905  0.1554 -0.6827
    1SOL    MW4 5160   1.593   1.535   2.376  0.4828 -0.1137  0.2484
    1SOL     OW 5161   1.330   1.633   2.242  0.0556  0.1771  0.2758
    1SOL    HW2 5162   1.405   1.590   2.282 -0.7978 -1.5817  0.0281
    1SOL    HW3 5163   1.255   1.605   2.293 -0.6596  0.4512 -0.5995
    1SOL    MW4 5164   1.330   1.624   2.254 -0.1514 -0.0188  0.1278
    1SOL     OW 5165   1.302   1.912   2.316  0.3113  0.3163 -0.1050
    1SOL    HW2 5166   1.390   1.944   2.295  0.3763  0.8757  0.9721
    1SOL    HW3 5167   1.299   1.825   2.276  1.3348  0.3141 -0.2064
    1SOL    MW4 5168   1.313   1.904   2.308  0.4548  0.3898  0.0241
    1SOL     OW 5169   1.544   2.026   2.243 -0.3065 -0.1455 -0.1781
    1SOL    HW2 5170   1.623   1.993   2.286 -1.0251 -2.3421 -0.4525
    1SOL    HW3 5171   1.569   2.039   2.152 -0.2848 -1.0080 -0.3021
    1SOL    MW4 5172   1.558   2.023   2.237 -0.3985 -0.5491 -0.2306
    1SOL     OW 5173   1.534   2.299   2.319 -0.2967 -0.2057 -0.3299
    1SOL    HW2 5174   1.529   2.310   2.414 -0.0418  0.1216 -0.3529
    1SOL    HW3 5175   1.542   2.205   2.306  2.4550 -0.0554  0.0954
    1SOL    MW4 5176   1.534   2.288   2.330  0.1000 -0.1423 -0.2768
    1SOL     OW 5177   1.349   2.479   2.218 -0.5489  0.0409  0.3158
    1SOL    HW2 5178   1.411   2.410   2.239 -0.8230 -0.1259  0.5898
    1SOL    HW3 5179   1.356   2.490   2.123  0.6748  0.7765  0.4951
    1SOL    MW4 5180   1.358   2.471   2.208 -0.4236  0.1161  0.3757
    1SOL     OW 5181   1.342   2.733   2.345  0.4398 -0.1504  0.1523
    1SOL    HW2 5182   1.415   2.787   2.313 -0.0070  0.2538 -0.1926
    1SOL    HW3 5183   1.354   2.648   2.302 -0.1704  0.3975 -1.1239
    1SOL    MW4 5184   1.353   2.729   2.335  0.3004 -0.0248 -0.0615
    1SOL     OW 5185   1.580   2.846   2.227 -0.2356  0.2274  0.2372
    1SOL    HW2 5186   1.598   2.938   2.245 -0.8040  0.3192  0.3425
    1SOL    HW3 5187   1.567   2.842   2.132 -2.2681  0.6182  0.4821
    1SOL    MW4 5188   1.580   2.858   2.217 -0.5788  0.2913  0.2832
    1SOL     OW 5189   1.567   3.111   2.335  0.5590  0.0728  0.0391
    1SOL    HW2 5190   1.581   3.095   2.429  0.3198 -2.2386 -0.2920
    1SOL    HW3 5191   1.472   3.121   2.327  0.3033 -2.2298 -0.2721
    1SOL    MW4 5192   1.556   3.110   2.347  0.4938 -0.5360 -0.0458
    1SOL     OW 5193   1.321   3.198   2.268 -0.1881 -0.1180  0.3298
    1SOL    HW2 5194   1.235   3.163   2.291  0.6077 -1.5054  1.2533
    1SOL    HW3 5195   1.320   3.203   2.173 -1.7248  1.0087  0.3906
    1SOL    MW4 5196   1.309   3.194   2.259 -0.2859 -0.1523  0.4597
    1SOL     OW 5197   1.340   3.458   2.372 -0.1095  0.0511  0.1290
    1SOL    HW2 5198   1.346   3.459   2.467 -0.3349 -0.9231  0.1617
    1SOL    HW3 5199   1.338   3.365   2.349 -0.8269  0.2766 -0.7732
    1SOL    MW4 5200   1.340   3.446   2.381 -0.2338 -0.0474  0.0143
    1SOL     OW 5201   1.546   3.611   2.270  0.1258  0.0570 -0.5687
    1SOL    HW2 5202   1.537   3.699   2.308  2.3655  0.0519  0.0879
    1SOL    HW3 5203   1.476   3.560   2.309  0.5212  0.8567  1.2184
    1SOL    MW4 5204   1.536   3.616   2.280  0.4735  0.1616 -0.2463
    1SOL     OW 5205   1.572   3.869   2.367 -0.0494 -0.5900 -0.5377
    1SOL    HW2 5206   1.578   3.885   2.461  1.0578 -1.7789 -0.3950
    1SOL    HW3 5207   1.644   3.921   2.329 -0.9212  0.4360 -0.8056
    1SOL    MW4 5208   1.582   3.878   2.374 -0.0185 -0.6115 -0.5541
    1SOL     OW 5209   1.361   4.017   2.248  0.3268  0.2144 -0.3486
    1SOL    HW2 5210   1.424   3.958   2.289 -0.5080  0.2888  1.0983
    1SOL    HW3 5211   1.366   3.998   2.155 -0.1805 -2.4025  0.1258
    1SOL    MW4 5212   1.370   4.007   2.241  0.1496 -0.1211 -0.0951
    1SOL     OW 5213   1.407   4.281   2.321 -0.0909  0.0230  0.1247
    1SOL    HW2 5214   1.397   4.186   2.309 -0.4522 -0.0555  1.0507
    1SOL    HW3 5215   1.318   4.315   2.316 -0.0838  0.1704  1.0384
    1SOL    MW4 5216   1.394   4.273   2.319 -0.1377  0.0324  0.3672
    1SOL     OW 5217   1.596   4.454   2.208  0.1918 -0.1602 -0.1538
    1SOL    HW2 5218   1.524   4.402   2.244  1.3196 -1.3548  0.4219
    1SOL    HW3 5219   1.598   4.533   2.262 -0.7110 -0.0932 -0.2103
    1SOL    MW4 5220   1.586   4.458   2.220  0.2215 -0.3090 -0.0854
    1SOL     OW 5221   2.018   4.639   2.397 -0.2840  0.4302 -0.0849
    1SOL    HW2 5222   2.092   4.687   2.360 -0.7740  0.8243 -0.5609
    1SOL    HW3 5223   2.026   4.551   2.358 -0.5026  0.6937 -0.7203
    1SOL    MW4 5224   2.029   4.634   2.387 -0.3774  0.5169 -0.2317
    1SOL     OW 5225   1.815   0.105   2.260  0.3021 -0.3551  0.5057
    1SOL    HW2 5226   1.809   0.195   2.293  0.0780 -0.4112  0.6142
    1SOL    HW3 5227   1.893   0.070   2.303  1.0937  0.1733 -0.4597
    1SOL    MW4 5228   1.825   0.112   2.270  0.3769 -0.2928  0.3927
    1SOL     OW 5229   1.770   0.390   2.337 -0.0169 -0.2209 -0.4842
    1SOL    HW2 5230   1.778   0.397   2.432 -0.7752 -1.5953 -0.3121
    1SOL    HW3 5231   1.851   0.428   2.303  0.8487 -0.9626  0.7513
    1SOL    MW4 5232   1.781   0.396   2.345 -0.0027 -0.5001 -0.2985
    1SOL     OW 5233   2.005   0.471   2.241  0.0877 -0.3997 -0.1233
    1SOL    HW2 5234   1.980   0.558   2.273  0.3897 -0.6586  0.8297
    1SOL    HW3 5235   2.025   0.484   2.148  0.3343  0.5931  0.0639
    1SOL    MW4 5236   2.005   0.484   2.233  0.1600 -0.3029  0.0272
    1SOL     OW 5237   1.977   0.752   2.337  0.0178  0.3920  0.2841
    1SOL    HW2 5238   2.054   0.794   2.298  0.9051 -0.5709  0.9846
    1SOL    HW3 5239   1.983   0.772   2.430  0.5624 -1.4361  0.6551
    1SOL    MW4 5240   1.988   0.760   2.344  0.2068  0.0237  0.4256
    1SOL     OW 5241   1.728   0.884   2.233  0.2554  0.1511 -0.3767
    1SOL    HW2 5242   1.750   0.971   2.265 -0.1127  0.2955 -0.5182
    1SOL    HW3 5243   1.800   0.829   2.263 -0.0025  0.3201  0.5582
    1SOL    MW4 5244   1.740   0.888   2.241  0.1729  0.1925 -0.2720
    1SOL     OW 5245   1.789   1.141   2.305 -0.3118 -0.1978 -0.2062
    1SOL    HW2 5246   1.869   1.187   2.278 -1.0286  0.7817 -0.6887
    1SOL    HW3 5247   1.718   1.200   2.280 -1.1313 -0.4292  1.4848
    1SOL    MW4 5248   1.790   1.155   2.298 -0.5146 -0.0992 -0.0465
    1SOL     OW 5249   2.026   1.287   2.256  0.1714 -0.6042 -0.5330
    1SOL    HW2 5250   2.037   1.377   2.285  0.0771 -0.1839 -1.7583
    1SOL    HW3 5251   2.110   1.245   2.274 -0.4444 -0.8381  1.9434
    1SOL    MW4 5252   2.038   1.293   2.262  0.0777 -0.5796 -0.3681
    1SOL     OW 5253   1.979   1.569   2.279  0.0559 -0.0760 -0.2897
    1SOL    HW2 5254   2.000   1.570   2.373  0.5311 -0.4644 -0.3851
    1SOL    HW3 5255   1.892   1.608   2.273 -0.8925 -1.9612  0.5442
    1SOL    MW4 5256   1.970   1.574   2.291 -0.0066 -0.3760 -0.1922
    1SOL     OW 5257   1.728   1.692   2.220 -0.0574  0.2928 -0.3001
    1SOL    HW2 5258   1.744   1.783   2.245 -0.2998  0.6458 -1.4145
    1SOL    HW3 5259   1.729   1.693   2.125  0.4633 -0.9754 -0.3121
    1SOL    MW4 5260   1.730   1.704   2.211 -0.0209  0.1721 -0.4482
    1SOL     OW 5261   1.792   1.948   2.341  0.2938  0.0308  0.0346
    1SOL    HW2 5262   1.823   1.950   2.432 -0.3772  3.0751  0.2430
    1SOL    HW3 5263   1.866   1.982   2.290  0.2577 -0.5947 -0.4358
    1SOL    MW4 5264   1.806   1.953   2.346  0.2005  0.3499  0.0000
    1SOL     OW 5265   2.017   2.069   2.241  0.0821  0.2504 -0.3168
    1SOL    HW2 5266   2.092   2.033   2.287 -0.1338  0.5455  0.2639
    1SOL    HW3 5267   2.051   2.091   2.154  0.2901 -1.0486 -0.5794
    1SOL    MW4 5268   2.032   2.067   2.235  0.0811  0.1183 -0.2749
    1SOL     OW 5269   1.978   2.323   2.389 -0.0552 -0.2629  0.2314
    1SOL    HW2 5270   2.042   2.386   2.356 -0.8019  0.9594  1.0767
    1SOL    HW3 5271   1.998   2.242   2.342  0.2539  0.8655 -1.6372
    1SOL    MW4 5272   1.989   2.321   2.378 -0.1130  0.0472  0.0963
    1SOL     OW 5273   1.763   2.400   2.218  0.1025  0.2517 -0.0359
    1SOL    HW2 5274   1.838   2.365   2.267 -0.6267 -0.6053  0.4786
    1SOL    HW3 5275   1.687   2.358   2.257 -0.5776  0.3674 -1.2084
    1SOL    MW4 5276   1.763   2.390   2.229 -0.0834  0.1538 -0.1228
    1SOL     OW 5277   1.770   2.686   2.332  0.1264 -0.3481  0.2855
    1SOL    HW2 5278   1.766   2.610   2.274  0.9425 -0.3990  0.2941
    1SOL    HW3 5279   1.699   2.743   2.301  0.5456 -0.3764 -0.7656
    1SOL    MW4 5280   1.760   2.683   2.320  0.2893 -0.3583  0.1478
    1SOL     OW 5281   2.002   2.849   2.237  0.0280 -0.2415 -0.0639
    1SOL    HW2 5282   2.074   2.820   2.292 -0.4450 -0.7657  0.2860
    1SOL    HW3 5283   1.929   2.793   2.261  0.0245 -1.0270 -1.8332
    1SOL    MW4 5284   2.002   2.838   2.247 -0.0348 -0.4144 -0.2515
    1SOL     OW 5285   2.002   3.104   2.353 -0.4386 -0.1646 -0.1157
    1SOL    HW2 5286   2.079   3.139   2.309  0.0693  0.1216  0.9654
    1SOL    HW3 5287   1.989   3.018   2.315  1.5865 -1.0035  1.0533
    1SOL    MW4 5288   2.010   3.098   2.343 -0.1047 -0.2375  0.1814
    1SOL     OW 5289   1.792   3.258   2.234  0.7391  0.3372  0.3855
    1SOL    HW2 5290   1.870   3.215   2.269  0.1110  1.3012  3.1085
    1SOL    HW3 5291   1.719   3.212   2.276 -0.0434  1.6924  0.5219
    1SOL    MW4 5292   1.793   3.246   2.244  0.5530  0.6435  0.7627
    1SOL     OW 5293   1.789   3.494   2.351  0.1245  0.2921 -0.2043
    1SOL    HW2 5294   1.780   3.406   2.314  0.7881  0.0833  0.1142
    1SOL    HW3 5295   1.711   3.541   2.322 -0.0505 -0.2934 -0.6870
    1SOL    MW4 5296   1.778   3.489   2.342  0.1891  0.1874 -0.2258
    1SOL     OW 5297   2.028   3.612   2.253  0.3237 -0.1946  0.0225
    1SOL    HW2 5298   1.943   3.578   2.283 -0.1619  1.7300  0.8613
    1SOL    HW3 5299   2.025   3.601   2.158 -1.8043  1.9176 -0.1930
    1SOL    MW4 5300   2.016   3.606   2.244 -0.0212  0.3378  0.1047
    1SOL     OW 5301   2.015   3.876   2.360 -0.0562  0.2301 -0.1703
    1SOL    HW2 5302   2.026   3.863   2.454  3.6748  0.2886 -0.5439
    1SOL    HW3 5303   2.023   3.789   2.322  1.6922  0.6054 -0.6922
    1SOL    MW4 5304   2.018   3.863   2.367  0.6669  0.2873 -0.2882
    1SOL     OW 5305   1.782   4.013   2.256 -0.3360  0.1764 -0.3788
    1SOL    HW2 5306   1.854   3.955   2.279 -0.0214  1.3022  1.5586
    1SOL    HW3 5307   1.784   4.017   2.160  1.8967 -0.1519 -0.3673
    1SOL    MW4 5308   1.792   4.006   2.246  0.0001  0.2813 -0.1218
    1SOL     OW 5309   1.787   4.268   2.356  0.1886  0.3369  0.3279
    1SOL    HW2 5310   1.780   4.176   2.332 -0.5590  0.4035  0.2834
    1SOL    HW3 5311   1.719   4.311   2.305  0.4663  0.8978  0.4285
    1SOL    MW4 5312   1.777   4.262   2.346  0.1267  0.4201  0.3352
    1SOL     OW 5313   2.023   4.359   2.246 -0.0699 -0.6452  0.3077
    1SOL    HW2 5314   1.933   4.334   2.270  0.2071 -0.7783  1.2586
    1SOL    HW3 5315   2.022   4.365   2.151 -0.8059 -1.7598  0.2312
    1SOL    MW4 5316   2.011   4.357   2.237 -0.1304 -0.8101  0.4230
    1SOL     OW 5317   2.487   4.614   2.338 -0.0614 -0.4511  0.0508
    1SOL    HW2 5318   2.553   4.671   2.298  0.8978 -0.5116  1.5176
    1SOL    HW3 5319   2.495   4.532   2.289  0.7045 -0.3447 -0.0230
    1SOL    MW4 5320   2.497   4.611   2.326  0.1662 -0.4449  0.2346
    1SOL     OW 5321   2.255   0.078   2.276  0.1781 -0.1975 -0.0172
    1SOL    HW2 5322   2.266   0.171   2.294 -1.3947  0.0691 -0.2827
    1SOL    HW3 5323   2.337   0.037   2.304  0.4436  1.1146  1.1691
    1SOL    MW4 5324   2.267   0.085   2.282  0.0057  0.0108  0.1042
    1SOL     OW 5325   2.255   0.365   2.308  0.2937 -0.2047 -0.2566
    1SOL    HW2 5326   2.170   0.409   2.300  0.7678  0.4967 -1.4937
    1SOL    HW3 5327   2.316   0.422   2.263  1.1728 -1.4317 -0.6391
    1SOL    MW4 5328   2.252   0.378   2.301  0.4723 -0.2740 -0.4704
    1SOL     OW 5329   2.477   0.510   2.238  0.3848 -0.2269  0.1226
    1SOL    HW2 5330   2.549   0.457   2.274  1.0918  0.0230 -0.8995
    1SOL    HW3 5331   2.491   0.510   2.144 -0.9997 -0.2058 -0.0927
    1SOL    MW4 5332   2.489   0.503   2.230  0.2954 -0.1912 -0.0410
    1SOL     OW 5333   2.460   0.789   2.333  0.4926 -0.1923 -0.2016
    1SOL    HW2 5334   2.543   0.824   2.301  1.3333 -1.3678  0.6138
    1SOL    HW3 5335   2.459   0.698   2.302 -0.2746 -0.3127  0.1723
    1SOL    MW4 5336   2.471   0.781   2.325  0.5021 -0.3632 -0.0446
    1SOL     OW 5337   2.225   0.903   2.221  0.4426  0.3801  0.1109
    1SOL    HW2 5338   2.226   0.993   2.254  0.8989  0.3784  0.0989
    1SOL    HW3 5339   2.309   0.866   2.249 -1.5117 -1.4544  3.9902
    1SOL    MW4 5340   2.236   0.910   2.229  0.2449  0.1379  0.6213
    1SOL     OW 5341   2.263   1.159   2.308  0.2343 -0.1831  0.0860
    1SOL    HW2 5342   2.341   1.202   2.272 -0.1736 -0.4685 -1.1266
    1SOL    HW3 5343   2.279   1.158   2.403  2.0477 -0.9115 -0.2016
    1SOL    MW4 5344   2.275   1.165   2.316  0.4199 -0.3169 -0.1118
    1SOL     OW 5345   2.485   1.301   2.199 -0.1264  0.4809  0.0519
    1SOL    HW2 5346   2.563   1.256   2.231  0.0992  1.0580  0.3108
    1SOL    HW3 5347   2.484   1.385   2.246 -0.0020  1.1716 -1.1679
    1SOL    MW4 5348   2.495   1.306   2.210 -0.0801  0.6483 -0.0749
    1SOL     OW 5349   2.444   1.549   2.304  0.1428 -0.0333 -0.1436
    1SOL    HW2 5350   2.453   1.570   2.397 -0.6320 -0.1342 -0.0426
    1SOL    HW3 5351   2.517   1.594   2.262  0.1649  0.4769  0.4397
    1SOL    MW4 5352   2.455   1.557   2.311  0.0436  0.0206 -0.0534
    1SOL     OW 5353   2.219   1.667   2.193 -0.0151  0.0065 -0.2614
    1SOL    HW2 5354   2.281   1.620   2.249  0.1339  1.6280  0.9596
    1SOL    HW3 5355   2.134   1.626   2.212  0.4546 -1.3226 -0.9511
    1SOL    MW4 5356   2.216   1.655   2.203  0.0665  0.0451 -0.1912
    1SOL     OW 5357   2.246   1.919   2.308 -0.1086 -0.3693  0.1744
    1SOL    HW2 5358   2.309   1.970   2.258 -0.3901  0.0053  0.1993
    1SOL    HW3 5359   2.238   1.836   2.260  0.8609 -0.6626  0.5069
    1SOL    MW4 5360   2.253   1.914   2.295 -0.0176 -0.3587  0.2217
    1SOL     OW 5361   2.458   2.073   2.236 -0.0735 -0.5295 -0.0916
    1SOL    HW2 5362   2.530   2.018   2.268 -0.7960 -1.3216  0.2022
    1SOL    HW3 5363   2.456   2.057   2.142  0.6249  0.0945 -0.2218
    1SOL    MW4 5364   2.468   2.064   2.228 -0.0768 -0.5519 -0.0701
    1SOL     OW 5365   2.418   2.308   2.353 -0.5078  0.5392  0.1971
    1SOL    HW2 5366   2.500   2.354   2.336 -1.1456  1.0083 -1.7320
    1SOL    HW3 5367   2.427   2.225   2.307 -0.2286 -0.3824  1.8732
    1SOL    MW4 5368   2.430   2.303   2.345 -0.5550  0.4795  0.1638
    1SOL     OW 5369   2.185   2.472   2.269  0.0290  0.0429  0.2496
    1SOL    HW2 5370   2.195   2.560   2.305  0.2808 -0.8065  2.3286
    1SOL    HW3 5371   2.265   2.425   2.295 -0.9703 -1.3536  0.9213
    1SOL    MW4 5372   2.197   2.477   2.277 -0.0699 -0.2534  0.6127
    1SOL     OW 5373   2.218   2.725   2.354  0.0427 -0.6675 -0.0574
    1SOL    HW2 5374   2.242   2.711   2.445 -0.4802 -0.3498  0.1314
    1SOL    HW3 5375   2.298   2.756   2.312 -0.2033  1.0284  0.7066
    1SOL    MW4 5376   2.231   2.727   2.360 -0.0589 -0.4020  0.0682
    1SOL     OW 5377   2.436   2.840   2.238 -0.3380  0.0548  0.5087
    1SOL    HW2 5378   2.523   2.802   2.250 -0.8943 -1.4503 -0.1056
    1SOL    HW3 5379   2.429   2.856   2.144 -0.2714  1.3100  0.7084
    1SOL    MW4 5380   2.446   2.837   2.227 -0.4029  0.0219  0.4542
    1SOL     OW 5381   2.417   3.077   2.375  0.3811 -0.3024  0.2476
    1SOL    HW2 5382   2.502   3.115   2.352  0.0651  1.2859  1.6422
    1SOL    HW3 5383   2.417   2.992   2.331  2.7346 -0.3625  0.2733
    1SOL    MW4 5384   2.428   3.070   2.366  0.6502 -0.1009  0.4351
    1SOL     OW 5385   2.240   3.217   2.229  0.0094  0.3481  0.2663
    1SOL    HW2 5386   2.241   3.301   2.274  1.1116  0.4126  0.1147
    1SOL    HW3 5387   2.302   3.163   2.277 -1.0440 -0.5364  0.6526
    1SOL    MW4 5388   2.248   3.221   2.241  0.0155  0.2398  0.2973
    1SOL     OW 5389   2.266   3.447   2.363 -0.2083 -0.3531 -0.0985
    1SOL    HW2 5390   2.269   3.454   2.458 -0.1970 -2.0459  0.0298
    1SOL    HW3 5391   2.193   3.504   2.337  1.1157  1.7794  0.7351
    1SOL    MW4 5392   2.257   3.456   2.372 -0.0319 -0.2952  0.0286
    1SOL     OW 5393   2.493   3.579   2.269  0.0919 -0.3369  0.2250
    1SOL    HW2 5394   2.469   3.669   2.293 -1.6936 -0.7005 -0.1406
    1SOL    HW3 5395   2.421   3.525   2.301 -0.3127 -1.3069 -2.1592
    1SOL    MW4 5396   2.481   3.584   2.276 -0.1969 -0.5131 -0.1380
    1SOL     OW 5397   2.438   3.837   2.348  0.4547 -0.2143  0.2569
    1SOL    HW2 5398   2.418   3.833   2.442  0.0116 -2.3780  0.0969
    1SOL    HW3 5399   2.369   3.892   2.311  0.2267  0.0704  1.0889
    1SOL    MW4 5400   2.427   3.844   2.355  0.3664 -0.4621  0.3457
    1SOL     OW 5401   2.236   4.002   2.248 -0.3419 -0.3186 -0.3095
    1SOL    HW2 5402   2.250   4.090   2.281  0.0349 -0.5883  0.2595
    1SOL    HW3 5403   2.157   3.972   2.292 -1.3112  0.2727 -1.6151
    1SOL    MW4 5404   2.228   4.009   2.258 -0.4201 -0.2766 -0.4067
    1SOL     OW 5405   2.253   4.272   2.359  0.1350  0.2570  0.1798
    1SOL    HW2 5406   2.253   4.297   2.452  0.1838 -0.6242  0.4217
    1SOL    HW3 5407   2.167   4.300   2.327 -0.4096 -0.6152  0.8257
    1SOL    MW4 5408   2.241   4.279   2.367  0.0699  0.0253  0.2971
    1SOL     OW 5409   2.495   4.364   2.224  0.0137  0.6287 -0.0757
    1SOL    HW2 5410   2.575   4.341   2.271  0.2555  1.1863 -0.2112
    1SOL    HW3 5411   2.425   4.322   2.275  0.2208  1.6546  1.0861
    1SOL    MW4 5412   2.496   4.355   2.237  0.0732  0.8373  0.0598
    1SOL     OW 5413   2.904   4.657   2.315  0.1107  0.1864 -0.0504
    1SOL    HW2 5414   2.992   4.693   2.308  0.3136 -0.2497  0.2683
    1SOL    HW3 5415   2.913   4.566   2.288 -0.2178  0.1029  0.1162
    1SOL    MW4 5416   2.917   4.650   2.310  0.0942  0.1178  0.0138
    1SOL     OW 5417   2.691   0.120   2.219  0.1988 -0.3537 -0.1746
    1SOL    HW2 5418   2.688   0.200   2.273 -0.1319  0.2109 -1.0309
    1SOL    HW3 5419   2.769   0.074   2.250  0.2509  0.1750  0.5008
    1SOL    MW4 5420   2.701   0.124   2.230  0.1621 -0.2095 -0.1984
    1SOL     OW 5421   2.691   0.362   2.362  0.2870  0.4556  0.1778
    1SOL    HW2 5422   2.696   0.367   2.458  0.7737  1.0994  0.1244
    1SOL    HW3 5423   2.766   0.413   2.332  0.0436  0.3843 -0.5517
    1SOL    MW4 5424   2.702   0.369   2.371  0.3190  0.5311  0.0746
    1SOL     OW 5425   2.922   0.520   2.286 -0.5028  0.3124  0.3317
    1SOL    HW2 5426   2.949   0.609   2.310 -1.5495  0.9070 -0.6242
    1SOL    HW3 5427   2.914   0.522   2.190 -0.9423 -0.6947  0.3375
    1SOL    MW4 5428   2.924   0.532   2.276 -0.6988  0.2580  0.2062
    1SOL     OW 5429   2.940   0.784   2.314 -0.4118 -0.3413  0.0029
    1SOL    HW2 5430   2.930   0.798   2.408 -0.8567  0.9611 -0.2337
    1SOL    HW3 5431   2.851   0.790   2.279 -0.0893  0.5587 -0.6816
    1SOL    MW4 5432   2.927   0.786   2.321 -0.4280 -0.0507 -0.1187
    1SOL     OW 5433   2.706   0.906   2.219 -0.1344 -0.0944  0.2437
    1SOL    HW2 5434   2.730   0.994   2.247  1.1805 -0.7833  1.3170
    1SOL    HW3 5435   2.705   0.911   2.123 -0.3858  1.1606  0.2998
    1SOL    MW4 5436   2.709   0.918   2.210  0.0057 -0.0197  0.3927
    1SOL     OW 5437   2.719   1.173   2.275 -0.0635 -0.2269  0.2339
    1SOL    HW2 5438   2.746   1.172   2.367  0.4116  1.0929  0.1113
    1SOL    HW3 5439   2.786   1.224   2.230 -0.4398 -0.6312 -0.8090
    1SOL    MW4 5440   2.731   1.180   2.282 -0.0505 -0.1060  0.0801
    1SOL     OW 5441   2.947   1.333   2.189  0.2710  0.1182  0.0373
    1SOL    HW2 5442   3.017   1.290   2.238  2.0380  0.5788 -1.9915
    1SOL    HW3 5443   2.953   1.296   2.101 -0.8232  1.5448 -0.6711
    1SOL    MW4 5444   2.957   1.322   2.184  0.3598  0.3673 -0.3238
    1SOL     OW 5445   2.894   1.571   2.351 -0.1300 -0.5069 -0.2091
    1SOL    HW2 5446   2.913   1.560   2.444  0.5762  0.0425 -0.2876
    1SOL    HW3 5447   2.922   1.489   2.310  0.4233 -0.3838 -0.0731
    1SOL    MW4 5448   2.900   1.558   2.358  0.0360 -0.4183 -0.2015
    1SOL     OW 5449   2.677   1.676   2.222 -0.0348 -0.4082 -0.2100
    1SOL    HW2 5450   2.755   1.632   2.258  0.8287  0.1338 -1.3926
    1SOL    HW3 5451   2.693   1.680   2.128 -1.6464 -0.5612 -0.5058
    1SOL    MW4 5452   2.690   1.671   2.214 -0.1335 -0.3569 -0.4051
    1SOL     OW 5453   2.677   1.939   2.326  0.1422 -0.0245  0.1497
    1SOL    HW2 5454   2.687   1.911   2.417  2.3275  0.4262  0.0716
    1SOL    HW3 5455   2.675   1.857   2.276  0.0804 -0.2305  0.4903
    1SOL    MW4 5456   2.678   1.924   2.331  0.4225  0.0077  0.1843
    1SOL     OW 5457   2.918   2.083   2.257  0.1082 -0.4041 -0.2632
    1SOL    HW2 5458   2.995   2.040   2.294 -0.3217  0.7339  2.0289
    1SOL    HW3 5459   2.843   2.039   2.297 -0.4145 -0.2477 -1.0411
    1SOL    MW4 5460   2.918   2.072   2.267 -0.0176 -0.2332 -0.0634
    1SOL     OW 5461   2.929   2.347   2.340  0.4741  0.5626 -0.1103
    1SOL    HW2 5462   2.927   2.341   2.436 -2.7876  0.6302 -0.1366
    1SOL    HW3 5463   2.920   2.257   2.310  0.3886  0.6617 -0.3813
    1SOL    MW4 5464   2.928   2.335   2.349  0.0324  0.5846 -0.1495
    1SOL     OW 5465   2.659   2.448   2.297  0.1436 -0.1219 -0.0777
    1SOL    HW2 5466   2.748   2.422   2.320  0.5667  1.1910 -0.2010
    1SOL    HW3 5467   2.659   2.449   2.202 -0.1002 -0.4701 -0.0791
    1SOL    MW4 5468   2.671   2.445   2.288  0.1674  0.0052 -0.0944
    1SOL     OW 5469   2.671   2.722   2.329 -0.0779  0.2210 -0.0321
    1SOL    HW2 5470   2.753   2.756   2.292 -1.3336  1.1956 -2.0540
    1SOL    HW3 5471   2.676   2.628   2.316  0.4361  0.3444 -0.8165
    1SOL    MW4 5472   2.683   2.714   2.322 -0.1757  0.3660 -0.4022
    1SOL     OW 5473   2.891   2.830   2.222  0.0228  0.1225 -0.0453
    1SOL    HW2 5474   2.907   2.914   2.267 -0.4423 -0.6476  1.6013
    1SOL    HW3 5475   2.884   2.853   2.130  0.6170  1.8148  0.3171
    1SOL    MW4 5476   2.892   2.844   2.216  0.0401  0.2441  0.2198
    1SOL     OW 5477   2.917   3.085   2.335  0.3709 -0.1124  0.0029
    1SOL    HW2 5478   2.915   3.076   2.430  0.5750 -2.0698 -0.1581
    1SOL    HW3 5479   2.834   3.127   2.313  0.5529  0.8351  1.0720
    1SOL    MW4 5480   2.906   3.089   2.344  0.4218 -0.2456  0.1225
    1SOL     OW 5481   2.669   3.210   2.300  0.5994  0.2891 -0.3590
    1SOL    HW2 5482   2.677   3.299   2.333  1.3434 -0.2884  1.0275
    1SOL    HW3 5483   2.669   3.220   2.204 -0.9521  1.9050 -0.2193
    1SOL    MW4 5484   2.670   3.223   2.291  0.4928  0.4263 -0.1576
    1SOL     OW 5485   2.724   3.474   2.376  0.4333  0.2983 -0.2988
    1SOL    HW2 5486   2.797   3.517   2.332  1.2790 -1.0424 -0.2151
    1SOL    HW3 5487   2.646   3.519   2.343  1.1161 -0.0394 -2.4052
    1SOL    MW4 5488   2.723   3.486   2.366  0.6347  0.0768 -0.5658
    1SOL     OW 5489   2.953   3.612   2.258  0.3217  0.0163  0.1868
    1SOL    HW2 5490   3.026   3.577   2.310 -0.9185  0.3628  2.2062
    1SOL    HW3 5491   2.934   3.697   2.297 -0.8122  0.1543 -0.6507
    1SOL    MW4 5492   2.960   3.618   2.270  0.0083  0.0803  0.3426
    1SOL     OW 5493   2.887   3.857   2.358  0.3301 -0.2268  0.3471
    1SOL    HW2 5494   2.895   3.855   2.453 -0.0495  2.0125  0.4485
    1SOL    HW3 5495   2.813   3.915   2.340 -0.3487 -1.5391 -1.2956
    1SOL    MW4 5496   2.879   3.865   2.368  0.1903 -0.1047  0.1438
    1SOL     OW 5497   2.662   3.999   2.294  0.5505  0.2597  0.4479
    1SOL    HW2 5498   2.574   3.962   2.302  0.1624  1.5758  2.7519
    1SOL    HW3 5499   2.675   4.010   2.200 -2.9444  2.7627  0.1771
    1SOL    MW4 5500   2.652   3.996   2.283  0.0381  0.7637  0.7162
    1SOL     OW 5501   2.724   4.261   2.350  0.1487  0.0864 -0.0522
    1SOL    HW2 5502   2.708   4.275   2.443  1.0453  0.3436  0.0637
    1SOL    HW3 5503   2.700   4.169   2.335  0.6339 -0.1442  0.5742
    1SOL    MW4 5504   2.719   4.250   2.360  0.3309  0.0896  0.0455
    1SOL     OW 5505   2.925   4.384   2.204 -0.3326 -0.0709 -0.4992
    1SOL    HW2 5506   2.995   4.345   2.256 -0.3428 -0.8211 -1.0384
    1SOL    HW3 5507   2.844   4.349   2.240 -0.3694 -0.1207 -0.6284
    1SOL    MW4 5508   2.924   4.374   2.215 -0.3388 -0.1764 -0.5877
    1SOL     OW 5509   3.359   4.660   2.344 -0.1223 -0.2145  0.0749
    1SOL    HW2 5510   3.371   4.666   2.439 -1.3846 -0.2067  0.2374
    1SOL    HW3 5511   3.432   4.711   2.308  1.0095 -1.1523  1.0059
    1SOL    MW4 5512   3.370   4.668   2.352 -0.1397 -0.3371  0.2191
    1SOL     OW 5513   3.138   0.113   2.232  0.7498  0.2808  0.1454
    1SOL    HW2 5514   3.131   0.206   2.256  0.5809 -0.2169  2.1220
    1SOL    HW3 5515   3.214   0.081   2.282 -1.0345 -1.3388  1.9265
    1SOL    MW4 5516   3.147   0.121   2.242  0.4921  0.0015  0.6409
    1SOL     OW 5517   3.154   0.365   2.340  0.0976 -0.0975 -0.3023
    1SOL    HW2 5518   3.223   0.418   2.300  0.4881 -0.6550 -0.3728
    1SOL    HW3 5519   3.073   0.413   2.321  0.4722  0.6498 -0.0723
    1SOL    MW4 5520   3.153   0.379   2.333  0.1986 -0.0724 -0.2813
    1SOL     OW 5521   3.372   0.526   2.241 -0.4815 -0.2567  0.0308
    1SOL    HW2 5522   3.445   0.476   2.278 -0.6659 -1.5550 -1.3038
    1SOL    HW3 5523   3.383   0.517   2.146 -2.6743 -0.9420 -0.1884
    1SOL    MW4 5524   3.383   0.518   2.233 -0.7951 -0.5184 -0.1743
    1SOL     OW 5525   3.382   0.772   2.351 -0.1535 -0.3043  0.3962
    1SOL    HW2 5526   3.459   0.812   2.311 -0.9122 -0.3380 -1.1276
    1SOL    HW3 5527   3.376   0.685   2.311 -0.6588 -0.5191  0.9248
    1SOL    MW4 5528   3.391   0.765   2.340 -0.3202 -0.3371  0.2649
    1SOL     OW 5529   3.171   0.902   2.224 -0.0329  0.2412  0.4199
    1SOL    HW2 5530   3.245   0.852   2.258  0.4268  0.7642  0.1861
    1SOL    HW3 5531   3.094   0.848   2.245  0.4147 -0.3233  0.6157
    1SOL    MW4 5532   3.170   0.888   2.231  0.0870  0.2357  0.4151
    1SOL     OW 5533   3.140   1.157   2.350  0.4913  0.2161 -0.2111
    1SOL    HW2 5534   3.217   1.195   2.308  0.2727 -0.1377 -0.9303
    1SOL    HW3 5535   3.134   1.069   2.314 -1.2638  0.8285 -1.5038
    1SOL    MW4 5536   3.150   1.151   2.340  0.2308  0.2502 -0.4766
    1SOL     OW 5537   3.373   1.272   2.247  0.5851  0.1331  0.2401
    1SOL    HW2 5538   3.459   1.254   2.284  0.0423  0.5956  1.7615
    1SOL    HW3 5539   3.348   1.357   2.283 -0.7018 -0.1979  0.1794
    1SOL    MW4 5540   3.381   1.281   2.257  0.3436  0.1504  0.4327
    1SOL     OW 5541   3.350   1.528   2.349 -0.1662  0.2023 -0.5127
    1SOL    HW2 5542   3.361   1.533   2.444 -0.9311  1.2255 -0.4586
    1SOL    HW3 5543   3.265   1.570   2.333 -0.5694 -0.9735 -1.5409
    1SOL    MW4 5544   3.340   1.535   2.359 -0.3204  0.1823 -0.6411
    1SOL     OW 5545   3.133   1.702   2.241 -0.3534 -0.0520  0.1147
    1SOL    HW2 5546   3.156   1.787   2.278 -0.8642  0.0506  0.1972
    1SOL    HW3 5547   3.056   1.673   2.290 -0.7661 -0.1193 -0.5536
    1SOL    MW4 5548   3.126   1.709   2.252 -0.4754 -0.0473  0.0377
    1SOL     OW 5549   3.149   1.952   2.362 -0.0644  0.2622  0.1677
    1SOL    HW2 5550   3.160   1.948   2.457  0.1989  0.0524  0.1304
    1SOL    HW3 5551   3.223   2.005   2.332 -0.1955  0.4012  0.0860
    1SOL    MW4 5552   3.160   1.959   2.371 -0.0470  0.2528  0.1521
    1SOL     OW 5553   3.379   2.093   2.268 -0.1019 -0.3989 -0.4947
    1SOL    HW2 5554   3.453   2.043   2.303 -0.4447 -0.0625  0.7620
    1SOL    HW3 5555   3.363   2.056   2.181  2.5452  0.5616 -1.4344
    1SOL    MW4 5556   3.387   2.082   2.261  0.2022 -0.2279 -0.4528
    1SOL     OW 5557   3.381   2.356   2.324 -0.3833  0.1023 -0.3160
    1SOL    HW2 5558   3.305   2.398   2.284 -0.7760  0.0594  0.3764
    1SOL    HW3 5559   3.368   2.263   2.310 -1.4773 -0.0491  1.5448
    1SOL    MW4 5560   3.370   2.350   2.317 -0.5794  0.0765  0.0207
    1SOL     OW 5561   3.135   2.444   2.192  0.0601 -0.3095  0.2133
    1SOL    HW2 5562   3.129   2.537   2.214  0.0683 -0.1908 -0.2769
    1SOL    HW3 5563   3.067   2.402   2.245  0.0303 -0.0176  0.4063
    1SOL    MW4 5564   3.125   2.450   2.202  0.0572 -0.2553  0.1743
    1SOL     OW 5565   3.139   2.709   2.272 -0.1592  0.4657  0.2643
    1SOL    HW2 5566   3.134   2.709   2.367 -1.8189 -0.4516  0.1836
    1SOL    HW3 5567   3.062   2.759   2.243  0.3051  0.7018 -0.5962
    1SOL    MW4 5568   3.128   2.716   2.281 -0.3171  0.3762  0.1402
    1SOL     OW 5569   3.377   2.839   2.210  0.7979 -0.3420 -0.2701
    1SOL    HW2 5570   3.351   2.919   2.255 -0.1813 -0.8240  0.0451
    1SOL    HW3 5571   3.304   2.778   2.225  0.9425 -0.8684 -1.5880
    1SOL    MW4 5572   3.364   2.842   2.218  0.6878 -0.4749 -0.4025
    1SOL     OW 5573   3.321   3.079   2.347  0.7593 -0.4469  0.6594
    1SOL    HW2 5574   3.404   3.103   2.306  0.0159 -1.6765 -1.6356
    1SOL    HW3 5575   3.258   3.142   2.312  0.2549 -1.0778  0.4207
    1SOL    MW4 5576   3.323   3.091   2.337  0.5946 -0.6926  0.3250
    1SOL     OW 5577   3.130   3.242   2.254  0.1885 -0.3800 -0.5311
    1SOL    HW2 5578   3.127   3.327   2.299  1.1112 -0.7645  0.2788
    1SOL    HW3 5579   3.049   3.198   2.281  0.8544 -0.7056  0.9936
    1SOL    MW4 5580   3.119   3.247   2.264  0.3982 -0.4735 -0.2232
    1SOL     OW 5581   3.143   3.469   2.406 -0.4270 -0.0436  0.0277
    1SOL    HW2 5582   3.131   3.474   2.501  2.0930 -1.4641  0.4490
    1SOL    HW3 5583   3.215   3.529   2.388 -0.1621 -0.6190 -0.8485
    1SOL    MW4 5584   3.151   3.478   2.416 -0.0598 -0.3071 -0.0322
    1SOL     OW 5585   3.323   3.632   2.246 -0.4476 -0.2412  0.0855
    1SOL    HW2 5586   3.407   3.587   2.258 -0.3887 -0.3541 -0.7200
    1SOL    HW3 5587   3.315   3.644   2.151 -1.6439 -0.8232  0.1002
    1SOL    MW4 5588   3.333   3.627   2.235 -0.5980 -0.3331 -0.0188
    1SOL     OW 5589   3.364   3.895   2.357 -0.0239 -0.4201 -0.0337
    1SOL    HW2 5590   3.454   3.914   2.329  0.7027 -0.5388  2.0587
    1SOL    HW3 5591   3.340   3.815   2.310  0.4835  0.3162 -1.5754
    1SOL    MW4 5592   3.373   3.887   2.347  0.1392 -0.3388  0.0391
    1SOL     OW 5593   3.106   4.013   2.278 -0.1150 -0.0982 -0.0158
    1SOL    HW2 5594   3.183   3.974   2.321  1.1591  1.0282 -1.1942
    1SOL    HW3 5595   3.035   3.952   2.295  1.2446 -1.6069  0.3946
    1SOL    MW4 5596   3.107   4.000   2.286  0.2327 -0.1485 -0.1173
    1SOL     OW 5597   3.130   4.269   2.378 -0.1946  1.0034 -0.0194
    1SOL    HW2 5598   3.212   4.299   2.338  0.4245 -1.0770 -0.3790
    1SOL    HW3 5599   3.119   4.180   2.346 -2.6904  1.2942 -0.0712
    1SOL    MW4 5600   3.139   4.261   2.369 -0.4425  0.7682 -0.0737
    1SOL     OW 5601   3.359   4.374   2.276  0.0811 -0.0932 -0.1089
    1SOL    HW2 5602   3.372   4.466   2.301  0.6119 -0.1799 -0.0548
    1SOL    HW3 5603   3.347   4.378   2.181 -3.0499  0.3510  0.2365
    1SOL    MW4 5604   3.359   4.387   2.267 -0.2620 -0.0463 -0.0563
    1SOL     OW 5605   3.799   4.657   2.348  0.7031  0.7192  0.3503
    1SOL    HW2 5606   3.820   4.637   2.438  0.7242 -0.5221  0.0690
    1SOL    HW3 5607   3.873   4.709   2.317  1.9825 -1.1326  0.2441
    1SOL    MW4 5608   3.812   4.662   2.355  0.8745  0.3109  0.2990
    1SOL     OW 5609   3.586   0.122   2.244 -0.0509  0.0272  0.0250
    1SOL    HW2 5610   3.580   0.212   2.277 -0.8343 -0.4238  1.1654
    1SOL    HW3 5611   3.657   0.083   2.296 -0.1456 -0.2033 -0.0205
    1SOL    MW4 5612   3.595   0.129   2.255 -0.1667 -0.0627  0.1695
    1SOL     OW 5613   3.569   0.384   2.360  0.3730  0.1947 -0.0591
    1SOL    HW2 5614   3.575   0.370   2.454 -1.4136 -0.9464 -0.0970
    1SOL    HW3 5615   3.648   0.433   2.338  1.0376  0.0617  1.9506
    1SOL    MW4 5616   3.580   0.388   2.369  0.2248  0.0266  0.2010
    1SOL     OW 5617   3.807   0.507   2.293  0.2426 -0.2727 -0.0645
    1SOL    HW2 5618   3.817   0.602   2.301 -0.3476 -0.1639 -0.5181
    1SOL    HW3 5619   3.813   0.490   2.199  0.9238 -0.7584  0.0637
    1SOL    MW4 5620   3.809   0.517   2.281  0.2546 -0.3224 -0.1073
    1SOL     OW 5621   3.800   0.782   2.335  0.5275 -0.1951  0.0908
    1SOL    HW2 5622   3.794   0.787   2.430  1.7791  1.2455  0.1211
    1SOL    HW3 5623   3.891   0.807   2.316  0.1393  0.0470 -1.5106
    1SOL    MW4 5624   3.811   0.786   2.345  0.6411  0.0269 -0.1163
    1SOL     OW 5625   3.580   0.920   2.247  0.0153 -0.3345 -0.5018
    1SOL    HW2 5626   3.665   0.881   2.265  1.3137  1.6211 -2.2198
    1SOL    HW3 5627   3.574   0.923   2.152 -1.7100  0.1678 -0.4029
    1SOL    MW4 5628   3.590   0.915   2.237 -0.0410 -0.0103 -0.7155
    1SOL     OW 5629   3.625   1.166   2.346  0.5613 -0.3160 -0.4347
    1SOL    HW2 5630   3.604   1.175   2.439  0.7890  0.5840 -0.4667
    1SOL    HW3 5631   3.606   1.074   2.326  0.1920 -0.4311  0.4184
    1SOL    MW4 5632   3.620   1.155   2.355  0.5426 -0.2124 -0.3266
    1SOL     OW 5633   3.848   1.286   2.212 -0.3687  0.1371 -0.0535
    1SOL    HW2 5634   3.848   1.379   2.234 -1.2618 -0.2154  1.4908
    1SOL    HW3 5635   3.767   1.251   2.251  0.4912 -1.4992  0.3370
    1SOL    MW4 5636   3.837   1.293   2.220 -0.3729 -0.1253  0.2017
    1SOL     OW 5637   3.813   1.526   2.336 -0.7129 -0.4366  0.3353
    1SOL    HW2 5638   3.834   1.526   2.430 -0.0242  0.9088  0.1928
    1SOL    HW3 5639   3.728   1.571   2.331 -0.1472  0.6327  0.1985
    1SOL    MW4 5640   3.805   1.532   2.348 -0.5476 -0.1180  0.2983
    1SOL     OW 5641   3.581   1.671   2.287 -0.0717  0.1744 -0.0447
    1SOL    HW2 5642   3.509   1.615   2.315  0.4674 -0.7365 -0.4647
    1SOL    HW3 5643   3.570   1.680   2.193  0.8385 -0.6602 -0.2397
    1SOL    MW4 5644   3.570   1.665   2.279  0.1194 -0.0558 -0.1259
    1SOL     OW 5645   3.605   1.941   2.365  0.1918 -0.5313 -0.1588
    1SOL    HW2 5646   3.668   1.975   2.301 -1.0602 -0.0950 -1.1744
    1SOL    HW3 5647   3.603   1.847   2.347  1.4925 -0.7512  0.7348
    1SOL    MW4 5648   3.613   1.933   2.354  0.1979 -0.5027 -0.1750
    1SOL     OW 5649   3.790   2.082   2.224 -0.7058  0.2857 -0.3161
    1SOL    HW2 5650   3.878   2.048   2.240  0.0539  1.9775 -0.7139
    1SOL    HW3 5651   3.784   2.089   2.129 -0.6519  1.6623 -0.2371
    1SOL    MW4 5652   3.801   2.079   2.214 -0.5987  0.6907 -0.3581
    1SOL     OW 5653   3.804   2.338   2.377  0.2138 -0.4319  0.0263
    1SOL    HW2 5654   3.728   2.382   2.340  0.8153 -1.9389 -3.1969
    1SOL    HW3 5655   3.803   2.251   2.338  2.9994 -0.8318  0.7242
    1SOL    MW4 5656   3.794   2.333   2.367  0.6607 -0.6835 -0.3068
    1SOL     OW 5657   3.609   2.466   2.240 -0.0253  0.2236  0.3755
    1SOL    HW2 5658   3.535   2.420   2.279  0.8211 -1.0030  0.5620
    1SOL    HW3 5659   3.604   2.447   2.146  0.9675 -1.2299  0.5907
    1SOL    MW4 5660   3.599   2.458   2.233  0.2174 -0.1299  0.4284
    1SOL     OW 5661   3.594   2.726   2.349  0.4520 -0.2641 -0.1744
    1SOL    HW2 5662   3.606   2.642   2.305  0.4489 -0.4662  0.2132
    1SOL    HW3 5663   3.521   2.767   2.302  0.5212 -0.4286 -0.4309
    1SOL    MW4 5664   3.586   2.720   2.337  0.4604 -0.3123 -0.1571
    1SOL     OW 5665   3.806   2.844   2.247 -0.3281 -0.2102  0.1344
    1SOL    HW2 5666   3.801   2.937   2.267 -0.3920  0.2200 -1.8225
    1SOL    HW3 5667   3.726   2.807   2.284  0.5267  0.1779  2.4760
    1SOL    MW4 5668   3.795   2.851   2.255 -0.2239 -0.1023  0.1853
    1SOL     OW 5669   3.779   3.114   2.335 -0.0207 -0.0826 -0.3723
    1SOL    HW2 5670   3.791   3.115   2.430 -1.5076 -1.1254 -0.1617
    1SOL    HW3 5671   3.861   3.150   2.300 -0.4152  2.7144  1.3899
    1SOL    MW4 5672   3.792   3.119   2.343 -0.2689  0.1488 -0.1121
    1SOL     OW 5673   3.530   3.231   2.259 -0.3779  0.1486  0.0479
    1SOL    HW2 5674   3.521   3.323   2.284  0.5783  0.5049 -0.8812
    1SOL    HW3 5675   3.604   3.199   2.309  1.0138  0.6387 -1.6480
    1SOL    MW4 5676   3.538   3.239   2.269 -0.0682  0.2604 -0.2987
    1SOL     OW 5677   3.566   3.487   2.325  0.0469 -0.3995  0.4441
    1SOL    HW2 5678   3.585   3.484   2.419 -0.4922  0.4130  0.5811
    1SOL    HW3 5679   3.639   3.535   2.286 -0.4337  0.4925  0.6350
    1SOL    MW4 5680   3.578   3.493   2.332 -0.0877 -0.1748  0.4873
    1SOL     OW 5681   3.808   3.589   2.239 -0.1513  0.7137 -0.0499
    1SOL    HW2 5682   3.813   3.681   2.264  1.5576  0.4117  0.8097
    1SOL    HW3 5683   3.825   3.589   2.145 -0.2574  1.2978 -0.0685
    1SOL    MW4 5684   3.811   3.601   2.230  0.0601  0.7510  0.0610
    1SOL     OW 5685   3.824   3.844   2.333  0.1743 -0.3951  0.0936
    1SOL    HW2 5686   3.800   3.853   2.425  0.8389  0.4549  0.1959
    1SOL    HW3 5687   3.908   3.889   2.326 -0.2246  0.1944 -1.0799
    1SOL    MW4 5688   3.832   3.851   2.344  0.2093 -0.2055 -0.0479
    1SOL     OW 5689   3.605   3.976   2.253 -0.2633  0.0749 -0.3935
    1SOL    HW2 5690   3.611   4.065   2.287 -0.7256 -0.9096  2.3458
    1SOL    HW3 5691   3.687   3.934   2.281 -0.9978 -0.9741  0.2255
    1SOL    MW4 5692   3.617   3.982   2.261 -0.4213 -0.1936  0.0496
    1SOL     OW 5693   3.593   4.240   2.355 -0.5945 -0.7950 -0.4164
    1SOL    HW2 5694   3.649   4.299   2.304 -0.7655 -0.3197 -0.0552
    1SOL    HW3 5695   3.504   4.267   2.334 -0.6445  0.5053  1.4200
    1SOL    MW4 5696   3.589   4.251   2.345 -0.6239 -0.5608 -0.1264
    1SOL     OW 5697   3.784   4.406   2.224 -0.3881 -0.3539  0.4903
    1SOL    HW2 5698   3.862   4.356   2.249 -0.1028 -0.5171 -0.7035
    1SOL    HW3 5699   3.798   4.493   2.261  0.0863 -0.5608  0.7979
    1SOL    MW4 5700   3.796   4.411   2.232 -0.2878 -0.4029  0.3734
    1SOL     OW 5701   4.214   4.610   2.418 -0.0102 -0.0641  0.4039
    1SOL    HW2 5702   4.219   4.620   2.513  0.0007  0.8965  0.3065
    1SOL    HW3 5703   4.302   4.633   2.387  0.1021 -0.7581  0.1885
    1SOL    MW4 5704   4.226   4.614   2.426  0.0057 -0.0291  0.3626
    1SOL     OW 5705   4.036   0.106   2.269  0.3387  0.0020 -0.0913
    1SOL    HW2 5706   4.055   0.198   2.285 -0.1918  0.1961 -0.5889
    1SOL    HW3 5707   4.097   0.059   2.326  0.7508  0.6535  0.0068
    1SOL    MW4 5708   4.047   0.112   2.279  0.3228  0.1136 -0.1440
    1SOL     OW 5709   4.056   0.378   2.377 -0.1273  0.2512 -0.0593
    1SOL    HW2 5710   4.129   0.421   2.333  0.1017  0.0319  0.1078
    1SOL    HW3 5711   3.981   0.434   2.359  0.1866  0.7694  0.2408
    1SOL    MW4 5712   4.056   0.391   2.369 -0.0558  0.2906  0.0024
    1SOL     OW 5713   4.272   0.518   2.236  0.4904  0.0576 -0.5021
    1SOL    HW2 5714   4.264   0.604   2.276  0.7614  0.6771 -1.7683
    1SOL    HW3 5715   4.340   0.474   2.287 -0.0957  0.3511  0.5466
    1SOL    MW4 5716   4.280   0.524   2.248  0.4482  0.1780 -0.5307
    1SOL     OW 5717   4.248   0.755   2.396 -0.1426 -0.0926 -0.0668
    1SOL    HW2 5718   4.179   0.804   2.351 -0.4614 -1.5663 -1.2193
    1SOL    HW3 5719   4.330   0.787   2.357 -0.2957  0.1708 -0.1713
    1SOL    MW4 5720   4.250   0.766   2.385 -0.2050 -0.2523 -0.2325
    1SOL     OW 5721   4.044   0.860   2.243 -0.2667 -0.0802 -0.1193
    1SOL    HW2 5722   4.064   0.953   2.253 -0.1257 -0.1282  0.0518
    1SOL    HW3 5723   4.019   0.850   2.152 -1.0600  0.2734  0.0609
    1SOL    MW4 5724   4.044   0.871   2.232 -0.3533 -0.0399 -0.0732
    1SOL     OW 5725   4.033   1.126   2.330 -0.0764  0.2732 -0.0469
    1SOL    HW2 5726   4.024   1.130   2.425  1.5166 -1.2026  0.1947
    1SOL    HW3 5727   3.962   1.181   2.296 -0.1560  1.4718  2.0033
    1SOL    MW4 5728   4.022   1.134   2.338  0.1235  0.2366  0.2553
    1SOL     OW 5729   4.248   1.276   2.241  0.3722  0.4031 -0.3207
    1SOL    HW2 5730   4.177   1.227   2.282 -0.9168  2.9585  0.5336
    1SOL    HW3 5731   4.327   1.225   2.262 -1.1274 -2.2798 -1.0310
    1SOL    MW4 5732   4.249   1.263   2.249  0.0038  0.3864 -0.3018
    1SOL     OW 5733   4.262   1.543   2.334  0.7467  0.0891 -0.1172
    1SOL    HW2 5734   4.272   1.451   2.309 -1.5398  0.1374 -1.3200
    1SOL    HW3 5735   4.335   1.588   2.292  2.0088 -1.2008  0.6653
    1SOL    MW4 5736   4.273   1.537   2.325  0.6118 -0.0747 -0.1729
    1SOL     OW 5737   4.038   1.677   2.250  0.2810 -0.2094 -0.1455
    1SOL    HW2 5738   4.124   1.635   2.259  0.3251 -0.2217 -0.5990
    1SOL    HW3 5739   3.977   1.615   2.290  0.3950 -0.5437 -0.4785
    1SOL    MW4 5740   4.042   1.663   2.256  0.3018 -0.2552 -0.2494
    1SOL     OW 5741   4.026   1.955   2.312 -0.1825 -0.2173  0.3306
    1SOL    HW2 5742   4.038   1.953   2.407 -0.7717 -1.7106  0.3930
    1SOL    HW3 5743   4.020   1.863   2.287  0.6285  0.1510 -1.2495
    1SOL    MW4 5744   4.027   1.942   2.321 -0.1526 -0.3656  0.1299
    1SOL     OW 5745   4.266   2.061   2.208  0.4466  0.2854  0.3050
    1SOL    HW2 5746   4.275   2.150   2.241 -1.1138  1.1291 -1.4330
    1SOL    HW3 5747   4.185   2.028   2.249 -0.1350  0.4511 -0.6822
    1SOL    MW4 5748   4.256   2.068   2.218  0.1636  0.4187 -0.0546
    1SOL     OW 5749   4.268   2.311   2.344 -0.4105 -0.0363  0.4592
    1SOL    HW2 5750   4.194   2.358   2.308  1.2346  1.9211 -0.4571
    1SOL    HW3 5751   4.343   2.342   2.294  1.1288 -1.5184  1.7662
    1SOL    MW4 5752   4.268   2.321   2.333  0.0105  0.0265  0.5105
    1SOL     OW 5753   4.032   2.437   2.265 -0.5433  0.1598 -0.0097
    1SOL    HW2 5754   4.040   2.530   2.287 -1.0480  0.1847  0.0805
    1SOL    HW3 5755   3.951   2.409   2.308  0.1616 -0.5917  0.8520
    1SOL    MW4 5756   4.022   2.446   2.273 -0.5169  0.0641  0.1159
    1SOL     OW 5757   4.040   2.693   2.342  0.0927  0.1271  0.1087
    1SOL    HW2 5758   4.037   2.677   2.436 -0.1884 -1.2760 -0.1195
    1SOL    HW3 5759   3.952   2.726   2.321  0.4337  1.2824  0.4700
    1SOL    MW4 5760   4.028   2.695   2.351  0.1011  0.0947  0.1261
    1SOL     OW 5761   4.275   2.851   2.256 -0.0888 -0.1765 -0.0642
    1SOL    HW2 5762   4.197   2.799   2.277 -0.3046  0.3993  0.5820
    1SOL    HW3 5763   4.347   2.789   2.259 -0.4429 -0.5868 -0.0440
    1SOL    MW4 5764   4.274   2.836   2.259 -0.1640 -0.1550  0.0238
    1SOL     OW 5765   4.275   3.121   2.335  0.6088  0.0726 -0.2882
    1SOL    HW2 5766   4.260   3.029   2.315  0.7317 -0.0509  0.1683
    1SOL    HW3 5767   4.357   3.142   2.291  1.1301 -0.3280  0.4680
    1SOL    MW4 5768   4.284   3.112   2.327  0.6938  0.0036 -0.1283
    1SOL     OW 5769   4.030   3.213   2.249  0.0577 -0.4689 -0.2067
    1SOL    HW2 5770   4.024   3.302   2.283  0.2116 -0.9301  1.0320
    1SOL    HW3 5771   4.121   3.187   2.263  0.1459 -0.6302 -1.0537
    1SOL    MW4 5772   4.041   3.222   2.255  0.0896 -0.5510 -0.1547
    1SOL     OW 5773   4.040   3.489   2.347 -0.0750 -0.2505  0.2016
    1SOL    HW2 5774   4.115   3.508   2.291 -0.2592 -1.3105 -0.4173
    1SOL    HW3 5775   3.969   3.542   2.310  0.4710  1.0966  1.0611
    1SOL    MW4 5776   4.040   3.498   2.335 -0.0272 -0.2127  0.2337
    1SOL     OW 5777   4.283   3.565   2.236 -0.2876 -0.3422 -0.1420
    1SOL    HW2 5778   4.288   3.652   2.276  3.6403 -0.5435  0.0083
    1SOL    HW3 5779   4.286   3.581   2.142  1.3600 -0.3298 -0.0969
    1SOL    MW4 5780   4.284   3.578   2.229  0.4482 -0.3669 -0.1161
    1SOL     OW 5781   4.263   3.819   2.351 -0.6793  0.4239  0.4296
    1SOL    HW2 5782   4.267   3.833   2.446  0.4231 -0.8540  0.5838
    1SOL    HW3 5783   4.340   3.864   2.317 -0.6421  0.2005  0.2188
    1SOL    MW4 5784   4.273   3.827   2.359 -0.5288  0.2258  0.4222
    1SOL     OW 5785   4.062   4.002   2.276  0.2095  0.0172  0.2925
    1SOL    HW2 5786   4.132   3.945   2.309  0.3288  0.7752  1.3577
    1SOL    HW3 5787   4.055   3.979   2.183  1.0946 -0.8690  0.4300
    1SOL    MW4 5788   4.070   3.991   2.268  0.3419  0.0002  0.4511
    1SOL     OW 5789   3.999   4.265   2.329 -0.1626  0.2134  0.0799
    1SOL    HW2 5790   4.079   4.309   2.302 -0.9405  0.6797 -1.5031
    1SOL    HW3 5791   4.013   4.174   2.306  0.2401  0.1392  0.5943
    1SOL    MW4 5792   4.011   4.259   2.322 -0.2117  0.2651 -0.0610
    1SOL     OW 5793   4.236   4.385   2.249 -0.4638 -0.4665 -0.2614
    1SOL    HW2 5794   4.211   4.451   2.314 -0.6565  0.1322 -0.9348
    1SOL    HW3 5795   4.309   4.339   2.289  1.0329  1.5083 -0.6130
    1SOL    MW4 5796   4.242   4.388   2.263 -0.2918 -0.1268 -0.3967
    1SOL     OW 5797   0.226   0.050   2.643  0.1508 -0.3599 -0.1126
    1SOL    HW2 5798   0.233  -0.040   2.673  0.3409 -0.1863  0.3646
    1SOL    HW3 5799   0.140   0.079   2.676  0.5416 -0.0348  0.6335
    1SOL    MW4 5800   0.215   0.042   2.652  0.2274 -0.2941  0.0486
    1SOL     OW 5801   4.470   0.133   2.770  0.1376 -0.2226  0.4370
    1SOL    HW2 5802   4.478   0.137   2.866  0.8451 -0.0038  0.3698
    1SOL    HW3 5803   4.456   0.224   2.743 -0.3235 -0.3167  0.3518
    1SOL    MW4 5804   4.469   0.146   2.779  0.1707 -0.2061  0.4168
    1SOL     OW 5805   4.455   0.375   2.627  0.0060  0.0206 -0.4094
    1SOL    HW2 5806   4.537   0.419   2.651  1.6858 -3.0583 -0.2294
    1SOL    HW3 5807   4.471   0.339   2.540 -1.0827 -0.7958 -0.2838
    1SOL    MW4 5808   4.468   0.376   2.619  0.0844 -0.4934 -0.3693
    1SOL     OW 5809   0.219   0.521   2.706  0.4270  0.2141  0.0045
    1SOL    HW2 5810   0.231   0.515   2.800  1.6753  0.5066 -0.1340
    1SOL    HW3 5811   0.287   0.465   2.668 -0.4326 -0.3682 -0.7110
    1SOL    MW4 5812   0.229   0.513   2.713  0.4783  0.1758 -0.1080
    1SOL     OW 5813   0.189   0.788   2.624  0.0513 -0.1039  0.2979
    1SOL    HW2 5814   0.272   0.834   2.639  1.1783 -1.5071 -1.3816
    1SOL    HW3 5815   0.206   0.698   2.652 -1.4096 -0.0338  1.4167
    1SOL    MW4 5816   0.202   0.782   2.630  0.0073 -0.2798  0.2239
    1SOL     OW 5817   4.444   0.882   2.727 -0.0637 -0.1494  0.8560
    1SOL    HW2 5818   4.371   0.831   2.692 -0.0397 -0.4356  1.2172
    1SOL    HW3 5819   4.523   0.840   2.692 -0.0333 -0.5454  1.3916
    1SOL    MW4 5820   4.445   0.870   2.718 -0.0567 -0.2394  0.9742
    1SOL     OW 5821   4.446   1.138   2.630 -0.2792  0.1226  0.5664
    1SOL    HW2 5822   4.523   1.176   2.672  0.2521 -2.2609  1.8478
    1SOL    HW3 5823   4.432   1.055   2.676 -3.0636  0.0668 -0.2615
    1SOL    MW4 5824   4.454   1.132   2.642 -0.5760 -0.1993  0.6263
    1SOL     OW 5825   0.194   1.257   2.714 -0.0116  0.4151  0.0482
    1SOL    HW2 5826   0.269   1.217   2.669 -1.2682 -1.7682 -0.1467
    1SOL    HW3 5827   0.183   1.342   2.672  2.6272  0.9667  0.3746
    1SOL    MW4 5828   0.203   1.263   2.703  0.1708  0.1998  0.0658
    1SOL     OW 5829   0.176   1.522   2.605 -0.4742  0.0106 -0.2783
    1SOL    HW2 5830   0.261   1.552   2.636 -0.7273  1.7784 -1.2013
    1SOL    HW3 5831   0.114   1.555   2.670 -0.6186  0.2627 -0.5427
    1SOL    MW4 5832   0.179   1.531   2.618 -0.5267  0.2769 -0.4349
    1SOL     OW 5833   0.008   1.664   2.758  0.3681  0.3384 -0.2597
    1SOL    HW2 5834  -0.007   1.662   2.852  0.2053 -2.3046 -0.3113
    1SOL    HW3 5835  -0.008   1.755   2.733  0.4958  1.0872  2.2640
    1SOL    MW4 5836   0.004   1.676   2.767  0.3638  0.0886  0.0665
    1SOL     OW 5837   4.480   1.921   2.629 -0.3511 -0.1895 -0.2207
    1SOL    HW2 5838   4.569   1.949   2.652 -0.0521 -1.5217  0.3269
    1SOL    HW3 5839   4.482   1.906   2.535  0.2088 -0.8733 -0.1062
    1SOL    MW4 5840   4.492   1.923   2.620 -0.2379 -0.4554 -0.1333
    1SOL     OW 5841   0.228   2.040   2.756 -0.0693  0.2057  0.0252
    1SOL    HW2 5842   0.299   1.995   2.712  0.8448  0.6789  1.0009
    1SOL    HW3 5843   0.223   2.126   2.714  0.1603  0.2989  0.1892
    1SOL    MW4 5844   0.236   2.045   2.745  0.0816  0.2804  0.1755
    1SOL     OW 5845   0.225   2.297   2.631 -0.3087  0.2521  0.2364
    1SOL    HW2 5846   0.294   2.337   2.683 -0.0330 -0.3645  0.3562
    1SOL    HW3 5847   0.146   2.344   2.654 -0.1713  0.0349  1.1527
    1SOL    MW4 5848   0.224   2.308   2.641 -0.2542  0.1419  0.3729
    1SOL     OW 5849   4.485   2.436   2.707  0.0505  0.5202 -0.5127
    1SOL    HW2 5850   4.501   2.415   2.799  0.1383  0.8282 -0.4562
    1SOL    HW3 5851   4.400   2.396   2.688  1.1325 -1.6171 -0.9765
    1SOL    MW4 5852   4.476   2.428   2.716  0.2046  0.2789 -0.5665
    1SOL     OW 5853   4.479   2.691   2.604 -0.3149 -0.0804 -0.4244
    1SOL    HW2 5854   4.402   2.732   2.644  0.5404  0.4531  0.6892
    1SOL    HW3 5855   4.493   2.612   2.655 -0.6089 -0.6160 -1.1548
    1SOL    MW4 5856   4.470   2.686   2.616 -0.2413 -0.0806 -0.3741
    1SOL     OW 5857   0.213   2.811   2.718 -0.7226  0.2978 -0.1483
    1SOL    HW2 5858   0.210   2.906   2.710  0.9290  0.0997 -3.8792
    1SOL    HW3 5859   0.129   2.781   2.683 -0.4884  0.2838 -0.6950
    1SOL    MW4 5860   0.201   2.819   2.713 -0.4738  0.2699 -0.7129
    1SOL     OW 5861   0.273   3.107   2.644  0.0026  0.4748  0.0246
    1SOL    HW2 5862   0.358   3.136   2.676 -0.2273  1.0231  0.1332
    1SOL    HW3 5863   0.285   3.101   2.549  0.6510 -1.0511  0.1889
    1SOL    MW4 5864   0.286   3.110   2.636  0.0578  0.3459  0.0606
    1SOL     OW 5865   0.024   3.227   2.709 -0.2363 -0.1930  0.2359
    1SOL    HW2 5866  -0.049   3.178   2.671  0.1767 -0.1367 -0.6430
    1SOL    HW3 5867   0.102   3.186   2.672  0.1064  1.2944 -0.7276
    1SOL    MW4 5868   0.024   3.215   2.699 -0.1365  0.0107 -0.0076
    1SOL     OW 5869   4.482   3.489   2.646 -0.1810 -0.3503 -0.2220
    1SOL    HW2 5870   4.562   3.533   2.674  0.2367  0.7179 -2.9947
    1SOL    HW3 5871   4.496   3.397   2.670  1.4457  0.0043  0.2382
    1SOL    MW4 5872   4.495   3.482   2.653  0.0887 -0.1626 -0.5271
    1SOL     OW 5873   0.227   3.599   2.724 -0.0218  0.6576  0.0470
    1SOL    HW2 5874   0.241   3.607   2.818 -1.4661 -0.7828  0.3946
    1SOL    HW3 5875   0.301   3.546   2.694 -0.3922 -0.1655  0.5983
    1SOL    MW4 5876   0.239   3.593   2.732 -0.2612  0.3591  0.1655
    1SOL     OW 5877   0.183   3.871   2.627 -0.0749 -0.0459  0.1894
    1SOL    HW2 5878   0.184   3.783   2.664 -0.6048  0.0933  0.5443
    1SOL    HW3 5879   0.202   3.859   2.534  0.8106 -0.4420  0.4191
    1SOL    MW4 5880   0.186   3.858   2.619 -0.0280 -0.0799  0.2666
    1SOL     OW 5881   0.001   4.043   2.751 -0.3301  0.3366 -0.3639
    1SOL    HW2 5882   0.003   4.125   2.701  0.0787  0.5016 -0.0811
    1SOL    HW3 5883   0.058   3.984   2.701  2.2794  1.3337  1.3197
    1SOL    MW4 5884   0.009   4.046   2.738  0.0681  0.4897 -0.1044
    1SOL     OW 5885   0.016   4.290   2.634 -0.0228  0.4676 -0.2353
    1SOL    HW2 5886  -0.064   4.329   2.670 -0.2037  1.4544 -1.6493
    1SOL    HW3 5887   0.086   4.348   2.665  0.2797 -0.8842  1.7283
    1SOL    MW4 5888   0.014   4.303   2.643 -0.0067  0.4191 -0.1628
    1SOL     OW 5889   0.239   4.468   2.715  0.0457  0.0017  0.3450
    1SOL    HW2 5890   0.242   4.466   2.810  0.9335  0.8716  0.3476
    1SOL    HW3 5891   0.295   4.395   2.688 -2.7479 -2.2735  0.4719
    1SOL    MW4 5892   0.247   4.458   2.724 -0.2057 -0.1831  0.3622
    1SOL     OW 5893   0.652   4.646   2.635  0.4412  0.0941 -0.4102
    1SOL    HW2 5894   0.739   4.680   2.657  0.3438  0.8155 -1.1012
    1SOL    HW3 5895   0.592   4.711   2.670  0.2178  0.1251 -0.8494
    1SOL    MW4 5896   0.656   4.659   2.642  0.3989  0.1936 -0.5596
    1SOL     OW 5897   0.448   0.153   2.748 -0.2115  0.1595 -0.4279
    1SOL    HW2 5898   0.443   0.149   2.843 -0.3479  0.3050 -0.4285
    1SOL    HW3 5899   0.363   0.121   2.717 -0.5921  1.1947 -0.4745
    1SOL    MW4 5900   0.436   0.148   2.756 -0.2797  0.3153 -0.4339
    1SOL     OW 5901   0.466   0.398   2.633  0.3392 -0.1165 -0.4422
    1SOL    HW2 5902   0.549   0.443   2.644  0.1747 -0.1707  1.1931
    1SOL    HW3 5903   0.475   0.318   2.684 -0.3469 -0.6340 -1.1104
    1SOL    MW4 5904   0.478   0.393   2.641  0.2270 -0.1919 -0.3145
    1SOL     OW 5905   0.694   0.525   2.730  0.3120  0.1146  0.1624
    1SOL    HW2 5906   0.680   0.532   2.824 -2.0398 -2.9026  0.1350
    1SOL    HW3 5907   0.773   0.472   2.721  1.5198  1.8366  0.3906
    1SOL    MW4 5908   0.702   0.519   2.741  0.1611 -0.0563  0.1886
    1SOL     OW 5909   0.648   0.750   2.602  0.0675  0.5043  0.3306
    1SOL    HW2 5910   0.723   0.795   2.641  0.1021  1.0680 -0.3849
    1SOL    HW3 5911   0.657   0.660   2.632  0.2492  0.8683  1.4043
    1SOL    MW4 5912   0.659   0.744   2.611  0.0960  0.6266  0.3779
    1SOL     OW 5913   0.429   0.894   2.695 -0.0848 -0.4134  0.0028
    1SOL    HW2 5914   0.456   0.912   2.785 -0.6866  0.6971 -0.0339
    1SOL    HW3 5915   0.493   0.830   2.663  1.1597  0.4966  0.6439
    1SOL    MW4 5916   0.441   0.888   2.702  0.0000 -0.1468  0.0825
    1SOL     OW 5917   0.415   1.146   2.608  0.1636 -0.2198  0.2226
    1SOL    HW2 5918   0.484   1.193   2.653  0.6652 -0.2876 -0.4695
    1SOL    HW3 5919   0.426   1.054   2.635 -0.1295 -0.1177  0.7019
    1SOL    MW4 5920   0.425   1.140   2.617  0.1911 -0.2153  0.1945
    1SOL     OW 5921   0.628   1.269   2.725 -0.0570 -0.1308  0.3352
    1SOL    HW2 5922   0.623   1.257   2.820 -0.0557 -0.4125  0.2998
    1SOL    HW3 5923   0.714   1.235   2.701 -0.0944 -0.1425  0.2189
    1SOL    MW4 5924   0.639   1.263   2.734 -0.0618 -0.1695  0.3152
    1SOL     OW 5925   0.684   1.510   2.621  0.6850 -0.0618  0.3383
    1SOL    HW2 5926   0.605   1.561   2.639  1.1560  0.8686 -0.1957
    1SOL    HW3 5927   0.667   1.425   2.661 -0.3672  0.3069  0.6970
    1SOL    MW4 5928   0.671   1.506   2.628  0.6082  0.1097  0.3150
    1SOL     OW 5929   0.439   1.635   2.677 -0.4993  0.7311 -0.3369
    1SOL    HW2 5930   0.467   1.630   2.768 -0.4299  0.8158 -0.3540
    1SOL    HW3 5931   0.416   1.727   2.664  1.3415  1.1299 -0.9513
    1SOL    MW4 5932   0.440   1.646   2.687 -0.2473  0.7949 -0.4203
    1SOL     OW 5933   0.417   1.920   2.601 -0.2525  0.3003 -0.0304
    1SOL    HW2 5934   0.502   1.941   2.640 -0.2873 -0.6058  0.5631
    1SOL    HW3 5935   0.433   1.922   2.507  0.1229  1.3488  0.0500
    1SOL    MW4 5936   0.430   1.923   2.594 -0.2076  0.3191  0.0584
    1SOL     OW 5937   0.637   2.014   2.715 -0.1482 -0.5906 -0.0027
    1SOL    HW2 5938   0.667   2.027   2.805 -1.1839  1.6792  0.0300
    1SOL    HW3 5939   0.716   1.989   2.667  0.7414 -0.0640  1.1762
    1SOL    MW4 5940   0.652   2.012   2.720 -0.1675 -0.2217  0.1571
    1SOL     OW 5941   0.619   2.287   2.648 -0.0430 -0.0681 -0.3384
    1SOL    HW2 5942   0.705   2.328   2.659 -0.3420  0.6628 -0.6527
    1SOL    HW3 5943   0.630   2.198   2.681  0.3039  0.6350  1.4777
    1SOL    MW4 5944   0.632   2.281   2.654 -0.0367  0.1211 -0.1404
    1SOL     OW 5945   0.415   2.420   2.767  0.4742 -0.2684  0.2580
    1SOL    HW2 5946   0.416   2.504   2.723  0.3277 -0.7030 -0.5870
    1SOL    HW3 5947   0.491   2.373   2.733  0.9386 -0.2376  1.2202
    1SOL    MW4 5948   0.425   2.425   2.757  0.5161 -0.3214  0.2737
    1SOL     OW 5949   0.427   2.654   2.619  0.0264 -0.5044 -0.3512
    1SOL    HW2 5950   0.508   2.696   2.645  0.8170 -1.2857 -1.4721
    1SOL    HW3 5951   0.358   2.715   2.645  0.9693  0.1408  0.6508
    1SOL    MW4 5952   0.428   2.667   2.626  0.2551 -0.5226 -0.3669
    1SOL     OW 5953   0.643   2.783   2.729  0.3282 -0.8715  0.2277
    1SOL    HW2 5954   0.657   2.779   2.824  0.1788 -0.2371  0.2774
    1SOL    HW3 5955   0.671   2.871   2.704 -1.1579 -0.4830 -0.0669
    1SOL    MW4 5956   0.649   2.794   2.738  0.1125 -0.7362  0.1953
    1SOL     OW 5957   0.706   3.051   2.649  0.2363  0.0322  0.4261
    1SOL    HW2 5958   0.784   3.102   2.671  0.4268 -0.4265  0.8132
    1SOL    HW3 5959   0.699   3.058   2.553 -0.4398  1.7888  0.5868
    1SOL    MW4 5960   0.715   3.059   2.639  0.1721  0.2034  0.4985
    1SOL     OW 5961   0.504   3.226   2.738 -0.2994 -0.2057  0.2199
    1SOL    HW2 5962   0.472   3.221   2.828 -1.1836  1.2448 -0.0059
    1SOL    HW3 5963   0.582   3.170   2.737  0.7523  1.1705  2.3292
    1SOL    MW4 5964   0.510   3.218   2.749 -0.2773  0.1674  0.4685
    1SOL     OW 5965   0.446   3.471   2.635  0.1460  0.1845 -0.0984
    1SOL    HW2 5966   0.470   3.383   2.664  2.8867  1.0437  0.3388
    1SOL    HW3 5967   0.447   3.466   2.539 -1.8260 -0.7898 -0.0883
    1SOL    MW4 5968   0.449   3.459   2.626  0.2474  0.1695 -0.0393
    1SOL     OW 5969   0.668   3.610   2.743 -0.0339  0.4923 -0.1787
    1SOL    HW2 5970   0.652   3.590   2.835 -1.0125 -0.2568 -0.5000
    1SOL    HW3 5971   0.589   3.578   2.698  0.5351  0.6538 -1.2961
    1SOL    MW4 5972   0.655   3.603   2.749 -0.0880  0.4144 -0.3684
    1SOL     OW 5973   0.660   3.872   2.653  0.5845  0.2253 -0.3298
    1SOL    HW2 5974   0.580   3.910   2.690  0.5704 -0.4128  0.2969
    1SOL    HW3 5975   0.672   3.790   2.701  0.7619 -0.4388 -1.5183
    1SOL    MW4 5976   0.651   3.867   2.664  0.6061  0.0534 -0.4039
    1SOL     OW 5977   0.403   4.002   2.750 -0.1879  0.1087  0.1196
    1SOL    HW2 5978   0.404   4.088   2.709  0.7864 -0.0782 -0.2667
    1SOL    HW3 5979   0.337   3.953   2.701  0.2387  0.2099 -0.5556
    1SOL    MW4 5980   0.395   4.007   2.738 -0.0031  0.0973 -0.0205
    1SOL     OW 5981   0.417   4.275   2.634 -0.5126 -0.0720 -0.1883
    1SOL    HW2 5982   0.488   4.332   2.665 -1.5682  0.4412  1.3603
    1SOL    HW3 5983   0.426   4.276   2.539  0.8951  0.8494 -0.0728
    1SOL    MW4 5984   0.428   4.283   2.625 -0.4662  0.1168  0.0312
    1SOL     OW 5985   0.653   4.389   2.734  0.2158  0.0468 -0.0153
    1SOL    HW2 5986   0.736   4.348   2.709 -0.5687 -1.0841 -0.8378
    1SOL    HW3 5987   0.660   4.478   2.699  1.0759 -0.0384 -0.0903
    1SOL    MW4 5988   0.665   4.396   2.726  0.2258 -0.1140 -0.1338
    1SOL     OW 5989   1.139   4.645   2.630  0.0661 -0.0513 -0.1200
    1SOL    HW2 5990   1.212   4.688   2.675 -0.8889  0.5250  0.9194
    1SOL    HW3 5991   1.150   4.552   2.649  2.1394 -0.3102 -2.3730
    1SOL    MW4 5992   1.150   4.638   2.639  0.2137 -0.0095 -0.2804
    1SOL     OW 5993   0.891   0.096   2.708 -0.5110  0.1996 -0.4509
    1SOL    HW2 5994   0.880   0.118   2.800 -3.0830  0.4556 -0.7596
    1SOL    HW3 5995   0.971   0.044   2.704 -0.3324  0.2655  1.9074
    1SOL    MW4 5996   0.900   0.092   2.720 -0.8268  0.2420 -0.1802
    1SOL     OW 5997   0.909   0.369   2.654  0.4375 -0.2321 -0.3163
    1SOL    HW2 5998   0.879   0.286   2.689  0.6075 -0.4117 -0.5981
    1SOL    HW3 5999   0.895   0.363   2.560 -0.8492  0.5959 -0.1942
    1SOL    MW4 6000   0.903   0.357   2.647  0.2901 -0.1465 -0.3374
    1SOL     OW 6001   1.136   0.464   2.751  0.2397  0.1464  0.3169
    1SOL    HW2 6002   1.124   0.554   2.720  0.5215  0.3143  0.6875
    1SOL    HW3 6003   1.055   0.419   2.727 -0.1852  0.6769  0.7356
    1SOL    MW4 6004   1.124   0.470   2.744  0.2209  0.2385  0.4208
    1SOL     OW 6005   1.097   0.730   2.640 -0.3679  0.4237 -0.1922
    1SOL    HW2 6006   1.174   0.778   2.670  1.3455 -2.4549  0.2351
    1SOL    HW3 6007   1.101   0.735   2.544 -0.1492  1.0256 -0.1526
    1SOL    MW4 6008   1.108   0.737   2.631 -0.1130  0.1233 -0.1304
    1SOL     OW 6009   0.868   0.878   2.723  0.0626 -0.0185 -0.2909
    1SOL    HW2 6010   0.862   0.895   2.817  1.5074  0.9376 -0.3644
    1SOL    HW3 6011   0.950   0.832   2.712  0.0722  0.1934 -1.1326
    1SOL    MW4 6012   0.878   0.874   2.734  0.2545  0.1357 -0.4117
    1SOL     OW 6013   0.871   1.157   2.652 -0.3828  0.4611 -0.2640
    1SOL    HW2 6014   0.866   1.065   2.678  1.6421  0.3043 -0.3028
    1SOL    HW3 6015   0.881   1.155   2.557 -0.2863  0.7007 -0.2607
    1SOL    MW4 6016   0.872   1.145   2.643 -0.1029  0.4721 -0.2687
    1SOL     OW 6017   1.087   1.290   2.783 -0.3125 -0.0536  0.1402
    1SOL    HW2 6018   1.078   1.376   2.742  0.3220 -0.0720 -0.0343
    1SOL    HW3 6019   1.023   1.235   2.737 -0.3156  0.1779 -0.1332
    1SOL    MW4 6020   1.077   1.294   2.772 -0.2291 -0.0255  0.0813
    1SOL     OW 6021   1.104   1.515   2.602  0.0433 -0.4114  0.0929
    1SOL    HW2 6022   1.029   1.573   2.618  1.5337  1.9353 -1.1898
    1SOL    HW3 6023   1.101   1.498   2.508  1.8965  0.8262 -0.2121
    1SOL    MW4 6024   1.094   1.520   2.592  0.4845  0.0615 -0.1166
    1SOL     OW 6025   0.901   1.673   2.705 -0.1048  0.4784 -0.1636
    1SOL    HW2 6026   0.915   1.667   2.799 -0.4245  0.5788 -0.1101
    1SOL    HW3 6027   0.826   1.616   2.688  1.3256 -1.2960 -0.6725
    1SOL    MW4 6028   0.893   1.665   2.715  0.0418  0.2575 -0.2239
    1SOL     OW 6029   0.867   1.927   2.589 -0.1813  0.2993 -0.0688
    1SOL    HW2 6030   0.940   1.968   2.635 -0.7314  0.4830  0.6374
    1SOL    HW3 6031   0.869   1.836   2.618  1.3738 -0.3440 -2.0450
    1SOL    MW4 6032   0.877   1.921   2.599 -0.0487  0.2385 -0.2365
    1SOL     OW 6033   1.107   2.045   2.676 -0.0757 -0.2481  0.1806
    1SOL    HW2 6034   1.194   2.011   2.659  0.0190 -0.5328  1.1836
    1SOL    HW3 6035   1.106   2.131   2.636  1.2703  0.4866  1.6728
    1SOL    MW4 6036   1.118   2.052   2.669  0.1143 -0.1891  0.5097
    1SOL     OW 6037   1.130   2.320   2.600 -0.4427 -0.2534  0.3808
    1SOL    HW2 6038   1.204   2.367   2.637 -0.9970  0.8448  0.1258
    1SOL    HW3 6039   1.129   2.344   2.508 -1.8328  0.7405  0.6256
    1SOL    MW4 6040   1.139   2.329   2.593 -0.6993  0.0226  0.3796
    1SOL     OW 6041   0.882   2.391   2.709 -0.2099  0.4329 -0.9375
    1SOL    HW2 6042   0.872   2.475   2.665  0.5990  1.9741  1.6909
    1SOL    HW3 6043   0.966   2.357   2.677  0.2067  1.3648 -0.8453
    1SOL    MW4 6044   0.892   2.398   2.699 -0.0482  0.7591 -0.5784
    1SOL     OW 6045   0.879   2.653   2.603  0.3548  0.0173  0.1633
    1SOL    HW2 6046   0.945   2.710   2.642  0.0123  2.0108 -2.0998
    1SOL    HW3 6047   0.796   2.683   2.640  0.2086  0.8035 -0.7859
    1SOL    MW4 6048   0.877   2.664   2.613  0.2903  0.3841 -0.2604
    1SOL     OW 6049   1.083   2.832   2.718  0.0000  0.0000  0.4297
    1SOL    HW2 6050   1.106   2.825   2.811  0.0000  0.0000  0.4297
    1SOL    HW3 6051   1.159   2.795   2.672  0.0000  0.0000  0.4300
    1SOL    MW4 6052   1.096   2.826   2.724  0.0000  0.0000  0.4296
    1SOL     OW 6053   1.148   3.096   2.643  0.0000  0.0000  0.1829
    1SOL    HW2 6054   1.122   3.007   2.666  0.0000  0.0000  0.1877
    1SOL    HW3 6055   1.136   3.101   2.548  0.0000  0.0000  0.1827
    1SOL    MW4 6056   1.143   3.085   2.633  0.0000  0.0000  0.1836
    1SOL     OW 6057   0.919   3.208   2.739  0.0000  0.0000 -0.1039
    1SOL    HW2 6058   0.903   3.287   2.688  0.0000  0.0000 -0.1330
    1SOL    HW3 6059   1.006   3.179   2.711  0.0000  0.0000 -0.0675
    1SOL    MW4 6060   0.928   3.215   2.729  0.0000  0.0000 -0.1030
    1SOL     OW 6061   0.887   3.462   2.625  0.0000  0.0000  0.1616
    1SOL    HW2 6062   0.961   3.508   2.665  0.0000  0.0000  0.1565
    1SOL    HW3 6063   0.810   3.511   2.654  0.0000  0.0000  0.1793
    1SOL    MW4 6064   0.887   3.475   2.634  0.0000  0.0000  0.1633
    1SOL     OW 6065   1.102   3.599   2.731  0.0000  0.0000 -0.5949
    1SOL    HW2 6066   1.101   3.626   2.822  0.0000  0.0000 -0.5947
    1SOL    HW3 6067   1.100   3.681   2.681  0.0000  0.0000 -0.5945
    1SOL    MW4 6068   1.102   3.613   2.736  0.0000  0.0000 -0.5951
    1SOL     OW 6069   1.098   3.851   2.617  0.0000  0.0000 -0.1721
    1SOL    HW2 6070   1.178   3.889   2.654  0.0000  0.0000 -0.1697
    1SOL    HW3 6071   1.110   3.859   2.522  0.0000  0.0000 -0.1717
    1SOL    MW4 6072   1.110   3.857   2.609  0.0000  0.0000 -0.1717
    1SOL     OW 6073   0.893   4.008   2.703  0.0000  0.0000 -0.2452
    1SOL    HW2 6074   0.957   3.963   2.648  0.0000  0.0000 -0.2397
    1SOL    HW3 6075   0.809   3.969   2.677  0.0000  0.0000 -0.2635
    1SOL    MW4 6076   0.890   3.997   2.692  0.0000  0.0000 -0.2468
    1SOL     OW 6077   0.888   4.266   2.626  0.0000  0.0000  0.1891
    1SOL    HW2 6078   0.892   4.173   2.651  0.0000  0.0000  0.1850
    1SOL    HW3 6079   0.884   4.265   2.531  0.0000  0.0000  0.1891
    1SOL    MW4 6080   0.888   4.254   2.617  0.0000  0.0000  0.1884
    1SOL     OW 6081   1.144   4.351   2.712  0.0000  0.0000 -0.1438
    1SOL    HW2 6082   1.137   4.378   2.804  0.0000  0.0000 -0.1447
    1SOL    HW3 6083   1.055   4.327   2.687  0.0000  0.0000 -0.1398
    1SOL    MW4 6084   1.131   4.351   2.721  0.0000  0.0000 -0.1435
    1SOL     OW 6085   1.595   4.663   2.658 -0.4276 -1.0551  0.2569
    1SOL    HW2 6086   1.599   4.571   2.686 -0.0113 -0.7313  1.2566
    1SOL    HW3 6087   1.600   4.658   2.562 -1.3076 -2.1253  0.2531
    1SOL    MW4 6088   1.596   4.650   2.649 -0.4888 -1.1536  0.3881
    1SOL     OW 6089   1.366   0.100   2.757  0.3893  0.0223 -0.3195
    1SOL    HW2 6090   1.353   0.180   2.706  1.5960  0.4338  0.0041
    1SOL    HW3 6091   1.449   0.065   2.725  0.3235 -0.6013  0.2001
    1SOL    MW4 6092   1.375   0.106   2.746  0.5399 -0.0057 -0.2084
    1SOL     OW 6093   1.350   0.347   2.624  0.1398 -0.3420  0.0031
    1SOL    HW2 6094   1.425   0.385   2.668 -0.3472  1.7152 -0.8667
    1SOL    HW3 6095   1.274   0.389   2.665 -0.4859 -1.6208  0.1616
    1SOL    MW4 6096   1.350   0.358   2.635 -0.0069 -0.2393 -0.0908
    1SOL     OW 6097   1.547   0.521   2.741  0.1942  0.5755  0.4392
    1SOL    HW2 6098   1.620   0.470   2.706 -0.0619  0.9026 -0.6072
    1SOL    HW3 6099   1.550   0.603   2.691 -1.0037  0.5141  0.2610
    1SOL    MW4 6100   1.557   0.525   2.730  0.0023  0.6105  0.2778
    1SOL     OW 6101   1.550   0.765   2.604 -0.1322 -0.0607 -0.3242
    1SOL    HW2 6102   1.473   0.811   2.635 -0.0236 -0.2285  0.1938
    1SOL    HW3 6103   1.537   0.758   2.509 -0.2003  0.9304 -0.3956
    1SOL    MW4 6104   1.538   0.770   2.595 -0.1268  0.0480 -0.2651
    1SOL     OW 6105   1.342   0.891   2.700  0.1834  0.0787 -0.6655
    1SOL    HW2 6106   1.353   0.897   2.795 -1.8145  0.2747 -0.4231
    1SOL    HW3 6107   1.323   0.980   2.673 -0.5731 -0.1989 -1.0592
    1SOL    MW4 6108   1.341   0.903   2.709 -0.1800  0.0679 -0.6855
    1SOL     OW 6109   1.279   1.160   2.616 -0.1777 -0.4570  0.1330
    1SOL    HW2 6110   1.364   1.196   2.641  0.6523 -0.7592 -2.1511
    1SOL    HW3 6111   1.219   1.195   2.682  1.5986  0.2598  1.4282
    1SOL    MW4 6112   1.282   1.170   2.628  0.1662 -0.4022  0.0024
    1SOL     OW 6113   1.525   1.252   2.703 -0.0572  0.1770 -0.3372
    1SOL    HW2 6114   1.547   1.257   2.796  0.2878  0.6765 -0.4435
    1SOL    HW3 6115   1.604   1.214   2.663 -0.1733  0.0433 -0.4394
    1SOL    MW4 6116   1.539   1.248   2.710 -0.0271  0.2253 -0.3650
    1SOL     OW 6117   1.532   1.533   2.657 -0.1809  0.1605 -0.0614
    1SOL    HW2 6118   1.521   1.441   2.679 -1.2171  0.2432 -0.2161
    1SOL    HW3 6119   1.555   1.533   2.564 -0.8797  0.0905 -0.2383
    1SOL    MW4 6120   1.533   1.521   2.647 -0.4098  0.1621 -0.1051
    1SOL     OW 6121   1.307   1.671   2.714 -0.0596  0.7101 -0.5027
    1SOL    HW2 6122   1.382   1.614   2.693 -0.7036  0.1044 -1.1591
    1SOL    HW3 6123   1.231   1.625   2.678 -0.6827  1.5985 -0.3218
    1SOL    MW4 6124   1.307   1.657   2.707 -0.2267  0.7474 -0.5655
    1SOL     OW 6125   1.344   1.925   2.605 -0.1770 -0.1011 -0.6378
    1SOL    HW2 6126   1.342   1.837   2.643  0.1131  0.1135 -0.1221
    1SOL    HW3 6127   1.327   1.911   2.512 -0.1281 -0.7023 -0.5603
    1SOL    MW4 6128   1.341   1.911   2.598 -0.1323 -0.1520 -0.5593
    1SOL     OW 6129   1.591   2.043   2.714  0.3191  0.3282 -0.3856
    1SOL    HW2 6130   1.664   1.988   2.687 -1.0157 -2.0408  0.6741
    1SOL    HW3 6131   1.513   1.995   2.686 -0.8987  1.3518  1.1305
    1SOL    MW4 6132   1.590   2.029   2.707 -0.0176  0.1507 -0.0458
    1SOL     OW 6133   1.534   2.325   2.598  0.0678 -0.0397  0.0339
    1SOL    HW2 6134   1.610   2.370   2.634  0.5102 -1.4641  0.9197
    1SOL    HW3 6135   1.550   2.232   2.616 -1.2495 -0.4777 -0.9506
    1SOL    MW4 6136   1.546   2.319   2.605 -0.0477 -0.2854  0.0210
    1SOL     OW 6137   1.329   2.443   2.757  0.2898  0.2233  0.3354
    1SOL    HW2 6138   1.329   2.538   2.743  0.3235  0.4970  2.1033
    1SOL    HW3 6139   1.408   2.413   2.711 -0.4863  0.8507 -1.4337
    1SOL    MW4 6140   1.340   2.452   2.749  0.1919  0.3421  0.3352
    1SOL     OW 6141   1.322   2.725   2.639 -0.3132  0.2799 -0.0468
    1SOL    HW2 6142   1.407   2.760   2.666  0.4164 -1.5749  0.1352
    1SOL    HW3 6143   1.329   2.715   2.544  0.1545 -1.1179  0.1304
    1SOL    MW4 6144   1.334   2.728   2.630 -0.1552 -0.1490  0.0010
    1SOL     OW 6145   1.550   2.811   2.723 -0.0979 -0.1739 -0.5861
    1SOL    HW2 6146   1.552   2.822   2.818  0.0147  1.1156 -0.7195
    1SOL    HW3 6147   1.627   2.759   2.703 -0.4773 -1.0051  0.0937
    1SOL    MW4 6148   1.561   2.806   2.733 -0.1333 -0.1135 -0.5140
    1SOL     OW 6149   1.585   3.077   2.609  0.0867  0.0347  0.1951
    1SOL    HW2 6150   1.658   3.114   2.658  0.1751 -0.1413  0.1953
    1SOL    HW3 6151   1.583   2.984   2.634 -0.2943  0.0928  0.3912
    1SOL    MW4 6152   1.594   3.069   2.619  0.0482  0.0191  0.2213
    1SOL     OW 6153   1.396   3.218   2.739  0.3693 -0.3997  0.1799
    1SOL    HW2 6154   1.462   3.168   2.691  0.1026 -1.0087  0.4534
    1SOL    HW3 6155   1.312   3.182   2.710  0.1699  0.0444  0.2023
    1SOL    MW4 6156   1.394   3.207   2.729  0.3078 -0.4218  0.2189
    1SOL     OW 6157   1.355   3.480   2.652  0.5228 -0.0081  0.2557
    1SOL    HW2 6158   1.368   3.388   2.674  0.5683 -0.6731 -2.3443
    1SOL    HW3 6159   1.270   3.502   2.691  0.6670 -1.0500  1.1758
    1SOL    MW4 6160   1.345   3.471   2.660  0.5478 -0.2334  0.0341
    1SOL     OW 6161   1.579   3.627   2.747  0.6388 -0.2253  0.3737
    1SOL    HW2 6162   1.644   3.571   2.705 -0.1904 -1.6485  0.9629
    1SOL    HW3 6163   1.496   3.580   2.737 -0.4263  1.8263 -0.8829
    1SOL    MW4 6164   1.576   3.613   2.740  0.3889 -0.1423  0.2856
    1SOL     OW 6165   1.569   3.894   2.668  0.0590 -0.6151  0.3736
    1SOL    HW2 6166   1.502   3.943   2.715  0.8190 -0.8685  1.7498
    1SOL    HW3 6167   1.572   3.809   2.711 -0.2736 -1.3902 -1.1044
    1SOL    MW4 6168   1.561   3.889   2.680  0.1155 -0.7508  0.3603
    1SOL     OW 6169   1.328   4.006   2.764 -0.3457 -0.0959 -0.5705
    1SOL    HW2 6170   1.344   4.021   2.857  0.2709  0.4632 -0.7647
    1SOL    HW3 6171   1.340   4.092   2.723  1.1497 -0.6829 -1.4013
    1SOL    MW4 6172   1.332   4.019   2.771 -0.0671 -0.0992 -0.7060
    1SOL     OW 6173   1.373   4.238   2.614 -0.2257  0.1151 -0.5293
    1SOL    HW2 6174   1.293   4.286   2.634 -1.4096 -1.4004 -1.4693
    1SOL    HW3 6175   1.384   4.246   2.520  1.2514  1.0765 -0.2889
    1SOL    MW4 6176   1.364   4.245   2.604 -0.1869  0.0420 -0.6216
    1SOL     OW 6177   1.576   4.398   2.723 -0.1052 -0.1437  0.7213
    1SOL    HW2 6178   1.580   4.412   2.818 -0.6525  0.8922  0.5954
    1SOL    HW3 6179   1.490   4.359   2.708 -0.2665  0.2643  0.5802
    1SOL    MW4 6180   1.565   4.395   2.734 -0.1987  0.0467  0.6862
    1SOL     OW 6181   2.000   0.001   2.680  0.3350 -0.3220  0.6950
    1SOL    HW2 6182   2.082   0.050   2.686  0.1376  0.2682 -1.1692
    1SOL    HW3 6183   1.993  -0.024   2.588 -0.8171 -1.7034  1.1382
    1SOL    MW4 6184   2.010   0.005   2.669  0.1569 -0.4268  0.5074
    1SOL     OW 6185   1.785   0.179   2.755 -0.2294 -0.1858  0.2534
    1SOL    HW2 6186   1.858   0.132   2.715  0.5726  1.2997 -0.0805
    1SOL    HW3 6187   1.708   0.127   2.733  0.4261 -0.4343 -1.5664
    1SOL    MW4 6188   1.784   0.166   2.747 -0.0371 -0.0226 -0.0308
    1SOL     OW 6189   1.788   0.423   2.626 -0.2315  0.2529  0.0747
    1SOL    HW2 6190   1.872   0.470   2.631 -0.9553  1.5392  0.3826
    1SOL    HW3 6191   1.807   0.337   2.664  0.2063  1.5981  3.1232
    1SOL    MW4 6192   1.802   0.418   2.632 -0.2693  0.6001  0.5174
    1SOL     OW 6193   2.040   0.535   2.661 -0.4593  0.0530  0.0624
    1SOL    HW2 6194   2.129   0.504   2.641 -0.6368 -1.3615  1.3428
    1SOL    HW3 6195   2.028   0.515   2.754 -1.7620  1.1339  0.1385
    1SOL    MW4 6196   2.050   0.528   2.671 -0.6545  0.0089  0.2413
    1SOL     OW 6197   2.018   0.811   2.619  0.0172  0.4313  0.2917
    1SOL    HW2 6198   2.022   0.717   2.635 -0.3403  0.7558  2.3280
    1SOL    HW3 6199   1.928   0.836   2.640 -0.4920  0.8866 -2.2764
    1SOL    MW4 6200   2.007   0.802   2.624 -0.0973  0.5342  0.2215
    1SOL     OW 6201   1.782   0.911   2.708  0.0506  0.3103 -0.4666
    1SOL    HW2 6202   1.780   1.001   2.677 -2.1522  0.5738  0.3117
    1SOL    HW3 6203   1.703   0.871   2.670  0.1062 -0.8031  0.5515
    1SOL    MW4 6204   1.771   0.918   2.699 -0.2326  0.1981 -0.2294
    1SOL     OW 6205   1.795   1.140   2.587  0.4712  0.1316 -0.0194
    1SOL    HW2 6206   1.863   1.193   2.629  0.2669 -0.6602  1.3437
    1SOL    HW3 6207   1.817   1.142   2.494  0.9434  1.9034  0.1229
    1SOL    MW4 6208   1.807   1.147   2.581  0.5065  0.2609  0.1791
    1SOL     OW 6209   2.028   1.270   2.674 -0.4352 -0.7731  0.1912
    1SOL    HW2 6210   2.027   1.275   2.770  0.2850  0.9728  0.1283
    1SOL    HW3 6211   2.117   1.242   2.653 -0.4274 -0.6258  0.0231
    1SOL    MW4 6212   2.040   1.267   2.684 -0.3393 -0.5234  0.1607
    1SOL     OW 6213   2.006   1.533   2.560 -0.2744  0.0641 -0.1252
    1SOL    HW2 6214   1.933   1.562   2.615 -0.4333  0.3209 -0.4655
    1SOL    HW3 6215   2.007   1.438   2.569 -0.1770  0.1205  0.4721
    1SOL    MW4 6216   1.996   1.525   2.568 -0.2826  0.1055 -0.0913
    1SOL     OW 6217   1.801   1.613   2.722 -0.1785  0.6790  0.0818
    1SOL    HW2 6218   1.792   1.638   2.814  0.3392 -3.1048  1.2813
    1SOL    HW3 6219   1.713   1.588   2.695 -0.3225  1.7439 -0.4396
    1SOL    MW4 6220   1.788   1.613   2.731 -0.1292  0.3203  0.1709
    1SOL     OW 6221   1.807   1.871   2.621  0.2814  0.3036 -0.5693
    1SOL    HW2 6222   1.888   1.900   2.662  1.6070  0.5833 -3.2769
    1SOL    HW3 6223   1.801   1.778   2.643  1.2526  0.3262 -0.1937
    1SOL    MW4 6224   1.817   1.862   2.629  0.5845  0.3433 -0.8769
    1SOL     OW 6225   2.035   1.996   2.720 -0.2103  0.3363  0.6077
    1SOL    HW2 6226   2.029   2.006   2.815  0.0481 -1.2925  0.8220
    1SOL    HW3 6227   2.018   2.083   2.685  1.3268  1.3240  2.2109
    1SOL    MW4 6228   2.032   2.009   2.728  0.0265  0.2518  0.8473
    1SOL     OW 6229   2.003   2.278   2.680 -0.0677  0.1991 -0.0199
    1SOL    HW2 6230   2.079   2.314   2.725 -0.8347 -0.7135  2.0349
    1SOL    HW3 6231   2.014   2.306   2.589  1.8441  1.4957  0.5830
    1SOL    MW4 6232   2.014   2.287   2.674  0.0837  0.2499  0.3309
    1SOL     OW 6233   1.749   2.411   2.721  0.1054 -0.3735  1.0994
    1SOL    HW2 6234   1.750   2.407   2.817  1.1638 -1.7295  1.0598
    1SOL    HW3 6235   1.833   2.372   2.695 -0.2694 -0.2245 -0.3861
    1SOL    MW4 6236   1.760   2.405   2.730  0.1955 -0.5326  0.8984
    1SOL     OW 6237   1.790   2.689   2.617  0.1498 -0.0950  0.3494
    1SOL    HW2 6238   1.796   2.598   2.647  1.2833 -0.0920  0.1435
    1SOL    HW3 6239   1.787   2.683   2.522  1.8519  0.1445  0.2607
    1SOL    MW4 6240   1.791   2.676   2.609  0.5239 -0.0629  0.3107
    1SOL     OW 6241   2.027   2.828   2.662  0.1006  0.4069  0.0736
    1SOL    HW2 6242   2.097   2.767   2.640 -0.0203  0.2264  0.1812
    1SOL    HW3 6243   1.947   2.784   2.632  0.0232  0.5599  0.0558
    1SOL    MW4 6244   2.026   2.814   2.655  0.0746  0.4034  0.0854
    1SOL     OW 6245   2.061   3.093   2.625 -0.0176 -0.8253  0.3111
    1SOL    HW2 6246   2.059   2.997   2.624 -0.7922 -0.8084 -0.3359
    1SOL    HW3 6247   2.054   3.118   2.533  0.8777 -0.1570  0.4157
    1SOL    MW4 6248   2.060   3.084   2.613 -0.0017 -0.7350  0.2394
    1SOL     OW 6249   1.809   3.203   2.711  0.2136 -0.2173  0.3963
    1SOL    HW2 6250   1.801   3.294   2.681 -0.9342 -0.6081 -0.5532
    1SOL    HW3 6251   1.898   3.177   2.686  1.1177  1.1507  2.1435
    1SOL    MW4 6252   1.819   3.212   2.704  0.1816 -0.0882  0.5016
    1SOL     OW 6253   1.778   3.476   2.622  0.3503  0.2965 -0.0204
    1SOL    HW2 6254   1.851   3.532   2.648  1.6654 -0.5381 -1.8322
    1SOL    HW3 6255   1.773   3.485   2.527 -0.8124 -0.9838 -0.0989
    1SOL    MW4 6256   1.787   3.485   2.613  0.3704  0.0176 -0.2694
    1SOL     OW 6257   2.010   3.617   2.706 -0.4395 -0.0198  0.0042
    1SOL    HW2 6258   2.034   3.633   2.798  0.7709 -1.1722 -0.0900
    1SOL    HW3 6259   2.081   3.562   2.673 -0.5435  0.9114 -1.8062
    1SOL    MW4 6260   2.023   3.612   2.714 -0.2933 -0.0489 -0.2470
    1SOL     OW 6261   2.056   3.870   2.641  0.5078 -0.3534  0.4800
    1SOL    HW2 6262   1.975   3.914   2.667  0.0019 -0.2760 -1.1323
    1SOL    HW3 6263   2.040   3.778   2.657 -0.0709 -0.3814 -0.2290
    1SOL    MW4 6264   2.043   3.864   2.646  0.3643 -0.3467  0.1736
    1SOL     OW 6265   1.824   3.983   2.726 -0.3396 -0.2094 -0.5939
    1SOL    HW2 6266   1.823   4.072   2.690 -1.0762  0.0971  0.1802
    1SOL    HW3 6267   1.739   3.947   2.703  0.0052 -0.7618 -1.0101
    1SOL    MW4 6268   1.813   3.990   2.718 -0.3912 -0.2420 -0.5465
    1SOL     OW 6269   1.804   4.260   2.642  0.1796 -0.0311  0.1001
    1SOL    HW2 6270   1.733   4.317   2.670 -0.2220 -0.4235 -0.1249
    1SOL    HW3 6271   1.799   4.259   2.546  0.6591  0.1613  0.0691
    1SOL    MW4 6272   1.794   4.267   2.633  0.1898 -0.0572  0.0660
    1SOL     OW 6273   2.025   4.387   2.777  0.3675 -0.5289 -0.6680
    1SOL    HW2 6274   1.962   4.334   2.728 -2.3969 -0.0532  2.1634
    1SOL    HW3 6275   1.997   4.477   2.763  1.7185 -0.1675 -1.0794
    1SOL    MW4 6276   2.013   4.392   2.769  0.1810 -0.4182 -0.3486
    1SOL     OW 6277   2.485   4.662   2.616  0.0169 -0.9909  0.0818
    1SOL    HW2 6278   2.560   4.718   2.640 -0.7505 -0.1219  0.4663
    1SOL    HW3 6279   2.496   4.648   2.522 -0.0263  0.1782 -0.1095
    1SOL    MW4 6280   2.497   4.668   2.607 -0.0901 -0.7220  0.1075
    1SOL     OW 6281   2.255   0.138   2.700 -0.0275  0.2164  0.1189
    1SOL    HW2 6282   2.319   0.086   2.652 -0.6074 -0.4516  0.0645
    1SOL    HW3 6283   2.284   0.135   2.791  0.0753 -0.0047  0.0794
    1SOL    MW4 6284   2.267   0.131   2.706 -0.0906  0.0991  0.1068
    1SOL     OW 6285   2.260   0.397   2.609  0.0974 -0.6034  0.0752
    1SOL    HW2 6286   2.254   0.397   2.513  1.6600 -0.1181 -0.0288
    1SOL    HW3 6287   2.247   0.305   2.633  0.5681 -0.8674 -0.6601
    1SOL    MW4 6288   2.257   0.385   2.600  0.3657 -0.5742 -0.0358
    1SOL     OW 6289   2.473   0.537   2.724 -0.1942  0.4353 -0.0410
    1SOL    HW2 6290   2.475   0.622   2.680 -0.4279  1.0279  1.0771
    1SOL    HW3 6291   2.407   0.487   2.675  1.8801 -0.0721 -2.4094
    1SOL    MW4 6292   2.464   0.542   2.711  0.0489  0.4466 -0.2060
    1SOL     OW 6293   2.501   0.787   2.604  0.6042 -0.4399 -0.4222
    1SOL    HW2 6294   2.424   0.826   2.644  0.9919 -1.1007  1.0134
    1SOL    HW3 6295   2.486   0.795   2.510 -0.3809  1.0427 -0.1543
    1SOL    MW4 6296   2.489   0.793   2.597  0.5255 -0.3315 -0.1974
    1SOL     OW 6297   2.271   0.924   2.691  0.1169  0.3367  0.4560
    1SOL    HW2 6298   2.265   0.912   2.786 -0.9906 -0.0796  0.3469
    1SOL    HW3 6299   2.186   0.894   2.658  0.7310 -0.1414 -0.7351
    1SOL    MW4 6300   2.259   0.918   2.700  0.0520  0.2186  0.2842
    1SOL     OW 6301   2.277   1.179   2.582  0.1448  0.1127 -0.2518
    1SOL    HW2 6302   2.270   1.094   2.624 -2.0924  0.9856  1.2414
    1SOL    HW3 6303   2.357   1.218   2.618 -0.1198 -0.3979  0.9107
    1SOL    MW4 6304   2.287   1.173   2.592 -0.1853  0.1606  0.0989
    1SOL     OW 6305   2.516   1.285   2.675  0.2092 -0.0123  0.0600
    1SOL    HW2 6306   2.507   1.363   2.621 -0.1911  0.1384  0.3466
    1SOL    HW3 6307   2.597   1.243   2.643  0.0572  0.1521 -0.5522
    1SOL    MW4 6308   2.526   1.289   2.663  0.1366  0.0293  0.0172
    1SOL     OW 6309   2.476   1.552   2.573 -0.4790 -0.1768 -0.3682
    1SOL    HW2 6310   2.404   1.582   2.629  0.2304  0.1197  0.4059
    1SOL    HW3 6311   2.554   1.594   2.610  0.3460 -1.9179 -0.1014
    1SOL    MW4 6312   2.477   1.561   2.585 -0.2763 -0.3674 -0.2308
    1SOL     OW 6313   2.238   1.637   2.700 -0.7994  0.0962 -0.5857
    1SOL    HW2 6314   2.246   1.723   2.659 -0.1962  0.3857  0.1155
    1SOL    HW3 6315   2.162   1.597   2.659 -0.7491  0.7482 -1.3152
    1SOL    MW4 6316   2.229   1.643   2.689 -0.7131  0.2205 -0.5896
    1SOL     OW 6317   2.247   1.882   2.577  0.3009 -0.2317 -0.2571
    1SOL    HW2 6318   2.174   1.936   2.609  1.6226  1.3891  0.0624
    1SOL    HW3 6319   2.249   1.897   2.483  0.8655  0.5594 -0.1288
    1SOL    MW4 6320   2.238   1.891   2.569  0.5498  0.0865 -0.1981
    1SOL     OW 6321   2.442   2.022   2.695 -0.6291 -0.1172 -0.4779
    1SOL    HW2 6322   2.439   2.113   2.667  0.7569 -0.1726 -0.8558
    1SOL    HW3 6323   2.368   1.980   2.651 -0.4182  0.5121 -1.4367
    1SOL    MW4 6324   2.432   2.028   2.685 -0.4184 -0.0415 -0.6542
    1SOL     OW 6325   2.436   2.296   2.639 -0.2636  0.2767 -0.1290
    1SOL    HW2 6326   2.516   2.340   2.669 -0.4221  1.9761 -2.0897
    1SOL    HW3 6327   2.441   2.301   2.543 -1.2046 -2.3853 -0.3590
    1SOL    MW4 6328   2.447   2.302   2.630 -0.4086  0.1497 -0.4182
    1SOL     OW 6329   2.237   2.417   2.778  0.5062  0.4490  0.1631
    1SOL    HW2 6330   2.255   2.389   2.868  1.3539  0.4115 -0.0169
    1SOL    HW3 6331   2.310   2.383   2.727  0.8475  1.8092 -0.2856
    1SOL    MW4 6332   2.249   2.409   2.783  0.6630  0.6235  0.0796
    1SOL     OW 6333   2.269   2.649   2.623 -0.0120 -0.2833  0.1530
    1SOL    HW2 6334   2.318   2.708   2.681 -0.5011 -0.5571  0.8443
    1SOL    HW3 6335   2.253   2.571   2.676 -1.8886  0.1181  0.1840
    1SOL    MW4 6336   2.274   2.647   2.638 -0.3245 -0.2663  0.2482
    1SOL     OW 6337   2.459   2.807   2.751  0.1114  0.2769  0.2617
    1SOL    HW2 6338   2.531   2.755   2.715  1.2426  0.8301  1.6292
    1SOL    HW3 6339   2.470   2.894   2.712 -0.8029 -0.0802 -0.7858
    1SOL    MW4 6340   2.470   2.812   2.741  0.1400  0.3026  0.3037
    1SOL     OW 6341   2.484   3.064   2.634 -0.6981  0.6747  0.7629
    1SOL    HW2 6342   2.411   3.118   2.663 -1.6026  0.3824 -0.9010
    1SOL    HW3 6343   2.473   3.057   2.539  0.4798 -0.8669  0.7096
    1SOL    MW4 6344   2.473   3.070   2.625 -0.6618  0.4327  0.5362
    1SOL     OW 6345   2.259   3.232   2.742  0.4048  0.0605 -0.2116
    1SOL    HW2 6346   2.257   3.230   2.838  1.0934 -0.8604 -0.2087
    1SOL    HW3 6347   2.182   3.182   2.716 -0.5183  1.4468 -0.1382
    1SOL    MW4 6348   2.249   3.225   2.751  0.3738  0.1218 -0.2017
    1SOL     OW 6349   2.247   3.487   2.641  0.3490 -0.3271 -0.7362
    1SOL    HW2 6350   2.320   3.541   2.671 -0.8864  0.6230  0.6064
    1SOL    HW3 6351   2.254   3.407   2.692  0.0765  0.0248 -0.1441
    1SOL    MW4 6352   2.258   3.484   2.652  0.1500 -0.1554 -0.4809
    1SOL     OW 6353   2.484   3.633   2.717  0.2692  0.5796 -0.1912
    1SOL    HW2 6354   2.487   3.653   2.811 -1.8350  0.6169 -0.1071
    1SOL    HW3 6355   2.464   3.717   2.675  2.0433  0.7308 -0.7548
    1SOL    MW4 6356   2.482   3.647   2.724  0.2255  0.6044 -0.2544
    1SOL     OW 6357   2.440   3.887   2.624 -0.2500  0.2266 -0.1119
    1SOL    HW2 6358   2.520   3.935   2.646  0.0913 -0.7826  0.8744
    1SOL    HW3 6359   2.369   3.940   2.663 -0.0064  0.7114 -0.3204
    1SOL    MW4 6360   2.441   3.901   2.632 -0.1731  0.1574 -0.0093
    1SOL     OW 6361   2.242   4.042   2.749  0.2110 -0.1707  0.1191
    1SOL    HW2 6362   2.249   4.026   2.843  0.0863 -0.7023  0.0372
    1SOL    HW3 6363   2.179   3.977   2.718  0.1459  0.0980 -0.3082
    1SOL    MW4 6364   2.235   4.032   2.757  0.1862 -0.2055  0.0520
    1SOL     OW 6365   2.258   4.294   2.637 -0.3578 -0.0924  0.4125
    1SOL    HW2 6366   2.251   4.210   2.681 -2.5567 -0.1154  0.0698
    1SOL    HW3 6367   2.193   4.349   2.681 -0.0927  0.9266 -0.4573
    1SOL    MW4 6368   2.248   4.290   2.649 -0.6130  0.0391  0.2527
    1SOL     OW 6369   2.487   4.402   2.717 -0.4152 -0.4309 -0.3277
    1SOL    HW2 6370   2.404   4.377   2.675  0.0867 -0.2954 -1.4337
    1SOL    HW3 6371   2.506   4.488   2.681 -1.5802  1.1161  2.6344
    1SOL    MW4 6372   2.479   4.410   2.706 -0.5028 -0.2093 -0.0827
    1SOL     OW 6373   2.895   4.634   2.595 -0.4354 -0.1937 -0.1635
    1SOL    HW2 6374   2.981   4.657   2.629 -0.1033 -0.0326 -1.1049
    1SOL    HW3 6375   2.905   4.637   2.500 -1.2616 -0.9978 -0.2799
    1SOL    MW4 6376   2.907   4.637   2.587 -0.5007 -0.2785 -0.3030
    1SOL     OW 6377   2.691   0.132   2.727  0.3443  0.0699 -0.0088
    1SOL    HW2 6378   2.684   0.127   2.822  0.8680  1.3029  0.1028
    1SOL    HW3 6379   2.770   0.082   2.705  0.4256  0.0922  0.2394
    1SOL    MW4 6380   2.700   0.125   2.736  0.4239  0.2355  0.0389
    1SOL     OW 6381   2.699   0.389   2.627  0.4576  0.5989  0.4315
    1SOL    HW2 6382   2.697   0.303   2.669  0.3149 -0.3991 -1.5811
    1SOL    HW3 6383   2.621   0.434   2.659 -0.4987 -0.7384 -0.0483
    1SOL    MW4 6384   2.689   0.384   2.637  0.3123  0.2908  0.1028
    1SOL     OW 6385   2.945   0.514   2.706  0.2832 -0.3954 -0.0818
    1SOL    HW2 6386   2.945   0.598   2.660 -0.0445  0.0346  0.6821
    1SOL    HW3 6387   2.855   0.483   2.698  0.1527 -0.1765  0.5150
    1SOL    MW4 6388   2.933   0.521   2.699  0.2229 -0.3098  0.0978
    1SOL     OW 6389   2.929   0.791   2.590  0.0165  0.1638 -0.1007
    1SOL    HW2 6390   3.009   0.821   2.634 -0.1578  1.5333 -0.6709
    1SOL    HW3 6391   2.860   0.843   2.630 -0.7808 -1.8609  1.2360
    1SOL    MW4 6392   2.931   0.802   2.601 -0.1116  0.0774  0.0005
    1SOL     OW 6393   2.723   0.919   2.721  0.3200  0.4080  0.8808
    1SOL    HW2 6394   2.721   0.899   2.815  1.3154 -0.1812  0.7792
    1SOL    HW3 6395   2.647   0.872   2.685  1.4007 -1.4830  0.9908
    1SOL    MW4 6396   2.713   0.910   2.729  0.5941  0.0808  0.8819
    1SOL     OW 6397   2.741   1.146   2.565  0.4257  0.4597  0.0049
    1SOL    HW2 6398   2.811   1.193   2.610  0.4026  0.2816  0.2252
    1SOL    HW3 6399   2.723   1.071   2.620  1.2346 -0.4287 -0.9185
    1SOL    MW4 6400   2.748   1.143   2.578  0.5293  0.3190 -0.0880
    1SOL     OW 6401   2.928   1.274   2.712  0.1813 -0.1351 -0.3349
    1SOL    HW2 6402   2.937   1.294   2.805 -1.1719 -3.1639  0.5144
    1SOL    HW3 6403   3.011   1.235   2.687 -0.0969 -0.9963  0.0733
    1SOL    MW4 6404   2.940   1.272   2.721 -0.0339 -0.6483 -0.1688
    1SOL     OW 6405   2.952   1.541   2.616  0.0013 -0.5827  0.1494
    1SOL    HW2 6406   2.872   1.571   2.660 -0.4237 -0.7066 -0.5287
    1SOL    HW3 6407   2.971   1.456   2.657  0.6794  0.1557  1.4126
    1SOL    MW4 6408   2.944   1.533   2.627  0.0346 -0.5016  0.2265
    1SOL     OW 6409   2.704   1.634   2.714 -0.0440 -0.6278  0.1424
    1SOL    HW2 6410   2.690   1.651   2.808 -0.0737 -1.3218  0.2659
    1SOL    HW3 6411   2.700   1.721   2.673 -0.8697 -0.4147  0.6691
    1SOL    MW4 6412   2.702   1.648   2.721 -0.1566 -0.6912  0.2279
    1SOL     OW 6413   2.679   1.905   2.616  0.2899  0.1802  0.0280
    1SOL    HW2 6414   2.742   1.966   2.656 -0.5316  0.8924  0.2360
    1SOL    HW3 6415   2.595   1.949   2.625 -0.2492 -0.8186 -0.1835
    1SOL    MW4 6416   2.676   1.919   2.622  0.1101  0.1425  0.0274
    1SOL     OW 6417   2.891   2.046   2.721  0.3589  0.3382 -0.0401
    1SOL    HW2 6418   2.968   2.012   2.677 -0.1415  0.0443 -0.7035
    1SOL    HW3 6419   2.885   2.137   2.691 -0.4783 -0.1158 -1.2771
    1SOL    MW4 6420   2.900   2.054   2.711  0.1826  0.2391 -0.2906
    1SOL     OW 6421   2.900   2.317   2.636  0.1734 -0.1399  0.0978
    1SOL    HW2 6422   2.979   2.359   2.669  0.5898 -0.2331 -0.7558
    1SOL    HW3 6423   2.829   2.376   2.662  0.5072 -0.1166  0.9665
    1SOL    MW4 6424   2.901   2.331   2.644  0.2725 -0.1490  0.0997
    1SOL     OW 6425   2.672   2.439   2.713 -0.1095  0.3817 -0.2730
    1SOL    HW2 6426   2.688   2.453   2.806  0.6203 -0.4261 -0.2695
    1SOL    HW3 6427   2.665   2.527   2.676  0.0556  0.7093  0.4710
    1SOL    MW4 6428   2.673   2.452   2.720  0.0086  0.3181 -0.1743
    1SOL     OW 6429   2.672   2.697   2.611  0.0662 -0.1707  0.0472
    1SOL    HW2 6430   2.757   2.723   2.648 -0.6364 -0.6378  2.0776
    1SOL    HW3 6431   2.677   2.723   2.519  2.2245  0.2530  0.2450
    1SOL    MW4 6432   2.684   2.704   2.604  0.2584 -0.1767  0.3409
    1SOL     OW 6433   2.923   2.816   2.720 -0.2348 -0.0121 -0.1558
    1SOL    HW2 6434   3.003   2.781   2.681  0.2201 -0.9071  1.5558
    1SOL    HW3 6435   2.939   2.815   2.814 -1.3985  1.9567  0.0837
    1SOL    MW4 6436   2.935   2.811   2.727 -0.3283  0.1297  0.1016
    1SOL     OW 6437   2.923   3.093   2.620 -0.3507  0.5955  0.1958
    1SOL    HW2 6438   2.844   3.134   2.656  0.1601  1.5685  0.2279
    1SOL    HW3 6439   2.917   3.002   2.647 -0.8469  0.9360  1.2766
    1SOL    MW4 6440   2.912   3.087   2.628 -0.3490  0.7689  0.3428
    1SOL     OW 6441   2.702   3.207   2.734 -0.1042 -0.3244  0.1379
    1SOL    HW2 6442   2.694   3.298   2.705  2.2574  0.3326  1.3458
    1SOL    HW3 6443   2.642   3.158   2.678  0.9209  1.5199 -2.7063
    1SOL    MW4 6444   2.693   3.213   2.723  0.3426  0.0055 -0.0782
    1SOL     OW 6445   2.700   3.459   2.676 -0.1581  0.1063  0.1999
    1SOL    HW2 6446   2.624   3.518   2.682 -2.6123 -2.8537 -0.5465
    1SOL    HW3 6447   2.733   3.472   2.588 -0.0231  1.1319  0.3946
    1SOL    MW4 6448   2.694   3.469   2.665 -0.4640 -0.1488  0.1271
    1SOL     OW 6449   2.897   3.613   2.776  0.4479  0.5274 -0.2099
    1SOL    HW2 6450   2.888   3.608   2.871 -0.2176  0.5559 -0.2726
    1SOL    HW3 6451   2.832   3.551   2.743  1.7839 -0.7055 -0.6055
    1SOL    MW4 6452   2.888   3.604   2.784  0.5364  0.3686 -0.2704
    1SOL     OW 6453   2.911   3.844   2.630  0.2311 -0.1978  0.1786
    1SOL    HW2 6454   2.994   3.890   2.646  0.3643 -0.5105  0.4024
    1SOL    HW3 6455   2.909   3.775   2.696 -0.2910 -0.0837  0.2815
    1SOL    MW4 6456   2.922   3.841   2.641  0.1798 -0.2241  0.2217
    1SOL     OW 6457   2.685   4.005   2.724  0.5494  0.8023  0.4331
    1SOL    HW2 6458   2.698   4.091   2.684  1.1424  0.4678 -0.1118
    1SOL    HW3 6459   2.759   3.953   2.693 -0.7150 -0.4067 -0.6013
    1SOL    MW4 6460   2.697   4.010   2.715  0.4609  0.5984  0.2248
    1SOL     OW 6461   2.705   4.268   2.615 -0.1128  0.0509  0.2395
    1SOL    HW2 6462   2.787   4.306   2.646 -0.1263 -0.5698  1.0488
    1SOL    HW3 6463   2.636   4.319   2.658 -0.1468  0.0626  0.1716
    1SOL    MW4 6464   2.707   4.280   2.625 -0.1190 -0.0296  0.3376
    1SOL     OW 6465   2.921   4.390   2.707 -0.0816  0.2711 -0.0773
    1SOL    HW2 6466   2.916   4.404   2.801 -1.9195 -0.0567 -0.0989
    1SOL    HW3 6467   2.921   4.478   2.669  0.8379  0.4054  0.2252
    1SOL    MW4 6468   2.920   4.404   2.714 -0.2027  0.2456 -0.0403
    1SOL     OW 6469   3.357   4.637   2.607  0.5152  0.3270  0.0536
    1SOL    HW2 6470   3.358   4.542   2.610  1.4241  0.3167 -0.2872
    1SOL    HW3 6471   3.278   4.662   2.654 -0.1380 -0.6143 -0.5377
    1SOL    MW4 6472   3.347   4.628   2.614  0.5491  0.2007 -0.0694
    1SOL     OW 6473   3.115   0.070   2.730  0.1219  0.0171  0.0035
    1SOL    HW2 6474   3.093   0.084   2.822 -2.3396  0.5243 -0.6445
    1SOL    HW3 6475   3.116   0.158   2.692 -3.0408 -0.4823 -1.3492
    1SOL    MW4 6476   3.113   0.084   2.738 -0.6204  0.0181 -0.2604
    1SOL     OW 6477   3.143   0.344   2.614 -0.2271  0.2150 -0.0547
    1SOL    HW2 6478   3.069   0.397   2.645  0.1942 -0.2098  1.7072
    1SOL    HW3 6479   3.137   0.349   2.518 -1.7557  1.2640  0.0747
    1SOL    MW4 6480   3.133   0.352   2.605 -0.3734  0.2974  0.1948
    1SOL     OW 6481   3.359   0.467   2.727 -0.0442  0.1384 -0.8796
    1SOL    HW2 6482   3.369   0.555   2.692  0.9190 -0.5279 -2.2958
    1SOL    HW3 6483   3.276   0.436   2.692 -0.8923  0.8265  0.4361
    1SOL    MW4 6484   3.349   0.475   2.718 -0.0293  0.1413 -0.8929
    1SOL     OW 6485   3.401   0.732   2.636 -0.1206 -0.1050  0.0116
    1SOL    HW2 6486   3.467   0.796   2.663 -0.0146  0.1394 -0.8118
    1SOL    HW3 6487   3.390   0.747   2.543 -1.2328 -0.2576  0.1117
    1SOL    MW4 6488   3.408   0.742   2.628 -0.2532 -0.0929 -0.0837
    1SOL     OW 6489   3.174   0.858   2.718 -0.2412 -0.0125 -0.1881
    1SOL    HW2 6490   3.166   0.882   2.811  1.2444 -0.3988  0.0489
    1SOL    HW3 6491   3.258   0.813   2.712  0.1033  0.8193 -1.8924
    1SOL    MW4 6492   3.184   0.855   2.730  0.0005  0.0463 -0.3815
    1SOL     OW 6493   3.187   1.126   2.624 -0.2322 -0.0388  0.2048
    1SOL    HW2 6494   3.168   1.033   2.640  0.8262 -0.4586 -0.9073
    1SOL    HW3 6495   3.188   1.134   2.529 -1.5973  1.4010  0.2957
    1SOL    MW4 6496   3.184   1.115   2.614 -0.2725  0.0958  0.0699
    1SOL     OW 6497   3.399   1.301   2.710  0.1120  0.0834  0.1004
    1SOL    HW2 6498   3.387   1.298   2.805  1.9009 -1.2964  0.3215
    1SOL    HW3 6499   3.335   1.239   2.676  0.5551 -0.6402  0.5571
    1SOL    MW4 6500   3.389   1.292   2.718  0.4063 -0.1942  0.1898
    1SOL     OW 6501   3.396   1.561   2.617  0.1396  0.0383 -0.0623
    1SOL    HW2 6502   3.316   1.605   2.646 -0.1688 -0.0374 -0.8106
    1SOL    HW3 6503   3.394   1.476   2.660 -0.1983  0.0162 -0.1262
    1SOL    MW4 6504   3.385   1.556   2.627  0.0541  0.0253 -0.1695
    1SOL     OW 6505   3.172   1.666   2.714 -0.1980 -0.0779  0.6733
    1SOL    HW2 6506   3.098   1.623   2.671 -0.2333 -1.1738  1.8219
    1SOL    HW3 6507   3.149   1.666   2.807  0.5458  0.9757  0.8692
    1SOL    MW4 6508   3.159   1.661   2.721 -0.1047 -0.0834  0.8507
    1SOL     OW 6509   3.126   1.919   2.634  1.0233  0.1257 -0.1448
    1SOL    HW2 6510   3.212   1.950   2.663  0.3942  0.3844  1.4972
    1SOL    HW3 6511   3.125   1.826   2.656  0.3917  0.4082  1.0653
    1SOL    MW4 6512   3.137   1.911   2.641  0.8571  0.1972  0.2317
    1SOL     OW 6513   3.361   2.051   2.718 -0.2091  0.5614  0.1735
    1SOL    HW2 6514   3.354   2.086   2.807  1.0753  0.0408  0.5042
    1SOL    HW3 6515   3.370   2.129   2.663 -0.6327  0.8749  0.5421
    1SOL    MW4 6516   3.362   2.066   2.723 -0.0954  0.5341  0.2658
    1SOL     OW 6517   3.396   2.284   2.589 -0.2009  0.0206  0.4684
    1SOL    HW2 6518   3.458   2.341   2.633  0.8340 -1.4659  0.9708
    1SOL    HW3 6519   3.384   2.323   2.503 -1.6641  2.5501  1.7496
    1SOL    MW4 6520   3.402   2.297   2.584 -0.2577  0.1578  0.7038
    1SOL     OW 6521   3.139   2.444   2.698  0.0750  0.0052 -0.3738
    1SOL    HW2 6522   3.228   2.417   2.673  0.4360  1.3212 -0.5274
    1SOL    HW3 6523   3.141   2.443   2.794  0.1340 -0.3518 -0.3769
    1SOL    MW4 6524   3.151   2.440   2.707  0.1302  0.1321 -0.3946
    1SOL     OW 6525   3.127   2.701   2.561  0.0282  0.2322  0.4825
    1SOL    HW2 6526   3.190   2.757   2.606  0.2883 -0.4534  0.9803
    1SOL    HW3 6527   3.136   2.615   2.604 -0.8850  0.0027  0.2248
    1SOL    MW4 6528   3.136   2.697   2.573 -0.0582  0.1118  0.5143
    1SOL     OW 6529   3.345   2.818   2.698  0.1266 -0.1124 -0.0824
    1SOL    HW2 6530   3.356   2.838   2.791  0.3641  0.4132 -0.2212
    1SOL    HW3 6531   3.431   2.786   2.670  0.4200  0.9383 -0.4129
    1SOL    MW4 6532   3.358   2.816   2.707  0.1967  0.0954 -0.1445
    1SOL     OW 6533   3.321   3.097   2.617 -0.5501 -0.0291  0.0965
    1SOL    HW2 6534   3.326   3.004   2.639 -0.9611 -0.0660  0.0485
    1SOL    HW3 6535   3.325   3.099   2.522  2.2479  0.2017  0.1826
    1SOL    MW4 6536   3.322   3.085   2.608 -0.2348 -0.0038  0.1016
    1SOL     OW 6537   3.114   3.237   2.756  0.0412  0.4978 -0.6003
    1SOL    HW2 6538   3.190   3.197   2.714 -1.1146 -2.1084 -0.3590
    1SOL    HW3 6539   3.039   3.194   2.713 -1.2164  0.4630  1.5556
    1SOL    MW4 6540   3.114   3.226   2.744 -0.2770  0.1495 -0.2840
    1SOL     OW 6541   3.140   3.498   2.674 -0.1042 -0.5412  0.0861
    1SOL    HW2 6542   3.113   3.409   2.698 -2.1628 -0.2864 -1.1326
    1SOL    HW3 6543   3.068   3.554   2.705  1.1916  0.7140  0.8938
    1SOL    MW4 6544   3.127   3.494   2.681 -0.2048 -0.3421  0.0319
    1SOL     OW 6545   3.398   3.604   2.732  0.1239 -0.2920  0.3006
    1SOL    HW2 6546   3.395   3.611   2.828 -1.1011  1.2850  0.1776
    1SOL    HW3 6547   3.311   3.574   2.708 -0.5392  2.1426 -0.4885
    1SOL    MW4 6548   3.386   3.601   2.742 -0.1252  0.2372  0.1800
    1SOL     OW 6549   3.397   3.878   2.656  0.3968  0.2435 -0.3711
    1SOL    HW2 6550   3.411   3.789   2.689  2.1281  0.8537  0.5681
    1SOL    HW3 6551   3.385   3.867   2.562 -0.8105 -1.1226 -0.0785
    1SOL    MW4 6552   3.397   3.865   2.648  0.4659  0.1438 -0.2084
    1SOL     OW 6553   3.125   3.991   2.718 -0.3560 -0.3969 -0.2634
    1SOL    HW2 6554   3.131   4.081   2.686  0.7702 -0.3646  0.0099
    1SOL    HW3 6555   3.215   3.959   2.716 -0.4782 -0.8976  1.4313
    1SOL    MW4 6556   3.138   3.999   2.713 -0.2236 -0.4585 -0.0038
    1SOL     OW 6557   3.154   4.257   2.641 -0.0733 -0.0545 -0.0772
    1SOL    HW2 6558   3.076   4.296   2.680  0.0564  1.1273 -1.0072
    1SOL    HW3 6559   3.138   4.259   2.547  0.9868 -0.0291 -0.2580
    1SOL    MW4 6560   3.141   4.262   2.634  0.0837  0.1049 -0.2239
    1SOL     OW 6561   3.383   4.376   2.710  0.3884 -0.3086 -0.2199
    1SOL    HW2 6562   3.397   4.373   2.805 -0.8718 -0.3899 -0.0282
    1SOL    HW3 6563   3.306   4.321   2.696  1.7527 -1.9407 -1.5281
    1SOL    MW4 6564   3.375   4.368   2.721  0.4020 -0.5345 -0.3672
    1SOL     OW 6565   3.817   4.611   2.651 -0.0033 -0.5641  0.2258
    1SOL    HW2 6566   3.822   4.521   2.681  0.2456 -0.8830 -0.7690
    1SOL    HW3 6567   3.732   4.642   2.683  0.6534 -0.5958  2.0658
    1SOL    MW4 6568   3.806   4.604   2.659  0.1163 -0.6104  0.3371
    1SOL     OW 6569   3.566   0.088   2.738 -0.0320  0.4909 -0.0354
    1SOL    HW2 6570   3.568   0.178   2.703 -0.7432  0.7808  0.6456
    1SOL    HW3 6571   3.493   0.046   2.693  0.8423 -0.0121 -0.9836
    1SOL    MW4 6572   3.557   0.095   2.728 -0.0103  0.4628 -0.0706
    1SOL     OW 6573   3.580   0.339   2.629 -0.0876 -0.0542  0.0803
    1SOL    HW2 6574   3.648   0.392   2.672 -0.7447  0.3734  0.6060
    1SOL    HW3 6575   3.498   0.375   2.662 -0.6392  0.8032 -2.1787
    1SOL    MW4 6576   3.578   0.351   2.639 -0.2468  0.1153 -0.1483
    1SOL     OW 6577   3.768   0.532   2.712  0.1691  0.4689 -0.1892
    1SOL    HW2 6578   3.775   0.552   2.805 -0.4481 -2.1047  0.4358
    1SOL    HW3 6579   3.850   0.488   2.690 -0.6457 -0.9955 -0.3190
    1SOL    MW4 6580   3.780   0.529   2.721 -0.0200 -0.0638 -0.1240
    1SOL     OW 6581   3.816   0.791   2.603  0.0479 -0.4463 -0.0811
    1SOL    HW2 6582   3.740   0.843   2.628  0.5608 -0.0853  0.7556
    1SOL    HW3 6583   3.805   0.707   2.649  0.5419 -0.1081  0.6667
    1SOL    MW4 6584   3.804   0.786   2.613  0.1805 -0.3541  0.1280
    1SOL     OW 6585   3.592   0.919   2.707 -0.1410  0.1894 -0.2946
    1SOL    HW2 6586   3.592   0.936   2.801  0.9873  0.1121 -0.2695
    1SOL    HW3 6587   3.599   1.006   2.667  0.1043  0.1709 -0.2914
    1SOL    MW4 6588   3.593   0.933   2.714  0.0401  0.1767 -0.2909
    1SOL     OW 6589   3.621   1.167   2.618  0.0864  0.0756  0.0493
    1SOL    HW2 6590   3.696   1.210   2.660  1.2524 -0.9696 -0.9147
    1SOL    HW3 6591   3.546   1.220   2.643  0.9987  0.5142  1.9595
    1SOL    MW4 6592   3.621   1.179   2.627  0.3605 -0.0044  0.1740
    1SOL     OW 6593   3.814   1.294   2.746  0.0793 -0.2370 -0.1175
    1SOL    HW2 6594   3.879   1.245   2.697  0.8315  0.7673 -0.1236
    1SOL    HW3 6595   3.810   1.379   2.703 -1.0014 -0.1807  0.0830
    1SOL    MW4 6596   3.822   1.299   2.734  0.0360 -0.0968 -0.0918
    1SOL     OW 6597   3.803   1.551   2.623 -0.0022 -0.3876  0.4189
    1SOL    HW2 6598   3.883   1.598   2.646  0.3344 -0.1306 -1.2512
    1SOL    HW3 6599   3.733   1.601   2.664  0.5156  0.5422  0.1747
    1SOL    MW4 6600   3.804   1.564   2.632  0.1106 -0.2310  0.1664
    1SOL     OW 6601   3.619   1.683   2.776  0.5318  0.0209  0.5037
    1SOL    HW2 6602   3.609   1.768   2.731  0.0563  0.8725  2.1918
    1SOL    HW3 6603   3.542   1.633   2.748  1.0756 -0.0516 -0.9053
    1SOL    MW4 6604   3.607   1.688   2.766  0.5405  0.1237  0.5405
    1SOL     OW 6605   3.590   1.921   2.631 -0.2655 -0.0065  0.6222
    1SOL    HW2 6606   3.516   1.977   2.654 -0.6308 -0.7715  1.3171
    1SOL    HW3 6607   3.594   1.925   2.535 -0.5085  0.9174  0.6425
    1SOL    MW4 6608   3.581   1.929   2.621 -0.3457  0.0144  0.7167
    1SOL     OW 6609   3.827   2.035   2.755  0.2183  0.4839 -0.3907
    1SOL    HW2 6610   3.914   2.001   2.736  0.4714  0.8727  0.0613
    1SOL    HW3 6611   3.767   1.968   2.721  0.7094 -0.4302  0.5230
    1SOL    MW4 6612   3.830   2.021   2.748  0.3166  0.4146 -0.2105
    1SOL     OW 6613   3.817   2.316   2.646  0.0855 -0.0400 -0.0712
    1SOL    HW2 6614   3.804   2.221   2.647  0.2708 -0.0667 -0.2630
    1SOL    HW3 6615   3.829   2.338   2.554 -0.2002  0.2025 -0.0529
    1SOL    MW4 6616   3.817   2.306   2.634  0.0725 -0.0117 -0.0939
    1SOL     OW 6617   3.576   2.462   2.724 -0.4923 -0.1385 -0.5425
    1SOL    HW2 6618   3.575   2.476   2.818 -0.4905 -0.0636 -0.5534
    1SOL    HW3 6619   3.655   2.411   2.709 -1.6335 -2.0052 -0.2530
    1SOL    MW4 6620   3.587   2.457   2.734 -0.6425 -0.3748 -0.5057
    1SOL     OW 6621   3.596   2.724   2.630 -0.2726  0.2005  0.0356
    1SOL    HW2 6622   3.600   2.634   2.663  0.9029 -0.0741 -0.8178
    1SOL    HW3 6623   3.615   2.716   2.537  1.7737  1.5326  0.3055
    1SOL    MW4 6624   3.599   2.711   2.622  0.1521  0.3400 -0.0415
    1SOL     OW 6625   3.811   2.854   2.720  0.1681  0.3038  0.3228
    1SOL    HW2 6626   3.881   2.796   2.693 -0.7575 -0.4536 -0.4650
    1SOL    HW3 6627   3.732   2.816   2.682 -0.3684  2.4203 -0.7602
    1SOL    MW4 6628   3.810   2.842   2.712 -0.0246  0.4830  0.0758
    1SOL     OW 6629   3.836   3.108   2.624 -0.4498  0.3278  0.0499
    1SOL    HW2 6630   3.751   3.143   2.652 -0.6936 -1.2168  1.3132
    1SOL    HW3 6631   3.833   3.016   2.649  0.7379 -0.2673 -1.9177
    1SOL    MW4 6632   3.824   3.100   2.631 -0.3252  0.0453 -0.0432
    1SOL     OW 6633   3.592   3.206   2.702  0.0772  0.5731 -0.2105
    1SOL    HW2 6634   3.576   3.297   2.677 -1.3499  0.3928 -0.0191
    1SOL    HW3 6635   3.515   3.159   2.671  0.9592 -0.6278 -0.5882
    1SOL    MW4 6636   3.580   3.212   2.695  0.0052  0.3910 -0.2348
    1SOL     OW 6637   3.614   3.487   2.605 -0.0930 -0.0220 -0.5648
    1SOL    HW2 6638   3.685   3.545   2.633  0.8229 -1.5431  0.3704
    1SOL    HW3 6639   3.538   3.516   2.654 -0.2651  1.9388 -1.9360
    1SOL    MW4 6640   3.613   3.498   2.615  0.0052  0.0358 -0.6227
    1SOL     OW 6641   3.828   3.620   2.729 -0.0883  0.1830  0.2223
    1SOL    HW2 6642   3.905   3.577   2.692 -0.5214  0.4351 -0.9801
    1SOL    HW3 6643   3.832   3.709   2.695 -0.8833  0.2115  0.2134
    1SOL    MW4 6644   3.839   3.626   2.720 -0.2503  0.2201  0.0622
    1SOL     OW 6645   3.796   3.860   2.611  0.3235  0.0470  0.0761
    1SOL    HW2 6646   3.877   3.906   2.632 -0.7782  1.7953  0.6408
    1SOL    HW3 6647   3.728   3.908   2.659 -1.1217 -1.0745 -0.7868
    1SOL    MW4 6648   3.798   3.872   2.620 -0.0126  0.1297  0.0370
    1SOL     OW 6649   3.623   4.009   2.752 -0.7040 -0.0012 -0.0083
    1SOL    HW2 6650   3.629   4.092   2.705  0.7677 -0.4119 -0.5705
    1SOL    HW3 6651   3.540   3.971   2.723 -1.3027  1.1916  0.1220
    1SOL    MW4 6652   3.613   4.015   2.742 -0.5887  0.1016 -0.0653
    1SOL     OW 6653   3.617   4.267   2.631 -0.0095  0.5501 -0.8618
    1SOL    HW2 6654   3.534   4.304   2.659 -0.3684  0.0837 -1.2868
    1SOL    HW3 6655   3.612   4.267   2.535  0.2966  0.1302 -0.8824
    1SOL    MW4 6656   3.606   4.272   2.622 -0.0167  0.4330 -0.9208
    1SOL     OW 6657   3.849   4.367   2.761 -0.2523  0.3603 -0.0964
    1SOL    HW2 6658   3.915   4.355   2.694 -0.7422 -1.4907 -0.2945
    1SOL    HW3 6659   3.768   4.336   2.721 -0.8381  0.6580  0.8296
    1SOL    MW4 6660   3.847   4.361   2.747 -0.3943  0.1550 -0.0002
    1SOL     OW 6661   4.254   4.649   2.694  0.0303 -0.1553  0.8038
    1SOL    HW2 6662   4.174   4.698   2.712 -0.5114 -0.1456 -1.4831
    1SOL    HW3 6663   4.324   4.704   2.730 -0.6311  1.9471 -1.0137
    1SOL    MW4 6664   4.252   4.663   2.701 -0.1287  0.1235  0.2623
    1SOL     OW 6665   4.013   0.124   2.728  0.4469 -0.1029 -0.2515
    1SOL    HW2 6666   4.005   0.132   2.823 -0.1802  1.1654 -0.3856
    1SOL    HW3 6667   3.949   0.057   2.704  0.2786 -0.0947  0.1759
    1SOL    MW4 6668   4.003   0.117   2.737  0.3419  0.0655 -0.2127
    1SOL     OW 6669   3.995   0.373   2.636 -0.2810 -0.0630  0.7732
    1SOL    HW2 6670   3.999   0.287   2.677 -0.5020 -0.0962  0.7276
    1SOL    HW3 6671   4.012   0.358   2.544  0.2024  0.0101  0.8489
    1SOL    MW4 6672   3.998   0.360   2.630 -0.2463 -0.0577  0.7770
    1SOL     OW 6673   4.229   0.469   2.736  0.3488 -0.2808  0.4796
    1SOL    HW2 6674   4.149   0.432   2.699  0.4053 -0.8505  0.9248
    1SOL    HW3 6675   4.298   0.441   2.676  0.2856 -0.2362  0.3859
    1SOL    MW4 6676   4.228   0.461   2.723  0.3476 -0.3501  0.5260
    1SOL     OW 6677   4.220   0.735   2.677 -0.0770  0.3693 -0.1924
    1SOL    HW2 6678   4.234   0.641   2.691  0.3247  0.5365  0.5447
    1SOL    HW3 6679   4.208   0.743   2.583 -1.4613 -0.5956 -0.1173
    1SOL    MW4 6680   4.220   0.723   2.667 -0.2069  0.2640 -0.0854
    1SOL     OW 6681   4.012   0.925   2.726 -0.6511 -0.0602 -0.0228
    1SOL    HW2 6682   4.084   0.863   2.733 -0.7326  0.0253  1.6627
    1SOL    HW3 6683   3.939   0.874   2.691 -0.2631 -0.5448 -0.1193
    1SOL    MW4 6684   4.012   0.910   2.722 -0.6113 -0.1129  0.1864
    1SOL     OW 6685   4.011   1.161   2.599  0.3892 -0.3932  0.2522
    1SOL    HW2 6686   4.087   1.214   2.619  1.1651 -0.8253 -1.4691
    1SOL    HW3 6687   4.019   1.084   2.656  2.1345 -1.2360 -1.1058
    1SOL    MW4 6688   4.022   1.158   2.609  0.7219 -0.5614 -0.1538
    1SOL     OW 6689   4.218   1.296   2.695  0.0143  0.0786 -0.7598
    1SOL    HW2 6690   4.252   1.374   2.650  2.5237  0.1920  1.2288
    1SOL    HW3 6691   4.274   1.225   2.664 -0.6415 -0.5004 -0.6292
    1SOL    MW4 6692   4.230   1.297   2.685  0.2594  0.0172 -0.4799
    1SOL     OW 6693   4.262   1.566   2.610 -0.4125  0.2941  0.2849
    1SOL    HW2 6694   4.347   1.604   2.633 -0.5410  0.7262  0.0580
    1SOL    HW3 6695   4.260   1.570   2.514 -1.1030  1.1890  0.3371
    1SOL    MW4 6696   4.273   1.572   2.600 -0.5202  0.4692  0.2618
    1SOL     OW 6697   4.039   1.700   2.713 -0.0645 -0.5057 -0.3109
    1SOL    HW2 6698   4.042   1.703   2.809  1.4782  0.0939 -0.3762
    1SOL    HW3 6699   4.110   1.641   2.689 -0.4865 -0.6977 -1.0893
    1SOL    MW4 6700   4.049   1.693   2.723  0.0834 -0.4518 -0.4222
    1SOL     OW 6701   4.054   1.949   2.584 -0.8111 -0.3469  0.0594
    1SOL    HW2 6702   4.118   1.990   2.642  1.5040  0.3507 -2.8563
    1SOL    HW3 6703   4.052   1.857   2.612  1.7801 -0.4703 -0.0509
    1SOL    MW4 6704   4.062   1.942   2.596 -0.1636 -0.2713 -0.3397
    1SOL     OW 6705   4.256   2.056   2.740  0.3000  0.6034  0.1313
    1SOL    HW2 6706   4.250   2.143   2.700  0.7505  0.5919  0.0358
    1SOL    HW3 6707   4.339   2.021   2.708  0.2405  0.2397  0.3745
    1SOL    MW4 6708   4.266   2.063   2.730  0.3519  0.5538  0.1509
    1SOL     OW 6709   4.242   2.295   2.622  0.2664  0.1269  0.3544
    1SOL    HW2 6710   4.166   2.352   2.636  0.1036 -0.0579  0.2336
    1SOL    HW3 6711   4.261   2.304   2.528 -0.3366 -0.7317  0.1491
    1SOL    MW4 6712   4.234   2.304   2.611  0.1650 -0.0107  0.3116
    1SOL     OW 6713   4.039   2.452   2.734 -0.2198  0.4040  0.1076
    1SOL    HW2 6714   4.044   2.453   2.829 -0.3681  0.8142  0.1105
    1SOL    HW3 6715   3.960   2.402   2.714 -0.2597  0.4319  0.1993
    1SOL    MW4 6716   4.029   2.445   2.744 -0.2446  0.4618  0.1199
    1SOL     OW 6717   4.031   2.698   2.624 -0.1490  0.0704  0.3462
    1SOL    HW2 6718   4.120   2.731   2.636  0.3066 -1.3915  1.0914
    1SOL    HW3 6719   4.033   2.610   2.661 -1.3593 -0.7848 -1.5659
    1SOL    MW4 6720   4.043   2.691   2.631 -0.2489 -0.2353  0.1919
    1SOL     OW 6721   4.262   2.825   2.704  0.1927  0.4713 -0.2440
    1SOL    HW2 6722   4.260   2.833   2.799 -0.3937  1.2582 -0.3144
    1SOL    HW3 6723   4.275   2.914   2.672  4.2325 -0.2389 -0.8370
    1SOL    MW4 6724   4.263   2.838   2.712  0.6480  0.4814 -0.3316
    1SOL     OW 6725   4.288   3.089   2.613  0.3000 -0.1464  0.0067
    1SOL    HW2 6726   4.211   3.117   2.664  0.8409  1.5749 -0.0806
    1SOL    HW3 6727   4.267   3.114   2.523  0.4026 -0.8987 -0.2252
    1SOL    MW4 6728   4.275   3.096   2.608  0.3848 -0.0186 -0.0353
    1SOL     OW 6729   4.066   3.214   2.734 -0.7653 -0.5079 -0.0069
    1SOL    HW2 6730   4.062   3.305   2.704 -0.1569 -0.2803  0.5860
    1SOL    HW3 6731   3.981   3.177   2.711 -1.5818  0.6386  1.1221
    1SOL    MW4 6732   4.054   3.221   2.727 -0.7925 -0.3266  0.2203
    1SOL     OW 6733   4.050   3.475   2.651 -0.1105 -0.0984  0.1943
    1SOL    HW2 6734   4.109   3.540   2.688 -1.1976  1.0065  0.0318
    1SOL    HW3 6735   4.060   3.483   2.556  1.0365 -1.3901  0.1941
    1SOL    MW4 6736   4.059   3.484   2.644 -0.1025 -0.1233  0.1729
    1SOL     OW 6737   4.250   3.646   2.758 -0.1911 -0.5843  0.1829
    1SOL    HW2 6738   4.262   3.657   2.852  2.4271  2.9066 -0.4882
    1SOL    HW3 6739   4.327   3.597   2.730  1.4257  2.4454 -0.7995
    1SOL    MW4 6740   4.262   3.641   2.767  0.3681  0.2759 -0.0353
    1SOL     OW 6741   4.282   3.902   2.636  0.2427 -0.3923 -0.0209
    1SOL    HW2 6742   4.285   3.819   2.683 -1.2871 -0.0133  0.7789
    1SOL    HW3 6743   4.346   3.958   2.682 -1.2571 -0.0154  1.6708
    1SOL    MW4 6744   4.291   3.899   2.649 -0.1569 -0.2923  0.3080
    1SOL     OW 6745   4.022   3.998   2.656  0.4082 -0.1736  0.0331
    1SOL    HW2 6746   4.012   4.011   2.751  0.3328  1.0022 -0.1291
    1SOL    HW3 6747   4.107   3.955   2.647  0.6924  0.2541  0.5955
    1SOL    MW4 6748   4.032   3.994   2.667  0.4358  0.0381  0.0858
    1SOL     OW 6749   4.056   4.278   2.599 -0.4261 -0.1002  0.2328
    1SOL    HW2 6750   4.046   4.188   2.630  0.6307 -0.3803 -0.1967
    1SOL    HW3 6751   4.043   4.273   2.504  0.4564  0.0501  0.0976
    1SOL    MW4 6752   4.053   4.265   2.591 -0.1707 -0.1173  0.1583
    1SOL     OW 6753   4.287   4.378   2.756 -0.2382 -0.2527  0.2404
    1SOL    HW2 6754   4.208   4.341   2.717  0.6797 -0.7020 -1.2200
    1SOL    HW3 6755   4.289   4.468   2.725  0.6260 -0.6822 -0.9937
    1SOL    MW4 6756   4.277   4.385   2.747 -0.0029 -0.3686 -0.1154
    1SOL     OW 6757   0.232   0.008   3.147  0.0573 -0.0548  0.3227
    1SOL    HW2 6758   0.239   0.036   3.238 -1.5853 -0.6514  0.6302
    1SOL    HW3 6759   0.147   0.040   3.118  0.4728 -0.0613 -0.9487
    1SOL    MW4 6760   0.222   0.016   3.155 -0.1046 -0.1344  0.1957
    1SOL     OW 6761   0.004   0.107   3.052 -0.0780 -0.2359 -0.2522
    1SOL    HW2 6762  -0.090   0.097   3.061 -0.2366  1.3274 -0.0098
    1SOL    HW3 6763   0.019   0.201   3.060  1.5020 -0.4707 -0.2803
    1SOL    MW4 6764  -0.006   0.118   3.054  0.1097 -0.0606 -0.2239
    1SOL     OW 6765   0.016   0.378   3.091  0.4625 -0.0300 -0.2376
    1SOL    HW2 6766   0.018   0.402   3.183  0.1391  0.1128 -0.2694
    1SOL    HW3 6767  -0.064   0.417   3.057 -0.3758 -1.6184 -0.1496
    1SOL    MW4 6768   0.006   0.386   3.099  0.3090 -0.2207 -0.2301
    1SOL     OW 6769   0.243   0.507   3.002  0.7945 -0.0102  0.2477
    1SOL    HW2 6770   0.319   0.463   3.040 -0.4483 -0.2572  2.5718
    1SOL    HW3 6771   0.169   0.452   3.029 -0.4923  1.8898  0.6515
    1SOL    MW4 6772   0.243   0.494   3.011  0.4608  0.2079  0.6080
    1SOL     OW 6773   0.202   0.769   3.068  0.1230  0.2380 -0.2740
    1SOL    HW2 6774   0.207   0.763   3.164 -1.4370 -0.4134 -0.2144
    1SOL    HW3 6775   0.205   0.678   3.039 -1.4812  0.3045 -0.7065
    1SOL    MW4 6776   0.203   0.756   3.077 -0.2945  0.1608 -0.3231
    1SOL     OW 6777   4.456   0.895   3.006 -0.1140 -0.3670 -0.0764
    1SOL    HW2 6778   4.538   0.854   3.034 -0.3238 -0.6138  0.1790
    1SOL    HW3 6779   4.454   0.880   2.911 -0.5801 -1.6813  0.1218
    1SOL    MW4 6780   4.467   0.887   2.997 -0.2031 -0.5730 -0.0167
    1SOL     OW 6781   0.002   1.188   3.081  0.8470  0.3698  0.0221
    1SOL    HW2 6782  -0.066   1.239   3.037 -0.1798 -0.1334  0.9814
    1SOL    HW3 6783  -0.024   1.097   3.065  1.0309  0.1823  0.7976
    1SOL    MW4 6784  -0.011   1.182   3.073  0.7358  0.2788  0.2508
    1SOL     OW 6785   0.214   1.324   2.978  0.1121 -0.0666  0.1257
    1SOL    HW2 6786   0.134   1.289   3.017 -0.4471  0.9649 -0.0575
    1SOL    HW3 6787   0.210   1.297   2.886 -0.7416  1.1447 -0.2191
    1SOL    MW4 6788   0.203   1.316   2.971 -0.0743  0.2294  0.0560
    1SOL     OW 6789   0.275   1.575   3.080 -0.0564 -0.3355  0.0756
    1SOL    HW2 6790   0.188   1.614   3.070 -0.3248 -0.9887 -0.2114
    1SOL    HW3 6791   0.264   1.485   3.048  0.5032 -0.6977  0.8897
    1SOL    MW4 6792   0.262   1.568   3.074 -0.0179 -0.4694  0.1450
    1SOL     OW 6793   0.005   1.671   3.041 -0.2252 -0.2238 -0.0107
    1SOL    HW2 6794  -0.069   1.624   3.080  0.2285 -0.3341  0.7291
    1SOL    HW3 6795  -0.003   1.760   3.076 -0.1103 -0.1915 -0.0681
    1SOL    MW4 6796  -0.006   1.677   3.051 -0.1502 -0.2340  0.0794
    1SOL     OW 6797   0.006   1.925   3.129  0.1140 -0.0041  0.0587
    1SOL    HW2 6798  -0.059   1.978   3.083 -1.8208 -1.3847  1.1478
    1SOL    HW3 6799   0.090   1.962   3.102 -1.0983  1.6729 -1.5460
    1SOL    MW4 6800   0.009   1.937   3.119 -0.3012  0.0350 -0.0093
    1SOL     OW 6801   0.244   2.036   3.031  0.2111 -0.2064 -0.0695
    1SOL    HW2 6802   0.235   2.125   3.066  3.2733  0.0216  0.3025
    1SOL    HW3 6803   0.221   2.044   2.938 -0.0959  0.8530  0.0907
    1SOL    MW4 6804   0.240   2.049   3.023  0.5746 -0.0367  0.0005
    1SOL     OW 6805   0.235   2.288   3.130  0.0155 -0.1337  0.1753
    1SOL    HW2 6806   0.233   2.294   3.226  0.2560 -0.5046  0.2000
    1SOL    HW3 6807   0.305   2.348   3.104  0.9334 -1.1288  0.3131
    1SOL    MW4 6808   0.244   2.297   3.140  0.1683 -0.3138  0.1967
    1SOL     OW 6809   0.040   2.415   2.988  0.0524 -0.0927 -0.3627
    1SOL    HW2 6810   0.050   2.506   3.016  0.8257 -0.8248  1.8465
    1SOL    HW3 6811   0.109   2.367   3.035  0.1220 -1.7148 -2.0436
    1SOL    MW4 6812   0.051   2.420   2.998  0.1636 -0.4032 -0.2930
    1SOL     OW 6813   0.004   2.675   3.060 -0.2562 -0.0414  0.1045
    1SOL    HW2 6814  -0.000   2.676   3.155  0.0862 -1.0494  0.1350
    1SOL    HW3 6815   0.091   2.711   3.040 -0.2686  0.0325  0.1814
    1SOL    MW4 6816   0.015   2.680   3.070 -0.2122 -0.1647  0.1187
    1SOL     OW 6817   0.224   2.815   2.992  0.1309  0.3248 -0.2417
    1SOL    HW2 6818   0.300   2.770   3.029 -0.9025 -1.3994 -0.1768
    1SOL    HW3 6819   0.234   2.806   2.898 -0.1015 -0.0905 -0.2277
    1SOL    MW4 6820   0.235   2.808   2.985 -0.0361  0.0427 -0.2313
    1SOL     OW 6821   0.191   3.066   3.121  0.2197  0.5629  0.3748
    1SOL    HW2 6822   0.127   3.116   3.070 -0.4254 -0.4640  0.1579
    1SOL    HW3 6823   0.191   2.979   3.080  1.3271  0.3832  0.7457
    1SOL    MW4 6824   0.182   3.061   3.109  0.2807  0.4039  0.3951
    1SOL     OW 6825   0.026   3.245   2.993  0.2306  0.0778  0.4600
    1SOL    HW2 6826  -0.049   3.190   3.016  0.3949  0.0773  1.0103
    1SOL    HW3 6827   0.030   3.241   2.898  0.9977 -1.8990  0.5500
    1SOL    MW4 6828   0.017   3.237   2.984  0.3535 -0.1831  0.5443
    1SOL     OW 6829   4.486   3.514   3.105 -0.1212  0.2410 -0.4256
    1SOL    HW2 6830   4.412   3.564   3.071 -1.3203  0.0107  1.7142
    1SOL    HW3 6831   4.472   3.425   3.073 -0.6214  0.2652 -0.2819
    1SOL    MW4 6832   4.475   3.509   3.096 -0.3454  0.2139 -0.1245
    1SOL     OW 6833   0.247   3.621   3.013  0.2814 -0.3861 -0.2390
    1SOL    HW2 6834   0.240   3.708   3.052 -0.6058  0.7085 -2.7449
    1SOL    HW3 6835   0.169   3.575   3.042 -0.6757  0.6215 -1.1852
    1SOL    MW4 6836   0.236   3.626   3.022  0.0380 -0.1087 -0.6943
    1SOL     OW 6837   0.237   3.870   3.108  0.2400 -0.4233  0.3439
    1SOL    HW2 6838   0.234   3.867   3.204  0.3994 -0.3280  0.3530
    1SOL    HW3 6839   0.307   3.932   3.089  0.4393 -0.6979  0.1656
    1SOL    MW4 6840   0.246   3.878   3.118  0.2874 -0.4473  0.3214
    1SOL     OW 6841   0.017   4.026   3.022 -0.1860 -0.0387  0.3216
    1SOL    HW2 6842   0.083   3.964   3.051 -1.1128 -0.4139  1.7230
    1SOL    HW3 6843   0.025   4.028   2.927  1.4368 -0.5101  0.4322
    1SOL    MW4 6844   0.026   4.018   3.014 -0.0944 -0.1507  0.5209
    1SOL     OW 6845   0.014   4.292   3.127  0.0660  0.8114  0.3305
    1SOL    HW2 6846   0.010   4.271   3.220 -0.3847 -1.1380 -0.1192
    1SOL    HW3 6847   0.038   4.211   3.084  1.3200  1.9515 -1.1819
    1SOL    MW4 6848   0.016   4.279   3.134  0.1719  0.7048  0.0718
    1SOL     OW 6849   0.252   4.436   3.002  0.6701  0.1672  0.0768
    1SOL    HW2 6850   0.169   4.392   3.023  0.8855 -1.2797 -1.8947
    1SOL    HW3 6851   0.254   4.513   3.058 -1.1007 -0.8231  1.5516
    1SOL    MW4 6852   0.241   4.440   3.012  0.4649 -0.1540  0.0112
    1SOL     OW 6853   0.711   0.013   3.106 -0.1712  0.1214  0.0581
    1SOL    HW2 6854   0.712  -0.079   3.080 -0.1180 -0.0531  0.6894
    1SOL    HW3 6855   0.623   0.042   3.084 -1.0320 -0.7551  2.2111
    1SOL    MW4 6856   0.699   0.005   3.099 -0.2778 -0.0173  0.4251
    1SOL     OW 6857   0.457   0.119   3.052 -0.0182 -0.3942  0.1474
    1SOL    HW2 6858   0.454   0.209   3.086  0.6882 -0.0849 -0.5754
    1SOL    HW3 6859   0.375   0.079   3.081  0.3675 -0.0073  1.8411
    1SOL    MW4 6860   0.446   0.126   3.060  0.1259 -0.3023  0.2754
    1SOL     OW 6861   0.457   0.384   3.130  0.3464 -0.4635  0.3769
    1SOL    HW2 6862   0.465   0.404   3.223  0.5736 -0.8916  0.4502
    1SOL    HW3 6863   0.521   0.442   3.088  0.8913 -0.9169  0.5748
    1SOL    MW4 6864   0.466   0.394   3.136  0.4483 -0.5798  0.4127
    1SOL     OW 6865   0.637   0.573   3.001 -0.2441 -0.1088  0.5646
    1SOL    HW2 6866   0.711   0.518   3.026  0.0073 -1.1522 -2.2969
    1SOL    HW3 6867   0.658   0.660   3.036  1.9370 -0.5770  0.4654
    1SOL    MW4 6868   0.650   0.577   3.009  0.0768 -0.3083  0.1738
    1SOL     OW 6869   0.679   0.819   3.097 -0.5842 -0.0456 -0.0980
    1SOL    HW2 6870   0.688   0.825   3.193  0.6338  0.2268 -0.2241
    1SOL    HW3 6871   0.761   0.854   3.063 -1.1154  0.0932 -1.2578
    1SOL    MW4 6872   0.691   0.825   3.105 -0.4936  0.0086 -0.2675
    1SOL     OW 6873   0.444   0.926   2.968  0.1286 -0.2721  0.1185
    1SOL    HW2 6874   0.367   0.881   3.004  0.2919  0.2701  1.1911
    1SOL    HW3 6875   0.518   0.876   3.002  0.3110  0.8467  1.3933
    1SOL    MW4 6876   0.443   0.913   2.977  0.1742 -0.0530  0.4282
    1SOL     OW 6877   0.399   1.167   3.113  0.3635 -1.1296 -0.0233
    1SOL    HW2 6878   0.402   1.077   3.079  0.1568 -0.6874 -1.2601
    1SOL    HW3 6879   0.324   1.206   3.069  0.0362 -0.5485  1.0421
    1SOL    MW4 6880   0.390   1.160   3.103  0.2930 -0.9943 -0.0458
    1SOL     OW 6881   0.644   1.267   2.994 -0.6611  0.5422 -0.0775
    1SOL    HW2 6882   0.718   1.223   3.037 -0.5243 -0.9117 -1.7440
    1SOL    HW3 6883   0.567   1.233   3.040 -0.2942  2.7025  2.2284
    1SOL    MW4 6884   0.644   1.256   3.006 -0.5947  0.6354  0.0069
    1SOL     OW 6885   0.712   1.519   3.063 -0.0871  0.2687 -0.2290
    1SOL    HW2 6886   0.700   1.529   3.157  1.2966  0.4990 -0.0533
    1SOL    HW3 6887   0.699   1.425   3.047 -0.2007  0.2085  0.2114
    1SOL    MW4 6888   0.709   1.508   3.073  0.0806  0.2911 -0.1476
    1SOL     OW 6889   0.505   1.644   2.944  0.3792  0.3561 -0.4170
    1SOL    HW2 6890   0.577   1.595   2.983  0.4529  1.5537  0.9793
    1SOL    HW3 6891   0.427   1.613   2.988  0.2515  0.4369 -0.5839
    1SOL    MW4 6892   0.504   1.634   2.955  0.3721  0.5249 -0.2551
    1SOL     OW 6893   0.472   1.877   3.095 -0.1876  0.1531  0.1272
    1SOL    HW2 6894   0.488   1.795   3.049  0.1855  0.0511  0.4339
    1SOL    HW3 6895   0.397   1.916   3.050 -0.8883 -0.7436  0.4949
    1SOL    MW4 6896   0.464   1.872   3.083 -0.2308  0.0213  0.2162
    1SOL     OW 6897   0.690   2.024   3.002 -0.1964  0.5004  0.1879
    1SOL    HW2 6898   0.755   1.972   3.050  0.2817 -0.4904 -1.4919
    1SOL    HW3 6899   0.607   1.981   3.021 -0.1598  0.7601  0.9769
    1SOL    MW4 6900   0.688   2.011   3.011 -0.1285  0.4039  0.0701
    1SOL     OW 6901   0.700   2.282   3.091 -0.1158  0.6078  0.2149
    1SOL    HW2 6902   0.692   2.279   3.187 -0.6956  0.9225  0.1823
    1SOL    HW3 6903   0.701   2.191   3.064  0.2726  0.5136  0.5405
    1SOL    MW4 6904   0.699   2.270   3.100 -0.1411  0.6368  0.2537
    1SOL     OW 6905   0.457   2.408   3.041  0.8879  0.1303  0.1066
    1SOL    HW2 6906   0.536   2.360   3.064  0.5646 -0.1476  0.6332
    1SOL    HW3 6907   0.450   2.398   2.946  0.9406 -0.6786  0.1858
    1SOL    MW4 6908   0.467   2.401   3.032  0.8522 -0.0131  0.1864
    1SOL     OW 6909   0.457   2.687   3.118  0.0378 -0.0837  0.2202
    1SOL    HW2 6910   0.540   2.731   3.097 -0.6227  0.2859 -1.7108
    1SOL    HW3 6911   0.471   2.596   3.090 -0.2583  0.0156 -0.2522
    1SOL    MW4 6912   0.470   2.681   3.111 -0.0885 -0.0217 -0.0968
    1SOL     OW 6913   0.701   2.795   3.017  0.2164  0.3688 -0.0298
    1SOL    HW2 6914   0.784   2.752   3.038 -0.0021 -0.3261 -0.5335
    1SOL    HW3 6915   0.715   2.887   3.036  0.6334  0.0390  1.2989
    1SOL    MW4 6916   0.714   2.801   3.022  0.2426  0.2337  0.0789
    1SOL     OW 6917   0.708   3.052   3.100 -0.5267  0.6618  0.1692
    1SOL    HW2 6918   0.698   3.041   3.194  0.4613  0.8093  0.2987
    1SOL    HW3 6919   0.624   3.088   3.071 -1.2047 -0.3887  0.8222
    1SOL    MW4 6920   0.696   3.056   3.108 -0.4858  0.5424  0.2728
    1SOL     OW 6921   0.447   3.181   3.046  0.0460  0.0752 -0.4268
    1SOL    HW2 6922   0.451   3.275   3.063 -0.3402  0.1032 -0.4819
    1SOL    HW3 6923   0.356   3.158   3.062  0.6943 -0.7902  2.1367
    1SOL    MW4 6924   0.435   3.191   3.050  0.0806 -0.0355 -0.0958
    1SOL     OW 6925   0.461   3.466   3.133  0.1154 -0.3717  0.0819
    1SOL    HW2 6926   0.446   3.474   3.227 -1.1653 -1.3043 -0.0289
    1SOL    HW3 6927   0.393   3.521   3.093  1.7410  1.4242 -0.2678
    1SOL    MW4 6928   0.450   3.474   3.140  0.1609 -0.2575  0.0212
    1SOL     OW 6929   0.662   3.610   3.025  0.1565 -0.1082  0.1022
    1SOL    HW2 6930   0.743   3.563   3.043  0.0885 -0.1212  0.3785
    1SOL    HW3 6931   0.592   3.553   3.058  0.0201 -0.2001 -0.3442
    1SOL    MW4 6932   0.663   3.596   3.032  0.1295 -0.1221  0.0799
    1SOL     OW 6933   0.686   3.875   3.081 -0.2890  0.3935 -0.7497
    1SOL    HW2 6934   0.685   3.880   3.177  1.0500 -0.5977 -0.6654
    1SOL    HW3 6935   0.683   3.781   3.063 -0.8316  0.5950 -1.6899
    1SOL    MW4 6936   0.686   3.864   3.092 -0.1840  0.2897 -0.8626
    1SOL     OW 6937   0.452   4.028   3.023 -0.1327  0.0351  0.3058
    1SOL    HW2 6938   0.527   3.972   3.047  0.3712  0.5954  0.0581
    1SOL    HW3 6939   0.443   4.016   2.929 -1.1308 -0.9677  0.5205
    1SOL    MW4 6940   0.461   4.019   3.014 -0.1979 -0.0229  0.3014
    1SOL     OW 6941   0.462   4.285   3.129 -0.3088 -0.4249 -0.1082
    1SOL    HW2 6942   0.466   4.194   3.099  1.4262  0.7849 -3.8146
    1SOL    HW3 6943   0.376   4.316   3.099 -0.7802 -0.7217  0.9038
    1SOL    MW4 6944   0.451   4.277   3.121 -0.1421 -0.3047 -0.4635
    1SOL     OW 6945   0.660   4.421   3.013  0.2205  0.2273  0.0485
    1SOL    HW2 6946   0.591   4.366   3.052  1.3386 -0.8787  0.4939
    1SOL    HW3 6947   0.647   4.410   2.918  1.3297 -1.9849  0.1268
    1SOL    MW4 6948   0.649   4.412   3.005  0.5143 -0.2108  0.1175
    1SOL     OW 6949   1.084   4.655   3.105 -0.0597 -0.3536  0.4097
    1SOL    HW2 6950   1.169   4.681   3.068 -0.3935 -0.4420 -0.4272
    1SOL    HW3 6951   1.023   4.722   3.075 -0.2041 -0.0296  1.4042
    1SOL    MW4 6952   1.087   4.667   3.096 -0.1228 -0.3225  0.4303
    1SOL     OW 6953   0.886   0.160   2.977 -0.1398 -0.5678  0.2129
    1SOL    HW2 6954   0.866   0.245   3.016  0.3340 -0.3744  0.0407
    1SOL    HW3 6955   0.831   0.098   3.025 -0.0595 -0.2447  0.7316
    1SOL    MW4 6956   0.876   0.163   2.988 -0.0667 -0.4997  0.2587
    1SOL     OW 6957   0.836   0.423   3.108 -0.3296  0.2001  0.2364
    1SOL    HW2 6958   0.841   0.399   3.201  1.2578 -1.4991 -0.2507
    1SOL    HW3 6959   0.921   0.461   3.088 -0.5788  0.3320 -0.5904
    1SOL    MW4 6960   0.848   0.424   3.118 -0.1530 -0.0067  0.0627
    1SOL     OW 6961   1.082   0.518   3.017  0.1121  0.1381 -0.0375
    1SOL    HW2 6962   1.159   0.480   3.058 -0.4721  0.1746  1.1079
    1SOL    HW3 6963   1.093   0.500   2.923  2.3135  1.5629 -0.0923
    1SOL    MW4 6964   1.093   0.511   3.010  0.3254  0.3309  0.1063
    1SOL     OW 6965   1.136   0.783   3.078  0.0192 -0.0691  0.0106
    1SOL    HW2 6966   1.133   0.781   3.174  2.1826 -2.1953  0.0776
    1SOL    HW3 6967   1.115   0.694   3.051  2.2446 -0.2162 -1.3665
    1SOL    MW4 6968   1.133   0.771   3.087  0.5982 -0.3691 -0.1624
    1SOL     OW 6969   0.908   0.937   2.985 -0.4203  0.5474 -0.0482
    1SOL    HW2 6970   0.903   1.014   3.042 -1.0725 -1.0401  2.0884
    1SOL    HW3 6971   0.982   0.887   3.020 -1.0179 -0.5877 -0.4026
    1SOL    MW4 6972   0.918   0.941   2.997 -0.5852  0.1882  0.1869
    1SOL     OW 6973   0.890   1.179   3.101 -0.3080  0.4073 -0.4726
    1SOL    HW2 6974   0.886   1.174   3.197 -0.4703 -0.1254 -0.5047
    1SOL    HW3 6975   0.971   1.227   3.083  0.0466 -0.0342 -0.0773
    1SOL    MW4 6976   0.900   1.185   3.111 -0.2827  0.2787 -0.4246
    1SOL     OW 6977   1.155   1.269   3.063  0.5106  0.2524  0.0619
    1SOL    HW2 6978   1.236   1.225   3.089 -0.6496 -1.7010  0.5164
    1SOL    HW3 6979   1.144   1.243   2.971  0.8557  1.2435 -0.2613
    1SOL    MW4 6980   1.164   1.260   3.054  0.4030  0.1254  0.0792
    1SOL     OW 6981   1.131   1.536   3.131 -0.2626 -0.1614  0.5021
    1SOL    HW2 6982   1.212   1.575   3.098  1.1120 -1.2496  2.4564
    1SOL    HW3 6983   1.135   1.445   3.101 -0.4937 -0.3620  1.0810
    1SOL    MW4 6984   1.142   1.529   3.122 -0.1118 -0.3314  0.8364
    1SOL     OW 6985   0.923   1.677   3.015 -0.3149 -0.2585 -0.4725
    1SOL    HW2 6986   1.001   1.631   3.046  0.0583  0.0653 -0.9260
    1SOL    HW3 6987   0.851   1.617   3.036  0.0178 -0.4316  0.2132
    1SOL    MW4 6988   0.924   1.663   3.022 -0.2218 -0.2387 -0.4420
    1SOL     OW 6989   0.956   1.929   3.152 -0.1286 -0.5539  0.1113
    1SOL    HW2 6990   0.949   1.926   3.247 -3.1622  0.0093 -0.0452
    1SOL    HW3 6991   0.921   1.844   3.122 -0.2158 -0.2938 -0.5372
    1SOL    MW4 6992   0.950   1.917   3.161 -0.5403 -0.4454  0.0050
    1SOL     OW 6993   1.144   2.041   2.971  0.0078 -0.3781  0.0007
    1SOL    HW2 6994   1.080   1.990   3.020  0.5549  0.7474  1.9434
    1SOL    HW3 6995   1.125   2.022   2.879 -3.3854  0.2647  0.5163
    1SOL    MW4 6996   1.133   2.032   2.965 -0.3678 -0.1450  0.3250
    1SOL     OW 6997   1.153   2.280   3.115 -0.1107 -0.2033  0.0970
    1SOL    HW2 6998   1.088   2.334   3.069  1.4835  1.4105 -0.3359
    1SOL    HW3 6999   1.155   2.198   3.065  0.2387  0.8167 -1.6139
    1SOL    MW4 7000   1.145   2.277   3.102  0.1457  0.1442 -0.1862
    1SOL     OW 7001   0.928   2.414   2.989 -0.4636  0.2542 -0.2550
    1SOL    HW2 7002   0.860   2.361   3.032  0.6915  0.1727  1.5567
    1SOL    HW3 7003   0.905   2.412   2.896 -2.4929 -0.4090  0.2248
    1SOL    MW4 7004   0.916   2.407   2.983 -0.5790  0.1557  0.0477
    1SOL     OW 7005   0.955   2.684   3.076  0.0883 -0.0737  0.4370
    1SOL    HW2 7006   0.924   2.696   3.166  1.9762  1.3146  0.9171
    1SOL    HW3 7007   0.941   2.591   3.059 -0.3407 -0.3517  2.1440
    1SOL    MW4 7008   0.949   2.673   3.086  0.2808  0.0725  0.7255
    1SOL     OW 7009   1.159   2.820   2.982  0.6448  0.2485 -0.1597
    1SOL    HW2 7010   1.144   2.902   3.029  1.0230 -0.0616  0.5196
    1SOL    HW3 7011   1.095   2.760   3.020  0.7389  0.0800 -0.2672
    1SOL    MW4 7012   1.148   2.823   2.993  0.7070  0.1855 -0.0839
    1SOL     OW 7013   1.136   3.061   3.108  0.5983  0.0846  0.1830
    1SOL    HW2 7014   1.220   3.104   3.087  0.1354  0.6228 -0.6258
    1SOL    HW3 7015   1.070   3.119   3.069 -0.1929  0.0644  1.4904
    1SOL    MW4 7016   1.139   3.075   3.100  0.4328  0.1531  0.2489
    1SOL     OW 7017   0.929   3.206   3.011 -0.6091 -0.0907 -0.0124
    1SOL    HW2 7018   0.853   3.160   3.047  0.3977 -0.8111  1.2321
    1SOL    HW3 7019   0.924   3.191   2.917 -2.0625 -0.0552  0.0505
    1SOL    MW4 7020   0.919   3.198   3.003 -0.6680 -0.1814  0.1602
    1SOL     OW 7021   0.903   3.495   3.064 -0.0155 -0.0623  0.0170
    1SOL    HW2 7022   0.989   3.531   3.048  0.5770 -0.2623  2.4718
    1SOL    HW3 7023   0.914   3.400   3.054 -0.5536  0.0877 -2.1372
    1SOL    MW4 7024   0.916   3.487   3.061 -0.0083 -0.0689  0.0570
    1SOL     OW 7025   1.135   3.623   3.004 -0.3761  0.0766 -0.2329
    1SOL    HW2 7026   1.213   3.573   3.031 -0.1839  0.8979  0.7670
    1SOL    HW3 7027   1.138   3.702   3.058 -0.0880  1.6969 -2.5742
    1SOL    MW4 7028   1.146   3.627   3.015 -0.3127  0.3989 -0.4098
    1SOL     OW 7029   1.131   3.872   3.105 -0.3080 -0.3711 -0.4272
    1SOL    HW2 7030   1.107   3.886   3.197 -1.4296 -1.5345 -0.5238
    1SOL    HW3 7031   1.068   3.926   3.056 -0.0225 -0.1355 -0.5388
    1SOL    MW4 7032   1.119   3.881   3.111 -0.4183 -0.4935 -0.4549
    1SOL     OW 7033   0.912   4.025   2.982 -0.3459 -0.0231 -0.1452
    1SOL    HW2 7034   0.840   3.967   3.004  0.8120 -1.7443 -0.8039
    1SOL    HW3 7035   0.910   4.031   2.886  0.3030  0.0086 -0.1621
    1SOL    MW4 7036   0.902   4.018   2.972 -0.1075 -0.2460 -0.2346
    1SOL     OW 7037   0.896   4.277   3.107  0.4271 -0.3368  0.0901
    1SOL    HW2 7038   0.893   4.195   3.056 -0.2611 -0.7300  0.7501
    1SOL    HW3 7039   0.818   4.325   3.077 -0.1048 -0.6692  0.9257
    1SOL    MW4 7040   0.885   4.272   3.096  0.2661 -0.4330  0.2878
    1SOL     OW 7041   1.108   4.412   2.985 -0.2737  0.0028  0.1737
    1SOL    HW2 7042   1.042   4.355   3.025  0.3769 -0.3346  0.7614
    1SOL    HW3 7043   1.092   4.498   3.024 -0.6074  0.0084  0.0306
    1SOL    MW4 7044   1.097   4.416   2.995 -0.2320 -0.0410  0.2325
    1SOL     OW 7045   1.594   0.014   3.109 -0.2104 -1.1078  0.1534
    1SOL    HW2 7046   1.580   0.007   3.203  1.0110 -2.0628  0.2811
    1SOL    HW3 7047   1.509   0.043   3.074 -0.1926  0.8966  1.6972
    1SOL    MW4 7048   1.581   0.017   3.117 -0.0468 -0.9694  0.3743
    1SOL     OW 7049   1.314   0.111   3.023  0.4552 -0.2916 -0.3035
    1SOL    HW2 7050   1.334   0.199   3.055  0.0037 -0.1944 -0.2895
    1SOL    HW3 7051   1.313   0.120   2.927 -0.3776 -0.1031 -0.2868
    1SOL    MW4 7052   1.316   0.124   3.014  0.2857 -0.2540 -0.2995
    1SOL     OW 7053   1.330   0.399   3.108 -0.4724  0.0582  0.4260
    1SOL    HW2 7054   1.328   0.396   3.203 -0.8087 -1.0834  0.3882
    1SOL    HW3 7055   1.406   0.453   3.087 -0.0998 -0.1099  1.3357
    1SOL    MW4 7056   1.340   0.406   3.117 -0.4675 -0.1146  0.5412
    1SOL     OW 7057   1.579   0.515   3.020 -0.1858 -0.0977 -0.1361
    1SOL    HW2 7058   1.578   0.604   3.053  1.6565  0.1708 -0.7219
    1SOL    HW3 7059   1.572   0.524   2.925 -0.3545 -0.5984 -0.1731
    1SOL    MW4 7060   1.578   0.528   3.012  0.0350 -0.1284 -0.2184
    1SOL     OW 7061   1.576   0.780   3.086 -0.6601 -0.5835 -0.0048
    1SOL    HW2 7062   1.567   0.799   3.179  0.1753 -0.6940  0.0993
    1SOL    HW3 7063   1.508   0.833   3.044 -0.8518 -0.3170  0.6400
    1SOL    MW4 7064   1.566   0.789   3.093 -0.5751 -0.5630  0.0942
    1SOL     OW 7065   1.365   0.903   2.973  0.1207  0.2846 -0.0746
    1SOL    HW2 7066   1.380   0.983   3.024 -0.7032  0.8242 -0.6788
    1SOL    HW3 7067   1.283   0.868   3.007  0.2329 -0.0565 -0.1489
    1SOL    MW4 7068   1.357   0.909   2.984  0.0268  0.3108 -0.1643
    1SOL     OW 7069   1.393   1.145   3.093  0.0335  0.2823 -0.2440
    1SOL    HW2 7070   1.401   1.155   3.188  1.5864  0.2104 -0.3590
    1SOL    HW3 7071   1.461   1.202   3.057 -0.9285  0.7629 -1.3420
    1SOL    MW4 7072   1.403   1.154   3.101  0.1115  0.3361 -0.4041
    1SOL     OW 7073   1.593   1.289   2.964  0.3859  0.1724 -0.0551
    1SOL    HW2 7074   1.664   1.253   3.017  0.0534  0.0530  0.3115
    1SOL    HW3 7075   1.577   1.376   3.001 -0.9298 -0.5271  1.0939
    1SOL    MW4 7076   1.600   1.295   2.976  0.1683  0.0644  0.1447
    1SOL     OW 7077   1.572   1.539   3.089  0.0810  0.1779 -0.2014
    1SOL    HW2 7078   1.638   1.603   3.060 -0.4431  0.1262 -1.5445
    1SOL    HW3 7079   1.488   1.581   3.070 -0.2672 -0.7745 -0.7982
    1SOL    MW4 7080   1.570   1.553   3.083 -0.0341  0.0454 -0.4573
    1SOL     OW 7081   1.350   1.657   3.007 -0.1857  0.4201 -0.0755
    1SOL    HW2 7082   1.341   1.745   3.043 -1.5886 -0.2334  1.2285
    1SOL    HW3 7083   1.338   1.669   2.912 -0.5325  1.6135  0.1080
    1SOL    MW4 7084   1.347   1.670   2.999 -0.4165  0.4914  0.1211
    1SOL     OW 7085   1.387   1.928   3.105 -0.0645 -0.6806  0.6750
    1SOL    HW2 7086   1.415   1.934   3.197  0.5828 -1.1582  0.5161
    1SOL    HW3 7087   1.313   1.987   3.099 -0.5468 -1.1568  1.6775
    1SOL    MW4 7088   1.381   1.936   3.116 -0.0428 -0.8065  0.7863
    1SOL     OW 7089   1.621   2.029   3.015  0.2530 -0.8145  0.1546
    1SOL    HW2 7090   1.543   1.992   3.056  0.3224 -0.8998  0.2109
    1SOL    HW3 7091   1.596   2.044   2.924 -0.8685  2.1878  0.9033
    1SOL    MW4 7092   1.607   2.026   3.009  0.1142 -0.4296  0.2606
    1SOL     OW 7093   1.603   2.277   3.138 -0.0269  0.0836  0.6418
    1SOL    HW2 7094   1.526   2.318   3.098 -0.2157 -0.4991  0.4075
    1SOL    HW3 7095   1.616   2.196   3.088  0.8579  0.2785  0.5524
    1SOL    MW4 7096   1.595   2.272   3.126  0.0648  0.0324  0.5991
    1SOL     OW 7097   1.386   2.403   3.023 -0.0321 -0.2338  0.1730
    1SOL    HW2 7098   1.311   2.360   3.065 -0.8468  1.5336  0.5669
    1SOL    HW3 7099   1.368   2.395   2.929 -0.2689 -0.5753  0.2438
    1SOL    MW4 7100   1.374   2.396   3.016 -0.1708 -0.0458  0.2341
    1SOL     OW 7101   1.381   2.684   3.089  0.2737 -0.1162  0.3472
    1SOL    HW2 7102   1.356   2.592   3.088  1.4256 -0.4281 -2.6262
    1SOL    HW3 7103   1.309   2.728   3.044  0.7602  0.1540 -0.1661
    1SOL    MW4 7104   1.368   2.678   3.083  0.4900 -0.1218 -0.1125
    1SOL     OW 7105   1.584   2.828   2.999  0.2426  0.4860 -0.0911
    1SOL    HW2 7106   1.666   2.789   3.031  0.4344  0.1732 -0.9313
    1SOL    HW3 7107   1.515   2.771   3.034  0.4186  0.4167  0.1445
    1SOL    MW4 7108   1.586   2.815   3.008  0.2909  0.4354 -0.1709
    1SOL     OW 7109   1.616   3.076   3.101 -0.1872  0.2440  0.2435
    1SOL    HW2 7110   1.609   3.071   3.196  0.0182 -0.3001  0.2364
    1SOL    HW3 7111   1.603   2.986   3.072 -0.9797  0.5338 -0.2913
    1SOL    MW4 7112   1.614   3.063   3.109 -0.2646  0.2103  0.1719
    1SOL     OW 7113   1.369   3.208   3.008 -0.1526 -0.2986 -0.1081
    1SOL    HW2 7114   1.444   3.161   3.046  1.1873  1.3642 -0.6130
    1SOL    HW3 7115   1.377   3.194   2.913 -1.6119 -1.7270 -0.0348
    1SOL    MW4 7116   1.380   3.200   3.000 -0.1683 -0.2677 -0.1652
    1SOL     OW 7117   1.365   3.483   3.098  0.5909  0.2565  0.2176
    1SOL    HW2 7118   1.377   3.482   3.193  0.0423  0.0679  0.2913
    1SOL    HW3 7119   1.361   3.390   3.074 -1.4946  0.2822  0.3207
    1SOL    MW4 7120   1.366   3.470   3.107  0.2434  0.2353  0.2410
    1SOL     OW 7121   1.602   3.597   3.028  0.1172 -0.5084  0.0250
    1SOL    HW2 7122   1.515   3.569   3.056  0.1518  0.4362  1.0955
    1SOL    HW3 7123   1.596   3.602   2.932 -0.9591 -0.5938  0.0798
    1SOL    MW4 7124   1.590   3.594   3.019 -0.0201 -0.3951  0.1736
    1SOL     OW 7125   1.576   3.869   3.097 -0.1699 -0.2905 -0.1274
    1SOL    HW2 7126   1.658   3.910   3.070 -1.3861  1.9971 -0.4039
    1SOL    HW3 7127   1.576   3.784   3.052  1.7829 -0.1200 -0.5124
    1SOL    MW4 7128   1.587   3.863   3.088 -0.0727  0.0339 -0.2143
    1SOL     OW 7129   1.360   4.057   3.065 -0.3452  0.1236  0.5907
    1SOL    HW2 7130   1.438   4.002   3.072 -0.0232  0.7064  1.6743
    1SOL    HW3 7131   1.288   4.002   3.093 -0.3150 -0.3887 -0.3216
    1SOL    MW4 7132   1.361   4.043   3.070 -0.2986  0.1326  0.6130
    1SOL     OW 7133   1.342   4.342   3.107 -0.0437  0.4214  0.1788
    1SOL    HW2 7134   1.339   4.247   3.119  1.8128  0.1936 -0.9570
    1SOL    HW3 7135   1.261   4.362   3.059 -0.0867 -0.6885 -0.2449
    1SOL    MW4 7136   1.331   4.332   3.102  0.1955  0.2446 -0.0267
    1SOL     OW 7137   1.594   4.414   3.012 -0.2461 -0.2008 -0.0865
    1SOL    HW2 7138   1.508   4.375   3.028 -0.2580 -0.0309  0.2765
    1SOL    HW3 7139   1.592   4.496   3.061 -0.0669  0.0521 -0.5090
    1SOL    MW4 7140   1.582   4.419   3.021 -0.2241 -0.1454 -0.0944
    1SOL     OW 7141   2.060   0.022   3.116 -0.4824  0.2420 -0.2873
    1SOL    HW2 7142   2.057   0.029   3.211  0.1670  1.7899 -0.3618
    1SOL    HW3 7143   1.982   0.068   3.085 -1.7170 -1.8704 -0.4709
    1SOL    MW4 7144   2.049   0.029   3.124 -0.5596  0.1678 -0.3211
    1SOL     OW 7145   1.820   0.144   3.010 -0.1533 -0.5782 -0.4127
    1SOL    HW2 7146   1.742   0.096   3.040  0.0983 -1.3566 -0.9888
    1SOL    HW3 7147   1.807   0.154   2.916 -0.6424  1.3154 -0.1635
    1SOL    MW4 7148   1.808   0.139   3.002 -0.1847 -0.4310 -0.4559
    1SOL     OW 7149   1.820   0.391   3.106  0.2159  0.4408  0.0977
    1SOL    HW2 7150   1.802   0.300   3.081  1.4006  0.3259 -0.3937
    1SOL    HW3 7151   1.741   0.439   3.083 -1.3998 -0.8771  2.6479
    1SOL    MW4 7152   1.807   0.385   3.100  0.1590  0.2518  0.3693
    1SOL     OW 7153   2.031   0.493   2.959  0.2780 -0.0960  0.4599
    1SOL    HW2 7154   1.957   0.448   3.000 -0.2051  0.1801 -0.1137
    1SOL    HW3 7155   2.108   0.448   2.994 -0.1746 -0.7315  0.6469
    1SOL    MW4 7156   2.031   0.481   2.969  0.1550 -0.1434  0.4089
    1SOL     OW 7157   2.060   0.761   3.055  0.0903  0.2899  0.0183
    1SOL    HW2 7158   1.972   0.790   3.029  0.3732 -0.5666 -1.9924
    1SOL    HW3 7159   2.059   0.666   3.042  1.0069  0.1283  0.9912
    1SOL    MW4 7160   2.048   0.752   3.050  0.2487  0.1556 -0.1187
    1SOL     OW 7161   1.823   0.877   2.987  0.2060  0.4578  0.4953
    1SOL    HW2 7162   1.736   0.851   3.020  0.6275 -1.1620  0.3584
    1SOL    HW3 7163   1.813   0.876   2.892  0.6686 -0.8260  0.4495
    1SOL    MW4 7164   1.810   0.873   2.979  0.3227  0.0747  0.4714
    1SOL     OW 7165   1.810   1.142   3.103 -0.3606 -0.3067  0.1315
    1SOL    HW2 7166   1.822   1.142   3.198 -0.9835 -1.3237  0.2164
    1SOL    HW3 7167   1.817   1.050   3.078 -0.3883 -0.0671 -0.7885
    1SOL    MW4 7168   1.813   1.130   3.112 -0.4464 -0.4092  0.0212
    1SOL     OW 7169   2.013   1.253   2.949 -0.0410 -0.1657 -0.3253
    1SOL    HW2 7170   2.095   1.236   2.994 -0.4819 -0.7615  0.2706
    1SOL    HW3 7171   1.946   1.218   3.007 -0.7226  0.3713 -0.7771
    1SOL    MW4 7172   2.015   1.246   2.962 -0.1888 -0.1733 -0.3061
    1SOL     OW 7173   1.999   1.511   3.091  0.1049  0.3672  0.4983
    1SOL    HW2 7174   2.005   1.489   3.184  1.0557 -0.4192  0.2557
    1SOL    HW3 7175   1.978   1.429   3.047  0.8192  0.4985 -0.1048
    1SOL    MW4 7176   1.997   1.498   3.097  0.3245  0.2809  0.3865
    1SOL     OW 7177   1.803   1.690   2.988 -0.1042  0.2779 -1.0523
    1SOL    HW2 7178   1.809   1.771   3.039  0.1845 -0.0426 -0.5743
    1SOL    HW3 7179   1.860   1.629   3.034 -0.8593 -0.4077 -1.0199
    1SOL    MW4 7180   1.811   1.693   3.001 -0.1656  0.1452 -0.9849
    1SOL     OW 7181   1.829   1.926   3.149 -0.1872  0.2021 -0.0913
    1SOL    HW2 7182   1.906   1.961   3.103  0.9737 -1.9027  0.1662
    1SOL    HW3 7183   1.755   1.964   3.103  0.9863  1.8818 -0.6797
    1SOL    MW4 7184   1.830   1.936   3.137  0.1208  0.1460 -0.1347
    1SOL     OW 7185   2.027   2.041   3.007  0.0900  0.0040 -0.0818
    1SOL    HW2 7186   2.108   2.004   3.041  0.0051  0.0056  0.1228
    1SOL    HW3 7187   2.020   2.126   3.050 -0.5621 -0.4460  0.7013
    1SOL    MW4 7188   2.037   2.047   3.017 -0.0072 -0.0553  0.0486
    1SOL     OW 7189   2.001   2.319   3.125 -0.1022  0.3278 -0.1715
    1SOL    HW2 7190   2.077   2.365   3.091  0.0850 -1.1158 -1.8022
    1SOL    HW3 7191   1.931   2.340   3.063 -0.3641 -0.4372 -0.1390
    1SOL    MW4 7192   2.001   2.328   3.113 -0.1121  0.0365 -0.3824
    1SOL     OW 7193   1.771   2.419   2.985 -0.0091 -0.5462  0.1213
    1SOL    HW2 7194   1.775   2.508   3.020  0.5208 -0.8996  0.9880
    1SOL    HW3 7195   1.705   2.375   3.039  0.7784 -1.0816  0.6621
    1SOL    MW4 7196   1.763   2.425   2.997  0.1647 -0.6633  0.3066
    1SOL     OW 7197   1.825   2.687   3.074 -0.1798  0.3880  0.3160
    1SOL    HW2 7198   1.842   2.696   3.167  0.8009  0.3247  0.1454
    1SOL    HW3 7199   1.895   2.737   3.031 -0.9410  0.8863 -0.3758
    1SOL    MW4 7200   1.836   2.695   3.080 -0.1508  0.4451  0.2024
    1SOL     OW 7201   2.043   2.831   2.953  0.1745  0.0005  0.0749
    1SOL    HW2 7202   2.047   2.920   2.989 -0.8254 -0.1831  0.6619
    1SOL    HW3 7203   2.035   2.844   2.858  1.9606  0.4981 -0.0286
    1SOL    MW4 7204   2.043   2.844   2.945  0.2782  0.0417  0.1383
    1SOL     OW 7205   2.041   3.079   3.095 -0.1694  0.1785 -0.3698
    1SOL    HW2 7206   2.043   3.095   3.189 -0.3137  0.6456 -0.4398
    1SOL    HW3 7207   1.976   3.141   3.062  1.9484  2.0577 -1.1512
    1SOL    MW4 7208   2.033   3.090   3.103  0.0911  0.4878 -0.4821
    1SOL     OW 7209   1.821   3.226   2.987  0.6331  0.0134  0.1710
    1SOL    HW2 7210   1.743   3.183   3.020  1.7229 -0.9598  1.5615
    1SOL    HW3 7211   1.813   3.221   2.891 -0.8194 -0.3872  0.3097
    1SOL    MW4 7212   1.810   3.219   2.979  0.5852 -0.1678  0.3729
    1SOL     OW 7213   1.835   3.489   3.107  0.3179  0.3343 -0.2590
    1SOL    HW2 7214   1.842   3.403   3.066  0.6719 -0.7933  2.0626
    1SOL    HW3 7215   1.752   3.525   3.075 -0.2849 -1.2693 -0.5142
    1SOL    MW4 7216   1.825   3.483   3.097  0.2850 -0.0260  0.0136
    1SOL     OW 7217   2.035   3.648   2.989  0.2489 -0.3140 -0.5230
    1SOL    HW2 7218   2.023   3.727   3.041  1.0624 -1.0801  0.8537
    1SOL    HW3 7219   1.964   3.590   3.016 -0.7564  0.1848 -2.0275
    1SOL    MW4 7220   2.024   3.650   2.999  0.2234 -0.3493 -0.5398
    1SOL     OW 7221   2.055   3.884   3.126 -0.4575 -0.1418 -0.0479
    1SOL    HW2 7222   2.048   3.876   3.221 -1.0153  0.2249 -0.0544
    1SOL    HW3 7223   1.970   3.919   3.099 -0.1200  0.2329 -0.6279
    1SOL    MW4 7224   2.043   3.887   3.135 -0.4864 -0.0441 -0.1254
    1SOL     OW 7225   1.816   3.970   2.998 -0.2373 -0.1867  0.2750
    1SOL    HW2 7226   1.812   4.055   3.041 -1.5450  0.0610 -0.3058
    1SOL    HW3 7227   1.805   3.990   2.905  2.7468 -0.6923 -0.2107
    1SOL    MW4 7228   1.814   3.984   2.991 -0.0160 -0.2208  0.1342
    1SOL     OW 7229   1.804   4.225   3.109  0.7124 -0.7029  0.0541
    1SOL    HW2 7230   1.884   4.272   3.086  0.3767  0.6251  1.4693
    1SOL    HW3 7231   1.734   4.276   3.068  0.5143 -1.2569 -0.2961
    1SOL    MW4 7232   1.805   4.238   3.101  0.6419 -0.6013  0.1945
    1SOL     OW 7233   2.034   4.389   3.058 -0.3142  0.1684 -0.0073
    1SOL    HW2 7234   2.049   4.476   3.095  3.2843 -0.5144  0.3684
    1SOL    HW3 7235   2.044   4.401   2.963  0.5052  0.1548  0.0674
    1SOL    MW4 7236   2.038   4.402   3.050  0.2692  0.0763  0.0520
    1SOL     OW 7237   2.506   4.657   3.098  0.5971 -0.1722 -0.0021
    1SOL    HW2 7238   2.523   4.577   3.049  2.5273 -0.3798  0.9404
    1SOL    HW3 7239   2.436   4.701   3.050 -0.5972 -2.4952 -0.4232
    1SOL    MW4 7240   2.499   4.652   3.085  0.6940 -0.5064  0.0668
    1SOL     OW 7241   2.277   0.114   2.977  0.1098 -0.0224  0.3435
    1SOL    HW2 7242   2.271   0.203   3.012  1.2390 -0.4855  1.6966
    1SOL    HW3 7243   2.215   0.063   3.029  0.5058 -0.3367  0.5077
    1SOL    MW4 7244   2.268   0.119   2.988  0.3109 -0.1250  0.5436
    1SOL     OW 7245   2.257   0.369   3.081 -0.3037  0.1361  0.4541
    1SOL    HW2 7246   2.260   0.374   3.176  0.3312  1.0316  0.3881
    1SOL    HW3 7247   2.338   0.410   3.052  1.1418 -3.0785 -0.3617
    1SOL    MW4 7248   2.268   0.375   3.090 -0.0293 -0.1699  0.3378
    1SOL     OW 7249   2.485   0.509   3.011 -0.4373 -0.2442 -0.0313
    1SOL    HW2 7250   2.576   0.487   3.029 -0.3930  1.0315  1.4148
    1SOL    HW3 7251   2.481   0.518   2.915  0.8549 -0.7344 -0.1438
    1SOL    MW4 7252   2.496   0.508   3.000 -0.2611 -0.1406  0.1447
    1SOL     OW 7253   2.470   0.777   3.072 -0.3128  0.0848 -0.4029
    1SOL    HW2 7254   2.562   0.800   3.064 -0.1985 -0.7495 -1.4916
    1SOL    HW3 7255   2.467   0.682   3.067 -1.1101  0.0141  0.9681
    1SOL    MW4 7256   2.481   0.768   3.070 -0.4029 -0.0346 -0.3655
    1SOL     OW 7257   2.252   0.909   2.961 -0.0361 -0.4800 -0.0861
    1SOL    HW2 7258   2.321   0.857   3.001 -0.9463 -1.0999  0.7016
    1SOL    HW3 7259   2.172   0.859   2.976 -0.5927 -0.0641 -1.4855
    1SOL    MW4 7260   2.250   0.896   2.968 -0.2296 -0.5069 -0.1669
    1SOL     OW 7261   2.242   1.174   3.090 -0.0055  0.2386 -0.1412
    1SOL    HW2 7262   2.264   1.158   3.181  1.3901 -0.5012 -0.6042
    1SOL    HW3 7263   2.244   1.088   3.049  2.1755  0.8829 -1.4753
    1SOL    MW4 7264   2.245   1.161   3.096  0.4663  0.2260 -0.3784
    1SOL     OW 7265   2.453   1.270   2.944 -0.8153  0.2409  0.1504
    1SOL    HW2 7266   2.374   1.220   2.963  0.3224 -1.3250  0.9212
    1SOL    HW3 7267   2.460   1.267   2.848 -0.8943 -0.8833  0.1756
    1SOL    MW4 7268   2.444   1.263   2.934 -0.6757 -0.1140  0.2553
    1SOL     OW 7269   2.474   1.508   3.049 -0.0079 -0.3501  0.1559
    1SOL    HW2 7270   2.394   1.552   3.018  0.1554 -0.2339 -0.1127
    1SOL    HW3 7271   2.477   1.427   2.999  1.0735  0.5493 -1.2980
    1SOL    MW4 7272   2.464   1.503   3.038  0.1559 -0.2161 -0.0713
    1SOL     OW 7273   2.255   1.655   2.975  0.1965 -0.2075  0.2082
    1SOL    HW2 7274   2.198   1.585   3.007  1.2700 -1.2079 -0.0369
    1SOL    HW3 7275   2.245   1.652   2.880 -0.8114  0.8851  0.2779
    1SOL    MW4 7276   2.246   1.645   2.967  0.2053 -0.1953  0.1850
    1SOL     OW 7277   2.258   1.906   3.094 -0.3593 -0.0138  0.3508
    1SOL    HW2 7278   2.331   1.963   3.070 -0.5918  0.1679  0.0732
    1SOL    HW3 7279   2.274   1.825   3.046  0.6169 -0.6307  1.6697
    1SOL    MW4 7280   2.269   1.903   3.085 -0.2613 -0.0712  0.4878
    1SOL     OW 7281   2.478   2.074   2.984  0.3661 -0.7575  0.0907
    1SOL    HW2 7282   2.557   2.022   3.002  1.2084  0.5360  0.1979
    1SOL    HW3 7283   2.462   2.061   2.890  1.4611 -0.0179 -0.2130
    1SOL    MW4 7284   2.486   2.065   2.974  0.6218 -0.4892  0.0646
    1SOL     OW 7285   2.524   2.327   3.117 -0.6037  0.2821 -0.2770
    1SOL    HW2 7286   2.494   2.338   3.208 -2.6775  0.8727 -0.9997
    1SOL    HW3 7287   2.505   2.236   3.096 -0.8919  0.3667 -0.3846
    1SOL    MW4 7288   2.518   2.317   3.126 -0.9151  0.3710 -0.3870
    1SOL     OW 7289   2.260   2.402   3.061 -0.2275 -0.4192 -0.2244
    1SOL    HW2 7290   2.256   2.497   3.064  0.3826 -0.4017  0.0157
    1SOL    HW3 7291   2.351   2.381   3.081 -0.8535 -1.1579  1.9877
    1SOL    MW4 7292   2.271   2.412   3.064 -0.2298 -0.5140  0.0992
    1SOL     OW 7293   2.255   2.686   3.092 -0.3740  0.0795 -0.3834
    1SOL    HW2 7294   2.335   2.734   3.071  0.9233 -1.5158  0.7478
    1SOL    HW3 7295   2.187   2.726   3.038  1.6226  0.0653 -2.9891
    1SOL    MW4 7296   2.257   2.697   3.082  0.0606 -0.1328 -0.5779
    1SOL     OW 7297   2.467   2.832   3.026 -0.1048  0.2398 -0.0103
    1SOL    HW2 7298   2.461   2.923   3.055  1.2550  0.5963 -0.8125
    1SOL    HW3 7299   2.467   2.837   2.931 -1.7433 -0.7350 -0.0899
    1SOL    MW4 7300   2.466   2.845   3.017 -0.1416  0.1581 -0.1266
    1SOL     OW 7301   2.480   3.093   3.113  0.3523 -0.3843  0.0666
    1SOL    HW2 7302   2.551   3.137   3.067  0.7458 -1.7655 -0.6974
    1SOL    HW3 7303   2.402   3.144   3.094  0.7659 -0.1334 -0.9620
    1SOL    MW4 7304   2.479   3.105   3.105  0.4590 -0.5333 -0.1700
    1SOL     OW 7305   2.260   3.237   3.027 -0.2471  0.1100  0.0804
    1SOL    HW2 7306   2.237   3.324   3.059  0.1724 -0.1002  0.9422
    1SOL    HW3 7307   2.185   3.183   3.050  1.2472 -0.6743  3.2891
    1SOL    MW4 7308   2.247   3.242   3.034  0.0055 -0.0210  0.6175
    1SOL     OW 7309   2.231   3.504   3.134  0.3653  0.2498 -0.2622
    1SOL    HW2 7310   2.315   3.530   3.098  0.9254  2.2076  2.2881
    1SOL    HW3 7311   2.168   3.564   3.094  0.4513 -0.0213 -0.7981
    1SOL    MW4 7312   2.234   3.515   3.124  0.4506  0.4725  0.0038
    1SOL     OW 7313   2.472   3.607   3.058 -0.0195  0.3412  0.0026
    1SOL    HW2 7314   2.545   3.555   3.091 -2.0406 -1.8906  1.0932
    1SOL    HW3 7315   2.490   3.696   3.089  1.3205 -0.5204  1.7474
    1SOL    MW4 7316   2.484   3.612   3.066 -0.1090 -0.0670  0.3765
    1SOL     OW 7317   2.500   3.868   3.124  0.0901 -0.1650 -0.2434
    1SOL    HW2 7318   2.511   3.888   3.217  0.7944  0.5301 -0.4688
    1SOL    HW3 7319   2.561   3.927   3.080  0.4650 -1.1698 -1.0850
    1SOL    MW4 7320   2.510   3.878   3.131  0.2325 -0.2058 -0.3843
    1SOL     OW 7321   2.285   4.014   3.045  0.0243  0.1792 -0.0368
    1SOL    HW2 7322   2.352   3.958   3.081  2.2719  0.6898 -3.1917
    1SOL    HW3 7323   2.203   3.967   3.060  1.2504 -1.2925  2.2627
    1SOL    MW4 7324   2.283   4.001   3.052  0.4826  0.0525 -0.1497
    1SOL     OW 7325   2.275   4.275   3.115 -0.0881  0.1005  0.0367
    1SOL    HW2 7326   2.270   4.183   3.091 -1.3445  0.3520 -0.6981
    1SOL    HW3 7327   2.194   4.314   3.081  0.3236  1.4297  0.5222
    1SOL    MW4 7328   2.263   4.268   3.108 -0.1993  0.3090  0.0041
    1SOL     OW 7329   2.535   4.394   2.986  0.1761  0.0564  0.2406
    1SOL    HW2 7330   2.458   4.356   3.027  0.1020  0.8373  0.8628
    1SOL    HW3 7331   2.516   4.395   2.893  1.2632 -3.8344 -0.1162
    1SOL    MW4 7332   2.523   4.389   2.979  0.3099 -0.3538  0.2756
    1SOL     OW 7333   2.916   4.630   3.154 -0.5849 -0.0030  0.0320
    1SOL    HW2 7334   2.980   4.679   3.103 -1.2021  0.9460  0.1576
    1SOL    HW3 7335   2.900   4.551   3.102  0.3059 -0.0079 -0.2401
    1SOL    MW4 7336   2.922   4.626   3.140 -0.5486  0.1216  0.0129
    1SOL     OW 7337   2.711   0.130   3.000  0.1978  0.0387  0.0017
    1SOL    HW2 7338   2.781   0.088   3.049  0.5089 -0.0395 -0.5122
    1SOL    HW3 7339   2.631   0.098   3.041  0.4509 -0.3956  0.1543
    1SOL    MW4 7340   2.709   0.120   3.012  0.2723 -0.0289 -0.0460
    1SOL     OW 7341   2.737   0.406   3.068  0.5590 -0.3255 -0.4402
    1SOL    HW2 7342   2.749   0.313   3.051  0.4080 -0.6095  0.9584
    1SOL    HW3 7343   2.728   0.413   3.163 -1.3794  0.8864 -0.6604
    1SOL    MW4 7344   2.737   0.395   3.079  0.2835 -0.2031 -0.2849
    1SOL     OW 7345   2.958   0.553   2.999 -0.2876  0.0860  0.1634
    1SOL    HW2 7346   2.884   0.502   3.031  1.2429 -1.3337  1.5009
    1SOL    HW3 7347   2.960   0.535   2.905 -1.2124 -0.4047  0.2338
    1SOL    MW4 7348   2.948   0.544   2.990 -0.2077 -0.1661  0.3493
    1SOL     OW 7349   2.977   0.812   3.091 -0.5228  0.7451  0.0704
    1SOL    HW2 7350   2.969   0.796   3.185 -0.1983  0.5093  0.0594
    1SOL    HW3 7351   2.956   0.727   3.050  0.2503  0.5940 -0.0290
    1SOL    MW4 7352   2.973   0.798   3.098 -0.3784  0.6941  0.0556
    1SOL     OW 7353   2.720   0.906   3.008 -0.0301 -0.2375 -0.3498
    1SOL    HW2 7354   2.706   0.998   3.033 -0.1472 -0.3759  0.0881
    1SOL    HW3 7355   2.808   0.886   3.040 -0.2630 -0.4792  0.1356
    1SOL    MW4 7356   2.730   0.916   3.015 -0.0763 -0.2877 -0.2277
    1SOL     OW 7357   2.687   1.198   3.091  0.3897 -0.1174  0.7233
    1SOL    HW2 7358   2.760   1.235   3.041 -0.1953 -1.0374 -0.8710
    1SOL    HW3 7359   2.609   1.227   3.044 -0.1358 -1.9031  0.4628
    1SOL    MW4 7360   2.686   1.207   3.078  0.2432 -0.4745  0.4787
    1SOL     OW 7361   2.917   1.300   2.984  0.0149 -0.1945 -0.6732
    1SOL    HW2 7362   2.995   1.260   3.024 -1.0881 -1.6883  0.0809
    1SOL    HW3 7363   2.905   1.382   3.032  0.0986 -0.8259  0.4544
    1SOL    MW4 7364   2.926   1.305   2.996 -0.1194 -0.4749 -0.4249
    1SOL     OW 7365   2.902   1.557   3.110 -0.2397  0.1988  0.3211
    1SOL    HW2 7366   2.902   1.560   3.206 -0.5954 -0.1921  0.3373
    1SOL    HW3 7367   2.993   1.573   3.086  0.2080 -1.5118  0.7934
    1SOL    MW4 7368   2.914   1.559   3.120 -0.2275 -0.0784  0.3855
    1SOL     OW 7369   2.696   1.661   2.987 -0.2905 -0.1380  0.2944
    1SOL    HW2 7370   2.781   1.644   3.028 -0.0669  0.1122 -0.0593
    1SOL    HW3 7371   2.635   1.604   3.033  0.2152 -0.9218  0.0080
    1SOL    MW4 7372   2.699   1.651   2.998 -0.1943 -0.2084  0.2098
    1SOL     OW 7373   2.684   1.914   3.077 -0.2195  0.2516 -0.3547
    1SOL    HW2 7374   2.776   1.930   3.057  0.1461 -0.9513  0.3452
    1SOL    HW3 7375   2.667   1.826   3.043 -0.7874 -0.0200  0.6217
    1SOL    MW4 7376   2.694   1.904   3.070 -0.2460  0.0572 -0.1335
    1SOL     OW 7377   2.944   2.029   3.025  0.3171  0.1999 -0.1299
    1SOL    HW2 7378   2.927   2.115   3.065 -0.1111  0.1002 -0.0911
    1SOL    HW3 7379   2.916   2.039   2.934 -1.9380 -0.5693  0.4366
    1SOL    MW4 7380   2.938   2.042   3.019 -0.0370  0.0854 -0.0498
    1SOL     OW 7381   2.930   2.308   3.062  0.6099  0.0440  0.0522
    1SOL    HW2 7382   3.007   2.363   3.053  0.5702  0.0900 -0.0119
    1SOL    HW3 7383   2.858   2.363   3.030  0.4788  0.1790  0.5796
    1SOL    MW4 7384   2.930   2.322   3.056  0.5875  0.0679  0.1135
    1SOL     OW 7385   2.723   2.468   2.989  0.6334 -0.0701 -0.1200
    1SOL    HW2 7386   2.717   2.549   3.039 -0.2018 -0.7728  0.9840
    1SOL    HW3 7387   2.661   2.409   3.034  1.2006 -1.2874 -0.9153
    1SOL    MW4 7388   2.714   2.471   3.002  0.5980 -0.3235 -0.0792
    1SOL     OW 7389   2.716   2.714   3.108  0.0353 -0.3758  0.2892
    1SOL    HW2 7390   2.709   2.698   3.202 -0.0253  1.4103  0.6086
    1SOL    HW3 7391   2.630   2.747   3.083  0.2495 -0.2372 -0.2721
    1SOL    MW4 7392   2.704   2.716   3.117  0.0556 -0.1216  0.2575
    1SOL     OW 7393   2.946   2.862   2.986  0.0671 -0.5246 -0.0632
    1SOL    HW2 7394   3.006   2.798   3.024  0.0112 -0.3697  0.2947
    1SOL    HW3 7395   2.859   2.829   3.009  0.0711  0.9761  2.3133
    1SOL    MW4 7396   2.942   2.849   2.994  0.0603 -0.3064  0.2978
    1SOL     OW 7397   2.944   3.097   3.118  0.2666 -0.3089  0.0963
    1SOL    HW2 7398   2.856   3.125   3.092  0.2663  0.9169  1.3704
    1SOL    HW3 7399   2.953   3.009   3.080 -1.7854 -0.7470  0.5317
    1SOL    MW4 7400   2.933   3.089   3.110 -0.0043 -0.2050  0.3219
    1SOL     OW 7401   2.710   3.196   3.007 -0.0031  0.0522  0.1652
    1SOL    HW2 7402   2.714   3.285   3.042 -1.5271 -0.5092  1.8020
    1SOL    HW3 7403   2.723   3.207   2.913 -0.1272  2.0146  0.3661
    1SOL    MW4 7404   2.712   3.209   2.999 -0.2205  0.2370  0.4075
    1SOL     OW 7405   2.697   3.448   3.122 -0.4308  0.2869 -0.6889
    1SOL    HW2 7406   2.722   3.439   3.214 -0.8931  0.5269 -0.5387
    1SOL    HW3 7407   2.760   3.511   3.086  0.8277 -1.0976 -0.9626
    1SOL    MW4 7408   2.709   3.455   3.130 -0.3259  0.1357 -0.7050
    1SOL     OW 7409   2.910   3.634   3.049  0.1590  0.1546 -0.3813
    1SOL    HW2 7410   2.988   3.590   3.082 -0.4425 -1.5427 -1.2026
    1SOL    HW3 7411   2.917   3.723   3.083  1.0428 -0.7388  1.8546
    1SOL    MW4 7412   2.921   3.640   3.058  0.1962 -0.1874 -0.1948
    1SOL     OW 7413   2.901   3.888   3.163  0.4756 -0.1808  0.1594
    1SOL    HW2 7414   2.885   3.896   3.257 -0.5047 -1.4567  0.1156
    1SOL    HW3 7415   2.822   3.924   3.122  0.8151  0.1871 -0.1768
    1SOL    MW4 7416   2.888   3.894   3.170  0.3912 -0.3006  0.1092
    1SOL     OW 7417   2.704   4.002   3.007  0.0747  0.5792 -0.1054
    1SOL    HW2 7418   2.708   4.095   3.026 -0.2786  0.7296 -0.7730
    1SOL    HW3 7419   2.693   3.996   2.912  1.4152 -0.1594 -0.2337
    1SOL    MW4 7420   2.703   4.013   2.997  0.2050  0.5012 -0.2103
    1SOL     OW 7421   2.744   4.255   3.098 -0.1651  0.0253 -0.0279
    1SOL    HW2 7422   2.738   4.255   3.194 -1.6984  0.2307 -0.1012
    1SOL    HW3 7423   2.661   4.293   3.070  0.7210  0.9402 -1.4266
    1SOL    MW4 7424   2.732   4.260   3.107 -0.2506  0.1736 -0.2224
    1SOL     OW 7425   2.924   4.413   2.973  0.3272 -0.3025 -0.1362
    1SOL    HW2 7426   3.006   4.365   2.979  0.1258 -0.6720 -0.3532
    1SOL    HW3 7427   2.861   4.359   3.020  0.0736 -0.3063 -0.4832
    1SOL    MW4 7428   2.927   4.400   2.980  0.2670 -0.3519 -0.2105
    1SOL     OW 7429   3.350   4.664   3.165  0.1526  0.1331 -0.0879
    1SOL    HW2 7430   3.412   4.723   3.122 -0.5342  0.2342 -0.9727
    1SOL    HW3 7431   3.366   4.578   3.126  0.5749 -0.0952  0.5818
    1SOL    MW4 7432   3.360   4.661   3.154  0.1178  0.1163 -0.1161
    1SOL     OW 7433   3.104   0.105   3.009  0.1899  0.4945 -0.4863
    1SOL    HW2 7434   3.096   0.196   3.036 -0.7781 -0.1574  1.4925
    1SOL    HW3 7435   3.188   0.076   3.046  0.1880  0.3935 -0.5600
    1SOL    MW4 7436   3.114   0.113   3.017  0.0618  0.3952 -0.2348
    1SOL     OW 7437   3.131   0.370   3.094  0.2879  0.0844 -0.2556
    1SOL    HW2 7438   3.218   0.408   3.086  0.5071 -0.5952 -1.1372
    1SOL    HW3 7439   3.071   0.442   3.076  0.6609  0.4966  0.1176
    1SOL    MW4 7440   3.135   0.384   3.091  0.3657  0.0492 -0.3226
    1SOL     OW 7441   3.363   0.498   3.014  0.2049  0.2704 -0.1937
    1SOL    HW2 7442   3.441   0.463   3.057  0.8208  0.1482 -1.3974
    1SOL    HW3 7443   3.371   0.470   2.923 -2.0552 -1.1094 -0.0002
    1SOL    MW4 7444   3.375   0.490   3.008 -0.0117  0.0722 -0.3269
    1SOL     OW 7445   3.401   0.781   3.075  0.3373 -0.0472  0.1274
    1SOL    HW2 7446   3.368   0.783   3.164 -0.5271 -0.7919 -0.1658
    1SOL    HW3 7447   3.381   0.692   3.044 -1.5200  0.9284 -1.5926
    1SOL    MW4 7448   3.394   0.769   3.083 -0.0217 -0.0167 -0.1383
    1SOL     OW 7449   3.196   0.945   2.999  0.1477 -0.1520 -0.5896
    1SOL    HW2 7450   3.271   0.890   3.023  0.3620  0.2411 -0.3518
    1SOL    HW3 7451   3.120   0.898   3.034  0.5459  0.9493  1.8576
    1SOL    MW4 7452   3.196   0.931   3.007  0.2284  0.0452 -0.2351
    1SOL     OW 7453   3.169   1.205   3.071  0.3231 -0.2046 -0.0780
    1SOL    HW2 7454   3.239   1.263   3.040  1.4060 -0.7273  1.3241
    1SOL    HW3 7455   3.184   1.123   3.023  0.3371 -0.1375 -0.1899
    1SOL    MW4 7456   3.180   1.202   3.060  0.4675 -0.2649  0.0920
    1SOL     OW 7457   3.394   1.341   2.987  0.5555 -0.5442 -0.0071
    1SOL    HW2 7458   3.463   1.286   3.025 -0.4863 -0.7165  1.6791
    1SOL    HW3 7459   3.402   1.424   3.033 -0.1643 -0.4559 -0.0389
    1SOL    MW4 7460   3.404   1.345   2.998  0.3233 -0.5553  0.2110
    1SOL     OW 7461   3.404   1.569   3.139  0.2830  0.4303  0.6518
    1SOL    HW2 7462   3.407   1.570   3.235  0.3139 -1.3099  0.6895
    1SOL    HW3 7463   3.481   1.619   3.112  1.2143 -0.4795  1.5613
    1SOL    MW4 7464   3.415   1.576   3.148  0.4098  0.0807  0.7768
    1SOL     OW 7465   3.155   1.636   3.015 -0.0306  0.0752 -0.4376
    1SOL    HW2 7466   3.236   1.597   3.049 -0.5969  0.0218  0.8833
    1SOL    HW3 7467   3.149   1.721   3.059  0.3157  0.9234 -2.0212
    1SOL    MW4 7468   3.165   1.642   3.026 -0.0601  0.1801 -0.4721
    1SOL     OW 7469   3.181   1.898   3.108 -0.1140 -0.5567  0.6420
    1SOL    HW2 7470   3.160   1.895   3.202  0.7784 -2.2287  0.7853
    1SOL    HW3 7471   3.102   1.936   3.068 -0.5141  0.1434  2.0458
    1SOL    MW4 7472   3.168   1.903   3.115 -0.0491 -0.6850  0.8461
    1SOL     OW 7473   3.365   2.077   3.005  0.2863 -0.2228 -0.0065
    1SOL    HW2 7474   3.447   2.041   3.037  0.5100 -0.4356 -0.8153
    1SOL    HW3 7475   3.298   2.022   3.044  0.5400 -0.2538  0.3882
    1SOL    MW4 7476   3.367   2.065   3.014  0.3493 -0.2549 -0.0610
    1SOL     OW 7477   3.375   2.358   3.081  0.4872  0.1968  0.1354
    1SOL    HW2 7478   3.371   2.331   3.173  1.7677  0.7927  0.3696
    1SOL    HW3 7479   3.387   2.275   3.033  1.8273  0.0832  0.6588
    1SOL    MW4 7480   3.376   2.343   3.087  0.8330  0.2606  0.2356
    1SOL     OW 7481   3.140   2.457   2.988  0.0349 -0.1117 -0.0948
    1SOL    HW2 7482   3.226   2.425   3.012 -0.1310 -0.2776  0.2793
    1SOL    HW3 7483   3.133   2.543   3.028  0.3640  0.2715 -0.8520
    1SOL    MW4 7484   3.150   2.464   2.996  0.0565 -0.0830 -0.1452
    1SOL     OW 7485   3.156   2.705   3.069 -0.3228 -0.4524 -0.1383
    1SOL    HW2 7486   3.230   2.758   3.038  0.0714 -1.4568 -0.9213
    1SOL    HW3 7487   3.147   2.728   3.162 -0.3620  1.2318 -0.5372
    1SOL    MW4 7488   3.164   2.715   3.077 -0.2759 -0.3629 -0.2944
    1SOL     OW 7489   3.362   2.851   2.983  0.3254  0.3426 -0.5005
    1SOL    HW2 7490   3.443   2.813   3.017 -0.9685 -1.2178  0.9714
    1SOL    HW3 7491   3.365   2.943   3.008  0.8179 -0.1147  1.1973
    1SOL    MW4 7492   3.373   2.858   2.991  0.2193  0.0763 -0.0825
    1SOL     OW 7493   3.389   3.120   3.102  0.2063 -0.0061 -0.0138
    1SOL    HW2 7494   3.314   3.178   3.090 -0.2020 -0.5262 -0.0416
    1SOL    HW3 7495   3.397   3.111   3.197 -1.3120 -1.8818 -0.0225
    1SOL    MW4 7496   3.380   3.126   3.113 -0.0479 -0.3223 -0.0186
    1SOL     OW 7497   3.158   3.255   3.037  0.2304  0.2625  0.4427
    1SOL    HW2 7498   3.086   3.203   3.072 -0.8808  2.1156  0.9617
    1SOL    HW3 7499   3.150   3.247   2.942 -0.8280  0.6602  0.4935
    1SOL    MW4 7500   3.148   3.247   3.029 -0.0558  0.5593  0.5178
    1SOL     OW 7501   3.154   3.508   3.113 -0.1560 -0.0803  0.2850
    1SOL    HW2 7502   3.231   3.550   3.075 -0.7574  0.6887 -0.1156
    1SOL    HW3 7503   3.162   3.416   3.090  1.4844 -0.3057  1.6587
    1SOL    MW4 7504   3.165   3.502   3.105 -0.0191 -0.0083  0.4132
    1SOL     OW 7505   3.382   3.618   3.007 -0.3890 -0.1979  0.2415
    1SOL    HW2 7506   3.440   3.572   3.068 -0.0284 -1.9475 -1.3530
    1SOL    HW3 7507   3.381   3.708   3.037  2.1726 -0.4104  1.0579
    1SOL    MW4 7508   3.389   3.624   3.019 -0.0033 -0.4570  0.1385
    1SOL     OW 7509   3.372   3.891   3.096 -0.2502  0.0500 -0.3568
    1SOL    HW2 7510   3.356   3.880   3.190 -0.9701 -0.7588 -0.5718
    1SOL    HW3 7511   3.290   3.927   3.062 -1.1145 -2.6133 -1.1961
    1SOL    MW4 7512   3.359   3.894   3.104 -0.4594 -0.4079 -0.4957
    1SOL     OW 7513   3.124   3.986   3.010  0.4086  0.1173 -0.3166
    1SOL    HW2 7514   3.042   3.955   3.049  0.3644  0.0676 -0.4498
    1SOL    HW3 7515   3.114   3.971   2.916  0.3958  0.5177 -0.3783
    1SOL    MW4 7516   3.112   3.980   3.003  0.4010  0.1633 -0.3424
    1SOL     OW 7517   3.143   4.249   3.081 -0.3845 -0.0206 -0.0123
    1SOL    HW2 7518   3.135   4.257   3.176  0.5058  0.0034  0.0688
    1SOL    HW3 7519   3.139   4.155   3.065 -0.5514 -0.0242  0.0503
    1SOL    MW4 7520   3.142   4.238   3.092 -0.2890 -0.0176  0.0069
    1SOL     OW 7521   3.391   4.424   2.999  0.1484 -0.1878 -0.7150
    1SOL    HW2 7522   3.463   4.381   3.046 -0.3660  2.8186  3.0284
    1SOL    HW3 7523   3.315   4.367   3.014  0.3534 -0.0987  0.7233
    1SOL    MW4 7524   3.391   4.410   3.007  0.1078  0.2208 -0.0312
    1SOL     OW 7525   3.814   4.651   3.120  0.1044 -0.5775  0.4116
    1SOL    HW2 7526   3.818   4.567   3.074  1.1739  0.0129 -0.5845
    1SOL    HW3 7527   3.742   4.698   3.078  1.8704  0.4565 -1.5453
    1SOL    MW4 7528   3.805   4.646   3.109  0.4783 -0.3633  0.0222
    1SOL     OW 7529   3.583   0.128   3.028 -0.5559 -0.3944  0.3377
    1SOL    HW2 7530   3.578   0.220   3.054  0.9231 -0.4443  0.8339
    1SOL    HW3 7531   3.578   0.131   2.932  1.1812  0.3442  0.2542
    1SOL    MW4 7532   3.581   0.141   3.018 -0.1314 -0.3035  0.3922
    1SOL     OW 7533   3.568   0.382   3.142 -0.3721 -0.1641  0.1764
    1SOL    HW2 7534   3.569   0.373   3.237  0.2778 -1.2098  0.0793
    1SOL    HW3 7535   3.645   0.437   3.123  0.6232 -1.5487  0.1176
    1SOL    MW4 7536   3.579   0.388   3.152 -0.1550 -0.4847  0.1557
    1SOL     OW 7537   3.794   0.515   3.017 -0.4123 -0.0636 -0.2576
    1SOL    HW2 7538   3.880   0.486   3.048 -0.2473 -0.8160 -1.3918
    1SOL    HW3 7539   3.785   0.603   3.053  1.0654  0.2337 -0.5600
    1SOL    MW4 7540   3.805   0.523   3.026 -0.1957 -0.1237 -0.4470
    1SOL     OW 7541   3.807   0.779   3.120  0.1122  0.0361  0.0206
    1SOL    HW2 7542   3.825   0.744   3.207  0.1623 -0.8404 -0.3428
    1SOL    HW3 7543   3.880   0.838   3.102  0.0751  0.2611  0.5870
    1SOL    MW4 7544   3.819   0.782   3.129  0.1140 -0.0498  0.0472
    1SOL     OW 7545   3.604   0.935   2.983 -0.3284 -0.3405  0.1389
    1SOL    HW2 7546   3.679   0.893   3.026  0.0990 -0.1910 -0.4574
    1SOL    HW3 7547   3.528   0.887   3.016 -0.1423  0.7056  2.1925
    1SOL    MW4 7548   3.604   0.923   2.993 -0.2472 -0.1828  0.3309
    1SOL     OW 7549   3.604   1.181   3.099 -0.5463  0.1959 -0.0175
    1SOL    HW2 7550   3.691   1.215   3.081  0.3124 -0.6398  2.3790
    1SOL    HW3 7551   3.602   1.096   3.056 -0.9126  1.0221 -1.7124
    1SOL    MW4 7552   3.615   1.174   3.091 -0.4811  0.1945  0.0749
    1SOL     OW 7553   3.864   1.284   3.031 -0.2193 -0.0587 -0.3562
    1SOL    HW2 7554   3.860   1.369   3.074 -0.0024  0.1006 -0.6465
    1SOL    HW3 7555   3.864   1.305   2.937  0.3683 -0.3523 -0.4260
    1SOL    MW4 7556   3.863   1.298   3.024 -0.1130 -0.0765 -0.4036
    1SOL     OW 7557   3.877   1.538   3.142  0.4200  0.2850 -0.1602
    1SOL    HW2 7558   3.879   1.545   3.238 -1.1596 -2.1175  0.0729
    1SOL    HW3 7559   3.791   1.571   3.118 -0.0709 -1.2402 -0.5400
    1SOL    MW4 7560   3.866   1.543   3.152  0.1471 -0.2332 -0.1795
    1SOL     OW 7561   3.638   1.693   3.070 -0.1771 -0.4030  0.0388
    1SOL    HW2 7562   3.621   1.785   3.091 -0.0137 -0.6287  1.1926
    1SOL    HW3 7563   3.662   1.693   2.977  0.2306  0.7681  0.1411
    1SOL    MW4 7564   3.639   1.705   3.060 -0.1020 -0.2782  0.2046
    1SOL     OW 7565   3.598   1.966   3.125 -0.0360 -0.0417 -0.4930
    1SOL    HW2 7566   3.617   1.938   3.215 -2.1878 -0.7164 -0.2187
    1SOL    HW3 7567   3.681   2.001   3.093  1.0041 -0.6548  1.4370
    1SOL    MW4 7568   3.612   1.967   3.133 -0.1829 -0.2116 -0.2024
    1SOL     OW 7569   3.833   2.065   3.024 -0.1948  0.1609 -0.4241
    1SOL    HW2 7570   3.823   2.159   3.039  2.4565  0.4366 -0.1689
    1SOL    HW3 7571   3.840   2.055   2.929 -0.0978  0.2639 -0.4273
    1SOL    MW4 7572   3.832   2.076   3.014  0.1676  0.2108 -0.3910
    1SOL     OW 7573   3.826   2.321   3.105 -0.1565  0.0355 -0.4266
    1SOL    HW2 7574   3.842   2.321   3.199 -1.8544 -0.9589 -0.1006
    1SOL    HW3 7575   3.748   2.377   3.094 -1.3390 -1.6677 -0.9397
    1SOL    MW4 7576   3.818   2.328   3.116 -0.5364 -0.3202 -0.4513
    1SOL     OW 7577   3.609   2.501   3.012 -0.2146 -0.2455 -0.6291
    1SOL    HW2 7578   3.601   2.594   3.032 -1.1413  0.0041 -2.1276
    1SOL    HW3 7579   3.522   2.465   3.031 -0.1680 -0.6048 -1.0912
    1SOL    MW4 7580   3.596   2.509   3.017 -0.3307 -0.2599 -0.8876
    1SOL     OW 7581   3.602   2.767   3.082 -0.0368 -0.3146 -0.2676
    1SOL    HW2 7582   3.615   2.766   3.177 -1.0391 -0.6423 -0.1320
    1SOL    HW3 7583   3.688   2.791   3.047  0.2424  0.2014  0.7396
    1SOL    MW4 7584   3.615   2.770   3.090 -0.1321 -0.2899 -0.1171
    1SOL     OW 7585   3.860   2.846   3.008  0.4616  0.2853 -0.4365
    1SOL    HW2 7586   3.864   2.936   3.038 -1.0554  0.5259 -0.9284
    1SOL    HW3 7587   3.832   2.852   2.916 -1.2275 -0.7395 -0.0240
    1SOL    MW4 7588   3.857   2.858   3.000  0.0386  0.1817 -0.4468
    1SOL     OW 7589   3.880   3.110   3.086  0.0656 -0.4983 -0.2593
    1SOL    HW2 7590   3.952   3.172   3.075  0.1314 -0.3166  1.1690
    1SOL    HW3 7591   3.806   3.151   3.041 -0.0125  0.8402  1.0738
    1SOL    MW4 7592   3.880   3.124   3.078  0.0639 -0.2980  0.1054
    1SOL     OW 7593   3.642   3.217   2.984 -0.2830 -0.1262 -0.0495
    1SOL    HW2 7594   3.554   3.190   3.009 -0.5559 -0.4227 -1.2950
    1SOL    HW3 7595   3.635   3.241   2.891  0.8653  0.1778 -0.0708
    1SOL    MW4 7596   3.630   3.216   2.975 -0.1676 -0.1252 -0.2165
    1SOL     OW 7597   3.588   3.477   3.115  0.2783  0.2686  0.0209
    1SOL    HW2 7598   3.665   3.531   3.097  0.3546  0.1209 -0.0956
    1SOL    HW3 7599   3.602   3.398   3.063  0.5038 -0.1620  0.7273
    1SOL    MW4 7600   3.600   3.473   3.105  0.3181  0.1922  0.0989
    1SOL     OW 7601   3.805   3.618   3.048 -0.1934  0.3657 -0.4407
    1SOL    HW2 7602   3.810   3.714   3.052 -0.0586  0.4019 -1.2924
    1SOL    HW3 7603   3.796   3.599   2.954 -0.8287 -0.4288 -0.2172
    1SOL    MW4 7604   3.805   3.628   3.036 -0.2592  0.2656 -0.5236
    1SOL     OW 7605   3.849   3.891   3.113 -0.2238  0.3066  0.3692
    1SOL    HW2 7606   3.847   3.884   3.209  0.8605  0.6513  0.4283
    1SOL    HW3 7607   3.772   3.944   3.091 -1.3798 -1.1224  0.9105
    1SOL    MW4 7608   3.838   3.897   3.123 -0.2332  0.1636  0.4480
    1SOL     OW 7609   3.620   4.025   3.026 -0.0617 -0.1341  0.2828
    1SOL    HW2 7610   3.541   3.975   3.047  0.4183 -0.2845  1.8172
    1SOL    HW3 7611   3.630   4.016   2.932 -0.3110 -2.4575  0.4503
    1SOL    MW4 7612   3.611   4.017   3.017 -0.0312 -0.4606  0.5076
    1SOL     OW 7613   3.582   4.276   3.135 -0.1820 -0.1454  0.0621
    1SOL    HW2 7614   3.656   4.332   3.112  0.4440 -0.7629  0.5744
    1SOL    HW3 7615   3.608   4.188   3.107  0.0781 -0.6977  1.9619
    1SOL    MW4 7616   3.595   4.272   3.128 -0.0648 -0.2999  0.3803
    1SOL     OW 7617   3.805   4.400   3.042  0.6545 -0.4748  0.7192
    1SOL    HW2 7618   3.880   4.359   3.086  1.6647  0.2196 -0.3167
    1SOL    HW3 7619   3.814   4.373   2.950  1.3777  2.0583 -0.0053
    1SOL    MW4 7620   3.816   4.391   3.035  0.8831 -0.0491  0.4869
    1SOL     OW 7621   4.229   0.003   3.112  0.1801  0.3064  0.2898
    1SOL    HW2 7622   4.236   0.001   3.207  2.2349 -1.1471  0.1507
    1SOL    HW3 7623   4.221  -0.089   3.086 -0.3731  0.6850 -0.9397
    1SOL    MW4 7624   4.229  -0.010   3.121  0.3777  0.1645  0.1092
    1SOL     OW 7625   4.025   0.137   3.000  0.5480 -0.3175 -0.2637
    1SOL    HW2 7626   4.102   0.092   3.035 -0.3170 -0.4726  1.4804
    1SOL    HW3 7627   3.950   0.090   3.038 -0.3987  0.4517 -1.1472
    1SOL    MW4 7628   4.025   0.125   3.010  0.3090 -0.2365 -0.1502
    1SOL     OW 7629   4.029   0.393   3.110  0.2604  0.4454 -0.0408
    1SOL    HW2 7630   4.114   0.432   3.088 -0.0763  1.2078 -0.0084
    1SOL    HW3 7631   4.033   0.304   3.075  0.6010  0.8998 -1.1605
    1SOL    MW4 7632   4.041   0.386   3.103  0.2608  0.6059 -0.1843
    1SOL     OW 7633   4.252   0.496   3.006 -0.0177 -0.0052  0.1323
    1SOL    HW2 7634   4.238   0.588   3.029 -0.2742 -0.3598  1.4635
    1SOL    HW3 7635   4.225   0.490   2.914  0.4181  1.3362 -0.1014
    1SOL    MW4 7636   4.247   0.507   2.997  0.0062  0.1250  0.2773
    1SOL     OW 7637   4.229   0.760   3.115  0.0410 -0.1466 -0.0623
    1SOL    HW2 7638   4.149   0.809   3.094  0.6111  1.3581  1.1581
    1SOL    HW3 7639   4.298   0.802   3.063 -0.0441 -1.8239 -1.5675
    1SOL    MW4 7640   4.227   0.772   3.106  0.1049 -0.1693 -0.0997
    1SOL     OW 7641   4.025   0.912   3.023  0.0847 -0.2773 -0.2517
    1SOL    HW2 7642   4.051   1.003   3.029  1.4842 -0.6739 -0.0752
    1SOL    HW3 7643   4.007   0.898   2.930  0.0614  0.1286 -0.3057
    1SOL    MW4 7644   4.026   0.922   3.011  0.2661 -0.2760 -0.2353
    1SOL     OW 7645   4.105   1.170   3.087 -0.0616  0.2639 -0.1023
    1SOL    HW2 7646   4.112   1.145   3.179  0.3167  0.0786 -0.1792
    1SOL    HW3 7647   4.021   1.214   3.080  0.3510  1.1803  0.5510
    1SOL    MW4 7648   4.095   1.172   3.098  0.0424  0.3604 -0.0267
    1SOL     OW 7649   4.290   1.332   2.953 -0.0493 -0.2141 -0.1001
    1SOL    HW2 7650   4.217   1.292   3.001 -1.0738 -1.5705 -2.7170
    1SOL    HW3 7651   4.271   1.315   2.861  1.3175  3.2632 -1.1314
    1SOL    MW4 7652   4.278   1.325   2.947 -0.0033  0.0657 -0.5815
    1SOL     OW 7653   4.257   1.560   3.128 -0.3144  0.0600 -0.4596
    1SOL    HW2 7654   4.189   1.610   3.083  0.0022  0.5545 -0.3909
    1SOL    HW3 7655   4.276   1.487   3.070  0.3760  0.9172 -1.3243
    1SOL    MW4 7656   4.251   1.557   3.115 -0.1812  0.2383 -0.5646
    1SOL     OW 7657   4.049   1.676   3.001 -0.0338  0.4931 -0.1658
    1SOL    HW2 7658   4.058   1.760   3.045 -0.2123 -0.0835  0.9747
    1SOL    HW3 7659   3.993   1.624   3.059  1.2920 -0.9201 -0.1368
    1SOL    MW4 7660   4.043   1.680   3.014  0.1178  0.2306 -0.0114
    1SOL     OW 7661   4.055   1.916   3.133  0.3191  0.0108  0.2219
    1SOL    HW2 7662   4.125   1.966   3.090 -0.2558 -0.8046 -1.7430
    1SOL    HW3 7663   3.974   1.956   3.101 -0.1255 -1.0879 -0.0659
    1SOL    MW4 7664   4.054   1.928   3.123  0.1841 -0.2416 -0.0753
    1SOL     OW 7665   4.267   2.064   3.021 -0.0173  0.1005  0.1045
    1SOL    HW2 7666   4.303   2.147   3.054 -0.4878  0.1494  0.5040
    1SOL    HW3 7667   4.266   2.075   2.926  0.6546  0.2469  0.1088
    1SOL    MW4 7668   4.272   2.077   3.012  0.0086  0.1264  0.1576
    1SOL     OW 7669   4.306   2.316   3.107 -0.5622 -0.6543  0.0127
    1SOL    HW2 7670   4.226   2.356   3.073 -0.6844 -0.7837  0.1465
    1SOL    HW3 7671   4.377   2.367   3.069 -0.7399  0.2188  0.8309
    1SOL    MW4 7672   4.305   2.328   3.098 -0.6018 -0.5562  0.1383
    1SOL     OW 7673   4.060   2.426   3.025 -0.7395 -0.3677  0.1342
    1SOL    HW2 7674   4.060   2.519   3.046 -0.0174 -0.4760  0.6361
    1SOL    HW3 7675   3.973   2.396   3.052 -1.5087  0.4515 -1.3917
    1SOL    MW4 7676   4.048   2.434   3.032 -0.7453 -0.2739 -0.0010
    1SOL     OW 7677   4.084   2.707   3.102  0.1478  0.0149  0.5559
    1SOL    HW2 7678   4.067   2.702   3.196  0.1150  1.1485  0.6244
    1SOL    HW3 7679   4.009   2.757   3.067  0.6576  0.4495  0.0802
    1SOL    MW4 7680   4.071   2.713   3.110  0.2108  0.2220  0.5021
    1SOL     OW 7681   4.289   2.836   2.982  0.3406 -0.0188  0.9052
    1SOL    HW2 7682   4.211   2.798   3.022  0.3685 -0.5247  0.4853
    1SOL    HW3 7683   4.356   2.768   2.990  0.6012  0.2276  0.8272
    1SOL    MW4 7684   4.287   2.822   2.988  0.3791 -0.0532  0.8395
    1SOL     OW 7685   4.308   3.092   3.093  0.0509 -0.1510 -0.3157
    1SOL    HW2 7686   4.233   3.137   3.054 -0.7517 -1.0699  0.1301
    1SOL    HW3 7687   4.309   3.006   3.051  0.1755 -0.5434  0.4732
    1SOL    MW4 7688   4.298   3.087   3.082 -0.0386 -0.3240 -0.1523
    1SOL     OW 7689   4.114   3.267   3.010  0.0138 -0.5296 -0.1112
    1SOL    HW2 7690   4.101   3.356   3.044  1.1635 -0.8458  1.2044
    1SOL    HW3 7691   4.098   3.275   2.916 -0.8498  0.8680  0.1353
    1SOL    MW4 7692   4.110   3.280   3.002  0.0515 -0.3867  0.0951
    1SOL     OW 7693   4.068   3.514   3.120  0.1747 -0.1165  0.0824
    1SOL    HW2 7694   4.060   3.504   3.214  0.0093  2.1237  0.3386
    1SOL    HW3 7695   3.980   3.534   3.089  0.4727  0.5661 -0.3519
    1SOL    MW4 7696   4.056   3.516   3.128  0.1917  0.2692  0.0591
    1SOL     OW 7697   4.271   3.687   3.041 -0.1194 -0.2136 -0.3422
    1SOL    HW2 7698   4.275   3.782   3.049 -0.0278 -0.0266 -2.2736
    1SOL    HW3 7699   4.194   3.662   3.092  0.5567  0.7628  1.1616
    1SOL    MW4 7700   4.261   3.696   3.049 -0.0176 -0.0598 -0.3986
    1SOL     OW 7701   4.254   3.951   3.094  0.3121  0.1974  0.1366
    1SOL    HW2 7702   4.191   3.988   3.032  0.6737  2.0793  0.8894
    1SOL    HW3 7703   4.339   3.978   3.060  0.6407 -0.7831  0.1582
    1SOL    MW4 7704   4.257   3.959   3.081  0.4029  0.3164  0.2389
    1SOL     OW 7705   4.026   4.046   2.933  0.4138  0.1423 -0.2558
    1SOL    HW2 7706   4.027   4.121   2.993 -0.8462 -0.8472  1.0544
    1SOL    HW3 7707   3.973   3.981   2.979 -0.7462 -0.5622 -2.5549
    1SOL    MW4 7708   4.019   4.047   2.947  0.0939 -0.0811 -0.3865
    1SOL     OW 7709   4.036   4.262   3.128  0.1315 -0.1404 -0.0954
    1SOL    HW2 7710   4.046   4.261   3.224 -0.9721 -1.7939  0.0213
    1SOL    HW3 7711   4.119   4.296   3.096  0.2008  1.2642  1.4875
    1SOL    MW4 7712   4.048   4.266   3.137 -0.0048 -0.1731  0.1287
    1SOL     OW 7713   4.264   4.395   3.029 -0.1568 -0.1351 -0.0035
    1SOL    HW2 7714   4.347   4.366   3.066 -0.1308 -2.0694 -1.4486
    1SOL    HW3 7715   4.274   4.382   2.934 -2.1296 -0.5280 -0.1902
    1SOL    MW4 7716   4.276   4.389   3.021 -0.4129 -0.4420 -0.2189
    1SOL     OW 7717   0.239   0.060   3.425  0.0201 -0.5948 -0.1864
    1SOL    HW2 7718   0.324   0.100   3.440 -0.5943  0.9443 -0.7589
    1SOL    HW3 7719   0.249  -0.030   3.457  1.1310  0.2787  2.0269
    1SOL    MW4 7720   0.252   0.053   3.431  0.0856 -0.2764  0.0303
    1SOL     OW 7721   4.473   0.160   3.456 -0.1407 -0.2446  0.1397
    1SOL    HW2 7722   4.479   0.254   3.438  0.6165 -0.4612 -0.8203
    1SOL    HW3 7723   4.558   0.126   3.426 -0.2551 -1.1626  0.8820
    1SOL    MW4 7724   4.485   0.168   3.449 -0.0559 -0.3943  0.1109
    1SOL     OW 7725   4.488   0.434   3.382 -0.3818  0.0261 -0.2947
    1SOL    HW2 7726   4.415   0.464   3.436 -0.5828  0.3473 -0.7511
    1SOL    HW3 7727   4.561   0.491   3.407  0.0807 -1.1579  1.1391
    1SOL    MW4 7728   4.488   0.445   3.393 -0.3476 -0.0877 -0.1659
    1SOL     OW 7729   0.239   0.545   3.493  0.3186  0.0860 -0.3740
    1SOL    HW2 7730   0.307   0.490   3.454  0.9400  0.1529  0.6066
    1SOL    HW3 7731   0.249   0.630   3.449  0.1386 -0.2224 -1.0218
    1SOL    MW4 7732   0.249   0.549   3.482  0.3769  0.0541 -0.3302
    1SOL     OW 7733   0.208   0.785   3.354 -0.2332  0.2056 -0.6153
    1SOL    HW2 7734   0.273   0.831   3.407  0.0610 -0.8725 -0.0257
    1SOL    HW3 7735   0.125   0.829   3.373  0.0044  0.3127  0.1567
    1SOL    MW4 7736   0.205   0.797   3.363 -0.1631  0.0775 -0.4358
    1SOL     OW 7737   4.472   0.908   3.442 -0.2901  0.3641 -0.1790
    1SOL    HW2 7738   4.489   0.897   3.535  0.1622 -0.3770 -0.3464
    1SOL    HW3 7739   4.477   1.003   3.428 -0.1247  0.4585  0.5017
    1SOL    MW4 7740   4.475   0.919   3.452 -0.2086  0.2787 -0.1113
    1SOL     OW 7741   0.008   1.181   3.379  0.0256 -0.2090  0.6036
    1SOL    HW2 7742   0.098   1.206   3.398  1.0941 -4.1906  1.1790
    1SOL    HW3 7743   0.002   1.182   3.283  0.4429  0.7226  0.5838
    1SOL    MW4 7744   0.019   1.185   3.369  0.2216 -0.6114  0.6771
    1SOL     OW 7745   0.266   1.294   3.475 -0.2863 -1.1758  0.6443
    1SOL    HW2 7746   0.273   1.301   3.571 -1.3778  1.3205  0.5880
    1SOL    HW3 7747   0.257   1.385   3.446  1.0009 -1.8422 -1.9280
    1SOL    MW4 7748   0.265   1.307   3.484 -0.2605 -0.9344  0.2975
    1SOL     OW 7749   0.248   1.564   3.375 -0.4027  0.2236 -0.4683
    1SOL    HW2 7750   0.333   1.593   3.408 -0.3192 -0.1665 -0.3311
    1SOL    HW3 7751   0.250   1.586   3.282 -0.5861  1.2054 -0.2352
    1SOL    MW4 7752   0.260   1.570   3.367 -0.4159  0.3016 -0.4196
    1SOL     OW 7753   0.047   1.702   3.517  0.0898  0.4875 -0.0390
    1SOL    HW2 7754  -0.027   1.648   3.490  0.2277 -1.0945  2.5575
    1SOL    HW3 7755   0.120   1.669   3.464 -0.4170 -0.0223 -0.4353
    1SOL    MW4 7756   0.047   1.690   3.507  0.0412  0.2115  0.2511
    1SOL     OW 7757   4.432   1.929   3.395 -0.8695  0.2089  0.1335
    1SOL    HW2 7758   4.472   1.847   3.426 -1.6319  0.0612  0.7299
    1SOL    HW3 7759   4.465   1.939   3.305  1.1941  0.5380  0.9016
    1SOL    MW4 7760   4.442   1.919   3.387 -0.6978  0.2329  0.3135
    1SOL     OW 7761   0.209   2.030   3.498 -0.3279 -0.0205  0.1360
    1SOL    HW2 7762   0.124   1.987   3.495 -0.2104 -0.2990  0.7689
    1SOL    HW3 7763   0.231   2.036   3.591  0.6084 -0.4710 -0.0439
    1SOL    MW4 7764   0.201   2.025   3.509 -0.1889 -0.1166  0.1960
    1SOL     OW 7765   0.202   2.318   3.418  0.5492  0.1040 -0.0029
    1SOL    HW2 7766   0.125   2.353   3.461 -0.3364 -0.3919 -1.1640
    1SOL    HW3 7767   0.202   2.225   3.439  0.3309 -0.0670 -0.7308
    1SOL    MW4 7768   0.192   2.310   3.426  0.4035  0.0160 -0.2520
    1SOL     OW 7769   0.010   2.497   3.520  0.1349 -0.1082  0.0966
    1SOL    HW2 7770   0.008   2.501   3.615  0.2350  1.5769  0.0402
    1SOL    HW3 7771  -0.078   2.469   3.495  0.0801 -0.4521  0.6775
    1SOL    MW4 7772  -0.002   2.494   3.529  0.1411  0.0689  0.1659
    1SOL     OW 7773   0.049   2.722   3.357  0.4877 -0.0252  0.1631
    1SOL    HW2 7774   0.100   2.791   3.400 -0.2445 -0.7593  2.2448
    1SOL    HW3 7775   0.053   2.648   3.416  1.1658 -1.7823 -2.0166
    1SOL    MW4 7776   0.056   2.721   3.370  0.4806 -0.3536  0.1502
    1SOL     OW 7777   0.236   2.882   3.489 -0.0219 -0.1761 -0.4715
    1SOL    HW2 7778   0.299   2.821   3.450 -0.7316 -0.5361 -1.0810
    1SOL    HW3 7779   0.261   2.968   3.456  0.9570 -0.1486  0.3517
    1SOL    MW4 7780   0.247   2.885   3.480  0.0136 -0.2198 -0.4432
    1SOL     OW 7781   0.252   3.139   3.388  0.4595 -0.1990 -0.3870
    1SOL    HW2 7782   0.169   3.173   3.421  1.2022  0.5996  0.6888
    1SOL    HW3 7783   0.236   3.122   3.295 -0.6559  0.7476 -0.3740
    1SOL    MW4 7784   0.239   3.141   3.380  0.4104  0.0310 -0.2432
    1SOL     OW 7785   0.001   3.239   3.474  0.3259  0.0741 -0.5212
    1SOL    HW2 7786  -0.078   3.196   3.441 -0.1062  0.7689 -0.4030
    1SOL    HW3 7787  -0.007   3.330   3.444  1.7137 -0.1496 -1.6239
    1SOL    MW4 7788  -0.010   3.245   3.466  0.4520  0.1361 -0.6514
    1SOL     OW 7789   4.480   3.495   3.388  0.1073 -0.2363 -0.0080
    1SOL    HW2 7790   4.400   3.540   3.418  1.3134  1.4011  0.8077
    1SOL    HW3 7791   4.480   3.508   3.293 -0.9475 -0.8354 -0.0977
    1SOL    MW4 7792   4.469   3.503   3.379  0.1273 -0.0994  0.0877
    1SOL     OW 7793   0.230   3.633   3.505  0.3575  0.0591  0.1909
    1SOL    HW2 7794   0.219   3.642   3.600 -0.1204 -0.2001  0.1631
    1SOL    HW3 7795   0.152   3.585   3.477 -0.3345  1.5890 -0.5721
    1SOL    MW4 7796   0.218   3.628   3.514  0.2031  0.2267  0.0863
    1SOL     OW 7797   0.231   3.897   3.398 -0.2485 -0.2160  0.0817
    1SOL    HW2 7798   0.162   3.951   3.436 -0.1532  0.1989 -0.3271
    1SOL    HW3 7799   0.223   3.812   3.442  0.3994  0.5139  1.6415
    1SOL    MW4 7800   0.221   3.893   3.409 -0.1505 -0.0651  0.2337
    1SOL     OW 7801   0.002   4.015   3.499 -0.1940 -0.1820 -0.5123
    1SOL    HW2 7802  -0.016   4.021   3.593  0.7689  0.5797 -0.3748
    1SOL    HW3 7803   0.017   4.105   3.471  3.7661 -0.7555 -0.5409
    1SOL    MW4 7804   0.001   4.028   3.508  0.4555 -0.1569 -0.4978
    1SOL     OW 7805   0.010   4.274   3.403  0.1949  0.0824  0.0441
    1SOL    HW2 7806  -0.072   4.318   3.423 -0.4419 -0.9183 -0.3064
    1SOL    HW3 7807   0.076   4.318   3.457 -0.8172 -0.0362  1.3780
    1SOL    MW4 7808   0.008   4.285   3.413 -0.0226 -0.0658  0.1738
    1SOL     OW 7809   0.227   4.431   3.486 -0.2689  0.0094 -0.3239
    1SOL    HW2 7810   0.230   4.431   3.581 -2.5904  1.7303 -0.2162
    1SOL    HW3 7811   0.298   4.372   3.460  0.1714 -0.7560  2.4506
    1SOL    MW4 7812   0.237   4.423   3.495 -0.5171  0.1354  0.0565
    1SOL     OW 7813   0.677   4.645   3.386  0.4246 -0.0195 -0.2099
    1SOL    HW2 7814   0.754   4.687   3.424  1.0890 -0.8947 -0.5971
    1SOL    HW3 7815   0.695   4.641   3.292 -0.9260  1.5306 -0.5755
    1SOL    MW4 7816   0.689   4.650   3.378  0.3341  0.0696 -0.3092
    1SOL     OW 7817   0.493   0.162   3.503  0.2934 -0.0092 -0.8185
    1SOL    HW2 7818   0.506   0.151   3.598  0.7323 -1.1393 -1.0042
    1SOL    HW3 7819   0.560   0.106   3.463 -0.4161 -0.1736 -1.7939
    1SOL    MW4 7820   0.503   0.153   3.511  0.2577 -0.1800 -0.9716
    1SOL     OW 7821   0.459   0.406   3.401  0.1670  0.8052 -0.5061
    1SOL    HW2 7822   0.538   0.449   3.434  0.5898 -0.1889 -0.1899
    1SOL    HW3 7823   0.468   0.315   3.430 -0.0522  0.1926 -2.2876
    1SOL    MW4 7824   0.471   0.400   3.409  0.1938  0.5932 -0.6995
    1SOL     OW 7825   0.666   0.530   3.496  0.1464  0.3127  0.1263
    1SOL    HW2 7826   0.676   0.508   3.589 -0.8492 -0.4408  0.0677
    1SOL    HW3 7827   0.738   0.483   3.453  0.0684 -0.0758  0.4121
    1SOL    MW4 7828   0.677   0.521   3.503  0.0047  0.1619  0.1564
    1SOL     OW 7829   0.655   0.796   3.372  0.1687 -0.3037  0.1730
    1SOL    HW2 7830   0.574   0.830   3.407 -1.0806 -1.1701 -1.7657
    1SOL    HW3 7831   0.666   0.710   3.413  0.2828 -0.0407  0.6902
    1SOL    MW4 7832   0.646   0.789   3.382  0.0190 -0.3834 -0.0145
    1SOL     OW 7833   0.430   0.930   3.468 -0.7508  0.0656  0.1295
    1SOL    HW2 7834   0.464   0.918   3.557  1.5621 -1.7463 -0.9323
    1SOL    HW3 7835   0.459   1.017   3.443 -0.6141  0.2278  0.8222
    1SOL    MW4 7836   0.438   0.940   3.477 -0.4276 -0.1521  0.0808
    1SOL     OW 7837   0.494   1.173   3.377 -0.1218 -0.6277  0.0157
    1SOL    HW2 7838   0.414   1.207   3.416 -0.9947 -2.2207 -0.3830
    1SOL    HW3 7839   0.476   1.171   3.283  0.4835 -0.7597 -0.0998
    1SOL    MW4 7840   0.481   1.177   3.370 -0.1571 -0.8552 -0.0522
    1SOL     OW 7841   0.727   1.309   3.467  0.1619 -0.2919 -0.0641
    1SOL    HW2 7842   0.656   1.258   3.428 -0.5565  0.3620  0.3751
    1SOL    HW3 7843   0.727   1.391   3.417 -1.2320  0.8494  1.7449
    1SOL    MW4 7844   0.717   1.313   3.455 -0.1168 -0.0550  0.2325
    1SOL     OW 7845   0.721   1.553   3.339 -0.0946  0.3428  0.1574
    1SOL    HW2 7846   0.790   1.589   3.395 -0.2523 -1.1700  1.3474
    1SOL    HW3 7847   0.640   1.571   3.386 -0.1986 -1.2503  0.6089
    1SOL    MW4 7848   0.719   1.560   3.352 -0.1291 -0.0670  0.3738
    1SOL     OW 7849   0.494   1.644   3.466  0.2064  0.2412 -0.0819
    1SOL    HW2 7850   0.499   1.646   3.561  0.4434  1.5929 -0.1108
    1SOL    HW3 7851   0.479   1.735   3.441 -0.5608 -0.2028 -1.3013
    1SOL    MW4 7852   0.493   1.656   3.475  0.1364  0.3608 -0.2468
    1SOL     OW 7853   0.452   1.900   3.380  0.0352  0.0886 -0.8233
    1SOL    HW2 7854   0.370   1.946   3.401 -0.8243 -1.3000 -1.0251
    1SOL    HW3 7855   0.451   1.894   3.284 -0.8537 -2.0466 -0.7155
    1SOL    MW4 7856   0.441   1.905   3.370 -0.1955 -0.3762 -0.8359
    1SOL     OW 7857   0.665   2.064   3.467 -0.4033  0.1315 -0.6309
    1SOL    HW2 7858   0.675   2.049   3.561 -0.1699  0.3933 -0.6145
    1SOL    HW3 7859   0.596   2.003   3.440  0.2323 -0.6757 -0.4802
    1SOL    MW4 7860   0.658   2.054   3.476 -0.2887  0.0596 -0.6089
    1SOL     OW 7861   0.662   2.326   3.375  0.4459 -0.6648 -0.1579
    1SOL    HW2 7862   0.747   2.363   3.399  2.1953 -2.4425 -3.2926
    1SOL    HW3 7863   0.667   2.235   3.402 -0.7680 -0.5835  0.3404
    1SOL    MW4 7864   0.674   2.319   3.382  0.5166 -0.8886 -0.5057
    1SOL     OW 7865   0.438   2.438   3.516 -0.3318  0.1321 -0.0367
    1SOL    HW2 7866   0.510   2.398   3.468  0.8487  2.6069 -0.4473
    1SOL    HW3 7867   0.359   2.402   3.477  0.6659 -0.9863 -1.0487
    1SOL    MW4 7868   0.437   2.428   3.505 -0.0444  0.3114 -0.2244
    1SOL     OW 7869   0.462   2.712   3.388 -0.0915 -0.2286  0.3748
    1SOL    HW2 7870   0.452   2.623   3.422 -0.7961 -0.1816  0.3140
    1SOL    HW3 7871   0.442   2.704   3.295  0.6513 -0.1500  0.2130
    1SOL    MW4 7872   0.458   2.699   3.380 -0.0864 -0.2122  0.3455
    1SOL     OW 7873   0.710   2.819   3.506  0.8258  0.0326 -0.5123
    1SOL    HW2 7874   0.772   2.781   3.444  0.9753 -1.1202  0.3147
    1SOL    HW3 7875   0.624   2.802   3.469  1.0101  2.3128 -2.0430
    1SOL    MW4 7876   0.707   2.811   3.493  0.8698  0.1812 -0.6051
    1SOL     OW 7877   0.689   3.063   3.361 -0.6390 -0.1778  0.5279
    1SOL    HW2 7878   0.626   3.130   3.388  0.2044  0.8181  0.0506
    1SOL    HW3 7879   0.690   3.001   3.434 -1.6323  0.1736  0.8590
    1SOL    MW4 7880   0.681   3.063   3.374 -0.6588  0.0000  0.5088
    1SOL     OW 7881   0.496   3.227   3.497  0.3496  0.0523  0.2575
    1SOL    HW2 7882   0.479   3.239   3.590 -0.2661 -0.1969  0.1786
    1SOL    HW3 7883   0.413   3.193   3.461  0.8144 -0.5894 -0.2366
    1SOL    MW4 7884   0.483   3.224   3.504  0.3297 -0.0651  0.1822
    1SOL     OW 7885   0.468   3.493   3.412 -0.2008 -0.1630 -0.1761
    1SOL    HW2 7886   0.481   3.405   3.447  0.9261  0.1965  0.3091
    1SOL    HW3 7887   0.392   3.526   3.460  1.4251  0.3779  2.0553
    1SOL    MW4 7888   0.459   3.486   3.423  0.1624 -0.0441  0.1824
    1SOL     OW 7889   0.689   3.645   3.474  0.2739  0.0689 -0.2145
    1SOL    HW2 7890   0.765   3.610   3.427  0.0842 -0.1130 -0.3892
    1SOL    HW3 7891   0.615   3.591   3.444  0.2287 -0.3650  0.6615
    1SOL    MW4 7892   0.689   3.634   3.464  0.2429 -0.0124 -0.1218
    1SOL     OW 7893   0.674   3.898   3.375 -0.2721 -0.1262  0.1541
    1SOL    HW2 7894   0.591   3.927   3.414 -0.6746 -0.1827 -0.6452
    1SOL    HW3 7895   0.686   3.809   3.408 -0.0251  0.2456  1.0636
    1SOL    MW4 7896   0.665   3.890   3.384 -0.2927 -0.0844  0.1686
    1SOL     OW 7897   0.453   4.015   3.489 -0.0850  0.5230 -0.0286
    1SOL    HW2 7898   0.435   4.108   3.480  1.9497  0.9128 -0.5263
    1SOL    HW3 7899   0.387   3.972   3.435 -0.5283  1.7257 -0.4587
    1SOL    MW4 7900   0.442   4.021   3.481  0.1249  0.7334 -0.1509
    1SOL     OW 7901   0.450   4.280   3.421  0.0844 -1.0822 -0.4839
    1SOL    HW2 7902   0.532   4.306   3.463 -0.2390 -1.9465  0.7035
    1SOL    HW3 7903   0.470   4.281   3.328  1.6972 -2.1408 -0.1688
    1SOL    MW4 7904   0.463   4.284   3.414  0.2545 -1.3361 -0.2856
    1SOL     OW 7905   0.695   4.394   3.515 -0.0632  0.6838  0.0475
    1SOL    HW2 7906   0.767   4.346   3.473 -1.8862 -1.2394 -0.9973
    1SOL    HW3 7907   0.686   4.474   3.463 -1.9138 -1.3995 -3.0077
    1SOL    MW4 7908   0.703   4.398   3.502 -0.5478  0.1554 -0.4933
    1SOL     OW 7909   1.108   4.611   3.380 -0.1588  0.4069  0.0511
    1SOL    HW2 7910   1.180   4.671   3.400 -0.7166  1.5409 -1.2634
    1SOL    HW3 7911   1.098   4.616   3.285 -2.6321  1.0569  0.3173
    1SOL    MW4 7912   1.116   4.620   3.370 -0.5587  0.6418 -0.0873
    1SOL     OW 7913   0.900   0.111   3.481 -0.0425 -0.0528 -0.8646
    1SOL    HW2 7914   0.902   0.125   3.576 -0.3541  2.1055 -1.1426
    1SOL    HW3 7915   0.971   0.049   3.464  0.0613 -0.3879  0.7674
    1SOL    MW4 7916   0.910   0.105   3.491 -0.0699  0.1878 -0.6862
    1SOL     OW 7917   0.879   0.393   3.382 -0.2120 -0.1967 -0.4536
    1SOL    HW2 7918   0.967   0.428   3.398 -0.9209  0.9540  1.0567
    1SOL    HW3 7919   0.880   0.307   3.422  1.1091 -1.4255 -2.9737
    1SOL    MW4 7920   0.891   0.387   3.389 -0.1312 -0.2070 -0.5867
    1SOL     OW 7921   1.118   0.525   3.456 -0.3792  0.3879 -0.4913
    1SOL    HW2 7922   1.120   0.529   3.551 -2.6783 -1.2718 -0.3281
    1SOL    HW3 7923   1.101   0.615   3.428  0.4719  0.9058  0.6498
    1SOL    MW4 7924   1.116   0.538   3.465 -0.5703  0.2372 -0.3195
    1SOL     OW 7925   1.106   0.781   3.361 -0.2122 -0.0870 -0.2300
    1SOL    HW2 7926   1.185   0.814   3.403 -0.8175  0.5942  0.3912
    1SOL    HW3 7927   1.034   0.812   3.417 -0.8909 -1.0413 -0.5579
    1SOL    MW4 7928   1.107   0.790   3.374 -0.3817 -0.1231 -0.1912
    1SOL     OW 7929   0.880   0.883   3.506  0.0509 -0.0169  0.2427
    1SOL    HW2 7930   0.888   0.977   3.494  0.4011 -0.2236 -1.2227
    1SOL    HW3 7931   0.806   0.857   3.452  1.1735 -0.8519 -0.9503
    1SOL    MW4 7932   0.872   0.892   3.497  0.2453 -0.1543 -0.1080
    1SOL     OW 7933   0.900   1.121   3.377  0.6749 -0.1531 -0.0219
    1SOL    HW2 7934   0.991   1.148   3.389  0.8708 -0.4757 -0.8146
    1SOL    HW3 7935   0.849   1.195   3.411  1.2200 -0.8180  2.3525
    1SOL    MW4 7936   0.905   1.135   3.383  0.7727 -0.2834  0.1867
    1SOL     OW 7937   1.129   1.241   3.467 -0.1994 -0.0437  0.3919
    1SOL    HW2 7938   1.137   1.254   3.562 -1.3577  1.7409  0.2660
    1SOL    HW3 7939   1.145   1.328   3.430 -1.2376 -0.4178 -0.9554
    1SOL    MW4 7940   1.132   1.254   3.475 -0.4891  0.1423  0.1974
    1SOL     OW 7941   1.172   1.501   3.391 -0.0694  0.0272  0.1339
    1SOL    HW2 7942   1.233   1.570   3.416 -0.2224  0.1300  0.2267
    1SOL    HW3 7943   1.159   1.513   3.297  1.3556 -1.0358 -0.2185
    1SOL    MW4 7944   1.178   1.511   3.382  0.0983 -0.0994  0.0994
    1SOL     OW 7945   0.954   1.644   3.505 -0.4131 -0.2136  0.3268
    1SOL    HW2 7946   0.967   1.735   3.479 -1.1063 -0.4745 -0.9867
    1SOL    HW3 7947   1.033   1.599   3.476 -0.3166 -0.1325  0.4646
    1SOL    MW4 7948   0.966   1.650   3.498 -0.4917 -0.2373  0.1717
    1SOL     OW 7949   0.929   1.920   3.439 -0.2344 -0.4454  0.0952
    1SOL    HW2 7950   1.004   1.972   3.468  0.5068 -1.1226 -0.5797
    1SOL    HW3 7951   0.855   1.980   3.445  0.1617 -0.0767  1.8217
    1SOL    MW4 7952   0.930   1.935   3.444 -0.0843 -0.4861  0.2339
    1SOL     OW 7953   1.168   2.055   3.512  0.6595 -0.4189  0.0883
    1SOL    HW2 7954   1.229   2.001   3.462  0.6030  0.3581 -0.8282
    1SOL    HW3 7955   1.162   2.136   3.462  0.0822  0.1021  1.0096
    1SOL    MW4 7956   1.175   2.058   3.498  0.5759 -0.2477  0.0889
    1SOL     OW 7957   1.160   2.304   3.390  0.0905  0.8950 -0.0224
    1SOL    HW2 7958   1.234   2.358   3.416  0.1964  1.2895 -1.1168
    1SOL    HW3 7959   1.163   2.304   3.294  0.1385 -1.1025 -0.0501
    1SOL    MW4 7960   1.170   2.311   3.381  0.1107  0.6835 -0.1702
    1SOL     OW 7961   0.903   2.424   3.455 -0.6360 -0.5147 -0.0348
    1SOL    HW2 7962   0.891   2.417   3.550 -0.3028 -2.8045 -0.1324
    1SOL    HW3 7963   0.988   2.383   3.439 -1.3350 -1.4457 -1.4692
    1SOL    MW4 7964   0.913   2.418   3.465 -0.6843 -0.9396 -0.2370
    1SOL     OW 7965   0.889   2.683   3.341 -0.0298  0.3847  0.0713
    1SOL    HW2 7966   0.962   2.727   3.385  0.6230 -1.7923  1.2346
    1SOL    HW3 7967   0.888   2.595   3.379 -2.3261 -0.0863 -1.0253
    1SOL    MW4 7968   0.898   2.677   3.352 -0.2466  0.0355  0.0801
    1SOL     OW 7969   1.113   2.778   3.467  0.0385  0.4626  0.1201
    1SOL    HW2 7970   1.114   2.770   3.563  0.6020 -2.0791 -0.0694
    1SOL    HW3 7971   1.196   2.740   3.439 -0.8093 -0.2471 -1.4876
    1SOL    MW4 7972   1.124   2.772   3.476  0.0011  0.0339 -0.1168
    1SOL     OW 7973   1.154   3.047   3.399  0.0920  0.1637  0.1676
    1SOL    HW2 7974   1.165   2.960   3.437 -0.4150  0.2837  0.6024
    1SOL    HW3 7975   1.151   3.032   3.305  2.5727 -0.0121  0.0946
    1SOL    MW4 7976   1.155   3.034   3.392  0.3524  0.1566  0.2153
    1SOL     OW 7977   0.913   3.231   3.427  0.2121 -0.0870 -0.0116
    1SOL    HW2 7978   0.990   3.180   3.403  0.8108  0.4929  0.6358
    1SOL    HW3 7979   0.839   3.179   3.396  0.8840 -0.3708 -1.1584
    1SOL    MW4 7980   0.913   3.217   3.420  0.3797 -0.0479 -0.0777
    1SOL     OW 7981   0.895   3.500   3.354 -0.1259  0.0957  0.0145
    1SOL    HW2 7982   0.908   3.408   3.377  0.5499 -0.0039 -0.7467
    1SOL    HW3 7983   0.908   3.503   3.260  1.5853  1.2444  0.2574
    1SOL    MW4 7984   0.899   3.488   3.345  0.1891  0.2339 -0.0539
    1SOL     OW 7985   1.132   3.608   3.463  0.1685  0.1647  0.5505
    1SOL    HW2 7986   1.123   3.600   3.558  0.3635  0.5983  0.6079
    1SOL    HW3 7987   1.052   3.568   3.428 -0.2692  0.6977  0.9274
    1SOL    MW4 7988   1.120   3.602   3.471  0.1364  0.2923  0.6077
    1SOL     OW 7989   1.100   3.880   3.385  0.9011  0.3952 -0.0420
    1SOL    HW2 7990   1.184   3.914   3.416  1.0012  0.3660 -0.2767
    1SOL    HW3 7991   1.102   3.787   3.407 -0.1487  0.8850  2.2890
    1SOL    MW4 7992   1.111   3.872   3.392  0.7758  0.4561  0.2348
    1SOL     OW 7993   0.884   4.007   3.504 -0.5059  0.1486  0.5475
    1SOL    HW2 7994   0.957   3.966   3.457  0.0287 -1.2905  2.5539
    1SOL    HW3 7995   0.806   3.972   3.461 -0.0363  0.4474 -0.5805
    1SOL    MW4 7996   0.884   3.997   3.492 -0.3734 -0.0021  0.6635
    1SOL     OW 7997   0.923   4.264   3.400 -0.4632 -0.2150  0.0929
    1SOL    HW2 7998   0.900   4.176   3.428 -2.3705 -0.1647 -1.1931
    1SOL    HW3 7999   0.931   4.258   3.305 -1.4608  1.1461 -0.1046
    1SOL    MW4 8000   0.921   4.252   3.391 -0.8464 -0.0286 -0.1032
    1SOL     OW 8001   1.145   4.368   3.521 -0.5883  0.2494  0.1971
    1SOL    HW2 8002   1.072   4.309   3.501 -1.1500  0.4386  1.6512
    1SOL    HW3 8003   1.117   4.453   3.485 -1.0586  0.3036  0.6777
    1SOL    MW4 8004   1.131   4.372   3.514 -0.7246  0.2813  0.4525
    1SOL     OW 8005   1.556   4.659   3.379 -0.1460  0.1157  0.5279
    1SOL    HW2 8006   1.555   4.579   3.431  0.5375  0.2173  0.6989
    1SOL    HW3 8007   1.475   4.704   3.404 -0.1147 -0.1150  1.0710
    1SOL    MW4 8008   1.545   4.655   3.389 -0.0519  0.0982  0.6220
    1SOL     OW 8009   1.307   0.108   3.448 -0.4410  0.4039  0.0328
    1SOL    HW2 8010   1.311   0.081   3.540 -1.2845 -0.0804 -0.0579
    1SOL    HW3 8011   1.327   0.201   3.449 -1.7714  0.7087  0.8861
    1SOL    MW4 8012   1.310   0.117   3.460 -0.7280  0.3802  0.1335
    1SOL     OW 8013   1.361   0.388   3.386 -0.1363 -0.2718  0.3019
    1SOL    HW2 8014   1.433   0.441   3.421  0.4134 -1.4185  0.9279
    1SOL    HW3 8015   1.282   0.433   3.415  0.3200 -0.2574  1.5498
    1SOL    MW4 8016   1.360   0.401   3.394 -0.0036 -0.4212  0.5491
    1SOL     OW 8017   1.599   0.549   3.474 -0.4004  0.0135  0.2838
    1SOL    HW2 8018   1.591   0.540   3.569 -0.4151  0.7923  0.3614
    1SOL    HW3 8019   1.674   0.494   3.451  0.0330  0.3646  0.8353
    1SOL    MW4 8020   1.608   0.540   3.484 -0.3451  0.1625  0.3667
    1SOL     OW 8021   1.593   0.795   3.353 -0.0543  0.2894  0.0023
    1SOL    HW2 8022   1.510   0.825   3.391  0.6390  1.8657  0.3342
    1SOL    HW3 8023   1.603   0.706   3.386 -1.5125  0.1463  0.1285
    1SOL    MW4 8024   1.583   0.787   3.363 -0.1553  0.4785  0.0627
    1SOL     OW 8025   1.351   0.873   3.468  0.1562  0.5314 -0.2184
    1SOL    HW2 8026   1.370   0.886   3.561 -0.0815 -0.5748 -0.0165
    1SOL    HW3 8027   1.352   0.962   3.431  1.9236  0.8216  0.5026
    1SOL    MW4 8028   1.353   0.887   3.476  0.3580  0.4237 -0.0966
    1SOL     OW 8029   1.361   1.130   3.371 -0.0460 -0.0402  0.1209
    1SOL    HW2 8030   1.439   1.162   3.418  0.0156 -1.2700  0.8834
    1SOL    HW3 8031   1.288   1.174   3.413  0.1765  0.5243 -0.0774
    1SOL    MW4 8032   1.362   1.140   3.383 -0.0085 -0.1279  0.1955
    1SOL     OW 8033   1.575   1.264   3.459  0.3120 -0.4668  0.0855
    1SOL    HW2 8034   1.559   1.277   3.552 -0.0220  0.3492 -0.0890
    1SOL    HW3 8035   1.653   1.208   3.456 -0.0873 -1.0669  0.8603
    1SOL    MW4 8036   1.584   1.258   3.471  0.2152 -0.4382  0.1647
    1SOL     OW 8037   1.579   1.534   3.369 -0.0155  0.9897  0.2784
    1SOL    HW2 8038   1.580   1.443   3.400  2.1621  1.3888  1.4336
    1SOL    HW3 8039   1.564   1.526   3.275 -0.5429 -0.5255  0.4619
    1SOL    MW4 8040   1.577   1.521   3.361  0.2023  0.8426  0.4547
    1SOL     OW 8041   1.349   1.691   3.466 -0.3186 -0.4497 -0.3560
    1SOL    HW2 8042   1.343   1.682   3.561  1.2710  2.0508  0.0372
    1SOL    HW3 8043   1.422   1.636   3.441  2.1074  2.2466  0.5106
    1SOL    MW4 8044   1.358   1.683   3.475  0.2111  0.2359 -0.1895
    1SOL     OW 8045   1.406   1.957   3.385 -0.2473 -0.0719 -0.0611
    1SOL    HW2 8046   1.458   1.993   3.457 -1.4240  0.8241  0.3518
    1SOL    HW3 8047   1.395   1.865   3.406  1.0552 -0.2450 -0.0893
    1SOL    MW4 8048   1.412   1.950   3.397 -0.2306  0.0235 -0.0103
    1SOL     OW 8049   1.604   2.072   3.549  0.1841  0.0126  0.2653
    1SOL    HW2 8050   1.671   2.014   3.512 -2.2657 -2.1989 -0.8910
    1SOL    HW3 8051   1.626   2.159   3.514  2.7137 -0.5557  0.3396
    1SOL    MW4 8052   1.615   2.076   3.539  0.1947 -0.3543  0.1225
    1SOL     OW 8053   1.655   2.308   3.413  0.0726  0.2432  0.0523
    1SOL    HW2 8054   1.571   2.349   3.434  0.0092  1.1910 -1.9199
    1SOL    HW3 8055   1.639   2.263   3.331  1.0009 -1.1868  0.6424
    1SOL    MW4 8056   1.642   2.307   3.405  0.1867  0.1795 -0.1302
    1SOL     OW 8057   1.404   2.420   3.474 -0.0371  0.0178  0.1766
    1SOL    HW2 8058   1.396   2.431   3.569 -3.0482  0.7576 -0.1005
    1SOL    HW3 8059   1.401   2.509   3.439  4.9074  0.0609 -0.4796
    1SOL    MW4 8060   1.402   2.433   3.482  0.2179  0.1211  0.0534
    1SOL     OW 8061   1.342   2.672   3.389 -0.4572  0.2928 -0.1208
    1SOL    HW2 8062   1.425   2.712   3.416 -1.6972  1.1645  2.5697
    1SOL    HW3 8063   1.340   2.685   3.294  3.0247 -0.8356 -0.4382
    1SOL    MW4 8064   1.353   2.679   3.380 -0.1613  0.2587  0.1924
    1SOL     OW 8065   1.589   2.802   3.460  0.2132  0.3714  0.6565
    1SOL    HW2 8066   1.672   2.767   3.426  0.7131  1.4991  0.7003
    1SOL    HW3 8067   1.592   2.895   3.440 -0.8351  0.5092  1.1010
    1SOL    MW4 8068   1.600   2.810   3.453  0.1409  0.5386  0.7207
    1SOL     OW 8069   1.575   3.068   3.380 -0.3537 -0.1239 -0.2450
    1SOL    HW2 8070   1.658   3.105   3.410 -0.3624  0.6718 -1.1944
    1SOL    HW3 8071   1.510   3.137   3.394 -0.6934 -0.4094 -0.3808
    1SOL    MW4 8072   1.577   3.082   3.386 -0.3996 -0.0565 -0.3884
    1SOL     OW 8073   1.368   3.231   3.433 -0.2108 -0.1462 -0.2239
    1SOL    HW2 8074   1.390   3.231   3.527 -0.2978  0.1982 -0.2055
    1SOL    HW3 8075   1.301   3.163   3.425 -0.7930  0.3755  0.1017
    1SOL    MW4 8076   1.362   3.222   3.444 -0.2991 -0.0319 -0.1781
    1SOL     OW 8077   1.386   3.486   3.380  0.2771 -0.2136  0.8018
    1SOL    HW2 8078   1.381   3.393   3.399  0.2588 -0.3723  0.0392
    1SOL    HW3 8079   1.308   3.524   3.420  0.3925 -0.4929  1.2885
    1SOL    MW4 8080   1.375   3.479   3.388  0.2898 -0.2713  0.7656
    1SOL     OW 8081   1.608   3.627   3.474 -0.7585 -0.5996 -0.2920
    1SOL    HW2 8082   1.610   3.627   3.569  0.8676 -0.2810 -0.3020
    1SOL    HW3 8083   1.523   3.590   3.451 -1.8143  0.7611  1.2836
    1SOL    MW4 8084   1.597   3.622   3.483 -0.6834 -0.3781 -0.0854
    1SOL     OW 8085   1.534   3.883   3.374 -0.0254  0.3015 -0.1771
    1SOL    HW2 8086   1.565   3.797   3.404 -0.0474  0.3668  0.0277
    1SOL    HW3 8087   1.532   3.875   3.278  0.0658  0.1050 -0.1630
    1SOL    MW4 8088   1.538   3.870   3.365 -0.0163  0.2844 -0.1483
    1SOL     OW 8089   1.323   4.018   3.479  0.3098 -0.4070 -0.3986
    1SOL    HW2 8090   1.338   4.098   3.429  0.4163 -1.4902 -2.1679
    1SOL    HW3 8091   1.392   3.958   3.449  0.3819 -1.0884  1.0818
    1SOL    MW4 8092   1.334   4.020   3.468  0.3333 -0.6404 -0.4365
    1SOL     OW 8093   1.351   4.271   3.383  0.2721  0.0765  0.5669
    1SOL    HW2 8094   1.274   4.298   3.433 -0.0444  1.6980 -0.7729
    1SOL    HW3 8095   1.342   4.314   3.299  1.1459 -2.1070 -0.6837
    1SOL    MW4 8096   1.340   4.280   3.379  0.3456  0.0019  0.2251
    1SOL     OW 8097   1.557   4.397   3.506  0.0805 -0.5247  0.0914
    1SOL    HW2 8098   1.631   4.359   3.458 -0.2728  0.6407 -1.4062
    1SOL    HW3 8099   1.480   4.355   3.468 -0.1503 -0.2142  0.2155
    1SOL    MW4 8100   1.557   4.387   3.495  0.0035 -0.3300 -0.0896
    1SOL     OW 8101   2.032   0.043   3.404  0.0888  0.0578  0.1468
    1SOL    HW2 8102   2.103   0.102   3.428  0.0277 -0.0563  0.5995
    1SOL    HW3 8103   1.952   0.093   3.419  0.1168  0.7491 -1.8659
    1SOL    MW4 8104   2.030   0.057   3.409  0.0844  0.1339 -0.0589
    1SOL     OW 8105   1.789   0.141   3.469 -0.2931  0.0450 -0.1056
    1SOL    HW2 8106   1.790   0.157   3.563 -0.9584 -2.6890  0.4206
    1SOL    HW3 8107   1.716   0.081   3.456  1.0001 -1.1526 -2.0996
    1SOL    MW4 8108   1.779   0.135   3.479 -0.2103 -0.4737 -0.2992
    1SOL     OW 8109   1.814   0.383   3.370 -0.0391  0.3807 -0.1694
    1SOL    HW2 8110   1.804   0.293   3.401 -0.5530  0.4463 -0.1436
    1SOL    HW3 8111   1.799   0.378   3.276 -0.2909  0.4792 -0.1330
    1SOL    MW4 8112   1.811   0.371   3.361 -0.1400  0.4024 -0.1614
    1SOL     OW 8113   2.029   0.519   3.479  0.0394 -0.2056  0.1096
    1SOL    HW2 8114   2.043   0.592   3.419  1.0182 -0.8313 -0.4511
    1SOL    HW3 8115   1.952   0.474   3.444  0.0221  0.0029 -0.1236
    1SOL    MW4 8116   2.021   0.523   3.466  0.1662 -0.2607  0.0048
    1SOL     OW 8117   2.046   0.755   3.345  0.4178 -0.1346 -0.1215
    1SOL    HW2 8118   2.117   0.805   3.386  0.4903  0.6950 -1.2191
    1SOL    HW3 8119   2.065   0.760   3.251 -0.2357 -1.2344 -0.3161
    1SOL    MW4 8120   2.058   0.763   3.338  0.3409 -0.1702 -0.2921
    1SOL     OW 8121   1.820   0.873   3.497 -0.6192 -0.0912  0.4745
    1SOL    HW2 8122   1.896   0.836   3.453 -0.5345  1.4050 -0.6858
    1SOL    HW3 8123   1.745   0.841   3.446 -0.6574 -0.0732  0.5189
    1SOL    MW4 8124   1.820   0.864   3.485 -0.6132  0.1086  0.3271
    1SOL     OW 8125   1.818   1.137   3.392  0.1188 -0.3722 -0.4468
    1SOL    HW2 8126   1.893   1.191   3.418 -0.4311 -0.6500  1.8371
    1SOL    HW3 8127   1.834   1.052   3.433 -0.0910 -1.2911 -2.2328
    1SOL    MW4 8128   1.830   1.133   3.401  0.0186 -0.5301 -0.3810
    1SOL     OW 8129   2.056   1.260   3.443 -0.3171  0.0306 -0.1250
    1SOL    HW2 8130   2.053   1.243   3.537  2.5249  0.0327  0.0086
    1SOL    HW3 8131   2.042   1.354   3.434  0.7544  0.2455  0.4097
    1SOL    MW4 8132   2.054   1.270   3.454  0.1993  0.0592 -0.0367
    1SOL     OW 8133   2.004   1.528   3.377 -0.7261  0.1295  0.5415
    1SOL    HW2 8134   2.071   1.593   3.392 -0.9200  0.1224  1.4568
    1SOL    HW3 8135   1.925   1.565   3.416 -0.7277 -0.8552  1.4873
    1SOL    MW4 8136   2.002   1.541   3.384 -0.7520 -0.0014  0.7870
    1SOL     OW 8137   1.796   1.649   3.506 -0.0473  0.0247 -0.4007
    1SOL    HW2 8138   1.800   1.736   3.466  0.5587 -0.0869 -0.5899
    1SOL    HW3 8139   1.713   1.612   3.476 -1.0321  1.1321  0.9187
    1SOL    MW4 8140   1.786   1.656   3.496 -0.0973  0.1562 -0.2513
    1SOL     OW 8141   1.813   1.926   3.435  0.0316  0.3620  0.1711
    1SOL    HW2 8142   1.891   1.969   3.471 -1.0694  2.2478  0.3752
    1SOL    HW3 8143   1.823   1.934   3.340 -0.3867  1.4978  0.2169
    1SOL    MW4 8144   1.825   1.933   3.427 -0.1689  0.7606  0.2041
    1SOL     OW 8145   2.042   2.062   3.533  0.4601  0.5129  0.2927
    1SOL    HW2 8146   2.106   2.015   3.480 -1.1044 -0.5351 -0.7220
    1SOL    HW3 8147   2.043   2.151   3.500 -0.6540 -0.1744 -1.6948
    1SOL    MW4 8148   2.050   2.067   3.522  0.1066  0.2840 -0.1032
    1SOL     OW 8149   2.046   2.304   3.406  0.4004  0.4110 -0.3522
    1SOL    HW2 8150   1.995   2.379   3.436  0.9777  0.4051  0.6453
    1SOL    HW3 8151   2.029   2.300   3.311  0.2752  1.7193 -0.3943
    1SOL    MW4 8152   2.037   2.313   3.397  0.4599  0.5827 -0.2260
    1SOL     OW 8153   1.857   2.485   3.499  0.2316 -0.2182  0.1711
    1SOL    HW2 8154   1.853   2.462   3.592 -1.4819  1.3725  0.5236
    1SOL    HW3 8155   1.782   2.440   3.460 -1.4623  2.3618  0.3426
    1SOL    MW4 8156   1.847   2.476   3.506 -0.2180  0.3321  0.2403
    1SOL     OW 8157   1.833   2.725   3.369  0.3275 -0.3274  0.2890
    1SOL    HW2 8158   1.887   2.793   3.408 -2.3255  2.3474 -0.5984
    1SOL    HW3 8159   1.850   2.647   3.422  3.3042  1.0140  1.3756
    1SOL    MW4 8160   1.842   2.723   3.381  0.3701  0.2024  0.3154
    1SOL     OW 8161   2.037   2.881   3.469 -0.0240  0.1485  0.4253
    1SOL    HW2 8162   2.030   2.885   3.564 -1.2312 -0.9680  0.3937
    1SOL    HW3 8163   2.044   2.973   3.442 -2.3412  0.6646  1.4204
    1SOL    MW4 8164   2.037   2.894   3.478 -0.4890  0.0691  0.5524
    1SOL     OW 8165   2.052   3.140   3.370 -0.4507 -0.1497  0.4972
    1SOL    HW2 8166   2.122   3.184   3.417 -1.4411  1.8018  0.2003
    1SOL    HW3 8167   1.972   3.181   3.402 -1.2610 -0.2664 -1.3292
    1SOL    MW4 8168   2.051   3.152   3.380 -0.6881  0.0925  0.2170
    1SOL     OW 8169   1.800   3.229   3.446  0.5776 -0.2890  0.5017
    1SOL    HW2 8170   1.816   3.233   3.541 -2.1670 -0.5126  1.0306
    1SOL    HW3 8171   1.814   3.319   3.415  1.6679 -0.2533  1.0837
    1SOL    MW4 8172   1.804   3.241   3.455  0.3594 -0.3138  0.6483
    1SOL     OW 8173   1.834   3.491   3.399 -0.1310 -0.1455  0.5301
    1SOL    HW2 8174   1.752   3.528   3.430  0.3017  0.7074  0.6904
    1SOL    HW3 8175   1.831   3.502   3.303 -0.2428 -0.2029  0.5269
    1SOL    MW4 8176   1.823   3.497   3.390 -0.0887 -0.0408  0.5510
    1SOL     OW 8177   2.054   3.644   3.473  0.4505  0.2265 -0.3984
    1SOL    HW2 8178   2.127   3.589   3.445 -0.4097 -0.9269 -0.3896
    1SOL    HW3 8179   1.976   3.599   3.442 -0.2797  1.3765 -0.2804
    1SOL    MW4 8180   2.053   3.631   3.465  0.2406  0.2263 -0.3815
    1SOL     OW 8181   2.026   3.920   3.398 -0.4068 -0.0420 -0.0793
    1SOL    HW2 8182   1.933   3.946   3.399 -0.5374 -0.5106 -0.1223
    1SOL    HW3 8183   2.027   3.834   3.439  0.0063 -0.0707 -0.1518
    1SOL    MW4 8184   2.014   3.912   3.404 -0.3693 -0.1078 -0.0944
    1SOL     OW 8185   1.761   4.005   3.457  0.0512 -0.2336  0.2970
    1SOL    HW2 8186   1.763   3.999   3.553 -0.1477 -0.2620  0.2979
    1SOL    HW3 8187   1.677   3.968   3.432 -0.6528  1.3443  0.2259
    1SOL    MW4 8188   1.751   4.000   3.467 -0.0678 -0.0293  0.2878
    1SOL     OW 8189   1.790   4.283   3.391 -0.3352 -0.0506  0.6582
    1SOL    HW2 8190   1.795   4.194   3.427 -0.3965  0.3143  1.5798
    1SOL    HW3 8191   1.779   4.270   3.297 -0.1417 -1.0197  0.7647
    1SOL    MW4 8192   1.789   4.270   3.383 -0.3177 -0.1302  0.7939
    1SOL     OW 8193   2.022   4.437   3.432  0.3339  0.3456 -0.5025
    1SOL    HW2 8194   1.931   4.412   3.418  0.0746 -0.1791  1.8565
    1SOL    HW3 8195   2.020   4.532   3.440 -0.1722  0.2474  0.5890
    1SOL    MW4 8196   2.010   4.446   3.431  0.2329  0.2637 -0.0472
    1SOL     OW 8197   2.471   0.007   3.371 -0.2589 -0.0014 -0.2338
    1SOL    HW2 8198   2.485  -0.075   3.417 -0.3986  0.0657 -0.0683
    1SOL    HW3 8199   2.500  -0.009   3.282 -1.4405 -0.6149 -0.5215
    1SOL    MW4 8200   2.476  -0.006   3.366 -0.4330 -0.0735 -0.2499
    1SOL     OW 8201   2.273   0.168   3.501 -0.9030 -0.1948  0.3056
    1SOL    HW2 8202   2.283   0.259   3.474 -0.5354  0.1899  1.7106
    1SOL    HW3 8203   2.341   0.121   3.453 -0.4066  0.4480  0.3760
    1SOL    MW4 8204   2.283   0.174   3.491 -0.7887 -0.0592  0.5002
    1SOL     OW 8205   2.262   0.430   3.363  0.3298 -0.0769  0.0375
    1SOL    HW2 8206   2.328   0.472   3.417 -0.6265  1.9392 -0.3335
    1SOL    HW3 8207   2.179   0.447   3.408 -0.2760  0.0624 -1.1200
    1SOL    MW4 8208   2.260   0.438   3.376  0.1237  0.2075 -0.1643
    1SOL     OW 8209   2.501   0.523   3.497 -0.1070  0.2684 -0.3950
    1SOL    HW2 8210   2.577   0.479   3.459 -0.1802 -0.4577  0.2842
    1SOL    HW3 8211   2.498   0.608   3.453 -0.0673 -0.4643 -1.8512
    1SOL    MW4 8212   2.511   0.528   3.486 -0.1111  0.0759 -0.4973
    1SOL     OW 8213   2.518   0.758   3.357  0.0864 -0.2001  0.4888
    1SOL    HW2 8214   2.597   0.805   3.384 -0.2222  0.2192  0.6623
    1SOL    HW3 8215   2.518   0.764   3.262  1.1340 -1.6112  0.3826
    1SOL    MW4 8216   2.528   0.765   3.348  0.1836 -0.3310  0.4976
    1SOL     OW 8217   2.266   0.863   3.457 -0.5220 -0.5418 -0.1441
    1SOL    HW2 8218   2.268   0.958   3.450 -0.7590 -0.2948  2.5490
    1SOL    HW3 8219   2.339   0.833   3.401  0.3583  1.2816 -0.0055
    1SOL    MW4 8220   2.276   0.872   3.449 -0.4370 -0.2687  0.2296
    1SOL     OW 8221   2.281   1.133   3.360  0.0032 -0.4680 -0.0921
    1SOL    HW2 8222   2.353   1.182   3.398 -0.2844 -0.3249  0.2728
    1SOL    HW3 8223   2.203   1.186   3.377 -0.2417 -0.8038 -0.1370
    1SOL    MW4 8224   2.280   1.146   3.367 -0.0668 -0.4934 -0.0498
    1SOL     OW 8225   2.482   1.282   3.465 -0.2825  0.3408 -0.0723
    1SOL    HW2 8226   2.484   1.279   3.561  0.8144  1.8196 -0.0299
    1SOL    HW3 8227   2.564   1.243   3.438 -0.6456 -0.1829 -0.4199
    1SOL    MW4 8228   2.493   1.277   3.474 -0.1857  0.4667 -0.1123
    1SOL     OW 8229   2.469   1.558   3.357  0.6729  0.3515  0.4197
    1SOL    HW2 8230   2.485   1.474   3.400  2.1495  0.5653  0.3032
    1SOL    HW3 8231   2.451   1.535   3.265  0.0872  0.0976  0.5934
    1SOL    MW4 8232   2.469   1.544   3.350  0.7904  0.3462  0.4272
    1SOL     OW 8233   2.228   1.662   3.482  0.2107  0.7014  0.1779
    1SOL    HW2 8234   2.236   1.672   3.577  0.3455  1.0292  0.1321
    1SOL    HW3 8235   2.316   1.644   3.451  0.1802  0.6735  0.1056
    1SOL    MW4 8236   2.241   1.661   3.490  0.2244  0.7410  0.1624
    1SOL     OW 8237   2.251   1.912   3.388  0.4683  0.0980  0.0643
    1SOL    HW2 8238   2.236   1.828   3.431 -0.8856  0.6479  0.6994
    1SOL    HW3 8239   2.253   1.892   3.294  0.2795 -0.6652  0.2251
    1SOL    MW4 8240   2.249   1.899   3.381  0.2646  0.0700  0.1693
    1SOL     OW 8241   2.472   2.043   3.469  0.7847  0.2635 -0.2411
    1SOL    HW2 8242   2.389   2.008   3.436  1.1517 -1.7808  0.9394
    1SOL    HW3 8243   2.468   2.136   3.448 -1.2197 -0.0429 -1.4118
    1SOL    MW4 8244   2.460   2.050   3.462  0.5689 -0.0467 -0.2398
    1SOL     OW 8245   2.466   2.314   3.397 -0.2347 -0.1562 -0.1355
    1SOL    HW2 8246   2.391   2.363   3.428  0.9124  0.7459  1.2644
    1SOL    HW3 8247   2.542   2.359   3.434  0.9466 -1.7291 -0.5649
    1SOL    MW4 8248   2.466   2.326   3.406  0.0727 -0.2446 -0.0072
    1SOL     OW 8249   2.253   2.469   3.484 -0.3552 -0.3698 -0.1928
    1SOL    HW2 8250   2.179   2.419   3.449 -1.9288  1.3345  0.6270
    1SOL    HW3 8251   2.248   2.554   3.440  0.1931  0.2957  1.0029
    1SOL    MW4 8252   2.243   2.473   3.474 -0.4904 -0.0570  0.0730
    1SOL     OW 8253   2.240   2.707   3.376 -0.0589 -0.2525 -0.0234
    1SOL    HW2 8254   2.154   2.742   3.401 -1.0716 -1.9337 -1.0706
    1SOL    HW3 8255   2.241   2.712   3.281  0.9048 -0.5282 -0.0332
    1SOL    MW4 8256   2.229   2.712   3.367 -0.0651 -0.5107 -0.1626
    1SOL     OW 8257   2.467   2.822   3.484  0.1527 -0.0690 -0.3257
    1SOL    HW2 8258   2.465   2.914   3.460 -1.1223  0.0473  0.1684
    1SOL    HW3 8259   2.384   2.787   3.451  0.6325 -1.0379 -0.5209
    1SOL    MW4 8260   2.455   2.829   3.477  0.0479 -0.1814 -0.2861
    1SOL     OW 8261   2.490   3.079   3.400  0.0814  0.1702  0.1544
    1SOL    HW2 8262   2.553   3.150   3.413  2.3931 -1.8781  0.5418
    1SOL    HW3 8263   2.472   3.080   3.306  0.0797  1.2641  0.1600
    1SOL    MW4 8264   2.496   3.089   3.389  0.3862  0.0443  0.2062
    1SOL     OW 8265   2.310   3.256   3.477 -0.2590 -0.0247  0.5796
    1SOL    HW2 8266   2.308   3.255   3.573 -0.6932  1.7417  0.6141
    1SOL    HW3 8267   2.362   3.179   3.453 -0.0107 -0.3980  2.2289
    1SOL    MW4 8268   2.316   3.246   3.487 -0.2837  0.1590  0.8018
    1SOL     OW 8269   2.283   3.513   3.411  0.1501  0.0890 -0.3249
    1SOL    HW2 8270   2.293   3.423   3.442  0.9040  0.3403  0.1765
    1SOL    HW3 8271   2.264   3.504   3.318 -3.5711 -0.7477  0.4167
    1SOL    MW4 8272   2.282   3.500   3.403 -0.2415  0.0119 -0.1609
    1SOL     OW 8273   2.521   3.649   3.500 -0.0017 -0.5679 -0.3746
    1SOL    HW2 8274   2.530   3.740   3.473  0.6399 -0.4831  0.1024
    1SOL    HW3 8275   2.446   3.616   3.451  0.1694  0.0274 -1.0423
    1SOL    MW4 8276   2.512   3.656   3.490  0.1054 -0.4783 -0.3996
    1SOL     OW 8277   2.506   3.899   3.391 -0.3618  0.1839 -0.3874
    1SOL    HW2 8278   2.568   3.961   3.430 -0.4178  0.8541 -1.3697
    1SOL    HW3 8279   2.421   3.928   3.423 -0.3998  0.6860 -0.9439
    1SOL    MW4 8280   2.503   3.911   3.401 -0.3743  0.3386 -0.5903
    1SOL     OW 8281   2.280   4.035   3.482 -0.3963  0.0444  0.0368
    1SOL    HW2 8282   2.285   4.124   3.449 -1.1572  0.0779  0.0125
    1SOL    HW3 8283   2.198   4.000   3.447 -0.4808 -0.4105  0.6730
    1SOL    MW4 8284   2.270   4.042   3.473 -0.5076 -0.0114  0.1175
    1SOL     OW 8285   2.271   4.326   3.402 -0.7164 -0.4294  0.2567
    1SOL    HW2 8286   2.187   4.366   3.424  0.1830  1.1422  0.8702
    1SOL    HW3 8287   2.276   4.330   3.307 -0.3490  1.5175  0.3435
    1SOL    MW4 8288   2.261   4.332   3.393 -0.5496  0.0353  0.3490
    1SOL     OW 8289   2.521   4.426   3.486  0.6180  0.0778  0.0301
    1SOL    HW2 8290   2.522   4.404   3.579 -0.7295 -0.4246 -0.0542
    1SOL    HW3 8291   2.433   4.401   3.457  1.0827  0.0770 -1.4127
    1SOL    MW4 8292   2.509   4.420   3.494  0.5014  0.0114 -0.1717
    1SOL     OW 8293   2.924   4.661   3.447  0.0401 -0.1001 -0.0001
    1SOL    HW2 8294   2.845   4.714   3.459  0.6125  0.9126 -0.6472
    1SOL    HW3 8295   2.922   4.635   3.355  0.1252 -0.6236  0.1447
    1SOL    MW4 8296   2.913   4.665   3.437  0.1264 -0.0356 -0.0665
    1SOL     OW 8297   2.692   0.136   3.466 -0.2027 -0.0962  0.3669
    1SOL    HW2 8298   2.682   0.144   3.561 -1.9660  0.7271  0.1405
    1SOL    HW3 8299   2.611   0.096   3.436  0.1665  0.0198 -0.8432
    1SOL    MW4 8300   2.680   0.132   3.474 -0.3867  0.0277  0.1774
    1SOL     OW 8301   2.691   0.391   3.332 -0.4034 -0.4635  0.0022
    1SOL    HW2 8302   2.765   0.412   3.389 -1.1124  1.2050  0.3386
    1SOL    HW3 8303   2.665   0.303   3.358  0.3886 -0.3951  1.0623
    1SOL    MW4 8304   2.697   0.382   3.343 -0.3922 -0.2343  0.1867
    1SOL     OW 8305   2.908   0.506   3.471 -0.3877  0.1469 -0.3433
    1SOL    HW2 8306   2.926   0.509   3.565 -1.8786  0.1511 -0.0477
    1SOL    HW3 8307   2.906   0.598   3.444  0.6001  0.1324 -0.5082
    1SOL    MW4 8308   2.910   0.518   3.480 -0.4542  0.1456 -0.3262
    1SOL     OW 8309   2.940   0.768   3.363 -0.2737  0.2550  0.1306
    1SOL    HW2 8310   3.017   0.820   3.383  0.2071 -0.7404  0.9306
    1SOL    HW3 8311   2.868   0.813   3.407 -0.1874  1.2642 -0.7350
    1SOL    MW4 8312   2.941   0.780   3.371 -0.1988  0.2568  0.1221
    1SOL     OW 8313   2.720   0.903   3.458 -0.6341  0.4207 -0.5726
    1SOL    HW2 8314   2.708   0.916   3.553 -0.2801  0.5704 -0.5489
    1SOL    HW3 8315   2.725   0.992   3.423  1.0667  0.3596 -0.5028
    1SOL    MW4 8316   2.719   0.917   3.466 -0.3631  0.4325 -0.5603
    1SOL     OW 8317   2.713   1.167   3.355 -0.6947 -0.3421 -0.0103
    1SOL    HW2 8318   2.796   1.211   3.372 -0.1365 -1.4784  0.3234
    1SOL    HW3 8319   2.701   1.172   3.260 -0.6797  0.5833  0.0402
    1SOL    MW4 8320   2.722   1.173   3.345 -0.6192 -0.3699  0.0405
    1SOL     OW 8321   2.942   1.293   3.441 -0.2992 -0.3110  0.4757
    1SOL    HW2 8322   2.936   1.284   3.536  1.7160 -0.3374  0.6156
    1SOL    HW3 8323   3.024   1.251   3.418 -1.2271 -1.1643 -1.4136
    1SOL    MW4 8324   2.952   1.286   3.450 -0.1559 -0.4270  0.2449
    1SOL     OW 8325   2.933   1.574   3.389  0.2844  0.0862 -0.0898
    1SOL    HW2 8326   2.863   1.629   3.423  1.0529  1.7374 -1.1043
    1SOL    HW3 8327   2.906   1.485   3.411 -1.8571  0.7221  0.0039
    1SOL    MW4 8328   2.920   1.570   3.397  0.1032  0.3880 -0.2115
    1SOL     OW 8329   2.722   1.707   3.481  0.1690 -0.5563 -0.4651
    1SOL    HW2 8330   2.720   1.791   3.435 -0.9142 -0.5970 -0.5131
    1SOL    HW3 8331   2.657   1.654   3.435  0.5867 -1.2936 -0.1987
    1SOL    MW4 8332   2.713   1.711   3.469  0.0813 -0.6589 -0.4363
    1SOL     OW 8333   2.697   1.945   3.352  0.1492  0.1159  0.2626
    1SOL    HW2 8334   2.622   1.992   3.387  0.2312  0.2737  0.2300
    1SOL    HW3 8335   2.681   1.940   3.258  0.3079  0.3858  0.2203
    1SOL    MW4 8336   2.685   1.950   3.344  0.1812  0.1724  0.2527
    1SOL     OW 8337   2.902   2.065   3.480 -0.0505 -0.0775  0.0786
    1SOL    HW2 8338   2.905   2.047   3.574 -0.5472 -0.7473 -0.0282
    1SOL    HW3 8339   2.823   2.020   3.450 -1.3617  2.3272 -0.1926
    1SOL    MW4 8340   2.892   2.057   3.489 -0.2892  0.1514  0.0288
    1SOL     OW 8341   2.922   2.333   3.345  0.2983 -0.5155  0.2422
    1SOL    HW2 8342   2.926   2.248   3.390  2.7351 -0.0922  0.9295
    1SOL    HW3 8343   2.905   2.311   3.254  0.5998 -1.7407  0.4686
    1SOL    MW4 8344   2.920   2.319   3.339  0.6597 -0.6213  0.3626
    1SOL     OW 8345   2.706   2.426   3.493 -0.3163 -0.2878  0.3462
    1SOL    HW2 8346   2.718   2.430   3.588 -0.4725  2.4103  0.3039
    1SOL    HW3 8347   2.791   2.398   3.459 -0.4096 -1.7599  1.3109
    1SOL    MW4 8348   2.719   2.423   3.501 -0.3493 -0.1259  0.4680
    1SOL     OW 8349   2.699   2.697   3.397  0.6148  0.1769  0.0361
    1SOL    HW2 8350   2.698   2.612   3.442  0.9512  0.8510  1.3315
    1SOL    HW3 8351   2.625   2.745   3.434 -0.3399  0.0019 -1.5971
    1SOL    MW4 8352   2.689   2.692   3.408  0.5333  0.2427 -0.0086
    1SOL     OW 8353   2.921   2.829   3.472  0.4541 -0.3889  0.3356
    1SOL    HW2 8354   2.911   2.828   3.567  0.0636 -1.1155  0.2850
    1SOL    HW3 8355   2.847   2.779   3.439  0.4869  0.0143 -0.3619
    1SOL    MW4 8356   2.910   2.823   3.480  0.4070 -0.4315  0.2370
    1SOL     OW 8357   2.941   3.094   3.395 -0.2930 -0.5501  0.1889
    1SOL    HW2 8358   2.931   3.005   3.431  0.5548 -1.0613 -0.8401
    1SOL    HW3 8359   2.941   3.082   3.300  0.2316  0.5110  0.0515
    1SOL    MW4 8360   2.939   3.081   3.388 -0.1121 -0.4773  0.0350
    1SOL     OW 8361   2.688   3.238   3.497 -0.4118  0.3191 -0.2331
    1SOL    HW2 8362   2.690   3.238   3.593  0.1389 -0.7409 -0.2289
    1SOL    HW3 8363   2.770   3.196   3.472 -1.1961 -0.6999 -1.1388
    1SOL    MW4 8364   2.699   3.232   3.506 -0.4425  0.0448 -0.3521
    1SOL     OW 8365   2.731   3.488   3.417  0.0484 -0.0930 -0.0344
    1SOL    HW2 8366   2.705   3.402   3.450  0.9864 -0.0105  0.9634
    1SOL    HW3 8367   2.658   3.546   3.440 -0.9901 -0.7968 -1.5292
    1SOL    MW4 8368   2.718   3.485   3.425  0.0353 -0.1750 -0.0999
    1SOL     OW 8369   2.960   3.602   3.484  0.0524 -0.0975 -0.0827
    1SOL    HW2 8370   2.946   3.690   3.449  1.2688 -0.0088 -0.3612
    1SOL    HW3 8371   2.880   3.554   3.460 -0.1680  0.6307 -0.8406
    1SOL    MW4 8372   2.947   3.607   3.476  0.1836  0.0100 -0.2196
    1SOL     OW 8373   2.923   3.870   3.435  0.2109  0.1851 -0.1919
    1SOL    HW2 8374   3.003   3.922   3.445  0.4480 -0.0152 -0.9452
    1SOL    HW3 8375   2.852   3.931   3.455  0.4198  1.1973 -2.3611
    1SOL    MW4 8376   2.924   3.885   3.439  0.2697  0.2921 -0.5774
    1SOL     OW 8377   2.714   4.043   3.509  0.7420  0.6808 -0.5265
    1SOL    HW2 8378   2.701   4.057   3.603 -0.6956 -0.4198 -0.5404
    1SOL    HW3 8379   2.734   4.131   3.474  0.0572  1.3005  0.6194
    1SOL    MW4 8380   2.715   4.057   3.517  0.4618  0.6175 -0.3772
    1SOL     OW 8381   2.735   4.287   3.391 -0.3675 -0.0768 -0.0704
    1SOL    HW2 8382   2.813   4.329   3.429 -0.9136  0.8800  0.0074
    1SOL    HW3 8383   2.661   4.336   3.427 -1.0086 -0.8940 -0.2505
    1SOL    MW4 8384   2.736   4.299   3.401 -0.5240 -0.0587 -0.0839
    1SOL     OW 8385   2.956   4.387   3.512  0.0120 -0.0523  0.1445
    1SOL    HW2 8386   2.939   4.381   3.606 -0.3389 -0.3398  0.0638
    1SOL    HW3 8387   2.948   4.480   3.492 -1.7184 -0.2084  0.0635
    1SOL    MW4 8388   2.953   4.398   3.522 -0.2627 -0.1106  0.1233
    1SOL     OW 8389   3.372   4.653   3.449  0.4726 -0.2157 -0.0604
    1SOL    HW2 8390   3.297   4.698   3.488  0.2446 -0.7835  0.1636
    1SOL    HW3 8391   3.366   4.672   3.355 -1.7292 -2.7830 -0.4995
    1SOL    MW4 8392   3.362   4.661   3.442  0.1519 -0.6289 -0.0887
    1SOL     OW 8393   3.153   0.119   3.542  0.1733 -0.3194  0.2975
    1SOL    HW2 8394   3.146   0.193   3.481 -0.3707 -1.2378 -0.7791
    1SOL    HW3 8395   3.072   0.070   3.530  0.5372 -1.1021  0.9862
    1SOL    MW4 8396   3.141   0.122   3.532  0.1495 -0.5439  0.2463
    1SOL     OW 8397   3.149   0.358   3.379 -0.0759  0.2012 -0.2483
    1SOL    HW2 8398   3.073   0.405   3.413 -0.1091 -0.5618  0.7572
    1SOL    HW3 8399   3.126   0.338   3.288 -1.3132 -0.4763  0.1912
    1SOL    MW4 8400   3.136   0.361   3.371 -0.2434  0.0112 -0.0577
    1SOL     OW 8401   3.383   0.500   3.477 -0.5029  0.2758 -0.2014
    1SOL    HW2 8402   3.382   0.499   3.572  1.3004  0.2551 -0.1705
    1SOL    HW3 8403   3.299   0.461   3.452 -0.3854 -1.0521  1.3834
    1SOL    MW4 8404   3.372   0.494   3.486 -0.2494  0.0979  0.0117
    1SOL     OW 8405   3.371   0.758   3.353 -0.0922  0.0627 -0.1564
    1SOL    HW2 8406   3.438   0.806   3.402 -2.0261  1.3108  1.3307
    1SOL    HW3 8407   3.371   0.671   3.391  0.7032  0.0436 -0.1880
    1SOL    MW4 8408   3.380   0.753   3.364 -0.2425  0.2249  0.0358
    1SOL     OW 8409   3.155   0.925   3.497 -0.2036  0.0655  0.2400
    1SOL    HW2 8410   3.148   1.012   3.459 -0.7703 -0.4812 -0.9612
    1SOL    HW3 8411   3.234   0.887   3.457 -0.3439 -0.2127  0.2199
    1SOL    MW4 8412   3.165   0.931   3.487 -0.2971 -0.0433  0.0792
    1SOL     OW 8413   3.182   1.165   3.356 -0.4176  0.1651  0.6237
    1SOL    HW2 8414   3.264   1.203   3.387  0.6094 -0.9510 -0.7061
    1SOL    HW3 8415   3.185   1.176   3.261 -2.2581  0.9944  0.6466
    1SOL    MW4 8416   3.193   1.171   3.348 -0.5252  0.1272  0.4508
    1SOL     OW 8417   3.409   1.276   3.459 -0.1027  0.1558 -0.2953
    1SOL    HW2 8418   3.492   1.229   3.447  0.5731  1.0275  0.7881
    1SOL    HW3 8419   3.432   1.368   3.444 -0.6484  0.5189  1.0119
    1SOL    MW4 8420   3.423   1.282   3.455 -0.0854  0.3188  0.0198
    1SOL     OW 8421   3.429   1.554   3.415  0.5719  0.4553 -0.7555
    1SOL    HW2 8422   3.502   1.596   3.461  0.6890  0.7492 -1.2114
    1SOL    HW3 8423   3.351   1.602   3.444  0.6266  0.5364 -0.7414
    1SOL    MW4 8424   3.428   1.566   3.425  0.5946  0.5047 -0.8137
    1SOL     OW 8425   3.173   1.676   3.489  0.5821 -0.0267 -0.3846
    1SOL    HW2 8426   3.151   1.764   3.458  0.1892 -0.4062 -1.2306
    1SOL    HW3 8427   3.096   1.624   3.467 -0.5223  0.0753  3.0547
    1SOL    MW4 8428   3.160   1.681   3.482  0.3846 -0.0634 -0.0427
    1SOL     OW 8429   3.121   1.930   3.374  0.0297 -0.1927  0.1004
    1SOL    HW2 8430   3.051   1.984   3.410  1.4115  2.0933 -0.5510
    1SOL    HW3 8431   3.202   1.973   3.401  1.2008 -2.5589  0.4914
    1SOL    MW4 8432   3.123   1.942   3.382  0.3664 -0.2033  0.0660
    1SOL     OW 8433   3.354   2.046   3.451  0.2667  0.2750 -0.3358
    1SOL    HW2 8434   3.360   2.141   3.435 -0.7999  0.3351 -0.4535
    1SOL    HW3 8435   3.368   2.037   3.545 -1.5696  0.7632  0.0053
    1SOL    MW4 8436   3.357   2.058   3.461 -0.1166  0.3476 -0.3064
    1SOL     OW 8437   3.369   2.300   3.354 -0.1278  0.0903  0.2314
    1SOL    HW2 8438   3.442   2.359   3.372  0.5122 -1.1448  1.8281
    1SOL    HW3 8439   3.291   2.351   3.378  0.2170  1.2759 -1.1195
    1SOL    MW4 8440   3.368   2.315   3.359  0.0024  0.0837  0.2637
    1SOL     OW 8441   3.168   2.454   3.426  0.7026  0.0899  0.2017
    1SOL    HW2 8442   3.160   2.548   3.412  1.5077 -0.2552 -2.7921
    1SOL    HW3 8443   3.080   2.420   3.412  0.6695  0.2460  0.0247
    1SOL    MW4 8444   3.155   2.462   3.423  0.8044  0.0648 -0.2167
    1SOL     OW 8445   3.159   2.721   3.350  0.0380 -0.0209  0.4695
    1SOL    HW2 8446   3.234   2.771   3.383  0.9379 -1.2448  0.3113
    1SOL    HW3 8447   3.085   2.751   3.402  0.3622  2.2199 -0.3096
    1SOL    MW4 8448   3.159   2.732   3.361  0.1996  0.1135  0.3457
    1SOL     OW 8449   3.379   2.849   3.461 -0.0838  0.1186  0.6544
    1SOL    HW2 8450   3.370   2.833   3.555 -1.6068  0.8094  0.6398
    1SOL    HW3 8451   3.387   2.944   3.453 -2.1502  0.2422 -0.0687
    1SOL    MW4 8452   3.379   2.859   3.472 -0.5574  0.2258  0.5569
    1SOL     OW 8453   3.432   3.124   3.390  0.1516  0.6660  0.0256
    1SOL    HW2 8454   3.502   3.173   3.434 -0.6494  0.0305  2.0701
    1SOL    HW3 8455   3.351   3.164   3.423 -0.4770 -0.5210 -0.0506
    1SOL    MW4 8456   3.430   3.136   3.401 -0.0372  0.4253  0.2849
    1SOL     OW 8457   3.180   3.179   3.504  0.0683 -0.3450  0.0109
    1SOL    HW2 8458   3.163   3.269   3.474 -1.1452 -0.6684 -0.3080
    1SOL    HW3 8459   3.103   3.130   3.475  0.3723 -1.3267  0.8608
    1SOL    MW4 8460   3.168   3.185   3.496 -0.0515 -0.5169  0.0811
    1SOL     OW 8461   3.172   3.447   3.388  0.6232  0.0749 -0.0407
    1SOL    HW2 8462   3.109   3.511   3.421  0.2083 -0.0607 -0.5636
    1SOL    HW3 8463   3.186   3.473   3.296 -0.4357 -1.2846 -0.5974
    1SOL    MW4 8464   3.166   3.459   3.380  0.4289 -0.1225 -0.1833
    1SOL     OW 8465   3.383   3.613   3.480  0.3650 -0.0856  0.0874
    1SOL    HW2 8466   3.366   3.696   3.435  0.0639 -0.8873 -1.3050
    1SOL    HW3 8467   3.305   3.560   3.463  1.0190 -1.0443  0.0671
    1SOL    MW4 8468   3.371   3.617   3.472  0.4117 -0.3181 -0.0989
    1SOL     OW 8469   3.373   3.861   3.381  0.7045  0.5654  0.1097
    1SOL    HW2 8470   3.444   3.920   3.407  0.4460  0.6597  0.6104
    1SOL    HW3 8471   3.293   3.909   3.401  0.4955  0.6193 -0.8268
    1SOL    MW4 8472   3.372   3.875   3.387  0.6430  0.5851  0.0522
    1SOL     OW 8473   3.154   3.995   3.470  0.0462  0.4145  0.0408
    1SOL    HW2 8474   3.153   4.010   3.564  1.0115  1.0328 -0.0426
    1SOL    HW3 8475   3.161   4.082   3.432 -0.5709  0.1855 -0.6184
    1SOL    MW4 8476   3.155   4.008   3.477  0.0918  0.4659 -0.0572
    1SOL     OW 8477   3.151   4.254   3.353  0.3616 -0.4994 -0.1244
    1SOL    HW2 8478   3.233   4.303   3.365  1.8462 -2.9060 -0.1938
    1SOL    HW3 8479   3.087   4.302   3.405  2.1162  0.6722  1.0132
    1SOL    MW4 8480   3.154   4.267   3.361  0.7889 -0.6628  0.0165
    1SOL     OW 8481   3.387   4.387   3.513  0.3999 -0.1359 -0.5480
    1SOL    HW2 8482   3.364   4.379   3.606  0.1055  0.0253 -0.6055
    1SOL    HW3 8483   3.378   4.480   3.494 -0.8351 -0.3604 -1.0691
    1SOL    MW4 8484   3.383   4.398   3.523  0.1981 -0.1440 -0.6242
    1SOL     OW 8485   3.820   4.625   3.418 -0.1768 -0.0456 -0.2047
    1SOL    HW2 8486   3.753   4.683   3.454  0.6274  1.1696 -0.6346
    1SOL    HW3 8487   3.811   4.634   3.323 -0.8220 -1.5313 -0.2924
    1SOL    MW4 8488   3.810   4.634   3.410 -0.1557 -0.0811 -0.2730
    1SOL     OW 8489   3.618   0.108   3.534 -0.1922  0.1316  0.2526
    1SOL    HW2 8490   3.610   0.198   3.503 -1.3573  0.7033  2.0778
    1SOL    HW3 8491   3.531   0.071   3.523  0.0814 -0.5122  0.2450
    1SOL    MW4 8492   3.606   0.115   3.529 -0.3102  0.1221  0.4923
    1SOL     OW 8493   3.602   0.360   3.410  0.6551  0.5026 -0.4540
    1SOL    HW2 8494   3.689   0.390   3.437  0.2036  0.5759  0.9370
    1SOL    HW3 8495   3.541   0.417   3.457 -0.1589  0.4202 -1.3863
    1SOL    MW4 8496   3.605   0.371   3.420  0.4880  0.5014 -0.3936
    1SOL     OW 8497   3.843   0.460   3.523  0.1854  0.3020 -0.1872
    1SOL    HW2 8498   3.859   0.487   3.614 -0.2211 -0.4335  0.1128
    1SOL    HW3 8499   3.928   0.430   3.492 -0.0870 -1.4548  0.6593
    1SOL    MW4 8500   3.856   0.460   3.531  0.0958 -0.0268 -0.0360
    1SOL     OW 8501   3.839   0.701   3.379 -0.5193  0.0248  0.3372
    1SOL    HW2 8502   3.890   0.764   3.429  0.0536 -0.1458 -0.0362
    1SOL    HW3 8503   3.841   0.621   3.431  1.5779 -0.6973 -0.8002
    1SOL    MW4 8504   3.846   0.699   3.393 -0.1671 -0.0930  0.1380
    1SOL     OW 8505   3.616   0.869   3.459  0.0945  0.4223  0.1118
    1SOL    HW2 8506   3.639   0.869   3.552 -1.2732  1.2468  0.4638
    1SOL    HW3 8507   3.681   0.811   3.419  0.0731 -0.7911  1.7335
    1SOL    MW4 8508   3.628   0.861   3.466 -0.0887  0.3710  0.3722
    1SOL     OW 8509   3.634   1.141   3.383  0.0279  0.3901  0.4421
    1SOL    HW2 8510   3.625   1.046   3.398 -0.2553  0.3359 -0.0647
    1SOL    HW3 8511   3.630   1.150   3.288  0.4002  0.8800  0.4734
    1SOL    MW4 8512   3.632   1.129   3.373  0.0396  0.4475  0.3791
    1SOL     OW 8513   3.861   1.265   3.473  0.0218  0.1220 -0.3081
    1SOL    HW2 8514   3.858   1.270   3.569 -0.0197  1.3372 -0.3704
    1SOL    HW3 8515   3.782   1.217   3.449  0.3001 -0.6507  0.2955
    1SOL    MW4 8516   3.850   1.259   3.483  0.0532  0.1804 -0.2363
    1SOL     OW 8517   3.853   1.541   3.433  0.5610  0.2963 -0.1861
    1SOL    HW2 8518   3.930   1.583   3.474  0.1717 -0.3430  1.2472
    1SOL    HW3 8519   3.856   1.451   3.465 -1.6097  0.6372  1.0919
    1SOL    MW4 8520   3.864   1.535   3.443  0.2232  0.2568  0.1719
    1SOL     OW 8521   3.638   1.680   3.547  0.0110 -0.1476  0.0776
    1SOL    HW2 8522   3.613   1.758   3.498 -0.2066 -0.5864 -0.5198
    1SOL    HW3 8523   3.710   1.642   3.497  0.2703 -0.2105  0.4905
    1SOL    MW4 8524   3.644   1.685   3.534  0.0169 -0.2139  0.0536
    1SOL     OW 8525   3.602   1.917   3.400 -0.0025 -0.0939 -0.2918
    1SOL    HW2 8526   3.659   1.976   3.449 -0.3022  0.0060 -0.0548
    1SOL    HW3 8527   3.516   1.960   3.404  0.2380  0.5723 -2.0190
    1SOL    MW4 8528   3.598   1.930   3.407 -0.0100  0.0072 -0.4885
    1SOL     OW 8529   3.781   2.091   3.506  0.3693  0.1627  0.0196
    1SOL    HW2 8530   3.810   2.093   3.597  0.3041  2.6958  0.0118
    1SOL    HW3 8531   3.852   2.047   3.458  0.1831 -1.6156  1.3460
    1SOL    MW4 8532   3.794   2.085   3.511  0.3362  0.2623  0.1936
    1SOL     OW 8533   3.829   2.324   3.370  0.1791 -0.5929  0.3691
    1SOL    HW2 8534   3.905   2.360   3.416  0.6824 -1.6634  0.3906
    1SOL    HW3 8535   3.811   2.242   3.414 -0.0786 -1.0589 -0.5845
    1SOL    MW4 8536   3.836   2.318   3.382  0.2117 -0.7956  0.2463
    1SOL     OW 8537   3.600   2.471   3.445 -0.2380  0.6316 -0.4006
    1SOL    HW2 8538   3.616   2.562   3.421 -0.6285  0.2342 -2.2555
    1SOL    HW3 8539   3.676   2.424   3.411 -0.6881  0.0730 -0.6187
    1SOL    MW4 8540   3.612   2.477   3.437 -0.3490  0.5054 -0.6740
    1SOL     OW 8541   3.607   2.745   3.373  0.1607 -0.2352  0.1219
    1SOL    HW2 8542   3.679   2.782   3.424 -0.4842  0.5420  0.4724
    1SOL    HW3 8543   3.529   2.790   3.406 -0.4056 -0.6278 -0.6849
    1SOL    MW4 8544   3.607   2.756   3.384  0.0010 -0.1845  0.0615
    1SOL     OW 8545   3.859   2.831   3.501  0.1660 -0.2015 -0.0319
    1SOL    HW2 8546   3.834   2.832   3.593  0.2952  0.5546 -0.0041
    1SOL    HW3 8547   3.870   2.923   3.478 -0.8177 -0.3288 -1.0554
    1SOL    MW4 8548   3.857   2.843   3.510  0.0532 -0.1187 -0.1633
    1SOL     OW 8549   3.846   3.063   3.367  0.3322  0.0596 -0.6375
    1SOL    HW2 8550   3.928   3.100   3.400  0.1828  1.2626 -1.5849
    1SOL    HW3 8551   3.846   3.085   3.274 -0.4050 -1.1653 -0.9361
    1SOL    MW4 8552   3.857   3.071   3.359  0.2153  0.0565 -0.8016
    1SOL     OW 8553   3.641   3.245   3.514 -0.1025 -0.4206  0.0950
    1SOL    HW2 8554   3.654   3.336   3.486  1.0849 -0.4886  0.3745
    1SOL    HW3 8555   3.700   3.195   3.457 -1.3806 -1.1185 -0.6375
    1SOL    MW4 8556   3.651   3.251   3.503 -0.1144 -0.5217  0.0355
    1SOL     OW 8557   3.618   3.502   3.392 -0.2480 -0.3003  0.3997
    1SOL    HW2 8558   3.533   3.535   3.421 -0.5623 -0.3099 -0.4923
    1SOL    HW3 8559   3.602   3.469   3.304  0.7418 -0.0569  0.1211
    1SOL    MW4 8560   3.604   3.502   3.384 -0.1590 -0.2694  0.2453
    1SOL     OW 8561   3.837   3.625   3.483 -0.0289 -0.4444 -0.1514
    1SOL    HW2 8562   3.836   3.637   3.578  0.1180  0.5701 -0.2691
    1SOL    HW3 8563   3.755   3.579   3.464  0.0509 -0.8571  0.4931
    1SOL    MW4 8564   3.826   3.621   3.493  0.0010 -0.3650 -0.0818
    1SOL     OW 8565   3.818   3.884   3.399  0.1134  0.6721 -0.1123
    1SOL    HW2 8566   3.737   3.929   3.422 -0.8922 -0.8348 -0.5679
    1SOL    HW3 8567   3.800   3.792   3.420  1.7141  0.3324 -0.2146
    1SOL    MW4 8568   3.805   3.878   3.405  0.1919  0.4284 -0.1857
    1SOL     OW 8569   3.574   4.011   3.470 -0.5206  0.5543 -0.3418
    1SOL    HW2 8570   3.589   4.011   3.564  0.3342  0.0855 -0.4670
    1SOL    HW3 8571   3.596   4.100   3.442 -1.4899  0.9071  0.0027
    1SOL    MW4 8572   3.579   4.023   3.479 -0.5360  0.5393 -0.3128
    1SOL     OW 8573   3.633   4.288   3.418  0.0113 -0.2531 -0.4119
    1SOL    HW2 8574   3.556   4.324   3.460 -0.4756 -0.9496 -0.7022
    1SOL    HW3 8575   3.621   4.309   3.325 -0.1797 -0.9864 -0.5547
    1SOL    MW4 8576   3.622   4.296   3.411 -0.0780 -0.4416 -0.4687
    1SOL     OW 8577   3.857   4.379   3.537  0.2004 -0.4682 -0.0071
    1SOL    HW2 8578   3.781   4.333   3.502  0.6257 -1.1655 -0.0069
    1SOL    HW3 8579   3.849   4.468   3.501  0.6585 -1.1817 -1.9370
    1SOL    MW4 8580   3.846   4.385   3.527  0.3169 -0.6542 -0.2618
    1SOL     OW 8581   4.263   4.654   3.384 -0.3356 -0.2239 -0.3598
    1SOL    HW2 8582   4.268   4.572   3.434  0.6417 -0.8028 -1.3897
    1SOL    HW3 8583   4.348   4.696   3.399  0.1096 -0.5809 -1.8227
    1SOL    MW4 8584   4.275   4.649   3.393 -0.1478 -0.3471 -0.6888
    1SOL     OW 8585   4.044   0.114   3.520 -0.6865 -0.2761  0.1407
    1SOL    HW2 8586   4.110   0.068   3.468  0.0526  1.6767 -0.6705
    1SOL    HW3 8587   3.962   0.070   3.497 -0.0149 -1.1163 -0.7011
    1SOL    MW4 8588   4.042   0.102   3.510 -0.5007 -0.1293 -0.0772
    1SOL     OW 8589   4.081   0.363   3.407  0.0787 -0.3118  0.4165
    1SOL    HW2 8590   4.063   0.276   3.443  2.5102 -1.2771 -0.6005
    1SOL    HW3 8591   4.048   0.359   3.317  0.2480 -0.1932  0.3495
    1SOL    MW4 8592   4.074   0.351   3.400  0.4220 -0.4235  0.2735
    1SOL     OW 8593   4.258   0.530   3.518  0.0789  0.1580  0.4140
    1SOL    HW2 8594   4.247   0.617   3.480 -1.7040 -0.4494 -0.5113
    1SOL    HW3 8595   4.193   0.476   3.473  1.7193 -1.8429  0.3956
    1SOL    MW4 8596   4.248   0.535   3.507  0.0606 -0.1861  0.2894
    1SOL     OW 8597   4.234   0.764   3.379 -0.4058 -0.7512  0.5220
    1SOL    HW2 8598   4.309   0.811   3.415 -0.4575 -1.0168  0.9778
    1SOL    HW3 8599   4.244   0.770   3.284  0.5975 -1.4547  0.5836
    1SOL    MW4 8600   4.245   0.771   3.372 -0.2804 -0.8790  0.5903
    1SOL     OW 8601   4.015   0.871   3.497 -0.2174  0.4362  0.2428
    1SOL    HW2 8602   4.023   0.958   3.458 -1.0680  0.3584 -0.1127
    1SOL    HW3 8603   4.080   0.818   3.452 -0.2998  0.6723 -0.1530
    1SOL    MW4 8604   4.024   0.876   3.486 -0.3405  0.4571  0.1438
    1SOL     OW 8605   4.081   1.132   3.370  0.4547  0.2361 -0.5896
    1SOL    HW2 8606   4.151   1.169   3.423 -0.1314 -1.1438  1.2009
    1SOL    HW3 8607   4.004   1.185   3.392  0.1272 -0.5720  0.2574
    1SOL    MW4 8608   4.080   1.144   3.380  0.3338 -0.0526 -0.2415
    1SOL     OW 8609   4.279   1.307   3.492 -0.0400  0.3802 -0.3100
    1SOL    HW2 8610   4.283   1.401   3.473  0.3428  0.4815  0.2509
    1SOL    HW3 8611   4.353   1.270   3.445 -0.7078  0.2267 -1.2540
    1SOL    MW4 8612   4.289   1.314   3.483 -0.0777  0.3732 -0.3610
    1SOL     OW 8613   4.286   1.574   3.408  0.3459  0.1059 -0.7308
    1SOL    HW2 8614   4.218   1.623   3.453  0.7208  0.2870 -0.3568
    1SOL    HW3 8615   4.257   1.570   3.317  0.2773  0.9505 -0.7467
    1SOL    MW4 8616   4.273   1.580   3.402  0.3858  0.2413 -0.6835
    1SOL     OW 8617   4.091   1.696   3.569 -0.3161 -0.1615 -0.0083
    1SOL    HW2 8618   4.113   1.698   3.663  1.7011  1.8623 -0.4765
    1SOL    HW3 8619   4.069   1.787   3.548 -0.5567 -0.5603 -1.5408
    1SOL    MW4 8620   4.091   1.708   3.579 -0.0825  0.0529 -0.2725
    1SOL     OW 8621   4.025   1.990   3.410  0.1894  0.0921  0.2343
    1SOL    HW2 8622   4.112   2.025   3.430  0.4409 -0.0390 -0.5994
    1SOL    HW3 8623   4.029   1.967   3.317  0.2037 -2.6317  0.8594
    1SOL    MW4 8624   4.037   1.991   3.400  0.2241 -0.2846  0.2069
    1SOL     OW 8625   4.248   2.107   3.540 -0.5436  0.1750  0.1388
    1SOL    HW2 8626   4.269   2.192   3.501  0.2294 -0.1181 -0.0964
    1SOL    HW3 8627   4.309   2.046   3.499 -1.2198 -0.5305  0.1761
    1SOL    MW4 8628   4.259   2.110   3.530 -0.5307  0.0434  0.1125
    1SOL     OW 8629   4.303   2.353   3.405  0.3695 -0.1758 -0.0577
    1SOL    HW2 8630   4.215   2.385   3.424  0.2378 -1.1937  1.1593
    1SOL    HW3 8631   4.303   2.334   3.311 -0.3300  0.9546 -0.2877
    1SOL    MW4 8632   4.292   2.355   3.395  0.2594 -0.1612  0.0727
    1SOL     OW 8633   4.054   2.454   3.505 -0.1502  0.4851  0.1102
    1SOL    HW2 8634   4.041   2.471   3.598 -1.0153 -0.8441  0.2497
    1SOL    HW3 8635   4.068   2.541   3.467 -1.8662  1.2733  1.1672
    1SOL    MW4 8636   4.054   2.468   3.512 -0.4907  0.4137  0.2680
    1SOL     OW 8637   4.069   2.701   3.371 -0.4913 -0.2843  0.1049
    1SOL    HW2 8638   4.133   2.761   3.408 -0.8610  0.3993 -0.3591
    1SOL    HW3 8639   3.988   2.718   3.420 -0.4056 -0.9424  0.4915
    1SOL    MW4 8640   4.067   2.711   3.383 -0.5288 -0.2809  0.0947
    1SOL     OW 8641   4.275   2.838   3.473  0.0484 -0.6104  0.6930
    1SOL    HW2 8642   4.274   2.831   3.569  1.0543  1.3516  0.8927
    1SOL    HW3 8643   4.364   2.812   3.448 -0.2121 -1.1178  0.2984
    1SOL    MW4 8644   4.287   2.834   3.482  0.1469 -0.4184  0.6671
    1SOL     OW 8645   4.259   3.105   3.373 -0.0215 -0.4062 -0.1484
    1SOL    HW2 8646   4.264   3.013   3.400  0.2388 -0.2560  0.3121
    1SOL    HW3 8647   4.271   3.102   3.278  2.0182 -0.6800  0.0839
    1SOL    MW4 8648   4.261   3.092   3.364  0.2818 -0.4225 -0.0572
    1SOL     OW 8649   4.040   3.201   3.505 -0.3062 -0.2937  0.2581
    1SOL    HW2 8650   4.027   3.289   3.469 -0.2214 -0.6872 -0.7652
    1SOL    HW3 8651   4.127   3.176   3.475 -0.0636 -0.4703  1.1041
    1SOL    MW4 8652   4.049   3.210   3.496 -0.2637 -0.3686  0.2344
    1SOL     OW 8653   4.043   3.474   3.380  0.0858 -0.3294  0.0213
    1SOL    HW2 8654   4.114   3.529   3.412 -0.4291  0.4842 -0.2207
    1SOL    HW3 8655   3.963   3.521   3.403 -0.3835 -1.2601  0.3339
    1SOL    MW4 8656   4.042   3.487   3.387 -0.0443 -0.3448  0.0308
    1SOL     OW 8657   4.261   3.638   3.472 -0.2010  0.0386 -0.0625
    1SOL    HW2 8658   4.244   3.646   3.566 -3.1769  0.1643 -0.5725
    1SOL    HW3 8659   4.275   3.729   3.443  1.0734 -0.0307  0.2880
    1SOL    MW4 8660   4.261   3.651   3.481 -0.4258  0.0460 -0.0837
    1SOL     OW 8661   4.273   3.903   3.375  0.1338 -0.2556  0.1017
    1SOL    HW2 8662   4.351   3.953   3.399  0.0571  0.0521 -0.2829
    1SOL    HW3 8663   4.263   3.919   3.281 -1.8556  1.7588  0.6121
    1SOL    MW4 8664   4.282   3.912   3.366 -0.1388  0.0510  0.1183
    1SOL     OW 8665   4.054   3.961   3.532  0.5558  0.3507  0.0029
    1SOL    HW2 8666   4.126   3.948   3.471 -1.0169 -0.3701 -1.7644
    1SOL    HW3 8667   3.976   3.936   3.482 -0.8834  0.8306  1.9558
    1SOL    MW4 8668   4.053   3.956   3.517  0.1588  0.3190  0.0274
    1SOL     OW 8669   4.044   4.217   3.404  0.2640  0.2427 -0.0398
    1SOL    HW2 8670   4.046   4.136   3.454 -2.3323 -0.5404 -1.1052
    1SOL    HW3 8671   3.976   4.269   3.447  0.4509  1.0002 -0.6509
    1SOL    MW4 8672   4.035   4.214   3.417 -0.0539  0.2394 -0.2611
    1SOL     OW 8673   4.264   4.379   3.489  0.2196  0.1644 -0.6401
    1SOL    HW2 8674   4.261   4.403   3.582 -0.5006  2.1269 -1.1312
    1SOL    HW3 8675   4.181   4.336   3.473  0.7147 -0.9762 -0.1814
    1SOL    MW4 8676   4.253   4.377   3.500  0.1898  0.2728 -0.6444
    1SOL     OW 8677   0.260   4.664   3.851 -0.6701 -0.1437 -0.1215
    1SOL    HW2 8678   0.257   4.680   3.946 -1.0907 -0.2101 -0.1226
    1SOL    HW3 8679   0.179   4.703   3.818 -0.4769 -0.0364 -0.4681
    1SOL    MW4 8680   0.249   4.671   3.859 -0.7001 -0.1383 -0.1671
    1SOL     OW 8681   0.014   0.112   3.742  0.0159 -0.6041  0.0288
    1SOL    HW2 8682   0.001   0.203   3.771 -2.0931 -0.9743  0.3441
    1SOL    HW3 8683   0.008   0.116   3.647 -1.6023 -0.6028  0.1119
    1SOL    MW4 8684   0.011   0.125   3.734 -0.4758 -0.6528  0.0813
    1SOL     OW 8685   0.020   0.359   3.868  0.1695  0.4167  0.2477
    1SOL    HW2 8686  -0.054   0.417   3.851 -0.1819  0.5960  2.1864
    1SOL    HW3 8687   0.097   0.406   3.835 -0.2097  1.6444  1.1015
    1SOL    MW4 8688   0.021   0.373   3.862  0.0731  0.6023  0.6158
    1SOL     OW 8689   0.225   0.513   3.772 -0.1465  0.4715 -0.3428
    1SOL    HW2 8690   0.229   0.602   3.805 -0.9423  0.0824  0.8215
    1SOL    HW3 8691   0.229   0.523   3.677  0.2191  1.7133 -0.2055
    1SOL    MW4 8692   0.226   0.526   3.764 -0.2032  0.5840 -0.1709
    1SOL     OW 8693   0.246   0.795   3.856  0.4614  0.5926 -0.0628
    1SOL    HW2 8694   0.228   0.787   3.950  1.6309 -0.6718  0.0795
    1SOL    HW3 8695   0.163   0.822   3.818  0.0425  1.4080  1.3701
    1SOL    MW4 8696   0.233   0.797   3.864  0.5604  0.5334  0.1450
    1SOL     OW 8697   0.020   0.882   3.718 -0.2979 -0.3129  0.0868
    1SOL    HW2 8698  -0.038   0.836   3.778 -0.8142 -0.3299 -0.4201
    1SOL    HW3 8699   0.025   0.971   3.752 -1.0845 -0.1587 -0.1943
    1SOL    MW4 8700   0.013   0.888   3.730 -0.4699 -0.2948 -0.0172
    1SOL     OW 8701   0.066   1.149   3.839  0.2113  0.2168 -0.4608
    1SOL    HW2 8702  -0.017   1.186   3.811 -1.1295 -1.4087  1.2591
    1SOL    HW3 8703   0.066   1.158   3.934  0.8154 -2.1327 -0.1972
    1SOL    MW4 8704   0.055   1.155   3.848  0.1142 -0.3077 -0.1991
    1SOL     OW 8705   0.260   1.306   3.746 -0.1323 -0.0897  0.2449
    1SOL    HW2 8706   0.248   1.387   3.796 -2.0850  0.3455 -0.9032
    1SOL    HW3 8707   0.188   1.250   3.773  0.7024 -1.1303  0.3631
    1SOL    MW4 8708   0.249   1.309   3.756 -0.2798 -0.1695  0.1087
    1SOL     OW 8709   0.255   1.548   3.870  0.2687  0.0778  0.1976
    1SOL    HW2 8710   0.247   1.558   3.965 -0.1775 -0.8844  0.2729
    1SOL    HW3 8711   0.186   1.604   3.835  0.0386 -0.0323  0.4675
    1SOL    MW4 8712   0.245   1.557   3.878  0.1795 -0.0637  0.2432
    1SOL     OW 8713   0.018   1.694   3.793 -0.5384 -0.2540 -0.1696
    1SOL    HW2 8714   0.011   1.779   3.835  0.8501 -0.5096  0.6257
    1SOL    HW3 8715   0.016   1.713   3.699 -0.8310  0.5896  0.0042
    1SOL    MW4 8716   0.017   1.707   3.786 -0.3938 -0.1763 -0.0417
    1SOL     OW 8717   0.006   1.944   3.894  0.0774  0.1409 -0.2872
    1SOL    HW2 8718   0.027   1.939   3.987 -1.1000  1.3743  0.0482
    1SOL    HW3 8719  -0.045   2.024   3.884 -0.6881 -0.5021 -1.8253
    1SOL    MW4 8720   0.002   1.954   3.905 -0.1790  0.2189 -0.4458
    1SOL     OW 8721   0.255   2.024   3.779  0.0801 -0.1973  0.2026
    1SOL    HW2 8722   0.259   2.112   3.817  0.1043 -0.2183  0.2486
    1SOL    HW3 8723   0.176   1.985   3.817 -0.4482  0.1421 -0.5408
    1SOL    MW4 8724   0.245   2.031   3.789  0.0136 -0.1554  0.1106
    1SOL     OW 8725   0.224   2.276   3.875  0.2371  0.2162  0.2419
    1SOL    HW2 8726   0.233   2.282   3.970 -0.2623  1.0395  0.2422
    1SOL    HW3 8727   0.154   2.338   3.854 -0.5465 -0.9100 -0.5163
    1SOL    MW4 8728   0.216   2.285   3.885  0.0678  0.1762  0.1421
    1SOL     OW 8729   0.029   2.481   3.818 -0.0245 -0.3012  0.2796
    1SOL    HW2 8730  -0.056   2.453   3.853 -0.1909  1.4288  1.3256
    1SOL    HW3 8731   0.037   2.572   3.845  1.7425 -0.1572 -0.6548
    1SOL    MW4 8732   0.019   2.489   3.826  0.1869 -0.0539  0.2944
    1SOL     OW 8733   4.479   2.762   3.876 -0.1217  0.1483 -0.8132
    1SOL    HW2 8734   4.494   2.745   3.969 -0.1788  0.7998 -0.6835
    1SOL    HW3 8735   4.556   2.811   3.847 -0.1113 -0.0386 -1.1083
    1SOL    MW4 8736   4.491   2.766   3.884 -0.1283  0.2096 -0.8347
    1SOL     OW 8737   0.208   2.872   3.769  0.1898  0.0644 -0.1503
    1SOL    HW2 8738   0.284   2.816   3.784  0.8409  0.6477 -1.1683
    1SOL    HW3 8739   0.204   2.882   3.673  0.8962  2.8278  0.0751
    1SOL    MW4 8740   0.217   2.866   3.758  0.3688  0.5059 -0.2549
    1SOL     OW 8741   0.238   3.140   3.837 -0.4804 -0.0385 -0.1876
    1SOL    HW2 8742   0.237   3.136   3.932 -2.1711 -0.3128 -0.1993
    1SOL    HW3 8743   0.239   3.049   3.808 -0.5247  0.0362 -0.4297
    1SOL    MW4 8744   0.238   3.128   3.846 -0.7093 -0.0648 -0.2210
    1SOL     OW 8745   4.465   3.234   3.764 -0.0732 -0.4517 -0.0665
    1SOL    HW2 8746   4.552   3.207   3.794  0.1975  0.9931  0.5257
    1SOL    HW3 8747   4.471   3.232   3.668  1.0364  0.8457 -0.0535
    1SOL    MW4 8748   4.477   3.230   3.755  0.1089 -0.0899  0.0131
    1SOL     OW 8749   4.480   3.499   3.860 -0.1817 -0.1079  0.2494
    1SOL    HW2 8750   4.556   3.543   3.822  0.2781 -0.3736  0.8607
    1SOL    HW3 8751   4.483   3.411   3.823 -0.5305  0.0560 -0.1819
    1SOL    MW4 8752   4.490   3.494   3.850 -0.1671 -0.1214  0.2732
    1SOL     OW 8753   0.228   3.663   3.788  0.2014  0.3237  0.1315
    1SOL    HW2 8754   0.313   3.627   3.814  0.2720  0.4329  0.0512
    1SOL    HW3 8755   0.238   3.758   3.799 -0.1852  0.2709  0.9397
    1SOL    MW4 8756   0.241   3.671   3.793  0.1597  0.3314  0.2275
    1SOL     OW 8757   0.246   3.941   3.850  0.0245  0.3613  0.5298
    1SOL    HW2 8758   0.330   3.976   3.820  0.6779 -0.6896  1.0907
    1SOL    HW3 8759   0.249   3.948   3.945 -0.1930 -0.3906  0.5977
    1SOL    MW4 8760   0.258   3.946   3.858  0.0820  0.1235  0.6127
    1SOL     OW 8761   0.003   4.059   3.785  0.2044 -0.3287 -0.1152
    1SOL    HW2 8762  -0.064   3.996   3.812  0.6172 -0.0828  1.5511
    1SOL    HW3 8763   0.084   4.027   3.825  0.8530  0.0310 -1.1292
    1SOL    MW4 8764   0.005   4.047   3.794  0.3444 -0.2484 -0.0291
    1SOL     OW 8765   0.013   4.315   3.883  0.4711 -0.0363 -0.3500
    1SOL    HW2 8766   0.087   4.361   3.844  0.8611  0.1388  0.5819
    1SOL    HW3 8767   0.015   4.228   3.843  0.9532  0.0914 -0.6106
    1SOL    MW4 8768   0.023   4.310   3.873  0.5862  0.0043 -0.2618
    1SOL     OW 8769   0.247   4.398   3.763 -0.0440 -0.1226  0.1404
    1SOL    HW2 8770   0.326   4.354   3.795  1.0546  1.3381 -0.5110
    1SOL    HW3 8771   0.256   4.489   3.792 -1.4903  0.0592  0.0573
    1SOL    MW4 8772   0.259   4.404   3.771 -0.0899  0.0939  0.0436
    1SOL     OW 8773   0.690   4.664   3.908 -0.1822  0.0998  0.0447
    1SOL    HW2 8774   0.685   4.572   3.883 -1.3438  0.0633  0.4036
    1SOL    HW3 8775   0.618   4.706   3.861  0.3727  0.8363 -0.1581
    1SOL    MW4 8776   0.680   4.657   3.898 -0.2623  0.1922  0.0653
    1SOL     OW 8777   0.489   0.125   3.783  0.2184 -0.5655 -0.3266
    1SOL    HW2 8778   0.476   0.212   3.822  0.8329 -0.4259 -0.4263
    1SOL    HW3 8779   0.408   0.078   3.801  0.1484 -0.1980  0.3387
    1SOL    MW4 8780   0.477   0.130   3.791  0.2902 -0.4986 -0.2520
    1SOL     OW 8781   0.449   0.389   3.897 -0.2237 -0.6071 -0.3082
    1SOL    HW2 8782   0.527   0.424   3.854  0.2181 -0.6338  0.4526
    1SOL    HW3 8783   0.375   0.421   3.844  0.2385  0.4731 -0.3162
    1SOL    MW4 8784   0.449   0.398   3.884 -0.1044 -0.4681 -0.2091
    1SOL     OW 8785   0.690   0.475   3.776 -0.0253 -0.3938  0.0587
    1SOL    HW2 8786   0.769   0.434   3.812 -0.0044 -0.2384  0.1876
    1SOL    HW3 8787   0.689   0.563   3.813 -0.2344 -0.3798  0.0190
    1SOL    MW4 8788   0.700   0.481   3.785 -0.0501 -0.3715  0.0703
    1SOL     OW 8789   0.696   0.743   3.904  0.1282 -0.0279  0.2822
    1SOL    HW2 8790   0.773   0.795   3.884 -0.0940 -0.0512 -0.6592
    1SOL    HW3 8791   0.628   0.776   3.846 -0.8088  0.5353  1.6695
    1SOL    MW4 8792   0.697   0.754   3.894 -0.0247  0.0434  0.3407
    1SOL     OW 8793   0.488   0.882   3.753  0.2545 -0.0244  0.3427
    1SOL    HW2 8794   0.503   0.973   3.781 -1.4825 -0.3290  2.4459
    1SOL    HW3 8795   0.401   0.861   3.787 -0.0247 -1.9820 -1.5010
    1SOL    MW4 8796   0.479   0.891   3.761 -0.0115 -0.3229  0.3767
    1SOL     OW 8797   0.488   1.159   3.860 -0.0007  0.0989  0.3497
    1SOL    HW2 8798   0.564   1.198   3.816 -0.2396  0.5185  0.3117
    1SOL    HW3 8799   0.413   1.202   3.820 -0.2262  0.3570  1.0541
    1SOL    MW4 8800   0.488   1.169   3.849 -0.0619  0.1882  0.4375
    1SOL     OW 8801   0.699   1.285   3.750 -0.1280 -0.1548  0.1151
    1SOL    HW2 8802   0.776   1.233   3.771 -0.1615 -0.3727 -0.2915
    1SOL    HW3 8803   0.703   1.296   3.655  0.5594  1.6742  0.3492
    1SOL    MW4 8804   0.709   1.279   3.740 -0.0418  0.0577  0.0925
    1SOL     OW 8805   0.681   1.526   3.884 -0.6122  0.0058 -0.3269
    1SOL    HW2 8806   0.770   1.549   3.858 -0.0075 -0.2030  1.4912
    1SOL    HW3 8807   0.667   1.438   3.849  0.8176 -0.9724  1.4569
    1SOL    MW4 8808   0.691   1.517   3.876 -0.3439 -0.1508  0.1485
    1SOL     OW 8809   0.477   1.643   3.746 -0.2784  0.0804  0.1953
    1SOL    HW2 8810   0.557   1.609   3.786  0.0752  0.3896 -0.2371
    1SOL    HW3 8811   0.406   1.608   3.800  0.1047 -0.8685  0.0907
    1SOL    MW4 8812   0.478   1.634   3.758 -0.1812 -0.0041  0.1245
    1SOL     OW 8813   0.503   1.909   3.872  0.5847 -0.2539  0.2664
    1SOL    HW2 8814   0.493   1.818   3.844 -1.2652 -0.2232  0.7679
    1SOL    HW3 8815   0.419   1.950   3.851  2.1202  1.9121 -1.9679
    1SOL    MW4 8816   0.491   1.903   3.865  0.5432  0.0360  0.0379
    1SOL     OW 8817   0.710   2.030   3.735 -0.3402 -0.2714  0.0000
    1SOL    HW2 8818   0.716   2.118   3.772  1.8012 -0.7087  0.7781
    1SOL    HW3 8819   0.643   1.986   3.787 -0.2546  0.3924  0.6814
    1SOL    MW4 8820   0.702   2.035   3.747 -0.0464 -0.2418  0.1926
    1SOL     OW 8821   0.708   2.300   3.829 -0.2533 -0.2132 -0.3364
    1SOL    HW2 8822   0.782   2.351   3.797 -0.9249  0.9183 -0.0840
    1SOL    HW3 8823   0.632   2.356   3.815 -0.7712 -0.3671  1.6869
    1SOL    MW4 8824   0.708   2.314   3.823 -0.4101 -0.0842 -0.0365
    1SOL     OW 8825   0.452   2.432   3.806  0.2635  0.1841  0.1422
    1SOL    HW2 8826   0.375   2.380   3.826  0.3910  0.5918  1.7106
    1SOL    HW3 8827   0.448   2.445   3.711 -0.9521 -0.7980  0.0524
    1SOL    MW4 8828   0.442   2.427   3.796  0.1200  0.1082  0.3374
    1SOL     OW 8829   0.422   2.702   3.845 -0.4887 -0.2520 -0.0878
    1SOL    HW2 8830   0.508   2.731   3.815 -0.9896  0.7647 -0.5334
    1SOL    HW3 8831   0.431   2.607   3.853  0.3208 -0.2888 -1.2856
    1SOL    MW4 8832   0.435   2.693   3.842 -0.4480 -0.1228 -0.3042
    1SOL     OW 8833   0.676   2.813   3.800 -0.1370 -0.4417  0.1905
    1SOL    HW2 8834   0.731   2.753   3.851  0.3133  0.3308  0.6294
    1SOL    HW3 8835   0.690   2.788   3.709  2.0218  0.6470  0.2109
    1SOL    MW4 8836   0.685   2.802   3.795  0.2072 -0.1960  0.2511
    1SOL     OW 8837   0.696   3.088   3.816  0.4256 -0.4571 -0.0160
    1SOL    HW2 8838   0.693   3.095   3.911  0.4533  0.5520 -0.0833
    1SOL    HW3 8839   0.691   2.994   3.799 -0.7408 -0.5761  0.9305
    1SOL    MW4 8840   0.695   3.076   3.826  0.2753 -0.3395  0.0999
    1SOL     OW 8841   0.467   3.262   3.764 -0.3823 -0.3067 -0.0279
    1SOL    HW2 8842   0.535   3.215   3.810  0.3979 -0.1851 -1.0248
    1SOL    HW3 8843   0.385   3.220   3.791  0.3314 -2.6369 -1.3649
    1SOL    MW4 8844   0.465   3.250   3.773 -0.1852 -0.5980 -0.3357
    1SOL     OW 8845   0.478   3.532   3.872 -0.2109  0.3816 -0.0018
    1SOL    HW2 8846   0.562   3.560   3.835  0.0684  0.3803  0.6198
    1SOL    HW3 8847   0.470   3.440   3.846  0.3196  0.1800  0.5345
    1SOL    MW4 8848   0.488   3.524   3.864 -0.1041  0.3548  0.1512
    1SOL     OW 8849   0.730   3.601   3.746  0.3512 -0.1268 -0.3705
    1SOL    HW2 8850   0.729   3.688   3.787  0.0918 -0.2966 -0.0084
    1SOL    HW3 8851   0.704   3.616   3.656  2.2456  0.4392 -0.8502
    1SOL    MW4 8852   0.726   3.614   3.740  0.5668 -0.0744 -0.3860
    1SOL     OW 8853   0.691   3.852   3.867  0.1420 -0.7180 -0.5157
    1SOL    HW2 8854   0.695   3.831   3.960 -0.9119 -0.1285 -0.3218
    1SOL    HW3 8855   0.764   3.913   3.854 -0.3501  0.0399  0.1658
    1SOL    MW4 8856   0.701   3.857   3.878 -0.0620 -0.5400 -0.4001
    1SOL     OW 8857   0.486   4.033   3.762  0.3052  0.0951  0.6733
    1SOL    HW2 8858   0.557   3.974   3.788 -0.0923 -0.2597  0.9564
    1SOL    HW3 8859   0.470   4.013   3.670  0.2088 -0.1967  0.7552
    1SOL    MW4 8860   0.494   4.023   3.753  0.2400  0.0105  0.7215
    1SOL     OW 8861   0.458   4.279   3.883 -0.3478  0.3571 -0.0662
    1SOL    HW2 8862   0.537   4.326   3.857  0.1687 -0.2185  0.4469
    1SOL    HW3 8863   0.459   4.198   3.831 -0.1944 -0.0047  0.4919
    1SOL    MW4 8864   0.469   4.274   3.873 -0.2594  0.2332  0.0753
    1SOL     OW 8865   0.682   4.415   3.791 -0.7084 -0.4832  0.2991
    1SOL    HW2 8866   0.752   4.370   3.838 -0.4652  0.0609  0.4645
    1SOL    HW3 8867   0.685   4.378   3.703 -0.9057 -1.2219  0.6042
    1SOL    MW4 8868   0.692   4.404   3.785 -0.7023 -0.5088  0.3612
    1SOL     OW 8869   1.123   0.039   3.921  0.2396  0.2133  0.2476
    1SOL    HW2 8870   1.189   0.071   3.859 -0.3006  0.8906  0.0109
    1SOL    HW3 8871   1.127  -0.056   3.913  0.6307  0.2736 -0.3491
    1SOL    MW4 8872   1.132   0.031   3.912  0.2201  0.3109  0.1378
    1SOL     OW 8873   0.894   0.125   3.755 -0.4158 -0.2406  0.3684
    1SOL    HW2 8874   0.967   0.096   3.810 -0.2864  1.0867  0.9144
    1SOL    HW3 8875   0.817   0.085   3.794 -0.0064 -1.5399 -0.1298
    1SOL    MW4 8876   0.894   0.116   3.767 -0.3447 -0.2369  0.3746
    1SOL     OW 8877   0.926   0.376   3.880  0.0909  0.4409 -0.3221
    1SOL    HW2 8878   0.900   0.363   3.971 -0.5109  1.5778 -0.3146
    1SOL    HW3 8879   0.924   0.289   3.841  0.5933 -0.0837  0.8128
    1SOL    MW4 8880   0.922   0.363   3.886  0.0778  0.5217 -0.1714
    1SOL     OW 8881   1.136   0.546   3.727 -0.2295 -0.5682 -0.3064
    1SOL    HW2 8882   1.214   0.498   3.755 -0.4500 -0.4835  0.4638
    1SOL    HW3 8883   1.062   0.494   3.758 -0.4844 -0.4300 -0.6608
    1SOL    MW4 8884   1.136   0.533   3.734 -0.2922 -0.5388 -0.2513
    1SOL     OW 8885   1.141   0.785   3.863  0.6004  0.0846 -0.0500
    1SOL    HW2 8886   1.137   0.785   3.959  1.2584  0.6252 -0.0167
    1SOL    HW3 8887   1.148   0.693   3.839 -0.4560 -0.1120  0.3797
    1SOL    MW4 8888   1.141   0.773   3.873  0.5479  0.1301  0.0110
    1SOL     OW 8889   0.904   0.894   3.790 -0.3982  0.0072 -0.1103
    1SOL    HW2 8890   0.983   0.849   3.821 -1.0348 -0.2497  1.1753
    1SOL    HW3 8891   0.897   0.870   3.698 -0.0054 -1.4574  0.2374
    1SOL    MW4 8892   0.914   0.885   3.782 -0.4303 -0.2199  0.1051
    1SOL     OW 8893   0.921   1.175   3.838 -0.6588  0.3454  0.0411
    1SOL    HW2 8894   0.925   1.183   3.933 -0.9769 -0.1389  0.0983
    1SOL    HW3 8895   0.908   1.081   3.822 -1.6143  0.5477 -0.4376
    1SOL    MW4 8896   0.920   1.163   3.848 -0.8269  0.3083 -0.0145
    1SOL     OW 8897   1.158   1.267   3.741  0.8601  0.0556  0.0740
    1SOL    HW2 8898   1.180   1.353   3.776 -1.3354  0.7466 -0.1803
    1SOL    HW3 8899   1.076   1.243   3.785  0.7954 -1.3541 -0.7727
    1SOL    MW4 8900   1.150   1.275   3.752  0.5618 -0.0392 -0.0713
    1SOL     OW 8901   1.183   1.510   3.861 -0.1083  0.4836 -0.2567
    1SOL    HW2 8902   1.189   1.503   3.957  0.1932 -1.1538 -0.3693
    1SOL    HW3 8903   1.238   1.584   3.838  0.6554  0.2357  0.7575
    1SOL    MW4 8904   1.191   1.519   3.871  0.0322  0.2347 -0.1376
    1SOL     OW 8905   0.915   1.614   3.782  0.3193 -0.4838 -0.0501
    1SOL    HW2 8906   1.001   1.576   3.800  1.7094  1.4693 -2.2179
    1SOL    HW3 8907   0.910   1.617   3.687 -1.9718 -0.1066  0.0517
    1SOL    MW4 8908   0.926   1.609   3.772  0.2005 -0.1764 -0.3228
    1SOL     OW 8909   0.933   1.884   3.846 -0.4577  0.0979 -0.3154
    1SOL    HW2 8910   0.921   1.796   3.812  2.4941  0.1434 -1.6612
    1SOL    HW3 8911   0.857   1.933   3.816 -1.0069 -1.4337 -1.4599
    1SOL    MW4 8912   0.922   1.879   3.838 -0.1407 -0.0982 -0.6440
    1SOL     OW 8913   1.152   2.051   3.792  0.0081  0.2775 -0.2279
    1SOL    HW2 8914   1.077   1.999   3.821 -0.3720  0.9863  0.0451
    1SOL    HW3 8915   1.159   2.031   3.698 -1.5617  1.5189 -0.6150
    1SOL    MW4 8916   1.143   2.041   3.783 -0.2491  0.5348 -0.2429
    1SOL     OW 8917   1.143   2.317   3.829  0.2933  0.2974 -0.3372
    1SOL    HW2 8918   1.136   2.325   3.925 -0.8709  0.0577 -0.3939
    1SOL    HW3 8919   1.155   2.223   3.814  0.2185  0.3037 -0.4363
    1SOL    MW4 8920   1.144   2.306   3.840  0.1298  0.2666 -0.3579
    1SOL     OW 8921   0.916   2.443   3.733  0.1011  0.2813 -0.0033
    1SOL    HW2 8922   0.899   2.516   3.793  0.2272 -0.3874  0.8520
    1SOL    HW3 8923   1.002   2.410   3.759  0.1798  0.0150 -0.5865
    1SOL    MW4 8924   0.925   2.448   3.744  0.1281  0.1581  0.0324
    1SOL     OW 8925   0.900   2.678   3.882 -0.1804  0.2110 -0.1380
    1SOL    HW2 8926   0.920   2.690   3.975 -1.7298  1.0556  0.1230
    1SOL    HW3 8927   0.966   2.730   3.836  1.5086 -1.4203  0.4071
    1SOL    MW4 8928   0.911   2.687   3.888 -0.1621  0.1070 -0.0315
    1SOL     OW 8929   1.122   2.800   3.753 -0.0897  0.3068 -0.0348
    1SOL    HW2 8930   1.206   2.761   3.775 -0.2312  1.1835  2.2006
    1SOL    HW3 8931   1.134   2.894   3.766 -0.9011  0.6412 -1.4869
    1SOL    MW4 8932   1.135   2.807   3.758 -0.2154  0.4666  0.0687
    1SOL     OW 8933   1.168   3.072   3.799  0.0489  0.4172 -0.1370
    1SOL    HW2 8934   1.238   3.133   3.776  0.0473  0.5671  0.2643
    1SOL    HW3 8935   1.089   3.111   3.760 -0.0760  1.0452  0.7441
    1SOL    MW4 8936   1.167   3.085   3.791  0.0322  0.5198  0.0324
    1SOL     OW 8937   0.937   3.197   3.704  0.1077 -0.1343 -0.4560
    1SOL    HW2 8938   0.856   3.148   3.723 -0.1764  0.0423 -1.2029
    1SOL    HW3 8939   0.938   3.205   3.609  0.3340  1.0193 -0.3637
    1SOL    MW4 8940   0.926   3.191   3.694  0.1001  0.0412 -0.5424
    1SOL     OW 8941   0.953   3.440   3.843 -0.1053  0.3175  0.1526
    1SOL    HW2 8942   0.943   3.350   3.813  1.0704  0.6507 -1.3035
    1SOL    HW3 8943   0.874   3.485   3.812 -0.3344 -0.0403  0.2187
    1SOL    MW4 8944   0.941   3.434   3.835  0.0196  0.3145 -0.0310
    1SOL     OW 8945   1.152   3.584   3.729  0.2448  0.2046  0.0648
    1SOL    HW2 8946   1.131   3.666   3.774 -1.8163 -0.0400 -0.3974
    1SOL    HW3 8947   1.078   3.526   3.748  1.4849 -1.4120  0.0473
    1SOL    MW4 8948   1.139   3.587   3.737  0.1365 -0.0408  0.0012
    1SOL     OW 8949   1.096   3.837   3.884 -0.3493 -0.0286  0.5263
    1SOL    HW2 8950   1.115   3.836   3.978  1.2189 -0.9628  0.2173
    1SOL    HW3 8951   1.172   3.878   3.845 -0.0359 -1.5755 -0.5255
    1SOL    MW4 8952   1.109   3.842   3.892 -0.1010 -0.3557  0.3469
    1SOL     OW 8953   0.885   4.014   3.784 -0.1129 -0.1996 -0.5568
    1SOL    HW2 8954   0.959   3.961   3.815 -0.7380 -0.4864  0.4927
    1SOL    HW3 8955   0.887   4.005   3.689  1.3503  0.0002 -0.5610
    1SOL    MW4 8956   0.895   4.006   3.776 -0.0024 -0.2108 -0.4189
    1SOL     OW 8957   0.934   4.298   3.867  0.4568  0.2483  0.0398
    1SOL    HW2 8958   0.943   4.286   3.961  2.0846 -0.6719 -0.2155
    1SOL    HW3 8959   0.920   4.210   3.832 -1.0842  0.6780 -0.5090
    1SOL    MW4 8960   0.933   4.285   3.875  0.4683  0.1841 -0.0660
    1SOL     OW 8961   1.158   4.442   3.827 -0.2467  0.6034 -0.5763
    1SOL    HW2 8962   1.082   4.388   3.850  0.3519 -0.3596 -0.8089
    1SOL    HW3 8963   1.157   4.444   3.731  0.1839  0.3458 -0.5876
    1SOL    MW4 8964   1.148   4.435   3.817 -0.1110  0.4420 -0.6087
    1SOL     OW 8965   1.576   0.003   3.848 -0.1517  0.0921  0.3398
    1SOL    HW2 8966   1.565   0.015   3.943  1.7566 -0.9675  0.7327
    1SOL    HW3 8967   1.573  -0.092   3.836  1.3445  0.1263 -0.4029
    1SOL    MW4 8968   1.574  -0.008   3.859  0.2974 -0.0432  0.2935
    1SOL     OW 8969   1.335   0.114   3.738  0.2365  0.1945 -0.0044
    1SOL    HW2 8970   1.351   0.203   3.768  0.8751 -0.1925  0.8240
    1SOL    HW3 8971   1.404   0.062   3.779 -0.3489 -0.7447 -0.1952
    1SOL    MW4 8972   1.346   0.119   3.747  0.2435  0.0195  0.0799
    1SOL     OW 8973   1.337   0.376   3.803  0.2029 -0.2300  0.2297
    1SOL    HW2 8974   1.323   0.393   3.896  1.8526  0.1569  0.4262
    1SOL    HW3 8975   1.423   0.416   3.784 -0.2164 -0.1035 -1.4976
    1SOL    MW4 8976   1.347   0.384   3.813  0.3653 -0.1623  0.0277
    1SOL     OW 8977   1.588   0.512   3.752 -0.2486 -0.0304 -0.2408
    1SOL    HW2 8978   1.673   0.482   3.786  1.5237  2.0623 -2.6614
    1SOL    HW3 8979   1.576   0.599   3.792  0.1628  0.9222 -2.1497
    1SOL    MW4 8980   1.598   0.520   3.762  0.0396  0.3714 -0.8118
    1SOL     OW 8981   1.546   0.749   3.880 -0.3670  0.0014  0.0155
    1SOL    HW2 8982   1.623   0.805   3.870 -0.9226  0.4068 -2.0933
    1SOL    HW3 8983   1.474   0.802   3.848 -1.1577 -1.3329 -0.4338
    1SOL    MW4 8984   1.547   0.764   3.875 -0.5445 -0.1212 -0.3221
    1SOL     OW 8985   1.359   0.925   3.756  0.0615  0.0272 -0.2571
    1SOL    HW2 8986   1.368   1.002   3.812  0.8488 -0.9080  0.9269
    1SOL    HW3 8987   1.274   0.888   3.779 -0.3496  0.5680 -0.8781
    1SOL    MW4 8988   1.349   0.930   3.766  0.1112 -0.0249 -0.1829
    1SOL     OW 8989   1.352   1.151   3.905  0.3918 -0.2953  0.0358
    1SOL    HW2 8990   1.427   1.204   3.876  0.5040 -0.4074  0.1212
    1SOL    HW3 8991   1.277   1.189   3.859  0.2803  0.7289  1.0507
    1SOL    MW4 8992   1.352   1.163   3.895  0.3921 -0.1749  0.1810
    1SOL     OW 8993   1.558   1.290   3.738  0.2443  0.1347 -0.4738
    1SOL    HW2 8994   1.648   1.265   3.761 -0.0073 -0.4714 -0.1308
    1SOL    HW3 8995   1.550   1.380   3.769  0.6582  0.1062 -0.2782
    1SOL    MW4 8996   1.569   1.299   3.745  0.2657  0.0509 -0.4027
    1SOL     OW 8997   1.568   1.535   3.858  0.0508  0.5978 -0.2215
    1SOL    HW2 8998   1.538   1.537   3.948 -1.2845  0.2730 -0.6585
    1SOL    HW3 8999   1.655   1.577   3.861 -0.7697  2.2660  0.9040
    1SOL    MW4 9000   1.576   1.541   3.870 -0.2337  0.7750 -0.1304
    1SOL     OW 9001   1.351   1.698   3.768 -0.5267  0.5439  0.3489
    1SOL    HW2 9002   1.361   1.783   3.811 -0.7881  1.4555 -1.3578
    1SOL    HW3 9003   1.433   1.653   3.784 -0.4298  1.0756  1.3607
    1SOL    MW4 9004   1.363   1.703   3.776 -0.5484  0.7344  0.2573
    1SOL     OW 9005   1.381   1.937   3.903  0.5907  0.4234  0.2456
    1SOL    HW2 9006   1.360   1.923   3.995  0.9577  2.1850  0.6076
    1SOL    HW3 9007   1.299   1.968   3.864  0.5752  0.1899  0.0910
    1SOL    MW4 9008   1.367   1.939   3.910  0.6371  0.6248  0.2730
    1SOL     OW 9009   1.614   2.079   3.830 -0.0819 -0.4660 -0.0181
    1SOL    HW2 9010   1.534   2.032   3.852 -0.4874 -0.1917 -0.8709
    1SOL    HW3 9011   1.609   2.092   3.735  0.7693 -0.0751 -0.0180
    1SOL    MW4 9012   1.603   2.074   3.820 -0.0231 -0.3784 -0.1307
    1SOL     OW 9013   1.609   2.336   3.941  0.3127 -0.0410 -0.1513
    1SOL    HW2 9014   1.606   2.325   4.036 -1.6308  0.9207 -0.0626
    1SOL    HW3 9015   1.590   2.249   3.907 -0.1082 -0.1579  0.3613
    1SOL    MW4 9016   1.606   2.323   3.949  0.0007  0.0706 -0.0720
    1SOL     OW 9017   1.403   2.412   3.757  0.1248  0.5153 -0.2217
    1SOL    HW2 9018   1.475   2.396   3.817 -0.3100  2.5885  0.9072
    1SOL    HW3 9019   1.327   2.372   3.799  0.3217 -0.3492 -0.6819
    1SOL    MW4 9020   1.403   2.404   3.770  0.0935  0.6750 -0.1335
    1SOL     OW 9021   1.374   2.681   3.838 -0.3328  0.0202  0.1668
    1SOL    HW2 9022   1.361   2.661   3.931 -0.8180  0.2000  0.1408
    1SOL    HW3 9023   1.381   2.595   3.796  2.3762 -0.0472  0.6979
    1SOL    MW4 9024   1.373   2.667   3.845 -0.0395  0.0348  0.2337
    1SOL     OW 9025   1.584   2.833   3.746  0.1568  0.1931 -0.2719
    1SOL    HW2 9026   1.504   2.785   3.769 -0.4250  0.8228 -0.9327
    1SOL    HW3 9027   1.590   2.825   3.651  1.0734 -0.1482 -0.1810
    1SOL    MW4 9028   1.574   2.826   3.737  0.2009  0.2310 -0.3471
    1SOL     OW 9029   1.618   3.090   3.812 -0.2026  0.1080  0.4350
    1SOL    HW2 9030   1.635   3.082   3.906 -0.7913  1.2067  0.6354
    1SOL    HW3 9031   1.586   3.004   3.786  2.3528 -0.9900  0.7315
    1SOL    MW4 9032   1.616   3.077   3.821  0.0570  0.1080  0.5007
    1SOL     OW 9033   1.382   3.220   3.720 -0.1173  0.3903  0.2765
    1SOL    HW2 9034   1.375   3.300   3.773 -0.1720  0.3853  0.2777
    1SOL    HW3 9035   1.463   3.178   3.749  0.2004  0.7297 -0.1144
    1SOL    MW4 9036   1.392   3.225   3.731 -0.0825  0.4344  0.2253
    1SOL     OW 9037   1.365   3.455   3.847  0.1056 -0.1327 -0.0067
    1SOL    HW2 9038   1.437   3.503   3.805 -0.1893 -0.4425 -0.8718
    1SOL    HW3 9039   1.286   3.496   3.812 -0.1507  0.5790  1.3735
    1SOL    MW4 9040   1.364   3.467   3.837  0.0328 -0.0799  0.0615
    1SOL     OW 9041   1.570   3.634   3.745 -0.3241  0.3960  0.6729
    1SOL    HW2 9042   1.648   3.602   3.790 -1.2948  0.4239  2.4213
    1SOL    HW3 9043   1.557   3.723   3.779 -2.2407 -0.3301  1.9424
    1SOL    MW4 9044   1.578   3.642   3.755 -0.7049  0.3040  1.0710
    1SOL     OW 9045   1.549   3.891   3.835  0.2004 -1.0851  0.4970
    1SOL    HW2 9046   1.567   3.890   3.929 -1.3287 -0.2721  0.8137
    1SOL    HW3 9047   1.458   3.921   3.829  0.1730 -1.5086 -1.2225
    1SOL    MW4 9048   1.539   3.895   3.847 -0.0050 -1.0335  0.3116
    1SOL     OW 9049   1.300   3.979   3.763 -0.0940 -0.4267 -0.1619
    1SOL    HW2 9050   1.322   4.061   3.807 -2.3648  0.0701  0.1077
    1SOL    HW3 9051   1.296   4.001   3.670 -0.5774 -0.2497 -0.1015
    1SOL    MW4 9052   1.302   3.993   3.757 -0.4574 -0.3376 -0.1185
    1SOL     OW 9053   1.367   4.258   3.856 -0.1487  0.0482  0.0997
    1SOL    HW2 9054   1.434   4.320   3.827 -0.5369  0.1841 -0.5197
    1SOL    HW3 9055   1.288   4.311   3.865 -0.0359  0.0071  1.4251
    1SOL    MW4 9056   1.365   4.273   3.853 -0.1849  0.0610  0.1926
    1SOL     OW 9057   1.580   4.407   3.775  0.0768 -0.5113 -0.5133
    1SOL    HW2 9058   1.664   4.366   3.792  0.7010  1.0201  0.2077
    1SOL    HW3 9059   1.569   4.403   3.680  2.7217  2.5916 -1.0413
    1SOL    MW4 9060   1.589   4.401   3.765  0.5081  0.1001 -0.4878
    1SOL     OW 9061   2.020   4.639   3.853  0.0714  0.1031 -0.1376
    1SOL    HW2 9062   2.085   4.699   3.818 -0.0438  0.4017  0.1605
    1SOL    HW3 9063   2.024   4.562   3.796  0.6238  0.1571 -0.1671
    1SOL    MW4 9064   2.029   4.637   3.841  0.1290  0.1502 -0.1023
    1SOL     OW 9065   1.807   0.154   3.758 -0.2641 -0.0383 -0.1175
    1SOL    HW2 9066   1.879   0.100   3.791 -0.8932 -0.3716  0.7350
    1SOL    HW3 9067   1.728   0.103   3.778 -0.7277  0.2117 -1.2471
    1SOL    MW4 9068   1.806   0.140   3.765 -0.4083 -0.0493 -0.1538
    1SOL     OW 9069   1.799   0.416   3.894 -0.4499  0.1328 -0.0348
    1SOL    HW2 9070   1.794   0.421   3.990  1.2039  1.1640  0.0087
    1SOL    HW3 9071   1.812   0.323   3.876 -2.3962 -0.2897  0.6508
    1SOL    MW4 9072   1.800   0.404   3.904 -0.4885  0.2131  0.0613
    1SOL     OW 9073   2.040   0.543   3.781 -0.4759  0.0688 -0.1526
    1SOL    HW2 9074   1.958   0.514   3.821 -0.5611 -0.0304 -0.3950
    1SOL    HW3 9075   2.019   0.549   3.687  0.1325 -1.1145 -0.3738
    1SOL    MW4 9076   2.026   0.540   3.774 -0.4067 -0.1003 -0.2139
    1SOL     OW 9077   2.037   0.806   3.860 -0.6256  0.3650  0.1531
    1SOL    HW2 9078   2.015   0.814   3.953 -0.8182 -0.2481  0.1564
    1SOL    HW3 9079   2.037   0.712   3.843  0.8244  0.4041 -0.1204
    1SOL    MW4 9080   2.034   0.795   3.870 -0.4597  0.2893  0.1175
    1SOL     OW 9081   1.803   0.935   3.770 -0.1996 -0.5608  0.4644
    1SOL    HW2 9082   1.880   0.892   3.806 -0.8564 -1.3372  0.9763
    1SOL    HW3 9083   1.806   0.916   3.676  1.0443  0.7132  0.2322
    1SOL    MW4 9084   1.813   0.927   3.762 -0.1223 -0.4952  0.5014
    1SOL     OW 9085   1.821   1.216   3.852  0.3211 -0.0472  0.3166
    1SOL    HW2 9086   1.780   1.233   3.936 -0.7694 -0.3107 -0.1596
    1SOL    HW3 9087   1.822   1.121   3.843 -0.3289  0.0030 -0.3397
    1SOL    MW4 9088   1.816   1.206   3.862  0.0914 -0.0753  0.1671
    1SOL     OW 9089   2.073   1.282   3.709 -0.2234 -0.1536 -0.7836
    1SOL    HW2 9090   2.141   1.237   3.759  0.1006 -0.2201 -1.2847
    1SOL    HW3 9091   1.991   1.253   3.749  0.0787  1.1177  0.8469
    1SOL    MW4 9092   2.071   1.272   3.721 -0.1409  0.0052 -0.6347
    1SOL     OW 9093   2.044   1.516   3.873  0.0465 -0.1355 -0.0040
    1SOL    HW2 9094   1.955   1.536   3.843 -0.0123  1.1622  1.0085
    1SOL    HW3 9095   2.061   1.428   3.840 -1.3633 -0.1267 -0.7834
    1SOL    MW4 9096   2.034   1.507   3.865 -0.1473  0.0368  0.0267
    1SOL     OW 9097   1.810   1.654   3.781  0.0011  0.4923  0.0210
    1SOL    HW2 9098   1.807   1.746   3.807  2.0129  0.8494 -0.9260
    1SOL    HW3 9099   1.802   1.655   3.686 -0.0508 -0.3203  0.0114
    1SOL    MW4 9100   1.808   1.666   3.772  0.2596  0.4321 -0.1049
    1SOL     OW 9101   1.814   1.915   3.884  0.0551  0.0987  0.0863
    1SOL    HW2 9102   1.742   1.973   3.860  0.4005  0.7368  0.5944
    1SOL    HW3 9103   1.892   1.959   3.850  0.0773 -1.2863 -1.7414
    1SOL    MW4 9104   1.815   1.928   3.876  0.1037  0.0002 -0.0877
    1SOL     OW 9105   2.057   2.325   3.905  0.1408  0.5112  0.3318
    1SOL    HW2 9106   2.126   2.374   3.859 -1.3588  0.7631 -1.7049
    1SOL    HW3 9107   2.032   2.382   3.977 -0.0828  1.8154 -0.7566
    1SOL    MW4 9108   2.063   2.339   3.908 -0.0865  0.7167 -0.0806
    1SOL     OW 9109   2.247   2.459   3.771  0.1449  0.4413 -0.1667
    1SOL    HW2 9110   2.238   2.467   3.676  2.2518  1.4229 -0.2997
    1SOL    HW3 9111   2.338   2.432   3.785 -0.8547 -2.2810  1.4603
    1SOL    MW4 9112   2.258   2.457   3.760  0.2909  0.2120  0.0303
    1SOL     OW 9113   1.824   2.425   3.779  0.2473 -0.3652  0.3820
    1SOL    HW2 9114   1.909   2.390   3.805  1.1231  1.9838  0.7803
    1SOL    HW3 9115   1.763   2.390   3.843  1.2626 -0.3283  1.3818
    1SOL    MW4 9116   1.827   2.416   3.791  0.4967 -0.0505  0.5665
    1SOL     OW 9117   3.126   2.537   4.484  0.2286  0.0287  0.4799
    1SOL    HW2 9118   3.032   2.546   4.470  0.3734  0.3213 -0.3380
    1SOL    HW3 9119   3.153   2.621   4.521  0.0672 -0.2772  1.3027
    1SOL    MW4 9120   3.117   2.550   4.487  0.2267  0.0267  0.4807
    1SOL     OW 9121   2.015   3.143   3.865  0.0385 -0.0419  0.6837
    1SOL    HW2 9122   2.093   3.179   3.823 -0.2855 -1.4579 -1.1870
    1SOL    HW3 9123   2.037   3.142   3.958  1.9601  0.3293  0.2649
    1SOL    MW4 9124   2.028   3.147   3.872  0.2496 -0.1798  0.3817
    1SOL     OW 9125   2.013   2.879   3.741  0.4536 -0.3911  0.2101
    1SOL    HW2 9126   2.004   2.961   3.788 -0.5941 -0.2316 -0.2329
    1SOL    HW3 9127   1.941   2.824   3.773  0.1524 -0.5337 -0.6739
    1SOL    MW4 9128   2.002   2.882   3.751  0.2754 -0.3889  0.0350
    1SOL     OW 9129   1.818   3.258   3.719  0.2661 -0.0287  0.2656
    1SOL    HW2 9130   1.888   3.221   3.772  1.3744  1.3969 -0.1872
    1SOL    HW3 9131   1.742   3.202   3.737  1.3727 -1.2531  1.1611
    1SOL    MW4 9132   1.817   3.246   3.728  0.5584 -0.0024  0.3240
    1SOL     OW 9133   1.789   3.507   3.838  0.1913 -0.1912 -0.4965
    1SOL    HW2 9134   1.867   3.557   3.813  0.4094 -0.7395 -0.9295
    1SOL    HW3 9135   1.799   3.423   3.793 -1.7616  0.5362 -2.4493
    1SOL    MW4 9136   1.800   3.503   3.829 -0.0377 -0.1678 -0.8116
    1SOL     OW 9137   2.014   3.630   3.735 -0.4252  0.1077 -0.0770
    1SOL    HW2 9138   2.099   3.594   3.759  0.0320  0.0455 -1.7628
    1SOL    HW3 9139   2.013   3.630   3.639 -2.2052  0.3696 -0.0850
    1SOL    MW4 9140   2.025   3.625   3.725 -0.5996  0.1342 -0.3004
    1SOL     OW 9141   2.000   3.866   3.883  0.4810 -0.4493 -0.0755
    1SOL    HW2 9142   2.075   3.920   3.858 -0.4218  0.1808 -1.4720
    1SOL    HW3 9143   2.011   3.785   3.832  0.8783 -0.8700  0.6705
    1SOL    MW4 9144   2.011   3.862   3.873  0.4144 -0.4215 -0.1612
    1SOL     OW 9145   1.777   4.012   3.747 -0.2226  0.4743 -0.1597
    1SOL    HW2 9146   1.844   3.961   3.792  0.4329  1.8053  0.4053
    1SOL    HW3 9147   1.694   3.972   3.774  0.2643 -0.1201  0.4778
    1SOL    MW4 9148   1.775   4.000   3.757 -0.0719  0.5715 -0.0010
    1SOL     OW 9149   1.818   4.275   3.815  0.0094 -0.2826  0.7104
    1SOL    HW2 9150   1.884   4.321   3.764 -0.7207 -1.0762 -0.9763
    1SOL    HW3 9151   1.826   4.184   3.789 -1.1594 -0.5173  1.1300
    1SOL    MW4 9152   1.828   4.269   3.805 -0.2412 -0.4182  0.5434
    1SOL     OW 9153   2.035   4.403   3.722 -0.7092  0.2353 -0.0043
    1SOL    HW2 9154   2.111   4.358   3.759 -1.8353 -0.7254  1.2284
    1SOL    HW3 9155   2.059   4.423   3.632  1.7180  1.6451  0.9239
    1SOL    MW4 9156   2.048   4.400   3.715 -0.5376  0.2947  0.2809
    1SOL     OW 9157   2.501   4.661   3.822 -0.2823  0.3563  0.8576
    1SOL    HW2 9158   2.532   4.638   3.909  1.3566  0.0262  0.1919
    1SOL    HW3 9159   2.493   4.578   3.776 -0.3430  0.5946  0.4292
    1SOL    MW4 9160   2.504   4.647   3.827 -0.0739  0.3443  0.7133
    1SOL     OW 9161   2.243   0.115   3.766  0.3028  0.5191 -0.5701
    1SOL    HW2 9162   2.324   0.077   3.800 -0.1735  0.6710  0.7715
    1SOL    HW3 9163   2.263   0.135   3.675  1.4455 -0.3895 -0.5365
    1SOL    MW4 9164   2.257   0.113   3.759  0.3908  0.4193 -0.3884
    1SOL     OW 9165   2.253   0.387   3.830 -0.0953 -0.2122 -0.0991
    1SOL    HW2 9166   2.235   0.295   3.810 -1.3786  0.0881 -0.3743
    1SOL    HW3 9167   2.172   0.432   3.808  0.5319  0.9898  0.0410
    1SOL    MW4 9168   2.240   0.381   3.825 -0.1817 -0.0140 -0.1168
    1SOL     OW 9169   2.482   0.520   3.781  0.4844 -0.2658  0.0095
    1SOL    HW2 9170   2.403   0.469   3.797  1.4173 -2.0214 -0.8205
    1SOL    HW3 9171   2.485   0.531   3.686  0.3744  1.2343  0.1656
    1SOL    MW4 9172   2.472   0.515   3.771  0.5929 -0.2996 -0.0794
    1SOL     OW 9173   2.486   0.803   3.862  0.4545  0.1323  0.6904
    1SOL    HW2 9174   2.414   0.825   3.803 -0.0348  1.1707  1.6568
    1SOL    HW3 9175   2.503   0.710   3.846  0.7475  0.5402 -1.5195
    1SOL    MW4 9176   2.479   0.793   3.852  0.4284  0.3232  0.5264
    1SOL     OW 9177   2.262   0.906   3.728  0.0166 -0.0248 -0.1757
    1SOL    HW2 9178   2.181   0.875   3.768 -0.2079  0.1581 -0.4930
    1SOL    HW3 9179   2.254   0.884   3.635  1.2251 -1.8851  0.1341
    1SOL    MW4 9180   2.250   0.899   3.721  0.1462 -0.2460 -0.1769
    1SOL     OW 9181   2.280   1.163   3.883 -0.2691 -0.1033  0.2138
    1SOL    HW2 9182   2.291   1.145   3.977  0.7972  0.2087  0.1654
    1SOL    HW3 9183   2.293   1.078   3.841  2.8595  0.3362  0.1203
    1SOL    MW4 9184   2.283   1.149   3.890  0.2847 -0.0041  0.1955
    1SOL     OW 9185   2.488   1.276   3.751  0.0520 -0.1895  0.4501
    1SOL    HW2 9186   2.484   1.371   3.757 -1.8863 -0.0296 -2.3901
    1SOL    HW3 9187   2.403   1.246   3.783 -0.1042 -0.8272 -0.5319
    1SOL    MW4 9188   2.476   1.284   3.756 -0.2246 -0.2525 -0.0544
    1SOL     OW 9189   2.499   1.561   3.792 -0.0635  0.1813  0.0114
    1SOL    HW2 9190   2.566   1.624   3.766  0.3435  0.0603  0.7541
    1SOL    HW3 9191   2.417   1.609   3.786  0.0340  0.1800 -1.4112
    1SOL    MW4 9192   2.497   1.575   3.788  0.0031  0.1651 -0.0784
    1SOL     OW 9193   2.252   1.677   3.763 -0.0913 -0.6959 -0.6538
    1SOL    HW2 9194   2.252   1.760   3.812  1.6470 -1.3932  0.6063
    1SOL    HW3 9195   2.186   1.624   3.806  0.1040 -0.6250 -0.2603
    1SOL    MW4 9196   2.243   1.681   3.775  0.1636 -0.7786 -0.4354
    1SOL     OW 9197   2.269   1.932   3.868 -0.1019 -0.1733 -0.2360
    1SOL    HW2 9198   2.180   1.963   3.853 -0.0822  0.3206  0.6372
    1SOL    HW3 9199   2.324   1.989   3.814 -0.3516 -0.7985 -1.1606
    1SOL    MW4 9200   2.265   1.943   3.859 -0.1321 -0.1906 -0.2429
    1SOL     OW 9201   2.445   2.085   3.740  0.4699  0.1142 -0.2318
    1SOL    HW2 9202   2.455   2.060   3.648  0.4023 -2.5675  0.4274
    1SOL    HW3 9203   2.530   2.067   3.780  0.6230  1.6584  0.1399
    1SOL    MW4 9204   2.457   2.079   3.733  0.4814 -0.0358 -0.0958
    1SOL     OW 9205   2.239   2.769   3.844 -0.2910  0.1523  0.0587
    1SOL    HW2 9206   2.168   2.829   3.819 -0.1686 -0.4812 -1.9160
    1SOL    HW3 9207   2.208   2.683   3.817  1.0733 -0.1779 -0.4838
    1SOL    MW4 9208   2.226   2.766   3.837 -0.0949  0.0248 -0.2732
    1SOL     OW 9209   0.512   2.194   4.610 -0.2240 -0.2243 -0.4515
    1SOL    HW2 9210   0.603   2.181   4.584  0.1219 -0.9758  1.0395
    1SOL    HW3 9211   0.514   2.191   4.706 -1.6296  1.0671 -0.3617
    1SOL    MW4 9212   0.524   2.192   4.619 -0.3638 -0.1528 -0.2432
    1SOL     OW 9213   2.032   2.061   3.812  0.2916 -0.1871 -0.4835
    1SOL    HW2 9214   2.063   2.142   3.853 -0.4429 -0.4522  0.6229
    1SOL    HW3 9215   2.040   2.077   3.718 -1.0574  1.6501 -0.3188
    1SOL    MW4 9216   2.037   2.074   3.805  0.0167  0.0203 -0.3157
    1SOL     OW 9217   2.510   2.821   3.785  0.5426  0.2990 -0.0715
    1SOL    HW2 9218   2.426   2.788   3.817  0.9667  0.4048  1.1888
    1SOL    HW3 9219   2.506   2.810   3.690 -0.5470 -0.5051  0.0623
    1SOL    MW4 9220   2.498   2.815   3.777  0.4547  0.2069  0.1128
    1SOL     OW 9221   2.489   3.108   3.831  0.2625 -0.4507 -0.2593
    1SOL    HW2 9222   2.493   3.107   3.927 -1.4138 -0.1479 -0.1860
    1SOL    HW3 9223   2.484   3.016   3.806  0.1526 -0.5053 -0.0338
    1SOL    MW4 9224   2.489   3.096   3.840  0.0267 -0.4177 -0.2201
    1SOL     OW 9225   2.257   3.247   3.749 -0.0279 -0.1573  0.0278
    1SOL    HW2 9226   2.278   3.339   3.764  1.8739 -0.3697 -1.0528
    1SOL    HW3 9227   2.327   3.199   3.793 -1.7227 -1.1416  1.6970
    1SOL    MW4 9228   2.269   3.253   3.757 -0.0005 -0.3152  0.1054
    1SOL     OW 9229   2.264   3.530   3.827  0.4885 -0.0917  0.2260
    1SOL    HW2 9230   2.274   3.520   3.921 -0.5727  1.2842  0.4945
    1SOL    HW3 9231   2.342   3.580   3.800  0.1429  0.6583  0.5853
    1SOL    MW4 9232   2.276   3.536   3.835  0.3033  0.1891  0.3090
    1SOL     OW 9233   2.481   3.675   3.762  0.5773 -0.0019 -0.2307
    1SOL    HW2 9234   2.551   3.620   3.799  0.9038  0.4690 -0.1464
    1SOL    HW3 9235   2.494   3.669   3.668  1.8136  1.4738 -0.1739
    1SOL    MW4 9236   2.492   3.667   3.755  0.7834  0.2549 -0.2122
    1SOL     OW 9237   2.450   3.925   3.871 -0.0197 -0.2674  0.3663
    1SOL    HW2 9238   2.533   3.971   3.857  0.4415 -0.4776  2.2153
    1SOL    HW3 9239   2.463   3.839   3.831  0.6740 -0.3181  0.6967
    1SOL    MW4 9240   2.463   3.920   3.864  0.1328 -0.3021  0.6542
    1SOL     OW 9241   2.221   4.006   3.769 -0.2143  0.0169  0.0614
    1SOL    HW2 9242   2.299   3.971   3.815  0.4099  0.7825 -0.4078
    1SOL    HW3 9243   2.241   3.992   3.677 -0.4923  0.5293 -0.0711
    1SOL    MW4 9244   2.234   3.999   3.763 -0.1688  0.1860 -0.0181
    1SOL     OW 9245   2.251   4.274   3.838 -0.2607 -0.3110  0.1449
    1SOL    HW2 9246   2.257   4.281   3.934 -1.4849 -1.2489  0.2999
    1SOL    HW3 9247   2.239   4.180   3.822  2.5229 -0.5114 -1.0814
    1SOL    MW4 9248   2.250   4.262   3.849 -0.0548 -0.4616  0.0036
    1SOL     OW 9249   2.496   4.376   3.763  0.0675  0.3156  0.5733
    1SOL    HW2 9250   2.562   4.338   3.821 -0.6078  0.7818  1.6805
    1SOL    HW3 9251   2.415   4.331   3.786  0.0287 -0.3802 -0.9012
    1SOL    MW4 9252   2.494   4.365   3.774 -0.0267  0.2851  0.5248
    1SOL     OW 9253   2.947   0.009   3.837 -0.3268  0.4347 -0.1262
    1SOL    HW2 9254   2.926   0.005   3.930 -1.0404 -1.8418 -0.3546
    1SOL    HW3 9255   3.033   0.051   3.834  0.8520 -1.7114  1.7820
    1SOL    MW4 9256   2.956   0.014   3.849 -0.2654 -0.1488  0.0954
    1SOL     OW 9257   2.718   0.147   3.765  0.1007  0.3853  0.4096
    1SOL    HW2 9258   2.792   0.095   3.796 -0.5979 -0.2505  1.0237
    1SOL    HW3 9259   2.641   0.093   3.784 -0.3675  0.0968 -2.2016
    1SOL    MW4 9260   2.718   0.133   3.772 -0.0532  0.2634  0.1464
    1SOL     OW 9261   2.719   0.410   3.860  0.3369 -0.3939  0.5147
    1SOL    HW2 9262   2.725   0.323   3.821  0.8580 -0.3530  0.5026
    1SOL    HW3 9263   2.635   0.444   3.829  1.3206  0.1619 -1.6734
    1SOL    MW4 9264   2.708   0.403   3.850  0.5355 -0.3152  0.2241
    1SOL     OW 9265   2.941   0.560   3.747  0.0949 -0.1716  0.0028
    1SOL    HW2 9266   3.013   0.515   3.793  0.5885  0.4439 -0.1567
    1SOL    HW3 9267   2.862   0.531   3.793  0.3499 -1.6407 -0.4595
    1SOL    MW4 9268   2.940   0.550   3.759  0.1938 -0.2842 -0.0794
    1SOL     OW 9269   2.975   0.817   3.844 -0.3233 -0.2774  0.0877
    1SOL    HW2 9270   3.058   0.849   3.809 -0.3094 -0.3616  0.0435
    1SOL    HW3 9271   2.970   0.726   3.814 -0.4647 -0.2512  0.0322
    1SOL    MW4 9272   2.985   0.809   3.835 -0.3402 -0.2850  0.0746
    1SOL     OW 9273   2.727   0.897   3.723 -0.1805 -0.4917  0.4962
    1SOL    HW2 9274   2.808   0.868   3.765  0.4527 -0.9404 -0.9968
    1SOL    HW3 9275   2.657   0.862   3.778  0.6319 -1.1755  1.0919
    1SOL    MW4 9276   2.728   0.889   3.736  0.0100 -0.6411  0.3781
    1SOL     OW 9277   2.716   1.149   3.848 -0.1108  0.1650  0.3537
    1SOL    HW2 9278   2.717   1.066   3.799  0.9339  0.8716 -0.8767
    1SOL    HW3 9279   2.635   1.192   3.820 -0.0089  0.1210 -0.0217
    1SOL    MW4 9280   2.706   1.144   3.838  0.0405  0.2524  0.1419
    1SOL     OW 9281   2.919   1.303   3.725 -0.3279  0.1621 -0.5763
    1SOL    HW2 9282   2.915   1.396   3.750  0.6790  0.2288 -0.6721
    1SOL    HW3 9283   2.841   1.265   3.766 -0.9919  1.1338 -0.9036
    1SOL    MW4 9284   2.908   1.310   3.734 -0.2825  0.2991 -0.6320
    1SOL     OW 9285   2.939   1.572   3.822  0.7799  0.3912  0.1677
    1SOL    HW2 9286   2.934   1.564   3.917  0.0575 -1.6270 -0.0129
    1SOL    HW3 9287   3.007   1.637   3.807  0.8943  0.7436  2.0627
    1SOL    MW4 9288   2.948   1.580   3.833  0.7000  0.1714  0.3941
    1SOL     OW 9289   2.708   1.722   3.753  0.0775  0.4324  0.5360
    1SOL    HW2 9290   2.788   1.673   3.767 -0.2461 -0.2114  0.1683
    1SOL    HW3 9291   2.706   1.738   3.658  0.0394  0.9086  0.6152
    1SOL    MW4 9292   2.718   1.718   3.742  0.0298  0.4102  0.4981
    1SOL     OW 9293   2.681   2.004   3.854  0.3131  0.8937 -0.3906
    1SOL    HW2 9294   2.702   1.999   3.947  0.0681  0.5010 -0.3559
    1SOL    HW3 9295   2.680   1.913   3.824  1.6307  1.0864 -1.0600
    1SOL    MW4 9296   2.683   1.991   3.862  0.4544  0.8672 -0.4742
    1SOL     OW 9297   2.988   2.329   3.870 -0.0099  0.3028 -0.2707
    1SOL    HW2 9298   2.913   2.385   3.853  0.4418 -0.0122 -3.5198
    1SOL    HW3 9299   3.062   2.373   3.827  0.8255 -1.4892 -0.7212
    1SOL    MW4 9300   2.988   2.342   3.862  0.1597  0.0248 -0.7586
    1SOL     OW 9301   2.885   1.807   4.516 -0.2279 -0.0060  0.1875
    1SOL    HW2 9302   2.980   1.797   4.510 -0.2796 -0.9536  0.8976
    1SOL    HW3 9303   2.871   1.902   4.523  0.7015  0.0897  0.7836
    1SOL    MW4 9304   2.895   1.818   4.516 -0.1123 -0.1184  0.3595
    1SOL     OW 9305   2.736   2.457   3.771 -0.4383  0.3393 -0.3144
    1SOL    HW2 9306   2.731   2.546   3.805 -0.3201 -0.6029  2.2466
    1SOL    HW3 9307   2.651   2.418   3.791 -0.1936 -0.3846 -0.6679
    1SOL    MW4 9308   2.724   2.464   3.778 -0.3903  0.1192 -0.0234
    1SOL     OW 9309   2.729   2.705   3.876  0.2091  0.0352  0.0498
    1SOL    HW2 9310   2.648   2.740   3.838 -0.3405 -0.4451  0.7721
    1SOL    HW3 9311   2.714   2.707   3.970 -0.2418 -3.1122  0.0783
    1SOL    MW4 9312   2.716   2.710   3.883  0.0770 -0.4435  0.1488
    1SOL     OW 9313   2.933   2.830   3.762  0.0493 -0.2829 -0.2753
    1SOL    HW2 9314   2.944   2.919   3.797  0.7683 -0.7786  0.8042
    1SOL    HW3 9315   2.864   2.791   3.815 -0.7342 -0.1468 -1.1931
    1SOL    MW4 9316   2.926   2.837   3.773  0.0410 -0.3304 -0.2539
    1SOL     OW 9317   2.941   3.096   3.871 -0.2883 -0.0148  0.2879
    1SOL    HW2 9318   3.018   3.144   3.839 -0.0781  0.1463  1.0330
    1SOL    HW3 9319   2.868   3.136   3.823 -0.1119  1.0268  0.8630
    1SOL    MW4 9320   2.942   3.108   3.860 -0.2370  0.1440  0.4621
    1SOL     OW 9321   2.722   3.243   3.779  0.6040 -0.2266  0.3966
    1SOL    HW2 9322   2.704   3.332   3.810 -0.9677 -0.1830 -0.6007
    1SOL    HW3 9323   2.644   3.193   3.804  1.0569 -1.0960  0.0710
    1SOL    MW4 9324   2.709   3.248   3.786  0.4563 -0.3355  0.2222
    1SOL     OW 9325   2.673   3.499   3.873  0.1370  0.6267  0.0822
    1SOL    HW2 9326   2.704   3.488   3.963 -0.7725  0.4628  0.3799
    1SOL    HW3 9327   2.745   3.544   3.828  0.6479  0.5919  0.8550
    1SOL    MW4 9328   2.686   3.503   3.878  0.0844  0.6006  0.2236
    1SOL     OW 9329   2.914   3.615   3.756  0.2420 -0.2887 -0.1458
    1SOL    HW2 9330   2.985   3.563   3.794  0.5788  0.1227 -0.2052
    1SOL    HW3 9331   2.922   3.601   3.662  1.1989  0.9551 -0.2651
    1SOL    MW4 9332   2.924   3.606   3.749  0.4127 -0.0703 -0.1695
    1SOL     OW 9333   2.940   3.861   3.865 -0.1561 -0.2535 -0.7579
    1SOL    HW2 9334   2.965   3.856   3.957 -0.7784  1.6849 -0.4622
    1SOL    HW3 9335   2.952   3.772   3.832  0.2589 -0.9213  1.1394
    1SOL    MW4 9336   2.945   3.849   3.873 -0.1836 -0.0858 -0.4687
    1SOL     OW 9337   2.706   4.013   3.785 -0.4022  0.3300 -0.1627
    1SOL    HW2 9338   2.715   4.100   3.824 -1.0349  0.7972 -1.0340
    1SOL    HW3 9339   2.782   3.965   3.816  1.4117  2.0447 -1.8400
    1SOL    MW4 9340   2.717   4.018   3.794 -0.2463  0.6185 -0.4990
    1SOL     OW 9341   2.702   4.253   3.907 -0.1074 -0.1017  0.0979
    1SOL    HW2 9342   2.775   4.305   3.875 -0.9309  0.8190 -0.2936
    1SOL    HW3 9343   2.716   4.248   4.002  0.2846  0.3389  0.0640
    1SOL    MW4 9344   2.714   4.259   3.915 -0.1640  0.0782  0.0417
    1SOL     OW 9345   2.906   4.383   3.782  0.4711 -0.4173 -0.1908
    1SOL    HW2 9346   2.985   4.336   3.808  0.0532 -0.2532  1.3814
    1SOL    HW3 9347   2.928   4.475   3.790 -0.0651 -0.3742  0.8216
    1SOL    MW4 9348   2.919   4.389   3.786  0.3450 -0.3896  0.1502
    1SOL     OW 9349   3.387   4.664   3.843 -0.1844  0.6030 -0.1472
    1SOL    HW2 9350   3.380   4.648   3.937  0.3616 -0.9283 -0.3485
    1SOL    HW3 9351   3.467   4.715   3.832 -0.0734  0.4973  0.1907
    1SOL    MW4 9352   3.397   4.668   3.854 -0.0975  0.3870 -0.1290
    1SOL     OW 9353   3.177   0.155   3.810  0.0473 -0.0640 -0.1562
    1SOL    HW2 9354   3.253   0.105   3.840 -1.3782 -1.2055  1.6520
    1SOL    HW3 9355   3.170   0.135   3.717  0.9257 -1.3269  0.0355
    1SOL    MW4 9356   3.186   0.146   3.801 -0.0248 -0.3813  0.1080
    1SOL     OW 9357   3.140   0.432   3.875 -0.1971  0.0010 -0.3088
    1SOL    HW2 9358   3.141   0.441   3.970 -0.9022  0.9907 -0.3869
    1SOL    HW3 9359   3.152   0.338   3.860  0.4970 -0.0869  0.7320
    1SOL    MW4 9360   3.141   0.421   3.886 -0.1988  0.1200 -0.1819
    1SOL     OW 9361   3.375   0.510   3.760  0.3908  0.1262  0.2489
    1SOL    HW2 9362   3.443   0.461   3.807 -0.0180 -0.5946  0.0998
    1SOL    HW3 9363   3.293   0.479   3.798  0.0984  0.1767 -0.3459
    1SOL    MW4 9364   3.374   0.500   3.771  0.2983  0.0377  0.1507
    1SOL     OW 9365   3.429   0.789   3.820  0.5307  0.2898 -0.1417
    1SOL    HW2 9366   3.424   0.806   3.914 -1.5851  0.5936 -0.2920
    1SOL    HW3 9367   3.419   0.694   3.812  1.5237  0.1634 -0.0323
    1SOL    MW4 9368   3.427   0.779   3.832  0.3827  0.3132 -0.1471
    1SOL     OW 9369   3.200   0.936   3.766 -0.2090  0.5462 -0.3495
    1SOL    HW2 9370   3.281   0.890   3.788  1.0598  2.9901  0.2840
    1SOL    HW3 9371   3.199   0.939   3.671  0.7669  0.9978 -0.3537
    1SOL    MW4 9372   3.210   0.931   3.756  0.0870  0.9282 -0.2663
    1SOL     OW 9373   3.165   1.219   3.820  0.2196 -0.4680  0.3508
    1SOL    HW2 9374   3.161   1.124   3.811 -1.5964 -0.4623  0.8391
    1SOL    HW3 9375   3.078   1.249   3.794  0.8701  1.0826 -0.0772
    1SOL    MW4 9376   3.153   1.211   3.816  0.0660 -0.2627  0.3586
    1SOL     OW 9377   3.407   1.313   3.730  0.0495  0.3224  0.2094
    1SOL    HW2 9378   3.319   1.286   3.756 -0.4026 -0.1324 -1.7104
    1SOL    HW3 9379   3.410   1.296   3.635  1.7519  1.5589  0.0278
    1SOL    MW4 9380   3.396   1.307   3.721  0.2143  0.4256 -0.0679
    1SOL     OW 9381   3.397   1.555   3.855 -0.4651  0.0748  0.5999
    1SOL    HW2 9382   3.326   1.601   3.810  0.5874  0.6479 -0.5023
    1SOL    HW3 9383   3.407   1.473   3.806  0.0880  0.3080  0.3113
    1SOL    MW4 9384   3.389   1.550   3.842 -0.2534  0.1813  0.4165
    1SOL     OW 9385   3.193   1.704   3.776  0.3366  0.6345  0.4590
    1SOL    HW2 9386   3.197   1.798   3.795  1.9020  0.5827  0.4449
    1SOL    HW3 9387   3.184   1.698   3.681  1.9054  0.7637  0.2855
    1SOL    MW4 9388   3.192   1.715   3.766  0.7503  0.6447  0.4344
    1SOL     OW 9389   3.174   1.975   3.835  0.2048  0.4057  0.3203
    1SOL    HW2 9390   3.166   1.976   3.930 -0.2329  1.1233  0.2830
    1SOL    HW3 9391   3.097   2.024   3.804  1.6669  2.3890 -0.2855
    1SOL    MW4 9392   3.163   1.982   3.843  0.3400  0.7620  0.2356
    1SOL     OW 9393   3.406   2.029   3.726  0.0594 -0.1719 -0.1209
    1SOL    HW2 9394   3.327   2.017   3.779 -0.2713 -0.3157 -0.6487
    1SOL    HW3 9395   3.473   1.979   3.772  0.0886  0.7320  0.8644
    1SOL    MW4 9396   3.404   2.021   3.739  0.0198 -0.0715 -0.0606
    1SOL     OW 9397   3.371   2.310   3.848 -0.0751 -0.1427  0.5730
    1SOL    HW2 9398   3.316   2.351   3.782  0.1117  0.0054  0.5098
    1SOL    HW3 9399   3.400   2.228   3.809 -1.5305 -0.9700  1.2065
    1SOL    MW4 9400   3.368   2.304   3.834 -0.2427 -0.2322  0.6483
    1SOL     OW 9401   3.188   2.453   3.699  0.2260 -0.0273 -0.4052
    1SOL    HW2 9402   3.214   2.541   3.728  2.9984 -0.7505 -0.5707
    1SOL    HW3 9403   3.195   2.456   3.604  1.7438 -0.8229 -0.3346
    1SOL    MW4 9404   3.193   2.465   3.690  0.7920 -0.2277 -0.4175
    1SOL     OW 9405   3.184   2.710   3.835  0.0967 -0.0937  0.0483
    1SOL    HW2 9406   3.174   2.688   3.928 -0.1136 -1.4150 -0.2744
    1SOL    HW3 9407   3.103   2.754   3.812  0.5683  1.1701  0.7357
    1SOL    MW4 9408   3.172   2.713   3.845  0.1309 -0.1013  0.0961
    1SOL     OW 9409   3.404   2.843   3.743 -0.1653  0.1833 -0.3823
    1SOL    HW2 9410   3.326   2.797   3.772 -0.6745  0.4309 -1.3193
    1SOL    HW3 9411   3.397   2.930   3.784 -0.1414  0.0431 -0.0832
    1SOL    MW4 9412   3.393   2.849   3.752 -0.2294  0.1976 -0.4666
    1SOL     OW 9413   3.396   3.099   3.864  0.2006 -0.0192  0.2654
    1SOL    HW2 9414   3.398   3.094   3.960  2.3825  2.5880  0.4224
    1SOL    HW3 9415   3.483   3.130   3.840 -0.5595  0.0599 -2.5208
    1SOL    MW4 9416   3.408   3.102   3.874  0.3881  0.3352 -0.0813
    1SOL     OW 9417   3.172   3.227   3.774  0.0927 -0.5731  0.3319
    1SOL    HW2 9418   3.254   3.188   3.804  0.6113  0.2856  0.0635
    1SOL    HW3 9419   3.162   3.195   3.684  0.9389  0.5557 -0.1702
    1SOL    MW4 9420   3.181   3.218   3.766  0.2728 -0.3107  0.2303
    1SOL     OW 9421   3.146   3.475   3.891  0.1551  0.1704  0.1283
    1SOL    HW2 9422   3.221   3.525   3.859 -0.3812  0.8305 -0.1105
    1SOL    HW3 9423   3.155   3.389   3.849  1.5376 -0.2329  1.1812
    1SOL    MW4 9424   3.157   3.470   3.881  0.2668  0.2046  0.2356
    1SOL     OW 9425   3.373   3.615   3.766  0.3537 -0.1961 -0.2410
    1SOL    HW2 9426   3.371   3.709   3.783  1.4396 -0.3423  0.7583
    1SOL    HW3 9427   3.372   3.609   3.670  1.2553  0.8689 -0.3359
    1SOL    MW4 9428   3.373   3.627   3.756  0.6161 -0.0749 -0.1216
    1SOL     OW 9429   3.388   3.892   3.832 -0.1495 -0.3722  0.1841
    1SOL    HW2 9430   3.468   3.933   3.799  0.0785 -0.5855  0.4744
    1SOL    HW3 9431   3.317   3.947   3.797  0.1976  1.1232  1.7919
    1SOL    MW4 9432   3.389   3.905   3.823 -0.0737 -0.2029  0.4346
    1SOL     OW 9433   3.144   4.015   3.744  0.0904  0.0657 -0.0838
    1SOL    HW2 9434   3.144   4.099   3.788  0.6265 -0.0201  0.0822
    1SOL    HW3 9435   3.078   3.963   3.790 -0.1656  0.3585 -0.1207
    1SOL    MW4 9436   3.135   4.019   3.756  0.1273  0.0930 -0.0665
    1SOL     OW 9437   3.122   4.254   3.891  0.2411  0.2168  0.1963
    1SOL    HW2 9438   3.122   4.234   3.984  0.7474 -0.0023  0.1492
    1SOL    HW3 9439   3.211   4.283   3.873  0.7693 -1.8632 -0.6796
    1SOL    MW4 9440   3.134   4.255   3.901  0.3774 -0.0868  0.0746
    1SOL     OW 9441   3.372   4.372   3.801 -0.3362 -0.1310  0.0279
    1SOL    HW2 9442   3.455   4.333   3.828 -0.3505 -1.3685 -1.6275
    1SOL    HW3 9443   3.382   4.466   3.818  0.0278 -0.6949  3.2487
    1SOL    MW4 9444   3.384   4.379   3.807 -0.2899 -0.3686  0.2346
    1SOL     OW 9445   3.845   0.011   3.905 -0.1736 -0.1524  0.1744
    1SOL    HW2 9446   3.928   0.050   3.878 -0.9139 -0.0576 -2.1447
    1SOL    HW3 9447   3.842  -0.073   3.858 -1.4336 -0.0803  0.0861
    1SOL    MW4 9448   3.855   0.005   3.895 -0.4375 -0.1302 -0.1431
    1SOL     OW 9449   3.624   0.142   3.798 -0.4326 -0.4975  0.4300
    1SOL    HW2 9450   3.701   0.102   3.837 -1.5912 -1.8822  1.3294
    1SOL    HW3 9451   3.630   0.121   3.705 -0.9637 -2.6502  0.8751
    1SOL    MW4 9452   3.635   0.134   3.791 -0.6554 -0.9642  0.6073
    1SOL     OW 9453   3.636   0.406   3.889  0.3023 -0.3267  0.0966
    1SOL    HW2 9454   3.709   0.445   3.841  1.3055 -2.4135 -0.1107
    1SOL    HW3 9455   3.635   0.314   3.862 -0.6687 -0.9711  2.2086
    1SOL    MW4 9456   3.645   0.399   3.879  0.3064 -0.6870  0.3479
    1SOL     OW 9457   3.885   0.523   3.798 -0.1104 -0.1515 -0.3854
    1SOL    HW2 9458   3.969   0.495   3.835  0.3237  0.2433 -1.0628
    1SOL    HW3 9459   3.884   0.618   3.811 -0.5688 -0.1871 -0.1496
    1SOL    MW4 9460   3.896   0.532   3.805 -0.1137 -0.1041 -0.4437
    1SOL     OW 9461   3.878   0.793   3.883  0.0992 -0.2176  0.1423
    1SOL    HW2 9462   3.952   0.820   3.829  0.8860  0.1744  1.4004
    1SOL    HW3 9463   3.803   0.838   3.845  0.7539  0.6032 -0.1923
    1SOL    MW4 9464   3.878   0.803   3.871  0.2894 -0.0575  0.2642
    1SOL     OW 9465   3.671   0.908   3.743 -0.0632  0.2095  0.4020
    1SOL    HW2 9466   3.664   1.003   3.758  0.8772  0.3551 -0.0245
    1SOL    HW3 9467   3.586   0.873   3.769 -0.2768  1.1244  0.9605
    1SOL    MW4 9468   3.659   0.916   3.748  0.0327  0.3495  0.4191
    1SOL     OW 9469   3.616   1.165   3.850  0.1731  0.3943 -0.1590
    1SOL    HW2 9470   3.695   1.213   3.829  0.2099  0.4937  0.1992
    1SOL    HW3 9471   3.545   1.218   3.814  0.2715  0.3091 -0.4726
    1SOL    MW4 9472   3.617   1.178   3.843  0.1912  0.3961 -0.1535
    1SOL     OW 9473   3.848   1.292   3.761 -0.0601 -0.0903  0.2954
    1SOL    HW2 9474   3.926   1.254   3.802  0.8199  0.6027 -0.7051
    1SOL    HW3 9475   3.848   1.383   3.791 -0.2734  0.0103 -0.0071
    1SOL    MW4 9476   3.859   1.299   3.771  0.0277  0.0145  0.1235
    1SOL     OW 9477   3.867   1.535   3.872  0.2681  0.0736 -0.2096
    1SOL    HW2 9478   3.866   1.533   3.967  0.6576 -1.5543 -0.2287
    1SOL    HW3 9479   3.787   1.583   3.848 -2.1355 -3.1747  0.8736
    1SOL    MW4 9480   3.856   1.541   3.881  0.0024 -0.5698 -0.0694
    1SOL     OW 9481   3.630   1.675   3.810  0.1711 -0.0366  0.4758
    1SOL    HW2 9482   3.549   1.627   3.827  0.6093 -1.0754 -0.3399
    1SOL    HW3 9483   3.633   1.685   3.715  1.5240 -0.9435  0.4115
    1SOL    MW4 9484   3.620   1.670   3.800  0.4077 -0.2933  0.3598
    1SOL     OW 9485   3.598   1.940   3.912  0.0090  0.1824 -0.2272
    1SOL    HW2 9486   3.608   1.846   3.898  0.9435 -0.1129  2.1906
    1SOL    HW3 9487   3.524   1.948   3.972  0.0498  0.9796 -0.2733
    1SOL    MW4 9488   3.590   1.929   3.918  0.1378  0.2486  0.0856
    1SOL     OW 9489   3.817   2.064   3.781  0.0100  0.5175 -0.3354
    1SOL    HW2 9490   3.896   2.014   3.803 -0.3052 -0.7807 -2.0832
    1SOL    HW3 9491   3.745   2.014   3.821 -0.1512  0.3641 -0.8062
    1SOL    MW4 9492   3.818   2.051   3.789 -0.0529  0.3262 -0.6282
    1SOL     OW 9493   3.822   2.319   3.889  0.4141 -0.2454  0.1509
    1SOL    HW2 9494   3.814   2.228   3.861  0.7865  0.1452 -1.2996
    1SOL    HW3 9495   3.756   2.366   3.837  0.6113  0.3953  0.4677
    1SOL    MW4 9496   3.812   2.313   3.878  0.4892 -0.1094  0.0012
    1SOL     OW 9497   3.594   2.468   3.754 -0.7781  0.3842  0.6227
    1SOL    HW2 9498   3.512   2.421   3.769  0.1894 -1.5189  0.1383
    1SOL    HW3 9499   3.599   2.478   3.659  0.4071 -1.1907  0.4810
    1SOL    MW4 9500   3.584   2.463   3.743 -0.4942 -0.0746  0.5403
    1SOL     OW 9501   3.610   2.709   3.910  0.3256 -0.4732 -0.1213
    1SOL    HW2 9502   3.604   2.622   3.870  0.9102 -0.3202 -0.5494
    1SOL    HW3 9503   3.541   2.760   3.867  2.0238  0.1701 -2.1759
    1SOL    MW4 9504   3.600   2.704   3.899  0.6268 -0.3681 -0.4489
    1SOL     OW 9505   3.845   2.812   3.783  0.3145  0.4357  0.1522
    1SOL    HW2 9506   3.916   2.754   3.810 -0.3867 -1.7411 -2.5027
    1SOL    HW3 9507   3.768   2.780   3.830 -0.0600 -0.7685 -1.2669
    1SOL    MW4 9508   3.844   2.800   3.793  0.1724 -0.0103 -0.3858
    1SOL     OW 9509   3.838   3.060   3.907 -0.2699 -0.0190  0.2513
    1SOL    HW2 9510   3.755   3.095   3.875 -0.3423 -0.7486 -0.3860
    1SOL    HW3 9511   3.842   2.972   3.869  0.6417 -0.1029  0.5444
    1SOL    MW4 9512   3.827   3.053   3.897 -0.1590 -0.1261  0.2060
    1SOL     OW 9513   3.638   3.207   3.785  0.4906 -0.2250 -0.1035
    1SOL    HW2 9514   3.643   3.297   3.818  0.1607 -0.4298  0.5152
    1SOL    HW3 9515   3.636   3.217   3.690 -0.6798  0.4887 -0.0279
    1SOL    MW4 9516   3.638   3.220   3.777  0.2925 -0.1578 -0.0119
    1SOL     OW 9517   3.615   3.485   3.844 -0.0424  0.5431  0.0596
    1SOL    HW2 9518   3.616   3.500   3.938  0.1598  1.4300 -0.0761
    1SOL    HW3 9519   3.526   3.509   3.817 -0.3865 -0.6044  0.1587
    1SOL    MW4 9520   3.604   3.490   3.852 -0.0608  0.5088  0.0548
    1SOL     OW 9521   3.828   3.647   3.765 -0.0844 -0.1564 -0.3215
    1SOL    HW2 9522   3.811   3.734   3.801 -0.0195 -0.2186 -0.1393
    1SOL    HW3 9523   3.758   3.593   3.799  0.1208 -0.2722 -0.0802
    1SOL    MW4 9524   3.817   3.651   3.774 -0.0486 -0.1798 -0.2656
    1SOL     OW 9525   3.801   3.910   3.899 -0.0492  0.9164 -0.5383
    1SOL    HW2 9526   3.811   3.908   3.994  1.6514  0.6951 -0.7144
    1SOL    HW3 9527   3.888   3.928   3.865  0.1419 -2.6658 -2.1838
    1SOL    MW4 9528   3.814   3.912   3.907  0.2005  0.4148 -0.7787
    1SOL     OW 9529   3.614   4.032   3.742 -0.5845  0.4078  0.4651
    1SOL    HW2 9530   3.608   4.116   3.787  2.3111  1.1215 -0.3657
    1SOL    HW3 9531   3.685   3.986   3.786  0.2384 -0.1300 -1.3661
    1SOL    MW4 9532   3.622   4.037   3.754 -0.0939  0.4306  0.1140
    1SOL     OW 9533   3.597   4.254   3.893  0.2430  0.5598  0.4049
    1SOL    HW2 9534   3.603   4.228   3.985 -0.6550  1.1111  0.6296
    1SOL    HW3 9535   3.681   4.296   3.874  0.6461 -0.0586  0.8121
    1SOL    MW4 9536   3.609   4.256   3.902  0.1776  0.5507  0.4885
    1SOL     OW 9537   3.832   4.390   3.813 -0.0594  0.3924  0.2422
    1SOL    HW2 9538   3.899   4.325   3.835 -0.0695 -0.2360 -1.5213
    1SOL    HW3 9539   3.833   4.394   3.718 -2.0280  0.9218  0.2319
    1SOL    MW4 9540   3.841   4.382   3.804 -0.3207  0.3791  0.0081
    1SOL     OW 9541   4.287   0.024   3.881  0.6448  0.3395  0.3342
    1SOL    HW2 9542   4.295  -0.003   3.973  1.4679  1.0256  0.4663
    1SOL    HW3 9543   4.375   0.050   3.856  0.2603  0.9386 -0.4103
    1SOL    MW4 9544   4.299   0.024   3.890  0.7029  0.5091  0.2537
    1SOL     OW 9545   4.073   0.156   3.801 -0.1524  0.5697  0.0926
    1SOL    HW2 9546   4.152   0.110   3.829 -0.7989 -0.1353  0.7892
    1SOL    HW3 9547   4.066   0.138   3.708 -0.5367 -0.9750  0.4096
    1SOL    MW4 9548   4.082   0.148   3.793 -0.2880  0.2728  0.2263
    1SOL     OW 9549   4.100   0.393   3.935 -0.3828 -0.0502 -0.1576
    1SOL    HW2 9550   4.068   0.385   4.025  0.9707 -0.2196  0.3185
    1SOL    HW3 9551   4.077   0.309   3.894  0.4217 -0.5919  0.4947
    1SOL    MW4 9552   4.093   0.380   3.941 -0.0982 -0.1440 -0.0083
    1SOL     OW 9553   4.298   0.508   3.795  0.1731 -0.0182 -0.2385
    1SOL    HW2 9554   4.225   0.469   3.843 -0.0150  1.9350  1.1453
    1SOL    HW3 9555   4.263   0.521   3.707 -0.3212 -1.3422 -0.2522
    1SOL    MW4 9556   4.284   0.505   3.790  0.0830  0.0649 -0.0575
    1SOL     OW 9557   4.316   0.766   3.874 -0.3259  0.3906 -0.0367
    1SOL    HW2 9558   4.246   0.798   3.817  0.4648  0.1089 -1.1975
    1SOL    HW3 9559   4.317   0.671   3.860  0.3902  0.4125 -0.1751
    1SOL    MW4 9560   4.307   0.758   3.864 -0.1273  0.3564 -0.2081
    1SOL     OW 9561   4.092   0.877   3.746 -0.0883 -0.2530 -0.1127
    1SOL    HW2 9562   4.090   0.969   3.773  0.4522 -0.2822  0.0393
    1SOL    HW3 9563   4.059   0.878   3.656 -0.6723  0.0087  0.1021
    1SOL    MW4 9564   4.088   0.889   3.738 -0.0935 -0.2223 -0.0644
    1SOL     OW 9565   4.067   1.131   3.842 -0.2799  0.4662 -0.3952
    1SOL    HW2 9566   4.057   1.136   3.937  0.6319 -2.1682 -0.1035
    1SOL    HW3 9567   4.144   1.185   3.823  0.2790  0.0136  0.5337
    1SOL    MW4 9568   4.076   1.139   3.852 -0.0858  0.0590 -0.2341
    1SOL     OW 9569   4.291   1.271   3.776  0.3046  0.3082 -0.0446
    1SOL    HW2 9570   4.290   1.362   3.809 -0.2914  0.5981 -0.8539
    1SOL    HW3 9571   4.286   1.280   3.681  0.9203 -0.5648 -0.1596
    1SOL    MW4 9572   4.290   1.284   3.768  0.3071  0.2314 -0.1667
    1SOL     OW 9573   4.308   1.516   3.867 -0.1458 -0.0036  0.1190
    1SOL    HW2 9574   4.243   1.575   3.828 -0.7799  0.0991  1.3337
    1SOL    HW3 9575   4.392   1.556   3.845 -0.5130  0.3321 -0.7011
    1SOL    MW4 9576   4.311   1.529   3.859 -0.2780  0.0541  0.1709
    1SOL     OW 9577   4.089   1.707   3.829 -0.2244 -0.6633  0.1265
    1SOL    HW2 9578   4.070   1.788   3.877  0.5294 -0.1613 -0.4065
    1SOL    HW3 9579   4.016   1.649   3.850 -0.5239 -0.0173  0.9055
    1SOL    MW4 9580   4.077   1.710   3.838 -0.1640 -0.5118  0.1590
    1SOL     OW 9581   4.067   1.984   3.922  0.0670 -0.1472 -0.2889
    1SOL    HW2 9582   4.060   2.022   4.010  0.4584 -0.8455  0.0463
    1SOL    HW3 9583   4.136   2.035   3.879 -0.9253  0.9583 -0.5955
    1SOL    MW4 9584   4.075   1.996   3.928 -0.0119 -0.0935 -0.2851
    1SOL     OW 9585   4.300   2.118   3.808  0.0645 -0.3258  0.2547
    1SOL    HW2 9586   4.305   2.210   3.834  1.9089 -0.8011  1.7461
    1SOL    HW3 9587   4.292   2.120   3.713 -4.0806  1.4303  0.5488
    1SOL    MW4 9588   4.300   2.131   3.799 -0.2394 -0.1569  0.4904
    1SOL     OW 9589   4.286   2.376   3.915 -0.0505  0.2352 -0.5346
    1SOL    HW2 9590   4.251   2.357   4.002  1.0174 -0.8950 -0.3312
    1SOL    HW3 9591   4.209   2.400   3.863 -0.6424  1.3331  0.8143
    1SOL    MW4 9592   4.271   2.377   3.920  0.0119  0.2310 -0.3300
    1SOL     OW 9593   4.045   2.421   3.776 -0.1045 -0.0409 -0.2485
    1SOL    HW2 9594   4.048   2.511   3.811  0.0930 -0.0561 -0.2244
    1SOL    HW3 9595   3.970   2.381   3.819  0.3751 -0.1854  0.4680
    1SOL    MW4 9596   4.036   2.428   3.787 -0.0153 -0.0620 -0.1509
    1SOL     OW 9597   4.056   2.660   3.883  0.2296 -0.1694 -0.0586
    1SOL    HW2 9598   4.058   2.679   3.977 -1.8384  0.2250 -0.0730
    1SOL    HW3 9599   4.115   2.724   3.845  0.7142 -0.0146  0.9224
    1SOL    MW4 9600   4.064   2.671   3.891  0.0205 -0.0970  0.0689
    1SOL     OW 9601   4.246   2.842   3.764 -0.1362 -0.1095 -0.2281
    1SOL    HW2 9602   4.246   2.934   3.790  0.3156  0.0900 -0.9128
    1SOL    HW3 9603   4.322   2.805   3.808 -0.9747 -0.4334  0.9757
    1SOL    MW4 9604   4.256   2.849   3.774 -0.1869 -0.1259 -0.1597
    1SOL     OW 9605   4.242   3.108   3.875  0.1445  0.2726  0.0223
    1SOL    HW2 9606   4.165   3.164   3.865  0.2301  0.4615  0.3913
    1SOL    HW3 9607   4.310   3.151   3.824  0.4016  0.8800  0.8774
    1SOL    MW4 9608   4.240   3.121   3.867  0.1898  0.3777  0.1836
    1SOL     OW 9609   4.013   3.247   3.780  0.0597  0.5816 -0.2990
    1SOL    HW2 9610   3.961   3.175   3.815 -1.2203  2.1276  0.9913
    1SOL    HW3 9611   4.023   3.225   3.687  0.2004 -1.5558  0.1832
    1SOL    MW4 9612   4.008   3.235   3.772 -0.0906  0.5035 -0.0648
    1SOL     OW 9613   4.037   3.502   3.878 -0.2864 -0.2230  0.6214
    1SOL    HW2 9614   4.023   3.414   3.844 -0.7098  0.4248 -0.9109
    1SOL    HW3 9615   3.977   3.558   3.828  0.4133  1.0251  1.1445
    1SOL    MW4 9616   4.027   3.498   3.867 -0.2503  0.0272  0.4885
    1SOL     OW 9617   4.258   3.631   3.753 -0.0028 -0.3732  0.1439
    1SOL    HW2 9618   4.189   3.590   3.804 -0.3664 -0.3810 -0.3474
    1SOL    HW3 9619   4.339   3.597   3.790 -0.3046 -1.7178 -0.3972
    1SOL    MW4 9620   4.260   3.621   3.765 -0.0906 -0.5515  0.0079
    1SOL     OW 9621   4.300   3.885   3.893 -0.3057  0.6453  0.2580
    1SOL    HW2 9622   4.211   3.917   3.878  0.4892  2.3626 -0.9946
    1SOL    HW3 9623   4.304   3.801   3.849 -1.3242  0.5509  0.3386
    1SOL    MW4 9624   4.289   3.878   3.885 -0.3352  0.8595  0.1032
    1SOL     OW 9625   4.051   3.970   3.812 -0.9436 -0.0875  0.3727
    1SOL    HW2 9626   4.067   4.061   3.838 -1.8849  0.4418 -0.8503
    1SOL    HW3 9627   4.065   3.969   3.717  2.3956 -1.9812  0.8260
    1SOL    MW4 9628   4.055   3.982   3.803 -0.6275 -0.2675  0.2713
    1SOL     OW 9629   4.057   4.239   3.886 -0.6121  0.5271 -0.0972
    1SOL    HW2 9630   4.052   4.252   3.981  1.2965 -1.9385  0.3760
    1SOL    HW3 9631   4.134   4.288   3.859 -0.0093 -0.4152 -0.0750
    1SOL    MW4 9632   4.066   4.248   3.895 -0.2809  0.0772 -0.0319
    1SOL     OW 9633   4.276   4.440   3.770 -0.2823 -0.5068  0.1750
    1SOL    HW2 9634   4.282   4.528   3.807 -0.4275 -0.1993 -0.5226
    1SOL    HW3 9635   4.362   4.401   3.788  0.1134  0.1109 -0.3165
    1SOL    MW4 9636   4.288   4.446   3.777 -0.2499 -0.3848  0.0181
    1SOL     OW 9637   3.014   1.420   4.739 -0.4384 -0.0435  0.4305
    1SOL    HW2 9638   3.106   1.437   4.720 -0.8083 -0.8171 -2.2223
    1SOL    HW3 9639   3.014   1.384   4.827  2.1566 -3.0274 -0.6893
    1SOL    MW4 9640   3.026   1.418   4.748 -0.1450 -0.5392 -0.0672
    1SOL     OW 9641   4.068   4.241   4.159  0.0854 -0.2141 -0.1716
    1SOL    HW2 9642   4.062   4.157   4.205 -0.5132  0.0134  0.1657
    1SOL    HW3 9643   3.998   4.294   4.196  0.5294  0.4758 -0.3112
    1SOL    MW4 9644   4.058   4.237   4.170  0.0648 -0.0930 -0.1454
    1SOL     OW 9645   1.944   4.548   4.583  0.0029  0.4814 -0.1488
    1SOL    HW2 9646   1.927   4.570   4.675  0.6003 -0.3187  0.1562
    1SOL    HW3 9647   1.890   4.610   4.533 -2.1836 -0.6109  0.7742
    1SOL    MW4 9648   1.935   4.559   4.588 -0.2068  0.2313  0.0129
    1SOL     OW 9649   0.677   0.734   4.185 -0.0914  0.8515  0.5837
    1SOL    HW2 9650   0.737   0.808   4.195 -0.6374  1.5903 -1.4067
    1SOL    HW3 9651   0.666   0.725   4.091 -1.4921 -0.5967  0.8728
    1SOL    MW4 9652   0.683   0.743   4.174 -0.3482  0.7579  0.3591
    1SOL     OW 9653   4.292   0.793   4.143  0.3346  0.1264  0.5824
    1SOL    HW2 9654   4.277   0.779   4.050 -0.1919  0.0315  0.6749
    1SOL    HW3 9655   4.378   0.833   4.149  0.5837 -0.3410  0.0932
    1SOL    MW4 9656   4.301   0.797   4.132  0.2980  0.0522  0.5302
    1SOL     OW 9657   2.025   2.197   4.464 -0.3923  0.3345 -0.1959
    1SOL    HW2 9658   2.048   2.212   4.556 -0.1368 -0.4739 -0.1230
    1SOL    HW3 9659   2.101   2.229   4.415 -0.3127  0.2845 -0.1039
    1SOL    MW4 9660   2.038   2.203   4.470 -0.3479  0.2215 -0.1740
    1SOL     OW 9661   0.048   1.197   4.140  0.2720  0.4239 -0.1118
    1SOL    HW2 9662  -0.022   1.245   4.185 -0.3987 -1.8846  1.3668
    1SOL    HW3 9663   0.128   1.224   4.186 -0.3172 -1.3093  2.0299
    1SOL    MW4 9664   0.050   1.207   4.152  0.1058 -0.1093  0.3662
    1SOL     OW 9665   1.192   2.823   4.226 -0.4024  0.4430  0.4467
    1SOL    HW2 9666   1.194   2.902   4.172  0.4985  0.5937  0.6891
    1SOL    HW3 9667   1.178   2.856   4.315 -0.2153  0.3212  0.5209
    1SOL    MW4 9668   1.191   2.838   4.230 -0.2588  0.4468  0.4888
    1SOL     OW 9669   0.593   4.265   4.541  0.0272  0.6206 -0.6413
    1SOL    HW2 9670   0.506   4.300   4.522 -0.7650 -0.0623  1.5238
    1SOL    HW3 9671   0.578   4.174   4.566  1.3357  0.5295 -0.1089
    1SOL    MW4 9672   0.580   4.258   4.542  0.0954  0.5188 -0.2847
    1SOL     OW 9673   3.232   3.474   4.626 -0.7371  1.0076  0.3372
    1SOL    HW2 9674   3.278   3.532   4.566 -0.3843  0.1473 -0.2363
    1SOL    HW3 9675   3.271   3.492   4.712  0.5668  0.3907 -0.1233
    1SOL    MW4 9676   3.243   3.484   4.630 -0.5186  0.8128  0.2012
    1SOL     OW 9677   0.682   3.553   4.619 -0.0747  0.1869 -0.1845
    1SOL    HW2 9678   0.753   3.550   4.555  0.1292  1.6981 -0.0461
    1SOL    HW3 9679   0.725   3.537   4.703  0.0832  0.9642 -0.1162
    1SOL    MW4 9680   0.697   3.550   4.622 -0.0270  0.4888 -0.1578
    1SOL     OW 9681   1.424   4.006   4.234  0.3056 -0.0556 -0.1280
    1SOL    HW2 9682   1.482   3.960   4.174  0.3394 -2.4883  1.6729
    1SOL    HW3 9683   1.469   4.002   4.319 -0.8858  1.0868  0.5739
    1SOL    MW4 9684   1.437   3.999   4.237  0.1528 -0.2263  0.2022
    1SOL     OW 9685   0.216   2.336   4.157  0.2697 -0.3093  0.1295
    1SOL    HW2 9686   0.224   2.248   4.194 -0.4650 -0.5813 -0.3492
    1SOL    HW3 9687   0.305   2.371   4.159  0.6863 -1.3362 -0.3600
    1SOL    MW4 9688   0.229   2.329   4.162  0.2277 -0.4807  0.0014
    1SOL     OW 9689   1.150   4.389   4.251 -0.0018  0.2460  0.1842
    1SOL    HW2 9690   1.074   4.333   4.237 -0.1681  0.6619 -0.5575
    1SOL    HW3 9691   1.223   4.339   4.215 -0.0248  0.1515  0.2669
    1SOL    MW4 9692   1.150   4.375   4.244 -0.0267  0.2885  0.0973
    1SOL     OW 9693   4.304   4.349   4.244  0.0399  0.3430  0.5528
    1SOL    HW2 9694   4.291   4.440   4.217 -0.6122  0.6491  1.8763
    1SOL    HW3 9695   4.227   4.303   4.211  1.0782 -0.0369 -1.4135
    1SOL    MW4 9696   4.292   4.355   4.236  0.0906  0.3333  0.4678
    1SOL     OW 9697   0.207   1.489   4.624 -0.1486 -0.3580  0.4508
    1SOL    HW2 9698   0.263   1.546   4.572  0.7426 -1.2976  0.3784
    1SOL    HW3 9699   0.223   1.517   4.714 -1.1585  0.7878  0.2932
    1SOL    MW4 9700   0.217   1.501   4.629 -0.1643 -0.3307  0.4210
    1SOL     OW 9701   0.254   2.825   4.247  0.1920 -0.0131 -0.0276
    1SOL    HW2 9702   0.253   2.916   4.215  0.4225 -0.3294 -0.9500
    1SOL    HW3 9703   0.175   2.786   4.210 -0.7598  0.2422  1.6831
    1SOL    MW4 9704   0.243   2.832   4.238  0.0968 -0.0210  0.0763
    1SOL     OW 9705   1.840   1.546   4.890 -0.0939 -0.1684  0.2842
    1SOL    HW2 9706   1.757   1.509   4.860 -0.3274 -0.1892  0.9517
    1SOL    HW3 9707   1.907   1.490   4.852 -0.3733  0.0302 -0.5140
    1SOL    MW4 9708   1.838   1.534   4.881 -0.1615 -0.1451  0.2670
    1SOL     OW 9709   4.287   3.088   4.153 -0.1251 -0.1270 -0.0252
    1SOL    HW2 9710   4.353   3.149   4.185 -1.2618  1.2320 -0.2082
    1SOL    HW3 9711   4.290   3.098   4.058  0.6993 -1.4402 -0.1384
    1SOL    MW4 9712   4.296   3.098   4.145 -0.1669 -0.1209 -0.0644
    1SOL     OW 9713   3.648   2.583   4.472  0.1550 -0.5210  0.0599
    1SOL    HW2 9714   3.651   2.613   4.381  0.9498  0.8672  0.5270
    1SOL    HW3 9715   3.739   2.583   4.500  0.0107 -2.0167  0.5268
    1SOL    MW4 9716   3.660   2.587   4.463  0.2410 -0.5350  0.1831
    1SOL     OW 9717   2.002   1.343   4.714 -0.2279  0.4850 -0.2879
    1SOL    HW2 9718   1.975   1.253   4.732  0.3074  0.6331  1.3051
    1SOL    HW3 9719   2.098   1.340   4.713 -0.2057  1.0778 -0.0429
    1SOL    MW4 9720   2.011   1.331   4.716 -0.1543  0.5826 -0.0453
    1SOL     OW 9721   1.422   1.835   4.629  0.2839  0.3639 -0.1372
    1SOL    HW2 9722   1.451   1.920   4.665  1.7459  0.1356 -0.7338
    1SOL    HW3 9723   1.502   1.783   4.625 -0.4358 -0.7031 -0.7540
    1SOL    MW4 9724   1.437   1.840   4.633  0.3819  0.1930 -0.2975
    1SOL     OW 9725   0.285   4.417   4.226 -0.0913  0.5734 -0.3395
    1SOL    HW2 9726   0.289   4.407   4.321  1.3167 -0.3385 -0.4712
    1SOL    HW3 9727   0.211   4.363   4.199  1.1732 -1.3475 -0.0192
    1SOL    MW4 9728   0.276   4.409   4.235  0.2613  0.1988 -0.3142
    1SOL     OW 9729   3.187   1.232   4.103  0.0485  0.0045 -0.2234
    1SOL    HW2 9730   3.197   1.232   4.008  0.9226  0.0720 -0.1406
    1SOL    HW3 9731   3.104   1.276   4.119  0.2676  0.6794 -0.9214
    1SOL    MW4 9732   3.178   1.238   4.093  0.1929  0.1025 -0.3047
    1SOL     OW 9733   1.103   0.776   4.125  0.2923  0.3040  0.3440
    1SOL    HW2 9734   1.027   0.828   4.152  0.1103  0.1840  0.0690
    1SOL    HW3 9735   1.167   0.789   4.195 -0.6263 -0.9706  1.4377
    1SOL    MW4 9736   1.101   0.785   4.138  0.1471  0.1200  0.4520
    1SOL     OW 9737   0.718   0.104   4.161  0.3500 -0.0736  0.1172
    1SOL    HW2 9738   0.780   0.173   4.141  0.3328 -0.2831 -0.6669
    1SOL    HW3 9739   0.698   0.064   4.077 -0.6284 -0.1941  0.3951
    1SOL    MW4 9740   0.724   0.108   4.148  0.2186 -0.1171  0.0505
    1SOL     OW 9741   0.417   0.401   4.178 -0.2460 -0.4693 -0.2522
    1SOL    HW2 9742   0.508   0.424   4.194 -0.3024  0.2197 -0.8635
    1SOL    HW3 9743   0.410   0.399   4.082 -1.0768  0.3371 -0.2114
    1SOL    MW4 9744   0.428   0.404   4.167 -0.3631 -0.2720 -0.3271
    1SOL     OW 9745   0.891   0.918   4.230  0.3307 -0.4640  0.3195
    1SOL    HW2 9746   0.916   1.005   4.199 -1.0133 -0.1116  0.2149
    1SOL    HW3 9747   0.891   0.925   4.325  0.8208 -0.5261  0.3270
    1SOL    MW4 9748   0.894   0.930   4.238  0.2180 -0.4257  0.3071
    1SOL     OW 9749   4.034   0.680   4.831  0.0709  0.4237  0.2255
    1SOL    HW2 9750   3.974   0.718   4.767  1.3148  1.8741 -0.1003
    1SOL    HW3 9751   4.000   0.710   4.916 -2.2184 -2.3926  0.3853
    1SOL    MW4 9752   4.021   0.689   4.834 -0.0672  0.2435  0.2036
    1SOL     OW 9753   2.814   2.230   4.276 -0.0462  0.4379 -0.2646
    1SOL    HW2 9754   2.826   2.168   4.348  0.5390  0.1387 -0.6110
    1SOL    HW3 9755   2.733   2.276   4.297  0.1086  0.3410  0.5755
    1SOL    MW4 9756   2.805   2.228   4.288  0.0513  0.3858 -0.1998
    1SOL     OW 9757   0.702   1.554   4.160  0.3426  0.6066 -0.1595
    1SOL    HW2 9758   0.682   1.469   4.197 -1.7513  1.2097  0.1322
    1SOL    HW3 9759   0.679   1.546   4.067 -1.3636  1.3086  0.1844
    1SOL    MW4 9760   0.697   1.542   4.153 -0.1588  0.7788 -0.0758
    1SOL     OW 9761   0.208   0.715   4.113 -0.0918 -0.2126 -0.5278
    1SOL    HW2 9762   0.161   0.632   4.123  0.1253 -0.2491  0.2389
    1SOL    HW3 9763   0.153   0.779   4.158  0.1275 -0.0795 -0.4526
    1SOL    MW4 9764   0.194   0.713   4.120 -0.0342 -0.1999 -0.4168
    1SOL     OW 9765   0.858   2.455   4.493 -0.0709  0.5382 -0.0178
    1SOL    HW2 9766   0.850   2.362   4.515 -1.0762  0.5971 -0.1160
    1SOL    HW3 9767   0.882   2.455   4.401  0.8751  0.3602  0.2221
    1SOL    MW4 9768   0.860   2.442   4.484 -0.0788  0.5226  0.0010
    1SOL     OW 9769   4.121   1.163   4.596 -0.2253  0.3176  0.2759
    1SOL    HW2 9770   4.190   1.214   4.554 -0.8897 -0.0378 -1.3050
    1SOL    HW3 9771   4.041   1.213   4.580 -0.4196  0.4906  1.6857
    1SOL    MW4 9772   4.119   1.176   4.588 -0.3386  0.2934  0.2532
    1SOL     OW 9773   0.503   1.956   4.150 -0.2738  0.0220 -0.4048
    1SOL    HW2 9774   0.579   2.000   4.190 -0.1372  0.1661 -0.8164
    1SOL    HW3 9775   0.524   1.953   4.056 -0.6478 -0.1985 -0.4817
    1SOL    MW4 9776   0.516   1.962   4.143 -0.3051  0.0119 -0.4692
    1SOL     OW 9777   2.052   3.288   4.492  0.5247  0.2934  0.1686
    1SOL    HW2 9778   1.958   3.278   4.506  0.5963 -0.4743  0.1547
    1SOL    HW3 9779   2.083   3.198   4.479  1.1387  0.6133 -0.5729
    1SOL    MW4 9780   2.044   3.275   4.492  0.6149  0.2344  0.0687
    1SOL     OW 9781   0.700   2.321   4.118  0.0860  0.4907  0.0265
    1SOL    HW2 9782   0.616   2.360   4.138 -0.6435 -1.1363  0.1943
    1SOL    HW3 9783   0.698   2.306   4.023  0.6194  1.4233 -0.1411
    1SOL    MW4 9784   0.689   2.324   4.108  0.0602  0.3989  0.0262
    1SOL     OW 9785   2.092   4.127   4.473  0.3723  0.2482 -0.0858
    1SOL    HW2 9786   2.138   4.207   4.498  0.3991 -0.2854  1.6089
    1SOL    HW3 9787   2.149   4.086   4.408  0.7606  1.1701 -0.3376
    1SOL    MW4 9788   2.106   4.133   4.468  0.4272  0.2995  0.1049
    1SOL     OW 9789   0.700   2.842   4.196 -0.5223  0.1553 -0.6437
    1SOL    HW2 9790   0.778   2.788   4.186 -0.3423  0.3701 -0.3802
    1SOL    HW3 9791   0.628   2.786   4.165 -0.4665 -0.6023  0.5668
    1SOL    MW4 9792   0.701   2.828   4.191 -0.4911  0.0837 -0.4492
    1SOL     OW 9793   1.642   2.793   4.208 -0.5518 -0.4226  0.1199
    1SOL    HW2 9794   1.625   2.802   4.302 -1.0859  1.9583 -0.1687
    1SOL    HW3 9795   1.729   2.754   4.203 -0.2681 -0.0242  1.6079
    1SOL    MW4 9796   1.651   2.789   4.220 -0.5847 -0.0560  0.2785
    1SOL     OW 9797   0.681   3.094   4.075  0.6520 -0.1105  0.2618
    1SOL    HW2 9798   0.687   3.001   4.098 -1.4599 -0.6625 -1.2361
    1SOL    HW3 9799   0.610   3.127   4.130  0.5122  0.2894 -0.1546
    1SOL    MW4 9800   0.672   3.086   4.085  0.3549 -0.1304  0.0100
    1SOL     OW 9801   0.013   3.238   4.253 -0.5126 -0.2195  0.3494
    1SOL    HW2 9802   0.014   3.319   4.201 -0.3622  0.2965  1.1520
    1SOL    HW3 9803  -0.022   3.264   4.338  2.6082 -0.2825  1.7264
    1SOL    MW4 9804   0.009   3.252   4.257 -0.0810 -0.1597  0.6371
    1SOL     OW 9805   1.239   0.956   4.574 -0.3509  0.7069 -0.1445
    1SOL    HW2 9806   1.179   0.894   4.615 -0.4295  1.4301  0.8556
    1SOL    HW3 9807   1.267   0.913   4.493 -0.9633 -0.3144  0.1822
    1SOL    MW4 9808   1.235   0.942   4.568 -0.4421  0.6676  0.0300
    1SOL     OW 9809   3.574   3.761   4.596 -0.0593  0.2506 -0.2083
    1SOL    HW2 9810   3.666   3.740   4.582  0.4085  1.3913  1.0584
    1SOL    HW3 9811   3.545   3.698   4.662  0.6517  1.8514  1.6700
    1SOL    MW4 9812   3.582   3.750   4.603  0.0961  0.6125  0.2065
    1SOL     OW 9813   0.758   3.555   4.238  0.1649 -0.1511  0.3478
    1SOL    HW2 9814   0.811   3.513   4.170  2.3568  1.1299  1.2068
    1SOL    HW3 9815   0.795   3.523   4.320 -0.9434  0.1311  0.9661
    1SOL    MW4 9816   0.770   3.545   4.239  0.3079  0.0548  0.5422
    1SOL     OW 9817   2.544   0.596   4.445 -0.2630  0.0802 -0.2834
    1SOL    HW2 9818   2.613   0.531   4.459 -1.4970 -0.9426  1.1780
    1SOL    HW3 9819   2.526   0.591   4.351  0.0693 -1.2782 -0.2914
    1SOL    MW4 9820   2.551   0.587   4.434 -0.3822 -0.2339 -0.0920
    1SOL     OW 9821   4.327   0.448   4.508 -0.1808 -0.0125  0.0108
    1SOL    HW2 9822   4.248   0.422   4.555  0.6027 -1.0044  0.8138
    1SOL    HW3 9823   4.297   0.469   4.419 -1.1778 -1.4089  0.0119
    1SOL    MW4 9824   4.312   0.448   4.502 -0.2093 -0.3276  0.1173
    1SOL     OW 9825   0.302   4.345   4.497  0.1971  0.7294 -0.1571
    1SOL    HW2 9826   0.241   4.271   4.491  0.7048  0.3755 -1.1334
    1SOL    HW3 9827   0.252   4.414   4.540 -0.1713 -0.2937  1.0954
    1SOL    MW4 9828   0.287   4.345   4.501  0.2155  0.5479 -0.1206
    1SOL     OW 9829   0.955   0.106   4.360 -0.3354 -0.1576  0.3947
    1SOL    HW2 9830   0.883   0.044   4.358 -0.0576 -0.4677  0.0211
    1SOL    HW3 9831   1.005   0.089   4.280 -0.1801  0.4530  0.3568
    1SOL    MW4 9832   0.952   0.096   4.350 -0.2784 -0.1180  0.3405
    1SOL     OW 9833   0.932   0.329   4.549 -0.0616 -0.3161  0.3543
    1SOL    HW2 9834   0.838   0.349   4.550 -0.0672 -0.3363  0.2796
    1SOL    HW3 9835   0.943   0.270   4.475  0.1663  0.4801 -0.2638
    1SOL    MW4 9836   0.921   0.324   4.539 -0.0323 -0.2138  0.2627
    1SOL     OW 9837   1.303   4.514   4.451 -0.4408 -0.0512  0.1660
    1SOL    HW2 9838   1.259   4.462   4.383 -0.9360 -0.1002  0.5237
    1SOL    HW3 9839   1.232   4.554   4.500 -0.0548  1.0946 -0.2011
    1SOL    MW4 9840   1.288   4.512   4.448 -0.4551  0.0935  0.1650
    1SOL     OW 9841   0.463   1.691   4.239  0.2263 -0.0255  0.1828
    1SOL    HW2 9842   0.546   1.644   4.233  0.1772  0.0613 -1.2343
    1SOL    HW3 9843   0.485   1.781   4.216 -0.6294 -0.4316 -2.3702
    1SOL    MW4 9844   0.477   1.697   4.235  0.1069 -0.0677 -0.3414
    1SOL     OW 9845   1.309   0.853   4.319  0.5652 -0.2927 -0.4430
    1SOL    HW2 9846   1.381   0.805   4.277  2.4081  2.2875 -0.3871
    1SOL    HW3 9847   1.303   0.935   4.269 -1.5413  0.0372  0.3174
    1SOL    MW4 9848   1.318   0.858   4.307  0.5305  0.0913 -0.3357
    1SOL     OW 9849   1.088   0.511   4.230 -0.9057  0.1228  0.3018
    1SOL    HW2 9850   1.102   0.531   4.322  0.7580  1.3061 -0.1706
    1SOL    HW3 9851   1.069   0.596   4.190  0.1329 -0.1037 -0.7222
    1SOL    MW4 9852   1.087   0.525   4.237 -0.5492  0.2491  0.1044
    1SOL     OW 9853   0.935   1.181   4.120 -0.2919 -0.0341  0.1054
    1SOL    HW2 9854   0.846   1.215   4.129 -0.0752  0.3832  0.6763
    1SOL    HW3 9855   0.982   1.214   4.197  0.5060  0.2145 -0.4736
    1SOL    MW4 9856   0.930   1.190   4.131 -0.1580  0.0538  0.1040
    1SOL     OW 9857   4.257   1.643   4.664  0.2457 -0.5174  0.0846
    1SOL    HW2 9858   4.186   1.615   4.607  2.3239 -1.5036 -2.1158
    1SOL    HW3 9859   4.263   1.738   4.651  0.2172 -0.6301 -0.8145
    1SOL    MW4 9860   4.248   1.652   4.655  0.5159 -0.6623 -0.3238
    1SOL     OW 9861   4.079   3.824   4.523 -0.2058  0.0571 -0.3786
    1SOL    HW2 9862   4.140   3.750   4.527  0.2917  0.4317 -0.8789
    1SOL    HW3 9863   3.994   3.786   4.542  0.1421 -0.5323  0.0181
    1SOL    MW4 9864   4.076   3.809   4.526 -0.0949  0.0288 -0.3920
    1SOL     OW 9865   0.911   3.473   4.470 -0.7274  0.3865  0.4314
    1SOL    HW2 9866   0.914   3.403   4.534  0.0837  1.1824  1.2783
    1SOL    HW3 9867   0.996   3.516   4.477 -0.9687  1.0466 -0.5371
    1SOL    MW4 9868   0.922   3.470   4.479 -0.6522  0.5784  0.4153
    1SOL     OW 9869   0.338   1.708   4.491  0.4627 -0.1836  0.3950
    1SOL    HW2 9870   0.329   1.801   4.516  0.0243 -0.3072  0.7049
    1SOL    HW3 9871   0.380   1.711   4.405  1.5639  0.2666  0.9368
    1SOL    MW4 9872   0.343   1.721   4.483  0.5502 -0.1404  0.5069
    1SOL     OW 9873   0.923   1.909   4.125 -0.2177 -0.1407 -0.4270
    1SOL    HW2 9874   1.002   1.954   4.154 -0.7875  0.6854 -0.1514
    1SOL    HW3 9875   0.942   1.882   4.035  1.1330 -1.7196  0.3098
    1SOL    MW4 9876   0.936   1.911   4.117 -0.1146 -0.2401 -0.2933
    1SOL     OW 9877   2.605   2.312   4.528 -0.2285  0.5139 -0.1046
    1SOL    HW2 9878   2.531   2.362   4.494 -0.4547  0.4532  0.2898
    1SOL    HW3 9879   2.570   2.224   4.544 -0.5239  0.9355  1.6748
    1SOL    MW4 9880   2.591   2.307   4.526 -0.2975  0.5615  0.1822
    1SOL     OW 9881   0.509   4.012   4.575  0.2863 -0.5499  0.6110
    1SOL    HW2 9882   0.489   3.988   4.485  0.6494 -1.7949  0.8551
    1SOL    HW3 9883   0.437   3.975   4.626  1.3649 -2.0289  1.1007
    1SOL    MW4 9884   0.497   4.004   4.570  0.4766 -0.9093  0.7081
    1SOL     OW 9885   0.945   2.719   4.152  0.1622 -0.0314  0.2489
    1SOL    HW2 9886   0.932   2.629   4.182  0.3238  0.1522  0.8695
    1SOL    HW3 9887   1.028   2.746   4.191  0.8229 -0.0899 -1.0765
    1SOL    MW4 9888   0.955   2.711   4.161  0.2707 -0.0145  0.1564
    1SOL     OW 9889   1.175   3.341   4.625 -0.4590  0.2989  0.6766
    1SOL    HW2 9890   1.262   3.304   4.644 -1.1418 -0.4446  2.4937
    1SOL    HW3 9891   1.193   3.422   4.578  1.1641 -0.8634 -0.7414
    1SOL    MW4 9892   1.189   3.347   4.622 -0.3347  0.0472  0.7296
    1SOL     OW 9893   1.179   3.056   4.081 -0.5055  0.3412 -0.6380
    1SOL    HW2 9894   1.172   3.066   3.986 -1.3551 -0.8553 -0.7111
    1SOL    HW3 9895   1.091   3.073   4.113 -0.7498 -1.5134 -0.2834
    1SOL    MW4 9896   1.167   3.060   4.073 -0.6498 -0.0615 -0.6008
    1SOL     OW 9897   3.584   0.125   4.282  0.2956  0.0556  0.5562
    1SOL    HW2 9898   3.662   0.072   4.263  0.5907 -0.0496  2.0345
    1SOL    HW3 9899   3.599   0.207   4.235  0.5751 -0.5470 -0.4375
    1SOL    MW4 9900   3.597   0.129   4.273  0.3712 -0.0378  0.6199
    1SOL     OW 9901   0.238   3.642   4.208 -0.7014 -0.3224 -0.1342
    1SOL    HW2 9902   0.248   3.728   4.167 -1.1601 -0.5867 -0.8181
    1SOL    HW3 9903   0.318   3.595   4.184 -1.3766 -0.7956 -1.5426
    1SOL    MW4 9904   0.250   3.647   4.199 -0.8510 -0.4199 -0.4101
    1SOL     OW 9905   4.046   2.738   4.173 -0.3073 -0.0851  0.3372
    1SOL    HW2 9906   4.012   2.652   4.199  0.7674 -0.4895  0.4205
    1SOL    HW3 9907   3.991   2.801   4.221 -0.4949 -0.7511  1.0064
    1SOL    MW4 9908   4.034   2.735   4.183 -0.1903 -0.2265  0.4368
    1SOL     OW 9909   2.088   2.878   4.213  0.0753 -0.5785  0.0009
    1SOL    HW2 9910   2.015   2.825   4.181  0.3120  0.0218 -1.5841
    1SOL    HW3 9911   2.166   2.832   4.180  0.3232  0.1082 -0.3646
    1SOL    MW4 9912   2.089   2.865   4.204  0.1392 -0.4084 -0.2570
    1SOL     OW 9913   0.463   3.230   4.198 -0.1291  0.4867 -0.3672
    1SOL    HW2 9914   0.457   3.325   4.195 -0.1380  0.5301  1.0095
    1SOL    HW3 9915   0.467   3.208   4.291 -0.8421 -0.9079 -0.6438
    1SOL    MW4 9916   0.463   3.240   4.210 -0.2243  0.3083 -0.2222
    1SOL     OW 9917   0.936   4.235   4.157 -0.3589  0.1858  0.2732
    1SOL    HW2 9918   0.851   4.256   4.195 -0.8103 -1.0078 -0.0597
    1SOL    HW3 9919   0.966   4.159   4.207 -0.0370 -0.1332 -0.4057
    1SOL    MW4 9920   0.929   4.228   4.169 -0.3762 -0.0138  0.1397
    1SOL     OW 9921   1.365   4.063   4.657 -0.4538  0.4382  0.2757
    1SOL    HW2 9922   1.392   4.152   4.635 -0.0700  0.3609  0.4268
    1SOL    HW3 9923   1.271   4.069   4.672 -0.9645  0.2772 -2.5788
    1SOL    MW4 9924   1.356   4.075   4.656 -0.4705  0.4067 -0.0806
    1SOL     OW 9925   2.682   3.984   4.262  0.1829 -0.3467 -0.1285
    1SOL    HW2 9926   2.686   3.936   4.345  1.1846 -1.0265 -0.5518
    1SOL    HW3 9927   2.608   3.946   4.215  0.1338 -0.5415  0.1084
    1SOL    MW4 9928   2.673   3.973   4.267  0.3088 -0.4618 -0.1531
    1SOL     OW 9929   1.145   4.661   4.205  0.0329 -0.1109  0.0273
    1SOL    HW2 9930   1.147   4.569   4.231 -0.2908 -0.2348 -0.3899
    1SOL    HW3 9931   1.135   4.659   4.110 -2.1862  0.3703  0.2163
    1SOL    MW4 9932   1.144   4.649   4.196 -0.3026 -0.0634 -0.0029
    1SOL     OW 9933   1.294   0.367   4.098  0.3627  0.4978  0.0647
    1SOL    HW2 9934   1.209   0.390   4.136 -0.4768 -1.1007 -0.7856
    1SOL    HW3 9935   1.315   0.282   4.137  1.8747  1.1476  0.7220
    1SOL    MW4 9936   1.286   0.359   4.108  0.4513  0.3726  0.0396
    1SOL     OW 9937   1.755   3.227   4.535  0.4277  0.2387  0.1296
    1SOL    HW2 9938   1.762   3.229   4.439 -2.1938  0.3948 -0.1048
    1SOL    HW3 9939   1.775   3.137   4.559  2.0145  0.4103 -0.4475
    1SOL    MW4 9940   1.759   3.216   4.525  0.2911  0.2820  0.0224
    1SOL     OW 9941   2.528   2.048   4.528 -0.4301 -0.2950  0.2810
    1SOL    HW2 9942   2.499   2.058   4.438  0.5797 -2.5778 -0.3361
    1SOL    HW3 9943   2.464   1.988   4.567 -0.1104 -0.3616  0.7017
    1SOL    MW4 9944   2.516   2.042   4.521 -0.2549 -0.6049  0.2551
    1SOL     OW 9945   1.714   4.377   4.530  0.2970  0.2786  0.5774
    1SOL    HW2 9946   1.689   4.413   4.445 -3.3619 -0.5961  1.2099
    1SOL    HW3 9947   1.802   4.411   4.545  0.1306  2.2872 -2.5172
    1SOL    MW4 9948   1.722   4.386   4.521 -0.2077  0.4282  0.2527
    1SOL     OW 9949   0.936   3.153   4.201 -0.1705  0.1929 -0.1040
    1SOL    HW2 9950   0.938   3.128   4.293  0.4758 -2.2756 -0.7495
    1SOL    HW3 9951   0.854   3.117   4.168  0.4089 -0.4459 -0.8756
    1SOL    MW4 9952   0.926   3.145   4.209 -0.0088 -0.2172 -0.2913
    1SOL     OW 9953   1.302   1.095   4.170  0.1342  0.2399 -0.1586
    1SOL    HW2 9954   1.395   1.110   4.191  0.2974  3.1410 -2.4928
    1SOL    HW3 9955   1.298   1.106   4.075 -2.5461 -0.2990 -0.1325
    1SOL    MW4 9956   1.314   1.098   4.160 -0.1979  0.5516 -0.4630
    1SOL     OW 9957   2.888   2.929   4.529  0.1494 -0.4135 -0.2168
    1SOL    HW2 9958   2.962   2.979   4.562 -0.3584 -0.1155  0.5018
    1SOL    HW3 9959   2.921   2.883   4.452  0.9540  0.0533 -0.1483
    1SOL    MW4 9960   2.902   2.929   4.524  0.1886 -0.3126 -0.1130
    1SOL     OW 9961   3.777   4.292   4.543  0.0149  0.1801 -0.3755
    1SOL    HW2 9962   3.861   4.285   4.588  0.1259  0.9866 -0.4591
    1SOL    HW3 9963   3.739   4.204   4.550  0.4110  0.0804  0.5449
    1SOL    MW4 9964   3.783   4.279   4.550  0.0818  0.2737 -0.2656
    1SOL     OW 9965   2.862   2.521   4.434 -0.3476 -0.1279  0.3140
    1SOL    HW2 9966   2.798   2.481   4.375  1.2006  1.1614 -2.3425
    1SOL    HW3 9967   2.813   2.589   4.480 -1.1926  0.0569 -0.8305
    1SOL    MW4 9968   2.847   2.525   4.432 -0.2546  0.0665 -0.1874
    1SOL     OW 9969   0.905   0.141   4.779  0.3950  0.0898  0.6143
    1SOL    HW2 9970   0.953   0.073   4.731 -1.8021 -0.6837 -0.5634
    1SOL    HW3 9971   0.919   0.221   4.728 -0.6324 -0.4097 -0.4886
    1SOL    MW4 9972   0.913   0.143   4.766 -0.0304 -0.0781  0.3138
    1SOL     OW 9973   2.145   0.416   4.638  0.6342  0.1500 -0.0679
    1SOL    HW2 9974   2.068   0.373   4.603 -0.5517 -0.0439  2.6323
    1SOL    HW3 9975   2.136   0.507   4.612 -0.7784  0.2269  0.6421
    1SOL    MW4 9976   2.134   0.422   4.630  0.2916  0.1346  0.3819
    1SOL     OW 9977   1.813   2.712   3.857 -0.4452 -0.1615 -0.2843
    1SOL    HW2 9978   1.726   2.743   3.832 -0.3572 -0.1501 -0.5834
    1SOL    HW3 9979   1.807   2.617   3.851 -0.7156 -0.2073  0.6358
    1SOL    MW4 9980   1.801   2.703   3.853 -0.4692 -0.1657 -0.2019
    1SOL     OW 9981   3.500   3.558   4.783  0.3003  0.1857 -0.3031
    1SOL    HW2 9982   3.569   3.500   4.750  0.0499  0.1522 -0.7697
    1SOL    HW3 9983   3.512   3.558   4.878  1.7050  1.1263 -0.4545
    1SOL    MW4 9984   3.511   3.551   4.791  0.4528  0.3052 -0.3848
    1SOL     OW 9985   1.127   2.083   4.237 -0.0586  0.0262 -0.1030
    1SOL    HW2 9986   1.184   2.010   4.258 -1.4953 -1.2673 -0.6154
    1SOL    HW3 9987   1.118   2.131   4.319  1.8562  0.3395 -0.0475
    1SOL    MW4 9988   1.134   2.080   4.250  0.0045 -0.1030 -0.1636
    1SOL     OW 9989   3.546   3.976   4.238  0.7469  0.0812 -0.5496
    1SOL    HW2 9990   3.631   3.936   4.216  2.4201  3.2074 -0.1395
    1SOL    HW3 9991   3.485   3.938   4.176  2.7408 -1.2397 -1.7789
    1SOL    MW4 9992   3.549   3.966   4.227  1.2307  0.3192 -0.6580
    1SOL     OW 9993   3.187   1.006   4.471  0.0802  0.5298 -0.1145
    1SOL    HW2 9994   3.212   0.996   4.379  1.6817 -0.1290  0.3797
    1SOL    HW3 9995   3.133   1.085   4.472 -1.4239 -0.4196 -1.8999
    1SOL    MW4 9996   3.183   1.015   4.459  0.0930  0.3175 -0.2851
    1SOL     OW 9997   4.020   4.288   4.655 -0.0664  0.2654  0.0792
    1SOL    HW2 9998   4.090   4.326   4.602 -0.6979 -0.1587 -1.0874
    1SOL    HW3 9999   4.057   4.205   4.687 -0.0033  0.0950 -0.4384
    1SOL    MW410000   4.034   4.282   4.652 -0.1411  0.1869 -0.1431
    1SOL     OW10001   1.813   0.135   4.193  0.3065  0.0143 -0.0871
    1SOL    HW210002   1.886   0.076   4.177  0.1361  0.1480 -1.3950
    1SOL    HW310003   1.735   0.086   4.168  0.0367  0.2712  0.2264
    1SOL    MW410004   1.812   0.121   4.188  0.2484  0.0658 -0.2184
    1SOL     OW10005   0.724   3.824   4.138 -0.0906 -0.4758 -0.4088
    1SOL    HW210006   0.801   3.876   4.160 -0.4279 -0.4474  0.7387
    1SOL    HW310007   0.739   3.739   4.179 -0.4781 -0.6042 -0.5262
    1SOL    MW410008   0.736   3.820   4.147 -0.1863 -0.4888 -0.2728
    1SOL     OW10009   0.948   3.967   4.268  0.0637 -0.6384  0.5507
    1SOL    HW210010   0.954   3.967   4.363  0.5070  1.2620  0.5425
    1SOL    HW310011   1.037   3.945   4.238  0.1610 -0.2768  0.5721
    1SOL    MW410012   0.961   3.964   4.276  0.1351 -0.3400  0.5527
    1SOL     OW10013   1.920   0.301   4.484 -0.1460 -0.2661 -0.0489
    1SOL    HW210014   1.848   0.363   4.475 -0.4855 -1.0469 -3.3396
    1SOL    HW310015   1.878   0.216   4.496  0.2765 -0.3632  0.7931
    1SOL    MW410016   1.905   0.298   4.484 -0.1351 -0.3819 -0.3724
    1SOL     OW10017   1.783   0.713   4.504 -0.1364 -0.4877  0.0103
    1SOL    HW210018   1.876   0.703   4.523  0.0419  0.1251 -0.5015
    1SOL    HW310019   1.750   0.768   4.575 -0.3058 -1.4706  0.6995
    1SOL    MW410020   1.791   0.719   4.516 -0.1353 -0.5365  0.0339
    1SOL     OW10021   2.052   0.001   4.125  0.1211 -0.3954 -0.0602
    1SOL    HW210022   2.124   0.064   4.120  0.4981 -0.8342 -0.1914
    1SOL    HW310023   2.026  -0.013   4.034  1.0659 -1.6035 -0.1508
    1SOL    MW410024   2.058   0.007   4.112  0.2959 -0.6127 -0.0896
    1SOL     OW10025   2.063   0.579   4.263 -0.4187 -0.0843  0.3264
    1SOL    HW210026   2.144   0.535   4.236 -0.6040 -0.9584  1.1658
    1SOL    HW310027   1.993   0.519   4.237 -0.8672  1.1564 -1.3557
    1SOL    MW410028   2.065   0.565   4.256 -0.5021 -0.0359  0.2151
    1SOL     OW10029   1.578   0.001   4.143  0.2562 -0.4957  0.2053
    1SOL    HW210030   1.501   0.047   4.178  0.7057 -0.3361  0.9923
    1SOL    HW310031   1.584  -0.079   4.195  0.8691 -0.3075  0.4233
    1SOL    MW410032   1.569  -0.004   4.155  0.3964 -0.4498  0.3371
    1SOL     OW10033   0.653   0.082   4.654 -0.4905 -0.3488  0.0546
    1SOL    HW210034   0.678  -0.003   4.617 -1.0185 -0.0920 -0.8911
    1SOL    HW310035   0.723   0.102   4.716 -0.1408 -1.2718 -0.0266
    1SOL    MW410036   0.665   0.073   4.657 -0.5140 -0.4367 -0.0811
    1SOL     OW10037   3.854   0.767   4.157 -0.2989  0.0568  0.4954
    1SOL    HW210038   3.781   0.826   4.174 -1.3213 -0.8681 -0.5235
    1SOL    HW310039   3.877   0.783   4.066  1.6254  1.2488  1.1874
    1SOL    MW410040   3.847   0.777   4.147 -0.1800  0.0921  0.4520
    1SOL     OW10041   3.588   0.114   4.566  0.5453  0.0776  0.0608
    1SOL    HW210042   3.667   0.081   4.609  1.2406  1.6861  0.0804
    1SOL    HW310043   3.604   0.099   4.473  1.3216  1.2778 -0.0122
    1SOL    MW410044   3.601   0.108   4.559  0.7396  0.4482  0.0534
    1SOL     OW10045   0.864   0.940   4.504 -0.3683  0.0009  0.6285
    1SOL    HW210046   0.790   0.922   4.561  0.8282 -1.8253  1.6741
    1SOL    HW310047   0.932   0.879   4.534  1.0494  0.6189 -1.2536
    1SOL    MW410048   0.863   0.930   4.516 -0.0234 -0.1585  0.5178
    1SOL     OW10049   1.567   1.484   4.819 -0.0693  0.3969  0.0253
    1SOL    HW210050   1.590   1.543   4.747  1.2315  0.5544  0.5583
    1SOL    HW310051   1.493   1.526   4.862 -0.0659  0.9192 -0.4823
    1SOL    MW410052   1.561   1.497   4.815  0.1029  0.4867  0.0281
    1SOL     OW10053   1.737   1.266   4.122 -0.0481 -0.3752  0.2483
    1SOL    HW210054   1.819   1.278   4.170  0.5842  0.3521 -0.9690
    1SOL    HW310055   1.693   1.351   4.127  0.1403 -0.2137 -0.6435
    1SOL    MW410056   1.742   1.279   4.129  0.0601 -0.2580 -0.0305
    1SOL     OW10057   1.601   1.527   4.192 -0.3618 -0.1134 -0.2288
    1SOL    HW210058   1.512   1.550   4.219  0.3374  1.7635  0.5974
    1SOL    HW310059   1.658   1.577   4.252  1.2437 -1.9130 -0.1981
    1SOL    MW410060   1.597   1.537   4.204 -0.0577 -0.1032 -0.1154
    1SOL     OW10061   1.171   1.503   4.147  0.7756 -0.2161  0.5478
    1SOL    HW210062   1.155   1.419   4.190 -1.1309  0.4830  1.2659
    1SOL    HW310063   1.093   1.556   4.167  1.3853  1.3026 -0.9179
    1SOL    MW410064   1.158   1.499   4.155  0.6045  0.0764  0.4487
    1SOL     OW10065   0.433   2.445   4.448  0.3386 -0.2084 -0.1696
    1SOL    HW210066   0.439   2.356   4.482  0.8795 -0.9257 -2.0597
    1SOL    HW310067   0.502   2.493   4.494  1.7917 -1.4227 -1.0255
    1SOL    MW410068   0.443   2.440   4.458  0.6017 -0.4632 -0.5317
    1SOL     OW10069   3.631   2.730   4.200  0.5663 -0.2984 -0.0709
    1SOL    HW210070   3.626   2.712   4.106 -1.0916 -1.0076  0.1330
    1SOL    HW310071   3.542   2.755   4.225  1.0439  0.1475  1.2735
    1SOL    MW410072   3.618   2.731   4.191  0.4106 -0.3335  0.1335
    1SOL     OW10073   3.684   1.878   4.386 -0.3611  0.1844  0.1760
    1SOL    HW210074   3.703   1.930   4.308 -0.8590 -1.3206 -0.9790
    1SOL    HW310075   3.594   1.900   4.408 -0.1914  0.6759  0.3740
    1SOL    MW410076   3.675   1.888   4.378 -0.4041  0.0508  0.0496
    1SOL     OW10077   2.300   2.725   4.128 -0.7681 -0.1671  0.5709
    1SOL    HW210078   2.289   2.707   4.034  1.5774  2.2805 -0.2341
    1SOL    HW310079   2.309   2.639   4.168 -0.2802 -1.1857 -1.6732
    1SOL    MW410080   2.300   2.711   4.121 -0.3941  0.0215  0.1683
    1SOL     OW10081   1.958   1.673   4.124  0.1042 -0.3685  0.1572
    1SOL    HW210082   1.958   1.633   4.037 -0.8243 -1.1912  0.5300
    1SOL    HW310083   1.958   1.767   4.107  1.3169 -0.5186 -0.7299
    1SOL    MW410084   1.958   1.680   4.110  0.1416 -0.4969  0.0892
    1SOL     OW10085   2.783   1.995   4.110 -0.0070 -0.6202 -0.2221
    1SOL    HW210086   2.782   2.079   4.156  3.0561 -0.2537 -0.7685
    1SOL    HW310087   2.767   1.930   4.179  1.1785  0.1729  0.8211
    1SOL    MW410088   2.781   1.997   4.125  0.5536 -0.4672 -0.1564
    1SOL     OW10089   1.394   2.665   4.134 -0.2616 -0.5134  0.7755
    1SOL    HW210090   1.333   2.725   4.178 -0.9711 -0.4706 -0.2574
    1SOL    HW310091   1.479   2.707   4.146 -0.7651  0.7689 -0.0212
    1SOL    MW410092   1.397   2.679   4.142 -0.4216 -0.3388  0.5345
    1SOL     OW10093   2.038   3.583   4.237 -0.1967 -0.1245 -0.4390
    1SOL    HW210094   1.961   3.533   4.208 -0.4161  0.3519 -0.6789
    1SOL    HW310095   2.026   3.670   4.198  1.2444 -0.4969 -1.7362
    1SOL    MW410096   2.026   3.588   4.228 -0.0353 -0.1111 -0.6413
    1SOL     OW10097   1.034   1.647   4.489  0.2760  0.0274  0.0359
    1SOL    HW210098   1.007   1.646   4.397  0.8928  0.2096 -0.1437
    1SOL    HW310099   0.989   1.572   4.528  0.1849 -0.1742 -0.4595
    1SOL    MW410100   1.024   1.637   4.482  0.3453  0.0248 -0.0534
    1SOL     OW10101   2.000   3.857   4.170 -0.0736  0.1118 -0.7074
    1SOL    HW210102   2.003   3.866   4.075 -1.8441 -0.0739 -0.7889
    1SOL    HW310103   1.931   3.917   4.198 -1.2711 -1.6365  0.2122
    1SOL    MW410104   1.991   3.866   4.161 -0.4652 -0.1435 -0.5965
    1SOL     OW10105   1.377   4.279   4.148 -0.1236 -0.6277  0.1622
    1SOL    HW210106   1.383   4.267   4.053  1.7473  0.6577  0.0809
    1SOL    HW310107   1.369   4.190   4.183 -1.0805 -1.0998 -1.1995
    1SOL    MW410108   1.377   4.265   4.140 -0.0031 -0.5202 -0.0286
    1SOL     OW10109   1.628   3.874   4.086  0.0905  0.4881  0.2330
    1SOL    HW210110   1.625   3.800   4.146 -0.9365  0.4164  0.0896
    1SOL    HW310111   1.698   3.930   4.121 -0.1208  0.1714  1.1668
    1SOL    MW410112   1.637   3.872   4.099 -0.0728  0.4370  0.3366
    1SOL     OW10113   2.508   2.877   4.217  0.3216  0.0851  0.5510
    1SOL    HW210114   2.503   2.957   4.165  0.5294 -0.4607 -0.3238
    1SOL    HW310115   2.441   2.820   4.181  0.1931 -0.1539  1.1508
    1SOL    MW410116   2.499   2.880   4.206  0.3321 -0.0186  0.5145
    1SOL     OW10117   2.603   4.637   4.090 -0.0288 -0.0114  0.5623
    1SOL    HW210118   2.696   4.654   4.102  0.3839  0.0306 -2.2423
    1SOL    HW310119   2.559   4.715   4.124  1.0076  0.2639  1.2793
    1SOL    MW410120   2.609   4.650   4.096  0.1626  0.0305  0.2871
    1SOL     OW10121   4.136   1.943   4.368 -0.1906  0.1075 -0.1920
    1SOL    HW210122   4.086   1.959   4.449  1.6885  0.2572  0.9717
    1SOL    HW310123   4.110   1.855   4.341 -1.5092  0.3999  0.0672
    1SOL    MW410124   4.126   1.933   4.375 -0.1168  0.1657 -0.0043
    1SOL     OW10125   1.084   4.664   4.612 -0.1686 -0.0954  1.0321
    1SOL    HW210126   1.152   4.729   4.629  1.6628 -1.7152  0.1228
    1SOL    HW310127   1.036   4.697   4.536  1.5099 -0.3537 -0.1572
    1SOL    MW410128   1.086   4.677   4.605  0.2946 -0.3428  0.7548
    1SOL     OW10129   2.455   0.848   4.150  0.4385  0.1388  0.0602
    1SOL    HW210130   2.463   0.848   4.054  1.2938 -2.1393  0.1121
    1SOL    HW310131   2.538   0.883   4.181  0.4950  0.0529  0.0042
    1SOL    MW410132   2.467   0.853   4.141  0.5589 -0.1731  0.0591
    1SOL     OW10133   3.755   3.005   4.516 -0.0486  0.0761  0.3532
    1SOL    HW210134   3.831   3.005   4.575 -0.6426 -1.9881  1.1441
    1SOL    HW310135   3.781   2.948   4.443 -0.6540 -0.2105  0.3624
    1SOL    MW410136   3.768   2.998   4.514 -0.2067 -0.2341  0.4592
    1SOL     OW10137   1.976   0.804   4.129  0.0172 -0.4700 -0.4929
    1SOL    HW210138   2.029   0.876   4.165 -1.8095  0.0553  1.2002
    1SOL    HW310139   2.016   0.725   4.166  0.6572 -0.1988 -0.5834
    1SOL    MW410140   1.989   0.803   4.138 -0.1394 -0.3650 -0.2813
    1SOL     OW10141   0.460   2.446   4.163  0.0903  0.1469  0.3725
    1SOL    HW210142   0.450   2.448   4.259 -1.1858  1.5268  0.2263
    1SOL    HW310143   0.461   2.538   4.137  1.3741 -0.1942 -0.8705
    1SOL    MW410144   0.459   2.458   4.173  0.0913  0.2840  0.1893
    1SOL     OW10145   0.263   1.278   4.289  0.2620 -0.3158  0.2925
    1SOL    HW210146   0.271   1.365   4.249 -0.2666 -0.3484  0.1119
    1SOL    HW310147   0.333   1.226   4.248  1.3514  0.3538  1.2847
    1SOL    MW410148   0.274   1.283   4.278  0.3361 -0.2319  0.3996
    1SOL     OW10149   2.723   1.196   4.118 -0.1196 -0.0618 -0.4014
    1SOL    HW210150   2.718   1.105   4.146 -1.1430  0.4328  1.0706
    1SOL    HW310151   2.720   1.192   4.022  1.1408 -1.6357 -0.4084
    1SOL    MW410152   2.722   1.184   4.109 -0.0882 -0.2042 -0.2079
    1SOL     OW10153   3.166   2.664   4.139  0.2581 -0.1529  0.2701
    1SOL    HW210154   3.094   2.699   4.192  0.8946  1.1086  0.3173
    1SOL    HW310155   3.175   2.573   4.168 -1.1445 -0.2472  0.4398
    1SOL    MW410156   3.157   2.656   4.150  0.1569  0.0010  0.2990
    1SOL     OW10157   0.464   4.210   4.142 -0.5104 -0.1148 -0.0911
    1SOL    HW210158   0.478   4.221   4.048 -0.6972  0.7584 -0.0176
    1SOL    HW310159   0.411   4.285   4.168  1.7082  1.0728  1.1856
    1SOL    MW410160   0.459   4.221   4.133 -0.2423  0.1569  0.0873
    1SOL     OW10161   0.781   2.192   4.499 -0.2823  0.0742 -0.1897
    1SOL    HW210162   0.873   2.166   4.507  0.1281  1.3324 -0.6597
    1SOL    HW310163   0.754   2.157   4.415 -0.8521 -2.0906  0.8680
    1SOL    MW410164   0.790   2.184   4.489 -0.3034 -0.0453 -0.1121
    1SOL     OW10165   3.162   1.707   4.461 -0.1661  0.3631  0.0202
    1SOL    HW210166   3.149   1.707   4.366  1.1642  0.7896 -0.1713
    1SOL    HW310167   3.248   1.748   4.474 -0.3405  0.3286  1.4096
    1SOL    MW410168   3.172   1.712   4.450 -0.0134  0.4148  0.1779
    1SOL     OW10169   2.930   1.590   4.090 -0.3669 -0.2283 -0.2286
    1SOL    HW210170   2.873   1.640   4.148  1.3864  1.2901  0.2421
    1SOL    HW310171   2.938   1.504   4.132 -1.0170  0.0861  0.5446
    1SOL    MW410172   2.924   1.585   4.104 -0.2215  0.0135 -0.0648
    1SOL     OW10173   2.663   2.476   4.739 -0.8761  0.2506 -0.3956
    1SOL    HW210174   2.682   2.564   4.706  1.2213 -0.1044 -0.2354
    1SOL    HW310175   2.653   2.423   4.660 -0.1575  0.2626 -0.5043
    1SOL    MW410176   2.664   2.481   4.724 -0.5050  0.2055 -0.3886
    1SOL     OW10177   0.015   2.447   4.305 -0.1252 -0.4338 -0.0325
    1SOL    HW210178   0.047   2.474   4.392  0.0019 -1.2061  0.1650
    1SOL    HW310179   0.084   2.389   4.271 -0.5117 -0.7142 -0.3407
    1SOL    MW410180   0.028   2.443   4.312 -0.1594 -0.5729 -0.0467
    1SOL     OW10181   4.060   3.215   4.277 -0.2131  0.0779 -0.0799
    1SOL    HW210182   4.123   3.173   4.219  0.1268 -0.2286  0.5160
    1SOL    HW310183   4.048   3.303   4.239  0.8232  0.2571 -0.0062
    1SOL    MW410184   4.066   3.221   4.264 -0.0315  0.0608  0.0086
    1SOL     OW10185   1.889   2.711   4.127  0.2326 -0.0968  0.3540
    1SOL    HW210186   1.939   2.629   4.137 -0.4916 -0.6862 -0.7796
    1SOL    HW310187   1.896   2.732   4.034 -0.7107  0.4079  0.3921
    1SOL    MW410188   1.897   2.703   4.116  0.0126 -0.1078  0.2098
    1SOL     OW10189   0.629   2.598   4.568  0.1050  0.1541  0.0988
    1SOL    HW210190   0.659   2.612   4.658 -0.6190 -1.2626  0.5581
    1SOL    HW310191   0.700   2.548   4.527 -0.0096 -0.0454  0.1481
    1SOL    MW410192   0.643   2.594   4.574 -0.0056 -0.0594  0.1664
    1SOL     OW10193   0.015   3.642   4.625 -0.6269 -0.2415  0.1079
    1SOL    HW210194   0.008   3.721   4.678 -1.5548 -0.9307  1.0381
    1SOL    HW310195   0.090   3.658   4.568 -1.5376  1.7819 -0.5515
    1SOL    MW410196   0.024   3.655   4.624 -0.8695 -0.0656  0.1435
    1SOL     OW10197   2.759   3.351   4.622  0.2037  0.4118 -0.2830
    1SOL    HW210198   2.676   3.391   4.646 -0.0118 -0.1311 -0.1111
    1SOL    HW310199   2.736   3.263   4.592  0.7838 -0.0140  0.4875
    1SOL    MW410200   2.745   3.345   4.621  0.2515  0.2840 -0.1588
    1SOL     OW10201   2.215   4.017   4.229 -0.1819  0.0776 -1.0064
    1SOL    HW210202   2.293   3.971   4.197 -0.0248  0.0749 -0.6149
    1SOL    HW310203   2.142   3.977   4.181 -0.1887 -1.4862  0.3090
    1SOL    MW410204   2.215   4.006   4.218 -0.1619 -0.1297 -0.7815
    1SOL     OW10205   2.341   4.608   4.414 -0.5005 -0.2645  0.1367
    1SOL    HW210206   2.276   4.539   4.427 -0.9921  0.4872  1.8717
    1SOL    HW310207   2.289   4.688   4.404  0.1186  0.2218  0.7057
    1SOL    MW410208   2.326   4.610   4.415 -0.4838 -0.1011  0.4406
    1SOL     OW10209   2.688   0.846   4.480  0.2667  0.0226 -0.2376
    1SOL    HW210210   2.769   0.795   4.474  0.7621  0.9466 -1.7174
    1SOL    HW310211   2.619   0.780   4.487  1.1137 -0.7872  0.5279
    1SOL    MW410212   2.689   0.830   4.480  0.4437  0.0376 -0.3319
    1SOL     OW10213   2.928   0.216   4.271 -0.0553 -0.3190  0.1172
    1SOL    HW210214   2.902   0.191   4.360  1.3235 -0.0257  0.6186
    1SOL    HW310215   2.865   0.283   4.245 -0.7747 -0.7723  0.6790
    1SOL    MW410216   2.916   0.221   4.280  0.0317 -0.3401  0.2575
    1SOL     OW10217   2.706   3.866   4.511  0.0010  0.6427  0.0890
    1SOL    HW210218   2.658   3.924   4.571 -0.4470 -1.2521  1.5987
    1SOL    HW310219   2.654   3.786   4.508  1.1268 -0.0561 -1.2060
    1SOL    MW410220   2.693   3.863   4.519  0.0904  0.3006  0.1173
    1SOL     OW10221   2.709   0.393   4.132  0.0769  0.1557  0.0372
    1SOL    HW210222   2.637   0.450   4.159  0.3499  0.8938 -0.7530
    1SOL    HW310223   2.713   0.404   4.037  0.7650 -0.4397 -0.0051
    1SOL    MW410224   2.700   0.402   4.123  0.2038  0.1745 -0.0725
    1SOL     OW10225   0.694   4.303   4.271 -0.0104 -0.0917  0.1416
    1SOL    HW210226   0.671   4.282   4.361 -0.0807  1.1344  0.4278
    1SOL    HW310227   0.618   4.275   4.220  0.2846 -1.3480  0.3811
    1SOL    MW410228   0.681   4.297   4.276  0.0193 -0.0958  0.2112
    1SOL     OW10229   2.979   0.829   4.118  0.3285  0.0917  0.0230
    1SOL    HW210230   2.957   0.738   4.135  0.6505  0.0571  0.2724
    1SOL    HW310231   2.975   0.838   4.023  0.4922 -0.2322 -0.0149
    1SOL    MW410232   2.975   0.818   4.108  0.3927  0.0443  0.0505
    1SOL     OW10233   2.451   2.737   4.480 -0.3200  0.0947 -0.1066
    1SOL    HW210234   2.463   2.766   4.390 -3.4914 -0.2314 -0.7119
    1SOL    HW310235   2.441   2.642   4.474  1.5751 -0.1740  0.8506
    1SOL    MW410236   2.451   2.729   4.467 -0.4883  0.0160 -0.0606
    1SOL     OW10237   2.835   0.160   4.516  0.3081 -0.1854  0.2231
    1SOL    HW210238   2.750   0.123   4.540  0.6987 -1.1417  0.1951
    1SOL    HW310239   2.898   0.097   4.551  1.0119  0.6750  0.5085
    1SOL    MW410240   2.832   0.146   4.524  0.4525 -0.1981  0.2570
    1SOL     OW10241   2.517   3.651   4.453  0.1643 -0.1738  0.4487
    1SOL    HW210242   2.528   3.563   4.489 -0.6364 -0.3917  0.1598
    1SOL    HW310243   2.424   3.669   4.463  0.5373  1.1493  1.6704
    1SOL    MW410244   2.507   3.642   4.459  0.1080 -0.0279  0.5717
    1SOL     OW10245   2.956   1.329   4.202 -0.3382  0.4742 -0.1591
    1SOL    HW210246   2.974   1.319   4.296 -1.2291  0.9336  0.0698
    1SOL    HW310247   2.887   1.266   4.184 -0.1245  0.3455 -0.5147
    1SOL    MW410248   2.949   1.320   4.212 -0.4275  0.5177 -0.1755
    1SOL     OW10249   0.265   3.658   4.483  0.0036 -0.0073 -0.1516
    1SOL    HW210250   0.264   3.653   4.388  0.3031  0.5076 -0.1840
    1SOL    HW310251   0.319   3.584   4.510  0.6284  0.3442 -0.4243
    1SOL    MW410252   0.272   3.648   4.474  0.1256  0.1068 -0.1917
    1SOL     OW10253   3.589   3.221   4.495  0.7837 -0.2182  0.0381
    1SOL    HW210254   3.645   3.145   4.512  0.5756 -0.3722  0.0298
    1SOL    HW310255   3.590   3.232   4.400  1.7748  0.5141  0.1202
    1SOL    MW410256   3.597   3.213   4.485  0.8872 -0.1419  0.0477
    1SOL     OW10257   2.919   2.084   3.761 -0.1293  0.1941 -0.0115
    1SOL    HW210258   2.831   2.061   3.790 -0.5706  0.9193 -0.7642
    1SOL    HW310259   2.934   2.172   3.795 -0.2336  0.6180 -1.0291
    1SOL    MW410260   2.909   2.092   3.769 -0.2015  0.3457 -0.2453
    1SOL     OW10261   0.222   0.240   4.762 -0.3847 -0.0523  0.4127
    1SOL    HW210262   0.269   0.202   4.688 -0.9969  0.2160 -0.1088
    1SOL    HW310263   0.223   0.334   4.746 -0.3670  0.0229  0.8374
    1SOL    MW410264   0.228   0.247   4.750 -0.4631 -0.0069  0.4001
    1SOL     OW10265   2.897   0.678   4.455  0.1393 -0.2765 -0.0385
    1SOL    HW210266   2.903   0.648   4.364  0.6358 -2.1730  0.5862
    1SOL    HW310267   2.987   0.704   4.476 -0.0264  0.3920 -0.1736
    1SOL    MW410268   2.910   0.677   4.446  0.1826 -0.4385  0.0262
    1SOL     OW10269   4.367   2.920   4.528 -0.0761  0.0224  0.0332
    1SOL    HW210270   4.354   2.886   4.439 -1.1401 -0.4753  0.3727
    1SOL    HW310271   4.294   2.884   4.579  0.8143 -0.1080  1.2315
    1SOL    MW410272   4.355   2.911   4.523 -0.0987 -0.0606  0.2360
    1SOL     OW10273   2.286   1.385   4.673 -0.1550  0.5052  0.5070
    1SOL    HW210274   2.373   1.426   4.675 -0.1111  0.5134 -1.1632
    1SOL    HW310275   2.304   1.292   4.667 -0.2701  0.4300  1.2451
    1SOL    MW410276   2.300   1.378   4.673 -0.1640  0.4964  0.3839
    1SOL     OW10277   0.470   3.161   4.474  0.0263  0.7269  0.0079
    1SOL    HW210278   0.537   3.093   4.482  0.2015  1.0329  1.1554
    1SOL    HW310279   0.389   3.117   4.499 -0.0611  0.6134 -0.4618
    1SOL    MW410280   0.468   3.146   4.478  0.0379  0.7524  0.0968
    1SOL     OW10281   2.387   3.150   4.509 -0.3100 -0.2164  0.0152
    1SOL    HW210282   2.343   3.101   4.578  0.2407  0.2514  0.7114
    1SOL    HW310283   2.470   3.104   4.496 -0.3386 -0.2037 -0.2213
    1SOL    MW410284   2.392   3.138   4.516 -0.2415 -0.1531  0.0763
    1SOL     OW10285   2.976   3.623   4.257 -0.1188 -0.2166 -0.0670
    1SOL    HW210286   2.965   3.618   4.352  2.0747  0.7732  0.2764
    1SOL    HW310287   2.969   3.716   4.237  2.3633 -0.0622 -0.4246
    1SOL    MW410288   2.974   3.634   4.267  0.4978 -0.0656 -0.0687
    1SOL     OW10289   2.730   3.212   4.254 -0.0035 -0.1666  0.0651
    1SOL    HW210290   2.730   3.304   4.224 -0.5208 -0.0173  0.5202
    1SOL    HW310291   2.814   3.177   4.223 -0.3068  0.1274 -1.1331
    1SOL    MW410292   2.741   3.220   4.246 -0.1118 -0.1082 -0.0329
    1SOL     OW10293   2.945   3.871   4.160  0.4854  0.2554 -0.1507
    1SOL    HW210294   2.867   3.919   4.186  0.6131 -0.2312  1.1474
    1SOL    HW310295   3.017   3.932   4.175  0.4393  0.4125 -0.5594
    1SOL    MW410296   2.944   3.885   4.165  0.4959  0.2120 -0.0334
    1SOL     OW10297   2.718   4.256   4.185  0.3411 -0.8285 -0.1547
    1SOL    HW210298   2.643   4.313   4.202  0.6179 -0.7241  0.7729
    1SOL    HW310299   2.691   4.170   4.216  0.2543 -1.0021 -0.7115
    1SOL    MW410300   2.705   4.253   4.191  0.3662 -0.8378 -0.1059
    1SOL     OW10301   2.455   3.879   4.149  0.3747  0.1504 -0.2938
    1SOL    HW210302   2.448   3.898   4.056  0.9797  2.1020  0.0451
    1SOL    HW310303   2.495   3.792   4.152 -0.2052 -0.1919 -1.8491
    1SOL    MW410304   2.460   3.870   4.137  0.3779  0.3629 -0.4539
    1SOL     OW10305   2.945   4.413   4.178 -0.0073 -0.6163  0.4409
    1SOL    HW210306   2.868   4.358   4.192  0.6957 -0.7967  4.0740
    1SOL    HW310307   3.020   4.355   4.188  0.6772  0.3135  0.8467
    1SOL    MW410308   2.945   4.398   4.181  0.1757 -0.5174  0.9732
    1SOL     OW10309   3.376   0.017   4.132  0.3397 -0.1600  0.1505
    1SOL    HW210310   3.458   0.048   4.171  0.4268 -2.1026  1.5779
    1SOL    HW310311   3.308   0.068   4.176  0.5955 -0.5621  1.0130
    1SOL    MW410312   3.378   0.028   4.143  0.3850 -0.4694  0.4530
    1SOL     OW10313   1.367   1.637   4.274  0.1410 -0.3900 -0.3186
    1SOL    HW210314   1.288   1.604   4.231  0.8667 -2.2150 -0.2985
    1SOL    HW310315   1.359   1.608   4.365  1.3097 -1.4839 -0.5503
    1SOL    MW410316   1.356   1.629   4.280  0.3908 -0.7749 -0.3471
    1SOL     OW10317   2.927   0.563   4.187 -0.0026 -0.3948 -0.4296
    1SOL    HW210318   2.854   0.505   4.168 -0.6986 -0.1673  1.4438
    1SOL    HW310319   3.004   0.506   4.189 -0.2045 -0.7260 -1.8199
    1SOL    MW410320   2.927   0.548   4.185 -0.1209 -0.4084 -0.3662
    1SOL     OW10321   3.419   0.560   4.219 -0.1363  0.3012 -0.1735
    1SOL    HW210322   3.427   0.584   4.311  1.0559  1.6229 -0.5948
    1SOL    HW310323   3.482   0.488   4.207  1.1826  1.4604 -0.3784
    1SOL    MW410324   3.429   0.554   4.229  0.1950  0.6285 -0.2561
    1SOL     OW10325   2.379   0.387   4.501  0.2162 -0.0880  0.2964
    1SOL    HW210326   2.314   0.411   4.567  0.1916  0.2597  0.1472
    1SOL    HW310327   2.429   0.467   4.486 -0.5351  0.1582 -0.9618
    1SOL    MW410328   2.377   0.400   4.508  0.1140 -0.0097  0.1106
    1SOL     OW10329   4.117   4.030   4.722 -0.3551 -0.2473 -0.0202
    1SOL    HW210330   4.088   3.960   4.663  0.6632 -1.2257  0.6175
    1SOL    HW310331   4.123   3.989   4.808 -0.3048  0.7762  0.4764
    1SOL    MW410332   4.114   4.016   4.725 -0.2141 -0.2413  0.1297
    1SOL     OW10333   3.212   0.971   4.187  0.0676  0.6293  0.3114
    1SOL    HW210334   3.127   0.927   4.184  0.2574  0.3212 -0.9996
    1SOL    HW310335   3.195   1.058   4.150  0.0579  1.0268  1.2468
    1SOL    MW410336   3.199   0.977   4.182  0.0913  0.6410  0.2613
    1SOL     OW10337   1.789   0.051   4.443 -0.1772 -0.4436 -0.1521
    1SOL    HW210338   1.694   0.060   4.457 -0.5143 -0.7997 -2.1474
    1SOL    HW310339   1.804   0.088   4.356  1.6808  0.5314  0.5740
    1SOL    MW410340   1.778   0.057   4.434  0.0236 -0.3620 -0.3200
    1SOL     OW10341   2.664   3.095   4.499 -0.6802 -0.0631  0.0935
    1SOL    HW210342   2.744   3.044   4.510 -0.0983  0.4655 -1.4453
    1SOL    HW310343   2.668   3.126   4.408 -1.0202  2.7130  0.9788
    1SOL    MW410344   2.675   3.092   4.488 -0.6480  0.3729  0.0076
    1SOL     OW10345   2.441   1.547   4.094 -0.2603 -0.3104 -0.0873
    1SOL    HW210346   2.466   1.630   4.136 -1.6828 -0.4085  1.0117
    1SOL    HW310347   2.464   1.559   4.002  0.3039  0.9998  0.2017
    1SOL    MW410348   2.447   1.560   4.088 -0.3736 -0.1504  0.0954
    1SOL     OW10349   2.760   0.435   4.465  0.1167  0.1078  0.3361
    1SOL    HW210350   2.811   0.509   4.499 -1.9621  0.1881  3.5013
    1SOL    HW310351   2.802   0.358   4.502  1.1295 -0.2345 -1.4382
    1SOL    MW410352   2.773   0.435   4.474 -0.0238  0.0733  0.5198
    1SOL     OW10353   2.452   2.330   4.095 -0.0510  0.0416 -0.6262
    1SOL    HW210354   2.453   2.247   4.143 -1.4672 -0.5022 -1.5130
    1SOL    HW310355   2.385   2.382   4.138  0.3501  0.4727 -0.5168
    1SOL    MW410356   2.443   2.326   4.107 -0.1850  0.0267 -0.7291
    1SOL     OW10357   3.616   0.857   4.512  0.5920  0.4635 -0.0227
    1SOL    HW210358   3.557   0.925   4.545  1.1922  1.0977 -0.2261
    1SOL    HW310359   3.619   0.872   4.417  1.2868  0.6172  0.0168
    1SOL    MW410360   3.609   0.868   4.504  0.7627  0.5674 -0.0443
    1SOL     OW10361   3.502   1.693   4.704  0.2690 -0.1371 -0.1736
    1SOL    HW210362   3.548   1.622   4.659  0.1865 -0.7912  0.7614
    1SOL    HW310363   3.565   1.723   4.771 -0.4481 -0.6690  0.7488
    1SOL    MW410364   3.517   1.688   4.707  0.1636 -0.2935  0.0720
    1SOL     OW10365   3.452   2.344   4.110 -0.2147 -0.3674 -0.0622
    1SOL    HW210366   3.371   2.379   4.147  0.2952  0.7638  0.0054
    1SOL    HW310367   3.435   2.337   4.016 -0.9856 -1.8020  0.1668
    1SOL    MW410368   3.439   2.348   4.102 -0.2494 -0.4075 -0.0229
    1SOL     OW10369   2.296   4.278   4.114 -0.0978  0.1024  0.5870
    1SOL    HW210370   2.299   4.194   4.160 -0.0968 -0.5317 -0.5631
    1SOL    HW310371   2.354   4.335   4.165  0.2425 -0.7147  1.1235
    1SOL    MW410372   2.304   4.274   4.127 -0.0527 -0.0892  0.5059
    1SOL     OW10373   3.396   3.064   4.137 -0.0082 -0.4012  0.4171
    1SOL    HW210374   3.319   3.113   4.166 -0.3302 -0.7468  0.1589
    1SOL    HW310375   3.383   2.976   4.173  0.3019 -0.4429  0.4282
    1SOL    MW410376   3.384   3.059   4.146 -0.0100 -0.4523  0.3848
    1SOL     OW10377   2.507   3.129   4.101  0.3129  0.2009 -0.0988
    1SOL    HW210378   2.590   3.152   4.143  0.1994  0.2604  0.0916
    1SOL    HW310379   2.443   3.190   4.138  0.3534  0.7267 -0.8972
    1SOL    MW410380   2.510   3.140   4.112  0.3035  0.2782 -0.1788
    1SOL     OW10381   3.383   3.599   4.173  0.2134  0.0232  0.1010
    1SOL    HW210382   3.371   3.632   4.262 -0.3390 -0.4232  0.1941
    1SOL    HW310383   3.304   3.550   4.154  0.8916 -0.9807 -0.1598
    1SOL    MW410384   3.371   3.597   4.182  0.2298 -0.1683  0.0796
    1SOL     OW10385   3.622   3.498   4.114  0.2815  0.3875 -0.6549
    1SOL    HW210386   3.612   3.413   4.157  1.0284  0.3100 -0.6237
    1SOL    HW310387   3.535   3.538   4.121 -0.5106 -1.0199 -2.0583
    1SOL    MW410388   3.609   3.492   4.121  0.2754  0.1915 -0.8354
    1SOL     OW10389   3.345   3.860   4.099 -0.5038 -0.0370  0.0303
    1SOL    HW210390   3.349   3.765   4.111  0.5209  0.0222  0.1754
    1SOL    HW310391   3.365   3.873   4.006 -0.4252  0.0522  0.0599
    1SOL    MW410392   3.348   3.849   4.088 -0.3583 -0.0172  0.0529
    1SOL     OW10393   0.032   2.706   4.152 -0.4007 -0.1522 -0.1239
    1SOL    HW210394  -0.055   2.742   4.169 -0.2589 -0.8778  2.3179
    1SOL    HW310395   0.033   2.622   4.198  1.7972  0.1252  0.4191
    1SOL    MW410396   0.021   2.699   4.160 -0.0920 -0.2115  0.2694
    1SOL     OW10397   0.048   0.907   4.217  0.3948  0.5126 -0.1756
    1SOL    HW210398   0.070   0.901   4.310  0.5443  2.5657 -0.0627
    1SOL    HW310399   0.053   1.000   4.197 -1.0513  0.2510 -1.9079
    1SOL    MW410400   0.051   0.918   4.227  0.2236  0.7490 -0.3891
    1SOL     OW10401   3.602   4.251   4.165 -0.1923  0.1323  0.2989
    1SOL    HW210402   3.523   4.305   4.169 -1.4444 -1.4235 -2.2810
    1SOL    HW310403   3.578   4.169   4.208 -0.4292 -0.8270 -1.6152
    1SOL    MW410404   3.589   4.248   4.171 -0.3889 -0.1998 -0.2942
    1SOL     OW10405   3.801   4.653   4.209  0.0198  0.3638  0.2342
    1SOL    HW210406   3.816   4.562   4.234 -0.2555  0.3853  0.4797
    1SOL    HW310407   3.819   4.655   4.115  2.4372  0.5759  0.6721
    1SOL    MW410408   3.806   4.641   4.199  0.3026  0.3943  0.3242
    1SOL     OW10409   2.314   1.925   4.148  0.1710 -0.1640 -0.1980
    1SOL    HW210410   2.245   1.983   4.180  1.2317  0.1689  1.5794
    1SOL    HW310411   2.306   1.928   4.053 -1.5103  0.7769 -0.0447
    1SOL    MW410412   2.304   1.933   4.140  0.0892  0.0042  0.0563
    1SOL     OW10413   3.628   0.380   4.168 -0.1511 -0.3687  0.3222
    1SOL    HW210414   3.693   0.434   4.212 -0.2229 -0.0427  0.0270
    1SOL    HW310415   3.639   0.398   4.075 -2.4699  1.7534  0.4121
    1SOL    MW410416   3.638   0.389   4.162 -0.4663 -0.0457  0.2952
    1SOL     OW10417   4.055   0.387   4.244  0.2857  0.2404  0.0510
    1SOL    HW210418   4.035   0.299   4.274 -0.7818 -0.0504 -1.4642
    1SOL    HW310419   3.975   0.437   4.263  0.6336  0.7166  0.2702
    1SOL    MW410420   4.042   0.382   4.250  0.1912  0.2649 -0.1202
    1SOL     OW10421   1.350   0.434   4.579 -0.3171 -0.0880 -0.4598
    1SOL    HW210422   1.417   0.469   4.638 -0.1522 -1.9634  0.5118
    1SOL    HW310423   1.393   0.431   4.494  0.8122 -1.0800  0.1152
    1SOL    MW410424   1.365   0.438   4.576 -0.1463 -0.4663 -0.2561
    1SOL     OW10425   2.528   0.192   4.223  0.6061  0.0356 -0.3349
    1SOL    HW210426   2.600   0.250   4.196  0.3888  0.1214 -0.7335
    1SOL    HW310427   2.546   0.174   4.315 -0.9344  3.1596  0.6629
    1SOL    MW410428   2.540   0.198   4.231  0.3746  0.4591 -0.2561
    1SOL     OW10429   2.145   2.176   4.132  0.2276  0.2361  0.3780
    1SOL    HW210430   2.134   2.216   4.045  1.1898  0.2593  0.2616
    1SOL    HW310431   2.190   2.244   4.183  2.4139 -0.8724  0.0152
    1SOL    MW410432   2.150   2.190   4.127  0.6430  0.0927  0.3152
    1SOL     OW10433   4.275   1.911   4.685  0.5648 -0.4221  0.3028
    1SOL    HW210434   4.351   1.942   4.636  0.9588  0.0907  1.2239
    1SOL    HW310435   4.308   1.895   4.773 -0.4196 -0.0304  0.7533
    1SOL    MW410436   4.289   1.913   4.690  0.4864 -0.3028  0.4835
    1SOL     OW10437   4.136   2.348   4.150  0.0284  0.5847  0.0705
    1SOL    HW210438   4.184   2.356   4.232  1.8709 -0.3102 -0.8996
    1SOL    HW310439   4.102   2.259   4.151 -2.6785  1.5647  1.2819
    1SOL    MW410440   4.138   2.337   4.161 -0.0858  0.5960  0.1020
    1SOL     OW10441   3.384   1.568   4.143 -0.5770 -0.2715 -0.2911
    1SOL    HW210442   3.311   1.628   4.157  1.2075  2.3771 -1.8716
    1SOL    HW310443   3.391   1.559   4.048  0.2849 -1.5753 -0.1198
    1SOL    MW410444   3.375   1.575   4.133 -0.2277 -0.0941 -0.4773
    1SOL     OW10445   3.410   1.936   4.107 -0.3783 -0.4074 -0.1387
    1SOL    HW210446   3.410   1.850   4.150  0.5110 -0.1200  0.4605
    1SOL    HW310447   3.434   1.997   4.177 -1.4288  0.3804 -0.4646
    1SOL    MW410448   3.413   1.933   4.122 -0.3998 -0.2655 -0.1030
    1SOL     OW10449   1.868   1.974   4.424  0.1383  0.2019  0.0113
    1SOL    HW210450   1.927   2.048   4.436 -0.9831  1.1707 -0.3116
    1SOL    HW310451   1.874   1.954   4.330  0.7273 -0.3662  0.1682
    1SOL    MW410452   1.877   1.981   4.413  0.0681  0.2548 -0.0105
    1SOL     OW10453   1.031   4.388   4.634  0.2006 -0.6468  0.1973
    1SOL    HW210454   1.060   4.480   4.637  2.3439 -1.2501 -0.6781
    1SOL    HW310455   0.937   4.393   4.615  0.4506  1.3659 -0.6897
    1SOL    MW410456   1.023   4.401   4.632  0.5164 -0.4611 -0.0353
    1SOL     OW10457   3.602   2.291   4.504 -0.1158  0.0429 -0.2257
    1SOL    HW210458   3.595   2.384   4.483  0.0094 -0.0448 -0.6629
    1SOL    HW310459   3.568   2.246   4.426  0.1203 -0.2825 -0.1439
    1SOL    MW410460   3.596   2.297   4.491 -0.0679 -0.0114 -0.2723
    1SOL     OW10461   3.731   2.029   4.146  0.4161 -0.0245  0.6054
    1SOL    HW210462   3.699   2.008   4.058  0.0134 -0.7669  0.9237
    1SOL    HW310463   3.731   2.124   4.149 -1.2875 -0.0019  0.4222
    1SOL    MW410464   3.727   2.038   4.135  0.1383 -0.1197  0.6232
    1SOL     OW10465   1.815   4.127   4.473  0.0942  0.0261 -0.1207
    1SOL    HW210466   1.791   4.218   4.491  0.0064 -0.1473  0.6660
    1SOL    HW310467   1.909   4.123   4.489 -0.1654 -0.3787  1.4018
    1SOL    MW410468   1.824   4.138   4.478  0.0484 -0.0501  0.1845
    1SOL     OW10469   3.836   3.122   4.170  0.7614  0.2594 -0.0392
    1SOL    HW210470   3.915   3.164   4.207  1.5986  0.0780 -1.5865
    1SOL    HW310471   3.866   3.084   4.087 -0.2283 -2.5197  0.8191
    1SOL    MW410472   3.851   3.123   4.164  0.7415 -0.1311 -0.1307
    1SOL     OW10473   3.846   4.376   4.266 -0.5230  0.0284  0.6215
    1SOL    HW210474   3.767   4.331   4.237 -0.3107  0.0358  0.0360
    1SOL    HW310475   3.845   4.367   4.361 -1.0504 -0.2661  0.5878
    1SOL    MW410476   3.836   4.369   4.275 -0.5643 -0.0091  0.5393
    1SOL     OW10477   3.578   3.240   4.225 -0.2916  0.5077  0.3185
    1SOL    HW210478   3.514   3.183   4.184 -0.1240 -0.0767  0.8578
    1SOL    HW310479   3.663   3.202   4.202 -0.1855  0.4240  0.8438
    1SOL    MW410480   3.581   3.227   4.217 -0.2553  0.4196  0.4592
    1SOL     OW10481   1.259   2.378   4.516 -0.5715 -0.5823 -0.3530
    1SOL    HW210482   1.342   2.355   4.559 -0.8037 -1.1700 -0.2155
    1SOL    HW310483   1.280   2.382   4.423 -0.1648  0.2545 -0.2303
    1SOL    MW410484   1.273   2.376   4.510 -0.5485 -0.5493 -0.3185
    1SOL     OW10485   4.152   2.758   4.648  0.6157 -0.1122 -0.8285
    1SOL    HW210486   4.093   2.696   4.606  0.4276 -0.2627 -0.3347
    1SOL    HW310487   4.218   2.704   4.691  0.5543  0.0385 -0.5487
    1SOL    MW410488   4.153   2.743   4.648  0.5827 -0.1125 -0.7262
    1SOL     OW10489   1.438   3.452   4.106  0.3050  0.3686  0.0117
    1SOL    HW210490   1.406   3.448   4.016  0.7675 -1.5950 -0.0978
    1SOL    HW310491   1.442   3.360   4.134  0.6984  0.9200  1.8429
    1SOL    MW410492   1.434   3.439   4.098  0.4179  0.1824  0.2389
    1SOL     OW10493   3.182   4.280   4.183  0.3292  0.7215 -0.0034
    1SOL    HW210494   3.191   4.187   4.203  0.6015  0.4757 -1.1896
    1SOL    HW310495   3.256   4.322   4.226  0.9504  0.2022 -0.5558
    1SOL    MW410496   3.193   4.273   4.191  0.4470  0.6204 -0.2322
    1SOL     OW10497   0.002   1.083   4.603  0.1440 -0.3916  0.3285
    1SOL    HW210498   0.078   1.137   4.622  0.6749 -1.7607  2.2599
    1SOL    HW310499  -0.054   1.091   4.681 -0.5696 -1.2626 -0.0774
    1SOL    MW410500   0.004   1.091   4.616  0.1198 -0.6872  0.5293
    1SOL     OW10501   4.234   4.396   4.500  0.0907  0.0072  0.1086
    1SOL    HW210502   4.260   4.366   4.413  0.5610 -1.1333  0.6189
    1SOL    HW310503   4.282   4.478   4.513  0.6677 -0.2485 -0.3799
    1SOL    MW410504   4.244   4.403   4.491  0.2289 -0.1779  0.1111
    1SOL     OW10505   4.253   2.358   4.399 -0.2811  0.2964 -0.2552
    1SOL    HW210506   4.241   2.400   4.484 -1.0573 -0.3579 -0.0360
    1SOL    HW310507   4.330   2.401   4.362 -0.6523  1.4212  0.2606
    1SOL    MW410508   4.261   2.369   4.405 -0.4320  0.3583 -0.1578
    1SOL     OW10509   3.047   0.012   4.590 -0.3818  0.4431  0.0737
    1SOL    HW210510   3.083  -0.033   4.514 -1.1859  1.0215 -0.6692
    1SOL    HW310511   3.110   0.082   4.608  0.2791 -0.2633  0.5143
    1SOL    MW410512   3.060   0.016   4.582 -0.4005  0.4262  0.0339
    1SOL     OW10513   0.838   0.783   4.874  0.4998 -0.5643 -0.3927
    1SOL    HW210514   0.778   0.847   4.837  2.2585  0.0550 -2.2734
    1SOL    HW310515   0.895   0.835   4.931  0.8386 -0.7331 -0.5794
    1SOL    MW410516   0.838   0.798   4.877  0.7765 -0.5049 -0.6652
    1SOL     OW10517   4.317   1.061   4.810  0.3367  0.5555 -0.0661
    1SOL    HW210518   4.313   0.969   4.783  0.0301  0.5904 -0.1423
    1SOL    HW310519   4.243   1.102   4.766 -0.2374  0.5863  0.9142
    1SOL    MW410520   4.306   1.054   4.800  0.2203  0.5643  0.0534
    1SOL     OW10521   4.360   4.658   4.504 -0.0171  0.1580  0.1302
    1SOL    HW210522   4.382   4.695   4.418 -1.4746  0.7130 -0.0196
    1SOL    HW310523   4.394   4.722   4.566  0.3719  0.1281 -0.0475
    1SOL    MW410524   4.368   4.672   4.501 -0.1588  0.2270  0.0868
    1SOL     OW10525   4.061   1.131   4.117  0.3038 -0.2658 -0.2454
    1SOL    HW210526   3.989   1.175   4.162  0.9653 -0.5859  1.1334
    1SOL    HW310527   4.080   1.054   4.170  1.9817  0.0721 -0.3119
    1SOL    MW410528   4.054   1.127   4.130  0.6127 -0.2635 -0.0720
    1SOL     OW10529   3.006   1.254   4.488  0.0312 -0.7290  0.0266
    1SOL    HW210530   3.021   1.328   4.546 -0.2385 -0.1216 -0.6635
    1SOL    HW310531   2.919   1.221   4.512 -0.6481  0.3383 -0.8922
    1SOL    MW410532   2.996   1.259   4.499 -0.0937 -0.5080 -0.1860
    1SOL     OW10533   1.026   0.756   4.641 -0.3650 -0.2296 -0.7149
    1SOL    HW210534   1.056   0.676   4.598 -0.6728 -1.5966  1.5525
    1SOL    HW310535   0.967   0.726   4.710 -0.1176  1.9241  0.4690
    1SOL    MW410536   1.022   0.741   4.644 -0.3729 -0.1258 -0.2599
    1SOL     OW10537   2.062   0.671   4.528  0.3948 -0.0422  0.0319
    1SOL    HW210538   2.069   0.656   4.434 -1.7104  0.2603 -0.1853
    1SOL    HW310539   2.107   0.754   4.543 -0.0079  0.3306 -0.8350
    1SOL    MW410540   2.069   0.680   4.518  0.0639  0.0468 -0.1116
    1SOL     OW10541   1.501   0.079   4.453  0.6570 -0.2195  0.4798
    1SOL    HW210542   1.479  -0.012   4.435 -3.2931  0.8029 -0.3483
    1SOL    HW310543   1.453   0.100   4.533 -1.4495  2.0891 -1.3216
    1SOL    MW410544   1.492   0.070   4.461 -0.1422  0.2199  0.1326
    1SOL     OW10545   3.818   0.524   4.278 -0.3548  0.4025  0.0729
    1SOL    HW210546   3.828   0.618   4.259 -0.9518  0.3226 -0.6531
    1SOL    HW310547   3.813   0.519   4.373 -1.2049  1.1884  0.0704
    1SOL    MW410548   3.819   0.536   4.288 -0.5455  0.4957 -0.0234
    1SOL     OW10549   3.730   2.292   4.153 -0.2290 -0.0998 -0.3455
    1SOL    HW210550   3.768   2.302   4.066  1.1358 -0.8804  0.1564
    1SOL    HW310551   3.639   2.320   4.142  0.3031  1.2190 -1.6943
    1SOL    MW410552   3.723   2.297   4.140  0.0212 -0.0288 -0.4568
    1SOL     OW10553   4.042   3.465   4.172 -0.1410 -0.0821  0.4048
    1SOL    HW210554   4.039   3.494   4.081 -1.8701 -0.6613  0.2692
    1SOL    HW310555   4.117   3.512   4.210  1.3059 -0.7138 -1.5963
    1SOL    MW410556   4.052   3.475   4.165 -0.1783 -0.2418  0.1230
    1SOL     OW10557   3.931   2.485   4.258 -0.3196  0.5201  0.0428
    1SOL    HW210558   3.845   2.444   4.270  0.0303  0.0189  0.8560
    1SOL    HW310559   3.982   2.419   4.212  0.5441 -0.3641  2.2083
    1SOL    MW410560   3.926   2.471   4.253 -0.1593  0.3374  0.4363
    1SOL     OW10561   1.488   3.267   4.593  0.2189  0.0026 -0.0372
    1SOL    HW210562   1.500   3.355   4.627 -0.9487  0.6142 -1.1977
    1SOL    HW310563   1.576   3.228   4.596  0.4683  0.6839  1.8579
    1SOL    MW410564   1.501   3.273   4.598  0.0978  0.1731  0.0601
    1SOL     OW10565   3.566   0.399   4.572  0.2389  0.0189  0.5641
    1SOL    HW210566   3.574   0.305   4.592 -0.5863 -0.4559 -1.2086
    1SOL    HW310567   3.656   0.427   4.555  0.6018 -0.2222  2.0050
    1SOL    MW410568   3.579   0.390   4.572  0.1781 -0.0755  0.5198
    1SOL     OW10569   3.821   3.603   4.270  0.1933 -0.3934  0.4175
    1SOL    HW210570   3.754   3.553   4.224  1.0853 -0.5154 -0.7765
    1SOL    HW310571   3.904   3.560   4.246  0.9486  1.4557 -0.3772
    1SOL    MW410572   3.823   3.591   4.261  0.4108 -0.1657  0.1554
    1SOL     OW10573   2.177   1.507   4.210  0.0535  0.4285 -0.0392
    1SOL    HW210574   2.118   1.572   4.172  0.1899  0.7888  0.3570
    1SOL    HW310575   2.264   1.538   4.187  0.0567 -0.8958 -1.8950
    1SOL    MW410576   2.181   1.519   4.202  0.0720  0.3012 -0.2317
    1SOL     OW10577   4.270   3.612   4.250  0.4636 -0.3499  0.1458
    1SOL    HW210578   4.355   3.581   4.217 -0.0208 -0.4332 -1.0415
    1SOL    HW310579   4.279   3.608   4.345  2.8404  2.4413  0.1074
    1SOL    MW410580   4.283   3.607   4.258  0.7133  0.0074 -0.0162
    1SOL     OW10581   0.513   3.984   4.297  0.0447 -0.4226 -0.1348
    1SOL    HW210582   0.486   4.067   4.258  2.0777  0.8041  0.9631
    1SOL    HW310583   0.595   3.962   4.251  0.5332 -0.8157  0.8980
    1SOL    MW410584   0.521   3.992   4.285  0.3774 -0.3126  0.1464
    1SOL     OW10585   1.320   0.171   4.679  0.2806  0.2185  0.0701
    1SOL    HW210586   1.315   0.262   4.650 -0.5471 -0.0329 -0.6024
    1SOL    HW310587   1.327   0.176   4.774 -0.2560  0.9723  0.0711
    1SOL    MW410588   1.320   0.183   4.687  0.1006  0.2848 -0.0181
    1SOL     OW10589   3.819   3.877   4.180 -0.2342 -0.4967 -0.0624
    1SOL    HW210590   3.910   3.904   4.192 -0.1256 -0.8353 -0.1101
    1SOL    HW310591   3.817   3.786   4.209 -0.4921 -0.5842 -0.3453
    1SOL    MW410592   3.831   3.869   4.185 -0.2539 -0.5529 -0.1063
    1SOL     OW10593   3.556   4.471   4.501  0.3660 -0.1218  0.0982
    1SOL    HW210594   3.645   4.445   4.524  0.8223  1.4166  0.1679
    1SOL    HW310595   3.546   4.558   4.541 -1.5564 -0.7514  1.0303
    1SOL    MW410596   3.567   4.479   4.510  0.1726 -0.0014  0.2308
    1SOL     OW10597   3.953   2.591   4.516  0.0754  0.4215 -0.5620
    1SOL    HW210598   3.955   2.580   4.421  1.0723  0.6858 -0.5792
    1SOL    HW310599   3.959   2.502   4.551  0.8284  0.3996 -0.7426
    1SOL    MW410600   3.954   2.577   4.508  0.3061  0.4535 -0.5884
    1SOL     OW10601   2.811   1.633   4.727 -0.0459  0.1843  0.2568
    1SOL    HW210602   2.832   1.694   4.657 -1.5704 -1.1169 -1.4110
    1SOL    HW310603   2.883   1.570   4.728 -0.3969 -0.2474 -0.7159
    1SOL    MW410604   2.823   1.633   4.718 -0.2935 -0.0443 -0.0916
    1SOL     OW10605   4.359   2.098   4.375  0.0682 -0.0183  0.0299
    1SOL    HW210606   4.325   2.187   4.385  0.2247  0.2175 -1.4238
    1SOL    HW310607   4.284   2.041   4.390  0.2891  0.2735  2.4957
    1SOL    MW410608   4.345   2.102   4.378  0.1187  0.0513  0.1631
    1SOL     OW10609   4.042   0.118   4.290  0.5639 -0.1604  0.0630
    1SOL    HW210610   4.038   0.108   4.385 -0.4852 -0.6614 -0.0343
    1SOL    HW310611   3.965   0.072   4.257  0.3126  0.9574 -0.9565
    1SOL    MW410612   4.032   0.111   4.298  0.3924 -0.0790 -0.0844
    1SOL     OW10613   1.169   2.907   4.494  0.4545 -0.5783  0.1345
    1SOL    HW210614   1.089   2.959   4.506  0.7287 -0.1898  0.3213
    1SOL    HW310615   1.143   2.818   4.515  0.4038 -0.2346  1.5577
    1SOL    MW410616   1.155   2.902   4.498  0.4840 -0.4816  0.3471
    1SOL     OW10617   1.669   0.828   4.745 -0.1718 -0.3409 -0.4463
    1SOL    HW210618   1.729   0.882   4.797 -1.3679  0.1641  0.4338
    1SOL    HW310619   1.611   0.891   4.703  0.3934 -0.7900 -1.9054
    1SOL    MW410620   1.669   0.843   4.747 -0.2551 -0.3335 -0.5226
    1SOL     OW10621   1.821   2.958   4.565 -0.2630 -0.1097 -0.0462
    1SOL    HW210622   1.862   2.917   4.640  0.1421  0.2981 -0.0417
    1SOL    HW310623   1.893   2.998   4.517 -0.1564 -2.6762 -2.1351
    1SOL    MW410624   1.836   2.958   4.568 -0.1954 -0.3948 -0.3214
    1SOL     OW10625   0.246   1.543   4.141  0.2980 -1.1957 -0.1171
    1SOL    HW210626   0.165   1.570   4.185 -0.3945  1.2319 -2.7500
    1SOL    HW310627   0.314   1.595   4.184 -0.1041 -0.2746 -0.5800
    1SOL    MW410628   0.244   1.553   4.153  0.1536 -0.7539 -0.5255
    1SOL     OW10629   0.001   3.913   4.770  0.0169  0.3046  0.2412
    1SOL    HW210630  -0.043   3.997   4.755  0.2828  0.1007 -1.8352
    1SOL    HW310631   0.086   3.923   4.727  0.4145 -0.7085  0.7801
    1SOL    MW410632   0.006   3.925   4.762  0.1044  0.1442  0.0386
    1SOL     OW10633   0.739   1.206   4.501 -0.1547  0.1126 -0.0820
    1SOL    HW210634   0.653   1.187   4.537 -0.1784 -0.3058 -0.3582
    1SOL    HW310635   0.785   1.122   4.503 -0.3251 -0.0173 -1.4993
    1SOL    MW410636   0.734   1.192   4.506 -0.1803  0.0403 -0.3052
    1SOL     OW10637   0.942   1.412   4.614  0.3366 -0.2027  0.3716
    1SOL    HW210638   0.851   1.390   4.594  0.3665 -0.6316  0.6850
    1SOL    HW310639   0.987   1.327   4.613  0.7723  0.0334  0.0049
    1SOL    MW410640   0.936   1.398   4.612  0.3980 -0.2280  0.3643
    1SOL     OW10641   0.039   1.934   4.197 -0.2591  0.1392  0.2349
    1SOL    HW210642   0.045   1.855   4.251 -0.3693 -0.2016 -0.2454
    1SOL    HW310643  -0.019   1.992   4.245 -0.3070 -0.1384  0.5148
    1SOL    MW410644   0.032   1.931   4.210 -0.2799  0.0575  0.2084
    1SOL     OW10645   2.154   4.406   4.456  0.2450  0.1616  0.0418
    1SOL    HW210646   2.089   4.450   4.510  0.3543  0.3922 -0.0122
    1SOL    HW310647   2.111   4.394   4.371 -0.3953 -1.3798  0.5593
    1SOL    MW410648   2.140   4.410   4.452  0.1752 -0.0114  0.1030
    1SOL     OW10649   4.227   0.211   4.766 -0.8298  0.4539 -0.2207
    1SOL    HW210650   4.302   0.225   4.708 -0.3968 -2.5070 -0.4059
    1SOL    HW310651   4.266   0.178   4.847 -1.7264  1.4836  0.6512
    1SOL    MW410652   4.242   0.209   4.769 -0.8907  0.1991 -0.1302
    1SOL     OW10653   0.477   3.506   4.162  0.0427 -0.2791 -0.3594
    1SOL    HW210654   0.560   3.514   4.210  0.2497 -0.3938 -0.6995
    1SOL    HW310655   0.502   3.513   4.070 -0.3721  0.0605 -0.4466
    1SOL    MW410656   0.491   3.508   4.157  0.0153 -0.2494 -0.4158
    1SOL     OW10657   3.266   1.533   4.663 -0.3454  0.2388 -0.4486
    1SOL    HW210658   3.217   1.588   4.602 -0.5877  0.7793  0.2278
    1SOL    HW310659   3.343   1.585   4.687 -0.0604 -0.1202 -0.5704
    1SOL    MW410660   3.270   1.547   4.659 -0.3400  0.2627 -0.3753
    1SOL     OW10661   4.273   0.803   4.720 -0.2707  0.0955  0.3909
    1SOL    HW210662   4.200   0.764   4.768  0.5650 -1.9754  0.0261
    1SOL    HW310663   4.235   0.826   4.635 -1.3824  2.4236  1.4528
    1SOL    MW410664   4.258   0.801   4.715 -0.3071  0.1295  0.4830
    1SOL     OW10665   3.420   0.644   4.482 -0.2491 -0.0559 -0.5924
    1SOL    HW210666   3.479   0.578   4.519 -0.6282  1.1659  2.3704
    1SOL    HW310667   3.471   0.725   4.485 -0.5697  0.2039 -2.0899
    1SOL    MW410668   3.435   0.646   4.487 -0.3414  0.1397 -0.3991
    1SOL     OW10669   4.463   1.518   4.513 -0.8227  0.1801  0.1353
    1SOL    HW210670   4.542   1.512   4.567 -1.2564 -0.5878  0.7088
    1SOL    HW310671   4.397   1.556   4.571 -0.9514  0.5550 -0.2551
    1SOL    MW410672   4.464   1.522   4.528 -0.8965  0.1283  0.1593
    1SOL     OW10673   0.271   3.909   4.147  0.0364  0.2016  0.4432
    1SOL    HW210674   0.343   3.920   4.210 -0.5443 -1.0919  1.3468
    1SOL    HW310675   0.199   3.959   4.185 -0.3576 -0.6958  0.8721
    1SOL    MW410676   0.271   3.917   4.161 -0.0922 -0.0877  0.6194
    1SOL     OW10677   2.072   1.029   4.282 -0.3502  0.3726 -0.1022
    1SOL    HW210678   2.158   1.059   4.252 -0.3045  1.1513  0.8133
    1SOL    HW310679   2.016   1.107   4.275 -1.2470 -0.3868 -1.6925
    1SOL    MW410680   2.076   1.043   4.277 -0.4623  0.3753 -0.1907
    1SOL     OW10681   1.569   0.500   4.746 -0.1328 -0.0606  0.1316
    1SOL    HW210682   1.569   0.588   4.784 -0.4021  0.3304 -0.7442
    1SOL    HW310683   1.660   0.486   4.719  0.2054 -0.6140  1.5128
    1SOL    MW410684   1.581   0.510   4.747 -0.1237 -0.0820  0.1979
    1SOL     OW10685   4.239   3.594   4.532  0.0584  0.4371 -0.4358
    1SOL    HW210686   4.328   3.588   4.567 -0.5485  0.7528  1.2242
    1SOL    HW310687   4.205   3.505   4.539  0.8911 -0.1111 -2.9168
    1SOL    MW410688   4.246   3.582   4.537  0.0882  0.4065 -0.5441
    1SOL     OW10689   0.366   0.118   4.557 -0.1870  0.1240  0.1582
    1SOL    HW210690   0.392   0.152   4.472  0.0417  1.5004  0.7530
    1SOL    HW310691   0.448   0.091   4.598 -0.2445 -0.1080  0.1194
    1SOL    MW410692   0.380   0.119   4.551 -0.1644  0.2750  0.2308
    1SOL     OW10693   0.230   1.233   4.562 -0.1139 -0.2016 -0.4178
    1SOL    HW210694   0.222   1.249   4.468  1.5516 -0.0412 -0.5421
    1SOL    HW310695   0.215   1.319   4.602  1.0802  0.1336 -0.6596
    1SOL    MW410696   0.227   1.247   4.555  0.2634 -0.1360 -0.4659
    1SOL     OW10697   4.261   1.585   4.138 -0.3533 -0.3536  0.1767
    1SOL    HW210698   4.268   1.492   4.157 -1.8815 -0.3605  0.7216
    1SOL    HW310699   4.262   1.590   4.042 -0.9993 -0.9857  0.1348
    1SOL    MW410700   4.262   1.574   4.128 -0.6404 -0.4380  0.2427
    1SOL     OW10701   2.777   1.739   4.257  0.2864 -0.0866  0.4812
    1SOL    HW210702   2.684   1.746   4.276 -0.0550  0.8151 -1.3865
    1SOL    HW310703   2.820   1.750   4.342 -1.2855 -0.3675  1.3335
    1SOL    MW410704   2.770   1.741   4.271  0.0339 -0.0048  0.3471
    1SOL     OW10705   3.853   2.873   4.294 -0.3083 -0.0443 -0.3839
    1SOL    HW210706   3.837   2.961   4.261 -0.7548 -0.0395 -0.1564
    1SOL    HW310707   3.788   2.818   4.250 -0.9623 -0.0239  0.5419
    1SOL    MW410708   3.842   2.877   4.284 -0.4535 -0.0410 -0.2317
    1SOL     OW10709   3.998   2.332   4.686  0.0457  0.4963  0.2543
    1SOL    HW210710   3.905   2.333   4.710 -0.5873  0.2279 -2.0674
    1SOL    HW310711   4.015   2.241   4.660  0.5432  0.8721 -0.7835
    1SOL    MW410712   3.988   2.320   4.685  0.0281  0.5105 -0.1884
    1SOL     OW10713   4.049   2.060   4.610 -0.0070 -0.1824 -0.1599
    1SOL    HW210714   4.093   1.988   4.655 -1.1474  0.3341  1.8148
    1SOL    HW310715   3.957   2.034   4.608 -0.4289  1.2165  0.5979
    1SOL    MW410716   4.043   2.047   4.616 -0.2131  0.0703  0.2003
    1SOL     OW10717   2.051   4.392   4.194 -0.1102 -0.0707  0.2467
    1SOL    HW210718   2.062   4.483   4.169 -0.9965  0.3736  1.4576
    1SOL    HW310719   2.131   4.349   4.164  0.2150  1.0494 -0.5251
    1SOL    MW410720   2.063   4.398   4.187 -0.1843  0.1354  0.3047
    1SOL     OW10721   3.129   4.554   4.357  0.3931 -0.2156 -0.1039
    1SOL    HW210722   3.212   4.522   4.321 -0.3113 -1.9560 -0.2616
    1SOL    HW310723   3.065   4.488   4.330 -0.9848  0.9508  0.2780
    1SOL    MW410724   3.132   4.541   4.349  0.1185 -0.2913 -0.0744
    1SOL     OW10725   2.890   2.305   4.648  0.3865 -0.2968  0.4460
    1SOL    HW210726   2.844   2.333   4.727  0.9497 -0.5789  0.8871
    1SOL    HW310727   2.885   2.380   4.589  0.5867  0.1872  1.0323
    1SOL    MW410728   2.883   2.318   4.651  0.4873 -0.2704  0.5813
    1SOL     OW10729   0.635   0.359   4.549 -0.0749 -0.4246 -0.4427
    1SOL    HW210730   0.623   0.275   4.592 -1.0219 -0.0572  0.0405
    1SOL    HW310731   0.649   0.421   4.622 -0.2838 -0.0284 -0.7376
    1SOL    MW410732   0.635   0.356   4.565 -0.2274 -0.3239 -0.4177
    1SOL     OW10733   0.381   0.848   4.474  0.7686 -0.0180 -0.0725
    1SOL    HW210734   0.396   0.846   4.379  0.0244  0.4600 -0.2043
    1SOL    HW310735   0.286   0.848   4.483  0.8345 -2.5523  0.7456
    1SOL    MW410736   0.371   0.848   4.463  0.6791 -0.2892  0.0181
    1SOL     OW10737   0.665   0.470   4.279  0.6372 -0.2306  0.4128
    1SOL    HW210738   0.670   0.451   4.373  2.0427  0.2027  0.4434
    1SOL    HW310739   0.661   0.565   4.274  0.0528 -0.2753  0.0485
    1SOL    MW410740   0.665   0.480   4.291  0.7455 -0.1793  0.3691
    1SOL     OW10741   1.061   2.154   4.503 -0.1828  0.2450 -0.0757
    1SOL    HW210742   1.122   2.221   4.533  0.1892 -0.1201 -0.0164
    1SOL    HW310743   1.106   2.071   4.519 -0.5162 -0.0077 -0.4305
    1SOL    MW410744   1.075   2.152   4.509 -0.1777  0.1636 -0.1149
    1SOL     OW10745   1.198   3.588   4.219 -0.1115 -0.5195 -0.5274
    1SOL    HW210746   1.121   3.546   4.182 -0.0308 -0.2534 -1.0105
    1SOL    HW310747   1.271   3.531   4.193 -0.0494 -0.3073 -0.8291
    1SOL    MW410748   1.197   3.575   4.211 -0.0925 -0.4563 -0.6313
    1SOL     OW10749   3.178   3.177   4.275  0.2017 -0.6495  0.0100
    1SOL    HW210750   3.164   3.264   4.236 -0.4129 -1.1673 -0.9404
    1SOL    HW310751   3.205   3.196   4.365 -1.2985  0.5162  0.2464
    1SOL    MW410752   3.180   3.191   4.282 -0.0770 -0.5643 -0.0844
    1SOL     OW10753   3.585   2.001   4.793 -0.3634  0.0095 -0.2942
    1SOL    HW210754   3.649   2.044   4.736  1.9054 -1.2402  1.2149
    1SOL    HW310755   3.500   2.021   4.754  1.0153  0.7930 -2.9923
    1SOL    MW410756   3.583   2.009   4.780  0.1178 -0.0520 -0.4511
    1SOL     OW10757   0.681   1.269   4.235 -0.2373 -0.2836  0.4361
    1SOL    HW210758   0.692   1.243   4.326 -0.0189 -0.5442  0.3379
    1SOL    HW310759   0.601   1.224   4.206 -0.5790  0.1928  0.6409
    1SOL    MW410760   0.672   1.260   4.243 -0.2537 -0.2550  0.4506
    1SOL     OW10761   1.596   2.020   4.366 -0.0048  0.1050 -0.0515
    1SOL    HW210762   1.683   1.984   4.381 -0.3927 -0.9096 -0.2099
    1SOL    HW310763   1.567   2.048   4.453  0.4098  0.2914  0.0291
    1SOL    MW410764   1.604   2.019   4.380 -0.0013 -0.0043 -0.0620
    1SOL     OW10765   1.425   3.031   4.442  0.1521  0.2054 -0.4563
    1SOL    HW210766   1.335   3.009   4.467  0.5850  0.4895  1.5001
    1SOL    HW310767   1.449   3.102   4.502  2.1059 -0.7401 -0.0697
    1SOL    MW410768   1.416   3.038   4.453  0.4672  0.1183 -0.1464
    1SOL     OW10769   0.988   3.941   4.534 -0.3163 -0.1215 -0.2343
    1SOL    HW210770   1.028   4.010   4.587  0.5231 -1.3517  0.7691
    1SOL    HW310771   0.908   3.917   4.580 -0.3598 -0.1488 -0.3233
    1SOL    MW410772   0.983   3.947   4.547 -0.2113 -0.2875 -0.1140
    1SOL     OW10773   0.015   3.495   4.148  0.4789 -0.3357 -0.1516
    1SOL    HW210774   0.089   3.552   4.171 -0.6821  1.1938 -0.0823
    1SOL    HW310775  -0.003   3.516   4.056  0.0001 -0.5587 -0.1072
    1SOL    MW410776   0.022   3.506   4.139  0.2627 -0.1633 -0.1369
    1SOL     OW10777   3.739   1.780   4.830 -0.4968 -0.1348 -0.1830
    1SOL    HW210778   3.688   1.861   4.826 -2.1433 -1.1501 -0.5209
    1SOL    HW310779   3.784   1.785   4.914  0.8153  1.9193 -0.9700
    1SOL    MW410780   3.738   1.791   4.841 -0.5410  0.0023 -0.3319
    1SOL     OW10781   0.258   3.890   4.641 -0.6006 -0.4505 -0.8280
    1SOL    HW210782   0.220   3.961   4.591  0.7381 -0.6029 -2.0887
    1SOL    HW310783   0.269   3.819   4.578 -1.1079 -1.4725  0.2183
    1SOL    MW410784   0.254   3.890   4.626 -0.4909 -0.6053 -0.8564
    1SOL     OW10785   2.465   3.410   4.586 -0.4726  0.0168  0.0980
    1SOL    HW210786   2.438   3.321   4.563  1.2554 -0.7007  0.7096
    1SOL    HW310787   2.384   3.456   4.605 -1.5785 -0.7445 -2.5648
    1SOL    MW410788   2.451   3.404   4.586 -0.3908 -0.1783 -0.1731
    1SOL     OW10789   0.101   0.865   4.479  0.0912  0.1320 -0.7421
    1SOL    HW210790   0.073   0.784   4.522 -1.0166  0.9587  0.1280
    1SOL    HW310791   0.063   0.934   4.532 -1.0299  1.2012 -2.8856
    1SOL    MW410792   0.092   0.863   4.492 -0.2029  0.3821 -0.9098
    1SOL     OW10793   2.557   1.272   4.495 -0.2049 -0.0781 -0.1165
    1SOL    HW210794   2.558   1.285   4.400 -1.3890 -0.4905 -0.1899
    1SOL    HW310795   2.565   1.360   4.531  1.9806 -0.0557 -0.5828
    1SOL    MW410796   2.558   1.285   4.487 -0.0730 -0.1297 -0.1879
    1SOL     OW10797   1.607   3.642   4.224  0.1595 -0.0392 -0.3457
    1SOL    HW210798   1.541   3.582   4.189  1.1125 -1.0395 -0.4733
    1SOL    HW310799   1.588   3.647   4.318 -0.1696 -0.2319 -0.4034
    1SOL    MW410800   1.596   3.635   4.232  0.2418 -0.1967 -0.3705
    1SOL     OW10801   3.161   4.004   4.244 -0.3486  0.3555  0.0144
    1SOL    HW210802   3.227   3.942   4.215 -0.7289  0.4866 -1.1511
    1SOL    HW310803   3.155   3.990   4.339 -0.5222 -1.4778 -0.2395
    1SOL    MW410804   3.169   3.994   4.253 -0.4215  0.1307 -0.1731
    1SOL     OW10805   0.272   2.081   4.255 -0.2843 -0.5565 -0.0535
    1SOL    HW210806   0.190   2.037   4.234 -1.0888  0.8674  0.0008
    1SOL    HW310807   0.334   2.050   4.190 -1.3936 -0.1332 -1.3267
    1SOL    MW410808   0.270   2.071   4.244 -0.5368 -0.3126 -0.2146
    1SOL     OW10809   2.168   1.570   4.490  0.3454 -0.2835 -0.1530
    1SOL    HW210810   2.215   1.502   4.538 -1.6470 -1.4005  0.2500
    1SOL    HW310811   2.149   1.529   4.405 -2.1629 -0.8201  0.6210
    1SOL    MW410812   2.172   1.555   4.485 -0.2482 -0.5016  0.0024
    1SOL     OW10813   3.120   3.037   4.631  0.0492  0.2003 -0.2178
    1SOL    HW210814   3.201   3.086   4.620  0.3415  0.0757  1.2673
    1SOL    HW310815   3.094   3.053   4.722 -1.9712  0.8160 -0.8808
    1SOL    MW410816   3.127   3.045   4.642 -0.1788  0.2649 -0.1092
    1SOL     OW10817   0.932   3.248   4.658  0.0508  0.2798 -0.2587
    1SOL    HW210818   1.017   3.292   4.655  0.1770  0.0504 -0.1349
    1SOL    HW310819   0.916   3.234   4.751 -0.1350  0.3465 -0.2806
    1SOL    MW410820   0.941   3.252   4.670  0.0429  0.2584 -0.2451
    1SOL     OW10821   1.802   3.201   4.272  0.1636 -0.0252  0.1352
    1SOL    HW210822   1.754   3.146   4.209  0.3923 -0.0874  0.0143
    1SOL    HW310823   1.801   3.288   4.233 -1.2808  0.3191  0.9278
    1SOL    MW410824   1.795   3.205   4.259  0.0032  0.0119  0.2246
    1SOL     OW10825   3.047   2.262   4.131  0.2877 -0.2898 -0.0522
    1SOL    HW210826   2.963   2.248   4.175  0.0881  2.1737  0.3971
    1SOL    HW310827   3.023   2.296   4.045  0.8107  0.8989  0.2566
    1SOL    MW410828   3.032   2.265   4.125  0.3302  0.1922  0.0477
    1SOL     OW10829   2.974   3.840   4.599  0.7090  0.1274  0.4061
    1SOL    HW210830   2.986   3.749   4.573  0.7372  0.5700 -1.2083
    1SOL    HW310831   2.883   3.859   4.577  0.8683  0.6491  0.1833
    1SOL    MW410832   2.964   3.831   4.592  0.7339  0.2549  0.1636
    1SOL     OW10833   1.375   0.145   4.222  0.1441 -0.1437 -0.3274
    1SOL    HW210834   1.417   0.133   4.307  0.4564  0.0888 -0.4506
    1SOL    HW310835   1.305   0.079   4.221  0.3175 -0.3344 -0.0071
    1SOL    MW410836   1.371   0.134   4.233  0.2081 -0.1382 -0.3014
    1SOL     OW10837   0.023   2.028   4.593 -0.5890 -0.3019  0.1417
    1SOL    HW210838  -0.019   2.051   4.510 -1.4592  0.6619  0.8212
    1SOL    HW310839   0.115   2.018   4.572 -0.8394 -0.3018 -0.9875
    1SOL    MW410840   0.029   2.030   4.579 -0.7369 -0.1748  0.0820
    1SOL     OW10841   3.974   2.955   4.722  0.1200  0.6015  0.1341
    1SOL    HW210842   4.037   2.887   4.697  0.3493  0.2239  1.6823
    1SOL    HW310843   3.949   2.933   4.811 -0.9252  1.7308  0.1381
    1SOL    MW410844   3.979   2.943   4.730  0.0126  0.7007  0.3390
    1SOL     OW10845   2.017   1.795   4.594  0.4228  0.0477 -0.2587
    1SOL    HW210846   2.042   1.718   4.543  1.4817  0.8122 -0.9286
    1SOL    HW310847   1.984   1.857   4.528  0.4227  0.4932  0.1576
    1SOL    MW410848   2.016   1.793   4.578  0.5624  0.2073 -0.2923
    1SOL     OW10849   1.568   1.087   4.242 -0.2861 -0.1389  0.2301
    1SOL    HW210850   1.613   1.002   4.245  0.2802  0.1560 -0.1316
    1SOL    HW310851   1.631   1.147   4.204 -1.5050 -0.0511 -1.6860
    1SOL    MW410852   1.582   1.083   4.238 -0.3722 -0.0885 -0.0710
    1SOL     OW10853   3.941   3.253   4.734  0.4424 -0.1403 -0.4314
    1SOL    HW210854   4.006   3.287   4.672 -1.6766 -1.1851 -3.3375
    1SOL    HW310855   3.949   3.158   4.728 -0.3450 -0.2644  0.3122
    1SOL    MW410856   3.951   3.245   4.725  0.0587 -0.2947 -0.7167
    1SOL     OW10857   0.650   0.931   4.718 -0.0878 -0.1680  0.1440
    1SOL    HW210858   0.593   0.854   4.712 -1.9518  1.1877  0.1651
    1SOL    HW310859   0.597   1.003   4.684  1.8734  1.0025 -0.5015
    1SOL    MW410860   0.636   0.930   4.713 -0.0750  0.1653  0.0615
    1SOL     OW10861   2.254   2.878   4.605  0.2484 -0.1932  0.2387
    1SOL    HW210862   2.214   2.821   4.671 -0.8236  0.4016  0.1117
    1SOL    HW310863   2.325   2.826   4.569  0.8756 -0.5051  1.8991
    1SOL    MW410864   2.258   2.864   4.609  0.1895 -0.1557  0.4411
    1SOL     OW10865   3.420   1.855   4.492 -0.1809  0.1569  0.7154
    1SOL    HW210866   3.390   1.945   4.504 -2.2025 -0.3069 -0.6027
    1SOL    HW310867   3.462   1.833   4.575 -1.1680  1.7424  1.6696
    1SOL    MW410868   3.422   1.864   4.504 -0.5777  0.3048  0.6671
    1SOL     OW10869   1.612   2.278   4.213 -0.2641 -0.1015 -0.4598
    1SOL    HW210870   1.693   2.319   4.243 -0.7365  0.5051  0.0175
    1SOL    HW310871   1.607   2.195   4.260 -0.7328  0.6041  0.7486
    1SOL    MW410872   1.622   2.273   4.223 -0.3884  0.0715 -0.2375
    1SOL     OW10873   1.665   1.639   4.604  0.2096 -0.4309  0.0321
    1SOL    HW210874   1.706   1.620   4.519 -1.0216  0.7440 -0.8529
    1SOL    HW310875   1.722   1.704   4.644  0.0570  0.0431 -0.5110
    1SOL    MW410876   1.678   1.645   4.598  0.0271 -0.2135 -0.1569
    1SOL     OW10877   4.094   0.034   4.586  0.1631  0.2248  0.0476
    1SOL    HW210878   4.125   0.102   4.644 -0.1676  2.4684 -2.3025
    1SOL    HW310879   4.174  -0.009   4.554  0.4477  0.4726  0.4249
    1SOL    MW410880   4.109   0.037   4.589  0.1574  0.5535 -0.2127
    1SOL     OW10881   2.069   3.000   4.460 -0.0808 -0.4085 -0.2141
    1SOL    HW210882   2.081   2.968   4.371  0.0265 -0.6992 -0.0953
    1SOL    HW310883   2.139   2.957   4.510 -0.2104 -0.3341  0.0315
    1SOL    MW410884   2.080   2.990   4.455 -0.0839 -0.4370 -0.1659
    1SOL     OW10885   4.311   3.884   4.163  0.4889  0.2100  0.4018
    1SOL    HW210886   4.278   3.797   4.185 -0.5802  0.5719  0.2446
    1SOL    HW310887   4.301   3.890   4.068 -0.6467  1.0008  0.5713
    1SOL    MW410888   4.305   3.874   4.153  0.1984  0.3622  0.4034
    1SOL     OW10889   1.104   2.630   4.515  0.2431 -0.0458 -0.3557
    1SOL    HW210890   1.169   2.561   4.502 -0.0416 -0.1901 -1.0436
    1SOL    HW310891   1.023   2.583   4.535  0.4192  0.1429  0.8280
    1SOL    MW410892   1.102   2.614   4.516  0.2288 -0.0401 -0.2904
    1SOL     OW10893   0.709   0.572   4.697 -0.0574  0.2432 -0.3822
    1SOL    HW210894   0.618   0.603   4.697 -0.6688 -1.4953 -0.0827
    1SOL    HW310895   0.744   0.600   4.781 -1.0414 -1.1021  0.4955
    1SOL    MW410896   0.702   0.580   4.708 -0.2679 -0.1636 -0.2270
    1SOL     OW10897   4.292   2.835   4.253 -0.3023  0.0846  0.3802
    1SOL    HW210898   4.280   2.922   4.213  0.3170 -0.0128 -0.0222
    1SOL    HW310899   4.206   2.794   4.246  0.2293 -0.6305 -2.5366
    1SOL    MW410900   4.279   2.841   4.247 -0.1502 -0.0226 -0.0582
    1SOL     OW10901   0.274   0.021   4.154  0.1366 -0.1004  0.1671
    1SOL    HW210902   0.351   0.057   4.197 -0.5497 -0.1026  1.4056
    1SOL    HW310903   0.275  -0.072   4.174  0.0771 -0.1911 -0.2343
    1SOL    MW410904   0.284   0.014   4.162  0.0382 -0.1125  0.2780
    1SOL     OW10905   3.150   2.265   4.575  0.1222  0.4316 -0.0981
    1SOL    HW210906   3.076   2.256   4.635  0.3080 -0.7947 -0.0303
    1SOL    HW310907   3.146   2.355   4.544  0.5389  1.3397  2.4151
    1SOL    MW410908   3.140   2.275   4.579  0.2017  0.3898  0.2422
    1SOL     OW10909   0.442   1.140   4.137  0.5155  0.3178  0.1532
    1SOL    HW210910   0.440   1.046   4.155  0.7134  0.4703  0.9911
    1SOL    HW310911   0.458   1.146   4.042 -0.2833 -0.4922 -0.0345
    1SOL    MW410912   0.444   1.129   4.127  0.4362  0.2310  0.2389
    1SOL     OW10913   2.297   3.243   4.228  0.2796  0.3866  0.1052
    1SOL    HW210914   2.217   3.194   4.208  0.6698 -0.2758  0.1511
    1SOL    HW310915   2.323   3.213   4.315  1.9612 -1.2807 -0.9424
    1SOL    MW410916   2.290   3.233   4.237  0.5531  0.0792 -0.0272
    1SOL     OW10917   0.020   0.087   4.255 -0.3476  0.3157  0.1742
    1SOL    HW210918   0.108   0.063   4.227 -0.4021  1.0124 -0.6359
    1SOL    HW310919   0.027   0.179   4.280 -0.7041  0.1947  0.7202
    1SOL    MW410920   0.032   0.096   4.254 -0.4019  0.3916  0.1392
    1SOL     OW10921   1.246   3.853   4.487  0.1169  0.2053 -0.0249
    1SOL    HW210922   1.294   3.926   4.526 -1.3585  0.9788  0.4080
    1SOL    HW310923   1.154   3.872   4.507 -0.2743 -1.9042  0.3030
    1SOL    MW410924   1.240   3.865   4.495 -0.1295  0.0291  0.0753
    1SOL     OW10925   1.514   3.544   4.710 -0.6097  0.5475 -0.0082
    1SOL    HW210926   1.607   3.521   4.710 -0.7290  0.0483  0.8450
    1SOL    HW310927   1.505   3.609   4.639  0.4829  1.0003  0.2577
    1SOL    MW410928   1.525   3.550   4.700 -0.4812  0.5412  0.1392
    1SOL     OW10929   2.817   2.073   4.504  0.3052  0.1408  0.4284
    1SOL    HW210930   2.838   2.154   4.550  1.6118 -1.2209  2.2508
    1SOL    HW310931   2.725   2.057   4.525 -0.2737  1.6775 -0.8032
    1SOL    MW410932   2.807   2.082   4.512  0.4010  0.1640  0.5059
    1SOL     OW10933   2.782   1.129   4.557  0.1278 -0.7120  0.2851
    1SOL    HW210934   2.701   1.180   4.555  0.9584  0.5864 -0.7779
    1SOL    HW310935   2.753   1.038   4.550 -1.2741 -0.3065  0.6171
    1SOL    MW410936   2.768   1.124   4.556  0.0525 -0.4872  0.1884
    1SOL     OW10937   1.525   0.721   4.170  0.0707  0.5335  0.0518
    1SOL    HW210938   1.515   0.725   4.075  0.1234 -1.9693 -0.0885
    1SOL    HW310939   1.610   0.762   4.187  0.5047  0.1210 -1.0842
    1SOL    MW410940   1.535   0.727   4.160  0.1351  0.1488 -0.1163
    1SOL     OW10941   4.071   0.893   4.529 -0.3039  0.3459  0.1426
    1SOL    HW210942   4.082   0.985   4.552  1.6752  0.3138 -0.5941
    1SOL    HW310943   4.080   0.891   4.434 -2.0064 -0.3920 -0.0182
    1SOL    MW410944   4.074   0.905   4.520 -0.2680  0.2444  0.0238
    1SOL     OW10945   2.374   1.117   4.650  0.4253 -0.0369 -0.1921
    1SOL    HW210946   2.400   1.025   4.661  0.9251  0.2124  0.8482
    1SOL    HW310947   2.451   1.159   4.611  0.4149  0.0588 -0.1103
    1SOL    MW410948   2.388   1.110   4.646  0.4897  0.0086 -0.0443
    1SOL     OW10949   1.413   3.167   4.183 -0.2299  0.0293 -0.1478
    1SOL    HW210950   1.426   3.116   4.263 -0.6596  0.3938  0.1585
    1SOL    HW310951   1.335   3.128   4.143 -0.2806  0.1375 -0.1550
    1SOL    MW410952   1.404   3.155   4.188 -0.2933  0.0918 -0.1087
    1SOL     OW10953   1.130   2.343   4.115 -0.1178 -0.0327  0.0935
    1SOL    HW210954   1.207   2.397   4.133  0.2326 -0.4502 -0.1211
    1SOL    HW310955   1.150   2.259   4.156 -0.3563 -0.2165 -0.1622
    1SOL    MW410956   1.143   2.339   4.122 -0.1030 -0.1118  0.0319
    1SOL     OW10957   4.345   1.274   4.441 -0.3916  0.0945  0.8034
    1SOL    HW210958   4.388   1.348   4.484  0.1073  0.2362  0.0534
    1SOL    HW310959   4.388   1.197   4.477  0.5124  0.2350  0.0345
    1SOL    MW410960   4.356   1.274   4.452 -0.2069  0.1317  0.6027
    1SOL     OW10961   4.074   0.437   4.670  0.4186  0.2912  0.1974
    1SOL    HW210962   4.115   0.373   4.729  0.9811  1.2621  0.8673
    1SOL    HW310963   4.063   0.515   4.724 -1.7652  0.2336 -0.1606
    1SOL    MW410964   4.078   0.439   4.685  0.2050  0.4117  0.2389
    1SOL     OW10965   3.450   1.058   4.572  0.0605  0.2412 -0.6431
    1SOL    HW210966   3.359   1.036   4.556  0.3292 -0.2111 -1.6165
    1SOL    HW310967   3.460   1.148   4.541 -0.7293  1.3241  2.1307
    1SOL    MW410968   3.440   1.067   4.566 -0.0081  0.3244 -0.4058
    1SOL     OW10969   3.369   4.171   4.559  0.0227  0.0739 -0.5452
    1SOL    HW210970   3.452   4.124   4.549  0.3819  0.0668  2.0286
    1SOL    HW310971   3.394   4.253   4.602 -1.2475  0.2374 -0.0957
    1SOL    MW410972   3.383   4.176   4.564 -0.0975  0.0949 -0.1464
    1SOL     OW10973   0.764   4.474   4.618 -0.3071  0.3114  0.2360
    1SOL    HW210974   0.688   4.416   4.627  0.0593 -0.1149  0.6599
    1SOL    HW310975   0.768   4.494   4.524 -0.7527  0.0832  0.1646
    1SOL    MW410976   0.754   4.469   4.607 -0.3176  0.2246  0.2823
    1SOL     OW10977   0.299   2.014   4.519  0.0084  0.8880 -0.5892
    1SOL    HW210978   0.372   2.070   4.546 -1.0757  1.7460  0.6600
    1SOL    HW310979   0.297   2.021   4.423  2.6051 -0.5195 -0.7672
    1SOL    MW410980   0.308   2.022   4.510  0.2080  0.8156 -0.4478
    1SOL     OW10981   1.986   1.305   4.260 -0.3164 -0.0611  0.4792
    1SOL    HW210982   2.061   1.354   4.224 -0.6716 -0.4601 -0.8486
    1SOL    HW310983   1.966   1.349   4.342  0.9814  0.4446  0.5493
    1SOL    MW410984   1.994   1.317   4.266 -0.1920 -0.0470  0.3133
    1SOL     OW10985   4.285   4.612   4.162  0.3103  0.0936 -0.4774
    1SOL    HW210986   4.222   4.668   4.209 -0.1987 -1.0693  0.2625
    1SOL    HW310987   4.370   4.651   4.181 -0.0276  0.5465  0.1321
    1SOL    MW410988   4.288   4.625   4.171  0.1988 -0.0005 -0.2995
    1SOL     OW10989   2.699   2.723   4.601 -0.5379 -0.1003 -0.5537
    1SOL    HW210990   2.617   2.742   4.556 -1.0307 -0.5852  0.1422
    1SOL    HW310991   2.747   2.806   4.598 -0.8246  0.0419 -1.4182
    1SOL    MW410992   2.695   2.736   4.595 -0.6409 -0.1454 -0.5760
    1SOL     OW10993   2.179   0.194   4.430  0.4197  0.2137 -0.3144
    1SOL    HW210994   2.088   0.222   4.444  0.0758 -0.7315 -0.6430
    1SOL    HW310995   2.231   0.271   4.454 -0.4232  0.4935  0.6371
    1SOL    MW410996   2.174   0.208   4.435  0.2632  0.1259 -0.2322
    1SOL     OW10997   3.224   3.916   4.503  0.1676 -0.0446  0.1048
    1SOL    HW210998   3.276   3.989   4.537 -0.6022  0.1380  0.8866
    1SOL    HW310999   3.158   3.899   4.570 -0.5017 -0.5786 -0.6749
    1SOL    MW411000   3.222   3.923   4.516 -0.0222 -0.0908  0.1049
    1SOL     OW11001   0.165   4.568   4.571 -0.7227  0.0530  0.7843
    1SOL    HW211002   0.085   4.589   4.523 -0.3353 -0.4181 -0.0741
    1SOL    HW311003   0.218   4.648   4.565 -0.6524 -0.0226  0.3769
    1SOL    MW411004   0.162   4.582   4.564 -0.6623 -0.0191  0.6170
    1SOL     OW11005   3.387   2.116   4.619 -0.3018  0.5801 -0.3286
    1SOL    HW211006   3.456   2.178   4.599 -1.2151  1.6760 -0.1080
    1SOL    HW311007   3.309   2.169   4.633 -1.1393 -0.6148 -0.2965
    1SOL    MW411008   3.386   2.131   4.618 -0.5329  0.5670 -0.2952
    1SOL     OW11009   1.818   4.304   4.092 -0.2453  0.5539  0.1496
    1SOL    HW211010   1.814   4.302   3.997  1.1774  0.3427  0.0778
    1SOL    HW311011   1.894   4.359   4.112 -0.7549  0.9068  1.1717
    1SOL    MW411012   1.828   4.311   4.082 -0.1248  0.5727  0.2751
    1SOL     OW11013   2.309   1.096   4.161  0.2826  0.5657 -0.2252
    1SOL    HW211014   2.375   1.162   4.184  1.5921 -0.0541 -2.1143
    1SOL    HW311015   2.356   1.013   4.162 -0.7050 -0.0104 -0.6804
    1SOL    MW411016   2.324   1.094   4.164  0.3250  0.4079 -0.5345
    1SOL     OW11017   1.092   4.134   4.696  0.4974 -0.0180 -0.0488
    1SOL    HW211018   1.066   4.223   4.672  0.5059 -0.1507 -0.5482
    1SOL    HW311019   1.066   4.126   4.788  0.1723  0.3782 -0.1033
    1SOL    MW411020   1.085   4.145   4.705  0.4555  0.0172 -0.1221
    1SOL     OW11021   3.276   0.234   4.587  0.3889  0.0970  0.0286
    1SOL    HW211022   3.361   0.201   4.558  0.8908  0.8816  0.5998
    1SOL    HW311023   3.295   0.319   4.625 -0.5881  0.0581  0.6128
    1SOL    MW411024   3.289   0.240   4.588  0.3264  0.1954  0.1812
    1SOL     OW11025   4.046   1.697   4.263  0.1140  0.3150  0.3047
    1SOL    HW211026   4.131   1.672   4.225 -0.1103  1.1783 -0.8029
    1SOL    HW311027   4.043   1.651   4.347  0.6196 -1.6769 -0.7304
    1SOL    MW411028   4.057   1.688   4.269  0.1512  0.1662  0.0215
    1SOL     OW11029   1.816   1.806   4.779 -0.3267 -0.1566 -0.6150
    1SOL    HW211030   1.809   1.733   4.840 -1.1116  0.3322 -0.1023
    1SOL    HW311031   1.896   1.789   4.730 -0.1458 -1.0064 -0.0378
    1SOL    MW411032   1.825   1.794   4.781 -0.4064 -0.2042 -0.4711
    1SOL     OW11033   1.165   1.904   4.501  0.2630  0.4491 -0.0107
    1SOL    HW211034   1.106   1.830   4.488 -0.8270  1.4234 -0.7107
    1SOL    HW311035   1.237   1.869   4.553 -0.5047 -0.9700  0.1065
    1SOL    MW411036   1.167   1.890   4.506  0.0179  0.3904 -0.0877
    1SOL     OW11037   2.950   2.789   4.277 -0.2529 -0.3027  0.3357
    1SOL    HW211038   2.936   2.879   4.248 -0.1780 -0.1209  0.8575
    1SOL    HW311039   2.879   2.739   4.236 -1.3240  0.2986  1.4235
    1SOL    MW411040   2.938   2.794   4.268 -0.3843 -0.1993  0.5474
    1SOL     OW11041   1.435   0.486   4.308  0.2213 -0.2663 -0.2608
    1SOL    HW211042   1.464   0.558   4.252 -0.3838  1.1265  1.1720
    1SOL    HW311043   1.390   0.426   4.248  1.3756  0.1756 -1.5988
    1SOL    MW411044   1.433   0.487   4.293  0.2939 -0.0242 -0.2480
    1SOL     OW11045   4.243   2.487   4.650  0.0583 -0.4263  0.0189
    1SOL    HW211046   4.326   2.450   4.681  0.1179  0.2750  0.7049
    1SOL    HW311047   4.176   2.427   4.683  0.1549  0.0529  1.0997
    1SOL    MW411048   4.245   2.474   4.658  0.0792 -0.2706  0.2522
    1SOL     OW11049   4.064   3.978   4.286  0.1064  0.0841  0.2175
    1SOL    HW211050   4.153   3.968   4.254  0.3964  1.0166  0.7117
    1SOL    HW311051   4.060   3.924   4.365  1.1994  2.4745  1.9878
    1SOL    MW411052   4.075   3.970   4.292  0.2890  0.5224  0.5155
    1SOL     OW11053   3.347   3.680   4.445  0.3166 -0.1616 -0.6864
    1SOL    HW211054   3.296   3.759   4.459  0.2175 -0.1847 -0.9093
    1SOL    HW311055   3.429   3.695   4.492 -0.5751 -0.8232  1.1455
    1SOL    MW411056   3.351   3.692   4.453  0.1860 -0.2520 -0.4740
    1SOL     OW11057   0.482   0.148   4.289 -0.2496 -0.2216  0.2131
    1SOL    HW211058   0.574   0.133   4.266 -0.1280 -0.0051  0.5518
    1SOL    HW311059   0.458   0.227   4.242  0.3986  0.9992  1.8809
    1SOL    MW411060   0.491   0.156   4.280 -0.1480 -0.0320  0.4783
    1SOL     OW11061   0.934   3.060   4.459  0.5038  0.3385  0.4445
    1SOL    HW211062   0.852   3.015   4.481 -0.2767  1.7868  0.5812
    1SOL    HW311063   0.950   3.119   4.533  1.7418 -0.0067  0.4668
    1SOL    MW411064   0.925   3.062   4.472  0.5642  0.4838  0.4654
    1SOL     OW11065   0.166   2.527   4.544 -0.2118 -0.0960  0.0626
    1SOL    HW211066   0.162   2.622   4.558 -0.3169  0.4611 -3.1656
    1SOL    HW311067   0.255   2.512   4.512 -0.2676 -1.0537  0.3603
    1SOL    MW411068   0.177   2.538   4.541 -0.2331 -0.1490 -0.3238
    1SOL     OW11069   2.383   1.727   4.483  0.4458 -0.6844  0.5393
    1SOL    HW211070   2.301   1.677   4.482  0.6836 -1.0756  0.0041
    1SOL    HW311071   2.360   1.810   4.524 -0.6704 -0.0530 -1.3048
    1SOL    MW411072   2.369   1.731   4.488  0.3300 -0.6528  0.2251
    1SOL     OW11073   0.419   0.858   4.207 -0.2635 -0.3185  0.2336
    1SOL    HW211074   0.497   0.809   4.182  0.7731  0.9056  1.0132
    1SOL    HW311075   0.346   0.799   4.187  0.8696 -1.5776 -0.2450
    1SOL    MW411076   0.419   0.844   4.201  0.0227 -0.3231  0.2732
    1SOL     OW11077   2.515   1.777   4.257  0.5159 -0.1902  0.1679
    1SOL    HW211078   2.453   1.837   4.215  0.9100 -0.0800 -0.2507
    1SOL    HW311079   2.473   1.756   4.341 -0.6988 -1.1040 -0.6436
    1SOL    MW411080   2.501   1.782   4.263  0.4077 -0.2962  0.0052
    1SOL     OW11081   3.519   2.830   4.531  0.2279 -0.3835 -0.5806
    1SOL    HW211082   3.569   2.749   4.521 -0.5524 -0.7618 -1.4575
    1SOL    HW311083   3.586   2.900   4.528  0.9510 -1.0026  0.6584
    1SOL    MW411084   3.535   2.829   4.530  0.2205 -0.5152 -0.5331
    1SOL     OW11085   2.363   2.483   4.704  0.4292  0.3960 -0.6852
    1SOL    HW211086   2.370   2.485   4.608  1.1236 -1.3630 -0.6890
    1SOL    HW311087   2.450   2.506   4.734  0.7232 -0.9155 -0.5069
    1SOL    MW411088   2.375   2.487   4.695  0.5593 -0.0091 -0.6618
    1SOL     OW11089   1.118   1.291   4.294 -0.4769  0.4119  0.1306
    1SOL    HW211090   1.182   1.234   4.252 -0.0271  0.1704  1.1322
    1SOL    HW311091   1.128   1.275   4.387  0.7707  3.2867  0.5541
    1SOL    MW411092   1.128   1.281   4.301 -0.2530  0.7594  0.3185
    1SOL     OW11093   3.412   1.329   4.498  0.0080 -0.0058 -0.1638
    1SOL    HW211094   3.402   1.333   4.403 -0.3927  0.0545 -0.1210
    1SOL    HW311095   3.336   1.376   4.531 -0.2423 -0.6689  0.2021
    1SOL    MW411096   3.400   1.336   4.490 -0.0780 -0.0854 -0.1097
    1SOL     OW11097   1.829   4.052   4.210  0.2862  0.1520  0.1407
    1SOL    HW211098   1.819   4.134   4.161  0.8090 -0.1310 -0.4563
    1SOL    HW311099   1.823   4.078   4.302  0.0412  0.8027 -0.0517
    1SOL    MW411100   1.827   4.066   4.216  0.3229  0.2007  0.0367
    1SOL     OW11101   4.066   0.901   4.259  0.6199  0.1030  0.3808
    1SOL    HW211102   3.994   0.850   4.223  1.2543  0.5221 -1.5296
    1SOL    HW311103   4.144   0.867   4.215  1.3048  1.2809  0.6503
    1SOL    MW411104   4.067   0.890   4.249  0.7935  0.3138  0.1640
    1SOL     OW11105   0.090   0.339   4.341 -0.0361  0.4400 -0.1285
    1SOL    HW211106   0.078   0.401   4.269  1.1927  0.5514 -0.2370
    1SOL    HW311107   0.181   0.350   4.368  0.7493 -2.5896 -1.3253
    1SOL    MW411108   0.100   0.349   4.335  0.2296  0.0550 -0.3004
    1SOL     OW11109   1.177   3.581   4.494  0.1943 -0.6693  0.1946
    1SOL    HW211110   1.185   3.576   4.399 -0.6772  0.1315  0.0731
    1SOL    HW311111   1.207   3.670   4.516 -0.1404 -0.6581  0.6089
    1SOL    MW411112   1.182   3.592   4.484  0.0353 -0.5622  0.2332
    1SOL     OW11113   1.576   3.999   4.467 -0.4064  0.5448  0.5312
    1SOL    HW211114   1.663   4.034   4.485 -0.1922 -0.4229  1.4313
    1SOL    HW311115   1.520   4.042   4.531 -0.0322 -1.2104  2.0694
    1SOL    MW411116   1.580   4.010   4.478 -0.3288  0.1855  0.8531
    1SOL     OW11117   0.051   4.025   4.250 -0.5666 -0.7073 -0.5186
    1SOL    HW211118  -0.017   3.969   4.212 -2.1161  0.4168  0.5444
    1SOL    HW311119   0.050   4.104   4.197 -1.6821  0.2400  0.8820
    1SOL    MW411120   0.042   4.028   4.238 -0.9183 -0.4339 -0.1936
    1SOL     OW11121   0.755   4.566   4.343 -0.1348  0.0053  0.0576
    1SOL    HW211122   0.739   4.477   4.310  0.6356  0.1415 -0.6874
    1SOL    HW311123   0.710   4.623   4.281 -0.1533  0.1624  0.2174
    1SOL    MW411124   0.747   4.561   4.331 -0.0357  0.0443 -0.0200
    1SOL     OW11125   0.709   2.894   4.463 -0.0066 -0.8948 -0.1561
    1SOL    HW211126   0.704   2.876   4.369  0.1148 -1.1018 -0.1249
    1SOL    HW311127   0.705   2.807   4.504  0.4147 -0.8386  0.0089
    1SOL    MW411128   0.708   2.880   4.456  0.0650 -0.9146 -0.1297
    1SOL     OW11129   0.072   0.483   4.116  0.2857  0.4541  0.1920
    1SOL    HW211130   0.071   0.419   4.045 -0.0593  0.7620 -0.0804
    1SOL    HW311131  -0.020   0.496   4.137  0.3860  0.4178  0.6482
    1SOL    MW411132   0.060   0.476   4.109  0.2535  0.4900  0.2165
    1SOL     OW11133   1.356   1.918   4.194 -0.3863 -0.4058 -0.2195
    1SOL    HW211134   1.430   1.956   4.241 -1.1761  1.6733 -0.6143
    1SOL    HW311135   1.368   1.824   4.202  2.3875 -0.0926 -0.4228
    1SOL    MW411136   1.367   1.911   4.201 -0.1245 -0.0902 -0.2980
    1SOL     OW11137   1.643   3.064   4.091  0.4465  0.2417 -0.1403
    1SOL    HW211138   1.562   3.103   4.123 -0.0064 -0.6628 -0.1785
    1SOL    HW311139   1.640   2.973   4.120  0.1703 -0.5241 -2.4078
    1SOL    MW411140   1.632   3.057   4.099  0.3504  0.0212 -0.4449
    1SOL     OW11141   2.509   3.596   4.187  0.2173  0.2239  0.0448
    1SOL    HW211142   2.422   3.565   4.161  0.5912 -1.4561  0.6821
    1SOL    HW311143   2.504   3.605   4.283  0.6280  0.4735  0.0448
    1SOL    MW411144   2.497   3.593   4.196  0.3209  0.0355  0.1287
    1SOL     OW11145   2.624   2.458   4.279 -0.3312  0.0602  0.1676
    1SOL    HW211146   2.563   2.470   4.353 -1.0906 -0.7544 -0.3196
    1SOL    HW311147   2.572   2.413   4.213  0.7954 -0.5586 -0.2930
    1SOL    MW411148   2.609   2.454   4.280 -0.2825 -0.1290  0.0424
    1SOL     OW11149   0.111   4.122   4.513 -0.6170 -0.4721 -0.0627
    1SOL    HW211150   0.084   4.090   4.427  0.2463  0.0976 -0.5532
    1SOL    HW311151   0.029   4.149   4.555 -1.0489 -0.8114 -0.6808
    1SOL    MW411152   0.096   4.122   4.507 -0.5601 -0.4411 -0.2089
    1SOL     OW11153   0.909   2.453   4.227  0.1196  0.2375  0.0624
    1SOL    HW211154   0.839   2.398   4.190  0.1430 -0.7444  1.4302
    1SOL    HW311155   0.990   2.417   4.190  0.1522 -0.8026  1.1429
    1SOL    MW411156   0.910   2.441   4.217  0.1270 -0.0296  0.3858
    1SOL     OW11157   1.920   1.958   4.143  0.0538 -0.6092 -0.2207
    1SOL    HW211158   1.969   2.040   4.143 -1.2174  0.1933  1.6624
    1SOL    HW311159   1.861   1.964   4.068  0.5229 -0.1495 -0.5525
    1SOL    MW411160   1.919   1.969   4.133 -0.0520 -0.4427 -0.0157
    1SOL     OW11161   2.486   4.430   4.243  0.0929 -0.0485 -0.4052
    1SOL    HW211162   2.448   4.482   4.314 -0.7179 -0.4081 -0.5757
    1SOL    HW311163   2.530   4.494   4.187 -0.3471  0.3793 -0.2626
    1SOL    MW411164   2.487   4.445   4.245 -0.0722 -0.0396 -0.4091
    1SOL     OW11165   4.051   1.568   4.502 -0.0665  0.2233 -0.1209
    1SOL    HW211166   3.986   1.627   4.541  0.5802  0.7544  0.1592
    1SOL    HW311167   4.006   1.484   4.496 -1.1580  0.8454 -0.9477
    1SOL    MW411168   4.036   1.565   4.506 -0.1254  0.3754 -0.1936
    1SOL     OW11169   3.843   1.540   4.146 -0.1844 -0.1561  0.0660
    1SOL    HW211170   3.769   1.565   4.202 -0.4788  1.7221 -1.1172
    1SOL    HW311171   3.915   1.596   4.175  0.6285 -1.5469  0.7944
    1SOL    MW411172   3.843   1.551   4.157 -0.1161 -0.0919  0.0062
    1SOL     OW11173   4.280   1.288   4.170  0.2647 -0.8109 -0.3797
    1SOL    HW211174   4.210   1.226   4.153 -0.6299  0.4093 -1.2219
    1SOL    HW311175   4.283   1.296   4.265 -0.6227 -0.9985 -0.3328
    1SOL    MW411176   4.271   1.281   4.180  0.0305 -0.6746 -0.4849
    1SOL     OW11177   2.249   0.202   4.166  0.3567 -0.6617 -0.5284
    1SOL    HW211178   2.341   0.181   4.179  0.1787 -0.8087  0.5429
    1SOL    HW311179   2.213   0.209   4.254 -0.0498  2.1075 -0.8484
    1SOL    MW411180   2.257   0.200   4.179  0.2797 -0.3157 -0.4292
    1SOL     OW11181   0.481   1.097   4.556 -0.5513 -0.4617 -0.1639
    1SOL    HW211182   0.403   1.150   4.575 -0.0793  0.3729 -0.5399
    1SOL    HW311183   0.446   1.013   4.529 -1.3184 -0.2583  0.1679
    1SOL    MW411184   0.466   1.093   4.555 -0.5902 -0.3246 -0.1702
    1SOL     OW11185   1.105   0.538   4.494  0.3597  0.1997  0.1110
    1SOL    HW211186   1.041   0.469   4.509  0.3214  0.1818 -0.1447
    1SOL    HW311187   1.189   0.499   4.521  0.2758  0.2023  0.3826
    1SOL    MW411188   1.108   0.523   4.500  0.3436  0.1976  0.1130
    1SOL     OW11189   3.429   1.310   4.204  0.1712  0.0871  0.0955
    1SOL    HW211190   3.409   1.398   4.172  0.0211 -0.0860 -0.2811
    1SOL    HW311191   3.349   1.260   4.188  0.2367 -0.1024  0.3664
    1SOL    MW411192   3.416   1.315   4.198  0.1600  0.0392  0.0815
    1SOL     OW11193   1.740   0.874   4.268  0.5633  0.0398 -0.6542
    1SOL    HW211194   1.815   0.865   4.209  0.3130 -1.6434 -0.7448
    1SOL    HW311195   1.768   0.830   4.349 -0.4870 -0.9953 -0.8521
    1SOL    MW411196   1.754   0.867   4.271  0.3917 -0.3189 -0.6924
    1SOL     OW11197   1.819   1.637   4.365 -0.0894 -0.0561 -0.1268
    1SOL    HW211198   1.874   1.653   4.289 -0.8923 -0.1722 -0.7433
    1SOL    HW311199   1.854   1.557   4.405 -0.6535 -0.9247 -1.3155
    1SOL    MW411200   1.831   1.628   4.360 -0.2699 -0.1860 -0.3648
    1SOL     OW11201   2.467   2.118   4.274  0.0312 -0.2649  0.5575
    1SOL    HW211202   2.420   2.049   4.226 -0.1777  0.4590 -0.2845
    1SOL    HW311203   2.398   2.177   4.303  0.4639  1.2477 -1.3873
    1SOL    MW411204   2.452   2.116   4.272  0.0608  0.0300  0.1898
    1SOL     OW11205   3.191   2.079   4.363 -0.2329  0.4362 -0.0919
    1SOL    HW211206   3.113   2.054   4.312  0.0185  0.0812 -0.3085
    1SOL    HW311207   3.160   2.145   4.424 -0.9870 -0.5880  0.6585
    1SOL    MW411208   3.176   2.084   4.364 -0.2990  0.2544 -0.0215
    1SOL     OW11209   2.189   3.538   4.472  0.4493 -0.6510 -0.2875
    1SOL    HW211210   2.153   3.450   4.485 -0.6769 -0.2391 -0.5062
    1SOL    HW311211   2.135   3.576   4.403  0.9000  0.2246 -0.1676
    1SOL    MW411212   2.177   3.532   4.465  0.3603 -0.4811 -0.3004
    1SOL     OW11213   1.851   2.378   4.311 -0.5481  0.4571 -0.1901
    1SOL    HW211214   1.906   2.327   4.370  0.1555  0.2543 -1.0282
    1SOL    HW311215   1.821   2.451   4.366  0.4929  0.5384  0.2957
    1SOL    MW411216   1.854   2.381   4.326 -0.3178  0.4411 -0.2365
    1SOL     OW11217   3.897   1.332   4.519 -0.4639  0.4226 -0.1149
    1SOL    HW211218   3.882   1.306   4.429 -2.3975  0.5981  0.1213
    1SOL    HW311219   3.810   1.359   4.551 -0.0918 -0.9597  2.2100
    1SOL    MW411220   3.883   1.332   4.512 -0.6697  0.2635  0.2232
    1SOL     OW11221   0.727   3.846   4.638 -0.2312 -0.1607 -0.1075
    1SOL    HW211222   0.693   3.757   4.628  0.5328 -0.3175 -1.5620
    1SOL    HW311223   0.652   3.903   4.622 -0.1465 -0.5198 -2.0062
    1SOL    MW411224   0.713   3.841   4.634 -0.1192 -0.2284 -0.5493
    1SOL     OW11225   3.249   2.798   4.556  0.0843  0.3938  0.1223
    1SOL    HW211226   3.206   2.881   4.572 -0.4822  0.2681 -0.6911
    1SOL    HW311227   3.342   2.817   4.563 -0.0182  1.2393 -0.6526
    1SOL    MW411228   3.256   2.811   4.559 -0.0043  0.4888 -0.0873
    1SOL     OW11229   2.957   3.048   4.191 -0.3296  0.0363 -0.1936
    1SOL    HW211230   2.959   3.041   4.095  0.7863 -0.3435 -0.1489
    1SOL    HW311231   3.033   3.102   4.213 -1.1270  0.9218  0.4191
    1SOL    MW411232   2.967   3.054   4.181 -0.2875  0.1030 -0.1068
    1SOL     OW11233   1.593   2.807   4.469 -0.0863 -0.4448  0.0707
    1SOL    HW211234   1.668   2.860   4.496 -0.2476  0.4483 -1.1857
    1SOL    HW311235   1.518   2.865   4.476 -0.4958 -0.9795  0.1841
    1SOL    MW411236   1.593   2.821   4.474 -0.1616 -0.3974 -0.0801
    1SOL     OW11237   1.698   0.468   4.410 -0.5365 -0.2557 -0.0081
    1SOL    HW211238   1.711   0.553   4.451  0.9427 -0.7810  0.6557
    1SOL    HW311239   1.605   0.466   4.387 -0.3039  2.0606 -1.2615
    1SOL    MW411240   1.687   0.479   4.413 -0.3105 -0.0193 -0.0858
    1SOL     OW11241   1.475   1.071   4.659  0.0544 -0.0638 -0.0887
    1SOL    HW211242   1.448   1.160   4.680  1.4857  0.5408 -0.7294
    1SOL    HW311243   1.397   1.030   4.623 -0.3487  1.2545 -0.7365
    1SOL    MW411244   1.461   1.077   4.657  0.1900  0.1900 -0.2589
    1SOL     OW11245   0.143   2.799   4.531 -0.1151  0.2865  0.2577
    1SOL    HW211246   0.175   2.845   4.454  1.0602  2.2399  1.8647
    1SOL    HW311247   0.049   2.820   4.534 -0.1759  0.1715 -0.6271
    1SOL    MW411248   0.135   2.808   4.521  0.0319  0.5291  0.3529
    1SOL     OW11249   3.457   2.135   4.306 -0.2760 -0.5164 -0.1901
    1SOL    HW211250   3.455   2.198   4.234  0.3913 -0.5391 -0.2303
    1SOL    HW311251   3.365   2.120   4.328 -0.4193  1.2259  0.4829
    1SOL    MW411252   3.444   2.141   4.300 -0.2069 -0.2899 -0.1063
    1SOL     OW11253   4.340   4.184   4.662  0.4218 -0.0602 -0.2707
    1SOL    HW211254   4.306   4.265   4.626  0.3299  0.2015  0.4011
    1SOL    HW311255   4.262   4.134   4.688  0.5259  0.4803  1.1388
    1SOL    MW411256   4.325   4.188   4.661  0.4230  0.0453  0.0043
    1SOL     OW11257   3.846   3.677   4.560 -0.0802 -0.0065 -0.9514
    1SOL    HW211258   3.825   3.607   4.622  0.2799  1.2813  0.6608
    1SOL    HW311259   3.839   3.635   4.474 -2.8504 -1.2431 -0.1853
    1SOL    MW411260   3.842   3.662   4.557 -0.3982  0.0000 -0.6375
    1SOL     OW11261   0.429   3.436   4.539  0.4459  0.0391 -0.0750
    1SOL    HW211262   0.507   3.472   4.582  0.6094  0.7504 -0.9470
    1SOL    HW311263   0.462   3.359   4.492  0.1995 -0.9527  1.3387
    1SOL    MW411264   0.444   3.430   4.538  0.4349  0.0024 -0.0033
    1SOL     OW11265   3.175   0.450   4.157  0.3194  0.3795  0.4504
    1SOL    HW211266   3.171   0.365   4.201 -0.2730  0.2586  0.1689
    1SOL    HW311267   3.259   0.487   4.183  0.2980 -0.0155  1.0873
    1SOL    MW411268   3.185   0.444   4.166  0.2384  0.3114  0.4969
    1SOL     OW11269   0.235   3.108   4.111  0.0103 -0.2619  0.3305
    1SOL    HW211270   0.314   3.159   4.129 -0.3388  0.5362 -0.3326
    1SOL    HW311271   0.170   3.144   4.171 -0.2567  0.1224 -0.1878
    1SOL    MW411272   0.237   3.120   4.121 -0.0710 -0.1061  0.1745
    1SOL     OW11273   1.892   1.073   4.715  0.0629  0.1561  0.0564
    1SOL    HW211274   1.823   1.084   4.650 -0.2113 -0.0662  0.3113
    1SOL    HW311275   1.966   1.039   4.666 -0.1715 -0.0921 -0.1240
    1SOL    MW411276   1.893   1.070   4.700 -0.0043  0.0941  0.0658
    1SOL     OW11277   2.275   3.480   4.106 -0.0543 -0.3841 -0.5153
    1SOL    HW211278   2.279   3.393   4.146  2.7049  1.1643  2.7906
    1SOL    HW311279   2.197   3.520   4.145 -0.0962 -0.5999 -0.3772
    1SOL    MW411280   2.265   3.474   4.116  0.3045 -0.2084 -0.0610
    1SOL     OW11281   3.831   0.502   4.544  0.1371  0.1906  0.0017
    1SOL    HW211282   3.909   0.472   4.591  0.4130  0.4161 -0.3047
    1SOL    HW311283   3.820   0.593   4.571 -0.7027 -0.1803  0.9350
    1SOL    MW411284   3.840   0.510   4.554  0.0625  0.1714  0.0839
    1SOL     OW11285   2.113   0.974   4.556 -0.0675 -0.1565 -0.2604
    1SOL    HW211286   2.197   1.011   4.582 -0.7876  0.2032  1.6307
    1SOL    HW311287   2.110   0.985   4.461  1.9680 -0.0747 -0.3343
    1SOL    MW411288   2.123   0.980   4.547  0.1059 -0.0982 -0.0210
    1SOL     OW11289   4.397   3.230   4.507  0.8460 -0.1199 -0.1216
    1SOL    HW211290   4.398   3.134   4.516 -0.6955 -0.0584  0.9175
    1SOL    HW311291   4.468   3.260   4.564  0.4597 -0.5764  0.6074
    1SOL    MW411292   4.407   3.221   4.516  0.5918 -0.1721  0.1125
    1SOL     OW11293   2.267   0.475   4.112 -0.0038  0.0688  0.0865
    1SOL    HW211294   2.258   0.469   4.017  0.0558  0.8513  0.0353
    1SOL    HW311295   2.267   0.383   4.141 -0.0629 -0.1719 -0.6583
    1SOL    MW411296   2.266   0.462   4.104 -0.0036  0.1403 -0.0186
    1SOL     OW11297   3.625   0.885   4.238 -0.0905  0.1196 -0.0445
    1SOL    HW211298   3.554   0.861   4.179 -1.1307  0.3347  1.1011
    1SOL    HW311299   3.644   0.977   4.217  0.8069 -0.3380 -1.3003
    1SOL    MW411300   3.618   0.894   4.227 -0.1092  0.0876 -0.0596
    1SOL     OW11301   0.213   3.068   4.552 -1.0880  0.1217 -0.0381
    1SOL    HW211302   0.189   3.131   4.620 -0.4423  0.8188 -0.4467
    1SOL    HW311303   0.187   2.983   4.588  0.5912  0.3049  1.7227
    1SOL    MW411304   0.206   3.065   4.566 -0.7813  0.2379  0.1402
    1SOL     OW11305   2.268   1.959   4.618  0.0182  0.0174 -0.2846
    1SOL    HW211306   2.242   2.048   4.645 -1.9510 -0.6782  0.2185
    1SOL    HW311307   2.190   1.906   4.634  1.4606 -1.9826  0.2345
    1SOL    MW411308   2.254   1.964   4.624 -0.0515 -0.3383 -0.1502
    1SOL     OW11309   0.948   1.639   4.200 -0.2044 -0.1549  0.1879
    1SOL    HW211310   0.865   1.594   4.184 -0.5084  0.8354 -1.1000
    1SOL    HW311311   0.935   1.727   4.165  1.2974  0.0936  0.2071
    1SOL    MW411312   0.936   1.645   4.193 -0.0464  0.0085  0.0205
    1SOL     OW11313   3.624   1.603   4.297 -0.2339  0.0533  0.3189
    1SOL    HW211314   3.628   1.694   4.324  0.4311  0.4580 -1.0954
    1SOL    HW311315   3.535   1.592   4.262 -0.4426  0.0484  0.8450
    1SOL    MW411316   3.613   1.613   4.296 -0.1738  0.1061  0.2022
    1SOL     OW11317   3.379   2.809   4.270  0.0172 -0.5535  0.0342
    1SOL    HW211318   3.293   2.769   4.259 -0.0699 -0.4841  0.4757
    1SOL    HW311319   3.394   2.809   4.364  0.3035 -0.1509 -0.0096
    1SOL    MW411320   3.369   2.804   4.281  0.0436 -0.4914  0.0868
    1SOL     OW11321   3.774   2.059   4.586  0.5571  0.0333 -0.2320
    1SOL    HW211322   3.737   1.993   4.528  1.4309 -1.2859  0.7015
    1SOL    HW311323   3.741   2.142   4.551  1.5280 -0.6684 -2.9792
    1SOL    MW411324   3.765   2.062   4.574  0.8004 -0.2337 -0.4711
    1SOL     OW11325   0.345   0.422   4.437 -0.4011 -0.1196  0.2893
    1SOL    HW211326   0.357   0.428   4.342 -2.1678  1.2718  0.1298
    1SOL    HW311327   0.431   0.396   4.470  0.3600 -0.1720 -1.6485
    1SOL    MW411328   0.358   0.419   4.429 -0.5337  0.0571  0.0129
    1SOL     OW11329   1.621   4.418   4.260  0.1213  0.0170 -0.1733
    1SOL    HW211330   1.698   4.386   4.212  0.2436  1.6335 -1.0773
    1SOL    HW311331   1.549   4.362   4.230  0.5857 -0.2954 -0.7215
    1SOL    MW411332   1.622   4.407   4.249  0.1986  0.1888 -0.3643
    1SOL     OW11333   3.069   1.978   4.096 -0.2035 -0.4270 -0.1405
    1SOL    HW211334   2.976   1.963   4.079 -0.1697  0.2696 -0.9987
    1SOL    HW311335   3.081   2.072   4.080  1.2739 -1.0625 -3.1182
    1SOL    MW411336   3.058   1.989   4.091 -0.0041 -0.4189 -0.6466
    1SOL     OW11337   3.641   1.154   4.136  0.3352 -0.2824 -0.3732
    1SOL    HW211338   3.640   1.141   4.041 -0.2270 -0.7022 -0.3147
    1SOL    HW311339   3.565   1.209   4.154 -0.4088 -1.4000 -0.0093
    1SOL    MW411340   3.631   1.159   4.126  0.1628 -0.4853 -0.3171
    1SOL     OW11341   1.851   0.419   4.183  0.0020  0.3896  0.7009
    1SOL    HW211342   1.788   0.439   4.252 -2.9580  0.3537 -1.8559
    1SOL    HW311343   1.853   0.323   4.179  0.2438  0.3904  0.8267
    1SOL    MW411344   1.843   0.409   4.191 -0.3566  0.3850  0.3805
    1SOL     OW11345   3.411   4.442   4.271  0.2755  0.4036  0.2305
    1SOL    HW211346   3.458   4.445   4.355 -0.5551 -1.1791  0.7792
    1SOL    HW311347   3.417   4.531   4.237  1.6776  0.7829  1.3912
    1SOL    MW411348   3.418   4.454   4.278  0.3507  0.2446  0.4559
    1SOL     OW11349   2.511   0.586   4.182 -0.3585 -0.3824  0.3211
    1SOL    HW211350   2.508   0.679   4.161 -0.2559 -0.7648 -1.4229
    1SOL    HW311351   2.424   0.553   4.161 -0.0933 -0.8787 -0.0298
    1SOL    MW411352   2.499   0.594   4.176 -0.3099 -0.4984  0.0448
    1SOL     OW11353   2.720   2.705   4.157 -0.4163 -0.0781  0.3275
    1SOL    HW211354   2.656   2.769   4.187 -0.6657 -0.0831 -0.1784
    1SOL    HW311355   2.693   2.623   4.198 -1.0480 -0.1882 -0.2993
    1SOL    MW411356   2.708   2.702   4.166 -0.5326 -0.0932  0.1783
    1SOL     OW11357   2.495   1.293   4.217  0.0983 -0.5371  0.1889
    1SOL    HW211358   2.570   1.262   4.167  0.8562  0.5405  0.6614
    1SOL    HW311359   2.473   1.378   4.178 -1.3097 -1.1395 -0.4006
    1SOL    MW411360   2.502   1.300   4.205  0.0124 -0.4743  0.1736
    1SOL     OW11361   3.170   3.426   4.170  0.3281  0.2294  0.6123
    1SOL    HW211362   3.138   3.445   4.081  1.0234  0.3771  0.3933
    1SOL    HW311363   3.112   3.477   4.227 -1.0809 -1.0335  0.3521
    1SOL    MW411364   3.158   3.435   4.165  0.2339  0.0820  0.5498
    1SOL     OW11365   3.596   4.046   4.512  0.2478  0.0001 -0.1309
    1SOL    HW211366   3.578   4.026   4.420 -1.2612 -1.3126  0.4195
    1SOL    HW311367   3.591   3.961   4.557 -0.1476  0.7695  1.3293
    1SOL    MW411368   3.593   4.032   4.506 -0.0033 -0.0720  0.1345
    1SOL     OW11369   3.856   1.273   4.251 -0.0540 -0.5501 -0.2768
    1SOL    HW211370   3.866   1.353   4.199 -1.0149  0.7284  1.4706
    1SOL    HW311371   3.781   1.228   4.211 -0.6172  0.2963 -0.1876
    1SOL    MW411372   3.847   1.277   4.239 -0.2549 -0.2699 -0.0343
    1SOL     OW11373   3.164   1.745   4.181 -0.4348 -0.4573 -0.0344
    1SOL    HW211374   3.091   1.700   4.137  0.3181 -0.9386 -0.7976
    1SOL    HW311375   3.154   1.837   4.156 -1.2200 -0.3962  0.4773
    1SOL    MW411376   3.153   1.751   4.172 -0.4389 -0.5128 -0.0677
    1SOL     OW11377   3.819   4.637   4.648 -0.3716 -0.0967 -0.0910
    1SOL    HW211378   3.829   4.604   4.737  1.6411 -0.8409 -0.5753
    1SOL    HW311379   3.908   4.648   4.615 -1.0793  0.1091 -2.0343
    1SOL    MW411380   3.832   4.634   4.655 -0.1996 -0.1674 -0.4115
    1SOL     OW11381   2.546   1.528   4.610  0.3755 -0.0084  0.1852
    1SOL    HW211382   2.499   1.598   4.565  0.6951 -0.8367 -1.4719
    1SOL    HW311383   2.621   1.571   4.651 -1.0907  1.1082  1.7559
    1SOL    MW411384   2.550   1.543   4.609  0.2241  0.0297  0.1736
    1SOL     OW11385   4.290   0.517   4.208  0.1467  0.0189  0.0008
    1SOL    HW211386   4.267   0.610   4.203 -0.3881 -0.1126 -0.0686
    1SOL    HW311387   4.206   0.472   4.221  0.1386 -0.6314 -2.1640
    1SOL    MW411388   4.276   0.523   4.209  0.0753 -0.0843 -0.2937
    1SOL     OW11389   4.487   0.650   4.626  0.2381  0.1207 -0.3166
    1SOL    HW211390   4.422   0.695   4.679 -1.1434  1.6198 -3.1491
    1SOL    HW311391   4.439   0.577   4.586  1.3813 -1.3004  0.8531
    1SOL    MW411392   4.472   0.646   4.628  0.2069  0.1310 -0.5355
    1SOL     OW11393   2.061   3.138   4.144  0.3153  0.1136 -0.3697
    1SOL    HW211394   2.072   3.045   4.164 -0.2877 -0.0976 -0.9765
    1SOL    HW311395   1.996   3.169   4.206  0.6635  0.1801 -0.0368
    1SOL    MW411396   2.054   3.130   4.155  0.2820  0.0942 -0.4063
    1SOL     OW11397   1.384   1.339   4.660 -0.1559  0.3960 -0.5626
    1SOL    HW211398   1.439   1.376   4.729 -2.3583 -0.1228  1.5503
    1SOL    HW311399   1.354   1.415   4.610 -0.2531  0.9885  0.3843
    1SOL    MW411400   1.387   1.354   4.662 -0.4592  0.4057 -0.1593
    1SOL     OW11401   1.287   1.571   4.533  0.0072  0.3649  0.0300
    1SOL    HW211402   1.194   1.585   4.519  0.1718  1.8355  0.3471
    1SOL    HW311403   1.320   1.655   4.563  0.6242 -1.2320  4.2262
    1SOL    MW411404   1.279   1.584   4.536  0.1104  0.3482  0.6256
    1SOL     OW11405   3.162   0.724   4.495 -0.4219 -0.0064 -0.1607
    1SOL    HW211406   3.175   0.819   4.501 -0.7918  0.2425 -2.6149
    1SOL    HW311407   3.251   0.688   4.495 -0.2450  0.4226 -0.1855
    1SOL    MW411408   3.176   0.732   4.496 -0.4470  0.0831 -0.4878
    1SOL     OW11409   3.408   0.812   4.079 -0.0143 -0.5205 -0.1384
    1SOL    HW211410   3.392   0.730   4.124 -1.8098 -0.0493  0.1116
    1SOL    HW311411   3.343   0.872   4.114  0.3936  0.6404 -1.3041
    1SOL    MW411412   3.397   0.809   4.089 -0.1974 -0.3051 -0.2584
    1SOL     OW11413   3.837   0.762   4.636 -0.3225 -0.2740 -0.3916
    1SOL    HW211414   3.909   0.805   4.588  0.3373 -0.9351  0.0041
    1SOL    HW311415   3.758   0.803   4.600  0.2866  1.2952 -0.0233
    1SOL    MW411416   3.836   0.773   4.625 -0.1550 -0.1542 -0.2904
    1SOL     OW11417   2.481   2.351   3.832 -0.2049  0.0269 -0.5079
    1SOL    HW211418   2.478   2.338   3.927  0.7710 -0.4703 -0.5368
    1SOL    HW311419   2.452   2.267   3.795 -1.4827  0.5187 -0.6516
    1SOL    MW411420   2.477   2.338   3.839 -0.2449  0.0262 -0.5305
    1SOL     OW11421   2.545   0.126   4.507  0.5839 -0.3483  0.1252
    1SOL    HW211422   2.494   0.203   4.531  0.0193 -0.4831 -0.6497
    1SOL    HW311423   2.483   0.054   4.511  0.0808 -0.1786 -3.1781
    1SOL    MW411424   2.530   0.127   4.511  0.4427 -0.3437 -0.4129
    1SOL     OW11425   3.639   1.466   4.537  0.1009 -0.1821 -0.2144
    1SOL    HW211426   3.565   1.407   4.530 -0.0135  0.0989 -1.4543
    1SOL    HW311427   3.638   1.517   4.456  1.2635  0.2693  0.0339
    1SOL    MW411428   3.629   1.465   4.525  0.2391 -0.0856 -0.3452
    1SOL     OW11429   3.200   0.203   4.291 -0.1858  0.0828  0.2662
    1SOL    HW211430   3.105   0.192   4.285 -0.1771 -0.4682  0.9827
    1SOL    HW311431   3.219   0.199   4.385  0.5128  0.4982  0.1501
    1SOL    MW411432   3.190   0.201   4.303 -0.0923  0.0649  0.3452
    1SOL     OW11433   2.765   3.480   4.149 -0.2711 -0.0148  0.5130
    1SOL    HW211434   2.846   3.523   4.178 -0.2361 -0.2389  0.7527
    1SOL    HW311435   2.695   3.541   4.173 -0.1471  0.3305  0.0022
    1SOL    MW411436   2.766   3.494   4.156 -0.2501  0.0012  0.4768
    1SOL     OW11437   1.201   3.867   4.159  0.6139  0.9804  0.1797
    1SOL    HW211438   1.264   3.926   4.199  0.8902 -0.1986  1.5399
    1SOL    HW311439   1.210   3.785   4.209 -0.6115  0.1893 -0.8674
    1SOL    MW411440   1.210   3.864   4.171  0.4886  0.7205  0.2203
    1SOL     OW11441   0.256   0.505   4.684  0.1103  0.6805 -0.1790
    1SOL    HW211442   0.176   0.555   4.668 -0.1462 -0.3641 -2.2605
    1SOL    HW311443   0.282   0.473   4.598  2.0209 -0.1354  0.6793
    1SOL    MW411444   0.249   0.507   4.670  0.3286  0.4350 -0.3405
    1SOL     OW11445   0.731   2.079   4.260 -0.3366  0.2299 -0.2404
    1SOL    HW211446   0.794   2.031   4.207 -1.6622 -1.5262 -0.2625
    1SOL    HW311447   0.707   2.155   4.207  0.0847 -0.2785 -1.1536
    1SOL    MW411448   0.736   2.083   4.246 -0.4559 -0.0689 -0.3643
    1SOL     OW11449   0.468   2.722   4.119 -0.1193 -0.3137  0.1136
    1SOL    HW211450   0.444   2.722   4.026  1.3541 -3.0402 -0.3474
    1SOL    HW311451   0.386   2.740   4.165 -0.7317  1.8293 -1.7112
    1SOL    MW411452   0.454   2.724   4.113 -0.0057 -0.3905 -0.1879
    1SOL     OW11453   1.363   2.427   4.267  0.4488 -0.4376 -0.1467
    1SOL    HW211454   1.452   2.392   4.278  0.5323 -0.0162  0.5668
    1SOL    HW311455   1.377   2.517   4.237  0.2609 -0.3574  0.0120
    1SOL    MW411456   1.377   2.434   4.264  0.4349 -0.3712 -0.0319
    1SOL     OW11457   3.722   3.425   4.677 -0.0623 -0.2902 -0.6509
    1SOL    HW211458   3.671   3.364   4.623 -1.6329 -0.9912  1.5528
    1SOL    HW311459   3.796   3.373   4.708 -0.5328 -0.6308 -0.0836
    1SOL    MW411460   3.725   3.410   4.674 -0.3314 -0.4275 -0.2851
    1SOL     OW11461   2.716   0.936   4.227  0.0358  0.4019  0.1209
    1SOL    HW211462   2.801   0.906   4.194  0.1473  0.7875  0.0605
    1SOL    HW311463   2.718   0.913   4.320 -0.0081 -0.0681  0.0100
    1SOL    MW411464   2.728   0.929   4.235  0.0448  0.3906  0.0992
    1SOL     OW11465   4.488   0.210   4.607  0.2109  0.2464 -0.1567
    1SOL    HW211466   4.496   0.286   4.550  0.9946 -0.6469 -1.2393
    1SOL    HW311467   4.573   0.203   4.651  0.4006 -0.4563 -0.6308
    1SOL    MW411468   4.500   0.219   4.605  0.3395  0.0358 -0.3619
    1SOL     OW11469   0.153   3.359   4.600  0.1862  0.0182  0.3494
    1SOL    HW211470   0.107   3.443   4.611  0.5430  0.1698  0.6681
    1SOL    HW311471   0.244   3.384   4.583  0.1592 -0.2855 -0.2515
    1SOL    MW411472   0.159   3.374   4.599  0.2297 -0.0019  0.3128
    1SOL     OW11473   3.308   3.221   4.554  0.7085  0.6860 -0.1047
    1SOL    HW211474   3.401   3.213   4.533  0.8142 -0.0882  0.6395
    1SOL    HW311475   3.298   3.311   4.584  0.9803  1.1413 -1.3515
    1SOL    MW411476   3.319   3.232   4.555  0.7582  0.6440 -0.1712
    1SOL     OW11477   1.681   1.151   4.497 -0.5777 -0.6470 -0.0107
    1SOL    HW211478   1.657   1.149   4.404 -0.7103  1.0882 -0.0235
    1SOL    HW311479   1.600   1.128   4.543 -0.5905 -1.2050 -0.3162
    1SOL    MW411480   1.667   1.148   4.491 -0.5969 -0.4917 -0.0525
    1SOL     OW11481   1.853   1.388   4.491  0.6136 -0.0443  0.0114
    1SOL    HW211482   1.905   1.388   4.572  0.3752  1.3213  0.1835
    1SOL    HW311483   1.782   1.326   4.509  1.8133 -1.4616  0.0001
    1SOL    MW411484   1.851   1.380   4.504  0.7403 -0.0511  0.0324
    1SOL     OW11485   4.029   2.101   4.180  0.0244  0.1229  0.0918
    1SOL    HW211486   3.936   2.084   4.195 -0.2872 -0.5128 -2.2882
    1SOL    HW311487   4.074   2.050   4.247 -1.2264 -3.2083 -1.4399
    1SOL    MW411488   4.022   2.092   4.191 -0.1817 -0.4008 -0.4244
    1SOL     OW11489   2.877   0.009   4.095  0.2394 -0.0652  0.9096
    1SOL    HW211490   2.898   0.078   4.158  0.7210  0.1296  0.5393
    1SOL    HW311491   2.906  -0.072   4.137 -0.5370 -0.0746  1.4426
    1SOL    MW411492   2.883   0.008   4.108  0.2005 -0.0407  0.9313
    1SOL     OW11493   0.468   0.695   4.685 -0.0692 -0.4021  0.1864
    1SOL    HW211494   0.403   0.630   4.712  0.2261 -1.3629 -1.3576
    1SOL    HW311495   0.435   0.729   4.602  1.7103 -1.3767 -0.9569
    1SOL    MW411496   0.455   0.691   4.678  0.2046 -0.6574 -0.1683
    1SOL     OW11497   1.444   4.313   4.556 -0.0806 -0.0531 -0.2397
    1SOL    HW211498   1.405   4.391   4.516 -0.3645 -0.3654 -0.5788
    1SOL    HW311499   1.535   4.315   4.528 -0.1347  0.0538 -0.4131
    1SOL    MW411500   1.451   4.323   4.547 -0.1252 -0.0801 -0.3071
    1SOL     OW11501   3.879   1.749   4.584 -0.1509  0.0873 -0.0762
    1SOL    HW211502   3.802   1.746   4.527  0.2552 -0.2819 -0.6113
    1SOL    HW311503   3.844   1.771   4.670 -0.7129  1.1599 -0.5663
    1SOL    MW411504   3.864   1.752   4.588 -0.1714  0.1801 -0.2108
    1SOL     OW11505   4.482   2.336   4.673 -0.3011  0.1389 -0.0688
    1SOL    HW211506   4.548   2.388   4.628 -2.0287  1.8331 -0.7392
    1SOL    HW311507   4.481   2.252   4.626  1.1964  0.1764 -0.1762
    1SOL    MW411508   4.490   2.332   4.661 -0.3319  0.3676 -0.1717
    1SOL     OW11509   2.952   3.535   4.566 -0.1218  0.2097  0.0716
    1SOL    HW211510   3.037   3.508   4.601 -0.0443  1.5533  0.9715
    1SOL    HW311511   2.890   3.471   4.602  0.1400  0.8147  1.6304
    1SOL    MW411512   2.955   3.523   4.575 -0.0768  0.4668  0.3958
    1SOL     OW11513   1.509   3.731   4.473 -0.0880  0.2949  0.3288
    1SOL    HW211514   1.416   3.750   4.459 -0.0879 -0.1879 -0.3797
    1SOL    HW311515   1.550   3.817   4.480 -0.6826  0.5049  1.2924
    1SOL    MW411516   1.502   3.745   4.472 -0.1664  0.2589  0.3629
    1SOL     OW11517   1.807   3.457   4.142  0.2083  0.1404  0.3499
    1SOL    HW211518   1.804   3.466   4.046 -0.5597  0.0959  0.3688
    1SOL    HW311519   1.742   3.520   4.173  0.4992  0.1906  0.8472
    1SOL    MW411520   1.798   3.467   4.133  0.1454  0.1411  0.4187
    1SOL     OW11521   1.154   1.217   4.576 -0.1759 -0.1484 -0.4781
    1SOL    HW211522   1.177   1.124   4.577  0.0253 -0.0939  1.1856
    1SOL    HW311523   1.229   1.261   4.615  0.1901  0.8451 -2.2417
    1SOL    MW411524   1.167   1.211   4.581 -0.1011 -0.0100 -0.4911
    1SOL     OW11525   2.227   2.236   4.649  0.6044 -0.0318  0.0848
    1SOL    HW211526   2.239   2.244   4.555  1.0508 -0.8671  0.0593
    1SOL    HW311527   2.287   2.300   4.687 -0.0563  0.7666 -0.2089
    1SOL    MW411528   2.237   2.245   4.642  0.5763 -0.0370  0.0424
    1SOL     OW11529   0.984   3.447   4.112  0.1525  0.5349 -0.7084
    1SOL    HW211530   0.993   3.356   4.140 -0.9186  0.4301 -0.7077
    1SOL    HW311531   0.983   3.444   4.017  2.1692  0.7436 -0.7554
    1SOL    MW411532   0.985   3.435   4.103  0.2772  0.5486 -0.7148
    1SOL     OW11533   0.015   1.671   4.274 -0.0144  0.2477 -0.1170
    1SOL    HW211534  -0.001   1.633   4.361  1.4966 -0.0580  0.0331
    1SOL    HW311535  -0.071   1.669   4.232 -0.2805 -1.8976  0.4571
    1SOL    MW411536   0.002   1.665   4.280  0.1497 -0.0757 -0.0210
    1SOL     OW11537   4.132   3.322   4.550  0.3624 -0.0542  0.0756
    1SOL    HW211538   4.087   3.291   4.472 -0.6605 -0.6366  0.8845
    1SOL    HW311539   4.221   3.288   4.542  0.1967 -0.3052 -0.7146
    1SOL    MW411540   4.138   3.313   4.539  0.2050 -0.1643  0.0787
    1SOL     OW11541   3.228   2.411   4.266 -0.3340  0.4276 -0.0000
    1SOL    HW211542   3.195   2.462   4.340  0.2241 -0.5458  0.9323
    1SOL    HW311543   3.152   2.363   4.233 -0.7631  1.4964 -0.5974
    1SOL    MW411544   3.214   2.411   4.271 -0.3169  0.4404  0.0439
    1SOL     OW11545   0.049   4.280   4.145 -0.0822 -0.6953  0.1423
    1SOL    HW211546  -0.039   4.298   4.178 -0.0324  0.5424 -0.3406
    1SOL    HW311547   0.041   4.291   4.050  0.4003 -1.4177  0.0199
    1SOL    MW411548   0.037   4.284   4.137 -0.0120 -0.6275  0.0629
    1SOL     OW11549   2.034   2.468   4.122  0.3516  0.5793  0.0112
    1SOL    HW211550   1.968   2.430   4.180 -0.0740 -1.0565 -1.4885
    1SOL    HW311551   2.116   2.462   4.170 -0.3137  1.1082  1.2317
    1SOL    MW411552   2.036   2.462   4.136  0.2074  0.4334 -0.0262
    1SOL     OW11553   0.870   0.346   4.152 -0.2529  0.4918 -0.5079
    1SOL    HW211554   0.945   0.394   4.187  0.1733 -1.1077  0.8241
    1SOL    HW311555   0.794   0.391   4.189  0.0963  1.0070 -0.4116
    1SOL    MW411556   0.870   0.358   4.162 -0.1506  0.3488 -0.3195
    1NA      NA11557   3.157   4.017   0.451  0.2710  0.4211 -0.1099
    1NA      NA11558   0.890   2.436   0.668  0.3989  0.0404 -0.1147
   4.49070   4.66690  10.00000
