Gromacs Runs On Most of All Computer Systems in water
11558
    1RG35     P    1   0.460   4.351   1.862 -0.4585 -0.0018  0.4438
    1RG35   O1P    2   0.430   4.327   2.002  0.3948  0.1257  0.0341
    1RG35   O2P    3   0.362   4.300   1.776  0.0435 -0.3073  0.5716
    1RG35   O5'    4   0.442   4.504   1.840 -0.3188 -0.3082 -0.1160
    1RG35   C5'    5   0.547   4.595   1.873  0.1511 -0.5968  0.3519
    1RG35  H5'1    6   0.639   4.579   1.818 -0.1377  0.2879 -0.3977
    1RG35  H5'2    7   0.556   4.609   1.981 -1.5280 -0.3089  0.4711
    1RG35   C4'    8   0.497   4.737   1.836 -0.0001  0.2751 -0.5978
    1RG35   H4'    9   0.571   4.813   1.861  1.2383 -0.5886 -1.5315
    1RG35   O4'   10   0.464   4.743   1.698  0.5689  0.0182 -0.1030
    1RG35   C1'   11   0.401   4.869   1.672  0.1484  0.1517 -0.1096
    1RG35   H1'   12   0.476   4.944   1.650 -0.2822  0.2537 -1.2820
    1RG35    N9   13   0.305   4.861   1.561  0.3291  0.2375  0.2208
    1RG35    C8   14   0.305   4.928   1.445 -0.3154  0.9144  0.4400
    1RG35    H8   15   0.394   4.982   1.415  1.7818 -1.0207  2.8734
    1RG35    N7   16   0.191   4.932   1.382 -0.4459 -0.0775 -0.5961
    1RG35    C5   17   0.111   4.845   1.456  0.0854 -0.3885  0.1341
    1RG35    C6   18  -0.029   4.811   1.449 -0.7600  0.1076  0.0467
    1RG35    O6   19  -0.111   4.838   1.361  0.0797 -0.2728  0.1277
    1RG35    N1   20  -0.066   4.722   1.545  0.0562  0.0828 -0.3904
    1RG35    H1   21  -0.155   4.677   1.531 -0.7655  2.1532 -2.0084
    1RG35    C2   22   0.016   4.672   1.643 -0.2976 -0.1576  0.4700
    1RG35    N2   23  -0.034   4.595   1.735  0.5983 -0.7636 -0.4402
    1RG35   H21   24  -0.132   4.574   1.747  0.3017  1.5536  1.5135
    1RG35   H22   25   0.031   4.562   1.805  0.4354 -2.3835 -1.0180
    1RG35    N3   26   0.143   4.702   1.652  0.3997  0.0252 -0.1743
    1RG35    C4   27   0.184   4.794   1.561  0.5547 -0.1781 -0.0522
    1RG35   C3'   28   0.368   4.782   1.891 -0.1842  0.5182  0.7259
    1RG35   H3'   29   0.287   4.712   1.869  0.1456  0.6240 -0.8704
    1RG35   C2'   30   0.332   4.897   1.799 -0.1215 -0.5763  0.1608
    1RG35  H2'1   31   0.224   4.902   1.790 -0.2581 -0.2646  1.7802
    1RG35   O2'   32   0.360   5.036   1.837  0.1066 -0.6210 -0.2862
    1RG35  HO'2   33   0.320   5.099   1.776  0.8222 -0.6732 -0.8105
    1RG35   O3'   34   0.370   4.803   2.031  0.2566 -0.5681  0.2226
    1RG35   H3T   35   0.386   4.718   2.072 -0.3892 -0.2673  1.1039
    1RG35   O3P   36   0.596   4.324   1.815 -0.3286 -0.2111 -0.2688
    1SOL     OW   37   2.195   0.476   3.138  0.0150  0.5662 -0.0699
    1SOL    HW2   38   2.190   0.495   3.232 -1.8773  1.0996 -0.2592
    1SOL    HW3   39   2.104   0.484   3.107  0.1352 -2.5307 -1.3811
    1SOL    MW4   40   2.182   0.480   3.147 -0.2191  0.2280 -0.2675
    1SOL     OW   41   0.207   1.776   4.500  0.1612 -0.2106 -0.0519
    1SOL    HW2   42   0.258   1.844   4.544  1.0106 -1.8584  1.6251
    1SOL    HW3   43   0.262   1.698   4.506 -0.5805 -0.9444 -2.3593
    1SOL    MW4   44   0.221   1.774   4.507  0.1754 -0.5249 -0.1354
    1SOL     OW   45   2.782   1.789   1.517  0.2675  0.1347  0.3770
    1SOL    HW2   46   2.710   1.755   1.570  0.0180 -2.3336 -1.4509
    1SOL    HW3   47   2.741   1.853   1.459  0.2407  1.5372  1.9018
    1SOL    MW4   48   2.767   1.793   1.516  0.2310 -0.0060  0.3370
    1SOL     OW   49   4.248   3.612   3.769  0.3810  0.2319  0.0783
    1SOL    HW2   50   4.193   3.677   3.811  1.4113 -0.2347  2.1893
    1SOL    HW3   51   4.208   3.598   3.683 -1.6088  1.3604  0.8120
    1SOL    MW4   52   4.236   3.618   3.763  0.2542  0.3192  0.4535
    1SOL     OW   53   3.427   4.207   1.739  0.0869 -0.0045 -0.2216
    1SOL    HW2   54   3.508   4.184   1.785 -0.6447  0.7818  1.5196
    1SOL    HW3   55   3.374   4.128   1.742  0.7826 -0.5200 -1.3607
    1SOL    MW4   56   3.431   4.194   1.746  0.0820  0.0310 -0.1421
    1SOL     OW   57   2.590   3.624   3.495  0.2612 -0.2911  0.3301
    1SOL    HW2   58   2.605   3.593   3.585  1.6926  0.6213  0.4329
    1SOL    HW3   59   2.521   3.568   3.461  0.8255 -1.7041  1.4694
    1SOL    MW4   60   2.583   3.613   3.503  0.5245 -0.3572  0.4940
    1SOL     OW   61   0.142   1.733   3.317  0.3412 -0.1287 -0.4968
    1SOL    HW2   62   0.168   1.782   3.238 -0.8749 -0.5772 -1.1848
    1SOL    HW3   63   0.198   1.655   3.316  1.0975  0.4073 -0.3177
    1SOL    MW4   64   0.153   1.729   3.306  0.2805 -0.1172 -0.5639
    1SOL     OW   65   4.381   2.929   3.978 -0.1495 -0.2093 -0.5453
    1SOL    HW2   66   4.342   2.861   3.922 -0.6745  1.8668 -2.7968
    1SOL    HW3   67   4.306   2.977   4.013  0.2364  0.3918 -0.5289
    1SOL    MW4   68   4.366   2.926   3.975 -0.1683  0.1440 -0.8399
    1SOL     OW   69   3.421   0.062   0.847  0.2327  0.0762 -0.0952
    1SOL    HW2   70   3.455   0.037   0.933 -1.8597  1.3135  1.1314
    1SOL    HW3   71   3.332   0.026   0.844 -0.3089  1.4274 -1.0739
    1SOL    MW4   72   3.414   0.054   0.858 -0.1149  0.4177 -0.0625
    1SOL     OW   73   3.594   0.167   1.893 -0.5419  0.0583 -0.1645
    1SOL    HW2   74   3.651   0.240   1.869  0.3961 -0.5464  0.2144
    1SOL    HW3   75   3.507   0.207   1.900 -0.1598  1.0059 -0.6382
    1SOL    MW4   76   3.590   0.182   1.891 -0.3676  0.1035 -0.1769
    1SOL     OW   77   3.555   0.054   2.893 -0.0474  0.1817 -0.5196
    1SOL    HW2   78   3.539   0.062   2.799  1.8531  0.9361 -0.8147
    1SOL    HW3   79   3.549  -0.039   2.911 -1.9618  0.1808 -1.0913
    1SOL    MW4   80   3.552   0.043   2.883 -0.0496  0.2811 -0.6342
    1SOL     OW   81   2.031   3.500   2.834  0.1295 -0.2114 -0.5855
    1SOL    HW2   82   1.991   3.504   2.921  0.8899  0.8313 -0.2764
    1SOL    HW3   83   1.973   3.553   2.778  1.1235  1.4398 -0.1011
    1SOL    MW4   84   2.018   3.508   2.838  0.3610  0.1438 -0.4809
    1SOL     OW   85   2.842   2.248   3.743  0.0413 -0.1712  0.1842
    1SOL    HW2   86   2.768   2.279   3.690 -0.5599  0.0145  1.1273
    1SOL    HW3   87   2.803   2.189   3.807  1.0279 -1.9993 -0.8449
    1SOL    MW4   88   2.827   2.245   3.745  0.0920 -0.3881  0.1729
    1SOL     OW   89   2.101   1.236   2.213 -0.4407 -0.9890 -0.0978
    1SOL    HW2   90   2.147   1.166   2.167  2.1505 -0.0724  1.0386
    1SOL    HW3   91   2.112   1.217   2.306  1.2148  1.4449  0.2617
    1SOL    MW4   92   2.108   1.224   2.219  0.1197 -0.5468  0.0997
    1SOL     OW   93   4.374   2.735   2.268  0.0377  0.4324  0.4359
    1SOL    HW2   94   4.456   2.745   2.318  0.0927  0.9761  0.2434
    1SOL    HW3   95   4.378   2.806   2.203 -0.4811  0.3152  0.2813
    1SOL    MW4   96   4.386   2.746   2.266 -0.0229  0.4890  0.3898
    1SOL     OW   97   3.035   1.639   1.887 -0.0196  0.3328 -0.1314
    1SOL    HW2   98   3.022   1.719   1.837 -0.8577 -0.6449 -1.4952
    1SOL    HW3   99   3.039   1.570   1.822  2.0666 -0.6049  0.9400
    1SOL    MW4  100   3.034   1.641   1.872  0.1450  0.0800 -0.1700
    1SOL     OW  101   2.828   1.255   2.678  0.0546  0.4769 -0.0499
    1SOL    HW2  102   2.861   1.246   2.588 -0.0151  3.1753 -0.3890
    1SOL    HW3  103   2.735   1.275   2.667  0.0967  1.0411  0.6082
    1SOL    MW4  104   2.820   1.257   2.665  0.0510  0.9072 -0.0079
    1SOL     OW  105   4.311   2.176   1.625 -0.2526  0.2634 -0.0631
    1SOL    HW2  106   4.288   2.083   1.628  0.9074 -0.0639 -1.1324
    1SOL    HW3  107   4.228   2.221   1.610 -0.7529 -0.6250  0.0362
    1SOL    MW4  108   4.297   2.170   1.623 -0.1659  0.1032 -0.1911
    1SOL     OW  109   2.027   0.019   0.823 -0.1634 -0.2071 -0.2414
    1SOL    HW2  110   2.074   0.100   0.805  0.5324 -0.3680  0.8314
    1SOL    HW3  111   1.999   0.027   0.914 -0.2999 -1.0728 -0.2000
    1SOL    MW4  112   2.029   0.031   0.833 -0.0896 -0.3425 -0.0944
    1SOL     OW  113   0.914   0.878   1.450  0.1299 -0.0181  0.6058
    1SOL    HW2  114   0.866   0.803   1.414  0.4784  0.3987 -0.7476
    1SOL    HW3  115   0.854   0.915   1.515  0.0415 -1.5942  1.4509
    1SOL    MW4  116   0.900   0.873   1.454  0.1643 -0.1711  0.5387
    1SOL     OW  117   0.281   1.652   2.424  0.2082  0.4646  0.1979
    1SOL    HW2  118   0.234   1.730   2.395 -0.0609  1.5601  3.3408
    1SOL    HW3  119   0.213   1.590   2.448  0.3995  0.1514 -0.0684
    1SOL    MW4  120   0.266   1.654   2.423  0.1980  0.5678  0.5777
    1SOL     OW  121   0.249   3.998   3.070  0.0445  0.3636  0.2458
    1SOL    HW2  122   0.272   4.077   3.120 -0.4141  0.7803 -0.1864
    1SOL    HW3  123   0.259   3.926   3.132  0.4415  0.7694  0.6553
    1SOL    MW4  124   0.253   3.999   3.085  0.0364  0.4721  0.2427
    1SOL     OW  125   0.246   3.804   4.239 -0.1296  0.0646  0.1059
    1SOL    HW2  126   0.224   3.804   4.146  0.4235  0.7300 -0.0210
    1SOL    HW3  127   0.328   3.755   4.244  1.0564  1.9942 -0.0419
    1SOL    MW4  128   0.254   3.797   4.228  0.0999  0.4067  0.0696
    1SOL     OW  129   3.567   3.787   4.007 -0.2433 -0.0764  0.1842
    1SOL    HW2  130   3.564   3.746   4.094  0.6986 -1.2045 -0.3150
    1SOL    HW3  131   3.630   3.859   4.017  0.8306 -0.9984  0.0980
    1SOL    MW4  132   3.575   3.791   4.020  0.0229 -0.3474  0.1073
    1SOL     OW  133   2.598   2.164   1.209 -0.1108 -0.6113  0.0490
    1SOL    HW2  134   2.672   2.192   1.262  0.0989 -0.5769 -0.2575
    1SOL    HW3  135   2.567   2.244   1.166  0.9432 -0.9478 -1.3896
    1SOL    MW4  136   2.604   2.178   1.210  0.0558 -0.6511 -0.1812
    1SOL     OW  137   2.590   3.103   4.294 -0.1375 -0.6505  0.5230
    1SOL    HW2  138   2.506   3.072   4.328 -1.1129  1.1651 -0.1640
    1SOL    HW3  139   2.608   3.182   4.344  0.2465 -0.0267 -0.5770
    1SOL    MW4  140   2.581   3.109   4.305 -0.2153 -0.3288  0.2875
    1SOL     OW  141   1.192   3.909   2.805  0.2438  0.2061  0.1782
    1SOL    HW2  142   1.102   3.877   2.801  0.3757 -0.2459  0.9023
    1SOL    HW3  143   1.184   3.999   2.837 -0.0464  0.5926 -0.9471
    1SOL    MW4  144   1.179   3.917   2.808  0.2229  0.1974  0.1252
    1SOL     OW  145   4.201   4.505   2.839  0.7508 -0.3565  0.3720
    1SOL    HW2  146   4.190   4.589   2.882  3.7293 -1.0052  2.6118
    1SOL    HW3  147   4.272   4.518   2.776  1.4470 -1.2216  0.9503
    1SOL    MW4  148   4.209   4.518   2.836  1.2360 -0.5560  0.7439
    1SOL     OW  149   1.521   4.653   1.471  0.2424  0.0684 -0.7728
    1SOL    HW2  150   1.571   4.676   1.550 -0.2858  0.0974 -0.4428
    1SOL    HW3  151   1.444   4.607   1.504  0.1501 -0.1552 -1.2922
    1SOL    MW4  152   1.517   4.650   1.486  0.1606  0.0429 -0.7977
    1SOL     OW  153   1.271   0.223   3.100 -0.3743 -0.6910  0.3497
    1SOL    HW2  154   1.262   0.136   3.063 -0.3353 -0.9429  0.9277
    1SOL    HW3  155   1.365   0.240   3.100 -0.3758 -0.6831  0.3138
    1SOL    MW4  156   1.282   0.214   3.095 -0.3693 -0.7232  0.4210
    1SOL     OW  157   3.794   0.624   1.672  0.1640  0.5380 -0.0789
    1SOL    HW2  158   3.756   0.565   1.736  0.4080 -1.0149 -1.3311
    1SOL    HW3  159   3.776   0.712   1.706 -0.5166 -0.2446  1.6192
    1SOL    MW4  160   3.787   0.628   1.685  0.1066  0.2300 -0.0201
    1SOL     OW  161   1.003   1.144   2.465 -0.1955  0.1256  0.1180
    1SOL    HW2  162   1.004   1.227   2.512 -3.9744  1.0941 -1.3604
    1SOL    HW3  163   1.001   1.168   2.373  2.6971 -1.7136 -0.4915
    1SOL    MW4  164   1.003   1.158   2.459 -0.3126  0.0107 -0.1574
    1SOL     OW  165   2.238   3.374   1.452  0.0256 -0.2024 -0.0232
    1SOL    HW2  166   2.268   3.461   1.427 -0.1866 -0.1649 -0.1478
    1SOL    HW3  167   2.260   3.318   1.377 -2.9667  0.4009 -1.4283
    1SOL    MW4  168   2.245   3.378   1.438 -0.3970 -0.1180 -0.2251
    1SOL     OW  169   3.858   3.881   1.918  0.0057  0.1463 -0.4043
    1SOL    HW2  170   3.923   3.880   1.988 -1.2904  0.7600  0.8163
    1SOL    HW3  171   3.902   3.928   1.847  0.3334  1.9944  0.9739
    1SOL    MW4  172   3.873   3.887   1.918 -0.1223  0.4709 -0.0615
    1SOL     OW  173   0.121   2.248   2.375  0.0761  0.0486  0.5611
    1SOL    HW2  174   0.178   2.322   2.395 -0.4524  0.4814  0.4753
    1SOL    HW3  175   0.038   2.269   2.418  0.3259 -1.1047  1.6272
    1SOL    MW4  176   0.118   2.261   2.383  0.0393 -0.0465  0.6902
    1SOL     OW  177   0.052   3.897   2.646  0.3845  0.0253 -0.1514
    1SOL    HW2  178  -0.026   3.933   2.605 -0.1726 -1.3151 -0.3037
    1SOL    HW3  179   0.035   3.802   2.651  1.7840 -0.2169  0.2572
    1SOL    MW4  180   0.039   3.889   2.641  0.4956 -0.1838 -0.1175
    1SOL     OW  181   1.362   0.563   0.995  0.0283 -0.0982  0.4237
    1SOL    HW2  182   1.395   0.651   0.977  0.4587 -0.5224 -0.8778
    1SOL    HW3  183   1.354   0.522   0.909  1.2450 -1.8503  1.1280
    1SOL    MW4  184   1.365   0.569   0.981  0.2456 -0.3854  0.3449
    1SOL     OW  185   4.079   0.477   3.107 -0.1718  0.2851 -0.1559
    1SOL    HW2  186   4.106   0.471   3.016  1.1468 -2.0933  0.3618
    1SOL    HW3  187   4.125   0.554   3.141  2.9637 -1.4542 -0.3295
    1SOL    MW4  188   4.088   0.486   3.100  0.4163 -0.2581 -0.1104
    1SOL     OW  189   0.538   1.289   1.428  0.1442 -0.4490  0.1288
    1SOL    HW2  190   0.621   1.266   1.387 -0.6167  0.7357 -2.1584
    1SOL    HW3  191   0.502   1.358   1.372 -1.0621  1.0572  2.6493
    1SOL    MW4  192   0.544   1.295   1.415 -0.1152 -0.0941  0.1596
    1SOL     OW  193   4.390   2.135   4.588  0.1848 -0.5828  0.0183
    1SOL    HW2  194   4.317   2.089   4.631  0.1031 -0.6642 -0.2067
    1SOL    HW3  195   4.350   2.215   4.554  0.2235 -0.5740 -0.0060
    1SOL    MW4  196   4.375   2.140   4.589  0.1788 -0.5922 -0.0148
    1SOL     OW  197   0.268   2.508   3.558 -0.0565 -0.5930  0.2698
    1SOL    HW2  198   0.174   2.516   3.576  0.2450 -1.2177  2.1885
    1SOL    HW3  199   0.273   2.445   3.486 -1.1955  0.7061 -0.9775
    1SOL    MW4  200   0.256   2.501   3.551 -0.1670 -0.5043  0.3581
    1SOL     OW  201   2.776   3.876   1.449 -0.1847 -0.6766  0.4094
    1SOL    HW2  202   2.775   3.836   1.362  1.7437 -0.1870  0.1348
    1SOL    HW3  203   2.803   3.966   1.434 -0.0364 -0.5363  1.4844
    1SOL    MW4  204   2.780   3.882   1.435  0.0894 -0.5932  0.5151
    1SOL     OW  205   2.713   1.834   2.063  0.5238  0.2124  0.2323
    1SOL    HW2  206   2.617   1.826   2.064  0.4664  0.8742  0.9325
    1SOL    HW3  207   2.745   1.745   2.069 -0.0511 -0.0005  0.1956
    1SOL    MW4  208   2.704   1.821   2.064  0.4404  0.2717  0.3197
    1SOL     OW  209   0.116   4.028   0.596  0.5420  0.4117  0.0167
    1SOL    HW2  210   0.045   3.978   0.636  1.3931 -0.5930  0.2919
    1SOL    HW3  211   0.173   3.962   0.556  0.4853  1.3055 -1.5895
    1SOL    MW4  212   0.115   4.013   0.596  0.6468  0.3977 -0.1589
    1SOL     OW  213   2.317   0.079   2.495  0.3053 -0.0451 -0.9381
    1SOL    HW2  214   2.278   0.142   2.555  1.5555  0.1529 -0.3167
    1SOL    HW3  215   2.275  -0.004   2.516 -1.0442  0.4836 -1.4711
    1SOL    MW4  216   2.307   0.076   2.505  0.2925  0.0508 -0.9263
    1SOL     OW  217   2.928   3.244   1.658 -0.1584  0.7460 -0.0003
    1SOL    HW2  218   3.004   3.207   1.611 -0.4920 -0.0846  0.1085
    1SOL    HW3  219   2.857   3.181   1.642 -0.2669  0.4194  1.6551
    1SOL    MW4  220   2.929   3.230   1.650 -0.2167  0.5934  0.2325
    1SOL     OW  221   3.924   0.247   3.472 -0.3488  0.2048  0.2762
    1SOL    HW2  222   4.009   0.278   3.503  0.0971 -0.6527 -0.0939
    1SOL    HW3  223   3.860   0.288   3.531  0.2022  2.2072 -0.4867
    1SOL    MW4  224   3.926   0.257   3.484 -0.2174  0.3558  0.1266
    1SOL     OW  225   2.092   3.930   2.773  0.2524  0.0432  0.3895
    1SOL    HW2  226   2.037   4.006   2.753 -0.0453  0.0093  1.0747
    1SOL    HW3  227   2.179   3.967   2.788  0.2053  0.2007  0.2820
    1SOL    MW4  228   2.096   3.945   2.772  0.2072  0.0598  0.4661
    1SOL     OW  229   1.242   0.533   1.477  0.1004 -0.4792  0.0086
    1SOL    HW2  230   1.233   0.557   1.385  0.7739  1.0010  0.3150
    1SOL    HW3  231   1.297   0.455   1.476  2.4083  1.0907 -0.7134
    1SOL    MW4  232   1.248   0.526   1.464  0.4938 -0.0768 -0.0463
    1SOL     OW  233   1.527   1.901   0.759  0.1943  0.2952  0.2414
    1SOL    HW2  234   1.604   1.877   0.707  1.1344 -0.7904  2.0745
    1SOL    HW3  235   1.456   1.848   0.723  0.4159  0.9030 -1.1097
    1SOL    MW4  236   1.528   1.891   0.748  0.3477  0.2322  0.3050
    1SOL     OW  237   0.487   0.542   2.749  0.0196  0.5408 -0.0131
    1SOL    HW2  238   0.424   0.470   2.746  0.6999 -0.2172  2.5658
    1SOL    HW3  239   0.443   0.610   2.801 -0.5227  1.9502 -2.2267
    1SOL    MW4  240   0.472   0.542   2.756  0.0378  0.6267  0.0353
    1SOL     OW  241   1.686   3.781   2.217  0.2371  0.7701  0.4452
    1SOL    HW2  242   1.768   3.788   2.267  0.6403 -1.4025  0.1734
    1SOL    HW3  243   1.712   3.797   2.127  0.3850  0.0747  0.3581
    1SOL    MW4  244   1.700   3.784   2.212  0.3098  0.3917  0.3982
    1SOL     OW  245   1.311   0.602   4.325  0.9111  0.0233 -0.0722
    1SOL    HW2  246   1.350   0.676   4.372  1.5919 -0.0100 -0.5749
    1SOL    HW3  247   1.343   0.525   4.371 -1.2092  0.0580  1.5473
    1SOL    MW4  248   1.320   0.602   4.337  0.7212  0.0235  0.0749
    1SOL     OW  249   0.813   2.587   3.714 -0.1683 -0.1461 -1.0936
    1SOL    HW2  250   0.728   2.582   3.669 -0.4179  0.4336 -0.6884
    1SOL    HW3  251   0.844   2.497   3.715 -2.1355 -0.8607  1.3693
    1SOL    MW4  252   0.806   2.574   3.708 -0.4607 -0.1643 -0.7155
    1SOL     OW  253   3.106   2.222   4.016  0.1249 -0.4795 -0.0478
    1SOL    HW2  254   3.017   2.219   4.052  0.4908 -0.7842  0.8425
    1SOL    HW3  255   3.128   2.316   4.015  0.2133 -0.4885  0.7846
    1SOL    MW4  256   3.097   2.234   4.021  0.1845 -0.5209  0.1798
    1SOL     OW  257   3.647   1.164   1.505 -0.0086 -0.5501 -0.2742
    1SOL    HW2  258   3.738   1.188   1.522 -0.2059 -0.1190  0.1989
    1SOL    HW3  259   3.622   1.217   1.429 -0.0620 -0.1840 -0.0019
    1SOL    MW4  260   3.656   1.174   1.497 -0.0417 -0.4449 -0.1757
    1SOL     OW  261   2.667   3.421   3.715 -0.5858 -0.0388  0.0634
    1SOL    HW2  262   2.754   3.382   3.707 -0.1344  0.5423  1.7283
    1SOL    HW3  263   2.607   3.348   3.702  0.1593 -0.5270 -0.7099
    1SOL    MW4  264   2.671   3.406   3.712 -0.4280 -0.0267  0.1814
    1SOL     OW  265   2.855   2.455   1.988 -0.4804  0.0358  0.1555
    1SOL    HW2  266   2.918   2.413   1.929  0.3981  1.2466  0.2246
    1SOL    HW3  267   2.779   2.475   1.933 -0.8727 -1.5324  0.0975
    1SOL    MW4  268   2.853   2.452   1.973 -0.4165 -0.0112  0.1568
    1SOL     OW  269   1.702   4.512   2.982  0.4040 -0.0106 -0.2194
    1SOL    HW2  270   1.711   4.424   3.018  0.0169  0.4524  1.0528
    1SOL    HW3  271   1.747   4.569   3.044 -0.5142  0.8427 -0.3117
    1SOL    MW4  272   1.709   4.508   2.995  0.2317  0.1636 -0.0637
    1SOL     OW  273   0.536   4.475   4.656  0.4189 -0.0876 -0.0455
    1SOL    HW2  274   0.580   4.557   4.638  1.1151 -0.0804  1.6610
    1SOL    HW3  275   0.584   4.410   4.605  0.4004  0.4088 -0.7037
    1SOL    MW4  276   0.548   4.477   4.647  0.5083 -0.0215  0.0930
    1SOL     OW  277   3.021   2.245   2.770  0.2842  0.0091 -0.2243
    1SOL    HW2  278   3.109   2.279   2.755  0.4635 -0.5491 -0.4633
    1SOL    HW3  279   2.972   2.266   2.691  0.4960 -0.6096 -0.5208
    1SOL    MW4  280   3.026   2.252   2.758  0.3362 -0.1464 -0.2952
    1SOL     OW  281   4.400   4.156   1.090 -0.1138 -0.2499 -0.7782
    1SOL    HW2  282   4.493   4.164   1.112 -0.1415  1.6427 -1.2259
    1SOL    HW3  283   4.356   4.141   1.173  0.4704  0.0373 -0.4164
    1SOL    MW4  284   4.406   4.155   1.104 -0.0401  0.0372 -0.7894
    1SOL     OW  285   1.126   4.247   1.485 -0.3742  0.0919  0.5340
    1SOL    HW2  286   1.090   4.335   1.483 -0.4165  0.1138  1.8155
    1SOL    HW3  287   1.081   4.201   1.414  0.8283  1.5312 -1.2064
    1SOL    MW4  288   1.116   4.252   1.475 -0.2210  0.2842  0.4734
    1SOL     OW  289   0.128   3.230   2.769  0.0549  0.0019 -0.4404
    1SOL    HW2  290   0.220   3.210   2.786  0.5250  0.1140 -2.6847
    1SOL    HW3  291   0.120   3.323   2.789  0.2882 -0.1482  0.3496
    1SOL    MW4  292   0.139   3.239   2.774  0.1477 -0.0033 -0.6323
    1SOL     OW  293   4.329   3.960   2.479  0.2597  0.6411  0.0855
    1SOL    HW2  294   4.336   3.883   2.422  0.2837  0.5415  0.2244
    1SOL    HW3  295   4.325   4.034   2.418  1.8993  0.6702 -0.0214
    1SOL    MW4  296   4.329   3.960   2.463  0.4797  0.6318  0.0896
    1SOL     OW  297   1.383   2.969   0.633 -0.2690  0.1530  0.1701
    1SOL    HW2  298   1.327   3.041   0.602 -2.0079 -0.8993  0.7952
    1SOL    HW3  299   1.472   2.999   0.617 -1.0350  1.5449 -1.5786
    1SOL    MW4  300   1.388   2.983   0.627 -0.5996  0.1979  0.0219
    1SOL     OW  301   3.938   0.061   3.954  0.4443 -0.2046  0.2054
    1SOL    HW2  302   4.020   0.014   3.967 -0.3621 -2.1141 -1.4924
    1SOL    HW3  303   3.964   0.154   3.954  2.5083 -0.7524  0.2542
    1SOL    MW4  304   3.953   0.067   3.956  0.6104 -0.5288 -0.0122
    1SOL     OW  305   2.429   0.439   3.516  0.5190 -0.1535 -0.4194
    1SOL    HW2  306   2.420   0.354   3.471  3.1209 -0.3021 -0.7758
    1SOL    HW3  307   2.457   0.499   3.447  0.8890  0.4739  0.2705
    1SOL    MW4  308   2.431   0.436   3.501  0.9112 -0.0903 -0.3753
    1SOL     OW  309   1.447   0.890   3.185  0.4079  0.5795  0.2950
    1SOL    HW2  310   1.488   0.976   3.191 -0.6813  1.2687 -1.7545
    1SOL    HW3  311   1.362   0.906   3.144  1.0918 -1.7276 -2.2254
    1SOL    MW4  312   1.441   0.903   3.180  0.3544  0.3661 -0.3076
    1SOL     OW  313   3.316   3.420   0.944 -0.4762 -0.1122 -0.0736
    1SOL    HW2  314   3.267   3.346   0.909  1.4653 -0.5788 -1.9958
    1SOL    HW3  315   3.347   3.392   1.030  1.1945 -2.0234 -1.2587
    1SOL    MW4  316   3.314   3.407   0.950  0.0002 -0.4261 -0.4836
    1SOL     OW  317   0.917   0.277   2.094  0.2414  0.3601  0.4758
    1SOL    HW2  318   0.867   0.318   2.165  1.5860 -0.1438  1.7568
    1SOL    HW3  319   1.006   0.269   2.130  0.6749 -0.9560 -0.8518
    1SOL    MW4  320   0.922   0.281   2.108  0.4761  0.1200  0.4697
    1SOL     OW  321   2.739   2.066   1.873 -0.0565  0.1952  0.0425
    1SOL    HW2  322   2.735   2.006   1.947  0.5521  0.0138 -0.0669
    1SOL    HW3  323   2.833   2.083   1.861 -0.2114  1.1213  0.0370
    1SOL    MW4  324   2.751   2.061   1.881  0.0036  0.2933  0.0273
    1SOL     OW  325   2.274   1.213   4.455 -0.0860 -0.0313  0.4691
    1SOL    HW2  326   2.231   1.162   4.387  0.5702  0.0163  0.0146
    1SOL    HW3  327   2.353   1.163   4.476  0.6167  0.8491 -0.0608
    1SOL    MW4  328   2.279   1.200   4.449  0.0930  0.0911  0.3390
    1SOL     OW  329   3.215   0.983   2.563  0.5092  0.2923 -0.2149
    1SOL    HW2  330   3.279   0.957   2.497  0.6714 -2.4645  0.9727
    1SOL    HW3  331   3.133   0.991   2.515  0.9279 -0.1977 -1.0268
    1SOL    MW4  332   3.213   0.981   2.548  0.5856 -0.1360 -0.1655
    1SOL     OW  333   4.052   1.666   1.920 -0.2644 -0.4728  0.2426
    1SOL    HW2  334   4.120   1.730   1.899 -1.0443  0.2338 -0.1460
    1SOL    HW3  335   4.063   1.649   2.014  1.1153 -1.1625 -0.0283
    1SOL    MW4  336   4.062   1.672   1.929 -0.1855 -0.4708  0.1556
    1SOL     OW  337   0.290   4.225   3.260  0.2013  0.2859 -0.2536
    1SOL    HW2  338   0.305   4.206   3.352 -0.5794  1.5578  0.1502
    1SOL    HW3  339   0.370   4.270   3.231 -0.0044  0.8797  0.0938
    1SOL    MW4  340   0.303   4.229   3.268  0.0711  0.5322 -0.1543
    1SOL     OW  341   3.053   3.265   3.963 -0.2750 -0.2082 -0.1062
    1SOL    HW2  342   3.107   3.200   3.918 -0.1958 -0.3908  0.2549
    1SOL    HW3  343   2.980   3.215   3.998 -0.7749  0.0679 -0.7463
    1SOL    MW4  344   3.051   3.250   3.962 -0.3304 -0.1962 -0.1431
    1SOL     OW  345   2.546   3.175   4.669 -0.1446  0.1181  0.1610
    1SOL    HW2  346   2.577   3.208   4.753 -0.7393  1.0652  0.0161
    1SOL    HW3  347   2.529   3.082   4.685  1.7463 -0.1970  0.5101
    1SOL    MW4  348   2.548   3.167   4.682  0.0267  0.2015  0.1884
    1SOL     OW  349   0.388   0.728   1.842 -0.1055  0.2763 -0.2960
    1SOL    HW2  350   0.438   0.717   1.923  0.8245  1.1052 -0.7408
    1SOL    HW3  351   0.445   0.695   1.773 -0.9681 -0.6003 -0.6090
    1SOL    MW4  352   0.402   0.722   1.843 -0.0966  0.2700 -0.3960
    1SOL     OW  353   3.552   2.080   2.326 -0.1445 -0.3241 -0.2353
    1SOL    HW2  354   3.623   2.100   2.387  0.2672 -0.8225 -0.5432
    1SOL    HW3  355   3.486   2.035   2.380 -0.8554  1.3803  0.3445
    1SOL    MW4  356   3.553   2.077   2.341 -0.1843 -0.1650 -0.1996
    1SOL     OW  357   3.644   3.776   4.530  0.0196  0.4471  0.6726
    1SOL    HW2  358   3.572   3.838   4.516 -0.3051 -0.4696 -2.2227
    1SOL    HW3  359   3.604   3.690   4.513  1.4804 -0.1581  0.2760
    1SOL    MW4  360   3.629   3.773   4.526  0.1695  0.2463  0.2384
    1SOL     OW  361   2.189   1.860   1.287 -0.0454  0.1007 -0.1035
    1SOL    HW2  362   2.108   1.908   1.306  0.1462 -0.9367  3.6817
    1SOL    HW3  363   2.251   1.928   1.260 -0.7750  1.6086  1.8683
    1SOL    MW4  364   2.187   1.876   1.286 -0.1163  0.1628  0.6561
    1SOL     OW  365   1.761   0.597   3.426  0.1657 -0.1480 -0.7178
    1SOL    HW2  366   1.778   0.619   3.334  1.0943 -1.2083 -0.8106
    1SOL    HW3  367   1.831   0.536   3.449 -1.3617 -1.6545  0.0334
    1SOL    MW4  368   1.772   0.592   3.417  0.0868 -0.4866 -0.6311
    1SOL     OW  369   0.174   1.017   2.751 -0.1823 -0.7426  0.3621
    1SOL    HW2  370   0.185   0.945   2.689  0.2158 -1.1157  0.8666
    1SOL    HW3  371   0.254   1.017   2.803  0.4452  0.9662 -0.5672
    1SOL    MW4  372   0.186   1.007   2.750 -0.0470 -0.5664  0.3061
    1SOL     OW  373   1.163   0.908   1.339  0.1999 -0.2423  0.0831
    1SOL    HW2  374   1.075   0.925   1.371 -0.6234 -0.2925 -2.1067
    1SOL    HW3  375   1.164   0.815   1.317  0.7297 -0.2009 -0.0883
    1SOL    MW4  376   1.152   0.898   1.340  0.1611 -0.2434 -0.2283
    1SOL     OW  377   4.353   2.054   2.400 -0.0669 -0.2716 -0.7666
    1SOL    HW2  378   4.315   2.140   2.382 -0.7107 -0.4668 -0.3564
    1SOL    HW3  379   4.278   1.994   2.404  0.4889 -1.0941 -2.4073
    1SOL    MW4  380   4.338   2.057   2.399 -0.0782 -0.4058 -0.9289
    1SOL     OW  381   3.184   4.548   3.793 -0.1821  0.5146  0.2843
    1SOL    HW2  382   3.217   4.460   3.775  1.3284  0.6504  2.1790
    1SOL    HW3  383   3.093   4.546   3.765 -0.2296 -1.7212  0.5221
    1SOL    MW4  384   3.177   4.536   3.787  0.0105  0.2370  0.5655
    1SOL     OW  385   3.926   1.286   1.229 -0.2575 -0.1324  0.3195
    1SOL    HW2  386   3.952   1.267   1.319 -0.9193  0.3450  0.6157
    1SOL    HW3  387   3.987   1.354   1.200 -0.8088  0.5820  0.8228
    1SOL    MW4  388   3.937   1.293   1.237 -0.4175  0.0249  0.4251
    1SOL     OW  389   2.455   1.511   1.021 -0.2085  0.6317 -0.7985
    1SOL    HW2  390   2.376   1.552   1.054  0.5855  0.5482  1.2726
    1SOL    HW3  391   2.513   1.584   0.999  0.0702  0.6767  0.0573
    1SOL    MW4  392   2.452   1.526   1.022 -0.0672  0.6266 -0.4123
    1SOL     OW  393   0.396   3.050   4.144  0.0792  0.1709 -0.5423
    1SOL    HW2  394   0.313   3.095   4.162  0.1011 -0.4069  1.0596
    1SOL    HW3  395   0.431   3.094   4.067 -1.8844  0.1878 -1.4334
    1SOL    MW4  396   0.390   3.062   4.136 -0.1770  0.0968 -0.4487
    1SOL     OW  397   2.068   0.243   1.123  0.6930  0.0365 -0.0572
    1SOL    HW2  398   2.065   0.271   1.214  1.0324  0.8972 -0.3078
    1SOL    HW3  399   1.986   0.196   1.109  0.0463  1.0446  0.3170
    1SOL    MW4  400   2.057   0.240   1.133  0.6523  0.2830 -0.0409
    1SOL     OW  401   4.192   3.048   0.656 -0.0197  0.0241 -0.6332
    1SOL    HW2  402   4.273   3.023   0.612  0.1635 -0.0382 -0.2590
    1SOL    HW3  403   4.171   3.135   0.622  1.5060  1.0858  1.0878
    1SOL    MW4  404   4.200   3.056   0.646  0.2055  0.1562 -0.3568
    1SOL     OW  405   2.980   0.768   2.792  0.0629  0.0118 -0.3648
    1SOL    HW2  406   3.060   0.753   2.741  0.1178  0.2708 -0.3539
    1SOL    HW3  407   2.936   0.840   2.747  0.1461  0.2886 -0.0055
    1SOL    MW4  408   2.985   0.776   2.779  0.0811  0.0826 -0.3159
    1SOL     OW  409   1.754   2.274   0.703 -0.3292  0.7598  0.4657
    1SOL    HW2  410   1.736   2.352   0.651  1.2815 -0.0398 -1.3683
    1SOL    HW3  411   1.670   2.250   0.741 -1.4696  1.6442 -1.4357
    1SOL    MW4  412   1.741   2.281   0.701 -0.2673  0.7708 -0.0271
    1SOL     OW  413   0.004   1.730   1.929 -0.7469 -0.4050 -0.2894
    1SOL    HW2  414   0.074   1.776   1.977 -0.6852  0.5601 -1.2853
    1SOL    HW3  415  -0.023   1.660   1.989  0.9246 -0.6673  0.2112
    1SOL    MW4  416   0.010   1.727   1.943 -0.5183 -0.3123 -0.3546
    1SOL     OW  417   1.295   3.430   3.866 -0.6503  0.4367  0.1054
    1SOL    HW2  418   1.264   3.373   3.796 -0.5345  0.9762 -0.3900
    1SOL    HW3  419   1.365   3.379   3.909 -0.2683  0.3688 -0.5892
    1SOL    MW4  420   1.300   3.416   3.862 -0.5847  0.4990 -0.0517
    1SOL     OW  421   0.283   3.571   0.598 -0.0992 -0.2587  0.1047
    1SOL    HW2  422   0.302   3.665   0.593  0.4026 -0.3928 -0.8185
    1SOL    HW3  423   0.193   3.563   0.569  0.0736 -0.1257 -0.4763
    1SOL    MW4  424   0.274   3.582   0.593 -0.0102 -0.2589 -0.0937
    1SOL     OW  425   3.728   2.798   3.329  0.4700  0.2296 -0.1120
    1SOL    HW2  426   3.692   2.728   3.382  1.5712 -0.7283 -0.6133
    1SOL    HW3  427   3.776   2.853   3.391 -0.1409  0.3726  0.2323
    1SOL    MW4  428   3.730   2.796   3.344  0.5348  0.1221 -0.1326
    1SOL     OW  429   2.040   0.032   2.333 -0.1132 -0.1161  0.2035
    1SOL    HW2  430   2.089  -0.050   2.322 -1.5203 -1.0371  0.6807
    1SOL    HW3  431   2.103   0.100   2.310  0.9205 -1.3548 -0.7512
    1SOL    MW4  432   2.055   0.030   2.328 -0.1626 -0.4011  0.1407
    1SOL     OW  433   2.689   4.078   2.127 -0.1783 -0.1796  0.1563
    1SOL    HW2  434   2.779   4.057   2.151  0.2122  0.3815 -0.7939
    1SOL    HW3  435   2.638   4.060   2.206  0.9649  0.8196  1.1441
    1SOL    MW4  436   2.694   4.073   2.141  0.0243  0.0262  0.1616
    1SOL     OW  437   3.482   2.381   3.125 -0.4075 -0.2312 -0.5542
    1SOL    HW2  438   3.429   2.306   3.099  0.4708 -1.0290 -0.0584
    1SOL    HW3  439   3.524   2.410   3.043 -0.6358 -0.3532 -0.7168
    1SOL    MW4  440   3.481   2.375   3.110 -0.3216 -0.3524 -0.5102
    1SOL     OW  441   3.637   0.521   3.165  0.5160 -0.2070  0.2228
    1SOL    HW2  442   3.720   0.504   3.209 -0.7121 -0.4773  2.5587
    1SOL    HW3  443   3.625   0.616   3.173  0.4526 -0.2118  0.1830
    1SOL    MW4  444   3.646   0.531   3.172  0.3455 -0.2433  0.5257
    1SOL     OW  445   3.164   4.354   4.716 -0.1578 -0.2328 -0.8533
    1SOL    HW2  446   3.118   4.437   4.700  0.7815  0.2919 -0.8185
    1SOL    HW3  447   3.136   4.297   4.644 -1.4611 -0.1668 -0.4136
    1SOL    MW4  448   3.154   4.358   4.704 -0.2060 -0.1550 -0.7906
    1SOL     OW  449   4.051   3.969   0.542 -0.5204  0.1264 -0.1019
    1SOL    HW2  450   4.129   4.018   0.568 -1.3059  1.6598 -0.5683
    1SOL    HW3  451   4.057   3.887   0.591  1.1684  0.3957  0.1817
    1SOL    MW4  452   4.062   3.965   0.552 -0.4010  0.3643 -0.1261
    1SOL     OW  453   2.261   3.688   1.003  0.4125  0.0825  0.0966
    1SOL    HW2  454   2.310   3.701   0.922 -0.8238  1.7911 -0.3885
    1SOL    HW3  455   2.174   3.724   0.986 -0.1288 -0.2863  1.9050
    1SOL    MW4  456   2.256   3.695   0.990  0.1779  0.2594  0.2713
    1SOL     OW  457   0.606   3.432   2.850 -0.2488 -0.4617  0.0767
    1SOL    HW2  458   0.540   3.433   2.920 -0.3694 -1.5777 -0.0136
    1SOL    HW3  459   0.643   3.344   2.853  1.3393  0.1942  0.1990
    1SOL    MW4  460   0.602   3.421   2.860 -0.0552 -0.5224  0.0811
    1SOL     OW  461   4.288   2.984   2.747  0.1171 -0.0619 -0.5040
    1SOL    HW2  462   4.255   2.902   2.785  1.4946 -0.3939  0.0049
    1SOL    HW3  463   4.351   3.017   2.811 -0.4542  1.4232 -0.6932
    1SOL    MW4  464   4.292   2.977   2.760  0.2232  0.0901 -0.4618
    1SOL     OW  465   0.562   2.059   1.481  0.7141 -0.5314  0.6086
    1SOL    HW2  466   0.578   2.146   1.445 -1.0849 -1.3056 -2.2164
    1SOL    HW3  467   0.648   2.029   1.512  1.5644  1.7242  0.4848
    1SOL    MW4  468   0.575   2.066   1.480  0.5890 -0.3359  0.2195
    1SOL     OW  469   2.910   2.781   1.367  0.1779 -0.5425 -0.4334
    1SOL    HW2  470   2.972   2.771   1.295  0.7163 -2.2857  0.2528
    1SOL    HW3  471   2.948   2.731   1.439 -0.8318  0.3876  0.7565
    1SOL    MW4  472   2.923   2.773   1.367  0.1159 -0.6502 -0.1858
    1SOL     OW  473   0.338   1.205   4.036 -0.1438 -0.3360  0.0610
    1SOL    HW2  474   0.267   1.200   3.972  1.7401  1.0672 -2.2505
    1SOL    HW3  475   0.295   1.232   4.117 -2.4829 -1.3344 -0.7870
    1SOL    MW4  476   0.323   1.208   4.038 -0.2039 -0.2825 -0.3562
    1SOL     OW  477   1.567   3.511   0.775  0.4826  0.4125 -0.3720
    1SOL    HW2  478   1.551   3.599   0.811  0.0380 -0.0367  0.5266
    1SOL    HW3  479   1.597   3.460   0.850  1.2848 -0.0630 -1.0113
    1SOL    MW4  480   1.569   3.516   0.790  0.5298  0.2902 -0.3377
    1SOL     OW  481   1.904   3.431   3.589  0.2131 -0.0009  0.3400
    1SOL    HW2  482   1.809   3.428   3.578  0.1003  1.0887  0.9153
    1SOL    HW3  483   1.918   3.414   3.682  0.3175  3.6081  1.0453
    1SOL    MW4  484   1.893   3.428   3.600  0.2120  0.6192  0.5088
    1SOL     OW  485   2.604   2.817   3.901  0.2122 -0.2970  0.0924
    1SOL    HW2  486   2.514   2.816   3.933  0.6534 -1.3166  1.3505
    1SOL    HW3  487   2.609   2.743   3.840  0.2424 -0.3260  0.1307
    1SOL    MW4  488   2.593   2.807   3.897  0.2747 -0.4354  0.2632
    1SOL     OW  489   0.773   2.719   0.831  0.0157 -0.1975 -0.0458
    1SOL    HW2  490   0.830   2.667   0.774  0.8573  0.8774 -0.2114
    1SOL    HW3  491   0.795   2.691   0.920 -0.5268 -1.1103 -0.2017
    1SOL    MW4  492   0.783   2.709   0.835  0.0551 -0.1760 -0.0882
    1SOL     OW  493   0.612   0.882   3.332  0.1202  0.1488  0.3696
    1SOL    HW2  494   0.520   0.905   3.336  0.0212 -0.2475  0.4637
    1SOL    HW3  495   0.612   0.786   3.331  0.5629  0.1245  1.3657
    1SOL    MW4  496   0.600   0.872   3.333  0.1656  0.0933  0.5133
    1SOL     OW  497   0.186   4.135   1.126  0.1926 -0.1379  0.3335
    1SOL    HW2  498   0.215   4.110   1.038 -1.4155  1.2535 -0.6209
    1SOL    HW3  499   0.245   4.205   1.152  0.7806 -0.6704  0.4325
    1SOL    MW4  500   0.197   4.141   1.118  0.0580 -0.0243  0.2207
    1SOL     OW  501   2.293   3.023   1.605  0.4856  0.1767 -0.0398
    1SOL    HW2  502   2.356   2.952   1.618  2.1630  1.4195 -1.1299
    1SOL    HW3  503   2.213   2.979   1.576  1.7031 -1.2229 -1.3639
    1SOL    MW4  504   2.291   3.008   1.603  0.8676  0.1562 -0.3583
    1SOL     OW  505   2.438   3.888   4.196  0.2921 -0.5165  1.0606
    1SOL    HW2  506   2.433   3.853   4.285  2.7756  0.6709  1.6894
    1SOL    HW3  507   2.434   3.983   4.207 -2.9443 -0.4010 -0.3999
    1SOL    MW4  508   2.437   3.896   4.210  0.1926 -0.3448  0.9513
    1SOL     OW  509   2.322   3.782   3.095 -0.0882  0.3427  0.2413
    1SOL    HW2  510   2.281   3.867   3.111  0.4109  1.0747 -2.1826
    1SOL    HW3  511   2.414   3.804   3.079  0.3397 -0.8220  1.0761
    1SOL    MW4  512   2.329   3.796   3.095  0.0339  0.2859  0.0317
    1SOL     OW  513   0.395   2.535   2.925  0.0356  0.0030  0.5161
    1SOL    HW2  514   0.409   2.469   2.857 -1.0720  1.2075 -0.9120
    1SOL    HW3  515   0.302   2.558   2.918  0.3112  1.4258  1.2457
    1SOL    MW4  516   0.385   2.530   2.915 -0.0741  0.3498  0.4241
    1SOL     OW  517   3.525   0.166   3.491  0.1539 -0.2926 -0.1601
    1SOL    HW2  518   3.537   0.073   3.471 -1.9632 -0.6075 -0.0941
    1SOL    HW3  519   3.511   0.207   3.405 -0.5848 -0.3129 -0.0531
    1SOL    MW4  520   3.525   0.159   3.477 -0.2229 -0.3368 -0.1371
    1SOL     OW  521   3.634   2.620   4.547  0.0747  0.5613  0.3635
    1SOL    HW2  522   3.634   2.716   4.547  0.9634  0.5838 -1.4809
    1SOL    HW3  523   3.548   2.596   4.513 -0.1087  0.6917  0.7243
    1SOL    MW4  524   3.623   2.630   4.543  0.1676  0.5813  0.1678
    1SOL     OW  525   2.455   3.669   2.284 -0.0977  0.1007  0.1302
    1SOL    HW2  526   2.406   3.647   2.363 -0.2912  0.5447  0.1352
    1SOL    HW3  527   2.544   3.637   2.300 -0.2535 -0.2239  0.3389
    1SOL    MW4  528   2.460   3.662   2.296 -0.1440  0.1166  0.1585
    1SOL     OW  529   2.719   4.400   4.370  0.3515 -0.2297 -0.2213
    1SOL    HW2  530   2.779   4.473   4.382 -0.1791  0.5194 -1.8833
    1SOL    HW3  531   2.712   4.360   4.456  1.1264  1.3112  0.5812
    1SOL    MW4  532   2.726   4.404   4.383  0.3839  0.0720 -0.3347
    1SOL     OW  533   2.136   0.663   4.370 -0.1246 -0.0721  0.5001
    1SOL    HW2  534   2.142   0.692   4.280 -1.5339  0.3867  0.5312
    1SOL    HW3  535   2.191   0.724   4.419  0.6047 -0.2944 -0.0325
    1SOL    MW4  536   2.144   0.675   4.365 -0.2141 -0.0409  0.4339
    1SOL     OW  537   0.935   3.340   2.963 -0.3297  0.9351 -0.1429
    1SOL    HW2  538   0.959   3.408   2.899  0.7490  0.3355 -0.3786
    1SOL    HW3  539   0.851   3.306   2.930  0.1339  0.7429 -1.1638
    1SOL    MW4  540   0.927   3.345   2.950 -0.1262  0.8307 -0.3088
    1SOL     OW  541   3.355   1.052   4.545 -0.5587 -0.1831 -0.3948
    1SOL    HW2  542   3.412   1.093   4.480 -0.6739 -1.4566 -1.3103
    1SOL    HW3  543   3.266   1.078   4.519 -0.6349 -1.0277 -0.9988
    1SOL    MW4  544   3.350   1.061   4.533 -0.5839 -0.4625 -0.5951
    1SOL     OW  545   2.942   3.369   0.697 -0.3873 -0.2262  0.3495
    1SOL    HW2  546   2.925   3.324   0.780 -2.1194  0.5722  0.4321
    1SOL    HW3  547   2.914   3.459   0.711  3.5089  1.1044  0.3378
    1SOL    MW4  548   2.936   3.375   0.710 -0.1018  0.0546  0.3589
    1SOL     OW  549   0.350   3.886   2.843  0.3493 -0.3911  0.6861
    1SOL    HW2  550   0.361   3.956   2.779 -1.0275 -0.7663  0.0205
    1SOL    HW3  551   0.348   3.931   2.928 -0.0202  0.3130  0.3049
    1SOL    MW4  552   0.351   3.901   2.846  0.1189 -0.3479  0.5481
    1SOL     OW  553   0.696   3.300   1.352 -0.8060  0.3952  0.5430
    1SOL    HW2  554   0.743   3.219   1.371  0.5796  1.1610  0.4486
    1SOL    HW3  555   0.704   3.351   1.433 -1.2437  0.6444  0.4296
    1SOL    MW4  556   0.703   3.296   1.365 -0.6809  0.5291  0.5156
    1SOL     OW  557   3.513   1.714   0.627  0.0982  0.0222 -0.2341
    1SOL    HW2  558   3.491   1.642   0.567  0.6609  1.0144 -1.6711
    1SOL    HW3  559   3.440   1.776   0.617 -1.7337 -1.5093  2.9869
    1SOL    MW4  560   3.500   1.713   0.617 -0.0691 -0.0489  0.0013
    1SOL     OW  561   0.735   4.343   2.723 -0.6080  0.5289 -0.4300
    1SOL    HW2  562   0.756   4.254   2.752 -1.3833  0.3221 -0.4975
    1SOL    HW3  563   0.801   4.363   2.657  0.8532  0.7975  1.0793
    1SOL    MW4  564   0.747   4.334   2.718 -0.5175  0.5374 -0.2396
    1SOL     OW  565   2.923   0.624   4.176  0.2456  0.1590 -0.3833
    1SOL    HW2  566   2.954   0.672   4.254  0.2511  0.8577 -0.8100
    1SOL    HW3  567   2.921   0.532   4.204 -0.4603  0.4801  0.6767
    1SOL    MW4  568   2.927   0.618   4.190  0.1531  0.2936 -0.2995
    1SOL     OW  569   3.982   3.484   3.199  0.2550 -0.0950  0.3624
    1SOL    HW2  570   4.017   3.452   3.282  0.7585 -0.5578 -0.0290
    1SOL    HW3  571   3.887   3.482   3.212  0.2943 -1.2194  0.5382
    1SOL    MW4  572   3.974   3.480   3.212  0.3269 -0.3045  0.3343
    1SOL     OW  573   1.734   3.230   2.166  0.1173  0.1554  0.1159
    1SOL    HW2  574   1.650   3.216   2.210  0.0860  1.8968  0.6177
    1SOL    HW3  575   1.717   3.300   2.103  0.2881 -1.9358 -2.3672
    1SOL    MW4  576   1.721   3.237   2.163  0.1358  0.1092 -0.1454
    1SOL     OW  577   0.480   0.595   4.398  0.0893  0.2778  0.0920
    1SOL    HW2  578   0.500   0.688   4.410  0.6132  0.1496  0.2562
    1SOL    HW3  579   0.543   0.550   4.455 -0.7904 -0.1394  0.7417
    1SOL    MW4  580   0.491   0.602   4.407  0.0424  0.2059  0.1998
    1SOL     OW  581   1.337   3.110   3.096  0.1321  0.1002 -0.6208
    1SOL    HW2  582   1.394   3.129   3.170 -0.6772  0.3546 -0.0485
    1SOL    HW3  583   1.373   3.031   3.057  1.8187  1.1607 -1.2394
    1SOL    MW4  584   1.349   3.102   3.101  0.2478  0.2735 -0.6270
    1SOL     OW  585   3.516   3.560   4.183 -0.0302 -0.7064 -0.1656
    1SOL    HW2  586   3.429   3.532   4.154  0.1430 -0.7655 -0.6402
    1SOL    HW3  587   3.513   3.555   4.278  0.6639 -4.3377 -0.2667
    1SOL    MW4  588   3.504   3.556   4.191  0.0842 -1.1933 -0.2422
    1SOL     OW  589   1.841   4.421   1.449 -0.0075 -0.1558  0.7452
    1SOL    HW2  590   1.929   4.427   1.486 -0.4129  0.2895  1.6592
    1SOL    HW3  591   1.794   4.363   1.509 -0.2239 -0.7304  0.0303
    1SOL    MW4  592   1.846   4.414   1.462 -0.0895 -0.1731  0.7714
    1SOL     OW  593   1.352   1.645   1.987  0.2206  0.4034  0.2987
    1SOL    HW2  594   1.341   1.666   2.080  0.6269 -1.3536  0.7624
    1SOL    HW3  595   1.308   1.716   1.941 -1.7497  0.2594  1.8732
    1SOL    MW4  596   1.345   1.657   1.993  0.0143  0.1525  0.5676
    1SOL     OW  597   1.279   3.843   1.382  0.1369  0.2914  0.3621
    1SOL    HW2  598   1.227   3.764   1.365 -1.5717  1.2447  1.0094
    1SOL    HW3  599   1.335   3.820   1.455  0.1492 -0.5431  0.0950
    1SOL    MW4  600   1.279   3.830   1.389 -0.0869  0.3068  0.4123
    1SOL     OW  601   1.499   2.172   0.835 -0.0193 -0.1147  0.5020
    1SOL    HW2  602   1.499   2.079   0.810  1.6675  0.2980 -1.1474
    1SOL    HW3  603   1.538   2.172   0.923  0.3538 -0.9370  0.3469
    1SOL    MW4  604   1.504   2.160   0.844  0.2525 -0.1688  0.2639
    1SOL     OW  605   2.590   4.498   2.352  0.0211  0.0394  0.6953
    1SOL    HW2  606   2.526   4.446   2.303  0.2363  0.0821  0.3632
    1SOL    HW3  607   2.633   4.551   2.285 -0.0638  0.5079  1.0048
    1SOL    MW4  608   2.587   4.498   2.336  0.0381  0.1063  0.6924
    1SOL     OW  609   1.218   0.551   0.506 -0.4324 -0.2719 -0.1937
    1SOL    HW2  610   1.147   0.487   0.512 -1.1701  0.5925  0.5639
    1SOL    HW3  611   1.188   0.624   0.561  0.3119  0.7828 -1.1844
    1SOL    MW4  612   1.205   0.553   0.514 -0.4315 -0.0187 -0.2244
    1SOL     OW  613   2.960   1.251   1.601 -0.4258 -0.9168 -0.5219
    1SOL    HW2  614   3.028   1.195   1.638  1.4426  0.8653 -1.1563
    1SOL    HW3  615   2.980   1.255   1.508  0.8964  2.5917 -0.1839
    1SOL    MW4  616   2.971   1.244   1.594 -0.0048 -0.2187 -0.5610
    1SOL     OW  617   4.454   0.128   1.110 -0.2075 -0.0368  0.5310
    1SOL    HW2  618   4.546   0.137   1.088 -0.0167  0.1875  1.3883
    1SOL    HW3  619   4.450   0.145   1.204 -1.0737 -0.3716  0.5634
    1SOL    MW4  620   4.465   0.131   1.120 -0.2966 -0.0514  0.6484
    1SOL     OW  621   0.784   3.043   3.076  0.3110  0.1774 -0.0576
    1SOL    HW2  622   0.872   3.076   3.094  0.2075 -0.0045  0.7794
    1SOL    HW3  623   0.797   2.950   3.061  0.0535 -0.1604  1.6942
    1SOL    MW4  624   0.798   3.035   3.076  0.2634  0.1090  0.2840
    1SOL     OW  625   2.687   0.165   1.542  0.2264  0.1191  0.0327
    1SOL    HW2  626   2.693   0.121   1.457  0.2831  0.9213 -0.3872
    1SOL    HW3  627   2.764   0.222   1.545  1.5994 -1.7284  1.6987
    1SOL    MW4  628   2.698   0.166   1.531  0.4148 -0.0188  0.1971
    1SOL     OW  629   1.688   3.835   1.457  0.2045  0.3374 -0.0836
    1SOL    HW2  630   1.689   3.915   1.404 -0.0100  0.7870  0.5882
    1SOL    HW3  631   1.780   3.819   1.478  0.4002 -0.4197 -1.4434
    1SOL    MW4  632   1.700   3.843   1.453  0.2021  0.2971 -0.1743
    1SOL     OW  633   0.802   3.918   3.790  0.0272 -0.1657  0.1318
    1SOL    HW2  634   0.839   3.864   3.721  0.0315 -0.0033  0.0054
    1SOL    HW3  635   0.781   4.001   3.746  0.3597  0.0619  0.4062
    1SOL    MW4  636   0.804   3.922   3.775  0.0716 -0.1142  0.1512
    1SOL     OW  637   0.159   4.354   0.724  0.1594  0.3937  0.6258
    1SOL    HW2  638   0.124   4.393   0.644  2.3426  0.4564 -0.3489
    1SOL    HW3  639   0.085   4.307   0.762 -1.1188  1.0129 -1.0180
    1SOL    MW4  640   0.145   4.353   0.718  0.2788  0.4835  0.2803
    1SOL     OW  641   3.544   4.120   4.656  0.0447 -0.3476  0.2406
    1SOL    HW2  642   3.615   4.096   4.716  0.8016  0.1121 -0.4599
    1SOL    HW3  643   3.586   4.124   4.570 -0.9945 -0.8056 -0.2876
    1SOL    MW4  644   3.559   4.118   4.652  0.0074 -0.3471  0.0787
    1SOL     OW  645   1.794   1.439   3.535 -0.4006  0.1996 -0.6595
    1SOL    HW2  646   1.878   1.479   3.512 -0.4377  0.0030 -1.1342
    1SOL    HW3  647   1.744   1.439   3.454 -2.1055  3.3060  0.3205
    1SOL    MW4  648   1.798   1.444   3.521 -0.6305  0.5835 -0.5929
    1SOL     OW  649   2.777   0.691   1.635 -0.1604  0.6451  0.1903
    1SOL    HW2  650   2.753   0.651   1.551  1.1319  1.8927 -0.7905
    1SOL    HW3  651   2.845   0.755   1.613  0.0493  1.1349  2.1650
    1SOL    MW4  652   2.782   0.694   1.621  0.0379  0.8743  0.3215
    1SOL     OW  653   4.343   2.885   4.359 -0.1129  0.1944  0.3835
    1SOL    HW2  654   4.284   2.870   4.433 -0.0266 -0.7861  0.2572
    1SOL    HW3  655   4.287   2.874   4.282 -0.1475  0.9695  0.2923
    1SOL    MW4  656   4.328   2.881   4.358 -0.1059  0.1674  0.3548
    1SOL     OW  657   1.856   2.773   1.169  0.2163  0.1222 -0.2776
    1SOL    HW2  658   1.773   2.787   1.122 -1.7751 -2.1792  2.3805
    1SOL    HW3  659   1.873   2.858   1.212 -1.4559  0.2623  0.1554
    1SOL    MW4  660   1.847   2.786   1.169 -0.2670 -0.1631  0.1302
    1SOL     OW  661   4.046   0.636   0.668 -0.6553 -0.1798 -0.6950
    1SOL    HW2  662   4.060   0.708   0.730 -1.4106  0.8973 -1.7570
    1SOL    HW3  663   3.953   0.615   0.675 -0.5745 -0.6050 -0.8695
    1SOL    MW4  664   4.036   0.643   0.677 -0.7443 -0.0938 -0.8581
    1SOL     OW  665   3.576   4.651   3.218 -0.3090  0.1873 -0.3841
    1SOL    HW2  666   3.601   4.643   3.310 -0.2495  2.1135 -0.1975
    1SOL    HW3  667   3.658   4.672   3.173 -0.5805  0.6825 -0.6528
    1SOL    MW4  668   3.590   4.653   3.224 -0.3369  0.5069 -0.3951
    1SOL     OW  669   1.896   3.030   1.774  0.2696  0.5443 -0.4150
    1SOL    HW2  670   1.928   2.991   1.693 -1.1491  0.3467 -0.8791
    1SOL    HW3  671   1.816   3.075   1.750 -0.6075 -0.2047  1.0391
    1SOL    MW4  672   1.890   3.031   1.760 -0.0333  0.4194 -0.2843
    1SOL     OW  673   0.820   4.402   3.235 -0.0025  0.2005 -0.3764
    1SOL    HW2  674   0.827   4.490   3.199 -0.5749  0.3113 -0.2330
    1SOL    HW3  675   0.906   4.384   3.273 -0.2337  1.1653  0.6324
    1SOL    MW4  676   0.832   4.411   3.236 -0.1085  0.3424 -0.2244
    1SOL     OW  677   2.187   2.245   3.762  0.5792  0.1542 -1.0407
    1SOL    HW2  678   2.104   2.280   3.795  0.4490  0.5167 -1.7260
    1SOL    HW3  679   2.201   2.164   3.811  1.4556  1.7481  1.3639
    1SOL    MW4  680   2.178   2.239   3.773  0.6778  0.4122 -0.8137
    1SOL     OW  681   4.219   1.911   3.392  0.5754  0.7105 -0.2550
    1SOL    HW2  682   4.236   1.905   3.298 -1.0211 -0.5573 -0.4810
    1SOL    HW3  683   4.256   1.995   3.418  0.7393  1.2185 -2.0759
    1SOL    MW4  684   4.226   1.921   3.383  0.3867  0.6104 -0.5250
    1SOL     OW  685   0.346   2.294   3.741 -0.4328  0.0558 -0.1202
    1SOL    HW2  686   0.351   2.373   3.687 -0.7446 -0.0100 -0.2469
    1SOL    HW3  687   0.316   2.226   3.680  0.7380 -0.3735 -0.2427
    1SOL    MW4  688   0.343   2.295   3.726 -0.3194 -0.0098 -0.1533
    1SOL     OW  689   3.428   3.059   4.503 -0.2883  1.1434 -0.2694
    1SOL    HW2  690   3.417   3.074   4.409 -0.6691 -0.3447 -0.4722
    1SOL    HW3  691   3.340   3.064   4.539 -0.4828 -0.9919 -0.4116
    1SOL    MW4  692   3.415   3.062   4.495 -0.3641  0.6652 -0.3152
    1SOL     OW  693   0.354   1.767   0.916  0.6054  0.1832  0.2651
    1SOL    HW2  694   0.268   1.750   0.877  0.5779  2.5519 -0.7599
    1SOL    HW3  695   0.386   1.680   0.941 -1.2398 -0.9280 -1.0856
    1SOL    MW4  696   0.347   1.753   0.914  0.3583  0.3492 -0.0484
    1SOL     OW  697   1.411   3.176   1.471  0.4878 -1.1152  0.9183
    1SOL    HW2  698   1.388   3.179   1.564 -0.9443  0.1176  0.5247
    1SOL    HW3  699   1.333   3.142   1.428  0.4981  0.0979 -0.0612
    1SOL    MW4  700   1.398   3.172   1.477  0.3002 -0.7923  0.7372
    1SOL     OW  701   2.889   1.315   2.982 -0.0404  0.5456  0.3662
    1SOL    HW2  702   2.859   1.292   2.894  1.2205 -1.1750  0.3636
    1SOL    HW3  703   2.826   1.273   3.040 -0.3208  0.8783  0.3054
    1SOL    MW4  704   2.877   1.306   2.978  0.0889  0.3625  0.3581
    1SOL     OW  705   1.619   3.720   3.868 -0.5553  0.1067  0.2726
    1SOL    HW2  706   1.700   3.771   3.866 -1.2286  1.1829 -0.1825
    1SOL    HW3  707   1.565   3.764   3.934 -1.6601  0.7931 -1.0800
    1SOL    MW4  708   1.623   3.733   3.876 -0.7899  0.3393  0.0339
    1SOL     OW  709   2.588   4.016   2.378 -0.2392 -0.3488 -0.0107
    1SOL    HW2  710   2.652   3.947   2.396  0.3494  0.3832  0.7448
    1SOL    HW3  711   2.623   4.093   2.423  0.0848  0.9583 -2.4728
    1SOL    MW4  712   2.601   4.017   2.387 -0.1190 -0.0796 -0.2363
    1SOL     OW  713   3.763   0.674   1.170 -0.6882  0.7173 -0.1658
    1SOL    HW2  714   3.844   0.690   1.122  0.1008 -0.2662  0.7884
    1SOL    HW3  715   3.709   0.751   1.154  0.2242  1.1485 -1.2369
    1SOL    MW4  716   3.766   0.686   1.161 -0.4640  0.6444 -0.1812
    1SOL     OW  717   0.593   1.304   3.568 -0.1590 -0.6617  0.2734
    1SOL    HW2  718   0.589   1.400   3.569  1.4754 -0.5596 -0.7356
    1SOL    HW3  719   0.565   1.278   3.656  1.2826  0.8433  1.2075
    1SOL    MW4  720   0.589   1.313   3.579  0.2469 -0.4498  0.2632
    1SOL     OW  721   3.669   1.836   3.647  0.0486 -0.1764 -0.0148
    1SOL    HW2  722   3.581   1.872   3.633  0.4387  0.3435 -1.2091
    1SOL    HW3  723   3.728   1.911   3.634  0.6765 -0.5017  0.8573
    1SOL    MW4  724   3.665   1.851   3.644  0.1829 -0.1507 -0.0570
    1SOL     OW  725   2.222   0.818   2.949 -0.5199  0.1228  0.3798
    1SOL    HW2  726   2.234   0.741   2.893  0.0755  0.4647  0.0309
    1SOL    HW3  727   2.243   0.788   3.037 -2.2336 -0.6325  0.5566
    1SOL    MW4  728   2.226   0.804   2.953 -0.6676  0.0683  0.3572
    1SOL     OW  729   0.635   1.320   0.914 -0.1134  0.0314  0.4874
    1SOL    HW2  730   0.576   1.245   0.918 -1.5989  1.1682  0.4467
    1SOL    HW3  731   0.708   1.297   0.971 -0.7506 -1.2667  0.7934
    1SOL    MW4  732   0.637   1.307   0.922 -0.3935  0.0100  0.5224
    1SOL     OW  733   3.464   2.573   3.804  0.1188  0.1345 -0.1190
    1SOL    HW2  734   3.515   2.578   3.723 -1.0535  1.7753 -0.8006
    1SOL    HW3  735   3.383   2.528   3.779  0.2835 -0.4946  0.4481
    1SOL    MW4  736   3.460   2.568   3.790 -0.0141  0.2680 -0.1340
    1SOL     OW  737   1.160   4.608   2.540 -0.2592 -0.1121 -0.8297
    1SOL    HW2  738   1.135   4.643   2.454  0.3828  0.1539 -0.9125
    1SOL    HW3  739   1.194   4.521   2.521 -1.4803 -0.6246 -0.6708
    1SOL    MW4  740   1.161   4.601   2.526 -0.3356 -0.1445 -0.8194
    1SOL     OW  741   0.382   2.323   2.723 -0.2733  0.1361 -0.4759
    1SOL    HW2  742   0.474   2.308   2.704  0.3901  1.2432  1.6941
    1SOL    HW3  743   0.353   2.244   2.768 -0.1994  0.0896 -0.5102
    1SOL    MW4  744   0.390   2.310   2.726 -0.1760  0.2761 -0.1941
    1SOL     OW  745   0.602   0.269   4.493  0.5624 -0.1207  0.4118
    1SOL    HW2  746   0.674   0.331   4.483  1.6009 -1.5432 -1.1909
    1SOL    HW3  747   0.581   0.241   4.404 -0.5423 -1.3320  1.0280
    1SOL    MW4  748   0.609   0.274   4.480  0.5537 -0.4682  0.2823
    1SOL     OW  749   3.378   0.367   1.541  0.3944  0.2044 -0.0261
    1SOL    HW2  750   3.455   0.423   1.526  0.5309 -0.0735 -0.3637
    1SOL    HW3  751   3.405   0.280   1.512  0.1338 -0.0116  0.3688
    1SOL    MW4  752   3.392   0.363   1.536  0.3784  0.1392 -0.0186
    1SOL     OW  753   2.301   2.363   1.629 -0.4805  0.0710  0.2846
    1SOL    HW2  754   2.224   2.332   1.676 -0.2784  1.4650  1.5833
    1SOL    HW3  755   2.375   2.320   1.672 -0.3489  0.7646  0.7558
    1SOL    MW4  756   2.300   2.353   1.641 -0.4363  0.3464  0.5180
    1SOL     OW  757   2.049   4.599   1.889 -0.5844 -0.9712 -0.2953
    1SOL    HW2  758   1.984   4.626   1.953 -0.1862 -1.4730  0.3217
    1SOL    HW3  759   2.132   4.628   1.926 -0.5883  1.2424 -1.8959
    1SOL    MW4  760   2.051   4.607   1.902 -0.5322 -0.7458 -0.4251
    1SOL     OW  761   2.993   3.038   3.196  0.1192  0.2164  0.7229
    1SOL    HW2  762   3.053   3.111   3.184  0.7453 -0.2433  1.0007
    1SOL    HW3  763   3.010   3.007   3.286  0.1907 -0.5462  0.4545
    1SOL    MW4  764   3.003   3.043   3.207  0.2112  0.0551  0.7243
    1SOL     OW  765   0.934   2.182   4.155 -0.3739 -0.3497  0.2677
    1SOL    HW2  766   0.844   2.151   4.143 -0.1229 -0.6046 -0.9470
    1SOL    HW3  767   0.986   2.102   4.164 -0.0112 -0.2403 -0.8331
    1SOL    MW4  768   0.929   2.167   4.155 -0.2929 -0.3688 -0.0377
    1SOL     OW  769   1.701   1.527   1.503 -0.4113  0.1594 -0.1937
    1SOL    HW2  770   1.679   1.584   1.430  0.7316 -0.1630 -0.8093
    1SOL    HW3  771   1.727   1.444   1.463 -0.3026 -0.2002  0.5984
    1SOL    MW4  772   1.702   1.523   1.488 -0.2460  0.0694 -0.1705
    1SOL     OW  773   4.190   3.825   1.178 -0.0188  0.1895 -0.2259
    1SOL    HW2  774   4.107   3.872   1.186  1.0307  1.9399  0.5278
    1SOL    HW3  775   4.167   3.733   1.193 -1.6939  0.7549  0.7560
    1SOL    MW4  776   4.176   3.819   1.181 -0.1011  0.4950  0.0030
    1SOL     OW  777   0.043   2.688   4.410 -0.4460 -0.9633 -0.7933
    1SOL    HW2  778   0.122   2.742   4.418 -0.2755 -1.3138 -0.0641
    1SOL    HW3  779  -0.028   2.751   4.398  0.0775 -0.6805 -2.6161
    1SOL    MW4  780   0.044   2.703   4.409 -0.3544 -0.9725 -0.9375
    1SOL     OW  781   3.634   4.453   1.521 -0.6710  0.2863 -0.4153
    1SOL    HW2  782   3.641   4.462   1.616  0.4510 -0.5912 -0.4059
    1SOL    HW3  783   3.576   4.378   1.508 -1.0530  0.5797 -0.4387
    1SOL    MW4  784   3.627   4.445   1.532 -0.5736  0.2093 -0.4172
    1SOL     OW  785   3.777   1.666   2.040 -0.0492 -0.3553 -0.3683
    1SOL    HW2  786   3.813   1.579   2.056  0.2832 -0.4918 -1.7507
    1SOL    HW3  787   3.842   1.708   1.983 -0.7011  0.4235 -0.5432
    1SOL    MW4  788   3.791   1.660   2.034 -0.0911 -0.2706 -0.5739
    1SOL     OW  789   3.954   0.435   4.484 -0.1978 -0.0739 -0.1821
    1SOL    HW2  790   3.986   0.464   4.570 -0.3472 -1.8590  0.4927
    1SOL    HW3  791   4.019   0.468   4.422  0.4596  0.3474  0.7221
    1SOL    MW4  792   3.967   0.443   4.488 -0.1309 -0.2539  0.0267
    1SOL     OW  793   2.405   1.986   1.513  0.4171 -0.0588 -0.2250
    1SOL    HW2  794   2.466   2.050   1.550  0.0497  1.1871 -1.7473
    1SOL    HW3  795   2.455   1.942   1.445 -0.3269  0.8897 -1.4041
    1SOL    MW4  796   2.420   1.989   1.509  0.2701  0.2307 -0.5814
    1SOL     OW  797   1.416   3.132   3.748 -0.3673  0.1349 -0.2453
    1SOL    HW2  798   1.421   3.040   3.721  0.5700  0.1523 -0.1684
    1SOL    HW3  799   1.408   3.130   3.843  1.6392  0.1390 -0.0388
    1SOL    MW4  800   1.416   3.120   3.757  0.0211  0.1378 -0.2079
    1SOL     OW  801   0.683   2.077   2.335  0.4489 -0.6687 -0.1331
    1SOL    HW2  802   0.633   2.128   2.398 -2.4004 -2.1401 -1.1294
    1SOL    HW3  803   0.775   2.095   2.357 -0.4781  0.4102  3.0989
    1SOL    MW4  804   0.689   2.086   2.346 -0.0493 -0.7203  0.1621
    1SOL     OW  805   0.922   2.460   4.156 -0.0139 -0.4275 -0.2606
    1SOL    HW2  806   0.861   2.493   4.090  1.1651  0.8598 -0.7417
    1SOL    HW3  807   0.909   2.365   4.157  1.8018 -0.7967 -4.2716
    1SOL    MW4  808   0.912   2.452   4.148  0.3812 -0.3064 -0.8535
    1SOL     OW  809   3.165   3.728   4.619  0.3202 -0.5998  0.1341
    1SOL    HW2  810   3.101   3.760   4.556 -1.4348 -1.4369  1.4529
    1SOL    HW3  811   3.238   3.790   4.613 -0.1721 -0.1918 -2.0877
    1SOL    MW4  812   3.166   3.740   4.610  0.0238 -0.6561  0.0153
    1SOL     OW  813   3.885   0.158   0.796 -0.0246  0.2478 -0.3637
    1SOL    HW2  814   3.871   0.084   0.736  0.0860 -0.2529  0.2270
    1SOL    HW3  815   3.805   0.210   0.788  0.0005  0.1978 -0.9696
    1SOL    MW4  816   3.873   0.155   0.787 -0.0069  0.1751 -0.3658
    1SOL     OW  817   1.335   3.204   1.003 -0.0160 -0.7370 -0.3233
    1SOL    HW2  818   1.278   3.276   1.032  0.5570  0.8632 -3.0582
    1SOL    HW3  819   1.305   3.129   1.054 -2.0865  0.9289  1.0176
    1SOL    MW4  820   1.323   3.204   1.014 -0.2135 -0.3061 -0.5071
    1SOL     OW  821   4.147   1.244   2.380 -0.5715  0.5209 -0.1370
    1SOL    HW2  822   4.074   1.182   2.366  1.6789 -1.9707 -1.3526
    1SOL    HW3  823   4.188   1.216   2.461  0.1761  0.6967 -0.4451
    1SOL    MW4  824   4.143   1.232   2.389 -0.1760  0.2154 -0.3378
    1SOL     OW  825   4.179   0.528   4.338 -0.2904  0.4337 -0.2746
    1SOL    HW2  826   4.270   0.509   4.315 -0.5530 -1.3016  0.0038
    1SOL    HW3  827   4.174   0.623   4.342  1.2446  0.5756 -1.3583
    1SOL    MW4  828   4.190   0.538   4.336 -0.1221  0.2235 -0.3810
    1SOL     OW  829   1.780   2.612   4.195 -0.1229  0.2316  0.3170
    1SOL    HW2  830   1.800   2.630   4.287  0.5870  1.3425 -0.0542
    1SOL    HW3  831   1.712   2.675   4.172  1.7164  1.8966 -0.7165
    1SOL    MW4  832   1.774   2.623   4.204  0.2134  0.5982  0.1321
    1SOL     OW  833   3.340   1.594   3.394 -0.1073  0.0960  0.2262
    1SOL    HW2  834   3.288   1.514   3.386 -0.5103  0.5394 -1.8369
    1SOL    HW3  835   3.277   1.665   3.381  0.4100  0.7407  1.1819
    1SOL    MW4  836   3.325   1.592   3.392 -0.0923  0.2396  0.0801
    1SOL     OW  837   1.340   1.112   1.429  0.2133  0.3348 -0.3655
    1SOL    HW2  838   1.274   1.045   1.414  0.8313 -0.1866 -0.8191
    1SOL    HW3  839   1.297   1.195   1.410 -0.6922  0.1045  0.6266
    1SOL    MW4  840   1.326   1.114   1.425  0.1755  0.2357 -0.2944
    1SOL     OW  841   1.753   0.889   0.793 -0.0778 -0.4642  0.3284
    1SOL    HW2  842   1.840   0.920   0.767 -0.7855  0.6617 -0.7804
    1SOL    HW3  843   1.743   0.918   0.883  0.2891  0.2945  0.1298
    1SOL    MW4  844   1.764   0.897   0.801 -0.1228 -0.2156  0.1559
    1SOL     OW  845   1.489   4.375   1.700 -0.5511  0.4141 -0.2788
    1SOL    HW2  846   1.546   4.415   1.766  0.1800 -0.6695 -0.2470
    1SOL    HW3  847   1.550   4.338   1.636 -1.0793 -3.2907  1.2074
    1SOL    MW4  848   1.505   4.376   1.700 -0.5243 -0.2179 -0.0786
    1SOL     OW  849   1.121   3.516   3.446 -0.0059  0.1203  0.2904
    1SOL    HW2  850   1.075   3.484   3.368  0.0163  0.8535 -0.0260
    1SOL    HW3  851   1.212   3.492   3.432 -0.1197 -0.3967  0.4294
    1SOL    MW4  852   1.127   3.509   3.434 -0.0181  0.1488  0.2670
    1SOL     OW  853   2.824   4.143   1.382 -0.0653  0.2437 -0.6228
    1SOL    HW2  854   2.805   4.230   1.348 -0.5982  1.3859  2.3931
    1SOL    HW3  855   2.903   4.154   1.435 -0.5174 -0.9488  0.3375
    1SOL    MW4  856   2.832   4.156   1.385 -0.1950  0.2375 -0.0981
    1SOL     OW  857   4.216   3.857   1.786  0.4617 -0.3952  0.1606
    1SOL    HW2  858   4.153   3.785   1.796  0.5362 -0.5354 -0.3397
    1SOL    HW3  859   4.220   3.872   1.691  0.2817  0.4132  0.2725
    1SOL    MW4  860   4.208   3.850   1.775  0.4478 -0.3068  0.1094
    1SOL     OW  861   0.598   3.942   0.446 -0.0098 -0.0747  0.6823
    1SOL    HW2  862   0.662   3.872   0.433  0.3608  0.3687  0.0958
    1SOL    HW3  863   0.640   4.003   0.506 -1.2999 -1.5755  3.1918
    1SOL    MW4  864   0.612   3.941   0.452 -0.1312 -0.2143  0.9360
    1SOL     OW  865   4.002   1.894   3.725 -0.3044 -0.2764  0.2513
    1SOL    HW2  866   4.006   1.903   3.630  1.3904 -0.8232  0.2408
    1SOL    HW3  867   4.094   1.886   3.752 -0.8343 -1.4724  1.7938
    1SOL    MW4  868   4.015   1.894   3.716 -0.1507 -0.5064  0.4537
    1SOL     OW  869   2.120   2.165   4.509  0.6350  0.2188  0.0952
    1SOL    HW2  870   2.130   2.074   4.536  0.6411  0.4977  1.0712
    1SOL    HW3  871   2.207   2.192   4.480  0.5929 -0.1401 -0.3572
    1SOL    MW4  872   2.133   2.157   4.509  0.6304  0.2084  0.1645
    1SOL     OW  873   3.335   0.106   3.082 -0.3093 -0.0609  0.2679
    1SOL    HW2  874   3.352   0.070   3.169 -0.9550 -0.1938  0.3471
    1SOL    HW3  875   3.411   0.083   3.030 -0.2756 -0.6731  0.5872
    1SOL    MW4  876   3.347   0.098   3.087 -0.3901 -0.1592  0.3207
    1SOL     OW  877   1.545   3.260   2.952  0.1157 -0.3247 -0.2403
    1SOL    HW2  878   1.474   3.221   3.004  1.8259 -0.7899  1.8404
    1SOL    HW3  879   1.576   3.188   2.897 -0.5049 -0.3397 -0.5733
    1SOL    MW4  880   1.540   3.245   2.952  0.2594 -0.3879 -0.0098
    1SOL     OW  881   4.193   4.301   3.403 -0.1677 -0.4417 -0.2087
    1SOL    HW2  882   4.245   4.239   3.351  0.8277 -0.8404  1.2110
    1SOL    HW3  883   4.159   4.364   3.340  0.1206 -1.5376 -1.4719
    1SOL    MW4  884   4.196   4.301   3.388  0.0019 -0.6390 -0.1881
    1SOL     OW  885   4.392   4.142   1.641 -0.5548 -0.1984 -0.0072
    1SOL    HW2  886   4.460   4.136   1.708 -0.5407  1.5906  0.1589
    1SOL    HW3  887   4.411   4.070   1.581  1.7550  0.5364 -0.1917
    1SOL    MW4  888   4.404   4.131   1.642 -0.2484  0.1340 -0.0097
    1SOL     OW  889   2.944   1.495   2.357  0.0869  1.2804 -0.7006
    1SOL    HW2  890   2.906   1.538   2.281 -1.3574  2.5383  0.6699
    1SOL    HW3  891   3.033   1.532   2.364  0.3284  0.9289 -1.9347
    1SOL    MW4  892   2.951   1.506   2.348 -0.0718  1.4001 -0.6828
    1SOL     OW  893   2.526   3.469   4.126  0.6535  0.1119 -0.0577
    1SOL    HW2  894   2.523   3.521   4.046  0.1784 -1.4675 -1.0883
    1SOL    HW3  895   2.437   3.471   4.159  0.7384  0.3400  0.1587
    1SOL    MW4  896   2.514   3.476   4.120  0.6020 -0.0663 -0.1655
    1SOL     OW  897   3.744   3.906   3.633  0.1558  0.2713  0.4822
    1SOL    HW2  898   3.784   3.875   3.715 -1.0925 -0.9479  0.6496
    1SOL    HW3  899   3.656   3.934   3.658  0.1218  0.8494 -0.2681
    1SOL    MW4  900   3.738   3.905   3.647 -0.0136  0.1867  0.4053
    1SOL     OW  901   2.627   1.512   4.234 -0.6627  0.5500 -0.5980
    1SOL    HW2  902   2.537   1.478   4.241 -0.5142  0.2952  0.0659
    1SOL    HW3  903   2.631   1.549   4.146 -0.4302 -2.3657 -1.8774
    1SOL    MW4  904   2.616   1.512   4.223 -0.6123  0.1317 -0.6790
    1SOL     OW  905   1.822   1.841   0.693  0.2805  0.3406 -0.0340
    1SOL    HW2  906   1.855   1.753   0.676  2.9133  1.2296  0.2002
    1SOL    HW3  907   1.867   1.896   0.629  0.5369  1.8585  1.4167
    1SOL    MW4  908   1.832   1.837   0.683  0.6617  0.6582  0.1882
    1SOL     OW  909   3.243   1.519   0.933 -0.1688  0.9241 -0.4411
    1SOL    HW2  910   3.247   1.447   0.996  0.6432  0.4707 -1.0066
    1SOL    HW3  911   3.333   1.529   0.902 -0.3006  2.0855 -0.4865
    1SOL    MW4  912   3.255   1.511   0.937 -0.0792  1.0176 -0.5217
    1SOL     OW  913   3.892   1.948   2.111 -0.2398 -0.2149  0.2939
    1SOL    HW2  914   3.802   1.916   2.104  0.0812 -1.0788  0.1149
    1SOL    HW3  915   3.930   1.897   2.182  0.8045 -1.4789 -1.1580
    1SOL    MW4  916   3.885   1.937   2.120 -0.0596 -0.4956  0.0784
    1SOL     OW  917   0.518   0.467   4.145  0.1004 -0.6491 -0.0147
    1SOL    HW2  918   0.497   0.490   4.235  0.2505 -1.0653  0.1293
    1SOL    HW3  919   0.609   0.495   4.133 -0.0937 -0.1002 -0.2078
    1SOL    MW4  920   0.527   0.474   4.155  0.0947 -0.6316 -0.0210
    1SOL     OW  921   0.352   2.243   2.082  0.0614 -0.0973 -0.1238
    1SOL    HW2  922   0.273   2.297   2.095  0.0616 -0.5511  1.9878
    1SOL    HW3  923   0.331   2.160   2.125  0.8815 -1.0086 -1.4589
    1SOL    MW4  924   0.338   2.239   2.090  0.1696 -0.2773 -0.0217
    1SOL     OW  925   3.743   2.148   2.510  0.0534 -0.1835 -0.0925
    1SOL    HW2  926   3.738   2.066   2.559  0.8930 -0.4990 -0.5200
    1SOL    HW3  927   3.690   2.210   2.561 -1.3236 -1.2161 -0.2449
    1SOL    MW4  928   3.735   2.146   2.523 -0.0176 -0.3617 -0.1690
    1SOL     OW  929   0.176   2.617   0.435 -0.2485 -0.3138 -0.2032
    1SOL    HW2  930   0.240   2.604   0.365  0.4168  0.6148  0.2300
    1SOL    HW3  931   0.225   2.662   0.504 -1.2588  0.0089  0.3028
    1SOL    MW4  932   0.191   2.621   0.435 -0.2940 -0.1488 -0.0792
    1SOL     OW  933   2.008   1.981   0.887 -0.2047  0.0240 -0.4460
    1SOL    HW2  934   1.938   1.952   0.828 -0.0095  0.5941 -0.9674
    1SOL    HW3  935   1.963   2.006   0.967 -0.5041 -0.4909 -0.4502
    1SOL    MW4  936   1.993   1.981   0.890 -0.2185  0.0314 -0.5154
    1SOL     OW  937   2.290   2.751   0.623  0.9124  0.4062  0.2006
    1SOL    HW2  938   2.360   2.739   0.558  0.3940 -0.4820 -0.2054
    1SOL    HW3  939   2.216   2.784   0.573 -0.0215 -1.8662  0.0185
    1SOL    MW4  940   2.290   2.754   0.608  0.7205 -0.0105  0.1230
    1SOL     OW  941   4.217   1.925   1.610  0.0951 -0.5403 -0.0546
    1SOL    HW2  942   4.128   1.914   1.577 -0.1125  0.2708  0.2057
    1SOL    HW3  943   4.212   1.896   1.701  0.2158 -0.9841 -0.1919
    1SOL    MW4  944   4.204   1.920   1.618  0.0834 -0.4919 -0.0384
    1SOL     OW  945   2.236   3.601   3.325 -0.1233 -0.4188  0.1931
    1SOL    HW2  946   2.275   3.655   3.256  2.1162  1.1868  2.6415
    1SOL    HW3  947   2.297   3.527   3.334  0.1591 -0.0746  1.1577
    1SOL    MW4  948   2.249   3.598   3.317  0.2096 -0.1614  0.6433
    1SOL     OW  949   4.474   3.585   3.509 -0.6405 -0.2281 -0.2967
    1SOL    HW2  950   4.460   3.494   3.538 -0.4550  0.0825  0.7914
    1SOL    HW3  951   4.444   3.638   3.583  1.9232  0.5517  0.2167
    1SOL    MW4  952   4.468   3.580   3.523 -0.2775 -0.0844 -0.0856
    1SOL     OW  953   0.434   3.694   3.447 -0.2377  0.4058  0.0022
    1SOL    HW2  954   0.521   3.654   3.450  0.6930  2.3738 -0.4145
    1SOL    HW3  955   0.398   3.665   3.363  0.2526  0.0979 -0.1053
    1SOL    MW4  956   0.441   3.685   3.436 -0.0502  0.6249 -0.0668
    1SOL     OW  957   3.946   0.310   1.423  0.4372  0.2616 -0.0801
    1SOL    HW2  958   3.868   0.352   1.387  0.8717  0.8765 -0.3047
    1SOL    HW3  959   3.958   0.231   1.370  0.9837  1.0817 -1.1873
    1SOL    MW4  960   3.937   0.305   1.411  0.5670  0.4509 -0.2558
    1SOL     OW  961   0.007   1.236   0.838 -0.3833  0.7368  0.2113
    1SOL    HW2  962  -0.077   1.206   0.873  0.1234 -0.7091  0.2181
    1SOL    HW3  963   0.057   1.262   0.915 -1.2210  2.7458  0.1324
    1SOL    MW4  964   0.002   1.236   0.853 -0.4268  0.8111  0.2018
    1SOL     OW  965   3.112   1.201   4.484  0.2917 -0.4406 -0.0376
    1SOL    HW2  966   3.026   1.161   4.496  0.6650 -1.6487 -1.1424
    1SOL    HW3  967   3.102   1.257   4.407 -0.0886  1.2156  1.1925
    1SOL    MW4  968   3.099   1.203   4.475  0.2911 -0.3815 -0.0200
    1SOL     OW  969   0.562   3.637   4.480  0.4318  0.1476 -0.3816
    1SOL    HW2  970   0.642   3.604   4.438  0.9117  0.5769  0.1966
    1SOL    HW3  971   0.593   3.701   4.543 -0.4595  1.2554 -1.0558
    1SOL    MW4  972   0.577   3.641   4.483  0.3775  0.3505 -0.3939
    1SOL     OW  973   3.685   0.483   2.888 -0.7079 -0.0757 -0.8151
    1SOL    HW2  974   3.627   0.536   2.834  1.0507  0.0793 -2.6217
    1SOL    HW3  975   3.660   0.503   2.978 -2.1659  1.3954 -1.5281
    1SOL    MW4  976   3.674   0.492   2.893 -0.6683  0.1388 -1.1473
    1SOL     OW  977   0.313   3.516   2.232 -0.5904 -0.1665  0.6050
    1SOL    HW2  978   0.293   3.550   2.146  0.4773 -0.6872  0.1357
    1SOL    HW3  979   0.247   3.448   2.248 -0.9379  0.1038  0.3148
    1SOL    MW4  980   0.302   3.511   2.223 -0.4954 -0.1993  0.5047
    1SOL     OW  981   0.871   1.061   2.832 -0.3074  0.2546 -0.2135
    1SOL    HW2  982   0.869   0.966   2.818 -0.1399  0.3590 -0.9730
    1SOL    HW3  983   0.822   1.074   2.913  1.4818 -0.6887  1.0432
    1SOL    MW4  984   0.864   1.050   2.840 -0.0492  0.1440 -0.1478
    1SOL     OW  985   0.597   0.370   3.423 -0.0811 -0.0812  0.4969
    1SOL    HW2  986   0.627   0.386   3.513 -0.3986  0.3736  0.5275
    1SOL    HW3  987   0.516   0.320   3.434 -0.1955  0.0950  0.4757
    1SOL    MW4  988   0.590   0.366   3.436 -0.1381  0.0021  0.4981
    1SOL     OW  989   0.021   2.500   0.750  0.0675 -0.2375 -0.4021
    1SOL    HW2  990  -0.019   2.472   0.667 -1.9720 -2.2570  1.1937
    1SOL    HW3  991   0.089   2.435   0.767 -0.2178 -0.4234  0.0278
    1SOL    MW4  992   0.025   2.488   0.741 -0.2393 -0.5288 -0.1347
    1SOL     OW  993   3.741   3.249   2.094  0.2202  0.0854 -0.3159
    1SOL    HW2  994   3.662   3.261   2.147 -0.0661  1.2090 -0.9951
    1SOL    HW3  995   3.734   3.314   2.025  1.5939 -0.0224 -0.5684
    1SOL    MW4  996   3.730   3.259   2.092  0.3636  0.2193 -0.4389
    1SOL     OW  997   1.460   1.983   1.335  0.0247 -0.0865 -0.1167
    1SOL    HW2  998   1.369   2.008   1.349 -0.0176 -0.4882  0.3158
    1SOL    HW3  999   1.491   1.953   1.421  1.4130  2.7399  0.4522
    1SOL    MW4 1000   1.452   1.982   1.348  0.2022  0.2333  0.0154
    1SOL     OW 1001   3.526   3.311   4.636  0.1064  0.2424 -0.0293
    1SOL    HW2 1002   3.527   3.226   4.592 -0.1954  0.4977 -0.5287
    1SOL    HW3 1003   3.442   3.312   4.682 -0.8952  1.1947 -1.8426
    1SOL    MW4 1004   3.515   3.300   4.636 -0.0656  0.4017 -0.3343
    1SOL     OW 1005   0.332   4.557   2.438 -0.2848  0.0955  0.3660
    1SOL    HW2 1006   0.240   4.531   2.431 -0.2706  0.0074  0.5070
    1SOL    HW3 1007   0.363   4.564   2.348 -0.2668 -0.4410  0.3337
    1SOL    MW4 1008   0.324   4.555   2.425 -0.2805  0.0129  0.3805
    1SOL     OW 1009   1.962   0.209   2.567  0.7949 -0.1576 -0.1010
    1SOL    HW2 1010   2.046   0.228   2.610  0.7903 -1.9483  0.7235
    1SOL    HW3 1011   1.985   0.154   2.492  0.6633  1.9207 -1.7238
    1SOL    MW4 1012   1.977   0.204   2.563  0.7770 -0.1197 -0.2065
    1SOL     OW 1013   4.052   4.197   4.951  0.2712 -0.3486  0.4259
    1SOL    HW2 1014   3.994   4.149   4.893 -0.8463  1.1664  0.2759
    1SOL    HW3 1015   4.048   4.150   5.034 -0.9132 -0.4470  0.3152
    1SOL    MW4 1016   4.044   4.185   4.954 -0.0329 -0.1621  0.3915
    1SOL     OW 1017   3.291   3.951   1.460 -0.4505  0.0046  0.1585
    1SOL    HW2 1018   3.277   3.880   1.523 -1.2543  0.1341  0.1328
    1SOL    HW3 1019   3.213   4.006   1.469 -0.8141 -0.2433 -1.3091
    1SOL    MW4 1020   3.279   3.949   1.470 -0.6046 -0.0107 -0.0385
    1SOL     OW 1021   2.674   1.540   3.279 -0.0396 -0.2439 -0.3514
    1SOL    HW2 1022   2.596   1.579   3.319 -0.7730 -0.1897 -1.7916
    1SOL    HW3 1023   2.653   1.534   3.186  1.4551 -0.7836 -0.6760
    1SOL    MW4 1024   2.661   1.544   3.272  0.0608 -0.3079 -0.5841
    1SOL     OW 1025   0.243   4.444   3.668  0.2524  0.5756 -0.2597
    1SOL    HW2 1026   0.313   4.506   3.685 -0.4764  0.9818  1.3037
    1SOL    HW3 1027   0.238   4.390   3.747  1.3196 -1.9361 -1.8278
    1SOL    MW4 1028   0.252   4.445   3.680  0.2970  0.2975 -0.2601
    1SOL     OW 1029   0.151   4.248   4.585 -0.3790  0.2389 -0.0960
    1SOL    HW2 1030   0.151   4.191   4.508  0.6277  0.2703 -0.1242
    1SOL    HW3 1031   0.153   4.188   4.660  2.0614  0.2070 -0.1318
    1SOL    MW4 1032   0.152   4.233   4.585  0.0758  0.2389 -0.1040
    1SOL     OW 1033   1.492   0.495   3.111  0.3069  0.4027  0.4704
    1SOL    HW2 1034   1.502   0.570   3.170 -0.8962  1.5662 -0.7747
    1SOL    HW3 1035   1.417   0.518   3.056  0.8990 -1.0375 -0.9702
    1SOL    MW4 1036   1.483   0.508   3.112  0.2261  0.3662  0.1159
    1SOL     OW 1037   1.409   1.998   3.187 -0.5529  0.6668  0.1827
    1SOL    HW2 1038   1.402   1.946   3.267  1.6936  0.8335  0.5116
    1SOL    HW3 1039   1.499   1.986   3.159 -1.1039  1.2638 -1.8988
    1SOL    MW4 1040   1.420   1.989   3.194 -0.3293  0.7675 -0.0484
    1SOL     OW 1041   0.776   3.281   0.725 -0.0464  0.2495  0.5450
    1SOL    HW2 1042   0.736   3.259   0.808 -2.4210 -1.9569 -1.1212
    1SOL    HW3 1043   0.708   3.326   0.675 -0.4701 -3.1928 -2.1746
    1SOL    MW4 1044   0.762   3.284   0.729 -0.4156 -0.4957 -0.0337
    1SOL     OW 1045   0.189   4.096   2.510  0.0763  0.3106  0.1857
    1SOL    HW2 1046   0.148   4.018   2.547 -0.3091  0.6096  0.3823
    1SOL    HW3 1047   0.204   4.074   2.418  0.9288 -0.3905  0.4803
    1SOL    MW4 1048   0.186   4.083   2.503  0.1380  0.2575  0.2506
    1SOL     OW 1049   1.034   0.188   1.316  0.3892  0.7343  0.3967
    1SOL    HW2 1050   0.944   0.200   1.348  0.6549  1.1034  1.0399
    1SOL    HW3 1051   1.067   0.113   1.366  0.2220  0.1842 -0.3207
    1SOL    MW4 1052   1.026   0.180   1.327  0.4022  0.7104  0.3870
    1SOL     OW 1053   3.678   3.166   1.400 -0.3457 -0.3066  0.2537
    1SOL    HW2 1054   3.734   3.098   1.361  0.3608 -0.4079  1.4119
    1SOL    HW3 1055   3.732   3.245   1.399 -0.2544 -0.3561  1.1902
    1SOL    MW4 1056   3.692   3.167   1.395 -0.2403 -0.3266  0.5301
    1SOL     OW 1057   1.479   2.664   2.475 -0.4953  0.2113  0.1708
    1SOL    HW2 1058   1.549   2.604   2.501  0.4129  0.4580 -1.5911
    1SOL    HW3 1059   1.402   2.633   2.523 -0.2625 -2.8901 -1.2709
    1SOL    MW4 1060   1.478   2.652   2.485 -0.3448 -0.1655 -0.2520
    1SOL     OW 1061   4.253   1.170   0.931 -0.0842  0.0948 -0.0339
    1SOL    HW2 1062   4.237   1.254   0.974  1.2038  0.6113 -0.5258
    1SOL    HW3 1063   4.216   1.105   0.990 -0.5279  0.9622  0.6570
    1SOL    MW4 1064   4.246   1.172   0.945  0.0272  0.2774 -0.0075
    1SOL     OW 1065   0.884   2.869   1.647 -0.0299  0.0740 -0.3720
    1SOL    HW2 1066   0.846   2.784   1.628 -0.6673  0.0882  0.8018
    1SOL    HW3 1067   0.851   2.927   1.578 -1.3997 -0.1191  0.1258
    1SOL    MW4 1068   0.875   2.866   1.635 -0.2947  0.0503 -0.1514
    1SOL     OW 1069   1.748   2.763   0.622 -0.0659  0.5668 -0.2065
    1SOL    HW2 1070   1.697   2.689   0.590  2.0699 -1.1988  0.4063
    1SOL    HW3 1071   1.773   2.739   0.711 -0.1485  2.4528  0.3483
    1SOL    MW4 1072   1.744   2.750   0.629  0.2050  0.5827 -0.0523
    1SOL     OW 1073   4.413   0.608   3.671  0.1306 -0.0385  0.0910
    1SOL    HW2 1074   4.446   0.624   3.582  1.2021  1.1107  0.6900
    1SOL    HW3 1075   4.329   0.655   3.673  0.8883  1.3382  0.2089
    1SOL    MW4 1076   4.406   0.617   3.659  0.3719  0.2947  0.1855
    1SOL     OW 1077   1.459   2.126   2.767 -0.0830  0.2368 -0.2971
    1SOL    HW2 1078   1.537   2.159   2.812  0.5369 -1.6621  0.0753
    1SOL    HW3 1079   1.477   2.141   2.674  1.0139 -0.7842 -0.2545
    1SOL    MW4 1080   1.472   2.132   2.760  0.1435 -0.1485 -0.2422
    1SOL     OW 1081   0.336   1.543   3.339  0.4317  0.0131  0.0662
    1SOL    HW2 1082   0.333   1.524   3.246 -0.6920 -0.6009  0.2197
    1SOL    HW3 1083   0.329   1.458   3.382 -2.6082  0.5568  0.7359
    1SOL    MW4 1084   0.335   1.529   3.333 -0.1176  0.0039  0.1748
    1SOL     OW 1085   0.107   0.291   3.481 -0.2373 -0.2097  0.5598
    1SOL    HW2 1086   0.090   0.334   3.565 -0.4491 -1.7076  1.3005
    1SOL    HW3 1087   0.032   0.232   3.469 -0.2289  0.0246 -0.7056
    1SOL    MW4 1088   0.095   0.289   3.490 -0.2641 -0.3764  0.4907
    1SOL     OW 1089   4.276   0.791   2.994 -0.0562  0.4955  0.0586
    1SOL    HW2 1090   4.208   0.848   2.957 -0.4005  0.8616  1.2517
    1SOL    HW3 1091   4.234   0.749   3.068  0.9279  0.4686  0.6053
    1SOL    MW4 1092   4.261   0.793   2.999  0.0281  0.5403  0.2882
    1SOL     OW 1093   2.998   4.345   0.852 -0.1729  0.3406 -0.2095
    1SOL    HW2 1094   2.932   4.405   0.885 -0.3620  0.7184 -1.2772
    1SOL    HW3 1095   3.064   4.401   0.812 -0.0066 -0.1261 -0.5934
    1SOL    MW4 1096   2.998   4.360   0.851 -0.1760  0.3295 -0.4011
    1SOL     OW 1097   2.287   4.026   0.908  0.1230  0.0760 -0.2787
    1SOL    HW2 1098   2.206   4.029   0.960  0.6533 -0.4065  0.5858
    1SOL    HW3 1099   2.260   3.983   0.826 -0.5327  0.0598 -0.0617
    1SOL    MW4 1100   2.273   4.021   0.904  0.1066  0.0105 -0.1359
    1SOL     OW 1101   1.723   0.779   1.811  0.4979  0.1311 -0.1028
    1SOL    HW2 1102   1.742   0.846   1.876 -0.6223  0.6228 -0.2770
    1SOL    HW3 1103   1.798   0.783   1.751  1.0372  0.3701  0.5716
    1SOL    MW4 1104   1.736   0.788   1.812  0.4213  0.2276 -0.0368
    1SOL     OW 1105   2.869   0.535   1.856 -0.1864  0.2438  0.1563
    1SOL    HW2 1106   2.960   0.552   1.829  0.1613  2.6153  2.5829
    1SOL    HW3 1107   2.816   0.583   1.792  0.3828  0.6486 -0.0201
    1SOL    MW4 1108   2.874   0.544   1.844 -0.0656  0.6101  0.4531
    1SOL     OW 1109   2.679   2.429   4.302 -0.4930 -0.3302 -0.2445
    1SOL    HW2 1110   2.748   2.472   4.252  1.1780 -0.0824  2.2209
    1SOL    HW3 1111   2.598   2.466   4.266  0.7162  0.9406 -1.7564
    1SOL    MW4 1112   2.677   2.440   4.290 -0.1128 -0.1299 -0.1187
    1SOL     OW 1113   1.528   1.163   3.270  0.1140 -0.0815 -0.5729
    1SOL    HW2 1114   1.465   1.187   3.202 -0.8907  0.2927  0.4619
    1SOL    HW3 1115   1.579   1.242   3.286  1.1526 -0.5104 -1.7229
    1SOL    MW4 1116   1.526   1.176   3.263  0.1185 -0.0887 -0.5882
    1SOL     OW 1117   4.189   2.883   4.570  0.5320  0.4166  0.0817
    1SOL    HW2 1118   4.094   2.892   4.578  0.5048  1.3069 -1.0026
    1SOL    HW3 1119   4.208   2.794   4.600 -0.7154  0.0197 -0.2824
    1SOL    MW4 1120   4.179   2.873   4.575  0.3638  0.4816 -0.1092
    1SOL     OW 1121   0.796   1.212   3.955 -0.1657  0.2148 -0.0707
    1SOL    HW2 1122   0.830   1.126   3.929 -3.3018 -0.7894 -1.2257
    1SOL    HW3 1123   0.766   1.199   4.045 -1.9692 -0.4040 -0.7203
    1SOL    MW4 1124   0.796   1.199   3.963 -0.8174  0.0007 -0.3088
    1SOL     OW 1125   0.118   2.735   2.407 -0.1692 -0.3065 -0.0198
    1SOL    HW2 1126   0.134   2.673   2.336  3.5041  0.2981  0.1947
    1SOL    HW3 1127   0.147   2.819   2.373 -1.9880  0.7395  0.8950
    1SOL    MW4 1128   0.124   2.738   2.393  0.0755 -0.0889  0.1292
    1SOL     OW 1129   3.452   2.284   0.855 -0.0607  0.1445 -0.7192
    1SOL    HW2 1130   3.512   2.315   0.924 -0.2213  0.3583 -0.6720
    1SOL    HW3 1131   3.403   2.213   0.896 -0.3268  0.4330 -0.5311
    1SOL    MW4 1132   3.454   2.279   0.870 -0.1171  0.2108 -0.6882
    1SOL     OW 1133   4.072   3.355   2.672  0.3524 -0.3798 -0.3148
    1SOL    HW2 1134   4.059   3.275   2.722  0.2437 -0.4588 -0.4701
    1SOL    HW3 1135   4.063   3.328   2.580 -0.4900 -0.0352 -0.3326
    1SOL    MW4 1136   4.069   3.341   2.666  0.2270 -0.3448 -0.3376
    1SOL     OW 1137   1.025   3.528   2.779  0.1607 -0.7647 -0.1404
    1SOL    HW2 1138   0.998   3.497   2.692  2.4116 -0.3350 -1.0164
    1SOL    HW3 1139   0.997   3.620   2.781  3.0692  0.2197 -1.7638
    1SOL    MW4 1140   1.018   3.536   2.768  0.8414 -0.5782 -0.4704
    1SOL     OW 1141   1.443   4.246   2.735 -0.0952 -0.7353 -0.0598
    1SOL    HW2 1142   1.503   4.188   2.782 -1.1982 -1.7260  0.1721
    1SOL    HW3 1143   1.464   4.233   2.643 -0.4608 -1.6633 -0.0171
    1SOL    MW4 1144   1.453   4.237   2.729 -0.2890 -0.9885 -0.0238
    1SOL     OW 1145   3.122   2.660   3.477 -0.3817  0.2199 -0.1568
    1SOL    HW2 1146   3.125   2.754   3.460  0.2044 -0.1992 -2.6226
    1SOL    HW3 1147   3.200   2.626   3.433  0.4836 -1.1815  2.4071
    1SOL    MW4 1148   3.132   2.668   3.469 -0.1903 -0.0203 -0.1440
    1SOL     OW 1149   4.390   4.419   3.051  0.3124  0.3252  0.3334
    1SOL    HW2 1150   4.317   4.460   3.006 -0.1912 -0.8123  0.0800
    1SOL    HW3 1151   4.420   4.350   2.991  0.1510 -0.6759  1.3745
    1SOL    MW4 1152   4.384   4.415   3.037  0.2251  0.0429  0.4373
    1SOL     OW 1153   1.389   4.378   3.075  0.9560 -0.1734 -0.6311
    1SOL    HW2 1154   1.322   4.418   3.020  0.0277 -2.4541 -1.2315
    1SOL    HW3 1155   1.427   4.451   3.124 -1.1750  1.3125 -1.1125
    1SOL    MW4 1156   1.385   4.393   3.074  0.5523 -0.2785 -0.7739
    1SOL     OW 1157   2.316   2.986   2.529 -0.3043  0.2714 -0.2678
    1SOL    HW2 1158   2.408   2.975   2.506  0.1062 -0.3883  1.6160
    1SOL    HW3 1159   2.289   2.900   2.562 -0.6045  1.3852  2.5085
    1SOL    MW4 1160   2.324   2.973   2.530 -0.2897  0.3314  0.3469
    1SOL     OW 1161   1.632   0.945   3.692  0.2902  0.4671  0.1301
    1SOL    HW2 1162   1.650   1.036   3.715 -1.3899  1.0203 -0.6589
    1SOL    HW3 1163   1.667   0.935   3.603  0.5495  0.3053  0.2474
    1SOL    MW4 1164   1.639   0.956   3.683  0.1028  0.5187  0.0415
    1SOL     OW 1165   1.795   1.771   3.210 -0.2947  0.0183  0.2276
    1SOL    HW2 1166   1.739   1.702   3.174 -0.7495  0.7999 -0.5816
    1SOL    HW3 1167   1.884   1.736   3.201 -0.5195 -0.4528 -0.2180
    1SOL    MW4 1168   1.799   1.757   3.204 -0.3843  0.0592  0.0620
    1SOL     OW 1169   0.486   2.032   3.853 -0.1972 -0.2357  0.1661
    1SOL    HW2 1170   0.521   1.989   3.931 -1.4578  0.1430  0.9470
    1SOL    HW3 1171   0.398   2.060   3.878 -0.3628  0.4849 -1.1796
    1SOL    MW4 1172   0.479   2.030   3.866 -0.3853 -0.0906  0.0916
    1SOL     OW 1173   2.405   2.581   3.031 -0.0477 -0.2085  0.0469
    1SOL    HW2 1174   2.317   2.610   3.055 -0.3197 -0.5936 -0.4696
    1SOL    HW3 1175   2.451   2.573   3.115 -0.9867 -1.5211  0.4554
    1SOL    MW4 1176   2.400   2.584   3.045 -0.2072 -0.4325  0.0324
    1SOL     OW 1177   2.486   2.908   4.720  0.6609  0.0902  0.2911
    1SOL    HW2 1178   2.417   2.842   4.715 -0.8043  1.6116 -0.2879
    1SOL    HW3 1179   2.568   2.859   4.712 -0.4092 -1.5709 -0.7439
    1SOL    MW4 1180   2.488   2.893   4.718  0.3264  0.0718  0.0782
    1SOL     OW 1181   1.926   2.639   2.043  0.0006 -0.2757 -0.1425
    1SOL    HW2 1182   1.957   2.726   2.069  2.1465 -0.9402 -0.3706
    1SOL    HW3 1183   1.977   2.618   1.964 -2.4758 -0.5956 -1.6987
    1SOL    MW4 1184   1.937   2.648   2.036 -0.0430 -0.4058 -0.3781
    1SOL     OW 1185   3.579   0.576   1.497  0.6205  0.1072  0.0448
    1SOL    HW2 1186   3.667   0.607   1.515  0.7674  0.2010 -0.8300
    1SOL    HW3 1187   3.522   0.649   1.520  0.7505 -0.0150  0.7744
    1SOL    MW4 1188   3.583   0.589   1.502  0.6571  0.1035  0.0257
    1SOL     OW 1189   1.696   2.024   3.126 -0.1065  0.2173  0.2635
    1SOL    HW2 1190   1.752   1.947   3.114 -1.1956 -0.5360 -0.0291
    1SOL    HW3 1191   1.736   2.071   3.199 -0.6620 -1.7438  1.8709
    1SOL    MW4 1192   1.709   2.020   3.134 -0.3234 -0.1409  0.4368
    1SOL     OW 1193   4.365   4.230   4.392 -0.8045 -0.3633  0.2392
    1SOL    HW2 1194   4.415   4.309   4.414 -1.0938  0.0603 -0.6155
    1SOL    HW3 1195   4.387   4.168   4.462 -0.1246  0.2744  0.6020
    1SOL    MW4 1196   4.375   4.232   4.404 -0.7529 -0.2232  0.1740
    1SOL     OW 1197   0.920   1.120   4.375 -0.8084  0.1935 -0.2608
    1SOL    HW2 1198   0.855   1.140   4.308 -0.9034 -1.4785 -0.7042
    1SOL    HW3 1199   0.978   1.056   4.333  0.1506  0.4432  0.6709
    1SOL    MW4 1200   0.919   1.114   4.361 -0.6945  0.0058 -0.1965
    1SOL     OW 1201   2.908   3.758   3.672  0.4233  0.5404 -0.0018
    1SOL    HW2 1202   2.978   3.807   3.716  0.3178  1.9760 -1.3549
    1SOL    HW3 1203   2.954   3.690   3.623  0.6860  0.1293  0.8062
    1SOL    MW4 1204   2.923   3.756   3.671  0.4437  0.6757 -0.0737
    1SOL     OW 1205   4.290   3.743   2.328  0.0214  0.0022  0.1474
    1SOL    HW2 1206   4.216   3.686   2.351 -2.3520  2.5985 -0.8326
    1SOL    HW3 1207   4.322   3.708   2.245 -0.7745 -0.5367  0.0621
    1SOL    MW4 1208   4.285   3.731   2.320 -0.3967  0.2737  0.0069
    1SOL     OW 1209   2.683   4.340   0.946  0.3903 -0.5028  0.0241
    1SOL    HW2 1210   2.591   4.326   0.922  0.5761  0.7157 -1.5074
    1SOL    HW3 1211   2.725   4.257   0.927 -0.0122 -0.4253 -1.2976
    1SOL    MW4 1212   2.676   4.327   0.940  0.3619 -0.3314 -0.3523
    1SOL     OW 1213   2.767   3.969   3.517 -0.0827 -0.8114 -0.6599
    1SOL    HW2 1214   2.675   3.944   3.519 -0.7853  1.7982  1.0689
    1SOL    HW3 1215   2.809   3.912   3.581 -0.6170 -1.4224 -0.8464
    1SOL    MW4 1216   2.760   3.958   3.526 -0.2460 -0.5476 -0.4566
    1SOL     OW 1217   2.257   3.292   0.569 -0.0855 -0.5392  0.7967
    1SOL    HW2 1218   2.283   3.204   0.596  0.3234 -0.5426  0.3898
    1SOL    HW3 1219   2.188   3.317   0.631 -1.2633 -1.7534 -0.0100
    1SOL    MW4 1220   2.251   3.284   0.581 -0.1872 -0.7000  0.6366
    1SOL     OW 1221   0.152   3.162   1.550 -0.6838  0.2845  0.0361
    1SOL    HW2 1222   0.118   3.174   1.639 -0.9746  1.8159 -0.2727
    1SOL    HW3 1223   0.077   3.179   1.493 -0.4942 -0.6759 -0.5151
    1SOL    MW4 1224   0.138   3.166   1.554 -0.6972  0.3598 -0.0775
    1SOL     OW 1225   0.682   2.908   3.709  0.1623 -0.1004 -0.2235
    1SOL    HW2 1226   0.698   2.989   3.759 -0.7057 -0.9684  1.5156
    1SOL    HW3 1227   0.768   2.885   3.673  0.4343  1.5600 -0.7050
    1SOL    MW4 1228   0.696   2.916   3.711  0.0836  0.0041 -0.0579
    1SOL     OW 1229   3.788   3.488   1.190  0.8290  0.1617 -0.5397
    1SOL    HW2 1230   3.714   3.548   1.193  0.0677 -0.8109  0.4250
    1SOL    HW3 1231   3.844   3.522   1.120 -1.1658  0.1389 -2.1809
    1SOL    MW4 1232   3.786   3.500   1.181  0.4654  0.0303 -0.6289
    1SOL     OW 1233   3.068   1.382   4.285 -0.0490  0.8622 -0.3593
    1SOL    HW2 1234   2.991   1.358   4.233  0.8825  0.6351 -1.6575
    1SOL    HW3 1235   3.141   1.375   4.224  1.0115  1.0549  0.8717
    1SOL    MW4 1236   3.068   1.378   4.270  0.2141  0.8577 -0.3676
    1SOL     OW 1237   0.555   1.515   2.913 -0.2814 -0.3114 -0.2990
    1SOL    HW2 1238   0.647   1.534   2.892 -0.2964 -1.1576 -1.1180
    1SOL    HW3 1239   0.556   1.496   3.007  0.5388 -1.2627 -0.4857
    1SOL    MW4 1240   0.567   1.515   2.923 -0.1751 -0.5487 -0.4315
    1SOL     OW 1241   1.127   1.895   1.470 -0.4440  0.1510  0.2569
    1SOL    HW2 1242   1.042   1.897   1.427 -0.8787 -0.4283  1.0854
    1SOL    HW3 1243   1.139   1.804   1.498  0.4725  0.2111  0.0905
    1SOL    MW4 1244   1.117   1.883   1.468 -0.3805  0.0825  0.3443
    1SOL     OW 1245   3.978   0.032   1.309 -0.1669 -0.3108  0.3650
    1SOL    HW2 1246   4.040  -0.005   1.372 -2.1168 -2.8596  0.8197
    1SOL    HW3 1247   4.028   0.040   1.228  0.7415 -2.4631  0.6912
    1SOL    MW4 1248   3.993   0.028   1.307 -0.3045 -0.9311  0.4681
    1SOL     OW 1249   4.295   0.427   3.350  0.3750 -0.2225 -0.5776
    1SOL    HW2 1250   4.297   0.352   3.290  1.1325  0.3384 -1.2740
    1SOL    HW3 1251   4.387   0.441   3.372  0.2583  0.6518 -0.6517
    1SOL    MW4 1252   4.308   0.419   3.345  0.4601 -0.0331 -0.6793
    1SOL     OW 1253   0.551   4.344   4.287 -0.1811 -0.2310  0.6288
    1SOL    HW2 1254   0.599   4.338   4.369 -1.4261  0.3863  1.4090
    1SOL    HW3 1255   0.498   4.264   4.284  1.9936 -1.6791 -0.9658
    1SOL    MW4 1256   0.550   4.332   4.297 -0.0584 -0.3405  0.5217
    1SOL     OW 1257   4.417   1.469   3.792  0.1531 -0.0664 -0.0012
    1SOL    HW2 1258   4.380   1.495   3.877  1.0096  0.1145  0.3229
    1SOL    HW3 1259   4.454   1.550   3.756 -1.1969  0.0909 -1.0680
    1SOL    MW4 1260   4.417   1.483   3.799  0.0882 -0.0218 -0.0992
    1SOL     OW 1261   1.624   2.471   2.597  0.0985 -0.2088  0.6329
    1SOL    HW2 1262   1.706   2.451   2.641  1.0319  1.5647 -0.2276
    1SOL    HW3 1263   1.558   2.467   2.666  0.9663 -1.2124  1.4242
    1SOL    MW4 1264   1.626   2.468   2.612  0.3362 -0.1070  0.6237
    1SOL     OW 1265   3.122   2.777   4.014 -0.0444  0.0477  0.4390
    1SOL    HW2 1266   3.131   2.848   4.077 -0.7261  1.4172 -0.9658
    1SOL    HW3 1267   3.033   2.787   3.979 -0.4399 -2.0123  0.8291
    1SOL    MW4 1268   3.112   2.788   4.018 -0.1864 -0.0434  0.3052
    1SOL     OW 1269   4.072   4.321   4.459  0.4978  0.0149 -0.3911
    1SOL    HW2 1270   4.154   4.286   4.422 -0.0830 -3.0414  1.0231
    1SOL    HW3 1271   4.024   4.355   4.384  1.7951 -0.8842 -1.6520
    1SOL    MW4 1272   4.077   4.320   4.444  0.5927 -0.5074 -0.3710
    1SOL     OW 1273   3.994   2.635   3.824  0.2659  0.7588 -0.2301
    1SOL    HW2 1274   3.917   2.601   3.778  2.0718 -0.7092 -2.2133
    1SOL    HW3 1275   3.970   2.725   3.846 -2.3625  0.0510  0.0048
    1SOL    MW4 1276   3.980   2.642   3.821  0.1574  0.4718 -0.4611
    1SOL     OW 1277   1.602   4.060   2.242 -0.2647 -0.6586  0.9280
    1SOL    HW2 1278   1.611   4.118   2.166  1.2955  0.3329  1.8520
    1SOL    HW3 1279   1.643   3.978   2.215  2.0984  0.3376  1.3546
    1SOL    MW4 1280   1.609   4.057   2.228  0.2530 -0.3963  1.1063
    1SOL     OW 1281   3.118   3.650   0.901 -0.4361  0.1080  0.3309
    1SOL    HW2 1282   3.159   3.700   0.831 -2.1700 -1.0862 -1.6244
    1SOL    HW3 1283   3.180   3.580   0.921 -0.8126 -0.8051 -1.5504
    1SOL    MW4 1284   3.131   3.647   0.894 -0.7145 -0.1700 -0.1753
    1SOL     OW 1285   0.721   3.052   2.467  0.0253 -0.0132  0.0781
    1SOL    HW2 1286   0.629   3.046   2.493 -0.2081 -1.1312 -0.9541
    1SOL    HW3 1287   0.719   3.086   2.377  0.5964 -0.3039 -0.0507
    1SOL    MW4 1288   0.709   3.056   2.458  0.0698 -0.1991 -0.0749
    1SOL     OW 1289   0.089   4.294   2.675 -0.3434  0.0673 -0.1879
    1SOL    HW2 1290   0.165   4.299   2.733  0.3094  1.0665 -1.1091
    1SOL    HW3 1291   0.113   4.229   2.609 -1.1546 -1.1971  0.7370
    1SOL    MW4 1292   0.102   4.286   2.674 -0.3643  0.0324 -0.1874
    1SOL     OW 1293   2.326   1.607   1.445 -0.3129 -0.0973 -0.0638
    1SOL    HW2 1294   2.298   1.690   1.407 -1.0576  0.0632  0.8436
    1SOL    HW3 1295   2.255   1.546   1.426 -0.5082 -0.1157  0.7380
    1SOL    MW4 1296   2.313   1.609   1.437 -0.4370 -0.0784  0.1616
    1SOL     OW 1297   2.350   1.893   2.641 -0.2530 -0.3112  0.4508
    1SOL    HW2 1298   2.413   1.823   2.621 -1.6648 -1.2955 -0.7358
    1SOL    HW3 1299   2.345   1.943   2.560  1.4390  1.7567  1.5909
    1SOL    MW4 1300   2.357   1.890   2.627 -0.2160 -0.1682  0.4447
    1SOL     OW 1301   1.826   2.945   2.555  0.0246  0.6169  0.3030
    1SOL    HW2 1302   1.733   2.925   2.551  0.0371  0.6934 -0.3888
    1SOL    HW3 1303   1.869   2.864   2.529  0.1336  0.7882 -0.0551
    1SOL    MW4 1304   1.819   2.932   2.551  0.0405  0.6495  0.1643
    1SOL     OW 1305   1.856   3.849   3.853 -0.1840 -0.2988  0.6960
    1SOL    HW2 1306   1.806   3.926   3.826  0.5353  0.1512  0.6256
    1SOL    HW3 1307   1.892   3.814   3.771 -0.2929 -0.5592  0.7588
    1SOL    MW4 1308   1.854   3.855   3.838 -0.1034 -0.2739  0.6952
    1SOL     OW 1309   2.220   0.294   3.842  0.3247  0.0946  0.2391
    1SOL    HW2 1310   2.200   0.283   3.934 -1.0566 -1.7298 -0.2459
    1SOL    HW3 1311   2.280   0.370   3.839  0.3300  0.2208  2.5802
    1SOL    MW4 1312   2.226   0.303   3.853  0.1433 -0.1294  0.4840
    1SOL     OW 1313   3.808   2.833   3.646 -0.0402 -0.2422 -0.0909
    1SOL    HW2 1314   3.755   2.898   3.693 -1.8572 -1.6836 -0.1019
    1SOL    HW3 1315   3.891   2.831   3.693 -2.2008 -2.5169  3.8783
    1SOL    MW4 1316   3.812   2.841   3.658 -0.5651 -0.7324  0.4311
    1SOL     OW 1317   0.645   2.026   1.095 -0.8854  0.1021  0.3388
    1SOL    HW2 1318   0.553   2.022   1.118 -0.8251  0.1420  0.5890
    1SOL    HW3 1319   0.671   2.116   1.113 -0.5758 -0.1393  1.1343
    1SOL    MW4 1320   0.637   2.037   1.101 -0.8367  0.0753  0.4767
    1SOL     OW 1321   0.242   1.910   4.224 -0.0720  0.0447  0.1359
    1SOL    HW2 1322   0.250   1.865   4.308  1.2029  1.2595  0.6862
    1SOL    HW3 1323   0.171   1.864   4.179  0.7783 -2.1065  0.9149
    1SOL    MW4 1324   0.234   1.898   4.229  0.2083 -0.0788  0.3114
    1SOL     OW 1325   0.938   3.778   3.169  0.3060 -0.5793  0.4505
    1SOL    HW2 1326   0.859   3.816   3.130  0.1559 -1.2869  0.0572
    1SOL    HW3 1327   0.928   3.792   3.263  0.5539  0.9271  0.2685
    1SOL    MW4 1328   0.927   3.785   3.176  0.3189 -0.4740  0.3746
    1SOL     OW 1329   2.025   4.289   3.951 -0.0690  0.4478  0.6353
    1SOL    HW2 1330   2.003   4.253   4.037  1.3835  0.6500  1.1148
    1SOL    HW3 1331   2.089   4.358   3.969 -1.0800  1.7115 -0.4702
    1SOL    MW4 1332   2.031   4.293   3.965 -0.0107  0.6413  0.5529
    1SOL     OW 1333   0.109   0.991   0.745  0.7230 -0.3800  0.2771
    1SOL    HW2 1334   0.081   1.074   0.784 -0.2888  0.3172 -1.8475
    1SOL    HW3 1335   0.197   1.008   0.713  0.9711 -0.4972  0.8851
    1SOL    MW4 1336   0.117   1.004   0.746  0.6222 -0.3034  0.0771
    1SOL     OW 1337   1.894   2.639   3.255 -0.1639 -0.2060  0.2522
    1SOL    HW2 1338   1.860   2.563   3.303  0.6911 -1.1090 -0.5474
    1SOL    HW3 1339   1.921   2.700   3.324 -1.9770 -0.1062  0.8986
    1SOL    MW4 1340   1.893   2.637   3.270 -0.2904 -0.3119  0.2322
    1SOL     OW 1341   2.539   2.425   1.108 -0.7351  0.1610  0.0471
    1SOL    HW2 1342   2.627   2.464   1.106 -1.7622  2.6185  0.7849
    1SOL    HW3 1343   2.518   2.408   1.016  1.0125 -1.6761 -0.0402
    1SOL    MW4 1344   2.548   2.428   1.096 -0.6399  0.2427  0.1329
    1SOL     OW 1345   1.235   2.312   2.359 -0.0510 -0.1443 -0.4906
    1SOL    HW2 1346   1.235   2.242   2.293  0.9016 -1.3305  0.7379
    1SOL    HW3 1347   1.326   2.314   2.390 -0.4925  0.4294  0.7579
    1SOL    MW4 1348   1.247   2.303   2.354  0.0165 -0.2253 -0.1638
    1SOL     OW 1349   4.476   1.289   1.657  0.3851  0.2040 -0.3047
    1SOL    HW2 1350   4.543   1.229   1.625 -0.0102  0.6026 -1.9546
    1SOL    HW3 1351   4.518   1.375   1.653 -0.3245  0.4988 -1.6932
    1SOL    MW4 1352   4.490   1.293   1.652  0.2394  0.2954 -0.7056
    1SOL     OW 1353   3.190   1.121   3.620 -0.4159 -0.0783 -0.0489
    1SOL    HW2 1354   3.129   1.095   3.551  1.1383 -2.3693 -0.6183
    1SOL    HW3 1355   3.137   1.123   3.699 -1.4289 -1.2359 -0.6778
    1SOL    MW4 1356   3.175   1.118   3.621 -0.3443 -0.5333 -0.2072
    1SOL     OW 1357   0.795   3.368   3.394  0.0337 -0.0986 -0.5745
    1SOL    HW2 1358   0.847   3.435   3.350  1.2572 -0.7776 -0.1633
    1SOL    HW3 1359   0.742   3.330   3.324  0.1243  0.5396 -1.0038
    1SOL    MW4 1360   0.795   3.372   3.379  0.2071 -0.1042 -0.5772
    1SOL     OW 1361   0.082   3.780   3.718 -0.0680 -0.7996  0.2771
    1SOL    HW2 1362   0.162   3.729   3.707  0.4753 -0.2068  1.3718
    1SOL    HW3 1363   0.097   3.861   3.669 -0.0344 -0.7359  0.3916
    1SOL    MW4 1364   0.095   3.784   3.710  0.0081 -0.7131  0.4368
    1SOL     OW 1365   2.459   0.339   2.782  0.2769 -0.3208 -0.2194
    1SOL    HW2 1366   2.508   0.272   2.734 -1.3279 -1.6248 -0.0998
    1SOL    HW3 1367   2.517   0.365   2.853  0.9430 -1.5766 -0.2859
    1SOL    MW4 1368   2.473   0.334   2.785  0.1533 -0.6586 -0.2127
    1SOL     OW 1369   0.758   0.191   1.422 -0.0638 -0.2904 -0.1550
    1SOL    HW2 1370   0.782   0.191   1.514  0.4887  0.3127 -0.2967
    1SOL    HW3 1371   0.731   0.101   1.404 -0.2560 -0.3881  0.6137
    1SOL    MW4 1372   0.758   0.179   1.432 -0.0162 -0.2237 -0.0724
    1SOL     OW 1373   1.011   4.551   0.851 -0.3466 -0.8059  0.0940
    1SOL    HW2 1374   1.003   4.592   0.937  0.6961 -0.4329  0.0203
    1SOL    HW3 1375   0.973   4.615   0.790 -1.0619 -1.0595  0.2659
    1SOL    MW4 1376   1.005   4.565   0.854 -0.3034 -0.7901  0.1070
    1SOL     OW 1377   0.966   1.321   2.046  0.3198 -0.1785 -0.0796
    1SOL    HW2 1378   0.923   1.263   1.982  0.0899 -1.0053  0.8104
    1SOL    HW3 1379   1.016   1.382   1.993 -0.1611 -0.6330 -1.0690
    1SOL    MW4 1380   0.967   1.321   2.031  0.2260 -0.3475 -0.0927
    1SOL     OW 1381   3.582   2.352   2.621 -0.0266  0.0986  0.5537
    1SOL    HW2 1382   3.504   2.396   2.588 -0.4521 -1.2285 -0.2513
    1SOL    HW3 1383   3.586   2.375   2.714 -0.5044  1.4278  0.2436
    1SOL    MW4 1384   3.572   2.361   2.629 -0.1457  0.0989  0.4067
    1SOL     OW 1385   2.890   2.964   2.469  0.1904 -0.1500  0.2081
    1SOL    HW2 1386   2.906   2.914   2.549 -0.8119  0.4256  0.7732
    1SOL    HW3 1387   2.899   3.055   2.496  0.2002  0.0318 -0.4158
    1SOL    MW4 1388   2.893   2.969   2.483  0.0596 -0.0501  0.2000
    1SOL     OW 1389   3.748   1.987   1.591  0.3712  0.2167  0.1155
    1SOL    HW2 1390   3.695   2.065   1.575 -1.0211 -0.7443  0.0470
    1SOL    HW3 1391   3.795   2.007   1.673  0.0069  1.1143  0.1088
    1SOL    MW4 1392   3.748   2.000   1.600  0.1395  0.2084  0.1056
    1SOL     OW 1393   2.270   2.865   3.679  0.0495  0.4335  0.0365
    1SOL    HW2 1394   2.291   2.773   3.698 -0.7002  0.3048  0.2580
    1SOL    HW3 1395   2.174   2.868   3.678  0.0674  1.3175  0.4971
    1SOL    MW4 1396   2.260   2.853   3.681 -0.0470  0.5333  0.1266
    1SOL     OW 1397   1.474   4.502   2.395 -0.0488 -0.2828 -0.0148
    1SOL    HW2 1398   1.455   4.571   2.332 -0.6184 -1.3652 -1.0534
    1SOL    HW3 1399   1.536   4.541   2.456 -0.2300  1.0817 -0.6944
    1SOL    MW4 1400   1.480   4.516   2.394 -0.1478 -0.2451 -0.2418
    1SOL     OW 1401   1.192   0.611   1.192 -0.1619 -0.2286  0.1003
    1SOL    HW2 1402   1.238   0.614   1.107 -1.0137 -1.8537 -0.4451
    1SOL    HW3 1403   1.099   0.618   1.169 -0.3006  1.2161  1.0650
    1SOL    MW4 1404   1.186   0.612   1.178 -0.2927 -0.2524  0.1557
    1SOL     OW 1405   3.961   1.821   2.983 -0.1035  0.0551 -0.0382
    1SOL    HW2 1406   3.884   1.765   2.985  0.0492 -0.2031 -1.1461
    1SOL    HW3 1407   3.957   1.870   3.066 -0.8544 -0.7422  0.4069
    1SOL    MW4 1408   3.950   1.820   2.994 -0.1824 -0.0842 -0.1256
    1SOL     OW 1409   3.127   0.632   0.743  0.1115 -0.1845  0.1360
    1SOL    HW2 1410   3.156   0.693   0.676  1.0012  0.7492  1.3340
    1SOL    HW3 1411   3.205   0.620   0.798 -0.4352 -1.3851  0.6536
    1SOL    MW4 1412   3.141   0.638   0.742  0.1569 -0.2198  0.3623
    1SOL     OW 1413   3.988   2.144   2.343 -0.1573 -0.0036 -0.0269
    1SOL    HW2 1414   3.926   2.140   2.415 -0.5165  0.9151 -0.2728
    1SOL    HW3 1415   4.006   2.053   2.321 -0.3906 -0.2834  0.9252
    1SOL    MW4 1416   3.982   2.131   2.349 -0.2356  0.0808  0.0663
    1SOL     OW 1417   1.517   0.846   1.525 -0.6906 -0.1061 -0.4390
    1SOL    HW2 1418   1.539   0.905   1.597 -0.1553 -0.6751 -0.1347
    1SOL    HW3 1419   1.443   0.795   1.557 -0.6028 -0.1956 -0.3779
    1SOL    MW4 1420   1.510   0.847   1.539 -0.6083 -0.1930 -0.3908
    1SOL     OW 1421   4.382   2.512   1.399  0.0523  0.1126 -0.1325
    1SOL    HW2 1422   4.425   2.554   1.324  0.3056  0.9736  0.4867
    1SOL    HW3 1423   4.413   2.422   1.397  2.4051  0.8701  0.6730
    1SOL    MW4 1424   4.391   2.506   1.388  0.3958  0.3262  0.0556
    1SOL     OW 1425   4.394   0.114   3.459  0.1093  0.0188  0.5848
    1SOL    HW2 1426   4.381   0.129   3.365  0.0770 -0.0057  0.5853
    1SOL    HW3 1427   4.449   0.036   3.464  0.4589  0.2624  0.5763
    1SOL    MW4 1428   4.400   0.106   3.447  0.1507  0.0477  0.5841
    1SOL     OW 1429   0.568   0.582   3.883 -0.0462  0.1595 -0.1844
    1SOL    HW2 1430   0.503   0.639   3.842 -0.4608 -0.2359 -0.0798
    1SOL    HW3 1431   0.526   0.553   3.964  1.2145  1.8618  1.1193
    1SOL    MW4 1432   0.554   0.586   3.888  0.0654  0.3319  0.0014
    1SOL     OW 1433   3.217   2.423   4.248 -0.2844  0.0210  0.5215
    1SOL    HW2 1434   3.231   2.431   4.153  2.0154  0.9952  0.9139
    1SOL    HW3 1435   3.262   2.342   4.271  0.9460  0.8550  1.0939
    1SOL    MW4 1436   3.225   2.413   4.238  0.1814  0.2594  0.6490
    1SOL     OW 1437   1.610   4.230   2.025  0.0273  0.1147  0.0527
    1SOL    HW2 1438   1.516   4.219   2.017  0.0735  0.0083 -0.3384
    1SOL    HW3 1439   1.645   4.202   1.940  0.4228 -0.0133  0.2592
    1SOL    MW4 1440   1.602   4.225   2.013  0.0855  0.0839  0.0284
    1SOL     OW 1441   1.134   1.353   3.322  0.1585 -0.4002 -0.6380
    1SOL    HW2 1442   1.191   1.311   3.387  1.5135  1.2265 -0.7274
    1SOL    HW3 1443   1.176   1.334   3.238  0.3575  0.4751 -0.7395
    1SOL    MW4 1444   1.147   1.345   3.320  0.3635 -0.0701 -0.6633
    1SOL     OW 1445   2.945   1.849   3.019  0.4123  0.0741  0.2835
    1SOL    HW2 1446   2.943   1.776   3.081 -0.3423  0.8076  1.1453
    1SOL    HW3 1447   2.878   1.909   3.051  1.2657  1.3127 -0.2071
    1SOL    MW4 1448   2.936   1.847   3.032  0.4251  0.3343  0.3326
    1SOL     OW 1449   3.256   0.082   1.711  0.1530  0.2784 -0.1246
    1SOL    HW2 1450   3.220   0.170   1.705 -1.2041 -0.1155  1.7621
    1SOL    HW3 1451   3.329   0.081   1.649 -0.3603  2.4436 -0.7913
    1SOL    MW4 1452   3.261   0.093   1.702 -0.0939  0.5121  0.0364
    1SOL     OW 1453   0.863   3.706   1.189 -0.3321 -0.1941  0.1791
    1SOL    HW2 1454   0.816   3.771   1.241  3.1936  1.0652  1.8739
    1SOL    HW3 1455   0.876   3.749   1.104 -1.0710 -0.0622  0.1246
    1SOL    MW4 1456   0.858   3.720   1.184  0.0356 -0.0105  0.3955
    1SOL     OW 1457   2.993   2.845   4.646  0.0844 -0.4667  0.0440
    1SOL    HW2 1458   3.037   2.760   4.639 -0.8200 -1.0714  1.5066
    1SOL    HW3 1459   2.955   2.859   4.559 -0.3553 -1.8891 -0.0160
    1SOL    MW4 1460   2.994   2.835   4.633 -0.0925 -0.7341  0.2289
    1SOL     OW 1461   2.459   1.907   0.872  0.1627 -0.2864 -0.6140
    1SOL    HW2 1462   2.394   1.839   0.854  0.3624 -0.6737  0.0884
    1SOL    HW3 1463   2.408   1.986   0.888 -0.1965 -0.7714  0.7564
    1SOL    MW4 1464   2.444   1.908   0.872  0.1419 -0.4015 -0.3405
    1SOL     OW 1465   3.672   4.431   0.850 -0.1019  0.1731  0.0287
    1SOL    HW2 1466   3.681   4.521   0.881 -1.7722  0.1538  0.6226
    1SOL    HW3 1467   3.739   4.422   0.782 -1.5736  2.6608 -1.8124
    1SOL    MW4 1468   3.682   4.441   0.845 -0.5167  0.4988 -0.1358
    1SOL     OW 1469   3.669   0.419   2.491  0.0889  0.1340  0.3659
    1SOL    HW2 1470   3.613   0.430   2.567 -1.9299 -0.8756 -0.9407
    1SOL    HW3 1471   3.661   0.326   2.468  2.0412  0.0361 -0.0529
    1SOL    MW4 1472   3.661   0.408   2.498  0.0803 -0.0121  0.1385
    1SOL     OW 1473   3.664   3.759   2.669 -0.0074  0.2427  0.3035
    1SOL    HW2 1474   3.678   3.844   2.627 -1.5790 -0.0181 -0.8048
    1SOL    HW3 1475   3.654   3.780   2.762  1.4263  1.0635  0.2738
    1SOL    MW4 1476   3.664   3.773   2.676 -0.0257  0.3169  0.1531
    1SOL     OW 1477   0.820   1.548   4.044  0.1401  0.2392  0.3054
    1SOL    HW2 1478   0.842   1.641   4.047 -2.5055  0.9315 -0.3669
    1SOL    HW3 1479   0.849   1.519   3.958 -0.0284  0.7141  0.0886
    1SOL    MW4 1480   0.826   1.556   4.033 -0.2312  0.3932  0.1884
    1SOL     OW 1481   3.565   1.238   3.322  0.0040 -0.3346 -0.2516
    1SOL    HW2 1482   3.623   1.165   3.344  0.7895  0.2036 -0.4952
    1SOL    HW3 1483   3.504   1.244   3.395 -0.2037 -1.3751 -0.3363
    1SOL    MW4 1484   3.565   1.229   3.335  0.0801 -0.4007 -0.2952
    1SOL     OW 1485   1.958   2.373   1.129 -0.3310  0.3117 -0.1580
    1SOL    HW2 1486   1.897   2.398   1.059  0.2711  3.5562  0.3941
    1SOL    HW3 1487   2.026   2.441   1.127  2.3506 -2.2216  0.4210
    1SOL    MW4 1488   1.959   2.385   1.120  0.1023  0.4058 -0.0088
    1SOL     OW 1489   1.701   4.591   1.273 -0.0913 -0.5046  0.2296
    1SOL    HW2 1490   1.649   4.644   1.333 -0.4836 -1.2983  0.6013
    1SOL    HW3 1491   1.750   4.531   1.330 -0.7398 -1.5051 -0.2502
    1SOL    MW4 1492   1.701   4.590   1.289 -0.2286 -0.7415  0.2153
    1SOL     OW 1493   2.975   3.442   1.845 -0.2907 -0.3318 -0.0610
    1SOL    HW2 1494   2.959   3.370   1.784 -1.0281 -1.4832  1.4443
    1SOL    HW3 1495   2.922   3.514   1.813  0.7163 -0.3166 -1.7890
    1SOL    MW4 1496   2.966   3.442   1.833 -0.2551 -0.4816 -0.0904
    1SOL     OW 1497   2.638   3.434   1.417 -0.0177 -0.6436  0.2770
    1SOL    HW2 1498   2.571   3.419   1.483 -0.9630  2.1125 -0.0102
    1SOL    HW3 1499   2.640   3.353   1.365  0.1359 -2.5122  3.0798
    1SOL    MW4 1500   2.630   3.421   1.419 -0.1221 -0.5262  0.6088
    1SOL     OW 1501   1.344   2.046   1.789 -0.2486 -0.2455 -0.1180
    1SOL    HW2 1502   1.300   1.964   1.812  0.1130 -0.3198  0.3243
    1SOL    HW3 1503   1.428   2.018   1.752 -0.3342 -0.0890 -0.4287
    1SOL    MW4 1504   1.349   2.032   1.787 -0.2122 -0.2351 -0.1007
    1SOL     OW 1505   3.508   0.514   3.917 -0.7546  0.6399  0.1586
    1SOL    HW2 1506   3.564   0.437   3.914 -0.6983  0.6222  1.3533
    1SOL    HW3 1507   3.567   0.587   3.931 -0.7874  0.9381 -1.1906
    1SOL    MW4 1508   3.523   0.514   3.918 -0.7517  0.6768  0.1380
    1SOL     OW 1509   1.487   3.143   3.329 -1.0654 -0.4491  0.1237
    1SOL    HW2 1510   1.425   3.092   3.380 -1.4987 -0.6118 -0.5621
    1SOL    HW3 1511   1.571   3.098   3.341 -0.8025  0.5760  2.1760
    1SOL    MW4 1512   1.490   3.130   3.337 -1.0878 -0.3355  0.3037
    1SOL     OW 1513   0.838   1.504   1.471  0.8602  0.0899 -0.4910
    1SOL    HW2 1514   0.766   1.567   1.482  0.7035 -0.1787  0.0835
    1SOL    HW3 1515   0.914   1.549   1.508  0.8920  0.2012 -0.6915
    1SOL    MW4 1516   0.839   1.519   1.478  0.8438  0.0691 -0.4416
    1SOL     OW 1517   1.131   1.901   3.797  0.0958 -0.0658 -0.4020
    1SOL    HW2 1518   1.040   1.901   3.828 -0.1343  0.0355 -1.0689
    1SOL    HW3 1519   1.131   1.841   3.722  0.7491 -0.6649  0.0706
    1SOL    MW4 1520   1.119   1.893   3.791  0.1516 -0.1315 -0.4275
    1SOL     OW 1521   2.652   2.166   4.446  0.8739  0.0670 -0.2946
    1SOL    HW2 1522   2.685   2.247   4.407  0.8420  0.0547 -0.3474
    1SOL    HW3 1523   2.705   2.154   4.525  1.0214  0.0254 -0.4014
    1SOL    MW4 1524   2.663   2.175   4.451  0.8893  0.0598 -0.3157
    1SOL     OW 1525   4.304   3.414   0.425 -0.2961 -0.0546  0.0186
    1SOL    HW2 1526   4.395   3.428   0.453 -0.1999 -1.3346  0.3705
    1SOL    HW3 1527   4.310   3.384   0.334 -0.3796  0.1191 -0.0443
    1SOL    MW4 1528   4.317   3.412   0.417 -0.2947 -0.2005  0.0567
    1SOL     OW 1529   2.964   1.272   0.994 -0.4010  0.3859 -0.0542
    1SOL    HW2 1530   2.946   1.365   0.984 -1.9133 -0.0514 -1.7417
    1SOL    HW3 1531   2.973   1.240   0.904 -0.4186 -1.1860  0.4886
    1SOL    MW4 1532   2.963   1.280   0.981 -0.6027  0.1209 -0.2052
    1SOL     OW 1533   0.310   4.199   3.531  0.3805 -0.1374 -0.3136
    1SOL    HW2 1534   0.291   4.276   3.584  0.7180  0.1046 -0.5456
    1SOL    HW3 1535   0.346   4.136   3.593  0.9035  0.1958 -0.2796
    1SOL    MW4 1536   0.312   4.200   3.546  0.4940 -0.0610 -0.3400
    1SOL     OW 1537   2.715   1.141   1.055  0.2699  0.5796 -0.1219
    1SOL    HW2 1538   2.789   1.193   1.024 -0.9481  1.4658 -1.6141
    1SOL    HW3 1539   2.745   1.050   1.051  1.8990  1.0400  1.0747
    1SOL    MW4 1540   2.729   1.136   1.051  0.3245  0.7573 -0.1609
    1SOL     OW 1541   3.687   3.886   1.165 -0.6833  0.2676  0.0728
    1SOL    HW2 1542   3.631   3.963   1.177  0.4721  1.5378 -2.3783
    1SOL    HW3 1543   3.776   3.920   1.172 -0.1702 -1.2909  1.3491
    1SOL    MW4 1544   3.691   3.901   1.167 -0.4632  0.2296 -0.0823
    1SOL     OW 1545   0.434   1.511   2.253 -0.2769 -0.2208  0.1510
    1SOL    HW2 1546   0.494   1.445   2.287  0.8036  1.1125  0.8677
    1SOL    HW3 1547   0.387   1.542   2.331 -1.2316 -0.5752 -0.2718
    1SOL    MW4 1548   0.435   1.506   2.268 -0.2603 -0.0917  0.1898
    1SOL     OW 1549   3.936   0.550   1.935 -0.1485 -0.1982 -0.6031
    1SOL    HW2 1550   3.942   0.514   2.024 -1.7218  1.5141  0.2474
    1SOL    HW3 1551   4.024   0.542   1.900  0.3564 -1.4729  0.9002
    1SOL    MW4 1552   3.948   0.544   1.942 -0.2894 -0.1404 -0.2925
    1SOL     OW 1553   1.924   4.485   2.584 -0.3533 -0.0837  0.0484
    1SOL    HW2 1554   1.855   4.546   2.557  1.3216  1.1692 -1.4804
    1SOL    HW3 1555   1.938   4.505   2.677  0.6056  2.3254 -0.5806
    1SOL    MW4 1556   1.917   4.496   2.593 -0.0057  0.3991 -0.2363
    1SOL     OW 1557   2.546   4.652   3.279  0.2912  0.5749 -0.1973
    1SOL    HW2 1558   2.501   4.719   3.330  0.9439  0.4761  0.5182
    1SOL    HW3 1559   2.637   4.656   3.308  0.0242 -1.7838  1.1696
    1SOL    MW4 1560   2.552   4.661   3.290  0.3421  0.2513  0.0772
    1SOL     OW 1561   0.408   4.269   0.822  0.7000  0.0259  0.2994
    1SOL    HW2 1562   0.435   4.345   0.874  1.5732 -0.1608  0.1380
    1SOL    HW3 1563   0.327   4.296   0.780 -0.0780  0.1358  1.8471
    1SOL    MW4 1564   0.401   4.282   0.823  0.7125  0.0153  0.4823
    1SOL     OW 1565   0.432   4.120   1.503  0.5727  0.3527 -0.1157
    1SOL    HW2 1566   0.444   4.176   1.580  0.1322  0.1581  0.0960
    1SOL    HW3 1567   0.466   4.035   1.530 -1.9956 -0.4307  0.7751
    1SOL    MW4 1568   0.438   4.116   1.517  0.1757  0.2236  0.0298
    1SOL     OW 1569   1.149   1.833   3.023 -0.2307  0.3174 -0.9371
    1SOL    HW2 1570   1.087   1.802   3.088  1.4113 -3.1586 -0.9450
    1SOL    HW3 1571   1.100   1.898   2.973 -3.1509 -0.7360  0.4392
    1SOL    MW4 1572   1.134   1.838   3.025 -0.3994 -0.2801 -0.7565
    1SOL     OW 1573   1.472   3.927   4.336  0.0718  0.5347  0.2203
    1SOL    HW2 1574   1.432   3.859   4.281  0.9325 -0.4844  0.8454
    1SOL    HW3 1575   1.416   4.004   4.322 -0.9597 -0.3075 -0.4412
    1SOL    MW4 1576   1.459   3.928   4.327  0.0494  0.2892  0.2155
    1SOL     OW 1577   0.373   0.687   1.193 -0.3323  0.3859  0.2532
    1SOL    HW2 1578   0.393   0.752   1.125 -1.9986  1.6971  0.9575
    1SOL    HW3 1579   0.316   0.623   1.150 -0.9168  0.9044  0.2402
    1SOL    MW4 1580   0.368   0.687   1.178 -0.6293  0.6273  0.3443
    1SOL     OW 1581   2.544   4.212   2.881  0.2801 -0.4690  0.1120
    1SOL    HW2 1582   2.550   4.210   2.976 -0.6323 -2.1075  0.1542
    1SOL    HW3 1583   2.485   4.284   2.862  0.7541  0.0939  0.7687
    1SOL    MW4 1584   2.537   4.221   2.891  0.2222 -0.6108  0.2046
    1SOL     OW 1585   1.570   1.808   2.759 -0.2070  0.0979  0.2988
    1SOL    HW2 1586   1.544   1.797   2.851  0.7475  0.1182  0.5761
    1SOL    HW3 1587   1.543   1.897   2.737 -2.9744 -0.8597 -0.2879
    1SOL    MW4 1588   1.563   1.818   2.769 -0.4461 -0.0257  0.2582
    1SOL     OW 1589   2.492   3.359   1.658  0.0825  0.0094 -0.0938
    1SOL    HW2 1590   2.407   3.317   1.647 -0.3204  1.0040 -0.9235
    1SOL    HW3 1591   2.510   3.354   1.752 -1.1169  0.2181  0.1571
    1SOL    MW4 1592   2.483   3.353   1.669 -0.1290  0.1681 -0.1702
    1SOL     OW 1593   2.853   1.161   2.076  0.1816  0.0556 -0.4356
    1SOL    HW2 1594   2.817   1.243   2.042  1.3455  0.1979 -1.3388
    1SOL    HW3 1595   2.777   1.113   2.110 -0.7317  0.7220 -1.5432
    1SOL    MW4 1596   2.838   1.165   2.076  0.2146  0.1624 -0.7007
    1SOL     OW 1597   1.547   0.148   3.074 -0.7172  0.2036  0.3068
    1SOL    HW2 1598   1.606   0.221   3.093 -0.0465 -0.2109 -0.1872
    1SOL    HW3 1599   1.576   0.116   2.989 -0.9229 -0.7428  0.5943
    1SOL    MW4 1600   1.558   0.154   3.065 -0.6559  0.0240  0.2794
    1SOL     OW 1601   2.134   1.152   2.486  0.2065 -0.2646  0.3555
    1SOL    HW2 1602   2.124   1.067   2.529  0.3933 -0.4711 -0.0168
    1SOL    HW3 1603   2.106   1.215   2.553 -1.7352 -0.7144  0.0027
    1SOL    MW4 1604   2.129   1.149   2.501 -0.0248 -0.3512  0.2599
    1SOL     OW 1605   2.019   0.594   0.669 -0.3370 -0.0107 -0.1663
    1SOL    HW2 1606   1.954   0.616   0.735 -0.4379 -0.5615 -0.0823
    1SOL    HW3 1607   1.971   0.544   0.604 -0.5873  1.8347 -1.4474
    1SOL    MW4 1608   2.004   0.590   0.669 -0.3834  0.1600 -0.3242
    1SOL     OW 1609   3.936   3.738   0.695  0.1642  0.5853  0.1072
    1SOL    HW2 1610   3.859   3.752   0.751 -0.5893  1.0505 -1.0187
    1SOL    HW3 1611   4.008   3.726   0.757 -0.6621  0.9905  1.1835
    1SOL    MW4 1612   3.935   3.738   0.711 -0.0441  0.7002  0.1007
    1SOL     OW 1613   2.365   2.266   4.428  0.6049  1.0195 -0.3559
    1SOL    HW2 1614   2.436   2.213   4.464  2.2544  1.7911 -2.4125
    1SOL    HW3 1615   2.385   2.355   4.455  0.0639  1.1632 -0.4165
    1SOL    MW4 1616   2.377   2.271   4.436  0.7513  1.1404 -0.6356
    1SOL     OW 1617   2.859   0.688   2.109 -0.3745  0.1817  0.1612
    1SOL    HW2 1618   2.862   0.622   2.179  0.4102 -0.7627 -0.7517
    1SOL    HW3 1619   2.883   0.640   2.030 -0.1195  1.4993 -0.5716
    1SOL    MW4 1620   2.863   0.673   2.108 -0.2372  0.2310 -0.0560
    1SOL     OW 1621   1.950   3.714   3.628  0.3188  0.5998 -0.0278
    1SOL    HW2 1622   1.945   3.619   3.620  0.2317  0.5168  0.9889
    1SOL    HW3 1623   1.983   3.744   3.543 -1.8267 -0.1625 -1.1802
    1SOL    MW4 1624   1.953   3.705   3.616  0.0243  0.4880 -0.0458
    1SOL     OW 1625   2.640   2.840   1.413  0.2108  0.5108 -0.2531
    1SOL    HW2 1626   2.733   2.821   1.402 -0.1558 -0.1158 -2.5132
    1SOL    HW3 1627   2.621   2.905   1.345 -0.9926  0.6415  0.2018
    1SOL    MW4 1628   2.650   2.846   1.402  0.0036  0.4454 -0.4913
    1SOL     OW 1629   0.222   3.589   1.973 -0.0706 -0.2198 -0.5792
    1SOL    HW2 1630   0.219   3.525   1.902 -1.0076  1.3998 -2.0539
    1SOL    HW3 1631   0.229   3.674   1.929  0.6181  0.7509  1.3072
    1SOL    MW4 1632   0.223   3.592   1.958 -0.1034  0.1218 -0.5249
    1SOL     OW 1633   1.932   3.097   2.319  0.5731 -0.7646  0.3396
    1SOL    HW2 1634   1.859   3.123   2.262  0.4301  0.4397  1.0442
    1SOL    HW3 1635   1.892   3.043   2.387  0.3579 -0.2523  0.6248
    1SOL    MW4 1636   1.917   3.093   2.320  0.5260 -0.5381  0.4702
    1SOL     OW 1637   0.733   1.818   1.597 -0.2668  0.0903 -0.2140
    1SOL    HW2 1638   0.800   1.865   1.647  1.2012 -0.0064 -2.0034
    1SOL    HW3 1639   0.700   1.752   1.657  0.6047  0.7326  1.0002
    1SOL    MW4 1640   0.738   1.816   1.611  0.0419  0.1622 -0.2898
    1SOL     OW 1641   1.967   3.344   1.132  0.3891 -0.1146  0.1599
    1SOL    HW2 1642   1.957   3.276   1.065  0.2387  0.4083 -0.3575
    1SOL    HW3 1643   2.025   3.409   1.091  0.1682  0.2850  0.4716
    1SOL    MW4 1644   1.973   3.344   1.118  0.3400  0.0072  0.1327
    1SOL     OW 1645   1.775   3.383   1.487  0.3344  0.0340  0.1243
    1SOL    HW2 1646   1.753   3.426   1.405  0.8672  0.1476  0.0367
    1SOL    HW3 1647   1.855   3.334   1.467  0.2442 -0.2538  0.4690
    1SOL    MW4 1648   1.783   3.382   1.474  0.3928  0.0110  0.1583
    1SOL     OW 1649   0.048   4.363   3.295 -0.2864  0.2400 -0.1289
    1SOL    HW2 1650   0.127   4.313   3.279  0.7877  1.5680  0.9240
    1SOL    HW3 1651   0.016   4.388   3.208  1.1739  0.8121 -0.5056
    1SOL    MW4 1652   0.054   4.360   3.282  0.0480  0.4907 -0.0396
    1SOL     OW 1653   3.346   1.066   4.078  0.0001 -0.2113 -0.6331
    1SOL    HW2 1654   3.406   1.074   4.004  0.7780 -0.9426 -0.0871
    1SOL    HW3 1655   3.400   1.032   4.149 -0.4974  1.4978  0.5958
    1SOL    MW4 1656   3.361   1.063   4.078  0.0372 -0.0823 -0.3991
    1SOL     OW 1657   0.030   4.534   3.496 -0.1572 -0.1727  0.7127
    1SOL    HW2 1658   0.114   4.509   3.534 -0.9183 -1.0547  1.8491
    1SOL    HW3 1659   0.008   4.463   3.435  0.6256  0.7925 -0.7218
    1SOL    MW4 1660   0.038   4.521   3.493 -0.1543 -0.1616  0.6733
    1SOL     OW 1661   2.545   3.025   3.099  0.1108 -0.5001 -0.2364
    1SOL    HW2 1662   2.480   3.084   3.135  0.9392 -0.5626  1.4319
    1SOL    HW3 1663   2.529   3.025   3.004 -1.5264  0.3850  0.0325
    1SOL    MW4 1664   2.535   3.033   3.091  0.0038 -0.3915  0.0193
    1SOL     OW 1665   0.444   1.781   2.876  0.1743  0.1704 -0.7418
    1SOL    HW2 1666   0.458   1.687   2.870 -0.0894  0.1604 -1.2441
    1SOL    HW3 1667   0.403   1.805   2.793 -1.9946  0.3364  0.3453
    1SOL    MW4 1668   0.441   1.772   2.864 -0.1466  0.1911 -0.6647
    1SOL     OW 1669   2.578   2.642   2.559  0.2610  0.4112 -0.3239
    1SOL    HW2 1670   2.565   2.650   2.654 -0.7390  0.3215 -0.4474
    1SOL    HW3 1671   2.665   2.604   2.550 -0.3419 -1.2554  0.6102
    1SOL    MW4 1672   2.587   2.638   2.570  0.0494  0.1793 -0.2170
    1SOL     OW 1673   4.331   3.376   3.869  0.1117 -0.8910 -0.4323
    1SOL    HW2 1674   4.422   3.394   3.895  0.5631 -1.7671 -1.3835
    1SOL    HW3 1675   4.294   3.462   3.852  0.0609 -0.3333  2.2167
    1SOL    MW4 1676   4.338   3.390   3.870  0.1645 -0.9329 -0.2084
    1SOL     OW 1677   2.298   3.869   3.723  0.0837 -0.1439  0.4171
    1SOL    HW2 1678   2.228   3.932   3.703  0.3266 -0.2625 -0.8477
    1SOL    HW3 1679   2.272   3.789   3.678  1.0559 -0.1776 -0.0937
    1SOL    MW4 1680   2.285   3.867   3.714  0.2439 -0.1638  0.1829
    1SOL     OW 1681   2.275   2.175   4.198 -0.0233 -0.1344 -0.0893
    1SOL    HW2 1682   2.273   2.079   4.203 -0.1876 -0.0591  1.6981
    1SOL    HW3 1683   2.319   2.202   4.278  0.9967  1.2635 -1.1043
    1SOL    MW4 1684   2.281   2.166   4.209  0.0894  0.0601  0.0124
    1SOL     OW 1685   0.392   1.140   2.509  0.0397 -0.3876 -0.4539
    1SOL    HW2 1686   0.344   1.200   2.566  0.9979  1.0358 -1.1331
    1SOL    HW3 1687   0.333   1.126   2.435 -0.3195 -0.5593 -0.1403
    1SOL    MW4 1688   0.378   1.146   2.507  0.1188 -0.2226 -0.5021
    1SOL     OW 1689   0.620   2.252   0.629 -0.3407  0.6676 -0.2096
    1SOL    HW2 1690   0.599   2.191   0.700  0.5571  0.5902  0.0065
    1SOL    HW3 1691   0.716   2.250   0.624 -0.4313 -0.0276 -2.0383
    1SOL    MW4 1692   0.630   2.244   0.638 -0.2342  0.5655 -0.4224
    1SOL     OW 1693   0.058   2.806   2.668 -0.1522 -0.6054 -0.3526
    1SOL    HW2 1694  -0.024   2.855   2.658 -1.4207 -2.4011  1.0126
    1SOL    HW3 1695   0.073   2.767   2.582 -0.8767 -0.5147 -0.5271
    1SOL    MW4 1696   0.049   2.807   2.655 -0.4152 -0.8304 -0.1957
    1SOL     OW 1697   0.056   1.908   1.336  0.7578 -0.4946  0.2973
    1SOL    HW2 1698   0.058   1.902   1.241  0.0096 -2.0857  0.3802
    1SOL    HW3 1699   0.149   1.915   1.361  1.0418 -1.3694 -0.4636
    1SOL    MW4 1700   0.069   1.908   1.327  0.6966 -0.8200  0.2079
    1SOL     OW 1701   1.648   0.383   1.537  0.3275  0.1000 -0.1578
    1SOL    HW2 1702   1.626   0.443   1.608 -1.2966 -0.1134 -0.4736
    1SOL    HW3 1703   1.567   0.335   1.519  1.1597 -0.9994 -1.0456
    1SOL    MW4 1704   1.635   0.385   1.544  0.2230 -0.0732 -0.3166
    1SOL     OW 1705   0.648   3.588   2.024  0.3869 -0.2701  0.0567
    1SOL    HW2 1706   0.659   3.637   2.106  1.1708 -0.7622  0.2514
    1SOL    HW3 1707   0.590   3.515   2.047 -1.9686  1.3248 -0.5597
    1SOL    MW4 1708   0.642   3.585   2.038  0.1795 -0.1247  0.0012
    1SOL     OW 1709   3.722   4.558   3.454 -0.0851  0.1115  0.2344
    1SOL    HW2 1710   3.722   4.541   3.548 -1.1051 -1.3984 -0.0209
    1SOL    HW3 1711   3.809   4.592   3.436  0.8584 -1.6201  1.3816
    1SOL    MW4 1712   3.733   4.560   3.464 -0.0951 -0.3161  0.3521
    1SOL     OW 1713   3.844   2.333   2.884 -0.3103 -0.4080 -0.2057
    1SOL    HW2 1714   3.881   2.371   2.805  0.2493  0.9714  0.6897
    1SOL    HW3 1715   3.868   2.240   2.881  0.0764 -0.2664 -1.4265
    1SOL    MW4 1716   3.852   2.326   2.873 -0.1853 -0.2072 -0.2487
    1SOL     OW 1717   2.721   0.564   0.842  0.2414  0.2436 -0.5494
    1SOL    HW2 1718   2.697   0.656   0.844 -2.5692 -0.4479 -0.0046
    1SOL    HW3 1719   2.678   0.526   0.919  0.7401 -1.6459 -1.1663
    1SOL    MW4 1720   2.712   0.571   0.853 -0.0639 -0.0969 -0.5590
    1SOL     OW 1721   2.474   3.772   1.636  0.7029  0.7215  0.5990
    1SOL    HW2 1722   2.417   3.725   1.575  0.4983  3.1641 -1.1546
    1SOL    HW3 1723   2.470   3.720   1.716 -1.8433 -0.6349 -0.3261
    1SOL    MW4 1724   2.466   3.759   1.638  0.3400  0.8647  0.2456
    1SOL     OW 1725   0.754   2.621   1.478  0.4261 -0.5006 -0.4375
    1SOL    HW2 1726   0.684   2.670   1.436 -0.5803 -0.9755  0.6613
    1SOL    HW3 1727   0.733   2.623   1.571  2.6378  0.5752  0.0838
    1SOL    MW4 1728   0.742   2.627   1.485  0.5851 -0.4215 -0.2238
    1SOL     OW 1729   0.229   3.066   0.890  0.0384  0.0551 -0.6273
    1SOL    HW2 1730   0.184   3.044   0.972 -0.9083 -1.0757 -1.4512
    1SOL    HW3 1731   0.309   3.014   0.892 -0.3934 -0.6244 -0.8108
    1SOL    MW4 1732   0.234   3.057   0.901 -0.1434 -0.1838 -0.7603
    1SOL     OW 1733   3.284   1.044   2.903 -0.0608 -0.2943  0.5056
    1SOL    HW2 1734   3.213   1.096   2.869  0.4979  0.9026  1.1353
    1SOL    HW3 1735   3.250   1.008   2.986 -1.0124 -2.2728 -0.7102
    1SOL    MW4 1736   3.270   1.046   2.910 -0.1123 -0.3973  0.4284
    1SOL     OW 1737   3.494   3.055   2.491  0.4699  0.3222  0.1585
    1SOL    HW2 1738   3.534   3.082   2.574 -0.1932 -1.1728  0.9833
    1SOL    HW3 1739   3.404   3.089   2.496  0.6331  0.8221 -0.2541
    1SOL    MW4 1740   3.487   3.063   2.503  0.4036  0.1912  0.2131
    1SOL     OW 1741   2.318   0.014   2.914  0.0301  0.7565  0.2643
    1SOL    HW2 1742   2.321   0.083   2.981  0.3868  0.4556  0.5609
    1SOL    HW3 1743   2.291   0.059   2.834 -0.7775  1.0499  0.6992
    1SOL    MW4 1744   2.315   0.029   2.912 -0.0293  0.7555  0.3610
    1SOL     OW 1745   1.198   3.819   0.787  0.6903  0.1025  0.0755
    1SOL    HW2 1746   1.181   3.731   0.821 -3.1205 -0.2021 -2.3022
    1SOL    HW3 1747   1.208   3.874   0.864  0.3981 -1.9538  1.6154
    1SOL    MW4 1748   1.197   3.814   0.801  0.1490 -0.2089 -0.0350
    1SOL     OW 1749   0.322   2.094   2.483 -0.0513 -0.1040 -0.6023
    1SOL    HW2 1750   0.243   2.143   2.459 -0.4476 -0.6851 -0.5117
    1SOL    HW3 1751   0.394   2.153   2.465 -0.6523  1.4957  1.9452
    1SOL    MW4 1752   0.321   2.108   2.477 -0.1829  0.0300 -0.2542
    1SOL     OW 1753   2.667   3.301   4.465 -0.7755 -0.2370  0.3534
    1SOL    HW2 1754   2.631   3.389   4.450 -0.8096 -0.4240 -0.7258
    1SOL    HW3 1755   2.624   3.271   4.545  0.0542  1.1608  1.3394
    1SOL    MW4 1756   2.657   3.309   4.473 -0.6704 -0.0770  0.3409
    1SOL     OW 1757   4.100   1.224   3.538  0.4758  0.1153 -0.4068
    1SOL    HW2 1758   4.055   1.224   3.454 -0.7025 -0.7514  0.2089
    1SOL    HW3 1759   4.087   1.313   3.572  1.0930  0.5177 -1.1930
    1SOL    MW4 1760   4.092   1.236   3.532  0.4020  0.0540 -0.4292
    1SOL     OW 1761   2.541   1.704   2.522  0.0997 -0.0891 -0.6382
    1SOL    HW2 1762   2.618   1.648   2.523 -0.2167 -0.5286 -1.0062
    1SOL    HW3 1763   2.519   1.713   2.429  0.3312  0.8942 -0.6087
    1SOL    MW4 1764   2.548   1.698   2.510  0.0887 -0.0174 -0.6828
    1SOL     OW 1765   3.706   0.876   0.451  0.6904 -0.4081 -0.1233
    1SOL    HW2 1766   3.721   0.887   0.545  1.5017 -0.6574 -0.2262
    1SOL    HW3 1767   3.791   0.852   0.416  0.3293 -0.5575 -0.8903
    1SOL    MW4 1768   3.719   0.875   0.459  0.7498 -0.4607 -0.2380
    1SOL     OW 1769   3.394   3.902   4.529  0.0306  0.2436 -0.0521
    1SOL    HW2 1770   3.342   3.924   4.452  0.4250  0.9814 -0.1104
    1SOL    HW3 1771   3.402   3.984   4.577  2.6322  0.5468 -0.9440
    1SOL    MW4 1772   3.388   3.915   4.525  0.4256  0.3810 -0.1779
    1SOL     OW 1773   4.448   3.322   3.606 -0.0769 -0.4464  0.7499
    1SOL    HW2 1774   4.520   3.260   3.615 -1.1495 -1.5421  2.0054
    1SOL    HW3 1775   4.441   3.364   3.691  1.2959  2.1820 -0.3871
    1SOL    MW4 1776   4.457   3.319   3.618 -0.0377 -0.2444  0.7656
    1SOL     OW 1777   2.208   3.870   0.708  0.4819 -0.2342  0.5374
    1SOL    HW2 1778   2.274   3.813   0.669 -0.0247 -0.2730 -0.2665
    1SOL    HW3 1779   2.184   3.931   0.639 -0.1101 -0.0323  0.9142
    1SOL    MW4 1780   2.214   3.871   0.694  0.3369 -0.2127  0.4810
    1SOL     OW 1781   1.311   1.503   2.958  0.0185  0.2011  0.2467
    1SOL    HW2 1782   1.368   1.479   2.884  0.4508 -2.6180  1.4012
    1SOL    HW3 1783   1.230   1.533   2.918  0.0721 -1.7492 -1.4162
    1SOL    MW4 1784   1.308   1.504   2.943  0.0826 -0.4282  0.1798
    1SOL     OW 1785   3.003   2.734   3.074 -0.3415 -0.8799  0.0465
    1SOL    HW2 1786   2.961   2.699   3.152  1.3705 -0.5902  1.1084
    1SOL    HW3 1787   3.001   2.829   3.086  1.1903 -0.8909  0.4080
    1SOL    MW4 1788   2.997   2.742   3.086  0.0865 -0.8428  0.2344
    1SOL     OW 1789   1.017   3.964   1.408  0.5188 -0.0442  0.0220
    1SOL    HW2 1790   1.008   3.958   1.503 -0.6962 -1.3531 -0.1494
    1SOL    HW3 1791   1.098   3.917   1.388 -0.1677 -1.3469  0.2579
    1SOL    MW4 1792   1.026   3.957   1.418  0.2680 -0.3889  0.0306
    1SOL     OW 1793   0.872   4.015   4.482  0.0318  0.2420 -0.5699
    1SOL    HW2 1794   0.957   4.045   4.513  0.0946  0.9155 -1.3783
    1SOL    HW3 1795   0.893   3.952   4.413 -0.1256  0.3349 -0.7034
    1SOL    MW4 1796   0.886   4.010   4.477  0.0194  0.3433 -0.6938
    1SOL     OW 1797   0.394   3.158   2.879 -0.1936  0.2811  0.6639
    1SOL    HW2 1798   0.482   3.147   2.844 -1.0726  2.9847 -2.7330
    1SOL    HW3 1799   0.401   3.231   2.940 -0.1723  1.1227 -0.3129
    1SOL    MW4 1800   0.406   3.166   2.882 -0.3068  0.7486  0.0870
    1SOL     OW 1801   0.496   1.214   3.299  0.0262  0.5366 -0.3654
    1SOL    HW2 1802   0.503   1.299   3.254 -2.1026  1.0274  0.1792
    1SOL    HW3 1803   0.505   1.235   3.392  1.0116 -0.0315 -0.3328
    1SOL    MW4 1804   0.498   1.228   3.305 -0.1246  0.5265 -0.2892
    1SOL     OW 1805   1.456   0.528   3.744  0.0683 -0.2713  0.0544
    1SOL    HW2 1806   1.450   0.446   3.793  1.1653  0.2286  1.0434
    1SOL    HW3 1807   1.418   0.594   3.802  3.5574  0.7490  1.2898
    1SOL    MW4 1808   1.451   0.526   3.758  0.6735 -0.0707  0.3481
    1SOL     OW 1809   3.168   0.247   1.268  0.2234  0.3277  0.6324
    1SOL    HW2 1810   3.080   0.266   1.237  0.0355 -1.1254  0.2817
    1SOL    HW3 1811   3.155   0.194   1.347  0.7794  0.2996  0.7052
    1SOL    MW4 1812   3.155   0.243   1.275  0.2720  0.1323  0.5957
    1SOL     OW 1813   0.490   4.109   2.145 -0.3260 -0.6875 -0.3898
    1SOL    HW2 1814   0.405   4.080   2.178 -0.3113 -1.5191 -1.0801
    1SOL    HW3 1815   0.470   4.181   2.085 -0.4594 -0.1667  0.2696
    1SOL    MW4 1816   0.476   4.115   2.142 -0.3417 -0.7286 -0.3941
    1SOL     OW 1817   0.946   0.139   0.716  0.1217  0.3257  0.4338
    1SOL    HW2 1818   0.858   0.174   0.722 -0.2185 -0.2238 -1.1930
    1SOL    HW3 1819   1.000   0.200   0.767 -0.6861  2.3956 -1.1251
    1SOL    MW4 1820   0.942   0.152   0.724 -0.0297  0.5263  0.0135
    1SOL     OW 1821   1.830   3.060   1.235 -0.4367  0.2571 -0.6077
    1SOL    HW2 1822   1.867   3.104   1.311 -0.1899  1.3211 -1.3382
    1SOL    HW3 1823   1.735   3.074   1.243 -0.5026 -0.5146  0.0422
    1SOL    MW4 1824   1.822   3.068   1.246 -0.4128  0.2954 -0.6183
    1SOL     OW 1825   0.887   4.412   2.499  1.2045 -0.0718 -0.1821
    1SOL    HW2 1826   0.979   4.384   2.501  1.1516 -0.2280  0.0686
    1SOL    HW3 1827   0.890   4.507   2.508  1.3543 -0.0505 -0.4348
    1SOL    MW4 1828   0.900   4.421   2.500  1.2174 -0.0901 -0.1824
    1SOL     OW 1829   1.548   3.139   4.387  0.1052  0.0888 -0.5420
    1SOL    HW2 1830   1.589   3.220   4.419 -1.4954  0.3973  0.7934
    1SOL    HW3 1831   1.575   3.134   4.295 -0.6411  2.7277 -0.9531
    1SOL    MW4 1832   1.557   3.149   4.379 -0.2044  0.4776 -0.4201
    1SOL     OW 1833   1.184   2.358   1.403  0.4825 -0.2697 -0.1408
    1SOL    HW2 1834   1.200   2.273   1.444 -0.4211 -0.2696  0.2344
    1SOL    HW3 1835   1.101   2.387   1.441  0.2018  0.2459 -1.1349
    1SOL    MW4 1836   1.175   2.350   1.414  0.3262 -0.2015 -0.2223
    1SOL     OW 1837   1.396   1.823   3.441 -0.4020  0.1099  0.1603
    1SOL    HW2 1838   1.322   1.849   3.497 -0.4265  1.9979 -0.7049
    1SOL    HW3 1839   1.365   1.744   3.397 -0.9669 -0.5127  1.6241
    1SOL    MW4 1840   1.382   1.816   3.443 -0.4798  0.2769  0.2394
    1SOL     OW 1841   1.085   4.394   3.065  0.3080  0.0490 -0.1629
    1SOL    HW2 1842   1.015   4.434   3.014  1.1872  1.7120 -0.1326
    1SOL    HW3 1843   1.042   4.327   3.118 -0.8487 -0.6762 -1.9714
    1SOL    MW4 1844   1.070   4.391   3.066  0.2713  0.1731 -0.3974
    1SOL     OW 1845   1.266   2.874   4.526  0.2106 -0.2914 -0.0021
    1SOL    HW2 1846   1.272   2.813   4.599 -0.9798  1.8051  1.9023
    1SOL    HW3 1847   1.178   2.859   4.490 -0.5304  1.0141  1.1836
    1SOL    MW4 1848   1.255   2.864   4.531 -0.0442  0.1574  0.4058
    1SOL     OW 1849   2.017   0.628   1.905  0.0370  0.0012  0.6950
    1SOL    HW2 1850   2.107   0.609   1.879 -0.6124 -0.8630 -0.9785
    1SOL    HW3 1851   1.985   0.547   1.942 -0.9859 -0.6019 -1.4408
    1SOL    MW4 1852   2.025   0.615   1.907 -0.1836 -0.1924  0.1924
    1SOL     OW 1853   1.118   3.633   1.302  0.1712  0.1541  0.1766
    1SOL    HW2 1854   1.130   3.567   1.233 -0.6006  0.4900 -0.2783
    1SOL    HW3 1855   1.033   3.673   1.283 -0.1480  0.0975  1.4547
    1SOL    MW4 1856   1.109   3.629   1.290  0.0272  0.1910  0.2853
    1SOL     OW 1857   1.323   0.586   2.636 -0.0590 -0.0409  0.2217
    1SOL    HW2 1858   1.415   0.589   2.610 -0.0333  2.9572  0.4463
    1SOL    HW3 1859   1.281   0.653   2.581 -1.9842 -0.9388  0.5643
    1SOL    MW4 1860   1.329   0.596   2.625 -0.3097  0.2362  0.2966
    1SOL     OW 1861   2.255   2.178   0.949 -0.0509  0.2823 -0.1643
    1SOL    HW2 1862   2.171   2.148   0.914  0.8226 -0.4080 -1.7319
    1SOL    HW3 1863   2.266   2.129   1.031 -0.1824 -1.2431 -1.0333
    1SOL    MW4 1864   2.245   2.167   0.955  0.0474 -0.0100 -0.4858
    1SOL     OW 1865   0.370   2.670   3.359  0.2890  0.2896  0.2608
    1SOL    HW2 1866   0.413   2.594   3.318  0.0417 -0.3531  1.1755
    1SOL    HW3 1867   0.341   2.638   3.444 -0.3179  1.2627  0.4286
    1SOL    MW4 1868   0.372   2.656   3.365  0.1763  0.3335  0.4034
    1SOL     OW 1869   2.950   2.153   2.355  0.0800 -0.1567 -0.3930
    1SOL    HW2 1870   2.949   2.061   2.329 -0.2295 -0.9459  2.2257
    1SOL    HW3 1871   2.889   2.196   2.295 -1.1629 -1.9869 -0.4807
    1SOL    MW4 1872   2.942   2.147   2.344 -0.1247 -0.5026 -0.0591
    1SOL     OW 1873   0.180   1.976   2.022 -0.2424 -0.1587 -0.0927
    1SOL    HW2 1874   0.178   1.964   1.927  0.1652  2.1597 -0.4210
    1SOL    HW3 1875   0.094   2.010   2.044  0.3012  1.1603  0.0711
    1SOL    MW4 1876   0.169   1.979   2.012 -0.1169  0.3211 -0.1147
    1SOL     OW 1877   2.345   0.519   3.783  0.4912  0.0175 -0.2318
    1SOL    HW2 1878   2.416   0.541   3.843  0.2133  0.0480  0.0820
    1SOL    HW3 1879   2.390   0.485   3.705  0.8665  0.4275 -0.1975
    1SOL    MW4 1880   2.360   0.517   3.781  0.5043  0.0756 -0.1860
    1SOL     OW 1881   4.119   2.754   2.386  0.3025 -0.1131 -0.6029
    1SOL    HW2 1882   4.204   2.744   2.343  1.1372  0.5171  0.8475
    1SOL    HW3 1883   4.140   2.749   2.480 -1.1567  0.8430 -0.2222
    1SOL    MW4 1884   4.133   2.752   2.393  0.2203  0.0961 -0.3614
    1SOL     OW 1885   3.700   0.955   0.727  0.4078  0.2752  0.1429
    1SOL    HW2 1886   3.749   0.943   0.808  0.4261 -4.5365 -0.3852
    1SOL    HW3 1887   3.609   0.937   0.752  0.2056  0.2894 -0.5794
    1SOL    MW4 1888   3.694   0.951   0.741  0.3836 -0.3578 -0.0221
    1SOL     OW 1889   2.170   4.133   0.588 -0.2160  0.3481 -0.0248
    1SOL    HW2 1890   2.108   4.149   0.659  0.9895  1.0468  0.8745
    1SOL    HW3 1891   2.236   4.201   0.597  0.9971 -0.7260 -0.6470
    1SOL    MW4 1892   2.171   4.144   0.598  0.1032  0.2985  0.0118
    1SOL     OW 1893   2.571   1.024   1.756  0.0976 -0.0475  0.0760
    1SOL    HW2 1894   2.515   1.099   1.778 -0.1844  0.2934 -1.7518
    1SOL    HW3 1895   2.518   0.948   1.779 -1.0547  0.2770 -1.4432
    1SOL    MW4 1896   2.556   1.024   1.762 -0.0918  0.0402 -0.3655
    1SOL     OW 1897   4.271   0.814   0.814  0.3734  0.2451  0.1363
    1SOL    HW2 1898   4.296   0.842   0.902 -1.4367  2.4920 -0.0111
    1SOL    HW3 1899   4.327   0.865   0.756 -0.4434  0.9350 -0.0589
    1SOL    MW4 1900   4.282   0.824   0.818  0.0267  0.6326  0.0912
    1SOL     OW 1901   4.072   1.246   0.727 -0.1193 -0.1724  0.0322
    1SOL    HW2 1902   4.117   1.231   0.810  0.8650  1.8359 -0.1061
    1SOL    HW3 1903   4.138   1.290   0.672 -1.3708  0.2777 -1.1221
    1SOL    MW4 1904   4.087   1.250   0.730 -0.1540  0.1519 -0.1383
    1SOL     OW 1905   3.724   3.254   3.769 -0.4229  0.3470  0.0873
    1SOL    HW2 1906   3.747   3.264   3.677 -0.2113 -0.0005  0.1038
    1SOL    HW3 1907   3.794   3.298   3.817 -0.5257  0.5155  0.0846
    1SOL    MW4 1908   3.736   3.261   3.763 -0.4086  0.3233  0.0892
    1SOL     OW 1909   3.657   2.242   3.423 -0.1331 -0.1269 -0.5714
    1SOL    HW2 1910   3.672   2.290   3.341  1.2412 -1.5085 -1.1648
    1SOL    HW3 1911   3.567   2.210   3.416  0.1851 -0.7726 -1.8382
    1SOL    MW4 1912   3.647   2.244   3.411  0.0901 -0.3946 -0.8166
    1SOL     OW 1913   2.009   0.179   2.925  0.0446  0.4607  0.1795
    1SOL    HW2 1914   1.995   0.271   2.902 -1.3514  0.8047  2.2642
    1SOL    HW3 1915   2.036   0.181   3.017  1.4825 -1.1171 -0.1845
    1SOL    MW4 1916   2.011   0.191   2.935  0.0501  0.2979  0.4067
    1SOL     OW 1917   3.769   1.304   4.253  0.4642 -0.1805 -0.4804
    1SOL    HW2 1918   3.827   1.258   4.191  0.6247  0.1349 -0.5675
    1SOL    HW3 1919   3.824   1.319   4.330  0.6121  0.4544 -0.7089
    1SOL    MW4 1920   3.784   1.300   4.255  0.5050 -0.0552 -0.5217
    1SOL     OW 1921   3.493   4.202   1.455  0.4522  0.2796 -0.3502
    1SOL    HW2 1922   3.465   4.212   1.363  0.2110 -0.4605 -0.3602
    1SOL    HW3 1923   3.417   4.162   1.498  0.1555  1.6393  0.4133
    1SOL    MW4 1924   3.479   4.198   1.448  0.3815  0.3614 -0.2508
    1SOL     OW 1925   3.643   3.365   4.045  0.5243  0.4854  0.0932
    1SOL    HW2 1926   3.578   3.331   3.983 -0.0992  0.8984  0.5171
    1SOL    HW3 1927   3.595   3.429   4.098  1.4617  1.3833 -0.1106
    1SOL    MW4 1928   3.628   3.369   4.044  0.5658  0.6585  0.1221
    1SOL     OW 1929   4.478   2.588   1.159  0.4240  0.0649  0.8306
    1SOL    HW2 1930   4.440   2.676   1.152  1.8452  0.7156  1.1923
    1SOL    HW3 1931   4.421   2.533   1.105 -0.8251  1.0938  1.0798
    1SOL    MW4 1932   4.465   2.592   1.151  0.4468  0.2866  0.9111
    1SOL     OW 1933   1.523   1.966   2.481 -0.1202 -0.8466  0.2842
    1SOL    HW2 1934   1.519   2.057   2.450 -0.9200 -0.9294  0.1366
    1SOL    HW3 1935   1.549   1.916   2.404 -0.8884 -0.8951  0.0518
    1SOL    MW4 1936   1.526   1.971   2.467 -0.3271 -0.8640  0.2341
    1SOL     OW 1937   1.175   0.261   0.834 -0.2352 -0.0080  0.1448
    1SOL    HW2 1938   1.162   0.277   0.928 -0.4665  1.4669 -0.1200
    1SOL    HW3 1939   1.234   0.186   0.830 -0.7830 -0.5271  1.4594
    1SOL    MW4 1940   1.181   0.253   0.846 -0.3381  0.1181  0.2832
    1SOL     OW 1941   3.261   4.297   4.077  0.1986 -0.2534 -0.1533
    1SOL    HW2 1942   3.233   4.260   3.993  0.9854  0.2901 -0.6612
    1SOL    HW3 1943   3.284   4.388   4.057 -1.4086  0.4504  1.0209
    1SOL    MW4 1944   3.260   4.304   4.063  0.0904 -0.0896 -0.0653
    1SOL     OW 1945   2.869   0.321   4.451 -0.0341  0.1184 -0.0848
    1SOL    HW2 1946   2.786   0.275   4.445  0.9122 -1.8086  1.0784
    1SOL    HW3 1947   2.916   0.297   4.370  0.5430 -1.1908  0.6176
    1SOL    MW4 1948   2.865   0.312   4.440  0.1671 -0.3086  0.1616
    1SOL     OW 1949   2.443   2.075   3.456 -0.1167 -0.0236  0.5318
    1SOL    HW2 1950   2.403   2.142   3.401 -1.9935 -0.9191  0.7836
    1SOL    HW3 1951   2.487   2.016   3.395  0.9948  1.0772  0.2677
    1SOL    MW4 1952   2.444   2.076   3.441 -0.2177  0.0033  0.5302
    1SOL     OW 1953   0.786   3.422   4.130  0.2887  0.0301 -0.4434
    1SOL    HW2 1954   0.746   3.340   4.160  0.5814 -0.1013 -0.4056
    1SOL    HW3 1955   0.828   3.400   4.047  1.6364 -0.2327  0.2849
    1SOL    MW4 1956   0.786   3.408   4.123  0.5051 -0.0219 -0.3424
    1SOL     OW 1957   2.587   1.097   0.822 -0.0709 -0.3803  0.0885
    1SOL    HW2 1958   2.517   1.158   0.801 -1.3532 -1.5446  0.8864
    1SOL    HW3 1959   2.615   1.122   0.910  1.2421  0.7350 -0.6253
    1SOL    MW4 1960   2.582   1.108   0.831 -0.0668 -0.3867  0.0996
    1SOL     OW 1961   3.121   4.589   2.985  0.1609 -0.2176 -0.1347
    1SOL    HW2 1962   3.046   4.647   2.975 -0.4979 -0.8523  1.0826
    1SOL    HW3 1963   3.186   4.642   3.033 -0.5151 -0.5512  1.1554
    1SOL    MW4 1964   3.120   4.604   2.990 -0.0150 -0.3452  0.1962
    1SOL     OW 1965   0.570   2.529   0.573 -0.5679 -0.4461  0.4272
    1SOL    HW2 1966   0.512   2.552   0.646  0.3671 -0.4605  1.1763
    1SOL    HW3 1967   0.578   2.434   0.578 -0.7285 -0.4747  0.1350
    1SOL    MW4 1968   0.563   2.520   0.583 -0.4658 -0.4518  0.4874
    1SOL     OW 1969   3.140   1.221   2.761 -0.2208  0.2796  0.1364
    1SOL    HW2 1970   3.172   1.311   2.772 -0.7765  0.6273 -0.9261
    1SOL    HW3 1971   3.045   1.231   2.753 -0.1257 -0.2005 -1.8208
    1SOL    MW4 1972   3.131   1.234   2.761 -0.2818  0.2621 -0.2623
    1SOL     OW 1973   4.049   1.482   1.701  0.5204  0.0453 -0.3275
    1SOL    HW2 1974   4.048   1.553   1.766  0.7165 -1.4365  1.3266
    1SOL    HW3 1975   4.137   1.484   1.664  0.4261  0.8598 -0.5291
    1SOL    MW4 1976   4.060   1.492   1.705  0.5341 -0.0427 -0.1358
    1SOL     OW 1977   0.438   0.857   0.686 -0.6574 -0.5114 -0.5446
    1SOL    HW2 1978   0.507   0.813   0.636  1.1950  2.4539 -0.7326
    1SOL    HW3 1979   0.470   0.857   0.776 -1.0217 -0.2545 -0.4166
    1SOL    MW4 1980   0.451   0.851   0.691 -0.4611 -0.0862 -0.5525
    1SOL     OW 1981   0.960   1.135   0.597 -0.2959  0.0342  0.1058
    1SOL    HW2 1982   1.031   1.100   0.651 -0.1345 -1.3731 -0.9654
    1SOL    HW3 1983   0.980   1.228   0.588  1.9399 -0.4974 -0.9052
    1SOL    MW4 1984   0.972   1.143   0.603  0.0203 -0.2217 -0.1689
    1SOL     OW 1985   3.758   0.614   0.694  0.2228  0.1300  0.3478
    1SOL    HW2 1986   3.738   0.601   0.787 -0.2621  1.4498  0.4385
    1SOL    HW3 1987   3.727   0.534   0.652  0.7187 -0.6071  1.3572
    1SOL    MW4 1988   3.751   0.602   0.701  0.2241  0.2069  0.4929
    1SOL     OW 1989   2.337   2.478   1.975  0.7097 -0.3672 -0.0781
    1SOL    HW2 1990   2.329   2.560   2.024 -3.8305  0.1882 -1.5893
    1SOL    HW3 1991   2.330   2.410   2.042 -1.3027  0.4111  0.5307
    1SOL    MW4 1992   2.335   2.480   1.991 -0.1547 -0.1912 -0.1972
    1SOL     OW 1993   0.953   2.739   3.346 -0.2938  0.2705  0.1022
    1SOL    HW2 1994   0.864   2.767   3.326 -0.2824  0.6860  0.6073
    1SOL    HW3 1995   0.949   2.643   3.344 -1.3153  0.2252  2.4130
    1SOL    MW4 1996   0.941   2.730   3.343 -0.4271  0.3192  0.4737
    1SOL     OW 1997   2.663   4.436   3.676 -0.4140 -0.1939  0.3981
    1SOL    HW2 1998   2.705   4.371   3.619 -0.5731 -0.9462  1.1267
    1SOL    HW3 1999   2.647   4.389   3.758 -1.1120  0.5887  0.7147
    1SOL    MW4 2000   2.667   4.421   3.679 -0.5271 -0.1898  0.5362
    1SOL     OW 2001   0.765   1.425   2.629  0.1747  0.0561 -0.0252
    1SOL    HW2 2002   0.714   1.455   2.554 -0.8837 -0.6509  0.3955
    1SOL    HW3 2003   0.731   1.338   2.648  0.6561  0.0951  1.0693
    1SOL    MW4 2004   0.754   1.417   2.622  0.0986 -0.0321  0.1748
    1SOL     OW 2005   4.249   3.960   3.534 -0.2116 -0.4644  0.1508
    1SOL    HW2 2006   4.167   4.008   3.522  0.0434 -0.1304 -0.2727
    1SOL    HW3 2007   4.247   3.892   3.465 -0.1981 -0.5461  0.2311
    1SOL    MW4 2008   4.238   3.957   3.523 -0.1760 -0.4308  0.1059
    1SOL     OW 2009   2.923   0.302   1.159 -0.1642 -0.0220  0.3371
    1SOL    HW2 2010   2.915   0.398   1.157  1.5509  0.1532  0.5908
    1SOL    HW3 2011   2.943   0.278   1.069 -1.1186 -0.2084  0.1682
    1SOL    MW4 2012   2.925   0.312   1.147 -0.0639 -0.0234  0.3483
    1SOL     OW 2013   1.929   4.212   4.207 -0.1040  0.8279 -0.4101
    1SOL    HW2 2014   1.961   4.287   4.257 -0.1964  0.0602  0.8179
    1SOL    HW3 2015   1.837   4.203   4.233 -1.0034  2.1746 -2.8862
    1SOL    MW4 2016   1.921   4.220   4.217 -0.2348  0.9036 -0.5746
    1SOL     OW 2017   4.436   3.540   4.580  0.0731 -0.0730 -0.4933
    1SOL    HW2 2018   4.380   3.590   4.520  1.5918  0.6491 -1.3243
    1SOL    HW3 2019   4.458   3.461   4.531  0.4668  0.0317 -0.4840
    1SOL    MW4 2020   4.431   3.536   4.566  0.3257  0.0362 -0.6013
    1SOL     OW 2021   2.116   3.862   2.179 -0.2068 -0.1887  0.1146
    1SOL    HW2 2022   2.176   3.901   2.243  0.7693 -2.4698  0.6252
    1SOL    HW3 2023   2.163   3.868   2.096 -0.1620 -0.0728  0.1478
    1SOL    MW4 2024   2.130   3.868   2.176 -0.0720 -0.4745  0.1860
    1SOL     OW 2025   1.493   1.387   1.667  0.2034 -0.3601  0.0239
    1SOL    HW2 2026   1.552   1.435   1.608 -0.9514 -0.0270 -0.8787
    1SOL    HW3 2027   1.503   1.431   1.752  2.4721 -1.3419  0.2986
    1SOL    MW4 2028   1.502   1.400   1.671  0.3504 -0.4456 -0.0590
    1SOL     OW 2029   2.908   0.593   1.079  0.3672  0.1532  0.1242
    1SOL    HW2 2030   2.887   0.592   0.986 -1.4057 -0.2193  0.5180
    1SOL    HW3 2031   2.861   0.669   1.113  0.6047 -0.0037  0.8093
    1SOL    MW4 2032   2.899   0.603   1.071  0.1645  0.0833  0.2664
    1SOL     OW 2033   2.718   1.381   1.689  0.5320  0.3139  0.1154
    1SOL    HW2 2034   2.795   1.326   1.674  0.3748 -0.0746  0.7149
    1SOL    HW3 2035   2.682   1.397   1.602  1.4014  0.6632 -0.1900
    1SOL    MW4 2036   2.723   1.376   1.676  0.6258  0.3088  0.1543
    1SOL     OW 2037   2.432   3.083   0.959  0.2957  0.7187  0.3911
    1SOL    HW2 2038   2.466   3.171   0.947 -0.3338  0.8414 -0.6133
    1SOL    HW3 2039   2.419   3.050   0.869 -0.8617  0.1607  0.7517
    1SOL    MW4 2040   2.435   3.090   0.945  0.0598  0.6611  0.3062
    1SOL     OW 2041   1.421   1.568   1.372 -0.1244  0.1820 -0.0163
    1SOL    HW2 2042   1.500   1.618   1.350 -0.4656  1.8327  2.3361
    1SOL    HW3 2043   1.433   1.484   1.327  2.7860  0.5605 -0.0596
    1SOL    MW4 2044   1.433   1.563   1.363  0.2145  0.4498  0.2885
    1SOL     OW 2045   3.212   2.813   2.501 -0.3214 -0.6064 -0.3821
    1SOL    HW2 2046   3.225   2.903   2.472  0.4378 -0.6926 -0.3218
    1SOL    HW3 2047   3.284   2.797   2.562 -0.8333 -1.0394  0.1189
    1SOL    MW4 2048   3.223   2.823   2.505 -0.2887 -0.6747 -0.3083
    1SOL     OW 2049   0.969   2.338   0.648 -0.1146  0.1362  0.0954
    1SOL    HW2 2050   0.976   2.243   0.653 -1.0516  0.0788  0.4480
    1SOL    HW3 2051   1.059   2.368   0.638  0.3434 -0.6989  1.5558
    1SOL    MW4 2052   0.982   2.329   0.647 -0.1778  0.0186  0.3346
    1SOL     OW 2053   0.086   0.369   3.758 -0.3124 -0.0615 -0.2547
    1SOL    HW2 2054   0.020   0.310   3.794 -0.5581  1.1875  1.4012
    1SOL    HW3 2055   0.046   0.456   3.762  1.2377  0.6449  0.2962
    1SOL    MW4 2056   0.072   0.373   3.763 -0.1403  0.1965  0.0367
    1SOL     OW 2057   1.639   3.930   2.607 -0.1009 -0.0293  0.3774
    1SOL    HW2 2058   1.594   4.003   2.565  1.2329  0.8317  0.4009
    1SOL    HW3 2059   1.649   3.958   2.698  1.3351  0.2122  0.1495
    1SOL    MW4 2060   1.634   3.943   2.613  0.2644  0.1161  0.3502
    1SOL     OW 2061   2.319   2.258   3.247 -0.2862  0.1656 -0.0532
    1SOL    HW2 2062   2.317   2.253   3.151 -1.4595  0.1658 -0.0284
    1SOL    HW3 2063   2.235   2.297   3.271 -0.3257 -0.5617  1.0221
    1SOL    MW4 2064   2.308   2.263   3.237 -0.4461  0.0694  0.0920
    1SOL     OW 2065   2.240   2.645   1.323 -0.6400  0.3489  0.1045
    1SOL    HW2 2066   2.282   2.622   1.405 -1.2726 -0.0523  0.3154
    1SOL    HW3 2067   2.311   2.678   1.268  0.1536 -1.4632  0.0260
    1SOL    MW4 2068   2.255   2.647   1.326 -0.6187  0.0567  0.1220
    1SOL     OW 2069   2.448   2.671   4.295 -0.0812 -0.4301  0.6841
    1SOL    HW2 2070   2.526   2.725   4.278 -0.2018 -0.3535  0.3719
    1SOL    HW3 2071   2.379   2.734   4.314 -0.0370 -0.5029  1.0851
    1SOL    MW4 2072   2.449   2.687   4.295 -0.0913 -0.4299  0.6957
    1SOL     OW 2073   0.694   0.115   3.756 -0.1410  0.4956 -0.2351
    1SOL    HW2 2074   0.665   0.205   3.745 -1.4688  0.0581 -0.4004
    1SOL    HW3 2075   0.754   0.100   3.682 -0.8765  0.8486 -0.9045
    1SOL    MW4 2076   0.698   0.125   3.745 -0.4132  0.4845 -0.3455
    1SOL     OW 2077   2.108   2.908   1.302 -0.8471  0.0526 -0.7966
    1SOL    HW2 2078   2.163   2.831   1.313 -1.7183 -0.4253  0.3255
    1SOL    HW3 2079   2.151   2.958   1.233  1.5244  0.1968  0.7337
    1SOL    MW4 2080   2.121   2.904   1.294 -0.6492  0.0088 -0.4467
    1SOL     OW 2081   1.248   0.608   2.914 -0.5229 -0.1585 -0.4367
    1SOL    HW2 2082   1.165   0.577   2.951 -0.8253  1.4785  0.3201
    1SOL    HW3 2083   1.274   0.539   2.853 -1.3199 -1.7256  0.9472
    1SOL    MW4 2084   1.240   0.595   2.911 -0.6679 -0.1493 -0.1540
    1SOL     OW 2085   3.398   2.824   4.264  0.0717 -0.4037  0.0659
    1SOL    HW2 2086   3.422   2.794   4.351 -1.1363  1.2240  0.9939
    1SOL    HW3 2087   3.446   2.767   4.204 -0.2169 -2.4811  1.7763
    1SOL    MW4 2088   3.408   2.813   4.268 -0.1259 -0.4630  0.4144
    1SOL     OW 2089   1.237   0.993   3.028 -0.0811  0.1769 -1.0107
    1SOL    HW2 2090   1.153   0.996   3.075  0.3714  0.5265 -0.2199
    1SOL    HW3 2091   1.215   0.957   2.942 -1.1953  1.1069 -1.1239
    1SOL    MW4 2092   1.223   0.988   3.023 -0.1683  0.3458 -0.9212
    1SOL     OW 2093   3.579   0.580   3.646  0.2513 -0.1831  0.6012
    1SOL    HW2 2094   3.607   0.489   3.638 -1.1382 -0.5434 -0.4947
    1SOL    HW3 2095   3.547   0.587   3.736 -0.5022 -1.0478  0.4102
    1SOL    MW4 2096   3.578   0.569   3.657 -0.0315 -0.3448  0.4313
    1SOL     OW 2097   2.069   0.353   1.362  0.0872  0.0997 -0.1446
    1SOL    HW2 2098   2.078   0.441   1.400 -1.0978 -0.2119  0.8717
    1SOL    HW3 2099   1.994   0.315   1.407  0.2633 -1.2439 -0.9721
    1SOL    MW4 2100   2.061   0.360   1.373 -0.0463 -0.1187 -0.1198
    1SOL     OW 2101   0.493   0.143   4.275  0.1330 -0.3752 -0.4071
    1SOL    HW2 2102   0.441   0.182   4.204  0.4408 -0.5027 -0.7012
    1SOL    HW3 2103   0.449   0.060   4.294 -0.0637 -0.2504 -0.3137
    1SOL    MW4 2104   0.480   0.137   4.268  0.1476 -0.3756 -0.4339
    1SOL     OW 2105   4.126   4.657   4.387 -0.1100  0.5699 -0.2872
    1SOL    HW2 2106   4.175   4.593   4.439 -0.0481  0.5290 -0.3983
    1SOL    HW3 2107   4.068   4.604   4.333 -1.5839  0.6616  1.1492
    1SOL    MW4 2108   4.125   4.642   4.387 -0.2961  0.5765 -0.1121
    1SOL     OW 2109   2.965   3.219   2.567 -0.3315 -0.1186 -0.3014
    1SOL    HW2 2110   2.961   3.310   2.539  2.0122  0.4972  1.2594
    1SOL    HW3 2111   3.004   3.221   2.654 -1.0964 -2.5529  0.1613
    1SOL    MW4 2112   2.969   3.231   2.575 -0.1230 -0.3583 -0.0343
    1SOL     OW 2113   4.065   0.441   0.926 -0.3137  0.3506  0.3993
    1SOL    HW2 2114   4.056   0.382   1.001 -0.7779  0.8733  0.7603
    1SOL    HW3 2115   4.044   0.386   0.850 -0.0017 -0.1392  0.6685
    1SOL    MW4 2116   4.061   0.426   0.926 -0.3338  0.3549  0.4825
    1SOL     OW 2117   0.322   0.308   0.632  0.3749 -0.1390  0.6189
    1SOL    HW2 2118   0.246   0.254   0.651  0.6964 -0.7036  0.3188
    1SOL    HW3 2119   0.358   0.329   0.718  0.1530 -0.2681  0.7452
    1SOL    MW4 2120   0.317   0.303   0.646  0.3881 -0.2305  0.5960
    1SOL     OW 2121   3.633   0.111   2.403 -0.2527  0.2068  0.0214
    1SOL    HW2 2122   3.721   0.110   2.439 -0.2662  0.3805  0.0605
    1SOL    HW3 2123   3.645   0.102   2.308 -0.2274 -0.4521  0.0840
    1SOL    MW4 2124   3.646   0.110   2.395 -0.2511  0.1428  0.0350
    1SOL     OW 2125   0.738   4.330   0.614  0.0455  0.3953  0.3819
    1SOL    HW2 2126   0.766   4.357   0.526  0.8719 -0.4067  0.3818
    1SOL    HW3 2127   0.755   4.236   0.616 -0.4849  0.3133  1.2195
    1SOL    MW4 2128   0.744   4.321   0.602  0.0845  0.2789  0.4924
    1SOL     OW 2129   4.180   2.706   3.484  0.4702  0.6549  0.8002
    1SOL    HW2 2130   4.121   2.776   3.510  0.5142  0.6234  0.9896
    1SOL    HW3 2131   4.137   2.626   3.512 -1.0717  0.3562 -2.2403
    1SOL    MW4 2132   4.167   2.705   3.491  0.2723  0.6111  0.4237
    1SOL     OW 2133   2.404   0.800   4.271 -0.6846  0.5020 -0.3462
    1SOL    HW2 2134   2.450   0.884   4.280  1.2497 -0.2000 -3.1690
    1SOL    HW3 2135   2.390   0.790   4.177 -1.4438 -2.0632  0.0020
    1SOL    MW4 2136   2.408   0.810   4.260 -0.5300  0.0709 -0.6733
    1SOL     OW 2137   1.310   0.330   2.835  0.4013  0.0819  0.4471
    1SOL    HW2 2138   1.262   0.296   2.910 -0.1027 -0.5822 -0.1607
    1SOL    HW3 2139   1.314   0.256   2.774  0.6784  0.6517 -0.2371
    1SOL    MW4 2140   1.304   0.316   2.837  0.3713  0.0695  0.2766
    1SOL     OW 2141   1.003   4.115   2.598  0.1764  0.4664 -0.0650
    1SOL    HW2 2142   1.010   4.169   2.677 -0.4896 -0.1216  0.4082
    1SOL    HW3 2143   1.092   4.084   2.581  0.0871 -0.6497  1.3581
    1SOL    MW4 2144   1.015   4.118   2.606  0.0768  0.2413  0.1853
    1SOL     OW 2145   4.239   1.234   3.783  0.2625  0.2831 -0.6862
    1SOL    HW2 2146   4.188   1.233   3.702 -0.6894  1.2745 -0.1282
    1SOL    HW3 2147   4.307   1.300   3.768  0.2325  0.2967 -0.7680
    1SOL    MW4 2148   4.241   1.243   3.770  0.1335  0.4157 -0.6232
    1SOL     OW 2149   0.847   2.821   2.325 -0.3738  0.1711  0.7165
    1SOL    HW2 2150   0.796   2.890   2.370 -0.0054  1.2980 -0.5731
    1SOL    HW3 2151   0.938   2.850   2.333 -0.2596  0.0983 -0.2595
    1SOL    MW4 2152   0.852   2.834   2.332 -0.3101  0.3099  0.4175
    1SOL     OW 2153   1.910   4.151   2.787 -0.7031  0.0530  0.5780
    1SOL    HW2 2154   1.898   4.183   2.698 -2.0572  0.7473  0.9861
    1SOL    HW3 2155   1.822   4.125   2.815 -0.2690 -0.2916  1.6554
    1SOL    MW4 2156   1.896   4.152   2.779 -0.8247  0.0987  0.7741
    1SOL     OW 2157   3.628   0.903   1.403  0.0586 -0.3133  0.0078
    1SOL    HW2 2158   3.647   0.992   1.432  2.5860 -1.4259  1.9709
    1SOL    HW3 2159   3.613   0.911   1.309  0.1724  2.1977  0.1833
    1SOL    MW4 2160   3.629   0.916   1.394  0.4070 -0.1288  0.2898
    1SOL     OW 2161   2.451   3.595   2.687  0.4485  0.6596  0.3050
    1SOL    HW2 2162   2.497   3.678   2.688  0.6608  0.5392  0.6862
    1SOL    HW3 2163   2.403   3.592   2.770  1.5330 -0.1970  0.9142
    1SOL    MW4 2164   2.451   3.605   2.698  0.6196  0.5305  0.4356
    1SOL     OW 2165   2.488   1.972   3.715  0.5085  0.2372 -0.1455
    1SOL    HW2 2166   2.555   2.035   3.741  0.6014  0.5080 -1.0179
    1SOL    HW3 2167   2.462   2.000   3.627  0.2028 -0.6519 -0.3426
    1SOL    MW4 2168   2.494   1.984   3.707  0.4804  0.1556 -0.2868
    1SOL     OW 2169   0.872   3.514   0.842  0.1404 -0.1971 -0.4460
    1SOL    HW2 2170   0.855   3.425   0.811  0.9604  0.2864 -2.3845
    1SOL    HW3 2171   0.798   3.566   0.811  0.6912  0.1827 -1.1629
    1SOL    MW4 2172   0.860   3.509   0.834  0.3213 -0.0830 -0.7964
    1SOL     OW 2173   1.686   3.186   1.687  0.2600 -0.2901  0.3119
    1SOL    HW2 2174   1.662   3.110   1.633  0.8927  0.5064 -1.1137
    1SOL    HW3 2175   1.705   3.255   1.624 -1.1283  1.3195  1.6027
    1SOL    MW4 2176   1.685   3.185   1.672  0.1602  0.0274  0.2942
    1SOL     OW 2177   2.780   3.839   2.435  0.1464  0.1309 -0.3188
    1SOL    HW2 2178   2.855   3.891   2.465 -0.5287  0.7440  0.3395
    1SOL    HW3 2179   2.811   3.795   2.356  0.8764  1.1688 -0.6166
    1SOL    MW4 2180   2.794   3.840   2.429  0.1538  0.3488 -0.2713
    1SOL     OW 2181   1.369   2.423   2.718 -0.4004 -0.0339  0.6156
    1SOL    HW2 2182   1.313   2.353   2.685 -0.1835 -0.1964  0.5862
    1SOL    HW3 2183   1.348   2.428   2.811  1.1442 -1.6472  1.0923
    1SOL    MW4 2184   1.359   2.414   2.726 -0.1681 -0.2682  0.6747
    1SOL     OW 2185   1.584   3.574   2.929  0.6746 -0.3390 -0.2382
    1SOL    HW2 2186   1.584   3.493   2.979  0.0214 -0.6762 -0.7725
    1SOL    HW3 2187   1.496   3.580   2.893  1.0870 -0.0266 -1.2239
    1SOL    MW4 2188   1.572   3.564   2.931  0.6429 -0.3421 -0.4387
    1SOL     OW 2189   2.180   1.970   1.675 -0.0554 -0.2870  0.3384
    1SOL    HW2 2190   2.238   1.991   1.602 -2.0983 -0.1058 -1.2938
    1SOL    HW3 2191   2.139   2.054   1.698 -2.0709 -0.9483 -0.7080
    1SOL    MW4 2192   2.182   1.984   1.668 -0.5908 -0.3502 -0.0148
    1SOL     OW 2193   3.589   3.680   3.185 -0.3187  0.1525 -0.7396
    1SOL    HW2 2194   3.533   3.714   3.254 -0.6887  0.9528 -1.4309
    1SOL    HW3 2195   3.658   3.746   3.176  0.9462 -0.9862  0.3458
    1SOL    MW4 2196   3.591   3.693   3.193 -0.2005  0.1080 -0.6874
    1SOL     OW 2197   1.900   3.160   0.908 -0.4660  0.0318 -0.6292
    1SOL    HW2 2198   1.903   3.161   0.813  3.0744  1.0853 -0.5785
    1SOL    HW3 2199   1.909   3.068   0.932  1.3376  0.0155 -1.3048
    1SOL    MW4 2200   1.902   3.148   0.899  0.2391  0.1688 -0.7116
    1SOL     OW 2201   0.466   2.793   3.143 -0.0981  0.1907 -0.2486
    1SOL    HW2 2202   0.464   2.887   3.154 -0.5440  0.0665  0.7044
    1SOL    HW3 2203   0.419   2.758   3.218 -1.4424 -0.7216 -1.4960
    1SOL    MW4 2204   0.460   2.800   3.154 -0.3343  0.0539 -0.2873
    1SOL     OW 2205   3.626   1.681   4.642 -0.2875 -0.2328  0.3238
    1SOL    HW2 2206   3.702   1.732   4.669  0.1595 -0.9787  0.4983
    1SOL    HW3 2207   3.553   1.742   4.648  0.1099  0.1647  1.3385
    1SOL    MW4 2208   3.626   1.696   4.647 -0.1762 -0.2788  0.4811
    1SOL     OW 2209   2.696   2.823   4.283  0.0928  0.0471  0.1448
    1SOL    HW2 2210   2.673   2.915   4.301  0.9758  0.4523 -0.7410
    1SOL    HW3 2211   2.782   2.811   4.323  0.6313  0.0325 -1.0022
    1SOL    MW4 2212   2.704   2.834   4.291  0.2804  0.0985 -0.1235
    1SOL     OW 2213   2.022   2.216   2.494  0.1835  0.2663 -0.4341
    1SOL    HW2 2214   2.004   2.148   2.559  0.4456 -0.7228 -1.3734
    1SOL    HW3 2215   2.108   2.251   2.520  0.1253  0.1187 -0.0400
    1SOL    MW4 2216   2.031   2.212   2.506  0.2103  0.1163 -0.5062
    1SOL     OW 2217   2.614   0.874   3.921 -0.1488  0.0811  0.2514
    1SOL    HW2 2218   2.601   0.942   3.986  0.4336  0.7758 -0.3494
    1SOL    HW3 2219   2.701   0.839   3.940 -0.5283 -0.6466  0.6896
    1SOL    MW4 2220   2.624   0.878   3.932 -0.1218  0.0767  0.2303
    1SOL     OW 2221   0.867   1.886   1.353  0.0899  0.1963  0.2254
    1SOL    HW2 2222   0.818   1.877   1.434 -1.2641  0.1510 -0.5932
    1SOL    HW3 2223   0.871   1.981   1.338  2.1323  0.3431  1.4019
    1SOL    MW4 2224   0.861   1.898   1.362  0.1807  0.2096  0.2726
    1SOL     OW 2225   0.922   2.494   4.473 -0.3027  0.9395 -0.6811
    1SOL    HW2 2226   0.918   2.471   4.380  1.4799 -2.2990 -0.0380
    1SOL    HW3 2227   1.013   2.521   4.488 -0.3859  0.7112  0.2903
    1SOL    MW4 2228   0.934   2.495   4.463 -0.0784  0.4818 -0.4678
    1SOL     OW 2229   3.385   2.683   1.289 -0.5748 -0.0570  0.2535
    1SOL    HW2 2230   3.313   2.652   1.233 -1.6211  0.8353  1.0691
    1SOL    HW3 2231   3.464   2.669   1.237 -1.4391 -0.0745 -1.0819
    1SOL    MW4 2232   3.386   2.677   1.275 -0.8268  0.0582  0.1848
    1SOL     OW 2233   4.027   2.618   2.003 -0.5449 -0.1109  0.1551
    1SOL    HW2 2234   4.101   2.599   2.060  0.0934  0.1742 -0.5735
    1SOL    HW3 2235   3.950   2.604   2.058  0.0433 -0.5440  0.8732
    1SOL    MW4 2236   4.027   2.613   2.018 -0.3829 -0.1307  0.1538
    1SOL     OW 2237   0.949   0.854   2.132 -0.0470  0.2782  0.0291
    1SOL    HW2 2238   0.976   0.939   2.166  0.7410 -0.1025  0.3831
    1SOL    HW3 2239   0.879   0.826   2.190  0.4196  0.2126  0.5704
    1SOL    MW4 2240   0.944   0.861   2.144  0.1185  0.2193  0.1469
    1SOL     OW 2241   1.556   0.061   3.701 -0.7073  0.4421  0.0998
    1SOL    HW2 2242   1.644   0.063   3.740  0.1961 -1.4452 -1.7508
    1SOL    HW3 2243   1.502   0.016   3.767  0.0048  0.4542  0.6975
    1SOL    MW4 2244   1.560   0.055   3.715 -0.4941  0.1947 -0.0656
    1SOL     OW 2245   2.588   3.215   4.035  0.2016 -0.3746  0.0851
    1SOL    HW2 2246   2.559   3.305   4.044 -0.3875 -0.5924  0.3403
    1SOL    HW3 2247   2.583   3.178   4.123  0.1089 -0.7582 -0.0778
    1SOL    MW4 2248   2.584   3.222   4.047  0.1113 -0.4537  0.0973
    1SOL     OW 2249   0.224   1.343   2.138 -0.2528  0.2558  0.2008
    1SOL    HW2 2250   0.232   1.259   2.184 -0.4792  0.9915  1.5814
    1SOL    HW3 2251   0.305   1.390   2.158 -0.4684  0.6906  0.0590
    1SOL    MW4 2252   0.236   1.338   2.147 -0.3112  0.4102  0.3641
    1SOL     OW 2253   2.302   2.103   1.206  0.1916 -0.5190 -0.2722
    1SOL    HW2 2254   2.270   2.185   1.244 -0.5900 -1.5202  1.2909
    1SOL    HW3 2255   2.397   2.111   1.209  0.1268  1.0040 -1.6480
    1SOL    MW4 2256   2.310   2.115   1.212  0.0801 -0.4499 -0.2474
    1SOL     OW 2257   3.941   4.596   1.709  0.3312  0.1943 -0.0338
    1SOL    HW2 2258   3.928   4.659   1.638  1.6683  1.3617  0.7516
    1SOL    HW3 2259   3.853   4.574   1.738 -0.1601  1.2611 -0.7001
    1SOL    MW4 2260   3.928   4.601   1.703  0.4427  0.4888 -0.0180
    1SOL     OW 2261   1.466   3.654   4.581  0.0903  0.2145 -0.0597
    1SOL    HW2 2262   1.408   3.580   4.565 -1.7491  1.5859  0.2124
    1SOL    HW3 2263   1.430   3.726   4.530  0.3592  1.6521  1.6941
    1SOL    MW4 2264   1.454   3.654   4.572 -0.1169  0.5851  0.2079
    1SOL     OW 2265   0.597   3.628   2.309 -0.4919  0.4200 -0.2066
    1SOL    HW2 2266   0.501   3.628   2.310 -0.4961  0.3592 -0.4365
    1SOL    HW3 2267   0.621   3.539   2.336 -0.4815  0.7434  0.8549
    1SOL    MW4 2268   0.587   3.616   2.313 -0.4911  0.4547 -0.0968
    1SOL     OW 2269   3.256   3.842   2.601 -0.1765 -0.6609 -0.1596
    1SOL    HW2 2270   3.231   3.821   2.691 -0.6982  0.1685 -0.0990
    1SOL    HW3 2271   3.313   3.770   2.573  0.1637 -0.8052  0.9077
    1SOL    MW4 2272   3.260   3.830   2.609 -0.2003 -0.5708 -0.0107
    1SOL     OW 2273   2.781   3.830   2.848  0.3882  0.2482  0.8069
    1SOL    HW2 2274   2.833   3.751   2.865  1.1491  0.8565  1.3472
    1SOL    HW3 2275   2.713   3.830   2.916 -0.7298 -0.8950 -0.2978
    1SOL    MW4 2276   2.779   3.820   2.859  0.3412  0.1776  0.7327
    1SOL     OW 2277   3.417   1.729   1.756 -0.6009  0.4343  0.8769
    1SOL    HW2 2278   3.475   1.740   1.681  0.4424  0.5219  1.6707
    1SOL    HW3 2279   3.367   1.650   1.737 -0.3069  0.4259  0.1192
    1SOL    MW4 2280   3.418   1.720   1.744 -0.4244  0.4449  0.8817
    1SOL     OW 2281   3.010   1.974   3.871  0.3651 -0.0361 -0.4213
    1SOL    HW2 2282   3.076   2.034   3.906  0.0666 -0.2170  0.4540
    1SOL    HW3 2283   2.997   1.909   3.940  1.5349 -1.7874 -1.7897
    1SOL    MW4 2284   3.017   1.973   3.885  0.4797 -0.2912 -0.4861
    1SOL     OW 2285   2.194   1.589   2.755  0.0481 -0.0498 -0.0833
    1SOL    HW2 2286   2.249   1.659   2.789  0.5982 -1.0308  1.0989
    1SOL    HW3 2287   2.194   1.603   2.660  0.4728  1.3007  0.1028
    1SOL    MW4 2288   2.202   1.600   2.747  0.1769 -0.0010  0.0970
    1SOL     OW 2289   0.794   1.728   1.111 -0.6854  0.1277  0.6211
    1SOL    HW2 2290   0.836   1.790   1.171  0.8937 -0.3899  0.0947
    1SOL    HW3 2291   0.854   1.724   1.036 -0.8745 -1.8364  0.5385
    1SOL    MW4 2292   0.808   1.735   1.109 -0.5020 -0.1998  0.5406
    1SOL     OW 2293   3.176   2.964   4.210 -0.5993 -0.4276  0.0538
    1SOL    HW2 2294   3.259   2.924   4.236  0.2804  1.3427  0.0465
    1SOL    HW3 2295   3.189   3.058   4.224 -2.8342 -0.1908  0.6518
    1SOL    MW4 2296   3.189   2.971   4.215 -0.7780 -0.1626  0.1316
    1SOL     OW 2297   2.642   1.720   3.697  0.1510  0.0386 -0.0355
    1SOL    HW2 2298   2.732   1.741   3.671 -0.5021  0.5934 -2.0047
    1SOL    HW3 2299   2.598   1.805   3.698 -1.0266 -0.5238 -1.9502
    1SOL    MW4 2300   2.648   1.734   3.693 -0.0906  0.0376 -0.5476
    1SOL     OW 2301   0.643   3.647   0.699  0.0221  1.1855 -0.0121
    1SOL    HW2 2302   0.632   3.674   0.790 -0.8732  2.5417 -0.5123
    1SOL    HW3 2303   0.597   3.563   0.694  2.0712 -0.0613  1.3361
    1SOL    MW4 2304   0.635   3.639   0.710  0.1744  1.2000  0.0998
    1SOL     OW 2305   0.595   1.657   0.662  0.5311 -0.4202  0.5886
    1SOL    HW2 2306   0.593   1.625   0.752 -0.7374  0.1216  0.7562
    1SOL    HW3 2307   0.550   1.741   0.665 -0.5831 -0.9513 -0.7676
    1SOL    MW4 2308   0.589   1.664   0.674  0.2167 -0.4188  0.4318
    1SOL     OW 2309   3.587   3.021   1.813  0.7232 -1.0976 -0.1619
    1SOL    HW2 2310   3.553   3.032   1.902  2.5044 -1.9905  0.6469
    1SOL    HW3 2311   3.597   3.110   1.780 -2.7618 -0.7839 -0.5949
    1SOL    MW4 2312   3.584   3.034   1.821  0.4985 -1.1744 -0.1122
    1SOL     OW 2313   1.669   0.795   4.246  0.3878 -0.1461 -0.3903
    1SOL    HW2 2314   1.598   0.813   4.306  1.0621  2.0687 -0.2043
    1SOL    HW3 2315   1.630   0.803   4.159 -0.6865 -3.7721 -0.3099
    1SOL    MW4 2316   1.655   0.799   4.242  0.3351 -0.3322 -0.3548
    1SOL     OW 2317   3.745   0.265   1.068  0.9280 -0.3052 -0.3011
    1SOL    HW2 2318   3.731   0.313   1.150  0.0721 -1.1261  0.0463
    1SOL    HW3 2319   3.685   0.190   1.074  0.6937 -0.2443 -1.7818
    1SOL    MW4 2320   3.735   0.262   1.080  0.7844 -0.4055 -0.4505
    1SOL     OW 2321   0.409   3.315   0.918 -0.2946  0.9591  0.1278
    1SOL    HW2 2322   0.342   3.384   0.916 -0.2237  1.0314  0.2390
    1SOL    HW3 2323   0.361   3.235   0.898 -0.6101  0.8472  1.2834
    1SOL    MW4 2324   0.394   3.314   0.915 -0.3269  0.9539  0.2950
    1SOL     OW 2325   3.746   0.111   4.135  0.1882  0.0023 -0.2416
    1SOL    HW2 2326   3.786   0.149   4.213 -0.0084 -0.7806  0.2503
    1SOL    HW3 2327   3.821   0.084   4.081  0.3365 -0.8232  0.3618
    1SOL    MW4 2328   3.762   0.112   4.138  0.1817 -0.2099 -0.0968
    1SOL     OW 2329   0.359   3.945   3.651  0.0957  0.3457  0.0311
    1SOL    HW2 2330   0.412   3.893   3.712 -0.7830  0.8201  1.2113
    1SOL    HW3 2331   0.372   3.902   3.567  0.6145 -0.8624  0.7004
    1SOL    MW4 2332   0.368   3.933   3.648  0.0482  0.2489  0.2751
    1SOL     OW 2333   3.985   3.838   2.188 -0.3100  0.4404 -0.1853
    1SOL    HW2 2334   4.041   3.761   2.184 -0.4667  0.3032  0.1888
    1SOL    HW3 2335   3.898   3.803   2.209 -0.1111  0.8259  1.3950
    1SOL    MW4 2336   3.981   3.823   2.191 -0.3047  0.4733  0.0725
    1SOL     OW 2337   1.848   4.262   1.229 -0.3864  0.3792  0.2228
    1SOL    HW2 2338   1.872   4.315   1.305  1.0118  1.4144 -0.9109
    1SOL    HW3 2339   1.762   4.293   1.204 -1.0267 -0.2273  1.5886
    1SOL    MW4 2340   1.840   4.273   1.236 -0.2862  0.4363  0.2534
    1SOL     OW 2341   2.580   2.734   2.827  0.5562  0.0128 -0.1352
    1SOL    HW2 2342   2.520   2.708   2.897  0.3195  1.5079  0.2352
    1SOL    HW3 2343   2.566   2.828   2.818  3.1885  0.4864  0.3176
    1SOL    MW4 2344   2.570   2.743   2.835  0.8724  0.2725 -0.0267
    1SOL     OW 2345   2.899   0.280   2.843  0.5786  0.7540 -0.2030
    1SOL    HW2 2346   2.950   0.321   2.913  0.1426  0.7589  0.1101
    1SOL    HW3 2347   2.844   0.351   2.810 -1.1485  0.0885  1.2304
    1SOL    MW4 2348   2.899   0.295   2.848  0.2930  0.6668  0.0274
    1SOL     OW 2349   4.293   4.154   2.280  0.0581  0.0531 -0.3715
    1SOL    HW2 2350   4.277   4.122   2.191  0.0397 -0.0824 -0.3195
    1SOL    HW3 2351   4.205   4.162   2.319  0.0786 -0.0951 -0.2930
    1SOL    MW4 2352   4.279   4.151   2.274  0.0587  0.0157 -0.3545
    1SOL     OW 2353   2.841   0.999   1.854 -0.0739 -0.2067 -0.3862
    1SOL    HW2 2354   2.855   1.055   1.930  1.1320 -0.9758 -0.0246
    1SOL    HW3 2355   2.749   1.011   1.831 -0.3864  0.1923  1.0676
    1SOL    MW4 2356   2.830   1.008   1.861  0.0439 -0.2555 -0.1466
    1SOL     OW 2357   3.158   1.773   1.003  0.1071  0.0165  0.5335
    1SOL    HW2 2358   3.155   1.750   1.096 -0.4744 -0.2254  0.4597
    1SOL    HW3 2359   3.200   1.697   0.961  1.6104  0.6986  0.7621
    1SOL    MW4 2360   3.163   1.760   1.010  0.2289  0.0746  0.5538
    1SOL     OW 2361   1.528   2.849   1.061  0.1696  0.2393  0.7020
    1SOL    HW2 2362   1.452   2.841   1.003  0.3588 -0.7867  0.5830
    1SOL    HW3 2363   1.559   2.938   1.048  1.0257 -0.3908 -1.7817
    1SOL    MW4 2364   1.522   2.860   1.052  0.3074  0.0207  0.3587
    1SOL     OW 2365   1.495   1.288   4.288  0.3844 -0.0265  0.0422
    1SOL    HW2 2366   1.417   1.333   4.321  0.1143  0.1526 -0.8055
    1SOL    HW3 2367   1.568   1.340   4.320  0.0907  0.7419 -0.4961
    1SOL    MW4 2368   1.494   1.301   4.296  0.3101  0.0986 -0.1407
    1SOL     OW 2369   0.855   4.615   2.032 -0.8654  0.0233  0.4821
    1SOL    HW2 2370   0.827   4.525   2.014 -1.5014  0.1755  0.7054
    1SOL    HW3 2371   0.800   4.644   2.105  0.3972  0.0713  1.4282
    1SOL    MW4 2372   0.844   4.607   2.039 -0.7827  0.0501  0.6361
    1SOL     OW 2373   3.008   4.254   4.490  0.2230  0.2746 -0.8082
    1SOL    HW2 2374   3.062   4.315   4.440 -1.4529  0.9139 -1.8897
    1SOL    HW3 2375   3.012   4.173   4.440 -0.1623  0.4559 -1.1448
    1SOL    MW4 2376   3.016   4.252   4.476 -0.0489  0.3829 -0.9952
    1SOL     OW 2377   4.098   1.347   4.162 -0.2186  0.0494  0.1190
    1SOL    HW2 2378   4.142   1.335   4.246 -0.7177  0.6530  0.4703
    1SOL    HW3 2379   4.074   1.440   4.161 -3.2823 -0.6899  0.8386
    1SOL    MW4 2380   4.101   1.358   4.173 -0.6881  0.0316  0.2604
    1SOL     OW 2381   0.239   2.107   3.987 -0.3629  0.1029  0.3712
    1SOL    HW2 2382   0.210   2.197   3.972 -1.0170  0.2839  2.5065
    1SOL    HW3 2383   0.186   2.077   4.061 -1.0157 -2.4610 -1.0592
    1SOL    MW4 2384   0.228   2.115   3.995 -0.5353 -0.2112  0.4644
    1SOL     OW 2385   3.930   3.602   1.662  0.4854  0.3194  0.1353
    1SOL    HW2 2386   3.982   3.603   1.742  0.5790  1.2996  0.0754
    1SOL    HW3 2387   3.844   3.636   1.689 -0.0001 -0.9238  0.1590
    1SOL    MW4 2388   3.925   3.607   1.676  0.4337  0.2847  0.1305
    1SOL     OW 2389   2.966   0.288   2.103 -0.3258 -0.0964  0.1506
    1SOL    HW2 2390   2.952   0.347   2.177 -1.1505  0.2137 -0.2465
    1SOL    HW3 2391   2.882   0.287   2.057 -0.3036 -1.5520  0.1300
    1SOL    MW4 2392   2.953   0.296   2.107 -0.4320 -0.2475  0.0956
    1SOL     OW 2393   1.969   1.249   4.448  0.7025  0.0732 -0.2549
    1SOL    HW2 2394   2.063   1.266   4.462  0.6760 -0.5580  0.7056
    1SOL    HW3 2395   1.956   1.160   4.481  0.0014 -0.2915 -1.4954
    1SOL    MW4 2396   1.980   1.240   4.454  0.6064 -0.0583 -0.2918
    1SOL     OW 2397   0.589   1.729   3.314 -0.4222  0.5423  0.2803
    1SOL    HW2 2398   0.535   1.690   3.383  1.4850 -1.0306  0.9183
    1SOL    HW3 2399   0.649   1.786   3.361  2.4682 -2.3374  0.2264
    1SOL    MW4 2400   0.590   1.731   3.329  0.2108 -0.0451  0.3574
    1SOL     OW 2401   0.291   4.461   1.561 -0.4966  0.0150  0.5774
    1SOL    HW2 2402   0.324   4.417   1.640  1.1683 -0.7349 -0.5255
    1SOL    HW3 2403   0.289   4.554   1.585  1.0520 -0.0796  1.1460
    1SOL    MW4 2404   0.295   4.467   1.575 -0.0726 -0.0973  0.5069
    1SOL     OW 2405   4.429   2.955   0.556  0.2537  0.0963  0.1869
    1SOL    HW2 2406   4.480   2.888   0.601  1.9201  0.7956 -0.6175
    1SOL    HW3 2407   4.476   2.971   0.474 -1.3021  0.7089 -0.6273
    1SOL    MW4 2408   4.442   2.948   0.551  0.2689  0.2694 -0.0266
    1SOL     OW 2409   1.972   2.550   3.994  0.8590 -0.8515  0.1435
    1SOL    HW2 2410   2.058   2.533   4.032  0.9054 -0.1516  0.3675
    1SOL    HW3 2411   1.916   2.568   4.069  0.9311  0.4551 -0.1015
    1SOL    MW4 2412   1.976   2.550   4.009  0.8746 -0.5867  0.1407
    1SOL     OW 2413   3.058   2.073   1.067 -0.2933 -0.5629 -0.0124
    1SOL    HW2 2414   2.993   2.089   0.998  0.5839  1.9529 -0.2951
    1SOL    HW3 2415   3.123   2.017   1.025  0.0442  0.6520 -1.1493
    1SOL    MW4 2416   3.058   2.068   1.052 -0.1330 -0.0708 -0.1997
    1SOL     OW 2417   0.855   1.400   2.289 -0.0202 -0.0286  0.0686
    1SOL    HW2 2418   0.889   1.379   2.202  1.7152 -0.6988  0.8666
    1SOL    HW3 2419   0.763   1.375   2.287 -0.0013  0.0080 -1.5811
    1SOL    MW4 2420   0.848   1.394   2.277  0.2112 -0.1122 -0.0439
    1SOL     OW 2421   2.554   1.890   3.280 -0.5106 -0.1702  0.5692
    1SOL    HW2 2422   2.533   1.825   3.347 -2.7020 -0.5828 -0.4655
    1SOL    HW3 2423   2.483   1.882   3.216  2.2196 -0.8057 -2.5492
    1SOL    MW4 2424   2.542   1.880   3.280 -0.4396 -0.3085  0.0215
    1SOL     OW 2425   0.140   4.134   1.784 -0.2204 -0.4810 -0.2490
    1SOL    HW2 2426   0.168   4.065   1.724  0.1814  0.0683 -0.6872
    1SOL    HW3 2427   0.210   4.199   1.781 -1.5311  0.8817 -1.3236
    1SOL    MW4 2428   0.153   4.133   1.776 -0.3403 -0.2289 -0.4486
    1SOL     OW 2429   4.144   4.314   4.113 -0.0264  0.5417  0.0828
    1SOL    HW2 2430   4.123   4.268   4.032  1.5419  2.0100 -1.1963
    1SOL    HW3 2431   4.237   4.295   4.127  0.2904  2.1884  0.2685
    1SOL    MW4 2432   4.154   4.305   4.104  0.2222  0.9527 -0.0615
    1SOL     OW 2433   3.740   1.365   3.904 -0.7686  0.3748  0.0674
    1SOL    HW2 2434   3.740   1.458   3.883  0.8976  0.5217  0.6135
    1SOL    HW3 2435   3.696   1.323   3.831 -1.4394  1.5894 -0.2277
    1SOL    MW4 2436   3.735   1.371   3.892 -0.6373  0.5544  0.1006
    1SOL     OW 2437   0.354   1.042   3.128  0.4955 -0.3085 -0.4127
    1SOL    HW2 2438   0.413   1.045   3.053  1.0601  0.4642  0.0587
    1SOL    HW3 2439   0.389   1.107   3.189  0.9837 -2.0411  1.2048
    1SOL    MW4 2440   0.367   1.051   3.126  0.6344 -0.4352 -0.1373
    1SOL     OW 2441   4.209   1.555   1.339 -0.8914 -0.3486 -0.6274
    1SOL    HW2 2442   4.113   1.557   1.337 -0.9012 -1.0542 -1.0508
    1SOL    HW3 2443   4.235   1.647   1.345 -1.6160 -0.2384  1.2049
    1SOL    MW4 2444   4.200   1.567   1.340 -0.9880 -0.4271 -0.4414
    1SOL     OW 2445   1.861   2.559   1.341  0.2321  0.1533 -0.1838
    1SOL    HW2 2446   1.877   2.498   1.269 -0.0022  0.5212 -0.5488
    1SOL    HW3 2447   1.857   2.645   1.299 -1.8940  0.1748 -0.0102
    1SOL    MW4 2448   1.862   2.562   1.326 -0.0793  0.2048 -0.2092
    1SOL     OW 2449   1.292   3.484   2.272  0.2572  0.0766 -0.5544
    1SOL    HW2 2450   1.377   3.528   2.261  1.1729 -1.5197  0.0369
    1SOL    HW3 2451   1.237   3.549   2.315  2.1900  0.0152  2.1455
    1SOL    MW4 2452   1.296   3.499   2.276  0.6331 -0.1421 -0.1202
    1SOL     OW 2453   0.688   0.937   1.200  0.2255  0.2794  0.1749
    1SOL    HW2 2454   0.616   0.970   1.255  0.3127  0.9275 -0.0939
    1SOL    HW3 2455   0.707   0.850   1.235 -0.3013  0.3397  0.6202
    1SOL    MW4 2456   0.681   0.930   1.212  0.1676  0.3729  0.1984
    1SOL     OW 2457   1.892   3.702   1.790  0.3928  0.0200  0.5313
    1SOL    HW2 2458   1.822   3.644   1.759 -0.2187  0.7462  0.5403
    1SOL    HW3 2459   1.963   3.643   1.815 -0.4009 -0.7547  0.9765
    1SOL    MW4 2460   1.892   3.687   1.789  0.2074  0.0138  0.5912
    1SOL     OW 2461   1.031   2.120   1.963 -0.0805  0.1437 -0.0085
    1SOL    HW2 2462   0.947   2.136   2.004 -1.6529 -0.1123 -2.9769
    1SOL    HW3 2463   1.044   2.195   1.905  0.2842 -1.2532 -1.7918
    1SOL    MW4 2464   1.022   2.132   1.960 -0.2397 -0.0741 -0.6354
    1SOL     OW 2465   1.976   2.373   3.082  0.1226  0.4929 -0.1489
    1SOL    HW2 2466   2.005   2.401   3.169  0.5353 -0.0418 -0.1151
    1SOL    HW3 2467   1.984   2.278   3.083 -0.1851  0.4559 -0.6640
    1SOL    MW4 2468   1.981   2.364   3.094  0.1365  0.4177 -0.2127
    1SOL     OW 2469   4.224   0.085   0.922  0.0185 -0.4904 -0.3291
    1SOL    HW2 2470   4.251   0.001   0.886 -0.8568 -0.6768 -0.5654
    1SOL    HW3 2471   4.292   0.107   0.985  0.5358 -1.1110 -0.6686
    1SOL    MW4 2472   4.236   0.077   0.926 -0.0286 -0.5969 -0.4051
    1SOL     OW 2473   2.263   3.410   3.762 -0.1082  0.0833 -0.2164
    1SOL    HW2 2474   2.259   3.484   3.701 -1.4894 -0.4676 -0.8227
    1SOL    HW3 2475   2.172   3.394   3.787  0.2497 -0.9177  0.5102
    1SOL    MW4 2476   2.250   3.417   3.757 -0.2432 -0.1214 -0.2003
    1SOL     OW 2477   2.093   3.478   1.681 -0.1175 -0.3473 -0.0029
    1SOL    HW2 2478   2.045   3.414   1.735  0.6279 -2.1948 -1.4591
    1SOL    HW3 2479   2.154   3.424   1.630  0.4631  1.5537 -1.3474
    1SOL    MW4 2480   2.095   3.462   1.682  0.0575 -0.3402 -0.3725
    1SOL     OW 2481   1.814   1.290   1.397 -0.6221  0.4711 -0.3121
    1SOL    HW2 2482   1.744   1.237   1.359 -1.2117  2.3115 -1.8646
    1SOL    HW3 2483   1.868   1.316   1.321  1.7150 -0.8425  0.8293
    1SOL    MW4 2484   1.812   1.286   1.382 -0.3916  0.5406 -0.3663
    1SOL     OW 2485   2.988   4.618   4.121 -0.0797 -0.1802 -0.1591
    1SOL    HW2 2486   2.957   4.633   4.211  0.1448  1.0862 -0.2828
    1SOL    HW3 2487   2.963   4.527   4.102 -0.8176 -0.2127  0.9015
    1SOL    MW4 2488   2.980   4.608   4.131 -0.1473 -0.0172 -0.0362
    1SOL     OW 2489   1.945   2.131   4.259 -0.2397 -0.1916 -0.0210
    1SOL    HW2 2490   2.006   2.158   4.327 -1.9437  2.1795  0.6423
    1SOL    HW3 2491   1.897   2.057   4.297  1.2802 -1.2244 -0.0647
    1SOL    MW4 2492   1.947   2.125   4.273 -0.2639 -0.0148  0.0606
    1SOL     OW 2493   0.743   3.615   3.790  0.2943 -0.0610 -0.0716
    1SOL    HW2 2494   0.812   3.556   3.821  1.0247 -0.1856 -1.8764
    1SOL    HW3 2495   0.683   3.623   3.864  2.4186  0.3154  1.6391
    1SOL    MW4 2496   0.744   3.608   3.804  0.6709 -0.0277 -0.0839
    1SOL     OW 2497   0.517   0.522   1.379 -0.1942 -0.5422 -0.0433
    1SOL    HW2 2498   0.471   0.576   1.315  0.5094 -0.1859 -0.2539
    1SOL    HW3 2499   0.556   0.452   1.328  1.0102  0.1688 -0.1228
    1SOL    MW4 2500   0.516   0.520   1.364  0.0575 -0.4014 -0.0815
    1SOL     OW 2501   1.513   4.536   2.769  0.3110  0.8368  0.5703
    1SOL    HW2 2502   1.486   4.445   2.758 -1.3587  1.1340  2.0306
    1SOL    HW3 2503   1.594   4.531   2.819  1.0986  0.0852 -0.7583
    1SOL    MW4 2504   1.520   4.523   2.774  0.1947  0.7772  0.5877
    1SOL     OW 2505   4.150   2.771   4.110 -0.0032 -0.1461  0.4545
    1SOL    HW2 2506   4.067   2.729   4.131 -1.2730  1.4028 -1.2310
    1SOL    HW3 2507   4.205   2.700   4.076 -1.3789 -0.8359 -0.3836
    1SOL    MW4 2508   4.147   2.756   4.108 -0.3519 -0.0327  0.1216
    1SOL     OW 2509   2.821   3.753   3.311 -0.2468  0.3612 -0.6237
    1SOL    HW2 2510   2.784   3.679   3.263  1.1320 -0.3415 -0.6281
    1SOL    HW3 2511   2.766   3.762   3.389 -0.7470 -0.3168 -0.9042
    1SOL    MW4 2512   2.809   3.745   3.315 -0.1309  0.1788 -0.6614
    1SOL     OW 2513   0.556   1.522   1.609  0.7426 -0.0864 -0.0393
    1SOL    HW2 2514   0.537   1.437   1.569  1.3081 -0.0639 -0.3628
    1SOL    HW3 2515   0.502   1.524   1.688 -0.7570  0.0710 -1.0475
    1SOL    MW4 2516   0.546   1.511   1.614  0.6194 -0.0627 -0.2151
    1SOL     OW 2517   3.565   2.635   3.498  1.0874  0.2494  0.3312
    1SOL    HW2 2518   3.489   2.597   3.455  1.3422  0.6317 -0.4817
    1SOL    HW3 2519   3.535   2.720   3.530  0.8125 -0.1705  1.1839
    1SOL    MW4 2520   3.551   2.641   3.496  1.0848  0.2444  0.3364
    1SOL     OW 2521   0.805   4.542   4.376 -0.0523  0.0192  0.6599
    1SOL    HW2 2522   0.795   4.603   4.448 -2.3088 -0.6195  0.9281
    1SOL    HW3 2523   0.802   4.596   4.297 -1.0682  0.3479  0.9288
    1SOL    MW4 2524   0.803   4.557   4.375 -0.4841 -0.0219  0.7305
    1SOL     OW 2525   2.731   0.341   1.987 -0.4498  0.4375 -0.1715
    1SOL    HW2 2526   2.773   0.409   1.934 -0.4099  0.5668  0.0258
    1SOL    HW3 2527   2.736   0.262   1.932  0.6893  0.2813  0.1351
    1SOL    MW4 2528   2.738   0.339   1.973 -0.2944  0.4340 -0.1050
    1SOL     OW 2529   0.277   1.532   1.115  0.2130  0.6226  0.2137
    1SOL    HW2 2530   0.355   1.533   1.170 -0.1480 -0.6518  0.7511
    1SOL    HW3 2531   0.205   1.553   1.174  0.0950  1.5725 -0.2391
    1SOL    MW4 2532   0.278   1.535   1.130  0.1498  0.5797  0.2249
    1SOL     OW 2533   0.515   1.038   2.887 -0.5119 -0.2585 -0.5709
    1SOL    HW2 2534   0.565   0.968   2.929  1.7574 -0.6202 -3.7381
    1SOL    HW3 2535   0.524   1.021   2.794 -1.2084  3.4079 -1.3697
    1SOL    MW4 2536   0.523   1.026   2.881 -0.3044  0.1775 -1.0941
    1SOL     OW 2537   1.930   0.386   3.518  0.5337  0.5253 -0.0029
    1SOL    HW2 2538   1.906   0.375   3.610  0.4188  0.5390 -0.0311
    1SOL    HW3 2539   1.882   0.317   3.472 -0.9621  1.7491 -0.3071
    1SOL    MW4 2540   1.920   0.375   3.524  0.3211  0.6886 -0.0467
    1SOL     OW 2541   1.029   1.093   3.525  0.2132 -0.3643 -0.1703
    1SOL    HW2 2542   0.934   1.082   3.528 -0.0510  1.6725 -0.7848
    1SOL    HW3 2543   1.053   1.068   3.436  0.1536 -0.0241 -0.2799
    1SOL    MW4 2544   1.020   1.088   3.514  0.1705 -0.0507 -0.2658
    1SOL     OW 2545   2.994   0.907   1.618  0.2235  0.4658 -0.1162
    1SOL    HW2 2546   3.081   0.945   1.602 -0.0645  1.2146  0.0547
    1SOL    HW3 2547   2.967   0.945   1.702  0.1067 -0.4600  0.2634
    1SOL    MW4 2548   3.002   0.917   1.627  0.1702  0.4424 -0.0436
    1SOL     OW 2549   4.270   0.289   4.056  0.4255  0.1477 -0.3488
    1SOL    HW2 2550   4.287   0.244   4.139  0.5640 -1.2412 -1.1303
    1SOL    HW3 2551   4.321   0.241   3.991  0.9626  1.7242 -1.1141
    1SOL    MW4 2552   4.279   0.277   4.059  0.5145  0.1725 -0.5527
    1SOL     OW 2553   1.215   3.013   3.952 -0.1279  0.1315 -0.4393
    1SOL    HW2 2554   1.129   3.027   3.993  0.3232 -1.1104  1.0017
    1SOL    HW3 2555   1.196   3.006   3.859 -2.0420 -3.2600  0.1224
    1SOL    MW4 2556   1.201   3.014   3.945 -0.3208 -0.4795 -0.1748
    1SOL     OW 2557   1.701   1.174   3.789  0.0827 -0.3942  0.0422
    1SOL    HW2 2558   1.646   1.236   3.742  1.0753  0.4889  0.0455
    1SOL    HW3 2559   1.668   1.176   3.879  1.0870  1.2395  0.3746
    1SOL    MW4 2560   1.689   1.182   3.795  0.3462 -0.0621  0.0863
    1SOL     OW 2561   3.548   4.582   4.201 -0.2758 -0.2463 -0.5738
    1SOL    HW2 2562   3.601   4.662   4.195 -1.1457  0.5185  1.6320
    1SOL    HW3 2563   3.464   4.606   4.163 -1.2445  0.5583  1.9793
    1SOL    MW4 2564   3.544   4.595   4.195 -0.5183 -0.0396  0.0539
    1SOL     OW 2565   0.565   3.206   1.697  0.2561  0.2498 -0.2947
    1SOL    HW2 2566   0.538   3.142   1.631  0.7316 -0.3745  0.1159
    1SOL    HW3 2567   0.627   3.159   1.752  0.3031  0.9473  0.2508
    1SOL    MW4 2568   0.569   3.191   1.695  0.3250  0.2592 -0.1684
    1SOL     OW 2569   1.788   4.349   3.845  0.1775 -0.1015  0.2153
    1SOL    HW2 2570   1.726   4.374   3.913  0.4034  0.2426  0.2899
    1SOL    HW3 2571   1.871   4.336   3.891  0.7032  1.6316 -0.2125
    1SOL    MW4 2572   1.790   4.350   3.860  0.2767  0.1726  0.1688
    1SOL     OW 2573   2.464   4.581   1.807  0.2299 -0.4847 -0.0195
    1SOL    HW2 2574   2.468   4.497   1.761  0.0748  0.2222 -1.3566
    1SOL    HW3 2575   2.436   4.643   1.740  1.1482  0.7789  0.7573
    1SOL    MW4 2576   2.461   4.578   1.792  0.3304 -0.2246 -0.0935
    1SOL     OW 2577   3.971   1.939   4.441  0.7584 -0.7291  0.5522
    1SOL    HW2 2578   4.035   1.949   4.512  0.7517 -1.0940  0.6111
    1SOL    HW3 2579   3.886   1.938   4.485  0.7690 -1.2213  0.5679
    1SOL    MW4 2580   3.968   1.940   4.457  0.7591 -0.8422  0.5627
    1SOL     OW 2581   0.058   1.955   1.056  0.4373  0.2724  0.2848
    1SOL    HW2 2582   0.007   2.002   0.991  0.1687  1.5595  1.4195
    1SOL    HW3 2583   0.036   1.863   1.041 -0.6906  0.6624 -0.5338
    1SOL    MW4 2584   0.048   1.949   1.045  0.2530  0.4935  0.3266
    1SOL     OW 2585   1.724   3.043   3.610 -0.3148  0.6097 -0.0161
    1SOL    HW2 2586   1.695   3.018   3.522  0.3952  1.9703 -0.6397
    1SOL    HW3 2587   1.681   3.126   3.627 -0.3594  0.4070  0.8911
    1SOL    MW4 2588   1.714   3.051   3.601 -0.2270  0.7625  0.0212
    1SOL     OW 2589   4.450   3.198   1.334 -0.1332 -0.2032  0.0457
    1SOL    HW2 2590   4.415   3.109   1.338  0.4956 -0.4001  1.3014
    1SOL    HW3 2591   4.386   3.251   1.383 -0.1730 -0.0570 -0.1584
    1SOL    MW4 2592   4.437   3.193   1.341 -0.0553 -0.2100  0.1843
    1SOL     OW 2593   0.842   4.325   0.878  0.3874 -0.3147 -0.0055
    1SOL    HW2 2594   0.893   4.405   0.871 -0.6102  0.4260  1.0231
    1SOL    HW3 2595   0.788   4.324   0.799 -0.9696  1.0109  0.8854
    1SOL    MW4 2596   0.842   4.335   0.866  0.0767 -0.0420  0.2478
    1SOL     OW 2597   0.293   0.354   2.731  0.1957  0.2471 -0.4649
    1SOL    HW2 2598   0.300   0.273   2.682 -0.2945 -0.1644  0.1381
    1SOL    HW3 2599   0.201   0.359   2.755  0.6271 -0.0874  1.3101
    1SOL    MW4 2600   0.282   0.344   2.728  0.1880  0.1487 -0.1512
    1SOL     OW 2601   4.393   3.495   1.643 -0.4416  0.1140  0.6443
    1SOL    HW2 2602   4.343   3.430   1.594 -0.2366  0.3569  0.1211
    1SOL    HW3 2603   4.327   3.540   1.696 -0.9030  0.9732 -0.6403
    1SOL    MW4 2604   4.378   3.492   1.644 -0.4759  0.2594  0.4058
    1SOL     OW 2605   2.845   4.107   3.895  0.0220 -0.4799 -0.4879
    1SOL    HW2 2606   2.871   4.108   3.987 -2.0359  0.2200  0.0999
    1SOL    HW3 2607   2.896   4.178   3.855 -1.4545  1.3363  0.7889
    1SOL    MW4 2608   2.855   4.116   3.901 -0.4444 -0.1478 -0.2420
    1SOL     OW 2609   3.193   1.621   0.635 -0.4205 -0.1627  0.6181
    1SOL    HW2 2610   3.251   1.573   0.576  0.7417  1.2473  0.5963
    1SOL    HW3 2611   3.193   1.569   0.715 -1.5237 -1.7635 -0.3919
    1SOL    MW4 2612   3.201   1.608   0.638 -0.4127 -0.1879  0.4819
    1SOL     OW 2613   0.701   0.009   2.259  0.1012  0.0070 -0.0529
    1SOL    HW2 2614   0.631  -0.056   2.257 -0.7679  0.8929  1.7332
    1SOL    HW3 2615   0.659   0.091   2.232  0.7219  0.2877 -0.1747
    1SOL    MW4 2616   0.686   0.011   2.255  0.0685  0.1607  0.1664
    1SOL     OW 2617   2.880   0.974   2.653  0.2797  0.3508  0.6378
    1SOL    HW2 2618   2.853   1.060   2.685 -1.4251 -1.2732  3.7873
    1SOL    HW3 2619   2.806   0.943   2.601  0.6770  0.5241 -0.0465
    1SOL    MW4 2620   2.867   0.981   2.650  0.1073  0.1593  0.9630
    1SOL     OW 2621   4.177   0.759   3.617  0.6246 -1.1727 -0.7331
    1SOL    HW2 2622   4.115   0.714   3.560  0.8176  0.9580 -2.6623
    1SOL    HW3 2623   4.199   0.840   3.571  0.6751  0.6999  2.4318
    1SOL    MW4 2624   4.172   0.763   3.604  0.6571 -0.6445 -0.5703
    1SOL     OW 2625   3.316   2.003   2.441  0.1310  0.1217  0.2344
    1SOL    HW2 2626   3.288   2.084   2.483  1.7125  0.9526 -0.2949
    1SOL    HW3 2627   3.331   1.942   2.513 -1.2124  0.2281  0.6251
    1SOL    MW4 2628   3.314   2.005   2.456  0.1626  0.2453  0.2160
    1SOL     OW 2629   0.823   2.432   3.357  0.4520  0.2208 -0.2082
    1SOL    HW2 2630   0.737   2.395   3.376  0.8220 -0.0300  1.0232
    1SOL    HW3 2631   0.819   2.457   3.265 -0.6016 -0.7069 -0.4193
    1SOL    MW4 2632   0.811   2.430   3.347  0.3618  0.0648 -0.0734
    1SOL     OW 2633   1.666   0.410   2.042 -0.5344  0.2051  0.0100
    1SOL    HW2 2634   1.662   0.397   2.137  0.6785 -0.0872  0.0268
    1SOL    HW3 2635   1.641   0.326   2.005 -1.0027  0.3174  0.0670
    1SOL    MW4 2636   1.662   0.397   2.050 -0.4362  0.1813  0.0198
    1SOL     OW 2637   2.367   0.745   1.444  0.0419  0.2266 -0.2137
    1SOL    HW2 2638   2.305   0.753   1.372  0.9637  1.3487 -0.8889
    1SOL    HW3 2639   2.354   0.655   1.477 -1.0876  0.0536 -1.1075
    1SOL    MW4 2640   2.357   0.734   1.439  0.0145  0.3518 -0.4206
    1SOL     OW 2641   2.718   3.271   0.547 -0.3288 -0.5923 -0.2202
    1SOL    HW2 2642   2.784   3.295   0.612 -1.1000 -0.3966  0.4972
    1SOL    HW3 2643   2.654   3.341   0.551 -0.6490 -0.8437 -0.8320
    1SOL    MW4 2644   2.718   3.283   0.556 -0.4728 -0.5994 -0.2062
    1SOL     OW 2645   1.693   0.825   1.284  0.2704  0.3442  0.5432
    1SOL    HW2 2646   1.628   0.833   1.354  0.9776  1.4593  1.0880
    1SOL    HW3 2647   1.724   0.735   1.291 -1.2045 -0.1947  0.2825
    1SOL    MW4 2648   1.689   0.814   1.294  0.1692  0.4202  0.5805
    1SOL     OW 2649   0.836   1.633   3.706  0.7110  0.2341  0.3871
    1SOL    HW2 2650   0.880   1.555   3.740 -1.2302 -0.8080  0.6065
    1SOL    HW3 2651   0.745   1.605   3.694 -0.3277  2.8810  1.7875
    1SOL    MW4 2652   0.830   1.619   3.709  0.3178  0.4458  0.6008
    1SOL     OW 2653   1.333   2.211   4.048  0.4033 -0.0458  0.4009
    1SOL    HW2 2654   1.259   2.151   4.058  0.9902 -0.9476 -0.6141
    1SOL    HW3 2655   1.294   2.298   4.053 -0.6902 -0.5195  0.1220
    1SOL    MW4 2656   1.318   2.215   4.050  0.3364 -0.2275  0.2298
    1SOL     OW 2657   3.248   0.847   0.611 -0.2091  0.2138  0.0719
    1SOL    HW2 2658   3.321   0.787   0.593 -0.5580 -0.4315  0.7925
    1SOL    HW3 2659   3.234   0.892   0.527  1.7127  1.1322  0.2115
    1SOL    MW4 2660   3.256   0.845   0.597 -0.0014  0.2499  0.1854
    1SOL     OW 2661   1.205   0.281   4.280  0.0508  0.4780 -0.4046
    1SOL    HW2 2662   1.200   0.349   4.213 -1.1592  0.1186 -0.6879
    1SOL    HW3 2663   1.278   0.308   4.336 -0.2137  1.8270 -0.7000
    1SOL    MW4 2664   1.214   0.293   4.278 -0.1438  0.6086 -0.4811
    1SOL     OW 2665   3.765   1.266   2.844  0.3777  0.6206  0.1080
    1SOL    HW2 2666   3.834   1.331   2.858 -0.4872  1.9439 -1.5707
    1SOL    HW3 2667   3.729   1.288   2.758 -0.6500 -1.4352 -0.0099
    1SOL    MW4 2668   3.770   1.278   2.834  0.1278  0.5239 -0.1290
    1SOL     OW 2669   1.437   1.748   3.003 -0.5646 -0.1756 -0.4168
    1SOL    HW2 2670   1.387   1.669   2.983  0.1907 -0.9805  0.7556
    1SOL    HW3 2671   1.371   1.812   3.029 -1.0121 -1.3440  1.4991
    1SOL    MW4 2672   1.422   1.746   3.004 -0.5240 -0.4358 -0.0093
    1SOL     OW 2673   2.086   3.542   2.240 -0.3880 -0.0140  0.3819
    1SOL    HW2 2674   2.116   3.633   2.242 -1.3397  0.2921  2.2490
    1SOL    HW3 2675   2.166   3.491   2.227 -0.0238  1.1353 -2.1153
    1SOL    MW4 2676   2.100   3.547   2.239 -0.4656  0.1783  0.2987
    1SOL     OW 2677   2.585   0.532   3.913 -0.4395  0.6761  0.2396
    1SOL    HW2 2678   2.579   0.440   3.940  0.4899  0.4388 -0.3550
    1SOL    HW3 2679   2.585   0.581   3.995 -1.2507  0.1652  0.5524
    1SOL    MW4 2680   2.584   0.526   3.928 -0.4239  0.5773  0.2022
    1SOL     OW 2681   2.844   2.876   1.097 -0.2793  0.0117 -0.4223
    1SOL    HW2 2682   2.841   2.782   1.114 -2.0250  0.0290 -0.5585
    1SOL    HW3 2683   2.754   2.906   1.110  0.1616  1.5757 -0.8680
    1SOL    MW4 2684   2.832   2.868   1.101 -0.4513  0.2205 -0.4990
    1SOL     OW 2685   2.828   4.521   2.069  0.4408 -0.0080 -0.0471
    1SOL    HW2 2686   2.861   4.571   2.144 -0.1855 -0.3066  0.4386
    1SOL    HW3 2687   2.868   4.563   1.993  0.3922  0.8645  0.3946
    1SOL    MW4 2688   2.837   4.533   2.069  0.3519  0.0677  0.0756
    1SOL     OW 2689   1.967   4.573   2.842 -0.2800 -0.0087  0.3627
    1SOL    HW2 2690   1.903   4.558   2.911  0.4256 -1.3129  0.7416
    1SOL    HW3 2691   2.000   4.661   2.860  0.9765 -0.8814  2.6040
    1SOL    MW4 2692   1.963   4.583   2.854 -0.0210 -0.2956  0.7086
    1SOL     OW 2693   0.897   1.802   3.471 -0.5991 -0.7037  0.3789
    1SOL    HW2 2694   0.921   1.744   3.398 -2.1586 -0.6355 -0.2021
    1SOL    HW3 2695   0.878   1.743   3.543  3.2527 -0.7021  1.4904
    1SOL    MW4 2696   0.898   1.787   3.471 -0.2967 -0.6945  0.4487
    1SOL     OW 2697   3.705   0.072   2.129 -0.2587 -0.4717 -0.4692
    1SOL    HW2 2698   3.796   0.092   2.105 -0.1202  0.6576  0.9465
    1SOL    HW3 2699   3.655   0.096   2.052  0.5967 -0.6762 -1.1031
    1SOL    MW4 2700   3.711   0.078   2.116 -0.1273 -0.3497 -0.3662
    1SOL     OW 2701   1.782   1.662   2.796  0.2556 -0.0022  0.0967
    1SOL    HW2 2702   1.700   1.707   2.776  0.0950  0.8578  2.5548
    1SOL    HW3 2703   1.830   1.722   2.852  2.2405 -0.8463 -0.6145
    1SOL    MW4 2704   1.778   1.676   2.800  0.4964 -0.0001  0.3271
    1SOL     OW 2705   0.479   1.901   0.725 -0.4475  0.5658 -0.2095
    1SOL    HW2 2706   0.425   1.848   0.783  0.7749  0.3147  0.7353
    1SOL    HW3 2707   0.456   1.991   0.744 -0.8365  0.4446 -0.1178
    1SOL    MW4 2708   0.469   1.906   0.735 -0.3375  0.5167 -0.0728
    1SOL     OW 2709   0.112   4.590   2.887  0.3139 -0.2846  0.6744
    1SOL    HW2 2710   0.159   4.509   2.868 -1.0402 -0.6498 -1.3027
    1SOL    HW3 2711   0.059   4.569   2.964 -0.0790 -1.3378  0.1349
    1SOL    MW4 2712   0.111   4.576   2.895  0.0834 -0.4716  0.3424
    1SOL     OW 2713   4.096   0.787   3.873 -0.0382  0.3622 -0.2353
    1SOL    HW2 2714   4.116   0.768   3.781  0.7664 -0.6293  0.1312
    1SOL    HW3 2715   4.104   0.882   3.880  0.1563  0.4194 -1.1313
    1SOL    MW4 2716   4.100   0.797   3.862  0.0935  0.2390 -0.3052
    1SOL     OW 2717   1.348   1.055   3.927  0.1704  0.4936  0.0084
    1SOL    HW2 2718   1.276   1.003   3.963  0.2855  0.9631  0.9340
    1SOL    HW3 2719   1.343   1.040   3.833  0.4953 -1.5495  0.2875
    1SOL    MW4 2720   1.338   1.046   3.920  0.2286  0.2860  0.1671
    1SOL     OW 2721   4.024   4.255   1.919 -0.0347  0.1848 -0.3394
    1SOL    HW2 2722   4.000   4.217   1.835 -0.0313 -1.4638  0.3693
    1SOL    HW3 2723   3.942   4.289   1.955 -0.2572 -0.1953 -0.4849
    1SOL    MW4 2724   4.010   4.254   1.913 -0.0634 -0.0825 -0.2650
    1SOL     OW 2725   0.988   2.498   1.573  0.1529  0.6448 -0.4606
    1SOL    HW2 2726   1.043   2.576   1.584 -0.9349  1.2530  0.8416
    1SOL    HW3 2727   0.912   2.530   1.525 -0.2672  0.3819  0.0288
    1SOL    MW4 2728   0.985   2.513   1.568 -0.0460  0.6905 -0.2242
    1SOL     OW 2729   3.990   1.654   4.125 -0.0769  0.3316 -0.4145
    1SOL    HW2 2730   4.002   1.745   4.153 -1.8206  0.5480 -0.3431
    1SOL    HW3 2731   3.981   1.659   4.030 -3.5839  0.6498 -0.1326
    1SOL    MW4 2732   3.991   1.667   4.116 -0.7696  0.4020 -0.3676
    1SOL     OW 2733   2.444   3.693   0.761  0.1937  0.4683  0.0790
    1SOL    HW2 2734   2.525   3.725   0.802 -0.2103 -0.2262  1.4350
    1SOL    HW3 2735   2.471   3.615   0.713  0.4831  0.7250 -0.1831
    1SOL    MW4 2736   2.459   3.687   0.760  0.1786  0.4106  0.2234
    1SOL     OW 2737   1.669   1.916   4.077 -0.9232 -0.9714  0.2221
    1SOL    HW2 2738   1.650   1.999   4.120 -1.0883  0.1283 -1.9518
    1SOL    HW3 2739   1.754   1.928   4.036 -1.3430 -1.5635 -0.8451
    1SOL    MW4 2740   1.678   1.928   4.078 -1.0004 -0.9044 -0.2050
    1SOL     OW 2741   3.986   1.874   1.457  0.0712  0.0656 -0.1414
    1SOL    HW2 2742   4.012   1.931   1.385 -1.3695 -1.7800 -2.2051
    1SOL    HW3 2743   3.923   1.927   1.507  0.3405  1.0160 -0.7868
    1SOL    MW4 2744   3.981   1.889   1.454 -0.0832 -0.0526 -0.4988
    1SOL     OW 2745   2.067   3.593   1.242  0.5182 -0.0071 -0.3258
    1SOL    HW2 2746   2.028   3.506   1.236  0.2078  0.1880 -1.0557
    1SOL    HW3 2747   2.037   3.640   1.165 -0.2258  1.1253  0.6251
    1SOL    MW4 2748   2.058   3.588   1.231  0.3791  0.1681 -0.2967
    1SOL     OW 2749   1.797   3.828   0.840 -0.4384  0.0845  0.5523
    1SOL    HW2 2750   1.802   3.918   0.873  0.2683  0.8231 -1.5148
    1SOL    HW3 2751   1.705   3.813   0.822 -0.5754  0.3334  1.0499
    1SOL    MW4 2752   1.786   3.838   0.842 -0.3631  0.2151  0.3453
    1SOL     OW 2753   1.701   4.113   1.778 -0.3324 -0.2605  0.0872
    1SOL    HW2 2754   1.710   4.045   1.845 -0.5721  1.7757  2.2535
    1SOL    HW3 2755   1.789   4.147   1.767 -0.6118  0.7381  0.8400
    1SOL    MW4 2756   1.713   4.108   1.786 -0.4008  0.1397  0.4723
    1SOL     OW 2757   0.604   4.395   3.868  0.0679 -0.0100 -0.4920
    1SOL    HW2 2758   0.518   4.435   3.853  0.0959 -0.4287 -1.8372
    1SOL    HW3 2759   0.666   4.468   3.862 -0.0266  0.0054 -1.4023
    1SOL    MW4 2760   0.601   4.410   3.865  0.0592 -0.0634 -0.7899
    1SOL     OW 2761   2.383   4.315   0.667 -0.3103 -0.0915  0.2081
    1SOL    HW2 2762   2.378   4.307   0.762  0.2586 -1.1517  0.1619
    1SOL    HW3 2763   2.475   4.297   0.646 -0.2058  1.1972 -0.4531
    1SOL    MW4 2764   2.395   4.312   0.676 -0.2215 -0.0615  0.1147
    1SOL     OW 2765   2.745   0.948   1.458 -0.6812  0.0802  0.1302
    1SOL    HW2 2766   2.656   0.972   1.486 -0.0431 -0.0376  2.3522
    1SOL    HW3 2767   2.799   0.960   1.536  1.2434 -0.0149 -1.1504
    1SOL    MW4 2768   2.740   0.952   1.472 -0.3431  0.0520  0.2544
    1SOL     OW 2769   2.404   2.378   0.854 -0.1121 -0.3303 -0.0670
    1SOL    HW2 2770   2.361   2.463   0.863  0.5012 -0.2111  1.9509
    1SOL    HW3 2771   2.338   2.315   0.884  0.3624 -0.3359  0.9611
    1SOL    MW4 2772   2.390   2.381   0.859  0.0315 -0.3152  0.3349
    1SOL     OW 2773   2.336   2.387   3.561 -0.2464 -0.1009  0.1280
    1SOL    HW2 2774   2.276   2.405   3.488 -0.3936  1.3458  0.5908
    1SOL    HW3 2775   2.284   2.334   3.622 -0.7493  0.3604  0.1024
    1SOL    MW4 2776   2.321   2.382   3.559 -0.3321  0.1509  0.1855
    1SOL     OW 2777   1.123   4.632   2.063 -0.0455 -0.0717  0.2518
    1SOL    HW2 2778   1.029   4.623   2.047 -0.5958  0.9292  2.6472
    1SOL    HW3 2779   1.157   4.543   2.056 -1.5624 -0.7904  1.5118
    1SOL    MW4 2780   1.115   4.619   2.060 -0.3183 -0.0348  0.7336
    1SOL     OW 2781   4.231   2.712   2.965  0.1860  0.6629  0.1677
    1SOL    HW2 2782   4.137   2.725   2.976  0.4538  1.6518  1.4506
    1SOL    HW3 2783   4.269   2.749   3.045  1.6037 -0.4376  0.0159
    1SOL    MW4 2784   4.224   2.719   2.977  0.4086  0.6483  0.3169
    1SOL     OW 2785   0.405   3.074   1.490  0.1422 -0.5801 -0.2192
    1SOL    HW2 2786   0.324   3.111   1.525  2.2641  1.5090  2.7006
    1SOL    HW3 2787   0.419   3.119   1.407 -1.1229 -0.2096 -0.2446
    1SOL    MW4 2788   0.396   3.085   1.484  0.2553 -0.2556  0.1627
    1SOL     OW 2789   0.698   1.786   2.625 -0.4462 -0.5904  0.2636
    1SOL    HW2 2790   0.685   1.743   2.541 -0.2493 -0.5464  0.2096
    1SOL    HW3 2791   0.611   1.788   2.666 -0.8807  0.9217 -0.6826
    1SOL    MW4 2792   0.685   1.781   2.620 -0.4776 -0.3852  0.1316
    1SOL     OW 2793   0.949   3.430   3.920 -0.1095  0.1366 -0.2781
    1SOL    HW2 2794   0.988   3.372   3.855  0.7564 -0.6794  0.9538
    1SOL    HW3 2795   1.022   3.456   3.976 -0.9844  0.1370  0.8782
    1SOL    MW4 2796   0.964   3.426   3.919 -0.1107  0.0291  0.0370
    1SOL     OW 2797   0.173   4.507   1.939  0.6126  0.1001 -0.2915
    1SOL    HW2 2798   0.148   4.418   1.962  1.6341 -0.1205 -0.0395
    1SOL    HW3 2799   0.253   4.498   1.888 -0.0999  0.7774 -1.5576
    1SOL    MW4 2800   0.180   4.494   1.935  0.6534  0.1602 -0.4252
    1SOL     OW 2801   3.530   3.592   0.824  0.3119 -0.1240 -0.4096
    1SOL    HW2 2802   3.466   3.547   0.878 -0.1039  0.9116 -0.0196
    1SOL    HW3 2803   3.504   3.573   0.734 -0.7856  0.6033 -0.2559
    1SOL    MW4 2804   3.518   3.584   0.819  0.1123  0.1087 -0.3380
    1SOL     OW 2805   2.454   4.599   3.593  0.2490  0.5688 -0.2493
    1SOL    HW2 2806   2.537   4.560   3.620 -0.1240 -0.4407 -0.5147
    1SOL    HW3 2807   2.413   4.532   3.539 -1.3180  0.5240  0.9529
    1SOL    MW4 2808   2.459   4.585   3.590 -0.0069  0.4296 -0.1259
    1SOL     OW 2809   4.470   1.939   4.405 -0.0814  0.9299  0.1076
    1SOL    HW2 2810   4.447   2.007   4.469 -1.9016 -0.7823  1.3038
    1SOL    HW3 2811   4.519   1.874   4.455 -2.4920 -0.9823  0.0343
    1SOL    MW4 2812   4.474   1.940   4.420 -0.6394  0.4518  0.2561
    1SOL     OW 2813   1.153   3.570   0.895 -0.3569  0.4668  0.1531
    1SOL    HW2 2814   1.195   3.491   0.860  1.6743  0.9106  1.5299
    1SOL    HW3 2815   1.062   3.563   0.866 -0.0013 -1.9368 -0.5008
    1SOL    MW4 2816   1.146   3.558   0.887 -0.0418  0.2081  0.2486
    1SOL     OW 2817   4.404   0.472   0.554  0.0820  0.1628  0.2770
    1SOL    HW2 2818   4.390   0.378   0.561 -0.8167  0.2261 -0.5872
    1SOL    HW3 2819   4.370   0.508   0.636 -0.8249 -0.1352  0.0360
    1SOL    MW4 2820   4.397   0.465   0.566 -0.1559  0.1319  0.1311
    1SOL     OW 2821   2.791   0.587   2.719  0.1307 -0.3916  0.1529
    1SOL    HW2 2822   2.713   0.639   2.738  0.0003 -0.9035  1.0715
    1SOL    HW3 2823   2.863   0.641   2.750  0.2654  0.6671 -1.9194
    1SOL    MW4 2824   2.790   0.601   2.726  0.1314 -0.3195  0.0005
    1SOL     OW 2825   0.255   2.265   1.566  0.0773  0.1484 -0.4073
    1SOL    HW2 2826   0.247   2.286   1.659  1.0632  0.2574 -0.3467
    1SOL    HW3 2827   0.281   2.348   1.525 -2.9935  0.7898 -1.1740
    1SOL    MW4 2828   0.257   2.279   1.572 -0.1977  0.2475 -0.5006
    1SOL     OW 2829   2.303   0.798   3.236  0.2325 -0.2567  0.5367
    1SOL    HW2 2830   2.295   0.893   3.225  1.5159 -0.0809  1.0360
    1SOL    HW3 2831   2.304   0.786   3.331 -1.9830 -0.9721  0.5068
    1SOL    MW4 2832   2.302   0.809   3.247  0.1097 -0.3279  0.5989
    1SOL     OW 2833   4.139   3.208   3.730 -0.2939  0.0741  0.1335
    1SOL    HW2 2834   4.148   3.113   3.735 -0.1796  0.1057  0.5114
    1SOL    HW3 2835   4.224   3.241   3.757 -0.2198  0.2787 -0.3321
    1SOL    MW4 2836   4.152   3.200   3.734 -0.2685  0.1054  0.1221
    1SOL     OW 2837   2.869   2.414   1.262 -0.8737 -0.1074 -0.4044
    1SOL    HW2 2838   2.870   2.448   1.352 -0.8205 -0.0045 -0.4440
    1SOL    HW3 2839   2.868   2.319   1.273  0.4197 -0.1158 -0.3013
    1SOL    MW4 2840   2.869   2.406   1.275 -0.6959 -0.0951 -0.3960
    1SOL     OW 2841   3.027   2.636   1.581 -0.4826 -0.1158 -0.4333
    1SOL    HW2 2842   3.029   2.682   1.665 -0.3227  0.1995 -0.6096
    1SOL    HW3 2843   3.118   2.611   1.565 -0.6615 -1.0365 -0.0405
    1SOL    MW4 2844   3.039   2.639   1.590 -0.4852 -0.1957 -0.4048
    1SOL     OW 2845   1.317   1.709   2.236 -0.1890  0.1839  0.1292
    1SOL    HW2 2846   1.244   1.657   2.269 -0.7259  0.5968 -0.3916
    1SOL    HW3 2847   1.392   1.682   2.289 -0.0501 -2.3970 -1.2729
    1SOL    MW4 2848   1.317   1.698   2.247 -0.2416 -0.1022 -0.1245
    1SOL     OW 2849   1.080   1.239   2.917 -0.1232  0.3526 -0.3223
    1SOL    HW2 2850   1.017   1.169   2.900  1.8591 -1.3794 -0.8070
    1SOL    HW3 2851   1.073   1.296   2.840  2.0286 -2.2851 -2.5807
    1SOL    MW4 2852   1.071   1.237   2.904  0.4222 -0.2240 -0.6843
    1SOL     OW 2853   1.560   0.846   4.000  0.0271  0.1052 -0.0799
    1SOL    HW2 2854   1.587   0.825   3.911  0.0422  0.5713 -0.1878
    1SOL    HW3 2855   1.506   0.925   3.991 -1.7700 -1.0692  0.0708
    1SOL    MW4 2856   1.556   0.854   3.987 -0.2081  0.0117 -0.0741
    1SOL     OW 2857   2.168   0.781   2.262  0.0384  0.0693  0.1004
    1SOL    HW2 2858   2.090   0.770   2.207  0.1350  1.8071 -0.3930
    1SOL    HW3 2859   2.192   0.691   2.287 -0.7019 -0.6502 -1.6978
    1SOL    MW4 2860   2.161   0.768   2.258 -0.0467  0.2037 -0.2019
    1SOL     OW 2861   4.040   4.604   2.356 -0.2313 -0.2681 -0.0911
    1SOL    HW2 2862   4.052   4.581   2.448 -2.2059 -2.3929 -0.3469
    1SOL    HW3 2863   4.123   4.580   2.314  0.3251 -0.1680  0.9502
    1SOL    MW4 2864   4.053   4.598   2.362 -0.4187 -0.5350  0.0124
    1SOL     OW 2865   1.230   2.451   0.700 -0.5613  0.1984 -0.1094
    1SOL    HW2 2866   1.247   2.525   0.642 -0.5904  0.4475  0.1974
    1SOL    HW3 2867   1.312   2.438   0.748  0.2337 -1.5096 -1.8751
    1SOL    MW4 2868   1.243   2.459   0.699 -0.4603  0.0060 -0.3020
    1SOL     OW 2869   1.930   0.534   1.655 -0.3465 -0.7118  0.1560
    1SOL    HW2 2870   1.839   0.512   1.674 -0.4442 -0.2971  0.1694
    1SOL    HW3 2871   1.962   0.575   1.735 -0.4600  0.1107 -0.2189
    1SOL    MW4 2872   1.922   0.537   1.668 -0.3744 -0.5485  0.1084
    1SOL     OW 2873   2.636   0.163   4.402 -0.0946  0.1204  0.0777
    1SOL    HW2 2874   2.581   0.135   4.328  0.5252 -2.6295  0.5731
    1SOL    HW3 2875   2.594   0.241   4.435 -1.4179  0.3615 -2.0704
    1SOL    MW4 2876   2.623   0.169   4.396 -0.1876 -0.2106 -0.1402
    1SOL     OW 2877   0.467   2.920   0.937  0.0303  0.0389  0.5132
    1SOL    HW2 2878   0.510   2.893   0.856  0.1061 -0.5883  0.7645
    1SOL    HW3 2879   0.428   2.840   0.972 -1.4122  0.6128  0.2528
    1SOL    MW4 2880   0.467   2.906   0.931 -0.1500  0.0319  0.5120
    1SOL     OW 2881   0.217   2.776   1.477 -0.4793 -0.1217 -0.1976
    1SOL    HW2 2882   0.300   2.771   1.524 -1.0494  0.4414  0.8847
    1SOL    HW3 2883   0.242   2.798   1.387  0.7025 -2.4493 -0.4927
    1SOL    MW4 2884   0.231   2.778   1.471 -0.3986 -0.3548 -0.0936
    1SOL     OW 2885   1.635   3.068   0.899  0.4455  0.1844  0.2455
    1SOL    HW2 2886   1.576   3.137   0.929 -1.3002 -0.9115 -0.5388
    1SOL    HW3 2887   1.722   3.108   0.900 -0.4379  2.1590  0.4908
    1SOL    MW4 2888   1.638   3.082   0.903  0.0987  0.3004  0.1743
    1SOL     OW 2889   0.031   0.115   2.039  0.1375 -0.1505  0.6561
    1SOL    HW2 2890   0.096   0.056   2.000  0.3109 -0.7595  1.8398
    1SOL    HW3 2891   0.078   0.198   2.052  0.6425 -0.5381  1.3519
    1SOL    MW4 2892   0.046   0.118   2.036  0.2270 -0.2820  0.9041
    1SOL     OW 2893   0.397   2.472   1.423  0.0135 -0.0606 -0.3566
    1SOL    HW2 2894   0.473   2.418   1.441  1.8534  2.2284 -1.0234
    1SOL    HW3 2895   0.432   2.551   1.383 -2.7179  1.0536 -0.6985
    1SOL    MW4 2896   0.411   2.475   1.420 -0.1041  0.3886 -0.4898
    1SOL     OW 2897   4.462   1.533   2.147 -0.1174 -0.4485  0.5262
    1SOL    HW2 2898   4.492   1.584   2.222  1.3360  1.2446 -1.1511
    1SOL    HW3 2899   4.541   1.489   2.115 -0.6285 -0.7356 -0.3419
    1SOL    MW4 2900   4.477   1.534   2.153  0.0072 -0.2630  0.1905
    1SOL     OW 2901   2.890   2.392   1.540 -0.0653  0.2129  0.1432
    1SOL    HW2 2902   2.917   2.482   1.556  0.8157 -0.1792  0.9359
    1SOL    HW3 2903   2.947   2.340   1.597 -0.7646 -0.8186 -0.0952
    1SOL    MW4 2904   2.901   2.397   1.549 -0.0417  0.0250  0.2162
    1SOL     OW 2905   1.122   2.110   3.258 -0.1268  0.3119 -0.2187
    1SOL    HW2 2906   1.194   2.134   3.200  0.1372  1.4280  0.5621
    1SOL    HW3 2907   1.107   2.188   3.312 -0.3945 -0.6816  1.1786
    1SOL    MW4 2908   1.129   2.123   3.258 -0.1272  0.3281  0.0691
    1SOL     OW 2909   1.699   3.965   3.417 -0.1156 -0.2595  0.8998
    1SOL    HW2 2910   1.681   3.905   3.489  0.4980 -0.6954  0.6975
    1SOL    HW3 2911   1.702   3.909   3.339  1.6088 -0.1509  0.8632
    1SOL    MW4 2912   1.697   3.950   3.416  0.1928 -0.3028  0.8683
    1SOL     OW 2913   2.588   3.550   4.392  0.2810  0.1969 -0.2970
    1SOL    HW2 2914   2.523   3.618   4.409  0.4463  0.8988 -2.3044
    1SOL    HW3 2915   2.572   3.524   4.301  0.8253 -1.8004  0.1706
    1SOL    MW4 2916   2.578   3.556   4.382  0.3746  0.0262 -0.5007
    1SOL     OW 2917   0.904   3.167   2.645 -0.0482 -0.3589  0.0462
    1SOL    HW2 2918   0.921   3.253   2.606 -0.6763 -0.0695  0.3983
    1SOL    HW3 2919   0.842   3.126   2.585  0.2620 -0.5795 -0.1291
    1SOL    MW4 2920   0.898   3.173   2.632 -0.0901 -0.3498  0.0696
    1SOL     OW 2921   2.903   2.141   1.295 -0.3178 -0.2358 -0.5335
    1SOL    HW2 2922   2.946   2.114   1.377 -2.7839 -1.0791  0.5440
    1SOL    HW3 2923   2.960   2.107   1.226  1.3385 -0.3028  0.8173
    1SOL    MW4 2924   2.917   2.133   1.297 -0.4244 -0.3557 -0.2131
    1SOL     OW 2925   0.792   0.845   2.383 -0.1554  0.0465  0.3673
    1SOL    HW2 2926   0.837   0.768   2.417  1.5004  0.5483 -0.6266
    1SOL    HW3 2927   0.834   0.919   2.426 -1.6589  0.4155  1.2281
    1SOL    MW4 2928   0.803   0.844   2.393 -0.1354  0.1613  0.3498
    1SOL     OW 2929   3.008   1.780   4.063  0.2154 -0.0904 -0.1859
    1SOL    HW2 2930   3.099   1.759   4.082  0.3101 -0.1414 -0.7126
    1SOL    HW3 2931   2.981   1.837   4.136  1.1955  1.3906 -0.9739
    1SOL    MW4 2932   3.016   1.785   4.075  0.3574  0.0982 -0.3591
    1SOL     OW 2933   2.974   4.208   2.424  0.1127  0.3933  0.3246
    1SOL    HW2 2934   2.879   4.224   2.427 -0.2453 -0.9682 -2.3022
    1SOL    HW3 2935   3.011   4.291   2.394 -0.3161  0.6723  0.5545
    1SOL    MW4 2936   2.966   4.221   2.421  0.0088  0.2503  0.0086
    1SOL     OW 2937   3.794   4.498   4.527 -0.0659  0.0951 -0.1199
    1SOL    HW2 2938   3.721   4.552   4.557  0.6392 -0.0898  1.9748
    1SOL    HW3 2939   3.860   4.504   4.596  1.2537 -1.0543 -1.2222
    1SOL    MW4 2940   3.793   4.506   4.540  0.2012 -0.0811  0.0105
    1SOL     OW 2941   4.208   0.290   1.530  0.1477  0.0571  0.4065
    1SOL    HW2 2942   4.123   0.294   1.487  0.4601 -0.5799 -0.2746
    1SOL    HW3 2943   4.263   0.240   1.470  1.7677  2.7748 -0.4917
    1SOL    MW4 2944   4.204   0.284   1.517  0.4025  0.3317  0.1981
    1SOL     OW 2945   2.041   2.539   2.282 -0.4687  0.1375 -0.3832
    1SOL    HW2 2946   2.041   2.444   2.270 -0.8025  0.1887 -0.7773
    1SOL    HW3 2947   2.004   2.574   2.201  2.0704  0.7461 -1.3234
    1SOL    MW4 2948   2.036   2.531   2.270 -0.1776  0.2246 -0.5593
    1SOL     OW 2949   0.786   0.441   4.417 -0.9747 -0.1202  0.2858
    1SOL    HW2 2950   0.808   0.500   4.489 -3.4742  0.8158  0.3688
    1SOL    HW3 2951   0.855   0.376   4.416  2.0590  2.9454  0.0523
    1SOL    MW4 2952   0.798   0.440   4.426 -0.9042  0.4078  0.2656
    1SOL     OW 2953   0.308   2.042   1.405  0.3826 -0.0399 -0.3590
    1SOL    HW2 2954   0.266   2.109   1.459  0.4156  0.3232 -0.7812
    1SOL    HW3 2955   0.400   2.044   1.432  0.4724  0.4026 -0.6958
    1SOL    MW4 2956   0.314   2.051   1.416  0.3988  0.0663 -0.4590
    1SOL     OW 2957   3.983   0.870   0.396 -0.1823  0.4613  0.5038
    1SOL    HW2 2958   4.034   0.790   0.381 -1.1199 -0.3425  1.5337
    1SOL    HW3 2959   4.005   0.895   0.486 -2.0840 -0.2618  1.2011
    1SOL    MW4 2960   3.993   0.863   0.406 -0.5572  0.2599  0.7317
    1SOL     OW 2961   2.522   1.893   4.072  0.2508  0.7916 -0.4546
    1SOL    HW2 2962   2.576   1.911   4.149  0.4317  0.0823 -0.4141
    1SOL    HW3 2963   2.566   1.821   4.027 -0.4680  0.4393 -0.6086
    1SOL    MW4 2964   2.535   1.886   4.076  0.1798  0.6517 -0.4692
    1SOL     OW 2965   3.872   0.805   2.034  0.1930  0.1975  0.2049
    1SOL    HW2 2966   3.877   0.722   1.987  0.8811 -0.2223  0.9992
    1SOL    HW3 2967   3.833   0.782   2.119 -1.0488  0.9463 -0.1538
    1SOL    MW4 2968   3.867   0.791   2.039  0.1197  0.2409  0.2625
    1SOL     OW 2969   1.148   1.103   0.803 -0.2868 -0.4793 -0.2441
    1SOL    HW2 2970   1.111   1.028   0.850  0.0294  0.0741  0.9065
    1SOL    HW3 2971   1.114   1.180   0.850  2.4452  0.0484  0.9924
    1SOL    MW4 2972   1.138   1.103   0.816  0.1154 -0.3369  0.0709
    1SOL     OW 2973   0.242   2.122   3.555 -0.2251  0.2851  0.4794
    1SOL    HW2 2974   0.245   2.027   3.542  0.9905  0.1371  1.7596
    1SOL    HW3 2975   0.266   2.159   3.470 -0.0810 -0.5599  0.1517
    1SOL    MW4 2976   0.245   2.114   3.542 -0.0457  0.1540  0.6051
    1SOL     OW 2977   0.367   4.559   2.147  0.0564 -0.0327 -0.0923
    1SOL    HW2 2978   0.281   4.554   2.106 -0.9710 -0.0459  1.9794
    1SOL    HW3 2979   0.412   4.480   2.119 -1.0428 -0.6095 -0.2378
    1SOL    MW4 2980   0.361   4.548   2.138 -0.2242 -0.1101  0.1616
    1SOL     OW 2981   0.794   0.398   2.323  0.8398  0.1879 -0.0087
    1SOL    HW2 2982   0.713   0.351   2.303  0.0399  0.5760  2.1783
    1SOL    HW3 2983   0.838   0.341   2.387  0.9605  1.2737  0.8872
    1SOL    MW4 2984   0.789   0.384   2.329  0.7502  0.3823  0.3979
    1SOL     OW 2985   2.870   0.834   4.009  0.0981 -0.0259  0.4306
    1SOL    HW2 2986   2.946   0.885   3.981  0.8992 -0.6075  1.5229
    1SOL    HW3 2987   2.906   0.761   4.059 -1.0875 -1.2012 -0.3852
    1SOL    MW4 2988   2.884   0.831   4.012  0.0472 -0.2576  0.4673
    1SOL     OW 2989   3.229   0.027   4.436  0.3431 -0.1015 -0.3143
    1SOL    HW2 2990   3.312   0.017   4.484 -0.3411  0.5754  1.0270
    1SOL    HW3 2991   3.204  -0.063   4.413 -1.0016 -0.7937  3.5136
    1SOL    MW4 2992   3.237   0.014   4.439  0.0753 -0.1035  0.3672
    1SOL     OW 2993   3.334   2.179   4.361  0.8992 -0.8228  0.2642
    1SOL    HW2 2994   3.262   2.118   4.378  0.3988 -0.8052 -1.6976
    1SOL    HW3 2995   3.412   2.123   4.362  0.5346 -1.3657 -0.5960
    1SOL    MW4 2996   3.335   2.163   4.363  0.7851 -0.8922 -0.1082
    1SOL     OW 2997   2.732   0.579   4.473  0.4777 -0.0318  0.3233
    1SOL    HW2 2998   2.772   0.492   4.472  0.9739  0.1784 -2.7060
    1SOL    HW3 2999   2.644   0.566   4.438  0.2578  0.5655  0.6368
    1SOL    MW4 3000   2.726   0.566   4.468  0.5140  0.0747 -0.0348
    1SOL     OW 3001   3.587   2.222   1.512 -0.2187  0.2660  0.3003
    1SOL    HW2 3002   3.586   2.285   1.584  0.7780  0.3243  0.2762
    1SOL    HW3 3003   3.495   2.203   1.495 -0.4480 -0.7361  2.4499
    1SOL    MW4 3004   3.575   2.228   1.519 -0.1175  0.1414  0.5808
    1SOL     OW 3005   3.362   1.808   4.371 -0.0057 -0.5707 -0.1454
    1SOL    HW2 3006   3.345   1.716   4.392  0.0905 -0.3240  1.0839
    1SOL    HW3 3007   3.455   1.812   4.351 -0.1845 -0.8902 -1.0545
    1SOL    MW4 3008   3.372   1.797   4.371 -0.0165 -0.5803 -0.1030
    1SOL     OW 3009   2.645   2.623   3.452  0.0055  0.5878 -0.1239
    1SOL    HW2 3010   2.581   2.604   3.384 -1.9971  0.0795  1.8263
    1SOL    HW3 3011   2.730   2.615   3.409 -1.1649 -1.0146 -2.2099
    1SOL    MW4 3012   2.647   2.620   3.438 -0.4134  0.3095 -0.1419
    1SOL     OW 3013   3.794   0.763   3.617 -0.5011 -0.0121 -0.3427
    1SOL    HW2 3014   3.804   0.850   3.656 -0.2276 -0.1480 -0.1066
    1SOL    HW3 3015   3.744   0.713   3.682 -1.4862  0.2456 -0.8967
    1SOL    MW4 3016   3.789   0.768   3.631 -0.5951  0.0041 -0.3843
    1SOL     OW 3017   4.464   1.669   1.013 -0.2053 -0.1960 -0.0686
    1SOL    HW2 3018   4.370   1.675   0.992 -0.6756 -1.1948  1.6911
    1SOL    HW3 3019   4.467   1.619   1.094  1.8189  0.6054  0.3657
    1SOL    MW4 3020   4.452   1.663   1.021  0.0000 -0.2220  0.2208
    1SOL     OW 3021   2.726   3.675   3.882  0.2122 -0.6284 -0.3251
    1SOL    HW2 3022   2.660   3.614   3.848  0.2348 -0.0657 -1.4021
    1SOL    HW3 3023   2.760   3.720   3.805 -0.1609  1.1055  0.4865
    1SOL    MW4 3024   2.722   3.673   3.868  0.1662 -0.3252 -0.3603
    1SOL     OW 3025   1.860   2.084   1.112 -0.2387  0.0903  0.0189
    1SOL    HW2 3026   1.769   2.078   1.084 -0.0495 -0.6154 -0.4620
    1SOL    HW3 3027   1.872   2.176   1.137 -1.1845  0.0935  0.4634
    1SOL    MW4 3028   1.850   2.096   1.112 -0.3386 -0.0024  0.0142
    1SOL     OW 3029   2.444   2.408   2.801  0.0898 -0.3161 -0.0087
    1SOL    HW2 3030   2.538   2.399   2.787  0.1439 -0.0927  0.2018
    1SOL    HW3 3031   2.436   2.458   2.882 -0.1924  0.8353 -0.7143
    1SOL    MW4 3032   2.455   2.414   2.810  0.0598 -0.1347 -0.0744
    1SOL     OW 3033   2.225   0.788   1.197  0.1089 -0.2205 -0.0166
    1SOL    HW2 3034   2.270   0.709   1.168 -1.5617 -1.0125 -0.5193
    1SOL    HW3 3035   2.275   0.860   1.158  1.2700 -1.0445 -0.0787
    1SOL    MW4 3036   2.237   0.787   1.188  0.0415 -0.4337 -0.0911
    1SOL     OW 3037   3.757   1.460   3.596  0.2798  0.3780  0.3721
    1SOL    HW2 3038   3.769   1.486   3.505  1.1714 -2.5999 -0.4118
    1SOL    HW3 3039   3.714   1.535   3.637  0.9687  2.2372 -2.2018
    1SOL    MW4 3040   3.753   1.473   3.589  0.4880  0.2302 -0.0710
    1SOL     OW 3041   1.647   1.151   2.144  0.0779 -0.2979 -0.3208
    1SOL    HW2 3042   1.674   1.133   2.234 -0.0960  0.0829 -0.1908
    1SOL    HW3 3043   1.673   1.243   2.130 -0.7292 -0.0776 -0.3538
    1SOL    MW4 3044   1.654   1.161   2.154 -0.0515 -0.2185 -0.3078
    1SOL     OW 3045   2.420   2.673   1.121 -0.1189 -0.7576 -0.3102
    1SOL    HW2 3046   2.463   2.587   1.121 -0.5707 -1.0380 -3.4634
    1SOL    HW3 3047   2.353   2.666   1.053 -1.6657  1.4047  0.9155
    1SOL    MW4 3048   2.416   2.661   1.112 -0.3827 -0.5093 -0.5643
    1SOL     OW 3049   1.578   0.179   1.046  0.3712  0.7093 -0.1507
    1SOL    HW2 3050   1.591   0.274   1.042 -0.0845  0.7353 -1.0192
    1SOL    HW3 3051   1.511   0.167   1.113 -1.0884  1.1415 -1.5279
    1SOL    MW4 3052   1.571   0.190   1.054  0.1184  0.7697 -0.4470
    1SOL     OW 3053   3.603   2.978   0.979 -0.0982 -0.0889  0.2752
    1SOL    HW2 3054   3.628   3.053   0.926  2.7692 -1.0563  0.1780
    1SOL    HW3 3055   3.557   3.015   1.054 -1.8943  1.4668 -1.5349
    1SOL    MW4 3056   3.600   2.993   0.982  0.0432 -0.0117  0.0235
    1SOL     OW 3057   1.886   0.205   1.517  0.2857  0.1646  0.6194
    1SOL    HW2 3058   1.803   0.248   1.537 -1.0561 -2.7104  1.5394
    1SOL    HW3 3059   1.941   0.223   1.593  0.4225  1.8408  0.1352
    1SOL    MW4 3060   1.883   0.213   1.530  0.1267  0.0064  0.6769
    1SOL     OW 3061   2.972   0.328   4.179 -0.1085  1.2709 -0.2895
    1SOL    HW2 3062   2.934   0.351   4.095 -0.3398  0.9429 -0.2739
    1SOL    HW3 3063   3.058   0.291   4.158 -0.1492  1.2276 -0.3759
    1SOL    MW4 3064   2.979   0.327   4.165 -0.1445  1.2219 -0.2985
    1SOL     OW 3065   3.923   3.025   4.621  0.5355 -0.0604  0.5129
    1SOL    HW2 3066   3.914   3.045   4.715 -1.7340 -0.2595  0.3706
    1SOL    HW3 3067   3.912   3.110   4.578 -0.1450 -0.2354  0.3433
    1SOL    MW4 3068   3.920   3.039   4.628  0.1464 -0.1097  0.4721
    1SOL     OW 3069   1.911   3.164   0.615  0.2648  0.5777  0.4008
    1SOL    HW2 3070   1.828   3.119   0.600  1.4296 -1.2362 -0.7952
    1SOL    HW3 3071   1.889   3.257   0.607 -1.5477  0.1138 -0.4210
    1SOL    MW4 3072   1.897   3.170   0.612  0.1794  0.2770  0.1345
    1SOL     OW 3073   1.635   2.681   1.491 -0.3245 -0.2780  0.0406
    1SOL    HW2 3074   1.703   2.628   1.450  0.4285  0.6449  0.0968
    1SOL    HW3 3075   1.582   2.618   1.541  1.7624 -0.7225  1.7495
    1SOL    MW4 3076   1.637   2.666   1.493  0.0501 -0.2148  0.2736
    1SOL     OW 3077   4.033   0.934   2.451  0.7535  0.2073  0.0626
    1SOL    HW2 3078   3.998   0.855   2.491  1.6090 -0.0067  0.4015
    1SOL    HW3 3079   4.128   0.920   2.449  0.8674  0.9996 -0.3497
    1SOL    MW4 3080   4.041   0.922   2.456  0.8817  0.2836  0.0532
    1SOL     OW 3081   3.685   2.426   4.186  0.5426 -0.3997  0.4414
    1SOL    HW2 3082   3.695   2.362   4.256  1.3458 -0.9541 -0.1632
    1SOL    HW3 3083   3.695   2.375   4.106 -0.0058  0.2874 -0.0630
    1SOL    MW4 3084   3.688   2.411   4.185  0.5763 -0.3819  0.2952
    1SOL     OW 3085   0.680   3.261   0.975 -0.0621 -0.0537 -0.3980
    1SOL    HW2 3086   0.585   3.259   0.987 -0.0097 -0.6104 -0.0350
    1SOL    HW3 3087   0.707   3.346   1.009 -0.3050 -0.3122  0.4543
    1SOL    MW4 3088   0.671   3.272   0.981 -0.0872 -0.1612 -0.2377
    1SOL     OW 3089   0.655   3.377   2.375  0.1346 -0.0449  0.1538
    1SOL    HW2 3090   0.600   3.333   2.440 -0.9835  0.2157 -0.5917
    1SOL    HW3 3091   0.655   3.317   2.300  0.8268 -0.0097  0.1212
    1SOL    MW4 3092   0.648   3.363   2.374  0.0783 -0.0060  0.0510
    1SOL     OW 3093   2.007   3.751   3.354  0.5831 -0.3000  0.4034
    1SOL    HW2 3094   2.057   3.678   3.320  0.6566  0.2782 -0.7564
    1SOL    HW3 3095   1.917   3.718   3.360  0.8736 -0.9431  1.3007
    1SOL    MW4 3096   2.002   3.737   3.350  0.6313 -0.3085  0.3686
    1SOL     OW 3097   1.163   1.101   1.119 -0.1519  0.0613  0.2598
    1SOL    HW2 3098   1.188   1.034   1.183 -0.1676  0.3407  0.5566
    1SOL    HW3 3099   1.080   1.070   1.083  0.2803 -0.5309 -0.2494
    1SOL    MW4 3100   1.156   1.088   1.122 -0.0968  0.0200  0.2317
    1SOL     OW 3101   3.162   0.622   2.411 -0.0875 -0.5731  0.2716
    1SOL    HW2 3102   3.208   0.539   2.397  0.9314  0.1247 -0.5969
    1SOL    HW3 3103   3.186   0.649   2.499 -0.4386 -1.2072  0.5652
    1SOL    MW4 3104   3.171   0.614   2.421  0.0007 -0.5648  0.1957
    1SOL     OW 3105   0.260   4.596   3.309 -0.4860  0.5331  0.1377
    1SOL    HW2 3106   0.180   4.544   3.320  0.3632 -0.8546 -0.0764
    1SOL    HW3 3107   0.270   4.604   3.214 -0.2511  0.5014  0.1588
    1SOL    MW4 3108   0.251   4.590   3.298 -0.3429  0.3462  0.1125
    1SOL     OW 3109   2.634   0.131   3.072  0.2673 -0.3136  0.2977
    1SOL    HW2 3110   2.672   0.063   3.017 -0.8301  0.3380 -1.2791
    1SOL    HW3 3111   2.595   0.083   3.146 -1.0374 -1.4591 -1.1055
    1SOL    MW4 3112   2.634   0.116   3.075 -0.0498 -0.3788 -0.0956
    1SOL     OW 3113   2.401   0.216   3.359  0.1530  0.8568 -0.0602
    1SOL    HW2 3114   2.328   0.163   3.392  2.4460 -1.4923  1.5378
    1SOL    HW3 3115   2.381   0.230   3.267 -1.7876 -0.6990  0.0775
    1SOL    MW4 3116   2.389   0.211   3.351  0.1993  0.3416  0.1688
    1SOL     OW 3117   3.172   1.124   1.716 -0.5982  0.3326  0.2712
    1SOL    HW2 3118   3.243   1.136   1.653 -1.3704 -2.8445 -1.3059
    1SOL    HW3 3119   3.214   1.124   1.802  0.9092  1.3117 -0.4586
    1SOL    MW4 3120   3.187   1.126   1.719 -0.5012  0.0427 -0.0330
    1SOL     OW 3121   0.718   1.925   4.439  0.1161  0.0530 -0.0253
    1SOL    HW2 3122   0.802   1.928   4.484  0.1557 -1.2841 -0.0011
    1SOL    HW3 3123   0.671   2.003   4.470  1.2878  0.7374  0.0508
    1SOL    MW4 3124   0.723   1.936   4.449  0.2759 -0.0333 -0.0124
    1SOL     OW 3125   0.430   1.582   3.933  0.2745 -0.1751  0.4657
    1SOL    HW2 3126   0.463   1.493   3.917 -2.3809 -1.0625 -0.2355
    1SOL    HW3 3127   0.376   1.602   3.857 -3.0384  0.1566  2.8152
    1SOL    MW4 3128   0.428   1.573   3.921 -0.5129 -0.2483  0.6831
    1SOL     OW 3129   2.758   0.887   3.098 -0.5378  0.3046  0.6322
    1SOL    HW2 3130   2.851   0.902   3.079 -1.0965 -0.3899 -2.9133
    1SOL    HW3 3131   2.724   0.973   3.120  0.6691  0.7802  0.7193
    1SOL    MW4 3132   2.766   0.900   3.099 -0.4523  0.2757  0.1757
    1SOL     OW 3133   4.342   2.949   1.392 -0.5027  0.0496  0.2223
    1SOL    HW2 3134   4.265   2.997   1.421 -0.9422 -0.2538 -0.4309
    1SOL    HW3 3135   4.394   2.935   1.471 -0.2980  1.7414  0.4023
    1SOL    MW4 3136   4.339   2.954   1.406 -0.5345  0.2329  0.1599
    1SOL     OW 3137   2.208   0.987   2.089 -0.0260 -0.3342 -0.0312
    1SOL    HW2 3138   2.212   0.921   2.159 -0.1856 -0.2321  0.0766
    1SOL    HW3 3139   2.190   0.937   2.010  2.4485 -0.7062 -0.3908
    1SOL    MW4 3140   2.206   0.972   2.088  0.2792 -0.3698 -0.0646
    1SOL     OW 3141   1.316   1.746   0.719 -0.0161  0.6734  0.1737
    1SOL    HW2 3142   1.305   1.651   0.724 -0.2462  0.6323 -0.8388
    1SOL    HW3 3143   1.242   1.775   0.665  0.1380  1.4096  0.3542
    1SOL    MW4 3144   1.305   1.738   0.712 -0.0262  0.7651  0.0640
    1SOL     OW 3145   2.726   0.900   2.423 -0.8006  0.0309 -0.2549
    1SOL    HW2 3146   2.699   0.966   2.359 -2.0787  0.3239  0.5743
    1SOL    HW3 3147   2.677   0.822   2.398 -0.2481 -0.2505 -0.4665
    1SOL    MW4 3148   2.716   0.898   2.411 -0.8962  0.0325 -0.1736
    1SOL     OW 3149   3.833   3.505   2.759  0.2787  0.3885  0.3327
    1SOL    HW2 3150   3.915   3.462   2.735 -0.8347 -1.6310  0.0060
    1SOL    HW3 3151   3.849   3.598   2.744  2.1904 -0.0713 -0.6464
    1SOL    MW4 3152   3.846   3.511   2.754  0.3841  0.0615  0.1605
    1SOL     OW 3153   1.626   2.613   3.811 -0.1526  0.9205 -0.0623
    1SOL    HW2 3154   1.620   2.570   3.725  0.9588  1.3048 -0.3444
    1SOL    HW3 3155   1.597   2.547   3.873  0.5281  0.1178 -0.5942
    1SOL    MW4 3156   1.621   2.599   3.808  0.0837  0.8655 -0.1698
    1SOL     OW 3157   0.241   2.462   2.507 -0.0386 -0.3993 -0.8044
    1SOL    HW2 3158   0.299   2.418   2.568 -1.5142 -0.1033  0.8544
    1SOL    HW3 3159   0.290   2.540   2.480 -0.1024  0.4647  1.4706
    1SOL    MW4 3160   0.255   2.467   2.512 -0.2418 -0.2463 -0.2854
    1SOL     OW 3161   1.741   3.028   3.332 -0.0994 -0.3446  0.2053
    1SOL    HW2 3162   1.825   3.002   3.371 -0.8847 -0.6932  1.7183
    1SOL    HW3 3163   1.711   2.950   3.286  0.0021 -0.5077  0.4109
    1SOL    MW4 3164   1.748   3.014   3.331 -0.1895 -0.4120  0.4320
    1SOL     OW 3165   0.278   1.449   3.079 -0.3597 -0.2819  0.4734
    1SOL    HW2 3166   0.200   1.412   3.121  0.4225 -1.5649  0.8229
    1SOL    HW3 3167   0.302   1.385   3.012  0.2627  0.2036  0.2274
    1SOL    MW4 3168   0.271   1.436   3.076 -0.1744 -0.3871  0.4869
    1SOL     OW 3169   3.418   2.822   1.716 -0.4097 -0.3167 -0.4197
    1SOL    HW2 3170   3.355   2.809   1.787  0.3825 -0.7947  0.2113
    1SOL    HW3 3171   3.484   2.881   1.754  1.9292 -3.3749  0.4829
    1SOL    MW4 3172   3.418   2.828   1.730  0.0033 -0.7834 -0.2173
    1SOL     OW 3173   0.693   0.183   2.922  0.1121 -0.4633  0.6321
    1SOL    HW2 3174   0.635   0.259   2.935  1.5673  0.6651  0.7223
    1SOL    HW3 3175   0.665   0.145   2.839  0.3616  1.1242 -0.1999
    1SOL    MW4 3176   0.682   0.188   2.913  0.3369 -0.1050  0.5343
    1SOL     OW 3177   1.244   0.007   4.201  0.0042 -0.0047  0.0499
    1SOL    HW2 3178   1.216   0.098   4.211 -0.0472 -0.0569  0.3701
    1SOL    HW3 3179   1.290   0.006   4.117 -1.7131 -0.1041 -0.9231
    1SOL    MW4 3180   1.246   0.019   4.191 -0.2291 -0.0238 -0.0362
    1SOL     OW 3181   1.862   3.066   4.011  0.0601  0.2136  0.1117
    1SOL    HW2 3182   1.936   3.106   3.964 -0.4791 -0.0475 -0.9750
    1SOL    HW3 3183   1.823   3.005   3.947 -0.7608 -0.0544  0.8602
    1SOL    MW4 3184   1.867   3.063   3.996 -0.1194  0.1435  0.0672
    1SOL     OW 3185   1.844   1.307   2.513  0.4123 -0.3479 -0.0013
    1SOL    HW2 3186   1.809   1.373   2.454  0.2219 -1.0581 -0.6913
    1SOL    HW3 3187   1.800   1.226   2.488 -0.5559 -0.4300  1.9044
    1SOL    MW4 3188   1.834   1.305   2.502  0.2594 -0.4524  0.1590
    1SOL     OW 3189   1.954   1.640   0.980 -0.5416 -0.0838 -0.7437
    1SOL    HW2 3190   2.038   1.641   1.027 -1.7075  0.1690  1.3550
    1SOL    HW3 3191   1.979   1.655   0.888  1.7249 -0.1845 -0.1849
    1SOL    MW4 3192   1.969   1.642   0.974 -0.3965 -0.0638 -0.3932
    1SOL     OW 3193   3.372   1.245   2.583  0.0030 -0.3471 -0.4946
    1SOL    HW2 3194   3.312   1.174   2.606 -1.8192  1.1579 -0.5774
    1SOL    HW3 3195   3.340   1.279   2.500  0.4019  1.1040 -0.0685
    1SOL    MW4 3196   3.360   1.240   2.575 -0.1850  0.0429 -0.4492
    1SOL     OW 3197   0.053   2.052   3.756  0.2149 -0.1585  0.3205
    1SOL    HW2 3198   0.109   2.105   3.699 -1.0999  2.4965  1.3719
    1SOL    HW3 3199   0.105   2.039   3.835 -0.5621  2.2494  1.2729
    1SOL    MW4 3200   0.067   2.058   3.759 -0.0611  0.5097  0.5846
    1SOL     OW 3201   2.194   2.827   1.855 -0.4655  0.2547  0.4260
    1SOL    HW2 3202   2.204   2.900   1.794 -0.3949 -1.4637 -1.6808
    1SOL    HW3 3203   2.167   2.753   1.800 -0.4744 -1.3305  2.4899
    1SOL    MW4 3204   2.192   2.827   1.839 -0.4575 -0.1812  0.4203
    1SOL     OW 3205   0.473   3.387   4.569 -0.6277 -0.4510 -0.3149
    1SOL    HW2 3206   0.495   3.467   4.521 -1.5822  0.4185  0.6770
    1SOL    HW3 3207   0.558   3.349   4.591 -0.1583  0.3023 -0.7812
    1SOL    MW4 3208   0.487   3.393   4.566 -0.6917 -0.2367 -0.2451
    1SOL     OW 3209   2.824   3.391   2.073 -0.1295 -0.3189  0.2097
    1SOL    HW2 3210   2.883   3.409   1.999  0.0558  0.8472  0.6358
    1SOL    HW3 3211   2.827   3.295   2.083  2.2367 -0.2315  0.6635
    1SOL    MW4 3212   2.832   3.380   2.064  0.2067 -0.1535  0.3257
    1SOL     OW 3213   0.592   0.378   1.999  0.2121 -0.2481 -0.0443
    1SOL    HW2 3214   0.594   0.472   2.018  0.0316 -0.3457  0.4743
    1SOL    HW3 3215   0.506   0.362   1.961  0.7400  0.0256 -1.3660
    1SOL    MW4 3216   0.581   0.388   1.997  0.2580 -0.2249 -0.1503
    1SOL     OW 3217   1.065   3.982   3.604 -0.0846  0.9982  0.0018
    1SOL    HW2 3218   1.128   4.005   3.537  0.1034  0.9668  0.1693
    1SOL    HW3 3219   1.042   4.066   3.646  1.1013  0.8011  1.0568
    1SOL    MW4 3220   1.070   3.996   3.601  0.0967  0.9677  0.1633
    1SOL     OW 3221   3.778   1.805   1.018 -0.4377  0.3391  0.0095
    1SOL    HW2 3222   3.787   1.812   0.923 -1.5289  1.1218 -0.0450
    1SOL    HW3 3223   3.707   1.865   1.040 -0.5232 -0.2065  1.2685
    1SOL    MW4 3224   3.770   1.814   1.008 -0.5929  0.3705  0.1686
    1SOL     OW 3225   1.494   3.751   1.902 -0.0087  0.5900 -0.1041
    1SOL    HW2 3226   1.466   3.659   1.903 -1.0087  0.8804 -1.0182
    1SOL    HW3 3227   1.446   3.791   1.975 -1.8810  1.0465 -1.5571
    1SOL    MW4 3228   1.484   3.744   1.912 -0.3878  0.6886 -0.4165
    1SOL     OW 3229   4.017   0.213   1.089 -0.1597  0.4057 -0.5508
    1SOL    HW2 3230   3.927   0.238   1.068  0.4795  2.6013 -0.7575
    1SOL    HW3 3231   4.046   0.161   1.014 -0.3058  2.1120 -1.8203
    1SOL    MW4 3232   4.009   0.209   1.077 -0.0949  0.9205 -0.7457
    1SOL     OW 3233   4.301   2.447   0.994  0.2690  0.1665 -0.3527
    1SOL    HW2 3234   4.351   2.431   0.914  1.0898  0.6256  0.0618
    1SOL    HW3 3235   4.300   2.362   1.038 -0.2424 -0.1032 -0.8796
    1SOL    MW4 3236   4.308   2.433   0.989  0.3095  0.1915 -0.3675
    1SOL     OW 3237   1.892   1.693   2.539 -0.1305 -0.3621 -0.4373
    1SOL    HW2 3238   1.845   1.628   2.485 -0.1120 -0.2855 -0.5454
    1SOL    HW3 3239   1.864   1.673   2.629 -0.4232 -0.2741 -0.5077
    1SOL    MW4 3240   1.882   1.682   2.544 -0.1668 -0.3405 -0.4609
    1SOL     OW 3241   2.782   0.611   3.268  0.3909  0.0156  0.6234
    1SOL    HW2 3242   2.786   0.516   3.257 -0.4736 -0.0710  0.9990
    1SOL    HW3 3243   2.837   0.646   3.198  0.8503 -0.7653  0.5909
    1SOL    MW4 3244   2.790   0.603   3.257  0.3374 -0.0988  0.6685
    1SOL     OW 3245   4.013   0.327   4.031 -0.0895 -0.4433 -0.1967
    1SOL    HW2 3246   4.107   0.309   4.026  0.0589  0.3880 -0.4295
    1SOL    HW3 3247   3.989   0.304   4.121  0.5846  0.4893  0.2304
    1SOL    MW4 3248   4.022   0.322   4.042  0.0196 -0.2106 -0.1707
    1SOL     OW 3249   2.915   3.474   2.440 -0.7222 -0.0977 -0.0876
    1SOL    HW2 3250   2.981   3.460   2.372 -1.6554 -2.0007 -0.6410
    1SOL    HW3 3251   2.837   3.500   2.392 -0.7954  0.6607  0.4428
    1SOL    MW4 3252   2.914   3.476   2.425 -0.8552 -0.2484 -0.0904
    1SOL     OW 3253   1.849   0.359   4.497 -0.4355 -0.1712  0.4159
    1SOL    HW2 3254   1.819   0.356   4.588  1.3329  1.0247  1.0568
    1SOL    HW3 3255   1.832   0.448   4.468 -1.4969 -0.6978 -0.6174
    1SOL    MW4 3256   1.843   0.370   4.505 -0.3424 -0.0829  0.3648
    1SOL     OW 3257   4.344   3.528   4.157  0.1440 -0.2088  0.2673
    1SOL    HW2 3258   4.332   3.434   4.143 -1.6379  0.1200 -0.5492
    1SOL    HW3 3259   4.438   3.539   4.172  0.2707 -2.2051  1.0190
    1SOL    MW4 3260   4.355   3.517   4.157 -0.0744 -0.4287  0.2589
    1SOL     OW 3261   1.418   4.021   1.214 -0.1491 -0.0834  0.1199
    1SOL    HW2 3262   1.362   4.040   1.140  2.3981  0.1980 -1.8161
    1SOL    HW3 3263   1.378   3.946   1.257 -2.4416  0.6671 -0.6645
    1SOL    MW4 3264   1.406   4.014   1.210 -0.1156  0.0529 -0.2390
    1SOL     OW 3265   2.997   2.882   2.228  0.0967  0.2662  0.2350
    1SOL    HW2 3266   2.976   2.928   2.309 -0.7196 -1.9048  1.2965
    1SOL    HW3 3267   2.955   2.933   2.159 -1.7139  0.4988  1.4929
    1SOL    MW4 3268   2.989   2.895   2.230 -0.2501  0.0103  0.5412
    1SOL     OW 3269   3.723   1.563   4.198 -0.2756  0.1353  0.8904
    1SOL    HW2 3270   3.814   1.582   4.176 -0.1139 -1.3749  0.1934
    1SOL    HW3 3271   3.722   1.469   4.218 -1.5761  0.2491  1.4228
    1SOL    MW4 3272   3.735   1.553   4.198 -0.4261 -0.0490  0.8688
    1SOL     OW 3273   0.663   0.082   3.381 -0.4085  0.3009  0.1362
    1SOL    HW2 3274   0.742   0.060   3.430 -0.6336  0.4883  0.5894
    1SOL    HW3 3275   0.652   0.176   3.396 -0.8751  0.2185  0.2977
    1SOL    MW4 3276   0.672   0.092   3.389 -0.4998  0.3148  0.2172
    1SOL     OW 3277   1.421   3.917   2.370 -0.8422  0.0929 -0.0488
    1SOL    HW2 3278   1.495   3.973   2.345 -0.7150  0.4247  1.0502
    1SOL    HW3 3279   1.461   3.836   2.400 -0.9532  0.0814  0.0663
    1SOL    MW4 3280   1.436   3.914   2.371 -0.8401  0.1349  0.1111
    1SOL     OW 3281   1.034   0.418   2.643  0.5602 -0.4843 -0.2113
    1SOL    HW2 3282   0.999   0.373   2.719 -2.0575  1.5710 -0.1321
    1SOL    HW3 3283   1.127   0.430   2.663  0.3644 -1.8694  1.6764
    1SOL    MW4 3284   1.041   0.414   2.655  0.1891 -0.3959  0.0482
    1SOL     OW 3285   1.811   1.835   1.512 -0.0557 -0.6018  0.3281
    1SOL    HW2 3286   1.867   1.894   1.463 -0.6152 -0.0771  0.3168
    1SOL    HW3 3287   1.871   1.786   1.569  0.4496 -0.3216  0.0362
    1SOL    MW4 3288   1.826   1.836   1.513 -0.0628 -0.4957  0.2880
    1SOL     OW 3289   0.182   2.195   4.658 -0.3377 -0.6174 -0.3166
    1SOL    HW2 3290   0.089   2.175   4.649  0.2156 -2.1616 -3.0248
    1SOL    HW3 3291   0.190   2.285   4.628 -0.7820 -0.9205 -1.3895
    1SOL    MW4 3292   0.171   2.204   4.653 -0.3233 -0.8609 -0.8154
    1SOL     OW 3293   1.709   0.278   4.284 -0.2904  0.1825 -0.8988
    1SOL    HW2 3294   1.753   0.300   4.366  0.1272  3.6706 -2.0101
    1SOL    HW3 3295   1.780   0.257   4.223 -0.4949 -0.2476 -0.9947
    1SOL    MW4 3296   1.724   0.278   4.287 -0.2623  0.5859 -1.0586
    1SOL     OW 3297   1.202   2.546   4.559  0.2407  0.3088  0.0771
    1SOL    HW2 3298   1.259   2.582   4.627  2.4167 -0.0188 -1.5226
    1SOL    HW3 3299   1.233   2.456   4.547 -0.6838  0.0930 -0.7458
    1SOL    MW4 3300   1.214   2.539   4.566  0.4058  0.2370 -0.2427
    1SOL     OW 3301   3.736   2.561   2.564  0.2014  0.4820  0.3131
    1SOL    HW2 3302   3.672   2.494   2.589 -1.6245  1.5224 -1.4105
    1SOL    HW3 3303   3.683   2.639   2.547  2.0548  1.6632 -0.1277
    1SOL    MW4 3304   3.721   2.562   2.565  0.2050  0.7749  0.0274
    1SOL     OW 3305   1.538   2.589   2.207 -0.2547  0.6403 -0.1930
    1SOL    HW2 3306   1.500   2.605   2.294  0.8414  1.5266  0.1440
    1SOL    HW3 3307   1.554   2.677   2.172  3.6656  0.3761  0.6764
    1SOL    MW4 3308   1.535   2.603   2.214  0.4071  0.7224 -0.0341
    1SOL     OW 3309   3.215   2.641   2.279 -0.0875  0.5333 -0.0431
    1SOL    HW2 3310   3.131   2.599   2.265  0.5644 -0.9178  0.2693
    1SOL    HW3 3311   3.199   2.704   2.350 -0.3558 -1.5044  1.7404
    1SOL    MW4 3312   3.202   2.644   2.287 -0.0370  0.0730  0.2334
    1SOL     OW 3313   4.204   1.831   2.827 -0.2489 -0.8660 -0.7005
    1SOL    HW2 3314   4.122   1.822   2.877 -0.6078  0.1844 -1.0848
    1SOL    HW3 3315   4.235   1.742   2.816 -1.6828 -1.3368 -1.0913
    1SOL    MW4 3316   4.197   1.818   2.832 -0.4854 -0.7896 -0.8030
    1SOL     OW 3317   4.072   4.199   3.843 -0.0662 -0.0514  0.1777
    1SOL    HW2 3318   4.087   4.104   3.843 -0.0006 -0.0410  0.2728
    1SOL    HW3 3319   4.155   4.237   3.816 -0.5567 -0.0963 -1.4838
    1SOL    MW4 3320   4.085   4.191   3.840 -0.1221 -0.0558 -0.0291
    1SOL     OW 3321   3.385   0.888   3.631 -0.1515 -0.1826  0.0795
    1SOL    HW2 3322   3.355   0.815   3.686  1.3418  0.6992  2.1192
    1SOL    HW3 3323   3.307   0.943   3.621 -0.8386 -1.1542  0.0168
    1SOL    MW4 3324   3.370   0.886   3.637 -0.0453 -0.1944  0.3402
    1SOL     OW 3325   0.875   4.365   1.783  0.0879 -0.2999 -0.0715
    1SOL    HW2 3326   0.896   4.423   1.710  0.3261  1.3330  1.2537
    1SOL    HW3 3327   0.781   4.378   1.797  0.4912  1.2454  1.4263
    1SOL    MW4 3328   0.865   4.375   1.775  0.1726  0.1192  0.3009
    1SOL     OW 3329   1.605   4.234   3.363 -0.1900 -0.3281 -0.0955
    1SOL    HW2 3330   1.633   4.270   3.447  0.7699  0.1227 -0.6098
    1SOL    HW3 3331   1.607   4.139   3.376  0.6415 -0.2761  0.1693
    1SOL    MW4 3332   1.609   4.226   3.376  0.0464 -0.2613 -0.1287
    1SOL     OW 3333   2.963   4.103   4.137 -0.1538 -0.3380  0.2934
    1SOL    HW2 3334   3.033   4.041   4.115  1.3955  1.0253  1.3080
    1SOL    HW3 3335   2.920   4.064   4.213 -0.1959 -0.9513 -0.0437
    1SOL    MW4 3336   2.967   4.090   4.144  0.0453 -0.2394  0.3829
    1SOL     OW 3337   1.993   0.138   3.200 -0.1694 -0.1711 -0.5166
    1SOL    HW2 3338   2.073   0.120   3.250  0.5052 -0.3612 -1.6544
    1SOL    HW3 3339   1.928   0.159   3.267 -0.0753 -3.3366  0.6493
    1SOL    MW4 3340   1.995   0.138   3.216 -0.0679 -0.6139 -0.5126
    1SOL     OW 3341   1.674   0.515   1.769  0.4645  0.2324 -0.1623
    1SOL    HW2 3342   1.655   0.463   1.847 -0.1290 -0.4835 -0.7694
    1SOL    HW3 3343   1.681   0.605   1.801 -0.6781  0.0713  0.5929
    1SOL    MW4 3344   1.672   0.520   1.783  0.2354  0.1168 -0.1428
    1SOL     OW 3345   1.565   2.784   4.186  0.1368  0.3145  0.5088
    1SOL    HW2 3346   1.469   2.783   4.176  0.2237  1.8886 -0.5793
    1SOL    HW3 3347   1.579   2.818   4.274 -0.2848  1.0705  0.2873
    1SOL    MW4 3348   1.554   2.788   4.196  0.0927  0.6218  0.3357
    1SOL     OW 3349   2.965   2.053   3.389 -0.0972  0.1967  0.2346
    1SOL    HW2 3350   3.029   1.984   3.405 -0.9687 -0.7381 -0.2889
    1SOL    HW3 3351   3.018   2.132   3.379  1.1050 -0.8456 -1.8852
    1SOL    MW4 3352   2.980   2.054   3.390 -0.0536 -0.0644 -0.1142
    1SOL     OW 3353   2.171   1.285   4.033  0.1134 -0.6483 -0.5132
    1SOL    HW2 3354   2.247   1.255   3.984 -0.7117 -0.0530 -2.2214
    1SOL    HW3 3355   2.119   1.334   3.969 -0.9173  0.3186  1.0147
    1SOL    MW4 3356   2.174   1.288   4.018 -0.1314 -0.4421 -0.5369
    1SOL     OW 3357   1.135   1.322   3.672 -0.1365 -0.1530 -0.5193
    1SOL    HW2 3358   1.144   1.237   3.629  1.7364 -1.0179  1.5213
    1SOL    HW3 3359   1.200   1.322   3.742  0.7488  3.4477 -1.2023
    1SOL    MW4 3360   1.145   1.311   3.675  0.2275  0.2079 -0.3402
    1SOL     OW 3361   1.786   4.069   0.960 -0.2762 -0.1883 -0.1261
    1SOL    HW2 3362   1.706   4.106   0.923  0.0011  0.7310  0.1790
    1SOL    HW3 3363   1.771   4.068   1.054 -0.3778 -1.0921 -0.1477
    1SOL    MW4 3364   1.774   4.074   0.968 -0.2530 -0.1869 -0.0887
    1SOL     OW 3365   1.959   4.386   3.441  0.1162 -0.5485  0.0095
    1SOL    HW2 3366   1.929   4.450   3.376 -0.4902  1.0416  1.8336
    1SOL    HW3 3367   1.938   4.425   3.525  0.7068 -2.6948  1.1859
    1SOL    MW4 3368   1.952   4.400   3.443  0.1142 -0.6218  0.4055
    1SOL     OW 3369   3.514   3.235   2.255  0.6393 -0.8199 -0.2255
    1SOL    HW2 3370   3.484   3.322   2.283 -0.3528 -1.1247 -0.3172
    1SOL    HW3 3371   3.529   3.188   2.337 -1.7672 -1.5405 -0.1507
    1SOL    MW4 3372   3.512   3.240   2.270  0.1910 -0.9551 -0.2279
    1SOL     OW 3373   3.212   1.712   2.659 -0.1824 -0.0085 -0.1828
    1SOL    HW2 3374   3.301   1.747   2.663 -0.1871 -0.0078 -0.0912
    1SOL    HW3 3375   3.158   1.779   2.701 -0.3453  0.3925 -1.0201
    1SOL    MW4 3376   3.217   1.726   2.665 -0.2046  0.0446 -0.2813
    1SOL     OW 3377   3.343   2.599   1.552 -0.1501 -0.4514 -0.3766
    1SOL    HW2 3378   3.371   2.676   1.603  1.2748 -0.8578 -0.5169
    1SOL    HW3 3379   3.371   2.618   1.463  0.3362 -1.1793 -0.3867
    1SOL    MW4 3380   3.351   2.612   1.547  0.1020 -0.6011 -0.3965
    1SOL     OW 3381   0.955   1.460   3.049 -0.4122  0.2823 -0.2391
    1SOL    HW2 3382   0.992   1.376   3.022 -1.9681 -0.2635 -0.6905
    1SOL    HW3 3383   0.889   1.480   2.983 -1.4372  0.8994  0.9451
    1SOL    MW4 3384   0.951   1.452   3.037 -0.7527  0.2917 -0.1423
    1SOL     OW 3385   1.170   0.852   2.779 -0.5893  0.6071  0.3286
    1SOL    HW2 3386   1.186   0.763   2.809  0.3076  0.4879 -0.4741
    1SOL    HW3 3387   1.194   0.851   2.686 -3.2034  0.9892 -0.3929
    1SOL    MW4 3388   1.176   0.840   2.771 -0.8160  0.6418  0.1276
    1SOL     OW 3389   4.472   2.677   3.497  0.0935 -0.1769 -0.2189
    1SOL    HW2 3390   4.394   2.623   3.487  1.0540 -1.8944  1.3504
    1SOL    HW3 3391   4.518   2.669   3.413 -0.1715 -1.1382 -0.2689
    1SOL    MW4 3392   4.468   2.669   3.484  0.1852 -0.5302 -0.0188
    1SOL     OW 3393   3.159   2.090   0.737 -0.5694 -0.2543 -0.2402
    1SOL    HW2 3394   3.233   2.051   0.784  0.0893 -0.3660 -1.3439
    1SOL    HW3 3395   3.174   2.184   0.742 -1.1576 -0.2171  0.8245
    1SOL    MW4 3396   3.171   2.097   0.744 -0.5603 -0.2642 -0.2453
    1SOL     OW 3397   3.539   2.663   2.285  0.3975 -0.3791 -0.1118
    1SOL    HW2 3398   3.586   2.727   2.339 -0.1731  0.3719 -0.4967
    1SOL    HW3 3399   3.518   2.592   2.346  1.0858 -0.2389  0.3072
    1SOL    MW4 3400   3.543   2.662   2.300  0.4132 -0.2615 -0.1073
    1SOL     OW 3401   1.127   0.951   4.264 -0.0809 -0.3530  0.4372
    1SOL    HW2 3402   1.201   1.011   4.254 -1.5222  1.1031 -2.0759
    1SOL    HW3 3403   1.115   0.913   4.177 -0.9699 -2.2105  1.3365
    1SOL    MW4 3404   1.135   0.954   4.251 -0.3884 -0.4060  0.2246
    1SOL     OW 3405   2.185   3.046   1.089  0.2716  0.2035 -0.2125
    1SOL    HW2 3406   2.258   3.060   1.028  0.3557  0.8068  0.0287
    1SOL    HW3 3407   2.115   3.009   1.035  0.5581  0.1597 -0.5548
    1SOL    MW4 3408   2.186   3.043   1.073  0.3207  0.2773 -0.2258
    1SOL     OW 3409   1.939   2.350   3.809  0.4658  0.8063 -0.0118
    1SOL    HW2 3410   1.936   2.430   3.862 -1.1645  1.4306 -0.9957
    1SOL    HW3 3411   1.859   2.302   3.833  0.8861 -0.0128 -0.2239
    1SOL    MW4 3412   1.928   2.354   3.819  0.3062  0.7806 -0.1695
    1SOL     OW 3413   3.805   2.435   1.679  0.5231 -0.0625 -0.0840
    1SOL    HW2 3414   3.776   2.496   1.747  0.4164  0.4475 -0.5908
    1SOL    HW3 3415   3.784   2.478   1.597 -0.3948 -1.1750 -0.4468
    1SOL    MW4 3416   3.798   2.449   1.677  0.3879 -0.1416 -0.1987
    1SOL     OW 3417   0.142   3.088   3.517 -0.5183  0.1914 -0.7034
    1SOL    HW2 3418   0.056   3.063   3.485 -1.2584  0.9012  0.7274
    1SOL    HW3 3419   0.184   3.130   3.442 -1.2589 -0.4981 -1.5148
    1SOL    MW4 3420   0.136   3.090   3.503 -0.7137  0.1943 -0.6216
    1SOL     OW 3421   3.685   4.528   1.793 -0.3779 -0.0801 -0.3641
    1SOL    HW2 3422   3.683   4.624   1.794  1.2452 -0.0278 -1.4878
    1SOL    HW3 3423   3.725   4.504   1.876 -1.1495  0.1939  0.0952
    1SOL    MW4 3424   3.690   4.538   1.804 -0.2656 -0.0367 -0.4517
    1SOL     OW 3425   0.208   0.605   4.301  0.5354 -0.6195 -0.2063
    1SOL    HW2 3426   0.142   0.549   4.342 -1.2513  1.2606 -0.3943
    1SOL    HW3 3427   0.287   0.590   4.352 -1.3919  1.0235  3.5522
    1SOL    MW4 3428   0.209   0.596   4.313  0.0454 -0.1547  0.2646
    1SOL     OW 3429   4.216   3.629   2.684 -0.0622 -0.3966  0.1077
    1SOL    HW2 3430   4.187   3.594   2.768 -0.1135 -0.1337  0.2000
    1SOL    HW3 3431   4.168   3.577   2.619  0.6939 -1.2436  0.2162
    1SOL    MW4 3432   4.206   3.617   2.686  0.0305 -0.4735  0.1342
    1SOL     OW 3433   0.850   0.248   1.023 -0.0306 -0.0884  0.0726
    1SOL    HW2 3434   0.839   0.153   1.025 -0.2207 -0.0533  0.6547
    1SOL    HW3 3435   0.942   0.262   1.043 -0.7835  0.0169  3.6768
    1SOL    MW4 3436   0.861   0.237   1.026 -0.1550 -0.0699  0.6249
    1SOL     OW 3437   1.263   2.833   2.796 -0.0213 -0.1256 -0.6798
    1SOL    HW2 3438   1.341   2.865   2.842  0.1660  0.3634 -1.3345
    1SOL    HW3 3439   1.195   2.832   2.864  0.1561  0.9735 -0.4704
    1SOL    MW4 3440   1.264   2.837   2.811  0.0268  0.0837 -0.7386
    1SOL     OW 3441   0.441   2.732   3.764  0.0704  0.1771  0.2394
    1SOL    HW2 3442   0.507   2.801   3.770  0.5050 -0.1986 -0.1770
    1SOL    HW3 3443   0.364   2.776   3.728  0.5701  0.2966 -0.7135
    1SOL    MW4 3444   0.440   2.747   3.760  0.1937  0.1431  0.0587
    1SOL     OW 3445   4.227   1.496   2.340  0.6185  0.2229  0.0012
    1SOL    HW2 3446   4.193   1.410   2.366  0.7611 -0.3444 -1.6073
    1SOL    HW3 3447   4.318   1.479   2.315  0.9635  1.0466  0.6692
    1SOL    MW4 3448   4.235   1.483   2.340  0.6833  0.2569 -0.1228
    1SOL     OW 3449   2.929   1.988   4.230 -0.4504 -0.1551  0.0046
    1SOL    HW2 3450   2.895   2.057   4.173  0.3964  0.5775  0.3697
    1SOL    HW3 3451   2.851   1.942   4.261 -1.1130  1.3868  0.6926
    1SOL    MW4 3452   2.915   1.991   4.226 -0.4263  0.1451  0.1435
    1SOL     OW 3453   3.659   3.151   2.679 -0.0200  0.0989 -0.6822
    1SOL    HW2 3454   3.651   3.241   2.650  0.9823  0.5898  0.5111
    1SOL    HW3 3455   3.748   3.125   2.655 -1.5409 -1.9171 -4.5755
    1SOL    MW4 3456   3.669   3.159   2.672 -0.0882 -0.1023 -1.0386
    1SOL     OW 3457   0.134   2.797   1.862  0.2267 -0.5246  0.1390
    1SOL    HW2 3458   0.112   2.824   1.772 -2.2492 -2.2634  0.1609
    1SOL    HW3 3459   0.050   2.796   1.907  1.2662 -1.1162  2.0949
    1SOL    MW4 3460   0.120   2.801   1.856  0.0372 -0.8321  0.4001
    1SOL     OW 3461   1.850   2.364   4.759 -0.3822  0.0054 -0.2548
    1SOL    HW2 3462   1.938   2.397   4.744 -1.2625  1.6411 -1.9610
    1SOL    HW3 3463   1.842   2.289   4.700 -0.8038  1.0783 -1.5825
    1SOL    MW4 3464   1.861   2.358   4.750 -0.5541  0.3629 -0.6552
    1SOL     OW 3465   2.247   3.045   2.271 -0.7615  0.1529  0.0702
    1SOL    HW2 3466   2.156   3.027   2.248 -0.1542 -1.4594 -1.1457
    1SOL    HW3 3467   2.256   3.010   2.360 -1.3448  0.3506  0.2083
    1SOL    MW4 3468   2.236   3.038   2.280 -0.7584 -0.0336 -0.0722
    1SOL     OW 3469   0.353   0.651   3.140  0.5646  0.2367  0.0143
    1SOL    HW2 3470   0.348   0.556   3.135 -0.9013  0.2751  0.4015
    1SOL    HW3 3471   0.282   0.682   3.084  0.3517  1.0738  0.7249
    1SOL    MW4 3472   0.343   0.643   3.132  0.3431  0.3522  0.1593
    1SOL     OW 3473   1.059   1.111   2.198  0.3667  0.3968  0.7354
    1SOL    HW2 3474   1.154   1.110   2.183  0.1489  0.4870 -0.7791
    1SOL    HW3 3475   1.028   1.188   2.149 -0.3103  1.1724  2.3658
    1SOL    MW4 3476   1.067   1.121   2.189  0.2486  0.5111  0.7503
    1SOL     OW 3477   3.275   2.878   2.158 -0.4129  0.1474 -0.5616
    1SOL    HW2 3478   3.183   2.898   2.177 -0.2807 -0.5841  0.9540
    1SOL    HW3 3479   3.289   2.792   2.198  1.2607  0.8233  0.3488
    1SOL    MW4 3480   3.265   2.870   2.166 -0.1745  0.1402 -0.2413
    1SOL     OW 3481   1.543   2.903   2.586  0.8131  0.4719 -0.6717
    1SOL    HW2 3482   1.474   2.966   2.566 -0.2904  0.0036  1.5933
    1SOL    HW3 3483   1.518   2.824   2.537 -0.0307  0.4557 -0.2257
    1SOL    MW4 3484   1.531   2.901   2.577  0.5562  0.4079 -0.3140
    1SOL     OW 3485   3.962   3.547   0.986  0.5954  0.0600 -0.1088
    1SOL    HW2 3486   4.017   3.469   0.999  0.5538 -0.1916 -1.4564
    1SOL    HW3 3487   3.899   3.521   0.919  0.8420  1.3968 -0.8609
    1SOL    MW4 3488   3.961   3.533   0.979  0.6225  0.2029 -0.3859
    1SOL     OW 3489   2.423   0.560   2.149 -0.0830 -0.1003 -0.0781
    1SOL    HW2 3490   2.431   0.473   2.112 -1.3682  0.4601 -1.7338
    1SOL    HW3 3491   2.500   0.607   2.117  0.9775 -0.8012  1.3854
    1SOL    MW4 3492   2.434   0.555   2.140 -0.1125 -0.1188 -0.1035
    1SOL     OW 3493   2.640   4.333   3.924  0.0567  0.2850  0.2318
    1SOL    HW2 3494   2.720   4.330   3.978  0.7190 -0.2291 -0.7636
    1SOL    HW3 3495   2.592   4.254   3.949  1.0186 -0.6789 -0.9034
    1SOL    MW4 3496   2.644   4.322   3.935  0.2708  0.0906 -0.0494
    1SOL     OW 3497   1.035   4.332   3.417  0.2724  0.0792  0.3608
    1SOL    HW2 3498   1.051   4.239   3.402 -0.0138  0.1790 -0.5639
    1SOL    HW3 3499   1.118   4.375   3.395 -0.0656  0.1976 -0.7137
    1SOL    MW4 3500   1.048   4.326   3.412  0.1900  0.1073  0.0970
    1SOL     OW 3501   3.275   3.342   2.953  0.0448  0.2325  0.1031
    1SOL    HW2 3502   3.355   3.372   2.909 -0.4495  1.4560  0.0171
    1SOL    HW3 3503   3.306   3.305   3.036  0.7333  0.3377 -0.0971
    1SOL    MW4 3504   3.290   3.341   2.958  0.0706  0.4077  0.0653
    1SOL     OW 3505   3.012   0.110   4.575  0.5173 -0.3737 -0.3136
    1SOL    HW2 3506   3.101   0.103   4.540  0.9661  1.0939  0.5157
    1SOL    HW3 3507   2.987   0.201   4.559 -0.0637 -0.2355  1.2859
    1SOL    MW4 3508   3.020   0.121   4.568  0.5000 -0.1619  0.0062
    1SOL     OW 3509   1.333   4.191   2.011  0.0981  0.0293  0.1120
    1SOL    HW2 3510   1.262   4.244   2.047 -2.7110 -2.2807 -1.8213
    1SOL    HW3 3511   1.305   4.170   1.922  2.0647 -2.9554  0.1275
    1SOL    MW4 3512   1.320   4.195   2.004 -0.0131 -0.6695 -0.1409
    1SOL     OW 3513   0.100   4.636   4.240 -0.2138 -0.5362  0.3678
    1SOL    HW2 3514   0.117   4.730   4.236  0.7935 -0.7006  0.6860
    1SOL    HW3 3515   0.185   4.597   4.263 -0.0983 -1.7045 -1.8892
    1SOL    MW4 3516   0.114   4.643   4.243 -0.0657 -0.7119  0.1116
    1SOL     OW 3517   4.197   2.648   0.801 -0.0478  0.7496  0.2250
    1SOL    HW2 3518   4.155   2.731   0.821  1.0432  1.4211 -0.2268
    1SOL    HW3 3519   4.172   2.590   0.873 -0.4034  1.6087  0.7968
    1SOL    MW4 3520   4.188   2.651   0.813  0.0491  0.9513  0.2409
    1SOL     OW 3521   0.418   0.251   2.962  0.1312 -0.7515 -0.2777
    1SOL    HW2 3522   0.380   0.307   3.030  1.5700  1.3637 -1.1671
    1SOL    HW3 3523   0.393   0.294   2.879  2.2605 -0.7538 -0.9389
    1SOL    MW4 3524   0.409   0.264   2.960  0.6019 -0.4728 -0.4823
    1SOL     OW 3525   1.567   3.112   1.257  0.1570  0.0856  0.2359
    1SOL    HW2 3526   1.518   3.128   1.338  0.1212  0.6124  0.1109
    1SOL    HW3 3527   1.550   3.190   1.203  1.5273  0.4996  0.3865
    1SOL    MW4 3528   1.558   3.125   1.260  0.3332  0.2098  0.2393
    1SOL     OW 3529   3.501   3.964   3.768  0.1361  0.4171 -0.1586
    1SOL    HW2 3530   3.518   4.051   3.804  1.0899 -0.4505  1.5353
    1SOL    HW3 3531   3.507   3.905   3.843 -1.9999 -0.9572 -1.0281
    1SOL    MW4 3532   3.504   3.967   3.782 -0.0198  0.1216 -0.0498
    1SOL     OW 3533   3.901   1.490   0.803 -0.0650  0.1560  0.0020
    1SOL    HW2 3534   3.927   1.501   0.894  0.8934  0.1484 -0.2635
    1SOL    HW3 3535   3.949   1.413   0.773 -0.2757  0.2373 -0.5482
    1SOL    MW4 3536   3.911   1.481   0.811  0.0336  0.1658 -0.1056
    1SOL     OW 3537   2.069   2.612   1.081  0.4156  0.3183  0.5026
    1SOL    HW2 3538   2.131   2.629   1.152  0.2937 -0.4801  0.8099
    1SOL    HW3 3539   1.989   2.656   1.108  0.5644  0.5537  0.5573
    1SOL    MW4 3540   2.066   2.620   1.094  0.4191  0.2441  0.5505
    1SOL     OW 3541   0.321   0.264   4.104 -0.0463  0.8766  0.1460
    1SOL    HW2 3542   0.294   0.235   4.017 -0.1287 -0.6163  0.6620
    1SOL    HW3 3543   0.367   0.347   4.089  1.3926 -0.1903 -1.5001
    1SOL    MW4 3544   0.324   0.271   4.091  0.1327  0.5389 -0.0029
    1SOL     OW 3545   0.950   4.289   1.255  0.3501  0.4354 -0.2566
    1SOL    HW2 3546   0.883   4.326   1.198  1.1842  1.1481 -0.7724
    1SOL    HW3 3547   0.903   4.266   1.335 -0.6289  0.3654 -0.8463
    1SOL    MW4 3548   0.935   4.291   1.258  0.3310  0.5207 -0.4023
    1SOL     OW 3549   2.411   1.295   3.903 -0.5405  0.2824  0.1816
    1SOL    HW2 3550   2.445   1.295   3.814  0.0600  1.0429  0.4115
    1SOL    HW3 3551   2.408   1.388   3.928  0.8352 -0.0153  1.5399
    1SOL    MW4 3552   2.415   1.307   3.895 -0.2797  0.3436  0.3915
    1SOL     OW 3553   3.094   3.684   2.029 -0.6481  0.1285  0.2718
    1SOL    HW2 3554   3.153   3.753   2.061  0.6060  0.0523 -1.7687
    1SOL    HW3 3555   3.008   3.707   2.064 -0.0001  2.0239  0.6637
    1SOL    MW4 3556   3.091   3.696   2.038 -0.3970  0.3684  0.0546
    1SOL     OW 3557   1.655   1.402   3.311  0.1339  0.1477  0.1894
    1SOL    HW2 3558   1.595   1.470   3.281 -1.4628 -1.4967 -0.4084
    1SOL    HW3 3559   1.711   1.385   3.236  0.0231  0.2464  0.0845
    1SOL    MW4 3560   1.655   1.408   3.297 -0.0914 -0.0563  0.0966
    1SOL     OW 3561   1.166   0.689   2.083 -0.3635 -0.3115  0.2778
    1SOL    HW2 3562   1.241   0.686   2.142  0.2677  0.8023 -0.4494
    1SOL    HW3 3563   1.105   0.749   2.125 -0.2397 -0.1124  0.1737
    1SOL    MW4 3564   1.168   0.696   2.097 -0.2640 -0.1383  0.1681
    1SOL     OW 3565   2.869   1.784   0.972 -0.1367  0.0631  0.0438
    1SOL    HW2 3566   2.880   1.691   0.955 -0.1124  0.0066  0.3725
    1SOL    HW3 3567   2.958   1.817   0.983 -0.1239  0.1908 -0.3978
    1SOL    MW4 3568   2.882   1.776   0.971 -0.1316  0.0725  0.0289
    1SOL     OW 3569   3.804   4.356   2.664  0.2992 -0.1216  0.1306
    1SOL    HW2 3570   3.777   4.405   2.586 -0.8051  2.5721  2.1366
    1SOL    HW3 3571   3.723   4.340   2.712  1.0028 -1.4324  0.9188
    1SOL    MW4 3572   3.790   4.360   2.660  0.2463  0.0606  0.4990
    1SOL     OW 3573   0.510   2.462   2.233 -0.8772  0.1543 -0.4584
    1SOL    HW2 3574   0.452   2.407   2.179 -0.7570 -0.4361  0.0118
    1SOL    HW3 3575   0.451   2.523   2.276 -0.9590  0.7401 -1.3897
    1SOL    MW4 3576   0.494   2.463   2.231 -0.8721  0.1535 -0.5193
    1SOL     OW 3577   0.885   0.786   2.835  0.2601  0.0388 -0.1793
    1SOL    HW2 3578   0.978   0.771   2.818  0.3648 -0.0002  0.4176
    1SOL    HW3 3579   0.841   0.756   2.756  1.0315  3.9395 -2.1991
    1SOL    MW4 3580   0.891   0.780   2.822  0.3756  0.5483 -0.3672
    1SOL     OW 3581   3.794   4.308   3.321  0.4587 -0.3159  0.1525
    1SOL    HW2 3582   3.787   4.378   3.386 -0.8487 -0.0876 -0.2215
    1SOL    HW3 3583   3.729   4.244   3.348  1.7258 -1.4604  0.5538
    1SOL    MW4 3584   3.785   4.309   3.333  0.4532 -0.4368  0.1562
    1SOL     OW 3585   0.114   1.428   2.432  0.0616 -0.1692 -0.1270
    1SOL    HW2 3586   0.132   1.380   2.514 -0.9297  0.6507  0.5772
    1SOL    HW3 3587   0.071   1.364   2.376  2.9593 -1.4717 -0.9539
    1SOL    MW4 3588   0.111   1.413   2.436  0.3131 -0.2329 -0.1435
    1SOL     OW 3589   2.260   3.590   2.489  0.6498  0.1258 -0.1534
    1SOL    HW2 3590   2.332   3.604   2.550 -0.3691  0.3709  1.0160
    1SOL    HW3 3591   2.211   3.672   2.490  0.0441 -0.2247 -0.5074
    1SOL    MW4 3592   2.263   3.603   2.497  0.4354  0.1121 -0.0460
    1SOL     OW 3593   0.367   0.192   3.430 -0.1109 -0.6766  0.5730
    1SOL    HW2 3594   0.374   0.104   3.392 -2.0200 -1.3963  1.8156
    1SOL    HW3 3595   0.273   0.204   3.444  0.0754  1.8464 -0.2083
    1SOL    MW4 3596   0.355   0.182   3.427 -0.3382 -0.4386  0.6340
    1SOL     OW 3597   2.782   0.317   3.517 -0.1498 -0.0648  0.1129
    1SOL    HW2 3598   2.831   0.238   3.540 -1.2897 -0.3567  1.6318
    1SOL    HW3 3599   2.781   0.318   3.421  2.2794 -0.3641  0.0643
    1SOL    MW4 3600   2.788   0.306   3.507  0.0205 -0.1428  0.3073
    1SOL     OW 3601   2.870   4.643   4.369 -0.1703  0.5821  0.1197
    1SOL    HW2 3602   2.922   4.675   4.444  0.2327 -0.4952  0.3089
    1SOL    HW3 3603   2.784   4.684   4.380 -0.1437  0.3621  1.2338
    1SOL    MW4 3604   2.866   4.653   4.381 -0.1137  0.4106  0.2918
    1SOL     OW 3605   2.656   2.901   3.414 -0.2849 -0.1803 -0.1565
    1SOL    HW2 3606   2.574   2.933   3.451  1.0512  0.8179  2.0149
    1SOL    HW3 3607   2.654   2.807   3.428 -0.7329 -0.0719  0.5087
    1SOL    MW4 3608   2.645   2.893   3.421 -0.1676 -0.0343  0.2174
    1SOL     OW 3609   3.302   3.960   3.569  0.0108 -0.4124  0.3277
    1SOL    HW2 3610   3.221   3.929   3.608 -0.2075 -0.2678 -0.0099
    1SOL    HW3 3611   3.365   3.960   3.641 -0.6727  0.9367  0.9396
    1SOL    MW4 3612   3.300   3.956   3.584 -0.1080 -0.2153  0.3638
    1SOL     OW 3613   0.148   2.656   4.057  0.9966  0.2535 -0.5680
    1SOL    HW2 3614   0.055   2.640   4.075  0.7259  0.5475 -1.6641
    1SOL    HW3 3615   0.149   2.742   4.016  1.7810  0.3525 -0.3293
    1SOL    MW4 3616   0.136   2.665   4.054  1.0643  0.3052 -0.6819
    1SOL     OW 3617   1.139   4.167   4.080  0.1763 -0.2207 -0.3157
    1SOL    HW2 3618   1.065   4.106   4.079 -0.0036 -0.0814  2.1909
    1SOL    HW3 3619   1.099   4.253   4.080  0.2795 -0.1485  2.4798
    1SOL    MW4 3620   1.124   4.170   4.080  0.1662 -0.1931  0.3839
    1SOL     OW 3621   0.858   1.757   0.597 -0.4834 -0.2190 -0.0194
    1SOL    HW2 3622   0.768   1.727   0.593 -0.4268 -0.3984  0.0348
    1SOL    HW3 3623   0.877   1.767   0.690 -0.6006  0.2908 -0.0474
    1SOL    MW4 3624   0.849   1.754   0.609 -0.4914 -0.1755 -0.0160
    1SOL     OW 3625   2.090   3.975   1.421  0.3794 -0.0544  0.0457
    1SOL    HW2 3626   2.060   3.891   1.454  1.8995 -0.2754  0.9006
    1SOL    HW3 3627   2.178   3.985   1.457  0.3673  1.7166 -0.3772
    1SOL    MW4 3628   2.097   3.965   1.430  0.5782  0.1500  0.1026
    1SOL     OW 3629   4.118   1.710   2.204 -0.6286  0.1109  0.2256
    1SOL    HW2 3630   4.169   1.636   2.239  0.4633  0.6731 -0.1457
    1SOL    HW3 3631   4.177   1.785   2.214 -1.1469  0.6556 -0.8225
    1SOL    MW4 3632   4.133   1.710   2.210 -0.5522  0.2569  0.0381
    1SOL     OW 3633   4.315   1.660   3.980  0.0811  0.3239  0.7510
    1SOL    HW2 3634   4.249   1.665   4.049  0.8030 -2.2355  1.6823
    1SOL    HW3 3635   4.397   1.685   4.022  0.2920  0.1065  0.4769
    1SOL    MW4 3636   4.317   1.664   3.994  0.2046 -0.0423  0.8378
    1SOL     OW 3637   1.583   2.011   4.621  0.4001  0.7731  0.7190
    1SOL    HW2 3638   1.626   1.927   4.636  1.5187  0.7767 -2.2432
    1SOL    HW3 3639   1.655   2.073   4.612 -0.2715  1.2715 -1.4973
    1SOL    MW4 3640   1.598   2.008   4.622  0.4591  0.8392  0.0358
    1SOL     OW 3641   0.064   0.980   3.091  0.3406 -0.4830 -0.4165
    1SOL    HW2 3642   0.147   1.018   3.122  0.3701 -1.9796  1.4358
    1SOL    HW3 3643   0.019   0.954   3.171 -1.8680  0.1761 -1.4281
    1SOL    MW4 3644   0.069   0.982   3.106  0.0530 -0.5935 -0.3054
    1SOL     OW 3645   0.209   0.527   1.013 -0.5958  0.1549 -0.3510
    1SOL    HW2 3646   0.200   0.618   0.987 -0.3045 -0.3249 -2.1841
    1SOL    HW3 3647   0.120   0.494   1.020 -0.6713  0.2826 -0.7417
    1SOL    MW4 3648   0.196   0.534   1.011 -0.5673  0.1084 -0.6443
    1SOL     OW 3649   0.902   4.041   4.015  0.7141  0.5184 -0.0991
    1SOL    HW2 3650   0.828   4.092   4.050  1.4019 -0.0644  2.2737
    1SOL    HW3 3651   0.863   3.987   3.947 -1.1005  0.1068  1.2274
    1SOL    MW4 3652   0.887   4.041   4.011  0.5654  0.3872  0.3896
    1SOL     OW 3653   2.178   2.657   3.151 -0.2809  0.1585 -0.4174
    1SOL    HW2 3654   2.201   2.744   3.185  1.0842  0.8981 -3.1122
    1SOL    HW3 3655   2.083   2.660   3.141 -0.3256  1.0931  0.1821
    1SOL    MW4 3656   2.169   2.669   3.155 -0.1063  0.3793 -0.6938
    1SOL     OW 3657   3.299   3.939   1.820  0.2819 -0.1015 -0.6724
    1SOL    HW2 3658   3.279   3.936   1.913  1.4579 -1.1699 -0.4315
    1SOL    HW3 3659   3.215   3.924   1.776 -0.2717  0.4199  0.2119
    1SOL    MW4 3660   3.285   3.936   1.826  0.3641 -0.1740 -0.5238
    1SOL     OW 3661   3.803   4.620   0.577  0.5003  0.0869 -0.3473
    1SOL    HW2 3662   3.852   4.659   0.505  2.2294  0.5190  1.0136
    1SOL    HW3 3663   3.853   4.542   0.602 -1.2126 -1.2534 -0.9590
    1SOL    MW4 3664   3.816   4.615   0.571  0.5021 -0.0329 -0.2485
    1SOL     OW 3665   3.760   2.352   3.162 -0.1708  0.5097 -0.2925
    1SOL    HW2 3666   3.796   2.305   3.088 -1.3396  0.0040 -0.5571
    1SOL    HW3 3667   3.665   2.352   3.147 -0.4490  0.1215  1.3514
    1SOL    MW4 3668   3.752   2.346   3.150 -0.3617  0.3915 -0.1106
    1SOL     OW 3669   1.424   3.234   2.280 -0.0093  0.1983  0.3878
    1SOL    HW2 3670   1.375   3.316   2.288  1.5859  1.2761 -0.8041
    1SOL    HW3 3671   1.406   3.188   2.362 -0.1191  2.1800  1.5090
    1SOL    MW4 3672   1.415   3.239   2.292  0.1867  0.6020  0.3784
    1SOL     OW 3673   0.150   2.896   3.936 -0.4916  0.4273 -0.0737
    1SOL    HW2 3674   0.181   2.902   3.846  0.8745  2.3873  0.4921
    1SOL    HW3 3675   0.056   2.907   3.930 -0.6926 -1.7148 -1.4517
    1SOL    MW4 3676   0.142   2.898   3.924 -0.3379  0.4029 -0.1810
    1SOL     OW 3677   1.518   1.369   3.648  0.0071  0.1344  0.1479
    1SOL    HW2 3678   1.484   1.445   3.695  0.0710 -2.0921  4.0005
    1SOL    HW3 3679   1.608   1.392   3.627  0.0855  1.0696  1.4395
    1SOL    MW4 3680   1.525   1.382   3.652  0.0260 -0.0359  0.8266
    1SOL     OW 3681   2.464   1.083   2.030  0.1530 -0.0923 -0.3824
    1SOL    HW2 3682   2.373   1.054   2.030 -0.2498  1.1242 -2.0472
    1SOL    HW3 3683   2.462   1.169   1.989  1.6598  1.2786  2.2458
    1SOL    MW4 3684   2.452   1.091   2.025  0.2985  0.2490 -0.2556
    1SOL     OW 3685   2.015   3.816   2.996  0.1943  0.7146 -0.4785
    1SOL    HW2 3686   2.046   3.856   2.914  0.6244 -1.8712 -1.6335
    1SOL    HW3 3687   2.049   3.873   3.065  0.3931  2.5673 -2.0800
    1SOL    MW4 3688   2.024   3.829   2.994  0.2773  0.6177 -0.8421
    1SOL     OW 3689   1.352   0.138   1.210 -0.0381 -0.6913  0.1664
    1SOL    HW2 3690   1.285   0.192   1.167  0.8299 -0.8026 -1.3583
    1SOL    HW3 3691   1.317   0.050   1.209  0.2365 -0.7944 -0.8767
    1SOL    MW4 3692   1.339   0.134   1.204  0.1125 -0.7196 -0.1724
    1SOL     OW 3693   1.047   0.794   3.378 -0.1745  0.0770  0.3803
    1SOL    HW2 3694   1.106   0.824   3.447 -0.0284 -1.2531  0.8583
    1SOL    HW3 3695   0.977   0.748   3.425 -0.0459 -0.8844 -0.3490
    1SOL    MW4 3696   1.045   0.792   3.393 -0.1382 -0.2254  0.3474
    1SOL     OW 3697   1.022   2.818   0.553  0.1875  0.1526 -0.0296
    1SOL    HW2 3698   0.957   2.749   0.564 -1.6348  1.6667 -1.1301
    1SOL    HW3 3699   0.990   2.891   0.607  2.1768  0.1191  1.2726
    1SOL    MW4 3700   1.010   2.819   0.562  0.2095  0.3476 -0.0029
    1SOL     OW 3701   1.345   0.105   1.961  0.2007 -0.7272  0.2981
    1SOL    HW2 3702   1.261   0.060   1.975  1.3255 -2.5556  1.3692
    1SOL    HW3 3703   1.321   0.192   1.931 -2.0957 -1.2336  0.5938
    1SOL    MW4 3704   1.331   0.111   1.959  0.0461 -1.0352  0.4783
    1SOL     OW 3705   1.719   1.059   3.025  0.1733  0.2812  0.1008
    1SOL    HW2 3706   1.810   1.041   3.000  0.1476 -0.0974  0.2720
    1SOL    HW3 3707   1.674   1.072   2.942  0.7489  2.2994  0.0800
    1SOL    MW4 3708   1.725   1.058   3.011  0.2459  0.4975  0.1206
    1SOL     OW 3709   1.112   4.122   4.507  0.0465 -0.4552 -0.4791
    1SOL    HW2 3710   1.077   4.186   4.445  1.6793  0.5192 -0.4304
    1SOL    HW3 3711   1.094   4.159   4.593  0.4523 -0.3464 -0.4386
    1SOL    MW4 3712   1.105   4.135   4.510  0.3154 -0.3128 -0.4673
    1SOL     OW 3713   2.184   0.510   2.361 -0.1549  0.4088 -0.1394
    1SOL    HW2 3714   2.172   0.442   2.295  0.1810 -1.5647  1.7648
    1SOL    HW3 3715   2.245   0.472   2.425  0.2636  2.6023  0.8436
    1SOL    MW4 3716   2.190   0.496   2.361 -0.0558  0.4379  0.2415
    1SOL     OW 3717   0.818   0.647   3.071  0.1239 -0.0786  0.0288
    1SOL    HW2 3718   0.883   0.578   3.084  0.3630 -0.2255 -1.8674
    1SOL    HW3 3719   0.856   0.704   3.005 -0.2638  1.6638  1.2566
    1SOL    MW4 3720   0.832   0.645   3.064  0.1042  0.1319 -0.0594
    1SOL     OW 3721   0.616   1.441   4.192 -0.3151  0.1250  0.1345
    1SOL    HW2 3722   0.685   1.472   4.133  0.5475  0.4780  1.3231
    1SOL    HW3 3723   0.559   1.518   4.204  1.1236  0.9162  2.0706
    1SOL    MW4 3724   0.618   1.456   4.186 -0.0114  0.2760  0.5469
    1SOL     OW 3725   0.135   2.376   3.951 -0.0262 -0.1185 -0.0490
    1SOL    HW2 3726   0.140   2.460   3.996  1.2791  0.0476 -0.4829
    1SOL    HW3 3727   0.177   2.391   3.867 -0.1318 -1.1062 -0.2857
    1SOL    MW4 3728   0.141   2.389   3.946  0.1321 -0.2267 -0.1373
    1SOL     OW 3729   1.439   3.316   2.690  0.1897  0.4806  0.0204
    1SOL    HW2 3730   1.492   3.297   2.767 -1.0606 -1.3357  0.4741
    1SOL    HW3 3731   1.500   3.353   2.627  0.9855  3.4114  2.3563
    1SOL    MW4 3732   1.454   3.319   2.692  0.1298  0.6275  0.3884
    1SOL     OW 3733   0.561   3.641   4.031  0.6781 -0.3598  0.4106
    1SOL    HW2 3734   0.568   3.690   4.113 -1.0826  1.2168 -0.3441
    1SOL    HW3 3735   0.532   3.554   4.058  0.6801 -0.0380  1.4971
    1SOL    MW4 3736   0.558   3.636   4.046  0.4461 -0.1094  0.4539
    1SOL     OW 3737   3.734   1.273   2.260  0.3530  0.0893 -0.2459
    1SOL    HW2 3738   3.708   1.183   2.279 -0.1097  0.2227 -0.2454
    1SOL    HW3 3739   3.652   1.320   2.249  0.5834  0.6331  0.3140
    1SOL    MW4 3740   3.720   1.267   2.261  0.3223  0.1786 -0.1721
    1SOL     OW 3741   3.920   3.384   2.291 -0.0750 -0.2767 -0.0808
    1SOL    HW2 3742   3.865   3.356   2.218  0.6655 -0.6321 -0.5095
    1SOL    HW3 3743   3.863   3.439   2.345 -0.4812  0.4216 -1.2044
    1SOL    MW4 3744   3.906   3.388   2.289 -0.0308 -0.2313 -0.2854
    1SOL     OW 3745   0.076   1.369   4.192  0.4350  0.2268  0.8755
    1SOL    HW2 3746   0.000   1.343   4.141  1.5552  0.0197 -0.7194
    1SOL    HW3 3747   0.103   1.289   4.238  0.3629  0.0165  0.5547
    1SOL    MW4 3748   0.070   1.355   4.191  0.5733  0.1718  0.6227
    1SOL     OW 3749   2.581   3.355   3.167  0.0272 -0.1605  0.3839
    1SOL    HW2 3750   2.645   3.290   3.194  0.3798  0.3188  0.7178
    1SOL    HW3 3751   2.533   3.314   3.095  2.9309  0.6856 -2.1494
    1SOL    MW4 3752   2.583   3.341   3.161  0.4570  0.0143  0.0939
    1SOL     OW 3753   0.561   2.563   3.578  0.0639 -0.3641 -0.1785
    1SOL    HW2 3754   0.559   2.615   3.497  1.5008  0.1772  0.1349
    1SOL    HW3 3755   0.515   2.617   3.642 -0.5040 -0.5121 -0.4504
    1SOL    MW4 3756   0.555   2.577   3.576  0.1786 -0.3121 -0.1731
    1SOL     OW 3757   2.622   2.787   1.896 -0.3405  0.1400  0.1361
    1SOL    HW2 3758   2.621   2.693   1.878  1.5109 -0.1040  1.1256
    1SOL    HW3 3759   2.615   2.793   1.991  2.3256  0.8583  0.3229
    1SOL    MW4 3760   2.621   2.775   1.906  0.2556  0.2024  0.2912
    1SOL     OW 3761   3.681   1.397   1.044 -0.5840 -0.5682 -0.1528
    1SOL    HW2 3762   3.763   1.442   1.060 -1.0484  0.6404 -1.0454
    1SOL    HW3 3763   3.699   1.338   0.970  0.0638 -1.9699  1.1116
    1SOL    MW4 3764   3.694   1.395   1.036 -0.5596 -0.5938 -0.1038
    1SOL     OW 3765   3.417   0.830   1.549  0.6242 -0.3206 -0.1258
    1SOL    HW2 3766   3.488   0.868   1.496 -0.5398  0.5022 -1.1404
    1SOL    HW3 3767   3.339   0.839   1.494 -0.1443 -1.8697  0.6815
    1SOL    MW4 3768   3.416   0.836   1.535  0.3693 -0.4164 -0.1532
    1SOL     OW 3769   3.945   1.006   2.711 -0.2811  0.2943  0.1573
    1SOL    HW2 3770   3.888   1.077   2.741  0.2773  1.0050 -0.4485
    1SOL    HW3 3771   3.919   0.992   2.620  0.2982  0.3945 -0.0207
    1SOL    MW4 3772   3.934   1.013   2.703 -0.1311  0.4013  0.0539
    1SOL     OW 3773   1.395   2.683   3.304  0.4628  0.5207  0.0729
    1SOL    HW2 3774   1.444   2.738   3.366  1.8340 -0.5047 -0.0773
    1SOL    HW3 3775   1.337   2.630   3.358  0.3035  0.9592  0.3341
    1SOL    MW4 3776   1.394   2.684   3.319  0.6226  0.4435  0.0873
    1SOL     OW 3777   3.257   2.619   3.085  0.7368 -0.0742  0.3755
    1SOL    HW2 3778   3.330   2.669   3.122  1.8789 -0.7632 -0.8604
    1SOL    HW3 3779   3.182   2.677   3.091  1.7632  1.3055  0.1667
    1SOL    MW4 3780   3.257   2.633   3.091  1.0228  0.0172  0.1848
    1SOL     OW 3781   0.623   0.618   3.295 -0.2205  0.2457 -0.3051
    1SOL    HW2 3782   0.663   0.614   3.209 -1.4340 -2.4116 -0.8210
    1SOL    HW3 3783   0.616   0.526   3.323 -0.9897  0.9649  2.0712
    1SOL    MW4 3784   0.627   0.605   3.288 -0.4820 -0.0100 -0.0596
    1SOL     OW 3785   2.559   2.911   1.143 -0.1291  0.0413 -0.0789
    1SOL    HW2 3786   2.508   2.955   1.075 -0.5559  0.7227  0.6688
    1SOL    HW3 3787   2.537   2.818   1.133  0.3334  0.0453 -1.2972
    1SOL    MW4 3788   2.549   2.904   1.133 -0.1245  0.1318 -0.1409
    1SOL     OW 3789   0.585   0.264   2.243  0.1603 -0.8737  0.4148
    1SOL    HW2 3790   0.495   0.261   2.275  0.5381  0.7792  1.7347
    1SOL    HW3 3791   0.577   0.297   2.154 -0.4926  0.0807  0.8136
    1SOL    MW4 3792   0.572   0.268   2.236  0.1240 -0.5297  0.6418
    1SOL     OW 3793   3.246   3.669   1.553 -0.2018 -0.2871 -0.0956
    1SOL    HW2 3794   3.329   3.624   1.541 -0.2375 -0.0419 -1.3509
    1SOL    HW3 3795   3.188   3.631   1.486 -1.4088 -1.1789  1.4070
    1SOL    MW4 3796   3.249   3.658   1.542 -0.3657 -0.3724 -0.0631
    1SOL     OW 3797   0.590   2.390   1.730  0.0137  0.1533 -0.1035
    1SOL    HW2 3798   0.650   2.327   1.771 -0.2101 -0.4394 -0.6842
    1SOL    HW3 3799   0.632   2.475   1.743  0.2896 -0.1039  0.7399
    1SOL    MW4 3800   0.604   2.393   1.737  0.0206  0.0410 -0.0688
    1SOL     OW 3801   2.798   1.243   3.617 -0.2245 -0.0230  0.4732
    1SOL    HW2 3802   2.822   1.153   3.638 -0.1306 -0.4546 -1.3688
    1SOL    HW3 3803   2.872   1.295   3.648  0.3140 -0.7312  0.3920
    1SOL    MW4 3804   2.811   1.238   3.624 -0.1409 -0.1733  0.2193
    1SOL     OW 3805   3.655   0.409   2.138  0.3696  0.2731 -0.8986
    1SOL    HW2 3806   3.745   0.433   2.157 -0.0672  0.0048  1.6867
    1SOL    HW3 3807   3.658   0.315   2.121  0.7417  0.4707 -1.9105
    1SOL    MW4 3808   3.667   0.400   2.138  0.3607  0.2638 -0.6909
    1SOL     OW 3809   3.500   1.583   4.051  0.7324  0.0618 -0.4631
    1SOL    HW2 3810   3.570   1.573   4.115 -0.0842 -1.7709  0.1528
    1SOL    HW3 3811   3.450   1.502   4.056 -1.5212  1.3944 -0.8134
    1SOL    MW4 3812   3.503   1.571   4.060  0.3273 -0.0042 -0.4277
    1SOL     OW 3813   3.166   3.270   3.297  0.1353 -0.1914 -1.1055
    1SOL    HW2 3814   3.259   3.266   3.277  0.7214  0.3289  1.3172
    1SOL    HW3 3815   3.143   3.362   3.287  0.3473  0.0079  0.2015
    1SOL    MW4 3816   3.175   3.281   3.293  0.2408 -0.0966 -0.6132
    1SOL     OW 3817   4.359   0.970   4.227 -0.9400  0.0911  0.0891
    1SOL    HW2 3818   4.442   0.924   4.232 -1.8664 -1.7029 -0.7710
    1SOL    HW3 3819   4.376   1.046   4.172  0.1142 -0.2786 -0.0946
    1SOL    MW4 3820   4.372   0.974   4.221 -0.9227 -0.1944 -0.0486
    1SOL     OW 3821   2.073   3.190   3.886 -0.2106  0.3586 -0.2232
    1SOL    HW2 3822   2.088   3.134   3.809  0.0502  2.1468 -1.4941
    1SOL    HW3 3823   2.149   3.174   3.941 -0.9696 -1.8316  0.2378
    1SOL    MW4 3824   2.085   3.180   3.883 -0.2763  0.3057 -0.3300
    1SOL     OW 3825   1.870   1.575   3.788 -0.1725 -0.0598  0.1347
    1SOL    HW2 3826   1.823   1.536   3.714  0.9159 -3.5615  1.1908
    1SOL    HW3 3827   1.810   1.567   3.862 -0.2692  1.0667  0.1730
    1SOL    MW4 3828   1.856   1.568   3.788 -0.0416 -0.3731  0.2787
    1SOL     OW 3829   2.279   3.411   1.010 -0.2945  0.1564 -0.2802
    1SOL    HW2 3830   2.231   3.392   0.929 -1.8706 -1.7949  1.0714
    1SOL    HW3 3831   2.264   3.504   1.026 -2.1006 -0.0120 -0.8852
    1SOL    MW4 3832   2.271   3.421   1.001 -0.7410 -0.1235 -0.1818
    1SOL     OW 3833   0.636   0.302   1.219  0.1568 -0.0239 -0.1717
    1SOL    HW2 3834   0.712   0.301   1.162  1.5187  1.6735  1.5833
    1SOL    HW3 3835   0.656   0.239   1.288 -0.0484  0.3715  0.2572
    1SOL    MW4 3836   0.648   0.293   1.221  0.3094  0.2522  0.1163
    1SOL     OW 3837   1.583   2.924   1.610  0.0746 -0.0954  0.0162
    1SOL    HW2 3838   1.631   2.856   1.562  1.0578 -0.5201  1.5561
    1SOL    HW3 3839   1.494   2.920   1.575  0.8331 -0.1381 -2.0232
    1SOL    MW4 3840   1.578   2.915   1.599  0.3045 -0.1569 -0.0498
    1SOL     OW 3841   3.133   1.416   3.457  0.5823 -0.0872 -0.1081
    1SOL    HW2 3842   3.083   1.434   3.537  1.5505  1.2674  0.2144
    1SOL    HW3 3843   3.188   1.341   3.478 -0.1687 -0.6077  0.0337
    1SOL    MW4 3844   3.133   1.409   3.470  0.6108  0.0228 -0.0470
    1SOL     OW 3845   2.041   3.273   1.868 -0.3003 -0.2226 -0.3097
    1SOL    HW2 3846   1.987   3.195   1.853  0.2674 -0.7500  0.3052
    1SOL    HW3 3847   2.130   3.239   1.873 -0.2526  0.1442  2.1913
    1SOL    MW4 3848   2.046   3.258   1.867 -0.2189 -0.2439  0.1013
    1SOL     OW 3849   0.148   1.244   3.827 -0.0416 -0.1759 -0.2525
    1SOL    HW2 3850   0.117   1.177   3.765  1.5783 -0.8289 -0.3855
    1SOL    HW3 3851   0.127   1.327   3.786  0.3712 -0.6100 -1.3632
    1SOL    MW4 3852   0.141   1.246   3.813  0.2265 -0.3194 -0.4168
    1SOL     OW 3853   2.173   1.663   2.497  0.2641  0.1521  0.0384
    1SOL    HW2 3854   2.078   1.666   2.503  0.2814  1.2722 -0.3026
    1SOL    HW3 3855   2.197   1.740   2.445  1.3106 -0.4491 -0.3919
    1SOL    MW4 3856   2.164   1.673   2.491  0.4044  0.2205 -0.0632
    1SOL     OW 3857   3.517   3.800   1.889  0.0568 -0.1329 -0.3195
    1SOL    HW2 3858   3.577   3.770   1.821  0.8413  0.4284  0.1161
    1SOL    HW3 3859   3.442   3.836   1.841  1.3318  1.7840 -0.9466
    1SOL    MW4 3860   3.515   3.801   1.874  0.3283  0.1938 -0.3449
    1SOL     OW 3861   1.140   2.718   1.616 -0.6319  0.3728  0.4957
    1SOL    HW2 3862   1.180   2.698   1.700  0.8424  1.1110 -0.0077
    1SOL    HW3 3863   1.074   2.785   1.635  1.4226  2.3909  0.7376
    1SOL    MW4 3864   1.137   2.724   1.629 -0.1662  0.7365  0.4611
    1SOL     OW 3865   4.036   3.230   1.601 -0.0870 -0.1038  0.2710
    1SOL    HW2 3866   4.034   3.225   1.697 -0.3073 -3.5173  0.1529
    1SOL    HW3 3867   3.967   3.293   1.579  0.3714  1.1686  2.3631
    1SOL    MW4 3868   4.026   3.237   1.611 -0.0563 -0.3862  0.5316
    1SOL     OW 3869   4.072   0.291   0.641  0.1655 -0.0160  0.1182
    1SOL    HW2 3870   4.031   0.311   0.557  0.2395  2.1717  0.5918
    1SOL    HW3 3871   4.019   0.219   0.676 -1.4191  0.7461 -0.6495
    1SOL    MW4 3872   4.060   0.284   0.635 -0.0339  0.3732  0.0793
    1SOL     OW 3873   3.771   0.124   1.561  0.3215  0.1056 -0.1113
    1SOL    HW2 3874   3.732   0.172   1.634  0.7135  0.2698 -0.0093
    1SOL    HW3 3875   3.831   0.187   1.520  0.7472 -0.2547 -0.0482
    1SOL    MW4 3876   3.774   0.139   1.565  0.4294  0.0797 -0.0895
    1SOL     OW 3877   3.575   1.417   2.657 -0.3105  0.3851  0.0783
    1SOL    HW2 3878   3.508   1.358   2.623 -1.8430  1.1751  1.7096
    1SOL    HW3 3879   3.615   1.455   2.579 -0.6600 -1.2796 -0.9362
    1SOL    MW4 3880   3.572   1.414   2.642 -0.5589  0.2697  0.1597
    1SOL     OW 3881   2.950   1.000   1.286  0.1048 -0.2339  0.0489
    1SOL    HW2 3882   2.877   0.977   1.343  1.5062  1.1631  2.4969
    1SOL    HW3 3883   3.028   0.983   1.339  1.4424  0.8511 -1.5383
    1SOL    MW4 3884   2.950   0.995   1.301  0.4661  0.0935  0.1626
    1SOL     OW 3885   3.082   1.257   2.198 -0.4638 -0.3063 -0.3838
    1SOL    HW2 3886   3.049   1.341   2.229 -0.3693 -0.4498  0.1247
    1SOL    HW3 3887   3.007   1.214   2.159 -0.6918 -0.2988  0.0412
    1SOL    MW4 3888   3.068   1.263   2.197 -0.4811 -0.3242 -0.2606
    1SOL     OW 3889   1.216   1.371   1.618  0.0188 -0.0466  0.0711
    1SOL    HW2 3890   1.192   1.442   1.558 -1.3427 -0.9162 -0.4154
    1SOL    HW3 3891   1.309   1.386   1.637 -0.2567  1.8707 -0.0204
    1SOL    MW4 3892   1.225   1.383   1.613 -0.1972  0.0917 -0.0052
    1SOL     OW 3893   2.061   4.299   1.051 -0.1727 -0.2862  0.0263
    1SOL    HW2 3894   1.968   4.301   1.074 -0.2550  1.7315 -0.4039
    1SOL    HW3 3895   2.063   4.275   0.959 -0.2735 -0.2930  0.0264
    1SOL    MW4 3896   2.049   4.296   1.042 -0.1967 -0.0210 -0.0305
    1SOL     OW 3897   4.315   0.367   2.491 -0.1539  0.1359  0.2247
    1SOL    HW2 3898   4.295   0.280   2.457 -0.0710  0.9881 -2.1367
    1SOL    HW3 3899   4.409   0.378   2.476 -0.4596  1.2321 -0.9780
    1SOL    MW4 3900   4.325   0.357   2.484 -0.1836  0.3929 -0.2456
    1SOL     OW 3901   1.853   3.833   2.471 -0.5053  0.3300  0.3096
    1SOL    HW2 3902   1.774   3.882   2.494 -0.6676 -0.8534  2.3357
    1SOL    HW3 3903   1.844   3.749   2.516  0.9241 -0.6344 -1.1387
    1SOL    MW4 3904   1.842   3.829   2.480 -0.3382  0.0465  0.3858
    1SOL     OW 3905   3.052   1.482   1.671  0.3342 -0.2027  0.6232
    1SOL    HW2 3906   2.995   1.538   1.619 -0.2854  0.6950  2.2322
    1SOL    HW3 3907   3.031   1.393   1.643  0.0708  0.2608 -0.6944
    1SOL    MW4 3908   3.042   1.478   1.660  0.2177 -0.0230  0.6616
    1SOL     OW 3909   0.996   4.197   3.784  0.0965 -0.0901  0.3375
    1SOL    HW2 3910   0.985   4.157   3.870 -1.2088 -0.7194 -0.1210
    1SOL    HW3 3911   0.908   4.207   3.749  0.7026 -1.8465 -1.8494
    1SOL    MW4 3912   0.983   4.193   3.790  0.0042 -0.4048 -0.0114
    1SOL     OW 3913   1.191   0.156   3.351 -0.1553  0.1188 -0.2689
    1SOL    HW2 3914   1.167   0.063   3.347 -1.7910  0.5232 -0.0080
    1SOL    HW3 3915   1.225   0.175   3.264 -0.5517 -0.5273 -0.5731
    1SOL    MW4 3916   1.192   0.146   3.339 -0.4233  0.0869 -0.2747
    1SOL     OW 3917   1.188   3.777   3.063 -0.4803  0.1070 -0.0742
    1SOL    HW2 3918   1.096   3.787   3.086  0.0938  2.5232  1.2628
    1SOL    HW3 3919   1.196   3.819   2.977 -0.6268 -0.1633 -0.2211
    1SOL    MW4 3920   1.177   3.784   3.054 -0.4238  0.3901  0.0830
    1SOL     OW 3921   0.509   4.520   3.475  0.1823  0.3396 -0.0961
    1SOL    HW2 3922   0.566   4.588   3.439  1.5990 -1.2957 -0.9665
    1SOL    HW3 3923   0.435   4.516   3.414  0.2680  0.8475 -0.2349
    1SOL    MW4 3924   0.507   4.529   3.462  0.3805  0.1903 -0.2294
    1SOL     OW 3925   1.968   0.970   2.923 -0.7861  0.1315  0.6280
    1SOL    HW2 3926   2.058   0.942   2.937 -0.8712  0.6975  2.4640
    1SOL    HW3 3927   1.934   0.909   2.857  0.0740 -1.9756  2.0496
    1SOL    MW4 3928   1.975   0.958   2.916 -0.6837 -0.0718  1.0581
    1SOL     OW 3929   2.290   3.601   1.848  0.6156  0.0744 -0.6870
    1SOL    HW2 3930   2.321   3.547   1.921 -0.7292  3.4149  2.5571
    1SOL    HW3 3931   2.224   3.547   1.804 -0.0729 -1.2892  1.9085
    1SOL    MW4 3932   2.285   3.587   1.852  0.3474  0.3350  0.0834
    1SOL     OW 3933   4.256   2.496   2.162  0.2234 -0.1888  0.3782
    1SOL    HW2 3934   4.308   2.490   2.082 -0.3078  0.7937 -0.0471
    1SOL    HW3 3935   4.292   2.572   2.209  0.8420 -1.0410  1.3035
    1SOL    MW4 3936   4.267   2.505   2.157  0.2351 -0.1717  0.4439
    1SOL     OW 3937   0.520   1.774   1.366 -0.2618 -0.5772  0.1745
    1SOL    HW2 3938   0.485   1.821   1.290 -0.4557 -1.0202 -0.0140
    1SOL    HW3 3939   0.580   1.836   1.408  2.5701 -1.5024 -2.3359
    1SOL    MW4 3940   0.523   1.789   1.362  0.0863 -0.7576 -0.1817
    1SOL     OW 3941   2.779   3.767   4.375 -0.7055  0.2823 -1.0779
    1SOL    HW2 3942   2.718   3.696   4.392 -1.3563  1.1726  0.3791
    1SOL    HW3 3943   2.806   3.755   4.284 -1.7607 -1.0873 -1.2106
    1SOL    MW4 3944   2.775   3.756   4.365 -0.9308  0.2191 -0.9036
    1SOL     OW 3945   3.458   1.796   2.996  0.7762  0.2538  0.1007
    1SOL    HW2 3946   3.465   1.714   3.044  1.9152  0.6811  0.6859
    1SOL    HW3 3947   3.366   1.821   3.003  0.7914 -0.0589  1.4522
    1SOL    MW4 3948   3.447   1.788   3.003  0.9284  0.2688  0.3562
    1SOL     OW 3949   3.649   4.082   3.446 -0.2892 -0.2521  0.1290
    1SOL    HW2 3950   3.636   4.046   3.359  0.3806 -1.6337  0.5840
    1SOL    HW3 3951   3.690   4.011   3.496  2.1675  1.5065  0.7191
    1SOL    MW4 3952   3.653   4.068   3.441  0.1233 -0.2022  0.2668
    1SOL     OW 3953   0.611   3.731   2.664  0.6551 -0.2999  0.4346
    1SOL    HW2 3954   0.682   3.711   2.603  0.5583  0.0544  0.2078
    1SOL    HW3 3955   0.653   3.726   2.750  1.0231  0.1767  0.2884
    1SOL    MW4 3956   0.626   3.727   2.667  0.6909 -0.1903  0.3850
    1SOL     OW 3957   0.943   4.134   3.161  0.1978 -0.3093  0.0049
    1SOL    HW2 3958   0.852   4.156   3.141  0.8657  1.6696 -0.9298
    1SOL    HW3 3959   0.942   4.039   3.173 -1.5318 -0.6836 -2.7069
    1SOL    MW4 3960   0.931   4.124   3.160  0.0578 -0.0978 -0.4764
    1SOL     OW 3961   4.273   2.080   4.026 -0.1533  0.5733  0.0742
    1SOL    HW2 3962   4.264   2.032   3.944  1.2212  1.7150 -0.7522
    1SOL    HW3 3963   4.217   2.032   4.087 -0.2632 -0.9916 -1.2104
    1SOL    MW4 3964   4.264   2.067   4.023  0.0129  0.5176 -0.2041
    1SOL     OW 3965   2.340   0.262   3.052  0.0685 -0.0632  0.1908
    1SOL    HW2 3966   2.425   0.291   3.020 -0.4005  1.0831 -0.0689
    1SOL    HW3 3967   2.296   0.343   3.079 -1.7605 -0.3846 -1.6812
    1SOL    MW4 3968   2.345   0.277   3.051 -0.2346  0.0456 -0.0906
    1SOL     OW 3969   3.062   3.803   1.761  0.3457  0.0357  0.3083
    1SOL    HW2 3970   3.071   3.741   1.834 -1.3466 -1.8140 -0.9784
    1SOL    HW3 3971   3.096   3.756   1.685 -1.1260  0.5861 -0.7287
    1SOL    MW4 3972   3.068   3.789   1.760 -0.0720 -0.1354  0.0017
    1SOL     OW 3973   1.265   0.165   1.647 -0.1967 -0.3735 -0.4400
    1SOL    HW2 3974   1.272   0.210   1.731  1.6888 -1.0094 -0.2304
    1SOL    HW3 3975   1.185   0.200   1.607 -0.9221  0.1977  1.4484
    1SOL    MW4 3976   1.255   0.175   1.653 -0.0435 -0.3820 -0.1632
    1SOL     OW 3977   0.100   3.469   3.268 -0.0273 -0.4904 -0.7856
    1SOL    HW2 3978   0.050   3.462   3.187 -1.4604  3.0003 -0.2630
    1SOL    HW3 3979   0.038   3.502   3.333  1.7858 -0.6148  1.0854
    1SOL    MW4 3980   0.085   3.472   3.266  0.0228 -0.0463 -0.4694
    1SOL     OW 3981   3.477   3.114   1.217 -0.1858 -0.1079 -0.1646
    1SOL    HW2 3982   3.411   3.066   1.267  1.3695 -2.0513  0.0957
    1SOL    HW3 3983   3.539   3.145   1.283  0.5993 -0.6291 -0.6528
    1SOL    MW4 3984   3.476   3.111   1.233  0.1230 -0.4332 -0.1948
    1SOL     OW 3985   2.629   2.174   3.942 -0.6926 -0.1556 -0.3496
    1SOL    HW2 3986   2.582   2.098   3.976 -0.7923 -0.4801 -1.1988
    1SOL    HW3 3987   2.561   2.241   3.928 -0.9100 -0.6131 -1.5456
    1SOL    MW4 3988   2.614   2.173   3.944 -0.7343 -0.2592 -0.6194
    1SOL     OW 3989   4.464   2.416   0.485  0.1284 -0.0374  0.3685
    1SOL    HW2 3990   4.532   2.477   0.457  0.4455 -0.5544 -0.0107
    1SOL    HW3 3991   4.386   2.469   0.495  0.2700  0.3321 -0.4960
    1SOL    MW4 3992   4.463   2.431   0.483  0.1888 -0.0567  0.2045
    1SOL     OW 3993   2.238   1.646   3.477 -0.1875 -0.7016  0.1886
    1SOL    HW2 3994   2.227   1.561   3.519 -0.5761 -0.4552  0.5974
    1SOL    HW3 3995   2.237   1.709   3.549  0.2972 -0.3655 -0.0924
    1SOL    MW4 3996   2.236   1.643   3.492 -0.1750 -0.6248  0.2050
    1SOL     OW 3997   1.343   0.433   3.504 -0.0324  0.3218  0.1351
    1SOL    HW2 3998   1.382   0.499   3.448  0.7666  0.6203  1.0331
    1SOL    HW3 3999   1.369   0.458   3.593 -2.9140  0.9691  0.8383
    1SOL    MW4 4000   1.352   0.445   3.509 -0.3072  0.4466  0.3464
    1SOL     OW 4001   1.787   0.222   0.758  0.3116 -0.2582 -0.1846
    1SOL    HW2 4002   1.836   0.158   0.809 -2.0752 -1.3771  0.7788
    1SOL    HW3 4003   1.732   0.170   0.700 -1.9331  0.8392  0.8609
    1SOL    MW4 4004   1.786   0.207   0.757 -0.2995 -0.2610  0.0803
    1SOL     OW 4005   4.128   1.908   2.448 -0.0082 -0.9303  0.5024
    1SOL    HW2 4006   4.108   1.826   2.493 -0.6064 -0.4760  1.0512
    1SOL    HW3 4007   4.102   1.977   2.509  0.0343 -0.3224 -0.1626
    1SOL    MW4 4008   4.122   1.906   2.462 -0.0811 -0.7901  0.4869
    1SOL     OW 4009   3.375   2.200   3.732  0.1687 -0.4895 -0.0796
    1SOL    HW2 4010   3.369   2.160   3.819 -1.0979 -1.3630 -0.5587
    1SOL    HW3 4011   3.288   2.236   3.716  0.6332  0.4029 -0.6491
    1SOL    MW4 4012   3.363   2.200   3.741  0.0627 -0.4869 -0.2179
    1SOL     OW 4013   1.852   1.959   2.244 -0.0602 -0.0583  0.4306
    1SOL    HW2 4014   1.860   1.974   2.339  1.0804  1.7642  0.0558
    1SOL    HW3 4015   1.763   1.923   2.234 -1.1580  2.0957  1.9226
    1SOL    MW4 4016   1.841   1.956   2.256 -0.0546  0.4663  0.5782
    1SOL     OW 4017   0.643   3.874   2.154 -0.2101 -0.0927  0.0830
    1SOL    HW2 4018   0.578   3.944   2.153 -0.7161 -0.5334  1.3089
    1SOL    HW3 4019   0.600   3.802   2.200  0.4025 -1.1227 -0.9127
    1SOL    MW4 4020   0.628   3.874   2.160 -0.1960 -0.2868  0.1132
    1SOL     OW 4021   0.196   2.835   3.012 -0.2842  0.0834  0.4741
    1SOL    HW2 4022   0.278   2.863   3.052 -0.8188  0.6566  1.1843
    1SOL    HW3 4023   0.150   2.916   2.993  0.1066 -0.1690 -1.6436
    1SOL    MW4 4024   0.201   2.849   3.015 -0.3032  0.1259  0.2882
    1SOL     OW 4025   3.857   4.121   4.740 -0.0182  0.3402 -0.1621
    1SOL    HW2 4026   3.866   4.026   4.726  0.7127  0.4344 -0.3225
    1SOL    HW3 4027   3.844   4.157   4.653 -2.6707  0.1369  0.1186
    1SOL    MW4 4028   3.857   4.113   4.727 -0.2716  0.3262 -0.1459
    1SOL     OW 4029   1.265   2.125   1.524 -0.4587  0.1441 -0.4210
    1SOL    HW2 4030   1.217   2.047   1.496 -1.8787  0.7661  0.1824
    1SOL    HW3 4031   1.286   2.109   1.616 -2.2956  1.1731  0.2134
    1SOL    MW4 4032   1.261   2.113   1.533 -0.8883  0.3619 -0.2577
    1SOL     OW 4033   1.493   1.707   4.101 -0.3720 -1.1333  0.3046
    1SOL    HW2 4034   1.478   1.711   4.195 -0.8719  0.0035  0.1929
    1SOL    HW3 4035   1.565   1.769   4.085 -1.6084  0.1973 -0.2846
    1SOL    MW4 4036   1.500   1.716   4.111 -0.6012 -0.8076  0.2122
    1SOL     OW 4037   0.737   1.083   3.506 -0.5710 -0.3534 -0.1034
    1SOL    HW2 4038   0.697   1.027   3.439 -0.0933  0.4749 -1.1086
    1SOL    HW3 4039   0.672   1.153   3.519 -0.2744 -0.0197 -0.3839
    1SOL    MW4 4040   0.723   1.085   3.499 -0.4688 -0.2002 -0.2728
    1SOL     OW 4041   2.516   2.084   2.209 -0.2970  0.0664 -0.1349
    1SOL    HW2 4042   2.554   2.015   2.264 -1.1774 -0.2226  0.1252
    1SOL    HW3 4043   2.591   2.129   2.171  0.3419  0.2532  1.2895
    1SOL    MW4 4044   2.531   2.081   2.212 -0.3288  0.0529  0.0875
    1SOL     OW 4045   0.208   2.837   3.642  0.1142 -0.3870  0.2508
    1SOL    HW2 4046   0.146   2.779   3.596 -1.2386  0.5812  0.8328
    1SOL    HW3 4047   0.190   2.924   3.605 -0.1374  0.1939  1.7303
    1SOL    MW4 4048   0.197   2.841   3.631 -0.0975 -0.1824  0.5229
    1SOL     OW 4049   2.285   0.021   1.994 -0.3596 -0.0473 -0.2411
    1SOL    HW2 4050   2.324   0.045   2.078 -0.5885  0.7200 -0.3451
    1SOL    HW3 4051   2.358  -0.015   1.943 -0.3640 -1.1455  0.5185
    1SOL    MW4 4052   2.300   0.020   1.998 -0.3905 -0.0910 -0.1546
    1SOL     OW 4053   2.099   2.968   4.174  0.0034  0.0688 -0.3691
    1SOL    HW2 4054   2.018   3.005   4.137 -1.1095 -0.6285  1.2768
    1SOL    HW3 4055   2.169   3.001   4.117 -1.2975  1.8192 -1.0196
    1SOL    MW4 4056   2.097   2.977   4.162 -0.3152  0.2077 -0.2375
    1SOL     OW 4057   3.199   3.126   0.811  0.3823  0.1307  0.1295
    1SOL    HW2 4058   3.227   3.149   0.723  3.1312  1.6089  1.3230
    1SOL    HW3 4059   3.248   3.047   0.832  2.2308  1.5964  1.4930
    1SOL    MW4 4060   3.209   3.118   0.803  0.9887  0.5188  0.4668
    1SOL     OW 4061   2.980   0.748   4.404 -0.7302 -0.5722  0.8506
    1SOL    HW2 4062   3.063   0.766   4.448  0.7996 -1.9345 -1.3716
    1SOL    HW3 4063   2.938   0.680   4.457 -0.9747  0.8918  2.5883
    1SOL    MW4 4064   2.985   0.741   4.416 -0.5608 -0.5587  0.7868
    1SOL     OW 4065   2.907   2.073   0.856  0.1958  0.1844  0.2883
    1SOL    HW2 4066   2.855   2.022   0.794 -0.6902  0.7072  0.5953
    1SOL    HW3 4067   2.991   2.087   0.812  0.7162 -2.1227  0.4709
    1SOL    MW4 4068   2.911   2.068   0.842  0.1478 -0.0513  0.3530
    1SOL     OW 4069   2.019   3.231   3.411 -0.3406 -0.3108 -0.0859
    1SOL    HW2 4070   1.972   3.305   3.449  1.0407 -0.3191  1.7215
    1SOL    HW3 4071   2.065   3.268   3.336  0.5845  0.7648  0.9889
    1SOL    MW4 4072   2.019   3.246   3.406 -0.0362 -0.1700  0.2944
    1SOL     OW 4073   2.012   3.051   3.621  0.1740  0.6122  0.6452
    1SOL    HW2 4074   1.917   3.055   3.633  0.1120  0.8022  0.1094
    1SOL    HW3 4075   2.031   3.120   3.557  0.1582 -1.9647 -2.3084
    1SOL    MW4 4076   2.002   3.061   3.614  0.1638  0.2971  0.1848
    1SOL     OW 4077   2.260   2.347   1.317 -0.4183  0.0804  0.0969
    1SOL    HW2 4078   2.286   2.432   1.282 -0.8925  0.3127  0.3182
    1SOL    HW3 4079   2.295   2.345   1.405 -1.0470  0.3510  0.3581
    1SOL    MW4 4080   2.268   2.358   1.324 -0.5639  0.1469  0.1606
    1SOL     OW 4081   0.640   4.277   3.420 -0.1733 -0.5533 -0.2935
    1SOL    HW2 4082   0.565   4.335   3.432  0.4157 -0.0993  1.2937
    1SOL    HW3 4083   0.701   4.326   3.365  0.1564  0.2093  0.7295
    1SOL    MW4 4084   0.638   4.291   3.414 -0.0522 -0.3929  0.0510
    1SOL     OW 4085   4.039   2.487   3.523  0.1691 -0.4321 -0.3680
    1SOL    HW2 4086   3.949   2.490   3.557 -0.4925 -3.4999 -1.6972
    1SOL    HW3 4087   4.030   2.504   3.430  1.3819  2.4288 -0.0135
    1SOL    MW4 4088   4.026   2.489   3.515  0.2422 -0.4592 -0.4964
    1SOL     OW 4089   1.858   4.536   3.647 -0.2022  0.6564  0.1851
    1SOL    HW2 4090   1.840   4.466   3.709  0.1806  0.6202  0.2556
    1SOL    HW3 4091   1.923   4.591   3.691 -0.4555  1.0221  0.1057
    1SOL    MW4 4092   1.864   4.534   3.661 -0.1850  0.7000  0.1838
    1SOL     OW 4093   1.528   0.921   2.523  0.1280  0.0130  0.1316
    1SOL    HW2 4094   1.556   0.955   2.608 -0.4272 -0.4467  0.5015
    1SOL    HW3 4095   1.449   0.971   2.502  0.9076  0.9382 -0.6644
    1SOL    MW4 4096   1.522   0.932   2.532  0.1577  0.0744  0.0756
    1SOL     OW 4097   0.444   2.821   1.642  0.4437 -0.1286  0.2606
    1SOL    HW2 4098   0.447   2.917   1.636  0.6906 -0.1215  0.4889
    1SOL    HW3 4099   0.473   2.802   1.731 -0.1441 -0.3912  0.3944
    1SOL    MW4 4100   0.448   2.831   1.653  0.3987 -0.1624  0.3083
    1SOL     OW 4101   1.850   1.882   4.361  0.2075  0.5172  0.3484
    1SOL    HW2 4102   1.806   1.840   4.287  1.3440 -0.0343 -0.0288
    1SOL    HW3 4103   1.811   1.841   4.439 -1.0077  1.1189  0.0803
    1SOL    MW4 4104   1.839   1.871   4.362  0.1972  0.5237  0.2637
    1SOL     OW 4105   2.265   0.287   1.745 -0.2558 -0.0472  0.0644
    1SOL    HW2 4106   2.293   0.304   1.835 -1.1950 -1.0733  0.5673
    1SOL    HW3 4107   2.324   0.219   1.713  0.4822  0.7610 -0.3286
    1SOL    MW4 4108   2.276   0.280   1.753 -0.2825 -0.0759  0.0789
    1SOL     OW 4109   2.888   4.572   3.769 -0.2770  0.2723 -0.1170
    1SOL    HW2 4110   2.807   4.539   3.731 -1.2523  2.0293  0.4311
    1SOL    HW3 4111   2.861   4.639   3.831  1.5207 -0.0107  1.0151
    1SOL    MW4 4112   2.874   4.576   3.772 -0.1683  0.4673  0.1047
    1SOL     OW 4113   3.568   1.025   2.595  0.1293  0.2806 -0.2252
    1SOL    HW2 4114   3.545   0.973   2.672 -2.9473  1.1212 -0.5088
    1SOL    HW3 4115   3.513   1.103   2.601  0.0199  0.4911 -3.1356
    1SOL    MW4 4116   3.558   1.028   2.606 -0.2911  0.4193 -0.6466
    1SOL     OW 4117   2.399   0.794   3.518 -0.1471 -0.4586  0.0460
    1SOL    HW2 4118   2.339   0.749   3.577  0.8020 -0.6638  0.8555
    1SOL    HW3 4119   2.486   0.769   3.548  0.4935  3.2941  1.6610
    1SOL    MW4 4120   2.403   0.785   3.530  0.0627  0.0095  0.3660
    1SOL     OW 4121   1.707   4.514   0.704  0.5898 -0.2552  0.2137
    1SOL    HW2 4122   1.797   4.482   0.701  0.5686 -0.2876 -0.1580
    1SOL    HW3 4123   1.663   4.457   0.767  0.7618 -0.4162  0.1891
    1SOL    MW4 4124   1.713   4.502   0.712  0.6098 -0.2809  0.1613
    1SOL     OW 4125   3.020   3.558   3.883  0.2760 -0.4913  0.2465
    1SOL    HW2 4126   2.968   3.605   3.817 -1.1040 -0.8928  1.0350
    1SOL    HW3 4127   2.955   3.517   3.940  1.4629 -0.5382  1.5809
    1SOL    MW4 4128   3.004   3.559   3.882  0.2506 -0.5505  0.5264
    1SOL     OW 4129   0.591   1.260   2.311 -0.0565  0.2258 -0.0946
    1SOL    HW2 4130   0.538   1.244   2.389  1.5004 -1.0048  0.7428
    1SOL    HW3 4131   0.557   1.198   2.246  0.0197 -0.2104  0.2783
    1SOL    MW4 4132   0.580   1.249   2.313  0.1590  0.0058  0.0653
    1SOL     OW 4133   3.704   2.175   1.254  0.2595  0.3287 -0.0822
    1SOL    HW2 4134   3.794   2.206   1.244 -0.0346  0.8496 -1.2814
    1SOL    HW3 4135   3.679   2.203   1.342  0.9744  0.9761 -0.0750
    1SOL    MW4 4136   3.712   2.183   1.264  0.3152  0.4830 -0.2395
    1SOL     OW 4137   3.947   1.596   1.369 -0.1984  0.4695  0.4821
    1SOL    HW2 4138   3.948   1.678   1.419 -0.9314  0.5637  0.3421
    1SOL    HW3 4139   3.857   1.564   1.376  0.1417 -0.4612  0.7485
    1SOL    MW4 4140   3.935   1.603   1.377 -0.2501  0.3591  0.4988
    1SOL     OW 4141   2.606   0.723   2.017  0.5886 -0.5037 -0.0880
    1SOL    HW2 4142   2.589   0.816   2.029  1.0604 -0.3506 -0.5868
    1SOL    HW3 4143   2.686   0.707   2.068 -0.0884 -0.8575  0.8610
    1SOL    MW4 4144   2.615   0.733   2.025  0.5612 -0.5302 -0.0286
    1SOL     OW 4145   2.235   1.386   3.573 -0.3736 -0.5201  0.2003
    1SOL    HW2 4146   2.181   1.406   3.649  0.8187  0.6034  0.7674
    1SOL    HW3 4147   2.319   1.361   3.609  0.4598  0.8189 -0.7620
    1SOL    MW4 4148   2.239   1.385   3.588 -0.1063 -0.1951  0.1481
    1SOL     OW 4149   4.314   0.758   4.030  0.1228 -0.1620  0.2553
    1SOL    HW2 4150   4.300   0.821   4.101  0.1850  1.0192 -0.7647
    1SOL    HW3 4151   4.236   0.767   3.976  0.5879 -0.2397 -0.4308
    1SOL    MW4 4152   4.302   0.768   4.033  0.1926 -0.0164  0.0305
    1SOL     OW 4153   3.470   2.893   3.546 -0.6728 -0.4954  0.4943
    1SOL    HW2 4154   3.394   2.946   3.526 -2.2011 -2.1391  1.7300
    1SOL    HW3 4155   3.513   2.938   3.618 -0.7758  0.1642  0.1430
    1SOL    MW4 4156   3.466   2.906   3.553 -0.8879 -0.6251  0.6111
    1SOL     OW 4157   2.946   0.136   0.874 -0.0537  0.5034 -0.1425
    1SOL    HW2 4158   2.921   0.210   0.819 -1.1823 -0.6894 -1.2725
    1SOL    HW3 4159   3.034   0.114   0.845  1.0994  2.6623  1.6002
    1SOL    MW4 4160   2.954   0.143   0.863 -0.0503  0.6309 -0.0617
    1SOL     OW 4161   1.942   4.167   4.553  0.1457  0.1369 -0.0286
    1SOL    HW2 4162   1.898   4.091   4.593  0.3439  0.3859  0.6771
    1SOL    HW3 4163   2.010   4.129   4.498 -0.5928 -0.2356 -0.6890
    1SOL    MW4 4164   1.945   4.152   4.551  0.0745  0.1202 -0.0229
    1SOL     OW 4165   3.983   2.955   3.472 -0.6051  0.1723 -0.3035
    1SOL    HW2 4166   4.045   2.978   3.541  0.1969 -0.9210 -0.6600
    1SOL    HW3 4167   3.900   2.941   3.519  0.1384 -1.4618  0.5846
    1SOL    MW4 4168   3.980   2.956   3.488 -0.4010 -0.1874 -0.2334
    1SOL     OW 4169   2.435   3.589   3.883  0.3731  0.0759 -0.3971
    1SOL    HW2 4170   2.370   3.520   3.867  0.9131 -0.5198 -0.0361
    1SOL    HW3 4171   2.383   3.664   3.913 -0.1549 -0.3940 -0.1210
    1SOL    MW4 4172   2.420   3.589   3.885  0.3748 -0.0646 -0.3130
    1SOL     OW 4173   2.095   4.033   1.117  0.3753 -0.2458 -0.3179
    1SOL    HW2 4174   2.081   4.030   1.211 -0.3075  1.0941 -0.3648
    1SOL    HW3 4175   2.078   4.124   1.093 -0.9951 -0.9045 -1.9634
    1SOL    MW4 4176   2.091   4.045   1.126  0.1044 -0.1559 -0.5412
    1SOL     OW 4177   3.327   3.799   1.211  0.3909  0.7065  0.3382
    1SOL    HW2 4178   3.356   3.858   1.142  1.5210  1.1652  1.1903
    1SOL    HW3 4179   3.330   3.852   1.291 -0.4329  0.0429  0.8220
    1SOL    MW4 4180   3.331   3.814   1.213  0.4313  0.6797  0.5145
    1SOL     OW 4181   4.114   3.533   1.259 -0.1331  0.1715 -0.2415
    1SOL    HW2 4182   4.026   3.565   1.278 -0.0057  1.5751 -1.8533
    1SOL    HW3 4183   4.101   3.464   1.195 -0.0371  0.8246 -0.9771
    1SOL    MW4 4184   4.101   3.528   1.253 -0.1035  0.4427 -0.5512
    1SOL     OW 4185   3.367   4.500   2.546 -0.0769  0.4166  0.0097
    1SOL    HW2 4186   3.458   4.495   2.519 -0.2097 -0.8518 -0.2392
    1SOL    HW3 4187   3.340   4.589   2.526  0.6211  0.2934 -1.5058
    1SOL    MW4 4188   3.375   4.511   2.540 -0.0024  0.2327 -0.2229
    1SOL     OW 4189   4.151   2.738   2.658  0.0639 -0.3673  0.8169
    1SOL    HW2 4190   4.066   2.728   2.700  0.4809 -2.7483  1.1978
    1SOL    HW3 4191   4.181   2.648   2.645  1.4054  0.3866 -1.6026
    1SOL    MW4 4192   4.144   2.725   2.662  0.2961 -0.5820  0.5479
    1SOL     OW 4193   2.629   4.326   1.987 -0.4020  0.7031  0.5885
    1SOL    HW2 4194   2.647   4.245   2.036 -1.1345  0.3429  0.2737
    1SOL    HW3 4195   2.704   4.382   2.005  0.7256 -0.5289 -0.1886
    1SOL    MW4 4196   2.641   4.323   1.996 -0.3500  0.4935  0.4443
    1SOL     OW 4197   1.435   1.810   1.118 -0.4401 -0.3764 -0.3220
    1SOL    HW2 4198   1.430   1.857   1.202 -0.8592 -1.4677  0.2655
    1SOL    HW3 4199   1.529   1.808   1.098 -0.1860 -1.5276  0.9284
    1SOL    MW4 4200   1.447   1.816   1.127 -0.4618 -0.6722 -0.0793
    1SOL     OW 4201   1.071   1.670   2.566  0.3623  0.0253  0.0241
    1SOL    HW2 4202   0.977   1.680   2.553  0.3983  1.0408  0.4732
    1SOL    HW3 4203   1.081   1.663   2.661  0.7504  0.1404 -0.0074
    1SOL    MW4 4204   1.060   1.671   2.577  0.4183  0.1745  0.0792
    1SOL     OW 4205   1.991   1.143   1.843 -0.4696 -0.6878  0.2443
    1SOL    HW2 4206   2.077   1.145   1.800 -0.3502  1.4625  0.5371
    1SOL    HW3 4207   1.930   1.165   1.773 -0.4501  1.0058  0.7398
    1SOL    MW4 4208   1.995   1.146   1.828 -0.4511 -0.1806  0.3483
    1SOL     OW 4209   0.050   3.433   0.573  0.1533 -0.1937  0.1722
    1SOL    HW2 4210   0.068   3.348   0.615  0.8851 -0.3389 -0.4169
    1SOL    HW3 4211  -0.018   3.473   0.627  0.9289 -0.4716  1.3725
    1SOL    MW4 4212   0.043   3.427   0.586  0.3522 -0.2496  0.2529
    1SOL     OW 4213   3.190   1.815   3.701  0.2054  0.3702 -0.0424
    1SOL    HW2 4214   3.143   1.754   3.644 -1.4876  1.3118  0.3047
    1SOL    HW3 4215   3.126   1.842   3.766  1.4601  1.0965  0.9295
    1SOL    MW4 4216   3.176   1.811   3.702  0.1476  0.5903  0.1316
    1SOL     OW 4217   1.116   4.661   3.743 -0.1858  0.3668  0.0216
    1SOL    HW2 4218   1.112   4.567   3.764  0.6186  0.2009 -0.5755
    1SOL    HW3 4219   1.169   4.666   3.664 -1.1279  1.2381 -0.5603
    1SOL    MW4 4220   1.122   4.649   3.736 -0.2040  0.4597 -0.1340
    1SOL     OW 4221   2.930   4.652   2.295 -0.4377 -0.1979 -0.4995
    1SOL    HW2 4222   3.007   4.709   2.290  0.4020 -1.1674  0.9542
    1SOL    HW3 4223   2.876   4.692   2.363 -0.6722 -0.1529 -0.7139
    1SOL    MW4 4224   2.933   4.665   2.303 -0.3579 -0.3195 -0.3359
    1SOL     OW 4225   0.528   1.330   3.827  0.0683  0.2946 -0.0007
    1SOL    HW2 4226   0.470   1.273   3.877 -0.3134 -1.8481 -2.7664
    1SOL    HW3 4227   0.615   1.310   3.860 -0.2865 -0.1766  0.6698
    1SOL    MW4 4228   0.532   1.320   3.838 -0.0288 -0.0504 -0.2773
    1SOL     OW 4229   3.319   3.923   3.121 -0.2221 -0.1884  0.1955
    1SOL    HW2 4230   3.244   3.975   3.153  0.0616  1.5744 -1.8473
    1SOL    HW3 4231   3.299   3.909   3.029  0.5256 -2.3674  0.3524
    1SOL    MW4 4232   3.306   3.928   3.113 -0.0861 -0.2432 -0.0532
    1SOL     OW 4233   3.610   1.024   2.315 -0.8142 -0.3020  0.0732
    1SOL    HW2 4234   3.655   0.940   2.313 -0.0436  0.0547  1.8227
    1SOL    HW3 4235   3.574   1.030   2.403 -1.8047  0.7261 -0.3893
    1SOL    MW4 4236   3.611   1.014   2.326 -0.8430 -0.1193  0.2432
    1SOL     OW 4237   4.225   2.401   3.175  0.1459  0.5573 -0.6317
    1SOL    HW2 4238   4.261   2.405   3.086 -1.5799 -0.6874 -1.3980
    1SOL    HW3 4239   4.159   2.470   3.177 -0.9559 -0.4966 -0.8298
    1SOL    MW4 4240   4.221   2.411   3.164 -0.2270  0.2542 -0.7586
    1SOL     OW 4241   0.351   1.556   1.788  0.1713  0.1503 -0.1380
    1SOL    HW2 4242   0.352   1.613   1.865  2.4292 -0.3196  0.2254
    1SOL    HW3 4243   0.258   1.543   1.768 -0.3987  2.8657  0.5627
    1SOL    MW4 4244   0.339   1.562   1.795  0.3940  0.4466  0.0024
    1SOL     OW 4245   1.358   1.067   4.411 -0.1599 -0.1637 -0.0608
    1SOL    HW2 4246   1.413   1.133   4.368 -1.0700  0.3985 -0.3672
    1SOL    HW3 4247   1.321   1.112   4.487 -1.6223  0.0152 -0.8599
    1SOL    MW4 4248   1.361   1.082   4.415 -0.4729 -0.0659 -0.2065
    1SOL     OW 4249   0.339   3.086   2.318  0.6174  0.3467 -0.2963
    1SOL    HW2 4250   0.369   3.003   2.281  1.2310  0.6594 -0.5037
    1SOL    HW3 4251   0.387   3.095   2.400  0.0373  0.1659  0.0697
    1SOL    MW4 4252   0.349   3.076   2.324  0.6219  0.3638 -0.2756
    1SOL     OW 4253   0.298   4.382   2.845  0.2509 -0.5777  0.5881
    1SOL    HW2 4254   0.349   4.407   2.768 -0.5351  0.4836  0.4039
    1SOL    HW3 4255   0.363   4.366   2.913  0.8872 -0.4837  0.0047
    1SOL    MW4 4256   0.313   4.383   2.843  0.2311 -0.4249  0.4866
    1SOL     OW 4257   0.293   1.569   3.703  0.2982  0.1841 -0.1669
    1SOL    HW2 4258   0.224   1.624   3.666 -0.0829 -0.1379  0.0684
    1SOL    HW3 4259   0.293   1.490   3.648 -0.4326 -0.4035  0.6496
    1SOL    MW4 4260   0.284   1.566   3.691  0.1515  0.0640 -0.0284
    1SOL     OW 4261   1.511   2.771   1.824  0.1252  0.4241 -0.3038
    1SOL    HW2 4262   1.534   2.819   1.904 -1.8113 -0.1789  0.6527
    1SOL    HW3 4263   1.554   2.819   1.754 -0.0058  2.2934  0.8716
    1SOL    MW4 4264   1.520   2.783   1.825 -0.1476  0.5910 -0.0225
    1SOL     OW 4265   3.793   4.501   1.281 -0.3607 -0.0687  0.4510
    1SOL    HW2 4266   3.838   4.586   1.283 -0.0311 -0.2246 -0.4334
    1SOL    HW3 4267   3.748   4.497   1.366 -0.0670  0.8195  0.6617
    1SOL    MW4 4268   3.793   4.512   1.293 -0.2787  0.0281  0.3622
    1SOL     OW 4269   3.602   2.338   3.673  0.1394  0.1415  0.4035
    1SOL    HW2 4270   3.522   2.290   3.693 -0.0771  0.7342  0.9831
    1SOL    HW3 4271   3.626   2.309   3.585  0.1605 -1.2274  0.8384
    1SOL    MW4 4272   3.595   2.328   3.664  0.1140  0.0393  0.5372
    1SOL     OW 4273   0.573   2.832   0.663  0.0719  0.4351 -0.1766
    1SOL    HW2 4274   0.646   2.792   0.709 -0.0792 -0.3355 -0.5919
    1SOL    HW3 4275   0.613   2.899   0.608  0.8099 -1.8372 -2.4967
    1SOL    MW4 4276   0.588   2.835   0.662  0.1494  0.0339 -0.5375
    1SOL     OW 4277   1.158   4.598   1.194  0.0356  0.0630  0.5955
    1SOL    HW2 4278   1.124   4.588   1.282 -1.6495 -2.9172 -0.3173
    1SOL    HW3 4279   1.203   4.516   1.176  0.6335  0.7596 -1.1989
    1SOL    MW4 4280   1.159   4.586   1.203 -0.1078 -0.2379  0.2383
    1SOL     OW 4281   3.281   0.893   2.292 -0.3481  0.2800 -0.4157
    1SOL    HW2 4282   3.198   0.941   2.292 -0.9595 -0.7667  0.8154
    1SOL    HW3 4283   3.255   0.801   2.291  0.7937 -0.0576  0.6939
    1SOL    MW4 4284   3.266   0.887   2.292 -0.2780  0.0973 -0.1066
    1SOL     OW 4285   2.860   3.136   4.093  0.4495  0.2161  0.7702
    1SOL    HW2 4286   2.772   3.174   4.089 -0.1368 -1.1556  0.6388
    1SOL    HW3 4287   2.854   3.054   4.044  1.6191 -0.2475  1.3815
    1SOL    MW4 4288   2.848   3.130   4.086  0.5264 -0.0260  0.8335
    1SOL     OW 4289   3.743   2.792   4.040  0.0685  0.0895 -0.4012
    1SOL    HW2 4290   3.785   2.816   4.122 -0.4218 -0.5166  0.0332
    1SOL    HW3 4291   3.693   2.713   4.061 -0.9029  0.5276 -1.0139
    1SOL    MW4 4292   3.742   2.785   4.054 -0.1245  0.0675 -0.4244
    1SOL     OW 4293   1.137   1.933   3.490 -0.2938  0.1143  0.3925
    1SOL    HW2 4294   1.053   1.888   3.484  0.3819 -1.1109 -0.0292
    1SOL    HW3 4295   1.150   1.973   3.404  1.0162 -2.3758 -0.6233
    1SOL    MW4 4296   1.128   1.932   3.478 -0.0318 -0.3759  0.2029
    1SOL     OW 4297   2.280   1.454   2.259  0.0955  0.0003  0.0940
    1SOL    HW2 4298   2.203   1.415   2.218  0.4674 -0.3425 -0.2989
    1SOL    HW3 4299   2.246   1.514   2.324 -0.5152  0.6104 -0.7813
    1SOL    MW4 4300   2.266   1.457   2.262  0.0639  0.0356 -0.0732
    1SOL     OW 4301   1.319   3.560   2.772  0.4128  0.0268 -0.4695
    1SOL    HW2 4302   1.347   3.479   2.729  0.6426  0.0611 -0.3866
    1SOL    HW3 4303   1.225   3.549   2.786  0.3322  0.0212 -0.9920
    1SOL    MW4 4304   1.311   3.548   2.768  0.4326  0.0305 -0.5276
    1SOL     OW 4305   3.971   0.975   0.918  0.3034 -0.4707 -0.1610
    1SOL    HW2 4306   3.997   0.890   0.955  2.1170  0.2402  0.2450
    1SOL    HW3 4307   4.000   0.971   0.827 -0.3278 -0.5837 -0.3584
    1SOL    MW4 4308   3.978   0.963   0.911  0.4597 -0.3919 -0.1335
    1SOL     OW 4309   2.213   4.490   2.540  0.0454  0.5000  0.7887
    1SOL    HW2 4310   2.121   4.486   2.565 -0.1136  0.3123  0.1771
    1SOL    HW3 4311   2.216   4.455   2.451  0.8902 -0.7399  1.2853
    1SOL    MW4 4312   2.202   4.485   2.532  0.1361  0.3114  0.7734
    1SOL     OW 4313   1.483   1.610   3.226  0.3640  0.0052 -0.1294
    1SOL    HW2 4314   1.394   1.584   3.248  0.2799  0.5389  0.1593
    1SOL    HW3 4315   1.475   1.653   3.141  0.1049  1.4834  0.6276
    1SOL    MW4 4316   1.470   1.612   3.218  0.3186  0.2707  0.0086
    1SOL     OW 4317   1.588   3.755   3.590  0.3195 -0.2670  0.0787
    1SOL    HW2 4318   1.590   3.661   3.573 -1.2436 -0.2319 -0.4062
    1SOL    HW3 4319   1.588   3.762   3.685 -0.3953 -0.7973  0.1215
    1SOL    MW4 4320   1.588   3.744   3.600  0.0191 -0.3324  0.0203
    1SOL     OW 4321   3.301   1.375   2.023 -0.2322 -0.6224 -0.2682
    1SOL    HW2 4322   3.227   1.331   2.067 -0.4684  0.4634  0.4378
    1SOL    HW3 4323   3.287   1.468   2.041 -0.3383 -0.1580 -2.6998
    1SOL    MW4 4324   3.289   1.381   2.031 -0.2770 -0.4178 -0.4959
    1SOL     OW 4325   3.261   2.349   1.648 -0.1006  0.0954 -0.4661
    1SOL    HW2 4326   3.340   2.316   1.690 -0.4084  0.3423  0.3210
    1SOL    HW3 4327   3.279   2.441   1.631 -0.0889  0.0697 -0.5907
    1SOL    MW4 4328   3.274   2.357   1.651 -0.1397  0.1245 -0.3788
    1SOL     OW 4329   2.788   3.618   2.617 -0.1525  0.1654  0.0502
    1SOL    HW2 4330   2.772   3.695   2.563  1.3285  0.7680  0.4308
    1SOL    HW3 4331   2.841   3.560   2.562  1.6622  0.9338  0.9133
    1SOL    MW4 4332   2.793   3.621   2.603  0.2823  0.3464  0.2143
    1SOL     OW 4333   3.988   2.889   3.886 -0.4566 -0.2669 -0.2621
    1SOL    HW2 4334   3.912   2.933   3.924 -0.3788  0.3443 -0.8081
    1SOL    HW3 4335   4.047   2.876   3.960 -1.1979 -0.9670  0.2086
    1SOL    MW4 4336   3.986   2.893   3.901 -0.5443 -0.2789 -0.2720
    1SOL     OW 4337   4.420   2.567   1.926 -0.1295 -1.1221  0.1602
    1SOL    HW2 4338   4.497   2.510   1.922 -0.8214 -2.0039 -1.0575
    1SOL    HW3 4339   4.404   2.592   1.835 -0.6303 -0.0520  0.5357
    1SOL    MW4 4340   4.428   2.563   1.913 -0.2866 -1.0974  0.0489
    1SOL     OW 4341   3.003   0.986   3.009 -0.2301 -0.1541 -0.2985
    1SOL    HW2 4342   2.988   1.080   3.002 -1.3293 -0.3549 -0.7557
    1SOL    HW3 4343   3.016   0.957   2.919  1.7808 -0.1871 -0.0195
    1SOL    MW4 4344   3.003   0.995   2.996 -0.1097 -0.1850 -0.3219
    1SOL     OW 4345   4.058   2.129   2.641 -0.9471  0.7704  0.4751
    1SOL    HW2 4346   4.024   2.213   2.613  2.0330  1.9036  0.1003
    1SOL    HW3 4347   4.115   2.149   2.716  1.7590 -0.5355 -1.1566
    1SOL    MW4 4348   4.061   2.142   2.647 -0.1969  0.7474  0.2105
    1SOL     OW 4349   2.030   3.663   3.978  0.2341 -0.5196  0.0488
    1SOL    HW2 4350   2.115   3.699   4.002  0.2153 -0.1062 -0.4838
    1SOL    HW3 4351   1.973   3.741   3.970  0.2109 -0.6619 -1.1926
    1SOL    MW4 4352   2.034   3.678   3.980  0.2284 -0.4838 -0.1853
    1SOL     OW 4353   3.642   2.817   2.505 -0.1033 -0.3210  0.7551
    1SOL    HW2 4354   3.724   2.865   2.518 -0.4839 -0.2086  2.8024
    1SOL    HW3 4355   3.575   2.886   2.504 -0.2895 -0.5081  0.1279
    1SOL    MW4 4356   3.644   2.833   2.506 -0.1781 -0.3307  0.9425
    1SOL     OW 4357   2.170   1.123   0.902  0.0137  0.3138 -0.1333
    1SOL    HW2 4358   2.100   1.114   0.838 -2.2244  1.3281  2.0788
    1SOL    HW3 4359   2.234   1.181   0.860 -0.7438 -0.1201 -1.9265
    1SOL    MW4 4360   2.169   1.129   0.888 -0.3817  0.3904 -0.0781
    1SOL     OW 4361   1.221   1.895   4.402 -0.3390 -0.3225 -0.2206
    1SOL    HW2 4362   1.143   1.931   4.444 -0.2025  0.3432 -0.5304
    1SOL    HW3 4363   1.289   1.960   4.417  0.4959 -1.4771  1.1363
    1SOL    MW4 4364   1.219   1.908   4.409 -0.2108 -0.3868 -0.0825
    1SOL     OW 4365   1.056   0.714   4.423  0.1159  0.3557 -0.2086
    1SOL    HW2 4366   1.122   0.650   4.397  0.4683  0.2141  1.0381
    1SOL    HW3 4367   1.087   0.796   4.384  1.9275  0.6418  1.7291
    1SOL    MW4 4368   1.069   0.717   4.414  0.4014  0.3747  0.2112
    1SOL     OW 4369   0.782   2.183   2.069 -0.5639 -0.5373 -0.7444
    1SOL    HW2 4370   0.759   2.274   2.086 -0.3150 -0.3094 -1.5921
    1SOL    HW3 4371   0.745   2.134   2.142  0.0955  0.3491  0.1877
    1SOL    MW4 4372   0.774   2.188   2.081 -0.4440 -0.3905 -0.7334
    1SOL     OW 4373   2.658   3.837   1.925 -0.1129  0.0758  0.1572
    1SOL    HW2 4374   2.666   3.908   1.861  0.5028 -1.1619 -1.1409
    1SOL    HW3 4375   2.715   3.768   1.893 -0.9441 -1.1565  1.2489
    1SOL    MW4 4376   2.666   3.838   1.913 -0.1414 -0.2503  0.1301
    1SOL     OW 4377   3.597   3.083   2.957 -0.1405  0.2426 -0.3243
    1SOL    HW2 4378   3.634   3.166   2.989 -0.2323  0.7739 -1.5830
    1SOL    HW3 4379   3.601   3.090   2.862  1.0757 -1.7671 -0.4409
    1SOL    MW4 4380   3.603   3.095   2.949  0.0076  0.0474 -0.5059
    1SOL     OW 4381   2.772   2.551   0.495 -0.3034 -0.6466  0.2708
    1SOL    HW2 4382   2.713   2.626   0.486 -0.5504 -0.6072  1.9799
    1SOL    HW3 4383   2.741   2.506   0.573 -0.2137 -2.6032 -0.7915
    1SOL    MW4 4384   2.760   2.555   0.504 -0.3242 -0.8996  0.3561
    1SOL     OW 4385   2.851   2.612   4.118  0.1776 -0.0456  0.0420
    1SOL    HW2 4386   2.849   2.621   4.022  0.2121  1.1320  0.1437
    1SOL    HW3 4387   2.790   2.679   4.150 -1.0355 -1.4945  0.7862
    1SOL    MW4 4388   2.843   2.622   4.109  0.0219 -0.0813  0.1535
    1SOL     OW 4389   3.787   3.812   4.244 -0.4056 -0.3823  0.2677
    1SOL    HW2 4390   3.877   3.843   4.254  0.2377 -2.1635  0.1726
    1SOL    HW3 4391   3.746   3.832   4.328 -0.2057  1.2644  0.0017
    1SOL    MW4 4392   3.793   3.819   4.257 -0.2942 -0.4001  0.2198
    1SOL     OW 4393   2.597   0.890   1.049  0.0684  0.1903 -0.2987
    1SOL    HW2 4394   2.519   0.931   1.086 -0.2658 -0.0845 -0.6870
    1SOL    HW3 4395   2.565   0.847   0.970  0.8660  1.2136 -1.1887
    1SOL    MW4 4396   2.583   0.890   1.043  0.1297  0.2891 -0.4673
    1SOL     OW 4397   4.210   3.395   4.722  0.5218  0.2374 -0.0132
    1SOL    HW2 4398   4.187   3.340   4.647 -0.9577  1.0081 -0.1355
    1SOL    HW3 4399   4.291   3.439   4.695  0.6891 -0.4455 -0.6562
    1SOL    MW4 4400   4.218   3.394   4.708  0.3490  0.2491 -0.1144
    1SOL     OW 4401   1.543   2.019   3.839 -0.4343 -0.3266  0.4765
    1SOL    HW2 4402   1.538   2.003   3.933  2.1190  0.8593  0.8392
    1SOL    HW3 4403   1.465   2.071   3.820 -2.0521 -2.2731  1.5268
    1SOL    MW4 4404   1.532   2.023   3.849 -0.3109 -0.4270  0.6626
    1SOL     OW 4405   1.084   4.458   4.117 -0.0764  0.4140  0.0585
    1SOL    HW2 4406   1.128   4.541   4.138 -0.0664  0.1971  0.9156
    1SOL    HW3 4407   1.111   4.439   4.028 -0.4664  1.5864 -0.3152
    1SOL    MW4 4408   1.094   4.467   4.108 -0.1266  0.5403  0.1225
    1SOL     OW 4409   2.432   2.506   4.520  0.0879 -0.3160 -0.2462
    1SOL    HW2 4410   2.519   2.511   4.560  0.1625  2.5811 -0.6707
    1SOL    HW3 4411   2.440   2.553   4.437 -1.8357 -0.1700 -0.3818
    1SOL    MW4 4412   2.444   2.513   4.514 -0.1559  0.0856 -0.3200
    1SOL     OW 4413   0.466   4.614   3.734  0.3519 -0.1454  0.3363
    1SOL    HW2 4414   0.518   4.693   3.753 -0.9486  1.1686 -1.3933
    1SOL    HW3 4415   0.499   4.583   3.650  0.5206 -1.1715  0.7798
    1SOL    MW4 4416   0.477   4.620   3.726  0.2026 -0.1078  0.1664
    1SOL     OW 4417   0.647   2.603   4.417 -0.7493 -0.3736  0.1819
    1SOL    HW2 4418   0.645   2.636   4.327 -2.2253 -1.0770 -0.0537
    1SOL    HW3 4419   0.739   2.586   4.434 -0.1362  2.2407 -0.2898
    1SOL    MW4 4420   0.658   2.605   4.407 -0.8632 -0.1216  0.0887
    1SOL     OW 4421   2.881   0.351   1.519  0.1997 -0.4375  0.5067
    1SOL    HW2 4422   2.964   0.391   1.493 -0.0521 -0.7424 -0.7862
    1SOL    HW3 4423   2.814   0.400   1.471 -0.3010 -0.7673  0.8598
    1SOL    MW4 4424   2.883   0.363   1.509  0.1006 -0.5212  0.3825
    1SOL     OW 4425   3.603   0.572   1.922  0.1347 -0.6342  0.0450
    1SOL    HW2 4426   3.543   0.508   1.885 -0.4902  1.0315 -1.9258
    1SOL    HW3 4427   3.638   0.530   2.001 -2.5711 -2.1679  0.4763
    1SOL    MW4 4428   3.600   0.558   1.928 -0.3047 -0.6168 -0.1582
    1SOL     OW 4429   4.201   1.665   0.962  0.0320  0.3267  0.1815
    1SOL    HW2 4430   4.191   1.666   0.867  2.3200  0.8951 -0.0977
    1SOL    HW3 4431   4.140   1.732   0.994 -1.6764 -0.7536 -0.7495
    1SOL    MW4 4432   4.192   1.674   0.954  0.1092  0.2592  0.0218
    1SOL     OW 4433   2.308   1.542   0.697 -0.1715 -0.9063 -0.4197
    1SOL    HW2 4434   2.396   1.578   0.694  0.0523 -1.3468  0.5248
    1SOL    HW3 4435   2.252   1.616   0.719 -0.0671 -0.5735 -1.2861
    1SOL    MW4 4436   2.312   1.556   0.700 -0.1283 -0.9205 -0.4094
    1SOL     OW 4437   1.508   1.388   1.174  0.5651  0.3945 -0.2732
    1SOL    HW2 4438   1.549   1.419   1.094  0.0881 -0.3855 -0.8318
    1SOL    HW3 4439   1.523   1.293   1.173  0.8611  0.4205  0.7375
    1SOL    MW4 4440   1.515   1.379   1.163  0.5412  0.2949 -0.2137
    1SOL     OW 4441   2.579   0.437   1.075 -0.1352 -0.4487  0.2085
    1SOL    HW2 4442   2.606   0.434   1.166  1.4475  1.0148 -0.1814
    1SOL    HW3 4443   2.487   0.460   1.078 -0.1599 -0.6717  1.4427
    1SOL    MW4 4444   2.571   0.439   1.087  0.0703 -0.2851  0.3198
    1SOL     OW 4445   1.345   0.140   4.575 -0.3920 -0.3838  0.7645
    1SOL    HW2 4446   1.337   0.048   4.550  0.0220 -0.4374  0.8292
    1SOL    HW3 4447   1.267   0.157   4.628  0.3930 -1.1764  2.2087
    1SOL    MW4 4448   1.334   0.130   4.579 -0.2339 -0.4954  0.9632
    1SOL     OW 4449   0.556   4.071   1.159  0.4198  0.2526 -0.3456
    1SOL    HW2 4450   0.628   4.024   1.202  1.4227  1.4425 -0.6822
    1SOL    HW3 4451   0.520   4.127   1.227  2.4258  2.6158 -1.1609
    1SOL    MW4 4452   0.561   4.072   1.174  0.8168  0.7215 -0.4975
    1SOL     OW 4453   1.343   0.446   0.753 -0.0067 -0.3070 -0.1207
    1SOL    HW2 4454   1.282   0.375   0.772 -1.8002  1.0365 -0.7869
    1SOL    HW3 4455   1.321   0.475   0.665  1.3388  0.4696 -0.2239
    1SOL    MW4 4456   1.332   0.440   0.744 -0.0658 -0.0273 -0.2223
    1SOL     OW 4457   2.417   1.907   1.862 -0.3643 -0.3431  0.2020
    1SOL    HW2 4458   2.437   2.000   1.870  2.0504 -0.5440 -2.5279
    1SOL    HW3 4459   2.351   1.902   1.793 -0.7559 -0.6367  0.5951
    1SOL    MW4 4460   2.411   1.918   1.854 -0.0970 -0.4083 -0.1062
    1SOL     OW 4461   3.450   2.294   2.205  0.0695 -0.4303 -0.1368
    1SOL    HW2 4462   3.356   2.274   2.200 -0.1784 -0.0997  2.3927
    1SOL    HW3 4463   3.486   2.224   2.259  0.8006  0.8990  1.1217
    1SOL    MW4 4464   3.442   2.282   2.211  0.1335 -0.2112  0.3629
    1SOL     OW 4465   0.503   3.363   2.078  0.6700  0.6248 -0.0130
    1SOL    HW2 4466   0.449   3.409   2.142  0.1344 -0.1443  0.0881
    1SOL    HW3 4467   0.442   3.335   2.010  0.9667 -0.0925  0.0123
    1SOL    MW4 4468   0.488   3.366   2.078  0.6385  0.4284  0.0038
    1SOL     OW 4469   0.881   4.656   1.103  0.3985  0.3684  0.4133
    1SOL    HW2 4470   0.965   4.659   1.147  0.4048 -1.0583  0.5102
    1SOL    HW3 4471   0.818   4.633   1.172  0.1461 -0.0527  0.0488
    1SOL    MW4 4472   0.884   4.653   1.118  0.3660  0.1245  0.3781
    1SOL     OW 4473   4.390   2.941   3.460  0.2763 -0.0857 -0.6894
    1SOL    HW2 4474   4.365   2.926   3.369  1.4866  0.4294 -1.1196
    1SOL    HW3 4475   4.403   2.854   3.497  0.1167 -0.2830 -1.1009
    1SOL    MW4 4476   4.388   2.928   3.453  0.4148 -0.0439 -0.8006
    1SOL     OW 4477   0.793   0.110   4.223 -0.0888 -0.0104  0.1310
    1SOL    HW2 4478   0.701   0.133   4.237  0.1997  0.4149  1.4304
    1SOL    HW3 4479   0.793   0.062   4.140 -1.4578  0.1019  0.0405
    1SOL    MW4 4480   0.781   0.107   4.214 -0.2313  0.0605  0.2904
    1SOL     OW 4481   4.238   4.082   2.027 -0.1607 -0.1098 -0.2538
    1SOL    HW2 4482   4.190   4.155   1.988  0.7340  0.1936 -0.7867
    1SOL    HW3 4483   4.190   4.004   1.998 -1.5171  0.2810  0.8683
    1SOL    MW4 4484   4.225   4.081   2.018 -0.2217 -0.0181 -0.1762
    1SOL     OW 4485   1.772   3.606   3.323 -0.2091  0.1229  0.0745
    1SOL    HW2 4486   1.715   3.562   3.386  0.3711 -0.5052  0.1625
    1SOL    HW3 4487   1.720   3.681   3.293 -0.9875 -0.2984  0.3346
    1SOL    MW4 4488   1.757   3.610   3.328 -0.2352 -0.0157  0.1202
    1SOL     OW 4489   3.051   3.786   1.137 -0.1813 -0.5226  0.1083
    1SOL    HW2 4490   3.129   3.835   1.159  0.0826 -1.1072  0.4897
    1SOL    HW3 4491   3.071   3.746   1.052 -0.8868  1.0635 -0.8276
    1SOL    MW4 4492   3.064   3.787   1.129 -0.2396 -0.3905  0.0353
    1SOL     OW 4493   2.069   1.231   2.763  0.0618  0.4775 -0.3443
    1SOL    HW2 4494   2.004   1.168   2.793  0.7352  0.0718  0.2759
    1SOL    HW3 4495   2.034   1.316   2.789 -1.0162  0.3953 -1.4958
    1SOL    MW4 4496   2.056   1.234   2.770  0.0083  0.4131 -0.4144
    1SOL     OW 4497   2.598   2.502   2.253  0.4539 -0.2077  0.3547
    1SOL    HW2 4498   2.641   2.586   2.233  0.3628  0.3987  2.5697
    1SOL    HW3 4499   2.514   2.528   2.292 -0.7187 -1.3722 -1.3328
    1SOL    MW4 4500   2.592   2.517   2.255  0.2873 -0.2816  0.4244
    1SOL     OW 4501   2.743   4.369   1.223  0.2499 -0.3796  0.4974
    1SOL    HW2 4502   2.663   4.408   1.256  0.2755 -0.1511  0.2928
    1SOL    HW3 4503   2.724   4.350   1.131 -0.3516 -2.4170  1.0241
    1SOL    MW4 4504   2.730   4.371   1.215  0.1738 -0.6185  0.5399
    1SOL     OW 4505   1.422   2.720   1.297 -0.7209  0.3304  0.4832
    1SOL    HW2 4506   1.500   2.699   1.348 -1.7917  1.3120  2.6214
    1SOL    HW3 4507   1.454   2.770   1.222  0.6714  0.9427  1.4769
    1SOL    MW4 4508   1.437   2.724   1.294 -0.6784  0.5407  0.8963
    1SOL     OW 4509   0.585   0.245   0.513  0.0116 -0.0649 -0.0020
    1SOL    HW2 4510   0.494   0.263   0.534 -0.4825 -1.0837 -1.2141
    1SOL    HW3 4511   0.623   0.215   0.596 -0.0750  2.7726  1.1487
    1SOL    MW4 4512   0.578   0.244   0.527 -0.0650  0.1751 -0.0101
    1SOL     OW 4513   4.064   1.934   4.181 -0.2074  0.0865  0.1427
    1SOL    HW2 4514   4.020   1.922   4.265  0.0970 -1.7966  0.0647
    1SOL    HW3 4515   3.994   1.929   4.116 -0.1282 -1.0739  0.1342
    1SOL    MW4 4516   4.049   1.932   4.183 -0.1564 -0.3150  0.1307
    1SOL     OW 4517   0.290   1.405   0.813 -0.2233 -0.0249 -0.2646
    1SOL    HW2 4518   0.244   1.488   0.823 -0.5416 -0.3356  0.9299
    1SOL    HW3 4519   0.271   1.357   0.894  1.8707 -0.3262  0.0652
    1SOL    MW4 4520   0.281   1.410   0.825  0.0110 -0.1056 -0.0635
    1SOL     OW 4521   3.183   1.835   3.369  0.2488  0.0138 -0.3508
    1SOL    HW2 4522   3.158   1.816   3.279  1.3911 -0.8637 -0.5007
    1SOL    HW3 4523   3.248   1.905   3.361 -0.7084  0.9271 -0.1098
    1SOL    MW4 4524   3.188   1.842   3.356  0.2732  0.0185 -0.3390
    1SOL     OW 4525   0.802   0.889   4.431  0.0768  0.2733 -0.1368
    1SOL    HW2 4526   0.868   0.824   4.407 -0.7651 -0.0300 -1.7144
    1SOL    HW3 4527   0.841   0.973   4.408 -0.8454 -0.0302 -3.0196
    1SOL    MW4 4528   0.816   0.891   4.425 -0.1559  0.1932 -0.7253
    1SOL     OW 4529   2.868   2.377   2.970 -0.1120  0.4939 -0.3864
    1SOL    HW2 4530   2.854   2.470   2.949 -0.3795  0.4095 -0.5863
    1SOL    HW3 4531   2.914   2.342   2.894 -2.0678 -0.0694 -1.3411
    1SOL    MW4 4532   2.872   2.385   2.958 -0.4051  0.4084 -0.5386
    1SOL     OW 4533   2.291   2.709   4.649  0.2040 -0.0612  0.1643
    1SOL    HW2 4534   2.199   2.717   4.625  0.0737 -1.7120  0.0941
    1SOL    HW3 4535   2.323   2.634   4.600  1.5529  0.3823  0.3325
    1SOL    MW4 4536   2.283   2.700   4.640  0.3648 -0.2203  0.1774
    1SOL     OW 4537   2.679   2.404   0.731  0.5085 -0.0949  0.8066
    1SOL    HW2 4538   2.584   2.392   0.734  0.2060  2.0246  0.8985
    1SOL    HW3 4539   2.715   2.321   0.762 -1.3341 -0.5088  1.9435
    1SOL    MW4 4540   2.671   2.392   0.735  0.2253  0.1302  0.9687
    1SOL     OW 4541   3.373   4.193   0.967  0.0125  0.4888  0.0155
    1SOL    HW2 4542   3.285   4.205   1.005 -1.4751 -1.1382 -2.7555
    1SOL    HW3 4543   3.393   4.277   0.927 -0.4820  0.7159  0.2394
    1SOL    MW4 4544   3.364   4.206   0.967 -0.2489  0.3037 -0.3206
    1SOL     OW 4545   4.403   4.205   2.848 -0.0698  0.2148 -0.0047
    1SOL    HW2 4546   4.437   4.117   2.866 -0.9937 -0.1331  0.1138
    1SOL    HW3 4547   4.451   4.235   2.771 -1.6414 -1.4933 -1.7057
    1SOL    MW4 4548   4.414   4.197   2.841 -0.3986 -0.0572 -0.2131
    1SOL     OW 4549   4.217   4.531   0.543 -0.0065 -1.0033  0.4525
    1SOL    HW2 4550   4.191   4.455   0.491  0.2297 -0.6481 -0.1815
    1SOL    HW3 4551   4.278   4.579   0.487  0.5881 -0.8513  1.2170
    1SOL    MW4 4552   4.222   4.527   0.529  0.1030 -0.9360  0.4697
    1SOL     OW 4553   0.835   0.678   3.496  0.0085 -0.0661 -0.2423
    1SOL    HW2 4554   0.785   0.628   3.431  0.6654  1.0881 -1.6468
    1SOL    HW3 4555   0.773   0.743   3.529 -0.0424 -0.0282 -0.4142
    1SOL    MW4 4556   0.820   0.680   3.492  0.0885  0.0913 -0.4504
    1SOL     OW 4557   2.459   1.747   2.252 -0.4934 -0.1706  0.5442
    1SOL    HW2 4558   2.492   1.663   2.220 -0.6121 -0.3368  0.8613
    1SOL    HW3 4559   2.381   1.764   2.199 -0.6368 -0.4015  0.6805
    1SOL    MW4 4560   2.453   1.738   2.240 -0.5281 -0.2232  0.6042
    1SOL     OW 4561   1.419   3.073   2.064 -0.0737 -0.3925 -0.2258
    1SOL    HW2 4562   1.329   3.065   2.033 -0.7086  0.0197  1.4781
    1SOL    HW3 4563   1.412   3.119   2.147  1.8070  0.5899 -0.5748
    1SOL    MW4 4564   1.406   3.078   2.071  0.0906 -0.2086 -0.0470
    1SOL     OW 4565   1.234   3.205   0.546  0.0221  0.5613 -0.1347
    1SOL    HW2 4566   1.281   3.238   0.469  1.1490  1.0227  0.7398
    1SOL    HW3 4567   1.266   3.258   0.619  0.2151 -0.9858  0.9295
    1SOL    MW4 4568   1.245   3.216   0.545  0.1963  0.4179  0.1211
    1SOL     OW 4569   1.914   1.879   2.927 -0.3674 -0.4806 -0.2986
    1SOL    HW2 4570   1.997   1.831   2.934 -0.6187 -0.9903 -0.7119
    1SOL    HW3 4571   1.931   1.947   2.862 -0.2340 -0.5069 -0.2908
    1SOL    MW4 4572   1.927   1.882   2.919 -0.3829 -0.5513 -0.3519
    1SOL     OW 4573   4.487   3.669   2.106 -0.9325  0.5007  0.1653
    1SOL    HW2 4574   4.468   3.755   2.068 -1.8536  0.6693  0.9749
    1SOL    HW3 4575   4.557   3.633   2.052 -2.3665  0.6492 -1.8376
    1SOL    MW4 4576   4.493   3.676   2.094 -1.2432  0.5424  0.0076
    1SOL     OW 4577   3.005   0.993   2.345 -0.1526  0.5783  0.3058
    1SOL    HW2 4578   2.933   0.957   2.396  0.4910 -1.0357  0.1016
    1SOL    HW3 4579   2.996   1.088   2.354 -1.5168  0.3608  1.3507
    1SOL    MW4 4580   2.994   1.001   2.353 -0.2477  0.3366  0.4168
    1SOL     OW 4581   0.028   4.420   4.093  0.3306 -0.4156  0.1286
    1SOL    HW2 4582  -0.033   4.455   4.028  0.2652 -1.0755 -0.1639
    1SOL    HW3 4583   0.059   4.497   4.140  0.3219  0.0645 -0.6353
    1SOL    MW4 4584   0.024   4.435   4.090  0.3208 -0.4396 -0.0105
    1SOL     OW 4585   3.112   2.366   1.095 -0.2755  0.1178 -0.0901
    1SOL    HW2 4586   3.078   2.278   1.077 -2.3596  1.0034 -0.5972
    1SOL    HW3 4587   3.056   2.400   1.164  0.8634  0.8607  0.4842
    1SOL    MW4 4588   3.100   2.359   1.102 -0.4001  0.3326 -0.0812
    1SOL     OW 4589   1.368   3.932   3.229  0.4202  0.5195  0.4021
    1SOL    HW2 4590   1.315   3.870   3.179 -0.8045  2.1572 -0.4031
    1SOL    HW3 4591   1.366   3.900   3.319 -1.1938  0.0565  0.2061
    1SOL    MW4 4592   1.361   3.920   3.234  0.0457  0.6745  0.2699
    1SOL     OW 4593   0.550   3.807   4.257  0.3095 -0.3462  0.3300
    1SOL    HW2 4594   0.537   3.902   4.267  0.1604 -0.4050  0.6969
    1SOL    HW3 4595   0.553   3.774   4.346 -2.5233 -1.0814  0.1997
    1SOL    MW4 4596   0.548   3.815   4.270 -0.0839 -0.4508  0.3614
    1SOL     OW 4597   3.735   3.906   1.444  0.3756  0.2997  0.0172
    1SOL    HW2 4598   3.746   4.001   1.436  0.2238  0.1752 -1.8066
    1SOL    HW3 4599   3.683   3.882   1.367  1.2024 -1.3890 -0.0172
    1SOL    MW4 4600   3.729   3.916   1.433  0.4647  0.0606 -0.2280
    1SOL     OW 4601   3.462   3.666   2.468 -0.1186  0.7432 -1.0093
    1SOL    HW2 4602   3.554   3.673   2.495 -0.7608 -1.9871  2.2328
    1SOL    HW3 4603   3.464   3.601   2.397  0.5286  1.0932 -1.3161
    1SOL    MW4 4604   3.475   3.658   2.462 -0.1178  0.4289 -0.6220
    1SOL     OW 4605   1.962   1.989   1.360 -0.2465  0.1908  0.1781
    1SOL    HW2 4606   1.917   2.007   1.278 -1.9929  0.4007  1.1560
    1SOL    HW3 4607   2.002   2.072   1.384  0.4944  0.0578 -0.6018
    1SOL    MW4 4608   1.961   2.002   1.352 -0.3791  0.2010  0.2044
    1SOL     OW 4609   3.130   2.928   1.140  0.1577  0.0538  0.0655
    1SOL    HW2 4610   3.041   2.949   1.112 -0.3855 -0.9778  0.9407
    1SOL    HW3 4611   3.175   2.903   1.060 -0.5444 -0.0789 -0.2932
    1SOL    MW4 4612   3.124   2.927   1.126 -0.0064 -0.0997  0.1338
    1SOL     OW 4613   1.980   3.530   2.000 -0.3117  0.2780 -0.3322
    1SOL    HW2 4614   2.010   3.529   2.091 -0.8715  1.0454 -0.1313
    1SOL    HW3 4615   1.989   3.440   1.970 -0.9952 -0.1584  0.7772
    1SOL    MW4 4616   1.985   3.518   2.008 -0.4756  0.3219 -0.1593
    1SOL     OW 4617   0.923   1.749   0.869 -0.3271  0.9663 -0.4251
    1SOL    HW2 4618   0.996   1.783   0.920  0.0856 -0.7954  0.1902
    1SOL    HW3 4619   0.858   1.820   0.871  0.0410  1.2907  1.7776
    1SOL    MW4 4620   0.924   1.763   0.876 -0.2241  0.7768 -0.0533
    1SOL     OW 4621   3.217   3.315   0.584 -0.2271  0.0063  0.1704
    1SOL    HW2 4622   3.131   3.353   0.600 -0.5074 -0.4911 -0.1448
    1SOL    HW3 4623   3.213   3.283   0.494  0.2810 -0.0332  0.1605
    1SOL    MW4 4624   3.205   3.315   0.574 -0.1972 -0.0644  0.1275
    1SOL     OW 4625   1.004   4.326   4.365  0.0342  0.2330  0.1300
    1SOL    HW2 4626   1.028   4.349   4.275  0.7971  3.6428  1.1328
    1SOL    HW3 4627   0.926   4.378   4.383  0.6241  0.5784  1.8214
    1SOL    MW4 4628   0.997   4.336   4.355  0.2126  0.7281  0.4849
    1SOL     OW 4629   1.689   0.825   4.591 -0.4034 -0.2004 -0.7664
    1SOL    HW2 4630   1.751   0.771   4.541 -0.8609 -3.5129  2.0792
    1SOL    HW3 4631   1.744   0.892   4.633  0.6887 -0.7086 -1.3703
    1SOL    MW4 4632   1.705   0.827   4.590 -0.3196 -0.7046 -0.4702
    1SOL     OW 4633   4.462   1.773   2.321  0.3441 -0.1527 -0.3121
    1SOL    HW2 4634   4.423   1.842   2.375  1.7136 -1.0358  1.8813
    1SOL    HW3 4635   4.542   1.813   2.287  0.0444  0.0381 -0.7967
    1SOL    MW4 4636   4.468   1.788   2.323  0.4854 -0.2440 -0.0868
    1SOL     OW 4637   3.125   0.504   1.494 -0.2096 -0.3233 -0.1059
    1SOL    HW2 4638   3.120   0.553   1.575 -1.5513 -2.5501  1.2254
    1SOL    HW3 4639   3.205   0.452   1.502  0.3145  0.3805 -0.7593
    1SOL    MW4 4640   3.135   0.503   1.505 -0.3176 -0.5243 -0.0165
    1SOL     OW 4641   3.226   3.172   1.975 -0.5554  0.1374 -0.0135
    1SOL    HW2 4642   3.187   3.126   1.901 -0.2153 -0.2421  0.0355
    1SOL    HW3 4643   3.306   3.123   1.994  0.0044  0.9680 -0.1939
    1SOL    MW4 4644   3.232   3.160   1.968 -0.4363  0.1969 -0.0310
    1SOL     OW 4645   1.124   3.685   2.369 -0.0317 -0.7697 -0.4056
    1SOL    HW2 4646   1.148   3.756   2.429  0.3138 -0.9560 -0.3196
    1SOL    HW3 4647   1.029   3.679   2.374 -0.0830 -0.1184 -0.6325
    1SOL    MW4 4648   1.115   3.693   2.377  0.0072 -0.7083 -0.4239
    1SOL     OW 4649   3.185   0.611   1.124  0.3493  0.0311 -0.8675
    1SOL    HW2 4650   3.182   0.586   1.216  0.5327 -0.9928 -1.1340
    1SOL    HW3 4651   3.094   0.630   1.102 -0.0855 -2.2384 -1.1438
    1SOL    MW4 4652   3.173   0.610   1.133  0.3164 -0.4034 -0.9391
    1SOL     OW 4653   1.943   0.931   4.225 -0.7773  0.7836 -0.3206
    1SOL    HW2 4654   1.985   0.879   4.155 -0.1799 -0.8126  1.1934
    1SOL    HW3 4655   1.857   0.890   4.236 -0.6229  0.6395  0.3213
    1SOL    MW4 4656   1.937   0.919   4.217 -0.6781  0.5540 -0.0362
    1SOL     OW 4657   1.650   4.062   2.864  0.0864  0.1014  0.4102
    1SOL    HW2 4658   1.668   3.979   2.907 -0.4387 -0.3867 -0.3167
    1SOL    HW3 4659   1.645   4.125   2.936  0.2138 -0.5380  0.9842
    1SOL    MW4 4660   1.652   4.060   2.879  0.0340 -0.0477  0.3901
    1SOL     OW 4661   3.281   1.114   0.752 -0.0822 -0.0696  0.3358
    1SOL    HW2 4662   3.345   1.169   0.706 -0.0308 -1.3191 -1.1245
    1SOL    HW3 4663   3.284   1.030   0.705 -1.3545 -0.7765  1.5026
    1SOL    MW4 4664   3.290   1.110   0.739 -0.2432 -0.3278  0.2971
    1SOL     OW 4665   2.286   0.022   3.812 -0.3392 -0.0285  0.2525
    1SOL    HW2 4666   2.313   0.112   3.833 -0.9133  0.1644  0.1874
    1SOL    HW3 4667   2.342  -0.003   3.739 -1.6633  1.0769 -1.1658
    1SOL    MW4 4668   2.297   0.031   3.805 -0.5896  0.1428  0.0565
    1SOL     OW 4669   0.043   2.157   0.621  0.0682 -0.4363 -0.7184
    1SOL    HW2 4670   0.018   2.188   0.534  1.6824  0.3995 -0.9078
    1SOL    HW3 4671   0.116   2.215   0.647 -0.5322 -0.5293  1.2690
    1SOL    MW4 4672   0.050   2.169   0.613  0.2022 -0.3388 -0.4812
    1SOL     OW 4673   3.894   2.718   2.759  0.3831 -0.2996 -0.2768
    1SOL    HW2 4674   3.846   2.656   2.703  0.9979  0.1406 -1.3171
    1SOL    HW3 4675   3.863   2.804   2.730  0.6141 -0.0678  0.1623
    1SOL    MW4 4676   3.883   2.721   2.747  0.4947 -0.2110 -0.3562
    1SOL     OW 4677   1.094   2.750   3.011 -0.0293  0.3078 -0.0229
    1SOL    HW2 4678   1.116   2.788   3.095  0.8692 -0.3521  0.0501
    1SOL    HW3 4679   1.139   2.665   3.010  1.2319  0.9517 -1.7710
    1SOL    MW4 4680   1.103   2.744   3.022  0.2556  0.3054 -0.2439
    1SOL     OW 4681   2.596   3.912   4.579  0.1050 -1.1538  0.0526
    1SOL    HW2 4682   2.672   3.876   4.533  0.3227  0.9966 -1.3386
    1SOL    HW3 4683   2.619   4.004   4.596 -1.9575 -0.6241  0.1210
    1SOL    MW4 4684   2.609   3.920   4.575 -0.1385 -0.8004 -0.1221
    1SOL     OW 4685   0.507   1.520   1.265 -0.3301  0.2064  0.1997
    1SOL    HW2 4686   0.505   1.605   1.310 -0.1694  1.6668 -2.4378
    1SOL    HW3 4687   0.595   1.515   1.228 -0.5121 -0.9046 -0.0903
    1SOL    MW4 4688   0.518   1.531   1.266 -0.3330  0.2526 -0.1864
    1SOL     OW 4689   2.985   4.262   1.959 -0.5249  0.0421 -0.2766
    1SOL    HW2 4690   3.067   4.307   1.978 -0.4810 -0.6043  1.0762
    1SOL    HW3 4691   2.951   4.307   1.882  0.1615  1.5491  0.2837
    1SOL    MW4 4692   2.991   4.274   1.951 -0.4284  0.1559 -0.0242
    1SOL     OW 4693   0.111   2.683   3.244  0.0326  0.3187 -0.3724
    1SOL    HW2 4694   0.201   2.677   3.275  0.1005  2.2365 -0.1010
    1SOL    HW3 4695   0.114   2.747   3.173 -0.9987 -0.1058 -0.8071
    1SOL    MW4 4696   0.123   2.691   3.239 -0.0945  0.5157 -0.3939
    1SOL     OW 4697   0.741   0.969   1.626 -0.3773 -0.4482 -0.3648
    1SOL    HW2 4698   0.751   0.936   1.716  0.8948 -0.1768 -0.4046
    1SOL    HW3 4699   0.648   0.957   1.607 -0.2313 -2.7078  0.1372
    1SOL    MW4 4700   0.730   0.963   1.636 -0.1902 -0.7106 -0.3037
    1SOL     OW 4701   0.476   1.826   4.053 -0.4675  0.6576 -0.2483
    1SOL    HW2 4702   0.446   1.740   4.022 -0.6157  1.2602 -1.7965
    1SOL    HW3 4703   0.399   1.863   4.096 -0.0269 -0.5197  1.6203
    1SOL    MW4 4704   0.461   1.819   4.055 -0.4289  0.5819 -0.2060
    1SOL     OW 4705   3.460   3.048   2.056  0.5939 -0.2706 -0.1148
    1SOL    HW2 4706   3.474   3.109   2.129 -0.1267 -1.1276  0.7470
    1SOL    HW3 4707   3.406   2.978   2.093  0.5951 -0.9392 -1.3581
    1SOL    MW4 4708   3.455   3.047   2.071  0.4990 -0.4718 -0.1650
    1SOL     OW 4709   2.713   1.285   3.362  0.1025  0.4380 -0.5033
    1SOL    HW2 4710   2.741   1.278   3.454 -1.3218  1.5226  0.0375
    1SOL    HW3 4711   2.713   1.380   3.345 -0.8401  0.3076 -1.2385
    1SOL    MW4 4712   2.717   1.297   3.372 -0.2096  0.5639 -0.5288
    1SOL     OW 4713   1.484   3.604   1.102  0.5055 -0.9353 -0.0318
    1SOL    HW2 4714   1.561   3.648   1.138  0.1594  0.0298 -0.4526
    1SOL    HW3 4715   1.442   3.563   1.178  1.5411 -1.6494  0.1678
    1SOL    MW4 4716   1.489   3.604   1.117  0.5964 -0.9022 -0.0610
    1SOL     OW 4717   4.080   2.963   1.509  0.2473 -0.6169  0.1164
    1SOL    HW2 4718   4.008   2.901   1.505  0.5960 -0.9661 -0.9932
    1SOL    HW3 4719   4.040   3.044   1.540 -0.8670 -0.4873 -1.5617
    1SOL    MW4 4720   4.065   2.966   1.512  0.1459 -0.6459 -0.2514
    1SOL     OW 4721   2.666   1.707   4.436  0.2010  0.2229  0.5774
    1SOL    HW2 4722   2.750   1.683   4.476  1.5640  2.6917 -0.6939
    1SOL    HW3 4723   2.664   1.659   4.353  0.1251 -0.2151  0.8306
    1SOL    MW4 4724   2.677   1.697   4.431  0.3710  0.4909  0.4435
    1SOL     OW 4725   3.013   1.210   3.836  0.2042  0.1508  0.8117
    1SOL    HW2 4726   3.051   1.137   3.884  0.0219  1.5533  3.1586
    1SOL    HW3 4727   3.084   1.273   3.828 -0.5438  1.1598  1.8609
    1SOL    MW4 4728   3.027   1.209   3.841  0.0813  0.4687  1.2598
    1SOL     OW 4729   4.309   0.601   1.220  0.1086 -0.0985  0.3191
    1SOL    HW2 4730   4.334   0.529   1.162  1.7618  1.4930 -0.9735
    1SOL    HW3 4731   4.362   0.589   1.298  0.9238  0.1334 -0.1959
    1SOL    MW4 4732   4.319   0.590   1.223  0.4344  0.1421  0.0807
    1SOL     OW 4733   3.265   1.660   4.755 -0.2186  0.0539  0.3995
    1SOL    HW2 4734   3.214   1.656   4.836  1.0089  2.5144  1.3229
    1SOL    HW3 4735   3.262   1.570   4.721 -0.8480 -0.9962  3.0990
    1SOL    MW4 4736   3.258   1.647   4.761 -0.1397  0.2400  0.8774
    1SOL     OW 4737   0.211   1.294   1.354  0.0468 -0.0435 -0.1723
    1SOL    HW2 4738   0.275   1.286   1.425 -1.2666  1.0084  1.1826
    1SOL    HW3 4739   0.150   1.221   1.367 -1.5183  1.4548  1.2253
    1SOL    MW4 4740   0.211   1.284   1.365 -0.3330  0.2931  0.1909
    1SOL     OW 4741   3.192   4.166   3.843 -0.0928  0.3332 -0.1096
    1SOL    HW2 4742   3.271   4.215   3.820  0.5228 -1.0582 -1.0533
    1SOL    HW3 4743   3.124   4.202   3.786  0.6702 -0.8363 -1.7681
    1SOL    MW4 4744   3.193   4.177   3.833  0.0889 -0.0043 -0.4530
    1SOL     OW 4745   1.877   4.648   2.116 -0.1227 -0.3919 -0.2198
    1SOL    HW2 4746   1.840   4.565   2.147  1.7457 -1.4100 -0.6667
    1SOL    HW3 4747   1.931   4.678   2.189  0.1703 -0.1745 -0.5271
    1SOL    MW4 4748   1.879   4.641   2.130  0.1624 -0.4978 -0.3192
    1SOL     OW 4749   1.976   0.960   4.540 -0.5525 -0.3176  0.3014
    1SOL    HW2 4750   2.055   0.923   4.582  1.2387  1.9058 -0.9722
    1SOL    HW3 4751   1.968   0.912   4.458  1.2850  1.4178 -0.9612
    1SOL    MW4 4752   1.986   0.949   4.535 -0.0738  0.2047 -0.0339
    1SOL     OW 4753   0.700   1.182   4.218  0.5153 -0.3953  0.2996
    1SOL    HW2 4754   0.621   1.128   4.228  0.3372 -0.6957 -2.4829
    1SOL    HW3 4755   0.668   1.272   4.218  0.3073 -0.4690  0.3078
    1SOL    MW4 4756   0.685   1.186   4.219  0.4643 -0.4447 -0.0663
    1SOL     OW 4757   1.816   2.956   2.024  0.1328  0.5496  0.1463
    1SOL    HW2 4758   1.795   3.043   2.056  2.1781  1.0814  0.1188
    1SOL    HW3 4759   1.850   2.970   1.936 -1.6279 -0.5048 -0.7214
    1SOL    MW4 4760   1.818   2.969   2.017  0.1704  0.4804  0.0281
    1SOL     OW 4761   0.749   2.686   2.738 -0.3365  0.2991  0.1759
    1SOL    HW2 4762   0.737   2.701   2.645 -1.6633  0.7267  0.4038
    1SOL    HW3 4763   0.672   2.726   2.779 -0.9068 -1.8249  1.2731
    1SOL    MW4 4764   0.737   2.693   2.731 -0.5868  0.0753  0.3507
    1SOL     OW 4765   4.331   1.219   2.581  0.0471  0.1186 -0.2380
    1SOL    HW2 4766   4.382   1.278   2.637  0.9997  0.6957 -1.6807
    1SOL    HW3 4767   4.310   1.145   2.638 -0.7306  1.6016  1.4428
    1SOL    MW4 4768   4.335   1.217   2.596  0.0706  0.3905 -0.2065
    1SOL     OW 4769   3.769   4.475   4.042 -0.2305 -0.2483  0.4311
    1SOL    HW2 4770   3.692   4.523   4.072 -0.4090 -0.6220  0.5737
    1SOL    HW3 4771   3.782   4.505   3.952 -0.0700  0.4039  0.6654
    1SOL    MW4 4772   3.761   4.485   4.034 -0.2332 -0.2112  0.4807
    1SOL     OW 4773   4.465   4.512   1.098  0.5706 -0.1336  0.5109
    1SOL    HW2 4774   4.534   4.507   1.032 -0.9184 -0.3410 -1.0745
    1SOL    HW3 4775   4.452   4.606   1.112 -0.3048 -0.0272 -0.8338
    1SOL    MW4 4776   4.472   4.524   1.091  0.2584 -0.1464  0.1243
    1SOL     OW 4777   0.883   1.007   0.994 -0.8341  0.3272 -0.2960
    1SOL    HW2 4778   0.882   1.102   0.987  0.4349  0.6755  3.2230
    1SOL    HW3 4779   0.830   0.988   1.072  0.1316 -1.7308 -0.1073
    1SOL    MW4 4780   0.876   1.017   1.003 -0.5392  0.1016  0.1931
    1SOL     OW 4781   4.047   1.467   3.655  0.3640 -0.1266 -0.6436
    1SOL    HW2 4782   4.045   1.540   3.592  0.0972  0.7685  0.3906
    1SOL    HW3 4783   3.955   1.449   3.673  0.3996 -1.3716 -1.6149
    1SOL    MW4 4784   4.034   1.474   3.649  0.3333 -0.1727 -0.6354
    1SOL     OW 4785   2.374   2.305   3.959  1.0854 -0.3890 -0.1520
    1SOL    HW2 4786   2.317   2.301   3.882  1.5128  0.7624 -0.5449
    1SOL    HW3 4787   2.324   2.261   4.028 -0.8323  1.6325 -0.1795
    1SOL    MW4 4788   2.360   2.299   3.958  0.8888  0.0296 -0.2077
    1SOL     OW 4789   3.414   3.933   0.975 -0.0890  0.0309  1.1079
    1SOL    HW2 4790   3.498   3.898   0.944 -0.2032  0.1064  0.7158
    1SOL    HW3 4791   3.422   4.027   0.965 -0.2487  0.0328  1.0085
    1SOL    MW4 4792   3.426   3.941   0.970 -0.1252  0.0410  1.0431
    1SOL     OW 4793   4.202   2.802   1.197  0.1581 -0.0037  0.0784
    1SOL    HW2 4794   4.245   2.840   1.273  1.9334 -0.9445 -0.4301
    1SOL    HW3 4795   4.262   2.818   1.124 -0.9490 -0.2034 -0.8984
    1SOL    MW4 4796   4.215   2.809   1.197  0.2456 -0.1543 -0.1177
    1SOL     OW 4797   0.206   3.815   1.803  0.3665  0.6167  0.5940
    1SOL    HW2 4798   0.279   3.876   1.805  0.6252  0.4139 -1.6374
    1SOL    HW3 4799   0.128   3.870   1.810  0.6516  1.0015  0.7593
    1SOL    MW4 4800   0.205   3.830   1.804  0.4383  0.6409  0.3215
    1SOL     OW 4801   0.214   0.510   1.640 -0.1587 -0.2566 -0.1503
    1SOL    HW2 4802   0.133   0.459   1.633  0.7803 -1.5438 -1.8709
    1SOL    HW3 4803   0.231   0.539   1.550  2.4257 -1.7641 -0.1730
    1SOL    MW4 4804   0.205   0.507   1.627  0.3062 -0.6254 -0.3802
    1SOL     OW 4805   4.040   4.424   0.907  0.6003  0.3527  0.5083
    1SOL    HW2 4806   4.123   4.454   0.871  0.0300 -1.0831 -2.1251
    1SOL    HW3 4807   4.059   4.338   0.945  0.0578 -0.5978 -1.3304
    1SOL    MW4 4808   4.053   4.417   0.907  0.4535  0.0381 -0.0817
    1SOL     OW 4809   1.437   0.843   0.945  0.4774 -0.1335 -0.6469
    1SOL    HW2 4810   1.424   0.926   0.992 -1.4668 -1.2184  0.7993
    1SOL    HW3 4811   1.461   0.870   0.857  1.7528  1.9730  0.2829
    1SOL    MW4 4812   1.438   0.858   0.940  0.3891  0.0013 -0.3334
    1SOL     OW 4813   2.398   3.756   4.443  0.2792  0.5199  0.0880
    1SOL    HW2 4814   2.306   3.772   4.462  0.3672  2.5606 -1.1287
    1SOL    HW3 4815   2.445   3.815   4.502  0.8735 -1.3253  1.5175
    1SOL    MW4 4816   2.392   3.766   4.453  0.3691  0.5457  0.1163
    1SOL     OW 4817   0.872   0.058   3.560  0.2967 -0.2693 -0.0819
    1SOL    HW2 4818   0.918  -0.003   3.617  1.5177 -0.0425 -0.8145
    1SOL    HW3 4819   0.931   0.133   3.552 -1.5283  1.3824  1.4747
    1SOL    MW4 4820   0.885   0.060   3.566  0.2171 -0.0214  0.0269
    1SOL     OW 4821   4.177   0.021   3.048  0.1581 -0.6535 -0.2460
    1SOL    HW2 4822   4.134  -0.043   3.104  0.0217 -0.9819 -0.7222
    1SOL    HW3 4823   4.116   0.095   3.045 -0.1247 -0.8918 -0.4689
    1SOL    MW4 4824   4.163   0.022   3.055  0.1030 -0.7282 -0.3383
    1SOL     OW 4825   3.610   0.178   0.664 -0.1106 -0.3156  0.7542
    1SOL    HW2 4826   3.603   0.111   0.595 -1.6117  0.9803 -0.3865
    1SOL    HW3 4827   3.543   0.153   0.728 -0.3793 -0.1728  0.5350
    1SOL    MW4 4828   3.600   0.166   0.663 -0.3443 -0.1258  0.5748
    1SOL     OW 4829   1.397   4.022   3.702 -0.2103  0.1461 -0.4464
    1SOL    HW2 4830   1.395   3.938   3.655  0.3958 -1.1991  1.8646
    1SOL    HW3 4831   1.490   4.035   3.722 -0.3839  1.0461 -0.2327
    1SOL    MW4 4832   1.409   4.013   3.698 -0.1532  0.0877 -0.1135
    1SOL     OW 4833   4.136   0.470   2.834 -0.2021 -0.1791  0.1109
    1SOL    HW2 4834   4.069   0.498   2.771 -0.1086  1.0484  0.5327
    1SOL    HW3 4835   4.142   0.375   2.822 -0.9234 -0.1022 -1.0052
    1SOL    MW4 4836   4.128   0.461   2.824 -0.2851 -0.0070  0.0193
    1SOL     OW 4837   3.321   4.155   0.620  0.3227  0.0932  0.0358
    1SOL    HW2 4838   3.401   4.126   0.664  0.5460  1.0033  0.2472
    1SOL    HW3 4839   3.340   4.146   0.527  0.2039 -0.9120  0.1052
    1SOL    MW4 4840   3.334   4.150   0.614  0.3362  0.0806  0.0729
    1SOL     OW 4841   4.071   1.048   3.877 -0.2305 -0.1482 -0.4355
    1SOL    HW2 4842   4.019   1.086   3.948 -1.9520 -1.4347 -0.9684
    1SOL    HW3 4843   4.134   1.117   3.854  0.7270  0.1224  2.6520
    1SOL    MW4 4844   4.073   1.062   3.883 -0.3309 -0.2822 -0.0982
    1SOL     OW 4845   2.381   1.667   4.407 -0.0193  0.3108  0.3563
    1SOL    HW2 4846   2.383   1.575   4.384  0.5422 -0.3330  2.7978
    1SOL    HW3 4847   2.466   1.684   4.448 -1.2206  1.1417  2.6211
    1SOL    MW4 4848   2.393   1.657   4.410 -0.1035  0.3355  0.9770
    1SOL     OW 4849   1.989   4.198   3.227  0.4050  0.8431 -0.0471
    1SOL    HW2 4850   2.011   4.246   3.148  0.3120 -0.1994 -0.7144
    1SOL    HW3 4851   1.979   4.266   3.295  0.0538  1.7712 -1.0147
    1SOL    MW4 4852   1.990   4.213   3.226  0.3465  0.8287 -0.2630
    1SOL     OW 4853   0.835   1.131   1.891 -0.0657 -0.0332 -0.1895
    1SOL    HW2 4854   0.805   1.156   1.804 -0.0621 -0.6915 -0.3843
    1SOL    HW3 4855   0.759   1.088   1.931  0.5775 -1.5978 -0.6365
    1SOL    MW4 4856   0.821   1.129   1.885  0.0197 -0.3265 -0.2742
    1SOL     OW 4857   2.772   4.094   0.882  0.2887  0.2973 -0.3495
    1SOL    HW2 4858   2.830   4.136   0.818  0.8688  0.9751  0.6055
    1SOL    HW3 4859   2.831   4.061   0.949 -0.2562 -1.1282 -0.5596
    1SOL    MW4 4860   2.788   4.095   0.882  0.2935  0.1988 -0.2512
    1SOL     OW 4861   1.947   0.785   3.533 -0.3547  0.0800  0.7416
    1SOL    HW2 4862   1.878   0.720   3.519  0.1522 -0.7391  1.9712
    1SOL    HW3 4863   2.013   0.739   3.584  1.9549  0.2906 -1.8983
    1SOL    MW4 4864   1.947   0.770   3.538  0.0168 -0.0003  0.5558
    1SOL     OW 4865   1.967   3.431   3.855  0.7200 -0.3541 -0.1325
    1SOL    HW2 4866   1.995   3.506   3.907 -0.2527 -0.4516  0.5466
    1SOL    HW3 4867   2.015   3.357   3.891  0.2896 -0.3663  0.4134
    1SOL    MW4 4868   1.977   3.431   3.866  0.5348 -0.3686  0.0291
    1SOL     OW 4869   2.309   3.105   4.013 -0.0489 -0.0792 -0.0361
    1SOL    HW2 4870   2.345   3.017   4.014 -1.7298 -0.7747  1.2315
    1SOL    HW3 4871   2.384   3.162   4.027  0.7879 -1.4049  0.9857
    1SOL    MW4 4872   2.323   3.101   4.015 -0.1602 -0.3459  0.2661
    1SOL     OW 4873   2.460   0.091   4.159  0.0955 -0.3753  0.4833
    1SOL    HW2 4874   2.497   0.137   4.084 -0.3547 -0.2238  0.3510
    1SOL    HW3 4875   2.468  -0.001   4.137 -2.2403 -0.3067 -0.8448
    1SOL    MW4 4876   2.466   0.085   4.147 -0.2720 -0.3462  0.2909
    1SOL     OW 4877   2.285   2.629   0.878  1.1049  0.0080 -0.3108
    1SOL    HW2 4878   2.191   2.628   0.899  0.8484 -1.5585 -1.4452
    1SOL    HW3 4879   2.290   2.679   0.797  1.1073 -0.8844 -0.8637
    1SOL    MW4 4880   2.273   2.635   0.870  1.0715 -0.3164 -0.5335
    1SOL     OW 4881   2.947   0.421   0.720  0.5720 -0.3277 -0.2227
    1SOL    HW2 4882   2.874   0.482   0.735  0.5240 -0.3939 -0.1825
    1SOL    HW3 4883   3.025   0.475   0.722  0.4899 -0.1937 -0.6922
    1SOL    MW4 4884   2.947   0.436   0.722  0.5546 -0.3187 -0.2793
    1SOL     OW 4885   0.353   4.569   4.330 -0.4004  0.4881 -0.3736
    1SOL    HW2 4886   0.420   4.503   4.310 -0.1245  1.0510 -1.3545
    1SOL    HW3 4887   0.322   4.546   4.417  2.1176  1.0777  0.7101
    1SOL    MW4 4888   0.358   4.557   4.339 -0.0318  0.6399 -0.3600
    1SOL     OW 4889   1.249   2.533   3.475  0.1777 -0.0359 -0.2849
    1SOL    HW2 4890   1.322   2.477   3.502  0.2127 -0.1691 -0.6561
    1SOL    HW3 4891   1.182   2.472   3.445  0.0404  0.1004 -0.2534
    1SOL    MW4 4892   1.250   2.518   3.474  0.1642 -0.0353 -0.3297
    1SOL     OW 4893   2.082   4.043   3.722  0.0096  0.2977  0.4967
    1SOL    HW2 4894   2.001   4.060   3.673 -0.3399 -0.3468  0.8427
    1SOL    HW3 4895   2.056   4.053   3.814 -0.5279 -3.2808  0.8033
    1SOL    MW4 4896   2.068   4.046   3.728 -0.1075 -0.2594  0.5827
    1SOL     OW 4897   2.491   3.878   3.481  0.2712  0.8333 -0.5176
    1SOL    HW2 4898   2.522   3.789   3.499  0.0853  0.5857 -1.3707
    1SOL    HW3 4899   2.439   3.902   3.558 -2.1866 -0.9544 -1.5319
    1SOL    MW4 4900   2.488   3.869   3.493 -0.0775  0.5648 -0.7639
    1SOL     OW 4901   2.196   0.890   1.829  0.2744  0.0907 -0.7128
    1SOL    HW2 4902   2.215   0.808   1.874  0.8370  0.7848  0.3606
    1SOL    HW3 4903   2.109   0.878   1.792 -0.1595 -0.5606  0.4745
    1SOL    MW4 4904   2.187   0.878   1.830  0.2913  0.0964 -0.4146
    1SOL     OW 4905   3.960   2.516   3.259  0.3257 -0.7250 -0.1216
    1SOL    HW2 4906   3.894   2.452   3.231 -0.3484  0.0325 -0.2937
    1SOL    HW3 4907   3.948   2.590   3.200  0.8469 -0.2867  0.3165
    1SOL    MW4 4908   3.950   2.517   3.248  0.3052 -0.5672 -0.0865
    1SOL     OW 4909   2.983   2.152   1.800 -0.2069 -0.4986 -0.1939
    1SOL    HW2 4910   3.037   2.117   1.730 -0.6394 -0.9814 -0.2823
    1SOL    HW3 4911   3.038   2.146   1.878  0.1305 -0.3154 -0.4165
    1SOL    MW4 4912   2.998   2.147   1.801 -0.2193 -0.5379 -0.2348
    1SOL     OW 4913   1.198   2.116   2.176 -0.1026 -0.4195 -0.1417
    1SOL    HW2 4914   1.147   2.125   2.095  0.6043 -0.9399 -0.6545
    1SOL    HW3 4915   1.147   2.055   2.229 -0.3528 -0.4151 -0.3724
    1SOL    MW4 4916   1.184   2.109   2.172 -0.0423 -0.4876 -0.2396
    1SOL     OW 4917   4.367   1.671   3.412  0.4133  0.6042  0.3842
    1SOL    HW2 4918   4.313   1.750   3.411  2.6784  2.2292  1.2250
    1SOL    HW3 4919   4.438   1.690   3.350  0.1537 -1.4154 -0.5955
    1SOL    MW4 4920   4.369   1.684   3.403  0.6781  0.5521  0.3657
    1SOL     OW 4921   2.852   4.372   4.133 -0.0033  0.1819  0.0371
    1SOL    HW2 4922   2.788   4.382   4.203  0.3129 -0.0807  0.3692
    1SOL    HW3 4923   2.896   4.289   4.153 -0.4878 -0.3101 -0.9391
    1SOL    MW4 4924   2.849   4.362   4.145 -0.0255  0.0820 -0.0477
    1SOL     OW 4925   3.443   3.841   3.358  0.1518 -0.2077  0.1358
    1SOL    HW2 4926   3.403   3.881   3.281  1.5130 -0.2780 -0.6304
    1SOL    HW3 4927   3.400   3.884   3.432 -0.5560  0.4911 -0.6621
    1SOL    MW4 4928   3.432   3.852   3.357  0.2379 -0.1247 -0.0706
    1SOL     OW 4929   2.620   1.363   1.195  0.3991 -0.1588  0.1800
    1SOL    HW2 4930   2.561   1.411   1.137  1.0924  0.2250 -0.2260
    1SOL    HW3 4931   2.629   1.277   1.155 -2.1950 -1.2545  1.8209
    1SOL    MW4 4932   2.613   1.358   1.182  0.1483 -0.2527  0.3428
    1SOL     OW 4933   1.319   2.516   2.077 -0.7745  0.0326 -0.2848
    1SOL    HW2 4934   1.343   2.430   2.043 -0.9661 -0.3992  0.6597
    1SOL    HW3 4935   1.394   2.543   2.130 -0.4909  0.6851 -1.0216
    1SOL    MW4 4936   1.332   2.508   2.080 -0.7622  0.0620 -0.2575
    1SOL     OW 4937   4.344   3.659   1.428 -0.1273  0.6882  0.2339
    1SOL    HW2 4938   4.361   3.612   1.510  1.0084 -0.1445 -0.4649
    1SOL    HW3 4939   4.252   3.641   1.409 -0.5079  1.1888  1.5067
    1SOL    MW4 4940   4.334   3.651   1.437 -0.0277  0.6442  0.3098
    1SOL     OW 4941   2.811   2.914   0.798 -0.4229 -0.2567  0.3344
    1SOL    HW2 4942   2.871   2.858   0.749 -0.4129  0.0509 -0.0089
    1SOL    HW3 4943   2.812   2.879   0.887 -0.6630 -1.0026  0.0443
    1SOL    MW4 4944   2.819   2.902   0.803 -0.4530 -0.3147  0.2508
    1SOL     OW 4945   2.904   3.297   3.712  0.2497 -0.7442  0.2198
    1SOL    HW2 4946   2.963   3.302   3.787  0.8499  0.0006 -0.2987
    1SOL    HW3 4947   2.940   3.358   3.648 -1.2237 -0.0761 -0.0083
    1SOL    MW4 4948   2.916   3.306   3.713  0.1347 -0.5579  0.1214
    1SOL     OW 4949   3.843   4.112   0.689  0.0454  0.2419  0.1084
    1SOL    HW2 4950   3.903   4.051   0.646 -0.6209 -2.0569  2.3251
    1SOL    HW3 4951   3.757   4.091   0.651  0.0203  0.7137 -0.0944
    1SOL    MW4 4952   3.839   4.101   0.678 -0.0458  0.0005  0.3742
    1SOL     OW 4953   1.656   3.026   0.632 -0.6675  0.3615 -0.0779
    1SOL    HW2 4954   1.695   2.939   0.619  1.1684  1.2320 -0.5038
    1SOL    HW3 4955   1.645   3.033   0.727 -0.5230 -0.2102 -0.0140
    1SOL    MW4 4956   1.660   3.015   0.643 -0.4061  0.4008 -0.1256
    1SOL     OW 4957   3.620   1.971   2.067  0.2663  0.2363 -0.3819
    1SOL    HW2 4958   3.650   2.052   2.027 -2.0992  1.0830 -0.5106
    1SOL    HW3 4959   3.584   1.997   2.151  0.0196 -0.7630 -0.1691
    1SOL    MW4 4960   3.619   1.985   2.073 -0.0782  0.2161 -0.3707
    1SOL     OW 4961   0.907   3.429   1.162 -0.2458 -0.3590  0.3308
    1SOL    HW2 4962   0.869   3.516   1.177  2.2799  0.3946  2.9548
    1SOL    HW3 4963   0.856   3.371   1.218 -1.4377 -0.4495 -0.8318
    1SOL    MW4 4964   0.896   3.433   1.172 -0.0697 -0.2716  0.5236
    1SOL     OW 4965   2.754   4.636   1.019  0.2275  0.6532  0.5796
    1SOL    HW2 4966   2.800   4.682   0.948 -1.4738  0.5027 -0.6519
    1SOL    HW3 4967   2.743   4.547   0.987 -2.6305  1.1691 -0.0036
    1SOL    MW4 4968   2.759   4.631   1.005 -0.3743  0.7010  0.3402
    1SOL     OW 4969   1.617   1.209   4.057 -0.1450  0.0407  0.3066
    1SOL    HW2 4970   1.705   1.206   4.094 -0.1247  1.1071  0.3740
    1SOL    HW3 4971   1.559   1.218   4.133 -0.3555 -1.1630  0.2980
    1SOL    MW4 4972   1.621   1.210   4.072 -0.1701  0.0225  0.3147
    1SOL     OW 4973   2.010   3.936   1.741  0.1091  0.1466 -0.4220
    1SOL    HW2 4974   1.967   3.973   1.664  0.6778 -1.7321 -1.6853
    1SOL    HW3 4975   1.963   3.854   1.757  0.8019 -0.0842  0.4594
    1SOL    MW4 4976   1.998   3.930   1.733  0.2756 -0.1321 -0.4724
    1SOL     OW 4977   1.557   0.268   2.542  0.0213 -0.5787 -0.4737
    1SOL    HW2 4978   1.553   0.341   2.604 -1.6152 -0.9427 -0.1322
    1SOL    HW3 4979   1.496   0.203   2.578  2.9833 -3.0160  0.3798
    1SOL    MW4 4980   1.548   0.269   2.555  0.1962 -0.9483 -0.3159
    1SOL     OW 4981   0.706   2.620   2.452 -0.0722  0.2879  0.1833
    1SOL    HW2 4982   0.611   2.632   2.452 -0.4131 -2.1149 -0.5204
    1SOL    HW3 4983   0.739   2.686   2.391 -1.2407  1.3218  0.6495
    1SOL    MW4 4984   0.698   2.630   2.444 -0.2714  0.1073  0.1519
    1SOL     OW 4985   3.179   2.270   3.396  0.0028  0.4049  0.1085
    1SOL    HW2 4986   3.147   2.323   3.323  0.2327  0.6490  0.1843
    1SOL    HW3 4987   3.258   2.228   3.362  1.2001  2.0254  0.8237
    1SOL    MW4 4988   3.186   2.271   3.382  0.1917  0.6509  0.2129
    1SOL     OW 4989   0.163   1.139   4.348  0.2988  0.0536  0.0016
    1SOL    HW2 4990   0.252   1.168   4.367  0.1661  0.3077  0.2367
    1SOL    HW3 4991   0.168   1.044   4.349  0.7682  0.0676 -0.9127
    1SOL    MW4 4992   0.175   1.130   4.351  0.3432  0.0889 -0.0877
    1SOL     OW 4993   0.330   4.045   4.008 -0.4598 -0.2220  0.0651
    1SOL    HW2 4994   0.258   3.983   4.017  0.4109 -1.4080 -0.9738
    1SOL    HW3 4995   0.389   4.005   3.944  0.7973  1.0433  0.3943
    1SOL    MW4 4996   0.328   4.032   4.001 -0.1791 -0.2117 -0.0286
    1SOL     OW 4997   1.507   4.310   4.420  0.0356 -0.5748  0.0903
    1SOL    HW2 4998   1.429   4.281   4.372 -0.5127 -0.5641  0.9641
    1SOL    HW3 4999   1.477   4.321   4.510  0.7331  0.7766  0.1597
    1SOL    MW4 5000   1.493   4.307   4.426  0.0553 -0.3948  0.2146
    1SOL     OW 5001   3.354   3.352   1.209 -1.1147 -0.0359  0.3708
    1SOL    HW2 5002   3.388   3.263   1.213  0.0582  0.4441  1.3067
    1SOL    HW3 5003   3.261   3.344   1.228 -0.7275 -0.8892  1.9121
    1SOL    MW4 5004   3.346   3.340   1.212 -0.9089 -0.0851  0.6975
    1SOL     OW 5005   0.525   0.871   4.445  0.1170 -0.4812 -0.0475
    1SOL    HW2 5006   0.473   0.923   4.383 -0.2408 -1.4329 -0.5623
    1SOL    HW3 5007   0.615   0.899   4.431 -0.2141  0.9356  0.5974
    1SOL    MW4 5008   0.530   0.882   4.435  0.0262 -0.4198 -0.0305
    1SOL     OW 5009   0.348   0.845   3.331  0.0886  0.4094 -0.0944
    1SOL    HW2 5010   0.342   0.761   3.286 -1.0498  0.3975  0.0700
    1SOL    HW3 5011   0.347   0.910   3.261 -2.5701  0.4346 -0.0843
    1SOL    MW4 5012   0.347   0.842   3.316 -0.4124  0.4112 -0.0713
    1SOL     OW 5013   3.175   3.087   4.615 -0.6101 -0.4236 -0.3721
    1SOL    HW2 5014   3.151   3.138   4.538  1.1884  0.2773 -0.4962
    1SOL    HW3 5015   3.106   3.020   4.622 -1.8232  0.6886 -1.4469
    1SOL    MW4 5016   3.163   3.085   4.605 -0.5329 -0.1848 -0.5307
    1SOL     OW 5017   2.340   1.883   3.121 -0.4136  0.0840  0.2486
    1SOL    HW2 5018   2.296   1.898   3.037 -0.0433 -0.0610  0.0314
    1SOL    HW3 5019   2.270   1.894   3.186 -0.7628 -0.0934 -0.0946
    1SOL    MW4 5020   2.325   1.887   3.118 -0.4110  0.0414  0.1745
    1SOL     OW 5021   1.440   1.241   0.763  0.0277 -0.2931 -0.3159
    1SOL    HW2 5022   1.424   1.193   0.682  0.6267 -0.0690 -0.5670
    1SOL    HW3 5023   1.390   1.322   0.752 -0.0996 -0.3752 -0.3496
    1SOL    MW4 5024   1.431   1.245   0.751  0.0899 -0.2743 -0.3535
    1SOL     OW 5025   3.422   0.372   1.824 -0.6177 -0.0010 -0.0241
    1SOL    HW2 5026   3.338   0.392   1.865 -0.3872  1.7613 -0.3773
    1SOL    HW3 5027   3.401   0.356   1.732 -0.6953 -0.5197  0.0855
    1SOL    MW4 5028   3.408   0.373   1.817 -0.5972  0.1630 -0.0561
    1SOL     OW 5029   0.954   3.868   0.681 -0.1968 -0.2092  0.4327
    1SOL    HW2 5030   0.932   3.823   0.600 -0.9284 -1.4007  1.2564
    1SOL    HW3 5031   1.046   3.845   0.697 -0.4084 -0.9951  0.5648
    1SOL    MW4 5032   0.963   3.859   0.673 -0.3213 -0.4699  0.5587
    1SOL     OW 5033   3.107   2.259   4.621 -0.0633 -0.2507  0.2017
    1SOL    HW2 5034   3.201   2.258   4.637  0.1224 -0.0903 -0.8599
    1SOL    HW3 5035   3.091   2.184   4.564 -0.8429 -1.2993  1.7334
    1SOL    MW4 5036   3.117   2.249   4.616 -0.1414 -0.3679  0.2642
    1SOL     OW 5037   1.613   3.038   2.826 -0.0457  0.1368 -0.2527
    1SOL    HW2 5038   1.597   2.981   2.751  0.8907  0.8302 -1.0039
    1SOL    HW3 5039   1.693   3.003   2.866  0.0579  0.4162 -0.2138
    1SOL    MW4 5040   1.622   3.026   2.822  0.0916  0.2651 -0.3469
    1SOL     OW 5041   0.215   1.897   2.278 -0.0542  0.3294  0.2698
    1SOL    HW2 5042   0.241   1.911   2.187 -0.8450  2.0489  0.2875
    1SOL    HW3 5043   0.235   1.980   2.322 -0.6701 -0.1219  1.4275
    1SOL    MW4 5044   0.221   1.910   2.272 -0.2398  0.4969  0.4251
    1SOL     OW 5045   1.974   4.605   4.188 -0.4792  1.0690 -0.1715
    1SOL    HW2 5046   1.880   4.594   4.177 -0.1490  0.4232 -2.4724
    1SOL    HW3 5047   1.996   4.552   4.265 -2.0940  1.8660  0.8634
    1SOL    MW4 5048   1.965   4.597   4.197 -0.6489  1.0881 -0.3386
    1SOL     OW 5049   4.388   0.888   3.299  0.2233 -0.2843 -0.4273
    1SOL    HW2 5050   4.344   0.939   3.368  2.6910 -0.4641  1.3630
    1SOL    HW3 5051   4.323   0.824   3.271 -1.5984  1.2730  0.1191
    1SOL    MW4 5052   4.374   0.886   3.305  0.3085 -0.1025 -0.1187
    1SOL     OW 5053   3.652   2.240   2.013  0.0165 -0.2000 -0.1645
    1SOL    HW2 5054   3.585   2.283   2.066  0.0446 -1.7200  1.1549
    1SOL    HW3 5055   3.735   2.272   2.048  0.0222  0.9675 -1.1893
    1SOL    MW4 5056   3.654   2.250   2.025  0.0212 -0.2465 -0.1259
    1SOL     OW 5057   1.589   2.511   3.563 -0.4900 -0.0247 -0.2078
    1SOL    HW2 5058   1.665   2.490   3.509 -1.2872  1.1294 -1.8126
    1SOL    HW3 5059   1.534   2.432   3.559  0.3353 -0.6488  0.4967
    1SOL    MW4 5060   1.592   2.498   3.556 -0.4863  0.0453 -0.3266
    1SOL     OW 5061   2.447   0.307   2.016 -0.0605 -0.1023 -0.3775
    1SOL    HW2 5062   2.539   0.332   2.005 -0.7345  2.1866 -0.9976
    1SOL    HW3 5063   2.445   0.261   2.100  1.7919 -0.9745 -0.7728
    1SOL    MW4 5064   2.459   0.304   2.026  0.0947  0.0846 -0.5114
    1SOL     OW 5065   3.108   4.454   2.390  0.3637  0.5758 -0.2394
    1SOL    HW2 5066   3.162   4.478   2.466 -0.1977  0.5467  0.1659
    1SOL    HW3 5067   3.040   4.521   2.387  0.5273  0.7235 -0.8708
    1SOL    MW4 5068   3.106   4.466   2.399  0.3111  0.5918 -0.2694
    1SOL     OW 5069   3.643   4.497   2.458  0.5088 -0.3875  0.3528
    1SOL    HW2 5070   3.680   4.430   2.401 -0.6600 -0.0965 -0.7689
    1SOL    HW3 5071   3.646   4.578   2.406 -0.6966 -0.1505  0.6352
    1SOL    MW4 5072   3.648   4.499   2.443  0.1955 -0.3176  0.2420
    1SOL     OW 5073   4.428   2.074   2.123  0.2439  0.2070 -0.2567
    1SOL    HW2 5074   4.403   2.076   2.216  0.7348 -0.1288 -0.1137
    1SOL    HW3 5075   4.348   2.097   2.076 -0.5281 -1.5782  0.1588
    1SOL    MW4 5076   4.414   2.077   2.129  0.2060 -0.0727 -0.1831
    1SOL     OW 5077   2.874   3.252   2.913 -0.2475 -0.1983 -0.1496
    1SOL    HW2 5078   2.959   3.229   2.874 -0.7473 -0.3689 -1.1730
    1SOL    HW3 5079   2.832   3.167   2.927 -0.5658 -0.0801 -0.3935
    1SOL    MW4 5080   2.880   3.237   2.910 -0.3552 -0.2050 -0.3166
    1SOL     OW 5081   0.734   1.928   0.858  0.1244 -0.2664  0.0457
    1SOL    HW2 5082   0.711   1.942   0.950 -0.8990  1.9575 -0.5196
    1SOL    HW3 5083   0.653   1.897   0.817  0.3735 -0.4792 -0.2885
    1SOL    MW4 5084   0.720   1.926   0.865  0.0223 -0.0011 -0.0731
    1SOL     OW 5085   0.948   1.453   0.838 -0.8312  0.0475 -0.3958
    1SOL    HW2 5086   0.925   1.545   0.848  0.8599  0.5040 -0.4259
    1SOL    HW3 5087   0.938   1.435   0.745  1.2738  0.9302 -0.8277
    1SOL    MW4 5088   0.944   1.463   0.827 -0.3304  0.2242 -0.4567
    1SOL     OW 5089   1.451   4.604   3.247 -0.6516  0.4422 -0.2104
    1SOL    HW2 5090   1.522   4.593   3.310  0.2810 -0.9508 -1.4780
    1SOL    HW3 5091   1.476   4.680   3.194 -0.2426  0.1200 -0.4785
    1SOL    MW4 5092   1.463   4.613   3.248 -0.4746  0.2160 -0.4127
    1SOL     OW 5093   0.771   4.072   2.790 -0.9273 -0.2406  0.1317
    1SOL    HW2 5094   0.711   4.102   2.858 -1.1123 -1.5269  0.5419
    1SOL    HW3 5095   0.716   4.066   2.712 -1.2482 -1.0511  0.4182
    1SOL    MW4 5096   0.756   4.075   2.789 -0.9941 -0.5178  0.2236
    1SOL     OW 5097   2.203   0.399   4.387 -0.0789 -0.3316  0.0674
    1SOL    HW2 5098   2.191   0.494   4.390  0.5561 -0.2704  0.9354
    1SOL    HW3 5099   2.122   0.363   4.421 -0.5442 -0.1181 -0.8062
    1SOL    MW4 5100   2.191   0.407   4.392 -0.0565 -0.2953  0.0668
    1SOL     OW 5101   3.354   2.057   3.971  0.4365 -0.0805  0.0226
    1SOL    HW2 5102   3.282   2.109   4.006  0.2395 -0.6560  0.4791
    1SOL    HW3 5103   3.326   1.966   3.984  0.4364 -0.3029 -1.4526
    1SOL    MW4 5104   3.341   2.052   3.977  0.4106 -0.1860 -0.1116
    1SOL     OW 5105   2.619   2.402   1.605  0.0798 -0.3369 -0.2670
    1SOL    HW2 5106   2.708   2.397   1.568 -0.4009 -0.3095 -1.4499
    1SOL    HW3 5107   2.568   2.445   1.537 -0.4652  1.2798  1.1518
    1SOL    MW4 5108   2.624   2.407   1.591 -0.0556 -0.1199 -0.2358
    1SOL     OW 5109   0.153   0.205   0.361 -0.0622 -0.4404 -0.4299
    1SOL    HW2 5110   0.170   0.297   0.382 -0.9512 -0.2224 -0.6185
    1SOL    HW3 5111   0.236   0.171   0.329  0.2408  0.3256 -0.4564
    1SOL    MW4 5112   0.166   0.213   0.360 -0.1395 -0.3106 -0.4583
    1SOL     OW 5113   2.214   3.628   3.600 -0.6557  0.2835  0.2003
    1SOL    HW2 5114   2.126   3.652   3.629 -0.7298 -0.3203  0.4875
    1SOL    HW3 5115   2.207   3.621   3.505 -0.8835  0.3794  0.2101
    1SOL    MW4 5116   2.202   3.630   3.591 -0.6955  0.2165  0.2396
    1SOL     OW 5117   1.253   2.527   1.194 -0.4434  0.0949  0.0748
    1SOL    HW2 5118   1.311   2.594   1.229 -1.8768  0.7537  1.2761
    1SOL    HW3 5119   1.227   2.476   1.270 -0.1410 -1.2251 -0.6938
    1SOL    MW4 5120   1.257   2.529   1.209 -0.5927  0.0076  0.1318
    1SOL     OW 5121   3.232   3.413   1.819 -0.0351 -0.2283 -0.1894
    1SOL    HW2 5122   3.139   3.434   1.828 -0.1622  0.0433 -1.9338
    1SOL    HW3 5123   3.240   3.324   1.853 -0.8643 -0.0993  0.3489
    1SOL    MW4 5124   3.220   3.404   1.825 -0.1612 -0.1757 -0.3483
    1SOL     OW 5125   1.346   3.110   2.522  0.1966  0.2427  0.4263
    1SOL    HW2 5126   1.267   3.056   2.529 -0.0189  0.1599 -2.1351
    1SOL    HW3 5127   1.330   3.183   2.582 -1.2402 -0.4796  0.9478
    1SOL    MW4 5128   1.333   3.113   2.531 -0.0215  0.1364  0.1574
    1SOL     OW 5129   1.681   2.560   1.907 -0.5352  0.3780 -0.2120
    1SOL    HW2 5130   1.633   2.640   1.889  0.1355  0.4420 -1.8294
    1SOL    HW3 5131   1.752   2.586   1.965 -1.1273  0.6946  0.3684
    1SOL    MW4 5132   1.684   2.574   1.912 -0.5249  0.4284 -0.3488
    1SOL     OW 5133   1.118   3.919   1.700 -0.5736  0.1512 -0.1543
    1SOL    HW2 5134   1.199   3.968   1.688 -0.5909  0.3879  0.6633
    1SOL    HW3 5135   1.050   3.986   1.703 -0.6026  0.0913  0.9213
    1SOL    MW4 5136   1.120   3.935   1.699 -0.5797  0.1745  0.0956
    1SOL     OW 5137   0.537   1.123   2.062 -0.6672  0.2898 -0.3011
    1SOL    HW2 5138   0.550   1.039   2.105 -0.4820  0.0778 -0.7560
    1SOL    HW3 5139   0.455   1.114   2.013 -0.7598  0.4479 -0.1770
    1SOL    MW4 5140   0.528   1.111   2.061 -0.6551  0.2828 -0.3445
    1SOL     OW 5141   3.246   0.736   2.650 -0.4556  0.4052 -0.3812
    1SOL    HW2 5142   3.224   0.825   2.624 -1.0623  0.5019  0.4623
    1SOL    HW3 5143   3.311   0.747   2.720  0.2631  0.1612 -0.9966
    1SOL    MW4 5144   3.252   0.749   2.655 -0.4408  0.3858 -0.3512
    1SOL     OW 5145   0.598   2.316   3.473  0.1590 -0.0866  0.2668
    1SOL    HW2 5146   0.600   2.256   3.548 -1.8726 -0.2189  0.2362
    1SOL    HW3 5147   0.584   2.402   3.512  0.7658  0.0702  0.1448
    1SOL    MW4 5148   0.597   2.320   3.488 -0.0289 -0.0834  0.2463
    1SOL     OW 5149   3.401   1.953   3.601  0.5917  0.2249  0.4184
    1SOL    HW2 5150   3.326   1.903   3.634 -0.1140  0.5883 -0.5885
    1SOL    HW3 5151   3.394   2.037   3.647  0.1575  0.3945  0.0489
    1SOL    MW4 5152   3.390   1.958   3.612  0.4413  0.2953  0.2370
    1SOL     OW 5153   2.666   3.816   0.846  0.0104  0.2961  0.0378
    1SOL    HW2 5154   2.611   3.847   0.918 -1.6166 -0.1037 -1.0010
    1SOL    HW3 5155   2.695   3.895   0.802 -0.5117  0.4948  0.0378
    1SOL    MW4 5156   2.662   3.830   0.850 -0.2730  0.2697 -0.0993
    1SOL     OW 5157   0.465   4.498   0.951 -0.1918  0.1756  0.1580
    1SOL    HW2 5158   0.492   4.513   1.042 -0.2387 -0.6573  0.3128
    1SOL    HW3 5159   0.371   4.515   0.951  0.1766  2.3613 -0.2245
    1SOL    MW4 5160   0.456   4.502   0.963 -0.1493  0.3543  0.1280
    1SOL     OW 5161   3.263   3.827   2.878  0.6087  0.7126  0.8962
    1SOL    HW2 5162   3.210   3.756   2.914  1.6166 -0.0458  0.9208
    1SOL    HW3 5163   3.353   3.793   2.880  0.9702  1.5698 -0.1011
    1SOL    MW4 5164   3.268   3.813   2.883  0.7894  0.7255  0.7682
    1SOL     OW 5165   3.456   1.193   4.770  0.1335 -0.3012 -0.5131
    1SOL    HW2 5166   3.507   1.150   4.838 -0.9394  2.1666  1.9462
    1SOL    HW3 5167   3.427   1.122   4.713 -0.6412 -2.7144  2.7724
    1SOL    MW4 5168   3.459   1.178   4.771 -0.1101 -0.2942  0.2446
    1SOL     OW 5169   1.406   2.100   4.425 -0.2267  0.5340 -0.4022
    1SOL    HW2 5170   1.478   2.075   4.483 -0.1583 -0.5448 -0.9372
    1SOL    HW3 5171   1.411   2.195   4.419 -0.7832  0.7546  2.0648
    1SOL    MW4 5172   1.416   2.109   4.432 -0.2910  0.4208 -0.1478
    1SOL     OW 5173   0.926   3.876   4.237  0.2893  0.4521  0.1312
    1SOL    HW2 5174   0.904   3.925   4.159  0.9448  2.2719  1.0607
    1SOL    HW3 5175   0.869   3.799   4.234 -0.3920  1.0052 -1.5978
    1SOL    MW4 5176   0.916   3.872   4.227  0.2860  0.7653  0.0253
    1SOL     OW 5177   4.159   4.592   1.858  0.2254 -0.1721 -0.2734
    1SOL    HW2 5178   4.073   4.575   1.821  0.6344 -2.5902 -0.1577
    1SOL    HW3 5179   4.202   4.507   1.862  1.8665  0.6796  1.5755
    1SOL    MW4 5180   4.153   4.579   1.854  0.4959 -0.3786 -0.0142
    1SOL     OW 5181   2.702   3.522   2.285 -0.4036  0.2928 -0.2107
    1SOL    HW2 5182   2.747   3.477   2.213  0.5831  1.7300 -0.5100
    1SOL    HW3 5183   2.664   3.451   2.337 -1.5988 -0.7731 -2.4212
    1SOL    MW4 5184   2.703   3.506   2.282 -0.4311  0.3421 -0.5422
    1SOL     OW 5185   4.370   2.838   1.978  0.5794 -0.0940  0.5457
    1SOL    HW2 5186   4.371   2.744   1.956  2.1760  0.1575 -0.6024
    1SOL    HW3 5187   4.325   2.879   1.904  0.2433  0.0856  0.8516
    1SOL    MW4 5188   4.364   2.831   1.965  0.7453 -0.0374  0.4345
    1SOL     OW 5189   3.917   1.565   1.090 -0.5257 -0.2038  0.0986
    1SOL    HW2 5190   3.863   1.634   1.050 -0.8908 -1.1088 -0.9755
    1SOL    HW3 5191   3.932   1.596   1.180 -0.7679  1.2326 -0.3408
    1SOL    MW4 5192   3.911   1.579   1.097 -0.6058 -0.1336 -0.1010
    1SOL     OW 5193   1.371   4.254   1.332  0.5124 -0.6594  0.3433
    1SOL    HW2 5194   1.296   4.244   1.391  0.8670  0.0149  0.9235
    1SOL    HW3 5195   1.378   4.170   1.287 -1.1121 -0.4622 -0.3377
    1SOL    MW4 5196   1.362   4.242   1.334  0.3450 -0.5450  0.3301
    1SOL     OW 5197   0.395   1.290   2.889 -0.3864 -0.0352 -0.8072
    1SOL    HW2 5198   0.462   1.358   2.882 -1.0677  0.5100 -2.2954
    1SOL    HW3 5199   0.443   1.208   2.877  0.1650  0.2876 -0.8286
    1SOL    MW4 5200   0.410   1.288   2.886 -0.4035  0.0792 -1.0064
    1SOL     OW 5201   3.571   4.015   0.698 -0.3589 -0.4096  0.1606
    1SOL    HW2 5202   3.627   3.956   0.748  1.2064 -0.6554 -1.8121
    1SOL    HW3 5203   3.520   3.957   0.642 -0.6931 -0.0392  0.0841
    1SOL    MW4 5204   3.572   4.000   0.697 -0.1965 -0.3929 -0.1097
    1SOL     OW 5205   3.486   0.292   3.251  0.0600  0.4884  0.2590
    1SOL    HW2 5206   3.415   0.260   3.195 -1.5404  0.4726  2.2346
    1SOL    HW3 5207   3.531   0.358   3.197  0.0408 -1.1979 -1.8728
    1SOL    MW4 5208   3.482   0.297   3.236 -0.1538  0.2638  0.2387
    1SOL     OW 5209   0.646   4.627   1.283 -0.1287  0.0659 -0.4223
    1SOL    HW2 5210   0.651   4.539   1.247  0.4992 -0.5126  1.0230
    1SOL    HW3 5211   0.552   4.643   1.295 -0.1529 -1.3814  1.5789
    1SOL    MW4 5212   0.634   4.618   1.280 -0.0490 -0.2007  0.0325
    1SOL     OW 5213   1.107   2.950   2.607 -0.1274  0.1556 -0.0945
    1SOL    HW2 5214   1.055   3.021   2.645 -0.2397 -0.6902  1.3903
    1SOL    HW3 5215   1.155   2.914   2.681  0.4727 -0.8586 -0.9632
    1SOL    MW4 5216   1.106   2.955   2.622 -0.0631 -0.0899 -0.0134
    1SOL     OW 5217   2.153   1.419   1.290  0.0304  0.3825  0.1155
    1SOL    HW2 5218   2.071   1.403   1.243  0.8472  1.2981 -1.6387
    1SOL    HW3 5219   2.191   1.332   1.302 -0.4548  0.0974 -0.4047
    1SOL    MW4 5220   2.147   1.406   1.286  0.0741  0.4658 -0.1844
    1SOL     OW 5221   1.824   1.329   3.083 -0.4987  0.0410  0.0253
    1SOL    HW2 5222   1.776   1.264   3.031 -0.9015  1.0001 -0.8326
    1SOL    HW3 5223   1.873   1.379   3.018  2.2708 -1.3967  0.9577
    1SOL    MW4 5224   1.824   1.327   3.067 -0.1863 -0.0222  0.0350
    1SOL     OW 5225   2.424   4.055   1.240 -0.3644  0.2621  0.2998
    1SOL    HW2 5226   2.454   4.010   1.162  0.2702 -0.2251  0.8180
    1SOL    HW3 5227   2.344   4.100   1.213 -1.2598 -1.5470 -0.0974
    1SOL    MW4 5228   2.418   4.055   1.226 -0.3986 -0.0410  0.3157
    1SOL     OW 5229   3.461   1.219   3.068 -0.4436 -0.2891 -0.4904
    1SOL    HW2 5230   3.499   1.213   3.156 -1.6161 -0.3411  0.0133
    1SOL    HW3 5231   3.503   1.148   3.020 -0.1985 -0.6017  0.1756
    1SOL    MW4 5232   3.472   1.209   3.073 -0.5658 -0.3372 -0.3364
    1SOL     OW 5233   1.054   1.886   2.340 -0.0811  0.1816 -0.2036
    1SOL    HW2 5234   1.005   1.953   2.387  1.2646  0.1562  1.2956
    1SOL    HW3 5235   1.116   1.851   2.405 -0.0310 -1.7706 -1.2469
    1SOL    MW4 5236   1.056   1.890   2.355  0.1030 -0.0794 -0.1435
    1SOL     OW 5237   2.167   0.706   3.684 -0.1427  0.2480 -0.4302
    1SOL    HW2 5238   2.220   0.641   3.729 -2.9866 -2.7515 -1.2063
    1SOL    HW3 5239   2.159   0.778   3.746  3.8988  0.3609  0.0812
    1SOL    MW4 5240   2.173   0.707   3.698  0.0155 -0.1329 -0.4652
    1SOL     OW 5241   2.611   1.753   1.058 -0.0643 -0.0992 -0.0383
    1SOL    HW2 5242   2.704   1.774   1.049  0.0336 -0.9643 -1.2691
    1SOL    HW3 5243   2.568   1.809   0.992 -0.2415 -0.7814 -0.5098
    1SOL    MW4 5244   2.617   1.763   1.048 -0.0746 -0.3034 -0.2630
    1SOL     OW 5245   2.319   1.608   3.926 -0.4557  0.3400 -0.1828
    1SOL    HW2 5246   2.243   1.608   3.983 -0.0381  0.9046  0.3918
    1SOL    HW3 5247   2.288   1.646   3.844 -0.8158  0.4837  0.0182
    1SOL    MW4 5248   2.305   1.613   3.923 -0.4485  0.4334 -0.0803
    1SOL     OW 5249   3.842   2.075   3.579 -0.4127  0.7365 -0.0742
    1SOL    HW2 5250   3.920   2.122   3.608  0.5818 -0.5700 -0.6060
    1SOL    HW3 5251   3.789   2.142   3.536 -0.6943  2.1470  2.3797
    1SOL    MW4 5252   3.845   2.090   3.577 -0.3188  0.7501  0.1795
    1SOL     OW 5253   2.294   2.304   2.567  0.1782  0.0468 -0.5401
    1SOL    HW2 5254   2.347   2.317   2.646 -1.4802 -1.6050  0.8806
    1SOL    HW3 5255   2.325   2.221   2.531 -1.0500 -0.6631  0.0105
    1SOL    MW4 5256   2.305   2.295   2.573 -0.2027 -0.2646 -0.2804
    1SOL     OW 5257   0.227   3.969   1.361  0.1917 -0.4952 -0.0838
    1SOL    HW2 5258   0.208   4.025   1.285  0.1428 -1.1071 -0.5256
    1SOL    HW3 5259   0.303   4.010   1.402 -0.3218  0.3463  0.0479
    1SOL    MW4 5260   0.234   3.982   1.356  0.1175 -0.4649 -0.1247
    1SOL     OW 5261   2.243   2.182   2.968 -0.1122  0.6029 -0.4416
    1SOL    HW2 5262   2.321   2.141   2.929  1.1872  1.8260  0.7984
    1SOL    HW3 5263   2.220   2.252   2.907  1.6321  2.2108  0.7054
    1SOL    MW4 5264   2.251   2.186   2.955  0.2894  0.9766 -0.1266
    1SOL     OW 5265   0.035   1.056   3.676  0.0914  0.1332 -0.6839
    1SOL    HW2 5266   0.118   1.042   3.630  0.0503 -1.6566 -0.2602
    1SOL    HW3 5267   0.020   0.974   3.723 -1.6618  0.6345 -0.3360
    1SOL    MW4 5268   0.044   1.043   3.676 -0.1453 -0.0367 -0.5822
    1SOL     OW 5269   3.028   4.462   1.244  0.3497  0.0095 -0.2096
    1SOL    HW2 5270   2.934   4.448   1.238  0.4163 -0.4677 -0.1971
    1SOL    HW3 5271   3.051   4.437   1.334  0.5685 -0.4030 -0.3759
    1SOL    MW4 5272   3.019   4.457   1.255  0.3874 -0.1078 -0.2300
    1SOL     OW 5273   0.079   1.698   2.686  0.0798  0.0679  0.1079
    1SOL    HW2 5274   0.170   1.718   2.662 -0.1451  0.3001 -0.5417
    1SOL    HW3 5275   0.032   1.780   2.674 -0.3384 -0.2031 -0.1282
    1SOL    MW4 5276   0.085   1.711   2.681 -0.0050  0.0627 -0.0091
    1SOL     OW 5277   1.555   2.849   2.101 -0.5074  0.3153 -0.1619
    1SOL    HW2 5278   1.507   2.932   2.099  1.4811  1.4784 -1.8684
    1SOL    HW3 5279   1.642   2.871   2.068 -0.1356 -2.5772 -1.2550
    1SOL    MW4 5280   1.560   2.863   2.096 -0.1960  0.0875 -0.5312
    1SOL     OW 5281   0.705   2.000   3.383 -0.0315  0.1906  0.5702
    1SOL    HW2 5282   0.742   2.035   3.302  0.3311 -0.3524  0.4953
    1SOL    HW3 5283   0.777   1.950   3.423 -0.8158 -1.2693  0.1879
    1SOL    MW4 5284   0.719   1.998   3.378 -0.0871 -0.0737  0.5097
    1SOL     OW 5285   0.644   4.064   2.536 -0.4849 -0.4593 -0.3408
    1SOL    HW2 5286   0.636   4.139   2.477  0.1530 -0.1690 -0.0626
    1SOL    HW3 5287   0.672   3.991   2.480 -0.3932 -0.3109 -0.4875
    1SOL    MW4 5288   0.647   4.064   2.521 -0.3886 -0.4020 -0.3235
    1SOL     OW 5289   3.880   4.371   0.667  0.6202  0.3177 -0.0690
    1SOL    HW2 5290   3.941   4.391   0.738 -0.3016  0.9573  0.5617
    1SOL    HW3 5291   3.868   4.276   0.671 -0.4469  0.5038  1.5014
    1SOL    MW4 5292   3.887   4.361   0.677  0.3579  0.4268  0.2214
    1SOL     OW 5293   4.461   0.463   4.315 -0.5529  0.1717  0.2150
    1SOL    HW2 5294   4.500   0.376   4.314 -0.0244  0.4055 -0.5388
    1SOL    HW3 5295   4.486   0.501   4.230 -0.0516  1.3631  0.8830
    1SOL    MW4 5296   4.469   0.457   4.303 -0.4168  0.3598  0.2036
    1SOL     OW 5297   2.664   0.866   4.545 -0.1689  0.0419  0.2268
    1SOL    HW2 5298   2.691   0.777   4.523  0.3927 -0.0273  1.1508
    1SOL    HW3 5299   2.724   0.922   4.497 -1.3771 -0.0552 -1.4212
    1SOL    MW4 5300   2.675   0.861   4.536 -0.2542  0.0200  0.1311
    1SOL     OW 5301   1.479   2.065   2.088  0.4122 -0.0343 -0.5634
    1SOL    HW2 5302   1.401   2.095   2.133  1.4073  1.0124  0.5048
    1SOL    HW3 5303   1.515   2.144   2.048 -0.9257 -1.0907 -3.9772
    1SOL    MW4 5304   1.474   2.079   2.089  0.3672 -0.0350 -0.8726
    1SOL     OW 5305   2.318   3.262   2.549 -0.2160 -0.2530 -0.6222
    1SOL    HW2 5306   2.236   3.290   2.589 -0.1808 -0.1580 -0.6152
    1SOL    HW3 5307   2.311   3.167   2.543 -0.1993 -0.2720 -0.3441
    1SOL    MW4 5308   2.306   3.253   2.553 -0.2091 -0.2432 -0.5846
    1SOL     OW 5309   3.945   0.613   4.046  0.9739 -0.3233  0.4004
    1SOL    HW2 5310   3.969   0.521   4.046  0.2129 -0.5272  0.2831
    1SOL    HW3 5311   4.011   0.655   3.992  0.2475 -1.0999 -1.1447
    1SOL    MW4 5312   3.957   0.606   4.039  0.7777 -0.4527  0.1817
    1SOL     OW 5313   3.189   2.040   2.030  0.3449  0.6163 -0.7261
    1SOL    HW2 5314   3.178   1.969   2.094  0.4269  0.3159 -1.0455
    1SOL    HW3 5315   3.269   2.017   1.983  0.6314  1.1639 -0.5155
    1SOL    MW4 5316   3.198   2.028   2.032  0.3934  0.6490 -0.7405
    1SOL     OW 5317   4.377   2.558   4.092  0.1492 -0.0491 -0.2746
    1SOL    HW2 5318   4.377   2.507   4.010 -1.0986 -0.3629 -0.0889
    1SOL    HW3 5319   4.388   2.492   4.160 -2.0293 -0.1554  0.0035
    1SOL    MW4 5320   4.378   2.542   4.090 -0.3028 -0.1042 -0.2127
    1SOL     OW 5321   0.878   4.507   2.917 -0.2454 -0.2866  0.1900
    1SOL    HW2 5322   0.819   4.551   2.978  0.0619 -0.5620  0.6839
    1SOL    HW3 5323   0.820   4.469   2.851 -0.6080 -0.4052  0.5743
    1SOL    MW4 5324   0.863   4.508   2.916 -0.2527 -0.3390  0.3059
    1SOL     OW 5325   2.375   2.604   3.730 -0.1742  0.3257 -0.3235
    1SOL    HW2 5326   2.471   2.606   3.730 -0.1002 -0.3115 -3.1609
    1SOL    HW3 5327   2.353   2.529   3.674 -2.3242  0.8127 -0.1799
    1SOL    MW4 5328   2.385   2.594   3.723 -0.4480  0.3061 -0.6788
    1SOL     OW 5329   2.227   3.213   4.359 -0.1064  0.1180  0.2232
    1SOL    HW2 5330   2.189   3.125   4.354  0.5523 -0.0993 -1.1261
    1SOL    HW3 5331   2.308   3.202   4.409  0.3461 -0.1775 -0.5696
    1SOL    MW4 5332   2.233   3.200   4.365  0.0403  0.0503 -0.0596
    1SOL     OW 5333   1.423   3.205   1.822 -0.4599  0.0902  0.5272
    1SOL    HW2 5334   1.507   3.215   1.777  0.1558  1.8211  2.0445
    1SOL    HW3 5335   1.443   3.151   1.898 -1.0782 -0.9616 -0.0440
    1SOL    MW4 5336   1.437   3.199   1.826 -0.4601  0.1798  0.6521
    1SOL     OW 5337   0.012   2.874   1.629 -0.2092 -0.1315 -0.3353
    1SOL    HW2 5338  -0.030   2.789   1.645  2.3574 -1.5556 -0.9977
    1SOL    HW3 5339   0.075   2.858   1.559  0.2776  2.3432 -0.5155
    1SOL    MW4 5340   0.015   2.861   1.622  0.1941  0.0072 -0.4464
    1SOL     OW 5341   4.163   0.827   1.982  0.1058  0.1973  0.1398
    1SOL    HW2 5342   4.179   0.895   1.917 -1.1028  0.4979  0.1483
    1SOL    HW3 5343   4.069   0.833   2.001  0.2746 -0.4715  1.2473
    1SOL    MW4 5344   4.153   0.837   1.976 -0.0315  0.1488  0.2869
    1SOL     OW 5345   0.115   0.237   4.284 -0.1989  0.0434 -0.1212
    1SOL    HW2 5346   0.158   0.222   4.369  0.0581 -0.2422 -0.3018
    1SOL    HW3 5347   0.186   0.263   4.226 -0.2239 -0.7081 -0.4943
    1SOL    MW4 5348   0.130   0.238   4.288 -0.1683 -0.0934 -0.1945
    1SOL     OW 5349   0.933   2.804   3.610 -0.3232  0.3986 -0.1122
    1SOL    HW2 5350   0.944   2.798   3.515 -0.6775 -3.1461 -0.0122
    1SOL    HW3 5351   0.897   2.719   3.635  1.2499  0.6910  3.4053
    1SOL    MW4 5352   0.929   2.792   3.601 -0.1624 -0.0305  0.3653
    1SOL     OW 5353   0.772   2.277   1.114  0.2425  0.1245 -0.3704
    1SOL    HW2 5354   0.839   2.299   1.049  0.6193  0.3671  0.0976
    1SOL    HW3 5355   0.821   2.237   1.186 -0.1233  0.2670 -0.0416
    1SOL    MW4 5356   0.787   2.275   1.115  0.2440  0.1752 -0.2654
    1SOL     OW 5357   3.813   4.233   3.709  0.0713 -0.0871 -0.2537
    1SOL    HW2 5358   3.831   4.170   3.640 -0.2851 -1.3063  0.7548
    1SOL    HW3 5359   3.890   4.229   3.766 -0.2055 -0.0229  0.1265
    1SOL    MW4 5360   3.826   4.224   3.707 -0.0124 -0.2394 -0.0706
    1SOL     OW 5361   1.113   1.526   2.336 -0.7911 -0.5671  0.0671
    1SOL    HW2 5362   1.098   1.567   2.422  1.9270 -1.9737  1.2590
    1SOL    HW3 5363   1.024   1.512   2.302 -1.9139  1.0092  2.1379
    1SOL    MW4 5364   1.099   1.530   2.343 -0.5807 -0.5447  0.4976
    1SOL     OW 5365   0.919   2.624   1.948  0.1168 -0.3798  0.0157
    1SOL    HW2 5366   0.872   2.591   2.025  0.3023 -0.9386 -0.1093
    1SOL    HW3 5367   0.983   2.686   1.983  1.0392 -1.5586  0.4301
    1SOL    MW4 5368   0.921   2.628   1.963  0.2629 -0.6092  0.0540
    1SOL     OW 5369   0.291   2.862   1.209  0.1064  0.0195  0.6617
    1SOL    HW2 5370   0.322   2.776   1.181  0.6003  0.1686  0.7544
    1SOL    HW3 5371   0.368   2.917   1.207 -0.2576  0.5234  0.3715
    1SOL    MW4 5372   0.305   2.858   1.205  0.1235  0.1059  0.6357
    1SOL     OW 5373   1.072   2.316   3.428 -0.3578 -0.2309  0.8974
    1SOL    HW2 5374   0.983   2.351   3.423 -0.5329 -0.5284  1.8299
    1SOL    HW3 5375   1.078   2.277   3.515  0.8616  0.2498  1.0416
    1SOL    MW4 5376   1.061   2.316   3.439 -0.2199 -0.2067  1.0395
    1SOL     OW 5377   2.004   2.571   3.555  0.4073 -0.3757  0.3549
    1SOL    HW2 5378   1.931   2.523   3.595  0.5532  0.3721  1.5433
    1SOL    HW3 5379   2.032   2.632   3.623  0.8789  0.6870 -0.7787
    1SOL    MW4 5380   1.998   2.573   3.569  0.4888 -0.1366  0.3624
    1SOL     OW 5381   0.237   0.399   2.113  0.4645 -0.2877 -0.0730
    1SOL    HW2 5382   0.287   0.347   2.050  0.5703 -1.4845  0.9767
    1SOL    HW3 5383   0.271   0.371   2.199 -0.7283  0.2216  0.5711
    1SOL    MW4 5384   0.248   0.389   2.116  0.3211 -0.3784  0.1502
    1SOL     OW 5385   3.862   3.117   0.553 -0.2030 -0.1556  0.0518
    1SOL    HW2 5386   3.920   3.191   0.572  0.9608 -1.0039 -0.1698
    1SOL    HW3 5387   3.920   3.047   0.523 -1.0298 -1.9223  2.3964
    1SOL    MW4 5388   3.877   3.118   0.551 -0.1585 -0.5007  0.3319
    1SOL     OW 5389   2.718   1.870   0.741  0.2103 -0.5244  0.0692
    1SOL    HW2 5390   2.644   1.907   0.791  0.5351  0.1037  0.0985
    1SOL    HW3 5391   2.785   1.853   0.808 -0.2472 -1.9725  0.1696
    1SOL    MW4 5392   2.717   1.873   0.757  0.1924 -0.6326  0.0863
    1SOL     OW 5393   1.605   3.503   2.539  0.5629  0.3033 -0.2853
    1SOL    HW2 5394   1.539   3.569   2.560 -0.9059 -0.8733 -1.1024
    1SOL    HW3 5395   1.604   3.498   2.443  0.5624 -0.9975 -0.2269
    1SOL    MW4 5396   1.596   3.511   2.529  0.3691 -0.0236 -0.3855
    1SOL     OW 5397   1.148   1.593   1.441  0.2387  0.3185 -0.3451
    1SOL    HW2 5398   1.104   1.595   1.356  1.4591  0.6116 -0.9856
    1SOL    HW3 5399   1.241   1.605   1.420  0.5160  0.6966  1.0531
    1SOL    MW4 5400   1.154   1.595   1.427  0.4363  0.4071 -0.2450
    1SOL     OW 5401   3.118   3.516   2.236  0.4981 -0.4263 -0.1477
    1SOL    HW2 5402   3.113   3.424   2.211 -3.4164 -0.4403  0.3602
    1SOL    HW3 5403   3.115   3.565   2.154  1.3196 -0.7415 -0.3591
    1SOL    MW4 5404   3.117   3.511   2.222  0.0901 -0.4697 -0.1085
    1SOL     OW 5405   3.260   3.588   3.415 -0.3442 -0.9544 -0.3868
    1SOL    HW2 5406   3.303   3.673   3.423  1.5967 -1.7274 -2.1444
    1SOL    HW3 5407   3.200   3.597   3.341 -1.3462 -0.6407  0.4546
    1SOL    MW4 5408   3.258   3.600   3.406 -0.2205 -1.0152 -0.5076
    1SOL     OW 5409   3.746   0.776   2.304  0.5256  0.0062  0.0638
    1SOL    HW2 5410   3.794   0.716   2.362 -0.3675 -0.2171  0.5896
    1SOL    HW3 5411   3.656   0.743   2.306  0.2634  0.6812 -0.5617
    1SOL    MW4 5412   3.740   0.763   2.312  0.3731  0.0657  0.0508
    1SOL     OW 5413   1.933   0.218   4.131 -0.0895  0.3104 -0.1808
    1SOL    HW2 5414   2.016   0.266   4.132 -1.0152  1.9857 -1.4653
    1SOL    HW3 5415   1.957   0.128   4.151  2.1702  0.5868 -1.5328
    1SOL    MW4 5416   1.947   0.212   4.134  0.0865  0.5679 -0.5288
    1SOL     OW 5417   4.099   3.561   2.151 -0.6962 -0.1337  0.2909
    1SOL    HW2 5418   4.169   3.508   2.190  0.0513  0.2465 -0.4946
    1SOL    HW3 5419   4.021   3.506   2.157  0.2304 -1.6764 -1.2594
    1SOL    MW4 5420   4.098   3.547   2.157 -0.4754 -0.2871 -0.0172
    1SOL     OW 5421   2.237   2.913   2.883  0.0240  0.2705  0.1496
    1SOL    HW2 5422   2.168   2.933   2.819 -0.0512  0.1567  0.1950
    1SOL    HW3 5423   2.226   2.980   2.950  0.3825  0.6551 -0.1730
    1SOL    MW4 5424   2.226   2.925   2.883  0.0610  0.3061  0.1132
    1SOL     OW 5425   3.393   1.503   0.479 -0.0619 -0.3474 -0.0397
    1SOL    HW2 5426   3.446   1.518   0.401 -0.2199 -0.9534 -0.2709
    1SOL    HW3 5427   3.412   1.413   0.504 -1.4427 -0.7876 -0.4937
    1SOL    MW4 5428   3.402   1.493   0.472 -0.2649 -0.4855 -0.1301
    1SOL     OW 5429   4.383   2.393   3.412 -0.1625 -0.3572  0.0265
    1SOL    HW2 5430   4.335   2.420   3.333  0.2209 -1.9677 -0.7660
    1SOL    HW3 5431   4.346   2.307   3.434  1.3607 -0.9597  0.2461
    1SOL    MW4 5432   4.372   2.385   3.404  0.0892 -0.6492 -0.0491
    1SOL     OW 5433   3.747   1.945   4.636  0.4833 -0.0905  0.1825
    1SOL    HW2 5434   3.781   2.020   4.684 -0.1000  0.2091  0.1372
    1SOL    HW3 5435   3.652   1.959   4.635  0.3700 -0.8448  0.2055
    1SOL    MW4 5436   3.739   1.957   4.643  0.3912 -0.1504  0.1798
    1SOL     OW 5437   3.972   0.371   2.553  0.1173  0.2908 -0.1775
    1SOL    HW2 5438   3.891   0.408   2.517  0.8130 -0.2698 -2.4293
    1SOL    HW3 5439   3.951   0.279   2.567 -0.0102  0.4123  0.4525
    1SOL    MW4 5440   3.958   0.364   2.550  0.1922  0.2329 -0.3915
    1SOL     OW 5441   0.442   2.042   1.749  0.4894 -0.5423  0.3787
    1SOL    HW2 5442   0.378   2.112   1.732  0.8727 -0.4474 -0.6722
    1SOL    HW3 5443   0.475   2.018   1.663  1.4139 -1.0315  0.8637
    1SOL    MW4 5444   0.438   2.048   1.736  0.6620 -0.5944  0.3039
    1SOL     OW 5445   0.788   0.458   0.416 -0.1694  0.0545 -0.4368
    1SOL    HW2 5446   0.729   0.389   0.445  0.7708 -0.1591  1.0763
    1SOL    HW3 5447   0.872   0.436   0.457  0.3133  1.7132 -0.4838
    1SOL    MW4 5448   0.792   0.446   0.425  0.0183  0.2452 -0.2434
    1SOL     OW 5449   1.804   0.990   1.991 -0.1286 -0.1997 -0.1731
    1SOL    HW2 5450   1.744   1.043   2.042  0.1889 -0.1386  0.1343
    1SOL    HW3 5451   1.875   1.050   1.966 -0.4603 -0.1420 -0.9781
    1SOL    MW4 5452   1.806   1.005   1.994 -0.1305 -0.1841 -0.2389
    1SOL     OW 5453   2.526   0.156   1.049 -0.1354  0.5246 -0.4282
    1SOL    HW2 5454   2.558   0.246   1.046 -0.8477  0.7403 -2.1571
    1SOL    HW3 5455   2.606   0.103   1.044  0.1647  1.0597 -1.4325
    1SOL    MW4 5456   2.541   0.161   1.048 -0.1898  0.6236 -0.7888
    1SOL     OW 5457   4.159   1.030   1.810  0.0377 -0.5978 -0.3248
    1SOL    HW2 5458   4.114   1.108   1.843  1.0900 -0.1849  0.1629
    1SOL    HW3 5459   4.129   1.021   1.720  0.9275  1.1658 -0.8174
    1SOL    MW4 5460   4.149   1.039   1.803  0.2942 -0.3107 -0.3254
    1SOL     OW 5461   2.798   1.638   2.838  0.0346 -0.0072 -0.0455
    1SOL    HW2 5462   2.762   1.567   2.891  1.2705  0.0941  0.9638
    1SOL    HW3 5463   2.868   1.675   2.892 -0.6686  2.0579 -0.4907
    1SOL    MW4 5464   2.803   1.634   2.852  0.1051  0.2786  0.0291
    1SOL     OW 5465   4.370   1.612   3.087  0.1059  0.0825  0.1675
    1SOL    HW2 5466   4.452   1.643   3.049  1.0217 -2.5426 -0.0903
    1SOL    HW3 5467   4.311   1.601   3.013 -0.5046  1.8959  0.3450
    1SOL    MW4 5468   4.373   1.615   3.072  0.1464 -0.0248  0.1569
    1SOL     OW 5469   0.934   4.092   1.035  0.2602 -0.4615 -0.0257
    1SOL    HW2 5470   0.913   4.163   0.975  0.4746 -0.3552  0.0269
    1SOL    HW3 5471   0.910   4.126   1.121  2.6951  0.4920  0.3162
    1SOL    MW4 5472   0.928   4.106   1.038  0.6098 -0.3223  0.0262
    1SOL     OW 5473   3.038   0.857   1.997 -0.6043  0.2956 -0.1177
    1SOL    HW2 5474   2.984   0.814   2.064  0.4857  2.4982  2.2195
    1SOL    HW3 5475   2.975   0.904   1.943 -1.3774 -0.4489  0.1172
    1SOL    MW4 5476   3.022   0.857   1.999 -0.5627  0.4880  0.2217
    1SOL     OW 5477   1.448   0.843   1.880  0.0913 -0.2128  0.3575
    1SOL    HW2 5478   1.539   0.832   1.852  1.1188 -0.1578  3.4570
    1SOL    HW3 5479   1.403   0.765   1.848  1.5003 -0.7751 -0.2743
    1SOL    MW4 5480   1.454   0.831   1.872  0.4128 -0.2797  0.6832
    1SOL     OW 5481   4.042   0.203   1.758  0.4668 -0.4731 -0.0569
    1SOL    HW2 5482   4.059   0.109   1.768 -0.5343 -0.6498  0.0693
    1SOL    HW3 5483   4.103   0.232   1.690  0.7168 -1.2328 -0.1584
    1SOL    MW4 5484   4.052   0.195   1.750  0.3676 -0.5967 -0.0538
    1SOL     OW 5485   3.590   2.037   4.334  0.7013  0.4230  0.7223
    1SOL    HW2 5486   3.621   1.949   4.355 -2.7630 -1.6085 -2.2286
    1SOL    HW3 5487   3.609   2.048   4.241 -2.7574  1.0299  0.0245
    1SOL    MW4 5488   3.597   2.027   4.325 -0.2120  0.2353  0.2413
    1SOL     OW 5489   4.004   3.801   2.990 -0.3068 -1.0693 -0.1390
    1SOL    HW2 5490   4.060   3.859   3.043 -0.7790  0.7683 -1.6064
    1SOL    HW3 5491   4.059   3.726   2.971  1.7601  0.7584 -1.6563
    1SOL    MW4 5492   4.018   3.799   2.995 -0.0958 -0.5858 -0.5326
    1SOL     OW 5493   2.534   0.725   1.754 -0.1516  0.0880  0.1012
    1SOL    HW2 5494   2.569   0.711   1.842  0.1967  1.5953  0.2256
    1SOL    HW3 5495   2.606   0.702   1.696 -0.4072 -0.9845  0.2037
    1SOL    MW4 5496   2.548   0.720   1.758 -0.1392  0.1453  0.1311
    1SOL     OW 5497   2.038   0.881   0.762  0.0872 -0.4388 -0.3058
    1SOL    HW2 5498   2.061   0.816   0.696 -1.1216 -0.5550 -0.6176
    1SOL    HW3 5499   2.033   0.832   0.844  0.6525 -0.4628 -0.2826
    1SOL    MW4 5500   2.041   0.866   0.764  0.0024 -0.4573 -0.3439
    1SOL     OW 5501   2.835   3.592   0.851 -0.7111  0.3069  0.3089
    1SOL    HW2 5502   2.785   3.673   0.848  0.3728  0.9201 -1.4809
    1SOL    HW3 5503   2.925   3.619   0.869 -0.6187 -0.6253  1.3123
    1SOL    MW4 5504   2.840   3.606   0.853 -0.5560  0.2646  0.2052
    1SOL     OW 5505   4.469   1.667   4.613 -0.0785 -0.3315  0.2740
    1SOL    HW2 5506   4.560   1.674   4.583 -0.0932  0.5574  0.4046
    1SOL    HW3 5507   4.432   1.596   4.562  0.9371 -1.2994  0.8503
    1SOL    MW4 5508   4.476   1.659   4.603  0.0534 -0.3420  0.3676
    1SOL     OW 5509   2.378   2.994   4.457  0.3059 -0.1980 -0.0884
    1SOL    HW2 5510   2.317   2.928   4.423 -0.4103  0.3197  0.1951
    1SOL    HW3 5511   2.407   2.958   4.541 -1.0171  0.4055  0.6396
    1SOL    MW4 5512   2.374   2.980   4.463  0.0367 -0.0501  0.0448
    1SOL     OW 5513   3.678   3.318   0.487  0.4489 -0.1133  0.4265
    1SOL    HW2 5514   3.746   3.380   0.463  0.9892 -0.1498  1.8134
    1SOL    HW3 5515   3.725   3.236   0.504 -0.4246 -1.4215 -3.0640
    1SOL    MW4 5516   3.693   3.315   0.486  0.4048 -0.2909  0.1490
    1SOL     OW 5517   0.930   0.137   3.890 -0.2518  0.3712 -0.2449
    1SOL    HW2 5518   0.852   0.140   3.834  0.2015 -0.5730 -0.9409
    1SOL    HW3 5519   0.993   0.084   3.840 -0.4314 -1.9197  1.8885
    1SOL    MW4 5520   0.928   0.131   3.876 -0.2158 -0.0556 -0.0553
    1SOL     OW 5521   2.591   3.853   3.089  0.3586  0.2248  0.0883
    1SOL    HW2 5522   2.610   3.760   3.100 -3.0333 -0.4319  1.0397
    1SOL    HW3 5523   2.673   3.898   3.113  1.6306 -2.4376  0.8992
    1SOL    MW4 5524   2.604   3.847   3.094  0.0787 -0.2131  0.3209
    1SOL     OW 5525   0.233   1.300   2.656  0.4686 -0.3871  0.1658
    1SOL    HW2 5526   0.199   1.211   2.665 -0.3964  0.0094  0.9675
    1SOL    HW3 5527   0.281   1.316   2.738 -0.0467  0.1562  0.3681
    1SOL    MW4 5528   0.235   1.291   2.668  0.2865 -0.2630  0.2983
    1SOL     OW 5529   4.066   0.618   1.608  0.4484 -0.1869 -0.0061
    1SOL    HW2 5530   4.070   0.605   1.513  0.5178  1.3297 -0.2336
    1SOL    HW3 5531   3.973   0.618   1.629  0.4714 -2.1945  0.1966
    1SOL    MW4 5532   4.055   0.616   1.598  0.4611 -0.2517 -0.0094
    1SOL     OW 5533   1.690   1.734   4.553  0.0283  0.1334 -0.2268
    1SOL    HW2 5534   1.716   1.642   4.544  0.8716  0.2542  0.9129
    1SOL    HW3 5535   1.611   1.741   4.499 -0.2086 -1.3255 -0.1115
    1SOL    MW4 5536   1.683   1.723   4.545  0.1084 -0.0433 -0.0610
    1SOL     OW 5537   2.276   4.450   3.440  0.0046  0.2099  0.2738
    1SOL    HW2 5538   2.257   4.362   3.472 -0.1400  0.1054 -0.0891
    1SOL    HW3 5539   2.299   4.437   3.348 -0.7810  0.6405  0.0134
    1SOL    MW4 5540   2.277   4.437   3.432 -0.1183  0.2527  0.1917
    1SOL     OW 5541   1.316   0.628   1.743  0.2685 -0.1899  0.3634
    1SOL    HW2 5542   1.226   0.649   1.769  0.5597 -0.2458  1.4596
    1SOL    HW3 5543   1.308   0.585   1.659 -0.6084  1.3780 -0.3789
    1SOL    MW4 5544   1.303   0.625   1.736  0.1915  0.0095  0.4101
    1SOL     OW 5545   3.552   2.999   4.042 -0.5434  0.1368  0.2365
    1SOL    HW2 5546   3.468   2.967   4.076 -0.7580  0.9140  0.4429
    1SOL    HW3 5547   3.607   2.920   4.036 -0.7781 -0.1404  1.5957
    1SOL    MW4 5548   3.548   2.984   4.046 -0.6025  0.2027  0.4430
    1SOL     OW 5549   4.260   1.407   0.584  0.1133  0.2904  0.2023
    1SOL    HW2 5550   4.351   1.406   0.612 -0.1047  0.2255  0.9210
    1SOL    HW3 5551   4.232   1.498   0.597 -0.6882 -0.2346  2.5428
    1SOL    MW4 5552   4.268   1.419   0.590 -0.0215  0.2126  0.6059
    1SOL     OW 5553   4.118   1.647   3.222 -0.4537  0.4729  0.2054
    1SOL    HW2 5554   4.081   1.696   3.149  0.3483  1.3954  0.4092
    1SOL    HW3 5555   4.212   1.644   3.204 -0.1297  1.4671  1.6180
    1SOL    MW4 5556   4.125   1.653   3.210 -0.3057  0.7259  0.4187
    1SOL     OW 5557   3.388   2.451   2.428  0.0467  0.3605 -0.1689
    1SOL    HW2 5558   3.419   2.400   2.354 -0.6999  0.2275 -0.3917
    1SOL    HW3 5559   3.322   2.510   2.391 -1.7080 -1.0110  0.7085
    1SOL    MW4 5560   3.384   2.452   2.413 -0.2830  0.1621 -0.0825
    1SOL     OW 5561   3.345   1.993   0.950  0.1391  0.3902  0.6270
    1SOL    HW2 5562   3.318   1.901   0.951  1.3171 -0.0159 -1.5362
    1SOL    HW3 5563   3.404   2.002   1.026  0.3322 -0.7391  0.6173
    1SOL    MW4 5564   3.349   1.982   0.960  0.3200  0.1878  0.3402
    1SOL     OW 5565   3.418   3.538   2.007 -0.6478 -0.4222  0.5569
    1SOL    HW2 5566   3.358   3.517   1.935 -1.0738  1.0493  0.4715
    1SOL    HW3 5567   3.435   3.631   1.997 -0.1857 -0.3476  1.9802
    1SOL    MW4 5568   3.412   3.548   1.996 -0.6433 -0.2182  0.7334
    1SOL     OW 5569   2.860   0.027   2.932  0.4420  0.0365  0.5371
    1SOL    HW2 5570   2.875  -0.009   2.844  2.1566  0.3872  0.6693
    1SOL    HW3 5571   2.861   0.122   2.920  2.6694  0.1276  1.2118
    1SOL    MW4 5572   2.862   0.035   2.918  0.9618  0.0948  0.6433
    1SOL     OW 5573   2.956   1.460   3.690  0.3254  0.1656 -0.1117
    1SOL    HW2 5574   2.915   1.528   3.636 -2.6241 -1.0734  0.4624
    1SOL    HW3 5575   2.962   1.499   3.777  1.4305  0.7252 -0.4170
    1SOL    MW4 5576   2.952   1.474   3.694  0.0818  0.0761 -0.0763
    1SOL     OW 5577   4.055   4.442   4.746 -0.0617 -0.1792  0.4745
    1SOL    HW2 5578   4.036   4.394   4.665 -1.3293 -0.5331  0.9594
    1SOL    HW3 5579   4.025   4.383   4.816  1.9659 -0.3231  1.2671
    1SOL    MW4 5580   4.048   4.428   4.745  0.0386 -0.2451  0.6428
    1SOL     OW 5581   3.211   2.517   3.712 -0.4574  0.3823  0.1173
    1SOL    HW2 5582   3.178   2.580   3.648 -1.4211  0.7385  0.9391
    1SOL    HW3 5583   3.185   2.432   3.678  0.5038  0.4472 -0.8036
    1SOL    MW4 5584   3.203   2.514   3.699 -0.4578  0.4380  0.1042
    1SOL     OW 5585   4.443   3.942   1.453  0.4493 -0.4622 -0.0536
    1SOL    HW2 5586   4.530   3.926   1.415  0.5827 -0.0066  0.0611
    1SOL    HW3 5587   4.402   3.856   1.454  0.6252 -0.5626 -0.7999
    1SOL    MW4 5588   4.449   3.928   1.448  0.4907 -0.4156 -0.1369
    1SOL     OW 5589   3.873   3.796   3.841 -0.0295 -0.4657 -0.1565
    1SOL    HW2 5590   3.855   3.710   3.878  1.1545 -0.7805 -0.2683
    1SOL    HW3 5591   3.968   3.805   3.848 -0.2115  1.1305  0.4897
    1SOL    MW4 5592   3.883   3.786   3.847  0.1025 -0.2968 -0.0858
    1SOL     OW 5593   0.525   2.803   4.580  0.0833 -0.1442 -0.4658
    1SOL    HW2 5594   0.545   2.724   4.529 -2.8519 -0.8134 -0.6986
    1SOL    HW3 5595   0.531   2.774   4.671  1.4359  0.0350 -0.4822
    1SOL    MW4 5596   0.529   2.789   4.585 -0.1255 -0.2089 -0.4983
    1SOL     OW 5597   3.884   3.014   1.299 -0.1437  0.0114  0.4920
    1SOL    HW2 5598   3.960   2.979   1.345  0.6006 -0.8813 -1.3382
    1SOL    HW3 5599   3.920   3.054   1.220 -1.2551  2.6711  1.2954
    1SOL    MW4 5600   3.899   3.015   1.295 -0.1919  0.2444  0.3567
    1SOL     OW 5601   2.696   0.120   1.832 -0.2005  0.1996  0.2187
    1SOL    HW2 5602   2.621   0.062   1.848  0.2439 -0.3032  0.4993
    1SOL    HW3 5603   2.688   0.144   1.740 -0.1957 -0.5980 -0.0005
    1SOL    MW4 5604   2.685   0.115   1.822 -0.1411  0.0280  0.2269
    1SOL     OW 5605   2.924   1.652   3.257  0.0549  0.2678 -0.2335
    1SOL    HW2 5606   2.831   1.630   3.253  0.0721  0.0072  0.6836
    1SOL    HW3 5607   2.967   1.586   3.202 -0.2043 -0.1989  0.1218
    1SOL    MW4 5608   2.918   1.640   3.249  0.0229  0.1718 -0.0660
    1SOL     OW 5609   2.628   1.901   1.291  0.2973  0.4293  0.2895
    1SOL    HW2 5610   2.637   1.993   1.266 -0.8294  0.4996  0.1335
    1SOL    HW3 5611   2.619   1.854   1.208  0.8219  0.1793  0.3711
    1SOL    MW4 5612   2.628   1.907   1.277  0.2177  0.4055  0.2795
    1SOL     OW 5613   1.124   1.251   4.534 -0.4236 -0.2355 -0.0877
    1SOL    HW2 5614   1.091   1.257   4.624 -0.9556  2.7104 -0.4394
    1SOL    HW3 5615   1.048   1.223   4.483  0.0375 -2.5398  0.4355
    1SOL    MW4 5616   1.109   1.248   4.539 -0.4330 -0.1510 -0.0658
    1SOL     OW 5617   2.148   3.852   2.509 -0.0964  0.6721 -0.0709
    1SOL    HW2 5618   2.198   3.843   2.590  1.9643 -0.4616 -1.4223
    1SOL    HW3 5619   2.057   3.858   2.538  0.2854 -3.0004  2.1887
    1SOL    MW4 5620   2.143   3.852   2.524  0.2258  0.0379  0.0489
    1SOL     OW 5621   2.701   1.404   1.958 -0.4490  0.3783  0.3172
    1SOL    HW2 5622   2.614   1.437   1.980  0.1394  1.7391  0.6226
    1SOL    HW3 5623   2.702   1.402   1.862 -0.5412  1.1147  0.2989
    1SOL    MW4 5624   2.690   1.408   1.948 -0.3834  0.6549  0.3550
    1SOL     OW 5625   2.504   2.468   3.256  0.1700  0.2092  0.0725
    1SOL    HW2 5626   2.587   2.432   3.222  1.1770  1.1889  1.4435
    1SOL    HW3 5627   2.445   2.392   3.260  0.3880 -0.1583 -2.6841
    1SOL    MW4 5628   2.507   2.453   3.252  0.3316  0.2899 -0.1104
    1SOL     OW 5629   0.493   2.137   0.870 -0.1977 -0.2077 -0.2701
    1SOL    HW2 5630   0.558   2.110   0.935 -0.8137  1.4057  1.0480
    1SOL    HW3 5631   0.412   2.149   0.920 -0.6993  1.0056 -1.3405
    1SOL    MW4 5632   0.491   2.135   0.885 -0.3451  0.1652 -0.2374
    1SOL     OW 5633   0.666   3.894   3.107 -0.3444  0.1138 -0.0912
    1SOL    HW2 5634   0.623   3.909   3.191 -0.0112 -0.8409  0.2567
    1SOL    HW3 5635   0.637   3.967   3.051 -0.1741  1.0264  0.9944
    1SOL    MW4 5636   0.657   3.906   3.111 -0.2779  0.1080  0.0975
    1SOL     OW 5637   3.800   2.797   1.075  0.5419  0.3156 -0.4652
    1SOL    HW2 5638   3.752   2.846   1.008  0.8412  0.1227 -0.8242
    1SOL    HW3 5639   3.810   2.859   1.148 -1.9323 -0.2558  0.3946
    1SOL    MW4 5640   3.795   2.811   1.076  0.2553  0.2148 -0.3991
    1SOL     OW 5641   4.268   2.604   0.513  0.0973  0.3239 -0.4283
    1SOL    HW2 5642   4.316   2.686   0.507  1.8077 -0.5915  0.4335
    1SOL    HW3 5643   4.235   2.602   0.603 -1.0976  0.6862 -0.8502
    1SOL    MW4 5644   4.270   2.614   0.524  0.1650  0.2511 -0.3703
    1SOL     OW 5645   3.435   3.274   3.228 -0.2938  0.4346 -0.2071
    1SOL    HW2 5646   3.519   3.320   3.232  0.4577 -0.9015 -0.1915
    1SOL    HW3 5647   3.451   3.193   3.276 -1.8872  0.6113  0.6443
    1SOL    MW4 5648   3.448   3.270   3.235 -0.4051  0.2818 -0.0925
    1SOL     OW 5649   0.690   3.359   3.656  0.2435 -0.0300 -0.0177
    1SOL    HW2 5650   0.705   3.448   3.689 -0.8842 -0.2473  1.1442
    1SOL    HW3 5651   0.723   3.361   3.566  0.8996  1.3539  0.2332
    1SOL    MW4 5652   0.696   3.371   3.648  0.1813  0.1242  0.1688
    1SOL     OW 5653   0.362   3.636   2.527  0.4506 -0.9458  0.1643
    1SOL    HW2 5654   0.285   3.688   2.509  0.0702 -1.6323 -0.2057
    1SOL    HW3 5655   0.418   3.693   2.581  0.7923  0.4313 -1.6162
    1SOL    MW4 5656   0.359   3.650   2.532  0.4455 -0.8547 -0.1194
    1SOL     OW 5657   1.129   0.784   0.640 -0.9711 -0.3841 -0.0511
    1SOL    HW2 5658   1.193   0.836   0.591 -0.7628  0.5759  1.2078
    1SOL    HW3 5659   1.046   0.799   0.594 -0.7833  0.5405 -0.1011
    1SOL    MW4 5660   1.126   0.793   0.627 -0.9190 -0.1354  0.1084
    1SOL     OW 5661   3.989   1.632   3.852  0.6262 -0.0339  0.0828
    1SOL    HW2 5662   4.013   1.572   3.782 -0.4001  0.9380 -1.1413
    1SOL    HW3 5663   3.993   1.719   3.811 -1.1957  0.4471  0.8706
    1SOL    MW4 5664   3.993   1.636   3.838  0.2503  0.1578  0.0253
    1SOL     OW 5665   0.417   1.432   0.567  0.0205 -0.0553  0.1538
    1SOL    HW2 5666   0.471   1.511   0.571  0.8330 -0.6319  0.5732
    1SOL    HW3 5667   0.383   1.421   0.656  0.6938 -0.7245  0.3318
    1SOL    MW4 5668   0.419   1.441   0.579  0.2166 -0.2196  0.2326
    1SOL     OW 5669   2.783   4.254   2.734  0.1309  0.5449 -0.4730
    1SOL    HW2 5670   2.701   4.245   2.783 -0.8812  0.1452 -2.1834
    1SOL    HW3 5671   2.833   4.175   2.756 -0.9498 -0.3745 -1.2112
    1SOL    MW4 5672   2.779   4.242   2.743 -0.1452  0.3710 -0.7961
    1SOL     OW 5673   1.334   4.652   3.926  0.5909  0.0860  0.1833
    1SOL    HW2 5674   1.352   4.558   3.937  0.2074  0.1474  1.3916
    1SOL    HW3 5675   1.266   4.655   3.858  0.7371 -0.5027  0.0064
    1SOL    MW4 5676   1.327   4.640   3.919  0.5594  0.0165  0.3195
    1SOL     OW 5677   1.027   3.251   1.481 -0.1996  0.2461  0.3320
    1SOL    HW2 5678   1.078   3.325   1.513  0.3222  0.2955 -0.5851
    1SOL    HW3 5679   1.079   3.216   1.409 -0.8050 -0.5536  0.2755
    1SOL    MW4 5680   1.041   3.256   1.476 -0.2108  0.1469  0.2035
    1SOL     OW 5681   2.136   4.116   2.425 -0.7911 -0.1619 -0.2998
    1SOL    HW2 5682   2.128   4.024   2.452  1.0795  0.0871  1.1646
    1SOL    HW3 5683   2.160   4.163   2.505 -0.5338  1.4423 -1.2902
    1SOL    MW4 5684   2.138   4.110   2.439 -0.5102  0.0825 -0.2370
    1SOL     OW 5685   0.118   3.140   4.089 -0.4708 -0.0282  0.1913
    1SOL    HW2 5686   0.110   3.121   4.183 -1.4563  1.4215  0.4182
    1SOL    HW3 5687   0.124   3.054   4.047 -0.8305 -0.7054  1.5069
    1SOL    MW4 5688   0.118   3.126   4.096 -0.6483  0.0737  0.3953
    1SOL     OW 5689   0.456   3.254   3.554  0.0341  0.2187  0.1212
    1SOL    HW2 5690   0.384   3.280   3.611  0.7230  2.8288 -0.1271
    1SOL    HW3 5691   0.531   3.304   3.586  0.7067  0.8539 -2.3203
    1SOL    MW4 5692   0.457   3.264   3.566  0.2137  0.6468 -0.2337
    1SOL     OW 5693   0.310   1.675   2.034  0.1646 -0.6459  0.1194
    1SOL    HW2 5694   0.336   1.627   2.113 -0.7133  1.1872  1.5794
    1SOL    HW3 5695   0.362   1.756   2.037  1.0016 -1.0894 -1.8413
    1SOL    MW4 5696   0.320   1.680   2.045  0.1592 -0.4625  0.0534
    1SOL     OW 5697   3.027   1.933   2.766  0.2191  0.0504 -0.3979
    1SOL    HW2 5698   2.986   1.922   2.851 -0.0804  1.8122 -0.2962
    1SOL    HW3 5699   3.040   2.028   2.758  1.7833 -0.2452 -1.5777
    1SOL    MW4 5700   3.024   1.944   2.776  0.3858  0.2437 -0.5400
    1SOL     OW 5701   0.261   4.507   4.585 -0.0637  0.4370 -0.8141
    1SOL    HW2 5702   0.347   4.487   4.622 -0.4441  0.2934  0.0020
    1SOL    HW3 5703   0.222   4.422   4.566 -1.6234  0.3077  2.5278
    1SOL    MW4 5704   0.267   4.493   4.588 -0.3197  0.4005 -0.2651
    1SOL     OW 5705   0.023   3.937   2.915 -0.2532 -0.1878  0.2793
    1SOL    HW2 5706   0.043   3.916   2.824 -0.3529  2.1115 -0.3184
    1SOL    HW3 5707   0.106   3.971   2.950 -0.9786  1.7711  0.1488
    1SOL    MW4 5708   0.037   3.939   2.908 -0.3620  0.3738  0.1833
    1SOL     OW 5709   2.371   3.017   0.678  0.5061  0.0502 -0.1109
    1SOL    HW2 5710   2.464   3.009   0.657  0.2093 -1.2152 -1.0262
    1SOL    HW3 5711   2.337   2.927   0.671 -0.2748  0.0687  2.7287
    1SOL    MW4 5712   2.379   3.004   0.674  0.3641 -0.1142  0.1431
    1SOL     OW 5713   0.601   3.724   0.961  0.0395 -0.7386  0.3473
    1SOL    HW2 5714   0.687   3.766   0.965  0.2263 -0.9748 -1.2061
    1SOL    HW3 5715   0.599   3.666   1.037  1.4453 -1.1026  0.1148
    1SOL    MW4 5716   0.612   3.722   0.972  0.2496 -0.8180  0.1117
    1SOL     OW 5717   2.789   2.001   3.163  0.1580 -0.7322 -0.4470
    1SOL    HW2 5718   2.710   1.953   3.187 -0.7378  0.5288 -0.7908
    1SOL    HW3 5719   2.845   1.996   3.240 -0.8634 -0.4183  0.3204
    1SOL    MW4 5720   2.786   1.994   3.176 -0.0949 -0.5244 -0.3908
    1SOL     OW 5721   0.723   0.038   4.593  0.0501  0.6103  0.2677
    1SOL    HW2 5722   0.690   0.126   4.575  0.4211  0.8450  0.7309
    1SOL    HW3 5723   0.812   0.051   4.624  0.1575  0.0600  0.2021
    1SOL    MW4 5724   0.730   0.051   4.595  0.1131  0.5687  0.3209
    1SOL     OW 5725   2.292   0.031   1.105 -0.2989 -0.1763 -0.3547
    1SOL    HW2 5726   2.218   0.080   1.068  0.1126 -0.6186 -1.8298
    1SOL    HW3 5727   2.369   0.083   1.082  0.0058 -0.7037 -0.5413
    1SOL    MW4 5728   2.292   0.045   1.097 -0.2041 -0.3042 -0.5740
    1SOL     OW 5729   1.096   2.194   3.674 -0.6579 -0.8658 -0.1834
    1SOL    HW2 5730   1.020   2.234   3.717 -0.5442 -0.6893 -0.1440
    1SOL    HW3 5731   1.082   2.100   3.683 -2.0933 -0.8818 -2.3137
    1SOL    MW4 5732   1.085   2.187   3.681 -0.8323 -0.8447 -0.4590
    1SOL     OW 5733   1.184   0.083   2.305  0.0859  0.1184  0.3203
    1SOL    HW2 5734   1.278   0.079   2.293  0.1083 -0.0873  0.5600
    1SOL    HW3 5735   1.147   0.056   2.221  0.2394  0.1682  0.2371
    1SOL    MW4 5736   1.191   0.079   2.293  0.1090  0.0978  0.3409
    1SOL     OW 5737   0.410   4.101   2.681  0.1308  0.3209 -0.0002
    1SOL    HW2 5738   0.486   4.098   2.623 -0.0534  1.2233 -0.2926
    1SOL    HW3 5739   0.335   4.087   2.623  0.0994 -1.1988  0.3754
    1SOL    MW4 5740   0.410   4.099   2.666  0.1023  0.2394  0.0107
    1SOL     OW 5741   3.545   4.147   1.183  0.4493 -0.6087  0.1007
    1SOL    HW2 5742   3.483   4.185   1.121  1.2626 -0.1595 -0.4578
    1SOL    HW3 5743   3.622   4.203   1.177  0.4737 -0.4438  1.6681
    1SOL    MW4 5744   3.547   4.159   1.174  0.5600 -0.5274  0.2338
    1SOL     OW 5745   0.892   3.595   1.711 -0.0169  0.2876 -0.0089
    1SOL    HW2 5746   0.895   3.554   1.798  1.4646  1.3758  0.4865
    1SOL    HW3 5747   0.855   3.682   1.726 -0.4426  0.2066 -0.5790
    1SOL    MW4 5748   0.888   3.601   1.725  0.1223  0.4206 -0.0187
    1SOL     OW 5749   0.427   1.131   0.934 -0.2787 -0.0303 -0.2488
    1SOL    HW2 5750   0.402   1.125   0.842 -1.5673 -0.3476  0.1138
    1SOL    HW3 5751   0.347   1.160   0.979  1.1873  3.4261  0.3438
    1SOL    MW4 5752   0.413   1.134   0.928 -0.2553  0.3839 -0.1228
    1SOL     OW 5753   1.780   1.972   2.546 -0.5143 -0.3936  0.9784
    1SOL    HW2 5754   1.812   1.883   2.538  0.1842 -0.1463  1.0054
    1SOL    HW3 5755   1.686   1.966   2.529 -0.1922 -0.8815 -0.6755
    1SOL    MW4 5756   1.772   1.960   2.542 -0.3797 -0.4252  0.7639
    1SOL     OW 5757   3.064   4.086   1.528 -0.1269  0.3339  0.6829
    1SOL    HW2 5758   3.009   4.084   1.606 -0.5888  1.0415  0.3821
    1SOL    HW3 5759   3.075   4.179   1.508 -1.0563  0.1526 -0.8080
    1SOL    MW4 5760   3.058   4.098   1.535 -0.3104  0.4039  0.4466
    1SOL     OW 5761   1.680   4.581   3.435 -0.5541  0.2587  0.0487
    1SOL    HW2 5762   1.622   4.517   3.477  0.1954 -0.5449 -0.1379
    1SOL    HW3 5763   1.761   4.578   3.485  0.4132 -0.8373 -1.5204
    1SOL    MW4 5764   1.683   4.572   3.447 -0.3273  0.0081 -0.1826
    1SOL     OW 5765   0.041   2.184   2.772 -0.0894 -0.0031  0.2990
    1SOL    HW2 5766   0.133   2.157   2.770  0.0431  0.4620 -0.2134
    1SOL    HW3 5767  -0.007   2.107   2.744  0.4057  0.7355 -2.7910
    1SOL    MW4 5768   0.047   2.170   2.768 -0.0066  0.1557 -0.1762
    1SOL     OW 5769   1.521   2.427   1.070 -0.2771 -0.1946 -0.2188
    1SOL    HW2 5770   1.426   2.421   1.075 -0.2293 -1.1240 -0.3826
    1SOL    HW3 5771   1.553   2.378   1.146  0.0457  1.3492  0.6652
    1SOL    MW4 5772   1.513   2.420   1.081 -0.2282 -0.1135 -0.1239
    1SOL     OW 5773   2.037   2.270   2.218  0.0964  0.1887 -0.2744
    1SOL    HW2 5774   2.132   2.263   2.212  0.2122  1.4217  0.1532
    1SOL    HW3 5775   2.017   2.247   2.309  0.0178  0.3422 -0.2537
    1SOL    MW4 5776   2.047   2.266   2.229  0.1013  0.3715 -0.2153
    1SOL     OW 5777   1.763   0.248   3.326  0.4313  0.4153 -0.2590
    1SOL    HW2 5778   1.683   0.228   3.376  0.2766 -0.5075 -0.8668
    1SOL    HW3 5779   1.732   0.294   3.248  0.2480 -1.8917 -1.6095
    1SOL    MW4 5780   1.748   0.251   3.322  0.3868 -0.0109 -0.5171
    1SOL     OW 5781   2.025   2.093   3.092  0.4222  0.0918  0.2817
    1SOL    HW2 5782   1.977   2.027   3.042  0.9695 -2.2163  2.6727
    1SOL    HW3 5783   2.101   2.114   3.038  0.7096 -1.9416 -0.1402
    1SOL    MW4 5784   2.029   2.087   3.078  0.5324 -0.4811  0.5412
    1SOL     OW 5785   4.233   1.365   1.533  0.3798  0.2129  0.2204
    1SOL    HW2 5786   4.315   1.340   1.573 -0.3093 -1.8253  0.3959
    1SOL    HW3 5787   4.258   1.419   1.457  1.9526 -1.9235 -0.8210
    1SOL    MW4 5788   4.247   1.369   1.528  0.4964 -0.3380  0.1062
    1SOL     OW 5789   2.639   2.553   4.673 -0.5453  0.3475 -0.0986
    1SOL    HW2 5790   2.670   2.639   4.702 -1.3386 -0.2107  2.5496
    1SOL    HW3 5791   2.719   2.504   4.655 -0.0415  1.0468  0.1960
    1SOL    MW4 5792   2.653   2.558   4.675 -0.5834  0.3662  0.2899
    1SOL     OW 5793   2.108   2.517   1.852 -0.2475 -0.0865  0.5413
    1SOL    HW2 5794   2.077   2.427   1.841 -0.9142  0.3441 -1.4733
    1SOL    HW3 5795   2.194   2.509   1.892 -0.1172 -1.6402 -0.0260
    1SOL    MW4 5796   2.115   2.504   1.856 -0.3183 -0.2346  0.2005
    1SOL     OW 5797   2.812   1.891   2.553 -0.0523 -0.9714 -0.5858
    1SOL    HW2 5798   2.788   1.802   2.577 -0.5938 -0.7982 -0.4676
    1SOL    HW3 5799   2.892   1.909   2.603 -1.7498 -0.2444  1.9653
    1SOL    MW4 5800   2.819   1.882   2.563 -0.3474 -0.8527 -0.2339
    1SOL     OW 5801   3.083   4.088   0.715  0.6587  0.4987 -0.2060
    1SOL    HW2 5802   3.065   4.170   0.760  0.8411 -0.0574  0.9141
    1SOL    HW3 5803   3.164   4.104   0.665  0.3878  1.1588 -0.4283
    1SOL    MW4 5804   3.092   4.101   0.714  0.6468  0.5121 -0.0875
    1SOL     OW 5805   1.215   2.693   3.738 -0.1745 -0.1738 -0.5087
    1SOL    HW2 5806   1.123   2.718   3.728 -0.1931 -0.3720 -0.8522
    1SOL    HW3 5807   1.227   2.622   3.676  0.4574  0.4850 -1.1507
    1SOL    MW4 5808   1.205   2.687   3.729 -0.0936 -0.1128 -0.6387
    1SOL     OW 5809   3.371   2.666   0.754  0.0075  0.2561  0.2139
    1SOL    HW2 5810   3.459   2.628   0.759 -0.1755 -0.1259  0.5127
    1SOL    HW3 5811   3.343   2.650   0.664  0.2463  0.3839  0.1168
    1SOL    MW4 5812   3.379   2.659   0.743  0.0150  0.2224  0.2405
    1SOL     OW 5813   0.990   0.051   4.637  0.3212  0.3001  0.4609
    1SOL    HW2 5814   1.015  -0.034   4.601 -1.7326 -0.0894 -0.1160
    1SOL    HW3 5815   0.999   0.113   4.565 -2.9960 -0.3366 -0.5792
    1SOL    MW4 5816   0.994   0.048   4.623 -0.3875  0.1647  0.2470
    1SOL     OW 5817   4.409   4.611   2.692  0.0332 -0.2377  0.1325
    1SOL    HW2 5818   4.483   4.604   2.753  1.0570  2.4873 -0.6705
    1SOL    HW3 5819   4.450   4.613   2.605 -0.9504  1.1938 -0.3304
    1SOL    MW4 5820   4.424   4.611   2.688  0.0381  0.3104 -0.0343
    1SOL     OW 5821   0.705   0.856   0.804 -0.2454 -0.3509  0.1063
    1SOL    HW2 5822   0.761   0.907   0.862 -3.1614  0.9921  1.8156
    1SOL    HW3 5823   0.729   0.885   0.716  1.1623  0.7354  0.8283
    1SOL    MW4 5824   0.716   0.866   0.800 -0.4444 -0.0303  0.4271
    1SOL     OW 5825   2.819   4.653   3.370  0.1687 -0.2101  0.0032
    1SOL    HW2 5826   2.872   4.708   3.428  0.8641 -1.4112  0.5169
    1SOL    HW3 5827   2.883   4.600   3.323 -0.5845 -1.8949  0.8580
    1SOL    MW4 5828   2.835   4.654   3.371  0.1612 -0.5909  0.1836
    1SOL     OW 5829   1.434   3.891   4.004  0.1816  0.0057  0.0896
    1SOL    HW2 5830   1.410   3.830   4.074  0.2993  0.8280  0.8511
    1SOL    HW3 5831   1.358   3.891   3.946 -2.1952  3.3112  2.9794
    1SOL    MW4 5832   1.421   3.883   4.005 -0.1162  0.5503  0.5717
    1SOL     OW 5833   2.311   4.384   2.891 -0.0115 -0.1636 -0.2795
    1SOL    HW2 5834   2.227   4.364   2.933 -0.4497 -0.4829 -1.2805
    1SOL    HW3 5835   2.305   4.478   2.870  0.6625  0.2533  1.3646
    1SOL    MW4 5836   2.299   4.394   2.894  0.0196 -0.1507 -0.1948
    1SOL     OW 5837   1.401   1.759   1.574  0.4369 -0.1847 -0.3168
    1SOL    HW2 5838   1.425   1.685   1.518  0.8887 -0.5491  0.3542
    1SOL    HW3 5839   1.483   1.808   1.585  0.3460 -0.1098  0.0217
    1SOL    MW4 5840   1.415   1.756   1.568  0.4845 -0.2229 -0.1837
    1SOL     OW 5841   0.675   1.576   2.410 -0.4024 -0.5660  0.1927
    1SOL    HW2 5842   0.750   1.538   2.365 -0.6209 -2.3058  1.2518
    1SOL    HW3 5843   0.632   1.631   2.344  1.7120  0.3530 -0.4497
    1SOL    MW4 5844   0.679   1.578   2.396 -0.1523 -0.6742  0.2475
    1SOL     OW 5845   1.513   0.201   3.462 -0.4902  0.3449 -0.0470
    1SOL    HW2 5846   1.454   0.275   3.468  1.0262  1.5692  0.1654
    1SOL    HW3 5847   1.543   0.186   3.552  0.8758  0.8932 -0.3929
    1SOL    MW4 5848   1.509   0.208   3.475 -0.1099  0.5788 -0.0646
    1SOL     OW 5849   3.806   2.937   3.107 -0.1465 -0.5158 -0.3608
    1SOL    HW2 5850   3.727   2.974   3.067  0.1706  0.4173 -0.1513
    1SOL    HW3 5851   3.774   2.886   3.181 -0.5898 -0.5664 -0.5878
    1SOL    MW4 5852   3.791   2.936   3.111 -0.1636 -0.3991 -0.3633
    1SOL     OW 5853   4.376   2.114   0.876  0.3467  0.2485  0.2336
    1SOL    HW2 5854   4.426   2.126   0.795 -0.8682  1.9947 -0.2724
    1SOL    HW3 5855   4.288   2.091   0.847 -0.2247  1.3612  1.0479
    1SOL    MW4 5856   4.371   2.112   0.862  0.1111  0.6258  0.2743
    1SOL     OW 5857   0.944   0.501   3.673 -0.2688 -0.0930 -0.1327
    1SOL    HW2 5858   0.916   0.575   3.619 -1.0005 -0.4938 -0.3069
    1SOL    HW3 5859   0.980   0.438   3.610 -1.0556 -0.5293 -0.1385
    1SOL    MW4 5860   0.945   0.503   3.657 -0.4691 -0.2035 -0.1564
    1SOL     OW 5861   2.896   2.518   3.847 -0.1285 -0.9173  0.0633
    1SOL    HW2 5862   2.992   2.523   3.846 -0.1492 -0.4426  0.1687
    1SOL    HW3 5863   2.876   2.429   3.817  0.3421 -0.9829 -0.0623
    1SOL    MW4 5864   2.906   2.507   3.843 -0.0691 -0.8636  0.0603
    1SOL     OW 5865   0.660   2.153   4.106 -0.5477  0.2918 -0.4629
    1SOL    HW2 5866   0.622   2.224   4.056 -2.1959  0.6920  1.2820
    1SOL    HW3 5867   0.592   2.129   4.170  1.3688 -0.3363  1.4242
    1SOL    MW4 5868   0.646   2.159   4.108 -0.5124  0.2613  0.0162
    1SOL     OW 5869   4.074   3.587   2.436  0.1241  0.3938 -0.2086
    1SOL    HW2 5870   4.036   3.666   2.476  0.0034  0.3471 -0.2315
    1SOL    HW3 5871   4.010   3.560   2.371  0.3219  0.4691 -0.4327
    1SOL    MW4 5872   4.060   3.594   2.433  0.1349  0.3977 -0.2415
    1SOL     OW 5873   1.861   4.116   3.604  0.3410  0.2054 -0.2064
    1SOL    HW2 5874   1.872   4.209   3.584 -1.1984  0.3330 -0.5161
    1SOL    HW3 5875   1.809   4.082   3.531 -0.1493 -0.6261  0.5288
    1SOL    MW4 5876   1.856   4.124   3.592  0.0733  0.1121 -0.1502
    1SOL     OW 5877   1.119   4.300   4.757 -0.4057 -0.3320  0.4500
    1SOL    HW2 5878   1.108   4.375   4.699  0.0596  0.3540  1.2587
    1SOL    HW3 5879   1.030   4.276   4.782 -0.5969 -0.4736 -0.3321
    1SOL    MW4 5880   1.105   4.306   4.752 -0.3694 -0.2599  0.4539
    1SOL     OW 5881   3.759   0.928   1.696  0.3773 -0.1535 -0.0414
    1SOL    HW2 5882   3.687   0.969   1.647  1.0069  1.0377 -0.0018
    1SOL    HW3 5883   3.765   0.980   1.776 -0.2937 -1.7583  1.0788
    1SOL    MW4 5884   3.750   0.940   1.700  0.3717 -0.2081  0.1117
    1SOL     OW 5885   2.750   4.248   3.262  0.3517  0.0646  0.0122
    1SOL    HW2 5886   2.657   4.232   3.246  0.4465  1.0686 -1.6949
    1SOL    HW3 5887   2.768   4.331   3.217  1.7208  0.6668  1.6455
    1SOL    MW4 5888   2.740   4.257   3.254  0.5448  0.2761  0.0024
    1SOL     OW 5889   3.693   2.567   1.889  0.1902  0.0424  0.4612
    1SOL    HW2 5890   3.602   2.588   1.911 -0.6375 -0.8271 -1.9810
    1SOL    HW3 5891   3.743   2.595   1.966 -1.9191  2.1762  1.1170
    1SOL    MW4 5892   3.688   2.574   1.902 -0.1974  0.2093  0.2254
    1SOL     OW 5893   1.157   0.818   0.926  0.1253  0.0359 -0.4663
    1SOL    HW2 5894   1.157   0.800   0.832  1.0858 -1.3958 -0.1992
    1SOL    HW3 5895   1.249   0.831   0.948 -0.1431  0.8328  0.2011
    1SOL    MW4 5896   1.169   0.818   0.916  0.2166 -0.0479 -0.3430
    1SOL     OW 5897   2.273   3.135   3.051  0.5258 -0.7297 -0.1524
    1SOL    HW2 5898   2.229   3.198   3.108 -0.3511 -1.1239 -0.3914
    1SOL    HW3 5899   2.325   3.188   2.991  1.4421 -0.3042  0.9974
    1SOL    MW4 5900   2.274   3.150   3.051  0.5312 -0.7257 -0.0324
    1SOL     OW 5901   4.188   0.678   3.252 -0.6630  0.3454 -0.0748
    1SOL    HW2 5902   4.230   0.595   3.278  0.9505  0.9347 -0.7574
    1SOL    HW3 5903   4.130   0.699   3.326  1.3579  0.2676  1.5927
    1SOL    MW4 5904   4.186   0.670   3.265 -0.1831  0.4129  0.0551
    1SOL     OW 5905   2.140   1.863   2.276 -0.2360 -0.3220 -0.4801
    1SOL    HW2 5906   2.175   1.846   2.188 -0.0121  0.2842 -0.5079
    1SOL    HW3 5907   2.053   1.900   2.260  0.6314  1.7637 -0.5049
    1SOL    MW4 5908   2.133   1.866   2.262 -0.0920  0.0333 -0.4869
    1SOL     OW 5909   0.372   4.643   1.315  0.0134  0.0138  0.3306
    1SOL    HW2 5910   0.321   4.564   1.334 -1.2174  0.5844 -0.4637
    1SOL    HW3 5911   0.324   4.684   1.242  0.6591  1.4652  0.7190
    1SOL    MW4 5912   0.359   4.638   1.308 -0.0639  0.2809  0.2769
    1SOL     OW 5913   0.984   0.408   3.943 -0.0961 -0.3161  0.4823
    1SOL    HW2 5914   0.991   0.313   3.937  1.8062 -0.1538 -0.5882
    1SOL    HW3 5915   0.968   0.436   3.853 -0.7218  0.3697  0.8034
    1SOL    MW4 5916   0.983   0.399   3.930  0.0724 -0.2042  0.3836
    1SOL     OW 5917   4.432   0.438   1.648 -0.0641  0.1081  0.0463
    1SOL    HW2 5918   4.346   0.406   1.621 -0.8306  1.7374  0.5373
    1SOL    HW3 5919   4.430   0.438   1.743  0.9817 -1.1526  0.0864
    1SOL    MW4 5920   4.420   0.434   1.657 -0.0272  0.1567  0.1163
    1SOL     OW 5921   3.517   3.728   2.926  0.3547 -0.3630  0.1661
    1SOL    HW2 5922   3.534   3.822   2.921  0.7483 -0.4459 -0.1427
    1SOL    HW3 5923   3.535   3.705   3.017  0.8818 -0.2541  0.0918
    1SOL    MW4 5924   3.522   3.737   2.937  0.4764 -0.3598  0.1156
    1SOL     OW 5925   3.684   3.423   1.898 -0.3079 -0.0598 -0.5930
    1SOL    HW2 5926   3.604   3.462   1.934  0.4150  1.8047 -0.9666
    1SOL    HW3 5927   3.656   3.377   1.820 -1.2031 -0.3741 -0.0858
    1SOL    MW4 5928   3.670   3.422   1.893 -0.3307  0.1447 -0.5754
    1SOL     OW 5929   0.090   0.706   1.876  0.4502  0.1507  0.2324
    1SOL    HW2 5930   0.184   0.723   1.872  0.6146 -0.5993  0.8151
    1SOL    HW3 5931   0.082   0.612   1.857 -0.3070  0.5059 -1.2958
    1SOL    MW4 5932   0.102   0.696   1.873  0.3720  0.0986  0.1078
    1SOL     OW 5933   1.599   1.840   2.223 -0.0317  0.1989 -0.1907
    1SOL    HW2 5934   1.584   1.752   2.189 -0.8209  0.0121  0.6165
    1SOL    HW3 5935   1.552   1.898   2.164  0.7598  0.1178 -0.9151
    1SOL    MW4 5936   1.591   1.836   2.211 -0.0315  0.1634 -0.1798
    1SOL     OW 5937   0.524   2.338   3.970  0.4004 -0.1022 -0.3135
    1SOL    HW2 5938   0.455   2.355   4.035 -0.3817 -1.0026 -0.9012
    1SOL    HW3 5939   0.479   2.341   3.886  1.0095 -1.0632 -0.6814
    1SOL    MW4 5940   0.509   2.341   3.968  0.3775 -0.3474 -0.4394
    1SOL     OW 5941   1.630   0.470   1.028 -0.6661 -0.2000 -0.4989
    1SOL    HW2 5942   1.544   0.509   1.010 -0.2261  0.6567 -0.7705
    1SOL    HW3 5943   1.692   0.527   0.982  0.2267  0.3606  1.3660
    1SOL    MW4 5944   1.627   0.483   1.019 -0.4903 -0.0130 -0.2887
    1SOL     OW 5945   2.551   1.261   2.603  0.0323  0.0667  0.1580
    1SOL    HW2 5946   2.491   1.252   2.530  0.1425 -2.1071  0.3218
    1SOL    HW3 5947   2.500   1.305   2.671  0.3399  3.4158 -1.6569
    1SOL    MW4 5948   2.537   1.266   2.603  0.0873  0.2217 -0.0601
    1SOL     OW 5949   2.592   0.229   3.951 -0.1933  0.1722 -0.2792
    1SOL    HW2 5950   2.575   0.207   3.860  1.8643 -1.3471 -0.3270
    1SOL    HW3 5951   2.680   0.197   3.968  0.0211  1.7344  1.8407
    1SOL    MW4 5952   2.601   0.222   3.942  0.1066  0.1779 -0.0057
    1SOL     OW 5953   2.338   4.061   3.327  0.0856  0.0180 -0.4281
    1SOL    HW2 5954   2.265   4.033   3.271 -0.0920 -0.6828  0.1473
    1SOL    HW3 5955   2.381   3.979   3.353  0.7666  0.3996 -0.3395
    1SOL    MW4 5956   2.334   4.047   3.323  0.1516 -0.0238 -0.3407
    1SOL     OW 5957   4.269   1.025   4.483 -0.1947 -0.0264 -0.0901
    1SOL    HW2 5958   4.241   0.937   4.507  2.1498 -0.6291  0.5823
    1SOL    HW3 5959   4.317   1.014   4.401  0.0169  0.6534 -0.0641
    1SOL    MW4 5960   4.271   1.012   4.476  0.1426 -0.0163  0.0019
    1SOL     OW 5961   1.191   4.545   3.271  0.4032  0.6777 -0.2352
    1SOL    HW2 5962   1.283   4.571   3.269  1.1618 -1.9038 -0.4650
    1SOL    HW3 5963   1.175   4.505   3.186 -1.2678  2.1143 -0.6224
    1SOL    MW4 5964   1.201   4.544   3.260  0.2828  0.5269 -0.3164
    1SOL     OW 5965   2.757   3.184   3.298 -0.3003 -0.5503 -0.0910
    1SOL    HW2 5966   2.850   3.169   3.277 -0.1850 -0.9272  0.6945
    1SOL    HW3 5967   2.730   3.104   3.343 -0.6148  0.1758  1.0077
    1SOL    MW4 5968   2.766   3.171   3.301 -0.3264 -0.5045  0.1578
    1SOL     OW 5969   2.963   2.891   2.785 -0.3853  0.6612 -0.4724
    1SOL    HW2 5970   2.906   2.932   2.850  1.0034  0.4754  0.9082
    1SOL    HW3 5971   2.932   2.801   2.778  0.0411  0.4210  0.6544
    1SOL    MW4 5972   2.952   2.885   2.793 -0.1457  0.6051 -0.1416
    1SOL     OW 5973   2.943   1.864   1.743  0.3020 -0.6686  0.2624
    1SOL    HW2 5974   2.938   1.955   1.774  0.7621 -1.0978  1.6410
    1SOL    HW3 5975   2.874   1.857   1.678  1.9374  1.4182 -1.7885
    1SOL    MW4 5976   2.933   1.875   1.739  0.5784 -0.4499  0.1738
    1SOL     OW 5977   3.757   0.936   4.121 -0.2041  0.4799  0.0307
    1SOL    HW2 5978   3.673   0.966   4.157 -1.3910 -0.5653 -1.8029
    1SOL    HW3 5979   3.796   1.013   4.081 -1.3958  0.4633 -1.1786
    1SOL    MW4 5980   3.751   0.950   4.121 -0.5178  0.3398 -0.3705
    1SOL     OW 5981   0.630   1.809   2.283  0.4928 -0.5084  0.5441
    1SOL    HW2 5982   0.572   1.814   2.207  1.6664 -0.8015 -0.3915
    1SOL    HW3 5983   0.640   1.900   2.311 -0.5112 -0.4683  0.7808
    1SOL    MW4 5984   0.624   1.822   2.276  0.5152 -0.5416  0.4518
    1SOL     OW 5985   1.485   3.768   0.860 -0.1991 -0.1690 -0.3740
    1SOL    HW2 5986   1.465   3.734   0.947  1.2083 -4.4618 -1.5849
    1SOL    HW3 5987   1.401   3.792   0.823 -0.8417  1.4997  2.0284
    1SOL    MW4 5988   1.472   3.766   0.867 -0.0981 -0.5152 -0.2168
    1SOL     OW 5989   1.739   0.088   3.918  0.2811 -0.2733 -0.0869
    1SOL    HW2 5990   1.673   0.157   3.923  1.0954  0.5494 -0.6359
    1SOL    HW3 5991   1.822   0.132   3.936  0.8418 -1.0537 -0.7286
    1SOL    MW4 5992   1.741   0.103   3.921  0.4624 -0.2677 -0.2439
    1SOL     OW 5993   0.918   1.675   1.926  0.3137  0.1700  0.6436
    1SOL    HW2 5994   0.912   1.681   2.021 -0.5537  1.0467  0.5429
    1SOL    HW3 5995   0.991   1.614   1.910  0.6181  0.2043  1.8559
    1SOL    MW4 5996   0.927   1.667   1.936  0.2394  0.2903  0.7900
    1SOL     OW 5997   0.697   4.376   1.135 -0.3056 -0.2227  0.5220
    1SOL    HW2 5998   0.698   4.341   1.046  1.2079 -0.3197  0.5748
    1SOL    HW3 5999   0.648   4.311   1.185  0.3864 -1.0480  0.1245
    1SOL    MW4 6000   0.691   4.363   1.130 -0.0147 -0.3448  0.4766
    1SOL     OW 6001   1.320   4.273   0.877  0.0594  0.5277 -0.2833
    1SOL    HW2 6002   1.272   4.290   0.958  1.0554 -0.6262  0.5645
    1SOL    HW3 6003   1.304   4.350   0.823 -0.7983  1.2098  0.9272
    1SOL    MW4 6004   1.312   4.285   0.881  0.0777  0.4649 -0.0117
    1SOL     OW 6005   3.946   0.421   2.174 -0.1139 -0.0035 -0.0734
    1SOL    HW2 6006   4.010   0.468   2.226  1.7162  0.6363 -2.7618
    1SOL    HW3 6007   3.980   0.331   2.169 -0.2797 -0.0625 -0.1627
    1SOL    MW4 6008   3.959   0.415   2.180  0.1056  0.0732 -0.4396
    1SOL     OW 6009   3.575   1.191   4.409  0.0865 -0.1464  0.7720
    1SOL    HW2 6010   3.583   1.261   4.474 -1.8148  1.0876 -0.2621
    1SOL    HW3 6011   3.631   1.217   4.337 -0.4308  0.2074  0.4921
    1SOL    MW4 6012   3.583   1.203   4.408 -0.2327  0.0632  0.5980
    1SOL     OW 6013   3.224   3.909   4.267  0.0209  0.4578  0.3446
    1SOL    HW2 6014   3.211   3.825   4.223  0.5611  0.6624 -0.2123
    1SOL    HW3 6015   3.292   3.953   4.216  0.4318  0.8336  1.1942
    1SOL    MW4 6016   3.231   3.903   4.255  0.1466  0.5343  0.3834
    1SOL     OW 6017   4.206   2.196   2.878 -0.4402  0.2861  0.1701
    1SOL    HW2 6018   4.243   2.284   2.879 -2.8319  1.3245  0.3846
    1SOL    HW3 6019   4.180   2.180   2.968  1.0300 -1.1298  0.3670
    1SOL    MW4 6020   4.208   2.205   2.890 -0.5612  0.2363  0.2244
    1SOL     OW 6021   3.783   2.532   1.410  0.4210 -0.6946 -0.1266
    1SOL    HW2 6022   3.840   2.485   1.350  1.0174  1.2437 -1.1309
    1SOL    HW3 6023   3.837   2.605   1.441 -0.6623 -0.3239  0.9236
    1SOL    MW4 6024   3.798   2.536   1.406  0.3567 -0.3898 -0.1204
    1SOL     OW 6025   1.092   1.911   4.165 -0.1813 -0.1366 -0.0343
    1SOL    HW2 6026   1.139   1.851   4.107  1.4343 -0.8146  1.9187
    1SOL    HW3 6027   1.145   1.914   4.244 -0.4320  3.6110  0.0679
    1SOL    MW4 6028   1.105   1.904   4.168 -0.0012  0.2683  0.2365
    1SOL     OW 6029   3.733   1.840   2.555 -0.7892  0.0576 -0.0010
    1SOL    HW2 6030   3.772   1.775   2.614 -2.1812 -1.3542 -0.5930
    1SOL    HW3 6031   3.775   1.824   2.471  0.0898  1.0742  0.2222
    1SOL    MW4 6032   3.744   1.829   2.552 -0.8569  0.0055 -0.0498
    1SOL     OW 6033   3.328   1.491   1.640  0.0363 -0.1799 -0.3999
    1SOL    HW2 6034   3.325   1.462   1.549  0.0154 -0.7122 -0.2274
    1SOL    HW3 6035   3.236   1.489   1.669  0.0103  0.2414 -0.4426
    1SOL    MW4 6036   3.315   1.487   1.632  0.0305 -0.1945 -0.3829
    1SOL     OW 6037   1.968   0.902   1.642  0.2556 -0.0199 -0.2792
    1SOL    HW2 6038   1.937   0.992   1.642 -0.3085 -0.2110  0.3717
    1SOL    HW3 6039   1.992   0.884   1.551 -1.8850  0.0088 -0.8618
    1SOL    MW4 6040   1.967   0.911   1.630 -0.1012 -0.0413 -0.2704
    1SOL     OW 6041   3.758   4.016   4.008  0.3736  0.0862 -0.0740
    1SOL    HW2 6042   3.794   3.998   4.095  0.6035  0.1885 -0.1497
    1SOL    HW3 6043   3.797   3.951   3.951  0.3071  0.0891 -0.1237
    1SOL    MW4 6044   3.768   4.005   4.012  0.3953  0.1001 -0.0906
    1SOL     OW 6045   1.306   1.061   0.578  0.3004  0.1588  0.0949
    1SOL    HW2 6046   1.374   0.998   0.601 -1.4274 -1.6680  0.4426
    1SOL    HW3 6047   1.273   1.093   0.663  0.3264  0.5686 -0.0499
    1SOL    MW4 6048   1.310   1.057   0.593  0.0759 -0.0280  0.1216
    1SOL     OW 6049   1.083   2.832   2.035  0.0000  0.0000 -0.2921
    1SOL    HW2 6050   1.106   2.825   2.128  0.0000  0.0000 -0.2901
    1SOL    HW3 6051   1.159   2.795   1.989  0.0000  0.0000 -0.2855
    1SOL    MW4 6052   1.096   2.826   2.041  0.0000  0.0000 -0.2909
    1SOL     OW 6053   1.148   3.096   1.983  0.0000  0.0000  0.6776
    1SOL    HW2 6054   1.122   3.007   2.006  0.0000  0.0000  0.6768
    1SOL    HW3 6055   1.136   3.101   1.888  0.0000  0.0000  0.6778
    1SOL    MW4 6056   1.143   3.085   1.974  0.0000  0.0000  0.6776
    1SOL     OW 6057   0.919   3.208   2.091  0.0000  0.0000 -0.3932
    1SOL    HW2 6058   0.903   3.287   2.038  0.0000  0.0000 -0.3942
    1SOL    HW3 6059   1.006   3.179   2.063  0.0000  0.0000 -0.3888
    1SOL    MW4 6060   0.928   3.215   2.080  0.0000  0.0000 -0.3927
    1SOL     OW 6061   0.887   3.462   1.972  0.0000  0.0000 -0.1806
    1SOL    HW2 6062   0.961   3.508   2.013  0.0000  0.0000 -0.1366
    1SOL    HW3 6063   0.810   3.511   2.001  0.0000  0.0000 -0.1949
    1SOL    MW4 6064   0.887   3.475   1.981  0.0000  0.0000 -0.1768
    1SOL     OW 6065   1.102   3.599   2.073  0.0000  0.0000  0.2483
    1SOL    HW2 6066   1.101   3.626   2.165  0.0000  0.0000  0.2512
    1SOL    HW3 6067   1.100   3.681   2.024  0.0000  0.0000  0.2573
    1SOL    MW4 6068   1.102   3.613   2.079  0.0000  0.0000  0.2499
    1SOL     OW 6069   1.098   3.851   1.983  0.0000  0.0000 -0.5638
    1SOL    HW2 6070   1.178   3.889   2.021  0.0000  0.0000 -0.5587
    1SOL    HW3 6071   1.110   3.859   1.889  0.0000  0.0000 -0.5630
    1SOL    MW4 6072   1.110   3.857   1.976  0.0000  0.0000 -0.5630
    1SOL     OW 6073   0.893   4.008   2.139  0.0000  0.0000  0.4953
    1SOL    HW2 6074   0.957   3.963   2.083  0.0000  0.0000  0.4937
    1SOL    HW3 6075   0.809   3.969   2.114  0.0000  0.0000  0.5086
    1SOL    MW4 6076   0.890   3.997   2.128  0.0000  0.0000  0.4966
    1SOL     OW 6077   0.888   4.266   2.052  0.0000  0.0000 -0.4249
    1SOL    HW2 6078   0.892   4.173   2.076  0.0000  0.0000 -0.4191
    1SOL    HW3 6079   0.884   4.265   1.956  0.0000  0.0000 -0.4249
    1SOL    MW4 6080   0.888   4.254   2.042  0.0000  0.0000 -0.4244
    1SOL     OW 6081   1.144   4.351   2.122  0.0000  0.0000 -0.2622
    1SOL    HW2 6082   1.137   4.378   2.213  0.0000  0.0000 -0.2624
    1SOL    HW3 6083   1.055   4.327   2.097  0.0000  0.0000 -0.2609
    1SOL    MW4 6084   1.131   4.351   2.130  0.0000  0.0000 -0.2620
    1SOL     OW 6085   1.039   3.158   3.130  0.3417  0.1202  0.6523
    1SOL    HW2 6086   1.126   3.128   3.105  0.1852  0.0002  0.2466
    1SOL    HW3 6087   1.016   3.222   3.063 -0.9037 -1.6626 -0.6421
    1SOL    MW4 6088   1.048   3.162   3.118  0.1566 -0.1309  0.4277
    1SOL     OW 6089   1.626   3.795   3.192 -0.0418 -0.0100 -0.1410
    1SOL    HW2 6090   1.543   3.842   3.195 -0.5683 -0.8513 -1.2825
    1SOL    HW3 6091   1.654   3.801   3.101  1.6071  1.0278  0.4131
    1SOL    MW4 6092   1.619   3.802   3.180  0.1062  0.0160 -0.2184
    1SOL     OW 6093   0.005   4.360   1.470 -0.3453  0.3156  0.0776
    1SOL    HW2 6094   0.072   4.408   1.519 -1.4174  0.7282  1.1790
    1SOL    HW3 6095  -0.016   4.285   1.526 -1.3529  0.6118  0.1057
    1SOL    MW4 6096   0.011   4.356   1.484 -0.6197  0.4091  0.2266
    1SOL     OW 6097   0.782   1.042   3.110 -0.4162  0.2777  0.0947
    1SOL    HW2 6098   0.726   0.973   3.144 -1.0059  0.2779 -0.8328
    1SOL    HW3 6099   0.765   1.117   3.166 -0.2816 -0.1309  0.6858
    1SOL    MW4 6100   0.773   1.043   3.122 -0.4764  0.2238  0.0503
    1SOL     OW 6101   0.334   2.353   1.832  0.1486 -0.5397  0.1534
    1SOL    HW2 6102   0.423   2.370   1.799 -0.1253  0.5164 -0.0622
    1SOL    HW3 6103   0.348   2.315   1.919  0.8044 -0.0123  0.2840
    1SOL    MW4 6104   0.348   2.350   1.839  0.1989 -0.3307  0.1422
    1SOL     OW 6105   2.407   1.284   1.817 -0.4944 -0.0946 -0.0559
    1SOL    HW2 6106   2.467   1.347   1.777  0.7911 -1.4306 -0.2752
    1SOL    HW3 6107   2.334   1.278   1.756 -0.4345  0.8741 -0.2294
    1SOL    MW4 6108   2.406   1.292   1.804 -0.3169 -0.1431 -0.1078
    1SOL     OW 6109   0.467   0.198   0.991 -0.2655 -0.3996  0.2133
    1SOL    HW2 6110   0.429   0.275   0.949  0.0963 -0.2180  0.2209
    1SOL    HW3 6111   0.538   0.232   1.045 -0.4447 -0.6815  0.6306
    1SOL    MW4 6112   0.472   0.212   0.992 -0.2414 -0.4128  0.2693
    1SOL     OW 6113   2.379   0.403   2.521  0.4399 -0.8002  0.1088
    1SOL    HW2 6114   2.405   0.410   2.613  3.0691  1.5411 -0.7145
    1SOL    HW3 6115   2.462   0.396   2.474 -0.8135 -0.7441 -2.1625
    1SOL    MW4 6116   2.393   0.403   2.527  0.6213 -0.4839 -0.2995
    1SOL     OW 6117   1.318   0.003   3.562 -0.2908  0.2598  0.7310
    1SOL    HW2 6118   1.410   0.006   3.588 -0.2656  0.2456  0.6430
    1SOL    HW3 6119   1.307   0.079   3.505  0.1810 -0.9190 -0.9599
    1SOL    MW4 6120   1.328   0.013   3.558 -0.2252  0.1025  0.4959
    1SOL     OW 6121   1.996   2.895   0.905 -0.5644 -0.2373  0.2619
    1SOL    HW2 6122   1.946   2.821   0.939  0.6158 -1.1058  0.1662
    1SOL    HW3 6123   2.027   2.865   0.819  0.1436  0.2570  0.3361
    1SOL    MW4 6124   1.994   2.881   0.898 -0.3152 -0.2863  0.2590
    1SOL     OW 6125   4.413   4.496   4.432 -0.0867  0.3614 -0.1140
    1SOL    HW2 6126   4.502   4.529   4.418  0.3746 -0.8564 -0.1554
    1SOL    HW3 6127   4.403   4.494   4.527 -0.3326  1.1702 -0.1206
    1SOL    MW4 6128   4.423   4.500   4.443 -0.0582  0.3076 -0.1202
    1SOL     OW 6129   2.645   3.139   1.599 -0.2222  0.0064 -0.2003
    1SOL    HW2 6130   2.629   3.126   1.505  1.0570  1.8051 -0.7023
    1SOL    HW3 6131   2.604   3.223   1.619  1.0685  0.5048  0.4212
    1SOL    MW4 6132   2.638   3.149   1.589  0.1168  0.3097 -0.1844
    1SOL     OW 6133   0.206   2.560   2.221  0.1791 -0.0016  0.9214
    1SOL    HW2 6134   0.143   2.501   2.181 -1.9421  2.9225 -0.2700
    1SOL    HW3 6135   0.257   2.594   2.148  1.0432 -0.0205  1.5139
    1SOL    MW4 6136   0.204   2.557   2.206  0.0132  0.3817  0.8423
    1SOL     OW 6137   0.333   3.496   1.290  0.4799  0.0665 -0.2030
    1SOL    HW2 6138   0.297   3.585   1.282  1.2081  0.5818  2.1744
    1SOL    HW3 6139   0.264   3.440   1.253 -1.4808  1.3209  1.4270
    1SOL    MW4 6140   0.319   3.500   1.284  0.3173  0.2997  0.3258
    1SOL     OW 6141   3.417   0.616   2.939  0.0229  0.5565 -0.1669
    1SOL    HW2 6142   3.378   0.657   3.016  0.7268  1.7812 -0.4546
    1SOL    HW3 6143   3.407   0.522   2.954  0.0184  0.7902  1.3439
    1SOL    MW4 6144   3.411   0.609   2.951  0.1154  0.7489 -0.0055
    1SOL     OW 6145   1.710   2.177   2.879  0.0809 -0.0364  0.5207
    1SOL    HW2 6146   1.712   2.270   2.902  1.9151 -0.3129  1.6096
    1SOL    HW3 6147   1.706   2.131   2.964  0.2882 -0.9532  0.0452
    1SOL    MW4 6148   1.710   2.183   2.893  0.3504 -0.1941  0.6015
    1SOL     OW 6149   3.329   0.346   2.944  0.3789  0.0139 -0.0013
    1SOL    HW2 6150   3.243   0.377   2.972  0.0158 -0.6814 -0.3417
    1SOL    HW3 6151   3.317   0.253   2.925  0.7546  0.3092 -1.8604
    1SOL    MW4 6152   3.316   0.338   2.945  0.3808 -0.0389 -0.2916
    1SOL     OW 6153   0.156   4.090   4.804 -0.4413 -0.1222  0.6325
    1SOL    HW2 6154   0.238   4.121   4.843 -0.6132  0.0120  0.8908
    1SOL    HW3 6155   0.088   4.125   4.862 -0.9179  3.3724 -1.9266
    1SOL    MW4 6156   0.158   4.099   4.817 -0.5268  0.3567  0.3285
    1SOL     OW 6157   4.292   1.823   1.355  0.3684 -0.2326 -0.5780
    1SOL    HW2 6158   4.273   1.855   1.443 -1.7772  1.3308 -1.5454
    1SOL    HW3 6159   4.376   1.863   1.332 -0.5322  1.8502 -0.3660
    1SOL    MW4 6160   4.300   1.833   1.363 -0.0329  0.2484 -0.6776
    1SOL     OW 6161   4.338   1.207   4.079  0.2218  0.3403  0.1186
    1SOL    HW2 6162   4.261   1.253   4.111  1.5566  1.4054  1.8509
    1SOL    HW3 6163   4.316   1.182   3.989 -2.3270  0.1591  0.7767
    1SOL    MW4 6164   4.325   1.210   4.071  0.0615  0.4569  0.4344
    1SOL     OW 6165   2.855   3.820   2.154  0.5665 -0.0863 -0.9585
    1SOL    HW2 6166   2.930   3.880   2.149 -0.7472  1.8408  1.1491
    1SOL    HW3 6167   2.788   3.860   2.100 -0.2528  0.2972  0.3049
    1SOL    MW4 6168   2.856   3.833   2.146  0.2851  0.2184 -0.5138
    1SOL     OW 6169   3.766   4.391   2.028 -0.0542 -0.2454  0.2710
    1SOL    HW2 6170   3.818   4.405   2.107  1.4569 -1.4108 -0.5069
    1SOL    HW3 6171   3.682   4.357   2.060  0.5854 -0.7950  1.3712
    1SOL    MW4 6172   3.762   4.388   2.043  0.2298 -0.4721  0.3135
    1SOL     OW 6173   3.489   0.706   0.559  0.1070 -0.0155 -0.0579
    1SOL    HW2 6174   3.543   0.749   0.492 -1.0423  2.6515  0.6657
    1SOL    HW3 6175   3.551   0.683   0.628  0.8300  0.0857 -0.6688
    1SOL    MW4 6176   3.504   0.709   0.559  0.0508  0.3498 -0.0430
    1SOL     OW 6177   3.598   3.988   2.906  0.1491 -0.2687  0.5153
    1SOL    HW2 6178   3.692   3.984   2.889  0.2512 -2.6745  1.4798
    1SOL    HW3 6179   3.592   4.022   2.996  0.1091 -0.6160  0.6426
    1SOL    MW4 6180   3.610   3.992   2.916  0.1574 -0.6318  0.6595
    1SOL     OW 6181   4.043   0.569   1.324 -0.1212 -0.2517  0.0973
    1SOL    HW2 6182   4.025   0.488   1.370 -1.0523 -0.5432 -0.7507
    1SOL    HW3 6183   4.136   0.564   1.300  0.3608 -0.1071  1.8721
    1SOL    MW4 6184   4.053   0.558   1.327 -0.1802 -0.2710  0.2196
    1SOL     OW 6185   4.392   1.474   4.436 -0.1301 -0.0934  0.6032
    1SOL    HW2 6186   4.455   1.416   4.392 -0.2821  0.9586 -1.0652
    1SOL    HW3 6187   4.308   1.429   4.429  0.0318 -0.4299  0.7937
    1SOL    MW4 6188   4.390   1.460   4.429 -0.1287  0.0011  0.4077
    1SOL     OW 6189   4.112   3.573   3.508 -0.0368  0.2175 -0.0641
    1SOL    HW2 6190   4.024   3.609   3.520 -0.5034 -0.6197 -0.8880
    1SOL    HW3 6191   4.155   3.633   3.448  0.0810  0.8214  0.6160
    1SOL    MW4 6192   4.106   3.586   3.502 -0.0834  0.1867 -0.0832
    1SOL     OW 6193   1.646   4.144   4.264 -0.0271  0.6999  0.4371
    1SOL    HW2 6194   1.606   4.203   4.328 -1.0117  1.1529 -0.5781
    1SOL    HW3 6195   1.599   4.061   4.274 -0.7948  1.0377 -0.3053
    1SOL    MW4 6196   1.634   4.141   4.274 -0.2583  0.8039  0.2046
    1SOL     OW 6197   4.364   3.945   3.982 -0.0756 -0.7988 -0.0545
    1SOL    HW2 6198   4.371   4.028   4.031  0.4138 -0.9301  0.1058
    1SOL    HW3 6199   4.327   3.883   4.045 -0.9145 -0.5791 -0.3268
    1SOL    MW4 6200   4.360   3.948   3.997 -0.1216 -0.7875 -0.0691
    1SOL     OW 6201   3.209   1.641   1.276 -0.0618 -0.5396  0.0784
    1SOL    HW2 6202   3.130   1.645   1.330  1.0924  0.8932  1.7189
    1SOL    HW3 6203   3.267   1.708   1.314  1.6973 -1.1631 -1.4639
    1SOL    MW4 6204   3.207   1.651   1.288  0.3228 -0.4327  0.0913
    1SOL     OW 6205   4.441   0.415   1.083  0.0642 -0.0741  0.2250
    1SOL    HW2 6206   4.424   0.323   1.104  0.8401 -0.4851 -0.9237
    1SOL    HW3 6207   4.410   0.425   0.993  0.4849  0.6504  0.1569
    1SOL    MW4 6208   4.435   0.404   1.074  0.2222 -0.0326  0.0646
    1SOL     OW 6209   1.592   1.986   1.628  0.1102  0.2082 -0.0237
    1SOL    HW2 6210   1.674   1.945   1.599  0.4355 -1.1138  2.5490
    1SOL    HW3 6211   1.606   2.080   1.614  0.2076 -0.3169 -3.9866
    1SOL    MW4 6212   1.605   1.993   1.622  0.1661 -0.0355 -0.2071
    1SOL     OW 6213   3.884   2.055   2.831 -0.1355  0.0861 -0.7196
    1SOL    HW2 6214   3.936   2.060   2.751  0.1359 -0.3918 -0.5697
    1SOL    HW3 6215   3.912   1.974   2.874 -0.4170  0.2419 -0.2356
    1SOL    MW4 6216   3.894   2.045   2.826 -0.1369  0.0436 -0.6361
    1SOL     OW 6217   2.169   0.058   3.408 -0.0878 -0.2216 -0.0618
    1SOL    HW2 6218   2.121   0.076   3.488 -1.2481 -1.0708 -0.5634
    1SOL    HW3 6219   2.206  -0.029   3.421  1.4898  0.4855  0.3911
    1SOL    MW4 6220   2.168   0.049   3.420 -0.0329 -0.2404 -0.0682
    1SOL     OW 6221   4.244   1.095   1.404  0.1157 -0.0082  0.0121
    1SOL    HW2 6222   4.337   1.085   1.382 -0.1227 -0.0617 -0.9762
    1SOL    HW3 6223   4.240   1.177   1.454  0.6656  0.0956 -0.1094
    1SOL    MW4 6224   4.256   1.105   1.408  0.1564 -0.0015 -0.1343
    1SOL     OW 6225   3.510   3.593   1.244 -0.2201 -0.3240  0.0391
    1SOL    HW2 6226   3.451   3.667   1.231 -1.1755 -1.1106 -0.2378
    1SOL    HW3 6227   3.452   3.516   1.242  0.8336 -1.1215 -0.3119
    1SOL    MW4 6228   3.494   3.593   1.242 -0.2072 -0.5331 -0.0436
    1SOL     OW 6229   2.883   3.025   3.628  0.3577 -0.5320 -0.2117
    1SOL    HW2 6230   2.869   3.116   3.656  0.3492 -0.3536 -0.7790
    1SOL    HW3 6231   2.797   2.997   3.597 -0.0264 -1.2850  1.5038
    1SOL    MW4 6232   2.870   3.033   3.628  0.3059 -0.6077 -0.0603
    1SOL     OW 6233   2.049   2.857   2.148  0.0103 -0.2425  0.0811
    1SOL    HW2 6234   2.055   2.902   2.063  0.7985 -0.3310  0.0872
    1SOL    HW3 6235   1.979   2.902   2.194 -1.9112 -1.5396 -1.4364
    1SOL    MW4 6236   2.040   2.869   2.143 -0.1392 -0.4256 -0.1180
    1SOL     OW 6237   3.474   0.092   1.536 -0.2573 -0.0616  0.1322
    1SOL    HW2 6238   3.569   0.085   1.545 -0.2599 -0.1359  0.1021
    1SOL    HW3 6239   3.454   0.045   1.455 -0.4597 -1.2006  0.8185
    1SOL    MW4 6240   3.484   0.085   1.527 -0.2847 -0.2217  0.2189
    1SOL     OW 6241   2.940   0.484   2.276 -0.1551  0.3184  0.2049
    1SOL    HW2 6242   3.019   0.533   2.297  0.6515 -1.0047  0.3206
    1SOL    HW3 6243   2.900   0.467   2.362  0.1954 -0.2472  0.2603
    1SOL    MW4 6244   2.945   0.488   2.290 -0.0024  0.0692  0.2275
    1SOL     OW 6245   0.748   3.061   1.851 -0.0462 -0.0677 -0.2003
    1SOL    HW2 6246   0.831   3.080   1.895  0.1287 -1.4360  0.0933
    1SOL    HW3 6247   0.768   2.985   1.796 -0.8592  0.2187 -0.9013
    1SOL    MW4 6248   0.762   3.054   1.849 -0.1304 -0.2103 -0.2539
    1SOL     OW 6249   1.153   0.333   1.130  0.0963  0.2809  0.0883
    1SOL    HW2 6250   1.167   0.423   1.160  0.5083 -0.4009  2.0439
    1SOL    HW3 6251   1.106   0.291   1.202 -0.0699 -1.0738 -0.7922
    1SOL    MW4 6252   1.149   0.339   1.144  0.1289  0.0122  0.2302
    1SOL     OW 6253   3.236   1.493   2.838  0.0804  0.3885  0.4747
    1SOL    HW2 6254   3.323   1.468   2.870  0.2171 -1.6997 -1.3412
    1SOL    HW3 6255   3.252   1.566   2.779  0.7395 -0.4990 -0.4696
    1SOL    MW4 6256   3.249   1.499   2.834  0.1855 -0.0041  0.1106
    1SOL     OW 6257   4.163   0.525   2.313  0.0218  0.7349 -0.0334
    1SOL    HW2 6258   4.201   0.466   2.378  1.1655 -0.5558 -1.8213
    1SOL    HW3 6259   4.200   0.496   2.230 -3.2328  0.8306 -1.5846
    1SOL    MW4 6260   4.173   0.513   2.310 -0.2570  0.5773 -0.4740
    1SOL     OW 6261   0.896   4.458   3.642 -0.0063 -0.4676  0.1308
    1SOL    HW2 6262   0.950   4.412   3.577 -1.8327 -0.1758 -1.6291
    1SOL    HW3 6263   0.810   4.418   3.633 -1.2966  2.3697 -0.4867
    1SOL    MW4 6264   0.892   4.447   3.632 -0.4175 -0.0548 -0.1826
    1SOL     OW 6265   3.623   2.996   3.772 -0.2558  0.1677 -0.5110
    1SOL    HW2 6266   3.576   2.976   3.853  0.0163 -0.5362 -0.5220
    1SOL    HW3 6267   3.661   3.083   3.787 -3.0744  1.5915 -1.1916
    1SOL    MW4 6268   3.622   3.005   3.784 -0.5915  0.2630 -0.6022
    1SOL     OW 6269   0.133   1.671   2.970  0.7006  0.3990 -0.3039
    1SOL    HW2 6270   0.204   1.610   2.990 -0.4266 -0.4186  1.3550
    1SOL    HW3 6271   0.136   1.681   2.875  2.4517 -0.3209 -0.3498
    1SOL    MW4 6272   0.143   1.665   2.960  0.7829  0.1962 -0.0911
    1SOL     OW 6273   4.175   0.639   0.427  0.6551  0.6701 -0.0420
    1SOL    HW2 6274   4.259   0.595   0.439  0.9665  1.2720  0.0210
    1SOL    HW3 6275   4.142   0.653   0.516 -0.3257 -1.0932 -0.1088
    1SOL    MW4 6276   4.182   0.635   0.441  0.5670  0.5168 -0.0425
    1SOL     OW 6277   0.276   2.813   4.421  0.1474 -0.0906  0.0444
    1SOL    HW2 6278   0.311   2.793   4.334 -2.0392  1.4260 -1.2248
    1SOL    HW3 6279   0.354   2.825   4.475  1.5409 -1.2940 -1.6301
    1SOL    MW4 6280   0.291   2.812   4.416  0.0427 -0.0494 -0.3443
    1SOL     OW 6281   4.050   2.335   1.577  0.5924 -0.3601  0.3393
    1SOL    HW2 6282   3.960   2.361   1.595  0.0964 -1.6546 -0.2082
    1SOL    HW3 6283   4.079   2.394   1.507 -0.0112 -0.3026  0.1383
    1SOL    MW4 6284   4.042   2.346   1.570  0.4478 -0.5233  0.2406
    1SOL     OW 6285   0.667   0.558   0.755 -0.7572  0.6484 -0.4818
    1SOL    HW2 6286   0.667   0.649   0.785  0.8346  0.9904 -1.4789
    1SOL    HW3 6287   0.646   0.564   0.662  0.7598  0.1119 -0.8585
    1SOL    MW4 6288   0.664   0.571   0.747 -0.3470  0.6227 -0.6631
    1SOL     OW 6289   1.956   2.076   2.721 -0.3671 -0.5363 -0.3173
    1SOL    HW2 6290   1.899   2.026   2.663 -0.8952 -1.0735  0.6614
    1SOL    HW3 6291   1.899   2.142   2.760 -0.0655 -0.3412 -0.2011
    1SOL    MW4 6292   1.941   2.078   2.719 -0.3970 -0.5815 -0.1731
    1SOL     OW 6293   3.163   3.667   4.165  0.3153 -0.3866  0.2896
    1SOL    HW2 6294   3.217   3.679   4.087  0.1408 -0.8551  0.0991
    1SOL    HW3 6295   3.179   3.577   4.192  2.4270  0.5113  2.3184
    1SOL    MW4 6296   3.173   3.657   4.159  0.5708 -0.3302  0.5322
    1SOL     OW 6297   0.582   4.577   0.704 -0.7673 -0.2040  0.5040
    1SOL    HW2 6298   0.549   4.554   0.791  1.3390 -0.5229  1.2527
    1SOL    HW3 6299   0.629   4.499   0.675  1.1280  0.9371  0.4006
    1SOL    MW4 6300   0.584   4.564   0.711 -0.2393 -0.0958  0.5892
    1SOL     OW 6301   1.644   1.734   1.323  0.1826 -0.0566 -0.1585
    1SOL    HW2 6302   1.679   1.749   1.236  0.8544 -0.2247  0.0802
    1SOL    HW3 6303   1.709   1.772   1.382 -0.0106 -0.4125  0.2901
    1SOL    MW4 6304   1.657   1.741   1.320  0.2457 -0.1258 -0.0678
    1SOL     OW 6305   0.108   0.656   2.200 -0.6057  0.0731  0.4310
    1SOL    HW2 6306   0.023   0.699   2.203 -1.8113 -2.0214 -1.3864
    1SOL    HW3 6307   0.112   0.618   2.112  3.2880  2.1883 -0.3984
    1SOL    MW4 6308   0.098   0.656   2.189 -0.2511  0.0759  0.0818
    1SOL     OW 6309   3.080   2.393   3.147 -0.1115  0.2559  0.1892
    1SOL    HW2 6310   3.000   2.384   3.095 -0.0135  0.3597  0.0162
    1SOL    HW3 6311   3.121   2.472   3.113  0.3058 -0.0599 -0.0560
    1SOL    MW4 6312   3.075   2.402   3.135 -0.0434  0.2277  0.1338
    1SOL     OW 6313   2.706   3.588   3.090  0.3769  0.3057  0.5624
    1SOL    HW2 6314   2.667   3.502   3.110 -0.3703  0.1049 -1.6595
    1SOL    HW3 6315   2.783   3.567   3.037  0.0198  1.0439 -0.2358
    1SOL    MW4 6316   2.711   3.574   3.086  0.2313  0.3767  0.1638
    1SOL     OW 6317   4.231   2.317   2.365 -0.1770  0.4769  0.7659
    1SOL    HW2 6318   4.232   2.375   2.289 -1.3715 -0.3616  0.1107
    1SOL    HW3 6319   4.148   2.271   2.360 -0.4980  0.7509  2.8453
    1SOL    MW4 6320   4.220   2.319   2.354 -0.3767  0.4022  0.9537
    1SOL     OW 6321   0.542   2.261   2.476  0.1455 -0.1387 -0.0305
    1SOL    HW2 6322   0.614   2.293   2.530  0.3725 -0.4703 -0.1345
    1SOL    HW3 6323   0.541   2.319   2.400  0.9021 -0.7142 -0.4794
    1SOL    MW4 6324   0.551   2.273   2.473  0.2753 -0.2582 -0.1035
    1SOL     OW 6325   0.565   3.879   1.546  0.4395  0.1428 -0.0230
    1SOL    HW2 6326   0.484   3.828   1.545  0.1385  0.6090  0.3070
    1SOL    HW3 6327   0.613   3.846   1.622 -0.7093  1.7994  1.4785
    1SOL    MW4 6328   0.560   3.868   1.556  0.2482  0.4227  0.2185
    1SOL     OW 6329   1.271   1.121   2.509 -0.0455  0.3219  0.0394
    1SOL    HW2 6330   1.294   1.199   2.457 -0.2105  0.9884  0.9470
    1SOL    HW3 6331   1.176   1.116   2.504 -0.0209  0.0614 -0.1782
    1SOL    MW4 6332   1.261   1.131   2.501 -0.0641  0.3756  0.1304
    1SOL     OW 6333   1.125   1.510   4.137  0.4752 -0.2993 -0.3906
    1SOL    HW2 6334   1.032   1.486   4.142  0.8160 -1.6131 -0.1912
    1SOL    HW3 6335   1.128   1.578   4.070 -0.4260 -1.3455 -1.5143
    1SOL    MW4 6336   1.113   1.515   4.129  0.4011 -0.6107 -0.5126
    1SOL     OW 6337   0.352   3.044   3.141 -0.1072  0.1689  0.3965
    1SOL    HW2 6338   0.393   3.096   3.072  0.3834  0.6703  1.0616
    1SOL    HW3 6339   0.335   3.106   3.211  0.4434 -0.5574  1.1822
    1SOL    MW4 6340   0.356   3.059   3.141  0.0302  0.1392  0.5877
    1SOL     OW 6341   3.653   0.516   0.945 -0.2062 -0.0215 -0.1649
    1SOL    HW2 6342   3.656   0.420   0.949 -1.8717 -0.0350  1.1908
    1SOL    HW3 6343   3.707   0.544   1.019 -0.1699  0.0735 -0.2280
    1SOL    MW4 6344   3.661   0.507   0.955 -0.4210 -0.0108  0.0057
    1SOL     OW 6345   0.217   0.985   1.180  0.4093 -0.2133  0.4475
    1SOL    HW2 6346   0.229   0.909   1.123  0.7526  0.3721 -0.2594
    1SOL    HW3 6347   0.292   0.982   1.240 -0.5303 -1.4595  1.6105
    1SOL    MW4 6348   0.228   0.974   1.181  0.3306 -0.3005  0.5078
    1SOL     OW 6349   2.523   3.387   0.879  0.5086  0.1104  0.1022
    1SOL    HW2 6350   2.438   3.409   0.917  0.9240  1.4971  0.2385
    1SOL    HW3 6351   2.587   3.420   0.943  1.2004  1.6979 -1.3827
    1SOL    MW4 6352   2.520   3.394   0.892  0.6547  0.5026 -0.0758
    1SOL     OW 6353   1.353   1.247   3.466  0.3112  0.2848  0.0783
    1SOL    HW2 6354   1.418   1.281   3.528 -0.1574  0.2086  0.6058
    1SOL    HW3 6355   1.405   1.220   3.390  1.1325 -1.7980  1.3632
    1SOL    MW4 6356   1.369   1.248   3.464  0.3577  0.0000  0.3173
    1SOL     OW 6357   2.957   1.685   3.548  0.4092  0.2777  0.5173
    1SOL    HW2 6358   2.973   1.674   3.454  1.6494  0.7322  0.6745
    1SOL    HW3 6359   2.932   1.777   3.558 -1.8277 -0.2715  0.3576
    1SOL    MW4 6360   2.956   1.696   3.537  0.2778  0.2652  0.5171
    1SOL     OW 6361   3.710   2.138   0.754  0.1088  0.4548 -0.1747
    1SOL    HW2 6362   3.771   2.188   0.808 -0.3758  1.4743 -0.5550
    1SOL    HW3 6363   3.627   2.186   0.762 -0.2906 -0.1433 -0.7526
    1SOL    MW4 6364   3.707   2.151   0.762 -0.0079  0.5105 -0.3011
    1SOL     OW 6365   3.197   0.662   3.274  0.0020  0.3147 -0.0633
    1SOL    HW2 6366   3.128   0.650   3.339  0.3187 -0.6742  0.0929
    1SOL    HW3 6367   3.276   0.629   3.317  0.4436  0.7984 -0.4978
    1SOL    MW4 6368   3.198   0.656   3.288  0.1023  0.2480 -0.1001
    1SOL     OW 6369   3.448   1.656   2.318 -0.6127  0.4944  0.2019
    1SOL    HW2 6370   3.498   1.719   2.370 -1.4336  1.4100 -0.1157
    1SOL    HW3 6371   3.423   1.704   2.240 -0.8637 -0.3693 -0.2582
    1SOL    MW4 6372   3.451   1.670   2.315 -0.7539  0.5013  0.0994
    1SOL     OW 6373   0.251   0.162   3.869  0.3906 -0.3000 -0.4764
    1SOL    HW2 6374   0.249   0.099   3.797  1.8832 -0.5801 -0.2915
    1SOL    HW3 6375   0.206   0.239   3.834 -1.2704 -1.3876 -0.7703
    1SOL    MW4 6376   0.245   0.164   3.855  0.3683 -0.4804 -0.4909
    1SOL     OW 6377   1.336   2.179   2.994  0.1937 -0.4367  0.5674
    1SOL    HW2 6378   1.345   2.102   3.049  1.9192 -0.5674  0.1452
    1SOL    HW3 6379   1.369   2.151   2.908 -0.9723  0.2179 -0.1115
    1SOL    MW4 6380   1.342   2.166   2.990  0.2675 -0.3672  0.4220
    1SOL     OW 6381   3.407   2.727   2.689  0.2005  0.0720  0.2471
    1SOL    HW2 6382   3.354   2.794   2.732 -1.9620 -1.1262 -0.4817
    1SOL    HW3 6383   3.363   2.645   2.711  1.1400 -0.8511 -1.2875
    1SOL    MW4 6384   3.394   2.725   2.698  0.0389 -0.2079 -0.0513
    1SOL     OW 6385   4.035   3.253   4.240 -0.2726  0.0443  0.0608
    1SOL    HW2 6386   4.126   3.259   4.215  0.0218  0.5183  1.2041
    1SOL    HW3 6387   4.003   3.343   4.241 -0.9583 -0.1715 -1.0320
    1SOL    MW4 6388   4.043   3.266   4.237 -0.3247  0.0782  0.0668
    1SOL     OW 6389   2.025   0.746   3.243 -0.5007 -0.2365 -0.1343
    1SOL    HW2 6390   1.998   0.747   3.335  0.6123 -0.1713  0.1953
    1SOL    HW3 6391   2.117   0.769   3.244  0.1564 -2.6301 -1.0649
    1SOL    MW4 6392   2.033   0.749   3.255 -0.2675 -0.5437 -0.2136
    1SOL     OW 6393   3.344   2.964   3.065 -0.1944  0.2021 -0.1105
    1SOL    HW2 6394   3.384   2.910   3.133 -0.9872  0.7060  0.7758
    1SOL    HW3 6395   3.411   3.028   3.043  0.9643 -1.4709 -1.5750
    1SOL    MW4 6396   3.358   2.965   3.071 -0.1462  0.0477 -0.1872
    1SOL     OW 6397   0.162   3.730   2.345 -0.6495  0.1613  0.2442
    1SOL    HW2 6398   0.082   3.717   2.293  0.1144 -0.2994 -0.8234
    1SOL    HW3 6399   0.219   3.658   2.320 -0.0278  0.2891  1.2795
    1SOL    MW4 6400   0.159   3.719   2.334 -0.4667  0.1173  0.2401
    1SOL     OW 6401   2.804   0.947   3.712  0.3906  0.3035  0.2360
    1SOL    HW2 6402   2.745   0.936   3.788  0.8803  0.3315  0.6221
    1SOL    HW3 6403   2.760   0.901   3.641  0.0432  0.0627  0.6027
    1SOL    MW4 6404   2.790   0.939   3.713  0.4094  0.2754  0.3355
    1SOL     OW 6405   3.066   2.057   4.455  0.1984  0.1993  0.1017
    1SOL    HW2 6406   3.056   1.981   4.512 -1.3859  0.9712  0.8813
    1SOL    HW3 6407   3.030   2.028   4.371 -1.3702  0.4113  0.6899
    1SOL    MW4 6408   3.060   2.043   4.451 -0.2177  0.3290  0.2823
    1SOL     OW 6409   1.394   0.085   0.835  0.2395 -0.4707 -0.5606
    1SOL    HW2 6410   1.457   0.091   0.763  0.2205 -0.5756 -0.5858
    1SOL    HW3 6411   1.444   0.108   0.913  0.7575 -2.2771 -0.3302
    1SOL    MW4 6412   1.409   0.089   0.836  0.3055 -0.7229 -0.5335
    1SOL     OW 6413   2.602   4.312   1.720 -0.0232 -0.0085 -1.0107
    1SOL    HW2 6414   2.579   4.303   1.813  0.8345  0.9024 -0.6957
    1SOL    HW3 6415   2.618   4.223   1.690 -1.4624 -0.4215 -0.5898
    1SOL    MW4 6416   2.601   4.299   1.729 -0.0997  0.0572 -0.9135
    1SOL     OW 6417   3.987   0.854   2.938 -0.1758  0.2269  0.1564
    1SOL    HW2 6418   3.960   0.911   2.866  1.3155 -0.3702 -0.8837
    1SOL    HW3 6419   3.943   0.891   3.015 -0.9612  1.4758 -0.8708
    1SOL    MW4 6420   3.978   0.866   2.939 -0.0827  0.3129 -0.1161
    1SOL     OW 6421   3.351   2.268   1.183 -0.3707  0.7029  0.3097
    1SOL    HW2 6422   3.416   2.311   1.128 -1.2861 -0.4766 -1.7876
    1SOL    HW3 6423   3.268   2.310   1.161 -0.7591  0.1983  0.7653
    1SOL    MW4 6424   3.348   2.279   1.173 -0.5426  0.4807  0.0931
    1SOL     OW 6425   0.873   2.685   1.104 -0.0391  0.4540  0.2490
    1SOL    HW2 6426   0.964   2.669   1.079  0.0819 -2.0184  2.1551
    1SOL    HW3 6427   0.876   2.770   1.149  1.6382 -0.4417  1.8761
    1SOL    MW4 6428   0.885   2.694   1.106  0.1982  0.0098  0.7151
    1SOL     OW 6429   1.514   0.666   0.513  0.1978  0.0819  0.4501
    1SOL    HW2 6430   1.469   0.603   0.458 -0.3752  0.2687  0.7066
    1SOL    HW3 6431   1.579   0.615   0.562  1.1662  0.0128 -0.8845
    1SOL    MW4 6432   1.517   0.651   0.512  0.2500  0.0975  0.3079
    1SOL     OW 6433   1.244   1.912   2.572  0.4021  0.0104  0.0942
    1SOL    HW2 6434   1.236   1.818   2.591  1.2877  0.1190  1.0485
    1SOL    HW3 6435   1.333   1.922   2.539  0.0356  0.3965 -0.8062
    1SOL    MW4 6436   1.254   1.901   2.570  0.4705  0.0758  0.1013
    1SOL     OW 6437   0.831   2.782   2.996 -0.0201  0.2130 -0.2750
    1SOL    HW2 6438   0.926   2.769   2.993 -0.0443  0.1723 -1.2142
    1SOL    HW3 6439   0.802   2.762   2.907 -1.3548 -3.0622  0.8379
    1SOL    MW4 6440   0.840   2.778   2.984 -0.1994 -0.2248 -0.2520
    1SOL     OW 6441   2.928   0.790   0.859 -0.0316 -0.1818 -0.3108
    1SOL    HW2 6442   2.978   0.840   0.923  1.1151 -1.2108 -0.3759
    1SOL    HW3 6443   2.994   0.740   0.811 -1.0984 -1.4067 -0.5355
    1SOL    MW4 6444   2.943   0.790   0.861 -0.0207 -0.4792 -0.3490
    1SOL     OW 6445   0.961   2.345   0.920  0.2180 -0.0601  0.0922
    1SOL    HW2 6446   1.031   2.280   0.927 -0.0723 -0.3500  0.2843
    1SOL    HW3 6447   0.948   2.355   0.825 -1.7990 -2.5193  0.0563
    1SOL    MW4 6448   0.969   2.338   0.908 -0.0865 -0.4227  0.1128
    1SOL     OW 6449   0.477   3.196   1.220  0.3014 -0.1905  0.0998
    1SOL    HW2 6450   0.561   3.235   1.244 -1.1967  2.3593  1.3763
    1SOL    HW3 6451   0.425   3.269   1.187 -1.5007 -1.6872 -0.4562
    1SOL    MW4 6452   0.482   3.211   1.219 -0.1340 -0.0515  0.1948
    1SOL     OW 6453   3.908   4.168   4.236  0.2208 -0.3017 -0.0391
    1SOL    HW2 6454   3.964   4.217   4.175  0.8592 -0.6642  0.2502
    1SOL    HW3 6455   3.955   4.086   4.251 -0.4678 -0.6727  0.0937
    1SOL    MW4 6456   3.922   4.164   4.230  0.2141 -0.3986  0.0167
    1SOL     OW 6457   1.903   2.175   1.966  0.4849 -0.1317 -0.1382
    1SOL    HW2 6458   1.933   2.219   2.045 -0.4471  2.1074 -0.9659
    1SOL    HW3 6459   1.848   2.104   1.998 -0.5700  1.2561  1.2583
    1SOL    MW4 6460   1.899   2.172   1.981  0.2228  0.3469 -0.0632
    1SOL     OW 6461   1.379   1.043   3.655  0.4444  0.5158 -0.2687
    1SOL    HW2 6462   1.474   1.027   3.658  0.5599  1.1149 -0.5383
    1SOL    HW3 6463   1.368   1.107   3.585  0.0489  1.8154  0.9443
    1SOL    MW4 6464   1.390   1.050   3.646  0.4075  0.7663 -0.1442
    1SOL     OW 6465   2.425   0.126   2.232 -0.0891  0.2278  0.7258
    1SOL    HW2 6466   2.385   0.123   2.319 -0.5023  2.8641  0.6632
    1SOL    HW3 6467   2.518   0.111   2.249 -0.4180 -1.2589  1.3727
    1SOL    MW4 6468   2.432   0.124   2.246 -0.1872  0.3795  0.8030
    1SOL     OW 6469   1.482   4.423   3.963  0.1321 -0.0028  0.1602
    1SOL    HW2 6470   1.490   4.331   3.987 -0.4439  0.0057  0.4030
    1SOL    HW3 6471   1.545   4.468   4.020  1.4473 -0.4046 -0.9734
    1SOL    MW4 6472   1.491   4.417   3.974  0.2296 -0.0553  0.0424
    1SOL     OW 6473   3.942   2.518   2.354 -0.1957  0.2630  0.2859
    1SOL    HW2 6474   3.998   2.593   2.374 -0.5678  0.5431  0.2829
    1SOL    HW3 6475   3.854   2.547   2.378 -0.5944  0.4565 -1.3582
    1SOL    MW4 6476   3.938   2.531   2.360 -0.2973  0.3254  0.0689
    1SOL     OW 6477   2.168   1.079   4.240 -0.0582  0.4675  0.1918
    1SOL    HW2 6478   2.086   1.029   4.242  0.1611  0.1284  1.0647
    1SOL    HW3 6479   2.156   1.143   4.170 -0.8649  0.0656 -0.0379
    1SOL    MW4 6480   2.156   1.081   4.231 -0.1357  0.3697  0.2766
    1SOL     OW 6481   0.681   4.200   4.068  0.2699 -0.6162  0.0783
    1SOL    HW2 6482   0.632   4.265   4.018  0.7862 -0.8838 -0.7744
    1SOL    HW3 6483   0.664   4.223   4.160  1.6141  1.5752 -0.1993
    1SOL    MW4 6484   0.672   4.211   4.074  0.5153 -0.3624 -0.0710
    1SOL     OW 6485   1.563   0.587   2.500 -0.1095 -0.1272  0.2421
    1SOL    HW2 6486   1.587   0.672   2.535 -0.7892  0.2094 -0.0926
    1SOL    HW3 6487   1.629   0.569   2.433  1.2418 -0.8158  1.7249
    1SOL    MW4 6488   1.575   0.596   2.496 -0.0209 -0.1736  0.3934
    1SOL     OW 6489   4.189   3.206   4.523 -0.2861 -0.3980  0.0603
    1SOL    HW2 6490   4.114   3.224   4.467  0.2492  1.5288 -0.0763
    1SOL    HW3 6491   4.194   3.111   4.526 -2.8934 -0.5740  0.3032
    1SOL    MW4 6492   4.180   3.196   4.516 -0.5593 -0.1669  0.0744
    1SOL     OW 6493   1.928   4.136   1.564 -0.0894  0.2009 -0.4674
    1SOL    HW2 6494   2.005   4.161   1.616 -0.7063 -2.5119  1.8881
    1SOL    HW3 6495   1.964   4.090   1.489  0.6377 -0.2570  0.1481
    1SOL    MW4 6496   1.943   4.134   1.561 -0.0749 -0.2174 -0.0752
    1SOL     OW 6497   1.979   0.906   1.351  0.1128  0.3757  0.0000
    1SOL    HW2 6498   1.884   0.912   1.358  0.1151  0.0927  0.3088
    1SOL    HW3 6499   1.998   0.812   1.359  0.4125  0.4259 -0.1004
    1SOL    MW4 6500   1.969   0.894   1.353  0.1527  0.3449  0.0275
    1SOL     OW 6501   3.119   0.979   3.932 -0.2550 -0.1719  0.0724
    1SOL    HW2 6502   3.143   0.900   3.883  0.3791  0.1275 -0.1131
    1SOL    HW3 6503   3.192   0.993   3.992 -0.6557 -0.0746  0.5371
    1SOL    MW4 6504   3.132   0.970   3.933 -0.2241 -0.1196  0.1094
    1SOL     OW 6505   2.454   4.066   1.894 -0.4238 -0.5427 -0.1238
    1SOL    HW2 6506   2.509   4.068   1.972 -1.2974 -0.5165  0.5040
    1SOL    HW3 6507   2.515   4.050   1.822  0.6207  1.2385  0.3319
    1SOL    MW4 6508   2.469   4.064   1.895 -0.4013 -0.3042  0.0191
    1SOL     OW 6509   3.040   1.121   3.368 -0.3244  0.3536  0.2655
    1SOL    HW2 6510   2.970   1.186   3.359  0.1785  0.7079 -1.0933
    1SOL    HW3 6511   3.100   1.140   3.297  1.6028  0.5566  1.9111
    1SOL    MW4 6512   3.039   1.132   3.358 -0.0036  0.4272  0.3033
    1SOL     OW 6513   3.679   3.830   2.277  0.2388 -0.0637 -0.5062
    1SOL    HW2 6514   3.592   3.852   2.309  1.1759  1.3792  1.1293
    1SOL    HW3 6515   3.693   3.890   2.204  0.1434  0.1946 -0.3126
    1SOL    MW4 6516   3.669   3.841   2.271  0.3500  0.1607 -0.2649
    1SOL     OW 6517   0.454   4.049   4.622  0.4098  0.5611  0.3079
    1SOL    HW2 6518   0.421   4.057   4.712 -1.2328 -0.0290 -0.2126
    1SOL    HW3 6519   0.395   3.985   4.581 -0.0415  2.2345 -1.7230
    1SOL    MW4 6520   0.442   4.041   4.628  0.1336  0.7038 -0.0286
    1SOL     OW 6521   2.376   1.381   2.787 -0.5220 -0.4628  0.7350
    1SOL    HW2 6522   2.366   1.346   2.876  0.2102  1.8324  1.7758
    1SOL    HW3 6523   2.305   1.446   2.780  0.5881  0.7348  0.3779
    1SOL    MW4 6524   2.365   1.385   2.798 -0.2789 -0.0019  0.8254
    1SOL     OW 6525   1.126   1.474   1.893  0.0044 -0.7094 -0.0755
    1SOL    HW2 6526   1.149   1.461   1.801  1.7091 -2.2805  0.5380
    1SOL    HW3 6527   1.197   1.529   1.928  0.3846 -1.7014  0.7342
    1SOL    MW4 6528   1.139   1.480   1.885  0.2795 -1.0476  0.1123
    1SOL     OW 6529   4.324   0.067   4.226  0.2063  0.4961 -0.2954
    1SOL    HW2 6530   4.410   0.026   4.233  0.5631  1.1143 -1.0761
    1SOL    HW3 6531   4.281   0.044   4.309  1.3666  0.7526  0.3959
    1SOL    MW4 6532   4.330   0.058   4.238  0.4063  0.6115 -0.3071
    1SOL     OW 6533   0.263   1.565   4.182  0.5536 -0.4467  0.1031
    1SOL    HW2 6534   0.201   1.492   4.174  0.1543 -0.2494  1.4397
    1SOL    HW3 6535   0.306   1.568   4.096 -0.3481 -1.4217 -0.3998
    1SOL    MW4 6536   0.260   1.556   4.169  0.3820 -0.5494  0.2131
    1SOL     OW 6537   4.410   3.877   0.986  0.3930  0.4023  0.0921
    1SOL    HW2 6538   4.375   3.835   1.064  0.2970 -0.5942 -0.4753
    1SOL    HW3 6539   4.402   3.971   1.003  2.1470  0.1990  2.0551
    1SOL    MW4 6540   4.404   3.884   0.998  0.6123  0.2441  0.2763
    1SOL     OW 6541   3.395   4.574   1.311  0.0201 -0.1297  0.3623
    1SOL    HW2 6542   3.375   4.498   1.365  1.7513  0.6069  2.1319
    1SOL    HW3 6543   3.313   4.595   1.267 -1.3439 -0.9781  2.4356
    1SOL    MW4 6544   3.382   4.567   1.312  0.0687 -0.1440  0.8692
    1SOL     OW 6545   1.322   1.103   1.864 -0.1674  0.2502 -0.3812
    1SOL    HW2 6546   1.380   1.145   1.800 -0.8156 -0.4171 -1.4233
    1SOL    HW3 6547   1.359   1.016   1.876  0.6348  0.7791  1.0648
    1SOL    MW4 6548   1.335   1.097   1.857 -0.1470  0.2319 -0.3279
    1SOL     OW 6549   3.969   3.089   1.040  0.0788 -0.2304 -0.3249
    1SOL    HW2 6550   4.026   3.028   0.994 -0.3875 -1.8875  1.2399
    1SOL    HW3 6551   3.898   3.108   0.978 -0.2811 -2.0393 -0.4863
    1SOL    MW4 6552   3.967   3.083   1.026 -0.0300 -0.6878 -0.1397
    1SOL     OW 6553   0.722   4.657   3.108  0.4803 -0.2428  0.1764
    1SOL    HW2 6554   0.706   4.729   3.047  3.2068  0.6495  0.4385
    1SOL    HW3 6555   0.694   4.691   3.193  0.1252 -0.1548  0.0262
    1SOL    MW4 6556   0.716   4.671   3.112  0.7932 -0.1130  0.1910
    1SOL     OW 6557   1.580   0.411   2.795  0.3443 -0.3179 -0.1693
    1SOL    HW2 6558   1.639   0.338   2.812  0.5788  0.2519  1.6410
    1SOL    HW3 6559   1.496   0.385   2.834  0.9963  1.1754  2.4098
    1SOL    MW4 6560   1.577   0.398   2.803  0.4615 -0.0457  0.4101
    1SOL     OW 6561   2.707   0.955   4.219  0.3760 -0.3101 -0.2986
    1SOL    HW2 6562   2.745   0.897   4.153 -0.2769 -1.8311  0.6261
    1SOL    HW3 6563   2.634   0.998   4.175  0.7617 -0.3134 -0.9486
    1SOL    MW4 6564   2.703   0.953   4.205  0.3412 -0.5112 -0.2623
    1SOL     OW 6565   3.576   4.205   3.888 -0.8529  0.4574  0.3183
    1SOL    HW2 6566   3.664   4.180   3.862 -1.0834 -1.5322  1.3668
    1SOL    HW3 6567   3.572   4.187   3.982 -2.9058 -1.1510 -0.0448
    1SOL    MW4 6568   3.587   4.199   3.897 -1.1542 -0.0176  0.4086
    1SOL     OW 6569   2.936   4.039   2.767  0.5174  0.3785 -0.0766
    1SOL    HW2 6570   2.970   4.011   2.682 -0.8116  0.7674 -0.7519
    1SOL    HW3 6571   2.879   3.968   2.795  0.9170  0.2696  0.4845
    1SOL    MW4 6572   2.933   4.026   2.760  0.3946  0.4153 -0.0916
    1SOL     OW 6573   2.970   4.081   2.183  0.2428  0.5749 -0.3164
    1SOL    HW2 6574   2.971   4.148   2.115 -1.3500  1.0700  0.1078
    1SOL    HW3 6575   2.959   4.130   2.265 -1.3608 -0.1825 -0.0436
    1SOL    MW4 6576   2.968   4.096   2.185 -0.1788  0.5398 -0.2244
    1SOL     OW 6577   4.044   3.313   3.461 -0.3540  0.2080 -0.1775
    1SOL    HW2 6578   4.076   3.402   3.478 -0.8216  0.3466 -0.0313
    1SOL    HW3 6579   4.064   3.265   3.542 -0.2988  0.2320 -0.1763
    1SOL    MW4 6580   4.051   3.319   3.474 -0.4086  0.2296 -0.1578
    1SOL     OW 6581   3.342   2.914   0.905 -0.8085 -0.2477  0.0626
    1SOL    HW2 6582   3.347   2.833   0.854  1.4349  1.0692 -1.9320
    1SOL    HW3 6583   3.434   2.937   0.923 -1.4771  0.5871  2.7069
    1SOL    MW4 6584   3.355   2.907   0.901 -0.6006  0.0362  0.1483
    1SOL     OW 6585   2.949   4.048   1.766  0.1131 -0.6038 -0.2615
    1SOL    HW2 6586   2.985   4.097   1.840 -1.6978  0.2721  0.0555
    1SOL    HW3 6587   2.985   3.960   1.776  1.0880 -0.1042  0.7978
    1SOL    MW4 6588   2.959   4.043   1.777  0.0029 -0.4215 -0.0799
    1SOL     OW 6589   2.827   3.603   1.512  0.4457  0.8614 -0.5502
    1SOL    HW2 6590   2.760   3.541   1.483  1.0264  0.6623 -1.5012
    1SOL    HW3 6591   2.785   3.689   1.508  0.3919  0.7862 -1.5860
    1SOL    MW4 6592   2.813   3.606   1.508  0.5152  0.8252 -0.8123
    1SOL     OW 6593   3.561   1.123   1.990 -0.0993 -0.0990 -0.1934
    1SOL    HW2 6594   3.653   1.130   1.963  0.1641  0.5559  0.8708
    1SOL    HW3 6595   3.512   1.147   1.912  0.5334 -4.2853 -2.0324
    1SOL    MW4 6596   3.567   1.127   1.976  0.0188 -0.5649 -0.2955
    1SOL     OW 6597   3.054   2.050   1.519 -0.1510 -0.1100 -0.5852
    1SOL    HW2 6598   3.045   1.954   1.524  0.9105 -0.2093 -0.3330
    1SOL    HW3 6599   3.143   2.064   1.486 -0.6725  0.7918 -1.6427
    1SOL    MW4 6600   3.065   2.039   1.516 -0.0794 -0.0041 -0.6914
    1SOL     OW 6601   2.167   0.496   3.425 -0.2559 -0.0484  0.0041
    1SOL    HW2 6602   2.103   0.440   3.470  0.3116  0.2301  1.1846
    1SOL    HW3 6603   2.246   0.490   3.479  0.3016  0.6408 -0.7295
    1SOL    MW4 6604   2.169   0.488   3.438 -0.1075  0.0792  0.0629
    1SOL     OW 6605   3.994   3.819   2.570 -0.3127 -0.0974  0.6326
    1SOL    HW2 6606   4.080   3.859   2.581  0.9989 -1.9285 -2.2635
    1SOL    HW3 6607   3.936   3.893   2.549  0.8700  0.9681  1.0477
    1SOL    MW4 6608   3.997   3.834   2.569  0.0162 -0.1981  0.3052
    1SOL     OW 6609   0.190   2.384   1.237 -0.0668  0.1441 -0.0382
    1SOL    HW2 6610   0.261   2.421   1.290 -1.2592  1.1633  0.8633
    1SOL    HW3 6611   0.137   2.460   1.211 -0.5999 -0.5634 -1.0551
    1SOL    MW4 6612   0.193   2.399   1.241 -0.2944  0.1850 -0.0534
    1SOL     OW 6613   2.944   4.655   1.823  0.0858 -0.1646 -0.1460
    1SOL    HW2 6614   2.853   4.684   1.812  0.3554  0.6133 -0.3356
    1SOL    HW3 6615   2.995   4.736   1.830  0.6847 -0.6033  0.6413
    1SOL    MW4 6616   2.939   4.670   1.822  0.2003 -0.1199 -0.0670
    1SOL     OW 6617   4.251   1.757   4.760 -0.1191 -0.5900  0.6434
    1SOL    HW2 6618   4.329   1.717   4.721 -0.0840 -0.5394  0.6641
    1SOL    HW3 6619   4.234   1.705   4.839  1.0681  0.6592  1.7318
    1SOL    MW4 6620   4.259   1.745   4.765  0.0420 -0.4187  0.7892
    1SOL     OW 6621   0.934   1.399   3.837 -0.4327  0.2453 -0.4912
    1SOL    HW2 6622   1.005   1.362   3.784 -0.0816  0.9631 -0.5333
    1SOL    HW3 6623   0.907   1.327   3.895 -0.4437 -0.3701 -1.2574
    1SOL    MW4 6624   0.940   1.384   3.838 -0.3878  0.2588 -0.5980
    1SOL     OW 6625   4.154   2.034   1.270  0.0838 -0.3516  0.0390
    1SOL    HW2 6626   4.208   2.089   1.212 -0.1317 -0.6413 -0.4419
    1SOL    HW3 6627   4.210   1.958   1.288  1.3066  1.1073  2.6232
    1SOL    MW4 6628   4.169   2.031   1.265  0.2165 -0.1972  0.3165
    1SOL     OW 6629   2.309   3.989   1.598 -0.4667 -0.3940 -0.0398
    1SOL    HW2 6630   2.354   3.904   1.605  1.5772  0.7282  1.0320
    1SOL    HW3 6631   2.373   4.046   1.556 -1.5231  0.8392 -0.0010
    1SOL    MW4 6632   2.324   3.985   1.593 -0.3362 -0.0832  0.1067
    1SOL     OW 6633   1.687   4.501   1.883  0.2609  0.4388  0.2509
    1SOL    HW2 6634   1.773   4.460   1.878 -0.5152 -1.7031  3.1343
    1SOL    HW3 6635   1.667   4.503   1.977 -2.8633  0.8242 -0.3701
    1SOL    MW4 6636   1.696   4.496   1.895 -0.2536  0.2069  0.5493
    1SOL     OW 6637   4.369   4.507   3.863  0.1321 -0.1965  0.2797
    1SOL    HW2 6638   4.284   4.530   3.902 -0.3798  0.9920 -1.4527
    1SOL    HW3 6639   4.346   4.449   3.790  0.9686 -1.3297  0.9003
    1SOL    MW4 6640   4.355   4.502   3.859  0.1745 -0.1893  0.1328
    1SOL     OW 6641   1.993   4.178   0.810 -0.4662 -0.8771  0.2768
    1SOL    HW2 6642   1.916   4.134   0.845 -1.1991 -0.9377 -1.3364
    1SOL    HW3 6643   1.958   4.258   0.770  0.6430  0.3581  1.7707
    1SOL    MW4 6644   1.978   4.183   0.809 -0.4165 -0.7219  0.2611
    1SOL     OW 6645   2.860   0.377   2.528  0.5937  0.2373  0.6688
    1SOL    HW2 6646   2.863   0.452   2.587  1.3720  0.0929  0.8190
    1SOL    HW3 6647   2.923   0.315   2.565  0.6938 -0.0713 -0.0164
    1SOL    MW4 6648   2.869   0.378   2.541  0.7095  0.1775  0.5982
    1SOL     OW 6649   3.518   0.954   4.261  0.5225 -0.1847  0.1705
    1SOL    HW2 6650   3.519   0.862   4.288  0.8271  0.7801  3.6373
    1SOL    HW3 6651   3.539   1.003   4.340 -0.4960  2.9580 -1.4111
    1SOL    MW4 6652   3.521   0.949   4.275  0.4282  0.3573  0.4187
    1SOL     OW 6653   0.828   2.954   1.190 -0.6339 -0.6895  0.1428
    1SOL    HW2 6654   0.842   2.979   1.098 -0.8870  1.9777  0.8012
    1SOL    HW3 6655   0.734   2.958   1.202 -0.5334 -0.0496  0.7650
    1SOL    MW4 6656   0.818   2.958   1.179 -0.6541 -0.2532  0.3117
    1SOL     OW 6657   2.035   0.458   2.816  0.4515  0.1994 -0.4191
    1SOL    HW2 6658   2.022   0.509   2.896  3.0724 -2.0155  1.4878
    1SOL    HW3 6659   2.118   0.490   2.781  0.2451 -0.1619 -1.2360
    1SOL    MW4 6660   2.044   0.469   2.822  0.7701 -0.1405 -0.2756
    1SOL     OW 6661   4.069   3.581   4.029 -0.2827  0.2384 -0.1150
    1SOL    HW2 6662   4.164   3.574   4.039 -0.3973  0.0335  0.8287
    1SOL    HW3 6663   4.042   3.495   3.996 -0.1594  0.2756 -0.3211
    1SOL    MW4 6664   4.078   3.569   4.026 -0.2818  0.2162 -0.0172
    1SOL     OW 6665   0.407   1.304   4.324  0.0609  0.5338 -0.0250
    1SOL    HW2 6666   0.394   1.367   4.395 -0.9268  0.8328 -0.4609
    1SOL    HW3 6667   0.455   1.353   4.257 -1.0560  0.9477 -0.5299
    1SOL    MW4 6668   0.411   1.319   4.325 -0.2167  0.6278 -0.1493
    1SOL     OW 6669   4.082   3.608   4.456  0.0777 -0.7583  0.1126
    1SOL    HW2 6670   4.025   3.609   4.533  0.4402  0.2161  0.3703
    1SOL    HW3 6671   4.024   3.584   4.384 -0.5938 -0.0779  0.4235
    1SOL    MW4 6672   4.067   3.605   4.457  0.0372 -0.5400  0.1879
    1SOL     OW 6673   1.567   2.143   4.193  0.1006  0.1555 -0.2143
    1SOL    HW2 6674   1.502   2.093   4.243  1.2655  0.9637  2.1697
    1SOL    HW3 6675   1.515   2.200   4.136 -1.3053  0.8571  1.7213
    1SOL    MW4 6676   1.552   2.144   4.192  0.0688  0.3545  0.3552
    1SOL     OW 6677   1.130   3.491   1.548 -0.3674 -0.5543 -0.3545
    1SOL    HW2 6678   1.111   3.551   1.476  0.4098 -0.2671 -0.3256
    1SOL    HW3 6679   1.081   3.526   1.623  0.4103  0.2946 -0.2279
    1SOL    MW4 6680   1.121   3.503   1.549 -0.1624 -0.4044 -0.3339
    1SOL     OW 6681   4.347   1.281   2.074  0.2553 -0.0921  0.8251
    1SOL    HW2 6682   4.378   1.232   1.998 -1.5698  0.0451 -0.0319
    1SOL    HW3 6683   4.375   1.371   2.057  0.5212 -0.1993  0.6873
    1SOL    MW4 6684   4.355   1.287   2.062  0.0491 -0.0881  0.6933
    1SOL     OW 6685   3.198   4.429   4.376  0.0937  0.1996  0.2052
    1SOL    HW2 6686   3.212   4.377   4.297 -1.3128 -1.5242  1.0538
    1SOL    HW3 6687   3.271   4.405   4.434 -0.7491 -1.1273  0.7333
    1SOL    MW4 6688   3.209   4.419   4.373 -0.2029 -0.2027  0.3872
    1SOL     OW 6689   2.564   3.638   1.229  0.4806  0.2295 -0.5935
    1SOL    HW2 6690   2.585   3.577   1.300 -1.0357  0.4754  0.0814
    1SOL    HW3 6691   2.639   3.698   1.226  0.9837 -0.3499  0.1737
    1SOL    MW4 6692   2.577   3.638   1.238  0.3467  0.1857 -0.4033
    1SOL     OW 6693   3.540   1.647   3.223  0.2997 -0.1890 -0.4497
    1SOL    HW2 6694   3.468   1.628   3.283 -0.4004 -0.7097 -1.4340
    1SOL    HW3 6695   3.607   1.583   3.246  0.2192 -0.0865  0.0835
    1SOL    MW4 6696   3.539   1.636   3.234  0.1965 -0.2444 -0.5093
    1SOL     OW 6697   0.616   4.101   0.883 -0.7096  0.6345  0.1790
    1SOL    HW2 6698   0.576   4.065   0.962 -1.6695  1.5665  0.1199
    1SOL    HW3 6699   0.558   4.172   0.856 -0.3132  0.4202 -1.2885
    1SOL    MW4 6700   0.603   4.105   0.890 -0.7840  0.7291 -0.0224
    1SOL     OW 6701   1.994   2.642   1.602 -0.1578  0.3996  0.3861
    1SOL    HW2 6702   1.974   2.609   1.515  0.4619  1.5732 -0.2158
    1SOL    HW3 6703   2.089   2.633   1.610 -0.2957 -0.4272  1.2536
    1SOL    MW4 6704   2.004   2.637   1.592 -0.0944  0.4451  0.4212
    1SOL     OW 6705   1.959   0.371   1.984 -0.4923 -0.5571  0.4157
    1SOL    HW2 6706   1.951   0.327   1.899 -0.1301 -1.1898  0.7066
    1SOL    HW3 6707   1.869   0.377   2.016 -0.4503 -2.1594  0.9023
    1SOL    MW4 6708   1.946   0.366   1.977 -0.4389 -0.8520  0.5183
    1SOL     OW 6709   1.423   3.507   1.667  0.5452  0.2972  0.1899
    1SOL    HW2 6710   1.356   3.535   1.604  0.6392 -3.7639 -1.8465
    1SOL    HW3 6711   1.375   3.495   1.749 -1.0721 -1.5405 -0.9837
    1SOL    MW4 6712   1.407   3.509   1.669  0.3443 -0.4811 -0.2337
    1SOL     OW 6713   2.789   2.575   1.062 -0.6563 -0.3004  0.1199
    1SOL    HW2 6714   2.837   2.547   0.984 -2.3773 -0.7860 -0.7832
    1SOL    HW3 6715   2.833   2.531   1.135 -0.5108 -1.7240 -0.8149
    1SOL    MW4 6716   2.801   2.566   1.061 -0.8645 -0.5527 -0.1225
    1SOL     OW 6717   0.701   2.389   2.649  0.5030  0.0381  0.0450
    1SOL    HW2 6718   0.749   2.344   2.719 -1.9500  1.0729  2.5040
    1SOL    HW3 6719   0.710   2.482   2.670  0.0161  0.3728 -1.2053
    1SOL    MW4 6720   0.709   2.396   2.661  0.1151  0.2189  0.2046
    1SOL     OW 6721   3.580   1.552   1.896  0.2192  0.0548  0.3690
    1SOL    HW2 6722   3.532   1.627   1.861  2.3944  0.9215 -0.8530
    1SOL    HW3 6723   3.644   1.591   1.955  0.3219 -0.9889  0.9598
    1SOL    MW4 6724   3.582   1.567   1.899  0.5195  0.0314  0.2857
    1SOL     OW 6725   2.620   2.272   3.549  0.2686 -0.0098  0.0913
    1SOL    HW2 6726   2.585   2.187   3.521  0.1705 -0.2654  1.0004
    1SOL    HW3 6727   2.542   2.328   3.556  0.0950 -0.4294  1.5789
    1SOL    MW4 6728   2.605   2.268   3.546  0.2327 -0.0992  0.4075
    1SOL     OW 6729   1.276   0.345   1.878  0.2947 -0.1556 -0.3488
    1SOL    HW2 6730   1.244   0.363   1.966  1.4518  0.0455  0.0432
    1SOL    HW3 6731   1.303   0.430   1.844  1.6285 -0.4962 -0.1701
    1SOL    MW4 6732   1.275   0.359   1.885  0.6232 -0.1740 -0.2736
    1SOL     OW 6733   0.119   0.855   4.234 -0.0103  0.2646 -0.1877
    1SOL    HW2 6734   0.161   0.866   4.148 -0.5814 -0.5786 -0.5726
    1SOL    HW3 6735   0.146   0.768   4.263  0.4297  0.6646  0.6362
    1SOL    MW4 6736   0.128   0.845   4.226 -0.0276  0.2061 -0.1297
    1SOL     OW 6737   0.707   3.750   3.541 -0.0611  0.0344  0.1352
    1SOL    HW2 6738   0.728   3.703   3.622 -0.3608 -0.5747 -0.1393
    1SOL    HW3 6739   0.792   3.769   3.502  0.0504 -0.8141 -0.0534
    1SOL    MW4 6740   0.721   3.746   3.546 -0.0859 -0.1578  0.0741
    1SOL     OW 6741   2.024   4.394   4.365  0.5495  0.1195 -0.2946
    1SOL    HW2 6742   2.118   4.374   4.373  0.5014  0.2309  0.6504
    1SOL    HW3 6743   1.986   4.364   4.448  0.2795  2.9609  0.6681
    1SOL    MW4 6744   2.032   4.387   4.377  0.5074  0.5088 -0.0424
    1SOL     OW 6745   3.921   2.745   1.517 -0.3136  0.0839  0.3032
    1SOL    HW2 6746   3.849   2.754   1.580  0.1504 -0.5860  0.9292
    1SOL    HW3 6747   3.979   2.680   1.556  0.3234  0.1703 -0.4981
    1SOL    MW4 6748   3.919   2.737   1.531 -0.1681  0.0069  0.2800
    1SOL     OW 6749   2.599   0.604   4.180  0.1446  0.4672 -0.7947
    1SOL    HW2 6750   2.683   0.619   4.222 -0.4612 -2.1535  1.5484
    1SOL    HW3 6751   2.543   0.675   4.211  0.8914  0.9465 -0.5548
    1SOL    MW4 6752   2.603   0.615   4.190  0.1631  0.1847 -0.4539
    1SOL     OW 6753   3.252   1.393   4.673 -0.4840  0.4190  0.8970
    1SOL    HW2 6754   3.314   1.330   4.709  1.1114  1.2682 -0.3138
    1SOL    HW3 6755   3.205   1.344   4.605 -1.0148 -0.1580  1.6643
    1SOL    MW4 6756   3.254   1.378   4.669 -0.3436  0.4549  0.8388
    1SOL     OW 6757   0.306   3.370   3.771  0.5549  0.2564  0.0035
    1SOL    HW2 6758   0.240   3.381   3.839  0.2871  0.6856 -0.3223
    1SOL    HW3 6759   0.298   3.449   3.716  0.5530 -0.2233 -0.7003
    1SOL    MW4 6760   0.296   3.382   3.772  0.5193  0.2499 -0.1321
    1SOL     OW 6761   0.375   0.792   2.809 -0.8662  0.1329  0.3221
    1SOL    HW2 6762   0.352   0.823   2.722  1.2344 -0.4171 -0.4694
    1SOL    HW3 6763   0.419   0.866   2.850 -0.1370 -0.2183  0.1908
    1SOL    MW4 6764   0.378   0.806   2.803 -0.4928  0.0139  0.2000
    1SOL     OW 6765   0.031   1.047   1.399  0.2515  0.4245 -0.0181
    1SOL    HW2 6766   0.067   1.014   1.481  1.0234  2.9646  0.7183
    1SOL    HW3 6767   0.085   1.007   1.331 -0.9920 -2.4397  0.6217
    1SOL    MW4 6768   0.043   1.038   1.401  0.1893  0.3818  0.1636
    1SOL     OW 6769   0.350   1.982   4.635  0.7991  0.2246 -0.0118
    1SOL    HW2 6770   0.285   2.052   4.631 -0.0000 -0.4367  0.9141
    1SOL    HW3 6771   0.342   1.947   4.724  2.5261  0.2244  0.1648
    1SOL    MW4 6772   0.340   1.986   4.647  0.9215  0.1373  0.1335
    1SOL     OW 6773   3.252   3.405   4.141  0.2895 -0.2378 -0.3009
    1SOL    HW2 6774   3.312   3.332   4.159  1.6804  0.8429 -0.4622
    1SOL    HW3 6775   3.211   3.381   4.058  2.4514  0.2139 -1.5570
    1SOL    MW4 6776   3.255   3.392   4.132  0.7582 -0.0355 -0.4883
    1SOL     OW 6777   1.361   2.539   4.245  0.3413  0.0280  0.5289
    1SOL    HW2 6778   1.280   2.526   4.293  0.1450 -1.7143 -0.2457
    1SOL    HW3 6779   1.344   2.615   4.189 -0.2200  0.6129  1.4983
    1SOL    MW4 6780   1.348   2.548   4.244  0.2412 -0.1252  0.5546
    1SOL     OW 6781   2.067   4.503   1.606  0.2216 -0.7328 -0.4137
    1SOL    HW2 6782   2.104   4.568   1.546 -0.5359 -0.0540 -0.1719
    1SOL    HW3 6783   2.073   4.544   1.692  2.2971 -2.1553  0.1315
    1SOL    MW4 6784   2.072   4.517   1.609  0.3955 -0.8311 -0.3097
    1SOL     OW 6785   2.398   3.491   2.087  0.3670 -0.5587 -0.0720
    1SOL    HW2 6786   2.370   3.429   2.155 -1.8266  1.1153  0.5916
    1SOL    HW3 6787   2.428   3.568   2.135 -1.0511  0.5871 -1.0030
    1SOL    MW4 6788   2.399   3.493   2.102 -0.1097 -0.1867 -0.1073
    1SOL     OW 6789   1.577   2.444   4.047  0.2688 -1.0431  0.4017
    1SOL    HW2 6790   1.656   2.471   4.095 -0.8720  0.9638  1.2019
    1SOL    HW3 6791   1.505   2.487   4.094 -0.9703  0.2160 -2.5631
    1SOL    MW4 6792   1.578   2.453   4.060 -0.0451 -0.6125  0.1163
    1SOL     OW 6793   0.348   0.754   2.318  0.1214  0.6712  0.1302
    1SOL    HW2 6794   0.270   0.728   2.269 -0.0335  0.3634  0.5352
    1SOL    HW3 6795   0.374   0.675   2.365  1.1281  0.5662 -0.5952
    1SOL    MW4 6796   0.341   0.740   2.318  0.2338  0.6167  0.0880
    1SOL     OW 6797   4.301   3.189   1.760 -0.4317 -0.1478  0.5486
    1SOL    HW2 6798   4.272   3.098   1.759 -1.1211  0.0656  0.8984
    1SOL    HW3 6799   4.393   3.184   1.788 -0.4149 -0.7439  0.3958
    1SOL    MW4 6800   4.309   3.176   1.764 -0.5207 -0.1981  0.5747
    1SOL     OW 6801   1.016   2.388   1.851  0.0790 -0.2497  0.1769
    1SOL    HW2 6802   0.993   2.393   1.758  0.8112 -0.5543 -0.0221
    1SOL    HW3 6803   0.982   2.469   1.888  1.1271  0.5814 -0.6558
    1SOL    MW4 6804   1.008   2.399   1.843  0.3139 -0.1805  0.0408
    1SOL     OW 6805   3.899   2.010   1.838 -0.3192  0.3798 -0.1637
    1SOL    HW2 6806   3.937   2.097   1.824  1.0533 -0.2713 -0.5784
    1SOL    HW3 6807   3.924   1.987   1.927  2.4275 -1.0701 -1.2422
    1SOL    MW4 6808   3.908   2.019   1.848  0.2244  0.1025 -0.3607
    1SOL     OW 6809   3.965   3.324   3.914 -0.5919  0.5571  0.2020
    1SOL    HW2 6810   4.020   3.276   3.852 -0.4590  1.5868 -0.5074
    1SOL    HW3 6811   3.933   3.258   3.975  0.4987 -0.2396 -0.0733
    1SOL    MW4 6812   3.968   3.309   3.914 -0.4303  0.5877  0.0720
    1SOL     OW 6813   1.991   2.868   3.412 -0.4723  0.3667 -0.0429
    1SOL    HW2 6814   2.008   2.907   3.497  1.3819  1.1971 -0.7621
    1SOL    HW3 6815   2.068   2.891   3.359 -2.6212  1.8558 -2.6378
    1SOL    MW4 6816   2.003   2.876   3.416 -0.5112  0.6728 -0.4802
    1SOL     OW 6817   2.403   3.026   2.028  0.5489 -0.2913 -0.2405
    1SOL    HW2 6818   2.409   2.935   1.998 -1.6052 -0.4515 -0.2921
    1SOL    HW3 6819   2.340   3.022   2.100 -0.7393  1.3783 -1.2390
    1SOL    MW4 6820   2.395   3.013   2.034  0.0949 -0.0923 -0.3791
    1SOL     OW 6821   3.691   0.720   3.952 -0.2095 -0.4572 -0.4442
    1SOL    HW2 6822   3.769   0.667   3.966  0.7509  0.7002 -1.3064
    1SOL    HW3 6823   3.703   0.797   4.008 -1.5084 -1.0480  0.6665
    1SOL    MW4 6824   3.703   0.724   3.961 -0.2539 -0.3825 -0.4113
    1SOL     OW 6825   3.850   3.997   2.827 -0.0759 -0.0159 -0.5746
    1SOL    HW2 6826   3.889   4.050   2.758 -1.0142 -0.6774 -1.6316
    1SOL    HW3 6827   3.924   3.950   2.866  0.3868 -0.0688 -1.5060
    1SOL    MW4 6828   3.865   3.998   2.823 -0.1385 -0.1099 -0.8366
    1SOL     OW 6829   0.515   4.420   3.062  0.3197 -0.5516  0.2785
    1SOL    HW2 6830   0.469   4.503   3.048 -0.3203 -0.9036  0.2883
    1SOL    HW3 6831   0.602   4.446   3.095  0.7549  0.1659 -1.4049
    1SOL    MW4 6832   0.521   4.434   3.065  0.2927 -0.5031  0.0577
    1SOL     OW 6833   2.637   3.003   0.586  1.1239  0.3916 -0.2249
    1SOL    HW2 6834   2.697   2.986   0.659  1.4957 -0.9015 -0.8162
    1SOL    HW3 6835   2.652   3.095   0.564  0.3696  1.0357  1.8945
    1SOL    MW4 6836   2.647   3.013   0.593  1.0731  0.3061 -0.0232
    1SOL     OW 6837   2.662   1.930   4.290 -0.2732 -0.5148 -0.6198
    1SOL    HW2 6838   2.664   1.862   4.358 -0.3531 -0.6290 -0.7321
    1SOL    HW3 6839   2.674   2.012   4.338  0.3290 -0.6446 -0.5352
    1SOL    MW4 6840   2.664   1.932   4.305 -0.2041 -0.5469 -0.6237
    1SOL     OW 6841   1.311   1.275   3.109  0.3476  0.5096  0.3136
    1SOL    HW2 6842   1.263   1.216   3.051  1.1236 -0.0388  0.2327
    1SOL    HW3 6843   1.321   1.355   3.059  2.6669 -0.5842 -1.0504
    1SOL    MW4 6844   1.306   1.277   3.095  0.7560  0.2931  0.1230
    1SOL     OW 6845   2.633   3.173   1.305  0.0526  0.9945 -0.1149
    1SOL    HW2 6846   2.705   3.194   1.245  1.4870 -1.4433  0.6669
    1SOL    HW3 6847   2.554   3.185   1.253  1.2591 -0.7257 -2.4304
    1SOL    MW4 6848   2.632   3.178   1.290  0.4008  0.4458 -0.3172
    1SOL     OW 6849   1.708   4.008   1.222  0.0633 -0.0513  0.1236
    1SOL    HW2 6850   1.612   4.001   1.227  0.1092 -1.2008 -0.3990
    1SOL    HW3 6851   1.726   4.101   1.235 -1.1899  0.3098 -0.6385
    1SOL    MW4 6852   1.697   4.019   1.224 -0.0961 -0.1559 -0.0459
    1SOL     OW 6853   3.630   0.284   3.921 -0.0120  0.1257 -0.0684
    1SOL    HW2 6854   3.550   0.231   3.918 -0.2604  0.5151 -0.2910
    1SOL    HW3 6855   3.684   0.241   3.987  0.2894 -1.1351 -1.0916
    1SOL    MW4 6856   3.626   0.271   3.929 -0.0050  0.0107 -0.2327
    1SOL     OW 6857   4.135   3.908   3.821 -0.2527 -0.0402  0.7502
    1SOL    HW2 6858   4.215   3.927   3.870 -0.6914  1.1883  1.0253
    1SOL    HW3 6859   4.163   3.902   3.730  0.1505  0.4846  0.8359
    1SOL    MW4 6860   4.149   3.910   3.815 -0.2575  0.1910  0.7977
    1SOL     OW 6861   1.521   1.121   1.652 -0.1854  0.2068 -0.0357
    1SOL    HW2 6862   1.530   1.216   1.660  1.1661  0.0041  0.8689
    1SOL    HW3 6863   1.459   1.110   1.580 -0.1007  1.7697 -0.3758
    1SOL    MW4 6864   1.514   1.132   1.643  0.0041  0.3864  0.0387
    1SOL     OW 6865   1.591   3.059   4.121  0.1657 -0.1928  0.2349
    1SOL    HW2 6866   1.684   3.071   4.102  0.4961  0.4361  2.1296
    1SOL    HW3 6867   1.576   2.965   4.112  0.8204 -0.1972 -0.7862
    1SOL    MW4 6868   1.601   3.048   4.118  0.2958 -0.1104  0.3500
    1SOL     OW 6869   1.036   1.358   2.646  0.4637 -0.1542  0.1032
    1SOL    HW2 6870   0.942   1.374   2.636  0.1509 -2.1789 -0.3205
    1SOL    HW3 6871   1.077   1.440   2.616 -1.1449  0.6772  0.1125
    1SOL    MW4 6872   1.029   1.371   2.640  0.2102 -0.3116  0.0484
    1SOL     OW 6873   1.784   1.729   1.808  0.2418 -0.3066 -0.2982
    1SOL    HW2 6874   1.876   1.738   1.785  0.2150  1.1895  0.0891
    1SOL    HW3 6875   1.768   1.800   1.870 -0.7516 -1.6114  0.9624
    1SOL    MW4 6876   1.794   1.740   1.813  0.1073 -0.2813 -0.0807
    1SOL     OW 6877   3.557   4.066   3.171 -0.7117 -0.4967 -0.4038
    1SOL    HW2 6878   3.530   4.158   3.165 -2.2218 -0.9150 -0.3710
    1SOL    HW3 6879   3.476   4.017   3.154 -0.1874 -1.8125  0.8264
    1SOL    MW4 6880   3.543   4.072   3.168 -0.8419 -0.7257 -0.2372
    1SOL     OW 6881   3.358   2.487   3.385 -1.0894 -0.0798 -0.4112
    1SOL    HW2 6882   3.317   2.411   3.426 -0.3697  0.0026  0.4625
    1SOL    HW3 6883   3.384   2.456   3.298 -1.1250 -0.7314 -0.1954
    1SOL    MW4 6884   3.356   2.473   3.379 -0.9992 -0.1550 -0.2675
    1SOL     OW 6885   3.300   0.996   1.157 -0.5372 -0.7155  0.2154
    1SOL    HW2 6886   3.391   0.970   1.146 -0.7652 -1.0286 -0.9314
    1SOL    HW3 6887   3.293   1.079   1.109 -0.9861 -0.9588 -0.1378
    1SOL    MW4 6888   3.311   1.004   1.149 -0.6266 -0.7889  0.0174
    1SOL     OW 6889   0.020   2.448   2.672 -0.2471  0.0227 -0.6487
    1SOL    HW2 6890   0.024   2.362   2.714  1.2499  0.3106 -0.1728
    1SOL    HW3 6891   0.086   2.444   2.602 -0.2607  0.7294 -0.7076
    1SOL    MW4 6892   0.030   2.436   2.668 -0.0514  0.1538 -0.5939
    1SOL     OW 6893   1.332   1.170   2.774  0.1934 -0.2961  0.2532
    1SOL    HW2 6894   1.250   1.165   2.823  0.0477  1.1024  0.1846
    1SOL    HW3 6895   1.309   1.138   2.687 -0.2203 -0.1596  0.3079
    1SOL    MW4 6896   1.318   1.165   2.769  0.1196 -0.0937  0.2513
    1SOL     OW 6897   1.763   2.879   3.820 -0.1465 -0.4259  0.2097
    1SOL    HW2 6898   1.710   2.799   3.818  2.5108 -2.2422 -0.0639
    1SOL    HW3 6899   1.730   2.931   3.747 -1.4442 -1.5719 -0.0500
    1SOL    MW4 6900   1.752   2.875   3.810  0.0328 -0.8168  0.1395
    1SOL     OW 6901   0.427   2.418   4.472 -0.1188  0.2502  0.8420
    1SOL    HW2 6902   0.459   2.339   4.515 -1.5182 -1.2904 -0.8882
    1SOL    HW3 6903   0.504   2.475   4.466  1.1204 -1.3496  1.2124
    1SOL    MW4 6904   0.441   2.415   4.477 -0.1399 -0.1638  0.6628
    1SOL     OW 6905   1.153   1.850   0.989 -0.1068  0.1346  0.0650
    1SOL    HW2 6906   1.180   1.881   1.075  0.7630  2.7740 -1.1035
    1SOL    HW3 6907   1.233   1.812   0.951  0.0137  0.7741 -0.3306
    1SOL    MW4 6908   1.168   1.849   0.995  0.0238  0.5671 -0.1414
    1SOL     OW 6909   0.362   1.757   1.599  0.4362  1.1471 -0.2926
    1SOL    HW2 6910   0.404   1.735   1.516  0.7676  2.0447 -0.3689
    1SOL    HW3 6911   0.361   1.674   1.648  0.1436  0.5954 -1.2239
    1SOL    MW4 6912   0.368   1.743   1.595  0.4413  1.1926 -0.4256
    1SOL     OW 6913   1.722   0.696   3.781  0.2231 -0.2981 -0.2665
    1SOL    HW2 6914   1.700   0.787   3.761 -0.2285 -0.2485  0.4393
    1SOL    HW3 6915   1.639   0.649   3.771  0.4982 -0.6693 -0.8266
    1SOL    MW4 6916   1.708   0.702   3.777  0.1997 -0.3406 -0.2472
    1SOL     OW 6917   2.799   1.595   2.554  0.2715  0.1874 -0.0276
    1SOL    HW2 6918   2.827   1.588   2.645  0.5857 -1.3811 -0.2177
    1SOL    HW3 6919   2.864   1.544   2.505  0.7474  1.9438 -1.2836
    1SOL    MW4 6920   2.811   1.587   2.559  0.3757  0.2122 -0.2184
    1SOL     OW 6921   0.393   1.917   1.140 -0.2755  0.1288  0.2301
    1SOL    HW2 6922   0.380   1.863   1.062 -0.0213  1.4001 -0.6984
    1SOL    HW3 6923   0.313   1.969   1.148  0.1352  0.7707  0.2038
    1SOL    MW4 6924   0.381   1.917   1.131 -0.1878  0.3812  0.1041
    1SOL     OW 6925   3.974   4.629   3.399 -0.0612  0.0218  1.1880
    1SOL    HW2 6926   3.997   4.595   3.485  1.1688  1.4338  1.4364
    1SOL    HW3 6927   3.980   4.724   3.409 -1.0685  0.2340 -0.1360
    1SOL    MW4 6928   3.978   4.637   3.412 -0.0319  0.2360  1.0462
    1SOL     OW 6929   1.325   1.141   2.131  0.3534  0.0198 -0.4925
    1SOL    HW2 6930   1.314   1.142   2.036 -0.7408 -1.4892 -0.3968
    1SOL    HW3 6931   1.360   1.054   2.150 -0.9638 -0.2760  0.6390
    1SOL    MW4 6932   1.329   1.130   2.121  0.0353 -0.2184 -0.3304
    1SOL     OW 6933   0.445   2.819   2.251  0.1652 -0.1394 -0.5519
    1SOL    HW2 6934   0.369   2.814   2.194 -0.1518  1.2360 -0.2621
    1SOL    HW3 6935   0.519   2.824   2.190  0.1137 -2.2428 -0.8380
    1SOL    MW4 6936   0.445   2.819   2.235  0.1165 -0.2353 -0.5512
    1SOL     OW 6937   2.566   3.388   2.526  0.3526 -0.3047  0.1985
    1SOL    HW2 6938   2.479   3.347   2.527  0.4974 -0.6082  0.1838
    1SOL    HW3 6939   2.558   3.460   2.588 -0.8038  1.5172 -1.9859
    1SOL    MW4 6940   2.553   3.392   2.534  0.2191 -0.1044 -0.0916
    1SOL     OW 6941   1.687   1.975   1.908 -0.1197  0.1922  0.3986
    1SOL    HW2 6942   1.672   1.976   1.814 -0.1609 -1.0263  0.3890
    1SOL    HW3 6943   1.603   2.001   1.946 -0.2639  0.1406  0.1147
    1SOL    MW4 6944   1.674   1.979   1.901 -0.1442  0.0246  0.3598
    1SOL     OW 6945   3.592   2.736   2.890  0.4772  0.0396  0.2954
    1SOL    HW2 6946   3.525   2.732   2.822 -0.3729  0.5863  1.0922
    1SOL    HW3 6947   3.610   2.829   2.901  0.4920 -0.0358  0.9296
    1SOL    MW4 6948   3.586   2.748   2.883  0.3669  0.1013  0.4840
    1SOL     OW 6949   0.132   3.824   3.983 -0.3603  0.1166  0.4155
    1SOL    HW2 6950   0.126   3.787   3.895 -1.3671 -0.5092  0.7317
    1SOL    HW3 6951   0.048   3.868   3.996 -0.2799  0.0713  1.1188
    1SOL    MW4 6952   0.120   3.825   3.973 -0.4826  0.0281  0.5503
    1SOL     OW 6953   2.807   0.064   1.291  0.3004  0.3214  0.3011
    1SOL    HW2 6954   2.810   0.005   1.215 -2.4098 -0.1176  0.4864
    1SOL    HW3 6955   2.843   0.147   1.259 -0.3982 -0.0000 -1.3346
    1SOL    MW4 6956   2.812   0.067   1.277 -0.1490  0.2211  0.1098
    1SOL     OW 6957   2.627   0.748   2.877  0.6204  0.0797 -0.3388
    1SOL    HW2 6958   2.698   0.761   2.940  0.5435  1.3455 -0.4980
    1SOL    HW3 6959   2.602   0.836   2.851 -1.4442 -0.3162  0.1874
    1SOL    MW4 6960   2.633   0.761   2.882  0.3376  0.1945 -0.2902
    1SOL     OW 6961   1.742   3.666   1.225  0.3571 -0.2664 -0.4551
    1SOL    HW2 6962   1.790   3.724   1.166 -2.7828  1.6258 -1.2961
    1SOL    HW3 6963   1.736   3.715   1.307 -1.8226  0.4380 -0.9960
    1SOL    MW4 6964   1.747   3.680   1.228 -0.3448  0.0763 -0.6375
    1SOL     OW 6965   4.116   1.211   3.088 -0.2825 -0.0836 -0.6654
    1SOL    HW2 6966   4.177   1.198   3.015 -0.3918 -0.0335 -0.7672
    1SOL    HW3 6967   4.063   1.131   3.088 -1.1192  0.4580 -1.4511
    1SOL    MW4 6968   4.117   1.199   3.078 -0.4077 -0.0055 -0.7830
    1SOL     OW 6969   2.289   3.583   2.909  0.1262 -0.7302 -0.1250
    1SOL    HW2 6970   2.273   3.643   2.982 -1.0275  1.2307 -1.9418
    1SOL    HW3 6971   2.202   3.566   2.872  0.9576  1.0242 -3.0933
    1SOL    MW4 6972   2.276   3.589   2.914  0.0837 -0.2398 -0.7563
    1SOL     OW 6973   0.545   3.008   3.481  0.2213  0.2192 -0.0169
    1SOL    HW2 6974   0.572   2.954   3.556 -0.7347  0.2243  0.3334
    1SOL    HW3 6975   0.503   3.085   3.521  1.1896  1.0282 -0.5203
    1SOL    MW4 6976   0.543   3.011   3.496  0.2229  0.3266 -0.0372
    1SOL     OW 6977   0.520   3.388   0.675 -0.0482  0.7005 -0.3303
    1SOL    HW2 6978   0.479   3.378   0.761 -3.1558 -0.6690 -1.8579
    1SOL    HW3 6979   0.446   3.400   0.615  1.9535  0.3002 -2.9836
    1SOL    MW4 6980   0.505   3.388   0.678 -0.1941  0.4671 -0.8820
    1SOL     OW 6981   0.349   1.832   2.611 -0.0319  0.6237 -0.6646
    1SOL    HW2 6982   0.371   1.774   2.538  0.7915 -0.3797  0.3756
    1SOL    HW3 6983   0.348   1.920   2.572  1.8356  0.2560 -1.5758
    1SOL    MW4 6984   0.352   1.836   2.596  0.3231  0.4427 -0.6475
    1SOL     OW 6985   2.809   2.320   3.362 -0.4045 -0.3955  0.2628
    1SOL    HW2 6986   2.850   2.236   3.379  0.0567 -0.2514 -0.1185
    1SOL    HW3 6987   2.749   2.333   3.436  0.4723 -0.4626  1.0018
    1SOL    MW4 6988   2.807   2.311   3.374 -0.2277 -0.3853  0.3102
    1SOL     OW 6989   3.275   1.043   1.991  0.1890  0.3592 -0.6189
    1SOL    HW2 6990   3.314   0.980   1.931 -0.0812 -0.8927  0.4880
    1SOL    HW3 6991   3.187   1.009   2.007  0.9690 -0.5010  2.1191
    1SOL    MW4 6992   3.268   1.030   1.985  0.2563  0.0805 -0.1116
    1SOL     OW 6993   4.187   2.952   3.677 -0.3072 -0.1564 -0.0778
    1SOL    HW2 6994   4.268   2.960   3.626  0.0585 -0.0137  0.5165
    1SOL    HW3 6995   4.203   2.878   3.735 -0.4669  0.0964  0.2887
    1SOL    MW4 6996   4.200   2.943   3.678 -0.2799 -0.1042  0.0489
    1SOL     OW 6997   1.475   3.463   4.267  0.1107  0.1101 -0.4102
    1SOL    HW2 6998   1.469   3.408   4.188 -0.4686 -2.3974  1.3138
    1SOL    HW3 6999   1.563   3.446   4.302 -0.1373  0.1382  0.2353
    1SOL    MW4 7000   1.486   3.453   4.261  0.0014 -0.2167 -0.0973
    1SOL     OW 7001   1.655   4.036   3.772  0.0933 -0.3422  0.0498
    1SOL    HW2 7002   1.707   4.088   3.711  0.4987 -0.9103 -0.0937
    1SOL    HW3 7003   1.639   4.095   3.846  0.1941  0.1219 -0.2927
    1SOL    MW4 7004   1.660   4.051   3.773  0.1600 -0.3552 -0.0143
    1SOL     OW 7005   1.765   1.515   2.363 -0.0222  0.2810  0.6170
    1SOL    HW2 7006   1.671   1.520   2.379 -0.3797 -1.4244 -0.7677
    1SOL    HW3 7007   1.773   1.474   2.277  1.9954 -0.4185  1.0982
    1SOL    MW4 7008   1.754   1.510   2.354  0.1968 -0.0364  0.4981
    1SOL     OW 7009   0.273   0.525   3.441 -0.2608 -0.4216  0.2929
    1SOL    HW2 7010   0.330   0.524   3.364 -1.5811  0.0996 -0.7040
    1SOL    HW3 7011   0.238   0.437   3.447 -1.2255 -0.0986 -0.5182
    1SOL    MW4 7012   0.276   0.514   3.432 -0.5623 -0.3102  0.0544
    1SOL     OW 7013   0.924   1.402   0.574 -0.2014  0.0996 -0.1410
    1SOL    HW2 7014   0.849   1.346   0.593 -0.6462  1.2826  1.6177
    1SOL    HW3 7015   0.890   1.468   0.513  0.1084 -0.9635 -1.5069
    1SOL    MW4 7016   0.910   1.403   0.568 -0.2193  0.1153 -0.0892
    1SOL     OW 7017   2.351   1.055   3.635 -0.5331 -0.3210  0.5977
    1SOL    HW2 7018   2.401   0.986   3.592 -0.7109 -0.8918  1.3015
    1SOL    HW3 7019   2.273   1.066   3.581  0.2292  0.4220 -0.3835
    1SOL    MW4 7020   2.347   1.047   3.622 -0.4556 -0.2983  0.5610
    1SOL     OW 7021   2.195   1.173   1.632  0.2668 -0.0314  0.5062
    1SOL    HW2 7022   2.150   1.255   1.610 -0.5967  0.0158  2.3509
    1SOL    HW3 7023   2.215   1.133   1.548  0.2050  1.8126 -0.4148
    1SOL    MW4 7024   2.192   1.179   1.618  0.1447  0.2183  0.6282
    1SOL     OW 7025   2.371   1.036   1.114 -0.0278 -0.1465 -0.4472
    1SOL    HW2 7026   2.372   1.118   1.162  0.7493 -0.4342  0.0402
    1SOL    HW3 7027   2.334   1.058   1.029  0.3889  0.7519 -0.3982
    1SOL    MW4 7028   2.366   1.050   1.109  0.1297 -0.0660 -0.3765
    1SOL     OW 7029   2.271   4.188   3.563  0.4602 -0.1059  0.2304
    1SOL    HW2 7030   2.290   4.133   3.487  0.6593 -0.4572  0.5339
    1SOL    HW3 7031   2.209   4.137   3.615  0.7757 -0.1216  0.5962
    1SOL    MW4 7032   2.266   4.174   3.560  0.5281 -0.1550  0.3190
    1SOL     OW 7033   0.583   4.403   1.558 -0.0630 -0.4231 -0.2163
    1SOL    HW2 7034   0.564   4.378   1.648  0.3232  0.4802  0.1215
    1SOL    HW3 7035   0.497   4.427   1.522  0.0280  1.0605  0.4978
    1SOL    MW4 7036   0.569   4.403   1.565  0.0000 -0.1082 -0.0776
    1SOL     OW 7037   2.011   0.195   1.768  0.2359  0.5312 -0.4413
    1SOL    HW2 7038   2.094   0.243   1.765  0.6207 -0.1380 -0.4879
    1SOL    HW3 7039   2.032   0.114   1.815 -0.5551  0.6785  0.1691
    1SOL    MW4 7040   2.025   0.191   1.774  0.1824  0.4624 -0.3668
    1SOL     OW 7041   2.477   4.496   2.615  0.1509  0.2505 -0.4329
    1SOL    HW2 7042   2.523   4.506   2.531  1.3000 -0.0696  0.1428
    1SOL    HW3 7043   2.384   4.500   2.592  0.3752 -2.7340 -2.0993
    1SOL    MW4 7044   2.471   4.498   2.601  0.3321 -0.1860 -0.5770
    1SOL     OW 7045   2.017   3.017   2.738 -0.1862 -0.2117 -0.2031
    1SOL    HW2 7046   2.029   3.108   2.712  0.1491 -0.4608 -0.9429
    1SOL    HW3 7047   1.952   2.983   2.676 -0.0472 -0.5736 -0.1504
    1SOL    MW4 7048   2.010   3.024   2.726 -0.1237 -0.2923 -0.2940
    1SOL     OW 7049   1.052   1.166   1.547 -0.4372 -0.5817  0.0344
    1SOL    HW2 7050   1.057   1.103   1.618 -0.7768  0.3246  0.8804
    1SOL    HW3 7051   1.114   1.235   1.572  0.0759 -0.6701 -0.9726
    1SOL    MW4 7052   1.061   1.167   1.559 -0.4143 -0.4737  0.0134
    1SOL     OW 7053   0.536   2.743   1.374  0.2964  0.0474 -0.2314
    1SOL    HW2 7054   0.549   2.803   1.301  0.6232 -0.8476 -0.9219
    1SOL    HW3 7055   0.486   2.793   1.438  1.4245  1.3688 -0.3763
    1SOL    MW4 7056   0.531   2.758   1.373  0.4884  0.1037 -0.3417
    1SOL     OW 7057   3.613   1.405   4.621 -0.2135  0.8929  0.3144
    1SOL    HW2 7058   3.545   1.367   4.676 -1.4609  0.5705 -1.4089
    1SOL    HW3 7059   3.616   1.498   4.646 -1.4566  0.9586  0.2149
    1SOL    MW4 7060   3.605   1.413   4.632 -0.5422  0.8591  0.0739
    1SOL     OW 7061   2.883   4.382   1.718  0.8817 -0.7223 -0.4012
    1SOL    HW2 7062   2.887   4.472   1.750  1.9708 -1.3750  1.3402
    1SOL    HW3 7063   2.789   4.362   1.715  0.5658  0.7823 -1.7881
    1SOL    MW4 7064   2.871   4.391   1.722  0.9837 -0.6104 -0.3543
    1SOL     OW 7065   1.389   4.322   4.662  0.1835 -0.1607 -0.2959
    1SOL    HW2 7066   1.300   4.333   4.696  0.5795  0.2549  0.6317
    1SOL    HW3 7067   1.438   4.283   4.735  1.1844  1.2897 -0.1636
    1SOL    MW4 7068   1.384   4.318   4.676  0.3678  0.0854 -0.1559
    1SOL     OW 7069   1.831   3.445   0.650 -0.2060 -0.0477  0.6073
    1SOL    HW2 7070   1.748   3.468   0.691 -0.3676  0.3435  0.0568
    1SOL    HW3 7071   1.870   3.528   0.624  0.2709 -0.2420  0.6904
    1SOL    MW4 7072   1.825   3.459   0.652 -0.1644 -0.0219  0.5456
    1SOL     OW 7073   1.199   0.782   2.481  0.3377 -0.0756  0.2951
    1SOL    HW2 7074   1.117   0.738   2.461  1.3075 -1.9989  0.3890
    1SOL    HW3 7075   1.251   0.773   2.401  1.1386 -0.5182  0.8606
    1SOL    MW4 7076   1.195   0.775   2.468  0.5713 -0.3878  0.3819
    1SOL     OW 7077   0.255   0.553   4.012  0.4658  0.1116  0.9088
    1SOL    HW2 7078   0.286   0.568   4.102 -0.5412  0.6572  1.1751
    1SOL    HW3 7079   0.160   0.562   4.018  0.2530 -1.4651  0.0876
    1SOL    MW4 7080   0.247   0.557   4.025  0.3049 -0.0244  0.8354
    1SOL     OW 7081   2.857   1.940   3.617 -0.2672  0.1285  0.4172
    1SOL    HW2 7082   2.887   1.982   3.536  1.0924  1.0900  1.3946
    1SOL    HW3 7083   2.900   1.990   3.687 -0.6299 -1.3227  1.6939
    1SOL    MW4 7084   2.867   1.952   3.615 -0.1359  0.0639  0.7145
    1SOL     OW 7085   3.585   2.086   2.831  0.4000 -0.4380  0.1784
    1SOL    HW2 7086   3.677   2.109   2.842 -0.6477  2.7308  3.3313
    1SOL    HW3 7087   3.564   2.034   2.909 -0.5172 -0.8762 -0.3620
    1SOL    MW4 7088   3.595   2.083   2.843  0.1409 -0.0777  0.5229
    1SOL     OW 7089   2.892   2.608   3.328 -0.0391 -0.1154 -0.1684
    1SOL    HW2 7090   2.881   2.514   3.317 -1.6741 -0.1056  1.1064
    1SOL    HW3 7091   2.958   2.618   3.396  2.1106 -0.2882 -2.1872
    1SOL    MW4 7092   2.899   2.597   3.336  0.0288 -0.1369 -0.2668
    1SOL     OW 7093   4.084   2.592   1.700  0.6376 -0.1390  0.2836
    1SOL    HW2 7094   4.078   2.497   1.693  1.0348 -0.1005 -0.6978
    1SOL    HW3 7095   4.056   2.612   1.790  1.4387 -1.2507  0.7825
    1SOL    MW4 7096   4.079   2.582   1.711  0.7949 -0.2806  0.2199
    1SOL     OW 7097   0.502   2.479   3.178  0.3414  0.1948 -0.2503
    1SOL    HW2 7098   0.471   2.482   3.087 -0.5716  1.9210  0.1013
    1SOL    HW3 7099   0.533   2.389   3.189 -0.2629 -0.2640 -2.0279
    1SOL    MW4 7100   0.502   2.467   3.167  0.1412  0.3619 -0.4385
    1SOL     OW 7101   2.113   2.427   3.317 -0.2485  0.2449  0.4303
    1SOL    HW2 7102   2.153   2.501   3.270 -2.3060 -0.3703 -2.4332
    1SOL    HW3 7103   2.055   2.468   3.381  0.1758  1.1027  0.2789
    1SOL    MW4 7104   2.111   2.442   3.319 -0.4637  0.2770  0.0324
    1SOL     OW 7105   3.485   0.871   2.841 -0.2113  0.3409  0.0519
    1SOL    HW2 7106   3.412   0.930   2.854 -1.3462 -1.2754  1.1872
    1SOL    HW3 7107   3.461   0.792   2.889  1.7496 -0.6435 -0.5349
    1SOL    MW4 7108   3.472   0.868   2.849 -0.1025 -0.0023  0.1240
    1SOL     OW 7109   3.659   1.033   2.981 -0.0219  0.1130 -0.2429
    1SOL    HW2 7110   3.597   0.987   2.923 -0.5652  0.3646  0.1308
    1SOL    HW3 7111   3.695   1.103   2.927 -1.1735  0.8844 -0.0285
    1SOL    MW4 7112   3.655   1.036   2.966 -0.2453  0.2480 -0.1655
    1SOL     OW 7113   3.670   2.358   4.641  0.5751  0.0997  0.3325
    1SOL    HW2 7114   3.662   2.451   4.617  2.3633  0.3885  0.7959
    1SOL    HW3 7115   3.583   2.322   4.625 -0.1384  1.8535  0.1246
    1SOL    MW4 7116   3.657   2.366   4.635  0.7169  0.3693  0.3662
    1SOL     OW 7117   3.846   3.707   3.490 -0.0212  0.6161  0.1384
    1SOL    HW2 7118   3.819   3.779   3.546  0.9101  0.8192  0.3383
    1SOL    HW3 7119   3.825   3.736   3.402 -0.5110  0.7449  0.2986
    1SOL    MW4 7120   3.840   3.720   3.486  0.0370  0.6597  0.1860
    1SOL     OW 7121   0.241   0.132   1.126  0.2480  0.3309 -0.5645
    1SOL    HW2 7122   0.326   0.142   1.082 -0.6700  2.2792 -1.9657
    1SOL    HW3 7123   0.238   0.205   1.188 -0.3100  0.1388 -0.3678
    1SOL    MW4 7124   0.252   0.143   1.129  0.0533  0.5626 -0.7232
    1SOL     OW 7125   2.251   1.768   2.046 -0.4453 -0.4147 -0.0489
    1SOL    HW2 7126   2.204   1.703   1.995 -0.0253 -1.6869  1.1443
    1SOL    HW3 7127   2.304   1.815   1.982 -1.6735 -0.4245 -1.0929
    1SOL    MW4 7128   2.252   1.765   2.031 -0.5522 -0.5839 -0.0291
    1SOL     OW 7129   0.956   3.503   3.217 -0.4762  0.4801  0.0178
    1SOL    HW2 7130   0.981   3.458   3.136 -0.0385 -0.0046  0.4213
    1SOL    HW3 7131   0.947   3.595   3.191 -1.2434  0.1824 -0.7776
    1SOL    MW4 7132   0.958   3.509   3.203 -0.5198  0.3769 -0.0339
    1SOL     OW 7133   3.602   2.458   2.878  0.2553 -0.7945  0.2890
    1SOL    HW2 7134   3.688   2.421   2.898 -0.1518 -1.4475  0.8467
    1SOL    HW3 7135   3.615   2.552   2.880  1.3381 -0.8984 -1.2917
    1SOL    MW4 7136   3.615   2.465   2.881  0.3443 -0.8943  0.1540
    1SOL     OW 7137   3.655   3.995   2.034 -0.4401  0.0659 -0.5407
    1SOL    HW2 7138   3.601   3.928   1.994  0.1917 -1.1214  0.5722
    1SOL    HW3 7139   3.744   3.975   2.005 -0.2165  0.2704 -0.0092
    1SOL    MW4 7140   3.660   3.984   2.025 -0.3271 -0.0637 -0.3240
    1SOL     OW 7141   4.351   0.181   3.200  0.1957 -0.4107  0.2869
    1SOL    HW2 7142   4.425   0.197   3.141 -0.2277 -1.8800 -0.6682
    1SOL    HW3 7143   4.292   0.126   3.149 -1.0038 -0.2393  1.4787
    1SOL    MW4 7144   4.353   0.176   3.186 -0.0186 -0.5820  0.3183
    1SOL     OW 7145   1.162   3.463   4.131  0.4516  0.2653  0.0128
    1SOL    HW2 7146   1.143   3.556   4.142 -1.3145 -0.0842 -0.0216
    1SOL    HW3 7147   1.210   3.457   4.048 -0.4783  1.0100 -0.5855
    1SOL    MW4 7148   1.166   3.474   4.122  0.0960  0.3176 -0.0710
    1SOL     OW 7149   2.230   2.726   2.538  0.6203 -0.3880 -0.4771
    1SOL    HW2 7150   2.137   2.707   2.525  0.4381  0.8570 -1.0988
    1SOL    HW3 7151   2.275   2.669   2.475  0.1859 -0.0136 -1.1423
    1SOL    MW4 7152   2.224   2.716   2.528  0.5388 -0.1743 -0.6466
    1SOL     OW 7153   1.613   4.307   0.891  0.3079 -0.1196 -0.0363
    1SOL    HW2 7154   1.520   4.311   0.869  0.2880  2.1516  0.3074
    1SOL    HW3 7155   1.616   4.328   0.985  1.0145 -2.1587  0.4169
    1SOL    MW4 7156   1.601   4.311   0.901  0.3986 -0.0892  0.0688
    1SOL     OW 7157   3.563   1.965   1.158  0.2423  0.5252 -0.5211
    1SOL    HW2 7158   3.612   2.035   1.201 -0.2014  0.1144  0.6439
    1SOL    HW3 7159   3.533   1.908   1.229  3.2727 -2.6445 -1.5785
    1SOL    MW4 7160   3.566   1.967   1.173  0.5834  0.0528 -0.5069
    1SOL     OW 7161   0.131   2.440   4.500 -0.0025 -0.1463  0.1172
    1SOL    HW2 7162   0.104   2.532   4.497  0.6923  0.0077 -1.7147
    1SOL    HW3 7163   0.226   2.443   4.504  0.0370 -0.7910 -0.2136
    1SOL    MW4 7164   0.140   2.453   4.500  0.0944 -0.2112 -0.1678
    1SOL     OW 7165   4.252   0.134   2.027 -0.4083  0.1591 -0.3750
    1SOL    HW2 7166   4.224   0.074   1.957 -0.2921 -1.7736  1.1798
    1SOL    HW3 7167   4.345   0.115   2.039 -0.0625  1.5845 -0.7394
    1SOL    MW4 7168   4.261   0.124   2.019 -0.3471  0.0921 -0.2179
    1SOL     OW 7169   1.991   3.764   1.034 -0.1256  0.4132 -0.3406
    1SOL    HW2 7170   1.926   3.788   0.968  1.4403 -0.7137 -2.3374
    1SOL    HW3 7171   2.016   3.847   1.075 -1.9255  0.9860 -0.3843
    1SOL    MW4 7172   1.986   3.778   1.030 -0.1564  0.3400 -0.6099
    1SOL     OW 7173   3.882   0.119   2.573  0.4203 -0.0410  0.1968
    1SOL    HW2 7174   3.940   0.045   2.591  2.1498  1.5480  1.3935
    1SOL    HW3 7175   3.847   0.144   2.659 -1.1387 -0.2522 -0.3596
    1SOL    MW4 7176   3.885   0.113   2.587  0.4430  0.1408  0.2816
    1SOL     OW 7177   0.843   3.857   0.933 -0.2394 -0.1240  0.4986
    1SOL    HW2 7178   0.884   3.866   0.847 -0.5832 -0.8816  0.2494
    1SOL    HW3 7179   0.842   3.946   0.969  0.2941  0.1268 -0.0986
    1SOL    MW4 7180   0.848   3.870   0.926 -0.2143 -0.1910  0.3869
    1SOL     OW 7181   2.196   4.511   3.995 -0.2715  0.0876  0.2640
    1SOL    HW2 7182   2.231   4.554   3.917  0.6951 -2.0545 -0.5133
    1SOL    HW3 7183   2.127   4.571   4.026 -1.0288  0.7425 -2.5056
    1SOL    MW4 7184   2.191   4.525   3.989 -0.2439 -0.1082 -0.2036
    1SOL     OW 7185   2.060   1.645   3.218 -0.1611  0.3925  0.2129
    1SOL    HW2 7186   2.111   1.712   3.264  0.7378 -0.0101 -0.1888
    1SOL    HW3 7187   2.042   1.579   3.284  0.7262  0.0441  0.1214
    1SOL    MW4 7188   2.065   1.645   3.232  0.0744  0.2935  0.1478
    1SOL     OW 7189   2.159   2.676   2.794  0.0634  0.1636 -0.1724
    1SOL    HW2 7190   2.204   2.694   2.711  0.6045  0.2009  0.1264
    1SOL    HW3 7191   2.189   2.746   2.853 -1.6257  1.1376 -0.4304
    1SOL    MW4 7192   2.169   2.688   2.791 -0.0880  0.2971 -0.1667
    1SOL     OW 7193   3.504   1.404   2.224 -0.1387  0.0413  0.0497
    1SOL    HW2 7194   3.481   1.494   2.248 -1.5162 -0.0581 -0.8574
    1SOL    HW3 7195   3.452   1.386   2.146  1.0738 -1.1195 -0.5115
    1SOL    MW4 7196   3.494   1.414   2.217 -0.1602 -0.1251 -0.1442
    1SOL     OW 7197   0.461   3.346   3.064  0.2306 -0.1950 -0.3991
    1SOL    HW2 7198   0.432   3.418   3.120  3.8784  1.2333 -0.1928
    1SOL    HW3 7199   0.518   3.293   3.120  0.0048 -1.5168 -1.3891
    1SOL    MW4 7200   0.465   3.349   3.078  0.6821 -0.1807 -0.5023
    1SOL     OW 7201   1.230   0.285   3.770  0.0300 -0.4219  0.2439
    1SOL    HW2 7202   1.236   0.193   3.794  0.3755 -0.3483  0.4428
    1SOL    HW3 7203   1.217   0.330   3.854 -2.7678 -0.5226 -0.0831
    1SOL    MW4 7204   1.229   0.279   3.784 -0.2936 -0.4255  0.2272
    1SOL     OW 7205   1.150   1.283   1.311 -0.5809 -0.4234 -0.1436
    1SOL    HW2 7206   1.150   1.233   1.229  0.2002 -1.4582  0.4769
    1SOL    HW3 7207   1.101   1.228   1.373 -4.1132  1.8473 -0.7620
    1SOL    MW4 7208   1.144   1.269   1.308 -0.9439 -0.2605 -0.1433
    1SOL     OW 7209   1.036   1.022   3.229  0.0172 -0.1412 -0.1598
    1SOL    HW2 7210   0.944   1.044   3.215  0.3833  1.8938  0.5631
    1SOL    HW3 7211   1.035   0.949   3.291 -1.0687  0.7043  0.8274
    1SOL    MW4 7212   1.024   1.015   3.235 -0.0778  0.2388  0.0658
    1SOL     OW 7213   1.695   3.440   3.907 -0.1837  0.1575 -0.1488
    1SOL    HW2 7214   1.787   3.457   3.925  0.7978 -1.3971 -3.3295
    1SOL    HW3 7215   1.652   3.525   3.917  2.0003  1.3658 -0.8374
    1SOL    MW4 7216   1.701   3.453   3.911  0.2339  0.1118 -0.6592
    1SOL     OW 7217   0.726   0.697   2.642  0.6119  0.6225  0.6335
    1SOL    HW2 7218   0.674   0.632   2.689  1.1000  1.1434  1.9295
    1SOL    HW3 7219   0.663   0.765   2.616  0.2182 -0.0267 -0.1104
    1SOL    MW4 7220   0.711   0.698   2.645  0.6243  0.6055  0.7062
    1SOL     OW 7221   3.486   1.474   2.933  0.3871  0.4750 -0.2676
    1SOL    HW2 7222   3.485   1.399   2.993  0.0119  0.7198  0.0436
    1SOL    HW3 7223   3.512   1.438   2.849  0.6725  0.0779 -0.0101
    1SOL    MW4 7224   3.489   1.459   2.930  0.3753  0.4549 -0.1929
    1SOL     OW 7225   2.817   1.007   0.672  0.0454 -0.1488 -0.4088
    1SOL    HW2 7226   2.741   1.030   0.725 -0.3260 -2.0240 -0.0996
    1SOL    HW3 7227   2.849   0.925   0.709 -0.5776 -1.8341 -3.4121
    1SOL    MW4 7228   2.811   0.999   0.684 -0.0861 -0.6185 -0.7642
    1SOL     OW 7229   0.347   3.456   1.550 -0.3484  0.1974 -0.2813
    1SOL    HW2 7230   0.439   3.482   1.561 -0.6399  0.7514  0.9771
    1SOL    HW3 7231   0.330   3.468   1.457  0.5834  1.0256 -0.3630
    1SOL    MW4 7232   0.357   3.461   1.540 -0.2640  0.3798 -0.1261
    1SOL     OW 7233   2.419   4.352   2.166  0.1406  0.5408 -0.2223
    1SOL    HW2 7234   2.490   4.344   2.102  0.6775  0.0487  0.4169
    1SOL    HW3 7235   2.409   4.264   2.202  0.3561  0.9561  0.8928
    1SOL    MW4 7236   2.427   4.340   2.163  0.2401  0.5312  0.0093
    1SOL     OW 7237   2.099   4.051   4.354 -0.1926  0.0024 -0.0164
    1SOL    HW2 7238   2.036   4.096   4.298 -0.0047  0.1552 -0.1029
    1SOL    HW3 7239   2.182   4.096   4.338  0.0769 -0.6304 -0.3993
    1SOL    MW4 7240   2.102   4.063   4.345 -0.1323 -0.0606 -0.0782
    1SOL     OW 7241   2.979   3.992   4.400  0.2128 -0.1370 -0.2219
    1SOL    HW2 7242   3.051   3.955   4.350 -0.5683 -0.8451 -0.8271
    1SOL    HW3 7243   2.915   3.922   4.407 -0.4141  0.4756  0.3323
    1SOL    MW4 7244   2.980   3.978   4.394  0.0269 -0.1497 -0.2294
    1SOL     OW 7245   1.635   0.475   0.689  0.1830  0.5038 -0.0186
    1SOL    HW2 7246   1.543   0.451   0.700 -0.1830  0.8611 -2.1307
    1SOL    HW3 7247   1.683   0.393   0.701 -0.4529  0.2078  0.5019
    1SOL    MW4 7248   1.629   0.461   0.692  0.0508  0.5119 -0.2286
    1SOL     OW 7249   2.229   1.761   0.859  0.2931  0.1515  0.0121
    1SOL    HW2 7250   2.154   1.820   0.859  0.3098  0.1757  0.7074
    1SOL    HW3 7251   2.225   1.716   0.943  1.4869  0.7256  0.4062
    1SOL    MW4 7252   2.219   1.763   0.870  0.4528  0.2304  0.1558
    1SOL     OW 7253   0.015   3.615   2.667 -0.4885  0.2550 -0.2684
    1SOL    HW2 7254  -0.080   3.604   2.674 -0.4123 -1.9443 -2.1231
    1SOL    HW3 7255   0.037   3.584   2.580  2.1513 -0.7238  0.6742
    1SOL    MW4 7256   0.006   3.609   2.657 -0.1302 -0.1643 -0.3886
    1SOL     OW 7257   2.953   2.709   0.661  0.5883  0.1208 -0.2781
    1SOL    HW2 7258   2.956   2.653   0.738  0.2476 -0.7563 -0.8965
    1SOL    HW3 7259   2.903   2.659   0.596 -1.6029  2.0281 -0.1298
    1SOL    MW4 7260   2.947   2.695   0.662  0.2544  0.2568 -0.3402
    1SOL     OW 7261   2.431   3.318   2.926  0.0377 -0.2754  0.6896
    1SOL    HW2 7262   2.407   3.409   2.914 -0.5413 -0.5088 -0.0109
    1SOL    HW3 7263   2.498   3.302   2.859  0.2341 -0.3316  0.8976
    1SOL    MW4 7264   2.437   3.328   2.915 -0.0129 -0.3138  0.6247
    1SOL     OW 7265   3.934   3.507   0.528 -0.0380 -0.3377 -0.1097
    1SOL    HW2 7266   4.012   3.466   0.564  0.2512  1.0118  0.8456
    1SOL    HW3 7267   3.941   3.599   0.554 -1.1864  0.1125 -1.3087
    1SOL    MW4 7268   3.945   3.514   0.536 -0.1514 -0.1001 -0.1419
    1SOL     OW 7269   0.226   4.056   0.875  0.2796  0.1386  0.3458
    1SOL    HW2 7270   0.301   4.113   0.861 -0.1864  0.7790  0.4195
    1SOL    HW3 7271   0.189   4.042   0.788  1.1208 -1.0745  0.1669
    1SOL    MW4 7272   0.231   4.062   0.862  0.3291  0.0629  0.3319
    1SOL     OW 7273   2.087   3.385   0.820  0.2596 -0.7130 -0.3400
    1SOL    HW2 7274   2.071   3.474   0.788  0.3599  0.0975  1.7709
    1SOL    HW3 7275   2.001   3.344   0.821  0.0189 -0.2097 -0.0934
    1SOL    MW4 7276   2.074   3.392   0.816  0.2410 -0.5398 -0.0290
    1SOL     OW 7277   4.352   0.794   2.191 -0.7843 -0.2086  0.7863
    1SOL    HW2 7278   4.293   0.781   2.117 -0.2396 -0.4389  0.3889
    1SOL    HW3 7279   4.406   0.868   2.166  0.5988 -1.4036  0.1736
    1SOL    MW4 7280   4.351   0.802   2.178 -0.5293 -0.3968  0.6530
    1SOL     OW 7281   3.874   0.455   3.288  0.2043 -0.1588  0.4540
    1SOL    HW2 7282   3.885   0.374   3.337  0.0488 -1.1905 -1.1517
    1SOL    HW3 7283   3.946   0.455   3.225 -0.4515  0.3689 -0.3146
    1SOL    MW4 7284   3.885   0.444   3.286  0.0970 -0.2253  0.1407
    1SOL     OW 7285   2.837   2.658   2.872 -0.2352 -0.2842 -0.5493
    1SOL    HW2 7286   2.752   2.701   2.873 -0.0303  0.1083  0.8502
    1SOL    HW3 7287   2.884   2.696   2.946  1.6109  0.4080 -2.0203
    1SOL    MW4 7288   2.832   2.669   2.882  0.0355 -0.1409 -0.5586
    1SOL     OW 7289   1.636   0.007   4.354  0.4452  0.3203  0.1862
    1SOL    HW2 7290   1.644   0.102   4.347  0.8564  0.3640  1.1059
    1SOL    HW3 7291   1.550  -0.007   4.393  0.8146  0.3713  1.0390
    1SOL    MW4 7292   1.626   0.018   4.358  0.5481  0.3328  0.4201
    1SOL     OW 7293   4.034   3.114   2.808 -0.4599  0.3636  0.0822
    1SOL    HW2 7294   4.034   3.141   2.900 -0.1804  2.2632 -0.4467
    1SOL    HW3 7295   4.123   3.084   2.792 -0.4651  0.1767  0.4042
    1SOL    MW4 7296   4.046   3.114   2.818 -0.4230  0.5896  0.0551
    1SOL     OW 7297   2.922   3.144   0.901  0.0690 -0.6903 -0.3128
    1SOL    HW2 7298   2.878   3.071   0.858  0.7799 -1.3758  0.0959
    1SOL    HW3 7299   3.015   3.131   0.881  0.0119  1.2128 -1.8818
    1SOL    MW4 7300   2.929   3.133   0.893  0.1552 -0.5295 -0.4659
    1SOL     OW 7301   2.523   0.700   2.377 -0.4170 -0.0599  0.0231
    1SOL    HW2 7302   2.452   0.667   2.322 -0.0460 -0.2495 -0.3490
    1SOL    HW3 7303   2.481   0.723   2.460 -1.1376  1.0428 -0.6346
    1SOL    MW4 7304   2.508   0.699   2.380 -0.4630  0.0606 -0.1128
    1SOL     OW 7305   4.163   3.587   2.997  0.1099 -0.0493  0.0817
    1SOL    HW2 7306   4.112   3.567   3.076  1.6226  0.5300  1.2371
    1SOL    HW3 7307   4.251   3.553   3.017  0.9182  1.5658 -0.7037
    1SOL    MW4 7308   4.168   3.580   3.010  0.4158  0.2403  0.1309
    1SOL     OW 7309   3.432   3.811   0.560 -0.2316  0.1456  0.2096
    1SOL    HW2 7310   3.407   3.749   0.492 -1.9109 -0.7240  1.5814
    1SOL    HW3 7311   3.360   3.808   0.623  1.2808  0.9409  2.0222
    1SOL    MW4 7312   3.419   3.803   0.560 -0.2534  0.1359  0.6297
    1SOL     OW 7313   1.705   0.040   1.677 -0.0237  0.1583  0.4301
    1SOL    HW2 7314   1.793   0.071   1.656  0.2873 -1.3506 -0.5887
    1SOL    HW3 7315   1.719  -0.036   1.733 -0.6671 -0.3022 -0.0281
    1SOL    MW4 7316   1.718   0.034   1.681 -0.0676 -0.1015  0.2353
    1SOL     OW 7317   1.127   0.890   3.974  0.0158  0.3451  0.1168
    1SOL    HW2 7318   1.140   0.813   3.919  1.6078  1.8683 -1.7100
    1SOL    HW3 7319   1.040   0.921   3.952  0.3059  0.4393 -0.9065
    1SOL    MW4 7320   1.118   0.884   3.964  0.2642  0.5585 -0.2592
    1SOL     OW 7321   4.246   2.366   4.497  0.7361  0.4438  0.4811
    1SOL    HW2 7322   4.175   2.323   4.449  1.0712 -1.0873  1.3494
    1SOL    HW3 7323   4.311   2.388   4.429  0.2347  0.2475 -0.0617
    1SOL    MW4 7324   4.246   2.363   4.482  0.7148  0.2158  0.5245
    1SOL     OW 7325   3.186   2.497   3.981  0.0306 -0.3867 -0.4739
    1SOL    HW2 7326   3.195   2.507   3.887  3.6238 -1.8296 -0.3452
    1SOL    HW3 7327   3.171   2.586   4.013 -0.5472  0.1987 -2.3182
    1SOL    MW4 7328   3.185   2.510   3.973  0.4284 -0.5002 -0.7002
    1SOL     OW 7329   1.044   3.353   2.295 -0.2418  0.3779 -0.2397
    1SOL    HW2 7330   1.002   3.311   2.220 -0.9685 -0.6887  0.7495
    1SOL    HW3 7331   1.129   3.382   2.262 -0.5416 -0.1177 -1.4613
    1SOL    MW4 7332   1.049   3.351   2.281 -0.3773  0.1714 -0.2701
    1SOL     OW 7333   0.524   1.877   1.981 -0.4352  0.7789 -0.2600
    1SOL    HW2 7334   0.573   1.798   1.956 -2.6083 -1.1202  1.2696
    1SOL    HW3 7335   0.496   1.915   1.898 -0.8550 -1.0424 -0.9742
    1SOL    MW4 7336   0.527   1.871   1.967 -0.7774  0.2881 -0.1526
    1SOL     OW 7337   2.839   3.123   2.100 -0.4871  0.3750 -0.3548
    1SOL    HW2 7338   2.819   3.094   2.011 -1.6251  1.3012 -0.3997
    1SOL    HW3 7339   2.755   3.119   2.146 -0.0396  0.5847  0.4828
    1SOL    MW4 7340   2.825   3.118   2.094 -0.5784  0.5250 -0.2503
    1SOL     OW 7341   0.204   4.287   3.892 -0.2155  0.4970 -0.1229
    1SOL    HW2 7342   0.170   4.326   3.973  2.9767 -0.0206  1.5114
    1SOL    HW3 7343   0.268   4.222   3.921  0.7109  0.0399 -3.0577
    1SOL    MW4 7344   0.208   4.284   3.907  0.3279  0.3691 -0.2944
    1SOL     OW 7345   0.418   4.298   1.265  0.1326  0.1186  0.1728
    1SOL    HW2 7346   0.335   4.345   1.258  1.4197  2.4385 -0.1789
    1SOL    HW3 7347   0.418   4.262   1.354 -1.1491  0.2970  0.2481
    1SOL    MW4 7348   0.407   4.300   1.276  0.1333  0.4478  0.1364
    1SOL     OW 7349   2.999   2.553   0.873  0.1475  0.2180  0.0093
    1SOL    HW2 7350   3.047   2.480   0.835  1.1153  1.6708 -1.6441
    1SOL    HW3 7351   3.065   2.603   0.921 -0.0074  1.3147 -0.8864
    1SOL    MW4 7352   3.014   2.550   0.875  0.2549  0.5546 -0.3270
    1SOL     OW 7353   3.213   1.923   3.082  0.3564  0.1303 -0.0960
    1SOL    HW2 7354   3.119   1.926   3.064  0.5560 -1.5164 -1.6294
    1SOL    HW3 7355   3.243   2.012   3.065 -0.9204  0.6663  0.3739
    1SOL    MW4 7356   3.204   1.935   3.077  0.2146 -0.0161 -0.2363
    1SOL     OW 7357   4.270   4.399   1.264 -0.1293 -0.4899 -0.6279
    1SOL    HW2 7358   4.332   4.344   1.311 -0.5287 -1.3706 -1.1349
    1SOL    HW3 7359   4.325   4.456   1.211  0.3619  1.0257  1.4264
    1SOL    MW4 7360   4.286   4.399   1.263 -0.1168 -0.4058 -0.4238
    1SOL     OW 7361   1.425   0.369   4.417 -0.4379  0.5706 -0.3210
    1SOL    HW2 7362   1.402   0.305   4.484 -1.2159  1.4697  0.2803
    1SOL    HW3 7363   1.513   0.344   4.389 -0.7793 -0.8305 -0.1828
    1SOL    MW4 7364   1.434   0.357   4.422 -0.5856  0.5043 -0.2236
    1SOL     OW 7365   0.273   0.145   4.503  0.2458 -0.3894  0.3606
    1SOL    HW2 7366   0.366   0.167   4.496 -0.1656  2.2905  2.1273
    1SOL    HW3 7367   0.271   0.062   4.551  1.7412 -0.4824  0.2746
    1SOL    MW4 7368   0.285   0.137   4.508  0.3889 -0.0481  0.5822
    1SOL     OW 7369   0.444   0.435   0.862  0.0214  0.1109  0.0703
    1SOL    HW2 7370   0.380   0.491   0.905  1.3153  0.0297  2.2133
    1SOL    HW3 7371   0.510   0.496   0.829  0.9378 -0.0412  1.5570
    1SOL    MW4 7372   0.445   0.450   0.863  0.3130  0.0801  0.5491
    1SOL     OW 7373   3.512   1.534   0.846  0.2702 -0.0771 -0.2043
    1SOL    HW2 7374   3.571   1.532   0.922 -1.3361  0.9766  1.1094
    1SOL    HW3 7375   3.556   1.590   0.783  1.3489 -0.4632  0.1949
    1SOL    MW4 7376   3.526   1.541   0.848  0.2007  0.0108  0.0216
    1SOL     OW 7377   2.801   4.237   3.540  0.1679  0.0908  0.4464
    1SOL    HW2 7378   2.793   4.145   3.566  4.8361 -1.2382 -2.2668
    1SOL    HW3 7379   2.770   4.239   3.450 -0.0036  1.2221  0.5267
    1SOL    MW4 7380   2.796   4.225   3.532  0.7613  0.0644  0.0987
    1SOL     OW 7381   2.782   3.784   1.175  0.1314 -0.1977  0.0248
    1SOL    HW2 7382   2.877   3.789   1.179  0.2022  0.0119 -1.4378
    1SOL    HW3 7383   2.757   3.856   1.118 -1.0067  0.4943  1.3754
    1SOL    MW4 7384   2.791   3.794   1.168 -0.0093 -0.0789  0.0101
    1SOL     OW 7385   1.641   2.283   1.941  0.2269  0.2228 -0.1495
    1SOL    HW2 7386   1.731   2.253   1.939  0.3956  0.6593  0.4932
    1SOL    HW3 7387   1.647   2.378   1.932 -0.0555  0.4033  1.3201
    1SOL    MW4 7388   1.653   2.292   1.940  0.2118  0.3045  0.1292
    1SOL     OW 7389   1.496   0.911   2.136  0.2603 -0.0087 -0.3097
    1SOL    HW2 7390   1.475   0.889   2.045  1.2168 -0.5119 -0.4157
    1SOL    HW3 7391   1.555   0.986   2.130  0.3366 -0.0514 -0.1078
    1SOL    MW4 7392   1.501   0.918   2.123  0.3966 -0.0808 -0.2971
    1SOL     OW 7393   3.934   0.670   2.468 -0.2045  0.0638 -0.1493
    1SOL    HW2 7394   4.014   0.620   2.453  1.4684  2.9364 -1.0922
    1SOL    HW3 7395   3.914   0.656   2.561  0.9602 -1.2653 -0.0852
    1SOL    MW4 7396   3.942   0.662   2.479  0.1700  0.2675 -0.2651
    1SOL     OW 7397   3.344   1.184   1.496  0.0729  0.3789 -0.3554
    1SOL    HW2 7398   3.418   1.203   1.553 -1.1308  2.3968  0.5785
    1SOL    HW3 7399   3.356   1.242   1.420 -0.9928  1.3520  0.2069
    1SOL    MW4 7400   3.355   1.194   1.493 -0.2263  0.7734 -0.1580
    1SOL     OW 7401   1.350   2.360   3.196 -0.0649 -0.6622 -0.2956
    1SOL    HW2 7402   1.358   2.291   3.130  0.3224 -2.8071  1.8938
    1SOL    HW3 7403   1.432   2.408   3.191 -0.1057 -0.7114 -1.4751
    1SOL    MW4 7404   1.362   2.357   3.187 -0.0193 -0.9518 -0.1626
    1SOL     OW 7405   1.974   1.111   1.130 -0.0901  0.9714 -0.0802
    1SOL    HW2 7406   2.042   1.095   1.065 -0.4536 -0.2653 -0.1534
    1SOL    HW3 7407   1.999   1.057   1.205 -0.8544  0.7114 -0.0129
    1SOL    MW4 7408   1.986   1.102   1.131 -0.2389  0.7738 -0.0809
    1SOL     OW 7409   0.856   2.238   4.618  0.0264 -0.1749 -0.1972
    1SOL    HW2 7410   0.762   2.235   4.604 -0.0952 -0.7508  0.7075
    1SOL    HW3 7411   0.883   2.322   4.580 -1.0888  0.7232  0.9327
    1SOL    MW4 7412   0.847   2.249   4.611 -0.1368 -0.1326  0.0710
    1SOL     OW 7413   2.333   3.623   1.383  0.1814  0.2415 -0.3218
    1SOL    HW2 7414   2.255   3.648   1.332 -0.5653 -1.1920  0.0874
    1SOL    HW3 7415   2.406   3.637   1.323 -0.3662  1.6945 -0.6865
    1SOL    MW4 7416   2.332   3.628   1.368  0.0105  0.2441 -0.3159
    1SOL     OW 7417   2.757   3.036   1.836 -0.2379 -0.0064 -0.3449
    1SOL    HW2 7418   2.723   3.065   1.752  1.9455  0.3763 -1.1230
    1SOL    HW3 7419   2.700   2.963   1.861 -0.5051 -0.5542 -2.4737
    1SOL    MW4 7420   2.745   3.030   1.828  0.0150 -0.0284 -0.7285
    1SOL     OW 7421   2.756   2.804   4.800 -0.2085 -0.3265 -0.5961
    1SOL    HW2 7422   2.780   2.851   4.880 -2.0661 -1.1383  0.4797
    1SOL    HW3 7423   2.829   2.819   4.740  0.3241  1.9049  0.5705
    1SOL    MW4 7424   2.768   2.812   4.803 -0.3836 -0.1390 -0.3004
    1SOL     OW 7425   3.905   1.419   2.121 -0.2173  0.1513 -0.3509
    1SOL    HW2 7426   3.974   1.359   2.092 -0.5110  0.0793 -0.9092
    1SOL    HW3 7427   3.842   1.363   2.166 -0.6668 -0.0195 -1.1815
    1SOL    MW4 7428   3.906   1.404   2.123 -0.3154  0.1192 -0.5343
    1SOL     OW 7429   2.556   3.074   3.800 -0.1015  0.1149  0.4337
    1SOL    HW2 7430   2.587   2.992   3.838  2.0429 -0.0427 -1.6150
    1SOL    HW3 7431   2.556   3.135   3.874  0.0212 -1.2381  1.5881
    1SOL    MW4 7432   2.560   3.071   3.815  0.1974 -0.0844  0.3157
    1SOL     OW 7433   4.016   1.367   3.284  0.5269 -0.0068  0.3041
    1SOL    HW2 7434   4.062   1.450   3.270  1.9479 -0.6385  1.1370
    1SOL    HW3 7435   4.059   1.306   3.224 -0.5292 -0.1452 -0.3154
    1SOL    MW4 7436   4.028   1.370   3.274  0.5751 -0.1085  0.3326
    1SOL     OW 7437   3.469   0.787   2.071 -0.3925  0.5604  0.0508
    1SOL    HW2 7438   3.454   0.748   2.157 -2.3677 -0.2972 -0.6552
    1SOL    HW3 7439   3.538   0.734   2.032 -0.8112 -0.2220  0.3654
    1SOL    MW4 7440   3.476   0.775   2.078 -0.7083  0.3440 -0.0010
    1SOL     OW 7441   0.071   3.129   1.817  0.0535  0.1095  0.1711
    1SOL    HW2 7442   0.166   3.143   1.828 -0.1389  0.4990  1.4147
    1SOL    HW3 7443   0.061   3.034   1.810  0.5098  0.0478  0.3344
    1SOL    MW4 7444   0.083   3.118   1.817  0.0883  0.1526  0.3568
    1SOL     OW 7445   0.664   4.015   4.861 -0.4310  0.4957  0.1428
    1SOL    HW2 7446   0.724   4.088   4.843 -1.0914  1.1999  0.7083
    1SOL    HW3 7447   0.698   3.942   4.810  0.3610  1.1504 -0.2806
    1SOL    MW4 7448   0.677   4.015   4.852 -0.4136  0.6747  0.1616
    1SOL     OW 7449   1.363   3.499   1.951  0.6130 -0.1404  0.0508
    1SOL    HW2 7450   1.352   3.404   1.945  0.1757 -0.1166  0.4377
    1SOL    HW3 7451   1.294   3.528   2.010 -0.3736  0.6475 -1.4604
    1SOL    MW4 7452   1.353   3.490   1.958  0.4252 -0.0334 -0.0975
    1SOL     OW 7453   0.624   0.042   2.692 -0.5377 -0.1959  0.5109
    1SOL    HW2 7454   0.568  -0.036   2.695 -2.2322  0.9693 -0.2879
    1SOL    HW3 7455   0.695   0.018   2.632 -1.7023 -0.7019 -0.6824
    1SOL    MW4 7456   0.626   0.028   2.685 -0.9149 -0.1090  0.2482
    1SOL     OW 7457   0.163   4.230   2.054  0.2654  0.1064 -0.0658
    1SOL    HW2 7458   0.147   4.185   1.971  0.9278  0.1296 -0.2083
    1SOL    HW3 7459   0.256   4.254   2.051  0.6919 -1.2871  1.3555
    1SOL    MW4 7460   0.173   4.227   2.042  0.4091 -0.0744  0.1028
    1SOL     OW 7461   3.817   4.473   3.099 -0.1754 -0.2378 -0.6110
    1SOL    HW2 7462   3.795   4.432   3.183 -0.0268  0.5712 -0.1701
    1SOL    HW3 7463   3.738   4.464   3.046 -0.3217 -0.6232 -0.3263
    1SOL    MW4 7464   3.804   4.467   3.103 -0.1750 -0.1822 -0.5155
    1SOL     OW 7465   3.644   4.245   4.185  0.6853  0.8418  0.0529
    1SOL    HW2 7466   3.661   4.331   4.145  0.2088  0.0179 -1.9862
    1SOL    HW3 7467   3.730   4.203   4.189  0.6437  0.6548 -0.8027
    1SOL    MW4 7468   3.658   4.251   4.180  0.6170  0.7086 -0.3290
    1SOL     OW 7469   1.875   2.373   2.665 -0.4703  0.7055  0.2401
    1SOL    HW2 7470   1.930   2.334   2.598 -1.8618  0.5951 -0.8442
    1SOL    HW3 7471   1.936   2.392   2.737  0.6163 -1.3009 -0.1140
    1SOL    MW4 7472   1.890   2.371   2.666 -0.5105  0.4261  0.0503
    1SOL     OW 7473   2.021   3.662   0.751  0.3050 -0.0692  0.1504
    1SOL    HW2 7474   1.942   3.711   0.771  0.6560  1.2978 -1.6548
    1SOL    HW3 7475   2.090   3.729   0.745  1.4919 -1.1761  1.1797
    1SOL    MW4 7476   2.020   3.677   0.753  0.5081 -0.0346  0.0480
    1SOL     OW 7477   2.977   0.618   3.059  0.1970 -0.1229  0.5396
    1SOL    HW2 7478   2.979   0.663   2.974  0.7469 -1.1565 -0.0085
    1SOL    HW3 7479   3.030   0.672   3.116 -1.9412  1.7443  0.8329
    1SOL    MW4 7480   2.984   0.631   3.055 -0.0124 -0.0129  0.5059
    1SOL     OW 7481   3.453   0.664   4.351  0.1660  0.4431 -0.4612
    1SOL    HW2 7482   3.432   0.586   4.300  0.9061  0.5734 -0.9698
    1SOL    HW3 7483   3.539   0.646   4.388 -0.1617  0.5445  0.3545
    1SOL    MW4 7484   3.462   0.651   4.349  0.2201  0.4737 -0.4210
    1SOL     OW 7485   4.219   3.139   2.163  0.4989  0.2755 -0.2756
    1SOL    HW2 7486   4.132   3.136   2.125  0.4175 -0.9147 -0.0187
    1SOL    HW3 7487   4.250   3.228   2.147 -1.2661  1.0897  0.7551
    1SOL    MW4 7488   4.212   3.150   2.156  0.2556  0.2260 -0.1054
    1SOL     OW 7489   0.032   2.126   3.068 -0.6898  0.2766  0.2161
    1SOL    HW2 7490   0.019   2.150   2.976  1.1411  1.0808  0.1588
    1SOL    HW3 7491   0.062   2.206   3.110 -1.6315 -0.0590  1.5546
    1SOL    MW4 7492   0.034   2.140   3.062 -0.5725  0.3388  0.3855
    1SOL     OW 7493   4.443   1.369   2.776 -0.5438 -0.0429 -0.1470
    1SOL    HW2 7494   4.459   1.308   2.849  0.9599  0.4320 -0.0686
    1SOL    HW3 7495   4.509   1.437   2.787 -0.5791  0.2598 -1.7244
    1SOL    MW4 7496   4.454   1.370   2.787 -0.3500  0.0596 -0.3445
    1SOL     OW 7497   1.922   4.039   2.149 -0.1858 -0.1793 -0.4234
    1SOL    HW2 7498   1.989   3.972   2.165 -1.1100 -1.4604 -1.7318
    1SOL    HW3 7499   1.887   4.017   2.062 -1.4361  1.2061 -0.2822
    1SOL    MW4 7500   1.926   4.027   2.140 -0.4727 -0.1650 -0.5774
    1SOL     OW 7501   4.261   0.418   2.067 -0.5102  0.0139 -0.0235
    1SOL    HW2 7502   4.275   0.327   2.043  0.7744  0.2242 -0.1129
    1SOL    HW3 7503   4.248   0.463   1.983  0.7525  0.2173 -0.1187
    1SOL    MW4 7504   4.261   0.412   2.052 -0.1740  0.0685 -0.0477
    1SOL     OW 7505   0.482   4.471   2.658  0.0458  0.0664 -0.5103
    1SOL    HW2 7506   0.556   4.415   2.637  0.0254 -0.4336  0.7538
    1SOL    HW3 7507   0.444   4.493   2.572  0.3205 -1.4725 -1.0423
    1SOL    MW4 7508   0.487   4.467   2.644  0.0793 -0.2031 -0.4137
    1SOL     OW 7509   2.157   0.292   2.193 -0.0051  0.3888  0.3814
    1SOL    HW2 7510   2.237   0.288   2.140 -1.7991 -1.7484 -2.3123
    1SOL    HW3 7511   2.090   0.322   2.133 -1.5454  0.8300  2.2635
    1SOL    MW4 7512   2.159   0.295   2.178 -0.4449  0.1650  0.2744
    1SOL     OW 7513   1.183   2.843   3.256 -0.3492 -0.2110 -0.7150
    1SOL    HW2 7514   1.256   2.782   3.265  0.5135  0.7862 -0.8167
    1SOL    HW3 7515   1.110   2.801   3.302  1.2212  0.3145  2.3348
    1SOL    MW4 7516   1.183   2.829   3.263 -0.0280 -0.0100 -0.3259
    1SOL     OW 7517   1.864   1.184   4.188  0.0451  0.4929  0.1696
    1SOL    HW2 7518   1.898   1.225   4.268 -0.5396  0.6541  0.3427
    1SOL    HW3 7519   1.903   1.097   4.187  0.8668  0.8547  0.0928
    1SOL    MW4 7520   1.874   1.178   4.199  0.0763  0.5620  0.1826
    1SOL     OW 7521   2.541   1.394   1.440 -0.0628 -0.1766  0.1654
    1SOL    HW2 7522   2.570   1.389   1.349 -0.7748  0.3489 -0.0933
    1SOL    HW3 7523   2.485   1.471   1.443  0.1090 -0.0923  1.0938
    1SOL    MW4 7524   2.537   1.403   1.428 -0.1340 -0.0960  0.2537
    1SOL     OW 7525   4.287   4.089   0.640 -0.0401  0.1712  0.2525
    1SOL    HW2 7526   4.359   4.132   0.594 -0.7488  0.7521 -0.3294
    1SOL    HW3 7527   4.318   4.000   0.654  0.7319  0.3698 -0.1412
    1SOL    MW4 7528   4.301   4.083   0.636 -0.0315  0.2747  0.1238
    1SOL     OW 7529   2.664   0.742   3.543  0.0230 -0.6064 -0.0076
    1SOL    HW2 7530   2.738   0.767   3.487  0.7722 -1.0818  0.7466
    1SOL    HW3 7531   2.694   0.662   3.587 -1.4818 -1.5614 -0.7214
    1SOL    MW4 7532   2.678   0.735   3.542 -0.0770 -0.7951 -0.0024
    1SOL     OW 7533   2.447   3.860   2.113 -0.2487 -0.2168 -0.3831
    1SOL    HW2 7534   2.516   3.847   2.048 -0.1493  1.1852 -0.5543
    1SOL    HW3 7535   2.463   3.791   2.178  1.0498 -0.1755 -0.6486
    1SOL    MW4 7536   2.458   3.849   2.113 -0.0646 -0.0262 -0.4406
    1SOL     OW 7537   0.813   2.942   4.254 -0.1184  0.3695  0.0616
    1SOL    HW2 7538   0.751   2.888   4.204  2.0199 -2.2245  0.1156
    1SOL    HW3 7539   0.870   2.981   4.187 -0.2758  0.8013  0.1761
    1SOL    MW4 7540   0.812   2.940   4.238  0.1429  0.0844  0.0844
    1SOL     OW 7541   0.682   0.409   3.693 -0.4786 -0.0618 -0.2525
    1SOL    HW2 7542   0.645   0.478   3.748 -0.3848 -1.3896  1.5263
    1SOL    HW3 7543   0.775   0.431   3.687 -0.7812  0.9872 -1.2636
    1SOL    MW4 7544   0.690   0.421   3.700 -0.5062 -0.0986 -0.1512
    1SOL     OW 7545   1.771   0.811   3.182 -0.2581  0.2172  0.4678
    1SOL    HW2 7546   1.866   0.814   3.190 -0.1753 -1.4366  0.3299
    1SOL    HW3 7547   1.752   0.856   3.100  0.5042 -0.4423 -0.0807
    1SOL    MW4 7548   1.781   0.817   3.172 -0.1466 -0.0880  0.3774
    1SOL     OW 7549   4.344   1.115   2.943  0.4529 -0.3555 -0.1016
    1SOL    HW2 7550   4.335   1.047   2.877 -1.9333  0.9241 -1.1496
    1SOL    HW3 7551   4.393   1.073   3.014 -2.0757 -3.6236 -0.1291
    1SOL    MW4 7552   4.349   1.100   2.944 -0.1955 -0.6180 -0.2434
    1SOL     OW 7553   1.502   1.559   2.399  0.0402 -0.3549 -0.2902
    1SOL    HW2 7554   1.451   1.478   2.394 -0.6589  0.1438 -1.3581
    1SOL    HW3 7555   1.465   1.607   2.473 -0.3118 -0.4864 -0.3797
    1SOL    MW4 7556   1.491   1.554   2.408 -0.0983 -0.3064 -0.4427
    1SOL     OW 7557   4.322   0.519   0.843 -0.2614  0.2567  0.1890
    1SOL    HW2 7558   4.240   0.473   0.857 -1.0485  1.0181 -1.7367
    1SOL    HW3 7559   4.297   0.610   0.833  0.7626  0.4519 -0.7195
    1SOL    MW4 7560   4.308   0.525   0.843 -0.2298  0.3829 -0.1850
    1SOL     OW 7561   0.087   3.020   1.131  0.1797 -0.2180 -0.1637
    1SOL    HW2 7562   0.095   3.106   1.173  2.5430  0.6125 -2.2046
    1SOL    HW3 7563   0.151   2.965   1.176 -1.0097 -0.8178  0.8319
    1SOL    MW4 7564   0.096   3.024   1.143  0.3346 -0.1876 -0.3016
    1SOL     OW 7565   0.412   4.114   4.905 -0.1347 -0.1001  0.3002
    1SOL    HW2 7566   0.426   4.208   4.917 -2.1858  0.4289 -1.1131
    1SOL    HW3 7567   0.499   4.076   4.908  0.5849  1.6299  2.6043
    1SOL    MW4 7568   0.425   4.121   4.907 -0.3103  0.1979  0.4177
    1SOL     OW 7569   0.148   0.746   2.957  0.3591  0.0348  0.1400
    1SOL    HW2 7570   0.117   0.834   2.980  0.7342  0.5603 -1.3054
    1SOL    HW3 7571   0.223   0.762   2.900  0.1252 -1.2292 -0.5296
    1SOL    MW4 7572   0.154   0.760   2.953  0.3777 -0.0627 -0.1392
    1SOL     OW 7573   3.932   3.152   4.877  0.5157 -0.3299 -0.4988
    1SOL    HW2 7574   3.952   3.120   4.965 -1.1993  2.1524  0.8563
    1SOL    HW3 7575   4.017   3.168   4.836  1.3188  0.6926  1.5442
    1SOL    MW4 7576   3.946   3.150   4.883  0.3953  0.1326 -0.0505
    1SOL     OW 7577   2.086   4.443   0.690 -0.0924  0.0933  0.6001
    1SOL    HW2 7578   2.080   4.532   0.725  0.1749  0.1868  0.4072
    1SOL    HW3 7579   2.165   4.444   0.637 -0.3622 -0.1198  0.1931
    1SOL    MW4 7580   2.095   4.455   0.687 -0.0927  0.0772  0.5209
    1SOL     OW 7581   1.243   2.625   2.612 -0.1190  0.2067  0.2834
    1SOL    HW2 7582   1.264   2.695   2.674  1.2864  0.6989 -0.7225
    1SOL    HW3 7583   1.279   2.546   2.651  0.7914  0.5217  0.0877
    1SOL    MW4 7584   1.250   2.624   2.625  0.1866  0.3130  0.1249
    1SOL     OW 7585   3.401   0.506   3.395 -0.0465  0.4869 -0.1554
    1SOL    HW2 7586   3.464   0.531   3.463 -0.2451  0.5560  0.0052
    1SOL    HW3 7587   3.447   0.442   3.341 -0.5315 -1.0013  1.1687
    1SOL    MW4 7588   3.416   0.501   3.397 -0.1366  0.2996  0.0405
    1SOL     OW 7589   2.510   4.434   1.367 -0.0351 -0.3717 -0.2424
    1SOL    HW2 7590   2.435   4.435   1.308  0.6147  1.1234 -1.0765
    1SOL    HW3 7591   2.510   4.346   1.404 -2.3640 -0.3115 -0.0018
    1SOL    MW4 7592   2.500   4.423   1.364 -0.2568 -0.1664 -0.3208
    1SOL     OW 7593   2.591   1.639   3.946  0.0804  0.2098 -0.6433
    1SOL    HW2 7594   2.607   1.651   3.852 -0.0487 -1.0288 -0.8361
    1SOL    HW3 7595   2.496   1.634   3.954  0.1360 -0.7976 -0.5919
    1SOL    MW4 7596   2.581   1.640   3.935  0.0706 -0.0865 -0.6616
    1SOL     OW 7597   1.590   4.353   1.153  0.2223  0.5723 -0.2695
    1SOL    HW2 7598   1.624   4.426   1.204  0.7659 -1.2276  2.0436
    1SOL    HW3 7599   1.503   4.336   1.190  0.3490 -0.3309 -0.3633
    1SOL    MW4 7600   1.583   4.360   1.165  0.3107  0.2155  0.0232
    1SOL     OW 7601   4.012   0.694   1.038  0.1657 -0.7871  0.7130
    1SOL    HW2 7602   4.033   0.610   0.998  0.6257 -0.3805  0.0869
    1SOL    HW3 7603   4.063   0.695   1.119  0.1455 -1.1228  0.7291
    1SOL    MW4 7604   4.021   0.683   1.044  0.2241 -0.7777  0.6324
    1SOL     OW 7605   3.799   0.336   1.830 -0.1602  0.1767  0.3058
    1SOL    HW2 7606   3.882   0.300   1.798 -0.0586  1.2824 -0.7140
    1SOL    HW3 7607   3.823   0.421   1.867 -0.8147  0.4252  0.1550
    1SOL    MW4 7608   3.813   0.343   1.831 -0.2332  0.3554  0.1513
    1SOL     OW 7609   1.382   0.696   2.289 -0.2768 -0.5604  0.3859
    1SOL    HW2 7610   1.445   0.662   2.353  0.4224 -0.0756 -0.0267
    1SOL    HW3 7611   1.420   0.780   2.262 -0.6181 -0.7139 -0.5867
    1SOL    MW4 7612   1.396   0.703   2.294 -0.2297 -0.5167  0.2034
    1SOL     OW 7613   0.979   1.996   4.566  0.0876  0.2719 -0.4148
    1SOL    HW2 7614   0.947   2.082   4.593 -1.4950 -0.2839 -0.4689
    1SOL    HW3 7615   0.978   1.944   4.647  0.2713  0.0752 -0.5391
    1SOL    MW4 7616   0.975   2.001   4.581 -0.0969  0.1726 -0.4377
    1SOL     OW 7617   0.370   2.775   4.168 -0.4730 -0.3110 -0.2034
    1SOL    HW2 7618   0.382   2.862   4.128 -0.9206 -0.3477 -0.4168
    1SOL    HW3 7619   0.309   2.730   4.110 -1.0125 -0.4226  0.4409
    1SOL    MW4 7620   0.364   2.781   4.155 -0.6032 -0.3304 -0.1469
    1SOL     OW 7621   1.991   1.862   3.773  0.3564 -0.1555 -0.0479
    1SOL    HW2 7622   1.938   1.784   3.758 -0.0725  0.1524 -0.1417
    1SOL    HW3 7623   1.964   1.893   3.859  1.1690 -0.6112  0.3890
    1SOL    MW4 7624   1.981   1.856   3.783  0.4071 -0.1751 -0.0026
    1SOL     OW 7625   0.853   0.006   2.499 -0.5664 -0.4921  0.4377
    1SOL    HW2 7626   0.801   0.002   2.419 -1.4347  0.1668  0.9648
    1SOL    HW3 7627   0.907   0.085   2.488 -0.7083 -0.3839  0.5077
    1SOL    MW4 7628   0.853   0.016   2.487 -0.6996 -0.3909  0.5167
    1SOL     OW 7629   0.853   1.926   3.830  0.3240 -0.4667  0.1089
    1SOL    HW2 7630   0.821   1.850   3.779  0.3306 -1.1381  1.0936
    1SOL    HW3 7631   0.819   1.911   3.918  1.1708  0.1719  0.5413
    1SOL    MW4 7632   0.844   1.914   3.835  0.4366 -0.4710  0.2956
    1SOL     OW 7633   1.307   2.788   0.876 -0.1120 -0.7023 -0.7858
    1SOL    HW2 7634   1.317   2.812   0.784  1.4731 -2.5944 -1.1696
    1SOL    HW3 7635   1.232   2.728   0.877 -0.1743 -0.6250 -0.8417
    1SOL    MW4 7636   1.299   2.783   0.864  0.0888 -0.9415 -0.8438
    1SOL     OW 7637   2.289   4.223   2.646  0.1313  0.4212  0.0935
    1SOL    HW2 7638   2.331   4.148   2.688  0.5210  0.4183 -0.2949
    1SOL    HW3 7639   2.271   4.284   2.717 -1.1656 -0.4977  0.5755
    1SOL    MW4 7640   2.292   4.221   2.661  0.0117  0.2999  0.1059
    1SOL     OW 7641   2.504   3.448   0.608 -0.0714  0.3441 -0.2103
    1SOL    HW2 7642   2.445   3.375   0.589 -1.1334  0.9100  0.8554
    1SOL    HW3 7643   2.537   3.429   0.696 -0.3815  1.1650  0.0829
    1SOL    MW4 7644   2.501   3.436   0.617 -0.2525  0.5271 -0.0311
    1SOL     OW 7645   1.825   1.353   0.736 -0.1718 -0.0114 -0.5720
    1SOL    HW2 7646   1.779   1.325   0.815  0.1653  0.4331 -0.2136
    1SOL    HW3 7647   1.774   1.317   0.664 -1.0127  0.3916 -0.1735
    1SOL    MW4 7648   1.812   1.344   0.737 -0.2384  0.1004 -0.4722
    1SOL     OW 7649   4.472   1.214   2.319 -0.4925 -0.6236 -0.0414
    1SOL    HW2 7650   4.428   1.240   2.238 -0.8256 -2.7915 -0.5778
    1SOL    HW3 7651   4.402   1.208   2.383 -0.4577 -0.5106  0.0077
    1SOL    MW4 7652   4.457   1.217   2.316 -0.5317 -0.8947 -0.1059
    1SOL     OW 7653   3.887   0.747   4.287  0.2203 -0.2893  0.4140
    1SOL    HW2 7654   3.858   0.825   4.239 -0.3180 -0.4798  0.4309
    1SOL    HW3 7655   3.905   0.682   4.219  2.2375  0.3562  0.2901
    1SOL    MW4 7656   3.886   0.749   4.272  0.4158 -0.2293  0.4001
    1SOL     OW 7657   2.293   3.171   1.837 -0.1909 -0.1602  0.2521
    1SOL    HW2 7658   2.318   3.127   1.918  0.0481 -1.4411 -0.5099
    1SOL    HW3 7659   2.316   3.110   1.767  3.0725  2.4313 -1.0957
    1SOL    MW4 7660   2.299   3.157   1.838  0.2711  0.0126 -0.0263
    1SOL     OW 7661   2.430   3.417   3.394 -0.2615 -0.7052 -0.5411
    1SOL    HW2 7662   2.439   3.338   3.448  0.5116  0.6162  1.3252
    1SOL    HW3 7663   2.485   3.401   3.318  3.2277 -0.3248  1.7892
    1SOL    MW4 7664   2.438   3.405   3.391  0.3006 -0.4807  0.0126
    1SOL     OW 7665   0.422   0.886   3.745 -0.0777 -0.2905 -0.0065
    1SOL    HW2 7666   0.384   0.800   3.724  1.2465 -0.8584 -0.1501
    1SOL    HW3 7667   0.385   0.909   3.830 -2.4117  0.1805 -1.0903
    1SOL    MW4 7668   0.412   0.877   3.753 -0.2109 -0.3033 -0.1683
    1SOL     OW 7669   2.062   0.065   3.663 -0.1059  0.0869  0.2310
    1SOL    HW2 7670   2.009   0.141   3.686  2.0025  1.4072  0.9389
    1SOL    HW3 7671   2.142   0.075   3.715  0.3727 -2.4427  0.0726
    1SOL    MW4 7672   2.066   0.076   3.673  0.2356 -0.0727  0.3035
    1SOL     OW 7673   1.435   0.804   4.465  0.6319  0.1960 -0.1072
    1SOL    HW2 7674   1.496   0.803   4.539 -0.4680  0.5100  0.8084
    1SOL    HW3 7675   1.406   0.895   4.460 -2.2693 -0.5797  1.5355
    1SOL    MW4 7676   1.440   0.816   4.474  0.1041  0.1351  0.2298
    1SOL     OW 7677   0.512   4.391   4.914 -0.2189  0.6638 -0.1088
    1SOL    HW2 7678   0.471   4.444   4.982 -1.8506 -2.5504  1.5157
    1SOL    HW3 7679   0.521   4.450   4.839 -0.6955  3.5605  2.0511
    1SOL    MW4 7680   0.508   4.406   4.913 -0.4971  0.6223  0.3910
    1SOL     OW 7681   2.234   2.907   3.269 -0.9586  0.0870  0.7752
    1SOL    HW2 7682   2.286   2.935   3.345 -0.1597 -1.0418  0.6478
    1SOL    HW3 7683   2.247   2.977   3.205  1.0403 -0.5343  0.4653
    1SOL    MW4 7684   2.242   2.920   3.270 -0.5896 -0.1440  0.7176
    1SOL     OW 7685   0.535   1.713   4.310  0.3773  0.6869  0.7881
    1SOL    HW2 7686   0.598   1.772   4.350  1.0390  0.4101  0.1625
    1SOL    HW3 7687   0.518   1.751   4.223 -1.0477  1.2879  1.3178
    1SOL    MW4 7688   0.541   1.726   4.304  0.2766  0.7296  0.7749
    1SOL     OW 7689   1.307   3.436   4.497  0.5739 -0.1236 -0.0292
    1SOL    HW2 7690   1.354   3.457   4.416 -0.0731  0.4518 -0.2641
    1SOL    HW3 7691   1.310   3.341   4.503 -0.0121 -0.2149 -1.1154
    1SOL    MW4 7692   1.314   3.426   4.487  0.4112 -0.0596 -0.2031
    1SOL     OW 7693   1.581   2.773   3.488  0.1756 -0.3446 -0.2267
    1SOL    HW2 7694   1.584   2.680   3.509  0.3606 -0.1131  0.7949
    1SOL    HW3 7695   1.527   2.812   3.556  1.0552  0.4677  0.0325
    1SOL    MW4 7696   1.575   2.766   3.499  0.3160 -0.2067 -0.0577
    1SOL     OW 7697   2.094   3.327   3.162 -0.2621  0.4379 -0.3832
    1SOL    HW2 7698   2.010   3.300   3.126 -0.7787  0.5175  0.7149
    1SOL    HW3 7699   2.086   3.422   3.172  0.3627  0.5853 -1.2826
    1SOL    MW4 7700   2.082   3.336   3.159 -0.2477  0.4680 -0.3572
    1SOL     OW 7701   1.899   0.788   2.694  0.4024  0.2814 -0.6532
    1SOL    HW2 7702   1.877   0.764   2.604  1.0107  1.4096 -1.1108
    1SOL    HW3 7703   1.839   0.736   2.748 -0.2042 -0.1377 -1.7184
    1SOL    MW4 7704   1.888   0.778   2.689  0.4027  0.3750 -0.8540
    1SOL     OW 7705   0.584   3.531   1.171 -0.1909  0.1257 -0.1917
    1SOL    HW2 7706   0.500   3.517   1.214  0.4289  0.2182  1.0834
    1SOL    HW3 7707   0.648   3.491   1.230  0.7540  0.9702 -0.6256
    1SOL    MW4 7708   0.582   3.524   1.184  0.0156  0.2491 -0.0807
    1SOL     OW 7709   0.618   1.445   3.176 -0.2139 -0.2958  0.4081
    1SOL    HW2 7710   0.629   1.534   3.209  1.1896  0.4119 -1.8374
    1SOL    HW3 7711   0.691   1.396   3.214  0.7480  0.2413 -0.7349
    1SOL    MW4 7712   0.629   1.450   3.185  0.0982 -0.1316 -0.0393
    1SOL     OW 7713   0.790   0.526   4.137  0.0170 -0.1306  0.1773
    1SOL    HW2 7714   0.789   0.489   4.225  0.0179 -1.1274 -0.2428
    1SOL    HW3 7715   0.846   0.467   4.086 -0.5778  0.0317 -0.6697
    1SOL    MW4 7716   0.797   0.514   4.142 -0.0615 -0.2407  0.0100
    1SOL     OW 7717   1.734   1.395   2.104 -0.0058 -0.1454 -0.2034
    1SOL    HW2 7718   1.821   1.394   2.063  0.4450  0.6613  0.7013
    1SOL    HW3 7719   1.682   1.454   2.050  0.3464  0.2666 -0.1000
    1SOL    MW4 7720   1.739   1.403   2.091  0.1000  0.0154 -0.0703
    1SOL     OW 7721   1.348   4.289   3.691  0.1237 -0.2359  0.0798
    1SOL    HW2 7722   1.332   4.304   3.598 -2.8829 -0.6316  0.4799
    1SOL    HW3 7723   1.346   4.194   3.702  0.6846 -0.2023  0.5358
    1SOL    MW4 7724   1.346   4.279   3.680 -0.1988 -0.2837  0.1926
    1SOL     OW 7725   0.269   2.206   1.027  0.3560  0.0887  0.0589
    1SOL    HW2 7726   0.245   2.257   1.104 -0.5339 -0.4246  0.1298
    1SOL    HW3 7727   0.198   2.142   1.018  1.2264 -0.8237 -0.3056
    1SOL    MW4 7728   0.256   2.204   1.036  0.3534 -0.0994  0.0200
    1SOL     OW 7729   1.266   4.516   0.744  0.2059  0.0241  0.2877
    1SOL    HW2 7730   1.309   4.590   0.787 -1.0676  1.0033 -0.0996
    1SOL    HW3 7731   1.172   4.533   0.755 -0.1035 -1.3273 -0.1624
    1SOL    MW4 7732   1.259   4.528   0.751 -0.0031 -0.0253  0.1772
    1SOL     OW 7733   2.024   2.669   4.529  0.0418  0.3189  0.0704
    1SOL    HW2 7734   2.032   2.592   4.585  0.6008  0.6878  0.4948
    1SOL    HW3 7735   1.931   2.693   4.534  0.2691  0.9442  1.6284
    1SOL    MW4 7736   2.013   2.662   4.537  0.1454  0.4499  0.3324
    1SOL     OW 7737   2.978   1.642   1.420 -0.3904  0.1508  0.2976
    1SOL    HW2 7738   2.936   1.606   1.342 -0.2151 -0.0348  0.2894
    1SOL    HW3 7739   2.909   1.695   1.462  0.0761  1.8233 -1.0064
    1SOL    MW4 7740   2.963   1.644   1.415 -0.3057  0.3469  0.1246
    1SOL     OW 7741   3.490   2.729   3.181  0.5558 -0.0698 -0.6852
    1SOL    HW2 7742   3.565   2.753   3.237  1.4554 -0.0491 -1.8737
    1SOL    HW3 7743   3.530   2.704   3.098 -0.5774 -2.9012 -0.4115
    1SOL    MW4 7744   3.505   2.729   3.177  0.5250 -0.4404 -0.8059
    1SOL     OW 7745   1.704   3.454   2.006 -0.3023  0.2452 -0.1538
    1SOL    HW2 7746   1.781   3.508   2.022  0.0724  0.3681 -2.3106
    1SOL    HW3 7747   1.676   3.477   1.918 -1.8600 -0.9643  0.0085
    1SOL    MW4 7748   1.711   3.464   1.997 -0.4584  0.1018 -0.4170
    1SOL     OW 7749   3.110   3.236   2.219  0.0948 -0.0025  0.0306
    1SOL    HW2 7750   3.017   3.220   2.204 -0.0868  2.5718 -1.9180
    1SOL    HW3 7751   3.150   3.226   2.133  1.7685 -1.9422  1.0183
    1SOL    MW4 7752   3.103   3.233   2.206  0.2916  0.0813 -0.0961
    1SOL     OW 7753   0.681   2.880   2.081 -0.3239  0.0957  0.5209
    1SOL    HW2 7754   0.690   2.975   2.075  0.2860  0.0626  0.9717
    1SOL    HW3 7755   0.752   2.852   2.138  0.1924 -0.7609 -0.5354
    1SOL    MW4 7756   0.691   2.889   2.087 -0.1753 -0.0215  0.4408
    1SOL     OW 7757   1.149   0.548   3.289  0.5072 -0.1794 -0.0685
    1SOL    HW2 7758   1.188   0.481   3.345  1.4703  0.5516  0.1477
    1SOL    HW3 7759   1.129   0.620   3.348  2.5563  1.0506 -0.8008
    1SOL    MW4 7760   1.152   0.549   3.304  0.9046  0.0793 -0.1364
    1SOL     OW 7761   2.461   1.261   3.036  0.0626  0.3674  0.3511
    1SOL    HW2 7762   2.449   1.294   3.125 -0.3219  0.4139  0.2838
    1SOL    HW3 7763   2.393   1.195   3.025  1.6425 -1.4065  0.9295
    1SOL    MW4 7764   2.451   1.257   3.047  0.2203  0.1395  0.4187
    1SOL     OW 7765   4.472   1.394   3.517 -0.4179 -0.4616  0.1658
    1SOL    HW2 7766   4.424   1.475   3.497 -1.1146 -0.9498 -0.1267
    1SOL    HW3 7767   4.479   1.394   3.613  0.8886  0.6936  0.0948
    1SOL    MW4 7768   4.467   1.405   3.527 -0.3376 -0.3735  0.1178
    1SOL     OW 7769   3.246   0.206   4.157  0.4349  0.1788 -0.4646
    1SOL    HW2 7770   3.252   0.137   4.223 -2.2095 -0.7186 -1.1073
    1SOL    HW3 7771   3.307   0.178   4.088  1.1953 -0.2448  0.3629
    1SOL    MW4 7772   3.255   0.193   4.157  0.1864  0.0045 -0.4401
    1SOL     OW 7773   2.287   0.531   1.084 -0.1389 -0.3433 -0.2559
    1SOL    HW2 7774   2.224   0.469   1.120  0.6228 -0.7043  0.4752
    1SOL    HW3 7775   2.276   0.526   0.989 -1.2675 -0.3376 -0.1249
    1SOL    MW4 7776   2.277   0.522   1.076 -0.1874 -0.3902 -0.1421
    1SOL     OW 7777   0.804   2.283   2.955  0.3896 -0.3583  0.0287
    1SOL    HW2 7778   0.894   2.288   2.921  0.2727  0.3445 -0.1920
    1SOL    HW3 7779   0.796   2.361   3.009 -0.6214  0.4366 -1.2504
    1SOL    MW4 7780   0.815   2.294   2.957  0.2408 -0.1607 -0.1693
    1SOL     OW 7781   2.133   4.242   1.740  0.3834  0.2854  0.3917
    1SOL    HW2 7782   2.142   4.314   1.678 -1.0681 -0.4149 -0.6735
    1SOL    HW3 7783   2.078   4.277   1.810 -1.9564 -0.3442 -1.0823
    1SOL    MW4 7784   2.127   4.256   1.741 -0.1166  0.1101  0.0566
    1SOL     OW 7785   3.908   2.570   4.489 -0.0205  0.0348  0.1556
    1SOL    HW2 7786   3.817   2.588   4.516 -0.1632  0.1888 -0.4357
    1SOL    HW3 7787   3.904   2.562   4.394  0.1315 -2.5646  0.3345
    1SOL    MW4 7788   3.895   2.571   4.480 -0.0191 -0.2875  0.1016
    1SOL     OW 7789   0.552   0.969   2.641  0.2521  0.1065 -0.2175
    1SOL    HW2 7790   0.486   1.021   2.595  0.4994  0.9072  0.3250
    1SOL    HW3 7791   0.633   1.018   2.629  0.8218 -1.0140 -1.1243
    1SOL    MW4 7792   0.554   0.982   2.633  0.3599  0.0644 -0.2654
    1SOL     OW 7793   0.932   0.648   1.053 -0.0822 -0.0538 -0.1677
    1SOL    HW2 7794   0.965   0.720   0.999  0.7867 -0.6738 -0.4694
    1SOL    HW3 7795   0.938   0.571   0.996  0.6476 -0.6729  0.7332
    1SOL    MW4 7796   0.937   0.647   1.038  0.1287 -0.2173 -0.0887
    1SOL     OW 7797   3.477   3.449   2.816  0.3050 -0.3812  0.5403
    1SOL    HW2 7798   3.473   3.542   2.841 -2.0821 -0.4845  0.6621
    1SOL    HW3 7799   3.501   3.451   2.723  1.6261  0.3036  0.8868
    1SOL    MW4 7800   3.479   3.462   2.807  0.1643 -0.3045  0.6020
    1SOL     OW 7801   0.819   4.584   4.025 -0.0696 -0.1176 -0.4633
    1SOL    HW2 7802   0.904   4.545   4.049  0.1199  1.5363  1.6997
    1SOL    HW3 7803   0.842   4.650   3.959  0.1975 -0.3706 -0.6289
    1SOL    MW4 7804   0.833   4.588   4.020 -0.0094  0.0672 -0.1998
    1SOL     OW 7805   2.701   0.173   2.279 -0.0023  0.1731 -0.1198
    1SOL    HW2 7806   2.771   0.190   2.216  0.0203  1.5943  0.2569
    1SOL    HW3 7807   2.681   0.260   2.316 -0.4912 -0.5379  1.3234
    1SOL    MW4 7808   2.707   0.187   2.275 -0.0639  0.2668  0.1204
    1SOL     OW 7809   4.388   2.858   1.004 -0.1983  0.0394 -0.0451
    1SOL    HW2 7810   4.452   2.900   1.062 -0.7115  1.2096 -0.3117
    1SOL    HW3 7811   4.439   2.829   0.929 -0.1769  2.2562 -0.9320
    1SOL    MW4 7812   4.403   2.860   1.002 -0.2632  0.4861 -0.1973
    1SOL     OW 7813   1.443   1.684   4.393 -0.2580 -0.1113 -0.5208
    1SOL    HW2 7814   1.392   1.604   4.408 -1.1091  0.5035 -0.0807
    1SOL    HW3 7815   1.381   1.755   4.411  0.7897  0.6416  0.1613
    1SOL    MW4 7816   1.428   1.683   4.398 -0.2321  0.0691 -0.3724
    1SOL     OW 7817   0.695   2.158   3.724 -0.7513 -0.0129 -0.6374
    1SOL    HW2 7818   0.745   2.077   3.735 -1.2221 -0.4218 -1.5494
    1SOL    HW3 7819   0.622   2.150   3.786 -0.6711 -0.1822 -0.5645
    1SOL    MW4 7820   0.692   2.146   3.734 -0.8028 -0.0889 -0.7482
    1SOL     OW 7821   4.143   0.385   3.576 -0.0937  0.4272  0.0251
    1SOL    HW2 7822   4.172   0.459   3.629 -1.5458  1.2225 -0.2525
    1SOL    HW3 7823   4.187   0.396   3.492 -1.3505  1.7724 -0.4876
    1SOL    MW4 7824   4.152   0.396   3.572 -0.4511  0.7096 -0.0792
    1SOL     OW 7825   3.269   3.105   3.809  0.2770  0.0729  0.0812
    1SOL    HW2 7826   3.340   3.159   3.843  0.4542 -0.4773  0.6019
    1SOL    HW3 7827   3.288   3.017   3.843 -0.4470 -0.1494 -0.0864
    1SOL    MW4 7828   3.281   3.100   3.818  0.2048 -0.0291  0.1278
    1SOL     OW 7829   1.399   3.709   4.195 -0.1318 -0.1344 -0.2129
    1SOL    HW2 7830   1.309   3.688   4.169 -0.3526 -1.6869  1.7397
    1SOL    HW3 7831   1.433   3.629   4.234  2.4033  0.1904 -1.6243
    1SOL    MW4 7832   1.391   3.696   4.197  0.1736 -0.2964 -0.1421
    1SOL     OW 7833   2.720   0.743   1.248  0.2166  0.3435 -0.2565
    1SOL    HW2 7834   2.693   0.799   1.175  0.9876  0.5288 -0.4104
    1SOL    HW3 7835   2.725   0.801   1.323 -0.9938  0.0673  0.0437
    1SOL    MW4 7836   2.717   0.758   1.248  0.1585  0.3315 -0.2372
    1SOL     OW 7837   4.051   0.964   0.656  0.2381  0.2080 -0.3616
    1SOL    HW2 7838   4.039   1.056   0.635 -0.5467  0.6699  1.8785
    1SOL    HW3 7839   4.146   0.954   0.668  0.3736  0.6084 -1.1048
    1SOL    MW4 7840   4.062   0.975   0.655  0.1526  0.3219 -0.1641
    1SOL     OW 7841   0.233   3.888   4.555  0.0586  0.2856  0.3941
    1SOL    HW2 7842   0.259   3.801   4.526 -1.2363 -0.1913  0.6274
    1SOL    HW3 7843   0.205   3.876   4.646  1.5461  1.2736  0.9996
    1SOL    MW4 7844   0.233   3.875   4.563  0.0840  0.3529  0.5045
    1SOL     OW 7845   2.778   3.631   1.790 -0.3873  0.2250 -0.6016
    1SOL    HW2 7846   2.777   3.617   1.695 -0.9384 -0.0187 -0.5633
    1SOL    HW3 7847   2.718   3.565   1.824 -0.0473  0.1927 -0.0631
    1SOL    MW4 7848   2.770   3.621   1.782 -0.4151  0.1886 -0.5255
    1SOL     OW 7849   4.274   0.857   1.567  0.0044  0.1028 -0.7209
    1SOL    HW2 7850   4.255   0.939   1.522  0.0562 -0.6345 -2.1001
    1SOL    HW3 7851   4.189   0.819   1.585 -0.0378  0.6501  0.3238
    1SOL    MW4 7852   4.261   0.863   1.563  0.0057  0.0777 -0.7652
    1SOL     OW 7853   1.000   0.249   2.433 -0.2973  0.3615 -0.3837
    1SOL    HW2 7854   1.062   0.206   2.374 -1.5920  1.6572 -2.7382
    1SOL    HW3 7855   1.056   0.296   2.495  1.0896 -1.8643  0.1452
    1SOL    MW4 7856   1.016   0.249   2.434 -0.2851  0.2388 -0.6242
    1SOL     OW 7857   1.091   4.610   1.462 -0.3566 -0.2734  0.1977
    1SOL    HW2 7858   1.140   4.576   1.537 -0.2764 -0.6757 -0.0311
    1SOL    HW3 7859   1.000   4.585   1.479 -0.4711  0.4306  0.5996
    1SOL    MW4 7860   1.085   4.602   1.474 -0.3611 -0.2332  0.2207
    1SOL     OW 7861   1.683   3.361   4.431 -0.3378 -0.1105  0.6817
    1SOL    HW2 7862   1.702   3.425   4.500  0.9612  0.5381 -0.2641
    1SOL    HW3 7863   1.769   3.330   4.403 -0.8239  0.0195 -1.0181
    1SOL    MW4 7864   1.697   3.365   4.437 -0.2306 -0.0079  0.3328
    1SOL     OW 7865   2.285   4.292   3.807  0.0928 -0.2669 -0.1763
    1SOL    HW2 7866   2.301   4.260   3.718  0.5636 -0.3605 -0.0616
    1SOL    HW3 7867   2.196   4.263   3.828  1.3533 -3.6864  0.8366
    1SOL    MW4 7868   2.276   4.284   3.798  0.3211 -0.7305 -0.0274
    1SOL     OW 7869   1.716   3.782   4.340  0.2295  0.4732 -0.2007
    1SOL    HW2 7870   1.712   3.721   4.414  1.2754 -0.4095 -0.8591
    1SOL    HW3 7871   1.626   3.811   4.329 -0.2898 -0.9347  0.1538
    1SOL    MW4 7872   1.704   3.777   4.348  0.2991  0.1707 -0.2408
    1SOL     OW 7873   2.328   2.291   2.210 -0.0026 -0.4001  0.3367
    1SOL    HW2 7874   2.387   2.217   2.217  1.5523  0.7183 -0.5475
    1SOL    HW3 7875   2.357   2.352   2.277 -0.7142 -0.2111  0.4796
    1SOL    MW4 7876   2.339   2.290   2.220  0.1085 -0.2275  0.2389
    1SOL     OW 7877   2.372   1.409   4.278  0.3034  0.4261  0.0090
    1SOL    HW2 7878   2.341   1.341   4.338  1.0209 -0.2774 -0.3986
    1SOL    HW3 7879   2.300   1.419   4.215  0.5770 -0.6569 -0.4916
    1SOL    MW4 7880   2.358   1.401   4.277  0.4342  0.1904 -0.1106
    1SOL     OW 7881   1.622   2.291   1.593 -0.2879  0.5171 -0.3164
    1SOL    HW2 7882   1.698   2.326   1.639  0.2733 -2.1127  0.8879
    1SOL    HW3 7883   1.552   2.353   1.611  0.7811  1.3050  1.2967
    1SOL    MW4 7884   1.623   2.304   1.602 -0.0728  0.2739  0.0553
    1SOL     OW 7885   1.399   0.308   1.454 -0.0557  0.1931  0.4220
    1SOL    HW2 7886   1.380   0.255   1.531 -0.6386 -1.0189 -0.5369
    1SOL    HW3 7887   1.402   0.245   1.382  1.0091  1.2371 -0.4696
    1SOL    MW4 7888   1.397   0.293   1.455  0.0080  0.1709  0.1779
    1SOL     OW 7889   4.275   2.726   3.815 -0.6713  0.0558 -0.1122
    1SOL    HW2 7890   4.189   2.687   3.830  0.2862 -2.2910 -0.5181
    1SOL    HW3 7891   4.322   2.660   3.764  1.4699  1.1916  0.3663
    1SOL    MW4 7892   4.270   2.712   3.810 -0.2623 -0.1042 -0.1028
    1SOL     OW 7893   3.000   2.481   0.325  0.9751 -0.1988 -0.4349
    1SOL    HW2 7894   2.912   2.481   0.362  1.3543  1.0655  0.5143
    1SOL    HW3 7895   2.986   2.477   0.230 -0.0722 -0.8342 -0.2613
    1SOL    MW4 7896   2.986   2.481   0.317  0.8872 -0.1161 -0.2868
    1SOL     OW 7897   1.165   3.415   1.123 -0.7351 -0.0439  0.7622
    1SOL    HW2 7898   1.070   3.408   1.135 -0.8213  0.2572  0.2613
    1SOL    HW3 7899   1.175   3.480   1.054 -0.1852 -0.6389  0.2788
    1SOL    MW4 7900   1.153   3.423   1.115 -0.6741 -0.0827  0.6323
    1SOL     OW 7901   4.468   3.924   1.950  0.4274 -0.4983 -0.1262
    1SOL    HW2 7902   4.407   3.875   1.895 -0.3675 -1.6448  1.7370
    1SOL    HW3 7903   4.412   3.982   2.002  1.2267  1.1013 -1.0151
    1SOL    MW4 7904   4.453   3.925   1.949  0.4282 -0.4389  0.0025
    1SOL     OW 7905   1.727   0.652   2.867  0.0205  0.1853  0.0395
    1SOL    HW2 7906   1.705   0.562   2.845  0.2634  0.5222 -1.6429
    1SOL    HW3 7907   1.644   0.694   2.887 -0.2155 -0.1034 -0.3480
    1SOL    MW4 7908   1.713   0.646   2.867  0.0215  0.1916 -0.2337
    1SOL     OW 7909   0.241   1.321   1.849 -0.3834  0.3728  0.5456
    1SOL    HW2 7910   0.240   1.315   1.944 -1.3086 -0.1208  0.5115
    1SOL    HW3 7911   0.317   1.376   1.829 -0.4521  0.8608  1.5862
    1SOL    MW4 7912   0.251   1.328   1.859 -0.5146  0.3719  0.6783
    1SOL     OW 7913   4.250   4.100   1.326  0.2102  0.2922  0.1261
    1SOL    HW2 7914   4.202   4.044   1.266  3.4840 -2.0784 -0.4574
    1SOL    HW3 7915   4.320   4.044   1.360  0.4493  2.5438  3.6182
    1SOL    MW4 7916   4.253   4.085   1.322  0.6738  0.2761  0.5100
    1SOL     OW 7917   1.311   4.167   4.307  0.0103  0.5547  0.5244
    1SOL    HW2 7918   1.245   4.154   4.375  0.1237  2.5579  1.0572
    1SOL    HW3 7919   1.263   4.153   4.225 -0.3091 -1.1049  0.9862
    1SOL    MW4 7920   1.296   4.164   4.305 -0.0168  0.6003  0.6557
    1SOL     OW 7921   4.152   2.009   4.659  0.2705 -0.4590  0.3737
    1SOL    HW2 7922   4.190   1.929   4.697  0.3160 -0.5894  0.0577
    1SOL    HW3 7923   4.113   2.055   4.733  1.6049 -0.0091  0.8059
    1SOL    MW4 7924   4.152   2.004   4.674  0.4520 -0.4168  0.3891
    1SOL     OW 7925   3.378   0.637   0.897 -0.3292 -0.1949 -0.1947
    1SOL    HW2 7926   3.455   0.580   0.908 -0.7918 -0.7438  0.2430
    1SOL    HW3 7927   3.324   0.618   0.974 -0.2281  1.2542  0.2380
    1SOL    MW4 7928   3.381   0.627   0.909 -0.3769 -0.0761 -0.0798
    1SOL     OW 7929   3.127   4.265   1.080 -0.0199 -0.1932 -0.0649
    1SOL    HW2 7930   3.097   4.339   1.133 -1.0049  0.2134 -1.1758
    1SOL    HW3 7931   3.088   4.280   0.994  0.7538 -1.3796 -0.6271
    1SOL    MW4 7932   3.118   4.277   1.076 -0.0479 -0.2966 -0.2856
    1SOL     OW 7933   3.425   4.092   4.220  0.1579  0.1449 -0.6046
    1SOL    HW2 7934   3.356   4.145   4.179 -1.0630 -1.3795 -0.5989
    1SOL    HW3 7935   3.497   4.153   4.236 -1.1208  1.7338 -0.8085
    1SOL    MW4 7936   3.425   4.107   4.217 -0.1717  0.1531 -0.6304
    1SOL     OW 7937   0.129   2.581   2.918  0.0659 -0.6777  0.0451
    1SOL    HW2 7938   0.146   2.669   2.950 -0.1770 -1.2130  1.6686
    1SOL    HW3 7939   0.085   2.594   2.834  1.2119  0.7323 -0.3550
    1SOL    MW4 7940   0.125   2.594   2.911  0.1851 -0.5624  0.2065
    1SOL     OW 7941   3.968   0.393   0.411  0.1942  0.6568  0.0446
    1SOL    HW2 7942   3.878   0.416   0.436 -0.2182 -0.0164 -0.8205
    1SOL    HW3 7943   4.017   0.475   0.424 -0.7077  1.2654 -0.3000
    1SOL    MW4 7944   3.962   0.407   0.416  0.0210  0.6483 -0.1150
    1SOL     OW 7945   0.902   3.829   2.802  0.7787 -0.2899  0.3966
    1SOL    HW2 7946   0.834   3.786   2.853  1.5577  0.4768  2.1239
    1SOL    HW3 7947   0.861   3.910   2.771  0.7191 -0.1324  0.8935
    1SOL    MW4 7948   0.888   3.834   2.805  0.8736 -0.1681  0.6902
    1SOL     OW 7949   4.361   0.992   0.603  0.7807 -0.3450  0.0632
    1SOL    HW2 7950   4.361   1.045   0.523 -0.8607  0.3998  0.5312
    1SOL    HW3 7951   4.451   0.996   0.634  0.7062  2.3000  0.1261
    1SOL    MW4 7952   4.373   1.000   0.597  0.5546  0.1022  0.1333
    1SOL     OW 7953   4.135   4.159   2.820  0.3044 -0.2792  0.1810
    1SOL    HW2 7954   4.228   4.179   2.809  0.4724 -0.7109  0.7350
    1SOL    HW3 7955   4.098   4.239   2.858  0.8244 -0.7370  1.7008
    1SOL    MW4 7956   4.143   4.172   2.824  0.3953 -0.3972  0.4549
    1SOL     OW 7957   3.734   2.790   1.740 -0.1806  0.3713 -0.3538
    1SOL    HW2 7958   3.703   2.718   1.796 -0.4845 -1.0039 -2.2239
    1SOL    HW3 7959   3.674   2.862   1.758 -2.2903 -1.1084 -1.2828
    1SOL    MW4 7960   3.722   2.790   1.750 -0.4990 -0.0055 -0.7231
    1SOL     OW 7961   3.637   2.554   0.810 -0.1089 -0.3029  0.2467
    1SOL    HW2 7962   3.686   2.476   0.836 -0.5168 -1.2517 -1.6830
    1SOL    HW3 7963   3.642   2.612   0.885 -1.4945 -2.9839  2.4802
    1SOL    MW4 7964   3.644   2.552   0.823 -0.3455 -0.7818  0.2868
    1SOL     OW 7965   2.699   1.153   3.116 -0.1552  0.5343  0.3414
    1SOL    HW2 7966   2.617   1.172   3.070  0.2034  1.4567  0.0797
    1SOL    HW3 7967   2.696   1.206   3.195 -0.1839 -0.0736  0.7549
    1SOL    MW4 7968   2.688   1.162   3.120 -0.1116  0.5757  0.3614
    1SOL     OW 7969   3.452   1.267   0.617  0.0265  0.4961  0.2553
    1SOL    HW2 7970   3.494   1.212   0.551  0.9246 -0.4867  1.6130
    1SOL    HW3 7971   3.521   1.285   0.681 -1.6182 -1.3215  2.6425
    1SOL    MW4 7972   3.467   1.262   0.617 -0.0722  0.1268  0.7493
    1SOL     OW 7973   3.121   3.571   2.953  0.1661  0.1870 -0.2956
    1SOL    HW2 7974   3.176   3.495   2.934 -0.6427 -0.2682 -0.8485
    1SOL    HW3 7975   3.036   3.551   2.912 -0.0782  1.3536 -0.3993
    1SOL    MW4 7976   3.117   3.559   2.945  0.0274  0.2809 -0.3824
    1SOL     OW 7977   2.191   2.041   3.924 -0.5204 -0.3223  0.1755
    1SOL    HW2 7978   2.263   2.020   3.984  0.0072  1.3300  0.1265
    1SOL    HW3 7979   2.112   2.009   3.970  0.2030 -2.0507  0.2658
    1SOL    MW4 7980   2.190   2.034   3.938 -0.3552 -0.3326  0.1810
    1SOL     OW 7981   2.861   2.908   3.919 -0.3141  0.2933 -0.3473
    1SOL    HW2 7982   2.774   2.872   3.937 -0.3323  1.4958  2.1717
    1SOL    HW3 7983   2.863   2.920   3.824 -2.7422 -0.1289 -0.4733
    1SOL    MW4 7984   2.850   2.905   3.908 -0.6368  0.3963 -0.0315
    1SOL     OW 7985   4.351   2.329   3.929 -0.1089 -0.3283 -0.4516
    1SOL    HW2 7986   4.306   2.271   3.990 -0.0472 -0.9110 -0.9504
    1SOL    HW3 7987   4.444   2.313   3.943 -0.0418  1.1576  0.8445
    1SOL    MW4 7988   4.357   2.319   3.939 -0.0916 -0.2089 -0.3464
    1SOL     OW 7989   4.407   4.276   0.828  0.1296 -0.8309  0.1982
    1SOL    HW2 7990   4.392   4.247   0.918  0.0622 -0.8484  0.1810
    1SOL    HW3 7991   4.353   4.217   0.775 -0.5420 -0.2249  0.2115
    1SOL    MW4 7992   4.398   4.264   0.833  0.0319 -0.7529  0.1976
    1SOL     OW 7993   4.460   0.535   4.023 -0.3510 -0.3134 -0.2466
    1SOL    HW2 7994   4.400   0.460   4.022  0.0320 -0.6412  0.8527
    1SOL    HW3 7995   4.403   0.612   4.024 -0.7455 -0.6028 -0.2388
    1SOL    MW4 7996   4.445   0.535   4.023 -0.3524 -0.3949 -0.1001
    1SOL     OW 7997   1.617   2.313   2.224 -0.1985 -0.2729  0.5028
    1SOL    HW2 7998   1.644   2.293   2.134 -1.2970 -3.0970  0.7783
    1SOL    HW3 7999   1.621   2.409   2.228  1.3853 -0.1640 -2.0629
    1SOL    MW4 8000   1.621   2.323   2.212 -0.1346 -0.6313  0.2010
    1SOL     OW 8001   2.029   1.402   1.563 -0.4565  0.1083  0.0493
    1SOL    HW2 8002   1.996   1.492   1.561 -3.1407 -0.7271  2.5388
    1SOL    HW3 8003   1.970   1.353   1.506  0.2949 -0.2931 -0.3920
    1SOL    MW4 8004   2.016   1.407   1.555 -0.7117 -0.0547  0.3194
    1SOL     OW 8005   4.009   2.611   1.119  0.1618  0.3116 -0.1473
    1SOL    HW2 8006   3.946   2.676   1.086 -2.1656 -2.3487 -1.1444
    1SOL    HW3 8007   4.091   2.659   1.126 -1.7600  3.6957  0.3721
    1SOL    MW4 8008   4.011   2.626   1.115 -0.3986  0.4070 -0.2103
    1SOL     OW 8009   4.283   4.556   2.256  0.3383 -0.2349  0.0176
    1SOL    HW2 8010   4.337   4.477   2.251  0.1773 -0.3602  0.2226
    1SOL    HW3 8011   4.293   4.598   2.171  0.7028 -0.2941  0.0315
    1SOL    MW4 8012   4.291   4.551   2.244  0.3648 -0.2594  0.0465
    1SOL     OW 8013   3.780   1.479   2.461 -0.0595 -0.0230 -0.4408
    1SOL    HW2 8014   3.769   1.405   2.401 -1.8957 -0.4233  0.3632
    1SOL    HW3 8015   3.804   1.552   2.404 -1.7205 -0.4046 -1.6836
    1SOL    MW4 8016   3.782   1.479   2.445 -0.5209 -0.1261 -0.4985
    1SOL     OW 8017   0.412   4.027   1.811 -0.3285 -0.1256  0.0481
    1SOL    HW2 8018   0.387   4.119   1.806 -1.4531 -0.4450 -0.4278
    1SOL    HW3 8019   0.506   4.027   1.794 -0.3584  0.9132 -0.1612
    1SOL    MW4 8020   0.421   4.039   1.808 -0.4808 -0.0305 -0.0423
    1SOL     OW 8021   3.607   0.840   3.427 -0.2604 -0.1364  0.0405
    1SOL    HW2 8022   3.539   0.856   3.493  1.4989 -0.1068  1.9028
    1SOL    HW3 8023   3.672   0.785   3.472  0.1235 -1.6255 -2.2378
    1SOL    MW4 8024   3.607   0.835   3.442  0.0222 -0.3290 -0.0145
    1SOL     OW 8025   1.620   4.237   3.072 -0.5263  0.0483  0.5430
    1SOL    HW2 8026   1.615   4.215   3.165 -2.7463 -0.7543  0.2526
    1SOL    HW3 8027   1.537   4.279   3.052 -0.2549 -0.2062 -1.1928
    1SOL    MW4 8028   1.609   4.239   3.081 -0.7834 -0.0911  0.2756
    1SOL     OW 8029   4.359   0.841   1.075 -0.7289  0.3889 -0.1974
    1SOL    HW2 8030   4.291   0.898   1.111  0.0268  1.0397  0.2055
    1SOL    HW3 8031   4.352   0.761   1.126 -1.7443  0.1281 -0.7158
    1SOL    MW4 8032   4.349   0.838   1.086 -0.7634  0.4403 -0.2126
    1SOL     OW 8033   0.139   3.500   4.238  0.7201  0.6661 -0.1955
    1SOL    HW2 8034   0.177   3.430   4.292 -0.2698  0.4448  0.2281
    1SOL    HW3 8035   0.159   3.581   4.285  1.5256  0.6455 -0.4873
    1SOL    MW4 8036   0.147   3.501   4.251  0.6958  0.6344 -0.1783
    1SOL     OW 8037   0.330   2.731   0.653 -0.5695 -0.0704 -0.2793
    1SOL    HW2 8038   0.360   2.665   0.716 -1.5895  0.9089  1.2418
    1SOL    HW3 8039   0.403   2.792   0.645 -0.4319 -0.2043 -0.0544
    1SOL    MW4 8040   0.344   2.730   0.660 -0.6860  0.0412 -0.0489
    1SOL     OW 8041   0.009   2.198   1.833  0.1859  0.2286  0.0936
    1SOL    HW2 8042  -0.048   2.229   1.763 -1.6281 -1.7919  0.6188
    1SOL    HW3 8043   0.066   2.133   1.790  1.3237  1.3928 -0.1832
    1SOL    MW4 8044   0.009   2.193   1.818  0.0968  0.1156  0.1264
    1SOL     OW 8045   1.320   2.314   1.850 -0.1318  0.0891 -0.0998
    1SOL    HW2 8046   1.229   2.342   1.841 -0.0127  0.2211 -0.9194
    1SOL    HW3 8047   1.317   2.219   1.839 -0.1123  0.1458 -0.6218
    1SOL    MW4 8048   1.307   2.305   1.847 -0.1136  0.1140 -0.2769
    1SOL     OW 8049   3.261   0.075   2.481 -0.9007  0.1493  0.2762
    1SOL    HW2 8050   3.177   0.109   2.512 -0.8858 -0.0660  0.5515
    1SOL    HW3 8051   3.250   0.065   2.386 -1.4685 -0.6774  0.4240
    1SOL    MW4 8052   3.249   0.078   2.472 -0.9735  0.0118  0.3316
    1SOL     OW 8053   4.090   4.468   3.225 -0.1307  0.0146  0.1737
    1SOL    HW2 8054   4.014   4.443   3.172 -0.1049  1.3612 -0.5086
    1SOL    HW3 8055   4.055   4.530   3.289  0.1898 -0.1943  0.5511
    1SOL    MW4 8056   4.075   4.473   3.226 -0.0849  0.1645  0.1330
    1SOL     OW 8057   2.529   2.157   1.684 -0.2272  0.4718 -0.3845
    1SOL    HW2 8058   2.600   2.120   1.736  0.2166  0.6748 -0.8421
    1SOL    HW3 8059   2.560   2.244   1.660 -0.7411  0.6591 -0.3675
    1SOL    MW4 8060   2.542   2.163   1.688 -0.2365  0.5233 -0.4425
    1SOL     OW 8061   3.175   2.254   2.196  0.5334 -0.5222  0.0783
    1SOL    HW2 8062   3.183   2.177   2.139 -0.1409 -1.2870  1.0091
    1SOL    HW3 8063   3.109   2.230   2.260  1.7157  0.1065  1.5633
    1SOL    MW4 8064   3.167   2.241   2.197  0.6003 -0.5403  0.3970
    1SOL     OW 8065   3.625   1.620   3.803  0.3864  0.0101 -0.1722
    1SOL    HW2 8066   3.593   1.646   3.889 -1.1001 -0.0869 -0.6820
    1SOL    HW3 8067   3.661   1.701   3.765  0.6355  0.1463  0.3473
    1SOL    MW4 8068   3.626   1.634   3.809  0.2232  0.0153 -0.1709
    1SOL     OW 8069   1.578   4.180   2.502  0.3856 -0.1807 -0.4240
    1SOL    HW2 8070   1.570   4.175   2.407  0.0332  3.5899 -0.6561
    1SOL    HW3 8071   1.670   4.200   2.518  0.1909  0.4084 -0.0310
    1SOL    MW4 8072   1.589   4.182   2.492  0.3134  0.3953 -0.4029
    1SOL     OW 8073   2.144   0.878   2.567 -0.2551  0.3641  0.5099
    1SOL    HW2 8074   2.127   0.855   2.476  0.9582 -0.6444  0.5306
    1SOL    HW3 8075   2.061   0.860   2.612 -0.1076 -1.6067  0.0603
    1SOL    MW4 8076   2.130   0.872   2.561 -0.0758 -0.0290  0.4535
    1SOL     OW 8077   1.309   1.351   3.921  0.0972  0.3824  0.4816
    1SOL    HW2 8078   1.276   1.366   4.010 -0.5742  0.3405  0.2346
    1SOL    HW3 8079   1.355   1.267   3.928  0.9120  0.8642  1.0284
    1SOL    MW4 8080   1.311   1.342   3.934  0.1161  0.4404  0.5212
    1SOL     OW 8081   3.988   2.355   3.907  0.7199 -0.1887  0.2755
    1SOL    HW2 8082   3.988   2.449   3.889 -0.4183 -0.2941 -0.3463
    1SOL    HW3 8083   4.037   2.346   3.989 -2.1540  1.3383  2.2565
    1SOL    MW4 8084   3.994   2.366   3.915  0.1907 -0.0007  0.4547
    1SOL     OW 8085   1.458   2.858   3.031  0.9770 -0.2569 -0.2769
    1SOL    HW2 8086   1.410   2.785   3.070  0.7879  1.1279  2.1684
    1SOL    HW3 8087   1.550   2.842   3.053  0.8479  0.6331  0.9594
    1SOL    MW4 8088   1.464   2.846   3.039  0.9351  0.0434  0.2089
    1SOL     OW 8089   0.178   4.431   1.254 -0.0595  0.3938 -0.7275
    1SOL    HW2 8090   0.107   4.463   1.198 -0.0327  0.3272 -0.8010
    1SOL    HW3 8091   0.134   4.396   1.331  0.0355  2.3015  0.1909
    1SOL    MW4 8092   0.163   4.430   1.256 -0.0435  0.6371 -0.6160
    1SOL     OW 8093   2.497   0.057   1.344 -0.2614  0.2251 -0.0204
    1SOL    HW2 8094   2.494   0.043   1.249 -2.1562 -0.1093  0.0608
    1SOL    HW3 8095   2.525  -0.028   1.379 -0.4452  0.0755 -0.2310
    1SOL    MW4 8096   2.500   0.044   1.336 -0.5360  0.1613 -0.0376
    1SOL     OW 8097   1.936   0.485   2.468 -0.1554 -0.0043 -0.0147
    1SOL    HW2 8098   2.027   0.501   2.442 -0.3332  0.4057 -0.3850
    1SOL    HW3 8099   1.943   0.427   2.543  0.4651  1.0373  0.7429
    1SOL    MW4 8100   1.949   0.479   2.474 -0.0972  0.1872  0.0365
    1SOL     OW 8101   4.429   3.499   3.051  0.2043 -0.1440 -0.5420
    1SOL    HW2 8102   4.382   3.415   3.056 -0.6793  0.4543  1.5457
    1SOL    HW3 8103   4.496   3.484   2.985 -1.8540 -1.5527 -2.4047
    1SOL    MW4 8104   4.431   3.486   3.043 -0.1841 -0.2511 -0.5124
    1SOL     OW 8105   4.266   3.790   4.186 -0.5351 -0.4473  0.4513
    1SOL    HW2 8106   4.277   3.695   4.180 -0.0631 -0.3905  0.3920
    1SOL    HW3 8107   4.331   3.818   4.251  0.4909  0.0427 -0.7740
    1SOL    MW4 8108   4.276   3.781   4.194 -0.3376 -0.3755  0.2818
    1SOL     OW 8109   3.231   1.504   2.422 -0.5311 -0.2067  0.5884
    1SOL    HW2 8110   3.303   1.554   2.383 -1.1372  0.1672 -0.0561
    1SOL    HW3 8111   3.230   1.533   2.514  0.7257 -0.9022  0.8414
    1SOL    MW4 8112   3.241   1.515   2.429 -0.4451 -0.2490  0.5364
    1SOL     OW 8113   1.944   3.266   4.331  0.4406 -0.2600 -0.0443
    1SOL    HW2 8114   2.016   3.328   4.342 -0.2485  0.3220  1.1960
    1SOL    HW3 8115   1.970   3.190   4.384  1.5517 -1.3049 -2.0071
    1SOL    MW4 8116   1.957   3.264   4.339  0.4961 -0.3211 -0.1392
    1SOL     OW 8117   0.366   3.589   3.199 -0.2998 -0.1791 -0.1799
    1SOL    HW2 8118   0.272   3.581   3.214 -0.5260  0.9570 -0.9630
    1SOL    HW3 8119   0.374   3.639   3.118  0.9763 -1.2514 -0.7393
    1SOL    MW4 8120   0.355   3.595   3.191 -0.1613 -0.1705 -0.3572
    1SOL     OW 8121   0.147   0.806   0.975 -0.0612  0.2049  0.5266
    1SOL    HW2 8122   0.061   0.823   1.013  0.0712 -1.1322  1.4591
    1SOL    HW3 8123   0.144   0.848   0.889 -1.6298  0.1885  0.5572
    1SOL    MW4 8124   0.135   0.814   0.969 -0.2507  0.0263  0.6537
    1SOL     OW 8125   1.877   2.989   2.977  0.2118  0.8753 -0.2752
    1SOL    HW2 8126   1.893   3.073   3.020  1.4407  0.6261 -0.2234
    1SOL    HW3 8127   1.922   2.995   2.893  1.0345 -0.0215  0.0790
    1SOL    MW4 8128   1.885   3.001   2.972  0.4826  0.7241 -0.2217
    1SOL     OW 8129   0.756   1.887   2.974  0.0864 -0.0887 -0.1641
    1SOL    HW2 8130   0.674   1.877   3.022 -0.3953  1.9518 -0.5034
    1SOL    HW3 8131   0.811   1.940   3.032  0.9706 -0.9812 -0.1780
    1SOL    MW4 8132   0.753   1.893   2.988  0.1395  0.0627 -0.2108
    1SOL     OW 8133   0.663   3.850   4.612 -0.5260 -0.1323 -0.1521
    1SOL    HW2 8134   0.729   3.883   4.551  1.5262  2.4405  3.2871
    1SOL    HW3 8135   0.603   3.923   4.624  0.0055 -0.0407  2.0935
    1SOL    MW4 8136   0.664   3.864   4.605 -0.1852  0.2193  0.5975
    1SOL     OW 8137   0.634   2.328   1.478  0.0125 -0.4737 -0.0483
    1SOL    HW2 8138   0.623   2.352   1.570 -1.0015 -0.1640 -0.2345
    1SOL    HW3 8139   0.677   2.404   1.439 -0.9458  0.0385 -0.1323
    1SOL    MW4 8140   0.638   2.341   1.485 -0.2477 -0.3653 -0.0839
    1SOL     OW 8141   2.752   2.277   2.182 -0.2412 -0.0593 -0.1322
    1SOL    HW2 8142   2.792   2.338   2.120  1.4783 -0.6363  0.3850
    1SOL    HW3 8143   2.696   2.331   2.237  2.6869  1.3954  1.5337
    1SOL    MW4 8144   2.750   2.292   2.181  0.3722  0.0563  0.1559
    1SOL     OW 8145   1.716   0.366   3.083 -0.0838  0.2370  0.1628
    1SOL    HW2 8146   1.792   0.423   3.072 -0.4623  0.7399  0.1605
    1SOL    HW3 8147   1.643   0.425   3.099 -0.3597 -0.2784  0.8339
    1SOL    MW4 8148   1.716   0.381   3.083 -0.1701  0.2354  0.2515
    1SOL     OW 8149   3.303   1.878   0.566 -0.3882  0.5951  0.2127
    1SOL    HW2 8150   3.246   1.802   0.576 -0.1272  0.1746 -1.2728
    1SOL    HW3 8151   3.253   1.951   0.602 -0.3027 -0.4087  2.3920
    1SOL    MW4 8152   3.289   1.878   0.572 -0.3424  0.4071  0.3042
    1SOL     OW 8153   0.128   0.879   1.630  0.0163 -0.4203  0.1422
    1SOL    HW2 8154   0.172   0.834   1.558  0.8422  0.7898 -0.1170
    1SOL    HW3 8155   0.108   0.809   1.693  0.6665 -1.2495 -0.5611
    1SOL    MW4 8156   0.131   0.864   1.629  0.2111 -0.3701  0.0151
    1SOL     OW 8157   0.726   3.197   2.864  0.2498  0.0564 -0.1468
    1SOL    HW2 8158   0.733   3.126   2.929  0.0401 -1.1872 -1.4482
    1SOL    HW3 8159   0.793   3.175   2.799  1.1875  1.8740  0.1857
    1SOL    MW4 8160   0.736   3.184   2.864  0.3459  0.1321 -0.2747
    1SOL     OW 8161   0.903   0.440   0.836 -0.3602 -0.3104  0.0030
    1SOL    HW2 8162   0.816   0.474   0.817  0.0412 -0.4018 -2.1309
    1SOL    HW3 8163   0.888   0.357   0.881 -1.3507  0.1453  0.5202
    1SOL    MW4 8164   0.890   0.434   0.839 -0.4380 -0.2623 -0.2102
    1SOL     OW 8165   2.417   1.580   1.717  0.0491  0.3063 -0.0788
    1SOL    HW2 8166   2.501   1.624   1.702  0.4259 -0.7324 -1.1373
    1SOL    HW3 8167   2.370   1.591   1.634 -0.8046  0.7580  0.4662
    1SOL    MW4 8168   2.422   1.588   1.704 -0.0138  0.2289 -0.1466
    1SOL     OW 8169   1.631   3.295   3.672 -0.1763 -0.4095 -0.1584
    1SOL    HW2 8170   1.663   3.332   3.754 -1.3549 -0.7527  0.4786
    1SOL    HW3 8171   1.554   3.244   3.698 -0.8819 -0.0766 -1.5518
    1SOL    MW4 8172   1.625   3.293   3.686 -0.4250 -0.4106 -0.2582
    1SOL     OW 8173   2.234   0.842   4.599  0.4440 -0.7218  0.2951
    1SOL    HW2 8174   2.284   0.850   4.680  0.5612 -1.4713  0.3031
    1SOL    HW3 8175   2.286   0.888   4.533 -0.2234  0.9019  0.8823
    1SOL    MW4 8176   2.247   0.849   4.601  0.3717 -0.6064  0.3743
    1SOL     OW 8177   2.242   2.533   4.077 -0.1530  0.6025  0.3642
    1SOL    HW2 8178   2.295   2.469   4.028 -2.2921 -1.7950  1.0479
    1SOL    HW3 8179   2.296   2.555   4.153  1.1792  0.6600 -0.5783
    1SOL    MW4 8180   2.256   2.527   4.081 -0.2596  0.2935  0.3295
    1SOL     OW 8181   0.081   2.330   2.109  0.7153 -0.0105 -0.3829
    1SOL    HW2 8182   0.046   2.271   2.042  0.4560  0.6206 -0.7996
    1SOL    HW3 8183   0.078   2.279   2.190  0.3913 -0.5321 -0.7245
    1SOL    MW4 8184   0.076   2.315   2.111  0.6383  0.0038 -0.4828
    1SOL     OW 8185   1.454   3.844   1.621  0.1532 -0.0282 -0.1313
    1SOL    HW2 8186   1.541   3.827   1.585  1.2178  0.8471  1.9131
    1SOL    HW3 8187   1.452   3.794   1.703 -0.2774  2.0305  1.1479
    1SOL    MW4 8188   1.465   3.835   1.627  0.2369  0.3588  0.3073
    1SOL     OW 8189   2.523   2.085   2.877  0.2138 -0.8228  0.3189
    1SOL    HW2 8190   2.572   2.128   2.947 -0.2770 -1.0057  0.7875
    1SOL    HW3 8191   2.557   1.996   2.875 -0.8359 -1.2714  1.3902
    1SOL    MW4 8192   2.534   2.079   2.886  0.0103 -0.9058  0.5219
    1SOL     OW 8193   1.408   1.116   1.020 -0.0828  0.0185 -0.0979
    1SOL    HW2 8194   1.399   1.136   0.927  1.4089  3.2592  0.3464
    1SOL    HW3 8195   1.319   1.116   1.054 -0.4716  1.6052 -1.0582
    1SOL    MW4 8196   1.395   1.119   1.012  0.0627  0.6554 -0.1661
    1SOL     OW 8197   3.279   3.310   4.753 -0.3047 -0.2818  0.1047
    1SOL    HW2 8198   3.238   3.226   4.734  0.9051 -0.9408  0.3079
    1SOL    HW3 8199   3.243   3.336   4.838 -0.3326 -0.8225  0.2574
    1SOL    MW4 8200   3.269   3.302   4.762 -0.1485 -0.4401  0.1516
    1SOL     OW 8201   1.687   1.777   1.000 -0.2146  0.2966  0.4679
    1SOL    HW2 8202   1.768   1.734   0.971 -0.5558  0.0363 -0.1094
    1SOL    HW3 8203   1.651   1.815   0.920 -0.4739  0.7325  0.7921
    1SOL    MW4 8204   1.693   1.776   0.986 -0.2939  0.3198  0.4346
    1SOL     OW 8205   1.997   2.041   3.567 -0.3341 -0.5775  0.1725
    1SOL    HW2 8206   2.025   2.126   3.602 -2.1925  0.1749 -0.0972
    1SOL    HW3 8207   1.998   1.982   3.643  0.0832 -0.0738  0.5600
    1SOL    MW4 8208   2.000   2.045   3.582 -0.5243 -0.4120  0.1879
    1SOL     OW 8209   0.635   4.302   2.385 -0.1346 -0.3156  0.3821
    1SOL    HW2 8210   0.716   4.342   2.417 -0.2371 -0.6933  1.1060
    1SOL    HW3 8211   0.638   4.316   2.290 -0.4261  1.9311  0.6660
    1SOL    MW4 8212   0.646   4.309   2.376 -0.1866 -0.0691  0.5147
    1SOL     OW 8213   2.815   2.286   2.557  0.5502  0.0172  0.1916
    1SOL    HW2 8214   2.738   2.229   2.560  1.1654 -0.8526 -0.3004
    1SOL    HW3 8215   2.873   2.246   2.492  0.7678  1.5135 -0.5719
    1SOL    MW4 8216   2.813   2.273   2.549  0.6599  0.0999  0.0262
    1SOL     OW 8217   0.771   1.460   1.215 -0.1723  0.1258 -0.4446
    1SOL    HW2 8218   0.794   1.543   1.173 -2.1353  1.4119  0.9222
    1SOL    HW3 8219   0.794   1.473   1.307 -1.9611 -0.2429  0.0732
    1SOL    MW4 8220   0.777   1.473   1.222 -0.6673  0.2469 -0.1959
    1SOL     OW 8221   0.706   0.881   3.670  0.0963 -0.6306 -0.2986
    1SOL    HW2 8222   0.727   0.968   3.635  1.1555 -0.1833  1.3648
    1SOL    HW3 8223   0.610   0.881   3.679  0.0722  0.2993 -0.4975
    1SOL    MW4 8224   0.696   0.892   3.667  0.2329 -0.4489 -0.1056
    1SOL     OW 8225   4.462   0.642   1.462  0.5169 -0.1666 -0.1744
    1SOL    HW2 8226   4.444   0.583   1.535  2.3294 -0.1349  0.3412
    1SOL    HW3 8227   4.397   0.712   1.471 -0.4583 -1.1249  0.3020
    1SOL    MW4 8228   4.451   0.644   1.473  0.6275 -0.2888 -0.0435
    1SOL     OW 8229   4.464   4.150   3.760  0.2371  0.3738 -0.7117
    1SOL    HW2 8230   4.532   4.199   3.806 -0.2938 -0.5555  1.1049
    1SOL    HW3 8231   4.438   4.081   3.821 -1.6190  0.0877 -1.7772
    1SOL    MW4 8232   4.470   4.147   3.774 -0.0782  0.2131 -0.6127
    1SOL     OW 8233   2.961   0.705   3.704 -0.0555  0.3335 -0.2066
    1SOL    HW2 8234   2.899   0.632   3.705  1.2733 -0.8285  2.2265
    1SOL    HW3 8235   2.909   0.782   3.724 -1.5839  0.1944 -3.3387
    1SOL    MW4 8236   2.946   0.705   3.706 -0.0820  0.1619 -0.2987
    1SOL     OW 8237   4.265   4.329   1.823  0.0927 -0.1300 -0.1949
    1SOL    HW2 8238   4.176   4.296   1.834 -0.4301  1.0055 -1.0041
    1SOL    HW3 8239   4.304   4.270   1.758  0.6115 -1.8913  1.6622
    1SOL    MW4 8240   4.258   4.317   1.816  0.0920 -0.2122 -0.0565
    1SOL     OW 8241   1.700   0.484   4.099 -0.1316  0.3300  0.6516
    1SOL    HW2 8242   1.614   0.527   4.093 -0.0634  0.8723  3.0027
    1SOL    HW3 8243   1.689   0.420   4.170  1.1484 -0.2639  0.3190
    1SOL    MW4 8244   1.687   0.481   4.108  0.0463  0.3231  0.9184
    1SOL     OW 8245   4.321   3.289   3.369 -0.2475  0.2651 -0.2316
    1SOL    HW2 8246   4.228   3.298   3.390 -0.4841 -2.5900  0.1316
    1SOL    HW3 8247   4.365   3.296   3.453 -0.3235 -0.4150 -0.1287
    1SOL    MW4 8248   4.314   3.291   3.383 -0.2890 -0.2012 -0.1700
    1SOL     OW 8249   3.350   4.282   3.097 -0.2368  0.0614  0.1726
    1SOL    HW2 8250   3.290   4.308   3.167 -0.5808 -2.6135  0.9557
    1SOL    HW3 8251   3.293   4.256   3.025  0.0588  0.4006 -0.1836
    1SOL    MW4 8252   3.335   4.282   3.097 -0.2432 -0.2470  0.2289
    1SOL     OW 8253   4.384   4.143   3.262  0.5747 -0.6501  0.5921
    1SOL    HW2 8254   4.433   4.076   3.310  1.2327 -0.7345 -0.1954
    1SOL    HW3 8255   4.432   4.224   3.279  1.2765 -0.8122 -0.5792
    1SOL    MW4 8256   4.397   4.145   3.271  0.7539 -0.6824  0.3340
    1SOL     OW 8257   0.168   3.432   1.757  0.3576  0.0385  0.1915
    1SOL    HW2 8258   0.223   3.441   1.679  0.5260  0.2866  0.3398
    1SOL    HW3 8259   0.078   3.426   1.722  0.3376  1.2215  0.0336
    1SOL    MW4 8260   0.163   3.432   1.742  0.3771  0.2272  0.1901
    1SOL     OW 8261   4.045   3.009   3.208  0.3668  0.3045 -0.4777
    1SOL    HW2 8262   4.015   2.984   3.296  1.7904 -1.3762 -0.4666
    1SOL    HW3 8263   3.968   2.994   3.152 -0.3025  0.6258  0.3337
    1SOL    MW4 8264   4.031   3.004   3.212  0.4663  0.1252 -0.3693
    1SOL     OW 8265   0.401   0.631   0.317  0.5445 -0.3787  0.4778
    1SOL    HW2 8266   0.363   0.669   0.238 -1.4125 -0.7360  1.2261
    1SOL    HW3 8267   0.336   0.568   0.347  1.3249 -0.3394  2.3174
    1SOL    MW4 8268   0.387   0.628   0.311  0.3892 -0.4207  0.8192
    1SOL     OW 8269   0.811   2.035   2.688  0.2648  0.2294 -0.2817
    1SOL    HW2 8270   0.781   1.944   2.685 -0.5377  0.5257 -1.3053
    1SOL    HW3 8271   0.746   2.079   2.743 -0.5362  0.6250 -1.5345
    1SOL    MW4 8272   0.799   2.028   2.695  0.0533  0.3209 -0.5820
    1SOL     OW 8273   3.850   4.397   2.281 -0.0100  0.3053  0.2399
    1SOL    HW2 8274   3.904   4.319   2.276 -0.2208  0.2075 -0.4393
    1SOL    HW3 8275   3.912   4.467   2.304  0.2088 -0.0145  0.6421
    1SOL    MW4 8276   3.865   4.396   2.284 -0.0093  0.2503  0.2031
    1SOL     OW 8277   0.578   4.168   2.968  0.3813 -0.3550  0.2162
    1SOL    HW2 8278   0.512   4.160   2.899  1.4661 -0.4916 -0.8308
    1SOL    HW3 8279   0.555   4.248   3.014  0.2333  0.2904 -0.9618
    1SOL    MW4 8280   0.566   4.177   2.965  0.5049 -0.2880 -0.0775
    1SOL     OW 8281   3.047   1.284   1.318  0.3189 -0.4273 -0.6688
    1SOL    HW2 8282   3.015   1.195   1.302 -0.1332 -0.5644  0.9282
    1SOL    HW3 8283   2.978   1.340   1.281 -1.1514 -0.7307  1.5345
    1SOL    MW4 8284   3.033   1.280   1.311  0.0656 -0.4853 -0.1675
    1SOL     OW 8285   3.551   1.095   0.389 -0.0546  0.7804  0.0423
    1SOL    HW2 8286   3.624   1.036   0.410 -2.0744 -2.0143 -0.5701
    1SOL    HW3 8287   3.573   1.130   0.303  1.2380  1.0929  0.4799
    1SOL    MW4 8288   3.564   1.092   0.380 -0.1504  0.4529  0.0193
    1SOL     OW 8289   3.064   0.362   3.045 -0.0941 -0.6181  0.1353
    1SOL    HW2 8290   3.074   0.343   3.139 -1.2917 -0.4045  0.3105
    1SOL    HW3 8291   3.030   0.451   3.042 -2.0571 -1.3510 -0.4207
    1SOL    MW4 8292   3.061   0.371   3.057 -0.5112 -0.6866  0.0851
    1SOL     OW 8293   0.541   2.158   4.516 -0.1946  0.0506  0.1273
    1SOL    HW2 8294   0.522   2.146   4.423 -1.0887 -0.3220  0.3525
    1SOL    HW3 8295   0.479   2.101   4.561 -0.6669  1.2337  1.0149
    1SOL    MW4 8296   0.531   2.149   4.510 -0.3749  0.1576  0.2742
    1SOL     OW 8297   3.941   4.061   1.699 -0.0907 -0.6862 -0.0330
    1SOL    HW2 8298   3.994   4.005   1.643  0.7461 -1.6133  1.6247
    1SOL    HW3 8299   3.876   4.100   1.641  1.8370 -0.2450 -1.9345
    1SOL    MW4 8300   3.940   4.059   1.684  0.2742 -0.7501 -0.0653
    1SOL     OW 8301   0.974   1.915   1.795  0.1692 -0.4870 -0.0690
    1SOL    HW2 8302   0.939   1.837   1.838 -1.4619 -0.3826 -1.1569
    1SOL    HW3 8303   0.988   1.977   1.867  1.3126 -1.6880  0.7850
    1SOL    MW4 8304   0.971   1.913   1.811  0.1048 -0.6317 -0.0998
    1SOL     OW 8305   3.243   0.092   3.619 -0.0455 -0.0001 -0.2787
    1SOL    HW2 8306   3.335   0.117   3.620  0.2462 -1.0377 -0.7546
    1SOL    HW3 8307   3.235   0.025   3.688 -0.0935 -1.0927 -1.3257
    1SOL    MW4 8308   3.254   0.086   3.628 -0.0134 -0.2812 -0.4795
    1SOL     OW 8309   1.183   4.181   2.859 -0.1148 -0.0749  0.0486
    1SOL    HW2 8310   1.182   4.240   2.934 -0.2542 -0.5829  0.4553
    1SOL    HW3 8311   1.256   4.211   2.805 -0.1984  0.4748  0.2399
    1SOL    MW4 8312   1.192   4.192   2.862 -0.1442 -0.0691  0.1276
    1SOL     OW 8313   2.206   1.903   4.549 -0.0426 -0.0583 -0.0485
    1SOL    HW2 8314   2.119   1.863   4.549 -0.4340  0.7731 -0.5294
    1SOL    HW3 8315   2.267   1.829   4.552 -0.7680 -0.6383  0.4660
    1SOL    MW4 8316   2.203   1.888   4.549 -0.1900 -0.0250 -0.0443
    1SOL     OW 8317   0.568   1.588   0.938 -0.8216  0.2513 -0.3557
    1SOL    HW2 8318   0.564   1.493   0.941 -0.0597  0.2560  0.7205
    1SOL    HW3 8319   0.628   1.613   1.008  1.5365  1.3461 -2.6697
    1SOL    MW4 8320   0.576   1.579   0.947 -0.4099  0.3964 -0.5190
    1SOL     OW 8321   1.442   3.721   2.590 -0.0640 -0.1793  0.5898
    1SOL    HW2 8322   1.407   3.690   2.673  0.6303 -0.1645  0.8939
    1SOL    HW3 8323   1.514   3.780   2.614  1.4640 -1.7369 -0.0229
    1SOL    MW4 8324   1.447   3.725   2.604  0.2292 -0.3831  0.5488
    1SOL     OW 8325   4.114   2.388   4.142 -0.2444  0.0128 -0.3843
    1SOL    HW2 8326   4.192   2.424   4.184  1.1597 -2.2795 -0.9379
    1SOL    HW3 8327   4.092   2.312   4.196  0.1283 -1.5237 -2.3620
    1SOL    MW4 8328   4.121   2.383   4.155 -0.0100 -0.4926 -0.7186
    1SOL     OW 8329   3.701   2.922   4.500 -0.4871 -0.0894 -1.1843
    1SOL    HW2 8330   3.617   2.964   4.513 -0.6189 -0.5818 -0.4173
    1SOL    HW3 8331   3.760   2.966   4.562 -1.0298 -2.1794  0.9056
    1SOL    MW4 8332   3.698   2.933   4.510 -0.5763 -0.4301 -0.8073
    1SOL     OW 8333   1.992   0.614   1.401 -0.5565  0.0141  0.7284
    1SOL    HW2 8334   1.921   0.585   1.342 -0.6299 -0.8223  1.2185
    1SOL    HW3 8335   1.963   0.587   1.488 -0.2959  0.9665  1.1117
    1SOL    MW4 8336   1.979   0.607   1.404 -0.5319  0.0294  0.8436
    1SOL     OW 8337   1.060   2.269   2.882  0.3252  0.1000 -0.7355
    1SOL    HW2 8338   1.074   2.286   2.789  1.1517  1.4968 -0.3727
    1SOL    HW3 8339   1.083   2.177   2.894  1.0077  0.1311 -1.7691
    1SOL    MW4 8340   1.065   2.259   2.872  0.5244  0.2882 -0.8240
    1SOL     OW 8341   0.863   0.935   3.905  0.1961 -0.0662 -0.1179
    1SOL    HW2 8342   0.814   0.886   3.971  0.0715  0.3869  0.1308
    1SOL    HW3 8343   0.823   0.910   3.822  0.2331 -0.4993 -0.0099
    1SOL    MW4 8344   0.851   0.925   3.903  0.1845 -0.0636 -0.0710
    1SOL     OW 8345   1.604   2.102   1.087  0.4590  0.2535  0.4341
    1SOL    HW2 8346   1.553   2.023   1.103 -1.3327  1.2625 -0.1944
    1SOL    HW3 8347   1.594   2.154   1.167  1.0239  0.1727  0.5588
    1SOL    MW4 8348   1.596   2.099   1.100  0.2972  0.3760  0.3679
    1SOL     OW 8349   3.794   2.533   3.646  0.5399  0.2499 -0.6240
    1SOL    HW2 8350   3.736   2.458   3.633  1.0965  0.0669 -2.1297
    1SOL    HW3 8351   3.747   2.607   3.607  1.3614  0.0682 -2.0048
    1SOL    MW4 8352   3.780   2.533   3.639  0.7215  0.2017 -1.0049
    1SOL     OW 8353   0.523   2.780   2.873  0.2577 -0.3423  0.1525
    1SOL    HW2 8354   0.494   2.690   2.882  0.6796 -0.4509  0.4297
    1SOL    HW3 8355   0.523   2.815   2.962  2.0536 -0.6845  0.2957
    1SOL    MW4 8356   0.519   2.773   2.886  0.5503 -0.4017  0.2079
    1SOL     OW 8357   2.676   2.614   3.719 -0.1207  0.2299  0.4363
    1SOL    HW2 8358   2.763   2.582   3.742 -0.3420  0.1893  1.2494
    1SOL    HW3 8359   2.681   2.634   3.626  1.2599  1.8538  0.8249
    1SOL    MW4 8360   2.688   2.613   3.710  0.0322  0.4389  0.5946
    1SOL     OW 8361   0.454   3.395   4.135  0.1739 -0.0566  0.0518
    1SOL    HW2 8362   0.386   3.415   4.199  0.3028  0.4620  0.0361
    1SOL    HW3 8363   0.529   3.366   4.188 -0.0190 -0.5008  0.0779
    1SOL    MW4 8364   0.455   3.394   4.151  0.1655 -0.0467  0.0539
    1SOL     OW 8365   1.446   0.036   2.220 -0.3498  0.0463 -0.3767
    1SOL    HW2 8366   1.526   0.073   2.257 -1.6542  1.0703  1.5095
    1SOL    HW3 8367   1.437   0.078   2.134  1.7330 -0.9611 -1.1129
    1SOL    MW4 8368   1.455   0.047   2.214 -0.2471  0.0485 -0.2253
    1SOL     OW 8369   0.852   3.607   4.322  0.0429  0.2943 -0.3118
    1SOL    HW2 8370   0.822   3.540   4.261  0.4209 -0.1644 -0.0029
    1SOL    HW3 8371   0.917   3.562   4.376 -1.5340  0.1931  1.5839
    1SOL    MW4 8372   0.857   3.592   4.321 -0.1153  0.2203 -0.0210
    1SOL     OW 8373   2.189   0.276   0.866  0.1744 -0.3920 -0.2065
    1SOL    HW2 8374   2.212   0.359   0.825  1.6879 -0.9807 -0.5652
    1SOL    HW3 8375   2.139   0.301   0.944 -0.0627  0.8227 -0.7372
    1SOL    MW4 8376   2.185   0.290   0.871  0.3426 -0.3094 -0.3238
    1SOL     OW 8377   3.886   2.325   2.140 -0.1341 -0.4733  0.5638
    1SOL    HW2 8378   3.916   2.248   2.188  1.5765  0.1430  0.5310
    1SOL    HW3 8379   3.916   2.399   2.192  1.3040  0.1986 -1.1517
    1SOL    MW4 8380   3.894   2.324   2.153  0.2813 -0.3035  0.3331
    1SOL     OW 8381   2.442   4.484   4.091  0.0981 -0.2878  0.1820
    1SOL    HW2 8382   2.361   4.497   4.041  1.7208  1.1289 -2.2053
    1SOL    HW3 8383   2.494   4.425   4.037  1.3477  0.1784  0.8569
    1SOL    MW4 8384   2.438   4.478   4.077  0.4773 -0.0396 -0.0439
    1SOL     OW 8385   2.381   0.883   0.831  0.7121 -0.0949  0.1068
    1SOL    HW2 8386   2.296   0.908   0.797  0.1454 -1.4256  0.5138
    1SOL    HW3 8387   2.434   0.963   0.826 -0.2142  0.4555 -1.1841
    1SOL    MW4 8388   2.377   0.896   0.826  0.5150 -0.1979 -0.0098
    1SOL     OW 8389   4.397   0.067   0.444  0.1591 -0.1502  0.1494
    1SOL    HW2 8390   4.379   0.110   0.528 -1.9599  1.1003 -0.8948
    1SOL    HW3 8391   4.464   0.121   0.404 -1.1727  1.1751 -0.3515
    1SOL    MW4 8392   4.403   0.080   0.450 -0.2961  0.1896 -0.0545
    1SOL     OW 8393   0.462   3.105   2.564 -0.7333 -0.3555 -0.0235
    1SOL    HW2 8394   0.404   3.051   2.618  1.6465 -1.2460  1.7392
    1SOL    HW3 8395   0.444   3.195   2.592  0.4850 -0.7985  2.3576
    1SOL    MW4 8396   0.452   3.110   2.575 -0.2586 -0.5317  0.5233
    1SOL     OW 8397   0.708   2.158   1.805  0.2867 -0.2004 -0.6580
    1SOL    HW2 8398   0.631   2.102   1.818 -0.2889  0.2456 -2.0482
    1SOL    HW3 8399   0.745   2.169   1.893 -0.6823 -1.2070 -0.1125
    1SOL    MW4 8400   0.703   2.152   1.819  0.0829 -0.2747 -0.7695
    1SOL     OW 8401   2.347   4.169   4.230 -0.1187 -0.2336 -0.2977
    1SOL    HW2 8402   2.364   4.166   4.136 -0.1167 -0.3303 -0.2945
    1SOL    HW3 8403   2.385   4.252   4.259 -1.9653  0.8013 -0.7495
    1SOL    MW4 8404   2.354   4.180   4.222 -0.3622 -0.1101 -0.3567
    1SOL     OW 8405   0.964   0.599   2.393  0.0463  0.3912 -0.0745
    1SOL    HW2 8406   0.892   0.556   2.347  0.4716 -0.6460  0.2178
    1SOL    HW3 8407   0.971   0.551   2.476  1.5246  0.0331 -0.3927
    1SOL    MW4 8408   0.956   0.587   2.398  0.2974  0.2070 -0.0780
    1SOL     OW 8409   0.884   2.033   0.647  0.3941 -0.1754  0.2836
    1SOL    HW2 8410   0.859   1.966   0.584 -1.1152 -0.8392  1.5500
    1SOL    HW3 8411   0.849   2.002   0.731  1.1272  1.3747  1.2001
    1SOL    MW4 8412   0.876   2.020   0.650  0.2916 -0.0584  0.5716
    1SOL     OW 8413   3.097   2.620   2.644  0.0728 -0.0392 -0.2604
    1SOL    HW2 8414   3.123   2.698   2.595 -1.0094  0.6250  0.2106
    1SOL    HW3 8415   3.009   2.599   2.611 -0.1732 -0.2908  0.5395
    1SOL    MW4 8416   3.089   2.627   2.633 -0.1025  0.0150 -0.0925
    1SOL     OW 8417   1.773   2.116   3.380 -0.0407  0.0296 -0.5063
    1SOL    HW2 8418   1.727   2.035   3.401 -0.6447  0.9041  1.6958
    1SOL    HW3 8419   1.856   2.110   3.428 -0.9663  1.5871  1.3460
    1SOL    MW4 8420   1.778   2.105   3.389 -0.2426  0.3507  0.0288
    1SOL     OW 8421   2.531   1.005   2.730 -0.5297  0.4143 -0.2499
    1SOL    HW2 8422   2.542   1.082   2.674  0.3297  0.2107 -0.3613
    1SOL    HW3 8423   2.457   1.028   2.787 -2.2989  0.0699 -2.3604
    1SOL    MW4 8424   2.522   1.019   2.730 -0.6499  0.3420 -0.5431
    1SOL     OW 8425   3.810   1.160   1.875  0.3426  0.2935  0.3607
    1SOL    HW2 8426   3.789   1.248   1.847  0.0201  0.7428  1.9300
    1SOL    HW3 8427   3.884   1.170   1.935  1.6037 -0.7174 -1.0041
    1SOL    MW4 8428   3.817   1.173   1.879  0.4666  0.2195  0.3874
    1SOL     OW 8429   3.873   1.632   2.680 -0.1242  0.2042  0.5189
    1SOL    HW2 8430   3.858   1.565   2.613 -0.6910 -0.1266  0.9710
    1SOL    HW3 8431   3.965   1.656   2.669 -0.3121  0.4502 -0.6438
    1SOL    MW4 8432   3.883   1.627   2.669 -0.2239  0.1930  0.4251
    1SOL     OW 8433   2.882   4.515   2.729 -0.6225 -0.4339  0.6884
    1SOL    HW2 8434   2.975   4.494   2.722 -0.4122  0.5229  0.6042
    1SOL    HW3 8435   2.841   4.432   2.757  0.2823 -0.7861  0.9948
    1SOL    MW4 8436   2.889   4.501   2.732 -0.4754 -0.3543  0.7179
    1SOL     OW 8437   0.052   2.767   0.749 -0.5436 -0.8762  0.0109
    1SOL    HW2 8438   0.018   2.677   0.747  2.7589 -2.2536  1.7673
    1SOL    HW3 8439   0.142   2.759   0.719 -0.2829  1.9262 -0.0920
    1SOL    MW4 8440   0.059   2.754   0.745 -0.0735 -0.6883  0.2291
    1SOL     OW 8441   4.392   4.018   4.573 -0.1439  0.3332  0.1047
    1SOL    HW2 8442   4.303   3.985   4.589  0.6066 -2.0914 -0.5760
    1SOL    HW3 8443   4.423   4.043   4.660  0.2001 -3.2816  1.0981
    1SOL    MW4 8444   4.384   4.017   4.587  0.0010 -0.4635  0.1464
    1SOL     OW 8445   1.461   0.605   4.074 -0.3162 -0.0951 -0.7538
    1SOL    HW2 8446   1.471   0.683   4.019  1.8972  0.5578  0.5025
    1SOL    HW3 8447   1.409   0.635   4.149  2.0758  0.7077  0.6437
    1SOL    MW4 8448   1.456   0.619   4.077  0.2915  0.0970 -0.4034
    1SOL     OW 8449   3.929   4.493   4.264  0.0485  0.5714 -0.2231
    1SOL    HW2 8450   3.887   4.477   4.179  0.3210  1.2886 -0.4962
    1SOL    HW3 8451   3.857   4.495   4.327 -0.1987  0.4812 -0.5034
    1SOL    MW4 8452   3.914   4.491   4.261  0.0520  0.6537 -0.2961
    1SOL     OW 8453   4.077   2.234   3.674  0.4728  0.0737 -0.2993
    1SOL    HW2 8454   4.068   2.319   3.631  0.8415 -0.3627 -1.2540
    1SOL    HW3 8455   4.070   2.254   3.767  1.0284  1.2236 -0.4875
    1SOL    MW4 8456   4.075   2.248   3.680  0.5946  0.1678 -0.4501
    1SOL     OW 8457   2.483   1.047   4.422 -0.1592  0.3780 -0.5436
    1SOL    HW2 8458   2.526   0.983   4.478  0.2602 -0.5027 -1.8357
    1SOL    HW3 8459   2.553   1.107   4.395 -0.0981  0.0087 -1.2019
    1SOL    MW4 8460   2.498   1.047   4.426 -0.0958  0.2131 -0.8011
    1SOL     OW 8461   3.063   3.560   3.228  0.3551  0.0993 -0.0871
    1SOL    HW2 8462   3.076   3.567   3.133 -0.2831 -0.5900 -0.2289
    1SOL    HW3 8463   2.983   3.610   3.245 -0.2277 -0.8221 -0.0940
    1SOL    MW4 8464   3.054   3.568   3.217  0.1941 -0.1132 -0.1066
    1SOL     OW 8465   3.784   1.109   1.066 -0.2238 -0.0494  0.3679
    1SOL    HW2 8466   3.861   1.071   1.024  0.9832  1.8747  0.7690
    1SOL    HW3 8467   3.819   1.181   1.118 -2.2631  0.5894  0.8776
    1SOL    MW4 8468   3.799   1.113   1.067 -0.3335  0.2887  0.4882
    1SOL     OW 8469   0.313   2.602   1.960  0.1391  0.0011  0.1546
    1SOL    HW2 8470   0.247   2.656   1.917 -1.6920 -1.5060  1.0142
    1SOL    HW3 8471   0.310   2.519   1.912  1.8913  0.1368 -0.2225
    1SOL    MW4 8472   0.304   2.598   1.948  0.1287 -0.1798  0.2182
    1SOL     OW 8473   0.565   0.666   1.620 -0.7792 -0.2432  0.0263
    1SOL    HW2 8474   0.538   0.616   1.543 -1.6034 -1.0034  0.8069
    1SOL    HW3 8475   0.661   0.660   1.620 -0.6577  1.0402 -1.7866
    1SOL    MW4 8476   0.574   0.659   1.610 -0.8718 -0.1742 -0.1098
    1SOL     OW 8477   2.833   1.246   2.399  0.3649  0.3579  0.7627
    1SOL    HW2 8478   2.763   1.212   2.342 -0.2425 -0.7799  2.1543
    1SOL    HW3 8479   2.864   1.325   2.354 -0.5919 -0.1089 -0.7760
    1SOL    MW4 8480   2.828   1.252   2.385  0.1588  0.1460  0.7434
    1SOL     OW 8481   1.983   3.241   1.391  0.2403 -0.1928  0.1592
    1SOL    HW2 8482   2.070   3.243   1.429  0.7420  0.6061 -0.9872
    1SOL    HW3 8483   1.995   3.275   1.302 -1.1507 -0.5414 -0.1752
    1SOL    MW4 8484   1.996   3.246   1.384  0.1230 -0.1335 -0.0362
    1SOL     OW 8485   0.268   3.248   3.321  0.0484 -0.4099  0.1639
    1SOL    HW2 8486   0.219   3.330   3.308  0.5766  0.0032  0.7573
    1SOL    HW3 8487   0.338   3.272   3.382  0.1122 -1.3408  0.4546
    1SOL    MW4 8488   0.271   3.262   3.328  0.1265 -0.4783  0.2806
    1SOL     OW 8489   0.331   4.620   0.558 -0.0267 -0.2658  0.0539
    1SOL    HW2 8490   0.398   4.606   0.624  0.5337 -0.5885 -0.5825
    1SOL    HW3 8491   0.379   4.631   0.476 -0.7292 -0.2294 -0.3594
    1SOL    MW4 8492   0.346   4.619   0.556 -0.0454 -0.3037 -0.0846
    1SOL     OW 8493   1.160   2.454   4.014  0.0284  0.1091 -0.3979
    1SOL    HW2 8494   1.193   2.543   4.002  0.2265  0.0805 -0.0428
    1SOL    HW3 8495   1.082   2.465   4.069 -0.2708  0.1225 -0.8214
    1SOL    MW4 8496   1.154   2.467   4.020  0.0151  0.1070 -0.4077
    1SOL     OW 8497   0.164   2.874   2.136  0.0148 -0.7199 -0.7440
    1SOL    HW2 8498   0.155   2.878   2.041  0.8924 -0.3412 -0.8189
    1SOL    HW3 8499   0.102   2.938   2.169  1.4737  0.9474 -1.1768
    1SOL    MW4 8500   0.155   2.883   2.128  0.3231 -0.4499 -0.8109
    1SOL     OW 8501   2.061   3.282   2.664  0.3412 -0.2551  0.0602
    1SOL    HW2 8502   2.058   3.356   2.725 -0.9802  1.8548 -2.4369
    1SOL    HW3 8503   2.008   3.311   2.589  0.4252 -3.4585 -1.3066
    1SOL    MW4 8504   2.054   3.296   2.662  0.1779 -0.3996 -0.4499
    1SOL     OW 8505   0.096   3.042   4.356 -0.3203 -0.0246 -0.3185
    1SOL    HW2 8506   0.031   2.979   4.327 -0.0937 -0.9070  1.0589
    1SOL    HW3 8507   0.155   2.992   4.411  1.2641  0.8791 -1.1726
    1SOL    MW4 8508   0.095   3.027   4.359 -0.0814 -0.0219 -0.2494
    1SOL     OW 8509   0.679   4.082   1.870 -0.1765  0.0579 -0.1166
    1SOL    HW2 8510   0.628   4.057   1.947  0.9325 -2.2494 -0.1167
    1SOL    HW3 8511   0.655   4.174   1.855 -1.9881 -0.0851  1.7065
    1SOL    MW4 8512   0.669   4.091   1.878 -0.2691 -0.2656  0.1239
    1SOL     OW 8513   3.786   1.063   3.383  0.3154 -0.3512  0.0194
    1SOL    HW2 8514   3.833   1.086   3.464  0.6812  0.9874 -0.5684
    1SOL    HW3 8515   3.749   0.976   3.402  0.0564  0.1134  1.7708
    1SOL    MW4 8516   3.788   1.054   3.396  0.3297 -0.1134  0.1729
    1SOL     OW 8517   1.740   0.983   1.053  0.2251  0.3764 -0.3246
    1SOL    HW2 8518   1.739   0.917   1.123 -1.0340  0.6350 -0.0783
    1SOL    HW3 8519   1.822   1.031   1.066  0.1680  0.1920  0.7575
    1SOL    MW4 8520   1.751   0.980   1.064  0.0515  0.3861 -0.1494
    1SOL     OW 8521   1.481   0.773   2.929 -0.2800 -0.2029  0.6135
    1SOL    HW2 8522   1.409   0.711   2.925  0.1859 -0.6847 -0.4326
    1SOL    HW3 8523   1.470   0.818   3.013 -1.6245 -0.4636  0.5799
    1SOL    MW4 8524   1.470   0.771   2.940 -0.3959 -0.3009  0.4714
    1SOL     OW 8525   3.017   3.947   2.525  0.3019  0.2018 -0.4737
    1SOL    HW2 8526   3.101   3.903   2.539  0.5081  0.3389 -1.2573
    1SOL    HW3 8527   3.039   4.029   2.482 -0.2330  0.2566 -0.6534
    1SOL    MW4 8528   3.031   3.952   2.521  0.2584  0.2272 -0.6008
    1SOL     OW 8529   4.469   3.279   4.476 -0.3929 -0.0808 -0.6136
    1SOL    HW2 8530   4.374   3.270   4.475 -0.3185 -0.8953 -0.2724
    1SOL    HW3 8531   4.501   3.199   4.435  0.1767 -0.2749  0.1967
    1SOL    MW4 8532   4.461   3.267   4.471 -0.3080 -0.2141 -0.4616
    1SOL     OW 8533   2.580   3.172   2.204 -0.1015  0.3873 -0.2767
    1SOL    HW2 8534   2.522   3.239   2.239 -0.8417 -0.9639  1.1534
    1SOL    HW3 8535   2.524   3.119   2.147  0.1665  0.2189 -0.3869
    1SOL    MW4 8536   2.565   3.174   2.201 -0.1638  0.1867 -0.1025
    1SOL     OW 8537   1.175   3.069   1.311  0.5350 -0.3444 -0.3368
    1SOL    HW2 8538   1.170   3.041   1.220  1.8011 -1.3140 -0.1332
    1SOL    HW3 8539   1.202   2.990   1.359  0.1165  0.2126  0.8338
    1SOL    MW4 8540   1.178   3.055   1.305  0.6468 -0.3986 -0.1556
    1SOL     OW 8541   3.420   1.986   1.861  0.7896  0.0816 -0.0914
    1SOL    HW2 8542   3.429   1.898   1.825  0.6254 -0.8925  2.1891
    1SOL    HW3 8543   3.493   1.995   1.922 -0.5403  0.6476  1.4407
    1SOL    MW4 8544   3.431   1.976   1.864  0.5925  0.0278  0.4116
    1SOL     OW 8545   0.484   1.911   3.159  0.4011 -0.0158  0.2303
    1SOL    HW2 8546   0.515   1.843   3.218  1.3992  0.9383  0.8372
    1SOL    HW3 8547   0.389   1.903   3.160  0.5408 -1.9186 -0.3540
    1SOL    MW4 8548   0.476   1.901   3.167  0.5512 -0.1409  0.2329
    1SOL     OW 8549   1.327   2.895   1.488 -0.2198 -0.0680 -0.1430
    1SOL    HW2 8550   1.263   2.837   1.529  0.0151  0.7914  1.4878
    1SOL    HW3 8551   1.361   2.845   1.414 -1.3131 -1.3043  0.1694
    1SOL    MW4 8552   1.323   2.881   1.483 -0.3332 -0.1178  0.1132
    1SOL     OW 8553   1.233   1.729   3.986  0.6395  0.0281 -0.2250
    1SOL    HW2 8554   1.324   1.748   4.006  0.7229 -0.3584 -0.2323
    1SOL    HW3 8555   1.211   1.788   3.914  0.8008  0.3166 -0.0370
    1SOL    MW4 8556   1.242   1.739   3.979  0.6717  0.0151 -0.2010
    1SOL     OW 8557   4.089   3.279   1.896  0.0736  0.1250  0.4048
    1SOL    HW2 8558   4.066   3.193   1.931  0.0872  1.4299  3.7316
    1SOL    HW3 8559   4.175   3.266   1.856 -1.2140 -2.0536 -1.8252
    1SOL    MW4 8560   4.097   3.266   1.895 -0.0944  0.0098  0.5494
    1SOL     OW 8561   3.566   4.251   2.768  0.6241 -0.0236 -0.2169
    1SOL    HW2 8562   3.613   4.169   2.786  1.9488  0.6427 -0.6006
    1SOL    HW3 8563   3.485   4.223   2.727  0.8003 -1.1837  0.2007
    1SOL    MW4 8564   3.562   4.236   2.765  0.8221 -0.0892 -0.2124
    1SOL     OW 8565   3.265   0.772   4.499 -0.1458  0.1857 -0.1825
    1SOL    HW2 8566   3.310   0.854   4.521 -1.0941  1.0175 -1.2739
    1SOL    HW3 8567   3.326   0.726   4.442  0.5175 -0.0122  0.6714
    1SOL    MW4 8568   3.279   0.777   4.495 -0.1833  0.2692 -0.2136
    1SOL     OW 8569   0.798   3.721   0.479 -0.2963  0.5488 -0.4061
    1SOL    HW2 8570   0.747   3.668   0.418  0.4080 -1.1748  0.4797
    1SOL    HW3 8571   0.751   3.714   0.562  0.6135  0.0702  0.0756
    1SOL    MW4 8572   0.785   3.713   0.482 -0.0834  0.2580 -0.2257
    1SOL     OW 8573   3.402   2.119   3.373  0.1857  0.0688 -0.0606
    1SOL    HW2 8574   3.443   2.108   3.287  0.7211  2.9088 -0.2309
    1SOL    HW3 8575   3.435   2.047   3.425  2.4303  0.1619 -1.3127
    1SOL    MW4 8576   3.411   2.108   3.368  0.5524  0.4556 -0.2482
    1SOL     OW 8577   3.349   4.340   2.262  0.0651  0.1807 -0.1283
    1SOL    HW2 8578   3.407   4.408   2.227 -1.7489  0.6838 -2.2266
    1SOL    HW3 8579   3.268   4.386   2.285  0.6842 -0.3721  3.5769
    1SOL    MW4 8580   3.346   4.355   2.261 -0.0925  0.1740  0.0837
    1SOL     OW 8581   1.725   3.602   4.574 -0.5185 -0.4985 -0.1938
    1SOL    HW2 8582   1.772   3.682   4.597 -0.4098 -0.6635  0.1755
    1SOL    HW3 8583   1.633   3.622   4.587 -0.6099  0.0558 -1.6287
    1SOL    MW4 8584   1.719   3.615   4.579 -0.5163 -0.4470 -0.3338
    1SOL     OW 8585   3.282   4.585   4.085  0.3523  0.3179  0.1858
    1SOL    HW2 8586   3.195   4.593   4.123  0.0716  0.0693 -0.4075
    1SOL    HW3 8587   3.277   4.634   4.003 -0.1917 -2.4091 -1.4710
    1SOL    MW4 8588   3.270   4.593   4.079  0.2437 -0.0744 -0.1106
    1SOL     OW 8589   4.172   1.293   4.418  0.4266  0.4706  0.1321
    1SOL    HW2 8590   4.095   1.320   4.468 -0.9567 -0.1545 -1.5803
    1SOL    HW3 8591   4.192   1.205   4.451 -1.1568 -0.3951 -1.0884
    1SOL    MW4 8592   4.164   1.285   4.429  0.0353  0.2739 -0.2551
    1SOL     OW 8593   3.982   1.675   3.482  0.4447 -0.1243 -0.0330
    1SOL    HW2 8594   3.896   1.714   3.466 -0.6963 -1.8867  1.4715
    1SOL    HW3 8595   4.037   1.705   3.409 -1.2644  1.5182 -0.6918
    1SOL    MW4 8596   3.978   1.684   3.471  0.0689 -0.1400  0.0787
    1SOL     OW 8597   0.978   0.264   2.870 -0.2698  0.6916 -0.0323
    1SOL    HW2 8598   0.887   0.244   2.889 -0.0313  0.2582  0.6594
    1SOL    HW3 8599   1.016   0.180   2.843 -0.1277  0.9107 -0.5168
    1SOL    MW4 8600   0.971   0.250   2.869 -0.2196  0.6633 -0.0048
    1SOL     OW 8601   0.242   0.718   1.441 -0.2996  0.0203  0.0364
    1SOL    HW2 8602   0.285   0.717   1.355 -0.3651 -1.4840  0.0164
    1SOL    HW3 8603   0.151   0.694   1.422 -0.5386  0.6147  0.4165
    1SOL    MW4 8604   0.236   0.715   1.427 -0.3398 -0.0997  0.0839
    1SOL     OW 8605   0.863   0.867   0.541  0.7141  0.1448  0.0774
    1SOL    HW2 8606   0.803   0.835   0.474  2.4945 -0.3216 -1.3483
    1SOL    HW3 8607   0.868   0.961   0.527 -1.9221  0.6237  2.0983
    1SOL    MW4 8608   0.856   0.875   0.530  0.6012  0.1464  0.1559
    1SOL     OW 8609   0.755   1.141   2.586 -0.2014 -0.1234 -0.0204
    1SOL    HW2 8610   0.811   1.115   2.660 -2.0892 -0.6170  1.2562
    1SOL    HW3 8611   0.817   1.158   2.515  1.5775 -0.7773  1.3236
    1SOL    MW4 8612   0.771   1.140   2.587 -0.2158 -0.2748  0.3254
    1SOL     OW 8613   0.560   2.942   1.194  0.4376 -0.0856  0.4628
    1SOL    HW2 8614   0.566   2.939   1.098  2.5454  0.4962  0.5434
    1SOL    HW3 8615   0.543   3.034   1.213  2.8412  0.3326  0.7387
    1SOL    MW4 8616   0.559   2.954   1.184  1.0328  0.0463  0.5100
    1SOL     OW 8617   2.248   1.774   3.711 -0.6020  0.1414  0.0685
    1SOL    HW2 8618   2.304   1.850   3.725 -0.3877 -0.0053  0.0062
    1SOL    HW3 8619   2.159   1.806   3.727 -0.4606  0.2645  0.6003
    1SOL    MW4 8620   2.244   1.788   3.715 -0.5550  0.1383  0.1304
    1SOL     OW 8621   3.769   1.452   1.705  0.1436 -0.1800  0.0857
    1SOL    HW2 8622   3.863   1.468   1.712  0.0737 -0.1920  1.1753
    1SOL    HW3 8623   3.731   1.500   1.778 -0.5582 -1.3064  0.4728
    1SOL    MW4 8624   3.776   1.460   1.716  0.0420 -0.3301  0.2806
    1SOL     OW 8625   2.255   1.070   3.207  0.1532 -0.2459  0.2938
    1SOL    HW2 8626   2.168   1.086   3.244 -0.3209  0.7273 -1.1885
    1SOL    HW3 8627   2.309   1.141   3.241  0.8635 -1.8789  2.6996
    1SOL    MW4 8628   2.251   1.081   3.216  0.1843 -0.3330  0.4160
    1SOL     OW 8629   0.159   1.967   1.726 -0.8356 -0.2603 -0.0749
    1SOL    HW2 8630   0.106   1.891   1.704 -1.5287 -0.2178  1.3955
    1SOL    HW3 8631   0.250   1.938   1.713 -1.0970 -1.3424  0.4833
    1SOL    MW4 8632   0.164   1.953   1.721 -0.9616 -0.3974  0.1926
    1SOL     OW 8633   2.601   2.506   1.872 -0.6934  0.1604  0.5761
    1SOL    HW2 8634   2.508   2.484   1.881 -0.4325 -1.0557  0.3902
    1SOL    HW3 8635   2.622   2.484   1.781  0.0592 -0.7190  0.9489
    1SOL    MW4 8636   2.592   2.500   1.861 -0.5596 -0.1161  0.6008
    1SOL     OW 8637   0.430   0.093   0.326  0.2819 -0.0149 -0.2930
    1SOL    HW2 8638   0.490   0.040   0.273 -0.2256 -0.8446 -0.0466
    1SOL    HW3 8639   0.486   0.157   0.368  0.6152  1.1805 -2.4612
    1SOL    MW4 8640   0.445   0.094   0.324  0.2589  0.0334 -0.5465
    1SOL     OW 8641   3.880   1.016   3.668  0.3073  0.1315 -0.0356
    1SOL    HW2 8642   3.951   1.016   3.732 -0.2901 -0.2027  0.6350
    1SOL    HW3 8643   3.822   1.087   3.697  0.4350  0.4953 -0.6596
    1SOL    MW4 8644   3.882   1.025   3.680  0.2451  0.1354 -0.0293
    1SOL     OW 8645   3.165   4.445   2.741  0.1912  0.0284 -0.1810
    1SOL    HW2 8646   3.170   4.501   2.818 -1.9844  0.2213 -0.1395
    1SOL    HW3 8647   3.246   4.461   2.694  2.0751 -0.9112  2.6205
    1SOL    MW4 8648   3.176   4.454   2.745  0.1531 -0.0701  0.1938
    1SOL     OW 8649   0.975   2.853   4.489 -0.1428 -0.2379  0.4541
    1SOL    HW2 8650   0.960   2.861   4.394 -1.4835 -1.8856  0.5174
    1SOL    HW3 8651   0.896   2.889   4.528  0.4399  0.4966  0.9629
    1SOL    MW4 8652   0.963   2.859   4.481 -0.2428 -0.3586  0.5298
    1SOL     OW 8653   1.035   0.491   3.054 -0.2657  0.0524  0.5185
    1SOL    HW2 8654   1.063   0.478   3.145 -0.8947 -1.3026  0.5216
    1SOL    HW3 8655   1.044   0.406   3.013 -1.5343  0.2731 -0.2563
    1SOL    MW4 8656   1.040   0.478   3.061 -0.5159 -0.0973  0.4168
    1SOL     OW 8657   4.164   4.581   4.045  0.5329  0.2717 -0.0104
    1SOL    HW2 8658   4.141   4.492   4.071 -1.7552  0.9440  0.4026
    1SOL    HW3 8659   4.208   4.618   4.121 -0.6972  0.2698  0.7069
    1SOL    MW4 8660   4.167   4.574   4.058  0.0687  0.3600  0.1392
    1SOL     OW 8661   2.253   1.879   4.193 -0.2890  0.7733 -0.2908
    1SOL    HW2 8662   2.336   1.864   4.148 -0.4825 -0.4428 -0.2804
    1SOL    HW3 8663   2.265   1.842   4.280 -0.9547  0.2409 -0.4145
    1SOL    MW4 8664   2.265   1.872   4.198 -0.4025  0.5426 -0.3057
    1SOL     OW 8665   3.059   0.194   2.614  0.1888 -0.4937  0.9104
    1SOL    HW2 8666   2.991   0.131   2.590  0.0090 -0.6207  1.7439
    1SOL    HW3 8667   3.049   0.206   2.708 -0.0623  1.1373  0.6871
    1SOL    MW4 8668   3.049   0.187   2.623  0.1318 -0.2952  0.9911
    1SOL     OW 8669   4.275   4.322   3.669 -0.3476  0.4617 -0.5141
    1SOL    HW2 8670   4.351   4.268   3.688 -0.3825  0.0122 -1.5965
    1SOL    HW3 8671   4.258   4.307   3.576 -1.3764  1.0375 -0.4270
    1SOL    MW4 8672   4.282   4.313   3.659 -0.4873  0.4783 -0.6452
    1SOL     OW 8673   0.331   1.002   1.883  0.1307 -0.2141  0.4006
    1SOL    HW2 8674   0.370   0.916   1.897  0.0075 -0.1757  0.9649
    1SOL    HW3 8675   0.242   0.995   1.916  0.0725  0.0891  0.3136
    1SOL    MW4 8676   0.325   0.990   1.889  0.1067 -0.1689  0.4635
    1SOL     OW 8677   3.471   3.277   3.864  0.0464 -0.1450 -0.0965
    1SOL    HW2 8678   3.548   3.265   3.809 -1.0628 -1.4863 -1.4331
    1SOL    HW3 8679   3.426   3.353   3.827 -1.3447 -1.7869 -1.8895
    1SOL    MW4 8680   3.475   3.285   3.852 -0.2835 -0.5386 -0.5095
    1SOL     OW 8681   3.929   2.566   4.216 -0.2002  0.3392  0.3941
    1SOL    HW2 8682   3.999   2.508   4.188 -0.5579  0.6335 -1.1587
    1SOL    HW3 8683   3.850   2.512   4.210 -0.5535  0.9901 -1.1861
    1SOL    MW4 8684   3.927   2.551   4.211 -0.2940  0.4637 -0.0196
    1SOL     OW 8685   3.322   2.138   1.416  0.7949 -0.2941  0.2446
    1SOL    HW2 8686   3.294   2.200   1.483  0.0090 -0.9185  0.5169
    1SOL    HW3 8687   3.349   2.192   1.342  1.2121  0.3882  0.8909
    1SOL    MW4 8688   3.322   2.153   1.415  0.7463 -0.2863  0.3660
    1SOL     OW 8689   0.449   0.998   1.339 -1.0382  0.6886 -0.1857
    1SOL    HW2 8690   0.448   0.957   1.425 -0.2558  0.1569 -0.4319
    1SOL    HW3 8691   0.448   1.092   1.357 -0.0196  0.5918  0.4173
    1SOL    MW4 8692   0.448   1.005   1.353 -0.8005  0.6058 -0.1388
    1SOL     OW 8693   3.715   2.283   3.918 -0.7825  0.3761 -0.0508
    1SOL    HW2 8694   3.678   2.306   3.833 -0.9558 -1.7261 -0.5812
    1SOL    HW3 8695   3.808   2.303   3.910 -1.2779  2.9760  0.3025
    1SOL    MW4 8696   3.722   2.288   3.905 -0.8707  0.4418 -0.0744
    1SOL     OW 8697   2.649   2.234   3.074 -0.1697 -0.9095 -0.5948
    1SOL    HW2 8698   2.697   2.167   3.122  0.8811 -1.2859 -2.1107
    1SOL    HW3 8699   2.718   2.289   3.036 -0.9890 -0.1947 -1.0558
    1SOL    MW4 8700   2.665   2.233   3.075 -0.1392 -0.8645 -0.8557
    1SOL     OW 8701   4.155   1.022   1.161  0.0754  0.6599 -0.3124
    1SOL    HW2 8702   4.163   1.065   1.246  0.8063  0.9683 -0.5263
    1SOL    HW3 8703   4.061   1.018   1.143 -0.0059  1.8558 -0.1340
    1SOL    MW4 8704   4.144   1.027   1.170  0.1612  0.8584 -0.3170
    1SOL     OW 8705   2.108   3.787   4.456  0.0072  0.6211 -0.0857
    1SOL    HW2 8706   2.114   3.877   4.423  0.7533  0.7952  0.5100
    1SOL    HW3 8707   2.080   3.736   4.380  0.2825  1.2509 -0.6181
    1SOL    MW4 8708   2.105   3.792   4.441  0.1419  0.7274 -0.0772
    1SOL     OW 8709   0.958   3.778   3.435  0.0545 -0.2384 -0.1671
    1SOL    HW2 8710   1.006   3.838   3.492  0.6809 -1.2992  0.4299
    1SOL    HW3 8711   1.010   3.698   3.436 -1.4929 -1.2431  0.1287
    1SOL    MW4 8712   0.971   3.776   3.442 -0.0671 -0.5109 -0.0494
    1SOL     OW 8713   4.232   1.528   2.859  0.2192 -0.4486  0.0684
    1SOL    HW2 8714   4.287   1.457   2.827  0.0789 -1.4428  1.9363
    1SOL    HW3 8715   4.149   1.485   2.882 -0.5122  0.6364 -0.5402
    1SOL    MW4 8716   4.228   1.513   2.858  0.1044 -0.4367  0.2344
    1SOL     OW 8717   2.963   0.104   3.574 -0.1720  0.0916 -0.8885
    1SOL    HW2 8718   2.933   0.050   3.648 -0.2113  1.5708  0.2109
    1SOL    HW3 8719   3.056   0.118   3.592 -0.6850  2.3654  0.1327
    1SOL    MW4 8720   2.971   0.099   3.586 -0.2451  0.5868 -0.6089
    1SOL     OW 8721   2.284   0.495   1.547 -0.1998  0.1692  0.3497
    1SOL    HW2 8722   2.220   0.557   1.583  0.1991  0.0422  1.3080
    1SOL    HW3 8723   2.263   0.412   1.590  0.6285  0.1342  0.6873
    1SOL    MW4 8724   2.273   0.492   1.558 -0.0377  0.1478  0.5208
    1SOL     OW 8725   3.234   2.262   2.544 -0.2679  0.3924 -0.2515
    1SOL    HW2 8726   3.276   2.246   2.629  0.2171  1.4435 -0.2772
    1SOL    HW3 8727   3.292   2.326   2.501  0.1446 -1.0524 -1.8806
    1SOL    MW4 8728   3.247   2.269   2.550 -0.1497  0.3405 -0.4697
    1SOL     OW 8729   0.036   3.168   0.718  0.0514  0.2682 -0.5438
    1SOL    HW2 8730   0.103   3.122   0.769  0.9254  0.3962 -1.5562
    1SOL    HW3 8731   0.006   3.104   0.654 -0.5288  0.3306 -0.3391
    1SOL    MW4 8732   0.041   3.154   0.716  0.0902  0.2933 -0.6503
    1SOL     OW 8733   3.403   4.370   4.587  0.1414  0.1607  0.1872
    1SOL    HW2 8734   3.452   4.290   4.601 -0.6599 -0.3240  0.2493
    1SOL    HW3 8735   3.323   4.359   4.637 -0.0032  0.9728  0.1464
    1SOL    MW4 8736   3.399   4.358   4.595  0.0165  0.2041  0.1893
    1SOL     OW 8737   2.285   0.624   1.910 -0.0165 -0.2277  0.3072
    1SOL    HW2 8738   2.337   0.631   1.990  0.0591 -0.9375  0.3268
    1SOL    HW3 8739   2.346   0.648   1.840 -0.1011  0.4561  0.4608
    1SOL    MW4 8740   2.300   0.628   1.911 -0.0179 -0.2312  0.3301
    1SOL     OW 8741   2.668   4.022   1.710  0.0262 -0.0477  0.0038
    1SOL    HW2 8742   2.660   3.946   1.653  1.6055 -1.5394  1.6874
    1SOL    HW3 8743   2.762   4.036   1.719 -0.2266  1.1968  0.8910
    1SOL    MW4 8744   2.679   4.014   1.704  0.2012 -0.0801  0.3430
    1SOL     OW 8745   4.342   3.399   2.170  0.0946 -0.1942 -0.4149
    1SOL    HW2 8746   4.408   3.466   2.151  1.4639 -1.1392  0.8081
    1SOL    HW3 8747   4.360   3.374   2.261 -0.2551 -2.3228 -0.9100
    1SOL    MW4 8748   4.353   3.404   2.180  0.2289 -0.5999 -0.3188
    1SOL     OW 8749   2.840   0.112   3.944 -0.2109  0.3901  0.1996
    1SOL    HW2 8750   2.862   0.204   3.928  0.6551  0.0098 -0.9451
    1SOL    HW3 8751   2.893   0.087   4.019  1.5538  0.1379 -1.0861
    1SOL    MW4 8752   2.850   0.121   3.952  0.1361  0.3066 -0.1209
    1SOL     OW 8753   4.399   0.582   2.819 -0.3886 -0.7217 -0.2133
    1SOL    HW2 8754   4.384   0.661   2.870 -0.0548  0.4471 -1.8818
    1SOL    HW3 8755   4.314   0.538   2.816 -0.2260 -1.2454  2.0170
    1SOL    MW4 8756   4.386   0.587   2.825 -0.3233 -0.6366 -0.1392
    1SOL     OW 8757   3.989   3.567   4.711 -0.0194  0.0573 -0.8569
    1SOL    HW2 8758   3.914   3.513   4.736  1.2030 -0.6921  1.3039
    1SOL    HW3 8759   4.063   3.507   4.713  1.3471  1.7416  1.4386
    1SOL    MW4 8760   3.989   3.552   4.715  0.3219  0.1805 -0.2689
    1SOL     OW 8761   3.670   1.212   3.645  0.2417 -0.4810 -0.0069
    1SOL    HW2 8762   3.582   1.221   3.611  0.5508 -1.7487 -1.1697
    1SOL    HW3 8763   3.713   1.296   3.624 -0.0111 -0.7010 -1.4372
    1SOL    MW4 8764   3.664   1.224   3.638  0.2491 -0.6773 -0.3488
    1SOL     OW 8765   3.418   2.624   1.993 -0.1508 -0.4329  0.8919
    1SOL    HW2 8766   3.356   2.552   2.006  0.1178 -0.7451  0.4633
    1SOL    HW3 8767   3.422   2.668   2.078 -0.5925 -0.7032  1.0548
    1SOL    MW4 8768   3.411   2.620   2.006 -0.1736 -0.5097  0.8566
    1SOL     OW 8769   0.634   0.678   0.475  0.0561  0.4927  0.0063
    1SOL    HW2 8770   0.703   0.615   0.453 -0.3322 -0.3984  1.2675
    1SOL    HW3 8771   0.562   0.655   0.417 -0.6310 -1.2442  1.4864
    1SOL    MW4 8772   0.634   0.666   0.465 -0.0858  0.1460  0.3679
    1SOL     OW 8773   2.069   2.243   1.760 -0.0437  0.1818 -0.2585
    1SOL    HW2 8774   2.009   2.225   1.833  0.3639 -0.0801  0.0127
    1SOL    HW3 8775   2.011   2.265   1.687 -0.4125  1.8849  0.5319
    1SOL    MW4 8776   2.053   2.243   1.760 -0.0386  0.3719 -0.1183
    1SOL     OW 8777   0.053   1.549   1.703  0.7121  0.1432 -0.2191
    1SOL    HW2 8778  -0.015   1.587   1.760  1.0067  0.5006 -0.1043
    1SOL    HW3 8779   0.075   1.619   1.642 -0.3018 -0.5498 -1.4202
    1SOL    MW4 8780   0.047   1.563   1.703  0.6180  0.0989 -0.3624
    1SOL     OW 8781   3.516   0.605   2.278  0.4131  0.2544 -0.0558
    1SOL    HW2 8782   3.545   0.529   2.228  0.4356  0.0500  0.2684
    1SOL    HW3 8783   3.467   0.569   2.351 -0.3549  0.5874 -0.4007
    1SOL    MW4 8784   3.513   0.591   2.281  0.3150  0.2713 -0.0584
    1SOL     OW 8785   0.722   2.539   3.991 -0.4800 -0.6088  0.3272
    1SOL    HW2 8786   0.640   2.489   3.986  0.0334 -1.3778 -0.2985
    1SOL    HW3 8787   0.746   2.556   3.900 -0.1323 -0.0560  0.5156
    1SOL    MW4 8788   0.714   2.535   3.978 -0.3663 -0.6373  0.2697
    1SOL     OW 8789   0.065   1.535   1.301  0.5218 -0.2287 -0.5210
    1SOL    HW2 8790   0.080   1.447   1.335  0.1447  0.5983  1.8876
    1SOL    HW3 8791   0.066   1.591   1.378  2.6192  2.1646 -2.1886
    1SOL    MW4 8792   0.067   1.531   1.315  0.7488  0.1962 -0.4232
    1SOL     OW 8793   2.240   3.422   4.167 -0.3471 -0.4432 -0.4917
    1SOL    HW2 8794   2.180   3.485   4.206  0.1303 -1.1296  1.4540
    1SOL    HW3 8795   2.235   3.346   4.225  0.4124 -1.5156 -1.8012
    1SOL    MW4 8796   2.231   3.420   4.180 -0.1838 -0.6752 -0.4072
    1SOL     OW 8797   3.712   3.999   2.476 -0.2580 -0.4481  0.7910
    1SOL    HW2 8798   3.653   4.066   2.441  2.3073  1.3072 -0.3659
    1SOL    HW3 8799   3.718   3.933   2.407 -1.1666 -0.8380  1.0799
    1SOL    MW4 8800   3.705   3.999   2.462 -0.0393 -0.2680  0.6762
    1SOL     OW 8801   3.268   2.605   1.023  0.6687 -0.2064 -0.5576
    1SOL    HW2 8802   3.217   2.525   1.030  0.9240 -0.3427 -0.2363
    1SOL    HW3 8803   3.292   2.610   0.931  2.8164 -1.8582 -0.1372
    1SOL    MW4 8804   3.265   2.595   1.012  0.9856 -0.4423 -0.4598
    1SOL     OW 8805   1.371   3.414   3.328 -0.0744  0.0256 -0.4068
    1SOL    HW2 8806   1.336   3.439   3.243 -2.8901 -1.7778  0.1608
    1SOL    HW3 8807   1.420   3.334   3.311 -1.5502 -0.9484 -0.2060
    1SOL    MW4 8808   1.373   3.407   3.315 -0.6407 -0.3407 -0.3054
    1SOL     OW 8809   3.780   3.618   2.065 -0.5426 -0.1477  0.0339
    1SOL    HW2 8810   3.762   3.692   2.006  1.3954 -0.8790 -1.5214
    1SOL    HW3 8811   3.788   3.543   2.006 -0.3372 -1.2100  1.4091
    1SOL    MW4 8812   3.778   3.618   2.049 -0.2596 -0.3841  0.0100
    1SOL     OW 8813   3.204   0.759   3.806 -0.2566  0.8635  0.0859
    1SOL    HW2 8814   3.198   0.727   3.896  1.1278  0.1754 -0.0435
    1SOL    HW3 8815   3.116   0.749   3.771 -0.9528  1.6619  1.5270
    1SOL    MW4 8816   3.192   0.754   3.814 -0.1657  0.8780  0.2594
    1SOL     OW 8817   0.320   3.783   0.981  0.0592  0.4134  0.4090
    1SOL    HW2 8818   0.292   3.870   0.952  1.0796 -0.4552 -3.4739
    1SOL    HW3 8819   0.414   3.782   0.965 -0.1500 -1.8218 -0.9037
    1SOL    MW4 8820   0.329   3.794   0.975  0.1662  0.0038 -0.2766
    1SOL     OW 8821   4.295   3.266   0.874  0.2069 -0.6422 -0.2067
    1SOL    HW2 8822   4.300   3.172   0.856  2.0192 -0.8318  1.1335
    1SOL    HW3 8823   4.385   3.291   0.894 -0.4941  1.0762  0.9033
    1SOL    MW4 8824   4.307   3.257   0.874  0.3533 -0.4404  0.1165
    1SOL     OW 8825   3.108   4.079   3.194 -0.3897  0.1613 -0.0713
    1SOL    HW2 8826   3.095   4.121   3.279 -2.8528  1.4764 -1.0516
    1SOL    HW3 8827   3.028   4.027   3.181  0.1841 -0.4110 -1.3650
    1SOL    MW4 8828   3.096   4.077   3.203 -0.6390  0.2599 -0.3712
    1SOL     OW 8829   3.004   2.945   1.895 -0.3314  0.2399  0.2378
    1SOL    HW2 8830   2.922   2.989   1.872 -1.4902 -2.2837 -0.6712
    1SOL    HW3 8831   3.061   2.962   1.820 -0.1080  1.7791  0.7469
    1SOL    MW4 8832   3.000   2.953   1.882 -0.4549  0.1101  0.1850
    1SOL     OW 8833   0.809   1.296   3.295 -0.4988 -0.0389 -0.0763
    1SOL    HW2 8834   0.787   1.260   3.381  0.1030 -2.3470 -0.8770
    1SOL    HW3 8835   0.897   1.332   3.307 -0.8972  0.7316  0.5851
    1SOL    MW4 8836   0.818   1.296   3.308 -0.4719 -0.2416 -0.0947
    1SOL     OW 8837   1.602   1.148   1.305 -0.5383 -0.4329  0.2091
    1SOL    HW2 8838   1.588   1.086   1.233  0.1352  0.4725 -0.7049
    1SOL    HW3 8839   1.519   1.147   1.353 -1.3979 -0.1981 -1.2350
    1SOL    MW4 8840   1.589   1.140   1.302 -0.5627 -0.2824 -0.1019
    1SOL     OW 8841   3.228   3.491   4.505 -0.0978 -0.0481 -0.1279
    1SOL    HW2 8842   3.246   3.437   4.581 -0.6663 -1.0101 -0.6654
    1SOL    HW3 8843   3.200   3.575   4.541 -0.3319 -0.4840  0.7196
    1SOL    MW4 8844   3.227   3.495   4.520 -0.2038 -0.2325 -0.0868
    1SOL     OW 8845   3.243   3.853   0.759 -0.1342  0.2221  0.1401
    1SOL    HW2 8846   3.176   3.920   0.750  0.5813  0.8722 -0.3685
    1SOL    HW3 8847   3.299   3.885   0.829  0.9309  0.7644 -0.9555
    1SOL    MW4 8848   3.241   3.866   0.767  0.1009  0.3796 -0.0715
    1SOL     OW 8849   0.889   1.274   1.029  0.2356 -0.4576 -0.0907
    1SOL    HW2 8850   0.914   1.345   0.970  1.0907 -0.4794  0.2325
    1SOL    HW3 8851   0.851   1.319   1.105  0.6301 -0.3490  0.0449
    1SOL    MW4 8852   0.888   1.290   1.031  0.4005 -0.4462 -0.0302
    1SOL     OW 8853   3.955   2.341   1.177 -0.1809  0.1012  0.6199
    1SOL    HW2 8854   3.980   2.430   1.154 -0.4739 -0.2091 -0.9486
    1SOL    HW3 8855   4.017   2.315   1.245  2.0100  0.3376 -1.2230
    1SOL    MW4 8856   3.966   2.349   1.183  0.0699  0.0916  0.1699
    1SOL     OW 8857   2.442   3.227   3.614  0.2992  0.5282 -0.0768
    1SOL    HW2 8858   2.485   3.172   3.679 -1.1424  0.4821  0.8717
    1SOL    HW3 8859   2.369   3.268   3.661 -0.4224  0.9444 -1.5089
    1SOL    MW4 8860   2.438   3.225   3.629  0.0138  0.5772 -0.1407
    1SOL     OW 8861   1.141   2.267   2.632 -0.3325 -0.0479  0.1231
    1SOL    HW2 8862   1.148   2.172   2.637 -0.8391 -0.0270  1.2855
    1SOL    HW3 8863   1.149   2.286   2.539  1.6816 -1.0726  0.0430
    1SOL    MW4 8864   1.143   2.257   2.620 -0.1335 -0.1802  0.2658
    1SOL     OW 8865   3.483   2.268   1.775  0.2803  0.2469  0.2905
    1SOL    HW2 8866   3.551   2.284   1.841  1.0696  0.6680 -0.6052
    1SOL    HW3 8867   3.468   2.174   1.778 -0.1789  0.3566  1.5431
    1SOL    MW4 8868   3.490   2.258   1.784  0.3240  0.3169  0.3377
    1SOL     OW 8869   1.484   3.299   4.037  0.0341 -0.1888  0.0147
    1SOL    HW2 8870   1.506   3.215   4.076  1.0218 -0.7722 -1.7842
    1SOL    HW3 8871   1.567   3.333   4.004 -0.8655  0.0744 -2.0016
    1SOL    MW4 8872   1.498   3.293   4.038  0.0458 -0.2310 -0.4878
    1SOL     OW 8873   1.244   3.038   3.450 -0.0247 -0.0564  0.1687
    1SOL    HW2 8874   1.173   3.099   3.433 -0.2321  0.2142  1.9081
    1SOL    HW3 8875   1.225   2.963   3.394 -2.8122 -0.8420  2.0743
    1SOL    MW4 8876   1.232   3.036   3.441 -0.4199 -0.1245  0.6497
    1SOL     OW 8877   1.842   0.090   1.070 -0.2732  0.0909 -0.1132
    1SOL    HW2 8878   1.759   0.131   1.047 -1.5966 -1.8653  1.0085
    1SOL    HW3 8879   1.819   0.022   1.134  1.7453 -2.5320 -2.0164
    1SOL    MW4 8880   1.828   0.086   1.075 -0.1816 -0.5133 -0.2164
    1SOL     OW 8881   4.253   2.468   2.614 -0.1280 -0.0004 -0.3383
    1SOL    HW2 8882   4.347   2.471   2.627  0.1128  0.5165 -2.0907
    1SOL    HW3 8883   4.240   2.407   2.542 -1.1794 -0.4489  0.2050
    1SOL    MW4 8884   4.264   2.460   2.606 -0.2346  0.0086 -0.4978
    1SOL     OW 8885   3.954   4.141   0.963  0.3129 -0.5141 -0.0571
    1SOL    HW2 8886   3.886   4.190   1.009  0.3475 -3.6608  3.5722
    1SOL    HW3 8887   3.910   4.109   0.884 -1.2795  0.7521  0.2814
    1SOL    MW4 8888   3.939   4.143   0.958  0.1073 -0.7625  0.4663
    1SOL     OW 8889   2.068   1.384   3.791 -0.2565  0.2776  0.8037
    1SOL    HW2 8890   2.024   1.299   3.785  0.7064 -0.2014  0.3334
    1SOL    HW3 8891   1.998   1.449   3.785 -0.8569 -0.4671 -0.1933
    1SOL    MW4 8892   2.053   1.381   3.790 -0.2086  0.1162  0.6096
    1SOL     OW 8893   3.298   3.722   3.933 -0.2349 -0.2706  0.4912
    1SOL    HW2 8894   3.280   3.650   3.872 -0.7529  0.4289 -0.2009
    1SOL    HW3 8895   3.391   3.713   3.955 -0.0764 -0.6112 -0.3091
    1SOL    MW4 8896   3.308   3.711   3.928 -0.2825 -0.2234  0.2940
    1SOL     OW 8897   0.892   3.932   2.415  0.0519 -0.1264  0.2341
    1SOL    HW2 8898   0.924   4.007   2.466  0.1694 -0.3880  0.5456
    1SOL    HW3 8899   0.883   3.966   2.326  0.5230  0.1390  0.2874
    1SOL    MW4 8900   0.895   3.946   2.410  0.1295 -0.1259  0.2823
    1SOL     OW 8901   1.754   1.387   2.778 -0.3285 -0.2917 -0.4394
    1SOL    HW2 8902   1.774   1.479   2.794 -1.2143 -0.1007 -0.3559
    1SOL    HW3 8903   1.781   1.372   2.687  0.7514 -0.2247 -0.1302
    1SOL    MW4 8904   1.760   1.397   2.768 -0.3027 -0.2576 -0.3877
    1SOL     OW 8905   3.594   1.328   1.284  0.2080 -0.5636 -0.2220
    1SOL    HW2 8906   3.633   1.351   1.200  0.0543  0.3172 -0.0502
    1SOL    HW3 8907   3.502   1.355   1.276  0.6187  1.2350  0.8957
    1SOL    MW4 8908   3.587   1.334   1.272  0.2418 -0.2102 -0.0520
    1SOL     OW 8909   0.017   1.386   3.226 -0.0472 -0.4673 -0.2263
    1SOL    HW2 8910  -0.008   1.376   3.318  0.8390  0.2953  0.1118
    1SOL    HW3 8911  -0.045   1.452   3.192  0.9970  0.8606  0.4079
    1SOL    MW4 8912   0.005   1.394   3.234  0.2074 -0.1916 -0.0978
    1SOL     OW 8913   1.940   0.777   2.119 -0.0414 -0.3944  0.3724
    1SOL    HW2 8914   1.892   0.856   2.093 -1.2092 -0.8973  0.9755
    1SOL    HW3 8915   1.953   0.729   2.037 -1.1372 -0.5648  0.2896
    1SOL    MW4 8916   1.935   0.781   2.104 -0.3401 -0.4832  0.4411
    1SOL     OW 8917   0.032   0.435   1.912  0.7262  0.2736 -0.1262
    1SOL    HW2 8918   0.117   0.423   1.954  0.5741 -0.8836 -0.1318
    1SOL    HW3 8919  -0.029   0.449   1.985  1.0914  2.2451 -0.1787
    1SOL    MW4 8920   0.035   0.435   1.927  0.7543  0.3811 -0.1339
    1SOL     OW 8921   0.776   2.521   3.097 -0.1044  0.0892 -0.0148
    1SOL    HW2 8922   0.792   2.609   3.062 -1.8589  0.1896 -0.6391
    1SOL    HW3 8923   0.684   2.522   3.123  0.1268 -1.2585  0.9008
    1SOL    MW4 8924   0.766   2.532   3.095 -0.3054 -0.0753  0.0236
    1SOL     OW 8925   3.155   1.246   3.142  0.3698  0.5660  0.4129
    1SOL    HW2 8926   3.126   1.323   3.093  0.6154  0.7222  0.5084
    1SOL    HW3 8927   3.247   1.236   3.117  0.8733  1.4498  1.8701
    1SOL    MW4 8928   3.163   1.255   3.132  0.4685  0.7033  0.6180
    1SOL     OW 8929   3.237   3.918   2.120  0.1155  0.1577 -0.0730
    1SOL    HW2 8930   3.305   3.917   2.187 -0.2590  0.8485  0.3196
    1SOL    HW3 8931   3.164   3.966   2.160 -1.1379 -1.7551  0.0469
    1SOL    MW4 8932   3.236   3.924   2.134 -0.0989 -0.0033 -0.0057
    1SOL     OW 8933   4.028   2.216   4.373 -0.2192  0.2256  0.2787
    1SOL    HW2 8934   3.939   2.251   4.371 -0.7251 -1.0821 -1.1361
    1SOL    HW3 8935   4.017   2.123   4.392  0.7345 -0.2249 -1.2913
    1SOL    MW4 8936   4.015   2.208   4.375 -0.1607 -0.0064 -0.1149
    1SOL     OW 8937   3.393   4.353   3.760 -0.0231  0.9109 -0.1788
    1SOL    HW2 8938   3.413   4.322   3.671 -0.0526 -0.2755  0.2117
    1SOL    HW3 8939   3.465   4.319   3.813 -0.7465  0.3982  0.4822
    1SOL    MW4 8940   3.405   4.344   3.755 -0.1223  0.6871 -0.0401
    1SOL     OW 8941   0.666   4.401   2.117  0.6564  0.7526  0.3908
    1SOL    HW2 8942   0.743   4.355   2.084 -0.3961  0.7442 -2.2028
    1SOL    HW3 8943   0.592   4.355   2.076 -0.7007  1.0699  2.4294
    1SOL    MW4 8944   0.666   4.389   2.107  0.3384  0.7935  0.3176
    1SOL     OW 8945   1.711   4.539   4.101  0.4114 -0.0476  0.3814
    1SOL    HW2 8946   1.668   4.555   4.185 -0.5004  0.5160 -0.1835
    1SOL    HW3 8947   1.718   4.625   4.060  3.3468  0.0861  1.0445
    1SOL    MW4 8948   1.707   4.552   4.106  0.6783  0.0443  0.3943
    1SOL     OW 8949   4.207   0.576   1.847  0.4999 -0.4965 -0.1227
    1SOL    HW2 8950   4.183   0.589   1.755  0.2926  0.2395  0.0340
    1SOL    HW3 8951   4.206   0.664   1.884  1.3798 -0.7064  0.3891
    1SOL    MW4 8952   4.203   0.589   1.840  0.5889 -0.4271 -0.0345
    1SOL     OW 8953   3.276   4.342   1.957  0.3286 -0.5436 -0.2370
    1SOL    HW2 8954   3.338   4.334   1.885  0.8113 -1.5137  0.2771
    1SOL    HW3 8955   3.321   4.301   2.031 -0.2338  0.2781  0.5657
    1SOL    MW4 8956   3.290   4.336   1.957  0.3181 -0.5631 -0.0633
    1SOL     OW 8957   4.384   3.806   3.118  0.3392 -0.1487 -0.5118
    1SOL    HW2 8958   4.421   3.850   3.041  1.2071 -1.0966 -0.6440
    1SOL    HW3 8959   4.395   3.713   3.101  2.2247 -0.3654  1.5437
    1SOL    MW4 8960   4.391   3.800   3.106  0.7024 -0.3023 -0.2577
    1SOL     OW 8961   1.942   0.561   3.054  0.1864  0.0514 -0.2996
    1SOL    HW2 8962   1.896   0.615   2.990  0.5663 -1.9808 -2.3631
    1SOL    HW3 8963   1.970   0.622   3.122  0.3680  2.4019 -2.4231
    1SOL    MW4 8964   1.940   0.576   3.055  0.2605  0.0934 -0.8516
    1SOL     OW 8965   4.028   4.554   3.649  0.6248  0.2844  0.9283
    1SOL    HW2 8966   4.078   4.633   3.671  3.0175 -1.3043  1.4161
    1SOL    HW3 8967   4.095   4.486   3.639 -1.4655 -1.9384  1.6727
    1SOL    MW4 8968   4.043   4.555   3.651  0.6647 -0.2179  1.0910
    1SOL     OW 8969   3.423   3.384   3.549 -0.5229  0.2090 -0.1559
    1SOL    HW2 8970   3.504   3.433   3.562  0.3128 -1.2862  0.4608
    1SOL    HW3 8971   3.358   3.450   3.527  1.1055  1.3377 -1.7612
    1SOL    MW4 8972   3.425   3.399   3.548 -0.1979  0.1605 -0.2863
    1SOL     OW 8973   4.414   1.118   1.861  0.5083  0.2601  0.0986
    1SOL    HW2 8974   4.339   1.066   1.832 -0.0010  0.3854  1.1554
    1SOL    HW3 8975   4.436   1.172   1.785  0.0687 -0.3869 -0.5004
    1SOL    MW4 8976   4.407   1.118   1.847  0.3834  0.1913  0.1589
    1SOL     OW 8977   3.163   2.430   1.946 -0.2441  0.3834 -0.7045
    1SOL    HW2 8978   3.193   2.367   2.013  0.3345  0.9219 -0.4475
    1SOL    HW3 8979   3.197   2.395   1.864  3.1141  2.1621 -0.1631
    1SOL    MW4 8980   3.172   2.417   1.944  0.2751  0.6890 -0.5993
    1SOL     OW 8981   1.291   4.548   1.647 -0.4809  0.4863  0.0283
    1SOL    HW2 8982   1.366   4.498   1.677 -1.6741 -0.2518  1.8449
    1SOL    HW3 8983   1.292   4.628   1.699  0.1964  1.4255 -1.3798
    1SOL    MW4 8984   1.301   4.552   1.658 -0.5488  0.5136  0.0821
    1SOL     OW 8985   0.137   1.634   0.790  0.0169  0.2042 -0.0045
    1SOL    HW2 8986   0.072   1.637   0.860  0.3890  0.6495  0.3177
    1SOL    HW3 8987   0.099   1.574   0.725  0.3646 -1.4236  1.2647
    1SOL    MW4 8988   0.123   1.626   0.790  0.1119  0.0482  0.2055
    1SOL     OW 8989   1.025   3.086   1.725 -0.4375 -0.3121  0.0935
    1SOL    HW2 8990   0.984   3.005   1.693 -2.4623  0.0062  1.7883
    1SOL    HW3 8991   1.034   3.141   1.647 -2.9104 -0.5475 -0.3760
    1SOL    MW4 8992   1.021   3.083   1.711 -1.0308 -0.3011  0.2551
    1SOL     OW 8993   4.342   3.359   2.459 -0.0591  0.3470  0.2884
    1SOL    HW2 8994   4.330   3.267   2.481  1.1226  0.7128  2.6012
    1SOL    HW3 8995   4.259   3.401   2.482  0.3588  0.3202  1.8622
    1SOL    MW4 8996   4.329   3.353   2.465  0.1516  0.3917  0.8011
    1SOL     OW 8997   0.980   0.301   1.610  0.3326 -0.0647  0.3112
    1SOL    HW2 8998   0.963   0.354   1.533 -1.1797 -2.1008 -0.8035
    1SOL    HW3 8999   0.924   0.339   1.678 -0.0631  0.3208 -0.2291
    1SOL    MW4 9000   0.970   0.313   1.609  0.0809 -0.2825  0.0929
    1SOL     OW 9001   3.522   4.612   4.490 -0.2217  0.1926  0.3421
    1SOL    HW2 9002   3.491   4.523   4.505  1.1079 -0.8440 -2.8588
    1SOL    HW3 9003   3.553   4.613   4.400  2.4266  3.1389  1.1881
    1SOL    MW4 9004   3.522   4.600   4.480  0.3033  0.4444  0.0310
    1SOL     OW 9005   4.201   1.402   1.082  0.3020 -0.3601 -0.3817
    1SOL    HW2 9006   4.178   1.488   1.048 -1.6193 -0.8561 -0.3928
    1SOL    HW3 9007   4.227   1.418   1.173 -0.5720  0.1630 -0.2200
    1SOL    MW4 9008   4.202   1.415   1.090 -0.0663 -0.3566 -0.3617
    1SOL     OW 9009   3.203   3.097   2.445  0.2107  0.2729  0.5850
    1SOL    HW2 9010   3.188   3.125   2.355 -0.0525 -0.1508  0.4944
    1SOL    HW3 9011   3.135   3.141   2.496 -0.3254 -0.3530  0.4143
    1SOL    MW4 9012   3.192   3.107   2.440  0.1051  0.1345  0.5510
    1SOL     OW 9013   2.552   2.774   2.167 -0.6020 -0.4983 -0.1350
    1SOL    HW2 9014   2.568   2.821   2.249 -0.8448  0.9999 -0.9209
    1SOL    HW3 9015   2.459   2.754   2.169 -0.4157 -1.3459  0.3955
    1SOL    MW4 9016   2.542   2.778   2.178 -0.6094 -0.4127 -0.1686
    1SOL     OW 9017   3.958   2.864   1.880  0.2247  0.3247 -0.2465
    1SOL    HW2 9018   3.975   2.788   1.935  2.3023 -0.4944 -1.9407
    1SOL    HW3 9019   3.876   2.845   1.835  0.5512 -0.7480 -0.3828
    1SOL    MW4 9020   3.950   2.852   1.881  0.5419  0.0751 -0.4880
    1SOL     OW 9021   0.027   0.340   2.765  0.0024  0.1795 -0.1113
    1SOL    HW2 9022  -0.006   0.424   2.798  1.9189  1.2916 -0.8939
    1SOL    HW3 9023  -0.052   0.291   2.740 -1.1113  2.1552 -0.5888
    1SOL    MW4 9024   0.012   0.345   2.766  0.1082  0.5869 -0.2775
    1SOL     OW 9025   3.874   2.995   2.626 -0.2033  0.3422 -0.8048
    1SOL    HW2 9026   3.930   3.025   2.697  0.3211  0.1491 -1.1305
    1SOL    HW3 9027   3.915   3.030   2.547 -0.4028 -0.0148 -1.0674
    1SOL    MW4 9028   3.887   3.004   2.625 -0.1605  0.2697 -0.8826
    1SOL     OW 9029   2.062   4.314   2.971  0.0527  0.4303 -0.2007
    1SOL    HW2 9030   2.032   4.402   2.947 -0.9793  0.2074  0.2293
    1SOL    HW3 9031   2.016   4.256   2.911  1.1422  0.2081 -0.8412
    1SOL    MW4 9032   2.052   4.318   2.960  0.0601  0.3715 -0.2286
    1SOL     OW 9033   4.143   4.017   3.074 -0.0456  0.1540  0.1833
    1SOL    HW2 9034   4.223   4.021   3.126  1.0170  0.6874 -1.4538
    1SOL    HW3 9035   4.168   4.052   2.989 -2.0702  0.4689 -0.3069
    1SOL    MW4 9036   4.157   4.022   3.070 -0.1726  0.2656 -0.0978
    1SOL     OW 9037   0.419   2.137   4.275 -0.2986 -0.1908 -0.1902
    1SOL    HW2 9038   0.388   2.222   4.244  0.8224  0.4715  0.4707
    1SOL    HW3 9039   0.347   2.077   4.257 -2.1341  1.3912  1.6957
    1SOL    MW4 9040   0.406   2.140   4.268 -0.3929  0.1054  0.1459
    1SOL     OW 9041   0.578   1.358   1.872 -0.2474  0.2713 -0.0543
    1SOL    HW2 9042   0.597   1.282   1.927 -0.1051  0.1259 -0.3058
    1SOL    HW3 9043   0.630   1.345   1.793 -1.0760  0.0685 -0.5688
    1SOL    MW4 9044   0.587   1.346   1.869 -0.3380  0.2253 -0.1554
    1SOL     OW 9045   1.418   1.597   3.773 -0.0034 -0.4457 -0.3617
    1SOL    HW2 9046   1.376   1.623   3.855  1.0950  0.1028  0.0377
    1SOL    HW3 9047   1.480   1.667   3.755  0.5780 -1.1311 -1.0592
    1SOL    MW4 9048   1.420   1.610   3.782  0.2182 -0.4638 -0.4010
    1SOL     OW 9049   4.351   2.625   1.673  0.0834  0.2537 -0.2046
    1SOL    HW2 9050   4.366   2.589   1.586  0.9275  0.8494 -0.3057
    1SOL    HW3 9051   4.256   2.639   1.677 -0.1248 -0.9795 -0.5512
    1SOL    MW4 9052   4.340   2.622   1.662  0.1669  0.1698 -0.2637
    1SOL     OW 9053   1.920   4.360   1.906  0.3834 -0.0899 -0.3916
    1SOL    HW2 9054   1.980   4.433   1.890 -0.7733  0.9611 -0.0034
    1SOL    HW3 9055   1.934   4.337   1.997  0.1826  0.1765 -0.2923
    1SOL    MW4 9056   1.929   4.367   1.916  0.2042  0.0839 -0.3272
    1SOL     OW 9057   1.235   4.015   0.989  0.3025 -0.4782  0.0493
    1SOL    HW2 9058   1.142   4.033   0.997  0.0216 -1.7570 -0.2029
    1SOL    HW3 9059   1.270   4.088   0.938 -0.1946  1.0271  1.8127
    1SOL    MW4 9060   1.228   4.027   0.983  0.1998 -0.4478  0.2487
    1SOL     OW 9061   1.771   2.347   4.349  0.2481 -0.3961  0.5515
    1SOL    HW2 9062   1.818   2.271   4.315 -1.0392 -0.8470 -0.2347
    1SOL    HW3 9063   1.815   2.422   4.309  0.2192 -0.8190 -0.2828
    1SOL    MW4 9064   1.783   2.347   4.339  0.0743 -0.5114  0.3381
    1SOL     OW 9065   2.036   2.870   0.590  0.4533 -0.4343 -0.3852
    1SOL    HW2 9066   1.955   2.836   0.554  0.5578 -1.2759  0.1645
    1SOL    HW3 9067   2.018   2.962   0.608  0.0616 -0.2848 -1.5536
    1SOL    MW4 9068   2.023   2.878   0.588  0.4158 -0.5255 -0.4669
    1SOL     OW 9069   2.546   0.496   3.011  0.2580 -0.3513  0.7189
    1SOL    HW2 9070   2.509   0.527   3.094  0.3171  0.3386  0.4926
    1SOL    HW3 9071   2.621   0.553   2.995  1.6920 -2.0099  1.3892
    1SOL    MW4 9072   2.551   0.508   3.020  0.4551 -0.4791  0.7777
    1SOL     OW 9073   0.084   0.451   2.395  0.2090 -0.0469 -0.1604
    1SOL    HW2 9074   0.096   0.508   2.319 -0.7365 -0.7712 -0.8606
    1SOL    HW3 9075   0.168   0.405   2.404 -0.0761 -0.8594 -1.5171
    1SOL    MW4 9076   0.097   0.452   2.386  0.0466 -0.2497 -0.4318
    1SOL     OW 9077   1.579   0.077   0.626  0.1226  0.6880  0.2591
    1SOL    HW2 9078   1.624  -0.002   0.658  1.1910  1.5019  0.8101
    1SOL    HW3 9079   1.532   0.048   0.548 -1.6533 -1.1106  1.9432
    1SOL    MW4 9080   1.579   0.063   0.620  0.0292  0.5581  0.5540
    1SOL     OW 9081   3.305   2.964   1.353  0.1291 -0.3247  0.7694
    1SOL    HW2 9082   3.258   2.949   1.271  0.0831  1.2138  0.5117
    1SOL    HW3 9083   3.336   2.877   1.378 -0.8547 -0.9951 -0.2632
    1SOL    MW4 9084   3.303   2.950   1.345 -0.0064 -0.2098  0.5991
    1SOL     OW 9085   0.599   0.663   2.008  0.0175  0.2149  0.0320
    1SOL    HW2 9086   0.581   0.715   2.086 -0.0746  0.2989 -0.0458
    1SOL    HW3 9087   0.662   0.715   1.958 -0.3782  0.4312 -0.2364
    1SOL    MW4 9088   0.605   0.677   2.012 -0.0468  0.2546 -0.0136
    1SOL     OW 9089   0.262   0.823   2.564  0.1380 -0.2257  0.4474
    1SOL    HW2 9090   0.292   0.808   2.475  1.1101  1.4137  0.4841
    1SOL    HW3 9091   0.184   0.768   2.573 -0.4483  0.2329 -1.6743
    1SOL    MW4 9092   0.256   0.813   2.554  0.1889  0.0511  0.1724
    1SOL     OW 9093   0.908   4.094   1.688  0.6700 -0.0875  0.1514
    1SOL    HW2 9094   0.917   4.189   1.695  0.0823 -0.0439  0.2867
    1SOL    HW3 9095   0.824   4.074   1.728  0.7474 -0.6581  0.0405
    1SOL    MW4 9096   0.898   4.104   1.694  0.6027 -0.1574  0.1549
    1SOL     OW 9097   3.910   3.527   4.251 -1.1292 -0.6163  0.0943
    1SOL    HW2 9098   3.847   3.600   4.257 -0.7783 -0.2987 -0.0585
    1SOL    HW3 9099   3.972   3.555   4.184  0.8926  0.4118  2.2807
    1SOL    MW4 9100   3.910   3.541   4.243 -0.8163 -0.4389  0.3619
    1SOL     OW 9101   1.164   3.873   3.874  0.1057 -0.4586  0.1947
    1SOL    HW2 9102   1.155   3.808   3.804 -0.0810 -0.1411 -0.0795
    1SOL    HW3 9103   1.176   3.956   3.828 -1.7366  0.0163  0.4952
    1SOL    MW4 9104   1.164   3.875   3.859 -0.1621 -0.3541  0.1984
    1SOL     OW 9105   3.488   1.080   3.836  0.1646 -0.1643  0.0877
    1SOL    HW2 9106   3.436   1.017   3.786  1.7694 -0.8426 -0.7595
    1SOL    HW3 9107   3.549   1.117   3.773 -0.2628  1.7376  0.7480
    1SOL    MW4 9108   3.489   1.076   3.821  0.3202 -0.0029  0.0627
    1SOL     OW 9109   3.928   3.694   1.400 -0.1499  0.5681 -0.4325
    1SOL    HW2 9110   3.862   3.764   1.404 -0.8498 -0.1262  0.4841
    1SOL    HW3 9111   3.926   3.655   1.487  1.6224  0.6609 -0.3460
    1SOL    MW4 9112   3.919   3.698   1.412 -0.0083  0.4885 -0.2999
    1SOL     OW 9113   2.859   3.769   4.112 -0.3703 -0.9889 -0.0847
    1SOL    HW2 9114   2.803   3.755   4.036 -0.6087 -2.7858  0.4064
    1SOL    HW3 9115   2.937   3.717   4.094  0.8097  0.8556 -0.3952
    1SOL    MW4 9116   2.862   3.761   4.099 -0.2460 -0.9825 -0.0606
    1SOL     OW 9117   0.528   2.760   1.890  0.3967  0.3280 -0.2504
    1SOL    HW2 9118   0.571   2.803   1.964  0.1824  1.7096 -0.9170
    1SOL    HW3 9119   0.470   2.695   1.931  1.0916  0.3262  0.7454
    1SOL    MW4 9120   0.526   2.757   1.906  0.4601  0.5100 -0.2071
    1SOL     OW 9121   0.343   1.540   4.435  0.4953 -0.2597 -0.4980
    1SOL    HW2 9122   0.425   1.591   4.435 -1.1273  2.4533 -1.7274
    1SOL    HW3 9123   0.310   1.549   4.346 -0.8071 -1.9181 -0.1856
    1SOL    MW4 9124   0.350   1.548   4.423  0.1094 -0.1205 -0.6185
    1SOL     OW 9125   1.328   1.339   2.339 -0.4075 -0.4657 -0.2074
    1SOL    HW2 9126   1.259   1.401   2.315 -0.1977 -0.5453 -1.0466
    1SOL    HW3 9127   1.339   1.285   2.261  1.4029  0.2710 -0.4966
    1SOL    MW4 9128   1.320   1.340   2.325 -0.1410 -0.3791 -0.3564
    1SOL     OW 9129   2.882   1.889   2.299  0.0345  0.0965  0.2539
    1SOL    HW2 9130   2.818   1.856   2.237  0.4635 -0.7119  0.2340
    1SOL    HW3 9131   2.850   1.861   2.384  2.0349 -3.1944 -0.0005
    1SOL    MW4 9132   2.869   1.881   2.302  0.3548 -0.4443  0.2177
    1SOL     OW 9133   0.360   2.150   0.589 -0.4139  0.2259 -0.3119
    1SOL    HW2 9134   0.366   2.057   0.566  1.5854  0.1458  0.4640
    1SOL    HW3 9135   0.447   2.185   0.572 -1.1105  1.9407 -0.4496
    1SOL    MW4 9136   0.372   2.142   0.583 -0.2420  0.4416 -0.2277
    1SOL     OW 9137   1.824   2.437   1.702  0.1857 -0.1837 -0.0344
    1SOL    HW2 9138   1.767   2.468   1.773  1.3590 -1.6226  1.5869
    1SOL    HW3 9139   1.878   2.513   1.680 -0.0315  0.2129  0.7742
    1SOL    MW4 9140   1.824   2.451   1.708  0.3120 -0.3214  0.2862
    1SOL     OW 9141   3.961   2.399   2.647  0.2154  0.1320  0.5012
    1SOL    HW2 9142   3.941   2.437   2.561 -0.5487  0.1380  0.6874
    1SOL    HW3 9143   4.050   2.430   2.666 -0.4337  1.9164  0.7008
    1SOL    MW4 9144   3.970   2.408   2.638  0.0288  0.3684  0.5522
    1SOL     OW 9145   2.633   3.245   2.742  0.3767 -0.4483  0.0016
    1SOL    HW2 9146   2.725   3.256   2.765 -0.2096  2.3416  1.2661
    1SOL    HW3 9147   2.623   3.292   2.659 -0.1341  0.2495  0.4517
    1SOL    MW4 9148   2.644   3.253   2.734  0.2317  0.0117  0.2277
    1SOL     OW 9149   0.814   0.360   1.845 -0.3520 -0.5339  0.2580
    1SOL    HW2 9150   0.719   0.360   1.857 -0.2193 -1.3047  1.4151
    1SOL    HW3 9151   0.849   0.332   1.930  0.9063 -0.3018 -0.1719
    1SOL    MW4 9152   0.806   0.356   1.858 -0.1685 -0.6050  0.3539
    1SOL     OW 9153   3.098   2.963   3.442 -0.4067 -0.4220  0.5867
    1SOL    HW2 9154   3.163   3.032   3.455  0.0391 -0.5636 -0.8737
    1SOL    HW3 9155   3.051   2.960   3.526 -0.5677  1.7811  0.6219
    1SOL    MW4 9156   3.100   2.972   3.455 -0.3688 -0.1500  0.3984
    1SOL     OW 9157   2.357   1.575   3.154 -0.1231 -0.0549 -0.5592
    1SOL    HW2 9158   2.396   1.648   3.106 -1.1992 -0.4446 -2.0772
    1SOL    HW3 9159   2.264   1.599   3.163 -0.6545 -1.5431 -1.7642
    1SOL    MW4 9160   2.350   1.588   3.149 -0.3352 -0.3026 -0.9186
    1SOL     OW 9161   2.755   0.532   3.703 -0.1448 -0.3682 -0.4902
    1SOL    HW2 9162   2.768   0.457   3.645 -0.6240 -1.1787  0.4430
    1SOL    HW3 9163   2.683   0.506   3.760 -0.3461  0.8247 -0.1882
    1SOL    MW4 9164   2.747   0.519   3.703 -0.2346 -0.3178 -0.3271
    1SOL     OW 9165   3.272   2.201   3.073 -0.0600  0.1127  0.3651
    1SOL    HW2 9166   3.202   2.260   3.099 -1.1992 -1.6795  1.4626
    1SOL    HW3 9167   3.272   2.204   2.977 -0.8650  1.0076  0.3853
    1SOL    MW4 9168   3.263   2.209   3.064 -0.3166 -0.0060  0.5128
    1SOL     OW 9169   3.270   1.244   1.016 -0.1287  0.0408  0.5061
    1SOL    HW2 9170   3.175   1.247   1.029 -0.1312 -0.7771  0.7141
    1SOL    HW3 9171   3.280   1.219   0.924 -0.1130  1.0115  0.2431
    1SOL    MW4 9172   3.259   1.241   1.005 -0.1271  0.0609  0.4990
    1SOL     OW 9173   2.014   2.919   1.555  0.1449 -0.0098 -0.3313
    1SOL    HW2 9174   2.002   2.825   1.568  0.9891 -0.0432  0.3236
    1SOL    HW3 9175   2.015   2.931   1.460 -0.9589 -0.5197 -0.4097
    1SOL    MW4 9176   2.013   2.908   1.544  0.1109 -0.0813 -0.2553
    1SOL     OW 9177   3.600   0.928   1.113  0.1848  0.3744  0.0721
    1SOL    HW2 9178   3.552   0.918   1.030 -0.6214  2.0575  0.3255
    1SOL    HW3 9179   3.666   0.994   1.094  1.2279 -0.5944  0.2604
    1SOL    MW4 9180   3.602   0.935   1.099  0.2162  0.4687  0.1304
    1SOL     OW 9181   0.731   4.195   3.680 -0.0313 -0.5189  0.9281
    1SOL    HW2 9182   0.677   4.251   3.736 -0.4182 -0.3632  0.4101
    1SOL    HW3 9183   0.704   4.218   3.591  1.4522  0.1236  0.6317
    1SOL    MW4 9184   0.720   4.206   3.675  0.1134 -0.4144  0.8204
    1SOL     OW 9185   4.178   0.108   3.676 -0.2801  0.5063 -0.1528
    1SOL    HW2 9186   4.156   0.200   3.687  0.0596  0.6013 -0.2672
    1SOL    HW3 9187   4.242   0.106   3.605 -0.0801  0.2088  0.0323
    1SOL    MW4 9188   4.183   0.120   3.668 -0.2089  0.4796 -0.1433
    1SOL     OW 9189   0.290   2.305   3.338 -0.2139 -0.4454 -0.1474
    1SOL    HW2 9190   0.372   2.288   3.292 -0.1502 -2.5109  0.6704
    1SOL    HW3 9191   0.228   2.327   3.269  0.0798 -2.7210 -1.1733
    1SOL    MW4 9192   0.293   2.305   3.323 -0.1667 -1.0180 -0.1750
    1SOL     OW 9193   3.710   3.567   3.874  0.4553  0.0863 -0.6878
    1SOL    HW2 9194   3.645   3.632   3.898  0.6651  0.4247 -1.0389
    1SOL    HW3 9195   3.698   3.497   3.938  0.1961  0.4441 -0.3432
    1SOL    MW4 9196   3.700   3.566   3.886  0.4489  0.1783 -0.6888
    1SOL     OW 9197   2.492   0.605   3.272  0.0070 -0.9598 -0.3856
    1SOL    HW2 9198   2.580   0.644   3.274 -0.6299  0.5424 -0.8666
    1SOL    HW3 9199   2.433   0.680   3.268 -1.3859 -1.8865  1.7108
    1SOL    MW4 9200   2.496   0.620   3.272 -0.2606 -0.8840 -0.1726
    1SOL     OW 9201   4.117   3.325   1.077 -0.4580 -0.4781  0.2489
    1SOL    HW2 9202   4.179   3.310   1.006 -0.7855 -2.2695  0.3275
    1SOL    HW3 9203   4.058   3.250   1.074 -1.4979  0.2861  1.3449
    1SOL    MW4 9204   4.117   3.313   1.068 -0.6385 -0.6135  0.4039
    1SOL     OW 9205   4.288   1.003   3.540 -0.4362 -0.0771 -0.2131
    1SOL    HW2 9206   4.224   1.073   3.550 -0.2586  0.0227  0.2194
    1SOL    HW3 9207   4.368   1.036   3.581 -1.1374 -1.5848  2.4766
    1SOL    MW4 9208   4.290   1.016   3.547 -0.5050 -0.2629  0.1988
    1SOL     OW 9209   3.767   3.604   2.422  0.3151  0.1188 -0.0682
    1SOL    HW2 9210   3.724   3.667   2.363 -0.6258 -1.1968 -0.8304
    1SOL    HW3 9211   3.804   3.657   2.492 -0.5356  1.5151 -0.6611
    1SOL    MW4 9212   3.766   3.619   2.423  0.0784  0.1295 -0.2472
    1SOL     OW 9213   3.531   4.448   2.959  0.2623  0.2473  0.3123
    1SOL    HW2 9214   3.472   4.418   3.028  0.6545 -1.3520 -0.0031
    1SOL    HW3 9215   3.526   4.379   2.892  1.5620  0.6864 -0.2561
    1SOL    MW4 9216   3.523   4.435   2.959  0.4854  0.0949  0.1957
    1SOL     OW 9217   1.373   1.655   2.626  0.1676 -0.2452 -0.0326
    1SOL    HW2 9218   1.393   1.565   2.649  1.0353 -0.0235  0.0753
    1SOL    HW3 9219   1.433   1.708   2.678  1.3102  0.3057 -1.8668
    1SOL    MW4 9220   1.383   1.650   2.636  0.4328 -0.1433 -0.2604
    1SOL     OW 9221   4.074   2.169   3.126  0.0478 -0.4096  0.5924
    1SOL    HW2 9222   4.123   2.095   3.161  1.1511 -0.5790 -1.2787
    1SOL    HW3 9223   4.121   2.247   3.158  1.9396 -0.5721 -1.6994
    1SOL    MW4 9224   4.086   2.170   3.135  0.4430 -0.4535  0.0432
    1SOL     OW 9225   1.698   0.111   2.298 -0.3849  0.7927 -0.4117
    1SOL    HW2 9226   1.721   0.202   2.283 -0.5979  0.8669 -0.2987
    1SOL    HW3 9227   1.742   0.062   2.229  0.6007  0.8635  0.1661
    1SOL    MW4 9228   1.707   0.116   2.287 -0.2830  0.8118 -0.3204
    1SOL     OW 9229   4.235   3.355   1.454 -0.6788 -0.0306 -0.0629
    1SOL    HW2 9230   4.195   3.419   1.396  0.0052 -0.1736 -0.6975
    1SOL    HW3 9231   4.162   3.314   1.499 -1.3400 -1.1643 -2.1196
    1SOL    MW4 9232   4.220   3.358   1.452 -0.6757 -0.1988 -0.4181
    1SOL     OW 9233   2.189   2.794   4.359  0.1036 -0.2491 -0.3044
    1SOL    HW2 9234   2.154   2.842   4.284 -0.1954 -0.8945 -0.5817
    1SOL    HW3 9235   2.112   2.757   4.402  0.1906  0.8965  0.8749
    1SOL    MW4 9236   2.174   2.795   4.355  0.0756 -0.1831 -0.1850
    1SOL     OW 9237   3.952   4.121   2.590  0.0225 -0.0817 -0.3055
    1SOL    HW2 9238   4.031   4.145   2.639 -1.1196 -2.0593  2.6665
    1SOL    HW3 9239   3.892   4.194   2.604 -0.2207 -0.5402  1.1307
    1SOL    MW4 9240   3.954   4.134   2.599 -0.1600 -0.4034  0.2763
    1SOL     OW 9241   1.009   3.404   4.454  0.1654 -0.0195  0.2566
    1SOL    HW2 9242   1.028   3.346   4.379 -0.1559  0.4897 -0.2204
    1SOL    HW3 9243   1.094   3.416   4.496  0.0475 -1.8201  1.0776
    1SOL    MW4 9244   1.022   3.398   4.449  0.1074 -0.1900  0.3018
    1SOL     OW 9245   0.715   1.258   1.666 -0.2805  0.1553 -0.2189
    1SOL    HW2 9246   0.763   1.304   1.597 -1.7000  0.3999 -1.0625
    1SOL    HW3 9247   0.713   1.167   1.638 -0.3386  0.1491 -0.1954
    1SOL    MW4 9248   0.721   1.252   1.653 -0.4755  0.1867 -0.3271
    1SOL     OW 9249   4.339   1.697   4.275  0.0887  0.2954 -0.3087
    1SOL    HW2 9250   4.335   1.763   4.343  0.4931 -0.2824  0.2843
    1SOL    HW3 9251   4.356   1.615   4.322  0.2887 -0.1177 -1.0916
    1SOL    MW4 9252   4.341   1.695   4.290  0.1678  0.1645 -0.3343
    1SOL     OW 9253   2.689   0.508   1.417 -0.2612 -0.5905 -0.3750
    1SOL    HW2 9254   2.686   0.576   1.349 -1.3369  1.4123  1.5930
    1SOL    HW3 9255   2.606   0.463   1.410 -0.1056 -0.8069 -0.8137
    1SOL    MW4 9256   2.678   0.511   1.407 -0.3827 -0.3548 -0.1731
    1SOL     OW 9257   2.009   2.279   1.447 -0.1099 -0.6166 -0.1561
    1SOL    HW2 9258   1.959   2.360   1.441  0.8116 -0.0039  0.4227
    1SOL    HW3 9259   2.095   2.300   1.411  0.6562 -0.8890  1.4698
    1SOL    MW4 9260   2.014   2.292   1.442  0.1128 -0.5720  0.1348
    1SOL     OW 9261   3.237   2.892   2.823  0.4871  0.2930 -0.1277
    1SOL    HW2 9262   3.142   2.886   2.814  0.3094 -0.3073  1.8624
    1SOL    HW3 9263   3.250   2.919   2.914  2.2866 -1.6291  0.2103
    1SOL    MW4 9264   3.226   2.895   2.834  0.7010 -0.0396  0.1793
    1SOL     OW 9265   1.073   2.696   4.275  0.4711 -0.2293 -0.2643
    1SOL    HW2 9266   1.057   2.700   4.369  1.0133 -0.3795 -0.1673
    1SOL    HW3 9267   1.000   2.643   4.241 -1.3317  2.1944 -0.3301
    1SOL    MW4 9268   1.061   2.689   4.283  0.3046  0.0708 -0.2604
    1SOL     OW 9269   1.509   0.297   3.948  0.0478 -0.8094  0.3303
    1SOL    HW2 9270   1.418   0.321   3.967 -0.0225  0.8052 -1.9277
    1SOL    HW3 9271   1.561   0.360   3.999 -0.1011 -0.7073  0.3581
    1SOL    MW4 9272   1.504   0.309   3.957  0.0188 -0.5829  0.0362
    1SOL     OW 9273   4.151   3.708   0.855 -0.3869 -0.3511 -0.2609
    1SOL    HW2 9274   4.112   3.644   0.915 -0.7386  0.3688  0.2852
    1SOL    HW3 9275   4.186   3.776   0.912 -1.7060  0.8952 -0.8955
    1SOL    MW4 9276   4.150   3.708   0.870 -0.6075 -0.0916 -0.2726
    1SOL     OW 9277   2.120   3.963   3.193  0.3758  0.7395 -0.2160
    1SOL    HW2 9278   2.070   4.042   3.177  0.0286  0.7203  0.7684
    1SOL    HW3 9279   2.075   3.919   3.265  2.0246  0.9363  0.9819
    1SOL    MW4 9280   2.108   3.967   3.200  0.5476  0.7627  0.0720
    1SOL     OW 9281   3.177   0.104   2.218 -0.4174 -0.0193  0.1898
    1SOL    HW2 9282   3.141   0.188   2.190 -0.6680 -0.2106 -0.0558
    1SOL    HW3 9283   3.198   0.058   2.137 -1.0761 -0.5412  0.3177
    1SOL    MW4 9284   3.175   0.109   2.204 -0.5376 -0.1134  0.1740
    1SOL     OW 9285   3.603   2.352   1.079 -0.1647 -0.0612  0.0684
    1SOL    HW2 9286   3.632   2.286   1.142  1.9416 -0.7241 -1.5292
    1SOL    HW3 9287   3.631   2.436   1.116  3.9398 -0.6685 -1.3816
    1SOL    MW4 9288   3.611   2.354   1.092  0.6547 -0.2289 -0.3337
    1SOL     OW 9289   3.477   1.234   1.741 -0.0016 -0.2715  0.3273
    1SOL    HW2 9290   3.556   1.285   1.724  1.1044 -1.3797  2.0423
    1SOL    HW3 9291   3.411   1.299   1.764  0.7250  0.5661  0.0634
    1SOL    MW4 9292   3.478   1.249   1.742  0.2401 -0.3071  0.5188
    1SOL     OW 9293   2.330   3.250   1.223  0.3074 -0.3545 -0.4675
    1SOL    HW2 9294   2.264   3.182   1.207 -1.5207  1.2641  0.0744
    1SOL    HW3 9295   2.318   3.313   1.153  1.0186  0.1750 -0.1216
    1SOL    MW4 9296   2.320   3.249   1.212  0.1600 -0.0710 -0.3505
    1SOL     OW 9297   1.086   3.310   3.688 -0.6011  0.5873  0.5077
    1SOL    HW2 9298   1.069   3.317   3.594  1.6021 -0.3845 -0.0008
    1SOL    HW3 9299   1.120   3.221   3.699  1.1203  1.3949  1.8891
    1SOL    MW4 9300   1.088   3.299   3.677 -0.0833  0.5658  0.6230
    1SOL     OW 9301   3.454   0.395   2.677  0.6618 -0.2000  0.3376
    1SOL    HW2 9302   3.427   0.402   2.769  0.9068 -2.0866  0.5667
    1SOL    HW3 9303   3.468   0.301   2.663 -3.2381 -0.4669 -2.6910
    1SOL    MW4 9304   3.452   0.384   2.687  0.1795 -0.4841 -0.0317
    1SOL     OW 9305   2.493   1.526   2.068  0.2218  0.4639 -0.5505
    1SOL    HW2 9306   2.456   1.587   2.004  1.7988  0.7563 -1.2127
    1SOL    HW3 9307   2.417   1.494   2.118 -0.9880  0.4830 -2.3316
    1SOL    MW4 9308   2.478   1.530   2.066  0.2704  0.5050 -0.8726
    1SOL     OW 9309   1.312   3.356   0.759 -0.1369  0.0892  0.2070
    1SOL    HW2 9310   1.395   3.403   0.747  0.0961 -0.5311 -0.6271
    1SOL    HW3 9311   1.333   3.287   0.822  1.0714 -2.7203 -3.1107
    1SOL    MW4 9312   1.326   3.353   0.766  0.0534 -0.3631 -0.3408
    1SOL     OW 9313   1.736   0.561   1.317  0.8592  0.1450  0.6758
    1SOL    HW2 9314   1.691   0.519   1.244  2.5340 -0.2824 -0.1350
    1SOL    HW3 9315   1.700   0.519   1.395 -2.1585  1.7629  0.2396
    1SOL    MW4 9316   1.726   0.550   1.318  0.6820  0.3020  0.5111
    1SOL     OW 9317   1.858   4.225   2.520 -0.0265  0.3532 -0.2800
    1SOL    HW2 9318   1.875   4.318   2.534  2.5914 -0.0378 -0.5813
    1SOL    HW3 9319   1.932   4.195   2.467 -1.6305 -1.5819 -1.4735
    1SOL    MW4 9320   1.870   4.233   2.515  0.1072  0.0463 -0.4776
    1SOL     OW 9321   0.341   3.723   1.553  0.0681 -0.2852  0.2957
    1SOL    HW2 9322   0.277   3.757   1.614  0.2921 -0.1855  0.4745
    1SOL    HW3 9323   0.323   3.629   1.548 -0.9401 -0.0548 -0.6573
    1SOL    MW4 9324   0.330   3.715   1.560 -0.0354 -0.2418  0.1936
    1SOL     OW 9325   3.054   1.527   3.044 -0.1103 -0.1746  0.1831
    1SOL    HW2 9326   3.120   1.531   2.974 -1.7638 -0.6809 -1.4628
    1SOL    HW3 9327   2.994   1.459   3.015 -0.5536 -0.7259  2.3886
    1SOL    MW4 9328   3.055   1.519   3.031 -0.3870 -0.3140  0.2573
    1SOL     OW 9329   0.221   1.165   1.609 -0.2747  0.3044  0.2858
    1SOL    HW2 9330   0.206   1.080   1.650 -1.1773  0.6098  0.6191
    1SOL    HW3 9331   0.257   1.219   1.679  2.3760 -0.4103 -0.5051
    1SOL    MW4 9332   0.224   1.161   1.624 -0.0441  0.2503  0.2253
    1SOL     OW 9333   1.719   1.418   4.417  0.2064  0.5923  0.5037
    1SOL    HW2 9334   1.783   1.347   4.428  0.3712  0.4687 -1.1985
    1SOL    HW3 9335   1.767   1.487   4.371 -0.9616  0.3528 -1.1206
    1SOL    MW4 9336   1.734   1.417   4.412  0.0740  0.5443  0.0644
    1SOL     OW 9337   3.344   4.106   2.678 -0.1938  0.4014 -0.2530
    1SOL    HW2 9338   3.284   4.134   2.747 -0.0504  0.5804 -0.1987
    1SOL    HW3 9339   3.328   4.012   2.668  0.2312  0.2511  0.4646
    1SOL    MW4 9340   3.334   4.098   2.686 -0.1187  0.4048 -0.1512
    1SOL     OW 9341   3.382   1.525   3.672  0.3423  0.0030 -0.0870
    1SOL    HW2 9342   3.456   1.573   3.709 -0.1647  0.6284  0.1138
    1SOL    HW3 9343   3.364   1.568   3.588 -1.0817  1.1620  0.7742
    1SOL    MW4 9344   3.389   1.537   3.666  0.0875  0.2385  0.0532
    1SOL     OW 9345   3.309   1.382   1.317 -0.2918  0.4614  0.2184
    1SOL    HW2 9346   3.288   1.473   1.297  0.3413  0.6237  0.2761
    1SOL    HW3 9347   3.227   1.334   1.303  0.0258  0.6361 -2.3188
    1SOL    MW4 9348   3.295   1.387   1.313 -0.1664  0.5059 -0.1087
    1SOL     OW 9349   2.717   3.466   1.078  0.5019 -0.1154 -0.2393
    1SOL    HW2 9350   2.764   3.518   1.013  1.2894  1.0666  1.2368
    1SOL    HW3 9351   2.662   3.529   1.125  0.5595 -0.8054  0.7793
    1SOL    MW4 9352   2.716   3.481   1.076  0.6132 -0.0505  0.0898
    1SOL     OW 9353   1.103   1.642   2.836 -0.3450 -0.2736  0.2882
    1SOL    HW2 9354   1.019   1.610   2.867  1.2068 -2.6785  2.2402
    1SOL    HW3 9355   1.127   1.710   2.900  0.0924 -0.9883  0.8895
    1SOL    MW4 9356   1.095   1.647   2.849 -0.0826 -0.6852  0.6251
    1SOL     OW 9357   3.711   3.294   4.326 -0.0719 -0.0192 -0.2731
    1SOL    HW2 9358   3.725   3.239   4.249 -1.8953  1.3487 -1.6345
    1SOL    HW3 9359   3.756   3.376   4.306  0.0850  0.0826  0.4637
    1SOL    MW4 9360   3.719   3.297   4.313 -0.2916  0.1745 -0.3557
    1SOL     OW 9361   1.400   3.412   1.301  0.2788 -0.2082 -0.6932
    1SOL    HW2 9362   1.406   3.364   1.384  1.3419  1.8114  0.4326
    1SOL    HW3 9363   1.307   3.411   1.279  0.0587 -1.2209  0.2175
    1SOL    MW4 9364   1.389   3.405   1.309  0.3902 -0.0753 -0.4245
    1SOL     OW 9365   3.801   4.640   0.978 -0.4662 -0.3517 -0.4109
    1SOL    HW2 9366   3.816   4.726   0.941  0.5184  0.8129  2.5564
    1SOL    HW3 9367   3.885   4.595   0.970 -0.3487 -0.2218  0.0780
    1SOL    MW4 9368   3.814   4.645   0.972 -0.3207 -0.1812  0.0451
    1SOL     OW 9369   1.125   2.871   2.330 -0.0057 -0.4215  0.0468
    1SOL    HW2 9370   1.136   2.777   2.344 -1.6570 -0.5027  0.9369
    1SOL    HW3 9371   1.147   2.911   2.414  0.3327 -0.0447 -0.2219
    1SOL    MW4 9372   1.129   2.864   2.343 -0.1788 -0.3827  0.1290
    1SOL     OW 9373   0.347   4.656   3.024  0.5201 -1.1635  0.0205
    1SOL    HW2 9374   0.390   4.740   3.007 -0.0540 -0.9576 -0.4325
    1SOL    HW3 9375   0.263   4.662   2.978  0.0497 -1.6055  0.8022
    1SOL    MW4 9376   0.341   4.667   3.016  0.3823 -1.1946  0.0639
    1SOL     OW 9377   4.335   2.457   2.926  0.6281 -0.0811 -0.0628
    1SOL    HW2 9378   4.425   2.486   2.913  0.5511  0.1898  0.0193
    1SOL    HW3 9379   4.287   2.536   2.951  0.3331 -0.1942 -0.2760
    1SOL    MW4 9380   4.341   2.471   2.928  0.5798 -0.0603 -0.0801
    1SOL     OW 9381   0.307   0.375   3.182  0.5450 -0.3864 -0.1246
    1SOL    HW2 9382   0.346   0.315   3.246  2.0303  0.8056  0.1127
    1SOL    HW3 9383   0.217   0.344   3.173  1.0570 -2.1773  0.5693
    1SOL    MW4 9384   0.301   0.363   3.189  0.8086 -0.4654 -0.0017
    1SOL     OW 9385   0.641   2.549   1.124  0.2498  0.3758 -0.4260
    1SOL    HW2 9386   0.675   2.461   1.108 -1.4647 -0.8364  2.1407
    1SOL    HW3 9387   0.719   2.603   1.138  1.2810 -1.1677 -0.0768
    1SOL    MW4 9388   0.656   2.544   1.124  0.1597  0.0124 -0.0414
    1SOL     OW 9389   3.993   4.120   2.313 -0.1621 -0.0651 -0.4270
    1SOL    HW2 9390   3.970   4.115   2.405 -1.3531  0.7738 -0.6727
    1SOL    HW3 9391   4.010   4.029   2.287 -2.2261 -0.6030  0.0119
    1SOL    MW4 9392   3.992   4.107   2.321 -0.5915 -0.0253 -0.4015
    1SOL     OW 9393   3.032   4.482   3.233  0.8104 -0.4315 -0.3859
    1SOL    HW2 9394   3.067   4.554   3.285 -0.7300 -0.7331  1.1208
    1SOL    HW3 9395   3.057   4.502   3.143  0.1372  2.1287 -0.0342
    1SOL    MW4 9396   3.040   4.494   3.228  0.5181 -0.1335 -0.1407
    1SOL     OW 9397   2.851   2.228   4.109  0.2877 -0.2153 -0.4156
    1SOL    HW2 9398   2.784   2.203   4.045 -0.6547  1.8246 -0.2893
    1SOL    HW3 9399   2.803   2.279   4.175  1.2276 -2.3123  1.9559
    1SOL    MW4 9400   2.836   2.232   4.110  0.2873 -0.2227 -0.0863
    1SOL     OW 9401   3.312   1.330   4.149  0.0210 -0.5104  0.1658
    1SOL    HW2 9402   3.327   1.236   4.135 -1.3322 -0.6055 -0.7533
    1SOL    HW3 9403   3.277   1.361   4.066 -0.4716  0.6034  0.7772
    1SOL    MW4 9404   3.309   1.322   4.137 -0.2224 -0.3760  0.1254
    1SOL     OW 9405   1.675   1.501   4.001  0.0028  0.3407 -0.5059
    1SOL    HW2 9406   1.641   1.416   4.030  1.9765 -0.5319 -0.6692
    1SOL    HW3 9407   1.597   1.556   3.991 -1.1705 -0.9849  1.0897
    1SOL    MW4 9408   1.660   1.497   4.003  0.1085  0.0507 -0.3171
    1SOL     OW 9409   3.964   1.239   1.503  0.2314 -0.6219  0.2760
    1SOL    HW2 9410   4.037   1.292   1.535  1.1960 -1.3338 -0.7279
    1SOL    HW3 9411   3.995   1.149   1.512 -0.3182 -0.9024 -0.6565
    1SOL    MW4 9412   3.978   1.235   1.509  0.2861 -0.7528  0.0205
    1SOL     OW 9413   2.980   4.308   3.726 -0.5513 -0.0909 -0.0028
    1SOL    HW2 9414   2.946   4.393   3.753  0.9259  0.7960 -0.8430
    1SOL    HW3 9415   2.928   4.284   3.649 -0.0866  0.6999 -0.5731
    1SOL    MW4 9416   2.969   4.316   3.719 -0.2952  0.1302 -0.1888
    1SOL     OW 9417   2.844   0.058   2.555  0.5993 -0.2754 -0.0161
    1SOL    HW2 9418   2.752   0.085   2.551  0.7030  0.1234  0.2937
    1SOL    HW3 9419   2.842  -0.025   2.602  0.3364 -0.5648 -0.5284
    1SOL    MW4 9420   2.831   0.050   2.561  0.5782 -0.2610 -0.0427
    1SOL     OW 9421   1.734   3.808   2.927 -0.1457 -0.0445  0.6174
    1SOL    HW2 9422   1.707   3.717   2.915 -1.4770  0.2335  1.3708
    1SOL    HW3 9423   1.827   3.803   2.947 -0.3019 -1.2802  1.0801
    1SOL    MW4 9424   1.743   3.795   2.928 -0.3420 -0.1709  0.7777
    1SOL     OW 9425   4.418   1.947   2.683  1.3300 -0.1150 -0.0705
    1SOL    HW2 9426   4.380   1.976   2.600  2.0370 -0.0155 -0.3666
    1SOL    HW3 9427   4.345   1.911   2.733  0.4889  1.8647  0.1674
    1SOL    MW4 9428   4.404   1.946   2.679  1.3123  0.1593 -0.0780
    1SOL     OW 9429   1.862   3.832   4.580  0.6406 -0.0269  0.1108
    1SOL    HW2 9430   1.953   3.819   4.552  0.7958  0.5671  0.3140
    1SOL    HW3 9431   1.818   3.866   4.503  0.5196 -0.5977 -0.0730
    1SOL    MW4 9432   1.868   3.835   4.566  0.6452 -0.0238  0.1135
    1SOL     OW 9433   0.762   4.063   0.660  0.1131 -0.1764  0.2263
    1SOL    HW2 9434   0.836   4.004   0.676  0.5843  0.1846 -0.5485
    1SOL    HW3 9435   0.718   4.071   0.744  1.0174 -0.3166  0.7143
    1SOL    MW4 9436   0.766   4.056   0.673  0.2946 -0.1478  0.1884
    1SOL     OW 9437   0.842   2.581   0.593 -0.2661 -0.1527 -0.5548
    1SOL    HW2 9438   0.882   2.495   0.578 -0.1680 -0.1506 -0.2981
    1SOL    HW3 9439   0.748   2.566   0.580 -0.1367 -0.0413 -1.6802
    1SOL    MW4 9440   0.835   2.568   0.589 -0.2360 -0.1376 -0.6695
    1SOL     OW 9441   2.884   1.480   1.210  0.3165  0.0775 -0.2584
    1SOL    HW2 9442   2.795   1.446   1.221 -0.3987  1.6551 -1.0413
    1SOL    HW3 9443   2.887   1.508   1.118  1.9978 -0.9922 -0.5529
    1SOL    MW4 9444   2.873   1.479   1.199  0.4437  0.1446 -0.4005
    1SOL     OW 9445   0.577   3.975   3.365  0.7190  0.5090  0.0512
    1SOL    HW2 9446   0.578   4.065   3.398  1.8595  0.5420 -0.0552
    1SOL    HW3 9447   0.617   3.923   3.434  2.9214  0.5481 -1.1571
    1SOL    MW4 9448   0.582   3.980   3.378  1.1600  0.5188 -0.1223
    1SOL     OW 9449   1.557   3.542   2.237  0.6046  0.1742 -0.2878
    1SOL    HW2 9450   1.575   3.495   2.155  2.4460 -0.4128  0.4272
    1SOL    HW3 9451   1.604   3.625   2.227 -2.5691  1.9444 -1.5153
    1SOL    MW4 9452   1.566   3.547   2.225  0.4287  0.3302 -0.3555
    1SOL     OW 9453   2.469   1.059   4.079  0.0181  0.0311 -0.2615
    1SOL    HW2 9454   2.383   1.059   4.120  0.1198  1.0214 -0.0324
    1SOL    HW3 9455   2.472   1.141   4.030 -0.1954 -1.2360 -2.4548
    1SOL    MW4 9456   2.458   1.070   4.078  0.0036 -0.0054 -0.5202
    1SOL     OW 9457   3.292   2.508   2.820  0.2013 -0.0866 -0.0517
    1SOL    HW2 9458   3.208   2.530   2.778 -0.0194 -0.6162  0.0999
    1SOL    HW3 9459   3.287   2.549   2.906 -0.0177 -0.3346  0.0572
    1SOL    MW4 9460   3.280   2.516   2.826  0.1431 -0.1893 -0.0172
    1SOL     OW 9461   2.356   0.776   4.003  0.4374 -0.2764  0.5107
    1SOL    HW2 9462   2.308   0.850   3.965  1.5795 -0.3913 -1.1927
    1SOL    HW3 9463   2.445   0.784   3.968  1.7683  0.0787  3.8451
    1SOL    MW4 9464   2.361   0.787   3.993  0.7634 -0.2447  0.7260
    1SOL     OW 9465   3.205   0.460   3.565  0.4389  0.0575  0.3121
    1SOL    HW2 9466   3.132   0.512   3.532  0.3126 -0.1146  0.3226
    1SOL    HW3 9467   3.278   0.483   3.506  0.2059 -0.2707 -0.1084
    1SOL    MW4 9468   3.205   0.470   3.553  0.3915 -0.0086  0.2580
    1SOL     OW 9469   0.681   1.288   0.652  0.4845 -0.3222  0.2381
    1SOL    HW2 9470   0.599   1.324   0.619  0.2721 -1.2437 -0.2480
    1SOL    HW3 9471   0.678   1.303   0.747 -0.4063 -0.6821  0.2690
    1SOL    MW4 9472   0.670   1.295   0.660  0.3389 -0.4913  0.1781
    1SOL     OW 9473   1.121   4.488   4.558  0.1770  0.3377  0.2791
    1SOL    HW2 9474   1.208   4.516   4.529 -0.1072  1.6468  0.6409
    1SOL    HW3 9475   1.085   4.440   4.484  1.5551 -0.9926  0.4510
    1SOL    MW4 9476   1.128   4.486   4.545  0.3214  0.3352  0.3490
    1SOL     OW 9477   0.067   1.753   4.090 -0.1001  0.0249  0.3846
    1SOL    HW2 9478  -0.008   1.750   4.149 -1.1276 -1.7470 -0.9802
    1SOL    HW3 9479   0.128   1.688   4.126 -0.5180 -0.7057 -0.2252
    1SOL    MW4 9480   0.065   1.744   4.103 -0.2908 -0.3053  0.1240
    1SOL     OW 9481   4.469   4.245   0.478  0.0624  0.3355  0.5305
    1SOL    HW2 9482   4.513   4.330   0.468 -0.5230  0.4377 -1.4391
    1SOL    HW3 9483   4.540   4.183   0.494  0.4636  1.2395  2.3205
    1SOL    MW4 9484   4.484   4.248   0.479  0.0381  0.4683  0.5068
    1SOL     OW 9485   2.562   2.758   0.470  0.5783  0.1217 -0.1899
    1SOL    HW2 9486   2.586   2.764   0.377  1.4583  1.9081  0.1307
    1SOL    HW3 9487   2.611   2.829   0.512 -0.2661 -0.3034  1.5521
    1SOL    MW4 9488   2.572   2.768   0.463  0.5832  0.3016  0.0822
    1SOL     OW 9489   3.399   3.482   2.264 -0.1379  0.3209  0.4275
    1SOL    HW2 9490   3.432   3.498   2.176 -1.4082 -1.0402 -0.3297
    1SOL    HW3 9491   3.305   3.502   2.259  0.0569  1.7071  1.8782
    1SOL    MW4 9492   3.391   3.487   2.251 -0.2797  0.3242  0.5190
    1SOL     OW 9493   2.480   2.827   1.654 -0.0932 -0.0117 -0.2351
    1SOL    HW2 9494   2.524   2.810   1.737 -2.2489  0.2585  1.0199
    1SOL    HW3 9495   2.550   2.842   1.592  1.5595  0.9330  1.7869
    1SOL    MW4 9496   2.495   2.827   1.657 -0.1597  0.1488  0.1973
    1SOL     OW 9497   2.353   4.105   2.249 -0.0392 -0.8071 -0.6508
    1SOL    HW2 9498   2.282   4.104   2.313  0.6526 -1.4113  0.1213
    1SOL    HW3 9499   2.420   4.048   2.287  1.6882  1.3156 -0.4285
    1SOL    MW4 9500   2.353   4.097   2.262  0.2794 -0.6061 -0.5195
    1SOL     OW 9501   3.367   3.360   1.591  0.2403 -0.7074 -0.1807
    1SOL    HW2 9502   3.313   3.327   1.519  0.8343 -0.2083 -0.8575
    1SOL    HW3 9503   3.305   3.374   1.662 -0.9210  2.0723 -1.6649
    1SOL    MW4 9504   3.352   3.357   1.591  0.1655 -0.2749 -0.4660
    1SOL     OW 9505   1.276   1.471   0.798  0.1456  0.8852 -0.1484
    1SOL    HW2 9506   1.282   1.506   0.887  1.0539 -0.8384  0.4807
    1SOL    HW3 9507   1.183   1.454   0.785 -0.0633  1.7187  0.2389
    1SOL    MW4 9508   1.265   1.473   0.808  0.2378  0.7678 -0.0144
    1SOL     OW 9509   3.400   1.282   3.554 -0.3875 -0.1651  0.2311
    1SOL    HW2 9510   3.391   1.362   3.606  0.7586 -0.1255  0.3818
    1SOL    HW3 9511   3.325   1.228   3.580 -0.0276 -0.0020  1.6748
    1SOL    MW4 9512   3.389   1.285   3.564 -0.1888 -0.1384  0.4413
    1SOL     OW 9513   3.693   0.324   3.653  0.5484  0.8128 -0.1727
    1SOL    HW2 9514   3.625   0.264   3.622  0.2569  0.3263  1.3646
    1SOL    HW3 9515   3.695   0.310   3.748  0.0597  3.6780  0.2828
    1SOL    MW4 9516   3.684   0.314   3.661  0.4451  1.1266  0.0901
    1SOL     OW 9517   4.001   1.641   4.537  0.4335 -0.4110 -0.0669
    1SOL    HW2 9518   4.018   1.728   4.501 -1.3194 -0.1180 -0.2009
    1SOL    HW3 9519   4.035   1.645   4.627  2.3314 -0.2915 -0.7616
    1SOL    MW4 9520   4.008   1.653   4.544  0.4525 -0.3566 -0.1769
    1SOL     OW 9521   1.192   2.157   1.198  0.3404 -0.1264  0.2377
    1SOL    HW2 9522   1.207   2.247   1.227 -0.4792  0.7894 -2.0604
    1SOL    HW3 9523   1.220   2.156   1.107 -1.4135 -1.6975 -0.3188
    1SOL    MW4 9524   1.197   2.169   1.190  0.0008 -0.2127 -0.1390
    1SOL     OW 9525   2.528   4.156   1.459  0.0444  0.3302 -0.4928
    1SOL    HW2 9526   2.621   4.132   1.466 -0.0731 -0.6871 -2.1464
    1SOL    HW3 9527   2.501   4.121   1.374 -2.4425 -1.3214  0.9290
    1SOL    MW4 9528   2.537   4.148   1.449 -0.2990 -0.0224 -0.5234
    1SOL     OW 9529   3.634   3.549   3.603 -0.1159  0.2681  0.0294
    1SOL    HW2 9530   3.686   3.616   3.559 -2.1954  1.0976 -1.2523
    1SOL    HW3 9531   3.663   3.552   3.694  1.9677  0.7743 -0.6185
    1SOL    MW4 9532   3.645   3.558   3.609 -0.1154  0.4442 -0.2251
    1SOL     OW 9533   1.257   3.506   3.086 -0.7337 -0.1864  0.3925
    1SOL    HW2 9534   1.253   3.597   3.115  2.2262 -0.0112  0.3880
    1SOL    HW3 9535   1.277   3.511   2.993 -0.3888 -0.8479  0.4271
    1SOL    MW4 9536   1.259   3.519   3.078 -0.2977 -0.2503  0.3965
    1SOL     OW 9537   2.114   1.926   3.317  0.2175 -0.4028  0.6489
    1SOL    HW2 9538   2.076   1.951   3.402  0.6910 -0.2634  0.8239
    1SOL    HW3 9539   2.074   1.987   3.255  0.4875  0.0318  0.8979
    1SOL    MW4 9540   2.104   1.937   3.320  0.3157 -0.3270  0.7048
    1SOL     OW 9541   0.459   3.374   2.624  0.6470  0.1082 -0.3795
    1SOL    HW2 9542   0.418   3.456   2.597 -3.4475 -0.7736  2.8059
    1SOL    HW3 9543   0.517   3.399   2.697 -1.8888  0.0013  1.7236
    1SOL    MW4 9544   0.461   3.389   2.630 -0.2278 -0.0222  0.3185
    1SOL     OW 9545   1.792   2.406   3.396  0.2251  0.0667  0.3468
    1SOL    HW2 9546   1.723   2.419   3.331 -1.1297  0.0443  1.7653
    1SOL    HW3 9547   1.815   2.313   3.389 -0.5179 -0.1275  0.4919
    1SOL    MW4 9548   1.786   2.395   3.386 -0.0517  0.0379  0.5531
    1SOL     OW 9549   0.338   2.389   4.191 -0.6244  0.1710  0.1220
    1SOL    HW2 9550   0.364   2.423   4.277 -0.5609  0.0410  0.1545
    1SOL    HW3 9551   0.245   2.412   4.184 -0.4101  0.9849 -0.1657
    1SOL    MW4 9552   0.329   2.397   4.202 -0.5877  0.2613  0.0887
    1SOL     OW 9553   1.872   4.552   3.222 -0.2929  0.6488  0.1231
    1SOL    HW2 9554   1.903   4.642   3.213 -0.9259  0.8474 -0.0882
    1SOL    HW3 9555   1.779   4.560   3.243 -0.2037  0.0582  0.7668
    1SOL    MW4 9556   1.864   4.565   3.224 -0.3645  0.5975  0.1800
    1SOL     OW 9557   0.062   4.505   2.461 -0.2157  0.0196  0.9783
    1SOL    HW2 9558   0.068   4.446   2.536  0.2260 -0.4519  0.5702
    1SOL    HW3 9559   0.023   4.453   2.392  0.2143  0.1950  0.6029
    1SOL    MW4 9560   0.058   4.491   2.462 -0.1007 -0.0191  0.8750
    1SOL     OW 9561   3.182   4.213   2.863 -0.4573 -0.1808  0.3491
    1SOL    HW2 9562   3.100   4.162   2.862 -0.7109  0.2329 -0.1194
    1SOL    HW3 9563   3.164   4.288   2.807  0.3463 -0.2382  0.0109
    1SOL    MW4 9564   3.168   4.216   2.856 -0.3850 -0.1340  0.2427
    1SOL     OW 9565   3.860   2.881   4.266  0.3648 -0.4559  0.3043
    1SOL    HW2 9566   3.804   2.890   4.343 -0.6769 -0.2952 -0.4553
    1SOL    HW3 9567   3.923   2.813   4.289  0.2865 -0.1606  1.4217
    1SOL    MW4 9568   3.861   2.873   4.279  0.2174 -0.3958  0.3519
    1SOL     OW 9569   2.732   4.474   3.061 -0.7887  0.3764 -0.3916
    1SOL    HW2 9570   2.674   4.528   3.007  0.2693  0.5836 -1.3254
    1SOL    HW3 9571   2.817   4.517   3.056 -0.7182  0.5239  1.6433
    1SOL    MW4 9572   2.735   4.487   3.053 -0.6399  0.4234 -0.2463
    1SOL     OW 9573   2.488   3.888   1.031  0.2915 -0.0199  0.5228
    1SOL    HW2 9574   2.444   3.815   1.076 -1.4407  0.3978 -0.4414
    1SOL    HW3 9575   2.417   3.936   0.989  1.6906  0.6770 -1.1113
    1SOL    MW4 9576   2.473   3.885   1.031  0.2475  0.1273  0.1800
    1SOL     OW 9577   0.793   2.467   2.132  0.6154  0.1463  0.1413
    1SOL    HW2 9578   0.837   2.444   2.214  1.7723 -1.4108 -0.8617
    1SOL    HW3 9579   0.703   2.488   2.157  0.5039 -1.9366  1.6198
    1SOL    MW4 9580   0.787   2.467   2.146  0.7533 -0.3338  0.2041
    1SOL     OW 9581   1.612   4.327   3.617  0.0959  0.1414  0.2653
    1SOL    HW2 9582   1.524   4.316   3.653  0.5934 -0.9140  1.1877
    1SOL    HW3 9583   1.669   4.331   3.693  0.9988 -0.5915 -0.3606
    1SOL    MW4 9584   1.608   4.326   3.632  0.2806 -0.0949  0.3045
    1SOL     OW 9585   2.629   2.882   2.405  0.4987  0.3923 -0.2832
    1SOL    HW2 9586   2.709   2.926   2.433  0.5981  0.7280 -1.0803
    1SOL    HW3 9587   2.639   2.792   2.436  1.3528  0.3404 -0.6785
    1SOL    MW4 9588   2.641   2.876   2.412  0.6247  0.4296 -0.4406
    1SOL     OW 9589   1.210   2.490   2.994  0.1783 -0.3609  0.3595
    1SOL    HW2 9590   1.158   2.421   2.952  1.4723 -1.2368  0.1746
    1SOL    HW3 9591   1.248   2.447   3.071  2.3199 -0.3528 -0.6492
    1SOL    MW4 9592   1.208   2.475   2.998  0.6316 -0.4754  0.2019
    1SOL     OW 9593   2.687   4.081   4.300 -0.2957  0.1162  0.2248
    1SOL    HW2 9594   2.644   4.163   4.276 -0.4216 -0.3621 -1.2959
    1SOL    HW3 9595   2.624   4.013   4.274  0.0366 -0.4683  0.9558
    1SOL    MW4 9596   2.673   4.083   4.293 -0.2682 -0.0243  0.1206
    1SOL     OW 9597   3.706   3.434   3.223  0.0691  0.3588  0.1092
    1SOL    HW2 9598   3.669   3.522   3.217  0.2007  0.4220  0.2235
    1SOL    HW3 9599   3.704   3.402   3.133  0.3661  0.6234  0.0055
    1SOL    MW4 9600   3.701   3.441   3.210  0.1259  0.4020  0.1106
    1SOL     OW 9601   0.012   3.426   0.969  0.5372  0.1369  0.0163
    1SOL    HW2 9602  -0.018   3.486   1.037  0.5271  0.4298 -0.2436
    1SOL    HW3 9603   0.086   3.471   0.928  0.9091 -0.2950  0.2186
    1SOL    MW4 9604   0.018   3.440   0.972  0.5849  0.1185  0.0086
    1SOL     OW 9605   0.245   1.815   3.549  0.1640 -0.3260  0.2632
    1SOL    HW2 9606   0.340   1.814   3.539  0.1831  1.2498  0.0482
    1SOL    HW3 9607   0.211   1.792   3.463  0.3407 -2.1120  0.6552
    1SOL    MW4 9608   0.253   1.812   3.536  0.1898 -0.3538  0.2866
    1SOL     OW 9609   3.335   0.810   1.796 -0.1448  0.2415 -0.3443
    1SOL    HW2 9610   3.351   0.835   1.705  0.1864  1.0025 -0.0785
    1SOL    HW3 9611   3.412   0.759   1.820  0.2501  0.9105 -0.1734
    1SOL    MW4 9612   3.347   0.806   1.787 -0.0491  0.4302 -0.2868
    1SOL     OW 9613   2.331   4.455   4.339 -0.1062  0.4573  0.6200
    1SOL    HW2 9614   2.350   4.465   4.246 -0.4145  1.1028  0.6292
    1SOL    HW3 9615   2.384   4.522   4.383 -1.9580  1.9170  0.6887
    1SOL    MW4 9616   2.341   4.465   4.333 -0.3912  0.7353  0.6304
    1SOL     OW 9617   3.769   1.616   2.934 -0.5464 -0.1210  0.1270
    1SOL    HW2 9618   3.774   1.630   2.839 -2.7093  1.0155  0.1550
    1SOL    HW3 9619   3.678   1.591   2.950 -0.8671  2.1358  2.1911
    1SOL    MW4 9620   3.757   1.615   2.923 -0.8740  0.3268  0.4029
    1SOL     OW 9621   3.316   0.400   2.423 -0.2036 -0.1077 -0.4142
    1SOL    HW2 9622   3.343   0.406   2.514  4.9528  0.0112 -1.7943
    1SOL    HW3 9623   3.305   0.306   2.406 -1.3937 -0.1144  0.3241
    1SOL    MW4 9624   3.318   0.389   2.433  0.3192 -0.0929 -0.4988
    1SOL     OW 9625   0.394   3.620   2.911  0.7298 -0.0582  0.0072
    1SOL    HW2 9626   0.375   3.706   2.876  0.0439 -0.3326 -0.2979
    1SOL    HW3 9627   0.456   3.581   2.849  1.6113  0.4959  0.5352
    1SOL    MW4 9628   0.400   3.626   2.899  0.7557 -0.0210  0.0367
    1SOL     OW 9629   2.191   0.044   1.424  0.2398  0.4507  0.1179
    1SOL    HW2 9630   2.127   0.115   1.432 -2.0641 -1.5675  0.1312
    1SOL    HW3 9631   2.217   0.045   1.332 -1.0006  0.2922 -0.2395
    1SOL    MW4 9632   2.186   0.054   1.413 -0.2279  0.1635  0.0725
    1SOL     OW 9633   1.448   2.497   1.610  0.1709 -0.4906  0.6645
    1SOL    HW2 9634   1.390   2.471   1.538  0.9853  1.4111 -0.7278
    1SOL    HW3 9635   1.402   2.468   1.689 -2.4649  0.5673 -0.4136
    1SOL    MW4 9636   1.434   2.490   1.611 -0.0695 -0.1004  0.3386
    1SOL     OW 9637   3.886   1.015   3.142 -0.0030  0.0852  0.2677
    1SOL    HW2 9638   3.864   1.038   3.232  0.7836  0.4354  0.3726
    1SOL    HW3 9639   3.802   1.015   3.095 -0.3252  0.5674  0.8460
    1SOL    MW4 9640   3.872   1.018   3.147  0.0584  0.1949  0.3579
    1SOL     OW 9641   0.327   2.083   2.862 -0.4063  0.4362 -0.0063
    1SOL    HW2 9642   0.288   2.024   2.926 -1.6987  1.2273 -0.0394
    1SOL    HW3 9643   0.421   2.079   2.879 -0.7528  0.8070  2.0970
    1SOL    MW4 9644   0.334   2.075   2.872 -0.6226  0.5894  0.2670
    1SOL     OW 9645   4.206   2.937   1.750 -0.2027  0.2213 -0.0940
    1SOL    HW2 9646   4.119   2.919   1.786  0.4674 -1.1287  0.8845
    1SOL    HW3 9647   4.201   2.910   1.659 -1.3399  1.8520 -0.5313
    1SOL    MW4 9648   4.194   2.931   1.743 -0.2651  0.2584 -0.0226
    1SOL     OW 9649   3.975   1.430   2.917 -0.2150  0.2143  0.7464
    1SOL    HW2 9650   4.005   1.375   2.990  0.6366  2.1820  1.9301
    1SOL    HW3 9651   3.905   1.483   2.955  0.1151  1.1280  0.0853
    1SOL    MW4 9652   3.969   1.430   2.932 -0.0591  0.5945  0.8154
    1SOL     OW 9653   3.002   0.607   3.448  0.0678  0.5031  0.3546
    1SOL    HW2 9654   2.993   0.648   3.535 -0.4116 -0.2634  0.6738
    1SOL    HW3 9655   2.920   0.627   3.404 -0.7144 -1.2045  0.9889
    1SOL    MW4 9656   2.990   0.615   3.454 -0.0987  0.1767  0.4807
    1SOL     OW 9657   4.109   2.058   0.843 -0.1303  0.5363 -0.3918
    1SOL    HW2 9658   4.088   2.008   0.922 -0.1988  1.8917  0.4485
    1SOL    HW3 9659   4.078   2.002   0.771  0.0576 -0.7615  0.5193
    1SOL    MW4 9660   4.102   2.044   0.844 -0.1144  0.5438 -0.1608
    1SOL     OW 9661   1.586   3.497   3.504  0.0361  0.0179 -0.2858
    1SOL    HW2 9662   1.510   3.479   3.448  1.5983 -0.4782 -2.2833
    1SOL    HW3 9663   1.593   3.420   3.561 -1.3658  0.3791  0.3935
    1SOL    MW4 9664   1.577   3.485   3.504  0.0573 -0.0002 -0.4597
    1SOL     OW 9665   1.690   4.642   2.540 -0.0042 -0.7258  0.2509
    1SOL    HW2 9666   1.677   4.724   2.493  1.5135  0.4417  1.7947
    1SOL    HW3 9667   1.661   4.661   2.629  0.3378 -1.8845  0.6163
    1SOL    MW4 9668   1.684   4.655   2.546  0.2412 -0.7243  0.5028
    1SOL     OW 9669   2.403   0.785   2.600 -0.6477 -0.2785  0.0243
    1SOL    HW2 9670   2.459   0.858   2.627 -0.6754  0.6496 -2.2911
    1SOL    HW3 9671   2.317   0.824   2.587 -0.9754 -0.9818  0.0691
    1SOL    MW4 9672   2.399   0.799   2.602 -0.6945 -0.2488 -0.2751
    1SOL     OW 9673   2.926   0.386   3.889 -0.1208  0.3197 -0.2351
    1SOL    HW2 9674   2.889   0.463   3.845  1.2596  0.5327 -1.0491
    1SOL    HW3 9675   3.016   0.382   3.858  0.4322 -0.4267  1.4185
    1SOL    MW4 9676   2.933   0.396   3.879  0.1345  0.2493 -0.1242
    1SOL     OW 9677   3.876   3.844   4.687  0.5634 -0.1558  0.6139
    1SOL    HW2 9678   3.791   3.820   4.652  0.4792 -0.9855  1.3882
    1SOL    HW3 9679   3.898   3.774   4.749  1.1462  0.7969  1.4990
    1SOL    MW4 9680   3.868   3.832   4.690  0.6294 -0.1397  0.8330
    1SOL     OW 9681   3.329   2.845   3.852  0.4039 -0.0312 -0.1487
    1SOL    HW2 9682   3.371   2.763   3.825  0.0010  0.1697 -1.3945
    1SOL    HW3 9683   3.249   2.818   3.896  1.2393 -0.3706  1.2273
    1SOL    MW4 9684   3.324   2.831   3.854  0.4613 -0.0496 -0.1316
    1SOL     OW 9685   0.237   3.543   0.875 -0.5796 -0.0270 -0.3992
    1SOL    HW2 9686   0.287   3.612   0.919 -0.3686 -0.2129 -0.3440
    1SOL    HW3 9687   0.248   3.561   0.782 -0.8650  0.2539 -0.3784
    1SOL    MW4 9688   0.245   3.554   0.869 -0.5894 -0.0145 -0.3891
    1SOL     OW 9689   0.719   0.813   4.141  0.0050 -0.6569 -0.5779
    1SOL    HW2 9690   0.691   0.810   4.233  0.3545  0.1261 -0.4390
    1SOL    HW3 9691   0.704   0.724   4.108 -1.6492 -0.5439 -0.2064
    1SOL    MW4 9692   0.713   0.801   4.149 -0.1671 -0.5387 -0.5107
    1SOL     OW 9693   4.108   3.907   1.517 -0.3301  0.3375  0.0934
    1SOL    HW2 9694   4.057   3.856   1.454 -0.1039  0.8349 -0.5035
    1SOL    HW3 9695   4.163   3.964   1.462  3.0024 -2.2045  0.6160
    1SOL    MW4 9696   4.109   3.908   1.501  0.1392  0.0677  0.0837
    1SOL     OW 9697   0.183   1.247   1.045  0.1286 -0.0992  0.2548
    1SOL    HW2 9698   0.195   1.308   1.118  1.1568  0.4744 -0.3800
    1SOL    HW3 9699   0.183   1.160   1.085 -1.4519  0.3017  1.1792
    1SOL    MW4 9700   0.184   1.244   1.060  0.0557  0.0294  0.2930
    1SOL     OW 9701   4.153   3.331   0.640 -0.1199  0.2707  0.0299
    1SOL    HW2 9702   4.211   3.317   0.715  0.8219 -1.4400 -0.9873
    1SOL    HW3 9703   4.211   3.366   0.572 -0.2464 -1.3982 -0.9760
    1SOL    MW4 9704   4.169   3.334   0.641 -0.0124 -0.1752 -0.2371
    1SOL     OW 9705   1.505   2.263   2.471 -0.1588  0.1752  0.2299
    1SOL    HW2 9706   1.561   2.324   2.520  2.1324 -0.9139 -0.9575
    1SOL    HW3 9707   1.541   2.262   2.383  0.1741 -3.2240  0.3144
    1SOL    MW4 9708   1.517   2.271   2.466  0.1875 -0.4168  0.0844
    1SOL     OW 9709   0.006   1.707   3.681 -0.3875  0.1093  0.0442
    1SOL    HW2 9710  -0.049   1.695   3.603 -3.2801  0.4954  1.9297
    1SOL    HW3 9711   0.064   1.780   3.658 -1.5174  0.5449 -1.5823
    1SOL    MW4 9712   0.006   1.715   3.667 -0.9182  0.2177  0.0782
    1SOL     OW 9713   1.284   3.168   4.462  0.0191 -0.2631  0.0672
    1SOL    HW2 9714   1.266   3.094   4.520 -0.4159 -0.0084  0.2654
    1SOL    HW3 9715   1.367   3.146   4.419  0.7116 -0.1217  1.3206
    1SOL    MW4 9716   1.293   3.155   4.464  0.0533 -0.2108  0.2580
    1SOL     OW 9717   1.669   1.864   3.446  0.6445 -0.1791 -0.2307
    1SOL    HW2 9718   1.700   1.834   3.360 -0.2128 -1.0731 -0.2403
    1SOL    HW3 9719   1.575   1.848   3.444  0.3926  1.2276  0.3172
    1SOL    MW4 9720   1.661   1.858   3.434  0.4981 -0.1113 -0.1600
    1SOL     OW 9721   3.108   3.176   2.796  0.2265  0.0558 -0.0543
    1SOL    HW2 9722   3.186   3.212   2.840  1.9180 -0.2331 -2.7162
    1SOL    HW3 9723   3.131   3.085   2.777 -0.9937 -0.1861 -0.4131
    1SOL    MW4 9724   3.121   3.169   2.799  0.2885 -0.0143 -0.4530
    1SOL     OW 9725   0.204   1.907   3.103  0.2051  0.1492  0.0751
    1SOL    HW2 9726   0.134   1.973   3.100 -1.1977 -1.1429  2.5196
    1SOL    HW3 9727   0.174   1.837   3.045  0.3325  0.3859 -0.2784
    1SOL    MW4 9728   0.191   1.907   3.095  0.0368  0.0099  0.3512
    1SOL     OW 9729   4.128   3.550   1.869  0.5123  0.0658 -0.2473
    1SOL    HW2 9730   4.120   3.568   1.963  0.3030  0.4776 -0.3427
    1SOL    HW3 9731   4.129   3.455   1.863  0.2607  0.0361  0.1531
    1SOL    MW4 9732   4.127   3.540   1.881  0.4520  0.1161 -0.2071
    1SOL     OW 9733   1.840   2.171   4.570  0.4447  0.4845  0.7661
    1SOL    HW2 9734   1.798   2.217   4.497 -0.3403  1.3568  1.7409
    1SOL    HW3 9735   1.933   2.173   4.551  0.1732 -0.1491 -0.6905
    1SOL    MW4 9736   1.846   2.177   4.558  0.3053  0.5159  0.7024
    1SOL     OW 9737   2.480   0.428   4.395 -0.3981  0.0774  0.0046
    1SOL    HW2 9738   2.500   0.463   4.308 -1.8312 -0.7516 -0.6741
    1SOL    HW3 9739   2.384   0.425   4.398 -0.4047  1.0812  2.0132
    1SOL    MW4 9740   2.470   0.432   4.384 -0.5882  0.1004  0.1802
    1SOL     OW 9741   1.045   0.269   3.565 -0.2455 -0.3081 -0.1503
    1SOL    HW2 9742   1.097   0.230   3.495  2.0030  1.6823  0.3183
    1SOL    HW3 9743   1.108   0.283   3.636 -1.6014  1.3056  0.7684
    1SOL    MW4 9744   1.061   0.266   3.565 -0.1278  0.1675  0.0329
    1SOL     OW 9745   2.832   3.997   3.157 -0.2572  0.0271  0.8960
    1SOL    HW2 9746   2.821   4.086   3.192  1.5478 -0.2216  2.1363
    1SOL    HW3 9747   2.828   3.940   3.234 -0.5008 -0.9092  0.2027
    1SOL    MW4 9748   2.830   4.001   3.172 -0.0510 -0.1292  0.9682
    1SOL     OW 9749   1.318   0.396   2.398 -0.2931  0.1273  0.1514
    1SOL    HW2 9750   1.308   0.450   2.476 -0.2653 -0.0491  0.2764
    1SOL    HW3 9751   1.397   0.346   2.414 -0.8962 -0.7242  0.4927
    1SOL    MW4 9752   1.327   0.397   2.410 -0.3691 -0.0083  0.2129
    1SOL     OW 9753   3.687   3.728   1.674  0.3672  0.1877 -0.2134
    1SOL    HW2 9754   3.620   3.678   1.628  0.1909 -0.0546  0.3092
    1SOL    HW3 9755   3.705   3.802   1.616 -1.6320  1.2402  0.4601
    1SOL    MW4 9756   3.681   3.731   1.660  0.0801  0.2947 -0.0557
    1SOL     OW 9757   0.095   2.382   3.138 -0.3586 -0.2984  0.1099
    1SOL    HW2 9758   0.129   2.446   3.075  0.2564 -0.4509  0.2873
    1SOL    HW3 9759   0.056   2.436   3.207  1.5820 -0.0699  1.0603
    1SOL    MW4 9760   0.094   2.398   3.139 -0.0214 -0.2887  0.2587
    1SOL     OW 9761   1.775   2.435   0.937  0.4266 -0.5893  0.0883
    1SOL    HW2 9762   1.687   2.428   0.974  0.3442 -1.7144 -0.3035
    1SOL    HW3 9763   1.784   2.358   0.881  0.4746  1.2074 -2.4309
    1SOL    MW4 9764   1.765   2.424   0.935  0.4221 -0.5009 -0.2958
    1SOL     OW 9765   3.375   0.144   3.924 -0.1850 -0.4244 -0.3463
    1SOL    HW2 9766   3.417   0.068   3.883  0.2598 -1.0822  1.2834
    1SOL    HW3 9767   3.307   0.170   3.862  0.1917 -1.6516 -1.3008
    1SOL    MW4 9768   3.372   0.137   3.910 -0.0763 -0.6731 -0.2575
    1SOL     OW 9769   1.492   2.574   0.842  0.6377  0.3881  0.4071
    1SOL    HW2 9770   1.427   2.644   0.837  1.0307  0.8902  2.1825
    1SOL    HW3 9771   1.503   2.558   0.935  2.2239 -0.4750  0.0801
    1SOL    MW4 9772   1.485   2.581   0.853  0.8987  0.3407  0.5982
    1SOL     OW 9773   2.339   2.818   3.975 -0.1515  0.4963  0.4711
    1SOL    HW2 9774   2.294   2.828   3.891  0.6717  1.3142  0.1254
    1SOL    HW3 9775   2.287   2.752   4.022 -1.3057  0.9137 -0.1973
    1SOL    MW4 9776   2.326   2.811   3.970 -0.1955  0.6590  0.3374
    1SOL     OW 9777   3.748   4.514   3.736 -0.0400 -0.0620  0.1590
    1SOL    HW2 9778   3.842   4.535   3.733 -0.3901  1.5902  0.5186
    1SOL    HW3 9779   3.746   4.419   3.749  1.6077  0.1709  2.5892
    1SOL    MW4 9780   3.760   4.504   3.737  0.1311  0.1869  0.5269
    1SOL     OW 9781   0.184   4.097   4.360 -0.0446  0.0610 -0.0589
    1SOL    HW2 9782   0.121   4.058   4.299 -2.4926  2.7766  0.5986
    1SOL    HW3 9783   0.196   4.031   4.427 -0.0626 -1.5883 -1.6304
    1SOL    MW4 9784   0.177   4.083   4.361 -0.3700  0.2017 -0.1793
    1SOL     OW 9785   1.950   2.690   2.495 -0.0258 -0.4825  0.2897
    1SOL    HW2 9786   1.983   2.635   2.424  0.5674 -0.6886  0.7154
    1SOL    HW3 9787   1.892   2.633   2.546 -1.2759 -0.0383 -0.6257
    1SOL    MW4 9788   1.947   2.675   2.492 -0.1124 -0.4511  0.2251
    1SOL     OW 9789   3.093   0.657   1.746 -0.5213  0.3654 -0.6165
    1SOL    HW2 9790   3.060   0.735   1.702 -0.9859  1.0022  0.8098
    1SOL    HW3 9791   3.181   0.683   1.776  0.6208 -0.7395 -2.8906
    1SOL    MW4 9792   3.101   0.671   1.744 -0.4320  0.3037 -0.7284
    1SOL     OW 9793   1.152   4.409   3.858  0.1803 -0.1214  0.8313
    1SOL    HW2 9794   1.087   4.347   3.823  0.2077  0.5375 -0.3909
    1SOL    HW3 9795   1.235   4.381   3.819  0.1430  0.8697  0.0309
    1SOL    MW4 9796   1.154   4.397   3.848  0.1789  0.0968  0.5643
    1SOL     OW 9797   2.773   0.330   3.232 -0.3850 -0.3024  0.4858
    1SOL    HW2 9798   2.720   0.274   3.176  0.4824 -2.1884  1.5205
    1SOL    HW3 9799   2.863   0.314   3.205 -0.2193  1.8524 -0.3284
    1SOL    MW4 9800   2.778   0.321   3.221 -0.2487 -0.2670  0.5155
    1SOL     OW 9801   3.039   0.946   1.039 -0.4623 -0.5116 -0.4673
    1SOL    HW2 9802   3.130   0.926   1.058  0.2356  2.1988 -0.7691
    1SOL    HW3 9803   3.002   0.974   1.122 -0.6502 -0.2916 -0.6228
    1SOL    MW4 9804   3.046   0.947   1.052 -0.3948 -0.1249 -0.5277
    1SOL     OW 9805   1.045   1.979   2.810 -0.0527  0.2937  0.3267
    1SOL    HW2 9806   1.088   1.929   2.742 -0.1660  0.4601  0.1339
    1SOL    HW3 9807   0.956   1.992   2.778 -0.7455 -1.4372  1.4166
    1SOL    MW4 9808   1.039   1.974   2.797 -0.1590  0.0873  0.4451
    1SOL     OW 9809   3.906   1.959   3.242 -0.2563 -0.2668  0.4317
    1SOL    HW2 9810   3.827   1.965   3.296  1.1657  1.3383  2.4208
    1SOL    HW3 9811   3.933   2.050   3.228  0.9044 -0.7713 -0.7132
    1SOL    MW4 9812   3.899   1.972   3.247  0.0844 -0.1214  0.5431
    1SOL     OW 9813   3.582   2.011   3.096 -0.3718  0.4184  1.0138
    1SOL    HW2 9814   3.617   1.988   3.181  0.8081  0.2968  0.4992
    1SOL    HW3 9815   3.546   1.929   3.061  0.2176  0.2159  0.8854
    1SOL    MW4 9816   3.582   1.997   3.102 -0.1385  0.3757  0.9289
    1SOL     OW 9817   4.005   0.108   2.153 -0.2195  0.0633  0.3552
    1SOL    HW2 9818   4.011   0.060   2.236 -0.8205  0.3565  0.5697
    1SOL    HW3 9819   4.096   0.116   2.124 -0.0075 -0.0807  0.9624
    1SOL    MW4 9820   4.018   0.103   2.160 -0.2708  0.0830  0.4637
    1SOL     OW 9821   3.413   3.906   2.335  0.4445 -0.5787 -0.2205
    1SOL    HW2 9822   3.388   3.843   2.402  0.0391 -0.5326 -0.3264
    1SOL    HW3 9823   3.407   3.991   2.378  0.5637 -0.5779 -0.2044
    1SOL    MW4 9824   3.409   3.909   2.349  0.4070 -0.5727 -0.2325
    1SOL     OW 9825   2.608   1.100   2.245 -0.0441 -0.2904 -0.2119
    1SOL    HW2 9826   2.558   1.104   2.164  0.9429  1.0614 -0.7817
    1SOL    HW3 9827   2.543   1.108   2.315 -0.6610  1.0991 -0.9328
    1SOL    MW4 9828   2.593   1.101   2.244  0.0050  0.0713 -0.3822
    1SOL     OW 9829   2.264   2.649   1.626 -0.3404 -0.1516  0.3486
    1SOL    HW2 9830   2.277   2.555   1.637 -0.4736 -0.2509 -0.2887
    1SOL    HW3 9831   2.346   2.689   1.656 -0.8941 -0.3624  2.1476
    1SOL    MW4 9832   2.277   2.642   1.631 -0.4311 -0.1926  0.5019
    1SOL     OW 9833   0.338   0.320   2.373  0.7085 -0.3059 -0.5535
    1SOL    HW2 9834   0.387   0.395   2.408  0.2248 -0.2057 -0.0843
    1SOL    HW3 9835   0.343   0.254   2.443 -0.4477 -0.0249 -0.2005
    1SOL    MW4 9836   0.345   0.321   2.387  0.4922 -0.2556 -0.4449
    1SOL     OW 9837   3.989   0.661   3.452  0.3603  0.2968  0.0830
    1SOL    HW2 9838   3.952   0.593   3.396 -0.6092 -0.0195  1.0851
    1SOL    HW3 9839   3.916   0.689   3.508  1.6307 -0.4255  2.1757
    1SOL    MW4 9840   3.975   0.656   3.452  0.4001  0.1597  0.4914
    1SOL     OW 9841   2.906   3.202   4.364  0.3273  0.4057 -0.0491
    1SOL    HW2 9842   2.897   3.181   4.271  0.4508  1.3110 -0.2670
    1SOL    HW3 9843   2.823   3.242   4.389 -0.3733 -1.4584  0.6739
    1SOL    MW4 9844   2.894   3.204   4.355  0.2513  0.2794  0.0172
    1SOL     OW 9845   2.829   3.454   3.401  0.0242 -0.0704  0.6622
    1SOL    HW2 9846   2.753   3.505   3.428 -0.5307 -1.2998  1.4987
    1SOL    HW3 9847   2.793   3.370   3.372  1.0158 -0.4825  0.5842
    1SOL    MW4 9848   2.814   3.450   3.401  0.0818 -0.2873  0.7622
    1SOL     OW 9849   3.594   3.067   3.339 -0.4357 -0.0927  0.4799
    1SOL    HW2 9850   3.657   3.123   3.385 -0.4352  0.9111 -0.7115
    1SOL    HW3 9851   3.560   3.009   3.407  1.2350 -0.1666  1.2949
    1SOL    MW4 9852   3.598   3.067   3.354 -0.2151  0.0298  0.4303
    1SOL     OW 9853   4.125   0.799   4.426  0.0293  0.2517 -0.0875
    1SOL    HW2 9854   4.036   0.795   4.390  0.9535 -0.0059 -2.4479
    1SOL    HW3 9855   4.162   0.879   4.388  0.7098  0.5341  1.1448
    1SOL    MW4 9856   4.118   0.809   4.416  0.2408  0.2550 -0.2365
    1SOL     OW 9857   1.511   0.910   0.663  0.0026  0.3559  0.5557
    1SOL    HW2 9858   1.512   0.829   0.611 -0.4785  0.9162 -0.3511
    1SOL    HW3 9859   1.603   0.927   0.682  0.0116 -1.1131  1.8814
    1SOL    MW4 9860   1.524   0.902   0.658 -0.0597  0.2360  0.6109
    1SOL     OW 9861   3.295   4.638   1.964  0.1970 -0.3543 -0.4270
    1SOL    HW2 9862   3.255   4.669   1.883 -0.5445  0.4088  0.2070
    1SOL    HW3 9863   3.280   4.544   1.965  1.5445 -0.5959 -1.8924
    1SOL    MW4 9864   3.288   4.630   1.954  0.2773 -0.2856 -0.5369
    1SOL     OW 9865   4.154   4.573   1.514  0.1568 -0.2489 -0.0163
    1SOL    HW2 9866   4.155   4.497   1.456  0.3383 -0.4312  0.2243
    1SOL    HW3 9867   4.109   4.542   1.593  0.7630 -0.2884  0.3235
    1SOL    MW4 9868   4.148   4.559   1.517  0.2613 -0.2785  0.0603
    1SOL     OW 9869   2.244   3.848   1.946  0.2657 -0.2299  0.1159
    1SOL    HW2 9870   2.324   3.848   1.999  0.5576 -1.2481 -0.3161
    1SOL    HW3 9871   2.243   3.763   1.903 -0.2799  0.3546 -1.0648
    1SOL    MW4 9872   2.254   3.837   1.947  0.2322 -0.2871 -0.0970
    1SOL     OW 9873   1.206   2.131   0.893 -0.1124 -0.8287 -0.6734
    1SOL    HW2 9874   1.178   2.040   0.888  1.3670 -1.3701  0.5803
    1SOL    HW3 9875   1.287   2.134   0.842  0.3140 -0.4003  0.0309
    1SOL    MW4 9876   1.213   2.120   0.885  0.1390 -0.8438 -0.4151
    1SOL     OW 9877   1.348   4.314   3.393  0.0430 -0.7080 -0.0005
    1SOL    HW2 9878   1.354   4.406   3.366  1.5538 -0.0976  2.2067
    1SOL    HW3 9879   1.422   4.271   3.350  0.3221 -0.5307  0.3042
    1SOL    MW4 9880   1.359   4.320   3.384  0.2792 -0.6042  0.3312
    1SOL     OW 9881   2.933   1.532   0.915  0.2709  0.0689 -0.3555
    1SOL    HW2 9882   3.028   1.545   0.920  0.5119 -1.8164  0.3054
    1SOL    HW3 9883   2.916   1.518   0.822  0.5991  0.7303 -0.5175
    1SOL    MW4 9884   2.943   1.532   0.904  0.3459 -0.0925 -0.2897
    1SOL     OW 9885   4.282   3.085   2.475  0.0217 -0.1591 -0.0024
    1SOL    HW2 9886   4.343   3.035   2.421  0.3049  0.2158 -0.0234
    1SOL    HW3 9887   4.262   3.026   2.548  1.4324  0.2300  0.6984
    1SOL    MW4 9888   4.287   3.070   2.478  0.2451 -0.0584  0.0870
    1SOL     OW 9889   3.393   4.411   0.803 -0.0542 -0.1501 -0.2630
    1SOL    HW2 9890   3.487   4.429   0.806 -0.3293  1.5931 -1.5957
    1SOL    HW3 9891   3.384   4.346   0.733  0.4795 -2.7182  1.9503
    1SOL    MW4 9892   3.405   4.405   0.794 -0.0200 -0.2589 -0.1468
    1SOL     OW 9893   3.752   2.274   4.387 -0.3066  0.1331 -0.7546
    1SOL    HW2 9894   3.735   2.319   4.470  0.6235 -1.4684  0.3228
    1SOL    HW3 9895   3.700   2.194   4.393  1.1712 -0.8414 -0.9605
    1SOL    MW4 9896   3.743   2.270   4.399  0.0110 -0.2067 -0.6399
    1SOL     OW 9897   2.603   1.606   0.716  0.4466 -0.1441  0.0326
    1SOL    HW2 9898   2.649   1.540   0.664 -0.6822  0.0263 -1.1956
    1SOL    HW3 9899   2.660   1.683   0.712  0.7987 -0.4133 -0.1938
    1SOL    MW4 9900   2.617   1.607   0.709  0.3440 -0.1571 -0.1594
    1SOL     OW 9901   2.209   1.634   1.120 -0.2345 -0.0657  0.0254
    1SOL    HW2 9902   2.189   1.561   1.179 -0.9828  0.5295  0.5114
    1SOL    HW3 9903   2.223   1.709   1.177 -0.3883  0.3876 -0.5208
    1SOL    MW4 9904   2.208   1.634   1.135 -0.3536  0.0726  0.0174
    1SOL     OW 9905   0.637   3.210   3.251  0.1707  0.4894  0.1240
    1SOL    HW2 9906   0.612   3.186   3.340  0.7569  0.1473  0.2002
    1SOL    HW3 9907   0.687   3.135   3.219 -1.2867 -0.0137 -1.0259
    1SOL    MW4 9908   0.640   3.197   3.259  0.0558  0.3779 -0.0174
    1SOL     OW 9909   2.373   1.222   2.386  0.3555 -0.2968 -0.6316
    1SOL    HW2 9910   2.285   1.197   2.414  0.7224 -0.2141  0.6274
    1SOL    HW3 9911   2.362   1.308   2.344  0.1626  0.8082  1.6176
    1SOL    MW4 9912   2.360   1.230   2.384  0.3784 -0.1402 -0.1686
    1SOL     OW 9913   3.365   0.465   4.148 -0.1224  0.0170  0.1300
    1SOL    HW2 9914   3.415   0.485   4.069 -0.7415  1.8437  0.1912
    1SOL    HW3 9915   3.347   0.371   4.141  1.9673 -0.3607 -0.6491
    1SOL    MW4 9916   3.369   0.455   4.137  0.0715  0.2082  0.0353
    1SOL     OW 9917   2.557   0.171   3.669 -0.4441 -0.2943  0.4399
    1SOL    HW2 9918   2.524   0.086   3.640  1.5537 -1.0512  0.2940
    1SOL    HW3 9919   2.588   0.213   3.590 -0.7867  0.2973  0.6152
    1SOL    MW4 9920   2.557   0.165   3.655 -0.2258 -0.3161  0.4439
    1SOL     OW 9921   3.699   3.366   2.959  0.2045  0.2423  0.5626
    1SOL    HW2 9922   3.621   3.391   2.909  0.1123 -0.7495  0.1882
    1SOL    HW3 9923   3.772   3.395   2.905  0.1198 -1.9713 -0.8035
    1SOL    MW4 9924   3.698   3.373   2.945  0.1812 -0.1807  0.3328
    1SOL     OW 9925   3.840   1.752   2.310  0.1674  0.4883  0.4986
    1SOL    HW2 9926   3.934   1.738   2.312  0.1532  0.3060 -0.0702
    1SOL    HW3 9927   3.813   1.726   2.222 -0.3944  0.6597  0.6145
    1SOL    MW4 9928   3.849   1.747   2.299  0.0913  0.4869  0.4387
    1SOL     OW 9929   0.663   0.179   0.774 -0.2387 -0.3399 -0.1223
    1SOL    HW2 9930   0.595   0.216   0.830  1.7961 -0.9156  2.8147
    1SOL    HW3 9931   0.632   0.091   0.753 -1.7210  0.4204 -1.2183
    1SOL    MW4 9932   0.650   0.172   0.779 -0.1658 -0.3156  0.1206
    1SOL     OW 9933   1.235   3.656   3.695  0.7258  0.5200  0.2960
    1SOL    HW2 9934   1.275   3.624   3.776 -0.3242  0.3046  0.7330
    1SOL    HW3 9935   1.199   3.577   3.654  0.2352  0.7987  0.1929
    1SOL    MW4 9936   1.235   3.641   3.700  0.5226  0.5281  0.3400
    1SOL     OW 9937   0.371   3.846   0.601  0.2694 -0.9891 -0.3742
    1SOL    HW2 9938   0.421   3.838   0.681 -0.9613  2.4932  0.8144
    1SOL    HW3 9939   0.433   3.877   0.536  0.5052 -0.4836  0.0950
    1SOL    MW4 9940   0.386   3.849   0.603  0.1382 -0.4630 -0.1554
    1SOL     OW 9941   3.641   2.612   1.174 -0.1710 -0.3022 -0.4407
    1SOL    HW2 9942   3.698   2.683   1.145  1.5124 -1.5096 -0.1872
    1SOL    HW3 9943   3.682   2.579   1.254 -2.6033  0.4183  1.1669
    1SOL    MW4 9944   3.654   2.617   1.181 -0.2699 -0.3662 -0.1954
    1SOL     OW 9945   1.410   2.306   3.512  0.0564  0.4575 -0.3305
    1SOL    HW2 9946   1.373   2.287   3.426 -2.8312  1.4141  0.6236
    1SOL    HW3 9947   1.383   2.232   3.567  0.8277  0.4516  0.0472
    1SOL    MW4 9948   1.401   2.294   3.508 -0.2228  0.5832 -0.1547
    1SOL     OW 9949   4.408   0.171   3.851  0.0750 -0.1576  0.2399
    1SOL    HW2 9950   4.333   0.132   3.806 -1.7182  1.0676  2.0147
    1SOL    HW3 9951   4.459   0.097   3.882 -0.8053 -1.0425 -0.3787
    1SOL    MW4 9952   4.405   0.156   3.849 -0.2780 -0.1127  0.3924
    1SOL     OW 9953   2.416   1.310   3.301 -0.7417  0.8861 -0.0671
    1SOL    HW2 9954   2.502   1.292   3.338 -2.1819 -2.2892  1.9602
    1SOL    HW3 9955   2.397   1.400   3.327  0.7695  0.6505  1.9565
    1SOL    MW4 9956   2.425   1.320   3.310 -0.7324  0.4361  0.4675
    1SOL     OW 9957   3.843   3.814   3.236 -0.3150  0.1042 -0.3450
    1SOL    HW2 9958   3.887   3.775   3.161  0.2740 -1.1344  0.6234
    1SOL    HW3 9959   3.865   3.907   3.231  1.4064 -0.2907 -0.5888
    1SOL    MW4 9960   3.852   3.821   3.226 -0.0103 -0.1116 -0.2494
    1SOL     OW 9961   1.252   2.699   1.857  0.1373  0.2205 -0.5047
    1SOL    HW2 9962   1.269   2.635   1.927 -0.2357 -0.4068 -0.9809
    1SOL    HW3 9963   1.338   2.735   1.837  0.5196 -0.9326 -0.9930
    1SOL    MW4 9964   1.265   2.695   1.864  0.1385 -0.0145 -0.6320
    1SOL     OW 9965   1.734   3.891   1.944 -0.2686  0.3381  0.2452
    1SOL    HW2 9966   1.786   3.821   1.906 -1.6966 -1.3411  1.3290
    1SOL    HW3 9967   1.644   3.874   1.915 -0.8229  1.0233  1.4840
    1SOL    MW4 9968   1.729   3.880   1.936 -0.5302  0.2069  0.5517
    1SOL     OW 9969   0.109   4.495   0.455  0.3550  0.0029 -0.5671
    1SOL    HW2 9970   0.189   4.539   0.486  0.0257  0.2497 -0.0701
    1SOL    HW3 9971   0.047   4.567   0.441  0.9945  0.0944 -3.3471
    1SOL    MW4 9972   0.112   4.510   0.457  0.3959  0.0482 -0.8683
    1SOL     OW 9973   2.938   2.601   2.237  0.2349 -0.4154 -0.3587
    1SOL    HW2 9974   2.923   2.694   2.226 -0.0006 -0.6485 -2.1198
    1SOL    HW3 9975   2.903   2.560   2.158  1.0241 -1.9207  0.0262
    1SOL    MW4 9976   2.932   2.608   2.225  0.3080 -0.6449 -0.5403
    1SOL     OW 9977   0.833   4.555   1.549  0.0033 -0.1731  0.0254
    1SOL    HW2 9978   0.828   4.624   1.616  0.4686 -0.6173  0.5206
    1SOL    HW3 9979   0.744   4.519   1.546 -0.2717  0.5292 -0.3215
    1SOL    MW4 9980   0.820   4.559   1.558  0.0284 -0.1392  0.0449
    1SOL     OW 9981   3.504   2.632   4.088 -0.1616 -0.1369  0.0788
    1SOL    HW2 9982   3.490   2.611   3.996  0.9826 -0.5747 -0.0035
    1SOL    HW3 9983   3.548   2.555   4.124  0.4053  0.4731  0.7253
    1SOL    MW4 9984   3.508   2.619   4.081  0.0641 -0.1142  0.1535
    1SOL     OW 9985   1.335   3.831   3.488 -0.3633  0.2484 -0.1153
    1SOL    HW2 9986   1.417   3.786   3.509 -0.4881  0.0922  0.0437
    1SOL    HW3 9987   1.273   3.797   3.552 -0.5025  0.5204 -0.1069
    1SOL    MW4 9988   1.338   3.820   3.499 -0.3980  0.2637 -0.0932
    1SOL     OW 9989   4.433   3.855   0.718  0.6878  0.1526  0.1626
    1SOL    HW2 9990   4.420   3.872   0.811 -0.3961  0.2420  0.0020
    1SOL    HW3 9991   4.428   3.760   0.709  1.0834  0.1246  0.2382
    1SOL    MW4 9992   4.431   3.845   0.729  0.5975  0.1607  0.1515
    1SOL     OW 9993   0.114   1.733   1.528 -0.3836  0.3400  0.1187
    1SOL    HW2 9994   0.091   1.808   1.473  0.7610  1.7170  1.4755
    1SOL    HW3 9995   0.207   1.744   1.545  0.1107 -2.1861 -0.8151
    1SOL    MW4 9996   0.123   1.745   1.523 -0.1674  0.1885  0.1746
    1SOL     OW 9997   2.873   1.017   4.429  0.4363 -0.2346 -0.3820
    1SOL    HW2 9998   2.902   0.926   4.437 -1.9066 -1.1044 -1.1720
    1SOL    HW3 9999   2.841   1.024   4.339 -1.6874  0.6425  0.4128
    1SOL    MW410000   2.872   1.006   4.419 -0.1528 -0.2339 -0.3810
    1SOL     OW10001   3.460   1.906   4.627  0.5471 -0.3100 -0.7547
    1SOL    HW210002   3.398   1.943   4.689  0.4600 -2.3987  0.4288
    1SOL    HW310003   3.406   1.875   4.554  0.3977 -0.4119 -0.5981
    1SOL    MW410004   3.445   1.907   4.625  0.5157 -0.5988 -0.5774
    1SOL     OW10005   2.142   1.575   1.863 -0.3321  0.2027  0.1451
    1SOL    HW210006   2.227   1.541   1.835 -0.4769  1.1866 -1.5521
    1SOL    HW310007   2.097   1.499   1.900  0.8659 -0.5608  0.0685
    1SOL    MW410008   2.147   1.560   1.864 -0.1931  0.2317 -0.0888
    1SOL     OW10009   2.569   3.842   2.653 -0.4865  0.2226  0.2252
    1SOL    HW210010   2.592   3.886   2.572 -1.6881 -0.8265 -0.7151
    1SOL    HW310011   2.648   3.848   2.707  0.1779  1.3137 -0.8374
    1SOL    MW410012   2.582   3.848   2.649 -0.5577  0.2282 -0.0391
    1SOL     OW10013   1.921   2.062   0.564 -0.2228 -0.1998 -0.1993
    1SOL    HW210014   1.874   2.129   0.614  1.4107  1.0029 -0.2256
    1SOL    HW310015   1.963   2.110   0.493 -2.6886 -1.9079 -2.9387
    1SOL    MW410016   1.920   2.077   0.562 -0.3326 -0.2661 -0.5642
    1SOL     OW10017   0.729   3.655   2.940 -0.1743 -0.6988 -0.4458
    1SOL    HW210018   0.707   3.563   2.924 -0.0973 -1.0894  1.5212
    1SOL    HW310019   0.672   3.681   3.013  0.4635  0.5350 -0.3771
    1SOL    MW410020   0.719   3.646   2.947 -0.0800 -0.5877 -0.1769
    1SOL     OW10021   1.860   3.581   2.618  0.6154  0.7809 -0.4466
    1SOL    HW210022   1.905   3.537   2.546  0.8996  1.8406 -0.9311
    1SOL    HW310023   1.771   3.547   2.614  1.0190 -0.2975 -0.3506
    1SOL    MW410024   1.854   3.571   2.608  0.7061  0.7787 -0.4981
    1SOL     OW10025   1.064   1.522   1.195  0.2743 -0.5046 -1.1071
    1SOL    HW210026   1.075   1.442   1.247  1.5596  1.0490  1.1269
    1SOL    HW310027   1.146   1.530   1.146  0.9841  0.4443  0.1874
    1SOL    MW410028   1.076   1.512   1.195  0.5375 -0.1745 -0.6416
    1SOL     OW10029   4.221   2.156   1.962 -0.1567  0.1815 -0.0892
    1SOL    HW210030   4.147   2.206   1.929 -1.3579 -2.1956 -1.1082
    1SOL    HW310031   4.291   2.170   1.898 -0.5458  0.4018 -0.4661
    1SOL    MW410032   4.220   2.164   1.950 -0.3662 -0.1032 -0.2733
    1SOL     OW10033   3.144   2.713   1.833 -0.1079 -0.3012  0.0971
    1SOL    HW210034   3.150   2.648   1.904  3.0219 -0.2944 -0.0766
    1SOL    HW310035   3.119   2.794   1.878 -0.4372 -0.8118  0.8582
    1SOL    MW410036   3.141   2.715   1.848  0.2615 -0.3674  0.1745
    1SOL     OW10037   1.374   0.094   2.643 -0.2696  0.1435  0.1222
    1SOL    HW210038   1.413   0.030   2.703  1.1509 -0.8515 -1.8262
    1SOL    HW310039   1.293   0.053   2.612  1.0445 -1.0913 -1.7476
    1SOL    MW410040   1.368   0.080   2.647  0.0912 -0.1507 -0.3815
    1SOL     OW10041   1.535   4.159   3.997  0.9732  0.1292 -0.1149
    1SOL    HW210042   1.495   4.072   4.004  0.7160  0.2997  0.5846
    1SOL    HW310043   1.586   4.168   4.077 -0.0587  1.1590  0.4375
    1SOL    MW410044   1.537   4.148   4.009  0.8031  0.2871  0.0501
    1SOL     OW10045   1.618   2.517   4.680  0.1475 -0.1300 -0.0589
    1SOL    HW210046   1.686   2.468   4.727  0.5202  0.7127  0.2786
    1SOL    HW310047   1.591   2.457   4.610  1.0545 -0.5742 -0.0453
    1SOL    MW410048   1.624   2.502   4.677  0.3165 -0.0775 -0.0129
    1SOL     OW10049   1.752   2.680   4.493 -0.1023 -0.7742  0.1440
    1SOL    HW210050   1.703   2.631   4.560 -0.9373 -1.1513 -0.7205
    1SOL    HW310051   1.709   2.765   4.490 -0.6896 -1.0911 -0.5870
    1SOL    MW410052   1.740   2.685   4.501 -0.2900 -0.8657 -0.0663
    1SOL     OW10053   4.487   3.046   2.937  0.0072  0.6500  0.1606
    1SOL    HW210054   4.548   3.093   2.880 -0.4858  1.6452  0.4296
    1SOL    HW310055   4.440   3.116   2.984 -1.6594 -0.0639 -0.3965
    1SOL    MW410056   4.489   3.062   2.936 -0.2780  0.6869  0.1228
    1SOL     OW10057   0.576   0.807   3.032 -0.0574 -0.4524 -0.1306
    1SOL    HW210058   0.658   0.758   3.038  1.1304  1.6078  1.2584
    1SOL    HW310059   0.510   0.747   3.066  0.6672 -2.5305 -2.2798
    1SOL    MW410060   0.578   0.793   3.037  0.1949 -0.4547 -0.2310
    1SOL     OW10061   3.890   1.185   4.048 -0.6341  0.1783 -0.0069
    1SOL    HW210062   3.824   1.244   4.012  0.1802  0.6576 -0.7330
    1SOL    HW310063   3.948   1.242   4.099 -0.2203 -0.0944 -0.1705
    1SOL    MW410064   3.889   1.200   4.050 -0.4721  0.2055 -0.1240
    1SOL     OW10065   0.776   4.209   1.467  0.1512 -0.2700  0.1559
    1SOL    HW210066   0.720   4.274   1.509  1.1622  1.1515 -0.6670
    1SOL    HW310067   0.820   4.165   1.539 -1.2181 -0.6759  0.7612
    1SOL    MW410068   0.774   4.212   1.482  0.1040 -0.1364  0.1272
    1SOL     OW10069   1.833   0.737   2.404 -0.3141  0.3009 -0.0622
    1SOL    HW210070   1.864   0.650   2.429 -0.7427  0.3171  0.5506
    1SOL    HW310071   1.873   0.754   2.319  1.3030  0.3115  0.6959
    1SOL    MW410072   1.842   0.728   2.396 -0.1572  0.3044  0.1187
    1SOL     OW10073   0.160   3.840   3.299  0.3256 -1.0524  0.0577
    1SOL    HW210074   0.142   3.895   3.375  1.1442 -0.4130 -0.2066
    1SOL    HW310075   0.085   3.855   3.241  0.6562 -0.0163 -0.1191
    1SOL    MW410076   0.148   3.849   3.301  0.4772 -0.8314 -0.0002
    1SOL     OW10077   1.963   3.635   4.268  0.7919 -0.0873 -0.1367
    1SOL    HW210078   1.894   3.686   4.310  0.5476 -0.0663 -0.5665
    1SOL    HW310079   1.961   3.662   4.176  0.3348 -1.2231 -0.4697
    1SOL    MW410080   1.954   3.645   4.261  0.6993 -0.2344 -0.2375
    1SOL     OW10081   2.835   1.350   4.143 -0.2034 -0.0451 -0.0951
    1SOL    HW210082   2.763   1.365   4.205 -1.4217 -0.4345 -1.4010
    1SOL    HW310083   2.797   1.293   4.076  1.9437 -2.0434  0.3385
    1SOL    MW410084   2.820   1.344   4.142 -0.0808 -0.3600 -0.2098
    1SOL     OW10085   4.436   2.383   4.293 -0.0890 -0.7134 -0.1364
    1SOL    HW210086   4.467   2.306   4.246  1.9999  0.3851 -0.6179
    1SOL    HW310087   4.502   2.398   4.361 -1.5367 -0.5331  1.2537
    1SOL    MW410088   4.449   2.375   4.296 -0.0043 -0.5445 -0.0162
    1SOL     OW10089   3.828   3.398   1.469 -0.1134  0.3818  0.0353
    1SOL    HW210090   3.804   3.431   1.383 -0.9309 -0.3216 -0.0064
    1SOL    HW310091   3.810   3.471   1.529 -1.7377  0.0739 -0.0777
    1SOL    MW410092   3.823   3.412   1.466 -0.4358  0.2482  0.0148
    1SOL     OW10093   4.260   0.230   2.728 -0.2535  0.2272 -0.5445
    1SOL    HW210094   4.285   0.142   2.700  1.2981  0.8003 -1.0249
    1SOL    HW310095   4.266   0.283   2.648 -0.8355  0.8444 -0.1847
    1SOL    MW410096   4.264   0.226   2.713 -0.1254  0.3843 -0.5600
    1SOL     OW10097   2.483   1.630   2.802 -0.0850 -0.0729  0.8966
    1SOL    HW210098   2.460   1.538   2.793  1.3203 -0.4356  0.7766
    1SOL    HW310099   2.521   1.653   2.717  3.9158 -0.7095  2.3708
    1SOL    MW410100   2.485   1.621   2.789  0.6285 -0.2048  1.0753
    1SOL     OW10101   3.920   2.262   0.918 -0.5460 -0.4808  0.0334
    1SOL    HW210102   3.992   2.207   0.889  0.9287  1.4100 -0.0223
    1SOL    HW310103   3.939   2.280   1.010 -1.1611 -0.3260  0.1317
    1SOL    MW410104   3.932   2.257   0.926 -0.4327 -0.2108  0.0390
    1SOL     OW10105   4.321   2.147   3.541 -0.3194 -0.4623 -0.5153
    1SOL    HW210106   4.377   2.108   3.608 -2.4062 -1.3388  0.7386
    1SOL    HW310107   4.251   2.190   3.590 -0.2293  1.5224 -2.0289
    1SOL    MW410108   4.319   2.148   3.556 -0.5827 -0.3161 -0.5498
    1SOL     OW10109   0.162   3.295   1.160 -0.1329  0.0012 -0.4788
    1SOL    HW210110   0.123   3.336   1.083 -0.4660  1.5343  0.4784
    1SOL    HW310111   0.094   3.299   1.226  0.9000  0.7356  0.5623
    1SOL    MW410112   0.148   3.301   1.158 -0.0406  0.3006 -0.2152
    1SOL     OW10113   1.805   0.618   0.854  0.0795 -0.4871 -0.4449
    1SOL    HW210114   1.793   0.713   0.844  1.3028 -0.1585  1.0337
    1SOL    HW310115   1.757   0.580   0.780  0.4804  1.3215 -1.6675
    1SOL    MW410116   1.797   0.626   0.843  0.2937 -0.2052 -0.4110
    1SOL     OW10117   0.515   2.202   3.217 -0.3111 -0.2299 -0.1236
    1SOL    HW210118   0.513   2.111   3.186  0.8626 -0.4954  0.5183
    1SOL    HW310119   0.572   2.199   3.294 -1.7344  0.7333  0.9916
    1SOL    MW410120   0.522   2.189   3.223 -0.3440 -0.1378  0.1082
    1SOL     OW10121   2.503   4.207   3.169 -0.0222 -0.6383 -0.0455
    1SOL    HW210122   2.444   4.156   3.225 -1.5487  2.2926  1.1631
    1SOL    HW310123   2.464   4.294   3.167  3.3684  0.9440 -0.6949
    1SOL    MW410124   2.490   4.212   3.176  0.2236 -0.0424  0.0281
    1SOL     OW10125   1.996   1.119   3.746  0.3558 -0.7841  0.0533
    1SOL    HW210126   1.901   1.133   3.750  0.6502  1.1793  1.0173
    1SOL    HW310127   2.013   1.092   3.656 -1.1426 -1.3495 -0.0668
    1SOL    MW410128   1.986   1.117   3.735  0.1967 -0.5996  0.1647
    1SOL     OW10129   3.767   3.264   3.490 -0.3413 -0.6057 -0.8836
    1SOL    HW210130   3.724   3.344   3.459  0.5426  0.4907  0.6697
    1SOL    HW310131   3.859   3.276   3.467  0.2017 -0.1067  1.4293
    1SOL    MW410132   3.774   3.276   3.483 -0.1531 -0.3951 -0.3736
    1SOL     OW10133   1.608   1.544   1.909  0.1938 -0.2481  0.5239
    1SOL    HW210134   1.525   1.584   1.935 -0.8410 -2.1701  0.2268
    1SOL    HW310135   1.658   1.617   1.871 -1.0818  1.0633  1.2828
    1SOL    MW410136   1.604   1.559   1.908 -0.1111 -0.3285  0.5848
    1SOL     OW10137   3.874   1.915   3.983  0.4945 -0.3382 -0.3147
    1SOL    HW210138   3.794   1.966   3.968  0.5610  0.0226  0.4913
    1SOL    HW310139   3.921   1.918   3.900 -0.0344 -0.0194 -0.6046
    1SOL    MW410140   3.869   1.923   3.970  0.4334 -0.2484 -0.2465
    1SOL     OW10141   3.215   3.045   1.724  0.4565  0.2424  0.1702
    1SOL    HW210142   3.207   3.107   1.651 -1.8956 -0.3406 -0.1106
    1SOL    HW310143   3.279   2.980   1.693 -0.2017  0.2372 -1.2309
    1SOL    MW410144   3.223   3.044   1.710  0.0596  0.1647 -0.0517
    1SOL     OW10145   0.887   2.098   1.575  0.4843  0.0901  0.2337
    1SOL    HW210146   0.947   2.029   1.602  1.5331  1.4894  1.5269
    1SOL    HW310147   0.846   2.128   1.656 -1.8054 -0.6697 -0.5914
    1SOL    MW410148   0.889   2.093   1.589  0.3206  0.1745  0.2954
    1SOL     OW10149   2.309   1.078   2.880 -0.6003  0.0656 -0.2226
    1SOL    HW210150   2.242   1.111   2.820  0.6813 -0.2551 -1.8513
    1SOL    HW310151   2.279   0.989   2.902  0.4817 -1.0012 -2.8561
    1SOL    MW410152   2.296   1.070   2.875 -0.2887 -0.1173 -0.7846
    1SOL     OW10153   2.762   1.142   3.952 -0.3351  0.4741 -0.1712
    1SOL    HW210154   2.684   1.147   3.896 -0.4000  3.3112  0.1104
    1SOL    HW310155   2.835   1.164   3.894  0.2585 -1.7400 -0.3257
    1SOL    MW410156   2.761   1.146   3.937 -0.2651  0.5563 -0.1543
    1SOL     OW10157   0.157   3.478   2.861  0.3230 -0.1301 -0.1361
    1SOL    HW210158   0.237   3.521   2.892  1.7235 -2.3850 -0.5374
    1SOL    HW310159   0.127   3.533   2.789  2.3758 -0.0891 -0.9841
    1SOL    MW410160   0.164   3.491   2.856  0.7786 -0.4222 -0.3009
    1SOL     OW10161   2.826   1.600   2.100  0.0298  0.1059 -0.1712
    1SOL    HW210162   2.772   1.544   2.045 -0.9374  1.9736 -1.1935
    1SOL    HW310163   2.905   1.615   2.048  0.6068 -0.9078  0.4156
    1SOL    MW410164   2.829   1.595   2.086 -0.0217  0.2185 -0.2289
    1SOL     OW10165   4.327   0.193   0.696  0.2335  0.3853 -0.0157
    1SOL    HW210166   4.313   0.157   0.784  0.1966 -0.7374 -0.4801
    1SOL    HW310167   4.240   0.220   0.667 -0.5524 -3.5876 -1.5854
    1SOL    MW410168   4.313   0.192   0.704  0.1249 -0.2870 -0.2841
    1SOL     OW10169   3.591   3.279   1.684 -0.2269  0.0383  0.3935
    1SOL    HW210170   3.625   3.228   1.610  0.9051  0.8438  0.3441
    1SOL    HW310171   3.502   3.304   1.657  0.0447  0.0164 -0.5414
    1SOL    MW410172   3.583   3.275   1.670 -0.0417  0.1414  0.2638
    1SOL     OW10173   0.020   0.644   3.406  0.8594 -0.1643 -0.0193
    1SOL    HW210174   0.110   0.612   3.412  1.3267  0.3288 -3.3370
    1SOL    HW310175   0.029   0.739   3.394 -0.1429 -0.0192  0.3314
    1SOL    MW410176   0.033   0.652   3.405  0.7888 -0.0801 -0.4108
    1SOL     OW10177   0.815   0.083   1.776  0.0392  0.3093  0.9304
    1SOL    HW210178   0.837   0.176   1.780  0.6417  0.1377  1.7498
    1SOL    HW310179   0.826   0.052   1.866 -2.0248 -0.1426  1.0535
    1SOL    MW410180   0.819   0.091   1.788 -0.1537  0.2271  1.0549
    1SOL     OW10181   1.257   4.059   2.543 -0.5007 -0.1926 -0.2120
    1SOL    HW210182   1.314   4.001   2.494 -0.3398  0.4532 -0.7840
    1SOL    HW310183   1.267   4.030   2.634 -0.8090 -1.3887 -0.5485
    1SOL    MW410184   1.266   4.047   2.549 -0.5201 -0.2646 -0.3321
    1SOL     OW10185   4.126   1.640   0.694  0.1426 -0.2602 -0.2138
    1SOL    HW210186   4.118   1.732   0.670  1.2462 -0.6934 -2.4237
    1SOL    HW310187   4.037   1.613   0.717 -0.6068  0.7948 -1.7898
    1SOL    MW410188   4.113   1.648   0.694  0.1898 -0.1781 -0.7133
    1SOL     OW10189   3.575   0.799   3.163  0.0594  0.3497 -0.0131
    1SOL    HW210190   3.624   0.869   3.118 -1.2767  1.5272  0.3222
    1SOL    HW310191   3.578   0.824   3.255 -0.5136  0.0234  0.0959
    1SOL    MW410192   3.582   0.812   3.169 -0.1924  0.4621  0.0458
    1SOL     OW10193   1.921   0.570   3.953  0.3192  1.0413 -0.2670
    1SOL    HW210194   1.851   0.551   4.015  0.1687  2.3894  0.0001
    1SOL    HW310195   1.879   0.622   3.884  0.7687  0.7061 -0.8038
    1SOL    MW410196   1.906   0.575   3.952  0.3586  1.1749 -0.3028
    1SOL     OW10197   4.017   4.107   3.510  0.4351  0.0057 -0.2538
    1SOL    HW210198   3.974   4.090   3.426  0.3371 -1.7186  0.1155
    1SOL    HW310199   4.071   4.185   3.495  1.0699 -0.7747 -2.1469
    1SOL    MW410200   4.018   4.115   3.497  0.5064 -0.3242 -0.4549
    1SOL     OW10201   0.737   2.634   1.748 -0.5560 -0.3501  0.0163
    1SOL    HW210202   0.807   2.632   1.813  0.2602  0.2284 -0.8350
    1SOL    HW310203   0.660   2.666   1.796 -0.1337 -0.5774  0.8507
    1SOL    MW410204   0.736   2.638   1.763 -0.3926 -0.3037  0.0139
    1SOL     OW10205   3.618   2.054   4.062 -0.2242  0.1579  0.4493
    1SOL    HW210206   3.645   2.139   4.026 -1.0335  0.2389  0.0164
    1SOL    HW310207   3.526   2.046   4.036  0.5201 -1.9796 -1.6723
    1SOL    MW410208   3.609   2.064   4.054 -0.2327 -0.1135  0.1121
    1SOL     OW10209   0.007   2.126   4.202 -0.4861  0.2485  0.4682
    1SOL    HW210210  -0.054   2.090   4.138  0.1384  1.2509 -0.6913
    1SOL    HW310211   0.000   2.066   4.277 -0.2393 -1.6980 -1.0245
    1SOL    MW410212  -0.002   2.113   4.204 -0.3711  0.1240  0.1183
    1SOL     OW10213   0.425   2.686   2.482  0.1200  0.3318  0.4402
    1SOL    HW210214   0.394   2.751   2.546  0.7280  0.4520  0.6171
    1SOL    HW310215   0.424   2.733   2.399  0.2276  0.4637  0.5130
    1SOL    MW410216   0.421   2.701   2.479  0.2144  0.3650  0.4730
    1SOL     OW10217   1.616   4.240   1.488  0.2604  0.1583 -0.7077
    1SOL    HW210218   1.530   4.234   1.446 -0.8994  0.4940  1.5832
    1SOL    HW310219   1.631   4.153   1.526  1.1951 -0.0594 -1.5224
    1SOL    MW410220   1.607   4.228   1.487  0.2308  0.1736 -0.5130
    1SOL     OW10221   1.934   2.015   4.007  0.1740 -0.6549 -0.5026
    1SOL    HW210222   1.950   2.043   4.097  1.0941  0.0166 -0.8724
    1SOL    HW310223   1.899   2.093   3.964 -0.2173 -0.9649 -0.7487
    1SOL    MW410224   1.931   2.029   4.014  0.2437 -0.6073 -0.5846
    1SOL     OW10225   0.140   0.081   0.724  0.4175 -0.1405 -0.3496
    1SOL    HW210226   0.209   0.041   0.672  0.9562 -2.3078  1.9317
    1SOL    HW310227   0.062   0.077   0.668  1.8066  1.1031 -2.4243
    1SOL    MW410228   0.139   0.075   0.710  0.6718 -0.2624 -0.3223
    1SOL     OW10229   3.114   2.586   4.592  0.1441 -0.6538 -0.1466
    1SOL    HW210230   3.049   2.575   4.523 -1.1885  2.8401  0.4488
    1SOL    HW310231   3.105   2.507   4.646 -0.9837 -1.9487 -2.1284
    1SOL    MW410232   3.104   2.574   4.590 -0.1802 -0.3633 -0.3295
    1SOL     OW10233   1.664   4.471   2.184 -0.1762  0.1838 -0.3721
    1SOL    HW210234   1.635   4.396   2.132 -0.6003  0.5566 -0.6792
    1SOL    HW310235   1.598   4.479   2.253  0.1796 -0.0736  0.0043
    1SOL    MW410236   1.652   4.462   2.186 -0.1851  0.1988 -0.3631
    1SOL     OW10237   0.680   2.813   3.324  0.1170  0.6521 -0.4472
    1SOL    HW210238   0.651   2.885   3.379  0.7189  0.6357 -0.0996
    1SOL    HW310239   0.604   2.792   3.268 -0.7583  0.1518  0.9099
    1SOL    MW410240   0.666   2.819   3.324  0.0809  0.5836 -0.2222
    1SOL     OW10241   0.271   1.337   3.535 -0.0741  0.1390  0.0212
    1SOL    HW210242   0.177   1.348   3.517 -0.9299 -1.6111  2.9194
    1SOL    HW310243   0.285   1.242   3.530  1.1716  0.2459  1.1863
    1SOL    MW410244   0.260   1.326   3.532 -0.0227 -0.0778  0.5572
    1SOL     OW10245   3.752   4.229   4.483  0.6764 -0.0973  0.2257
    1SOL    HW210246   3.767   4.324   4.488 -0.4545  0.0992 -0.0432
    1SOL    HW310247   3.807   4.201   4.410 -0.7847  0.7407 -1.2255
    1SOL    MW410248   3.761   4.238   4.474  0.3345  0.0391 -0.0014
    1SOL     OW10249   0.240   2.317   0.771 -0.1830 -0.1574  0.2877
    1SOL    HW210250   0.293   2.247   0.733 -0.3190 -0.4625  0.6553
    1SOL    HW310251   0.241   2.299   0.865  0.2274  0.6417  0.4394
    1SOL    MW410252   0.247   2.305   0.779 -0.1468 -0.0923  0.3563
    1SOL     OW10253   0.893   1.703   2.222 -0.1805  0.6444 -0.1085
    1SOL    HW210254   0.962   1.759   2.258  0.9193 -0.8113  0.0817
    1SOL    HW310255   0.812   1.748   2.244  0.5433  0.6629  2.6912
    1SOL    MW410256   0.892   1.716   2.229  0.0600  0.4548  0.2861
    1SOL     OW10257   1.275   1.427   4.367 -0.0948  0.5969  0.0598
    1SOL    HW210258   1.229   1.451   4.287  1.7033 -0.2374 -1.2712
    1SOL    HW310259   1.213   1.373   4.416 -0.3900 -0.8878 -1.9056
    1SOL    MW410260   1.261   1.423   4.363  0.1035  0.2910 -0.3753
    1SOL     OW10261   3.639   3.415   2.601 -0.1119  0.1895  0.0597
    1SOL    HW210262   3.700   3.454   2.664 -0.9213 -0.3187  1.1952
    1SOL    HW310263   3.630   3.480   2.532  1.1277  0.5785  0.2607
    1SOL    MW410264   3.646   3.429   2.601 -0.0553  0.1740  0.2360
    1SOL     OW10265   3.110   2.245   3.661 -0.1176  0.0692  0.4908
    1SOL    HW210266   3.023   2.222   3.695 -0.2683  0.0209  0.0783
    1SOL    HW310267   3.105   2.224   3.568  0.8684 -1.4442  0.7807
    1SOL    MW410268   3.098   2.239   3.653 -0.0074 -0.1369  0.4749
    1SOL     OW10269   4.465   3.833   4.389 -0.6259 -0.0649 -0.5317
    1SOL    HW210270   4.559   3.836   4.374 -0.4789 -0.1902  0.3304
    1SOL    HW310271   4.448   3.905   4.450 -1.0547 -0.1711 -0.5194
    1SOL    MW410272   4.475   3.843   4.395 -0.6633 -0.0956 -0.4163
    1SOL     OW10273   1.567   2.879   4.445  0.5502 -0.6485  0.2715
    1SOL    HW210274   1.582   2.974   4.453  0.4037 -0.5180 -0.8357
    1SOL    HW310275   1.479   2.866   4.479  0.0930 -0.1907 -0.6987
    1SOL    MW410276   1.557   2.890   4.451  0.4705 -0.5708 -0.0029
    1SOL     OW10277   4.033   1.892   1.045 -0.1021 -0.0858 -0.3955
    1SOL    HW210278   4.051   1.949   1.119 -0.7934 -1.5146  0.8984
    1SOL    HW310279   3.940   1.871   1.051  0.1406 -1.3550 -0.8381
    1SOL    MW410280   4.023   1.896   1.055 -0.1616 -0.4418 -0.2834
    1SOL     OW10281   2.033   1.729   1.651  0.4487  0.0129  0.1481
    1SOL    HW210282   2.085   1.807   1.671  1.4292  0.0467 -2.4132
    1SOL    HW310283   2.060   1.665   1.717 -0.8159  1.9829  2.6819
    1SOL    MW410284   2.043   1.731   1.662  0.4110  0.2773  0.1446
    1SOL     OW10285   3.740   1.465   3.300  0.2626  0.1545 -0.6875
    1SOL    HW210286   3.831   1.438   3.288  0.0003 -0.4669 -1.2917
    1SOL    HW310287   3.693   1.384   3.322 -0.0345  0.5716  0.2684
    1SOL    MW410288   3.745   1.451   3.302  0.1888  0.1276 -0.6413
    1SOL     OW10289   3.228   0.652   2.055 -0.2960 -0.0105 -0.1503
    1SOL    HW210290   3.315   0.691   2.062 -0.0582 -0.7421  1.0376
    1SOL    HW310291   3.173   0.723   2.020  0.5982  0.6991 -0.1305
    1SOL    MW410292   3.232   0.667   2.051 -0.1469 -0.0134  0.0093
    1SOL     OW10293   2.104   0.739   4.067 -0.4185  0.1275 -0.3454
    1SOL    HW210294   2.177   0.720   4.008 -0.2144  0.0263 -0.0554
    1SOL    HW310295   2.030   0.690   4.029 -0.7088  1.3968 -1.4717
    1SOL    MW410296   2.104   0.730   4.054 -0.4299  0.2816 -0.4554
    1SOL     OW10297   3.783   0.217   2.842  0.6229  0.2879  0.1468
    1SOL    HW210298   3.709   0.158   2.857  0.8633 -0.5738 -1.9488
    1SOL    HW310299   3.743   0.303   2.831 -0.0300 -0.0835 -0.4404
    1SOL    MW410300   3.768   0.220   2.843  0.5684  0.1252 -0.2069
    1SOL     OW10301   4.283   0.845   2.463 -0.0112 -0.0824  0.1881
    1SOL    HW210302   4.361   0.807   2.502  0.7406  0.9386 -0.3001
    1SOL    HW310303   4.291   0.824   2.369 -0.0587  0.4794  0.0598
    1SOL    MW410304   4.294   0.837   2.456  0.0820  0.1264  0.1068
    1SOL     OW10305   0.768   0.694   1.282  0.8755  0.0367  0.1651
    1SOL    HW210306   0.832   0.663   1.218  3.0014  0.9367  1.7768
    1SOL    HW310307   0.714   0.618   1.302  2.0238 -0.9720 -0.5351
    1SOL    MW410308   0.769   0.680   1.276  1.3075  0.0224  0.2854
    1SOL     OW10309   0.737   3.171   3.848 -0.0881  0.1999  0.6260
    1SOL    HW210310   0.737   3.235   3.777  1.3659  0.7660  1.1129
    1SOL    HW310311   0.650   3.179   3.888 -1.0871 -0.4642 -1.3684
    1SOL    MW410312   0.726   3.181   3.844 -0.0281  0.1869  0.4270
    1SOL     OW10313   3.895   0.653   2.740 -0.3992  0.4513  0.1582
    1SOL    HW210314   3.851   0.578   2.781  2.2728 -0.6081  1.1573
    1SOL    HW310315   3.915   0.711   2.813 -0.7415  1.2727 -0.3925
    1SOL    MW410316   3.892   0.651   2.755 -0.0918  0.4198  0.2177
    1SOL     OW10317   0.403   2.656   1.049  0.4814  0.3694  0.3430
    1SOL    HW210318   0.391   2.622   0.960  1.8267  0.6848  0.0282
    1SOL    HW310319   0.490   2.626   1.074  0.4263  0.9618  1.2465
    1SOL    MW410320   0.413   2.647   1.040  0.6516  0.4892  0.4206
    1SOL     OW10321   3.651   1.777   4.371 -0.1633 -0.3748  0.2520
    1SOL    HW210322   3.642   1.725   4.451 -0.6231 -1.8987 -0.7708
    1SOL    HW310323   3.671   1.712   4.303 -0.0533  0.8743 -0.9141
    1SOL    MW410324   3.653   1.761   4.372 -0.2096 -0.4110 -0.0367
    1SOL     OW10325   4.122   3.875   4.546 -0.8274  0.1850  0.1253
    1SOL    HW210326   4.057   3.872   4.616 -0.8018 -0.2809  0.1353
    1SOL    HW310327   4.131   3.783   4.519 -0.2573  0.2628  0.0522
    1SOL    MW410328   4.115   3.862   4.552 -0.7486  0.1338  0.1173
    1SOL     OW10329   3.878   2.174   4.758  0.3638 -0.3703 -0.2770
    1SOL    HW210330   3.821   2.245   4.729  0.3808  0.1264  0.8424
    1SOL    HW310331   3.945   2.218   4.811 -0.1622 -1.2928  1.2120
    1SOL    MW410332   3.879   2.190   4.761  0.2968 -0.4265  0.0672
    1SOL     OW10333   1.469   1.416   2.738  0.3681 -0.1202  0.2794
    1SOL    HW210334   1.559   1.401   2.766  0.1816 -0.7382  0.5560
    1SOL    HW310335   1.432   1.329   2.728 -0.4718  0.1407  1.0723
    1SOL    MW410336   1.476   1.403   2.741  0.2327 -0.1674  0.4208
    1SOL     OW10337   2.605   3.957   3.808  0.3490  0.2931 -0.1679
    1SOL    HW210338   2.685   4.005   3.829 -1.1906  2.3728  1.0591
    1SOL    HW310339   2.611   3.876   3.860  0.7110  1.3716  1.4968
    1SOL    MW410340   2.616   3.952   3.817  0.1941  0.7098  0.2134
    1SOL     OW10341   3.555   0.027   1.103  0.9150  0.1847 -0.1319
    1SOL    HW210342   3.643  -0.009   1.091 -0.0568 -1.7932 -1.5843
    1SOL    HW310343   3.524  -0.012   1.185 -0.1427 -2.3913 -1.7112
    1SOL    MW410344   3.563   0.017   1.112  0.6471 -0.4160 -0.5319
    1SOL     OW10345   0.738   3.011   4.529 -0.0540  0.1145 -0.6137
    1SOL    HW210346   0.759   2.987   4.439 -0.3217  0.7059 -0.8382
    1SOL    HW310347   0.664   2.956   4.553  0.1472 -0.1876 -0.6849
    1SOL    MW410348   0.731   3.001   4.521 -0.0628  0.1528 -0.6533
    1SOL     OW10349   2.865   3.534   2.861  0.4001 -0.3422  0.0757
    1SOL    HW210350   2.843   3.442   2.875  2.5178 -0.9211 -0.2350
    1SOL    HW310351   2.823   3.556   2.778  1.4500 -1.5771 -0.8027
    1SOL    MW410352   2.857   3.525   2.852  0.8180 -0.5813 -0.0811
    1SOL     OW10353   3.538   4.240   2.060 -0.3590 -0.3428  0.3707
    1SOL    HW210354   3.480   4.237   2.135 -1.0221 -0.6141 -0.1434
    1SOL    HW310355   3.583   4.155   2.061 -0.2780 -0.2963  0.5347
    1SOL    MW410356   3.537   4.228   2.070 -0.4358 -0.3724  0.3245
    1SOL     OW10357   1.957   3.386   2.421  0.8345 -0.0793 -0.1448
    1SOL    HW210358   1.937   3.308   2.369  1.2612  0.7523 -1.5853
    1SOL    HW310359   2.007   3.442   2.361  0.4433  1.3452  0.8505
    1SOL    MW410360   1.961   3.383   2.406  0.8391  0.2182 -0.2036
    1SOL     OW10361   3.938   0.241   4.293 -0.7011  0.3857  0.2327
    1SOL    HW210362   3.922   0.308   4.360  0.7488 -0.8593  1.8844
    1SOL    HW310363   3.986   0.172   4.339 -1.2659 -1.3369 -1.6816
    1SOL    MW410364   3.942   0.241   4.308 -0.5844 -0.0058  0.1979
    1SOL     OW10365   4.078   1.228   2.016 -0.3242  0.7800  0.4755
    1SOL    HW210366   4.054   1.165   2.084  1.8050  0.0970  0.6392
    1SOL    HW310367   4.168   1.253   2.037 -0.4769  2.4133 -0.7140
    1SOL    MW410368   4.086   1.223   2.028 -0.0634  0.9054  0.3402
    1SOL     OW10369   0.995   0.369   0.574  0.2000  0.0807  0.5475
    1SOL    HW210370   0.950   0.414   0.646  0.3623 -0.5516  1.0486
    1SOL    HW310371   1.003   0.278   0.604  0.1944 -0.2016 -0.3042
    1SOL    MW410372   0.990   0.363   0.588  0.2207 -0.0400  0.5013
    1SOL     OW10373   0.244   3.586   3.607 -0.6178 -0.3592  0.1438
    1SOL    HW210374   0.160   3.595   3.563 -1.0186  1.8249  1.3033
    1SOL    HW310375   0.307   3.627   3.547 -0.9645  1.4044  0.9557
    1SOL    MW410376   0.242   3.593   3.594 -0.7164  0.1616  0.4039
    1SOL     OW10377   4.474   2.246   1.398  0.4021  0.3318 -0.2196
    1SOL    HW210378   4.568   2.261   1.412  0.1701  0.6407  1.0951
    1SOL    HW310379   4.443   2.210   1.481 -0.9740  1.8966 -0.0127
    1SOL    MW410380   4.483   2.244   1.411  0.1903  0.5789 -0.0190
    1SOL     OW10381   3.843   3.095   4.045 -0.3538  0.2152  0.1712
    1SOL    HW210382   3.886   3.072   4.127 -0.4524  0.1489  0.2035
    1SOL    HW310383   3.750   3.074   4.059 -0.1703 -0.9996 -0.4091
    1SOL    MW410384   3.836   3.089   4.057 -0.3426  0.0463  0.0992
    1SOL     OW10385   0.462   0.872   1.004  0.3380 -0.5122 -0.3223
    1SOL    HW210386   0.429   0.962   1.014  0.6862 -0.2125 -1.6903
    1SOL    HW310387   0.551   0.876   1.038  0.6160 -0.1503 -1.0839
    1SOL    MW410388   0.469   0.885   1.010  0.4206 -0.4248 -0.6032
    1SOL     OW10389   2.200   1.898   2.876 -0.2193 -0.0972 -0.4656
    1SOL    HW210390   2.131   1.947   2.831 -0.4938  1.2671  1.3671
    1SOL    HW310391   2.275   1.900   2.816 -0.3464  2.2928 -0.5842
    1SOL    MW410392   2.201   1.904   2.862 -0.2725  0.3982 -0.2394
    1SOL     OW10393   2.935   4.053   1.108 -0.7422 -0.1511  0.3648
    1SOL    HW210394   3.007   4.114   1.099 -1.1206 -0.1117 -3.2773
    1SOL    HW310395   2.904   4.064   1.198  0.9737  2.9387  0.6189
    1SOL    MW410396   2.940   4.062   1.119 -0.5658  0.2618 -0.0823
    1SOL     OW10397   3.193   2.376   0.758  0.2136  0.1521 -0.0270
    1SOL    HW210398   3.278   2.373   0.800 -0.2211 -0.4531  0.8314
    1SOL    HW310399   3.208   2.419   0.674  1.8523 -2.3053 -1.0401
    1SOL    MW410400   3.206   2.381   0.753  0.3726 -0.2520 -0.0474
    1SOL     OW10401   1.318   1.566   1.077 -0.5208  0.3962  0.0943
    1SOL    HW210402   1.370   1.500   1.123 -0.7831 -0.2466 -0.5260
    1SOL    HW310403   1.365   1.647   1.091  0.6945 -0.1923 -0.5145
    1SOL    MW410404   1.331   1.568   1.085 -0.3951  0.2339 -0.0678
    1SOL     OW10405   3.420   4.247   3.504  0.3399 -0.2317 -0.0399
    1SOL    HW210406   3.345   4.192   3.529 -0.0151  0.6910  0.9222
    1SOL    HW310407   3.492   4.185   3.495 -0.4606 -1.0946 -0.6871
    1SOL    MW410408   3.419   4.231   3.506  0.1876 -0.2236  0.0017
    1SOL     OW10409   2.309   3.312   2.266 -0.4156  0.4195  0.4241
    1SOL    HW210410   2.303   3.345   2.356 -0.1636 -0.3625  0.7268
    1SOL    HW310411   2.275   3.223   2.271  1.7795 -0.4524  0.1966
    1SOL    MW410412   2.304   3.305   2.279 -0.0930  0.2015  0.4339
    1SOL     OW10413   2.841   2.407   4.553 -0.2494  0.1571 -0.2974
    1SOL    HW210414   2.924   2.360   4.561  0.0059  0.6753  0.0929
    1SOL    HW310415   2.828   2.418   4.459 -0.3644 -0.7934 -0.3975
    1SOL    MW410416   2.850   2.402   4.542 -0.2310  0.0999 -0.2589
    1SOL     OW10417   1.865   0.658   4.419  0.2813 -0.1653 -0.2336
    1SOL    HW210418   1.955   0.657   4.388  0.0443  0.6445 -0.9506
    1SOL    HW310419   1.815   0.696   4.347 -0.4753  0.4042  0.5907
    1SOL    MW410420   1.870   0.663   4.406  0.1502  0.0167 -0.2193
    1SOL     OW10421   4.228   0.992   2.707  0.1097  0.8646 -0.2271
    1SOL    HW210422   4.135   1.004   2.685 -0.6417  0.3334  2.5008
    1SOL    HW310423   4.259   0.925   2.646 -1.9748 -0.7890  0.4833
    1SOL    MW410424   4.220   0.985   2.696 -0.2646  0.5764  0.2267
    1SOL     OW10425   2.948   2.941   4.396  0.0122  0.1199  0.2856
    1SOL    HW210426   3.025   2.933   4.339  0.3808  0.9242  0.6670
    1SOL    HW310427   2.917   3.030   4.382 -0.8700 -0.2114  0.1157
    1SOL    MW410428   2.954   2.951   4.387 -0.0558  0.1824  0.3138
    1SOL     OW10429   4.278   1.886   3.809 -0.2384 -0.1479 -0.1773
    1SOL    HW210430   4.293   1.804   3.856 -0.1457  0.3926  0.7486
    1SOL    HW310431   4.365   1.913   3.779  0.0329  0.6295  1.2460
    1SOL    MW410432   4.292   1.879   3.811 -0.1903  0.0259  0.1328
    1SOL     OW10433   1.223   4.369   2.408  0.8207 -0.4939  0.0335
    1SOL    HW210434   1.309   4.412   2.407  0.7143 -0.1593  1.9249
    1SOL    HW310435   1.243   4.276   2.419  0.9976 -0.7508 -2.2474
    1SOL    MW410436   1.237   4.363   2.410  0.8299 -0.4835 -0.0179
    1SOL     OW10437   1.993   1.582   0.693  0.4375 -0.1725 -0.5833
    1SOL    HW210438   2.074   1.549   0.656  0.5393 -0.2916 -0.2546
    1SOL    HW310439   1.941   1.503   0.711  1.7370 -0.3682  2.6912
    1SOL    MW410440   1.997   1.567   0.690  0.6223 -0.2141 -0.1079
    1SOL     OW10441   2.624   1.502   3.014 -0.2281  0.3386 -0.2727
    1SOL    HW210442   2.574   1.421   3.017 -0.8272  0.7378  1.9892
    1SOL    HW310443   2.570   1.561   2.960  0.1795 -0.7188 -1.8574
    1SOL    MW410444   2.610   1.499   3.007 -0.2537  0.2517 -0.1833
    1SOL     OW10445   4.258   2.837   3.222  0.6176 -0.2157  0.3581
    1SOL    HW210446   4.179   2.890   3.227  1.8685  1.7005  0.5467
    1SOL    HW310447   4.251   2.775   3.295 -1.4709 -1.1971 -0.6489
    1SOL    MW410448   4.247   2.836   3.233  0.5069 -0.0925  0.2501
    1SOL     OW10449   3.292   4.423   1.558  0.0647  0.1778  0.8041
    1SOL    HW210450   3.346   4.358   1.602  2.3406  2.0574  0.8469
    1SOL    HW310451   3.306   4.504   1.607  0.0143  1.5211 -1.3499
    1SOL    MW410452   3.301   4.425   1.570  0.3583  0.6027  0.5256
    1SOL     OW10453   3.955   2.708   3.022 -0.0141 -0.2776  0.1690
    1SOL    HW210454   3.919   2.707   2.933  0.6130  1.1397 -0.1246
    1SOL    HW310455   3.892   2.761   3.072 -0.0098 -0.5009  0.4098
    1SOL    MW410456   3.942   2.715   3.017  0.0694 -0.1202  0.1621
    1SOL     OW10457   3.307   0.843   3.099 -0.1833 -0.6256 -0.0068
    1SOL    HW210458   3.399   0.857   3.125 -0.6098 -0.4560  1.4581
    1SOL    HW310459   3.268   0.798   3.174 -1.6642  0.6504  0.0148
    1SOL    MW410460   3.314   0.839   3.113 -0.4351 -0.4348  0.1893
    1SOL     OW10461   1.151   2.951   1.054 -0.3478 -0.0508  0.8320
    1SOL    HW210462   1.192   2.888   0.994 -0.6865  0.0331  0.5149
    1SOL    HW310463   1.058   2.949   1.032 -0.0897  2.0204 -0.5261
    1SOL    MW410464   1.144   2.942   1.044 -0.3583  0.2334  0.6111
    1SOL     OW10465   3.918   1.375   4.490  0.0728  0.1797 -0.1069
    1SOL    HW210466   3.839   1.376   4.544  0.6548 -1.2104  0.7918
    1SOL    HW310467   3.954   1.464   4.499 -0.5207  0.3371  0.7546
    1SOL    MW410468   3.912   1.387   4.498  0.0710  0.0170  0.1249
    1SOL     OW10469   2.258   0.554   0.804 -0.4579  0.9686  0.0107
    1SOL    HW210470   2.181   0.574   0.751 -1.5067 -0.8584  0.8084
    1SOL    HW310471   2.329   0.602   0.761 -1.5405  0.6468 -2.2488
    1SOL    MW410472   2.258   0.563   0.791 -0.7391  0.6851 -0.1822
    1SOL     OW10473   2.122   1.616   4.122 -0.4525  0.2633 -0.1817
    1SOL    HW210474   2.039   1.598   4.166 -0.7145  0.9169 -0.3982
    1SOL    HW310475   2.133   1.711   4.131  0.3355  0.1611 -0.0326
    1SOL    MW410476   2.113   1.626   4.129 -0.3829  0.3361 -0.1903
    1SOL     OW10477   1.211   1.614   3.376 -0.1434  0.4079  0.0178
    1SOL    HW210478   1.194   1.629   3.469 -0.2121  0.0994  0.0537
    1SOL    HW310479   1.173   1.528   3.357  0.7866  0.0041 -0.0563
    1SOL    MW410480   1.203   1.605   3.385 -0.0298  0.3141  0.0126
    1SOL     OW10481   3.964   0.098   0.383 -0.2424 -0.2978  0.0112
    1SOL    HW210482   3.944   0.189   0.363  0.3611 -0.0676  0.4318
    1SOL    HW310483   4.034   0.075   0.321  0.2672 -0.1821  0.5402
    1SOL    MW410484   3.971   0.107   0.372 -0.0956 -0.2522  0.1364
    1SOL     OW10485   1.279   0.794   3.556 -0.0345  0.1159  0.4720
    1SOL    HW210486   1.344   0.766   3.491 -1.5790  0.5145 -1.2953
    1SOL    HW310487   1.313   0.877   3.589  0.2271  0.4669 -0.6475
    1SOL    MW410488   1.292   0.801   3.552 -0.2040  0.2148  0.0908
    1SOL     OW10489   0.014   0.534   3.132 -0.4132 -0.0790 -0.3035
    1SOL    HW210490   0.014   0.571   3.220  0.8258 -1.7924  0.4413
    1SOL    HW310491   0.031   0.609   3.075  2.0859  0.5205  1.1723
    1SOL    MW410492   0.016   0.549   3.136  0.0800 -0.2259 -0.0105
    1SOL     OW10493   2.527   2.586   1.400  0.0185  0.4673  0.1912
    1SOL    HW210494   2.558   2.551   1.317 -0.4126 -0.0845  0.2605
    1SOL    HW310495   2.546   2.680   1.395  0.7948  0.2966 -0.1663
    1SOL    MW410496   2.534   2.594   1.389  0.0641  0.3719  0.1532
    1SOL     OW10497   4.486   0.819   3.830 -0.4564 -0.2748  0.0100
    1SOL    HW210498   4.426   0.801   3.903  1.2243 -0.4516  1.3805
    1SOL    HW310499   4.484   0.740   3.776 -0.8878 -0.5681  0.4516
    1SOL    MW410500   4.478   0.806   3.833 -0.2915 -0.3369  0.2489
    1SOL     OW10501   1.098   3.231   4.261 -0.0257 -0.6250  0.1023
    1SOL    HW210502   1.165   3.218   4.328 -0.9615  1.6428  1.5543
    1SOL    HW310503   1.127   3.308   4.213 -1.4071  0.1681  0.5259
    1SOL    MW410504   1.111   3.239   4.264 -0.3314 -0.2210  0.3495
    1SOL     OW10505   0.975   3.060   4.065  0.1410 -0.0035  0.3605
    1SOL    HW210506   0.917   3.118   4.015 -1.6246 -1.3156  0.8443
    1SOL    HW310507   1.015   3.117   4.130 -0.6684  0.9207  0.0690
    1SOL    MW410508   0.972   3.075   4.067 -0.1988 -0.0544  0.3862
    1SOL     OW10509   2.459   4.133   3.967 -0.4627  0.5244  0.4860
    1SOL    HW210510   2.399   4.172   3.903  0.7383  0.9695 -0.3807
    1SOL    HW310511   2.506   4.066   3.918 -0.6007 -0.1712  1.2947
    1SOL    MW410512   2.457   4.129   3.952 -0.3226  0.4911  0.4785
    1SOL     OW10513   4.258   0.102   2.441  0.1765  0.2800  0.5017
    1SOL    HW210514   4.322   0.041   2.406  0.1619  0.6920 -0.2597
    1SOL    HW310515   4.173   0.061   2.422  0.1877  0.0927  0.8398
    1SOL    MW410516   4.255   0.089   2.434  0.1760  0.3097  0.4458
    1SOL     OW10517   3.990   0.216   3.045 -0.6256  0.1372 -0.3653
    1SOL    HW210518   3.994   0.309   3.068 -2.4038 -0.2680  1.9041
    1SOL    HW310519   3.923   0.211   2.977 -1.8366  0.3651  0.7694
    1SOL    MW410520   3.981   0.228   3.039 -1.0200  0.1138  0.0837
    1SOL     OW10521   3.914   0.869   1.346  0.1424  0.2489  0.2398
    1SOL    HW210522   3.821   0.890   1.344 -0.2879 -1.3681  1.7660
    1SOL    HW310523   3.919   0.777   1.322  1.5923  0.9288 -2.1746
    1SOL    MW410524   3.903   0.860   1.343  0.2768  0.1253  0.1227
    1SOL     OW10525   2.939   1.493   0.626  0.2089 -0.0643  0.5832
    1SOL    HW210526   3.013   1.550   0.605 -0.6370  1.7262  2.2332
    1SOL    HW310527   2.977   1.407   0.641  1.7274  0.4373 -0.3201
    1SOL    MW410528   2.954   1.490   0.625  0.2978  0.2381  0.6817
    1SOL     OW10529   0.850   0.611   1.681 -0.2453 -0.3258 -0.0920
    1SOL    HW210530   0.936   0.628   1.719  0.0044 -0.7844 -0.4509
    1SOL    HW310531   0.822   0.528   1.719 -0.5431 -0.1616  0.0496
    1SOL    MW410532   0.857   0.602   1.691 -0.2517 -0.3647 -0.1208
    1SOL     OW10533   3.139   1.851   2.241 -0.0837 -0.2701  0.4544
    1SOL    HW210534   3.168   1.905   2.313 -0.4856 -0.1528  0.5284
    1SOL    HW310535   3.044   1.846   2.250 -0.1748  0.0248 -0.2584
    1SOL    MW410536   3.130   1.857   2.252 -0.1488 -0.2158  0.3703
    1SOL     OW10537   4.310   4.541   4.691 -0.0815 -0.2694 -0.0402
    1SOL    HW210538   4.313   4.633   4.718  2.8819 -1.0050  2.3898
    1SOL    HW310539   4.217   4.518   4.695 -0.5427  1.7981  2.3179
    1SOL    MW410540   4.298   4.550   4.695  0.2484 -0.0935  0.5913
    1SOL     OW10541   1.947   3.568   3.080  0.2369  0.4001  0.0716
    1SOL    HW210542   1.881   3.579   3.148 -0.8056  1.0012 -1.0110
    1SOL    HW310543   1.963   3.656   3.047  1.2736  0.2045  0.0397
    1SOL    MW410544   1.941   3.581   3.085  0.2360  0.4537 -0.0753
    1SOL     OW10545   0.486   0.526   2.452  0.7517 -0.5007 -0.4469
    1SOL    HW210546   0.482   0.565   2.539  0.2987 -0.2321 -0.5901
    1SOL    HW310547   0.579   0.532   2.428  0.4595  1.9255 -1.1192
    1SOL    MW410548   0.498   0.532   2.460  0.6534 -0.1452 -0.5546
    1SOL     OW10549   3.172   3.222   4.369  0.1484  0.5520  0.3347
    1SOL    HW210550   3.079   3.244   4.378  0.2517  0.7891  0.7907
    1SOL    HW310551   3.218   3.306   4.374  0.3674  0.4716 -0.2208
    1SOL    MW410552   3.166   3.236   4.371  0.1910  0.5727  0.3219
    1SOL     OW10553   0.285   0.637   3.730 -0.2696  0.5433  0.0824
    1SOL    HW210554   0.271   0.563   3.789 -1.2511 -1.0372 -2.0956
    1SOL    HW310555   0.274   0.601   3.642  0.8611  2.9216 -1.0895
    1SOL    MW410556   0.282   0.622   3.726 -0.2500  0.6486 -0.3595
    1SOL     OW10557   4.013   4.527   2.622  0.1447 -0.2456 -0.6598
    1SOL    HW210558   4.080   4.526   2.690  0.1223  1.8674 -0.5652
    1SOL    HW310559   3.942   4.475   2.658 -0.7295  2.5736  1.9371
    1SOL    MW410560   4.012   4.520   2.636  0.0267  0.4048 -0.3047
    1SOL     OW10561   1.737   2.207   3.924 -0.4523 -0.7429  0.1587
    1SOL    HW210562   1.688   2.248   3.994 -0.8929  0.1286 -0.6519
    1SOL    HW310563   1.671   2.168   3.867 -0.2921  0.9980 -1.2908
    1SOL    MW410564   1.722   2.207   3.926 -0.4895 -0.3982 -0.1397
    1SOL     OW10565   2.416   0.099   1.617  0.3424  0.1291 -0.6328
    1SOL    HW210566   2.368   0.071   1.540  0.5851 -0.5107 -0.5493
    1SOL    HW310567   2.503   0.123   1.585  0.7935 -1.1617 -0.4076
    1SOL    MW410568   2.421   0.099   1.603  0.4339 -0.1256 -0.5920
    1SOL     OW10569   2.945   1.534   3.941  0.0267 -0.0042 -0.2618
    1SOL    HW210570   2.943   1.621   3.982  2.9160 -0.9207  1.9852
    1SOL    HW310571   2.898   1.478   4.001  2.4047 -0.9281  0.7931
    1SOL    MW410572   2.939   1.538   3.954  0.7215 -0.2471  0.1740
    1SOL     OW10573   1.063   0.705   1.827 -0.0240 -0.5686 -0.2498
    1SOL    HW210574   1.076   0.699   1.921  0.5360  0.2236 -0.2775
    1SOL    HW310575   1.087   0.795   1.804  1.0825 -1.1196 -1.3340
    1SOL    MW410576   1.068   0.716   1.836  0.1960 -0.5367 -0.3965
    1SOL     OW10577   2.212   0.185   2.728 -0.4912 -0.0926  0.3417
    1SOL    HW210578   2.287   0.236   2.757 -0.0607 -1.5825  1.9520
    1SOL    HW310579   2.149   0.193   2.800 -0.4163 -1.7823  0.6227
    1SOL    MW410580   2.213   0.193   2.741 -0.4244 -0.5121  0.5910
    1SOL     OW10581   3.786   3.156   0.822 -0.0389  0.2792 -0.1251
    1SOL    HW210582   3.795   3.104   0.742  0.3729 -1.1642  0.8441
    1SOL    HW310583   3.793   3.247   0.792 -1.3527 -0.1818 -1.9157
    1SOL    MW410584   3.788   3.161   0.807 -0.1578  0.0279 -0.2335
    1SOL     OW10585   1.927   4.320   2.180  0.1881  0.2548 -0.0172
    1SOL    HW210586   1.927   4.225   2.185  1.9387  0.3089  1.5147
    1SOL    HW310587   1.846   4.347   2.224  0.8127 -0.4724  1.6378
    1SOL    MW410588   1.916   4.311   2.187  0.5015  0.1655  0.4032
    1SOL     OW10589   3.181   0.619   4.036 -0.0103 -0.1546 -0.0829
    1SOL    HW210590   3.244   0.570   4.088 -0.8821 -0.7250  0.4562
    1SOL    HW310591   3.097   0.607   4.081 -0.4573  0.8333 -0.6143
    1SOL    MW410592   3.178   0.611   4.049 -0.1845 -0.0995 -0.0820
    1SOL     OW10593   2.641   1.740   1.767 -0.5992 -0.1110  0.3503
    1SOL    HW210594   2.576   1.801   1.801 -0.4867  0.4109 -0.3473
    1SOL    HW310595   2.721   1.761   1.815 -0.0179  1.7298 -1.3344
    1SOL    MW410596   2.643   1.751   1.778 -0.5076  0.2009  0.0360
    1SOL     OW10597   3.323   1.198   2.305  0.6590 -0.2133  1.0051
    1SOL    HW210598   3.375   1.278   2.306  0.3381  0.0470 -0.7539
    1SOL    HW310599   3.243   1.222   2.258  1.5506 -2.1147 -1.6733
    1SOL    MW410600   3.319   1.212   2.299  0.7341 -0.4297  0.4196
    1SOL     OW10601   1.215   4.341   1.127 -0.3759 -0.1892 -0.0218
    1SOL    HW210602   1.121   4.332   1.143 -0.3045 -1.5681 -0.3957
    1SOL    HW310603   1.256   4.308   1.207 -0.1713 -1.3033 -0.5762
    1SOL    MW410604   1.208   4.336   1.140 -0.3395 -0.5183 -0.1442
    1SOL     OW10605   3.790   3.385   4.749 -0.1759 -0.0219  0.2103
    1SOL    HW210606   3.695   3.380   4.744 -0.2480 -0.5844  1.7938
    1SOL    HW310607   3.816   3.308   4.800  1.1928 -0.2741 -0.8365
    1SOL    MW410608   3.781   3.374   4.755 -0.0048 -0.1292  0.2809
    1SOL     OW10609   4.346   4.244   4.809  0.1361  0.1028 -0.4701
    1SOL    HW210610   4.254   4.235   4.837  0.6211  0.2635  1.1964
    1SOL    HW310611   4.359   4.339   4.802  0.5849  0.1284  0.6886
    1SOL    MW410612   4.335   4.255   4.812  0.2594  0.1278 -0.0973
    1SOL     OW10613   1.809   1.142   1.638  0.0698 -0.0351 -0.0003
    1SOL    HW210614   1.721   1.105   1.646  0.2106 -0.6705 -1.1708
    1SOL    HW310615   1.806   1.191   1.556  0.7593  0.0677  0.0345
    1SOL    MW410616   1.797   1.144   1.628  0.1793 -0.1053 -0.1502
    1SOL     OW10617   2.459   0.362   1.339 -0.2709  0.0305 -0.3851
    1SOL    HW210618   2.389   0.396   1.394  1.0332 -1.1696  2.1354
    1SOL    HW310619   2.457   0.267   1.354  0.8403 -0.1915 -1.5282
    1SOL    MW410620   2.450   0.354   1.348  0.0479 -0.1571 -0.2034
    1SOL     OW10621   3.715   0.605   4.449  0.0381 -0.2160 -0.3453
    1SOL    HW210622   3.780   0.542   4.481  0.7917  0.8245  0.1743
    1SOL    HW310623   3.766   0.672   4.404 -0.8312 -0.4274 -1.6865
    1SOL    MW410624   3.730   0.605   4.447  0.0229 -0.1066 -0.4535
    1SOL     OW10625   3.686   1.528   1.446 -0.6052  0.4495  0.0697
    1SOL    HW210626   3.649   1.462   1.386 -1.2236  1.0798 -0.2506
    1SOL    HW310627   3.709   1.478   1.524  0.2565 -0.3935 -0.7032
    1SOL    MW410628   3.684   1.512   1.448 -0.5732  0.4214 -0.0745
    1SOL     OW10629   3.182   0.007   1.147  0.7351 -0.0404 -0.1725
    1SOL    HW210630   3.178   0.095   1.184 -1.7000  0.4577 -1.5506
    1SOL    HW310631   3.110  -0.040   1.187  0.5107 -0.6705 -1.2999
    1SOL    MW410632   3.172   0.012   1.157  0.3841 -0.0577 -0.5031
    1SOL     OW10633   1.688   3.526   1.745  0.2150 -0.5069  0.0098
    1SOL    HW210634   1.720   3.477   1.670  0.3473 -0.8759  0.3106
    1SOL    HW310635   1.595   3.542   1.725  0.5036  0.3087 -0.7194
    1SOL    MW410636   1.680   3.522   1.732  0.2706 -0.4480 -0.0466
    1SOL     OW10637   1.239   0.421   4.028 -0.0692 -0.1587  0.8201
    1SOL    HW210638   1.280   0.505   4.049  1.2082  0.1023 -2.3808
    1SOL    HW310639   1.150   0.443   4.004  0.6552  0.5112 -1.3701
    1SOL    MW410640   1.233   0.435   4.028  0.1949 -0.0359  0.1092
    1SOL     OW10641   0.928   2.414   2.409  0.0726 -0.2814  0.4418
    1SOL    HW210642   0.852   2.460   2.443 -0.8625 -0.3904 -1.4547
    1SOL    HW310643   0.993   2.483   2.395 -0.7612  0.2749 -0.8384
    1SOL    MW410644   0.927   2.429   2.411 -0.1607 -0.2224  0.0229
    1SOL     OW10645   3.074   4.241   3.415 -0.0781 -0.2157 -0.3992
    1SOL    HW210646   3.057   4.313   3.354 -0.2284  0.4875  0.4665
    1SOL    HW310647   2.988   4.220   3.453  0.0473 -0.5095 -0.2710
    1SOL    MW410648   3.061   4.248   3.412 -0.0813 -0.1621 -0.2682
    1SOL     OW10649   2.109   2.402   2.844 -0.3644  0.6409  0.2812
    1SOL    HW210650   2.081   2.412   2.934  0.8206  0.2473  0.7017
    1SOL    HW310651   2.145   2.487   2.819  1.0924  0.1888  0.8151
    1SOL    MW410652   2.110   2.414   2.852 -0.0160  0.5293  0.4072
    1SOL     OW10653   4.474   4.349   2.225  0.0927  0.3739  0.0620
    1SOL    HW210654   4.547   4.318   2.171  0.7393  1.4764  0.3041
    1SOL    HW310655   4.424   4.269   2.244  1.1189 -0.3643 -0.2627
    1SOL    MW410656   4.477   4.334   2.220  0.3138  0.4220  0.0510
    1SOL     OW10657   0.237   1.099   2.274 -0.0578  0.0633  0.0299
    1SOL    HW210658   0.220   1.028   2.212  0.9114  0.0787 -0.2605
    1SOL    HW310659   0.150   1.128   2.302 -0.4800 -0.5057 -0.6804
    1SOL    MW410660   0.224   1.094   2.269  0.0144 -0.0098 -0.1023
    1SOL     OW10661   2.412   4.281   0.943 -0.1890 -0.3515  0.5040
    1SOL    HW210662   2.377   4.342   1.008 -0.9347 -1.1851  0.9011
    1SOL    HW310663   2.358   4.203   0.953 -0.8096 -0.2208 -1.6457
    1SOL    MW410664   2.400   4.279   0.953 -0.3693 -0.4444  0.2728
    1SOL     OW10665   0.630   1.636   1.914  0.2337 -0.0205  0.4208
    1SOL    HW210666   0.608   1.543   1.919  0.2968 -0.2131 -2.2388
    1SOL    HW310667   0.725   1.638   1.905 -0.0061  0.1407 -2.3743
    1SOL    MW410668   0.640   1.624   1.914  0.2104 -0.0246 -0.2990
    1SOL     OW10669   3.486   0.115   2.631 -0.6118 -0.0191 -0.6196
    1SOL    HW210670   3.403   0.090   2.592 -0.3407  0.4017 -1.4670
    1SOL    HW310671   3.545   0.129   2.557 -0.5465  2.3999 -0.1562
    1SOL    MW410672   3.483   0.113   2.616 -0.5674  0.3556 -0.6700
    1SOL     OW10673   3.366   2.573   4.459 -0.1494  0.0565  0.3004
    1SOL    HW210674   3.337   2.547   4.372  1.2243  0.1928 -0.2066
    1SOL    HW310675   3.286   2.603   4.503 -1.0491 -1.1107 -0.5009
    1SOL    MW410676   3.351   2.574   4.453 -0.0868 -0.0794  0.1278
    1SOL     OW10677   1.934   1.163   3.298  0.0764  0.3276 -0.1630
    1SOL    HW210678   1.912   1.208   3.216 -1.7725  1.0838  0.7165
    1SOL    HW310679   1.859   1.107   3.315  1.5698 -1.7827 -0.2828
    1SOL    MW410680   1.921   1.162   3.289  0.0294  0.1488 -0.0629
    1SOL     OW10681   0.188   0.470   0.441 -0.2402  0.0420  0.0954
    1SOL    HW210682   0.107   0.501   0.480 -1.0439 -1.3459 -0.4430
    1SOL    HW310683   0.241   0.441   0.515 -0.8645 -0.5079  0.3257
    1SOL    MW410684   0.184   0.471   0.456 -0.4286 -0.2137  0.0547
    1SOL     OW10685   0.824   3.083   1.437 -0.3310  0.2769  0.0838
    1SOL    HW210686   0.835   3.041   1.352  1.7377  0.3968  0.2796
    1SOL    HW310687   0.904   3.133   1.450 -1.5041  1.9183  1.1889
    1SOL    MW410688   0.836   3.084   1.428 -0.2128  0.5095  0.2555
    1SOL     OW10689   1.564   1.010   2.793 -0.3801 -0.3759  0.3669
    1SOL    HW210690   1.493   1.069   2.820 -0.1787  0.6737 -1.3526
    1SOL    HW310691   1.531   0.922   2.816 -1.3293  0.2574  1.5192
    1SOL    MW410692   1.550   1.006   2.800 -0.4787 -0.1539  0.2918
    1SOL     OW10693   0.669   4.250   4.530 -0.0670  0.2737 -0.4368
    1SOL    HW210694   0.734   4.197   4.485 -0.9245  0.0784 -1.4621
    1SOL    HW310695   0.593   4.193   4.540 -0.2489  0.6428  0.3322
    1SOL    MW410696   0.667   4.236   4.525 -0.2041  0.2971 -0.4706
    1SOL     OW10697   2.511   1.284   3.643 -0.0090 -0.5774 -0.2793
    1SOL    HW210698   2.605   1.267   3.633 -0.2311 -1.2818 -1.2258
    1SOL    HW310699   2.471   1.197   3.642 -0.7229 -0.2498 -0.3940
    1SOL    MW410700   2.518   1.270   3.641 -0.1323 -0.6272 -0.4191
    1SOL     OW10701   3.514   3.588   1.528  0.2548  0.7664  0.1916
    1SOL    HW210702   3.470   3.506   1.548  0.0837  0.6808 -0.5173
    1SOL    HW310703   3.509   3.595   1.433 -0.0124  1.7547  0.2762
    1SOL    MW410704   3.508   3.578   1.518  0.1969  0.8855  0.1091
    1SOL     OW10705   3.719   0.419   1.305 -0.0509 -0.2177  0.0257
    1SOL    HW210706   3.732   0.496   1.250 -0.5192  0.4984  0.9062
    1SOL    HW310707   3.650   0.444   1.366 -0.2769 -1.3717  0.2704
    1SOL    MW410708   3.711   0.432   1.305 -0.1423 -0.2755  0.1742
    1SOL     OW10709   2.381   4.450   3.183 -0.7384  0.4902 -0.5126
    1SOL    HW210710   2.388   4.485   3.094 -0.8154 -0.0887 -0.7435
    1SOL    HW310711   2.440   4.506   3.234  0.2193  0.0786 -1.1498
    1SOL    MW410712   2.390   4.462   3.178 -0.6220  0.3595 -0.6270
    1SOL     OW10713   0.797   4.248   4.787 -0.1452  0.1760 -0.2501
    1SOL    HW210714   0.756   4.314   4.843 -0.2383 -1.0999  1.2262
    1SOL    HW310715   0.756   4.261   4.701 -1.3828  0.9323  0.4289
    1SOL    MW410716   0.786   4.259   4.783 -0.3208  0.1073  0.0343
    1SOL     OW10717   1.275   2.699   0.572  0.0064  0.1660 -0.0952
    1SOL    HW210718   1.343   2.764   0.555 -0.5613  0.2725 -2.0724
    1SOL    HW310719   1.193   2.742   0.547 -0.7168 -0.2412  1.5053
    1SOL    MW410720   1.273   2.713   0.566 -0.1638  0.1266 -0.1449
    1SOL     OW10721   0.064   0.934   2.039 -0.0530  0.2496 -0.2576
    1SOL    HW210722   0.013   0.992   1.983  4.2372  1.9659 -2.6442
    1SOL    HW310723   0.070   0.852   1.990 -0.6270  0.0045  0.0814
    1SOL    MW410724   0.058   0.931   2.025  0.4373  0.4436 -0.5279
    1SOL     OW10725   3.194   1.615   2.115 -0.5264 -0.0874 -0.2122
    1SOL    HW210726   3.187   1.698   2.163 -0.7750 -0.3840  0.2579
    1SOL    HW310727   3.148   1.632   2.032 -0.7043  0.1991 -0.0564
    1SOL    MW410728   3.187   1.629   2.110 -0.5829 -0.0886 -0.1297
    1SOL     OW10729   4.236   1.864   1.880  0.0337 -0.2560 -0.2460
    1SOL    HW210730   4.208   1.931   1.943 -0.5757 -0.0447 -0.7380
    1SOL    HW310731   4.320   1.833   1.914  0.2373  0.6382  0.0779
    1SOL    MW410732   4.244   1.869   1.893 -0.0200 -0.1101 -0.2681
    1SOL     OW10733   0.966   0.224   4.429  0.3629  0.0319 -0.3055
    1SOL    HW210734   0.933   0.172   4.355  0.7948 -1.5838  0.6009
    1SOL    HW310735   1.053   0.252   4.401  0.2287  0.0654 -0.7001
    1SOL    MW410736   0.973   0.221   4.416  0.4022 -0.1768 -0.2379
    1SOL     OW10737   2.007   0.795   1.016 -0.5515  0.7647  1.0103
    1SOL    HW210738   2.078   0.801   1.081  1.3966 -0.2706 -0.9774
    1SOL    HW310739   1.955   0.719   1.045 -0.0393  0.6555  1.6681
    1SOL    MW410740   2.009   0.786   1.029 -0.2270  0.6137  0.8348
    1SOL     OW10741   2.273   3.804   3.993  0.3585 -0.2412 -0.2767
    1SOL    HW210742   2.309   3.844   3.913 -0.7051  1.1531 -0.0771
    1SOL    HW310743   2.331   3.835   4.062 -1.6601  2.7672  0.1751
    1SOL    MW410744   2.286   3.813   3.991 -0.0482  0.3400 -0.1905
    1SOL     OW10745   4.094   2.503   1.369 -0.4538  0.0314  0.5166
    1SOL    HW210746   4.067   2.551   1.291 -0.2598  0.1231  0.5064
    1SOL    HW310747   4.189   2.502   1.365 -0.4733 -1.2504 -0.0378
    1SOL    MW410748   4.103   2.509   1.358 -0.4306 -0.1256  0.4421
    1SOL     OW10749   4.197   4.294   0.368  1.2634  0.3737  0.5080
    1SOL    HW210750   4.284   4.266   0.394  0.9080  0.1810  1.5419
    1SOL    HW310751   4.151   4.213   0.345  1.3577  0.4725 -0.0266
    1SOL    MW410752   4.202   4.280   0.369  1.2288  0.3614  0.5738
    1SOL     OW10753   3.780   4.170   1.424 -0.3176  0.1463 -0.2685
    1SOL    HW210754   3.692   4.206   1.431  0.3352  1.8330 -0.4900
    1SOL    HW310755   3.838   4.246   1.435  1.0799 -0.6240 -2.0641
    1SOL    MW410756   3.776   4.185   1.426 -0.0472  0.2670 -0.5347
    1SOL     OW10757   2.849   2.571   2.501  0.2447  0.1245  0.4438
    1SOL    HW210758   2.839   2.477   2.516 -0.5260  0.0193 -0.6408
    1SOL    HW310759   2.887   2.577   2.413  0.3964  0.8156  0.5570
    1SOL    MW410760   2.853   2.559   2.491  0.1631  0.2017  0.3157
    1SOL     OW10761   3.082   0.305   3.322  0.1671 -0.2069 -0.0704
    1SOL    HW210762   3.057   0.358   3.398 -1.5786 -0.3223 -0.5411
    1SOL    HW310763   3.118   0.225   3.360  0.5613  0.2874  0.6300
    1SOL    MW410764   3.084   0.302   3.337 -0.0112 -0.1570 -0.0398
    1SOL     OW10765   3.185   0.380   3.851 -0.5302 -0.3722 -0.0757
    1SOL    HW210766   3.206   0.411   3.763 -0.6829  0.4239  0.1666
    1SOL    HW310767   3.197   0.456   3.907 -0.6240 -0.8266  0.5689
    1SOL    MW410768   3.190   0.394   3.846 -0.5627 -0.3271  0.0415
    1SOL     OW10769   1.585   2.233   1.317 -0.0718 -0.2837 -0.1520
    1SOL    HW210770   1.600   2.256   1.408  0.0466  0.4271 -0.3511
    1SOL    HW310771   1.537   2.150   1.321 -0.7339  0.1285  0.5588
    1SOL    MW410772   1.581   2.225   1.329 -0.1435 -0.1357 -0.0845
    1SOL     OW10773   3.490   4.570   2.142 -0.1157  0.3359 -0.0197
    1SOL    HW210774   3.430   4.602   2.074 -1.0258 -0.8961  0.1801
    1SOL    HW310775   3.571   4.620   2.128 -1.3762  2.4933  0.1191
    1SOL    MW410776   3.493   4.581   2.131 -0.4017  0.4582  0.0250
    1SOL     OW10777   2.378   2.509   2.414 -0.1334  0.4766  0.0655
    1SOL    HW210778   2.352   2.430   2.462 -1.3746  0.2220 -1.0003
    1SOL    HW310779   2.448   2.546   2.467 -0.6330 -0.4603  1.4398
    1SOL    MW410780   2.384   2.503   2.427 -0.3631  0.3195  0.1066
    1SOL     OW10781   2.174   4.456   2.258 -0.4055  0.0883  0.1990
    1SOL    HW210782   2.235   4.449   2.185 -0.4374  2.0199 -0.0439
    1SOL    HW310783   2.092   4.419   2.225  0.3774 -1.7391  0.2531
    1SOL    MW410784   2.171   4.450   2.244 -0.3061  0.1020  0.1743
    1SOL     OW10785   3.921   4.066   3.255 -0.3981 -0.3720 -0.0304
    1SOL    HW210786   3.966   4.057   3.171 -1.8164 -0.7693 -0.7657
    1SOL    HW310787   3.865   4.143   3.244 -0.8209 -0.6078  0.4408
    1SOL    MW410788   3.920   4.075   3.243 -0.6411 -0.4554 -0.0651
    1SOL     OW10789   0.112   3.389   2.524  0.2106 -0.9095 -0.0309
    1SOL    HW210790   0.019   3.377   2.508  0.4298 -0.1679 -2.0975
    1SOL    HW310791   0.133   3.330   2.596 -2.1169 -0.0629  1.3805
    1SOL    MW410792   0.103   3.380   2.531 -0.0675 -0.7002 -0.1175
    1SOL     OW10793   4.440   3.621   1.161  0.0930 -0.4442  0.3003
    1SOL    HW210794   4.526   3.662   1.168  0.7729 -1.8674  0.4007
    1SOL    HW310795   4.407   3.618   1.251  0.3268 -0.7069  0.3791
    1SOL    MW410796   4.447   3.626   1.174  0.2136 -0.6669  0.3239
    1SOL     OW10797   0.931   2.124   2.447 -0.3300  0.2157  0.0335
    1SOL    HW210798   0.904   2.107   2.538  1.5495  0.2421  0.6124
    1SOL    HW310799   0.956   2.216   2.447  1.7756 -0.3362  0.0470
    1SOL    MW410800   0.931   2.134   2.459  0.1957  0.1462  0.1116
    1SOL     OW10801   1.759   2.708   0.899 -0.4588  0.0020  0.1419
    1SOL    HW210802   1.669   2.727   0.927 -0.1758  0.9072  0.4638
    1SOL    HW310803   1.767   2.613   0.907 -1.8849 -0.2626 -1.4076
    1SOL    MW410804   1.748   2.698   0.904 -0.6096  0.0865 -0.0200
    1SOL     OW10805   1.139   2.576   2.366  0.3102 -0.8336 -0.3857
    1SOL    HW210806   1.168   2.487   2.346 -0.0590 -0.8570 -0.8335
    1SOL    HW310807   1.161   2.588   2.459  0.2417 -1.4390 -0.2863
    1SOL    MW410808   1.145   2.565   2.376  0.2524 -0.9167 -0.4318
    1SOL     OW10809   3.027   0.256   1.757  0.3056 -0.1892 -0.0147
    1SOL    HW210810   3.066   0.307   1.828  0.3696  0.4014 -0.4742
    1SOL    HW310811   2.976   0.320   1.707 -0.0025 -0.6673 -0.3153
    1SOL    MW410812   3.025   0.271   1.760  0.2735 -0.1743 -0.1152
    1SOL     OW10813   0.428   2.516   0.822  1.2562 -0.3314 -0.1479
    1SOL    HW210814   0.489   2.470   0.880 -0.2103  1.2782  2.7599
    1SOL    HW310815   0.355   2.456   0.812  1.2728 -0.3905  0.0910
    1SOL    MW410816   0.427   2.502   0.829  1.0649 -0.1268  0.2673
    1SOL     OW10817   3.795   2.671   2.139  0.0142  0.5179 -0.3657
    1SOL    HW210818   3.705   2.665   2.171  0.1307  1.5054  0.1860
    1SOL    HW310819   3.827   2.753   2.175  2.1681 -1.3172  2.1286
    1SOL    MW410820   3.787   2.681   2.148  0.3138  0.4060  0.0362
    1SOL     OW10821   2.516   1.682   3.454  0.0076  0.6685  0.0334
    1SOL    HW210822   2.423   1.678   3.475 -0.0915  0.8690 -0.3758
    1SOL    HW310823   2.560   1.656   3.535 -0.3815  1.4235  0.4857
    1SOL    MW410824   2.509   1.678   3.468 -0.0570  0.7946  0.0391
    1SOL     OW10825   0.472   3.211   3.931 -0.2354  0.0663  0.2245
    1SOL    HW210826   0.469   3.275   4.002 -0.9994 -0.5861  0.7876
    1SOL    HW310827   0.422   3.252   3.860 -0.8969  0.0111  0.6556
    1SOL    MW410828   0.465   3.225   3.931 -0.4235 -0.0272  0.3557
    1SOL     OW10829   3.764   4.298   1.071  0.1320 -0.0852 -0.2439
    1SOL    HW210830   3.739   4.341   0.989  0.1238 -0.9642 -0.7167
    1SOL    HW310831   3.800   4.368   1.125 -0.0601  0.5467 -0.9228
    1SOL    MW410832   3.766   4.313   1.067  0.1059 -0.1173 -0.3959
    1SOL     OW10833   2.040   2.751   3.787  0.1597 -0.0982 -0.0807
    1SOL    HW210834   1.966   2.811   3.781  1.4557  1.6260  0.5707
    1SOL    HW310835   2.009   2.681   3.844 -1.3716 -0.0487 -0.8141
    1SOL    MW410836   2.026   2.750   3.794  0.1287  0.1357 -0.0913
    1SOL     OW10837   0.068   0.275   3.050 -0.0868 -0.0096  0.0041
    1SOL    HW210838   0.048   0.365   3.075  0.7021 -0.5552  2.7743
    1SOL    HW310839   0.077   0.278   2.955 -1.8437  2.4681 -0.1387
    1SOL    MW410840   0.067   0.287   3.041 -0.2145  0.2453  0.3505
    1SOL     OW10841   1.108   2.609   0.971 -0.0940 -0.5948  0.4923
    1SOL    HW210842   1.071   2.523   0.953  1.0051 -1.1344  0.7825
    1SOL    HW310843   1.153   2.599   1.055  1.8542 -0.3142 -0.4891
    1SOL    MW410844   1.109   2.597   0.980  0.3082 -0.6289  0.4011
    1SOL     OW10845   1.917   1.420   1.141 -0.0217  0.2261  0.0856
    1SOL    HW210846   1.880   1.484   1.080 -0.7948 -0.0696  0.2404
    1SOL    HW310847   1.929   1.341   1.088 -0.0186  0.1871  0.1440
    1SOL    MW410848   1.914   1.418   1.126 -0.1233  0.1819  0.1138
    1SOL     OW10849   3.312   3.125   3.533  0.2323 -0.2169 -0.1124
    1SOL    HW210850   3.342   3.213   3.509  0.4043 -0.1407  0.3844
    1SOL    HW310851   3.298   3.129   3.627 -1.0698 -0.3358 -0.2952
    1SOL    MW410852   3.314   3.137   3.542  0.0830 -0.2224 -0.0710
    1SOL     OW10853   2.621   0.423   2.387 -0.1398 -0.1139  0.1743
    1SOL    HW210854   2.607   0.516   2.373  0.1568 -0.0844  0.0625
    1SOL    HW310855   2.700   0.418   2.441  0.9162 -0.3601 -1.3560
    1SOL    MW410856   2.630   0.434   2.393  0.0384 -0.1425 -0.0424
    1SOL     OW10857   2.707   4.252   2.454 -0.4982  0.2351 -0.2097
    1SOL    HW210858   2.738   4.265   2.543  0.2691 -1.2870 -0.2486
    1SOL    HW310859   2.669   4.337   2.429 -0.1546  0.8476  1.3236
    1SOL    MW410860   2.706   4.265   2.463 -0.3519  0.1149 -0.0129
    1SOL     OW10861   3.177   2.581   0.540 -0.5121 -0.0218  0.2299
    1SOL    HW210862   3.128   2.544   0.466 -0.2178 -0.3429  0.1944
    1SOL    HW310863   3.113   2.636   0.586 -0.4479  0.9686 -0.8354
    1SOL    MW410864   3.162   2.583   0.536 -0.4649  0.0663  0.0848
    1SOL     OW10865   1.633   3.392   1.027  0.2286  0.6358 -0.0926
    1SOL    HW210866   1.722   3.395   1.060  0.8435  1.1524 -1.7100
    1SOL    HW310867   1.592   3.471   1.062  0.3298  0.2670  0.8602
    1SOL    MW410868   1.639   3.403   1.036  0.3231  0.6552 -0.1802
    1SOL     OW10869   3.113   3.891   3.794  0.2315 -0.1769  0.0537
    1SOL    HW210870   3.163   3.833   3.852  0.5990 -0.0804 -0.1592
    1SOL    HW310871   3.125   3.979   3.831 -0.1993 -0.2211  0.2908
    1SOL    MW410872   3.121   3.895   3.806  0.2232 -0.1705  0.0570
    1SOL     OW10873   0.961   3.073   0.662 -0.3781  0.5890  0.0931
    1SOL    HW210874   0.915   3.154   0.643  0.3617  0.6031 -1.7976
    1SOL    HW310875   1.052   3.100   0.677  0.0289  0.0544 -1.3132
    1SOL    MW410876   0.967   3.087   0.661 -0.2269  0.5202 -0.3418
    1SOL     OW10877   3.634   1.890   3.352  0.5691  0.0643  0.3197
    1SOL    HW210878   3.647   1.856   3.441 -0.7470  0.7309  0.7665
    1SOL    HW310879   3.602   1.814   3.303 -0.5480  0.1567  0.8770
    1SOL    MW410880   3.632   1.875   3.357  0.2480  0.1644  0.4518
    1SOL     OW10881   3.013   1.206   0.718 -1.1178 -0.5029 -0.1551
    1SOL    HW210882   2.973   1.120   0.706 -0.7130 -0.6594 -0.3995
    1SOL    HW310883   3.107   1.188   0.727 -0.9722 -0.0446 -0.7300
    1SOL    MW410884   3.020   1.192   0.718 -1.0450 -0.4630 -0.2632
    1SOL     OW10885   1.950   0.307   3.820  0.0798 -0.2996 -0.0139
    1SOL    HW210886   1.929   0.385   3.871 -1.6883 -1.2520  0.7711
    1SOL    HW310887   2.045   0.304   3.818  0.1886 -0.1137  3.0556
    1SOL    MW410888   1.960   0.317   3.826 -0.1390 -0.4007  0.4945
    1SOL     OW10889   0.198   4.546   0.924  0.3427 -0.1943 -0.4543
    1SOL    HW210890   0.192   4.637   0.894 -0.1361  0.6835  2.1173
    1SOL    HW310891   0.183   4.494   0.846 -1.5988  1.9595 -1.6046
    1SOL    MW410892   0.195   4.551   0.910  0.0234  0.2055 -0.2668
    1SOL     OW10893   1.618   0.192   1.898 -0.1203 -0.1056 -0.0561
    1SOL    HW210894   1.532   0.151   1.891 -1.0485  1.8945 -0.7459
    1SOL    HW310895   1.671   0.147   1.832 -0.5338 -1.5367  0.5623
    1SOL    MW410896   1.614   0.181   1.888 -0.2973 -0.0305 -0.0654
    1SOL     OW10897   4.479   2.780   0.313 -0.0868  0.1289  0.4462
    1SOL    HW210898   4.551   2.728   0.348 -0.1423  0.5366  1.1732
    1SOL    HW310899   4.461   2.741   0.228  0.7240 -0.2322  0.4306
    1SOL    MW410900   4.486   2.768   0.306  0.0129  0.1349  0.5401
    1SOL     OW10901   4.303   2.223   1.149  0.3718 -0.1016 -0.2722
    1SOL    HW210902   4.363   2.175   1.091  0.9485 -1.0049  1.0412
    1SOL    HW310903   4.350   2.227   1.233 -1.3975 -0.8371  0.7722
    1SOL    MW410904   4.317   2.217   1.153  0.2151 -0.3176  0.0387
    1SOL     OW10905   0.929   3.410   2.530  0.1583  0.2172 -0.3967
    1SOL    HW210906   0.878   3.490   2.518 -2.0509 -1.2934 -1.5001
    1SOL    HW310907   0.974   3.398   2.446  0.7108  0.4646 -0.1331
    1SOL    MW410908   0.928   3.419   2.517 -0.0603  0.0503 -0.5078
    1SOL     OW10909   1.338   3.927   2.091  0.3199 -0.2142  0.3780
    1SOL    HW210910   1.367   3.929   2.182  0.2508 -0.0896  0.3974
    1SOL    HW310911   1.338   4.019   2.064 -0.7644 -0.1467  0.5988
    1SOL    MW410912   1.342   3.940   2.099  0.1678 -0.1888  0.4094
    1SOL     OW10913   2.368   1.288   0.817  0.5991  0.0448 -0.1738
    1SOL    HW210914   2.406   1.353   0.877 -2.1048  1.1503  0.4055
    1SOL    HW310915   2.347   1.338   0.738  0.2632 -0.5125 -0.4374
    1SOL    MW410916   2.370   1.303   0.815  0.1981  0.1171 -0.1321
    1SOL     OW10917   1.589   2.510   3.216  0.6859  0.4485 -0.0326
    1SOL    HW210918   1.536   2.586   3.241 -0.9292 -0.7210  0.2008
    1SOL    HW310919   1.636   2.538   3.138 -0.8614  1.2941 -0.6926
    1SOL    MW410920   1.588   2.523   3.209  0.2686  0.4058 -0.0887
    1SOL     OW10921   4.033   3.933   4.286  0.4730 -0.0632 -0.2141
    1SOL    HW210922   4.108   3.886   4.249  0.4154 -0.1536 -0.2145
    1SOL    HW310923   4.048   3.933   4.380  0.2972 -0.3810 -0.1867
    1SOL    MW410924   4.045   3.927   4.293  0.4420 -0.1173 -0.2103
    1SOL     OW10925   3.178   4.568   0.872  0.2003 -0.9831 -0.3348
    1SOL    HW210926   3.246   4.503   0.850 -0.2370 -1.1470 -1.2181
    1SOL    HW310927   3.185   4.577   0.968 -0.1328 -2.7899 -0.1097
    1SOL    MW410928   3.188   4.560   0.882  0.0985 -1.2436 -0.4217
    1SOL     OW10929   0.813   3.682   2.486 -0.0298 -0.0248  0.3777
    1SOL    HW210930   0.853   3.764   2.458 -2.3605  1.3179  0.9531
    1SOL    HW310931   0.748   3.662   2.419  0.0797 -1.1072  0.5692
    1SOL    MW410932   0.810   3.690   2.473 -0.3228  0.0098  0.4790
    1SOL     OW10933   2.716   4.194   4.563  0.5028  0.3134  0.1567
    1SOL    HW210934   2.809   4.199   4.587  0.8065  0.1815 -0.9400
    1SOL    HW310935   2.716   4.143   4.482 -0.4689  0.8104 -0.1601
    1SOL    MW410936   2.728   4.188   4.555  0.4146  0.3614 -0.0300
    1SOL     OW10937   0.610   2.126   2.865 -0.0609  0.0688 -0.2364
    1SOL    HW210938   0.670   2.193   2.898 -1.5587  0.0277  2.7725
    1SOL    HW310939   0.642   2.045   2.905 -1.1329 -0.2161  0.0460
    1SOL    MW410940   0.623   2.124   2.875 -0.4000  0.0257  0.1979
    1SOL     OW10941   2.604   2.138   2.604 -0.3995  0.0324 -0.2578
    1SOL    HW210942   2.670   2.069   2.597  0.5559  1.1016 -2.0408
    1SOL    HW310943   2.565   2.124   2.690  2.2458 -0.5068  0.9100
    1SOL    MW410944   2.607   2.127   2.614  0.0756  0.1018 -0.3390
    1SOL     OW10945   3.663   0.412   0.502  0.0847  0.3202  0.0283
    1SOL    HW210946   3.577   0.453   0.494  0.0860  0.3528  0.1944
    1SOL    HW310947   3.649   0.336   0.557 -0.0212 -0.2001 -0.7163
    1SOL    MW410948   3.650   0.408   0.508  0.0710  0.2559 -0.0481
    1SOL     OW10949   2.857   0.887   3.374  0.8413  0.3606  0.2300
    1SOL    HW210950   2.929   0.950   3.373 -0.0605  1.4437  1.3083
    1SOL    HW310951   2.817   0.895   3.288  0.8935  1.0935  0.2642
    1SOL    MW410952   2.861   0.897   3.363  0.7291  0.6002  0.3769
    1SOL     OW10953   1.842   3.246   3.101 -0.3054  0.2765  0.0688
    1SOL    HW210954   1.787   3.224   3.176 -0.4749  1.3053  0.2543
    1SOL    HW310955   1.805   3.328   3.067  0.3100  0.2851 -0.6034
    1SOL    MW410956   1.830   3.254   3.106 -0.2465  0.4137  0.0045
    1SOL     OW10957   3.190   0.015   3.363 -0.4434  0.0778  0.1880
    1SOL    HW210958   3.252  -0.053   3.336 -2.0918 -1.6698  0.6986
    1SOL    HW310959   3.219   0.040   3.451 -0.0606 -0.2416  0.1558
    1SOL    MW410960   3.202   0.009   3.371 -0.6104 -0.1949  0.2508
    1SOL     OW10961   1.356   2.214   3.771  0.1313 -0.4364  0.4229
    1SOL    HW210962   1.264   2.222   3.746  0.2317  2.4386  0.8931
    1SOL    HW310963   1.356   2.220   3.866  0.9018  0.4487  0.3673
    1SOL    MW410964   1.344   2.216   3.780  0.2462  0.0598  0.4773
    1SOL     OW10965   1.953   3.715   1.471 -0.0799  0.1777 -0.2640
    1SOL    HW210966   1.983   3.662   1.397  0.5743 -1.1234  0.8958
    1SOL    HW310967   1.974   3.662   1.548 -0.3506  1.6947  0.8813
    1SOL    MW410968   1.960   3.701   1.472 -0.0293  0.2060  0.0399
    1SOL     OW10969   3.039   4.345   1.493 -0.8677 -0.9003  0.3026
    1SOL    HW210970   3.123   4.371   1.532 -0.5080 -0.3810 -0.8116
    1SOL    HW310971   2.975   4.365   1.562 -0.4021  1.3569  0.1376
    1SOL    MW410972   3.042   4.351   1.508 -0.7586 -0.5341  0.1339
    1SOL     OW10973   3.951   4.007   1.214  0.0559 -0.6784 -0.2151
    1SOL    HW210974   3.915   4.081   1.264  1.5975 -0.4767  0.6274
    1SOL    HW310975   3.952   4.038   1.123 -1.9425 -0.7223 -0.2694
    1SOL    MW410976   3.947   4.021   1.208 -0.0043 -0.6576 -0.1110
    1SOL     OW10977   1.168   0.660   3.782 -0.4398 -0.1895 -0.0334
    1SOL    HW210978   1.097   0.605   3.750  1.7648 -2.9499 -0.4200
    1SOL    HW310979   1.212   0.691   3.702 -0.7953  1.0025  0.2171
    1SOL    MW410980   1.165   0.657   3.767 -0.1959 -0.3964 -0.0513
    1SOL     OW10981   0.760   3.312   4.556 -0.3337 -0.5765 -0.0454
    1SOL    HW210982   0.851   3.328   4.530 -0.0514  1.7418  2.1609
    1SOL    HW310983   0.758   3.219   4.578  1.5238 -0.6487 -0.0442
    1SOL    MW410984   0.772   3.302   4.556 -0.0513 -0.2801  0.2460
    1SOL     OW10985   0.639   3.236   4.278 -0.1826  0.1453  0.1897
    1SOL    HW210986   0.655   3.269   4.367 -1.1412 -1.6566  1.0535
    1SOL    HW310987   0.594   3.153   4.291 -0.5755 -0.0124 -2.0077
    1SOL    MW410988   0.635   3.230   4.292 -0.3609 -0.1132  0.0134
    1SOL     OW10989   3.056   3.573   1.357 -0.3021 -0.1860 -0.3372
    1SOL    HW210990   3.055   3.643   1.292 -0.5014  0.5735  0.4863
    1SOL    HW310991   2.981   3.591   1.413  0.0677 -0.6551  0.3103
    1SOL    MW410992   3.046   3.584   1.355 -0.2799 -0.1478 -0.1431
    1SOL     OW10993   0.828   1.824   4.104  0.4318  0.4213  0.4061
    1SOL    HW210994   0.752   1.829   4.163  0.1850  0.9367  0.0494
    1SOL    HW310995   0.903   1.845   4.160 -0.0508  3.3430  0.0484
    1SOL    MW410996   0.828   1.828   4.119  0.3355  0.8748  0.3128
    1SOL     OW10997   0.895   2.149   1.316 -0.7250 -0.2957 -0.5320
    1SOL    HW210998   0.987   2.142   1.288 -0.6352  0.9447 -0.5738
    1SOL    HW310999   0.900   2.160   1.411 -0.8366 -0.3476 -0.5204
    1SOL    MW411000   0.908   2.150   1.325 -0.7280 -0.1390 -0.5361
    1SOL     OW11001   0.461   4.102   4.256  0.7694 -0.9365 -1.0105
    1SOL    HW211002   0.458   4.108   4.161  1.2510 -1.2048 -1.0408
    1SOL    HW311003   0.369   4.107   4.283  0.7724  1.3041 -1.3497
    1SOL    MW411004   0.448   4.103   4.247  0.8334 -0.6766 -1.0595
    1SOL     OW11005   1.179   4.092   3.366  0.1362 -0.0262 -0.0937
    1SOL    HW211006   1.238   4.159   3.401 -1.0323  0.9147  0.1014
    1SOL    HW311007   1.214   4.072   3.279  2.0526 -1.1168  0.9064
    1SOL    MW411008   1.191   4.098   3.359  0.2350 -0.0453  0.0641
    1SOL     OW11009   4.156   1.633   2.600 -0.2017  0.3741 -0.3034
    1SOL    HW211010   4.191   1.579   2.672 -0.8848  0.5974  0.1992
    1SOL    HW311011   4.160   1.575   2.524 -2.3875 -0.9470  0.5459
    1SOL    MW411012   4.161   1.618   2.600 -0.5803  0.2292 -0.1249
    1SOL     OW11013   4.278   3.730   3.374  0.4490 -0.4795  0.1865
    1SOL    HW211014   4.360   3.686   3.397  0.7651  0.2664  0.4915
    1SOL    HW311015   4.296   3.774   3.291  1.1886  1.8713  1.5464
    1SOL    MW411016   4.291   3.730   3.366  0.5879 -0.0708  0.4063
    1SOL     OW11017   0.741   3.909   1.331  0.2985 -0.3766 -0.6834
    1SOL    HW211018   0.819   3.950   1.369 -0.1382  1.1221 -1.3654
    1SOL    HW311019   0.677   3.909   1.402  0.4809 -0.3900 -0.5187
    1SOL    MW411020   0.743   3.914   1.346  0.2649 -0.1807 -0.7517
    1SOL     OW11021   3.450   0.908   0.863 -0.2546 -0.0513 -0.4890
    1SOL    HW211022   3.406   0.823   0.861  0.8525 -0.6444  0.0549
    1SOL    HW311023   3.378   0.972   0.858 -1.2774 -0.9868  1.5655
    1SOL    MW411024   3.434   0.905   0.862 -0.2434 -0.2530 -0.1462
    1SOL     OW11025   3.693   1.255   0.788 -0.2434 -0.2598  0.2556
    1SOL    HW211026   3.712   1.161   0.790  0.9116 -0.0406  0.2448
    1SOL    HW311027   3.765   1.292   0.737 -0.1404  0.7478  1.1061
    1SOL    MW411028   3.705   1.248   0.782 -0.0775 -0.0979  0.3664
    1SOL     OW11029   0.891   2.324   3.796  0.9510 -0.0670  0.2218
    1SOL    HW211030   0.816   2.265   3.789  0.4733  0.1842  2.6252
    1SOL    HW311031   0.891   2.351   3.888  2.1483  2.3842 -0.4558
    1SOL    MW411032   0.881   2.320   3.807  1.0459  0.2897  0.4497
    1SOL     OW11033   3.109   0.033   1.454 -0.1154  0.1857 -0.1997
    1SOL    HW211034   3.013   0.034   1.449 -0.0888  0.7810 -0.5947
    1SOL    HW311035   3.128   0.030   1.548 -0.5179 -0.1083 -0.1238
    1SOL    MW411036   3.099   0.032   1.466 -0.1650  0.2254 -0.2419
    1SOL     OW11037   2.367   4.012   2.798  0.0773  0.3415  0.4093
    1SOL    HW211038   2.431   3.946   2.769 -0.0583  0.8214 -1.0136
    1SOL    HW311039   2.421   4.083   2.833  0.4051  1.2934 -1.9421
    1SOL    MW411040   2.383   4.013   2.798  0.1025  0.5302 -0.0885
    1SOL     OW11041   0.044   3.980   3.513 -0.0512 -0.2071 -0.3822
    1SOL    HW211042   0.096   4.056   3.540 -0.3054 -0.6029  1.2179
    1SOL    HW311043  -0.046   4.004   3.534 -0.0312 -1.3276  0.9672
    1SOL    MW411044   0.039   3.993   3.519 -0.0821 -0.4072  0.0067
    1SOL     OW11045   1.477   0.668   3.352  0.0244 -0.5038 -0.0161
    1SOL    HW211046   1.565   0.648   3.385 -0.4523  0.0647  1.6857
    1SOL    HW311047   1.485   0.756   3.314  0.3720 -0.7781 -0.5785
    1SOL    MW411048   1.490   0.677   3.351  0.0073 -0.4650  0.1340
    1SOL     OW11049   4.312   3.247   4.105  0.0848 -0.3134 -0.0723
    1SOL    HW211050   4.398   3.206   4.107 -0.1145 -0.8072 -1.2798
    1SOL    HW311051   4.302   3.278   4.015 -1.7785 -1.9619 -0.4640
    1SOL    MW411052   4.322   3.246   4.093 -0.1874 -0.5963 -0.2828
    1SOL     OW11053   3.189   0.396   1.955  0.0402 -0.4141 -0.0348
    1SOL    HW211054   3.117   0.366   2.011 -1.1515  0.5411 -1.0322
    1SOL    HW311055   3.198   0.489   1.975 -0.2426 -0.1141 -1.2432
    1SOL    MW411056   3.181   0.404   1.965 -0.1543 -0.2485 -0.3258
    1SOL     OW11057   0.982   1.703   3.218  0.2992  0.0408 -0.6852
    1SOL    HW211058   1.059   1.669   3.263  0.8733  0.9749 -0.9477
    1SOL    HW311059   0.955   1.632   3.159  2.4379  0.6025 -2.4015
    1SOL    MW411060   0.988   1.689   3.216  0.6571  0.2381 -0.9465
    1SOL     OW11061   1.185   1.620   3.640 -0.1229 -0.3061  0.5904
    1SOL    HW211062   1.143   1.534   3.645  0.3837 -0.6185 -0.3610
    1SOL    HW311063   1.269   1.608   3.685  0.0353 -0.3789  0.2851
    1SOL    MW411064   1.191   1.607   3.646 -0.0352 -0.3568  0.4246
    1SOL     OW11065   2.386   3.003   3.471 -0.9263 -0.2612 -0.4542
    1SOL    HW211066   2.409   3.090   3.503  0.3665 -0.5374 -0.5960
    1SOL    HW311067   2.354   2.957   3.549 -0.3555 -0.0729 -0.1006
    1SOL    MW411068   2.385   3.008   3.485 -0.6800 -0.2728 -0.4265
    1SOL     OW11069   3.032   3.552   3.557  0.5049  0.0750 -0.0708
    1SOL    HW211070   3.109   3.588   3.514  0.5836 -0.5635 -0.4802
    1SOL    HW311071   2.977   3.522   3.484  0.3631 -0.4545  0.2545
    1SOL    MW411072   3.035   3.552   3.542  0.4966 -0.0789 -0.0818
    1SOL     OW11073   3.353   1.858   1.372 -0.1666  0.3860  0.5912
    1SOL    HW211074   3.423   1.837   1.434  1.4006  2.0161 -0.5836
    1SOL    HW311075   3.337   1.951   1.385 -0.3611  0.5740 -0.9113
    1SOL    MW411076   3.360   1.868   1.382  0.0145  0.6257  0.2378
    1SOL     OW11077   1.871   1.521   4.203  0.3451  0.0233  0.0117
    1SOL    HW211078   1.899   1.430   4.212 -2.3473 -0.7468  0.9516
    1SOL    HW311079   1.811   1.520   4.129 -0.0938  0.9483  0.3539
    1SOL    MW411080   1.867   1.509   4.194 -0.0681  0.0437  0.1807
    1SOL     OW11081   4.215   3.126   4.844 -0.4124 -0.0927  0.5459
    1SOL    HW211082   4.246   3.060   4.783  1.4240 -0.8633  2.2336
    1SOL    HW311083   4.257   3.207   4.815  1.3965 -0.6855  1.4515
    1SOL    MW411084   4.225   3.128   4.832  0.0682 -0.2725  0.8879
    1SOL     OW11085   4.176   2.609   4.632  0.1967  0.1774 -0.5156
    1SOL    HW211086   4.088   2.600   4.594 -0.4870  0.2928  0.9799
    1SOL    HW311087   4.225   2.536   4.596 -1.7768 -2.4861  1.9832
    1SOL    MW411088   4.171   2.598   4.622 -0.1540 -0.1588  0.0119
    1SOL     OW11089   0.221   0.842   3.984 -0.3542  0.4407  0.0845
    1SOL    HW211090   0.258   0.756   4.001 -0.5044  0.3634  0.0253
    1SOL    HW311091   0.138   0.824   3.939 -0.1540  0.6279 -0.3655
    1SOL    MW411092   0.215   0.828   3.980 -0.3476  0.4552  0.0174
    1SOL     OW11093   1.004   3.180   3.402  0.3980  0.2538 -0.0281
    1SOL    HW211094   1.021   3.174   3.308  0.5303  0.7573 -0.0416
    1SOL    HW311095   0.924   3.233   3.408  0.1280 -0.1713  0.1241
    1SOL    MW411096   0.996   3.186   3.390  0.3798  0.2642 -0.0098
    1SOL     OW11097   0.650   3.473   1.582  0.4523  0.0665 -0.3867
    1SOL    HW211098   0.727   3.522   1.614  0.0452 -0.1724  1.0244
    1SOL    HW311099   0.646   3.396   1.639 -1.3969  0.5771  0.2075
    1SOL    MW411100   0.660   3.470   1.594  0.1547  0.1023 -0.1222
    1SOL     OW11101   3.149   3.169   1.484 -0.2094 -0.4144  0.3653
    1SOL    HW211102   3.180   3.091   1.437 -1.1506  0.0488 -1.0921
    1SOL    HW311103   3.107   3.222   1.416 -2.9175 -0.3905  1.9713
    1SOL    MW411104   3.147   3.166   1.469 -0.6909 -0.3502  0.3849
    1SOL     OW11105   4.008   4.323   1.369 -0.1432 -0.2028  0.8786
    1SOL    HW211106   4.099   4.317   1.339 -0.2667 -0.7449  0.6043
    1SOL    HW311107   3.968   4.388   1.311 -0.3680 -1.2109 -0.1208
    1SOL    MW411108   4.015   4.331   1.357 -0.1888 -0.4072  0.7105
    1SOL     OW11109   3.087   1.856   4.682 -0.4441 -0.6489 -0.3202
    1SOL    HW211110   3.065   1.875   4.773  3.7180 -0.6060  0.7694
    1SOL    HW311111   3.154   1.787   4.687 -0.4544 -0.9540 -3.3746
    1SOL    MW411112   3.093   1.849   4.694  0.1037 -0.6835 -0.5794
    1SOL     OW11113   3.299   1.803   4.106  0.1239 -0.0184 -0.3861
    1SOL    HW211114   3.339   1.718   4.087 -0.9238 -0.6588  0.2088
    1SOL    HW311115   3.289   1.804   4.201 -0.1615  0.6326 -0.4230
    1SOL    MW411116   3.303   1.792   4.116 -0.0520 -0.0170 -0.3123
    1SOL     OW11117   2.032   1.419   3.389 -0.3355 -0.0965  0.1767
    1SOL    HW211118   1.994   1.331   3.380 -1.3366  0.5207 -1.9118
    1SOL    HW311119   2.111   1.406   3.441 -0.6098 -2.1996  0.1074
    1SOL    MW411120   2.037   1.406   3.395 -0.5038 -0.2925 -0.1080
    1SOL     OW11121   3.457   1.856   2.666  0.2414  0.0946 -0.5855
    1SOL    HW211122   3.460   1.898   2.751 -0.6892 -1.9841  0.5070
    1SOL    HW311123   3.548   1.855   2.636  0.7531 -0.2524  0.9289
    1SOL    MW411124   3.469   1.861   2.673  0.1860 -0.2253 -0.2418
    1SOL     OW11125   0.673   3.166   2.214 -0.1345  0.0733  0.2854
    1SOL    HW211126   0.757   3.189   2.174  0.5529 -0.3243  1.4581
    1SOL    HW311127   0.608   3.209   2.160  0.7598 -0.5531 -1.3241
    1SOL    MW411128   0.676   3.174   2.202  0.0743 -0.0618  0.2277
    1SOL     OW11129   0.546   1.628   3.576  0.1560  0.0004 -0.4130
    1SOL    HW211130   0.560   1.721   3.591  1.4370 -0.3851  0.9927
    1SOL    HW311131   0.467   1.607   3.626  0.6748  0.0682  0.4587
    1SOL    MW411132   0.537   1.637   3.585  0.3935 -0.0416 -0.1125
    1SOL     OW11133   0.570   0.880   2.203  0.2303  0.3518  0.0507
    1SOL    HW211134   0.495   0.845   2.251 -0.6847 -0.1015 -1.6731
    1SOL    HW311135   0.641   0.880   2.267 -1.0400  0.0595  1.4920
    1SOL    MW411136   0.570   0.875   2.217 -0.0581  0.2535  0.0136
    1SOL     OW11137   2.217   0.950   3.855 -0.0364 -0.3192 -0.8598
    1SOL    HW211138   2.139   1.003   3.867  0.1981  0.0098 -0.7677
    1SOL    HW311139   2.262   0.990   3.780  0.2454 -0.2647 -0.6611
    1SOL    MW411140   2.213   0.962   3.847  0.0317 -0.2686 -0.8214
    1SOL     OW11141   1.762   0.148   2.781  0.5014 -0.2324 -0.0488
    1SOL    HW211142   1.831   0.166   2.844  0.9365 -0.8986 -0.3282
    1SOL    HW311143   1.801   0.167   2.695 -0.4896  1.9181 -0.0628
    1SOL    MW411144   1.776   0.153   2.778  0.4280 -0.0366 -0.0875
    1SOL     OW11145   0.031   0.699   2.575  0.2050  0.6482  0.1987
    1SOL    HW211146  -0.003   0.677   2.662  4.2954 -0.9395  1.5599
    1SOL    HW311147   0.015   0.620   2.523  1.5592 -0.0780  0.8243
    1SOL    MW411148   0.025   0.685   2.580  0.9236  0.3430  0.4609
    1SOL     OW11149   4.383   3.577   0.729 -0.2903  0.0638 -0.5870
    1SOL    HW211150   4.291   3.603   0.731 -0.4802 -0.6732  0.7983
    1SOL    HW311151   4.404   3.552   0.819  0.6254 -1.9740 -1.3182
    1SOL    MW411152   4.374   3.577   0.741 -0.1941 -0.3021 -0.5007
    1SOL     OW11153   3.899   3.280   4.518  0.3750 -0.6215 -0.1862
    1SOL    HW211154   3.825   3.289   4.457  0.6288  3.1881 -0.0452
    1SOL    HW311155   3.866   3.316   4.600  1.9784 -0.0526  0.2131
    1SOL    MW411156   3.885   3.286   4.521  0.6204 -0.0439 -0.1144
    1SOL     OW11157   4.022   0.976   1.584 -0.0533 -0.2211  0.5777
    1SOL    HW211158   3.938   0.946   1.619  0.1396 -1.1056  0.2884
    1SOL    HW311159   4.024   0.941   1.495 -0.5123  1.9458 -0.3325
    1SOL    MW411160   4.011   0.967   1.577 -0.0887 -0.0519  0.4194
    1SOL     OW11161   3.974   2.287   1.887  0.5175  0.1001  0.4731
    1SOL    HW211162   3.967   2.307   1.980 -2.3532  1.6584 -0.0125
    1SOL    HW311163   3.898   2.329   1.848  0.6854 -2.0696 -2.3446
    1SOL    MW411164   3.963   2.295   1.894  0.1609  0.0193  0.0372
    1SOL     OW11165   4.322   3.246   3.087 -0.4015  0.3764  0.3955
    1SOL    HW211166   4.320   3.256   3.183 -0.3010  0.6561  0.3657
    1SOL    HW311167   4.229   3.245   3.062 -0.4285  0.3002  0.4950
    1SOL    MW411168   4.309   3.247   3.097 -0.3915  0.4034  0.4046
    1SOL     OW11169   1.142   3.742   4.112 -0.1945 -0.5099 -0.7537
    1SOL    HW211170   1.142   3.801   4.036 -1.3414 -0.8078 -0.9976
    1SOL    HW311171   1.078   3.780   4.171  0.7929 -0.2103  0.1357
    1SOL    MW411172   1.134   3.755   4.110 -0.2154 -0.5097 -0.6690
    1SOL     OW11173   2.229   0.259   4.140 -0.1864  0.3006 -0.4318
    1SOL    HW211174   2.291   0.187   4.150 -1.6016 -0.7697  0.7639
    1SOL    HW311175   2.230   0.304   4.225 -0.6921  0.5777 -0.5683
    1SOL    MW411176   2.238   0.256   4.153 -0.4399  0.1960 -0.2928
    1SOL     OW11177   2.614   3.440   1.920  0.5676 -0.3214  0.4999
    1SOL    HW211178   2.677   3.407   1.985  0.6299 -1.6703 -0.2160
    1SOL    HW311179   2.532   3.448   1.969  1.1533  0.9136  1.3030
    1SOL    MW411180   2.611   3.436   1.935  0.6530 -0.3369  0.5114
    1SOL     OW11181   3.655   3.838   0.892  0.2072  0.6204 -0.1944
    1SOL    HW211182   3.676   3.826   0.984 -0.1018  0.0863 -0.1946
    1SOL    HW311183   3.610   3.757   0.866 -0.6597  1.2086 -0.5408
    1SOL    MW411184   3.652   3.826   0.901  0.0520  0.6275 -0.2401
    1SOL     OW11185   1.275   2.787   4.113 -0.4233 -0.2979  0.8968
    1SOL    HW211186   1.195   2.774   4.163 -1.3582  0.8834 -0.2758
    1SOL    HW311187   1.258   2.863   4.057  0.2851 -2.0735 -1.8577
    1SOL    MW411188   1.262   2.795   4.112 -0.4532 -0.3762  0.3791
    1SOL     OW11189   3.340   2.224   2.802 -0.3535 -0.1576  0.1726
    1SOL    HW211190   3.340   2.315   2.831 -2.4690  0.1571 -0.7588
    1SOL    HW311191   3.433   2.200   2.798  0.1493  1.3357  2.2871
    1SOL    MW411192   3.352   2.233   2.805 -0.5662  0.0808  0.3285
    1SOL     OW11193   0.776   1.159   1.361  0.0170  0.2763  0.8679
    1SOL    HW211194   0.859   1.160   1.409 -0.6763  0.7717  2.0848
    1SOL    HW311195   0.782   1.083   1.304  1.4385  0.4907  0.7204
    1SOL    MW411196   0.787   1.149   1.360  0.1131  0.3700  1.0091
    1SOL     OW11197   0.157   3.292   2.272 -0.2417  0.0146 -0.2852
    1SOL    HW211198   0.139   3.325   2.360 -1.8907  1.1395 -1.0067
    1SOL    HW311199   0.220   3.221   2.285 -1.3665 -0.6258  1.9109
    1SOL    MW411200   0.163   3.287   2.285 -0.6077  0.0789 -0.0908
    1SOL     OW11201   0.326   3.232   1.859 -0.0317  0.0370 -0.2669
    1SOL    HW211202   0.267   3.294   1.816  0.3104  1.6973  1.5692
    1SOL    HW311203   0.407   3.236   1.807 -0.1226  0.8950 -0.3533
    1SOL    MW411204   0.329   3.241   1.846  0.0014  0.3693 -0.0361
    1SOL     OW11205   0.098   3.400   3.964 -0.4282 -0.6109 -0.8057
    1SOL    HW211206   0.130   3.317   4.002  0.3744  0.1546  0.2216
    1SOL    HW311207   0.106   3.463   4.035 -2.2556  0.0811 -1.1953
    1SOL    MW411208   0.103   3.397   3.978 -0.5634 -0.4187 -0.7215
    1SOL     OW11209   0.245   3.603   4.507  0.4269 -0.3862  0.2734
    1SOL    HW211210   0.158   3.584   4.541 -0.1200  0.6733 -0.5205
    1SOL    HW311211   0.305   3.558   4.567 -0.7203 -2.5226 -0.1383
    1SOL    MW411212   0.242   3.595   4.519  0.2034 -0.5286  0.1144
    1SOL     OW11213   2.492   3.000   2.808  0.3358  0.2079  0.5749
    1SOL    HW211214   2.505   3.085   2.766  0.2509  0.3705  0.8802
    1SOL    HW311215   2.398   2.997   2.828  0.6416  0.7689  2.1367
    1SOL    MW411216   2.481   3.011   2.805  0.3648  0.3035  0.8211
    1SOL     OW11217   3.100   3.330   1.255  0.0521 -0.6267 -0.4625
    1SOL    HW211218   3.020   3.288   1.225 -0.0898  1.0171 -2.4176
    1SOL    HW311219   3.071   3.411   1.298  0.5393 -1.0416  0.6950
    1SOL    MW411220   3.086   3.335   1.257  0.0975 -0.4647 -0.5678
    1SOL     OW11221   3.520   3.545   4.457  0.2999 -0.0485 -0.3532
    1SOL    HW211222   3.428   3.539   4.483 -0.0423 -0.9284 -1.7303
    1SOL    HW311223   3.563   3.478   4.511 -0.0605 -0.4446 -0.5544
    1SOL    MW411224   3.513   3.535   4.468  0.2069 -0.2170 -0.5617
    1SOL     OW11225   2.309   4.427   1.160  0.0334 -0.4151 -0.1022
    1SOL    HW211226   2.217   4.402   1.158 -0.2117  0.3894  0.8584
    1SOL    HW311227   2.310   4.519   1.132  0.3292  0.1236  1.5957
    1SOL    MW411228   2.297   4.436   1.156  0.0401 -0.2379  0.2484
    1SOL     OW11229   0.279   1.034   3.538  0.2043  0.3985  0.1696
    1SOL    HW211230   0.352   0.988   3.578 -0.4350 -1.7657 -1.0434
    1SOL    HW311231   0.266   0.990   3.454 -0.2349  3.0510 -1.1938
    1SOL    MW411232   0.287   1.022   3.532  0.0620  0.4630 -0.1702
    1SOL     OW11233   3.738   1.848   0.736 -0.0640 -0.2269  0.1848
    1SOL    HW211234   3.730   1.943   0.735 -1.1070 -0.2980  1.0822
    1SOL    HW311235   3.669   1.817   0.676  1.6224 -0.3559 -1.7657
    1SOL    MW411236   3.728   1.856   0.728  0.0207 -0.2533  0.0458
    1SOL     OW11237   1.729   2.818   3.128  0.1499 -0.2932 -0.7096
    1SOL    HW211238   1.791   2.876   3.085 -0.7202  1.4447  0.3189
    1SOL    HW311239   1.784   2.757   3.178  1.0572 -0.0755 -1.4278
    1SOL    MW411240   1.744   2.817   3.129  0.1549 -0.0353 -0.6688
    1SOL     OW11241   0.950   0.502   1.433 -0.4998  0.1791  0.3409
    1SOL    HW211242   0.916   0.554   1.506  0.0074  0.0235  0.6947
    1SOL    HW311243   1.045   0.497   1.450 -0.5415 -0.8449  0.3079
    1SOL    MW411244   0.958   0.508   1.445 -0.4384  0.0234  0.3833
    1SOL     OW11245   0.650   2.734   4.178  0.0223 -0.2249  0.0357
    1SOL    HW211246   0.682   2.693   4.098  0.1279  0.5247 -0.3080
    1SOL    HW311247   0.559   2.754   4.160 -0.0235 -0.2852  0.1974
    1SOL    MW411248   0.642   2.731   4.165  0.0301 -0.1342  0.0119
    1SOL     OW11249   3.571   1.787   1.525 -0.0031  0.0132 -0.0324
    1SOL    HW211250   3.620   1.709   1.499  0.5989  1.1301 -2.4360
    1SOL    HW311251   3.638   1.852   1.547 -0.3950  0.9518 -1.5090
    1SOL    MW411252   3.586   1.786   1.524  0.0246  0.2844 -0.5442
    1SOL     OW11253   1.713   0.396   2.327 -0.0615 -0.1232 -0.2830
    1SOL    HW211254   1.666   0.365   2.405 -0.8908  0.8578 -0.3841
    1SOL    HW311255   1.798   0.424   2.360 -0.6065  0.7961  0.3595
    1SOL    MW411256   1.718   0.395   2.342 -0.2428  0.1275 -0.2115
    1SOL     OW11257   3.379   2.325   4.598 -0.1873  0.5349 -0.7122
    1SOL    HW211258   3.388   2.416   4.570  0.6001 -0.1063 -2.6497
    1SOL    HW311259   3.361   2.277   4.517  1.2138 -1.2770  0.0190
    1SOL    MW411260   3.377   2.330   4.583  0.1016  0.2115 -0.8712
    1SOL     OW11261   0.547   1.895   3.590 -0.0056 -0.1781  0.1069
    1SOL    HW211262   0.524   1.964   3.652  1.2540  0.0236  0.3682
    1SOL    HW311263   0.587   1.942   3.517  0.0290 -0.5567 -0.1176
    1SOL    MW411264   0.549   1.911   3.589  0.1651 -0.2015  0.1118
    1SOL     OW11265   3.362   1.521   4.428  0.2013  0.0350  0.0556
    1SOL    HW211266   3.363   1.463   4.505 -0.4179  0.6609  0.5420
    1SOL    HW311267   3.374   1.462   4.354 -0.9087 -0.7882  0.5135
    1SOL    MW411268   3.364   1.505   4.428 -0.0269  0.0089  0.1798
    1SOL     OW11269   1.606   2.532   0.563  0.3852  0.3604  0.1255
    1SOL    HW211270   1.583   2.515   0.654  2.0636  0.4547  0.5860
    1SOL    HW311271   1.522   2.534   0.516 -0.4230 -0.4809  1.5267
    1SOL    MW411272   1.592   2.530   0.568  0.5001  0.2615  0.3712
    1SOL     OW11273   0.254   3.289   4.373  0.3038  0.2135  0.2943
    1SOL    HW211274   0.191   3.267   4.441 -0.4604 -0.2124 -0.5456
    1SOL    HW311275   0.338   3.291   4.418  0.0914 -2.1290  0.8383
    1SOL    MW411276   0.257   3.287   4.388  0.1750 -0.1519  0.2556
    1SOL     OW11277   0.480   0.922   1.600 -0.3756 -0.4044  0.0446
    1SOL    HW211278   0.411   0.923   1.666 -0.9231 -0.0977 -0.5280
    1SOL    HW311279   0.518   0.834   1.606 -0.0347 -0.1924  1.1547
    1SOL    MW411280   0.476   0.911   1.610 -0.4028 -0.3359  0.1156
    1SOL     OW11281   4.048   3.240   3.061  0.4809 -0.6737 -1.0931
    1SOL    HW211282   4.033   3.318   3.114  0.6688 -0.6733 -1.0377
    1SOL    HW311283   4.052   3.169   3.124 -1.1497 -0.9422 -1.2669
    1SOL    MW411284   4.047   3.241   3.076  0.2904 -0.7091 -1.1086
    1SOL     OW11285   1.278   4.185   1.735  0.1182 -0.0762  0.3284
    1SOL    HW211286   1.214   4.208   1.668 -0.5604  0.9825  1.3075
    1SOL    HW311287   1.358   4.229   1.707  0.4650 -1.5224 -0.9772
    1SOL    MW411288   1.280   4.194   1.723  0.0745 -0.1273  0.2853
    1SOL     OW11289   3.975   3.085   2.061 -0.5164 -0.1810  0.3393
    1SOL    HW211290   3.950   3.002   2.022 -1.2275  0.4932 -0.6397
    1SOL    HW311291   3.895   3.137   2.063  0.0503  0.7132  0.3657
    1SOL    MW411292   3.961   3.081   2.057 -0.5355  0.0260  0.2134
    1SOL     OW11293   1.132   3.016   3.685 -0.1593  0.0753 -0.0126
    1SOL    HW211294   1.174   3.014   3.599  1.2404  0.2105  0.6484
    1SOL    HW311295   1.047   2.975   3.671  0.8075 -1.6427 -1.0786
    1SOL    MW411296   1.127   3.010   3.672  0.1529 -0.1338 -0.0660
    1SOL     OW11297   2.064   1.025   3.496  0.1772  0.0099 -0.1200
    1SOL    HW211298   2.005   1.082   3.446  1.5454  0.2077 -1.5446
    1SOL    HW311299   2.019   0.941   3.498  0.5236 -0.2626 -2.5373
    1SOL    MW411300   2.050   1.022   3.490  0.4034  0.0001 -0.6266
    1SOL     OW11301   0.534   3.905   3.863  0.4144 -0.0744  0.0991
    1SOL    HW211302   0.617   3.902   3.815 -0.2987  1.7199 -1.3175
    1SOL    HW311303   0.522   3.817   3.896  1.6195 -1.0219 -1.8958
    1SOL    MW411304   0.543   3.893   3.861  0.4793  0.0374 -0.3507
    1SOL     OW11305   0.897   2.966   0.921 -0.3398 -0.3273 -0.3514
    1SOL    HW211306   0.857   2.887   0.885 -2.2367  0.4269  0.0226
    1SOL    HW311307   0.906   3.025   0.845 -2.3817  0.4669 -0.0173
    1SOL    MW411308   0.893   2.964   0.906 -0.8594 -0.1230 -0.2579
    1SOL     OW11309   2.005   1.486   2.926 -0.0742  0.3410  0.1006
    1SOL    HW211310   2.073   1.524   2.871  0.3908 -0.5365  0.0560
    1SOL    HW311311   2.025   1.516   3.014  0.0809  0.4942  0.0121
    1SOL    MW411312   2.016   1.495   2.930  0.0074  0.2453  0.0830
    1SOL     OW11313   0.379   0.137   2.557 -0.3485 -0.3049 -0.2641
    1SOL    HW211314   0.363   0.050   2.519  0.8114  0.1665 -1.8753
    1SOL    HW311315   0.469   0.134   2.587 -0.5655  0.0775  0.4284
    1SOL    MW411316   0.389   0.125   2.556 -0.2241 -0.1923 -0.3850
    1SOL     OW11317   2.314   2.035   2.399 -0.4671  0.8450 -0.0256
    1SOL    HW211318   2.253   1.981   2.350 -0.6739 -0.1799  1.3243
    1SOL    HW311319   2.385   2.054   2.338 -1.3608  0.7059 -1.1099
    1SOL    MW411320   2.315   2.031   2.385 -0.6123  0.6914  0.0095
    1SOL     OW11321   0.467   1.013   4.198  0.0474 -0.4064 -0.2976
    1SOL    HW211322   0.512   0.946   4.146 -0.9334 -0.4676 -1.0864
    1SOL    HW311323   0.420   1.067   4.133 -1.7849 -0.9193  0.5613
    1SOL    MW411324   0.467   1.012   4.183 -0.3237 -0.4821 -0.2885
    1SOL     OW11325   3.456   3.213   4.247  0.0417  0.4938 -0.5919
    1SOL    HW211326   3.535   3.258   4.274 -0.2577  0.3176  0.5923
    1SOL    HW311327   3.481   3.165   4.169  1.1198  0.3688 -0.1665
    1SOL    MW411328   3.470   3.213   4.240  0.1445  0.4542 -0.3791
    1SOL     OW11329   2.464   1.000   1.480 -0.4501 -0.4714  0.2426
    1SOL    HW211330   2.476   1.014   1.574 -1.7002 -1.6334  0.5923
    1SOL    HW311331   2.444   0.907   1.472 -0.8377 -0.2774 -1.1347
    1SOL    MW411332   2.463   0.989   1.491 -0.6661 -0.5992  0.1069
    1SOL     OW11333   1.741   2.464   2.944 -0.5069 -0.5238 -0.4916
    1SOL    HW211334   1.795   2.514   2.883 -1.2552  1.3935  0.3638
    1SOL    HW311335   1.800   2.444   3.017 -0.4344 -0.0857 -0.4250
    1SOL    MW411336   1.756   2.468   2.945 -0.5960 -0.2131 -0.3703
    1SOL     OW11337   0.791   0.625   4.636 -0.2504 -0.2114  0.2621
    1SOL    HW211338   0.779   0.715   4.606  1.4114  0.0179  0.2225
    1SOL    HW311339   0.773   0.628   4.730  1.1311  0.4463  0.5124
    1SOL    MW411340   0.787   0.638   4.645  0.1511 -0.0944  0.2894
    1SOL     OW11341   3.970   1.037   2.195 -0.4869  0.7532 -0.3578
    1SOL    HW211342   3.976   0.987   2.276 -2.5252  0.3772 -0.4042
    1SOL    HW311343   3.923   0.979   2.134 -0.6696  1.7558 -1.1987
    1SOL    MW411344   3.965   1.023   2.197 -0.7801  0.8357 -0.4749
    1SOL     OW11345   1.604   1.786   3.717 -0.2037 -0.0093  0.1211
    1SOL    HW211346   1.588   1.863   3.772 -1.0390  0.1974 -0.3846
    1SOL    HW311347   1.638   1.823   3.635  1.1686 -0.3243  0.5469
    1SOL    MW411348   1.606   1.801   3.713 -0.1327 -0.0234  0.1101
    1SOL     OW11349   3.906   2.900   2.257  0.1247 -0.4610  0.3851
    1SOL    HW211350   3.923   2.977   2.203 -1.2134  0.2944  1.0144
    1SOL    HW311351   3.993   2.871   2.285  0.5614  1.9628  1.6889
    1SOL    MW411352   3.920   2.906   2.254  0.0060 -0.0412  0.6404
    1SOL     OW11353   4.286   4.509   0.813 -0.0751  0.1550 -0.2987
    1SOL    HW211354   4.344   4.433   0.819  0.5869  0.6558 -0.2827
    1SOL    HW311355   4.276   4.524   0.719  2.4800  2.0603 -0.3091
    1SOL    MW411356   4.292   4.501   0.801  0.3495  0.4716 -0.2980
    1SOL     OW11357   1.384   2.680   4.708  0.2563  0.2172  0.0290
    1SOL    HW211358   1.390   2.711   4.798 -0.6689 -0.2606  0.2609
    1SOL    HW311359   1.459   2.621   4.699 -0.9356 -1.5503  1.2283
    1SOL    MW411360   1.395   2.676   4.719 -0.0231 -0.0787  0.2179
    1SOL     OW11361   2.349   1.222   1.346  0.4340  0.0664  0.7565
    1SOL    HW211362   2.409   1.295   1.366  0.9021 -0.3499  0.8801
    1SOL    HW311363   2.389   1.146   1.387  0.2442 -0.3726  0.1404
    1SOL    MW411364   2.362   1.222   1.354  0.4706 -0.0464  0.6915
    1SOL     OW11365   3.451   3.475   0.581  0.3357  0.1512 -0.1355
    1SOL    HW211366   3.509   3.420   0.529 -0.2067  0.2488 -0.8561
    1SOL    HW311367   3.371   3.422   0.591  0.2427  0.3435  0.1566
    1SOL    MW411368   3.448   3.461   0.576  0.2518  0.1895 -0.1920
    1SOL     OW11369   4.473   3.044   2.238  0.3782  0.1291 -0.1837
    1SOL    HW211370   4.384   3.048   2.203 -0.0768  0.9292  1.0172
    1SOL    HW311371   4.505   3.134   2.233  1.2154 -0.2019 -0.8363
    1SOL    MW411372   4.465   3.056   2.233  0.4282  0.1910 -0.1116
    1SOL     OW11373   1.981   1.370   2.011  0.0099 -0.2664  0.4023
    1SOL    HW211374   2.023   1.333   2.088  0.5810  0.2812  0.3589
    1SOL    HW311375   1.979   1.298   1.948 -0.1262 -0.6088  0.7952
    1SOL    MW411376   1.986   1.355   2.013  0.0675 -0.2394  0.4485
    1SOL     OW11377   1.877   2.672   2.784  0.1456  0.0779 -0.3010
    1SOL    HW211378   1.972   2.664   2.771  0.1504  0.1751 -0.3255
    1SOL    HW311379   1.867   2.742   2.848  0.0208  1.2941 -1.6121
    1SOL    MW411380   1.888   2.680   2.791  0.1297  0.2511 -0.4773
    1SOL     OW11381   1.238   1.815   1.799  0.1629 -0.5317 -0.1588
    1SOL    HW211382   1.270   1.799   1.711  1.9880  4.3454 -0.5299
    1SOL    HW311383   1.149   1.846   1.788  0.4478  0.2339 -0.2908
    1SOL    MW411384   1.230   1.817   1.786  0.4413  0.2129 -0.2253
    1SOL     OW11385   3.786   3.453   0.786  0.7604  0.2988  0.3409
    1SOL    HW211386   3.695   3.481   0.800 -0.0783 -2.6073  1.2071
    1SOL    HW311387   3.808   3.485   0.698 -1.5280  0.0845 -0.3484
    1SOL    MW411388   3.777   3.461   0.776  0.3479 -0.1128  0.3642
    1SOL     OW11389   2.810   3.001   2.990  0.3595 -0.4016 -0.2359
    1SOL    HW211390   2.724   3.006   3.032  0.9383  0.1480  0.9088
    1SOL    HW311391   2.873   3.019   3.061  1.3744  0.1601 -1.2540
    1SOL    MW411392   2.807   3.004   3.005  0.5696 -0.2551 -0.2191
    1SOL     OW11393   3.228   1.432   3.911 -0.4950  0.6318  0.2586
    1SOL    HW211394   3.142   1.474   3.907 -1.1725 -0.7226  0.4574
    1SOL    HW311395   3.278   1.474   3.841 -1.0040  2.0901  0.7515
    1SOL    MW411396   3.223   1.444   3.901 -0.6514  0.6455  0.3498
    1SOL     OW11397   4.397   4.172   4.120 -0.7636  0.4015 -0.5700
    1SOL    HW211398   4.426   4.261   4.102  2.8485 -0.5654  0.0238
    1SOL    HW311399   4.379   4.170   4.214  2.3748 -0.2961  0.0493
    1SOL    MW411400   4.398   4.183   4.130  0.1268  0.1817 -0.4106
    1SOL     OW11401   0.343   1.121   0.662 -0.1035  0.1939 -0.8274
    1SOL    HW211402   0.377   1.033   0.644 -0.3640 -0.3891  1.3404
    1SOL    HW311403   0.410   1.180   0.629  0.6244 -0.8384 -1.2365
    1SOL    MW411404   0.356   1.117   0.655 -0.0418 -0.0192 -0.5955
    1SOL     OW11405   0.237   4.011   2.253  0.3158 -0.4280 -0.2417
    1SOL    HW211406   0.231   3.916   2.245  2.4418 -0.5075 -1.0829
    1SOL    HW311407   0.172   4.044   2.190  2.6153 -1.3061 -3.2013
    1SOL    MW411408   0.227   4.003   2.243  0.8997 -0.5546 -0.7434
    1SOL     OW11409   1.495   2.383   4.431 -0.3081  0.2165 -0.3607
    1SOL    HW211410   1.580   2.364   4.391 -0.7354 -1.0788 -0.6902
    1SOL    HW311411   1.453   2.443   4.371 -0.0556  0.0081 -0.7488
    1SOL    MW411412   1.501   2.388   4.418 -0.3313  0.0179 -0.4554
    1SOL     OW11413   3.303   3.478   3.788 -0.5550  0.2111 -0.0592
    1SOL    HW211414   3.213   3.450   3.804 -0.5616  0.6620  0.6582
    1SOL    HW311415   3.323   3.442   3.701 -0.8998 -1.1963  0.4316
    1SOL    MW411416   3.294   3.469   3.778 -0.6013  0.0849  0.1001
    1SOL     OW11417   1.729   1.077   2.387  0.2722 -0.4056  0.6899
    1SOL    HW211418   1.802   1.025   2.352  1.0630  0.9864  0.2209
    1SOL    HW311419   1.661   1.012   2.407  0.9677 -1.5517 -0.5247
    1SOL    MW411420   1.730   1.061   2.385  0.4683 -0.3731  0.4680
    1SOL     OW11421   0.189   3.738   1.218  0.4092 -0.0344 -0.6462
    1SOL    HW211422   0.246   3.757   1.143 -0.3818  0.6760 -1.0718
    1SOL    HW311423   0.213   3.804   1.283  0.3290  0.0302 -0.6827
    1SOL    MW411424   0.200   3.749   1.216  0.2943  0.0677 -0.7070
    1SOL     OW11425   0.804   0.809   1.879 -0.1108  0.0551 -0.1986
    1SOL    HW211426   0.846   0.764   1.806  0.6227  2.6539 -1.4204
    1SOL    HW311427   0.876   0.830   1.939 -0.3531  0.1654  0.0548
    1SOL    MW411428   0.819   0.806   1.878 -0.0460  0.4125 -0.3263
    1SOL     OW11429   0.852   2.090   3.156  0.2070 -1.0409 -0.0831
    1SOL    HW211430   0.846   2.159   3.090 -1.3153  0.1265  1.2369
    1SOL    HW311431   0.940   2.099   3.192 -0.0750  0.4150  0.2719
    1SOL    MW411432   0.863   2.100   3.152 -0.0311 -0.6948  0.1380
    1SOL     OW11433   0.336   2.878   2.684  0.4254  0.0793 -0.0537
    1SOL    HW211434   0.382   2.855   2.765  2.2272 -2.4697 -1.6940
    1SOL    HW311435   0.245   2.855   2.702  0.9167 -1.1607  1.0417
    1SOL    MW411436   0.330   2.872   2.697  0.7279 -0.4206 -0.1254
    1SOL     OW11437   2.285   0.591   2.801 -0.5230  0.4662  0.1706
    1SOL    HW211438   2.331   0.632   2.727 -0.8051  0.5504  0.0433
    1SOL    HW311439   2.356   0.561   2.859 -0.3040  0.5302 -0.0620
    1SOL    MW411440   2.301   0.592   2.799 -0.5312  0.4857  0.1230
    1SOL     OW11441   3.199   0.969   1.406  0.3044  0.6379 -0.7524
    1SOL    HW211442   3.224   0.970   1.314  0.5351  0.9219 -0.6884
    1SOL    HW311443   3.249   1.040   1.445  1.2703 -0.3500 -0.1341
    1SOL    MW411444   3.209   0.978   1.399  0.4623  0.5451 -0.6623
    1SOL     OW11445   2.577   0.139   2.644  0.1868  0.1602  0.1820
    1SOL    HW211446   2.518   0.092   2.584  0.6774 -0.4239  0.1471
    1SOL    HW311447   2.597   0.075   2.712  1.1806  0.1858 -0.0757
    1SOL    MW411448   2.572   0.124   2.645  0.3829  0.0865  0.1435
    1SOL     OW11449   0.073   1.428   0.597  0.3640 -0.4122 -0.2201
    1SOL    HW211450   0.117   1.368   0.656 -0.3275  1.3796  2.1827
    1SOL    HW311451   0.134   1.439   0.524  0.6058 -3.7772 -0.6192
    1SOL    MW411452   0.087   1.421   0.595  0.3047 -0.6198  0.0442
    1SOL     OW11453   2.858   3.243   1.160  0.1337  0.5695  0.1697
    1SOL    HW211454   2.820   3.328   1.138  1.3295  1.0001 -0.3193
    1SOL    HW311455   2.873   3.202   1.075  1.9805  0.9724  0.2796
    1SOL    MW411456   2.855   3.249   1.145  0.5350  0.6793  0.1197
    1SOL     OW11457   2.932   1.733   4.479  0.1810 -0.0242 -0.1093
    1SOL    HW211458   2.969   1.780   4.553  0.1255  0.3003 -0.2844
    1SOL    HW311459   3.003   1.675   4.449  0.2158 -0.1240  0.1689
    1SOL    MW411460   2.946   1.731   4.485  0.1786  0.0055 -0.0958
    1SOL     OW11461   1.703   0.975   3.408  0.0546  0.5287 -0.3859
    1SOL    HW211462   1.623   1.016   3.375 -0.2289  0.0522 -0.3033
    1SOL    HW311463   1.734   0.921   3.335  0.4341  0.9015 -0.5012
    1SOL    MW411464   1.696   0.973   3.394  0.0672  0.5149 -0.3903
    1SOL     OW11465   1.211   0.374   2.137  0.0985 -0.4218 -0.0088
    1SOL    HW211466   1.172   0.461   2.144 -1.7385 -1.4459  3.0010
    1SOL    HW311467   1.272   0.369   2.211  0.1448 -1.7361 -0.1287
    1SOL    MW411468   1.214   0.385   2.147 -0.1378 -0.7303  0.3726
    1SOL     OW11469   4.015   1.893   0.620  0.0061  0.3276  0.6913
    1SOL    HW211470   3.925   1.880   0.651 -0.5753  1.5124 -0.4662
    1SOL    HW311471   4.005   1.913   0.527  1.4216  1.1797  0.7169
    1SOL    MW411472   4.002   1.894   0.612  0.1163  0.5964  0.5419
    1SOL     OW11473   2.120   2.428   4.645 -0.4807 -0.5421 -0.2814
    1SOL    HW211474   2.212   2.411   4.665 -0.3956 -0.5797 -0.7036
    1SOL    HW311475   2.098   2.365   4.576 -1.2207 -1.4964  0.8145
    1SOL    MW411476   2.129   2.418   4.638 -0.5670 -0.6731 -0.1926
    1SOL     OW11477   4.276   1.941   3.105 -0.4955 -0.1063 -0.6168
    1SOL    HW211478   4.340   2.013   3.103  0.8216 -1.2869 -2.7951
    1SOL    HW311479   4.253   1.927   3.014 -1.9666 -1.3921 -0.0665
    1SOL    MW411480   4.282   1.949   3.093 -0.5155 -0.4317 -0.8316
    1SOL     OW11481   2.574   4.603   2.834  0.1479 -0.2070  0.2657
    1SOL    HW211482   2.544   4.538   2.771 -2.0536  0.7028  0.3395
    1SOL    HW311483   2.494   4.641   2.870  1.3872  1.6192  1.1903
    1SOL    MW411484   2.560   4.599   2.831  0.0210  0.1540  0.3977
    1SOL     OW11485   1.122   1.806   0.521  0.5267  0.3244 -0.2375
    1SOL    HW211486   1.028   1.794   0.526  0.6117 -0.2163  0.0124
    1SOL    HW311487   1.147   1.768   0.436  0.5236  0.4670 -0.3035
    1SOL    MW411488   1.113   1.800   0.510  0.5375  0.2718 -0.2132
    1SOL     OW11489   3.478   4.163   2.437  0.5627  0.4967 -0.1187
    1SOL    HW211490   3.465   4.251   2.402  1.6362  0.9116  0.4715
    1SOL    HW311491   3.418   4.158   2.511 -0.0950  0.4355 -0.6595
    1SOL    MW411492   3.469   4.174   2.442  0.6177  0.5436 -0.1121
    1SOL     OW11493   1.081   4.666   2.798  0.1076 -0.6125  0.0925
    1SOL    HW211494   1.080   4.646   2.705 -0.2005 -2.0219  0.3859
    1SOL    HW311495   1.013   4.609   2.836 -1.1441  1.3765  0.8899
    1SOL    MW411496   1.072   4.656   2.791 -0.0982 -0.5362  0.2363
    1SOL     OW11497   1.311   4.631   2.946  0.2851  0.6969  0.0749
    1SOL    HW211498   1.378   4.587   2.893 -1.1183 -0.9730 -0.3477
    1SOL    HW311499   1.238   4.644   2.887 -0.7644  0.0904  1.2069
    1SOL    MW411500   1.310   4.627   2.931 -0.0385  0.3963  0.1688
    1SOL     OW11501   3.382   4.476   3.334 -0.2170  0.3126 -0.1902
    1SOL    HW211502   3.470   4.494   3.299  0.5215 -1.1903  0.8515
    1SOL    HW311503   3.391   4.392   3.379 -1.9353  0.6949  0.8939
    1SOL    MW411504   3.395   4.467   3.335 -0.3464  0.1655  0.0904
    1SOL     OW11505   1.661   1.258   0.939 -0.0331  0.0945 -0.1690
    1SOL    HW211506   1.673   1.172   0.979  0.7740  0.0982 -0.3879
    1SOL    HW311507   1.585   1.247   0.881  0.3771 -0.6127 -0.5801
    1SOL    MW411508   1.652   1.245   0.937  0.1276  0.0018 -0.2521
    1SOL     OW11509   1.055   0.990   1.776  0.2901 -0.2962 -0.0557
    1SOL    HW211510   1.130   1.045   1.799  0.5259 -0.1096 -1.2323
    1SOL    HW311511   0.981   1.030   1.823  0.0011  2.4902 -2.7404
    1SOL    MW411512   1.055   1.003   1.785  0.2832  0.0960 -0.5653
    1SOL     OW11513   0.821   1.591   2.852 -0.3188 -0.1904  0.4394
    1SOL    HW211514   0.788   1.681   2.843 -1.3751 -0.5734  0.4428
    1SOL    HW311515   0.807   1.552   2.766  0.5402 -0.2254  0.3136
    1SOL    MW411516   0.815   1.598   2.840 -0.3448 -0.2456  0.4232
    1SOL     OW11517   1.357   4.567   4.426 -0.1291 -0.3937 -0.4583
    1SOL    HW211518   1.333   4.601   4.339  0.8722 -0.3924 -0.7528
    1SOL    HW311519   1.413   4.492   4.407 -1.1294 -1.3147  0.2018
    1SOL    MW411520   1.362   4.562   4.412 -0.1290 -0.5145 -0.4096
    1SOL     OW11521   1.448   2.827   3.724 -0.5523  0.1438  0.4026
    1SOL    HW211522   1.504   2.772   3.778 -1.6806 -0.8604  0.5814
    1SOL    HW311523   1.363   2.783   3.725 -0.6728  0.2430 -1.9840
    1SOL    MW411524   1.444   2.814   3.731 -0.7170  0.0243  0.1113
    1SOL     OW11525   2.284   2.687   2.165 -0.1744  0.3279  0.0722
    1SOL    HW211526   2.240   2.631   2.229 -0.1375 -0.2862 -0.4401
    1SOL    HW311527   2.224   2.760   2.151 -1.9142 -1.4515 -2.0693
    1SOL    MW411528   2.270   2.689   2.172 -0.3991  0.0122 -0.2780
    1SOL     OW11529   4.144   2.915   0.888 -0.4107  0.7724 -0.8047
    1SOL    HW211530   4.158   2.956   0.803  0.7132 -0.9882 -1.5061
    1SOL    HW311531   4.231   2.905   0.925 -0.6751 -0.6174 -0.5049
    1SOL    MW411532   4.157   2.919   0.882 -0.2966  0.3564 -0.8577
    1SOL     OW11533   0.700   3.785   1.796 -0.1268  0.1786 -0.0256
    1SOL    HW211534   0.701   3.870   1.841 -1.0725 -0.3864  1.0882
    1SOL    HW311535   0.685   3.721   1.866 -0.8387 -0.7770 -1.0404
    1SOL    MW411536   0.698   3.788   1.811 -0.3455 -0.0219 -0.0126
    1SOL     OW11537   3.499   4.629   3.749 -0.3204 -0.1025 -0.2630
    1SOL    HW211538   3.591   4.606   3.738 -0.2631  0.0629 -0.1326
    1SOL    HW311539   3.455   4.545   3.764 -0.2178 -0.2001 -0.5012
    1SOL    MW411540   3.505   4.615   3.750 -0.2992 -0.0935 -0.2773
    1SOL     OW11541   4.386   2.477   3.696 -0.4553 -0.2103 -0.1130
    1SOL    HW211542   4.395   2.439   3.608 -1.0578 -1.1066  0.2042
    1SOL    HW311543   4.361   2.403   3.752  1.5704  0.0264  1.1321
    1SOL    MW411544   4.384   2.462   3.692 -0.2675 -0.2971  0.0930
    1SOL     OW11545   2.162   4.146   2.016  0.3763 -0.4080 -0.2041
    1SOL    HW211546   2.096   4.103   2.070  0.4985 -0.8834 -0.4368
    1SOL    HW311547   2.240   4.147   2.072  0.0970  0.4054  0.1766
    1SOL    MW411548   2.164   4.141   2.031  0.3555 -0.3633 -0.1845
    1SOL     OW11549   2.992   2.547   4.348  0.2658 -0.4683  0.1672
    1SOL    HW211550   2.954   2.571   4.264 -0.1160 -1.7705 -0.0566
    1SOL    HW311551   3.070   2.496   4.325 -0.0327 -1.1267  0.5837
    1SOL    MW411552   2.997   2.543   4.334  0.1757 -0.7267  0.1922
    1SOL     OW11553   4.010   3.173   2.428  0.1320  0.3533  0.0676
    1SOL    HW211554   3.981   3.241   2.368  0.5361 -0.5408 -1.1686
    1SOL    HW311555   4.091   3.140   2.389 -0.6035 -1.5393  0.1006
    1SOL    MW411556   4.017   3.178   2.415  0.0882 -0.0145 -0.0913
    1NA      NA11557   3.434   1.021   2.161  0.2364  0.3920 -0.1334
    1NA      NA11558   2.228   4.032   1.820 -0.1329  0.0303  0.2162
   4.49070   4.66690  10.00000
