Gromacs Runs On Most of All Computer Systems in water
11558
    1RG35     P    1   2.171   2.346   4.383 -0.0621 -0.0967  0.1956
    1RG35   O1P    2   2.296   2.358   4.460  0.1517  0.2504  0.4956
    1RG35   O2P    3   2.104   2.216   4.393 -0.4512  0.4670  0.5236
    1RG35   O5'    4   2.064   2.438   4.454  0.2603  0.5454  0.2577
    1RG35   C5'    5   2.062   2.577   4.440  0.1950  0.3303 -0.2395
    1RG35  H5'1    6   2.042   2.597   4.335  0.8121 -1.3806 -0.6972
    1RG35  H5'2    7   2.159   2.621   4.465  0.0145  2.7568 -3.5117
    1RG35   C4'    8   1.958   2.629   4.543  0.1802 -0.2982 -0.5428
    1RG35   H4'    9   1.950   2.737   4.538 -1.4178 -0.3147  1.1502
    1RG35   O4'   10   1.826   2.575   4.516  0.0818 -0.3282 -0.4741
    1RG35   C1'   11   1.754   2.608   4.636  0.4644 -0.1403 -0.3477
    1RG35   H1'   12   1.699   2.702   4.624  0.1357 -0.3038 -0.1073
    1RG35    N9   13   1.650   2.503   4.654 -0.4869 -0.0214  0.4129
    1RG35    C8   14   1.515   2.525   4.631 -0.1594  0.0055 -0.5612
    1RG35    H8   15   1.478   2.625   4.616 -0.0036  0.4291  1.7753
    1RG35    N7   16   1.439   2.417   4.648 -0.0569  0.0708  0.4100
    1RG35    C5   17   1.533   2.317   4.673 -0.2138  0.0625 -0.0286
    1RG35    C6   18   1.520   2.175   4.699 -0.5371  0.1734  0.1147
    1RG35    O6   19   1.425   2.105   4.684  0.1762  0.5792  0.0038
    1RG35    N1   20   1.633   2.113   4.744 -0.1243  0.0446  0.0000
    1RG35    H1   21   1.635   2.012   4.743 -0.6791  0.0368 -0.5328
    1RG35    C2   22   1.751   2.173   4.753 -0.8367  0.5725  1.0991
    1RG35    N2   23   1.860   2.102   4.785 -0.0886  0.4346  0.2428
    1RG35   H21   24   1.859   2.001   4.798  0.3000  0.3111 -0.6922
    1RG35   H22   25   1.947   2.152   4.791 -0.1550  0.4575  1.1604
    1RG35    N3   26   1.775   2.296   4.709  0.3498  0.3882 -0.1338
    1RG35    C4   27   1.658   2.366   4.675  0.1681 -0.1232 -0.1474
    1RG35   C3'   28   1.988   2.587   4.687 -0.0446 -0.1334  0.3133
    1RG35   H3'   29   1.997   2.478   4.699  0.2333  0.1961  3.8886
    1RG35   C2'   30   1.851   2.627   4.744 -0.3244 -0.5276  0.2160
    1RG35  H2'1   31   1.828   2.559   4.826 -0.9593 -1.7632 -0.9823
    1RG35   O2'   32   1.856   2.765   4.786 -0.5311  0.2736 -0.6428
    1RG35  HO'2   33   1.944   2.774   4.825 -0.7940 -1.2341  0.3441
    1RG35   O3'   34   2.098   2.648   4.751  0.4673 -0.0341 -0.3076
    1RG35   H3T   35   2.178   2.605   4.720  0.2476  0.6894 -1.9852
    1RG35   O3P   36   2.182   2.401   4.249  0.1916  0.5714  0.0952
    1SOL     OW   37   2.284   1.597   0.438  0.0738 -0.0385 -0.5751
    1SOL    HW2   38   2.307   1.505   0.429 -1.2370 -0.3588 -0.7856
    1SOL    HW3   39   2.290   1.615   0.532  1.5590  0.0052 -0.6683
    1SOL    MW4   40   2.288   1.588   0.449  0.0968 -0.0751 -0.6151
    1SOL     OW   41   4.273   3.595   0.807  0.0338 -0.3363 -0.2531
    1SOL    HW2   42   4.271   3.687   0.832  1.3177 -0.3274 -0.1612
    1SOL    HW3   43   4.186   3.562   0.829 -0.5831  0.9571 -0.6920
    1SOL    MW4   44   4.261   3.603   0.813  0.1225 -0.1645 -0.2989
    1SOL     OW   45   2.655   0.819   0.397  0.2942 -0.6971  0.0566
    1SOL    HW2   46   2.725   0.878   0.371 -0.3638 -0.7059 -1.8488
    1SOL    HW3   47   2.647   0.830   0.492  2.5133 -0.3396  0.2288
    1SOL    MW4   48   2.663   0.828   0.406  0.5002 -0.6511 -0.1721
    1SOL     OW   49   2.403   2.706   0.304  0.0556 -0.0480 -0.1867
    1SOL    HW2   50   2.495   2.720   0.283  0.1781 -1.1426 -0.3879
    1SOL    HW3   51   2.403   2.635   0.369 -0.6303  0.1084 -0.0078
    1SOL    MW4   52   2.415   2.698   0.310 -0.0188 -0.1714 -0.1897
    1SOL     OW   53   0.459   3.178   0.506  0.2365  0.3421  0.4993
    1SOL    HW2   54   0.380   3.207   0.460  0.2577  1.1855  0.9801
    1SOL    HW3   55   0.530   3.225   0.462  0.3335  0.5811  0.9087
    1SOL    MW4   56   0.458   3.188   0.494  0.2522  0.4847  0.6167
    1SOL     OW   57   0.049   2.503   0.792 -0.1555 -0.2267  0.0759
    1SOL    HW2   58   0.036   2.534   0.702  1.0892 -1.6321 -0.6016
    1SOL    HW3   59   0.054   2.583   0.844  1.2266  0.6723 -1.4054
    1SOL    MW4   60   0.048   2.518   0.787  0.1910 -0.2937 -0.2089
    1SOL     OW   61   1.399   0.276   0.249 -0.1904 -0.4670  0.1146
    1SOL    HW2   62   1.389   0.371   0.260  0.6511 -0.2459 -0.9611
    1SOL    HW3   63   1.368   0.259   0.160  0.3312 -1.0989  0.0506
    1SOL    MW4   64   1.394   0.286   0.238 -0.0104 -0.5212 -0.0358
    1SOL     OW   65   3.992   0.003   0.135  0.0582  0.2407  0.2621
    1SOL    HW2   66   4.013   0.089   0.099 -0.2190  0.6839  1.1492
    1SOL    HW3   67   3.925   0.021   0.202  0.5720 -0.5769  0.9977
    1SOL    MW4   68   3.986   0.017   0.139  0.0896  0.1917  0.4762
    1SOL     OW   69   2.776   1.615   0.417 -0.0801  0.2538 -0.5185
    1SOL    HW2   70   2.694   1.660   0.398 -0.0368  0.2836 -0.6352
    1SOL    HW3   71   2.763   1.527   0.383 -0.5971 -0.1755  0.7565
    1SOL    MW4   72   2.763   1.610   0.410 -0.1426  0.2011 -0.3657
    1SOL     OW   73   2.160   0.118   0.676  0.3652 -0.4263 -0.0468
    1SOL    HW2   74   2.220   0.056   0.717 -1.0147 -2.4184 -0.9957
    1SOL    HW3   75   2.159   0.093   0.584 -1.0529  0.3162 -0.2451
    1SOL    MW4   76   2.168   0.107   0.669 -0.0041 -0.5912 -0.1982
    1SOL     OW   77   4.055   1.134   0.871 -0.3278 -0.0022 -0.6526
    1SOL    HW2   78   4.041   1.152   0.964 -0.7381 -0.0423 -0.7058
    1SOL    HW3   79   3.981   1.176   0.827 -0.3302 -0.2952 -0.9290
    1SOL    MW4   80   4.043   1.142   0.878 -0.3824 -0.0461 -0.6961
    1SOL     OW   81   0.833   2.620   0.518  0.0948  0.5270 -0.2795
    1SOL    HW2   82   0.864   2.701   0.477 -1.2649  1.8437  1.2349
    1SOL    HW3   83   0.739   2.619   0.501  0.0774 -0.6529 -0.1344
    1SOL    MW4   84   0.825   2.631   0.511 -0.0868  0.5453 -0.0606
    1SOL     OW   85   3.887   0.805   0.489  0.2830 -0.1746 -0.4921
    1SOL    HW2   86   3.814   0.864   0.473 -0.2252 -0.4631  0.6914
    1SOL    HW3   87   3.934   0.844   0.563  0.7105 -0.5476 -0.5611
    1SOL    MW4   88   3.883   0.818   0.497  0.2723 -0.2617 -0.3450
    1SOL     OW   89   4.072   1.942   0.787 -0.0014  0.1961 -0.0480
    1SOL    HW2   90   4.091   1.850   0.767 -0.9243  0.2779 -1.4060
    1SOL    HW3   91   4.064   1.945   0.882 -1.1717 -1.3850 -0.0773
    1SOL    MW4   92   4.073   1.930   0.797 -0.2775 -0.0017 -0.2310
    1SOL     OW   93   3.158   2.311   0.312  0.1026  0.4566  0.4090
    1SOL    HW2   94   3.188   2.400   0.329  0.1941  0.3274  0.9174
    1SOL    HW3   95   3.063   2.315   0.319  0.1652  0.3017  1.4472
    1SOL    MW4   96   3.149   2.323   0.315  0.1230  0.4189  0.6130
    1SOL     OW   97   0.586   1.290   0.468  0.3327 -0.0559 -0.2708
    1SOL    HW2   98   0.608   1.205   0.430 -0.7834 -0.4669 -0.0054
    1SOL    HW3   99   0.492   1.300   0.453  0.7392  1.8455 -1.7083
    1SOL    MW4  100   0.577   1.280   0.461  0.2390  0.1407 -0.4255
    1SOL     OW  101   3.310   0.006   0.377  0.2597 -0.1074  0.3142
    1SOL    HW2  102   3.226   0.052   0.378  0.7229  0.7464  2.2652
    1SOL    HW3  103   3.286  -0.087   0.376 -0.7043  0.1332  0.8063
    1SOL    MW4  104   3.296  -0.000   0.377  0.1936  0.0369  0.6365
    1SOL     OW  105   1.778   0.700   0.370 -0.3305  1.0571  0.6099
    1SOL    HW2  106   1.715   0.643   0.414 -0.1180  1.0083  0.8557
    1SOL    HW3  107   1.864   0.665   0.394 -0.2223  0.6708 -0.3494
    1SOL    MW4  108   1.781   0.688   0.379 -0.2881  0.9997  0.5158
    1SOL     OW  109   2.723   2.649   0.538  0.1359  0.3482  0.1735
    1SOL    HW2  110   2.773   2.643   0.619 -0.6079  0.4315  0.6339
    1SOL    HW3  111   2.787   2.630   0.469  0.5282 -0.7093  0.8352
    1SOL    MW4  112   2.738   2.646   0.539  0.0894  0.2196  0.3215
    1SOL     OW  113   0.266   0.482   0.739 -0.3299  0.2173  0.1159
    1SOL    HW2  114   0.246   0.567   0.777 -2.5196  0.2544 -1.0796
    1SOL    HW3  115   0.298   0.502   0.651 -2.1207 -0.2696 -0.6472
    1SOL    MW4  116   0.268   0.496   0.732 -0.8551  0.1579 -0.1425
    1SOL     OW  117   2.896   2.615   0.310 -0.0156 -0.3200  0.2837
    1SOL    HW2  118   2.919   2.529   0.274 -0.5351  0.3859 -1.8231
    1SOL    HW3  119   2.976   2.646   0.351  0.7908 -0.9037 -0.8230
    1SOL    MW4  120   2.909   2.608   0.311  0.0219 -0.3040 -0.1403
    1SOL     OW  121   0.559   0.075   0.491 -0.0306 -0.3189 -0.1713
    1SOL    HW2  122   0.538  -0.002   0.438  0.2680  1.4149 -2.9071
    1SOL    HW3  123   0.477   0.123   0.497  0.4598  0.6689 -1.1022
    1SOL    MW4  124   0.546   0.071   0.485  0.0735  0.0402 -0.6551
    1SOL     OW  125   3.810   1.275   0.754 -0.6916  0.2015 -0.0659
    1SOL    HW2  126   3.822   1.265   0.659  0.4693 -2.5543  0.3234
    1SOL    HW3  127   3.722   1.240   0.770 -0.3212 -0.6861  0.0526
    1SOL    MW4  128   3.800   1.269   0.743 -0.4895 -0.2792  0.0010
    1SOL     OW  129   0.443   4.034   0.756 -0.1251  0.2080 -0.1500
    1SOL    HW2  130   0.476   4.042   0.666  0.8593 -0.5735  0.1319
    1SOL    HW3  131   0.448   4.123   0.791  2.3663  0.0189  0.0958
    1SOL    MW4  132   0.448   4.047   0.749  0.3335  0.0806 -0.0804
    1SOL     OW  133   0.290   4.654   0.854 -0.0723  0.6003 -0.1195
    1SOL    HW2  134   0.230   4.704   0.798  0.0668  1.2556  0.3149
    1SOL    HW3  135   0.376   4.691   0.837  0.4854 -1.4036 -1.9489
    1SOL    MW4  136   0.293   4.665   0.844  0.0196  0.4220 -0.3036
    1SOL     OW  137   4.455   1.642   0.481 -0.0230 -0.0046  0.1236
    1SOL    HW2  138   4.481   1.717   0.429 -0.0838  0.8498  1.2964
    1SOL    HW3  139   4.478   1.666   0.571  0.6475 -1.6965  0.4205
    1SOL    MW4  140   4.461   1.655   0.486  0.0577 -0.1152  0.3175
    1SOL     OW  141   2.049   2.328   0.751 -0.0413  0.1930  0.4436
    1SOL    HW2  142   2.069   2.325   0.845  0.4482  1.9082  0.4086
    1SOL    HW3  143   1.971   2.383   0.744  0.3957  0.7479 -0.2158
    1SOL    MW4  144   2.041   2.335   0.762  0.0811  0.4926  0.3520
    1SOL     OW  145   4.207   4.295   0.450 -0.2364 -0.3278 -0.3064
    1SOL    HW2  146   4.237   4.298   0.540 -1.3328 -1.5700  0.1186
    1SOL    HW3  147   4.268   4.351   0.402  0.7434 -0.1844  1.0870
    1SOL    MW4  148   4.219   4.303   0.455 -0.2518 -0.4725 -0.0664
    1SOL     OW  149   0.888   3.993   0.505 -0.3589 -0.0198  0.9790
    1SOL    HW2  150   0.834   4.057   0.458  0.2894  0.6484  1.1131
    1SOL    HW3  151   0.887   4.023   0.596  0.4901  0.2052  0.9273
    1SOL    MW4  152   0.881   4.006   0.511 -0.1613  0.0978  0.9899
    1SOL     OW  153   1.568   2.350   0.823  0.0403 -0.0083 -0.2352
    1SOL    HW2  154   1.494   2.369   0.766  0.3720  1.1012 -0.3066
    1SOL    HW3  155   1.574   2.254   0.824 -0.1473 -0.0475 -1.8352
    1SOL    MW4  156   1.559   2.340   0.816  0.0595  0.1330 -0.4557
    1SOL     OW  157   2.038   3.161   0.825  0.3374 -0.0986  0.2807
    1SOL    HW2  158   2.044   3.069   0.796  0.3014 -0.5952  1.8353
    1SOL    HW3  159   1.948   3.186   0.805  0.6249 -0.0914 -1.0475
    1SOL    MW4  160   2.027   3.152   0.818  0.3705 -0.1633  0.3105
    1SOL     OW  161   2.672   2.772   0.212 -0.6355 -0.9523  0.5359
    1SOL    HW2  162   2.707   2.819   0.137  0.1297 -0.0496  1.4441
    1SOL    HW3  163   2.750   2.736   0.256 -0.8110  1.1170  2.5967
    1SOL    MW4  164   2.687   2.773   0.208 -0.5577 -0.5600  0.9276
    1SOL     OW  165   0.327   0.232   0.499  0.3696 -0.0295  0.5414
    1SOL    HW2  166   0.319   0.327   0.489  1.4612  0.1211  1.0327
    1SOL    HW3  167   0.257   0.207   0.559  0.4174  0.5406  0.8303
    1SOL    MW4  168   0.317   0.241   0.505  0.5200  0.0656  0.6443
    1SOL     OW  169   1.343   2.851   0.374  0.2400 -0.0085  0.4965
    1SOL    HW2  170   1.356   2.763   0.337  0.1322  0.1384  0.1068
    1SOL    HW3  171   1.421   2.866   0.428  0.7000  0.0319 -0.1786
    1SOL    MW4  172   1.355   2.841   0.376  0.2866  0.0162  0.3560
    1SOL     OW  173   2.800   4.624   0.369 -0.2429 -0.3002 -0.1578
    1SOL    HW2  174   2.757   4.697   0.414 -0.4761 -0.8166  0.4671
    1SOL    HW3  175   2.879   4.662   0.331 -0.3904  0.2881  0.1177
    1SOL    MW4  176   2.804   4.639   0.370 -0.2930 -0.2904 -0.0390
    1SOL     OW  177   0.288   1.238   0.504  0.3207 -0.6254 -0.2160
    1SOL    HW2  178   0.286   1.263   0.596  1.4127  0.3126 -0.4338
    1SOL    HW3  179   0.229   1.300   0.461  0.5436 -0.4572 -0.2820
    1SOL    MW4  180   0.280   1.250   0.510  0.4942 -0.4795 -0.2535
    1SOL     OW  181   3.376   0.764   0.785  0.5604 -0.1453  0.3648
    1SOL    HW2  182   3.387   0.669   0.778  0.9139 -0.0659 -0.1718
    1SOL    HW3  183   3.454   0.800   0.743 -0.1493  0.3913 -0.5099
    1SOL    MW4  184   3.388   0.756   0.779  0.5136 -0.0641  0.1785
    1SOL     OW  185   1.791   3.247   0.760  0.4138 -0.2834  0.4586
    1SOL    HW2  186   1.782   3.265   0.667  0.6016  2.2726  0.9041
    1SOL    HW3  187   1.715   3.193   0.782 -0.4532  0.3903 -0.8464
    1SOL    MW4  188   1.780   3.242   0.751  0.3242  0.1428  0.3452
    1SOL     OW  189   2.031   2.906   0.756 -0.2285  0.1258 -0.1435
    1SOL    HW2  190   2.058   2.901   0.665 -0.7858 -0.5674 -0.2760
    1SOL    HW3  191   2.101   2.862   0.804 -1.4064 -2.3129 -0.5557
    1SOL    MW4  192   2.044   2.899   0.750 -0.4575 -0.2875 -0.2154
    1SOL     OW  193   1.987   2.048   0.463 -0.5492 -0.3988 -0.1801
    1SOL    HW2  194   1.961   2.139   0.448  0.6069 -0.2356 -1.3651
    1SOL    HW3  195   2.011   2.045   0.555 -0.6107  0.5075 -0.1233
    1SOL    MW4  196   1.987   2.060   0.473 -0.4048 -0.2575 -0.3289
    1SOL     OW  197   3.645   1.949   0.781  0.4462 -0.2268 -0.5256
    1SOL    HW2  198   3.722   1.998   0.752  1.6373 -0.8835  1.4019
    1SOL    HW3  199   3.667   1.858   0.766  1.1932 -0.5988  2.5092
    1SOL    MW4  200   3.658   1.944   0.776  0.7021 -0.3626  0.1291
    1SOL     OW  201   0.260   2.841   0.795  0.1497 -0.1025 -0.5455
    1SOL    HW2  202   0.342   2.795   0.813 -0.3333 -0.5798  0.4929
    1SOL    HW3  203   0.279   2.933   0.814  0.4046 -0.2358 -0.1436
    1SOL    MW4  204   0.273   2.847   0.800  0.1196 -0.1826 -0.3555
    1SOL     OW  205   2.132   4.422   0.469 -0.5590 -0.2706 -0.2072
    1SOL    HW2  206   2.143   4.513   0.442 -0.2620 -0.3708 -0.4267
    1SOL    HW3  207   2.217   4.381   0.451  0.0903 -0.0176  2.0881
    1SOL    MW4  208   2.145   4.428   0.463 -0.4339 -0.2503  0.0667
    1SOL     OW  209   4.085   3.063   0.486  0.0659 -0.2592 -0.1181
    1SOL    HW2  210   4.107   3.132   0.423 -0.3931 -0.5113 -0.5577
    1SOL    HW3  211   4.152   2.996   0.473  0.9125  0.3756  0.7689
    1SOL    MW4  212   4.097   3.063   0.476  0.1178 -0.2086 -0.0591
    1SOL     OW  213   2.514   2.019   0.702  0.1361  0.1005 -0.1584
    1SOL    HW2  214   2.497   2.105   0.740  2.1515  0.3033  0.3180
    1SOL    HW3  215   2.510   2.034   0.607 -2.6788  0.0375 -0.1075
    1SOL    MW4  216   2.511   2.032   0.694  0.0305  0.1192 -0.0888
    1SOL     OW  217   2.854   3.123   0.838 -0.4486  0.2093 -0.0145
    1SOL    HW2  218   2.771   3.164   0.815 -0.0785  0.1131 -1.5706
    1SOL    HW3  219   2.847   3.033   0.808  0.4069  0.3385 -0.6315
    1SOL    MW4  220   2.842   3.117   0.831 -0.2868  0.2134 -0.3011
    1SOL     OW  221   0.893   4.308   0.851  0.0428  0.1828 -0.3589
    1SOL    HW2  222   0.880   4.220   0.815 -0.3426  0.1869 -0.2335
    1SOL    HW3  223   0.973   4.339   0.808  0.2250 -0.2571 -0.3426
    1SOL    MW4  224   0.902   4.300   0.840  0.0160  0.1249 -0.3402
    1SOL     OW  225   2.937   1.248   0.430 -0.2793  0.4027  0.2713
    1SOL    HW2  226   3.030   1.236   0.413 -0.6543 -2.5656  0.0997
    1SOL    HW3  227   2.929   1.247   0.525 -0.2895 -0.8877  0.2688
    1SOL    MW4  228   2.948   1.246   0.440 -0.3300 -0.1591  0.2483
    1SOL     OW  229   1.575   3.688   0.428  0.1866 -0.5768  0.0584
    1SOL    HW2  230   1.563   3.773   0.386 -3.0883 -0.6536  0.7052
    1SOL    HW3  231   1.669   3.672   0.423  0.4877  1.6522 -2.8496
    1SOL    MW4  232   1.586   3.697   0.422 -0.2058 -0.2930 -0.2400
    1SOL     OW  233   2.043   0.155   0.199  0.4488  0.1435 -0.2789
    1SOL    HW2  234   1.997   0.239   0.200  1.2771  0.6037  0.1056
    1SOL    HW3  235   2.001   0.105   0.129 -1.5722  0.0136  0.9712
    1SOL    MW4  236   2.031   0.160   0.190  0.2916  0.1871 -0.0633
    1SOL     OW  237   0.486   4.066   0.484 -0.0370 -0.0938 -0.6681
    1SOL    HW2  238   0.432   4.144   0.494 -0.2283 -0.0156 -2.1463
    1SOL    HW3  239   0.565   4.097   0.439  0.8895 -0.3608  0.7307
    1SOL    MW4  240   0.490   4.080   0.479  0.0600 -0.1187 -0.6785
    1SOL     OW  241   0.591   2.275   0.347 -0.2982  0.1405 -0.0147
    1SOL    HW2  242   0.614   2.203   0.406  0.6469 -0.8711 -1.5760
    1SOL    HW3  243   0.505   2.251   0.312 -0.1831 -0.0219 -0.1903
    1SOL    MW4  244   0.583   2.262   0.350 -0.1583 -0.0143 -0.2439
    1SOL     OW  245   1.341   0.553   0.305  0.2063 -0.1699  0.5827
    1SOL    HW2  246   1.364   0.641   0.274 -0.0782 -0.5763 -0.7922
    1SOL    HW3  247   1.257   0.564   0.348 -1.5418 -0.3638 -2.6441
    1SOL    MW4  248   1.333   0.566   0.307 -0.0618 -0.2490 -0.0244
    1SOL     OW  249   0.232   3.889   0.846  0.0978  0.3018 -0.2266
    1SOL    HW2  250   0.238   3.888   0.941  1.1257  0.3064 -0.2918
    1SOL    HW3  251   0.310   3.936   0.817 -1.1029  1.8755 -1.0031
    1SOL    MW4  252   0.243   3.895   0.855  0.0750  0.5097 -0.3377
    1SOL     OW  253   2.145   0.880   0.484  0.5870 -0.0901 -0.4446
    1SOL    HW2  254   2.096   0.798   0.477  1.4834 -0.6914  0.1315
    1SOL    HW3  255   2.220   0.868   0.425  0.4621  0.5038 -0.7230
    1SOL    MW4  256   2.149   0.868   0.475  0.6888 -0.0911 -0.4053
    1SOL     OW  257   0.439   0.919   0.725 -0.1959 -0.3944 -0.1030
    1SOL    HW2  258   0.524   0.894   0.763  0.4830  0.5252 -1.0028
    1SOL    HW3  259   0.376   0.860   0.767  0.7364 -0.3768  1.3706
    1SOL    MW4  260   0.442   0.908   0.736  0.0167 -0.2707 -0.0272
    1SOL     OW  261   2.950   4.057   0.430  0.0313 -0.6549 -0.3597
    1SOL    HW2  262   2.931   4.150   0.414  1.3451 -0.0516  1.4374
    1SOL    HW3  263   2.866   4.020   0.457 -0.0381  0.5156  1.0668
    1SOL    MW4  264   2.936   4.064   0.431  0.1955 -0.4206  0.0656
    1SOL     OW  265   1.690   1.486   0.320  0.0539 -0.1169  0.5319
    1SOL    HW2  266   1.773   1.458   0.282 -0.2810 -0.4223  0.0179
    1SOL    HW3  267   1.680   1.577   0.292  0.5371  0.1329  1.1560
    1SOL    MW4  268   1.700   1.494   0.312  0.0734 -0.1243  0.5464
    1SOL     OW  269   1.333   3.258   0.759 -0.2713  0.7905  0.4750
    1SOL    HW2  270   1.345   3.241   0.665  0.0263  0.1265  0.6327
    1SOL    HW3  271   1.253   3.210   0.782  0.8513 -0.8602  1.0327
    1SOL    MW4  272   1.324   3.249   0.749 -0.0838  0.4849  0.5694
    1SOL     OW  273   0.177   0.743   0.474  0.0691  0.3425  0.5185
    1SOL    HW2  274   0.227   0.820   0.448  2.0756 -0.9868  0.2731
    1SOL    HW3  275   0.130   0.770   0.553  1.8745  1.3877  1.2600
    1SOL    MW4  276   0.178   0.757   0.481  0.5720  0.3051  0.5839
    1SOL     OW  277   2.159   0.022   0.418 -0.3131 -0.5995  0.2273
    1SOL    HW2  278   2.254   0.037   0.422 -0.1937 -1.1342 -0.4934
    1SOL    HW3  279   2.130   0.078   0.346 -0.5701 -0.3282  0.5400
    1SOL    MW4  280   2.168   0.032   0.409 -0.3312 -0.6343  0.1735
    1SOL     OW  281   1.099   3.124   0.840 -0.2257  0.2064 -0.1651
    1SOL    HW2  282   1.031   3.175   0.796 -1.2891 -0.7467  0.3592
    1SOL    HW3  283   1.093   3.037   0.802  0.4469  0.0158  0.1550
    1SOL    MW4  284   1.089   3.119   0.829 -0.2773  0.0556 -0.0536
    1SOL     OW  285   1.685   2.225   0.335 -0.3413 -0.0357 -0.1841
    1SOL    HW2  286   1.652   2.306   0.296 -1.4711 -0.6469 -0.5303
    1SOL    HW3  287   1.742   2.188   0.268  0.1875  0.4690 -0.0216
    1SOL    MW4  288   1.688   2.231   0.321 -0.4206 -0.0496 -0.2083
    1SOL     OW  289   2.047   1.668   0.309  0.1096  0.2404  0.0286
    1SOL    HW2  290   1.988   1.724   0.359  0.0467  1.0627 -0.9621
    1SOL    HW3  291   2.123   1.656   0.365 -0.6127 -0.0995  0.9479
    1SOL    MW4  292   2.049   1.674   0.323  0.0060  0.3040  0.0192
    1SOL     OW  293   0.723   3.105   0.863 -0.1604  0.9844 -0.0877
    1SOL    HW2  294   0.654   3.168   0.843 -0.5299  0.7347  0.4237
    1SOL    HW3  295   0.728   3.104   0.959 -1.9906 -1.7794  0.0127
    1SOL    MW4  296   0.715   3.113   0.873 -0.4506  0.5867 -0.0070
    1SOL     OW  297   0.909   3.741   0.380 -0.2961 -0.4407  0.2378
    1SOL    HW2  298   0.903   3.830   0.414  2.1379  0.0307 -0.4584
    1SOL    HW3  299   0.995   3.710   0.409 -0.1303 -1.6976 -1.5035
    1SOL    MW4  300   0.920   3.748   0.388  0.0469 -0.5443 -0.0838
    1SOL     OW  301   0.772   3.851   0.164  0.3604 -0.1937  0.0287
    1SOL    HW2  302   0.825   3.824   0.239 -0.8976  1.1390  1.4254
    1SOL    HW3  303   0.817   3.928   0.129  0.8508 -0.7105 -0.4862
    1SOL    MW4  304   0.785   3.857   0.170  0.2591 -0.0858  0.1450
    1SOL     OW  305   1.789   0.945   0.710 -0.1088  0.3615 -0.1212
    1SOL    HW2  306   1.786   1.027   0.759  0.7498  0.0294  0.5081
    1SOL    HW3  307   1.862   0.896   0.750 -0.2074 -0.4358 -0.9045
    1SOL    MW4  308   1.798   0.949   0.722 -0.0085  0.2125 -0.1415
    1SOL     OW  309   0.029   3.989   0.707  0.0802 -0.1768  0.3678
    1SOL    HW2  310  -0.048   3.967   0.759 -0.4631 -0.5759 -0.5881
    1SOL    HW3  311   0.103   3.954   0.758 -0.5224 -1.4176  0.4098
    1SOL    MW4  312   0.029   3.981   0.721 -0.0706 -0.3934  0.2472
    1SOL     OW  313   3.333   4.653   0.774 -0.3172  0.1019 -0.1119
    1SOL    HW2  314   3.333   4.656   0.869 -0.0830  1.1074 -0.1368
    1SOL    HW3  315   3.406   4.709   0.748 -1.2055  0.9160 -0.9106
    1SOL    MW4  316   3.343   4.661   0.783 -0.4034  0.3428 -0.2206
    1SOL     OW  317   0.008   2.575   0.528  0.4198  0.0287 -0.0968
    1SOL    HW2  318  -0.083   2.579   0.498  0.0578 -2.3078  0.6190
    1SOL    HW3  319   0.050   2.512   0.470  0.7382 -1.3785  1.6210
    1SOL    MW4  320   0.001   2.567   0.517  0.4141 -0.4654  0.2244
    1SOL     OW  321   0.653   2.055   0.522  0.4496  0.9396  0.3041
    1SOL    HW2  322   0.612   1.969   0.518  0.9810  0.6288  1.2023
    1SOL    HW3  323   0.746   2.036   0.532  0.6253  1.6210 -0.0514
    1SOL    MW4  324   0.660   2.041   0.523  0.5429  0.9885  0.3757
    1SOL     OW  325   2.457   4.350   0.727  0.3173  0.1013 -0.0783
    1SOL    HW2  326   2.385   4.306   0.771  0.6294 -0.6671 -0.3171
    1SOL    HW3  327   2.439   4.338   0.633  0.8456 -0.2556 -0.1387
    1SOL    MW4  328   2.445   4.343   0.720  0.4280 -0.0467 -0.1178
    1SOL     OW  329   3.130   3.162   0.534  0.2832  0.3178  0.5095
    1SOL    HW2  330   3.043   3.124   0.526  1.3055 -1.6271 -2.5031
    1SOL    HW3  331   3.190   3.089   0.519  2.3947  2.1176 -0.1853
    1SOL    MW4  332   3.127   3.147   0.531  0.6964  0.2987  0.0203
    1SOL     OW  333   2.956   3.754   0.514 -0.4810 -0.0668  0.3167
    1SOL    HW2  334   2.961   3.714   0.601 -1.0154 -1.6738 -0.3705
    1SOL    HW3  335   2.874   3.803   0.515 -0.2328  0.3448  0.8930
    1SOL    MW4  336   2.946   3.755   0.526 -0.5188 -0.2246  0.3021
    1SOL     OW  337   4.309   1.235   0.868  0.1936 -0.6011  0.4173
    1SOL    HW2  338   4.341   1.217   0.956 -0.9940  1.4862  1.3119
    1SOL    HW3  339   4.234   1.177   0.857  0.1220 -0.6030  0.9117
    1SOL    MW4  340   4.304   1.225   0.878  0.0272 -0.3258  0.6006
    1SOL     OW  341   1.979   1.111   0.446  0.2793  0.4038 -0.2267
    1SOL    HW2  342   1.892   1.077   0.427  0.4297  1.3806 -2.7819
    1SOL    HW3  343   2.034   1.034   0.461 -0.7312 -0.2369  0.1894
    1SOL    MW4  344   1.975   1.097   0.446  0.1658  0.4482 -0.5090
    1SOL     OW  345   1.996   2.626   0.092 -0.4266 -0.3318 -0.2984
    1SOL    HW2  346   2.001   2.646  -0.001  0.4610 -1.5904 -0.5310
    1SOL    HW3  347   1.952   2.541   0.096 -0.2182 -0.4151  0.4120
    1SOL    MW4  348   1.991   2.617   0.080 -0.2819 -0.5088 -0.2354
    1SOL     OW  349   0.202   2.794   0.520 -0.0492 -0.2751 -0.2186
    1SOL    HW2  350   0.218   2.816   0.611 -0.4588  0.8162 -0.4016
    1SOL    HW3  351   0.126   2.735   0.522 -0.6316  0.4824  0.0729
    1SOL    MW4  352   0.194   2.789   0.532 -0.1801 -0.0312 -0.2043
    1SOL     OW  353   0.544   2.901   0.499 -0.0566  0.1216 -0.4203
    1SOL    HW2  354   0.514   2.990   0.514 -0.4790  0.0917 -1.0792
    1SOL    HW3  355   0.486   2.867   0.431 -1.3133 -1.4155  1.3726
    1SOL    MW4  356   0.533   2.908   0.492 -0.2781 -0.0851 -0.2707
    1SOL     OW  357   2.486   2.803   0.777  0.3502 -0.2436  0.4217
    1SOL    HW2  358   2.492   2.898   0.786  0.7852 -0.2685  0.3983
    1SOL    HW3  359   2.577   2.773   0.778  0.1728 -0.7620  1.5678
    1SOL    MW4  360   2.499   2.812   0.778  0.3843 -0.3152  0.5698
    1SOL     OW  361   3.603   4.089   0.415 -0.3110 -0.0535  0.1996
    1SOL    HW2  362   3.618   4.183   0.416 -0.4952 -0.0287  0.6852
    1SOL    HW3  363   3.617   4.061   0.505 -2.8459 -0.0680  0.6353
    1SOL    MW4  364   3.607   4.098   0.427 -0.6700 -0.0520  0.3211
    1SOL     OW  365   3.317   3.050   0.875  0.3960 -0.0355 -0.2674
    1SOL    HW2  366   3.233   3.087   0.847  0.0726  0.1383  0.9270
    1SOL    HW3  367   3.327   3.080   0.965  1.1044 -1.1822  0.0347
    1SOL    MW4  368   3.307   3.059   0.883  0.4468 -0.1638 -0.0700
    1SOL     OW  369   3.202   1.816   0.389  0.3609  0.0986 -0.7543
    1SOL    HW2  370   3.235   1.905   0.401  0.1774 -0.0044  0.5801
    1SOL    HW3  371   3.107   1.826   0.385  0.2533 -0.1786  0.8317
    1SOL    MW4  372   3.194   1.829   0.390  0.3228  0.0483 -0.3690
    1SOL     OW  373   4.326   2.057   0.723 -0.1118 -0.4421  0.0484
    1SOL    HW2  374   4.386   2.004   0.775 -1.3040 -1.9312 -0.0950
    1SOL    HW3  375   4.240   2.021   0.741 -0.7308  0.2391 -1.5078
    1SOL    MW4  376   4.323   2.046   0.732 -0.3510 -0.5486 -0.1758
    1SOL     OW  377   0.360   0.528   0.486  0.1340 -0.2507  0.3956
    1SOL    HW2  378   0.313   0.612   0.482 -0.8464 -0.8104  0.0010
    1SOL    HW3  379   0.453   0.553   0.486 -0.1524  0.9008  1.9768
    1SOL    MW4  380   0.366   0.542   0.485 -0.0331 -0.1726  0.5521
    1SOL     OW  381   4.274   3.106   0.836 -0.5371  0.1922 -0.3527
    1SOL    HW2  382   4.202   3.151   0.790 -0.9797 -0.1075  0.0410
    1SOL    HW3  383   4.352   3.156   0.813 -0.7837  0.1444 -1.2970
    1SOL    MW4  384   4.274   3.118   0.827 -0.6280  0.1466 -0.4253
    1SOL     OW  385   0.244   2.037   0.755 -0.4034  0.0031 -0.1430
    1SOL    HW2  386   0.326   2.020   0.801  0.4290 -0.6026 -1.8319
    1SOL    HW3  387   0.230   2.132   0.765 -0.0103 -0.0503  0.9609
    1SOL    MW4  388   0.253   2.048   0.763 -0.2417 -0.0837 -0.2202
    1SOL     OW  389   0.021   4.257   0.796 -0.9217  0.7150 -0.3699
    1SOL    HW2  390   0.017   4.245   0.891 -2.8115  1.7995 -0.2915
    1SOL    HW3  391   0.024   4.168   0.761 -1.2639  0.2803  0.6741
    1SOL    MW4  392   0.021   4.244   0.804 -1.2162  0.8011 -0.2217
    1SOL     OW  393   2.124   2.497   0.458  0.4642 -0.0838  0.0760
    1SOL    HW2  394   2.177   2.474   0.382 -1.6807  0.2774 -1.5552
    1SOL    HW3  395   2.050   2.437   0.455 -0.5096  1.0482  0.9043
    1SOL    MW4  396   2.122   2.486   0.448  0.0527  0.1132 -0.0299
    1SOL     OW  397   2.928   2.000   0.653 -0.9895 -0.2133 -0.1462
    1SOL    HW2  398   3.006   1.983   0.707 -0.3497 -0.0374 -1.0204
    1SOL    HW3  399   2.855   1.965   0.706 -0.4619  0.6342  1.1697
    1SOL    MW4  400   2.928   1.993   0.667 -0.8354 -0.0782 -0.0879
    1SOL     OW  401   1.774   0.161   0.723 -0.5542 -0.5219 -0.0026
    1SOL    HW2  402   1.687   0.130   0.746 -0.4054 -1.0610 -0.1695
    1SOL    HW3  403   1.833   0.117   0.784 -0.4447  0.2318  0.4444
    1SOL    MW4  404   1.770   0.151   0.734 -0.5199 -0.4936  0.0344
    1SOL     OW  405   2.406   4.299   0.444 -0.0704  0.1513  0.3494
    1SOL    HW2  406   2.402   4.216   0.395 -0.1022 -0.9555  2.1821
    1SOL    HW3  407   2.471   4.351   0.397 -1.0396 -0.3600 -1.6261
    1SOL    MW4  408   2.414   4.295   0.431 -0.2024 -0.0625  0.3305
    1SOL     OW  409   1.545   2.085   0.724  0.0714 -0.0145 -0.5883
    1SOL    HW2  410   1.513   2.111   0.638 -0.3448  0.4609 -0.2915
    1SOL    HW3  411   1.468   2.053   0.770  0.0277  1.0588  0.1001
    1SOL    MW4  412   1.531   2.084   0.719  0.0107  0.1898 -0.4583
    1SOL     OW  413   0.324   4.291   0.489 -0.1104  0.3726  0.4834
    1SOL    HW2  414   0.292   4.329   0.571 -1.2106 -1.4743  0.9435
    1SOL    HW3  415   0.244   4.268   0.442  0.5233  1.0009 -0.9279
    1SOL    MW4  416   0.309   4.293   0.493 -0.1720  0.2122  0.3579
    1SOL     OW  417   1.558   3.936   0.322  0.1020 -0.8118 -0.1452
    1SOL    HW2  418   1.562   3.979   0.236 -0.6193 -0.8040 -0.1811
    1SOL    HW3  419   1.640   3.960   0.364  0.5525 -0.9747 -0.9072
    1SOL    MW4  420   1.569   3.945   0.316  0.0662 -0.8321 -0.2505
    1SOL     OW  421   1.772   4.294   0.371 -0.5257 -0.3755 -0.3292
    1SOL    HW2  422   1.855   4.341   0.365 -0.7935 -0.0213 -1.2574
    1SOL    HW3  423   1.708   4.361   0.392 -0.9347 -0.2948 -1.8213
    1SOL    MW4  424   1.775   4.309   0.373 -0.6149 -0.3181 -0.6485
    1SOL     OW  425   1.083   1.589   0.896  0.1435 -0.2282  0.0206
    1SOL    HW2  426   1.086   1.495   0.883 -1.2488 -0.0798 -1.4967
    1SOL    HW3  427   1.164   1.622   0.858 -0.0065 -0.6810 -0.7001
    1SOL    MW4  428   1.094   1.581   0.889 -0.0600 -0.2683 -0.2748
    1SOL     OW  429   1.376   0.133   0.665 -0.2177 -0.0390 -0.1373
    1SOL    HW2  430   1.437   0.082   0.717 -0.2206  0.3761  0.2716
    1SOL    HW3  431   1.373   0.218   0.708 -2.1791 -0.5046  0.6829
    1SOL    MW4  432   1.384   0.138   0.677 -0.4768 -0.0457  0.0248
    1SOL     OW  433   4.340   2.095   0.454 -0.3981 -0.1899 -0.0369
    1SOL    HW2  434   4.329   2.097   0.549 -0.0417 -0.2250  0.0055
    1SOL    HW3  435   4.256   2.064   0.421 -0.1074 -1.4199  0.3520
    1SOL    MW4  436   4.327   2.091   0.462 -0.3123 -0.3569  0.0200
    1SOL     OW  437   1.017   1.539   0.193  0.0950  0.0620  0.2211
    1SOL    HW2  438   0.951   1.509   0.255  0.3438 -0.5662  0.1867
    1SOL    HW3  439   1.100   1.505   0.228  0.2872  0.0754 -0.2164
    1SOL    MW4  440   1.020   1.530   0.206  0.1532 -0.0191  0.1588
    1SOL     OW  441   0.875   4.050   0.764  0.1820 -0.0444 -0.3464
    1SOL    HW2  442   0.806   3.991   0.795  0.5614 -0.0979  0.4269
    1SOL    HW3  443   0.955   3.998   0.772  0.6008  0.7644  0.9191
    1SOL    MW4  444   0.877   4.035   0.769  0.2874  0.0548 -0.0774
    1SOL     OW  445   4.041   2.729   0.847 -0.4023  0.0620  0.4790
    1SOL    HW2  446   4.052   2.635   0.832  1.2898 -0.0142  2.0396
    1SOL    HW3  447   4.127   2.766   0.829 -0.6120  1.0775  1.5084
    1SOL    MW4  448   4.054   2.721   0.843 -0.2069  0.1857  0.8206
    1SOL     OW  449   4.467   3.674   0.412  0.3072 -0.0994  0.2366
    1SOL    HW2  450   4.553   3.667   0.452  0.7607 -1.4835 -0.9408
    1SOL    HW3  451   4.479   3.643   0.322 -1.4494 -0.5048  0.1111
    1SOL    MW4  452   4.480   3.669   0.406  0.1354 -0.3352  0.0647
    1SOL     OW  453   0.778   0.268   0.500  0.1948 -0.1916  0.3387
    1SOL    HW2  454   0.845   0.267   0.431 -0.8073  0.9158 -0.6638
    1SOL    HW3  455   0.719   0.196   0.477 -0.4844  0.5627 -0.3296
    1SOL    MW4  456   0.779   0.258   0.488 -0.0270  0.0540  0.1183
    1SOL     OW  457   2.689   0.882   0.679 -0.4573 -0.0208 -0.1428
    1SOL    HW2  458   2.687   0.973   0.709  0.3063  0.2298 -0.8219
    1SOL    HW3  459   2.767   0.845   0.720  0.0060  0.0282 -0.9809
    1SOL    MW4  460   2.699   0.889   0.688 -0.2959  0.0187 -0.3430
    1SOL     OW  461   1.767   1.955   0.842  0.1983 -0.0731 -0.6653
    1SOL    HW2  462   1.682   1.978   0.806 -0.7740 -0.7192  1.1228
    1SOL    HW3  463   1.787   1.869   0.804 -0.9027 -0.8373  0.4608
    1SOL    MW4  464   1.759   1.947   0.832 -0.0752 -0.2593 -0.2808
    1SOL     OW  465   1.682   0.297   0.349 -0.3575 -0.2654  0.3225
    1SOL    HW2  466   1.604   0.268   0.303 -0.5847  0.4535  0.2471
    1SOL    HW3  467   1.721   0.217   0.384 -0.9357 -0.6607  0.0603
    1SOL    MW4  468   1.677   0.283   0.348 -0.4637 -0.2227  0.2779
    1SOL     OW  469   0.921   3.500   0.834  0.6034  0.3363  0.2236
    1SOL    HW2  470   0.918   3.421   0.780 -0.7213  0.2652  0.3671
    1SOL    HW3  471   0.852   3.556   0.797  1.2236  1.2372  0.4143
    1SOL    MW4  472   0.911   3.497   0.822  0.5105  0.4456  0.2678
    1SOL     OW  473   1.984   1.294   0.669 -0.0432 -0.0145  0.0892
    1SOL    HW2  474   2.064   1.258   0.707 -0.0569  0.3920  0.5053
    1SOL    HW3  475   1.973   1.245   0.587  1.1375  0.5521 -0.4277
    1SOL    MW4  476   1.993   1.283   0.663  0.1107  0.1140  0.0759
    1SOL     OW  477   4.240   3.572   0.521 -0.1391 -0.0207 -0.0895
    1SOL    HW2  478   4.252   3.570   0.616 -0.8574  0.8547  0.0159
    1SOL    HW3  479   4.325   3.601   0.487 -0.1887  0.6251  0.3362
    1SOL    MW4  480   4.253   3.575   0.529 -0.2403  0.1802 -0.0194
    1SOL     OW  481   0.483   1.721   0.736 -0.0578 -0.1084 -0.1348
    1SOL    HW2  482   0.548   1.659   0.768 -0.3417 -0.5384 -0.3744
    1SOL    HW3  483   0.504   1.803   0.780 -0.9729 -0.9004  1.8597
    1SOL    MW4  484   0.494   1.723   0.746 -0.2160 -0.2697  0.0967
    1SOL     OW  485   0.965   4.511   0.310  0.1719  0.3367  0.1502
    1SOL    HW2  486   0.876   4.476   0.308  0.6174 -0.8863  1.0725
    1SOL    HW3  487   0.954   4.605   0.325 -1.0114  0.4782 -1.5484
    1SOL    MW4  488   0.952   4.519   0.312  0.0745  0.1945  0.0478
    1SOL     OW  489   1.304   2.447   0.711  0.0470  0.0332  0.0456
    1SOL    HW2  490   1.253   2.477   0.635  0.0817  0.1746  0.0788
    1SOL    HW3  491   1.321   2.527   0.762  0.3760 -0.0026 -0.0095
    1SOL    MW4  492   1.299   2.462   0.708  0.0951  0.0472  0.0429
    1SOL     OW  493   1.582   2.846   0.496 -0.1482  0.3237 -0.1426
    1SOL    HW2  494   1.634   2.770   0.470 -1.1627 -0.2403 -0.5346
    1SOL    HW3  495   1.587   2.847   0.591  0.3901  0.1479 -0.1661
    1SOL    MW4  496   1.590   2.836   0.505 -0.2110  0.2260 -0.1974
    1SOL     OW  497   3.101   0.246   0.429  0.2333  0.8239 -0.2348
    1SOL    HW2  498   3.014   0.285   0.421  0.2616  1.2095  1.2235
    1SOL    HW3  499   3.110   0.227   0.522  1.0393 -0.7857 -0.6358
    1SOL    MW4  500   3.091   0.249   0.440  0.3436  0.6624 -0.0953
    1SOL     OW  501   2.926   4.368   0.693 -1.0093  0.3521  0.4337
    1SOL    HW2  502   2.926   4.459   0.721  0.7424  0.2709  0.7254
    1SOL    HW3  503   2.843   4.333   0.725 -1.2435  1.5744  1.1837
    1SOL    MW4  504   2.915   4.375   0.701 -0.8092  0.5026  0.5711
    1SOL     OW  505   0.285   1.944   0.492 -0.4484 -0.2343 -0.0423
    1SOL    HW2  506   0.269   1.968   0.583  1.2979  0.9120 -0.0271
    1SOL    HW3  507   0.373   1.907   0.491  0.0008  0.8098 -1.4382
    1SOL    MW4  508   0.294   1.942   0.504 -0.1588  0.0546 -0.2244
    1SOL     OW  509   1.563   1.360   0.747  0.1707 -0.0376  0.2978
    1SOL    HW2  510   1.553   1.347   0.653  0.3414  2.0076 -0.0210
    1SOL    HW3  511   1.486   1.317   0.785 -0.2631 -0.2586 -0.8143
    1SOL    MW4  512   1.551   1.353   0.740  0.1359  0.2031  0.1091
    1SOL     OW  513   1.355   3.514   0.851  0.3938  0.3771 -0.4065
    1SOL    HW2  514   1.434   3.558   0.819 -0.3542  1.0923 -1.3062
    1SOL    HW3  515   1.354   3.430   0.805  1.4112 -0.2750  0.7275
    1SOL    MW4  516   1.365   3.509   0.840  0.4294  0.3855 -0.3756
    1SOL     OW  517   3.842   2.306   0.842  0.0182 -0.2706  0.6356
    1SOL    HW2  518   3.761   2.350   0.814  0.3099 -0.4553 -0.5385
    1SOL    HW3  519   3.845   2.226   0.789 -0.4353 -1.6729  2.6616
    1SOL    MW4  520   3.831   2.301   0.831 -0.0031 -0.4799  0.7479
    1SOL     OW  521   1.971   4.652   0.813 -0.1077 -0.6335 -0.1726
    1SOL    HW2  522   2.043   4.701   0.772 -0.1550  0.3066  0.8465
    1SOL    HW3  523   1.988   4.560   0.790  1.6364 -0.4606  0.3647
    1SOL    MW4  524   1.983   4.646   0.805  0.1161 -0.4869  0.0327
    1SOL     OW  525   2.424   0.068   0.402 -0.0925  0.2097  0.0960
    1SOL    HW2  526   2.504   0.106   0.437 -0.3391  0.4528  0.3975
    1SOL    HW3  527   2.454  -0.009   0.352  0.4938  1.3782 -1.3878
    1SOL    MW4  528   2.438   0.063   0.400 -0.0474  0.3959 -0.0600
    1SOL     OW  529   1.006   0.288   0.354 -0.0222  0.2115 -0.1221
    1SOL    HW2  530   1.071   0.223   0.380  0.1031  0.0980 -0.7244
    1SOL    HW3  531   1.041   0.371   0.387  1.2547  0.4018 -1.8837
    1SOL    MW4  532   1.019   0.290   0.362  0.1628  0.2216 -0.4340
    1SOL     OW  533   0.684   2.137   0.801  0.0750 -0.1458 -0.1054
    1SOL    HW2  534   0.681   2.134   0.705  1.4048  0.1480 -0.1644
    1SOL    HW3  535   0.720   2.223   0.821 -0.1094 -0.2423  0.6624
    1SOL    MW4  536   0.688   2.148   0.791  0.2261 -0.1199 -0.0119
    1SOL     OW  537   2.532   1.756   0.348  0.0924 -0.0741  0.4520
    1SOL    HW2  538   2.445   1.717   0.352 -0.7741  1.7341 -0.2811
    1SOL    HW3  539   2.517   1.850   0.362  1.8463  0.3320 -0.2734
    1SOL    MW4  540   2.519   1.764   0.350  0.2093  0.2182  0.2596
    1SOL     OW  541   2.099   1.873   0.118 -0.5092 -0.3048 -0.0595
    1SOL    HW2  542   2.122   1.788   0.157  0.9330  0.0419 -0.1197
    1SOL    HW3  543   2.147   1.937   0.171 -1.1430  0.4342 -0.3645
    1SOL    MW4  544   2.109   1.870   0.130 -0.4025 -0.1615 -0.1077
    1SOL     OW  545   3.689   4.359   0.423 -0.6740  0.5024  0.8224
    1SOL    HW2  546   3.641   4.441   0.428 -1.4253  0.1904 -0.9134
    1SOL    HW3  547   3.776   4.383   0.389 -0.8590  0.6021  0.4168
    1SOL    MW4  548   3.694   4.373   0.419 -0.7975  0.4745  0.5398
    1SOL     OW  549   2.369   2.298   0.294  0.2654 -0.0722  0.1042
    1SOL    HW2  550   2.421   2.352   0.355 -1.1979  0.0690  1.2615
    1SOL    HW3  551   2.324   2.362   0.239 -0.6906 -0.1100  0.8208
    1SOL    MW4  552   2.370   2.314   0.295 -0.0536 -0.0587  0.3515
    1SOL     OW  553   2.598   0.524   0.443 -0.3595 -0.6225  0.2906
    1SOL    HW2  554   2.573   0.524   0.535  1.8453 -0.5865  0.9134
    1SOL    HW3  555   2.619   0.615   0.423  0.5363 -0.8518  0.1570
    1SOL    MW4  556   2.598   0.536   0.452  0.0496 -0.6480  0.3551
    1SOL     OW  557   4.188   4.606   0.833 -0.2529  0.3968 -0.4285
    1SOL    HW2  558   4.124   4.665   0.793 -0.8569 -0.0667 -0.1586
    1SOL    HW3  559   4.181   4.623   0.927 -1.4761 -1.1190 -0.2262
    1SOL    MW4  560   4.178   4.616   0.840 -0.4940  0.1354 -0.3662
    1SOL     OW  561   1.556   0.871   0.865 -0.0820 -0.2079 -0.3363
    1SOL    HW2  562   1.634   0.873   0.810 -0.1226  0.8591 -0.3551
    1SOL    HW3  563   1.483   0.888   0.804 -0.1126  1.1401  0.0579
    1SOL    MW4  564   1.556   0.873   0.850 -0.0914  0.1107 -0.2868
    1SOL     OW  565   0.668   3.895   0.854  0.3348  0.1464  0.1245
    1SOL    HW2  566   0.590   3.938   0.820  0.2148 -0.3279 -0.1988
    1SOL    HW3  567   0.670   3.810   0.811  2.1977  0.9889 -1.5338
    1SOL    MW4  568   0.658   3.890   0.844  0.5648  0.1953 -0.1370
    1SOL     OW  569   1.158   3.681   0.464  0.1722 -0.0288 -0.0692
    1SOL    HW2  570   1.147   3.659   0.557  1.2428  0.7885  0.2695
    1SOL    HW3  571   1.202   3.766   0.465  0.7917 -0.3217 -1.3216
    1SOL    MW4  572   1.163   3.690   0.476  0.3951  0.0403 -0.1898
    1SOL     OW  573   0.873   1.709   0.768  0.5409 -0.1633 -0.0485
    1SOL    HW2  574   0.867   1.792   0.815 -0.4756 -0.1097 -0.2744
    1SOL    HW3  575   0.951   1.667   0.805  0.3085  0.3058  1.0010
    1SOL    MW4  576   0.883   1.714   0.779  0.3761 -0.0944  0.0602
    1SOL     OW  577   4.148   1.336   0.611  0.1432  0.4093 -0.3571
    1SOL    HW2  578   4.185   1.367   0.694 -0.6796  1.3913 -0.3401
    1SOL    HW3  579   4.224   1.313   0.558  0.6835  0.0483  0.5693
    1SOL    MW4  580   4.163   1.337   0.615  0.1059  0.4913 -0.2327
    1SOL     OW  581   0.779   4.638   0.838 -0.0710  0.2757  0.3469
    1SOL    HW2  582   0.770   4.628   0.933 -1.3812 -0.6088  0.1447
    1SOL    HW3  583   0.732   4.563   0.802  1.1862  0.1206 -0.9917
    1SOL    MW4  584   0.772   4.627   0.846 -0.0780  0.1388  0.1437
    1SOL     OW  585   0.214   3.621   0.773 -0.1007 -0.0055 -0.0945
    1SOL    HW2  586   0.222   3.714   0.794  1.3826  0.0719 -0.9493
    1SOL    HW3  587   0.297   3.583   0.801 -1.6002 -1.5080  2.4118
    1SOL    MW4  588   0.226   3.628   0.779 -0.1029 -0.1936  0.1233
    1SOL     OW  589   4.460   3.265   0.490 -0.0624 -0.3120  0.0494
    1SOL    HW2  590   4.372   3.271   0.453  0.4021 -2.0301 -1.4171
    1SOL    HW3  591   4.484   3.173   0.480  2.0658  0.2185  0.0394
    1SOL    MW4  592   4.451   3.254   0.484  0.2799 -0.4685 -0.1454
    1SOL     OW  593   2.643   1.132   0.119 -0.4490 -0.0654  0.0268
    1SOL    HW2  594   2.622   1.148   0.026 -0.0742  0.9352  0.1076
    1SOL    HW3  595   2.557   1.121   0.160 -0.6677  0.3749 -0.2916
    1SOL    MW4  596   2.629   1.133   0.112 -0.4284  0.1247 -0.0046
    1SOL     OW  597   3.750   3.609   0.455  0.6371 -0.1200  0.3849
    1SOL    HW2  598   3.699   3.677   0.412  0.9929 -1.7923 -2.8497
    1SOL    HW3  599   3.833   3.650   0.478  0.9481  0.4954 -1.7707
    1SOL    MW4  600   3.754   3.623   0.452  0.7253 -0.2592 -0.3263
    1SOL     OW  601   2.727   1.854   0.777  0.1804 -0.2825 -0.2697
    1SOL    HW2  602   2.649   1.906   0.758  0.1326  0.0375  0.7488
    1SOL    HW3  603   2.737   1.860   0.872  2.0384  0.5349 -0.5008
    1SOL    MW4  604   2.718   1.862   0.787  0.4194 -0.1324 -0.1658
    1SOL     OW  605   1.327   4.263   0.788  0.0153  0.4266 -0.6157
    1SOL    HW2  606   1.243   4.301   0.765 -0.7095 -0.4175  0.5867
    1SOL    HW3  607   1.391   4.316   0.740 -1.0995  1.8794 -0.5479
    1SOL    MW4  608   1.325   4.275   0.779 -0.2273  0.5069 -0.4481
    1SOL     OW  609   2.201   3.399   0.493  0.3737  0.1154  0.3569
    1SOL    HW2  610   2.152   3.332   0.446  0.4278  0.4897 -0.2371
    1SOL    HW3  611   2.217   3.360   0.579 -1.3051  0.1456  0.7084
    1SOL    MW4  612   2.197   3.385   0.498  0.1595  0.1688  0.3249
    1SOL     OW  613   2.919   4.626   0.798 -0.0725  0.2166  0.1755
    1SOL    HW2  614   2.981   4.690   0.763  0.4035 -0.7739 -0.8467
    1SOL    HW3  615   2.833   4.663   0.779  0.1924  0.1896 -1.1666
    1SOL    MW4  616   2.915   4.639   0.791  0.0250  0.0830 -0.1364
    1SOL     OW  617   2.497   3.519   0.529 -0.3790 -0.2590  0.0512
    1SOL    HW2  618   2.413   3.476   0.514 -0.6154 -0.2841  1.3903
    1SOL    HW3  619   2.562   3.457   0.496 -0.8483 -0.4805 -0.4713
    1SOL    MW4  620   2.495   3.505   0.522 -0.4721 -0.2913  0.1589
    1SOL     OW  621   2.422   3.912   0.845 -0.2850 -0.1439 -0.4826
    1SOL    HW2  622   2.338   3.942   0.809 -0.5171  0.0978  0.2516
    1SOL    HW3  623   2.433   3.823   0.811 -0.8829 -0.2076 -0.5058
    1SOL    MW4  624   2.412   3.904   0.836 -0.3946 -0.1209 -0.3888
    1SOL     OW  625   2.685   3.306   0.458  0.6207 -0.2243  0.4600
    1SOL    HW2  626   2.677   3.210   0.451  0.3002 -0.1451 -0.2971
    1SOL    HW3  627   2.777   3.323   0.438  0.2329 -0.2090 -1.3791
    1SOL    MW4  628   2.696   3.295   0.454  0.5271 -0.2117  0.1175
    1SOL     OW  629   1.241   1.432   0.349  0.0552  0.2019  0.0897
    1SOL    HW2  630   1.320   1.384   0.372 -0.0654  1.0202  2.3733
    1SOL    HW3  631   1.176   1.404   0.414 -1.0729  0.7177 -0.7898
    1SOL    MW4  632   1.243   1.422   0.360 -0.1096  0.3779  0.2750
    1SOL     OW  633   3.767   1.711   0.446  0.6229  0.2665 -0.1446
    1SOL    HW2  634   3.827   1.637   0.435 -0.5552 -0.7560  0.1646
    1SOL    HW3  635   3.689   1.685   0.396 -1.1747 -0.2773  2.8492
    1SOL    MW4  636   3.765   1.698   0.438  0.2306  0.0598  0.2912
    1SOL     OW  637   4.306   2.859   0.514 -0.0409  0.2601  0.2079
    1SOL    HW2  638   4.306   2.834   0.607  0.4129  0.1073  0.1682
    1SOL    HW3  639   4.274   2.781   0.469  0.2795  0.1424  0.1853
    1SOL    MW4  640   4.302   2.845   0.520  0.0615  0.2244  0.1997
    1SOL     OW  641   3.477   2.293   0.291 -0.0909  0.4298  0.0200
    1SOL    HW2  642   3.494   2.218   0.234 -0.5161  0.3018  0.0592
    1SOL    HW3  643   3.383   2.308   0.284 -0.2659 -0.0186  1.2197
    1SOL    MW4  644   3.467   2.285   0.283 -0.1702  0.3541  0.1835
    1SOL     OW  645   2.670   0.088   0.774 -0.3239  0.0901 -0.1966
    1SOL    HW2  646   2.681   0.182   0.791 -1.5168 -0.0049  1.2084
    1SOL    HW3  647   2.576   0.073   0.784 -0.0976 -1.3234 -0.1161
    1SOL    MW4  648   2.659   0.099   0.778 -0.4518 -0.1089 -0.0006
    1SOL     OW  649   3.497   1.675   0.341 -0.5868 -0.8692 -0.3155
    1SOL    HW2  650   3.493   1.583   0.367  0.8807 -0.9265 -0.2617
    1SOL    HW3  651   3.412   1.711   0.368 -0.7038 -1.9147  0.7753
    1SOL    MW4  652   3.485   1.667   0.348 -0.4086 -1.0145 -0.1645
    1SOL     OW  653   1.306   1.992   0.832  0.0575 -0.2755 -0.5832
    1SOL    HW2  654   1.296   1.905   0.793  0.4325 -0.1461 -0.9713
    1SOL    HW3  655   1.319   1.975   0.926 -1.0306 -0.5757 -0.4771
    1SOL    MW4  656   1.307   1.979   0.840 -0.0366 -0.2980 -0.6204
    1SOL     OW  657   0.482   1.966   0.863  0.1729 -0.2493  0.1469
    1SOL    HW2  658   0.554   2.025   0.837  1.3115 -1.7089 -0.0767
    1SOL    HW3  659   0.491   1.957   0.958  1.1463 -1.5000 -0.0457
    1SOL    MW4  660   0.493   1.973   0.872  0.4515 -0.6069  0.0920
    1SOL     OW  661   4.432   4.458   0.373  0.3033  0.1982 -0.5266
    1SOL    HW2  662   4.389   4.500   0.298  0.3384 -0.6236 -1.0041
    1SOL    HW3  663   4.523   4.489   0.369  0.2019  0.4950 -0.5676
    1SOL    MW4  664   4.439   4.468   0.363  0.2942  0.1287 -0.5950
    1SOL     OW  665   0.907   3.254   0.699 -0.0788 -0.1272 -0.3147
    1SOL    HW2  666   0.918   3.243   0.604 -0.1975  0.7351 -0.4342
    1SOL    HW3  667   0.841   3.189   0.723 -1.3876  0.8784 -1.1289
    1SOL    MW4  668   0.900   3.244   0.689 -0.2672  0.1194 -0.4379
    1SOL     OW  669   1.307   3.341   0.123 -0.2144 -0.3141  0.0007
    1SOL    HW2  670   1.313   3.392   0.204 -2.3857  0.5467 -0.3383
    1SOL    HW3  671   1.360   3.389   0.060 -0.7461  0.5443  0.1921
    1SOL    MW4  672   1.314   3.354   0.126 -0.5710 -0.0875 -0.0188
    1SOL     OW  673   2.973   3.935   0.882  0.3096 -0.5672 -0.0900
    1SOL    HW2  674   2.885   3.958   0.853  0.8235  2.4936  0.5959
    1SOL    HW3  675   2.965   3.920   0.976  0.8245  1.6177  0.3290
    1SOL    MW4  676   2.960   3.936   0.890  0.4451  0.1247  0.0558
    1SOL     OW  677   0.930   1.048   0.473  0.0272  0.0151  0.3196
    1SOL    HW2  678   0.843   1.042   0.434  0.4092 -0.3195 -0.4969
    1SOL    HW3  679   0.927   0.989   0.548 -0.3728 -0.1705  0.1571
    1SOL    MW4  680   0.918   1.040   0.478  0.0248 -0.0535  0.1904
    1SOL     OW  681   1.578   3.612   0.703  0.7937  0.0093 -0.3338
    1SOL    HW2  682   1.666   3.584   0.726  1.3339  1.2186 -0.8808
    1SOL    HW3  683   1.585   3.642   0.612 -0.5023 -1.2748 -0.8652
    1SOL    MW4  684   1.590   3.613   0.694  0.6940 -0.0007 -0.4761
    1SOL     OW  685   2.568   4.458   0.290 -0.2673 -0.1442 -0.1001
    1SOL    HW2  686   2.638   4.507   0.334 -0.6827 -0.3198  0.7596
    1SOL    HW3  687   2.586   4.471   0.197 -1.4046  3.1241  0.0717
    1SOL    MW4  688   2.580   4.466   0.283 -0.4721  0.2632  0.0360
    1SOL     OW  689   4.243   0.445   0.470 -0.0005 -0.0338  0.1528
    1SOL    HW2  690   4.324   0.485   0.439  0.2305  0.2023  1.0358
    1SOL    HW3  691   4.255   0.351   0.454  0.6094 -0.0385  0.6062
    1SOL    MW4  692   4.255   0.438   0.464  0.1101 -0.0032  0.3292
    1SOL     OW  693   3.989   4.474   0.379  0.1048  0.4008  0.5231
    1SOL    HW2  694   4.045   4.408   0.419  1.1433  0.8298 -0.2120
    1SOL    HW3  695   4.022   4.484   0.290 -1.0336  0.7814  0.1278
    1SOL    MW4  696   4.000   4.467   0.372  0.0916  0.5078  0.3740
    1SOL     OW  697   2.491   2.275   0.825 -0.1922 -0.2523 -0.0561
    1SOL    HW2  698   2.574   2.317   0.802 -0.1991 -0.1770  0.0514
    1SOL    HW3  699   2.424   2.341   0.806 -0.2138 -0.2592 -0.0058
    1SOL    MW4  700   2.493   2.290   0.820 -0.1960 -0.2432 -0.0353
    1SOL     OW  701   0.206   3.380   0.360  0.0225 -0.1088 -0.0392
    1SOL    HW2  702   0.125   3.342   0.392  0.1358  0.2631  0.7093
    1SOL    HW3  703   0.213   3.464   0.405  0.7537 -0.0771 -0.1980
    1SOL    MW4  704   0.196   3.386   0.370  0.1340 -0.0553  0.0386
    1SOL     OW  705   3.159   1.918   0.793 -0.4618  0.2450 -0.3960
    1SOL    HW2  706   3.174   1.908   0.887 -0.3156 -1.9228 -0.6157
    1SOL    HW3  707   3.237   1.964   0.761 -0.1126  0.2316  0.4233
    1SOL    MW4  708   3.172   1.922   0.801 -0.3963 -0.0427 -0.3169
    1SOL     OW  709   3.014   3.585   0.290  0.4565 -0.0933 -0.4951
    1SOL    HW2  710   2.989   3.643   0.362  2.8316  1.3282 -0.7856
    1SOL    HW3  711   3.106   3.565   0.305  0.7466 -0.5341 -2.6366
    1SOL    MW4  712   3.023   3.590   0.301  0.8082  0.0360 -0.8160
    1SOL     OW  713   1.345   4.562   0.359 -0.1683  0.2482  0.4652
    1SOL    HW2  714   1.307   4.646   0.385  0.8386  1.0207 -0.5179
    1SOL    HW3  715   1.270   4.502   0.356 -0.9386  1.1632  0.9204
    1SOL    MW4  716   1.330   4.565   0.362 -0.1371  0.4711  0.3956
    1SOL     OW  717   3.100   2.707   0.855 -0.2770  0.1598 -0.7271
    1SOL    HW2  718   3.100   2.621   0.815  0.3011  0.1390 -0.6802
    1SOL    HW3  719   3.180   2.750   0.823  0.3715  0.0250  0.6385
    1SOL    MW4  720   3.111   2.702   0.846 -0.1152  0.1392 -0.5407
    1SOL     OW  721   2.690   0.362   0.847 -0.3325 -0.0755  0.2750
    1SOL    HW2  722   2.679   0.372   0.941  1.6369  0.2951  0.4843
    1SOL    HW3  723   2.774   0.404   0.828 -1.3141  1.0250 -1.8416
    1SOL    MW4  724   2.700   0.369   0.857 -0.2024  0.1186  0.0233
    1SOL     OW  725   3.137   2.487   0.687  0.0503  0.0775  0.3967
    1SOL    HW2  726   3.214   2.439   0.717  0.4784 -0.1269 -0.9739
    1SOL    HW3  727   3.080   2.420   0.650  0.2353  0.4966 -0.6697
    1SOL    MW4  728   3.140   2.472   0.686  0.1311  0.1056  0.0751
    1SOL     OW  729   2.019   2.737   0.364 -0.3209 -0.1292  0.2122
    1SOL    HW2  730   1.994   2.714   0.275 -0.8500 -1.3366  0.6578
    1SOL    HW3  731   2.086   2.672   0.388  0.0316  0.3683  0.5827
    1SOL    MW4  732   2.024   2.725   0.355 -0.3443 -0.2229  0.3199
    1SOL     OW  733   0.690   3.595   0.473 -0.5104  0.1223 -0.0515
    1SOL    HW2  734   0.620   3.652   0.441 -1.3287 -0.6269  0.3766
    1SOL    HW3  735   0.769   3.631   0.434 -1.2708  0.2903 -1.4702
    1SOL    MW4  736   0.691   3.608   0.464 -0.7187  0.0458 -0.1822
    1SOL     OW  737   1.823   2.722   0.811 -0.1494 -0.1447  0.0617
    1SOL    HW2  738   1.735   2.752   0.789 -0.4431 -0.4491  0.8078
    1SOL    HW3  739   1.881   2.788   0.771 -0.6902 -0.2088 -0.8425
    1SOL    MW4  740   1.819   2.735   0.803 -0.2595 -0.1934  0.0409
    1SOL     OW  741   2.459   3.633   0.787 -0.1100  0.2215 -0.0971
    1SOL    HW2  742   2.476   3.595   0.701  1.2791  1.3005 -0.3091
    1SOL    HW3  743   2.521   3.590   0.845 -0.8717 -0.3175  0.3335
    1SOL    MW4  744   2.469   3.622   0.783 -0.0274  0.2928 -0.0683
    1SOL     OW  745   2.667   3.287   0.722 -0.2825  0.2376  0.4910
    1SOL    HW2  746   2.678   3.295   0.628 -2.3475 -0.3258  0.1924
    1SOL    HW3  747   2.678   3.376   0.756  0.9173  0.3633 -0.2205
    1SOL    MW4  748   2.670   3.300   0.714 -0.3967  0.1798  0.3577
    1SOL     OW  749   2.703   4.267   0.828 -0.2576  0.1300 -0.6520
    1SOL    HW2  750   2.706   4.261   0.923  1.0758  2.1745 -0.5201
    1SOL    HW3  751   2.615   4.299   0.808 -0.1360  0.8523 -0.0245
    1SOL    MW4  752   2.692   4.271   0.838 -0.0658  0.4945 -0.5518
    1SOL     OW  753   0.466   3.787   0.404  0.3448 -0.1484 -0.4271
    1SOL    HW2  754   0.459   3.791   0.309 -0.7013 -0.8837 -0.3872
    1SOL    HW3  755   0.498   3.873   0.430  3.1661 -0.7922 -1.6567
    1SOL    MW4  756   0.469   3.799   0.395  0.5790 -0.3307 -0.5841
    1SOL     OW  757   1.550   4.429   0.716  0.0384 -0.3475  0.2372
    1SOL    HW2  758   1.564   4.460   0.627  0.2100  0.7858  0.6571
    1SOL    HW3  759   1.631   4.384   0.739 -0.6421 -2.1791 -0.7909
    1SOL    MW4  760   1.562   4.427   0.708 -0.0287 -0.4401  0.1570
    1SOL     OW  761   0.815   1.760   0.498  0.6110 -0.5369  0.0013
    1SOL    HW2  762   0.895   1.805   0.470 -0.0476  1.3616  1.1162
    1SOL    HW3  763   0.831   1.738   0.590 -0.1320 -0.1937  0.2153
    1SOL    MW4  764   0.828   1.763   0.507  0.4261 -0.2412  0.1766
    1SOL     OW  765   2.123   2.965   0.479 -0.0946 -0.4550  0.0973
    1SOL    HW2  766   2.219   2.957   0.481 -0.0603 -0.0607  0.0935
    1SOL    HW3  767   2.093   2.886   0.433  0.1347 -1.3271  1.4151
    1SOL    MW4  768   2.132   2.953   0.474 -0.0598 -0.5181  0.2707
    1SOL     OW  769   0.878   3.176   0.409 -0.0387  0.6059 -0.1641
    1SOL    HW2  770   0.818   3.239   0.367  0.0656  0.0272 -1.2096
    1SOL    HW3  771   0.960   3.186   0.359 -0.3129 -1.0334 -0.9607
    1SOL    MW4  772   0.881   3.186   0.397 -0.0612  0.3133 -0.4072
    1SOL     OW  773   1.767   2.639   0.468  0.0377  0.5973  0.4604
    1SOL    HW2  774   1.847   2.689   0.449 -0.3474  0.9823 -0.1736
    1SOL    HW3  775   1.793   2.577   0.536  0.6951  1.2099  0.7739
    1SOL    MW4  776   1.781   2.637   0.474  0.0738  0.7288  0.4181
    1SOL     OW  777   3.272   3.514   0.407 -0.1285 -0.2013  0.4557
    1SOL    HW2  778   3.356   3.471   0.418  0.4087  0.9838  1.0870
    1SOL    HW3  779   3.289   3.606   0.430 -1.1457  0.4381 -1.2497
    1SOL    MW4  780   3.285   3.521   0.412 -0.1919  0.0393  0.3139
    1SOL     OW  781   1.227   0.139   0.424  0.5110 -0.1433 -0.4052
    1SOL    HW2  782   1.281   0.184   0.360 -0.0544  1.0408 -0.0573
    1SOL    HW3  783   1.275   0.147   0.507  0.5359 -0.4010 -0.3946
    1SOL    MW4  784   1.240   0.146   0.427  0.4396 -0.0211 -0.3579
    1SOL     OW  785   4.465   3.969   0.438  0.0949  0.0550  0.0422
    1SOL    HW2  786   4.486   3.878   0.416  0.5279  0.4599 -1.2922
    1SOL    HW3  787   4.477   3.975   0.533  1.5181 -0.9036 -0.0696
    1SOL    MW4  788   4.469   3.958   0.448  0.3395 -0.0181 -0.1486
    1SOL     OW  789   4.009   0.138   0.720  0.1981  0.4187 -0.1742
    1SOL    HW2  790   3.996   0.177   0.633 -0.1759  0.1574 -0.2393
    1SOL    HW3  791   4.041   0.210   0.774  0.2481  0.6305 -0.4836
    1SOL    MW4  792   4.011   0.153   0.716  0.1559  0.4122 -0.2236
    1SOL     OW  793   0.644   1.018   0.443  0.2380 -0.4582  0.7036
    1SOL    HW2  794   0.677   0.930   0.427 -0.5695 -0.6568  0.0883
    1SOL    HW3  795   0.549   1.009   0.442  0.1097  0.7569 -1.4097
    1SOL    MW4  796   0.636   1.005   0.441  0.1145 -0.3241  0.3436
    1SOL     OW  797   2.036   0.606   0.494  0.0111  0.2220  0.0115
    1SOL    HW2  798   2.113   0.561   0.460  0.4786  1.4462 -0.5868
    1SOL    HW3  799   2.027   0.574   0.584  1.0747 -0.1194  0.0015
    1SOL    MW4  800   2.045   0.596   0.501  0.2131  0.3385 -0.0688
    1SOL     OW  801   0.648   0.533   0.496  0.2693  0.3062 -0.0703
    1SOL    HW2  802   0.644   0.530   0.592  2.7910 -0.5111  0.0620
    1SOL    HW3  803   0.681   0.446   0.471 -0.9154  0.3201 -1.7159
    1SOL    MW4  804   0.652   0.521   0.506  0.4457  0.2002 -0.2699
    1SOL     OW  805   2.242   0.354   0.789  0.3476  0.1197 -0.3114
    1SOL    HW2  806   2.219   0.273   0.744 -0.0165  0.7118 -1.2117
    1SOL    HW3  807   2.169   0.414   0.770  1.0243  0.9360 -0.3857
    1SOL    MW4  808   2.229   0.351   0.780  0.3889  0.3055 -0.4400
    1SOL     OW  809   3.314   4.391   0.677  0.1875 -0.1845 -0.5322
    1SOL    HW2  810   3.312   4.483   0.703  1.1245 -0.7483  1.6848
    1SOL    HW3  811   3.260   4.347   0.741  1.2082 -1.4219 -0.5101
    1SOL    MW4  812   3.307   4.398   0.689  0.4458 -0.4225 -0.2367
    1SOL     OW  813   3.560   4.303   0.805  0.0293 -0.5963 -0.2653
    1SOL    HW2  814   3.496   4.345   0.748  0.3770 -0.5277 -0.6079
    1SOL    HW3  815   3.553   4.210   0.786 -0.2311 -0.6226 -0.0334
    1SOL    MW4  816   3.551   4.297   0.795  0.0408 -0.5908 -0.2798
    1SOL     OW  817   0.728   4.171   0.356  0.1887  0.2426 -0.3293
    1SOL    HW2  818   0.723   4.264   0.378  0.9384  0.4008 -0.8003
    1SOL    HW3  819   0.780   4.168   0.275 -1.1205 -0.4549 -1.1773
    1SOL    MW4  820   0.734   4.183   0.348  0.1149  0.1717 -0.5033
    1SOL     OW  821   2.468   2.501   0.499 -0.4971  0.1953  0.0623
    1SOL    HW2  822   2.557   2.529   0.522 -1.4809  2.6422  1.0096
    1SOL    HW3  823   2.423   2.492   0.583 -1.6261  0.6491 -0.4773
    1SOL    MW4  824   2.474   2.503   0.513 -0.7758  0.5779  0.1161
    1SOL     OW  825   3.388   0.510   0.700  0.2065  0.5103  0.2730
    1SOL    HW2  826   3.383   0.495   0.606  1.2044  1.9006 -0.0139
    1SOL    HW3  827   3.474   0.478   0.726 -0.1609 -0.0877  0.7489
    1SOL    MW4  828   3.398   0.504   0.691  0.2897  0.6148  0.2979
    1SOL     OW  829   0.564   2.517   0.476 -0.4388  0.2796 -0.2501
    1SOL    HW2  830   0.526   2.581   0.417  0.9396 -0.3114 -1.8346
    1SOL    HW3  831   0.564   2.435   0.426  1.0984 -0.1417  0.4063
    1SOL    MW4  832   0.559   2.514   0.462 -0.0541  0.1462 -0.3726
    1SOL     OW  833   0.088   4.213   0.374 -0.4440  0.8438 -0.1735
    1SOL    HW2  834   0.046   4.127   0.368  0.7021  0.3705 -1.6238
    1SOL    HW3  835   0.015   4.274   0.390 -1.1024 -0.5517  2.5856
    1SOL    MW4  836   0.073   4.210   0.376 -0.3796  0.5975 -0.0008
    1SOL     OW  837   0.355   0.971   0.457  0.1287  0.2401  0.2172
    1SOL    HW2  838   0.375   0.944   0.547  0.3488  0.6489  0.2893
    1SOL    HW3  839   0.326   1.061   0.464  0.6698  0.4538 -0.1851
    1SOL    MW4  840   0.354   0.979   0.470  0.2291  0.3222  0.1736
    1SOL     OW  841   2.019   3.649   0.787  0.2705 -0.6556  0.2098
    1SOL    HW2  842   2.091   3.597   0.823 -0.9032 -1.7503  1.0164
    1SOL    HW3  843   1.942   3.592   0.794 -0.2721 -0.3525 -2.6812
    1SOL    MW4  844   2.018   3.635   0.793  0.0441 -0.7601 -0.0653
    1SOL     OW  845   4.094   0.362   0.847 -0.2648  0.4248 -0.2127
    1SOL    HW2  846   4.175   0.402   0.815 -0.4503  0.7401 -0.2842
    1SOL    HW3  847   4.024   0.404   0.796 -0.4785  0.1876 -0.1181
    1SOL    MW4  848   4.095   0.373   0.836 -0.3176  0.4351 -0.2097
    1SOL     OW  849   2.906   1.869   0.410  0.3121  0.1471 -0.1298
    1SOL    HW2  850   2.882   1.777   0.415 -1.1441  0.4068 -1.9011
    1SOL    HW3  851   2.899   1.901   0.499  1.2142 -1.5361  0.5710
    1SOL    MW4  852   2.902   1.861   0.422  0.2387 -0.0407 -0.2710
    1SOL     OW  853   1.101   3.203   0.274 -0.4763  0.1230 -0.1827
    1SOL    HW2  854   1.139   3.250   0.199 -0.7295  0.3528 -0.1686
    1SOL    HW3  855   1.170   3.204   0.340 -0.9495  1.6246  0.2933
    1SOL    MW4  856   1.115   3.209   0.273 -0.5721  0.3514 -0.1180
    1SOL     OW  857   0.838   2.414   0.311 -0.7346 -0.1813 -0.4512
    1SOL    HW2  858   0.748   2.382   0.314  0.0600 -2.4159  1.8458
    1SOL    HW3  859   0.837   2.494   0.363 -1.3591 -0.2954 -0.2852
    1SOL    MW4  860   0.826   2.420   0.318 -0.7122 -0.4911 -0.1263
    1SOL     OW  861   2.114   3.944   0.437 -0.0786 -0.1769 -0.3781
    1SOL    HW2  862   2.024   3.971   0.417 -0.0228 -0.2383 -0.7037
    1SOL    HW3  863   2.106   3.850   0.457  0.2657 -0.7375 -2.7001
    1SOL    MW4  864   2.101   3.935   0.437 -0.0260 -0.2589 -0.7274
    1SOL     OW  865   3.498   1.395   0.438 -0.7258  0.3126 -0.6140
    1SOL    HW2  866   3.465   1.415   0.525  0.8885 -0.8811  0.2970
    1SOL    HW3  867   3.458   1.311   0.416  1.0495 -0.7945  0.2038
    1SOL    MW4  868   3.488   1.387   0.446 -0.2782  0.0092 -0.3859
    1SOL     OW  869   0.755   2.418   0.846  0.2940  0.1591  0.0233
    1SOL    HW2  870   0.730   2.399   0.936 -0.5887 -2.0676 -0.6654
    1SOL    HW3  871   0.672   2.431   0.800  0.7298  1.1382 -0.5037
    1SOL    MW4  872   0.741   2.417   0.852  0.2351 -0.0055 -0.1371
    1SOL     OW  873   0.231   3.640   0.484  0.0012 -0.0781  0.4724
    1SOL    HW2  874   0.299   3.702   0.458 -0.8843  0.5146 -0.4421
    1SOL    HW3  875   0.242   3.631   0.579  0.9337  0.5084  0.4254
    1SOL    MW4  876   0.242   3.647   0.493  0.0074  0.0772  0.3455
    1SOL     OW  877   3.335   2.811   0.738 -0.2858  0.1627 -0.2436
    1SOL    HW2  878   3.330   2.897   0.780 -1.9624 -0.6480  1.2799
    1SOL    HW3  879   3.416   2.772   0.772 -0.6682  0.2661  0.7998
    1SOL    MW4  880   3.345   2.817   0.748 -0.5574  0.0696  0.0951
    1SOL     OW  881   0.491   2.714   0.883 -0.5151 -0.4430  0.1456
    1SOL    HW2  882   0.563   2.764   0.846  0.4406 -1.4017  0.6886
    1SOL    HW3  883   0.486   2.635   0.829 -0.9147 -0.5471  0.3286
    1SOL    MW4  884   0.499   2.710   0.871 -0.4418 -0.5834  0.2413
    1SOL     OW  885   2.816   0.375   0.469  0.0545  0.5439 -0.2349
    1SOL    HW2  886   2.844   0.409   0.554 -1.8412  1.0081  0.2336
    1SOL    HW3  887   2.744   0.432   0.444 -0.6772 -0.8057 -1.2429
    1SOL    MW4  888   2.810   0.387   0.477 -0.2921  0.4271 -0.3061
    1SOL     OW  889   2.194   3.995   0.699 -0.4377  0.5293  0.0642
    1SOL    HW2  890   2.174   3.985   0.606 -0.0049 -0.0908  0.0381
    1SOL    HW3  891   2.117   3.960   0.743  0.4403 -1.5754 -0.0430
    1SOL    MW4  892   2.181   3.989   0.693 -0.2649  0.1698  0.0467
    1SOL     OW  893   1.332   3.951   0.731  0.2946  0.0109  0.0209
    1SOL    HW2  894   1.253   3.927   0.780 -0.1425 -1.1471 -1.2165
    1SOL    HW3  895   1.340   4.046   0.744 -1.0345  0.0614  0.5543
    1SOL    MW4  896   1.323   3.961   0.739  0.0615 -0.1352 -0.0720
    1SOL     OW  897   3.681   1.015   0.482 -0.3546 -0.0088 -0.0990
    1SOL    HW2  898   3.736   1.092   0.467  0.5041 -0.3318  1.2950
    1SOL    HW3  899   3.592   1.045   0.463 -0.2122  1.7577  1.8244
    1SOL    MW4  900   3.677   1.029   0.478 -0.2227  0.1817  0.3387
    1SOL     OW  901   4.486   1.903   0.886 -0.3274 -0.5580 -0.1647
    1SOL    HW2  902   4.561   1.958   0.864  0.4636 -1.9261 -0.9888
    1SOL    HW3  903   4.506   1.818   0.844 -1.2992 -1.5942  1.4402
    1SOL    MW4  904   4.499   1.899   0.877 -0.3513 -0.8752 -0.0616
    1SOL     OW  905   0.239   1.332   0.782  0.5467 -0.2048 -0.0143
    1SOL    HW2  906   0.159   1.285   0.759  1.1310 -0.0812 -2.4655
    1SOL    HW3  907   0.300   1.265   0.812  0.0526 -0.4976  0.3286
    1SOL    MW4  908   0.237   1.317   0.783  0.5586 -0.2271 -0.2925
    1SOL     OW  909   3.538   3.103   0.477  0.1666  0.2769  0.4511
    1SOL    HW2  910   3.529   3.193   0.445 -1.6052 -0.6807 -1.8539
    1SOL    HW3  911   3.623   3.074   0.443  0.0701  0.5666 -0.0433
    1SOL    MW4  912   3.548   3.111   0.469 -0.0801  0.1891  0.0818
    1SOL     OW  913   1.617   2.486   0.271 -0.4815  0.2199 -0.0086
    1SOL    HW2  914   1.525   2.512   0.274 -0.4257  0.4483 -0.2634
    1SOL    HW3  915   1.658   2.535   0.342 -0.5587  0.1052  0.1159
    1SOL    MW4  916   1.611   2.496   0.281 -0.4843  0.2346 -0.0258
    1SOL     OW  917   3.123   1.131   0.857 -0.2676  0.2804  0.4599
    1SOL    HW2  918   3.199   1.177   0.821 -0.5333 -0.1285 -0.6671
    1SOL    HW3  919   3.131   1.141   0.952  2.0272 -1.0431  0.4546
    1SOL    MW4  920   3.134   1.138   0.865  0.0002  0.0517  0.3105
    1SOL     OW  921   2.952   3.328   0.395 -0.3330 -0.0296 -0.6018
    1SOL    HW2  922   3.032   3.290   0.433 -0.8913 -0.8249 -0.2091
    1SOL    HW3  923   2.982   3.407   0.351  0.5984 -0.0355 -0.0023
    1SOL    MW4  924   2.967   3.333   0.394 -0.2840 -0.1352 -0.4709
    1SOL     OW  925   1.344   0.952   0.683  0.2682  0.4428  0.2899
    1SOL    HW2  926   1.324   1.043   0.706  1.2855  0.4743  1.0843
    1SOL    HW3  927   1.269   0.902   0.715 -0.0019  0.9273  0.4187
    1SOL    MW4  928   1.332   0.957   0.690  0.3667  0.5108  0.4117
    1SOL     OW  929   3.941   0.525   0.445 -0.3214  0.2598  0.2578
    1SOL    HW2  930   3.923   0.614   0.474 -2.1652 -0.7097  2.2472
    1SOL    HW3  931   4.036   0.522   0.434 -0.3801  2.9130 -1.4781
    1SOL    MW4  932   3.951   0.536   0.447 -0.5724  0.4820  0.2913
    1SOL     OW  933   4.061   2.470   0.746 -0.1457  0.0753 -0.5134
    1SOL    HW2  934   4.137   2.431   0.789  0.3063  0.2716 -1.1395
    1SOL    HW3  935   3.987   2.418   0.779  0.3681 -0.8137 -0.7199
    1SOL    MW4  936   4.061   2.458   0.756 -0.0186 -0.0160 -0.6233
    1SOL     OW  937   1.848   1.817   0.421 -0.5451 -0.0463  0.3985
    1SOL    HW2  938   1.888   1.901   0.442 -2.6045  1.0309  0.0926
    1SOL    HW3  939   1.838   1.773   0.506 -0.5298  0.4912  0.6773
    1SOL    MW4  940   1.852   1.822   0.435 -0.8148  0.1667  0.3950
    1SOL     OW  941   1.054   0.837   0.329 -0.5389  0.3551 -0.4312
    1SOL    HW2  942   1.142   0.847   0.294 -0.6930 -0.4393 -1.0773
    1SOL    HW3  943   1.034   0.921   0.369  0.8505  0.2494  0.5079
    1SOL    MW4  944   1.063   0.849   0.329 -0.3760  0.2363 -0.3925
    1SOL     OW  945   1.930   0.401   0.272  0.0983  0.0007 -0.6089
    1SOL    HW2  946   1.852   0.372   0.319  0.4265 -0.1937 -0.1837
    1SOL    HW3  947   1.906   0.486   0.235 -0.8163 -0.7096 -1.7144
    1SOL    MW4  948   1.916   0.408   0.273  0.0211 -0.1187 -0.6986
    1SOL     OW  949   4.047   0.888   0.732  0.5416  0.0085 -0.0579
    1SOL    HW2  950   4.048   0.968   0.784 -0.1510 -0.3737  0.5413
    1SOL    HW3  951   4.122   0.838   0.764 -0.8334 -0.9592  1.7296
    1SOL    MW4  952   4.057   0.892   0.743  0.2689 -0.1696  0.2571
    1SOL     OW  953   1.062   1.782   0.333 -0.3874 -0.4044 -0.2713
    1SOL    HW2  954   1.039   1.703   0.283 -0.1432 -0.1300 -0.8237
    1SOL    HW3  955   1.115   1.834   0.272  1.8278 -1.0897  0.9951
    1SOL    MW4  956   1.066   1.778   0.318 -0.0631 -0.4586 -0.1771
    1SOL     OW  957   0.644   3.342   0.359 -0.1007 -0.6518 -0.2628
    1SOL    HW2  958   0.564   3.346   0.307  1.5368  1.3057 -2.7611
    1SOL    HW3  959   0.651   3.429   0.399  0.5335 -0.9731  0.3342
    1SOL    MW4  960   0.635   3.354   0.357  0.1991 -0.4361 -0.5136
    1SOL     OW  961   1.422   3.047   0.191 -0.2379  0.0469  0.5676
    1SOL    HW2  962   1.388   2.975   0.244 -0.6355 -0.5591 -0.5057
    1SOL    HW3  963   1.354   3.114   0.194 -1.3164 -0.9371 -1.1138
    1SOL    MW4  964   1.409   3.046   0.198 -0.4327 -0.1628  0.2041
    1SOL     OW  965   1.183   2.119   0.322 -0.0498  0.4111  0.5898
    1SOL    HW2  966   1.177   2.060   0.247 -0.4762 -0.1705  1.0717
    1SOL    HW3  967   1.273   2.109   0.353 -0.3621 -0.6542  1.1923
    1SOL    MW4  968   1.194   2.110   0.317 -0.1471  0.1936  0.7328
    1SOL     OW  969   3.394   1.134   0.455 -0.0702 -0.0011  0.4658
    1SOL    HW2  970   3.316   1.082   0.434 -0.0881  0.5053 -0.7732
    1SOL    HW3  971   3.369   1.184   0.533 -1.4507  1.0876 -0.6314
    1SOL    MW4  972   3.381   1.134   0.462 -0.2549  0.2092  0.1575
    1SOL     OW  973   1.892   2.154   0.160  0.1891 -0.0130 -0.5577
    1SOL    HW2  974   1.857   2.082   0.109  0.2117 -0.5258  0.1379
    1SOL    HW3  975   1.983   2.129   0.178 -0.1268 -0.3454  0.6341
    1SOL    MW4  976   1.899   2.141   0.156  0.1504 -0.1245 -0.3087
    1SOL     OW  977   3.986   2.515   0.490 -0.0196  0.5670  0.0772
    1SOL    HW2  978   4.011   2.503   0.582 -3.4014  0.3269  1.0284
    1SOL    HW3  979   3.975   2.426   0.457  0.9784  0.6581 -0.5178
    1SOL    MW4  980   3.988   2.502   0.498 -0.3343  0.5474  0.1242
    1SOL     OW  981   3.816   3.007   0.420 -0.0740  0.1860 -0.0262
    1SOL    HW2  982   3.908   3.026   0.438  0.1593  1.3919 -2.2770
    1SOL    HW3  983   3.815   2.914   0.397  0.9825  0.6709 -2.1816
    1SOL    MW4  984   3.828   2.997   0.419  0.0963  0.4091 -0.6076
    1SOL     OW  985   1.320   2.712   0.789 -0.1960  0.6648  0.0408
    1SOL    HW2  986   1.318   2.721   0.885  0.5306  1.8088 -0.0352
    1SOL    HW3  987   1.250   2.770   0.759 -0.6821  0.0068 -0.1131
    1SOL    MW4  988   1.310   2.721   0.798 -0.1643  0.7288  0.0104
    1SOL     OW  989   3.568   4.601   0.469 -0.1631 -0.4466  0.0341
    1SOL    HW2  990   3.484   4.610   0.425 -1.5867 -0.2809  2.6913
    1SOL    HW3  991   3.556   4.646   0.552  2.3313 -1.0509  0.7508
    1SOL    MW4  992   3.555   4.608   0.474 -0.0217 -0.5050  0.4793
    1SOL     OW  993   4.019   3.472   0.828  0.2540 -0.0562  0.0955
    1SOL    HW2  994   4.024   3.387   0.784 -0.1150  0.6359 -1.3069
    1SOL    HW3  995   4.027   3.451   0.921  1.1151 -1.5358 -0.2942
    1SOL    MW4  996   4.021   3.458   0.835  0.3185 -0.1600 -0.1409
    1SOL     OW  997   0.471   0.365   0.875 -0.0319  0.3227 -0.3526
    1SOL    HW2  998   0.399   0.392   0.817 -0.8552 -0.4379  0.3076
    1SOL    HW3  999   0.512   0.292   0.829  0.8614  1.2969 -1.1301
    1SOL    MW4 1000   0.467   0.359   0.861 -0.0226  0.3508 -0.3681
    1SOL     OW 1001   2.360   4.051   0.332 -0.1208 -0.2815  0.3456
    1SOL    HW2 1002   2.416   3.975   0.347  0.5367  0.3886  1.3529
    1SOL    HW3 1003   2.275   4.025   0.368 -1.1624 -2.1406 -3.1836
    1SOL    MW4 1004   2.356   4.037   0.339 -0.1717 -0.4387  0.0128
    1SOL     OW 1005   0.019   0.339   0.823 -0.0559  0.1210  0.0598
    1SOL    HW2 1006   0.098   0.389   0.804 -0.8930  1.7933  0.8325
    1SOL    HW3 1007   0.010   0.344   0.918 -0.8407 -0.4418  0.0209
    1SOL    MW4 1008   0.028   0.347   0.833 -0.2699  0.2674  0.1566
    1SOL     OW 1009   2.188   2.091   0.260  0.0050  0.2353  0.4013
    1SOL    HW2 1010   2.150   2.073   0.346 -1.7619  0.2979 -0.3449
    1SOL    HW3 1011   2.235   2.174   0.271  0.6708 -0.2898  1.5677
    1SOL    MW4 1012   2.189   2.100   0.273 -0.1402  0.1743  0.4568
    1SOL     OW 1013   0.257   0.757   0.828  0.3303 -0.0340 -0.1565
    1SOL    HW2 1014   0.248   0.748   0.923  0.0797 -0.9285 -0.2610
    1SOL    HW3 1015   0.182   0.811   0.803 -0.8584 -1.6197 -0.1139
    1SOL    MW4 1016   0.246   0.763   0.838  0.1405 -0.3612 -0.1647
    1SOL     OW 1017   0.033   0.884   0.692 -0.1175 -0.2068 -0.4092
    1SOL    HW2 1018  -0.051   0.844   0.717  1.1975 -1.3705  2.3327
    1SOL    HW3 1019   0.021   0.977   0.709 -0.3269 -0.5747  1.5093
    1SOL    MW4 1020   0.020   0.891   0.697  0.0284 -0.4089  0.2057
    1SOL     OW 1021   0.116   1.433   0.359 -0.0970 -0.3258  0.0581
    1SOL    HW2 1022   0.066   1.501   0.404  0.4385 -0.4339  0.8238
    1SOL    HW3 1023   0.157   1.477   0.285  0.3874  0.2201  0.6490
    1SOL    MW4 1024   0.115   1.448   0.355  0.0376 -0.2680  0.2371
    1SOL     OW 1025   0.013   1.183   0.690 -0.5075 -0.0111 -0.7366
    1SOL    HW2 1026  -0.019   1.219   0.607 -0.2747 -0.8000 -1.1768
    1SOL    HW3 1027  -0.060   1.196   0.751 -0.7390  0.4314 -1.1007
    1SOL    MW4 1028  -0.001   1.189   0.687 -0.5073 -0.0570 -0.8428
    1SOL     OW 1029   0.253   1.609   0.860 -0.0072 -0.0156  0.0300
    1SOL    HW2 1030   0.258   1.516   0.835 -0.2575  0.1320 -0.5747
    1SOL    HW3 1031   0.326   1.650   0.814  0.1296  0.0844  0.3328
    1SOL    MW4 1032   0.263   1.602   0.851 -0.0221  0.0170 -0.0099
    1SOL     OW 1033   1.114   2.873   0.714  0.0959 -0.0792 -0.1847
    1SOL    HW2 1034   1.052   2.808   0.746  0.4966 -0.6480 -0.5464
    1SOL    HW3 1035   1.097   2.878   0.620  0.5816 -0.2255 -0.2833
    1SOL    MW4 1036   1.104   2.865   0.705  0.2130 -0.1738 -0.2454
    1SOL     OW 1037   4.380   1.910   0.159 -0.5453 -0.1331  0.8673
    1SOL    HW2 1038   4.431   1.899   0.079 -0.4069 -2.2524  1.2221
    1SOL    HW3 1039   4.443   1.896   0.230 -0.4445  2.7105  1.4062
    1SOL    MW4 1040   4.395   1.906   0.158 -0.5140 -0.0376  0.9852
    1SOL     OW 1041   1.075   2.353   0.824 -0.5074 -0.5871  0.0081
    1SOL    HW2 1042   1.069   2.257   0.821 -0.8551 -0.5913  0.8245
    1SOL    HW3 1043   1.157   2.373   0.779  0.2136 -1.3430  0.9661
    1SOL    MW4 1044   1.085   2.343   0.817 -0.4581 -0.6871  0.2422
    1SOL     OW 1045   0.394   2.694   0.319 -0.2970 -0.3753  0.1031
    1SOL    HW2 1046   0.367   2.729   0.234  0.3423  1.1344  0.5049
    1SOL    HW3 1047   0.320   2.713   0.378  0.2264  0.7007  0.4205
    1SOL    MW4 1048   0.381   2.701   0.316 -0.1436 -0.0336  0.1980
    1SOL     OW 1049   4.304   2.330   0.846  0.0506  0.0451 -0.3493
    1SOL    HW2 1050   4.304   2.247   0.797  1.7434 -1.0515  1.4279
    1SOL    HW3 1051   4.390   2.368   0.828  1.0690 -0.8321  2.4642
    1SOL    MW4 1052   4.315   2.324   0.837  0.4086 -0.2153  0.2564
    1SOL     OW 1053   4.384   1.274   0.457 -0.0588  0.1496 -0.4826
    1SOL    HW2 1054   4.382   1.193   0.406  2.8100 -0.5882  0.4640
    1SOL    HW3 1055   4.445   1.331   0.410 -1.3325  1.4308 -0.6241
    1SOL    MW4 1056   4.392   1.271   0.444  0.1512  0.2213 -0.3765
    1SOL     OW 1057   4.111   1.671   0.750  0.3984  0.4478 -0.6181
    1SOL    HW2 1058   4.026   1.629   0.765  0.2004  1.4695  1.2237
    1SOL    HW3 1059   4.172   1.619   0.803  0.5557  1.0308 -0.2306
    1SOL    MW4 1060   4.108   1.658   0.759  0.3924  0.6595 -0.3240
    1SOL     OW 1061   0.259   3.143   0.846 -0.2416 -0.1718  0.2884
    1SOL    HW2 1062   0.248   3.146   0.941  0.0467 -0.3399  0.3287
    1SOL    HW3 1063   0.174   3.170   0.811 -0.1494  0.5334  0.5979
    1SOL    MW4 1064   0.247   3.147   0.854 -0.1914 -0.1009  0.3346
    1SOL     OW 1065   1.219   1.906   0.148  0.3767  0.3156 -0.1359
    1SOL    HW2 1066   1.227   1.890   0.054 -0.2251  2.9260 -0.6703
    1SOL    HW3 1067   1.304   1.880   0.184  1.1635  0.8122 -1.6238
    1SOL    MW4 1068   1.231   1.900   0.141  0.4010  0.7256 -0.4027
    1SOL     OW 1069   0.079   2.347   0.396 -0.3835 -0.2094  0.5284
    1SOL    HW2 1070   0.166   2.310   0.384 -1.1230 -1.4014 -1.4144
    1SOL    HW3 1071   0.023   2.272   0.413 -1.5191  0.2425 -1.1480
    1SOL    MW4 1072   0.083   2.332   0.397 -0.6309 -0.3071  0.0509
    1SOL     OW 1073   0.011   3.232   0.770  0.2334 -0.1764 -0.0253
    1SOL    HW2 1074   0.009   3.258   0.678  0.6159  0.9894  0.2799
    1SOL    HW3 1075  -0.002   3.314   0.817  0.3434 -0.7277  0.9687
    1SOL    MW4 1076   0.009   3.247   0.764  0.2984 -0.0954  0.1462
    1SOL     OW 1077   0.473   3.510   0.839 -0.4481  0.1241 -0.2898
    1SOL    HW2 1078   0.484   3.509   0.934  0.4407 -0.0439 -0.3896
    1SOL    HW3 1079   0.486   3.419   0.812 -0.3221  0.2379 -0.6194
    1SOL    MW4 1080   0.476   3.498   0.848 -0.3142  0.1171 -0.3464
    1SOL     OW 1081   0.498   2.471   0.742 -0.0919 -0.3380 -0.0948
    1SOL    HW2 1082   0.496   2.490   0.648  0.3517  0.1874 -0.0035
    1SOL    HW3 1083   0.430   2.405   0.755  1.0399 -1.7404 -1.0846
    1SOL    MW4 1084   0.489   2.465   0.731  0.1160 -0.4539 -0.2133
    1SOL     OW 1085   0.445   1.154   0.844 -0.2179  0.1021  0.0241
    1SOL    HW2 1086   0.450   1.068   0.803  2.1167  0.2081  0.0323
    1SOL    HW3 1087   0.521   1.202   0.811 -0.7558  1.7123  1.0322
    1SOL    MW4 1088   0.456   1.149   0.835  0.0191  0.3284  0.1582
    1SOL     OW 1089   0.539   0.102   0.764  0.1245  0.1836  0.6028
    1SOL    HW2 1090   0.538   0.085   0.670  0.3064  0.2658  0.5869
    1SOL    HW3 1091   0.623   0.068   0.794  0.2377  0.5219  0.6691
    1SOL    MW4 1092   0.550   0.096   0.756  0.1635  0.2391  0.6095
    1SOL     OW 1093   0.481   0.389   1.149 -0.8066  0.2909 -0.1689
    1SOL    HW2 1094   0.475   0.380   1.054  0.6592 -0.1950 -0.2263
    1SOL    HW3 1095   0.396   0.425   1.175 -0.5431  2.2477 -1.8887
    1SOL    MW4 1096   0.469   0.393   1.140 -0.5784  0.4849 -0.4033
    1SOL     OW 1097   2.047   2.046   0.752  0.2547 -0.4001  0.1057
    1SOL    HW2 1098   2.058   2.142   0.747 -0.7652 -0.2034  1.4002
    1SOL    HW3 1099   1.955   2.034   0.775  1.0329 -1.5836  2.7887
    1SOL    MW4 1100   2.036   2.057   0.755  0.2229 -0.5302  0.6305
    1SOL     OW 1101   3.367   1.277   0.704  0.1415 -0.3078  0.4316
    1SOL    HW2 1102   3.444   1.233   0.740  0.6175 -0.1017 -0.3227
    1SOL    HW3 1103   3.381   1.370   0.723  0.0226 -0.2871  0.4167
    1SOL    MW4 1104   3.379   1.283   0.711  0.1884 -0.2780  0.3301
    1SOL     OW 1105   3.651   1.676   0.694  0.2885  0.1827 -0.0623
    1SOL    HW2 1106   3.560   1.654   0.712  0.3103  0.0723 -0.0856
    1SOL    HW3 1107   3.650   1.715   0.607  0.2395  0.3437  0.0098
    1SOL    MW4 1108   3.639   1.678   0.685  0.2849  0.1894 -0.0559
    1SOL     OW 1109   0.923   0.178   0.728 -0.0220 -0.0788  0.0328
    1SOL    HW2 1110   0.892   0.188   0.638  0.4101  0.0439 -0.1043
    1SOL    HW3 1111   0.879   0.100   0.761 -0.3995  0.0393 -0.1906
    1SOL    MW4 1112   0.913   0.169   0.721 -0.0148 -0.0471 -0.0148
    1SOL     OW 1113   0.694   2.836   0.755 -0.2411 -0.4878 -0.4303
    1SOL    HW2 1114   0.695   2.926   0.787 -0.8163 -0.3726 -0.7327
    1SOL    HW3 1115   0.646   2.840   0.672 -0.1498 -1.0489 -0.5160
    1SOL    MW4 1116   0.688   2.848   0.748 -0.3049 -0.5467 -0.4815
    1SOL     OW 1117   1.106   0.565   0.431 -0.3923  0.2905 -0.4693
    1SOL    HW2 1118   1.130   0.566   0.524  1.6092  0.6170 -0.9626
    1SOL    HW3 1119   1.098   0.657   0.407 -2.0724  0.1836 -0.3448
    1SOL    MW4 1120   1.108   0.577   0.440 -0.3499  0.3195 -0.5180
    1SOL     OW 1121   0.498   3.255   0.772 -0.3752 -0.5943  0.6891
    1SOL    HW2 1122   0.478   3.237   0.680 -2.7634 -0.0781  1.0789
    1SOL    HW3 1123   0.420   3.225   0.820  0.3957  0.1434  2.4376
    1SOL    MW4 1124   0.485   3.249   0.766 -0.5886 -0.4289  0.9713
    1SOL     OW 1125   0.707   1.271   0.769 -0.3267 -0.4832  0.2773
    1SOL    HW2 1126   0.706   1.255   0.675 -1.2891 -0.3905  0.2603
    1SOL    HW3 1127   0.702   1.366   0.777  0.2909 -0.4643  0.4146
    1SOL    MW4 1128   0.706   1.281   0.758 -0.3722 -0.4684  0.2932
    1SOL     OW 1129   2.978   1.539   0.799 -0.0598  0.5186 -0.1455
    1SOL    HW2 1130   2.887   1.559   0.777 -0.1385 -0.3203 -0.6266
    1SOL    HW3 1131   3.029   1.607   0.753 -0.5763  2.8793  2.6335
    1SOL    MW4 1132   2.973   1.551   0.790 -0.1385  0.7194  0.1578
    1SOL     OW 1133   4.490   1.673   0.756 -0.3571  0.8429  0.2956
    1SOL    HW2 1134   4.433   1.635   0.822 -1.7910  1.7622 -0.4029
    1SOL    HW3 1135   4.578   1.644   0.781 -1.0741 -0.2678  1.5884
    1SOL    MW4 1136   4.494   1.664   0.768 -0.6409  0.8177  0.3740
    1SOL     OW 1137   1.290   3.905   0.454  0.2470  0.0957 -0.3100
    1SOL    HW2 1138   1.300   3.943   0.542  1.5474 -0.8787 -0.0194
    1SOL    HW3 1139   1.377   3.914   0.415 -0.4168  0.8353 -1.6340
    1SOL    MW4 1140   1.303   3.911   0.461  0.3309  0.0648 -0.4464
    1SOL     OW 1141   0.866   2.302   0.560  0.0168 -0.0183 -0.8372
    1SOL    HW2 1142   0.912   2.218   0.557 -0.2589 -0.1792 -0.6394
    1SOL    HW3 1143   0.866   2.333   0.470 -0.8982 -0.7908 -1.1115
    1SOL    MW4 1144   0.872   2.295   0.548 -0.1402 -0.1416 -0.8473
    1SOL     OW 1145   2.672   0.144   0.508 -0.4538  0.2530 -0.2504
    1SOL    HW2 1146   2.719   0.227   0.501  0.0065  0.1121  1.1436
    1SOL    HW3 1147   2.679   0.120   0.600 -0.2452 -1.5362 -0.7299
    1SOL    MW4 1148   2.679   0.152   0.519 -0.3653 -0.0017 -0.1297
    1SOL     OW 1149   0.808   2.905   0.384  0.7591 -0.4211  0.0033
    1SOL    HW2 1150   0.830   2.997   0.400  1.6684 -0.6345 -0.0015
    1SOL    HW3 1151   0.717   2.897   0.413 -0.1174  1.0327 -2.2121
    1SOL    MW4 1152   0.799   2.916   0.390  0.7634 -0.2573 -0.2896
    1SOL     OW 1153   0.039   1.891   0.390  0.2205 -0.1378  0.0093
    1SOL    HW2 1154  -0.021   1.962   0.414  0.6183 -0.3716  1.7459
    1SOL    HW3 1155   0.123   1.917   0.430  1.6730  0.8845 -3.5215
    1SOL    MW4 1156   0.042   1.904   0.398  0.4646 -0.0339 -0.2275
    1SOL     OW 1157   3.395   3.815   0.782 -0.1191 -0.1585  0.0672
    1SOL    HW2 1158   3.402   3.721   0.768  2.0446 -0.2040  1.3471
    1SOL    HW3 1159   3.382   3.825   0.876 -2.2983  0.7560 -0.2947
    1SOL    MW4 1160   3.394   3.804   0.793 -0.1211 -0.0439  0.1883
    1SOL     OW 1161   3.606   2.431   0.746  0.2571 -0.2754  0.0840
    1SOL    HW2 1162   3.601   2.526   0.747  2.1753 -0.1475 -0.4031
    1SOL    HW3 1163   3.520   2.402   0.776 -0.2893  1.6039  0.3945
    1SOL    MW4 1164   3.594   2.439   0.750  0.4380 -0.0105  0.0607
    1SOL     OW 1165   0.019   3.484   0.913  0.3147  0.0928 -0.4003
    1SOL    HW2 1166   0.086   3.543   0.878  0.7259 -0.3263 -0.3290
    1SOL    HW3 1167  -0.062   3.510   0.870  0.3743  1.1227  0.0954
    1SOL    MW4 1168   0.017   3.495   0.903  0.3768  0.1736 -0.3254
    1SOL     OW 1169   0.705   3.638   0.738 -0.2933 -0.2778 -0.5432
    1SOL    HW2 1170   0.627   3.599   0.776 -0.0735 -0.8654 -0.6834
    1SOL    HW3 1171   0.691   3.632   0.643 -0.6660  0.8243 -0.5673
    1SOL    MW4 1172   0.693   3.632   0.730 -0.3135 -0.2100 -0.5649
    1SOL     OW 1173   1.784   4.027   0.434 -0.5005 -0.1274  0.3547
    1SOL    HW2 1174   1.787   4.122   0.422  0.4272 -0.0628  0.9744
    1SOL    HW3 1175   1.795   4.015   0.529  1.2687 -0.9032  0.0710
    1SOL    MW4 1176   1.786   4.038   0.445 -0.1448 -0.2213  0.3990
    1SOL     OW 1177   4.251   4.376   0.711 -0.0232  0.1034  0.3040
    1SOL    HW2 1178   4.341   4.355   0.736 -0.3252  0.8079  2.0156
    1SOL    HW3 1179   4.228   4.452   0.764 -1.4237  0.3150 -0.5805
    1SOL    MW4 1180   4.260   4.383   0.721 -0.2484  0.2241  0.4131
    1SOL     OW 1181   0.472   4.289   0.862 -0.1326 -0.0356  0.2341
    1SOL    HW2 1182   0.473   4.287   0.958 -0.1778  0.2553  0.2407
    1SOL    HW3 1183   0.389   4.330   0.840  1.1631  2.6749  0.1294
    1SOL    MW4 1184   0.461   4.294   0.872  0.0324  0.3605  0.2212
    1SOL     OW 1185   0.688   4.404   0.700 -0.3421  0.2993 -0.2010
    1SOL    HW2 1186   0.766   4.369   0.742 -0.3183  1.3673  0.6632
    1SOL    HW3 1187   0.616   4.376   0.757 -0.2010  2.7384  1.2076
    1SOL    MW4 1188   0.688   4.395   0.713 -0.3203  0.7625  0.0988
    1SOL     OW 1189   2.141   1.217   0.254  0.6663 -0.2752  0.4887
    1SOL    HW2 1190   2.084   1.290   0.232  1.4377  0.7053  1.6914
    1SOL    HW3 1191   2.089   1.163   0.313  0.7195  0.2273  0.9966
    1SOL    MW4 1192   2.127   1.219   0.259  0.7753 -0.0794  0.7144
    1SOL     OW 1193   1.783   1.191   0.841  0.3091 -0.0608  0.1396
    1SOL    HW2 1194   1.705   1.241   0.820  0.6819  0.7156  0.5923
    1SOL    HW3 1195   1.849   1.222   0.780  0.7627  0.5903  0.9425
    1SOL    MW4 1196   1.782   1.202   0.830  0.4181  0.1277  0.3053
    1SOL     OW 1197   1.572   0.525   0.453  0.1336  0.5969  0.0382
    1SOL    HW2 1198   1.486   0.539   0.413 -0.0587  0.6242  0.4539
    1SOL    HW3 1199   1.596   0.436   0.427 -1.0006 -0.2248  1.6846
    1SOL    MW4 1200   1.564   0.515   0.445 -0.0415  0.4921  0.3103
    1SOL     OW 1201   1.145   0.780   0.808 -0.0687 -0.3186 -0.1131
    1SOL    HW2 1202   1.130   0.768   0.902 -1.2483 -1.0854 -0.3875
    1SOL    HW3 1203   1.161   0.691   0.775  0.6507 -0.0191 -0.5976
    1SOL    MW4 1204   1.145   0.766   0.816 -0.1295 -0.3803 -0.2132
    1SOL     OW 1205   3.891   0.485   0.707  0.0733 -0.3260 -0.1192
    1SOL    HW2 1206   3.905   0.498   0.613 -0.3117  0.3725 -0.0810
    1SOL    HW3 1207   3.888   0.574   0.743  1.1958 -0.6079  0.6927
    1SOL    MW4 1208   3.893   0.499   0.699  0.1705 -0.2710 -0.0070
    1SOL     OW 1209   1.368   0.818   0.245  0.5726 -0.2161  0.0466
    1SOL    HW2 1210   1.408   0.880   0.306 -0.1095  0.6730 -0.4101
    1SOL    HW3 1211   1.393   0.850   0.158 -0.3505 -0.1869 -0.2109
    1SOL    MW4 1212   1.376   0.830   0.242  0.3608 -0.0950 -0.0476
    1SOL     OW 1213   1.027   1.314   0.487 -0.0679 -0.3141 -0.2221
    1SOL    HW2 1214   1.002   1.223   0.498 -1.5528  0.1410  0.2270
    1SOL    HW3 1215   0.948   1.357   0.454  0.1719  1.0969  0.9957
    1SOL    MW4 1216   1.013   1.308   0.484 -0.2321 -0.0678 -0.0023
    1SOL     OW 1217   0.687   0.821   0.831  0.2487  0.0710 -0.2837
    1SOL    HW2 1218   0.767   0.854   0.789 -0.9188  1.3615 -1.5564
    1SOL    HW3 1219   0.687   0.727   0.811  1.4178  0.0624 -0.3102
    1SOL    MW4 1220   0.698   0.813   0.823  0.2490  0.2402 -0.4551
    1SOL     OW 1221   0.665   1.531   0.816  0.5466 -0.3485 -0.2178
    1SOL    HW2 1222   0.744   1.585   0.804  0.5902 -0.2176  0.6349
    1SOL    HW3 1223   0.655   1.524   0.911 -0.8902  0.2655 -0.3056
    1SOL    MW4 1224   0.674   1.537   0.827  0.3628 -0.2501 -0.1169
    1SOL     OW 1225   3.866   2.084   0.683  0.4834  0.1687  0.2213
    1SOL    HW2 1226   3.864   2.063   0.589  2.2034  0.5765  0.0715
    1SOL    HW3 1227   3.946   2.042   0.714  0.0084  0.1905  1.4868
    1SOL    MW4 1228   3.876   2.076   0.675  0.6478  0.2253  0.3685
    1SOL     OW 1229   1.116   2.404   0.285  0.0477  0.1452 -0.4044
    1SOL    HW2 1230   1.128   2.310   0.300  0.2946  0.2855  0.2780
    1SOL    HW3 1231   1.023   2.414   0.267  0.1191 -0.3087 -1.0504
    1SOL    MW4 1232   1.105   2.393   0.285  0.0896  0.1035 -0.3996
    1SOL     OW 1233   2.900   0.479   0.726  0.1461 -0.1511  0.2931
    1SOL    HW2 1234   2.891   0.574   0.729  0.6192 -0.0363 -1.4521
    1SOL    HW3 1235   2.994   0.463   0.738  0.2256 -0.3215 -0.4920
    1SOL    MW4 1236   2.911   0.489   0.728  0.2189 -0.1584 -0.0407
    1SOL     OW 1237   3.317   3.775   0.473 -0.4942 -0.1425 -0.0134
    1SOL    HW2 1238   3.396   3.784   0.420 -0.7469 -2.4454 -0.8634
    1SOL    HW3 1239   3.348   3.771   0.563  0.2677 -0.0580 -0.2747
    1SOL    MW4 1240   3.331   3.776   0.478 -0.4272 -0.4349 -0.1600
    1SOL     OW 1241   0.229   4.429   0.711  0.0257 -0.3633 -0.0918
    1SOL    HW2 1242   0.230   4.509   0.763  0.3130 -0.2770 -0.2262
    1SOL    HW3 1243   0.152   4.381   0.741  0.2232 -0.3397  0.4561
    1SOL    MW4 1244   0.219   4.433   0.722  0.0897 -0.3486 -0.0372
    1SOL     OW 1245   1.297   1.703   0.479  0.2519  0.3459 -0.1440
    1SOL    HW2 1246   1.310   1.619   0.435  0.7835  0.5912 -0.4672
    1SOL    HW3 1247   1.206   1.727   0.459 -0.0390 -0.3632  0.3272
    1SOL    MW4 1248   1.287   1.695   0.471  0.2837  0.2848 -0.1245
    1SOL     OW 1249   0.442   4.512   0.351 -0.1216 -0.0078 -0.2799
    1SOL    HW2 1250   0.400   4.437   0.392  1.5537 -1.0104 -0.3910
    1SOL    HW3 1251   0.396   4.522   0.267 -0.1121 -1.1050 -0.4195
    1SOL    MW4 1252   0.430   4.504   0.345  0.1007 -0.2851 -0.3129
    1SOL     OW 1253   0.320   2.185   0.323  0.0431 -0.2633  0.0033
    1SOL    HW2 1254   0.316   2.111   0.384  1.3598 -0.4021 -0.0476
    1SOL    HW3 1255   0.284   2.151   0.241  1.2873 -1.0758 -0.2247
    1SOL    MW4 1256   0.315   2.170   0.320  0.3810 -0.3886 -0.0335
    1SOL     OW 1257   1.324   2.583   0.233 -0.1065 -0.0907 -0.4826
    1SOL    HW2 1258   1.243   2.533   0.232 -0.4195  0.4125 -0.2861
    1SOL    HW3 1259   1.331   2.619   0.144  0.7538 -1.4918 -1.0025
    1SOL    MW4 1260   1.314   2.582   0.221 -0.0343 -0.2091 -0.5253
    1SOL     OW 1261   2.417   1.333   0.455 -0.0203 -0.3540 -0.0492
    1SOL    HW2 1262   2.370   1.262   0.412 -1.3893  0.8800 -0.6036
    1SOL    HW3 1263   2.502   1.336   0.411  0.2417 -1.9626  0.3188
    1SOL    MW4 1264   2.422   1.324   0.444 -0.1667 -0.4035 -0.0738
    1SOL     OW 1265   2.724   3.925   0.491  0.2324  0.3420 -0.4186
    1SOL    HW2 1266   2.708   3.941   0.584  2.0621  3.7754 -0.6020
    1SOL    HW3 1267   2.641   3.893   0.457 -1.5163  2.3796  1.7512
    1SOL    MW4 1268   2.711   3.923   0.499  0.2434  1.0638 -0.1565
    1SOL     OW 1269   3.425   3.551   0.715 -0.1540  0.5692 -0.0392
    1SOL    HW2 1270   3.476   3.522   0.791 -1.2097 -0.0361  0.4551
    1SOL    HW3 1271   3.338   3.513   0.729 -0.6409  1.2940 -1.0465
    1SOL    MW4 1272   3.420   3.542   0.727 -0.3572  0.5851 -0.1069
    1SOL     OW 1273   4.178   1.687   0.473  0.4938  0.0883  0.0537
    1SOL    HW2 1274   4.273   1.669   0.475  0.3216 -0.7940  0.7474
    1SOL    HW3 1275   4.153   1.692   0.565  0.3471  3.0496 -0.1153
    1SOL    MW4 1276   4.188   1.685   0.485  0.4525  0.3626  0.1229
    1SOL     OW 1277   1.100   4.410   0.700 -0.1582 -0.2196 -0.2172
    1SOL    HW2 1278   1.099   4.400   0.605 -1.9371 -0.5304 -0.1712
    1SOL    HW3 1279   1.104   4.505   0.714 -1.7949 -0.0844 -0.6041
    1SOL    MW4 1280   1.101   4.421   0.689 -0.6088 -0.2427 -0.2622
    1SOL     OW 1281   1.815   2.465   0.715  0.0101 -0.1251 -0.3797
    1SOL    HW2 1282   1.815   2.557   0.740 -0.1243 -0.4171  0.7117
    1SOL    HW3 1283   1.730   2.432   0.745  0.0048 -0.5745 -0.8814
    1SOL    MW4 1284   1.804   2.472   0.722 -0.0083 -0.2229 -0.3019
    1SOL     OW 1285   1.565   0.002   0.845 -0.2597 -0.3356  0.1678
    1SOL    HW2 1286   1.588  -0.006   0.938 -0.0535 -0.7004  0.0862
    1SOL    HW3 1287   1.568  -0.088   0.812 -1.9738 -0.4028  0.1884
    1SOL    MW4 1288   1.569  -0.011   0.853 -0.4587 -0.3926  0.1597
    1SOL     OW 1289   1.141   0.031   0.775 -0.0269  0.3927  0.4224
    1SOL    HW2 1290   1.221   0.066   0.735  0.3899 -1.0997 -0.0733
    1SOL    HW3 1291   1.076   0.100   0.763  0.6412  0.7772 -1.0108
    1SOL    MW4 1292   1.143   0.045   0.768  0.1163  0.2466  0.1679
    1SOL     OW 1293   1.394   0.387   0.810 -0.4017 -0.0461  0.3705
    1SOL    HW2 1294   1.371   0.363   0.900  0.3942 -1.0052  0.3242
    1SOL    HW3 1295   1.473   0.440   0.819 -0.6106  0.2814  0.2722
    1SOL    MW4 1296   1.401   0.390   0.823 -0.3242 -0.1294  0.3514
    1SOL     OW 1297   1.580   0.577   0.746  0.2181 -0.5536  0.0303
    1SOL    HW2 1298   1.546   0.560   0.658 -0.5153  0.1488  0.1625
    1SOL    HW3 1299   1.578   0.673   0.754  0.3418 -0.6100  0.7882
    1SOL    MW4 1300   1.575   0.587   0.736  0.1378 -0.4685  0.1478
    1SOL     OW 1301   2.495   2.043   0.410 -0.2702 -0.4277  0.3021
    1SOL    HW2 1302   2.582   2.063   0.376  0.0115 -0.0568  1.2244
    1SOL    HW3 1303   2.436   2.094   0.354  0.3341  1.7877  1.5935
    1SOL    MW4 1304   2.498   2.052   0.398 -0.1531 -0.0868  0.5942
    1SOL     OW 1305   0.909   0.862   0.663  0.5248  0.2511  0.0541
    1SOL    HW2 1306   0.871   0.806   0.594 -0.3878  0.4649  0.3749
    1SOL    HW3 1307   0.967   0.803   0.712 -0.8822 -0.5759  0.7554
    1SOL    MW4 1308   0.911   0.847   0.660  0.2188  0.1701  0.1889
    1SOL     OW 1309   1.332   1.204   0.791 -0.1866 -0.3554  0.0152
    1SOL    HW2 1310   1.321   1.161   0.876  0.0829  1.3686  0.9577
    1SOL    HW3 1311   1.248   1.248   0.776 -0.3328 -0.9000 -0.7496
    1SOL    MW4 1312   1.320   1.204   0.800 -0.1704 -0.1998  0.0386
    1SOL     OW 1313   3.393   2.066   0.717 -0.4020  0.5648  0.6728
    1SOL    HW2 1314   3.376   2.056   0.623 -0.6927 -0.2714  0.8146
    1SOL    HW3 1315   3.485   2.043   0.727 -0.0383  1.8492  0.4145
    1SOL    MW4 1316   3.403   2.062   0.706 -0.3927  0.6244  0.6575
    1SOL     OW 1317   0.505   3.842   0.143 -0.1779 -0.0285 -0.0889
    1SOL    HW2 1318   0.597   3.839   0.168 -0.6137 -0.5904  1.5017
    1SOL    HW3 1319   0.506   3.871   0.052  1.5323  0.6949  0.1395
    1SOL    MW4 1320   0.517   3.846   0.134 -0.0098 -0.0069  0.1511
    1SOL     OW 1321   3.762   1.295   0.472  0.4353 -0.0493  0.5356
    1SOL    HW2 1322   3.674   1.327   0.452  0.7992  0.7453  0.2109
    1SOL    HW3 1323   3.821   1.367   0.448  1.2183 -0.7747  0.2335
    1SOL    MW4 1324   3.758   1.309   0.466  0.5865 -0.0402  0.4529
    1SOL     OW 1325   1.496   1.324   0.458 -0.0560 -0.1277 -0.5420
    1SOL    HW2 1326   1.560   1.386   0.424  0.8808 -0.8192 -0.0551
    1SOL    HW3 1327   1.520   1.241   0.416 -0.1505 -0.5502  0.2362
    1SOL    MW4 1328   1.508   1.321   0.448  0.0552 -0.2744 -0.3751
    1SOL     OW 1329   3.269   2.540   0.428  0.3164  0.0631  0.0412
    1SOL    HW2 1330   3.361   2.562   0.443  0.9096 -2.3424  0.2111
    1SOL    HW3 1331   3.233   2.522   0.515  0.0921 -0.4404 -0.1486
    1SOL    MW4 1332   3.276   2.540   0.441  0.3653 -0.3207  0.0385
    1SOL     OW 1333   3.544   3.832   0.323  0.2756  0.6651 -0.1297
    1SOL    HW2 1334   3.565   3.923   0.345  1.2684  0.7625 -1.3837
    1SOL    HW3 1335   3.569   3.824   0.230  0.3593 -0.9316  0.0214
    1SOL    MW4 1336   3.550   3.843   0.313  0.4175  0.4675 -0.2752
    1SOL     OW 1337   1.140   3.629   0.741 -0.0047 -0.4900  0.1659
    1SOL    HW2 1338   1.220   3.595   0.782  0.3032 -2.2090 -1.7721
    1SOL    HW3 1339   1.070   3.574   0.775  0.0467 -0.9133 -0.4023
    1SOL    MW4 1340   1.142   3.617   0.751  0.0427 -0.7730 -0.1647
    1SOL     OW 1341   0.929   2.682   0.821  0.0973 -0.2084 -0.1876
    1SOL    HW2 1342   0.928   2.693   0.916  1.1734  1.9210 -0.3863
    1SOL    HW3 1343   0.854   2.734   0.791  1.0749  0.9537 -0.6519
    1SOL    MW4 1344   0.919   2.691   0.829  0.3682  0.2258 -0.2751
    1SOL     OW 1345   1.569   2.840   0.777 -0.3482  0.0104  0.1667
    1SOL    HW2 1346   1.558   2.933   0.799 -0.7068  0.6658 -2.5316
    1SOL    HW3 1347   1.480   2.805   0.777 -0.3867  0.0901 -0.3977
    1SOL    MW4 1348   1.556   2.848   0.780 -0.4007  0.1073 -0.2636
    1SOL     OW 1349   2.937   4.354   0.415 -0.4642  0.1207  0.1071
    1SOL    HW2 1350   2.909   4.363   0.506 -1.0400  2.3574 -0.2535
    1SOL    HW3 1351   2.877   4.410   0.366  2.4396  2.2799 -1.1290
    1SOL    MW4 1352   2.925   4.362   0.421 -0.1571  0.7010 -0.1035
    1SOL     OW 1353   4.282   4.629   0.213  0.2892  0.3508  0.2978
    1SOL    HW2 1354   4.194   4.649   0.180  0.6672  0.3615 -0.7089
    1SOL    HW3 1355   4.300   4.700   0.276  1.2684  2.7630 -2.5955
    1SOL    MW4 1356   4.273   4.641   0.217  0.4683  0.6704 -0.2168
    1SOL     OW 1357   1.082   3.894   0.837  0.2601 -0.4389 -0.2353
    1SOL    HW2 1358   1.090   3.801   0.813 -1.2502 -0.6697  0.0875
    1SOL    HW3 1359   1.099   3.896   0.931  1.7845 -0.1632 -0.5057
    1SOL    MW4 1360   1.085   3.882   0.846  0.2619 -0.4330 -0.2284
    1SOL     OW 1361   4.012   4.230   0.822  0.5192 -0.1080  0.2322
    1SOL    HW2 1362   3.946   4.284   0.777  0.4285 -0.3498  0.0700
    1SOL    HW3 1363   4.096   4.268   0.797  0.4732 -0.3095 -0.2379
    1SOL    MW4 1364   4.014   4.242   0.812  0.5012 -0.1664  0.1488
    1SOL     OW 1365   2.269   3.282   0.750 -0.0474 -0.1565  0.2418
    1SOL    HW2 1366   2.196   3.234   0.789 -0.7839  0.0662 -0.8576
    1SOL    HW3 1367   2.342   3.221   0.752 -0.6423 -0.8741  0.0452
    1SOL    MW4 1368   2.269   3.268   0.756 -0.2232 -0.2217  0.0708
    1SOL     OW 1369   2.288   1.639   0.707 -0.1820  0.0108  0.1066
    1SOL    HW2 1370   2.355   1.596   0.759  0.4857  0.1040 -0.6585
    1SOL    HW3 1371   2.293   1.731   0.732 -0.2064 -0.0253  0.2433
    1SOL    MW4 1372   2.297   1.646   0.717 -0.0970  0.0185  0.0237
    1SOL     OW 1373   2.040   4.402   0.742 -0.0897  0.4808 -0.0050
    1SOL    HW2 1374   2.072   4.403   0.652 -0.5817 -1.1627 -0.2279
    1SOL    HW3 1375   1.951   4.367   0.734 -0.7012  1.7653  0.9674
    1SOL    MW4 1376   2.032   4.398   0.729 -0.2356  0.4330  0.0939
    1SOL     OW 1377   2.443   3.802   0.437  0.7081 -0.1708 -0.1849
    1SOL    HW2 1378   2.469   3.711   0.451 -0.6730 -0.5214  0.1403
    1SOL    HW3 1379   2.348   3.800   0.433  0.7567  0.8350 -3.3345
    1SOL    MW4 1380   2.434   3.790   0.439  0.5322 -0.0844 -0.5575
    1SOL     OW 1381   2.391   4.632   0.780 -0.2339  0.4538 -0.0608
    1SOL    HW2 1382   2.406   4.615   0.873 -1.2911 -0.5509 -0.0606
    1SOL    HW3 1383   2.417   4.551   0.736 -0.8690  0.4954 -0.5253
    1SOL    MW4 1384   2.396   4.619   0.786 -0.4570  0.3262 -0.1220
    1SOL     OW 1385   1.808   3.293   0.486  0.2295 -0.1447 -0.0949
    1SOL    HW2 1386   1.879   3.257   0.434 -0.3615 -1.3817 -0.0586
    1SOL    HW3 1387   1.728   3.258   0.446 -0.3078  0.2533  0.6055
    1SOL    MW4 1388   1.806   3.283   0.474  0.0805 -0.2556  0.0023
    1SOL     OW 1389   1.787   0.415   0.834  0.0753  0.2931 -0.4300
    1SOL    HW2 1390   1.720   0.476   0.804  0.4049  0.5224 -0.7019
    1SOL    HW3 1391   1.763   0.331   0.794  0.0078  0.3975 -0.6087
    1SOL    MW4 1392   1.775   0.412   0.825  0.1100  0.3371 -0.4895
    1SOL     OW 1393   3.234   4.392   0.420  0.4838 -0.1649  0.2843
    1SOL    HW2 1394   3.260   4.392   0.512 -0.0319  1.7682  0.4537
    1SOL    HW3 1395   3.139   4.393   0.422  0.4678 -0.4839 -0.2735
    1SOL    MW4 1396   3.225   4.392   0.432  0.4139  0.0482  0.2331
    1SOL     OW 1397   3.294   4.109   0.411  0.8462 -0.4575  0.0206
    1SOL    HW2 1398   3.387   4.117   0.393  0.4143  1.1717 -1.7296
    1SOL    HW3 1399   3.260   4.199   0.404 -1.2232 -1.3289 -1.7841
    1SOL    MW4 1400   3.302   4.122   0.408  0.5162 -0.3576 -0.4484
    1SOL     OW 1401   1.549   3.110   0.843  0.2535 -0.1846 -0.1276
    1SOL    HW2 1402   1.560   3.118   0.938 -0.0726 -0.2188 -0.0887
    1SOL    HW3 1403   1.479   3.171   0.822  1.1751  0.7625 -0.5242
    1SOL    MW4 1404   1.541   3.119   0.853  0.3321 -0.0641 -0.1748
    1SOL     OW 1405   4.021   3.756   0.446 -0.3340  0.1846 -0.3444
    1SOL    HW2 1406   4.061   3.843   0.446 -0.5083  0.2783  0.8344
    1SOL    HW3 1407   4.084   3.701   0.492 -0.5061 -0.1657 -0.5305
    1SOL    MW4 1408   4.034   3.760   0.452 -0.3796  0.1507 -0.2134
    1SOL     OW 1409   1.589   3.131   0.408  0.0714 -0.0499  0.7706
    1SOL    HW2 1410   1.605   3.041   0.437 -0.5962 -0.7063 -0.8593
    1SOL    HW3 1411   1.559   3.123   0.318 -0.0818  1.8108  0.6268
    1SOL    MW4 1412   1.587   3.118   0.400 -0.0371  0.1087  0.5366
    1SOL     OW 1413   2.496   1.509   0.844  0.0509 -0.0905  0.1498
    1SOL    HW2 1414   2.474   1.420   0.817  1.7842 -1.0272  1.7360
    1SOL    HW3 1415   2.581   1.527   0.804 -0.2447  0.8349 -0.0865
    1SOL    MW4 1416   2.504   1.500   0.835  0.2403 -0.0920  0.3279
    1SOL     OW 1417   4.058   3.964   0.773  0.1724  0.3017  0.1052
    1SOL    HW2 1418   4.097   3.966   0.686  0.7186  1.1258  0.3625
    1SOL    HW3 1419   4.037   4.056   0.792  1.5327  0.3493  1.4835
    1SOL    MW4 1420   4.060   3.977   0.764  0.4239  0.4170  0.3210
    1SOL     OW 1421   1.112   2.526   0.531  0.0097 -0.1442  0.6088
    1SOL    HW2 1422   1.113   2.481   0.447  1.3473  0.7738  0.1148
    1SOL    HW3 1423   1.080   2.614   0.511 -1.3847 -0.4721  1.3576
    1SOL    MW4 1424   1.108   2.532   0.518  0.0023 -0.0663  0.6424
    1SOL     OW 1425   3.962   1.511   0.438 -0.6154  0.3910 -0.1698
    1SOL    HW2 1426   3.996   1.452   0.504  0.8383 -0.3094 -1.5132
    1SOL    HW3 1427   4.028   1.580   0.430 -0.5529  0.2136 -1.2354
    1SOL    MW4 1428   3.975   1.513   0.446 -0.4153  0.2751 -0.4876
    1SOL     OW 1429   1.457   2.105   0.461  0.6444  0.0828 -0.0530
    1SOL    HW2 1430   1.531   2.144   0.414  0.6080 -0.1569 -0.3091
    1SOL    HW3 1431   1.460   2.012   0.438 -0.4256  0.2662 -0.9924
    1SOL    MW4 1432   1.467   2.098   0.451  0.4984  0.0758 -0.2107
    1SOL     OW 1433   3.581   1.155   0.820  0.3562  0.5631 -0.2842
    1SOL    HW2 1434   3.561   1.067   0.788  1.2764  0.6399 -1.0810
    1SOL    HW3 1435   3.588   1.145   0.915  1.3526 -0.3862 -0.4531
    1SOL    MW4 1436   3.579   1.142   0.828  0.6096  0.4481 -0.4116
    1SOL     OW 1437   1.114   4.084   0.311 -0.4789  0.1357 -0.0657
    1SOL    HW2 1438   1.056   4.085   0.387  1.0056 -0.6426  1.0746
    1SOL    HW3 1439   1.180   4.019   0.331  1.3831  1.6921 -0.9424
    1SOL    MW4 1440   1.115   4.076   0.323 -0.0376  0.2384 -0.0310
    1SOL     OW 1441   1.066   2.091   0.767 -0.2222 -0.1427 -0.6308
    1SOL    HW2 1442   1.018   2.025   0.817  0.0896  0.2786  0.2257
    1SOL    HW3 1443   1.158   2.066   0.776 -0.1258  0.2412 -0.5502
    1SOL    MW4 1444   1.072   2.079   0.774 -0.1684 -0.0365 -0.5072
    1SOL     OW 1445   3.257   0.485   0.412  0.3021 -0.3444 -0.1612
    1SOL    HW2 1446   3.276   0.486   0.318  0.8905 -0.5609 -0.0494
    1SOL    HW3 1447   3.213   0.401   0.426 -0.3951 -0.0179 -0.3527
    1SOL    MW4 1448   3.254   0.474   0.401  0.2878 -0.3299 -0.1717
    1SOL     OW 1449   2.647   3.024   0.413 -0.0072  0.0432  0.4115
    1SOL    HW2 1450   2.650   2.981   0.327  0.9169 -1.0692  0.9980
    1SOL    HW3 1451   2.584   2.973   0.463  1.1275 -0.6675  1.1249
    1SOL    MW4 1452   2.639   3.012   0.408  0.2644 -0.1972  0.5830
    1SOL     OW 1453   1.798   3.507   0.842 -0.2269  0.1051  0.6879
    1SOL    HW2 1454   1.794   3.528   0.935  0.0370 -1.7851  1.1576
    1SOL    HW3 1455   1.777   3.413   0.838  0.8929 -0.0925 -1.0261
    1SOL    MW4 1456   1.795   3.497   0.854 -0.0443 -0.1705  0.5237
    1SOL     OW 1457   0.024   3.006   0.471  0.1874 -0.5887  0.6495
    1SOL    HW2 1458  -0.049   2.948   0.496 -0.8143 -0.0509 -0.9529
    1SOL    HW3 1459   0.102   2.950   0.477 -0.5610 -1.6400  0.7750
    1SOL    MW4 1460   0.025   2.991   0.475 -0.0435 -0.6564  0.4547
    1SOL     OW 1461   1.853   1.913   0.024  0.3628 -0.1065  0.3795
    1SOL    HW2 1462   1.922   1.879   0.080  0.6040 -1.1242 -0.5301
    1SOL    HW3 1463   1.896   1.929  -0.060 -0.9329 -2.7321 -0.8455
    1SOL    MW4 1464   1.868   1.911   0.020  0.2236 -0.5871  0.0979
    1SOL     OW 1465   0.919   0.442   0.818 -0.2639 -0.1475 -0.2222
    1SOL    HW2 1466   0.906   0.356   0.779 -1.7226  0.1810 -0.4955
    1SOL    HW3 1467   0.937   0.424   0.910  0.5267 -0.7945 -0.4993
    1SOL    MW4 1468   0.920   0.428   0.825 -0.3521 -0.1895 -0.2949
    1SOL     OW 1469   0.402   3.274   0.184  0.3873  0.3916  0.6354
    1SOL    HW2 1470   0.417   3.298   0.092  0.2375  0.0741  0.5250
    1SOL    HW3 1471   0.334   3.333   0.214 -0.9756 -0.7865 -0.0378
    1SOL    MW4 1472   0.395   3.285   0.176  0.1877  0.1943  0.5320
    1SOL     OW 1473   1.816   0.081   0.466 -0.0416  0.3998 -0.0333
    1SOL    HW2 1474   1.814   0.112   0.556  0.2008  0.3296 -0.0035
    1SOL    HW3 1475   1.908   0.084   0.441  0.1198 -1.2453  0.3012
    1SOL    MW4 1476   1.828   0.085   0.475  0.0117  0.1735  0.0148
    1SOL     OW 1477   3.866   1.972   0.409 -0.3478 -0.4389 -0.2076
    1SOL    HW2 1478   3.950   1.957   0.364 -0.0730 -0.4173  0.2883
    1SOL    HW3 1479   3.833   1.884   0.427 -1.1314 -0.4506 -1.6819
    1SOL    MW4 1480   3.873   1.958   0.406 -0.4148 -0.4376 -0.3367
    1SOL     OW 1481   2.243   0.366   1.086  0.1167  0.0417 -0.5481
    1SOL    HW2 1482   2.232   0.398   0.997 -0.0314  0.0443 -0.5295
    1SOL    HW3 1483   2.185   0.422   1.139 -0.1434 -0.2593 -0.5165
    1SOL    MW4 1484   2.234   0.378   1.082  0.0627  0.0024 -0.5416
    1SOL     OW 1485   4.305   0.494   0.741  0.2258 -0.5802  0.4019
    1SOL    HW2 1486   4.295   0.487   0.646  1.6946  0.2897  0.1649
    1SOL    HW3 1487   4.364   0.423   0.765  0.8079 -0.0764  0.4867
    1SOL    MW4 1488   4.312   0.484   0.732  0.4959 -0.3989  0.3818
    1SOL     OW 1489   2.368   0.789   0.321 -0.0199 -0.3271 -0.0834
    1SOL    HW2 1490   2.459   0.773   0.294 -0.2826 -0.6129 -0.8339
    1SOL    HW3 1491   2.333   0.702   0.340 -0.1444 -0.2205  0.1767
    1SOL    MW4 1492   2.375   0.775   0.320 -0.0710 -0.3508 -0.1481
    1SOL     OW 1493   2.675   1.345   0.328 -0.1850 -0.1468 -0.1633
    1SOL    HW2 1494   2.678   1.317   0.237 -1.1275 -0.6844 -0.0376
    1SOL    HW3 1495   2.748   1.300   0.370  0.4008  0.3039 -0.7116
    1SOL    MW4 1496   2.685   1.335   0.322 -0.2320 -0.1582 -0.2191
    1SOL     OW 1497   2.436   1.271   0.734  0.5070  0.4852  0.3447
    1SOL    HW2 1498   2.426   1.287   0.640 -0.5952 -0.1243  0.3524
    1SOL    HW3 1499   2.349   1.244   0.763  0.7304  1.1325  1.6382
    1SOL    MW4 1500   2.423   1.269   0.725  0.3910  0.4902  0.5164
    1SOL     OW 1501   2.207   1.191   0.833 -0.4327 -0.3792 -0.0023
    1SOL    HW2 1502   2.223   1.098   0.814 -3.8991 -0.9399 -0.3927
    1SOL    HW3 1503   2.199   1.195   0.928 -1.3568 -0.6796 -0.0628
    1SOL    MW4 1504   2.208   1.179   0.843 -1.0118 -0.4929 -0.0618
    1SOL     OW 1505   1.589   1.613   0.798  0.3210 -0.0995 -0.1200
    1SOL    HW2 1506   1.595   1.603   0.893  0.7719 -0.9479 -0.2322
    1SOL    HW3 1507   1.577   1.524   0.765 -1.4586  0.3580 -0.7555
    1SOL    MW4 1508   1.588   1.600   0.806  0.1458 -0.1510 -0.2187
    1SOL     OW 1509   3.148   0.913   0.692  0.0912  0.1265  0.4178
    1SOL    HW2 1510   3.225   0.860   0.712 -0.8219 -0.8709  1.3846
    1SOL    HW3 1511   3.145   0.979   0.761  0.1123  0.1932  0.3545
    1SOL    MW4 1512   3.158   0.914   0.704 -0.0262  0.0037  0.5370
    1SOL     OW 1513   0.789   0.767   0.428 -0.5035  0.4543 -0.0103
    1SOL    HW2 1514   0.753   0.680   0.446  0.3334 -0.0136 -0.5914
    1SOL    HW3 1515   0.861   0.752   0.367 -0.9406  1.6555 -0.8506
    1SOL    MW4 1516   0.793   0.754   0.423 -0.4507  0.5510 -0.1978
    1SOL     OW 1517   2.279   1.906   0.786 -0.0537 -0.0119  0.4593
    1SOL    HW2 1518   2.193   1.947   0.777 -0.6682 -1.0177  1.5942
    1SOL    HW3 1519   2.341   1.971   0.754 -1.1371  1.2132  0.8476
    1SOL    MW4 1520   2.276   1.920   0.780 -0.2778  0.0170  0.6604
    1SOL     OW 1521   2.106   3.667   0.521  0.3021  0.0741 -0.4817
    1SOL    HW2 1522   2.096   3.665   0.616 -1.8708 -0.2322 -0.6977
    1SOL    HW3 1523   2.142   3.581   0.499 -1.1025 -0.6106 -0.1315
    1SOL    MW4 1524   2.110   3.655   0.531 -0.1702 -0.0565 -0.4640
    1SOL     OW 1525   3.302   2.958   0.518 -0.2914  0.0297  0.2621
    1SOL    HW2 1526   3.385   2.998   0.492 -0.5992  1.1634  0.9819
    1SOL    HW3 1527   3.326   2.889   0.579  0.2651 -1.0548 -1.1655
    1SOL    MW4 1528   3.316   2.955   0.522 -0.2584  0.0360  0.1687
    1SOL     OW 1529   2.289   2.462   0.787 -0.1052 -0.2346  0.8890
    1SOL    HW2 1530   2.204   2.434   0.752  0.0698  1.2812 -0.8215
    1SOL    HW3 1531   2.272   2.550   0.822  0.7489  0.0526  0.5858
    1SOL    MW4 1532   2.275   2.470   0.787  0.0310  0.0031  0.6233
    1SOL     OW 1533   2.227   2.734   0.850 -0.0160 -0.7280 -0.0820
    1SOL    HW2 1534   2.227   2.722   0.945  0.3829 -0.4921 -0.0529
    1SOL    HW3 1535   2.316   2.763   0.829 -0.4657  0.4872 -0.3695
    1SOL    MW4 1536   2.239   2.736   0.859 -0.0226 -0.5369 -0.1161
    1SOL     OW 1537   1.611   4.533   0.466 -0.3787  0.2255  0.0391
    1SOL    HW2 1538   1.525   4.551   0.429 -0.2811  1.5069  0.4223
    1SOL    HW3 1539   1.661   4.612   0.451 -0.1401  0.5662  2.3365
    1SOL    MW4 1540   1.606   4.546   0.459 -0.3344  0.4392  0.3927
    1SOL     OW 1541   1.784   4.309   0.808 -0.0652  0.2463 -0.1516
    1SOL    HW2 1542   1.784   4.306   0.903  0.6117  0.5249 -0.1422
    1SOL    HW3 1543   1.779   4.217   0.781  2.3754 -0.0090  0.1550
    1SOL    MW4 1544   1.783   4.296   0.817  0.3462  0.2494 -0.1099
    1SOL     OW 1545   2.045   3.196   0.365  0.0089 -0.5959  0.3394
    1SOL    HW2 1546   2.070   3.192   0.273  1.1821  1.0479  0.5701
    1SOL    HW3 1547   2.074   3.113   0.402 -0.1399 -1.1081 -0.6897
    1SOL    MW4 1548   2.052   3.185   0.358  0.1442 -0.4463  0.2340
    1SOL     OW 1549   2.930   2.966   0.506  0.5331 -0.1100 -0.9119
    1SOL    HW2 1550   2.845   2.993   0.472  0.1121 -0.9877 -0.5834
    1SOL    HW3 1551   2.960   2.899   0.445  0.0388 -1.2743  0.0928
    1SOL    MW4 1552   2.923   2.961   0.494  0.4125 -0.3793 -0.7360
    1SOL     OW 1553   1.358   3.486   0.367 -0.0093 -0.1824  1.1676
    1SOL    HW2 1554   1.433   3.543   0.384  0.5830 -0.0928 -1.6210
    1SOL    HW3 1555   1.283   3.534   0.403  0.5037  2.3080 -0.9253
    1SOL    MW4 1556   1.358   3.500   0.374  0.1366  0.1581  0.5235
    1SOL     OW 1557   1.773   4.039   0.710 -0.2017  0.3439  0.2235
    1SOL    HW2 1558   1.852   4.002   0.749  0.0628  0.4014 -0.2416
    1SOL    HW3 1559   1.701   3.992   0.750  0.0605  0.4656  0.8400
    1SOL    MW4 1560   1.774   4.028   0.720 -0.1324  0.3676  0.2435
    1SOL     OW 1561   3.153   3.973   0.692  0.0152 -0.2431  0.5605
    1SOL    HW2 1562   3.089   3.952   0.761 -1.4101 -0.8051 -0.9105
    1SOL    HW3 1563   3.234   3.931   0.721 -0.8339 -1.3481  1.3848
    1SOL    MW4 1564   3.155   3.965   0.705 -0.2849 -0.4628  0.4752
    1SOL     OW 1565   2.236   2.525   0.197 -0.3066  0.5129  0.0965
    1SOL    HW2 1566   2.159   2.565   0.157 -0.0640  1.5762  0.6814
    1SOL    HW3 1567   2.295   2.598   0.214  0.6608 -0.2512  0.0301
    1SOL    MW4 1568   2.233   2.540   0.194 -0.1471  0.5522  0.1649
    1SOL     OW 1569   2.395   1.099   0.280  0.4222 -0.2238  0.6990
    1SOL    HW2 1570   2.309   1.136   0.262  1.1515  0.8559 -0.7201
    1SOL    HW3 1571   2.380   1.006   0.293 -1.1895  0.2292  2.2475
    1SOL    MW4 1572   2.382   1.092   0.279  0.3059 -0.0216  0.7160
    1SOL     OW 1573   2.923   0.782   0.792 -0.1837  0.2066  0.1968
    1SOL    HW2 1574   2.950   0.754   0.880  0.4658  0.9567  0.2395
    1SOL    HW3 1575   3.003   0.816   0.752 -0.2680 -0.9758 -1.0270
    1SOL    MW4 1576   2.938   0.783   0.798 -0.1090  0.1496  0.0409
    1SOL     OW 1577   3.093   3.862   0.252 -0.2022  0.2508 -0.0914
    1SOL    HW2 1578   3.019   3.917   0.228 -0.9015 -0.7293 -0.2278
    1SOL    HW3 1579   3.069   3.775   0.221  0.5090 -0.3038  0.8774
    1SOL    MW4 1580   3.080   3.858   0.245 -0.2007  0.0484  0.0184
    1SOL     OW 1581   2.468   0.771   0.814  0.5955 -0.0406 -0.1400
    1SOL    HW2 1582   2.547   0.805   0.774  1.3450 -0.8736  0.6052
    1SOL    HW3 1583   2.461   0.681   0.783 -0.4105  0.2200 -0.7036
    1SOL    MW4 1584   2.477   0.763   0.805  0.5617 -0.1161 -0.1161
    1SOL     OW 1585   1.738   0.967   0.438 -0.3772  0.7627  0.2578
    1SOL    HW2 1586   1.758   0.974   0.531  0.3549  0.2100  0.1482
    1SOL    HW3 1587   1.765   0.878   0.414 -0.6797  0.8594 -0.4504
    1SOL    MW4 1588   1.744   0.956   0.447 -0.3206  0.7025  0.1499
    1SOL     OW 1589   3.138   0.988   0.430 -0.6627 -0.8657  0.0080
    1SOL    HW2 1590   3.069   0.948   0.377  0.2069 -1.7551 -0.4598
    1SOL    HW3 1591   3.123   0.953   0.518 -0.7384 -1.1415 -0.1144
    1SOL    MW4 1592   3.127   0.978   0.435 -0.5577 -1.0194 -0.0699
    1SOL     OW 1593   1.065   2.795   0.430  0.1493  0.2962 -0.4447
    1SOL    HW2 1594   1.005   2.850   0.380  0.8270  0.1051 -1.4692
    1SOL    HW3 1595   1.152   2.822   0.401  0.5609  0.2619  0.7122
    1SOL    MW4 1596   1.069   2.806   0.420  0.2929  0.2663 -0.4272
    1SOL     OW 1597   3.113   2.758   0.415 -0.3545 -0.0940 -0.6632
    1SOL    HW2 1598   3.174   2.685   0.410 -0.4238 -0.2170  0.2023
    1SOL    HW3 1599   3.168   2.835   0.430 -0.3281 -0.0632 -0.9281
    1SOL    MW4 1600   3.128   2.759   0.417 -0.3603 -0.1061 -0.5840
    1SOL     OW 1601   2.724   1.588   0.688 -0.3215  0.1520  0.1863
    1SOL    HW2 1602   2.728   1.587   0.592  0.6027 -1.5402  0.2103
    1SOL    HW3 1603   2.722   1.680   0.711 -1.1527  0.5863 -1.4888
    1SOL    MW4 1604   2.724   1.600   0.678 -0.3092 -0.0141 -0.0315
    1SOL     OW 1605   3.169   1.678   0.637  0.6621 -0.4052 -0.3880
    1SOL    HW2 1606   3.191   1.704   0.547  0.5669  0.0363 -0.2837
    1SOL    HW3 1607   3.167   1.760   0.686  0.4612 -0.6203 -0.0349
    1SOL    MW4 1608   3.171   1.692   0.631  0.6230 -0.3753 -0.3276
    1SOL     OW 1609   4.355   0.001   0.600 -0.3081  0.2366 -0.3644
    1SOL    HW2 1610   4.291  -0.031   0.663 -0.1590  0.1487 -0.2558
    1SOL    HW3 1611   4.359  -0.067   0.533 -0.5655  0.3938 -0.5387
    1SOL    MW4 1612   4.347  -0.012   0.600 -0.3219  0.2456 -0.3731
    1SOL     OW 1613   1.900   2.319   0.479  0.1806 -0.2634  0.2372
    1SOL    HW2 1614   1.819   2.286   0.441  0.2229  0.6820 -0.7000
    1SOL    HW3 1615   1.874   2.357   0.563 -0.2568 -0.4027  0.1624
    1SOL    MW4 1616   1.886   2.320   0.485  0.1285 -0.1569  0.1037
    1SOL     OW 1617   2.681   1.141   0.804  0.0559  0.3178  0.3996
    1SOL    HW2 1618   2.756   1.189   0.770 -0.3004 -0.5110 -1.6927
    1SOL    HW3 1619   2.605   1.185   0.766 -0.3418 -0.8811 -0.2260
    1SOL    MW4 1620   2.681   1.153   0.794 -0.0436  0.0504  0.0410
    1SOL     OW 1621   2.921   2.290   0.578  0.2884 -0.1303  0.2330
    1SOL    HW2 1622   2.872   2.301   0.659  0.8919 -0.4937  0.6553
    1SOL    HW3 1623   2.932   2.196   0.568 -0.6741 -0.1343 -0.8222
    1SOL    MW4 1624   2.916   2.279   0.588  0.2410 -0.1788  0.1494
    1SOL     OW 1625   2.761   2.379   0.808  0.5474 -0.3806 -0.0280
    1SOL    HW2 1626   2.815   2.351   0.882  0.8145 -0.2683 -0.1803
    1SOL    HW3 1627   2.740   2.470   0.828 -0.3720 -0.6960  0.4975
    1SOL    MW4 1628   2.766   2.387   0.821  0.4616 -0.4075  0.0213
    1SOL     OW 1629   2.747   2.655   0.842 -0.1397  0.1291  0.2511
    1SOL    HW2 1630   2.806   2.728   0.823  1.3612 -1.1858 -0.1801
    1SOL    HW3 1631   2.735   2.658   0.937 -1.2090  1.7685  0.0935
    1SOL    MW4 1632   2.753   2.665   0.852 -0.0830  0.1719  0.1733
    1SOL     OW 1633   1.059   1.317   0.790 -0.1978  0.3539 -0.2084
    1SOL    HW2 1634   1.013   1.236   0.809  0.0340  0.0704 -0.8613
    1SOL    HW3 1635   1.052   1.328   0.696  0.6442  0.5698 -0.2480
    1SOL    MW4 1636   1.052   1.308   0.780 -0.0560  0.3450 -0.2998
    1SOL     OW 1637   1.473   1.009   0.405 -0.1735 -0.2328 -0.3676
    1SOL    HW2 1638   1.565   0.984   0.413 -0.1488  0.1066  0.5569
    1SOL    HW3 1639   1.434   0.985   0.490 -1.3434 -1.9996 -1.3715
    1SOL    MW4 1640   1.480   1.003   0.417 -0.3246 -0.4213 -0.3781
    1SOL     OW 1641   2.458   3.089   0.802  0.1240 -0.4081  0.1057
    1SOL    HW2 1642   2.529   3.152   0.790 -0.3435 -0.0755 -0.9682
    1SOL    HW3 1643   2.448   3.082   0.897  0.3164  0.9807  0.2364
    1SOL    MW4 1644   2.466   3.096   0.813  0.0875 -0.1812 -0.0187
    1SOL     OW 1645   2.699   3.520   0.860  0.1623 -0.2457  0.5861
    1SOL    HW2 1646   2.769   3.579   0.830  0.3934 -1.8595 -2.2329
    1SOL    HW3 1647   2.718   3.506   0.953  2.0030  1.5111  0.5140
    1SOL    MW4 1648   2.711   3.526   0.868  0.4356 -0.2267  0.2046
    1SOL     OW 1649   2.951   3.668   0.788 -0.1860 -0.2513  0.2737
    1SOL    HW2 1650   3.010   3.593   0.796 -0.7945 -0.8479 -0.7009
    1SOL    HW3 1651   2.991   3.735   0.843  1.1922 -0.7702 -0.0593
    1SOL    MW4 1652   2.964   3.667   0.796 -0.0842 -0.3984  0.1012
    1SOL     OW 1653   2.395   2.899   0.506  0.2360  0.6722  0.4292
    1SOL    HW2 1654   2.425   2.853   0.585 -0.4729  0.5249  0.6257
    1SOL    HW3 1655   2.394   2.831   0.438  0.9609  0.8263  0.2620
    1SOL    MW4 1656   2.399   2.884   0.508  0.2382  0.6733  0.4331
    1SOL     OW 1657   0.701   4.433   0.417  0.2825 -0.0558  0.0185
    1SOL    HW2 1658   0.690   4.428   0.512  0.1047 -1.5478 -0.0577
    1SOL    HW3 1659   0.616   4.463   0.384  0.3388  0.4429  0.3264
    1SOL    MW4 1660   0.689   4.436   0.425  0.2664 -0.1869  0.0490
    1SOL     OW 1661   2.692   4.011   0.765  0.0662 -0.1006  0.0988
    1SOL    HW2 1662   2.702   4.105   0.779 -0.2220 -0.1936  0.9210
    1SOL    HW3 1663   2.607   3.989   0.804  0.0509 -0.6687 -0.2421
    1SOL    MW4 1664   2.682   4.020   0.772  0.0265 -0.1879  0.1624
    1SOL     OW 1665   2.917   1.265   0.727 -0.8699  0.0327 -0.6040
    1SOL    HW2 1666   2.942   1.354   0.754 -0.0647  0.0053 -1.2430
    1SOL    HW3 1667   2.967   1.208   0.785 -0.2358 -0.0134 -1.1925
    1SOL    MW4 1668   2.927   1.269   0.738 -0.6802  0.0231 -0.7660
    1SOL     OW 1669   2.018   0.534   0.762 -0.6619  0.1034 -0.3545
    1SOL    HW2 1670   1.938   0.485   0.781 -0.0526 -1.5264 -1.8369
    1SOL    HW3 1671   2.008   0.617   0.810 -2.4306 -0.8034  0.8996
    1SOL    MW4 1672   2.006   0.538   0.771 -0.8149 -0.2313 -0.3846
    1SOL     OW 1673   2.299   0.495   0.411  0.1888 -0.1932 -0.2178
    1SOL    HW2 1674   2.272   0.420   0.359  0.1480  0.0086 -0.4860
    1SOL    HW3 1675   2.393   0.483   0.424  0.3157  0.0990 -0.8837
    1SOL    MW4 1676   2.308   0.484   0.406  0.2000 -0.1281 -0.3410
    1SOL     OW 1677   0.968   2.057   0.503 -0.2284 -0.1670 -0.1095
    1SOL    HW2 1678   1.033   2.052   0.433 -1.1556 -1.6609 -0.8958
    1SOL    HW3 1679   1.018   2.048   0.584  0.8389  1.4229 -0.5589
    1SOL    MW4 1680   0.983   2.055   0.504 -0.2100 -0.1545 -0.2726
    1SOL     OW 1681   3.159   0.379   0.789  0.3662 -0.3507 -0.0285
    1SOL    HW2 1682   3.147   0.382   0.884  0.9830  0.0906  0.0383
    1SOL    HW3 1683   3.238   0.430   0.773  0.0846 -0.1465 -0.8153
    1SOL    MW4 1684   3.168   0.386   0.799  0.4106 -0.2655 -0.1235
    1SOL     OW 1685   2.870   2.325   0.306 -0.3600 -0.1258  0.1267
    1SOL    HW2 1686   2.813   2.253   0.278  0.7214 -0.7478 -0.4639
    1SOL    HW3 1687   2.858   2.328   0.402 -1.2650 -0.3437  0.0321
    1SOL    MW4 1688   2.861   2.316   0.315 -0.3369 -0.2365  0.0364
    1SOL     OW 1689   2.500   0.513   0.682 -0.1506 -0.0427  0.0792
    1SOL    HW2 1690   2.421   0.464   0.706  0.3268 -0.0400  1.7529
    1SOL    HW3 1691   2.570   0.470   0.732  0.8562  0.1566 -1.1364
    1SOL    MW4 1692   2.499   0.501   0.692  0.0451 -0.0160  0.1397
    1SOL     OW 1693   3.814   4.378   0.692 -0.1163 -0.1441  0.0629
    1SOL    HW2 1694   3.740   4.341   0.740 -1.0179  1.0741 -0.3625
    1SOL    HW3 1695   3.782   4.385   0.602  1.1132 -1.2069 -0.4537
    1SOL    MW4 1696   3.800   4.374   0.687 -0.0730 -0.1235 -0.0613
    1SOL     OW 1697   3.382   1.551   0.751  0.0976  0.4286 -0.0473
    1SOL    HW2 1698   3.304   1.593   0.716 -0.1876 -0.6840 -0.7613
    1SOL    HW3 1699   3.369   1.552   0.846 -0.7059  0.3921 -0.1530
    1SOL    MW4 1700   3.370   1.557   0.759 -0.0460  0.2770 -0.1554
    1SOL     OW 1701   2.220   0.910   0.749  0.0334  0.2653 -0.1137
    1SOL    HW2 1702   2.207   0.910   0.654  1.3587  2.2431 -0.3453
    1SOL    HW3 1703   2.300   0.858   0.762 -0.9291 -1.1874  0.0691
    1SOL    MW4 1704   2.229   0.903   0.738  0.0813  0.3346 -0.1201
    1SOL     OW 1705   3.601   0.888   0.709  0.4136  0.2820  0.3213
    1SOL    HW2 1706   3.636   0.913   0.623 -0.1835  0.7326  0.2026
    1SOL    HW3 1707   3.670   0.836   0.749  0.5941 -0.1638 -0.5460
    1SOL    MW4 1708   3.614   0.884   0.703  0.3588  0.2826  0.1913
    1SOL     OW 1709   4.245   2.598   0.419 -0.0343  0.1695 -0.1580
    1SOL    HW2 1710   4.157   2.565   0.439  0.1993 -0.8692 -0.7990
    1SOL    HW3 1711   4.266   2.558   0.334  0.8375  0.8472 -0.2603
    1SOL    MW4 1712   4.236   2.588   0.410  0.1111  0.1221 -0.2560
    1SOL     OW 1713   1.574   3.859   0.822 -0.1348  0.7163  0.5391
    1SOL    HW2 1714   1.484   3.879   0.795 -0.7637 -1.1263  1.1725
    1SOL    HW3 1715   1.600   3.787   0.763  2.1785  3.4606 -1.9406
    1SOL    MW4 1716   1.565   3.852   0.810  0.0874  0.8349  0.2955
    1SOL     OW 1717   3.811   0.032   0.364 -0.4956 -0.3645 -0.3455
    1SOL    HW2 1718   3.720   0.006   0.379 -0.4276 -0.4750 -0.1236
    1SOL    HW3 1719   3.862  -0.047   0.382 -0.3330 -0.2263 -0.1956
    1SOL    MW4 1720   3.806   0.019   0.369 -0.4649 -0.3608 -0.2965
    1SOL     OW 1721   3.554   2.540   0.469 -0.1406 -0.7979  0.5095
    1SOL    HW2 1722   3.581   2.478   0.402 -0.1057 -0.9606  0.6734
    1SOL    HW3 1723   3.545   2.487   0.548 -0.8673 -0.7391  0.4728
    1SOL    MW4 1724   3.556   2.525   0.471 -0.2320 -0.8116  0.5262
    1SOL     OW 1725   2.888   2.866   0.758 -0.3832  0.0477 -0.5082
    1SOL    HW2 1726   2.971   2.836   0.795 -0.5558  0.8641  0.5891
    1SOL    HW3 1727   2.909   2.893   0.668  0.9291  1.9070  0.3205
    1SOL    MW4 1728   2.902   2.866   0.751 -0.2332  0.4005 -0.2540
    1SOL     OW 1729   1.814   1.730   0.693  0.3549 -0.1997 -0.5325
    1SOL    HW2 1730   1.730   1.690   0.715 -0.1568  0.1530 -1.7874
    1SOL    HW3 1731   1.879   1.669   0.727 -0.3737  0.4906  2.1943
    1SOL    MW4 1732   1.812   1.717   0.700  0.1911 -0.0620 -0.3383
    1SOL     OW 1733   1.329   3.224   0.473 -0.0049  0.3752 -0.1775
    1SOL    HW2 1734   1.413   3.180   0.462 -0.1775 -0.1072  0.4612
    1SOL    HW3 1735   1.347   3.315   0.449  0.6620  0.2461 -0.1822
    1SOL    MW4 1736   1.342   3.230   0.468  0.0603  0.2944 -0.0938
    1SOL     OW 1737   3.109   3.201   0.795 -0.2098 -0.1502 -0.2318
    1SOL    HW2 1738   3.018   3.186   0.820 -0.2849  1.1885  0.3089
    1SOL    HW3 1739   3.109   3.190   0.699 -0.7995 -0.8211 -0.1600
    1SOL    MW4 1740   3.097   3.197   0.785 -0.2975 -0.0620 -0.1511
    1SOL     OW 1741   3.162   3.485   0.826  0.0006 -0.3462  0.4443
    1SOL    HW2 1742   3.134   3.394   0.817 -1.7705  0.2459 -0.2419
    1SOL    HW3 1743   3.174   3.496   0.921  0.6897 -1.4214  0.4907
    1SOL    MW4 1744   3.160   3.474   0.838 -0.1421 -0.4101  0.3599
    1SOL     OW 1745   3.531   3.411   0.498 -0.8436  0.0226 -0.3908
    1SOL    HW2 1746   3.593   3.479   0.471 -0.5846 -0.1475 -0.2165
    1SOL    HW3 1747   3.483   3.450   0.572  1.8415 -1.3387  2.1699
    1SOL    MW4 1748   3.533   3.425   0.504 -0.4551 -0.1798 -0.0300
    1SOL     OW 1749   3.577   4.012   0.737  0.3281 -0.8068 -0.1907
    1SOL    HW2 1750   3.510   3.943   0.741  0.9614 -1.4896 -1.2110
    1SOL    HW3 1751   3.646   3.981   0.796 -0.0306 -0.3451  0.4721
    1SOL    MW4 1752   3.577   3.998   0.746  0.3643 -0.8361 -0.2379
    1SOL     OW 1753   4.260   0.162   0.401  0.2115  0.9583  0.0713
    1SOL    HW2 1754   4.287   0.107   0.475  0.5604  2.0031  0.7220
    1SOL    HW3 1755   4.166   0.175   0.414 -0.1302 -0.4985 -0.7654
    1SOL    MW4 1756   4.251   0.156   0.412  0.2127  0.9040  0.0468
    1SOL     OW 1757   3.132   4.250   0.839  0.0047  0.2085 -0.1891
    1SOL    HW2 1758   3.053   4.284   0.797  0.4330  0.2408 -0.9839
    1SOL    HW3 1759   3.152   4.169   0.791  1.1597  0.8529 -0.8098
    1SOL    MW4 1760   3.124   4.244   0.827  0.2136  0.2985 -0.3758
    1SOL     OW 1761   2.835   1.010   0.313  0.0209 -0.4772  0.3263
    1SOL    HW2 1762   2.865   1.083   0.366 -0.4424 -1.5871  2.1493
    1SOL    HW3 1763   2.767   1.048   0.257  2.5018  1.3324 -1.5848
    1SOL    MW4 1764   2.830   1.025   0.312  0.2873 -0.3848  0.3147
    1SOL     OW 1765   2.020   1.547   0.798 -0.1063  0.2008 -0.7701
    1SOL    HW2 1766   2.002   1.468   0.746  1.0586 -0.9550  0.5063
    1SOL    HW3 1767   2.109   1.571   0.773 -0.3882  0.9938 -1.0020
    1SOL    MW4 1768   2.030   1.540   0.788  0.0103  0.1528 -0.6323
    1SOL     OW 1769   3.107   0.126   0.690 -0.1033  0.6271 -0.0394
    1SOL    HW2 1770   3.129   0.202   0.744  1.2491  0.6690 -0.6496
    1SOL    HW3 1771   3.171   0.060   0.713  0.1768  0.4735 -1.2202
    1SOL    MW4 1772   3.118   0.128   0.700  0.1121  0.6124 -0.2757
    1SOL     OW 1773   3.624   0.383   0.801  0.0454  0.1421 -0.0907
    1SOL    HW2 1774   3.712   0.411   0.777 -0.1620  0.5806 -0.3311
    1SOL    HW3 1775   3.620   0.395   0.896  0.6239 -0.9327  0.0843
    1SOL    MW4 1776   3.635   0.388   0.811  0.0944  0.0581 -0.0992
    1SOL     OW 1777   0.664   0.546   0.781 -0.4805  0.0795 -0.0123
    1SOL    HW2 1778   0.596   0.502   0.832  0.1459 -0.8345  0.0381
    1SOL    HW3 1779   0.744   0.497   0.799  0.4739  1.9103  0.9340
    1SOL    MW4 1780   0.666   0.534   0.790 -0.2719  0.2005  0.1191
    1SOL     OW 1781   3.820   0.746   0.825 -0.0826 -0.3551 -0.0361
    1SOL    HW2 1782   3.810   0.760   0.919  0.7375  0.2544 -0.0302
    1SOL    HW3 1783   3.903   0.790   0.804 -0.0074 -0.9353 -0.9426
    1SOL    MW4 1784   3.830   0.754   0.835  0.0353 -0.3513 -0.1550
    1SOL     OW 1785   1.442   1.878   0.308 -0.0603 -0.2728 -0.0424
    1SOL    HW2 1786   1.405   1.818   0.373  0.4202 -0.6025 -0.0760
    1SOL    HW3 1787   1.528   1.842   0.288 -0.1099 -0.0307 -0.6823
    1SOL    MW4 1788   1.448   1.866   0.314 -0.0036 -0.2844 -0.1312
    1SOL     OW 1789   3.863   1.551   0.801  0.0528  0.1762 -0.4340
    1SOL    HW2 1790   3.842   1.459   0.784  0.7612 -0.0389 -0.1550
    1SOL    HW3 1791   3.802   1.600   0.746 -1.8982 -0.4117  1.1093
    1SOL    MW4 1792   3.852   1.545   0.792 -0.1111  0.0701 -0.1936
    1SOL     OW 1793   2.746   2.081   0.279 -0.0793  0.0274  0.0619
    1SOL    HW2 1794   2.811   2.015   0.304  0.1571  0.3495  0.2987
    1SOL    HW3 1795   2.741   2.074   0.183  0.0322 -0.2527  0.0756
    1SOL    MW4 1796   2.754   2.071   0.270 -0.0334  0.0331  0.0949
    1SOL     OW 1797   4.304   2.843   0.800  0.2590 -0.0234 -0.0542
    1SOL    HW2 1798   4.373   2.812   0.859 -0.3600  1.2002  1.3432
    1SOL    HW3 1799   4.296   2.937   0.820 -1.3824 -0.0241 -0.6334
    1SOL    MW4 1800   4.312   2.851   0.810 -0.0391  0.1380  0.0538
    1SOL     OW 1801   1.167   0.519   0.707  0.1585 -0.3016 -0.5322
    1SOL    HW2 1802   1.242   0.464   0.729  1.6777  1.4615 -1.1956
    1SOL    HW3 1803   1.093   0.477   0.750  1.7912 -1.1749  1.4948
    1SOL    MW4 1804   1.167   0.506   0.716  0.5745 -0.1842 -0.3523
    1SOL     OW 1805   3.795   2.710   0.457 -0.2974 -0.0771 -0.2848
    1SOL    HW2 1806   3.872   2.654   0.468 -0.1642  0.3267  0.8530
    1SOL    HW3 1807   3.721   2.650   0.466 -0.1313 -0.7721 -3.0458
    1SOL    MW4 1808   3.795   2.694   0.460 -0.2577 -0.1156 -0.4990
    1SOL     OW 1809   3.348   2.340   0.789  0.2163 -0.2775  0.3100
    1SOL    HW2 1810   3.325   2.333   0.882  0.0329  0.2904  0.3084
    1SOL    HW3 1811   3.356   2.249   0.760 -0.8774 -0.4740  0.5980
    1SOL    MW4 1812   3.346   2.327   0.797  0.0474 -0.2286  0.3478
    1SOL     OW 1813   3.791   2.335   1.118 -0.5724 -0.4309  0.0578
    1SOL    HW2 1814   3.869   2.380   1.151 -1.0745  0.1058  0.5498
    1SOL    HW3 1815   3.814   2.308   1.030 -0.9313  2.6552 -1.0674
    1SOL    MW4 1816   3.804   2.338   1.111 -0.6859  0.0472 -0.0259
    1SOL     OW 1817   1.828   2.408   0.078 -0.3786 -0.1028  0.5304
    1SOL    HW2 1818   1.846   2.318   0.105 -1.0868  0.1557  1.8851
    1SOL    HW3 1819   1.775   2.444   0.149 -0.1576  1.3629 -0.0472
    1SOL    MW4 1820   1.823   2.401   0.091 -0.4427  0.1247  0.6329
    1SOL     OW 1821   3.583   2.714   0.808  0.5382 -0.4372  0.1140
    1SOL    HW2 1822   3.599   2.699   0.901 -1.7076  0.1951  0.6283
    1SOL    HW3 1823   3.661   2.761   0.778  1.7443 -1.5307  1.4231
    1SOL    MW4 1824   3.596   2.718   0.817  0.4010 -0.4981  0.3546
    1SOL     OW 1825   1.838   3.593   0.445  0.2073 -0.0925  0.1237
    1SOL    HW2 1826   1.820   3.504   0.478  1.0876 -0.4049 -0.2071
    1SOL    HW3 1827   1.917   3.620   0.492 -0.5067  0.8381  0.8048
    1SOL    MW4 1828   1.846   3.584   0.456  0.2294 -0.0110  0.1700
    1SOL     OW 1829   3.801   3.096   0.815 -0.1799 -0.3084  0.2317
    1SOL    HW2 1830   3.715   3.135   0.799  0.7172  0.8766 -1.8413
    1SOL    HW3 1831   3.791   3.003   0.793 -1.1977 -0.3933  1.0421
    1SOL    MW4 1832   3.789   3.089   0.810 -0.1960 -0.1636  0.0651
    1SOL     OW 1833   4.129   1.909   0.333  0.1115  0.0842 -0.0824
    1SOL    HW2 1834   4.146   1.831   0.386  0.3500  0.0058 -0.2737
    1SOL    HW3 1835   4.202   1.913   0.271  0.2189  0.5845  0.0731
    1SOL    MW4 1836   4.141   1.899   0.332  0.1574  0.1398 -0.0871
    1SOL     OW 1837   3.541   3.194   0.761 -0.1482 -0.3165 -0.6985
    1SOL    HW2 1838   3.519   3.186   0.668  1.1813 -0.2241 -1.0316
    1SOL    HW3 1839   3.474   3.144   0.806 -0.3515 -1.0310 -1.7705
    1SOL    MW4 1840   3.530   3.186   0.754  0.0002 -0.3989 -0.8839
    1SOL     OW 1841   4.202   3.996   0.509  0.3241 -0.0015 -0.0432
    1SOL    HW2 1842   4.292   3.982   0.480  0.3614 -0.4809  0.3046
    1SOL    HW3 1843   4.180   4.084   0.477 -0.1643 -1.0908 -2.8955
    1SOL    MW4 1844   4.211   4.006   0.501  0.2637 -0.2079 -0.3737
    1SOL     OW 1845   3.750   3.591   0.735 -0.0953  0.2366 -0.5585
    1SOL    HW2 1846   3.832   3.547   0.756 -0.7186 -0.2333  0.9785
    1SOL    HW3 1847   3.745   3.590   0.639  0.7851 -1.4045 -0.5905
    1SOL    MW4 1848   3.760   3.585   0.725 -0.0615 -0.0420 -0.3601
    1SOL     OW 1849   0.524   1.810   0.476  0.0089  0.2366 -0.2633
    1SOL    HW2 1850   0.602   1.768   0.441 -0.9406 -0.9979 -0.8990
    1SOL    HW3 1851   0.512   1.771   0.563 -0.6198 -0.4792 -0.6737
    1SOL    MW4 1852   0.532   1.799   0.483 -0.1993 -0.0206 -0.4013
    1SOL     OW 1853   2.240   3.521   0.896 -0.1815  0.0944 -0.1319
    1SOL    HW2 1854   2.249   3.433   0.859  1.6863 -0.8702  2.4642
    1SOL    HW3 1855   2.305   3.573   0.848 -1.7561  0.2931 -2.1469
    1SOL    MW4 1856   2.250   3.516   0.885 -0.1428 -0.0067 -0.0553
    1SOL     OW 1857   1.165   4.354   0.402 -0.1060  0.5065 -0.0218
    1SOL    HW2 1858   1.180   4.268   0.364 -0.5963  0.1856  0.5002
    1SOL    HW3 1859   1.106   4.398   0.341  0.5097  0.6445 -0.5218
    1SOL    MW4 1860   1.159   4.348   0.389 -0.0895  0.4821 -0.0189
    1SOL     OW 1861   0.128   0.125   0.678  0.7680 -0.1739  0.2200
    1SOL    HW2 1862   0.053   0.082   0.635  1.2050 -1.0668  0.3237
    1SOL    HW3 1863   0.089   0.186   0.740  0.1255 -0.5529  0.1927
    1SOL    MW4 1864   0.113   0.127   0.680  0.7408 -0.3417  0.2301
    1SOL     OW 1865   3.564   0.103   0.709  0.2387  0.0400 -0.0676
    1SOL    HW2 1866   3.581   0.196   0.723  0.1615 -0.0591  0.6925
    1SOL    HW3 1867   3.634   0.058   0.757 -0.3966 -0.3123  0.5368
    1SOL    MW4 1868   3.575   0.109   0.717  0.1450 -0.0196  0.1125
    1SOL     OW 1869   0.006   0.535   0.398 -0.0849 -0.2786  0.8890
    1SOL    HW2 1870   0.040   0.622   0.418  0.0727 -0.3534  0.9463
    1SOL    HW3 1871   0.082   0.486   0.366 -0.5606  0.1949 -1.0479
    1SOL    MW4 1872   0.020   0.540   0.396 -0.1269 -0.2260  0.6410
    1SOL     OW 1873   0.036   2.745   0.923  0.0853 -0.1280 -0.5116
    1SOL    HW2 1874   0.047   2.739   1.018 -1.8968 -0.5756 -0.2754
    1SOL    HW3 1875   0.118   2.781   0.891  1.0979 -0.7762  1.2899
    1SOL    MW4 1876   0.048   2.749   0.931 -0.0426 -0.2720 -0.2428
    1SOL     OW 1877   4.289   0.761   0.809 -0.5294  0.2543 -0.1823
    1SOL    HW2 1878   4.271   0.762   0.903 -1.6109  1.0891 -0.3846
    1SOL    HW3 1879   4.298   0.668   0.787  1.3880  0.1391  1.0345
    1SOL    MW4 1880   4.288   0.749   0.818 -0.4191  0.3493 -0.0485
    1SOL     OW 1881   4.182   3.316   0.387  0.1424  0.4103 -1.1032
    1SOL    HW2 1882   4.199   3.387   0.449 -1.4172 -0.1352 -0.0002
    1SOL    HW3 1883   4.113   3.350   0.330  0.3452  0.2693 -1.4367
    1SOL    MW4 1884   4.175   3.330   0.388 -0.0367  0.3197 -1.0017
    1SOL     OW 1885   1.322   1.734   0.768 -0.0131 -0.1530 -0.5299
    1SOL    HW2 1886   1.410   1.714   0.800 -0.2876  1.2285  1.1559
    1SOL    HW3 1887   1.326   1.717   0.674  1.9478 -0.4534 -0.4098
    1SOL    MW4 1888   1.334   1.729   0.760  0.2095 -0.0103 -0.2916
    1SOL     OW 1889   2.249   4.223   0.824 -0.2786  0.2455  0.1587
    1SOL    HW2 1890   2.192   4.295   0.797  1.3303  0.7873 -1.9459
    1SOL    HW3 1891   2.237   4.157   0.755  0.9097 -0.0312  0.2093
    1SOL    MW4 1892   2.240   4.224   0.811  0.0904  0.2799 -0.1123
    1SOL     OW 1893   4.297   1.510   0.904 -0.3753 -0.1372 -0.0093
    1SOL    HW2 1894   4.307   1.415   0.902 -0.7324 -0.2124  1.1749
    1SOL    HW3 1895   4.286   1.531   0.997  0.8039  1.1743 -0.1520
    1SOL    MW4 1896   4.297   1.501   0.916 -0.2670  0.0260  0.1281
    1SOL     OW 1897   0.914   1.100   0.844  0.0165  0.0299 -0.2323
    1SOL    HW2 1898   0.836   1.152   0.826 -0.1820  0.1194  0.8614
    1SOL    HW3 1899   0.907   1.025   0.785  1.0642  1.9611 -2.9027
    1SOL    MW4 1900   0.903   1.097   0.834  0.1285  0.2965 -0.4404
    1SOL     OW 1901   0.902   4.123   0.126  0.1473 -0.0768  0.0181
    1SOL    HW2 1902   0.935   4.185   0.062 -0.1184 -0.1708 -0.2148
    1SOL    HW3 1903   0.972   4.115   0.191  0.3134  0.2136 -0.1237
    1SOL    MW4 1904   0.915   4.130   0.126  0.1341 -0.0510 -0.0314
    1SOL     OW 1905   4.036   3.218   0.723  0.3850 -0.2547 -0.2321
    1SOL    HW2 1906   3.965   3.167   0.762 -0.9183  1.8798  0.2777
    1SOL    HW3 1907   4.068   3.164   0.651  0.2413 -2.5491  1.3940
    1SOL    MW4 1908   4.031   3.204   0.718  0.1945 -0.2761  0.0497
    1SOL     OW 1909   0.247   2.290   1.076  0.0073 -0.1431 -0.1796
    1SOL    HW2 1910   0.171   2.335   1.113  0.1176  0.5320 -0.7751
    1SOL    HW3 1911   0.322   2.333   1.117  0.1001 -0.0318 -0.4637
    1SOL    MW4 1912   0.247   2.302   1.086  0.0341 -0.0393 -0.2958
    1SOL     OW 1913   1.977   3.912   0.841 -0.0480 -0.1958  0.0308
    1SOL    HW2 1914   1.996   3.912   0.935 -2.0482 -0.2652  0.4586
    1SOL    HW3 1915   1.964   3.820   0.819 -0.6685 -0.0847 -0.0742
    1SOL    MW4 1916   1.977   3.900   0.851 -0.3936 -0.1903  0.0733
    1SOL     OW 1917   3.821   2.832   0.732 -0.1750  0.1028  0.2170
    1SOL    HW2 1918   3.904   2.802   0.769 -0.2456 -0.7499 -0.3041
    1SOL    HW3 1919   3.830   2.818   0.638 -0.9005  0.0261  0.1583
    1SOL    MW4 1920   3.833   2.826   0.725 -0.2801 -0.0198  0.1405
    1SOL     OW 1921   0.866   1.964   0.904 -0.2019  0.1537 -0.2515
    1SOL    HW2 1922   0.810   2.038   0.881  0.6119  1.0014  0.4288
    1SOL    HW3 1923   0.866   1.962   0.999  0.8691  0.1482 -0.2366
    1SOL    MW4 1924   0.859   1.974   0.913  0.0468  0.2649 -0.1598
    1SOL     OW 1925   1.969   1.429   0.198  0.4680 -0.2023 -0.3130
    1SOL    HW2 1926   1.990   1.441   0.106  1.3606 -1.3331 -0.2657
    1SOL    HW3 1927   2.000   1.509   0.240 -0.8048  0.7389 -1.1089
    1SOL    MW4 1928   1.976   1.441   0.192  0.4178 -0.2273 -0.4118
    1SOL     OW 1929   3.561   2.008   0.278 -0.3770  0.2010  0.0124
    1SOL    HW2 1930   3.651   1.980   0.295 -0.5814  0.8636  2.3919
    1SOL    HW3 1931   3.524   1.937   0.226  1.6071  0.0770 -1.2766
    1SOL    MW4 1932   3.568   1.995   0.274 -0.1421  0.2720  0.1563
    1SOL     OW 1933   3.599   3.437   0.896  0.0989  0.0229 -0.2047
    1SOL    HW2 1934   3.668   3.481   0.848  0.5943 -1.0126 -0.4508
    1SOL    HW3 1935   3.575   3.362   0.841 -1.0174  0.2016  0.0105
    1SOL    MW4 1936   3.605   3.433   0.883  0.0172 -0.0901 -0.2087
    1SOL     OW 1937   4.315   3.890   0.855  0.4331  0.2164 -0.0885
    1SOL    HW2 1938   4.229   3.911   0.818  0.0239 -2.0588 -0.5132
    1SOL    HW3 1939   4.299   3.878   0.948  0.2478 -0.2951 -0.1808
    1SOL    MW4 1940   4.302   3.891   0.862  0.3548 -0.1512 -0.1567
    1SOL     OW 1941   0.800   1.483   0.404  0.0488  0.2527 -0.0807
    1SOL    HW2 1942   0.773   1.562   0.452 -1.0899 -0.6037  0.7176
    1SOL    HW3 1943   0.725   1.423   0.413  1.3661 -1.3615  0.3192
    1SOL    MW4 1944   0.786   1.486   0.411  0.0724 -0.0733  0.0774
    1SOL     OW 1945   3.811   3.851   0.853  0.3228 -0.0904 -0.0517
    1SOL    HW2 1946   3.886   3.888   0.807  1.5824 -0.1605  1.8957
    1SOL    HW3 1947   3.800   3.764   0.815  1.1686 -0.0463 -0.4033
    1SOL    MW4 1948   3.819   3.844   0.842  0.6006 -0.0935  0.1589
    1SOL     OW 1949   3.987   0.228   0.452 -0.1224 -0.1203 -0.5019
    1SOL    HW2 1950   3.922   0.163   0.425 -1.1685  0.1935  1.1838
    1SOL    HW3 1951   3.948   0.312   0.426 -0.3160  0.0588  0.3607
    1SOL    MW4 1952   3.973   0.231   0.445 -0.2859 -0.0553 -0.1657
    1SOL     OW 1953   3.793   4.636   0.820  0.3584 -0.1112 -0.3106
    1SOL    HW2 1954   3.807   4.544   0.796 -0.6590 -0.2099 -0.5482
    1SOL    HW3 1955   3.857   4.684   0.768  1.3829 -0.7490  0.3522
    1SOL    MW4 1956   3.803   4.630   0.810  0.3595 -0.2084 -0.2545
    1SOL     OW 1957   0.227   4.623   1.128  0.4319  0.2926 -0.0625
    1SOL    HW2 1958   0.299   4.654   1.183  0.6753 -0.2077 -0.0935
    1SOL    HW3 1959   0.255   4.641   1.038  0.1939  0.7728 -0.0437
    1SOL    MW4 1960   0.240   4.630   1.123  0.4326  0.2899 -0.0641
    1SOL     OW 1961   4.460   0.087   1.199  0.0974 -0.3088  0.1763
    1SOL    HW2 1962   4.383   0.043   1.162 -0.1838  0.5203 -0.2274
    1SOL    HW3 1963   4.533   0.028   1.180 -0.0939 -0.0246 -1.4490
    1SOL    MW4 1964   4.460   0.073   1.192  0.0350 -0.1619 -0.0916
    1SOL     OW 1965   0.008   0.340   1.097  0.1314 -0.4101  0.1386
    1SOL    HW2 1966  -0.069   0.384   1.135  0.9834  0.7803  0.4986
    1SOL    HW3 1967   0.001   0.250   1.128 -2.6024 -1.0299 -2.0478
    1SOL    MW4 1968  -0.003   0.334   1.106 -0.1168 -0.3348 -0.1025
    1SOL     OW 1969   0.220   0.473   1.195 -0.6578 -0.2255  0.3350
    1SOL    HW2 1970   0.207   0.558   1.152  1.0667  0.3894  0.9939
    1SOL    HW3 1971   0.152   0.417   1.157 -0.1932  0.7213 -2.0213
    1SOL    MW4 1972   0.209   0.477   1.184 -0.3690 -0.0195  0.1112
    1SOL     OW 1973   0.218   0.766   1.100 -0.3434  0.0869 -0.3839
    1SOL    HW2 1974   0.284   0.803   1.159 -0.8224 -0.8138  0.7217
    1SOL    HW3 1975   0.137   0.810   1.124 -0.6558 -0.7095  0.0501
    1SOL    MW4 1976   0.216   0.777   1.111 -0.4478 -0.1370 -0.1807
    1SOL     OW 1977   4.482   0.901   1.149  0.1046  0.2109  0.2470
    1SOL    HW2 1978   4.483   0.893   1.244  0.6411 -1.2401  0.1332
    1SOL    HW3 1979   4.484   0.995   1.132  1.4431  0.4421  1.6500
    1SOL    MW4 1980   4.482   0.912   1.159  0.3520  0.0500  0.4171
    1SOL     OW 1981   4.482   1.162   1.092 -0.1587  0.0511 -0.0975
    1SOL    HW2 1982   4.430   1.199   1.163 -0.1200 -1.5133  0.7607
    1SOL    HW3 1983   4.573   1.176   1.120 -0.1207  0.7462 -0.5407
    1SOL    MW4 1984   4.487   1.169   1.105 -0.1493 -0.0635 -0.0428
    1SOL     OW 1985   0.222   1.320   1.191  0.0071 -0.5277 -0.4179
    1SOL    HW2 1986   0.227   1.304   1.286  0.6958 -1.1369 -0.5482
    1SOL    HW3 1987   0.301   1.278   1.156  0.1672  0.3971 -1.1696
    1SOL    MW4 1988   0.233   1.312   1.199  0.1191 -0.4860 -0.5344
    1SOL     OW 1989   0.210   1.585   1.140 -0.6194  0.0903 -0.0948
    1SOL    HW2 1990   0.202   1.490   1.151 -0.0635  0.0668  0.1277
    1SOL    HW3 1991   0.200   1.599   1.046 -0.8300 -0.1766 -0.1119
    1SOL    MW4 1992   0.208   1.574   1.129 -0.5738  0.0519 -0.0678
    1SOL     OW 1993   4.484   1.699   1.260 -0.2874 -0.0602  0.0176
    1SOL    HW2 1994   4.493   1.792   1.237 -0.0340 -0.4795 -1.6315
    1SOL    HW3 1995   4.571   1.663   1.248 -0.3726 -0.5191  0.7177
    1SOL    MW4 1996   4.496   1.707   1.256 -0.2651 -0.1761 -0.1076
    1SOL     OW 1997   4.487   1.962   1.152 -0.2861 -0.2187 -0.2137
    1SOL    HW2 1998   4.404   2.003   1.178  0.1573  0.2252  0.4909
    1SOL    HW3 1999   4.469   1.926   1.065 -1.7157 -1.5021  0.5731
    1SOL    MW4 2000   4.473   1.963   1.144 -0.4163 -0.3294 -0.0168
    1SOL     OW 2001   0.235   2.062   1.235  0.1893  0.1627  0.0938
    1SOL    HW2 2002   0.247   2.154   1.209 -0.2313  0.6318  1.5251
    1SOL    HW3 2003   0.155   2.035   1.191 -0.4335  0.9039  0.7637
    1SOL    MW4 2004   0.226   2.071   1.226  0.0517  0.3223  0.3711
    1SOL     OW 2005   0.265   2.333   0.813 -0.8157 -0.1173 -0.1482
    1SOL    HW2 2006   0.198   2.400   0.803 -0.6635  0.0247 -0.2153
    1SOL    HW3 2007   0.262   2.309   0.906  0.3829  1.2961  0.2699
    1SOL    MW4 2008   0.256   2.338   0.824 -0.6375  0.0877 -0.1019
    1SOL     OW 2009   0.022   2.396   1.232  0.2158 -0.2055 -0.0563
    1SOL    HW2 2010   0.004   2.410   1.325  1.0112 -2.9976  0.5663
    1SOL    HW3 2011  -0.064   2.385   1.193 -0.0484 -0.4680  0.5929
    1SOL    MW4 2012   0.008   2.397   1.240  0.2858 -0.6087  0.1116
    1SOL     OW 2013   0.039   2.669   1.203  0.1686 -0.2898 -0.0146
    1SOL    HW2 2014  -0.047   2.696   1.237  0.5454  0.0728  0.6630
    1SOL    HW3 2015   0.038   2.574   1.211 -0.1880 -0.2928 -0.0596
    1SOL    MW4 2016   0.027   2.660   1.209  0.1717 -0.2427  0.0689
    1SOL     OW 2017   0.228   2.878   1.251  0.4809  0.0613 -0.4798
    1SOL    HW2 2018   0.232   2.879   1.347  1.8868  0.6142 -0.5446
    1SOL    HW3 2019   0.172   2.803   1.231  1.0005 -0.6726  0.7557
    1SOL    MW4 2020   0.221   2.868   1.261  0.7349  0.0374 -0.3253
    1SOL     OW 2021   0.221   3.128   1.128  0.0253 -0.4872 -0.0563
    1SOL    HW2 2022   0.301   3.175   1.152 -0.6803  0.0417  1.3696
    1SOL    HW3 2023   0.232   3.041   1.166  0.3937 -0.7680 -0.8065
    1SOL    MW4 2024   0.233   3.123   1.136 -0.0192 -0.4542  0.0329
    1SOL     OW 2025   4.463   3.197   1.272 -0.0190  0.3160  0.1403
    1SOL    HW2 2026   4.390   3.175   1.213 -1.3154 -0.2879  1.9368
    1SOL    HW3 2027   4.539   3.154   1.232 -0.8719 -0.0941 -1.0882
    1SOL    MW4 2028   4.463   3.188   1.259 -0.3028  0.1819  0.2152
    1SOL     OW 2029   4.481   3.475   1.186  0.0272 -0.1141 -0.2051
    1SOL    HW2 2030   4.485   3.384   1.215  0.4374  0.3677  1.2592
    1SOL    HW3 2031   4.486   3.469   1.090  0.0224 -1.6271 -0.1277
    1SOL    MW4 2032   4.482   3.462   1.177  0.0806 -0.2501 -0.0017
    1SOL     OW 2033   0.242   3.589   1.217  0.7121 -0.1507  0.2473
    1SOL    HW2 2034   0.252   3.593   1.312  1.0686 -0.3728  0.2227
    1SOL    HW3 2035   0.153   3.558   1.203  0.5961  0.0673  0.5088
    1SOL    MW4 2036   0.232   3.585   1.228  0.7438 -0.1514  0.2786
    1SOL     OW 2037   0.241   3.884   1.139  0.1649  0.2107  0.3495
    1SOL    HW2 2038   0.164   3.935   1.161 -0.3537 -1.0739  1.5750
    1SOL    HW3 2039   0.220   3.795   1.167  2.6877  0.1317  2.1763
    1SOL    MW4 2040   0.228   3.879   1.145  0.4293  0.0308  0.7522
    1SOL     OW 2041   0.001   4.027   1.207 -0.3858  0.7339 -0.1997
    1SOL    HW2 2042  -0.009   4.032   1.302  0.2912  2.3272 -0.2049
    1SOL    HW3 2043  -0.074   3.974   1.178 -0.7186  0.4321  1.1951
    1SOL    MW4 2044  -0.010   4.021   1.216 -0.3404  0.9041 -0.0163
    1SOL     OW 2045   4.488   4.265   1.072 -0.3316  0.4587  0.0582
    1SOL    HW2 2046   4.573   4.298   1.101 -0.2288  0.6721 -0.4737
    1SOL    HW3 2047   4.477   4.182   1.119  0.4443  0.1394 -0.3189
    1SOL    MW4 2048   4.498   4.258   1.082 -0.2156  0.4449 -0.0618
    1SOL     OW 2049   0.234   4.364   1.171 -0.0876  0.0450  0.3595
    1SOL    HW2 2050   0.232   4.357   1.267  1.5982  0.9018  0.4615
    1SOL    HW3 2051   0.240   4.458   1.154  2.9216 -0.2648 -0.5111
    1SOL    MW4 2052   0.234   4.376   1.182  0.5319  0.1173  0.2581
    1SOL     OW 2053   0.707   0.042   1.097 -0.6804  0.1679  0.0652
    1SOL    HW2 2054   0.785   0.083   1.136  0.4190 -0.4496 -1.4054
    1SOL    HW3 2055   0.685  -0.029   1.156  0.9178 -0.7190 -0.3733
    1SOL    MW4 2056   0.715   0.038   1.110 -0.3245 -0.0307 -0.1867
    1SOL     OW 2057   0.456   0.114   1.170 -0.0834  0.0093 -0.2831
    1SOL    HW2 2058   0.457   0.207   1.145 -1.7306 -0.3709 -1.8181
    1SOL    HW3 2059   0.538   0.079   1.136  0.6181  0.9329  0.4396
    1SOL    MW4 2060   0.467   0.122   1.162 -0.2082  0.0810 -0.3902
    1SOL     OW 2061   1.671   1.747   0.220 -0.4029  0.1674  0.1018
    1SOL    HW2 2062   1.734   1.773   0.287  1.9318 -1.6673 -1.3463
    1SOL    HW3 2063   1.705   1.785   0.139 -1.9333  0.3525 -0.4673
    1SOL    MW4 2064   1.684   1.756   0.218 -0.2967 -0.0503 -0.1643
    1SOL     OW 2065   0.707   0.518   1.217  0.2255  0.3764  0.2840
    1SOL    HW2 2066   0.685   0.603   1.177 -1.7392  0.0860  0.7386
    1SOL    HW3 2067   0.629   0.464   1.204  1.6163 -1.5185 -0.3709
    1SOL    MW4 2068   0.694   0.522   1.210  0.1498  0.0880  0.2575
    1SOL     OW 2069   0.681   0.788   1.109  0.2735 -0.2370 -0.4762
    1SOL    HW2 2070   0.598   0.820   1.145  0.4631 -0.4393  0.1295
    1SOL    HW3 2071   0.673   0.804   1.015 -0.2412  0.2287 -0.3566
    1SOL    MW4 2072   0.669   0.794   1.101  0.2306 -0.2022 -0.3805
    1SOL     OW 2073   0.443   0.886   1.214 -0.4213 -0.1071  0.4054
    1SOL    HW2 2074   0.437   0.877   1.309 -0.7363  1.8677  0.5977
    1SOL    HW3 2075   0.441   0.980   1.199  1.3054 -0.3292 -1.4576
    1SOL    MW4 2076   0.442   0.897   1.224 -0.2351  0.1241  0.1849
    1SOL     OW 2077   0.442   1.147   1.117  0.1863  0.2901  0.2021
    1SOL    HW2 2078   0.528   1.182   1.140  0.3572 -0.0881  0.1569
    1SOL    HW3 2079   0.444   1.139   1.022  0.4834 -0.6713  0.2790
    1SOL    MW4 2080   0.454   1.150   1.107  0.2481  0.1135  0.2062
    1SOL     OW 2081   0.674   1.298   1.230 -0.1820  0.3477 -0.0870
    1SOL    HW2 2082   0.761   1.261   1.221  0.4788  1.0297  3.0238
    1SOL    HW3 2083   0.679   1.382   1.185  0.7892  0.3982  0.1079
    1SOL    MW4 2084   0.686   1.304   1.223  0.0333  0.4443  0.3492
    1SOL     OW 2085   0.658   1.523   1.094 -0.0038  0.5969 -0.1011
    1SOL    HW2 2086   0.731   1.574   1.129  0.0629 -0.1649  0.8705
    1SOL    HW3 2087   0.580   1.564   1.133  0.0428  0.0459  0.5849
    1SOL    MW4 2088   0.657   1.535   1.104  0.0112  0.4239  0.1174
    1SOL     OW 2089   0.472   1.659   1.246  0.0069 -0.0244 -0.1865
    1SOL    HW2 2090   0.466   1.661   1.342 -1.9417  2.7855 -0.2885
    1SOL    HW3 2091   0.383   1.637   1.217 -0.1695  2.0120 -1.3386
    1SOL    MW4 2092   0.459   1.657   1.255 -0.2734  0.6149 -0.3521
    1SOL     OW 2093   0.475   1.922   1.173 -0.0022  0.0022  0.0327
    1SOL    HW2 2094   0.461   1.831   1.198  0.8957 -0.0156  0.4759
    1SOL    HW3 2095   0.392   1.965   1.193  0.3409 -0.2340  2.0512
    1SOL    MW4 2096   0.462   1.916   1.179  0.1616 -0.0314  0.3575
    1SOL     OW 2097   0.659   2.105   1.265 -0.0188  0.1039  0.0460
    1SOL    HW2 2098   0.667   2.105   1.360  1.1821 -0.2013 -0.0421
    1SOL    HW3 2099   0.598   2.034   1.246  0.0243 -0.0753  0.5704
    1SOL    MW4 2100   0.652   2.096   1.275  0.1453  0.0398  0.1035
    1SOL     OW 2101   0.680   2.342   1.128  0.3578 -0.1121  0.3774
    1SOL    HW2 2102   0.600   2.385   1.160 -1.2743 -1.9427 -1.0980
    1SOL    HW3 2103   0.678   2.256   1.169  2.5907  0.4894  1.7979
    1SOL    MW4 2104   0.669   2.336   1.138  0.4371 -0.2747  0.3701
    1SOL     OW 2105   0.445   2.447   1.241 -0.5657 -0.5900  0.1267
    1SOL    HW2 2106   0.439   2.438   1.336 -0.9024  0.5902  0.2246
    1SOL    HW3 2107   0.433   2.541   1.224 -0.8586 -0.8305 -1.1016
    1SOL    MW4 2108   0.442   2.458   1.251 -0.6488 -0.4661 -0.0224
    1SOL     OW 2109   0.425   2.703   1.170 -0.1059 -0.4530 -0.7472
    1SOL    HW2 2110   0.362   2.772   1.185  0.5899 -0.0711  0.4996
    1SOL    HW3 2111   0.431   2.696   1.074 -0.4712  0.9335 -0.8816
    1SOL    MW4 2112   0.418   2.711   1.159 -0.0623 -0.2196 -0.6003
    1SOL     OW 2113   0.679   2.816   1.213 -0.2389  0.1171  0.4558
    1SOL    HW2 2114   0.678   2.819   1.309  0.5458  0.4741  0.4572
    1SOL    HW3 2115   0.600   2.768   1.190 -0.1634 -0.4338  1.3071
    1SOL    MW4 2116   0.669   2.810   1.223 -0.1254  0.0913  0.5683
    1SOL     OW 2117   0.671   3.092   1.124  0.0846  0.4159 -0.6879
    1SOL    HW2 2118   0.747   3.140   1.156  0.4403 -0.4233 -0.2773
    1SOL    HW3 2119   0.688   3.001   1.147 -0.7728  0.1416 -1.1159
    1SOL    MW4 2120   0.683   3.086   1.131  0.0184  0.2692 -0.6902
    1SOL     OW 2121   0.446   3.231   1.205 -0.3790 -0.1786 -0.4086
    1SOL    HW2 2122   0.452   3.320   1.171 -0.0586 -0.7218 -1.8102
    1SOL    HW3 2123   0.522   3.186   1.168 -0.3341 -0.9488  0.5874
    1SOL    MW4 2124   0.457   3.237   1.196 -0.3307 -0.3519 -0.4622
    1SOL     OW 2125   0.474   3.500   1.120 -0.1429 -0.1043  0.3033
    1SOL    HW2 2126   0.542   3.546   1.169 -0.2133  0.3433 -0.0157
    1SOL    HW3 2127   0.392   3.541   1.149 -0.2336 -0.2533  0.2604
    1SOL    MW4 2128   0.472   3.511   1.130 -0.1642 -0.0653  0.2555
    1SOL     OW 2129   0.675   3.647   1.233  0.2575  0.2521 -0.3036
    1SOL    HW2 2130   0.665   3.664   1.327 -1.1702 -1.2539 -0.1580
    1SOL    HW3 2131   0.684   3.734   1.194 -2.8887  1.1822  0.8366
    1SOL    MW4 2132   0.675   3.661   1.240 -0.3459  0.1762 -0.1339
    1SOL     OW 2133   0.727   3.891   1.129  0.4375 -0.0457  0.3704
    1SOL    HW2 2134   0.656   3.939   1.172  1.7110  0.6258  1.8226
    1SOL    HW3 2135   0.711   3.902   1.036  0.0712  2.3260  0.6753
    1SOL    MW4 2136   0.716   3.899   1.123  0.5572  0.3555  0.6024
    1SOL     OW 2137   0.479   3.999   1.252  0.6276  0.1804  0.4948
    1SOL    HW2 2138   0.472   4.089   1.220 -0.3862 -0.1461 -0.2333
    1SOL    HW3 2139   0.399   3.957   1.222  0.5971 -0.6869  1.7596
    1SOL    MW4 2140   0.467   4.005   1.244  0.4898  0.0229  0.5655
    1SOL     OW 2141   0.500   4.255   1.161  0.3060 -0.0644 -0.2467
    1SOL    HW2 2142   0.555   4.325   1.198 -0.3371 -0.3033  1.2131
    1SOL    HW3 2143   0.415   4.296   1.147 -0.2260 -0.6758  1.1148
    1SOL    MW4 2144   0.496   4.269   1.164  0.1510 -0.1769  0.1255
    1SOL     OW 2145   0.667   4.477   1.261  0.1812 -0.5862 -0.1172
    1SOL    HW2 2146   0.686   4.473   1.354  0.8099  0.7972 -0.1795
    1SOL    HW3 2147   0.748   4.447   1.219  0.0682 -0.7271 -0.2377
    1SOL    MW4 2148   0.681   4.472   1.267  0.2493 -0.4225 -0.1413
    1SOL     OW 2149   1.123   0.021   1.063  0.0425 -0.2000 -0.1521
    1SOL    HW2 2150   1.138  -0.070   1.086  1.7667  0.4209  1.2933
    1SOL    HW3 2151   1.141   0.025   0.969  0.3814 -1.2614 -0.1367
    1SOL    MW4 2152   1.128   0.010   1.053  0.3147 -0.2581  0.0405
    1SOL     OW 2153   0.932   0.154   1.218  0.0588 -0.6658 -0.5264
    1SOL    HW2 2154   0.929   0.133   1.312  0.8432 -0.4766 -0.4568
    1SOL    HW3 2155   1.013   0.114   1.187 -0.2458 -0.8033 -1.1461
    1SOL    MW4 2156   0.942   0.146   1.227  0.1221 -0.6590 -0.5991
    1SOL     OW 2157   0.945   0.407   1.106 -0.2564 -0.0576  0.2457
    1SOL    HW2 2158   0.954   0.324   1.154  0.8459  0.2884  0.6594
    1SOL    HW3 2159   0.870   0.450   1.145 -1.2940 -1.1901 -0.4608
    1SOL    MW4 2160   0.937   0.402   1.117 -0.2479 -0.1613  0.2072
    1SOL     OW 2161   1.169   0.536   1.214  0.7821  0.0951 -0.6631
    1SOL    HW2 2162   1.174   0.530   1.309  0.8058 -0.2604 -0.6866
    1SOL    HW3 2163   1.084   0.499   1.191  0.8611 -0.0029 -0.7971
    1SOL    MW4 2164   1.159   0.530   1.223  0.7956  0.0353 -0.6840
    1SOL     OW 2165   1.120   0.787   1.094  0.4620  0.0780 -0.0046
    1SOL    HW2 2166   1.039   0.818   1.135  0.6845  0.2092  0.3352
    1SOL    HW3 2167   1.137   0.702   1.135  0.8822  0.3758  0.4369
    1SOL    MW4 2168   1.111   0.780   1.105  0.5467  0.1346  0.0985
    1SOL     OW 2169   0.909   0.874   1.232  0.2674  0.4706 -0.6447
    1SOL    HW2 2170   0.900   0.961   1.194  0.9932  0.1677 -1.5164
    1SOL    HW3 2171   0.833   0.825   1.200  0.5062  0.4233 -1.1337
    1SOL    MW4 2172   0.898   0.879   1.223  0.3947  0.4243 -0.8243
    1SOL     OW 2173   0.910   1.150   1.137  0.3306  0.2554 -0.3598
    1SOL    HW2 2174   0.997   1.185   1.160  0.7447  0.6593 -2.4189
    1SOL    HW3 2175   0.920   1.121   1.046 -0.9249 -2.2944  0.2896
    1SOL    MW4 2176   0.923   1.151   1.128  0.2196 -0.0278 -0.5457
    1SOL     OW 2177   1.137   1.294   1.215 -0.0033  0.1498  0.1149
    1SOL    HW2 2178   1.126   1.292   1.310  0.4930 -0.3572  0.1671
    1SOL    HW3 2179   1.217   1.244   1.199  0.3395  0.8903 -0.5151
    1SOL    MW4 2180   1.146   1.287   1.225  0.1074  0.1805  0.0387
    1SOL     OW 2181   1.133   1.569   1.178 -0.9057 -0.1999  0.4868
    1SOL    HW2 2182   1.145   1.475   1.194  0.7767  0.0800  0.9554
    1SOL    HW3 2183   1.106   1.574   1.086 -0.4599 -1.1084  0.2955
    1SOL    MW4 2184   1.131   1.557   1.168 -0.6250 -0.2828  0.5234
    1SOL     OW 2185   0.874   1.648   1.218  0.1539 -0.3223  0.8612
    1SOL    HW2 2186   0.870   1.743   1.206 -0.8124 -0.1944  2.1395
    1SOL    HW3 2187   0.968   1.628   1.219  0.3626  0.4071 -0.8810
    1SOL    MW4 2188   0.886   1.658   1.216  0.0539 -0.2090  0.8000
    1SOL     OW 2189   0.871   1.929   1.170 -0.1666 -0.4076 -0.1747
    1SOL    HW2 2190   0.949   1.980   1.192 -0.4123 -0.4843  0.8712
    1SOL    HW3 2191   0.798   1.980   1.205 -0.5082 -0.8891 -0.1802
    1SOL    MW4 2192   0.872   1.942   1.177 -0.2441 -0.4814 -0.0374
    1SOL     OW 2193   1.107   2.057   1.219 -0.2086 -0.2186 -0.1395
    1SOL    HW2 2194   1.133   2.070   1.311  1.7272  0.3787 -0.7556
    1SOL    HW3 2195   1.100   2.145   1.183 -1.4783 -0.4355 -0.4394
    1SOL    MW4 2196   1.110   2.070   1.227 -0.1208 -0.1686 -0.2605
    1SOL     OW 2197   1.122   2.322   1.095 -0.0861  0.0005 -0.0467
    1SOL    HW2 2198   1.197   2.376   1.118 -1.8647  2.0274  1.2062
    1SOL    HW3 2199   1.115   2.330   1.000  0.9666  0.1924 -0.1118
    1SOL    MW4 2200   1.131   2.330   1.086 -0.1818  0.2933  0.1100
    1SOL     OW 2201   0.929   2.456   1.211 -0.0649 -0.1652  0.0615
    1SOL    HW2 2202   0.998   2.400   1.177  0.4190  0.2124  0.4158
    1SOL    HW3 2203   0.848   2.413   1.185  0.3029 -0.1449 -1.1235
    1SOL    MW4 2204   0.927   2.443   1.203  0.0475 -0.1130 -0.0480
    1SOL     OW 2205   0.903   2.720   1.098 -0.3980 -0.5068 -0.0387
    1SOL    HW2 2206   0.923   2.638   1.145 -1.8348 -0.3728  0.8549
    1SOL    HW3 2207   0.836   2.762   1.152  0.0144  1.0667 -0.7203
    1SOL    MW4 2208   0.897   2.715   1.112 -0.5331 -0.2813 -0.0108
    1SOL     OW 2209   1.126   2.849   1.160  0.3029 -0.4720 -0.1845
    1SOL    HW2 2210   1.131   2.828   1.253  2.4568  0.7302  0.0137
    1SOL    HW3 2211   1.047   2.805   1.129 -1.1244  0.1329  2.4780
    1SOL    MW4 2212   1.116   2.841   1.168  0.3988 -0.2337  0.1930
    1SOL     OW 2213   1.127   3.137   1.114 -0.4739  0.2401 -0.2180
    1SOL    HW2 2214   1.110   3.045   1.135 -0.7595  0.6577  1.4807
    1SOL    HW3 2215   1.118   3.142   1.019 -1.9663 -1.1855 -0.1828
    1SOL    MW4 2216   1.123   3.126   1.104 -0.7085  0.1070  0.0107
    1SOL     OW 2217   0.890   3.236   1.211 -0.0494  0.2341  0.1875
    1SOL    HW2 2218   0.885   3.325   1.176 -0.6928 -0.5712 -1.8306
    1SOL    HW3 2219   0.978   3.206   1.188 -1.3751 -1.2640 -3.2704
    1SOL    MW4 2220   0.901   3.244   1.204 -0.3092 -0.0696 -0.5351
    1SOL     OW 2221   0.907   3.488   1.129 -0.1464  0.1304  0.3455
    1SOL    HW2 2222   0.841   3.553   1.156 -0.8652 -0.1326 -0.7725
    1SOL    HW3 2223   0.910   3.495   1.034  0.7969 -0.4972  0.3266
    1SOL    MW4 2224   0.899   3.498   1.120 -0.1167  0.0131  0.1955
    1SOL     OW 2225   1.138   3.596   1.223  0.1893  0.1871  0.0902
    1SOL    HW2 2226   1.220   3.571   1.179  0.4142 -2.3621  1.8284
    1SOL    HW3 2227   1.071   3.543   1.180  0.1415 -0.9624  1.5480
    1SOL    MW4 2228   1.140   3.586   1.211  0.2127 -0.3006  0.5118
    1SOL     OW 2229   1.136   3.880   1.110  0.0133 -0.2344 -0.3030
    1SOL    HW2 2230   1.067   3.941   1.136 -0.6131  0.0473 -2.5122
    1SOL    HW3 2231   1.113   3.798   1.152 -0.1110  0.5749  1.2546
    1SOL    MW4 2232   1.124   3.878   1.119 -0.0858 -0.0904 -0.3890
    1SOL     OW 2233   0.950   4.081   1.184 -0.6277 -0.0933 -0.0622
    1SOL    HW2 2234   0.952   4.074   1.279 -1.4368 -2.1035 -0.1716
    1SOL    HW3 2235   0.888   4.013   1.156 -0.0795  0.1914 -2.0380
    1SOL    MW4 2236   0.942   4.071   1.193 -0.6622 -0.3209 -0.3372
    1SOL     OW 2237   0.882   4.335   1.129 -0.3379 -0.1018 -0.6203
    1SOL    HW2 2238   0.885   4.247   1.166  0.5554  0.3286  0.3544
    1SOL    HW3 2239   0.899   4.323   1.035 -0.5212 -0.9928 -0.5363
    1SOL    MW4 2240   0.885   4.322   1.121 -0.2442 -0.1626 -0.4807
    1SOL     OW 2241   1.132   4.424   1.186  0.2717 -0.5619 -0.4896
    1SOL    HW2 2242   1.147   4.409   1.280  0.7224 -1.0899 -0.6413
    1SOL    HW3 2243   1.041   4.400   1.172  0.7826 -2.5206 -0.5890
    1SOL    MW4 2244   1.122   4.418   1.197  0.3986 -0.8898 -0.5227
    1SOL     OW 2245   1.582   4.660   1.125  0.0631 -0.5335 -0.2952
    1SOL    HW2 2246   1.664   4.692   1.163 -0.4786 -0.7481  1.0622
    1SOL    HW3 2247   1.579   4.568   1.151 -1.2042 -0.2192  0.6790
    1SOL    MW4 2248   1.593   4.652   1.133 -0.1756 -0.5198  0.0124
    1SOL     OW 2249   1.355   0.118   1.206  0.0051  0.4212  0.2874
    1SOL    HW2 2250   1.430   0.070   1.172 -0.1482 -0.6876  1.4611
    1SOL    HW3 2251   1.283   0.096   1.147  0.5019  1.1179 -0.5705
    1SOL    MW4 2252   1.355   0.108   1.194  0.0504  0.3668  0.3290
    1SOL     OW 2253   1.353   0.362   1.086 -0.5332 -0.4598 -0.1331
    1SOL    HW2 2254   1.343   0.283   1.139  1.5375 -0.7801 -0.1664
    1SOL    HW3 2255   1.302   0.429   1.133  0.5233 -0.9567  1.7789
    1SOL    MW4 2256   1.345   0.360   1.100 -0.1205 -0.5676  0.1148
    1SOL     OW 2257   1.561   0.461   1.234  0.0280  0.2484 -0.2492
    1SOL    HW2 2258   1.544   0.547   1.196  1.6524 -0.1308 -1.9382
    1SOL    HW3 2259   1.498   0.402   1.192 -0.4755  0.4368  0.2326
    1SOL    MW4 2260   1.551   0.464   1.223  0.1758  0.2232 -0.4084
    1SOL     OW 2261   1.528   0.736   1.125 -0.0405 -0.1954 -0.2961
    1SOL    HW2 2262   1.605   0.763   1.174 -0.1419 -1.8739  0.8218
    1SOL    HW3 2263   1.543   0.769   1.036  1.6900  0.0050  0.0585
    1SOL    MW4 2264   1.540   0.744   1.120  0.1744 -0.3904 -0.1019
    1SOL     OW 2265   1.345   0.901   1.229 -0.2257  0.5660 -0.5058
    1SOL    HW2 2266   1.403   0.826   1.215 -1.2074 -0.8905  2.6143
    1SOL    HW3 2267   1.259   0.872   1.197 -0.4860  0.5460  0.1945
    1SOL    MW4 2268   1.341   0.887   1.223 -0.3896  0.3712 -0.0017
    1SOL     OW 2269   1.346   1.136   1.084 -0.1882  0.0657  0.1196
    1SOL    HW2 2270   1.357   1.059   1.140  0.7812 -0.9049 -1.3919
    1SOL    HW3 2271   1.426   1.187   1.099  0.7946 -0.9568 -1.5335
    1SOL    MW4 2272   1.358   1.133   1.094  0.0694 -0.1973 -0.2980
    1SOL     OW 2273   1.558   1.308   1.158  0.2287 -0.0260 -0.0598
    1SOL    HW2 2274   1.630   1.249   1.138  0.3592 -0.0980  0.6255
    1SOL    HW3 2275   1.551   1.307   1.253 -0.5008  0.1878 -0.1058
    1SOL    MW4 2276   1.566   1.300   1.168  0.1496 -0.0073  0.0246
    1SOL     OW 2277   1.578   1.588   1.083  0.7727 -0.0375 -0.3807
    1SOL    HW2 2278   1.647   1.634   1.130 -0.8706  0.9436  1.0959
    1SOL    HW3 2279   1.589   1.496   1.109  1.5087  0.1016 -0.1775
    1SOL    MW4 2280   1.589   1.582   1.092  0.6530  0.1103 -0.1589
    1SOL     OW 2281   1.364   1.694   1.231  0.0724 -0.2112 -0.1586
    1SOL    HW2 2282   1.442   1.672   1.179  0.0825 -0.6387  0.0393
    1SOL    HW3 2283   1.299   1.628   1.206  0.0986 -0.4542  0.4198
    1SOL    MW4 2284   1.366   1.683   1.221  0.0774 -0.2997 -0.0563
    1SOL     OW 2285   1.322   1.946   1.110 -0.1867  0.4478  0.1257
    1SOL    HW2 2286   1.337   1.854   1.133  1.2472  0.7050  0.2894
    1SOL    HW3 2287   1.248   1.973   1.164 -0.5754 -0.5893  0.1224
    1SOL    MW4 2288   1.314   1.937   1.120 -0.0489  0.3449  0.1469
    1SOL     OW 2289   1.542   2.091   1.198 -0.3191  0.1561 -0.2215
    1SOL    HW2 2290   1.551   2.176   1.155 -1.7046  0.2442 -0.3655
    1SOL    HW3 2291   1.473   2.046   1.149 -1.0849 -0.2104  1.1497
    1SOL    MW4 2292   1.534   2.096   1.186 -0.6030  0.1194 -0.0595
    1SOL     OW 2293   1.612   2.366   1.093  0.0404 -0.4074 -0.3724
    1SOL    HW2 2294   1.531   2.400   1.131  0.0527 -0.5009 -0.2630
    1SOL    HW3 2295   1.603   2.383   0.999 -1.0830 -2.4216 -0.6508
    1SOL    MW4 2296   1.600   2.373   1.086 -0.1060 -0.6857 -0.3947
    1SOL     OW 2297   1.342   2.451   1.196 -0.4308 -0.6896 -0.0365
    1SOL    HW2 2298   1.355   2.452   1.291 -0.6507  1.4013 -0.0136
    1SOL    HW3 2299   1.348   2.543   1.170 -1.5894 -1.1155 -1.8898
    1SOL    MW4 2300   1.345   2.463   1.206 -0.6126 -0.4699 -0.2780
    1SOL     OW 2301   1.343   2.715   1.059  0.1265 -0.1169  0.2340
    1SOL    HW2 2302   1.421   2.756   1.096  0.7044  0.3862 -1.4671
    1SOL    HW3 2303   1.270   2.772   1.086  0.6490  0.7588 -0.1695
    1SOL    MW4 2304   1.343   2.728   1.067  0.2717  0.0648 -0.0436
    1SOL     OW 2305   1.576   2.847   1.166 -0.1532  0.4669  0.0624
    1SOL    HW2 2306   1.658   2.805   1.141 -0.3398 -0.0727  0.3430
    1SOL    HW3 2307   1.582   2.935   1.131  0.7311  0.5629  0.4428
    1SOL    MW4 2308   1.588   2.853   1.158 -0.0613  0.4084  0.1496
    1SOL     OW 2309   1.599   3.114   1.108  0.0198  0.0076 -0.1632
    1SOL    HW2 2310   1.676   3.162   1.139 -0.2701  1.0137 -1.0227
    1SOL    HW3 2311   1.525   3.156   1.151 -0.0002 -1.5518  1.4034
    1SOL    MW4 2312   1.599   3.126   1.118 -0.0212 -0.0656 -0.0700
    1SOL     OW 2313   1.379   3.243   1.208  0.5861  0.1260 -0.1952
    1SOL    HW2 2314   1.363   3.251   1.302  1.1162 -1.7415  0.0659
    1SOL    HW3 2315   1.310   3.184   1.177  0.5263  0.5841 -0.9633
    1SOL    MW4 2316   1.368   3.236   1.216  0.6483 -0.0601 -0.2621
    1SOL     OW 2317   1.377   3.496   1.128 -0.4382  0.0764 -0.4111
    1SOL    HW2 2318   1.383   3.402   1.148 -0.9413  0.1943  0.2887
    1SOL    HW3 2319   1.365   3.499   1.033 -0.7860 -0.5771 -0.3906
    1SOL    MW4 2320   1.376   3.484   1.118 -0.5505  0.0060 -0.3160
    1SOL     OW 2321   1.583   3.656   1.244  0.2206 -0.1551  0.4705
    1SOL    HW2 2322   1.592   3.739   1.196  0.6933 -1.2491 -1.3586
    1SOL    HW3 2323   1.516   3.608   1.197 -0.3988 -0.6469  1.8217
    1SOL    MW4 2324   1.575   3.661   1.232  0.2012 -0.3643  0.4072
    1SOL     OW 2325   1.604   3.884   1.103 -0.1373  0.1827  0.1342
    1SOL    HW2 2326   1.520   3.922   1.129  0.0854  2.1788 -1.9855
    1SOL    HW3 2327   1.598   3.875   1.008  2.6115  1.7040 -0.2117
    1SOL    MW4 2328   1.592   3.888   1.094  0.2546  0.6471 -0.1911
    1SOL     OW 2329   1.372   3.994   1.199  0.3581 -0.2832 -0.1230
    1SOL    HW2 2330   1.372   4.086   1.175  1.0263 -0.0445  0.7648
    1SOL    HW3 2331   1.295   3.957   1.155  1.1045  0.2900 -1.9650
    1SOL    MW4 2332   1.362   4.001   1.190  0.5448 -0.1764 -0.2489
    1SOL     OW 2333   1.346   4.269   1.081  0.1780 -0.6484  0.2489
    1SOL    HW2 2334   1.254   4.290   1.099  0.1576 -0.4027 -0.1402
    1SOL    HW3 2335   1.351   4.266   0.986  0.3807 -1.5159  0.2785
    1SOL    MW4 2336   1.334   4.271   1.071  0.2021 -0.7305  0.2013
    1SOL     OW 2337   1.568   4.394   1.197  0.2031  0.3914 -0.0405
    1SOL    HW2 2338   1.552   4.397   1.291 -0.8862 -1.2134 -0.1414
    1SOL    HW3 2339   1.489   4.352   1.161  0.8209  0.5438 -1.6065
    1SOL    MW4 2340   1.555   4.389   1.205  0.1409  0.2003 -0.2605
    1SOL     OW 2341   2.036   4.659   1.075 -0.1370  0.1383 -0.0518
    1SOL    HW2 2342   2.021   4.572   1.112  0.4140  0.1202  0.1296
    1SOL    HW3 2343   2.014   4.649   0.982 -1.6855  0.2306  0.2928
    1SOL    MW4 2344   2.031   4.646   1.067 -0.2685  0.1478  0.0176
    1SOL     OW 2345   1.816   0.106   1.202 -0.7210  0.2302 -0.1060
    1SOL    HW2 2346   1.826   0.199   1.183 -1.4828 -0.3805 -4.1157
    1SOL    HW3 2347   1.892   0.065   1.161 -0.9152 -1.0036  0.7436
    1SOL    MW4 2348   1.827   0.113   1.194 -0.8471 -0.0132 -0.5230
    1SOL     OW 2349   1.799   0.379   1.137  0.0434 -0.4287 -0.0780
    1SOL    HW2 2350   1.722   0.411   1.183  0.4280 -1.3055  1.2321
    1SOL    HW3 2351   1.774   0.377   1.045 -1.0186  0.6222  0.1804
    1SOL    MW4 2352   1.786   0.383   1.131 -0.0459 -0.4057  0.1290
    1SOL     OW 2353   1.981   0.799   1.144 -0.3568 -0.2732  0.1212
    1SOL    HW2 2354   2.061   0.846   1.167  0.1699 -0.9593 -0.2972
    1SOL    HW3 2355   1.998   0.709   1.172 -0.4281 -0.7251 -1.2623
    1SOL    MW4 2356   1.994   0.793   1.151 -0.2968 -0.4233 -0.1165
    1SOL     OW 2357   1.985   0.795   0.853  0.5281 -0.2061 -0.3153
    1SOL    HW2 2358   2.071   0.829   0.830  0.6343 -1.0909 -1.2436
    1SOL    HW3 2359   1.983   0.800   0.949  0.3187  2.8684 -0.4374
    1SOL    MW4 2360   1.996   0.800   0.863  0.5146  0.0829 -0.4539
    1SOL     OW 2361   1.757   0.883   1.243 -0.7716 -0.6824 -0.5018
    1SOL    HW2 2362   1.781   0.903   1.333 -2.0878  0.3861 -0.3706
    1SOL    HW3 2363   1.836   0.843   1.205  0.2759  0.2330  0.6810
    1SOL    MW4 2364   1.771   0.880   1.250 -0.8069 -0.4207 -0.3285
    1SOL     OW 2365   1.752   1.135   1.107 -0.3931  0.2557  0.4211
    1SOL    HW2 2366   1.736   1.044   1.130 -1.5042  0.3118 -0.1084
    1SOL    HW3 2367   1.757   1.136   1.011 -1.5777  0.9284  0.3543
    1SOL    MW4 2368   1.750   1.123   1.097 -0.6959  0.3518  0.3425
    1SOL     OW 2369   1.979   1.293   1.193  0.0488  0.0709 -0.2488
    1SOL    HW2 2370   2.045   1.245   1.144 -0.8321 -1.0053 -0.3838
    1SOL    HW3 2371   1.896   1.251   1.171 -0.7871  1.9008 -0.6775
    1SOL    MW4 2372   1.977   1.281   1.184 -0.1777  0.1705 -0.3232
    1SOL     OW 2373   2.050   1.529   1.086 -0.0486  0.0131  0.1582
    1SOL    HW2 2374   2.014   1.444   1.110  0.4885 -0.6778 -1.3869
    1SOL    HW3 2375   2.042   1.533   0.991  1.9024  0.7672 -0.0071
    1SOL    MW4 2376   2.044   1.519   1.077  0.2794  0.0215 -0.0676
    1SOL     OW 2377   1.821   1.674   1.214  0.5501 -0.1925 -0.0666
    1SOL    HW2 2378   1.818   1.766   1.188 -1.0814 -0.6077 -1.4610
    1SOL    HW3 2379   1.892   1.636   1.161  0.1932 -0.0724 -0.6287
    1SOL    MW4 2380   1.830   1.681   1.204  0.2877 -0.2314 -0.3246
    1SOL     OW 2381   1.819   1.929   1.121  0.2124  0.4259  0.1963
    1SOL    HW2 2382   1.739   1.961   1.163 -1.0248 -1.1269 -0.8836
    1SOL    HW3 2383   1.806   1.949   1.028  0.3968 -1.1673 -0.1893
    1SOL    MW4 2384   1.807   1.936   1.114  0.0734  0.0108  0.0030
    1SOL     OW 2385   2.052   2.078   1.178  0.2831 -0.2986 -0.1949
    1SOL    HW2 2386   2.065   2.070   1.272 -0.9552  0.8530  0.0812
    1SOL    HW3 2387   1.965   2.042   1.162  0.0712  0.4491 -0.7489
    1SOL    MW4 2388   2.043   2.073   1.188  0.0918 -0.0484 -0.2316
    1SOL     OW 2389   2.041   2.315   1.027 -0.3678  0.2018  0.0797
    1SOL    HW2 2390   2.111   2.366   1.069 -0.7172  1.3484 -0.7067
    1SOL    HW3 2391   2.033   2.237   1.082  0.4853  0.7723  1.0532
    1SOL    MW4 2392   2.049   2.312   1.040 -0.3014  0.4282  0.1043
    1SOL     OW 2393   1.851   2.475   1.156  0.8638  0.3037  0.0844
    1SOL    HW2 2394   1.926   2.431   1.117 -0.6574 -1.9372 -0.3831
    1SOL    HW3 2395   1.776   2.422   1.129 -0.8823  2.4636  0.5865
    1SOL    MW4 2396   1.851   2.463   1.147  0.4327  0.2930  0.0890
    1SOL     OW 2397   1.824   2.738   1.085 -0.5376 -0.2335  0.5049
    1SOL    HW2 2398   1.829   2.647   1.114  1.5903 -0.8002 -1.5406
    1SOL    HW3 2399   1.812   2.733   0.990  0.9883  1.5962  0.1754
    1SOL    MW4 2400   1.823   2.726   1.076 -0.0553 -0.0668  0.1916
    1SOL     OW 2401   2.026   2.858   1.245  0.2500 -0.0350  0.0837
    1SOL    HW2 2402   2.041   2.946   1.211  2.7397 -1.0034 -1.4246
    1SOL    HW3 2403   1.969   2.816   1.181  1.6291 -0.5306 -0.8338
    1SOL    MW4 2404   2.020   2.864   1.232  0.7603 -0.2282 -0.2363
    1SOL     OW 2405   2.066   3.123   1.099  0.5911 -0.2540  0.4684
    1SOL    HW2 2406   1.987   3.170   1.128 -0.1552 -2.2539  1.8216
    1SOL    HW3 2407   2.071   3.140   1.005 -1.4549 -0.0598  0.3607
    1SOL    MW4 2408   2.056   3.131   1.091  0.2229 -0.4921  0.6326
    1SOL     OW 2409   1.828   3.268   1.179  0.3592 -0.0046 -0.3958
    1SOL    HW2 2410   1.828   3.261   1.274  0.2175 -0.6683 -0.4410
    1SOL    HW3 2411   1.808   3.360   1.161 -0.2813 -0.0202  0.2106
    1SOL    MW4 2412   1.825   3.279   1.189  0.2561 -0.0942 -0.3217
    1SOL     OW 2413   1.805   3.539   1.118  0.6736 -0.3503 -0.2972
    1SOL    HW2 2414   1.883   3.548   1.172  1.2366  1.7918 -1.3965
    1SOL    HW3 2415   1.735   3.577   1.170  0.4133 -1.9313  0.5352
    1SOL    MW4 2416   1.806   3.545   1.132  0.7136 -0.2761 -0.3324
    1SOL     OW 2417   2.064   3.589   1.255 -0.0369  0.3909 -0.2424
    1SOL    HW2 2418   2.045   3.601   1.348 -1.4860 -0.2280 -0.4545
    1SOL    HW3 2419   2.153   3.552   1.254 -0.2058 -0.0785  0.9156
    1SOL    MW4 2420   2.073   3.586   1.267 -0.2503  0.2472 -0.1175
    1SOL     OW 2421   2.042   3.851   1.108 -0.6568 -0.2285  0.2077
    1SOL    HW2 2422   1.964   3.889   1.148 -0.1792  0.1985  0.7410
    1SOL    HW3 2423   2.044   3.761   1.141  0.9027  0.7183  2.9296
    1SOL    MW4 2424   2.032   3.844   1.118 -0.3881 -0.0470  0.6372
    1SOL     OW 2425   1.826   4.016   1.180 -0.0359  0.7679  0.3126
    1SOL    HW2 2426   1.813   4.007   1.275 -1.8103  2.3287  0.2645
    1SOL    HW3 2427   1.741   3.990   1.143 -0.6565  3.8689 -0.5788
    1SOL    MW4 2428   1.813   4.012   1.188 -0.3519  1.3828  0.1887
    1SOL     OW 2429   1.804   4.290   1.089  0.5013  0.4155 -0.5173
    1SOL    HW2 2430   1.812   4.199   1.118  0.8224  1.0155  1.3402
    1SOL    HW3 2431   1.732   4.326   1.142 -0.0423  1.0669 -1.6919
    1SOL    MW4 2432   1.796   4.283   1.100  0.4719  0.5808 -0.4271
    1SOL     OW 2433   2.043   4.394   1.215 -0.2580  0.4034  0.0466
    1SOL    HW2 2434   2.049   4.378   1.309  0.1417  1.5099  0.2086
    1SOL    HW3 2435   1.960   4.352   1.189  0.0334 -0.6248  0.7299
    1SOL    MW4 2436   2.033   4.386   1.224 -0.1669  0.4134  0.1581
    1SOL     OW 2437   2.467   4.605   1.060 -0.0930  0.0069  0.0314
    1SOL    HW2 2438   2.527   4.677   1.083  1.3831 -0.7726 -1.3044
    1SOL    HW3 2439   2.383   4.631   1.098  0.7824  1.7329  0.8422
    1SOL    MW4 2440   2.464   4.618   1.068  0.2174  0.1311 -0.0378
    1SOL     OW 2441   2.240   0.116   1.213  0.0834  0.2261 -0.2598
    1SOL    HW2 2442   2.253   0.201   1.171  1.4477 -0.2974 -0.9188
    1SOL    HW3 2443   2.178   0.070   1.156  0.1784  0.3716 -0.4828
    1SOL    MW4 2444   2.234   0.121   1.200  0.2759  0.1762 -0.3761
    1SOL     OW 2445   2.036   0.507   1.221  0.3454  0.1444 -0.0917
    1SOL    HW2 2446   2.021   0.510   1.316 -0.6405 -0.9901 -0.1860
    1SOL    HW3 2447   1.962   0.455   1.188  0.7639  0.4159 -1.4612
    1SOL    MW4 2448   2.024   0.500   1.229  0.2704  0.0306 -0.2848
    1SOL     OW 2449   2.445   0.505   1.218 -0.3527  0.0154  0.0643
    1SOL    HW2 2450   2.415   0.507   1.309 -1.5442  0.7437 -0.3258
    1SOL    HW3 2451   2.389   0.439   1.176 -0.0668 -0.0384 -0.2319
    1SOL    MW4 2452   2.434   0.496   1.225 -0.4723  0.1044 -0.0263
    1SOL     OW 2453   2.437   0.793   1.112  0.3836 -0.2298  0.4084
    1SOL    HW2 2454   2.443   0.702   1.141  2.0921  0.0359  0.9689
    1SOL    HW3 2455   2.447   0.789   1.017 -0.9594 -0.7354  0.2778
    1SOL    MW4 2456   2.439   0.780   1.103  0.4320 -0.2615  0.4650
    1SOL     OW 2457   2.209   0.927   1.232  0.0399 -0.5919 -0.5043
    1SOL    HW2 2458   2.211   0.939   1.326  1.7397  1.0328 -0.7254
    1SOL    HW3 2459   2.293   0.887   1.210 -0.0425 -0.2885 -1.4066
    1SOL    MW4 2460   2.220   0.923   1.241  0.2532 -0.3375 -0.6524
    1SOL     OW 2461   2.213   1.164   1.095  0.4053  0.2471 -0.0740
    1SOL    HW2 2462   2.282   1.206   1.146  1.5010 -1.0083 -0.5092
    1SOL    HW3 2463   2.203   1.077   1.134 -0.4521  0.1670 -0.4513
    1SOL    MW4 2464   2.221   1.158   1.107  0.4365  0.0709 -0.1813
    1SOL     OW 2465   2.469   1.227   1.212 -0.2020  0.0627 -0.0098
    1SOL    HW2 2466   2.548   1.185   1.179 -0.0410 -0.1982  0.6928
    1SOL    HW3 2467   2.478   1.319   1.185 -0.0316 -0.1225 -0.5953
    1SOL    MW4 2468   2.481   1.234   1.204 -0.1583  0.0039  0.0056
    1SOL     OW 2469   2.517   1.489   1.114 -0.3563  0.0586 -0.4817
    1SOL    HW2 2470   2.455   1.554   1.148 -0.4722  0.5269 -1.5725
    1SOL    HW3 2471   2.512   1.499   1.019  1.1042 -0.1741 -0.5930
    1SOL    MW4 2472   2.508   1.499   1.106 -0.1791  0.0898 -0.6403
    1SOL     OW 2473   2.285   1.662   1.187 -0.1316 -0.4419  0.9924
    1SOL    HW2 2474   2.267   1.750   1.156 -0.3610 -0.3625  1.3535
    1SOL    HW3 2475   2.205   1.613   1.170  0.1268 -0.6785  0.4422
    1SOL    MW4 2476   2.272   1.667   1.181 -0.1276 -0.4628  0.9674
    1SOL     OW 2477   2.234   1.913   1.059 -0.1635 -0.3389 -0.2791
    1SOL    HW2 2478   2.165   1.971   1.092 -0.5454 -0.9693  0.0445
    1SOL    HW3 2479   2.223   1.917   0.964  0.9333  1.4613 -0.3678
    1SOL    MW4 2480   2.223   1.921   1.050 -0.0691 -0.1847 -0.2481
    1SOL     OW 2481   2.450   2.013   1.192  0.2026  0.2266  0.3821
    1SOL    HW2 2482   2.533   1.988   1.152  0.5655  0.4188  1.0208
    1SOL    HW3 2483   2.384   1.988   1.127  0.7011 -0.6049  0.1881
    1SOL    MW4 2484   2.452   2.006   1.178  0.3164  0.1423  0.4408
    1SOL     OW 2485   2.442   2.279   1.097 -0.3306  0.0542 -0.5733
    1SOL    HW2 2486   2.430   2.186   1.117  0.3811  0.0739 -0.0178
    1SOL    HW3 2487   2.481   2.280   1.009  0.8313 -0.2211 -0.0584
    1SOL    MW4 2488   2.446   2.267   1.088 -0.0834  0.0203 -0.4321
    1SOL     OW 2489   2.240   2.451   1.167 -0.1196  0.1581  0.0249
    1SOL    HW2 2490   2.223   2.449   1.261  1.5063 -1.2451  0.3274
    1SOL    HW3 2491   2.310   2.387   1.155 -1.3254 -0.7734 -2.3476
    1SOL    MW4 2492   2.247   2.442   1.178 -0.0639 -0.1502 -0.2482
    1SOL     OW 2493   2.254   2.718   1.110 -0.0514 -0.9358  0.2472
    1SOL    HW2 2494   2.248   2.626   1.134 -1.7182 -0.9249 -0.1118
    1SOL    HW3 2495   2.193   2.763   1.169 -0.1630 -0.2236 -0.3916
    1SOL    MW4 2496   2.245   2.712   1.121 -0.2859 -0.8404  0.1154
    1SOL     OW 2497   2.502   2.822   1.180 -0.1446  0.2478  0.4181
    1SOL    HW2 2498   2.507   2.828   1.275 -0.2883  0.5148  0.4089
    1SOL    HW3 2499   2.415   2.785   1.163  0.7040 -1.8618  0.4717
    1SOL    MW4 2500   2.491   2.818   1.190 -0.0515  0.0045  0.4240
    1SOL     OW 2501   2.488   3.072   1.068 -0.1641 -0.3125 -0.3923
    1SOL    HW2 2502   2.431   3.122   1.125  0.0374  0.1823 -0.6204
    1SOL    HW3 2503   2.479   2.982   1.098 -0.7166 -0.1765 -0.1379
    1SOL    MW4 2504   2.479   3.067   1.079 -0.2105 -0.2291 -0.3889
    1SOL     OW 2505   2.294   3.193   1.223 -0.2464 -0.7374  0.1110
    1SOL    HW2 2506   2.304   3.284   1.195  0.6276 -1.2147 -1.1988
    1SOL    HW3 2507   2.212   3.165   1.183 -0.8203 -0.3476  1.0129
    1SOL    MW4 2508   2.285   3.201   1.214 -0.2069 -0.7489  0.0571
    1SOL     OW 2509   2.314   3.470   1.159 -0.0235 -0.0630 -0.5374
    1SOL    HW2 2510   2.386   3.533   1.172 -1.1900  1.1623  0.0927
    1SOL    HW3 2511   2.286   3.486   1.069  0.5833 -0.6502 -0.8364
    1SOL    MW4 2512   2.320   3.481   1.149 -0.0973  0.0212 -0.4936
    1SOL     OW 2513   2.528   3.632   1.204  0.2562  0.1423 -0.3293
    1SOL    HW2 2514   2.512   3.644   1.298 -1.3811  1.5149 -0.7498
    1SOL    HW3 2515   2.513   3.718   1.166  1.8508 -0.1905 -1.7476
    1SOL    MW4 2516   2.524   3.645   1.211  0.2506  0.2797 -0.5721
    1SOL     OW 2517   2.470   3.897   1.122 -0.1163  0.6245 -0.1024
    1SOL    HW2 2518   2.389   3.929   1.162 -0.4933  0.7529 -0.9587
    1SOL    HW3 2519   2.460   3.915   1.029  1.5395  1.9959 -0.0324
    1SOL    MW4 2520   2.458   3.903   1.115  0.0525  0.8223 -0.2060
    1SOL     OW 2521   2.236   4.000   1.269  0.6926  0.3947  0.4232
    1SOL    HW2 2522   2.229   4.086   1.227  0.5539  0.7060  1.0798
    1SOL    HW3 2523   2.175   3.945   1.220  1.5015  0.4122 -0.6306
    1SOL    MW4 2524   2.227   4.004   1.257  0.7811  0.4377  0.3707
    1SOL     OW 2525   2.235   4.239   1.111  0.2997  0.4400  0.9690
    1SOL    HW2 2526   2.163   4.301   1.122  0.7696  1.2499 -0.2862
    1SOL    HW3 2527   2.240   4.225   1.016  0.8910 -0.6923  1.1563
    1SOL    MW4 2528   2.226   4.245   1.100  0.4396  0.3972  0.8283
    1SOL     OW 2529   2.460   4.373   1.197  0.4051  0.5069  0.1251
    1SOL    HW2 2530   2.376   4.335   1.174  1.2172 -0.4153 -1.3560
    1SOL    HW3 2531   2.466   4.453   1.145  1.4120 -0.5923 -1.4758
    1SOL    MW4 2532   2.450   4.379   1.187  0.6452  0.2403 -0.2815
    1SOL     OW 2533   2.891   4.636   1.070  0.0971 -0.5672 -0.1011
    1SOL    HW2 2534   2.898   4.553   1.117  0.2134 -1.1025 -1.0546
    1SOL    HW3 2535   2.897   4.612   0.978  0.6332  0.5559 -0.3685
    1SOL    MW4 2536   2.893   4.622   1.064  0.1831 -0.4897 -0.2621
    1SOL     OW 2537   2.663   0.103   1.183  0.2350 -0.4004 -0.0172
    1SOL    HW2 2538   2.674   0.119   1.277 -0.6386  0.5585 -0.0756
    1SOL    HW3 2539   2.743   0.056   1.158 -0.2305 -2.0589  1.5126
    1SOL    MW4 2540   2.675   0.099   1.192  0.0579 -0.4927  0.1769
    1SOL     OW 2541   2.695   0.376   1.121  0.3228  0.8354 -0.1528
    1SOL    HW2 2542   2.673   0.286   1.145 -0.6346  0.6719 -1.5481
    1SOL    HW3 2543   2.631   0.429   1.168  0.1796  0.7003 -0.1930
    1SOL    MW4 2544   2.684   0.371   1.130  0.1776  0.7960 -0.3424
    1SOL     OW 2545   2.940   0.496   1.194  0.0093 -0.1413 -0.2744
    1SOL    HW2 2546   2.944   0.588   1.168  1.4706  0.0299  0.5044
    1SOL    HW3 2547   2.852   0.468   1.169 -0.2918  1.3424 -0.9304
    1SOL    MW4 2548   2.929   0.504   1.187  0.1624  0.0771 -0.2582
    1SOL     OW 2549   2.933   0.747   1.081  0.0037 -0.5498  0.1744
    1SOL    HW2 2550   3.002   0.794   1.128  0.9549 -0.9623 -0.7955
    1SOL    HW3 2551   2.852   0.791   1.106  0.6688  0.2209  0.9731
    1SOL    MW4 2552   2.931   0.759   1.090  0.2170 -0.5025  0.1516
    1SOL     OW 2553   2.701   0.856   1.166  0.1732  0.1978 -0.0349
    1SOL    HW2 2554   2.716   0.946   1.138  0.0272  1.2006  2.9665
    1SOL    HW3 2555   2.612   0.837   1.137  0.1441  1.0592 -0.5496
    1SOL    MW4 2556   2.691   0.865   1.158  0.1502  0.4438  0.2931
    1SOL     OW 2557   2.695   1.125   1.081  0.7011  0.1013 -0.2313
    1SOL    HW2 2558   2.673   1.138   0.989 -1.5173  2.0092  0.5203
    1SOL    HW3 2559   2.757   1.195   1.101 -0.8392  1.3289  0.3622
    1SOL    MW4 2560   2.701   1.136   1.072  0.2050  0.5149 -0.0539
    1SOL     OW 2561   2.886   1.306   1.148 -0.8076 -0.4332  0.1023
    1SOL    HW2 2562   2.866   1.299   1.241 -0.4398  1.3464  0.3267
    1SOL    HW3 2563   2.896   1.400   1.132  1.5669 -0.8656 -1.2343
    1SOL    MW4 2564   2.884   1.317   1.158 -0.4458 -0.2556 -0.0445
    1SOL     OW 2565   2.919   1.559   1.083 -0.3798 -0.1587  0.1343
    1SOL    HW2 2566   3.000   1.598   1.116 -0.0907 -1.2875  0.7612
    1SOL    HW3 2567   2.936   1.544   0.990 -0.5513  1.3410 -0.1565
    1SOL    MW4 2568   2.932   1.562   1.075 -0.3643 -0.1098  0.1787
    1SOL     OW 2569   2.693   1.661   1.215 -0.3192  0.1763  0.1210
    1SOL    HW2 2570   2.770   1.629   1.169  0.2719 -0.5049  1.5356
    1SOL    HW3 2571   2.624   1.599   1.193 -0.4209  0.6750 -0.9928
    1SOL    MW4 2572   2.694   1.649   1.206 -0.2544  0.1521  0.1606
    1SOL     OW 2573   2.694   1.910   1.078 -0.0717  0.1006  0.0748
    1SOL    HW2 2574   2.782   1.942   1.098  0.7380 -1.0137 -1.5827
    1SOL    HW3 2575   2.692   1.821   1.115 -1.0353  0.6592  1.4181
    1SOL    MW4 2576   2.706   1.902   1.086 -0.0920  0.0273  0.0335
    1SOL     OW 2577   2.944   2.034   1.140 -0.1290  0.2065  0.0146
    1SOL    HW2 2578   2.924   2.011   1.231  0.7435  1.8507  0.6526
    1SOL    HW3 2579   2.916   2.125   1.132  0.6508  0.3570 -1.0975
    1SOL    MW4 2580   2.938   2.043   1.151  0.0889  0.4435 -0.0479
    1SOL     OW 2581   2.877   2.288   1.049 -0.5051 -0.1509  0.1445
    1SOL    HW2 2582   2.957   2.324   1.089 -0.4373 -1.6202  1.3783
    1SOL    HW3 2583   2.806   2.319   1.106 -0.5474 -1.0495  0.5947
    1SOL    MW4 2584   2.878   2.297   1.062 -0.5019 -0.4632  0.3666
    1SOL     OW 2585   2.675   2.381   1.218  0.4036  1.1054 -0.7077
    1SOL    HW2 2586   2.687   2.383   1.313  0.9710 -0.5024 -0.7148
    1SOL    HW3 2587   2.585   2.351   1.205 -0.0046  2.2958 -0.6857
    1SOL    MW4 2588   2.665   2.377   1.228  0.4244  1.0500 -0.7057
    1SOL     OW 2589   2.720   2.650   1.113 -0.2569 -0.1908 -0.1583
    1SOL    HW2 2590   2.710   2.573   1.168  0.0730  0.0994  0.3200
    1SOL    HW3 2591   2.645   2.705   1.135 -0.8750 -0.6851 -1.0176
    1SOL    MW4 2592   2.709   2.647   1.123 -0.2949 -0.2177 -0.2086
    1SOL     OW 2593   2.941   2.815   1.256 -0.4151  0.2082 -0.2154
    1SOL    HW2 2594   2.926   2.823   1.350  0.4773 -2.3947  0.1716
    1SOL    HW3 2595   2.869   2.760   1.224 -0.0023  0.0180 -0.8313
    1SOL    MW4 2596   2.929   2.809   1.264 -0.2429 -0.1605 -0.2455
    1SOL     OW 2597   2.962   3.107   1.158  0.2583 -0.0534 -0.0794
    1SOL    HW2 2598   2.952   3.016   1.187 -0.1857  0.0395  0.0763
    1SOL    HW3 2599   2.940   3.105   1.064 -1.2981  0.1488  0.2648
    1SOL    MW4 2600   2.957   3.095   1.149 -0.0060 -0.0143 -0.0135
    1SOL     OW 2601   2.698   3.215   1.213 -0.2449  0.0541  0.3205
    1SOL    HW2 2602   2.787   3.190   1.189  0.1812 -0.1246  2.0146
    1SOL    HW3 2603   2.642   3.145   1.180  0.5689 -1.3712  1.9371
    1SOL    MW4 2604   2.702   3.203   1.206 -0.0813 -0.1574  0.7573
    1SOL     OW 2605   2.743   3.489   1.126  0.5804 -0.2404  0.1451
    1SOL    HW2 2606   2.705   3.407   1.156 -0.2286 -0.3674 -1.1926
    1SOL    HW3 2607   2.676   3.555   1.146 -0.3466 -0.4497 -2.1320
    1SOL    MW4 2608   2.729   3.487   1.133  0.3514 -0.2847 -0.3318
    1SOL     OW 2609   2.967   3.621   1.238  0.0338  0.2072 -0.1841
    1SOL    HW2 2610   3.044   3.580   1.198  0.3072 -0.3731  0.9128
    1SOL    HW3 2611   2.894   3.564   1.213  0.1571  0.0104 -0.0957
    1SOL    MW4 2612   2.968   3.608   1.229  0.0861  0.1049 -0.0278
    1SOL     OW 2613   2.935   3.872   1.144  0.0505  0.0238  0.3071
    1SOL    HW2 2614   3.012   3.916   1.178 -0.9132  0.9789  1.3108
    1SOL    HW3 2615   2.946   3.780   1.169  0.6856  0.2203  0.7458
    1SOL    MW4 2616   2.946   3.865   1.152  0.0074  0.1757  0.4973
    1SOL     OW 2617   2.696   3.959   1.265  0.4253  0.1618  0.2493
    1SOL    HW2 2618   2.776   3.922   1.228  1.1364  0.2150  1.7265
    1SOL    HW3 2619   2.625   3.918   1.215  1.3432 -0.4116 -0.5842
    1SOL    MW4 2620   2.697   3.949   1.253  0.6402  0.0935  0.3343
    1SOL     OW 2621   2.686   4.208   1.100  0.2462  0.0014  0.0262
    1SOL    HW2 2622   2.686   4.131   1.158  0.0870 -0.2739 -0.3399
    1SOL    HW3 2623   2.611   4.259   1.128 -0.2247 -0.4641 -0.3753
    1SOL    MW4 2624   2.676   4.204   1.112  0.1631 -0.0958 -0.0752
    1SOL     OW 2625   2.885   4.390   1.185  0.1864 -0.4217 -0.4675
    1SOL    HW2 2626   2.964   4.337   1.180 -0.3063 -1.1871 -0.2061
    1SOL    HW3 2627   2.813   4.328   1.172 -0.3788  0.2474 -0.5961
    1SOL    MW4 2628   2.886   4.375   1.182  0.0465 -0.4344 -0.4500
    1SOL     OW 2629   3.356   4.644   1.059 -0.4366  0.4580 -0.3047
    1SOL    HW2 2630   3.429   4.696   1.091 -0.3338 -0.2399  0.6479
    1SOL    HW3 2631   3.278   4.690   1.091 -0.3496  0.1180  0.4167
    1SOL    MW4 2632   3.355   4.657   1.068 -0.4115  0.3209 -0.0838
    1SOL     OW 2633   3.122   0.104   1.152 -0.2051  0.4491 -0.6723
    1SOL    HW2 2634   3.129   0.112   1.247  0.3511  0.1328 -0.6866
    1SOL    HW3 2635   3.034   0.069   1.137 -0.2886  0.4941 -0.2737
    1SOL    MW4 2636   3.111   0.100   1.162 -0.1431  0.4133 -0.6216
    1SOL     OW 2637   3.144   0.367   1.073  0.2163  0.2184 -0.0164
    1SOL    HW2 2638   3.135   0.276   1.099 -0.0522 -0.1471 -1.3665
    1SOL    HW3 2639   3.075   0.413   1.122 -0.2552 -0.4480 -0.0551
    1SOL    MW4 2640   3.134   0.361   1.083  0.1187  0.0823 -0.1996
    1SOL     OW 2641   3.365   0.500   1.172 -0.2516 -0.1560  0.0056
    1SOL    HW2 2642   3.354   0.590   1.142  1.1653 -0.0769 -0.3086
    1SOL    HW3 2643   3.287   0.454   1.141  0.1833  0.3974 -1.9811
    1SOL    MW4 2644   3.354   0.506   1.164 -0.0076 -0.0725 -0.2979
    1SOL     OW 2645   3.349   0.771   1.093  0.0278 -0.3549 -0.1385
    1SOL    HW2 2646   3.339   0.766   0.998  0.9501 -1.4831 -0.1829
    1SOL    HW3 2647   3.271   0.817   1.122 -0.9618 -1.2450 -1.3026
    1SOL    MW4 2648   3.337   0.777   1.084  0.0188 -0.6213 -0.2980
    1SOL     OW 2649   3.131   0.891   1.209 -0.3914  0.0577  0.0330
    1SOL    HW2 2650   3.110   0.894   1.303  0.1269  0.4971  0.1371
    1SOL    HW3 2651   3.110   0.979   1.178  0.1966  0.1515 -0.0988
    1SOL    MW4 2652   3.125   0.903   1.218 -0.2453  0.1281  0.0293
    1SOL     OW 2653   3.142   1.171   1.132 -0.5267 -0.1399  0.4230
    1SOL    HW2 2654   3.220   1.222   1.150 -1.2272  1.2210 -0.3266
    1SOL    HW3 2655   3.070   1.234   1.135 -1.0094 -0.3133 -4.1262
    1SOL    MW4 2656   3.143   1.186   1.135 -0.6828  0.0169 -0.2762
    1SOL     OW 2657   3.387   1.289   1.193 -0.5307 -0.1518  0.0361
    1SOL    HW2 2658   3.355   1.291   1.283 -0.6829  1.7411 -0.0280
    1SOL    HW3 2659   3.389   1.381   1.167 -0.8055 -0.7066 -2.0161
    1SOL    MW4 2660   3.383   1.302   1.202 -0.5870  0.0247 -0.2433
    1SOL     OW 2661   3.369   1.535   1.048  0.0969 -0.6318 -0.2051
    1SOL    HW2 2662   3.431   1.603   1.073 -0.6457 -0.8014  2.2851
    1SOL    HW3 2663   3.288   1.560   1.091 -0.5669 -2.3482 -0.4169
    1SOL    MW4 2664   3.367   1.547   1.057 -0.0887 -0.8807  0.0956
    1SOL     OW 2665   3.145   1.644   1.211  0.0809 -0.2499  0.2362
    1SOL    HW2 2666   3.137   1.647   1.307 -0.0045 -0.3201  0.2317
    1SOL    HW3 2667   3.154   1.735   1.185 -1.4953 -0.0929  0.1779
    1SOL    MW4 2668   3.145   1.656   1.221 -0.1383 -0.2385  0.2279
    1SOL     OW 2669   3.174   1.876   1.062  0.1242 -0.2065 -0.3133
    1SOL    HW2 2670   3.242   1.922   1.112  1.1892  0.6869 -2.5320
    1SOL    HW3 2671   3.095   1.928   1.076 -0.4783 -1.8922  3.2413
    1SOL    MW4 2672   3.172   1.889   1.071  0.1853 -0.3111 -0.1370
    1SOL     OW 2673   3.374   2.025   1.178  0.2762  0.7128  0.3868
    1SOL    HW2 2674   3.453   1.985   1.144  0.7619  1.4107  0.6742
    1SOL    HW3 2675   3.366   2.107   1.129 -0.8563  0.1423 -0.3961
    1SOL    MW4 2676   3.383   2.031   1.167  0.1910  0.7298  0.3214
    1SOL     OW 2677   3.326   2.290   1.079  0.6958 -0.2999 -0.0716
    1SOL    HW2 2678   3.397   2.345   1.112 -0.6489  1.6718 -0.3169
    1SOL    HW3 2679   3.249   2.320   1.128 -0.4327 -0.5769 -1.6405
    1SOL    MW4 2680   3.325   2.301   1.090  0.3695 -0.0765 -0.3110
    1SOL     OW 2681   3.087   2.411   1.188  0.5882  0.7778 -0.4877
    1SOL    HW2 2682   3.096   2.413   1.283 -0.9673  0.2990 -0.3055
    1SOL    HW3 2683   3.104   2.501   1.160  0.8433  0.9637  0.2657
    1SOL    MW4 2684   3.090   2.424   1.197  0.4165  0.7393 -0.3642
    1SOL     OW 2685   3.141   2.691   1.133  0.8487  0.3475  0.1856
    1SOL    HW2 2686   3.071   2.739   1.177  0.5336 -0.6833  0.8346
    1SOL    HW3 2687   3.125   2.706   1.039 -1.1979 -1.1362  0.2510
    1SOL    MW4 2688   3.130   2.699   1.126  0.5369  0.0160  0.2798
    1SOL     OW 2689   3.382   2.815   1.245  0.3663  0.6321 -0.7053
    1SOL    HW2 2690   3.397   2.898   1.198  1.5078  0.6917 -0.2585
    1SOL    HW3 2691   3.303   2.778   1.204 -1.3894  2.9391  0.5112
    1SOL    MW4 2692   3.374   2.821   1.233  0.2851  0.9441 -0.4859
    1SOL     OW 2693   3.399   3.072   1.142  0.1140  0.4226  0.1548
    1SOL    HW2 2694   3.478   3.115   1.175 -0.9571  2.5331  0.0856
    1SOL    HW3 2695   3.328   3.115   1.189 -1.1457  0.3669 -1.6656
    1SOL    MW4 2696   3.400   3.084   1.152 -0.1934  0.6938 -0.0944
    1SOL     OW 2697   3.195   3.248   1.225 -0.0729 -0.1249 -0.0280
    1SOL    HW2 2698   3.197   3.245   1.320 -0.8530  0.2219  0.0133
    1SOL    HW3 2699   3.115   3.200   1.201 -0.0053 -0.0140 -0.4854
    1SOL    MW4 2700   3.184   3.242   1.234 -0.1669 -0.0646 -0.0829
    1SOL     OW 2701   3.196   3.509   1.125 -0.6197  0.0850  0.5800
    1SOL    HW2 2702   3.265   3.564   1.161 -0.8472  0.6527  0.1462
    1SOL    HW3 2703   3.209   3.424   1.168 -0.2346  0.4523  1.1981
    1SOL    MW4 2704   3.207   3.505   1.135 -0.5989  0.2086  0.6045
    1SOL     OW 2705   3.406   3.643   1.244  0.3288 -0.3692  0.7153
    1SOL    HW2 2706   3.406   3.648   1.340  2.0554 -0.4853  0.7415
    1SOL    HW3 2707   3.473   3.578   1.224 -0.0848 -0.3966 -0.5665
    1SOL    MW4 2708   3.415   3.635   1.254  0.5023 -0.3884  0.5497
    1SOL     OW 2709   3.381   3.848   1.067 -0.2979  0.3762  0.2493
    1SOL    HW2 2710   3.386   3.778   1.132  2.3849  0.4151  0.1297
    1SOL    HW3 2711   3.309   3.904   1.097 -2.2721 -2.2061  0.5279
    1SOL    MW4 2712   3.372   3.846   1.080 -0.2046  0.0408  0.2702
    1SOL     OW 2713   3.167   4.006   1.183  0.1901  0.0242 -0.2664
    1SOL    HW2 2714   3.178   4.000   1.278  0.6616  1.5775 -0.2092
    1SOL    HW3 2715   3.153   4.100   1.166 -1.8539 -0.4772 -1.5276
    1SOL    MW4 2716   3.166   4.018   1.193 -0.0174  0.1636 -0.4253
    1SOL     OW 2717   3.135   4.275   1.155  0.2879 -0.1913 -0.2084
    1SOL    HW2 2718   3.205   4.329   1.193 -0.6543 -0.9279  2.7324
    1SOL    HW3 2719   3.144   4.287   1.061  1.2749  3.6239  0.2869
    1SOL    MW4 2720   3.146   4.284   1.148  0.2937  0.2146  0.2450
    1SOL     OW 2721   3.360   4.430   1.238  0.1202 -0.1220  0.2664
    1SOL    HW2 2722   3.440   4.388   1.205 -0.1986 -0.2463 -0.3422
    1SOL    HW3 2723   3.350   4.508   1.185 -1.4018 -1.2739 -1.1797
    1SOL    MW4 2724   3.369   4.435   1.227 -0.1225 -0.2909 -0.0045
    1SOL     OW 2725   3.826   4.655   1.097 -0.0408  0.0590  0.2177
    1SOL    HW2 2726   3.821   4.566   1.132  1.8618  0.1592  0.7804
    1SOL    HW3 2727   3.815   4.644   1.003  1.4255 -0.9258  0.1424
    1SOL    MW4 2728   3.824   4.642   1.089  0.4039 -0.0572  0.2819
    1SOL     OW 2729   3.588   0.104   1.176 -0.0293 -0.1266 -0.4027
    1SOL    HW2 2730   3.610   0.195   1.155  1.2729 -0.2952  0.2129
    1SOL    HW3 2731   3.662   0.053   1.145  0.2447 -0.7501  1.2120
    1SOL    MW4 2732   3.600   0.110   1.169  0.1786 -0.2311 -0.1084
    1SOL     OW 2733   3.605   0.370   1.087  0.3367 -0.6496 -0.1977
    1SOL    HW2 2734   3.671   0.428   1.127  0.4587 -1.0716  0.2162
    1SOL    HW3 2735   3.522   0.415   1.101  0.5120 -0.2258 -0.5140
    1SOL    MW4 2736   3.603   0.384   1.094  0.3760 -0.6493 -0.1848
    1SOL     OW 2737   3.797   0.523   1.210  0.3679 -0.3946  0.3465
    1SOL    HW2 2738   3.882   0.482   1.195  1.1439  0.8696  1.1652
    1SOL    HW3 2739   3.804   0.608   1.166 -0.6697 -0.4821 -0.0148
    1SOL    MW4 2740   3.809   0.529   1.202  0.3333 -0.2394  0.4067
    1SOL     OW 2741   3.787   0.768   1.101 -0.2717  0.0798  0.6846
    1SOL    HW2 2742   3.864   0.812   1.136  0.4325 -0.8043  0.2637
    1SOL    HW3 2743   3.713   0.813   1.142  0.3786  2.4527 -0.6410
    1SOL    MW4 2744   3.787   0.780   1.111 -0.0930  0.2763  0.4542
    1SOL     OW 2745   3.580   0.901   1.206 -0.1922  0.1463 -0.0768
    1SOL    HW2 2746   3.592   0.984   1.161  0.3332  0.2731  0.3014
    1SOL    HW3 2747   3.495   0.869   1.174  0.0201  0.3985 -0.8930
    1SOL    MW4 2748   3.570   0.908   1.196 -0.0947  0.1963 -0.1346
    1SOL     OW 2749   3.605   1.141   1.083  0.4239 -0.0431  0.2837
    1SOL    HW2 2750   3.678   1.198   1.107  1.1245 -1.3122  1.2167
    1SOL    HW3 2751   3.527   1.187   1.113  0.8167  1.4362 -0.9294
    1SOL    MW4 2752   3.605   1.154   1.090  0.5679 -0.0151  0.2468
    1SOL     OW 2753   3.827   1.283   1.184 -0.4505 -0.2103  0.2336
    1SOL    HW2 2754   3.803   1.292   1.276 -1.7080  0.9554 -0.1923
    1SOL    HW3 2755   3.845   1.372   1.155  1.9347 -0.7715 -0.1547
    1SOL    MW4 2756   3.826   1.296   1.192 -0.3018 -0.1305  0.1262
    1SOL     OW 2757   3.861   1.541   1.076  0.2139  0.7416 -0.4199
    1SOL    HW2 2758   3.912   1.616   1.103  1.2011  0.4472 -1.4398
    1SOL    HW3 2759   3.852   1.550   0.981 -1.1585  0.5025 -0.3323
    1SOL    MW4 2760   3.866   1.552   1.067  0.1631  0.6710 -0.5429
    1SOL     OW 2761   3.604   1.669   1.186  0.2178  0.3019  0.1577
    1SOL    HW2 2762   3.590   1.752   1.140  0.9235 -0.1046 -0.8129
    1SOL    HW3 2763   3.696   1.648   1.170 -0.4040 -1.5567 -1.1184
    1SOL    MW4 2764   3.614   1.677   1.177  0.2289  0.0031 -0.1386
    1SOL     OW 2765   3.616   1.917   1.074 -0.4658 -0.4363 -0.4164
    1SOL    HW2 2766   3.679   1.964   1.128 -1.2879  0.6369 -0.3655
    1SOL    HW3 2767   3.637   1.942   0.984 -1.5120  0.8286 -0.3295
    1SOL    MW4 2768   3.627   1.927   1.069 -0.7124 -0.1279 -0.3983
    1SOL     OW 2769   4.022   1.960   1.057  0.6827 -0.2892  0.2153
    1SOL    HW2 2770   3.939   1.997   1.084  0.4667 -0.4359 -0.2496
    1SOL    HW3 2771   4.023   1.872   1.095  0.9633 -0.0098  0.8673
    1SOL    MW4 2772   4.011   1.953   1.066  0.6914 -0.2716  0.2400
    1SOL     OW 2773   3.794   2.069   1.205 -0.0430 -0.2300 -0.4060
    1SOL    HW2 2774   3.789   2.164   1.197  0.4589 -0.3059 -1.6983
    1SOL    HW3 2775   3.798   2.053   1.300  2.3335  1.1594 -0.2503
    1SOL    MW4 2776   3.794   2.079   1.217  0.3366 -0.0565 -0.5559
    1SOL     OW 2777   3.533   2.433   1.174  0.1025  0.2625  0.2397
    1SOL    HW2 2778   3.528   2.418   1.268 -0.0056  2.5528  0.6143
    1SOL    HW3 2779   3.617   2.394   1.148 -0.3324 -1.2696  1.0902
    1SOL    MW4 2780   3.544   2.426   1.183  0.0308  0.3626  0.4015
    1SOL     OW 2781   3.574   2.696   1.096 -0.2436 -0.0482  0.8262
    1SOL    HW2 2782   3.558   2.605   1.121 -2.4326  0.1295  0.1691
    1SOL    HW3 2783   3.503   2.746   1.137  0.4749  1.2516  0.5287
    1SOL    MW4 2784   3.563   2.691   1.105 -0.4375  0.1466  0.7004
    1SOL     OW 2785   3.815   2.824   1.190  0.3937 -0.4555  0.2719
    1SOL    HW2 2786   3.804   2.801   1.282 -0.7098 -2.4564 -0.3410
    1SOL    HW3 2787   3.745   2.777   1.144  0.6047  0.9206 -1.5346
    1SOL    MW4 2788   3.804   2.815   1.196  0.2761 -0.5381 -0.0472
    1SOL     OW 2789   3.844   3.098   1.090  0.3814  0.0958 -0.0946
    1SOL    HW2 2790   3.836   3.005   1.112 -0.2782  0.5126  1.5410
    1SOL    HW3 2791   3.823   3.104   0.997 -0.3728 -1.2850 -0.0133
    1SOL    MW4 2792   3.840   3.087   1.081  0.1948 -0.0317  0.1318
    1SOL     OW 2793   3.629   3.208   1.252  0.0196 -0.0972 -0.0283
    1SOL    HW2 2794   3.635   3.297   1.218  0.2184  0.8696  2.4295
    1SOL    HW3 2795   3.703   3.162   1.211  0.7311  1.2370 -0.2914
    1SOL    MW4 2796   3.640   3.214   1.242  0.1395  0.2065  0.2613
    1SOL     OW 2797   3.595   3.470   1.173  0.1291  0.6067 -0.5725
    1SOL    HW2 2798   3.677   3.519   1.180  0.1492  0.5420 -0.3262
    1SOL    HW3 2799   3.581   3.459   1.079 -0.0789  1.4394 -0.6423
    1SOL    MW4 2800   3.604   3.475   1.162  0.1042  0.7081 -0.5492
    1SOL     OW 2801   3.836   3.620   1.210  0.4584  0.3548 -0.1850
    1SOL    HW2 2802   3.840   3.613   1.305 -2.0537  0.5189 -0.0402
    1SOL    HW3 2803   3.814   3.712   1.193  0.8155  0.3132 -0.9313
    1SOL    MW4 2804   3.834   3.631   1.220  0.1740  0.3712 -0.2644
    1SOL     OW 2805   3.845   3.908   1.125  0.4144  0.4123  0.1226
    1SOL    HW2 2806   3.757   3.945   1.134  0.4504  0.5408 -0.0432
    1SOL    HW3 2807   3.848   3.875   1.035  0.0687 -0.8267  0.5554
    1SOL    MW4 2808   3.834   3.909   1.114  0.3738  0.2658  0.1580
    1SOL     OW 2809   3.592   4.025   1.138 -0.3596  0.3467 -0.3714
    1SOL    HW2 2810   3.579   4.005   1.231  2.6349 -0.1978 -0.0442
    1SOL    HW3 2811   3.536   3.962   1.093 -0.2411 -0.7754  1.0092
    1SOL    MW4 2812   3.583   4.014   1.145  0.0510  0.1264 -0.1460
    1SOL     OW 2813   3.580   4.302   1.095  0.4254 -0.1624 -0.0885
    1SOL    HW2 2814   3.569   4.207   1.098  0.0610 -0.1192 -0.0822
    1SOL    HW3 2815   3.575   4.324   1.002  1.4419 -0.2585 -0.1736
    1SOL    MW4 2816   3.578   4.292   1.083  0.5114 -0.1693 -0.0988
    1SOL     OW 2817   3.841   4.390   1.201  0.2967  0.1393 -0.2557
    1SOL    HW2 2818   3.842   4.412   1.294  0.2148 -1.4249  0.1390
    1SOL    HW3 2819   3.753   4.354   1.187  0.7785 -0.9331 -0.5943
    1SOL    MW4 2820   3.829   4.388   1.212  0.3493 -0.2084 -0.2484
    1SOL     OW 2821   4.231   4.647   1.094 -0.4112  0.3401 -0.8733
    1SOL    HW2 2822   4.234   4.560   1.136  0.0198 -0.4188 -2.4418
    1SOL    HW3 2823   4.176   4.699   1.152  2.4268  0.1467  2.1471
    1SOL    MW4 2824   4.224   4.642   1.108  0.0200  0.2151 -0.6818
    1SOL     OW 2825   4.043   0.131   1.206 -0.3089  0.0988  0.0636
    1SOL    HW2 2826   4.050   0.114   1.300  1.6410 -0.5151 -0.1663
    1SOL    HW3 2827   3.968   0.079   1.178  0.0316 -0.9368  1.0187
    1SOL    MW4 2828   4.034   0.122   1.215 -0.0062 -0.1188  0.1593
    1SOL     OW 2829   4.029   0.404   1.116 -0.0538 -0.1725 -0.5127
    1SOL    HW2 2830   4.036   0.313   1.146  1.9147  0.6488  1.7410
    1SOL    HW3 2831   4.032   0.399   1.021  0.0642 -2.4752 -0.4015
    1SOL    MW4 2832   4.031   0.391   1.108  0.2217 -0.3679 -0.2007
    1SOL     OW 2833   4.276   0.521   1.185 -0.1050 -0.5202 -0.4557
    1SOL    HW2 2834   4.282   0.512   1.280  1.5325 -0.1060 -0.4990
    1SOL    HW3 2835   4.192   0.482   1.162 -0.1824 -1.2974  1.0795
    1SOL    MW4 2836   4.266   0.515   1.194  0.1006 -0.5681 -0.2588
    1SOL     OW 2837   4.248   0.774   1.097 -0.3070  0.0220  0.0115
    1SOL    HW2 2838   4.260   0.687   1.135 -0.6440  0.7252  1.8076
    1SOL    HW3 2839   4.328   0.822   1.119 -0.5698  0.4917 -0.0324
    1SOL    MW4 2840   4.260   0.769   1.105 -0.3867  0.1767  0.2427
    1SOL     OW 2841   4.022   0.900   1.182  0.0066 -0.6553 -0.1626
    1SOL    HW2 2842   4.028   0.915   1.277  1.1011  0.3340 -0.3782
    1SOL    HW3 2843   4.097   0.844   1.162  0.9534  0.7996 -0.7580
    1SOL    MW4 2844   4.033   0.894   1.192  0.2756 -0.3329 -0.2697
    1SOL     OW 2845   4.073   1.179   1.146 -0.2444  0.2585  0.0566
    1SOL    HW2 2846   4.051   1.087   1.159  1.2977 -0.2682 -0.8585
    1SOL    HW3 2847   3.991   1.226   1.157 -0.5814 -0.9724  3.0079
    1SOL    MW4 2848   4.059   1.173   1.149 -0.0858  0.0266  0.3254
    1SOL     OW 2849   4.296   1.292   1.252  0.0976  0.0638  0.0646
    1SOL    HW2 2850   4.286   1.277   1.346  0.0470 -2.5794 -0.3220
    1SOL    HW3 2851   4.216   1.255   1.214  0.7012 -0.0341 -1.1161
    1SOL    MW4 2852   4.284   1.285   1.259  0.1707 -0.2978 -0.1422
    1SOL     OW 2853   4.251   1.578   1.187  0.4372 -0.2252  0.0831
    1SOL    HW2 2854   4.261   1.493   1.229  0.1761 -0.9542 -1.3157
    1SOL    HW3 2855   4.326   1.629   1.219 -0.6105 -0.2274  2.6637
    1SOL    MW4 2856   4.262   1.574   1.197  0.2646 -0.3216  0.2390
    1SOL     OW 2857   4.021   1.729   1.211  0.7805 -0.2744  0.4205
    1SOL    HW2 2858   4.014   1.735   1.307  2.6885  2.2323  0.4652
    1SOL    HW3 2859   4.097   1.673   1.197  0.7335 -0.3263  0.3731
    1SOL    MW4 2860   4.030   1.723   1.222  1.0262  0.0494  0.4200
    1SOL     OW 2861   3.328   2.069   0.448 -0.1349  0.0434  0.3855
    1SOL    HW2 2862   3.277   2.146   0.423  0.0023  0.0746  0.2099
    1SOL    HW3 2863   3.410   2.078   0.401  0.5780  0.6919  1.6970
    1SOL    MW4 2864   3.332   2.081   0.439 -0.0229  0.1330  0.5354
    1SOL     OW 2865   4.225   2.070   1.218 -0.0262 -0.0457 -0.3806
    1SOL    HW2 2866   4.234   2.165   1.203  1.0564  0.0121  0.5902
    1SOL    HW3 2867   4.156   2.043   1.157 -0.4649  1.3967 -0.5512
    1SOL    MW4 2868   4.217   2.079   1.208  0.0587  0.1521 -0.2750
    1SOL     OW 2869   4.279   2.338   1.116  0.3874  0.2223 -0.0774
    1SOL    HW2 2870   4.196   2.378   1.144 -0.5372 -1.5179 -0.2656
    1SOL    HW3 2871   4.279   2.348   1.020  0.7822  0.9199 -0.0113
    1SOL    MW4 2872   4.268   2.345   1.107  0.3171  0.0846 -0.0935
    1SOL     OW 2873   4.045   2.445   1.192 -0.1814 -0.1904  0.2224
    1SOL    HW2 2874   4.044   2.442   1.288 -0.2895  0.8653  0.2573
    1SOL    HW3 2875   4.045   2.538   1.171 -3.3830 -0.3804 -0.8408
    1SOL    MW4 2876   4.045   2.457   1.202 -0.6180 -0.0761  0.0867
    1SOL     OW 2877   4.050   2.716   1.126 -0.2261  0.1069 -0.0073
    1SOL    HW2 2878   3.973   2.761   1.160 -0.2667 -0.1772  0.2714
    1SOL    HW3 2879   4.044   2.727   1.031  0.0161  1.1089  0.0892
    1SOL    MW4 2880   4.039   2.724   1.118 -0.1993  0.2015  0.0422
    1SOL     OW 2881   4.292   2.814   1.283  0.5043 -0.3177  0.4050
    1SOL    HW2 2882   4.282   2.891   1.228 -0.6775 -0.8814 -0.1879
    1SOL    HW3 2883   4.219   2.757   1.258  1.2999 -1.5786  0.9071
    1SOL    MW4 2884   4.281   2.817   1.273  0.4539 -0.5584  0.3930
    1SOL     OW 2885   4.270   3.050   1.118  0.2052 -0.1520  0.0309
    1SOL    HW2 2886   4.203   3.105   1.158  1.1254 -0.0303  1.4358
    1SOL    HW3 2887   4.264   3.070   1.024 -0.1487  1.5995  0.4017
    1SOL    MW4 2888   4.260   3.060   1.111  0.2799  0.0951  0.2650
    1SOL     OW 2889   4.083   3.220   1.221  0.2601 -0.2608 -0.0426
    1SOL    HW2 2890   4.072   3.226   1.316 -0.9550  0.2924 -0.2078
    1SOL    HW3 2891   4.003   3.179   1.190  0.8187 -0.7821 -0.7935
    1SOL    MW4 2892   4.071   3.215   1.229  0.1731 -0.2568 -0.1636
    1SOL     OW 2893   4.049   3.467   1.098 -0.3027  0.5995 -0.6671
    1SOL    HW2 2894   4.063   3.380   1.135 -0.5025  0.2310 -1.4450
    1SOL    HW3 2895   3.966   3.497   1.135  0.0244  0.6775  0.0056
    1SOL    MW4 2896   4.040   3.460   1.107 -0.2856  0.5610 -0.6810
    1SOL     OW 2897   4.234   3.603   1.235  0.1072 -0.3541 -0.0637
    1SOL    HW2 2898   4.159   3.560   1.193 -0.0336 -0.1648 -0.0035
    1SOL    HW3 2899   4.309   3.548   1.211  0.1163  0.0881 -1.0610
    1SOL    MW4 2900   4.234   3.590   1.226  0.0901 -0.2708 -0.1873
    1SOL     OW 2901   4.262   3.851   1.120 -0.0929  0.5698 -0.4575
    1SOL    HW2 2902   4.195   3.904   1.163  1.1711  1.0004  0.9907
    1SOL    HW3 2903   4.264   3.770   1.170 -0.5086 -0.0054 -1.3593
    1SOL    MW4 2904   4.253   3.847   1.132  0.0186  0.5507 -0.3854
    1SOL     OW 2905   4.064   4.026   1.211 -0.5668  0.4804  0.3701
    1SOL    HW2 2906   4.057   4.112   1.171  3.1143 -0.2285 -2.0765
    1SOL    HW3 2907   3.986   3.979   1.183 -1.2951  2.1449 -0.4523
    1SOL    MW4 2908   4.053   4.031   1.202 -0.1769  0.6065 -0.0613
    1SOL     OW 2909   4.060   4.279   1.092 -0.2732 -0.0011  0.0032
    1SOL    HW2 2910   3.979   4.305   1.135  0.3929  0.6109  0.9381
    1SOL    HW3 2911   4.038   4.268   1.000 -1.0985  1.5274  0.0231
    1SOL    MW4 2912   4.047   4.281   1.086 -0.2942  0.2813  0.1290
    1SOL     OW 2913   4.276   4.408   1.185  0.0491 -0.0316  0.7514
    1SOL    HW2 2914   4.208   4.353   1.148  0.8327  0.3772 -1.3893
    1SOL    HW3 2915   4.356   4.380   1.140  0.4040  3.0410 -0.6287
    1SOL    MW4 2916   4.278   4.397   1.175  0.1988  0.4277  0.2868
    1SOL     OW 2917   0.239   0.005   1.553  0.6919 -0.8349  0.5492
    1SOL    HW2 2918   0.300   0.060   1.504  0.5782 -0.5460  0.7303
    1SOL    HW3 2919   0.154   0.048   1.542  0.5285 -1.2115  0.3351
    1SOL    MW4 2920   0.236   0.018   1.545  0.6554 -0.8465  0.5448
    1SOL     OW 2921   4.488   0.132   1.483  0.0967 -0.2162 -0.0133
    1SOL    HW2 2922   4.410   0.103   1.531  0.3268  0.3328  0.6884
    1SOL    HW3 2923   4.471   0.106   1.392 -1.2041  0.5032  0.0151
    1SOL    MW4 2924   4.475   0.125   1.477 -0.0448 -0.0489  0.0830
    1SOL     OW 2925   0.008   0.394   1.577  0.1822 -0.0441 -0.2233
    1SOL    HW2 2926   0.025   0.394   1.671 -1.2940  0.5657  0.0592
    1SOL    HW3 2927   0.001   0.301   1.554 -0.9180 -0.1697  0.5622
    1SOL    MW4 2928   0.009   0.382   1.586 -0.1583  0.0198 -0.0824
    1SOL     OW 2929   0.240   0.487   1.469  0.2848  0.1178  0.2805
    1SOL    HW2 2930   0.161   0.447   1.505 -0.3933  1.8161  0.7340
    1SOL    HW3 2931   0.228   0.484   1.374 -0.0861 -0.1176  0.3364
    1SOL    MW4 2932   0.228   0.482   1.461  0.1464  0.3108  0.3477
    1SOL     OW 2933   0.211   0.754   1.605 -0.3121 -0.0969  0.4085
    1SOL    HW2 2934   0.221   0.667   1.565  0.9449  0.8235 -1.3216
    1SOL    HW3 2935   0.285   0.804   1.573 -2.0333  2.1830 -0.1051
    1SOL    MW4 2936   0.222   0.749   1.596 -0.3734  0.3254  0.1125
    1SOL     OW 2937   0.027   0.885   1.429 -0.0016  0.0759  0.3244
    1SOL    HW2 2938   0.021   0.966   1.480  1.2388  1.1217 -1.1561
    1SOL    HW3 2939   0.095   0.834   1.472 -1.8710 -0.9228  2.2162
    1SOL    MW4 2940   0.035   0.889   1.441 -0.0846  0.0821  0.3787
    1SOL     OW 2941   0.012   1.124   1.600  0.1630  0.6817 -0.3835
    1SOL    HW2 2942   0.018   1.123   1.695 -0.1214  0.9511 -0.3618
    1SOL    HW3 2943   0.066   1.198   1.573  0.5635  0.3649 -0.4565
    1SOL    MW4 2944   0.020   1.134   1.609  0.1783  0.6754 -0.3903
    1SOL     OW 2945   0.233   1.287   1.461  0.0146 -0.2546  0.0715
    1SOL    HW2 2946   0.299   1.231   1.501  0.5058  1.2486  1.4060
    1SOL    HW3 2947   0.227   1.363   1.519 -1.9466  0.2411 -0.7218
    1SOL    MW4 2948   0.241   1.290   1.474 -0.1794  0.0093  0.1428
    1SOL     OW 2949   0.219   1.492   1.637  0.2589 -0.2695  0.0225
    1SOL    HW2 2950   0.222   1.519   1.729 -0.7668 -2.5017  0.7394
    1SOL    HW3 2951   0.141   1.534   1.602  1.0722  1.2121 -0.0543
    1SOL    MW4 2952   0.209   1.501   1.645  0.2309 -0.3686  0.1070
    1SOL     OW 2953   0.012   1.645   1.535 -0.0970  0.1066  0.0285
    1SOL    HW2 2954  -0.011   1.725   1.582  0.8999 -0.1227  0.9245
    1SOL    HW3 2955  -0.017   1.661   1.445  1.6619  2.2071 -0.2193
    1SOL    MW4 2956   0.005   1.658   1.529  0.2666  0.3533  0.1138
    1SOL     OW 2957   4.468   1.899   1.613  0.2364  0.4834  0.1979
    1SOL    HW2 2958   4.495   1.927   1.700  0.6991  1.6729 -0.3244
    1SOL    HW3 2959   4.405   1.965   1.585 -1.0185 -0.6850  0.2120
    1SOL    MW4 2960   4.463   1.911   1.621  0.1316  0.4861  0.1308
    1SOL     OW 2961   0.202   2.031   1.511 -0.2909  0.1554 -0.1927
    1SOL    HW2 2962   0.114   1.996   1.527  1.2451 -2.8388  1.9905
    1SOL    HW3 2963   0.210   2.033   1.415 -2.3235 -0.5451 -0.3973
    1SOL    MW4 2964   0.191   2.027   1.500 -0.3564 -0.3321  0.0683
    1SOL     OW 2965   0.219   2.310   1.574  0.0061  0.1441  0.2067
    1SOL    HW2 2966   0.234   2.305   1.668 -0.9871 -1.7735  0.2933
    1SOL    HW3 2967   0.217   2.218   1.545 -1.1925  0.6496 -1.4212
    1SOL    MW4 2968   0.221   2.297   1.582 -0.2831 -0.0422  0.0035
    1SOL     OW 2969   4.465   2.466   1.500  0.2509  0.0712  0.5349
    1SOL    HW2 2970   4.389   2.410   1.518  0.0045  0.5736  1.0471
    1SOL    HW3 2971   4.540   2.416   1.532  0.0477 -0.0403  0.8348
    1SOL    MW4 2972   4.465   2.452   1.506  0.1916  0.1230  0.6421
    1SOL     OW 2973   4.474   2.717   1.614 -0.0656  0.0645 -0.1767
    1SOL    HW2 2974   4.394   2.763   1.587 -0.7835 -0.4237  1.0767
    1SOL    HW3 2975   4.472   2.636   1.564 -0.0011  0.3556 -0.6555
    1SOL    MW4 2976   4.463   2.713   1.604 -0.1516  0.0386 -0.0746
    1SOL     OW 2977   0.218   2.857   1.522 -0.0496  0.8169  0.0458
    1SOL    HW2 2978   0.290   2.810   1.564  0.4326  0.3991 -1.2106
    1SOL    HW3 2979   0.140   2.807   1.547  0.3706 -0.1937 -0.5960
    1SOL    MW4 2980   0.217   2.844   1.531  0.0695  0.6282 -0.2046
    1SOL     OW 2981   0.223   3.093   1.649 -0.0203  0.3237  0.2040
    1SOL    HW2 2982   0.146   3.138   1.615 -1.1564 -1.1156  0.8361
    1SOL    HW3 2983   0.228   3.012   1.598  1.4487  0.6978 -0.2716
    1SOL    MW4 2984   0.214   3.088   1.638  0.0236  0.1831  0.2247
    1SOL     OW 2985   4.490   3.201   1.552 -0.7834  0.1057  1.0079
    1SOL    HW2 2986   4.475   3.293   1.573 -1.0277  0.0527  1.0682
    1SOL    HW3 2987   4.491   3.199   1.456 -0.0384  0.2870  1.0124
    1SOL    MW4 2988   4.488   3.213   1.542 -0.7174  0.1225  1.0164
    1SOL     OW 2989   0.038   3.486   1.583 -0.3630  0.2381 -0.1877
    1SOL    HW2 2990   0.035   3.471   1.678 -1.4251 -1.0527 -0.3993
    1SOL    HW3 2991  -0.043   3.533   1.564  0.4933  1.6976 -0.2784
    1SOL    MW4 2992   0.027   3.490   1.593 -0.3901  0.2604 -0.2276
    1SOL     OW 2993   0.243   3.641   1.483 -0.1470  0.0979  0.0116
    1SOL    HW2 2994   0.234   3.731   1.514  0.2643 -0.0347  0.5218
    1SOL    HW3 2995   0.166   3.595   1.516 -0.4519  0.3090 -0.4087
    1SOL    MW4 2996   0.232   3.647   1.491 -0.1330  0.1085  0.0234
    1SOL     OW 2997   0.223   3.915   1.606 -0.2693  0.2069  0.1042
    1SOL    HW2 2998   0.233   3.904   1.701  0.1142  1.4370  0.2149
    1SOL    HW3 2999   0.304   3.956   1.578 -0.7686  0.6964 -0.6180
    1SOL    MW4 3000   0.235   3.919   1.615 -0.2846  0.4337  0.0234
    1SOL     OW 3001   4.475   4.012   1.474 -0.2139 -0.0433 -0.1365
    1SOL    HW2 3002   4.456   4.106   1.478  0.2808  0.1864 -2.3322
    1SOL    HW3 3003   4.562   4.003   1.512 -0.2371  0.3859  0.0226
    1SOL    MW4 3004   4.484   4.023   1.479 -0.1517  0.0429 -0.4052
    1SOL     OW 3005   0.001   4.287   1.519 -0.1738 -0.0936 -0.2425
    1SOL    HW2 3006  -0.001   4.264   1.611 -1.2925  0.6214 -0.0799
    1SOL    HW3 3007  -0.078   4.339   1.505 -0.1043 -0.3372 -1.6386
    1SOL    MW4 3008  -0.010   4.291   1.529 -0.3122 -0.0315 -0.4053
    1SOL     OW 3009   0.238   4.412   1.445 -0.2925 -0.7911  0.0297
    1SOL    HW2 3010   0.154   4.369   1.463 -1.0266  0.0465 -1.3129
    1SOL    HW3 3011   0.228   4.500   1.482  0.3033 -0.9647  0.6085
    1SOL    MW4 3012   0.225   4.418   1.453 -0.3107 -0.7033 -0.0712
    1SOL     OW 3013   0.665   0.038   1.625  0.3194  0.4972  0.5837
    1SOL    HW2 3014   0.742   0.073   1.579  0.9862 -0.6488  0.8012
    1SOL    HW3 3015   0.591   0.063   1.570  0.8382  1.6585  0.3866
    1SOL    MW4 3016   0.666   0.046   1.612  0.4758  0.4992  0.5864
    1SOL     OW 3017   0.469   0.125   1.440 -0.1720  0.2266 -0.2566
    1SOL    HW2 3018   0.481   0.217   1.461 -0.3102  0.2830 -0.4249
    1SOL    HW3 3019   0.470   0.121   1.344 -1.5196  0.2448 -0.2873
    1SOL    MW4 3020   0.471   0.136   1.430 -0.3680  0.2364 -0.2829
    1SOL     OW 3021   0.491   0.381   1.568  0.2891  0.0704  0.2995
    1SOL    HW2 3022   0.567   0.437   1.551  0.7205 -0.9045 -1.0653
    1SOL    HW3 3023   0.416   0.431   1.537  0.5124  0.5177  0.4766
    1SOL    MW4 3024   0.491   0.395   1.562  0.3755  0.0008  0.1427
    1SOL     OW 3025   0.719   0.521   1.506 -0.4197 -0.0729 -0.2763
    1SOL    HW2 3026   0.720   0.615   1.526  1.0274 -0.0410 -0.3959
    1SOL    HW3 3027   0.732   0.518   1.411 -0.9885 -0.3853 -0.3433
    1SOL    MW4 3028   0.721   0.533   1.496 -0.3039 -0.1100 -0.3009
    1SOL     OW 3029   0.680   0.801   1.595  0.3208 -0.1339 -0.6087
    1SOL    HW2 3030   0.704   0.778   1.684 -1.3339 -1.1420 -0.4061
    1SOL    HW3 3031   0.758   0.845   1.560  2.1705 -2.6020  0.2514
    1SOL    MW4 3032   0.694   0.804   1.602  0.3464 -0.5926 -0.4685
    1SOL     OW 3033   0.430   0.864   1.493  0.0846 -0.3893 -0.5709
    1SOL    HW2 3034   0.432   0.955   1.522 -1.9231 -0.5940  0.3296
    1SOL    HW3 3035   0.509   0.825   1.529 -0.4729  0.3180  1.4944
    1SOL    MW4 3036   0.440   0.871   1.501 -0.2538 -0.3230 -0.1796
    1SOL     OW 3037   0.431   1.120   1.563  0.5535 -0.5483  0.1934
    1SOL    HW2 3038   0.508   1.175   1.545 -0.7323  1.1400 -0.2650
    1SOL    HW3 3039   0.417   1.129   1.657 -0.9385  1.7016 -0.1994
    1SOL    MW4 3040   0.439   1.129   1.573  0.1870 -0.0287  0.0812
    1SOL     OW 3041   0.662   1.283   1.521  0.0259  0.2288 -0.3232
    1SOL    HW2 3042   0.667   1.366   1.570  0.4724  0.2481 -0.4037
    1SOL    HW3 3043   0.666   1.309   1.429  0.2785  0.1047 -0.3452
    1SOL    MW4 3044   0.663   1.298   1.515  0.1181  0.2149 -0.3366
    1SOL     OW 3045   0.677   1.524   1.624  0.0099  0.5076 -0.3530
    1SOL    HW2 3046   0.750   1.573   1.587 -0.4521  0.9168 -0.7257
    1SOL    HW3 3047   0.599   1.567   1.590 -0.4286  0.9961  1.2309
    1SOL    MW4 3048   0.676   1.536   1.615 -0.1089  0.6261 -0.1932
    1SOL     OW 3049   0.441   1.631   1.527 -0.0054  0.3068 -0.1778
    1SOL    HW2 3050   0.434   1.724   1.548 -0.1097  0.2150  0.1940
    1SOL    HW3 3051   0.362   1.592   1.566  0.4020 -0.0528  0.2890
    1SOL    MW4 3052   0.429   1.638   1.535  0.0347  0.2472 -0.0671
    1SOL     OW 3053   0.465   1.894   1.583  0.1223  0.0508  0.5687
    1SOL    HW2 3054   0.465   1.903   1.679 -0.7248  0.5360  0.5300
    1SOL    HW3 3055   0.381   1.929   1.556  0.3083 -0.2016 -0.3549
    1SOL    MW4 3056   0.454   1.900   1.592  0.0351  0.0815  0.4418
    1SOL     OW 3057   0.683   2.059   1.543 -0.7822  0.8220 -0.3543
    1SOL    HW2 3058   0.762   2.008   1.561 -0.7722  1.5039  1.6765
    1SOL    HW3 3059   0.611   1.998   1.558 -0.7210  0.9834  0.6286
    1SOL    MW4 3060   0.684   2.044   1.547 -0.7727  0.9332  0.0434
    1SOL     OW 3061   0.685   2.338   1.586  0.2805 -0.3765 -0.1884
    1SOL    HW2 3062   0.599   2.372   1.561  0.4865  0.0401 -0.3377
    1SOL    HW3 3063   0.681   2.244   1.566  0.1476 -0.2026 -0.9725
    1SOL    MW4 3064   0.673   2.330   1.580  0.2902 -0.2987 -0.3115
    1SOL     OW 3065   0.450   2.468   1.517 -0.7193 -0.3059  0.3541
    1SOL    HW2 3066   0.435   2.561   1.534 -1.0254 -0.1646 -0.6985
    1SOL    HW3 3067   0.367   2.426   1.542 -0.7646 -0.2365  0.3205
    1SOL    MW4 3068   0.437   2.475   1.523 -0.7657 -0.2782  0.2108
    1SOL     OW 3069   0.443   2.733   1.580  0.2573  0.6679  0.5285
    1SOL    HW2 3070   0.450   2.736   1.675  1.5194  3.8093  0.3789
    1SOL    HW3 3071   0.532   2.750   1.548 -0.3964  0.9151 -1.2232
    1SOL    MW4 3072   0.456   2.735   1.588  0.3376  1.1151  0.2775
    1SOL     OW 3073   0.689   2.819   1.477  0.1429 -0.4201  0.3298
    1SOL    HW2 3074   0.682   2.905   1.518 -0.1202  0.0223 -0.6349
    1SOL    HW3 3075   0.769   2.782   1.513  1.5974  1.2390 -1.1047
    1SOL    MW4 3076   0.699   2.826   1.487  0.3001 -0.1426  0.0132
    1SOL     OW 3077   0.643   3.074   1.608  0.1309  0.2708 -0.0445
    1SOL    HW2 3078   0.715   3.128   1.577  0.6895  0.0545  0.8573
    1SOL    HW3 3079   0.564   3.121   1.580  0.5956  1.8679  1.2565
    1SOL    MW4 3080   0.642   3.087   1.600  0.2659  0.4528  0.2460
    1SOL     OW 3081   0.429   3.249   1.506 -0.1165 -0.2807 -0.5339
    1SOL    HW2 3082   0.353   3.203   1.540  0.3935 -1.2063 -0.6115
    1SOL    HW3 3083   0.425   3.235   1.411  0.0698 -0.2012 -0.5546
    1SOL    MW4 3084   0.419   3.241   1.498 -0.0246 -0.3924 -0.5469
    1SOL     OW 3085   0.452   3.511   1.625 -0.0276 -0.3971  0.8063
    1SOL    HW2 3086   0.447   3.428   1.576  0.5087 -0.5804  1.0623
    1SOL    HW3 3087   0.375   3.559   1.596 -0.1975 -0.8718  0.4428
    1SOL    MW4 3088   0.441   3.506   1.615  0.0207 -0.4838  0.7920
    1SOL     OW 3089   0.675   3.650   1.517  0.0870  0.0020  0.2700
    1SOL    HW2 3090   0.755   3.605   1.543 -1.0549 -0.7608  2.6447
    1SOL    HW3 3091   0.606   3.605   1.566 -1.8230  0.5056 -1.8742
    1SOL    MW4 3092   0.676   3.638   1.527 -0.3156 -0.0322  0.3004
    1SOL     OW 3093   0.687   3.905   1.615 -0.3962 -0.1491  0.3227
    1SOL    HW2 3094   0.768   3.944   1.582 -1.2712 -0.1919 -1.9949
    1SOL    HW3 3095   0.682   3.819   1.572 -0.3247 -1.3090  2.5574
    1SOL    MW4 3096   0.697   3.899   1.605 -0.5022 -0.3080  0.3117
    1SOL     OW 3097   0.458   4.038   1.520 -0.1350 -0.0179  0.2059
    1SOL    HW2 3098   0.537   4.000   1.559 -0.1410  0.0863  0.3198
    1SOL    HW3 3099   0.468   4.023   1.426 -0.4905 -0.9646  0.3179
    1SOL    MW4 3100   0.470   4.031   1.513 -0.1827 -0.1287  0.2357
    1SOL     OW 3101   0.472   4.312   1.556 -0.1202  0.8093 -0.2758
    1SOL    HW2 3102   0.476   4.222   1.523  0.4344  0.5953  0.3892
    1SOL    HW3 3103   0.391   4.347   1.517 -0.2051  0.1141 -0.7455
    1SOL    MW4 3104   0.462   4.305   1.546 -0.0581  0.6895 -0.2500
    1SOL     OW 3105   0.710   4.438   1.521 -0.3511 -0.2516  0.0063
    1SOL    HW2 3106   0.622   4.403   1.534 -0.4055  0.2138  0.8787
    1SOL    HW3 3107   0.708   4.526   1.559  0.0151  0.4103 -1.4611
    1SOL    MW4 3108   0.698   4.445   1.527 -0.3099 -0.1025 -0.0721
    1SOL     OW 3109   1.098   4.635   1.595 -0.0466 -0.0673 -0.5097
    1SOL    HW2 3110   1.099   4.628   1.691 -1.1318  1.0623 -0.3949
    1SOL    HW3 3111   1.170   4.694   1.575 -0.9021  1.0957 -0.2359
    1SOL    MW4 3112   1.108   4.642   1.605 -0.3028  0.2356 -0.4586
    1SOL     OW 3113   0.901   0.109   1.480  0.3724  0.1645  0.2985
    1SOL    HW2 3114   0.906   0.188   1.534  0.7448  0.1904  0.2237
    1SOL    HW3 3115   0.968   0.051   1.516 -0.1677 -0.2789  0.6133
    1SOL    MW4 3116   0.910   0.112   1.492  0.3502  0.1094  0.3302
    1SOL     OW 3117   0.921   0.363   1.597 -0.1311 -0.0618 -0.0770
    1SOL    HW2 3118   0.918   0.371   1.692  1.6621 -0.9586  0.0666
    1SOL    HW3 3119   0.843   0.411   1.567 -1.0662 -0.3158  1.8518
    1SOL    MW4 3120   0.910   0.370   1.605 -0.0178 -0.2136  0.1965
    1SOL     OW 3121   1.139   0.491   1.489 -0.3257  0.5194 -0.1786
    1SOL    HW2 3122   1.135   0.574   1.537  1.7521  0.5212  0.0339
    1SOL    HW3 3123   1.066   0.439   1.524 -0.9185  1.8042  0.5218
    1SOL    MW4 3124   1.129   0.495   1.500 -0.1297  0.6891 -0.0581
    1SOL     OW 3125   1.161   0.733   1.616  0.1063 -0.5471 -0.2037
    1SOL    HW2 3126   1.181   0.755   1.707  0.3208  0.3613 -0.4577
    1SOL    HW3 3127   1.229   0.778   1.566 -0.1654 -0.8281 -0.8320
    1SOL    MW4 3128   1.173   0.742   1.621  0.0988 -0.4644 -0.3201
    1SOL     OW 3129   0.947   0.903   1.509  0.2434 -0.5296 -0.2320
    1SOL    HW2 3130   1.013   0.843   1.542  0.7187 -0.4306 -0.9934
    1SOL    HW3 3131   0.948   0.890   1.414  0.7388  1.0763 -0.4557
    1SOL    MW4 3132   0.956   0.893   1.500  0.3715 -0.3046 -0.3622
    1SOL     OW 3133   0.884   1.145   1.613  0.4260 -0.2595 -0.0874
    1SOL    HW2 3134   0.908   1.060   1.576 -1.1867 -1.3911  1.3536
    1SOL    HW3 3135   0.807   1.172   1.563  0.9192  0.3542 -0.5238
    1SOL    MW4 3136   0.877   1.137   1.601  0.2784 -0.3278  0.0452
    1SOL     OW 3137   1.094   1.287   1.483  0.1085  0.0991  0.3106
    1SOL    HW2 3138   1.170   1.247   1.525 -0.5861 -0.0867  1.4155
    1SOL    HW3 3139   1.019   1.248   1.527 -0.6180  0.8230 -0.2658
    1SOL    MW4 3140   1.094   1.277   1.494 -0.0790  0.1701  0.3804
    1SOL     OW 3141   1.124   1.546   1.602  0.3805  0.2022  0.7666
    1SOL    HW2 3142   1.201   1.597   1.576  0.1476  0.1683  0.0113
    1SOL    HW3 3143   1.133   1.463   1.555 -0.3346  0.3581  0.3488
    1SOL    MW4 3144   1.136   1.542   1.592  0.2556  0.2184  0.6119
    1SOL     OW 3145   0.889   1.673   1.508 -0.2935  0.0170  0.3562
    1SOL    HW2 3146   0.971   1.629   1.529 -0.4906  0.3177  1.8491
    1SOL    HW3 3147   0.870   1.648   1.418  1.5876  0.1862 -0.1129
    1SOL    MW4 3148   0.897   1.664   1.499 -0.0712  0.0790  0.4911
    1SOL     OW 3149   0.940   1.952   1.595  0.0932  0.2896 -0.0248
    1SOL    HW2 3150   1.028   1.979   1.569 -0.2178  1.5352  0.1800
    1SOL    HW3 3151   0.933   1.862   1.565  1.5174  0.1015  0.1370
    1SOL    MW4 3152   0.951   1.944   1.588  0.2400  0.4292  0.0236
    1SOL     OW 3153   1.182   2.066   1.489  0.0383  0.0820 -0.1864
    1SOL    HW2 3154   1.267   2.024   1.501 -0.1182  0.0497  0.8569
    1SOL    HW3 3155   1.190   2.150   1.535 -0.6521 -0.1451  0.3661
    1SOL    MW4 3156   1.194   2.071   1.497 -0.0733  0.0477  0.0241
    1SOL     OW 3157   1.162   2.324   1.612 -0.3162  0.2644 -0.3072
    1SOL    HW2 3158   1.236   2.355   1.559  0.0613  0.1622  0.1586
    1SOL    HW3 3159   1.085   2.362   1.570  0.0273  0.6381 -0.6000
    1SOL    MW4 3160   1.162   2.333   1.599 -0.2210  0.3004 -0.2843
    1SOL     OW 3161   0.927   2.441   1.504 -0.6800 -0.4564  0.3666
    1SOL    HW2 3162   0.916   2.455   1.409  0.0567 -0.1984  0.3173
    1SOL    HW3 3163   0.848   2.394   1.530 -2.0937  1.6992  0.0860
    1SOL    MW4 3164   0.915   2.437   1.495 -0.7693 -0.1378  0.3232
    1SOL     OW 3165   0.928   2.707   1.603  0.0354  0.3778  0.4096
    1SOL    HW2 3166   0.926   2.718   1.697 -0.3983  1.6588  0.2500
    1SOL    HW3 3167   0.926   2.612   1.590  0.0517  0.2025  1.6764
    1SOL    MW4 3168   0.928   2.696   1.613 -0.0197  0.5238  0.5558
    1SOL     OW 3169   1.115   2.822   1.439  0.5633 -0.6538  0.3784
    1SOL    HW2 3170   1.100   2.916   1.450 -1.2141 -0.6559 -1.5798
    1SOL    HW3 3171   1.039   2.781   1.479  0.8597 -1.2159  0.3675
    1SOL    MW4 3172   1.103   2.829   1.445  0.3678 -0.7284  0.1186
    1SOL     OW 3173   1.112   3.094   1.534  0.1255 -0.1184  0.0852
    1SOL    HW2 3174   1.121   3.089   1.630 -1.0213  0.3346  0.2205
    1SOL    HW3 3175   1.182   3.152   1.507 -0.2164  0.6248  0.7702
    1SOL    MW4 3176   1.122   3.101   1.543 -0.0710  0.0396  0.1935
    1SOL     OW 3177   0.865   3.236   1.500  0.6004 -0.3256  0.1961
    1SOL    HW2 3178   0.945   3.192   1.528  0.1248 -0.7760  0.8799
    1SOL    HW3 3179   0.871   3.239   1.405  1.2104 -0.7807  0.2196
    1SOL    MW4 3180   0.876   3.231   1.491  0.6182 -0.4449  0.2894
    1SOL     OW 3181   0.886   3.500   1.596 -0.0969  0.4876  0.4537
    1SOL    HW2 3182   0.974   3.527   1.571 -0.5231  0.6375 -0.9013
    1SOL    HW3 3183   0.875   3.413   1.556 -1.3075  1.3421 -1.1434
    1SOL    MW4 3184   0.896   3.492   1.588 -0.3128  0.6201  0.0643
    1SOL     OW 3185   1.120   3.589   1.492  0.1502  0.2694 -0.4985
    1SOL    HW2 3186   1.200   3.562   1.536  0.9137  2.2233 -0.6426
    1SOL    HW3 3187   1.139   3.578   1.398 -0.5086 -1.2632 -0.4700
    1SOL    MW4 3188   1.133   3.584   1.485  0.1640  0.3250 -0.5137
    1SOL     OW 3189   1.128   3.867   1.530 -0.3988 -0.4154 -0.0045
    1SOL    HW2 3190   1.212   3.898   1.495 -0.0654 -0.8565  0.4071
    1SOL    HW3 3191   1.128   3.773   1.512 -0.4929 -0.5375  0.6404
    1SOL    MW4 3192   1.139   3.859   1.523 -0.3672 -0.4897  0.1349
    1SOL     OW 3193   0.916   4.046   1.468 -0.5527  0.4275 -0.2565
    1SOL    HW2 3194   0.943   4.124   1.516  1.1727  0.8828 -1.9161
    1SOL    HW3 3195   0.987   3.984   1.481 -2.3214 -1.2684  1.8158
    1SOL    MW4 3196   0.929   4.048   1.476 -0.5584  0.2637 -0.2022
    1SOL     OW 3197   0.927   4.284   1.593  0.4862  0.3330 -0.0695
    1SOL    HW2 3198   0.917   4.286   1.689  1.1756  0.6523  0.0036
    1SOL    HW3 3199   0.842   4.312   1.559  0.4158  0.7742  0.4616
    1SOL    MW4 3200   0.915   4.288   1.601  0.5679  0.4334  0.0101
    1SOL     OW 3201   1.135   4.394   1.455 -0.6019 -0.1176 -0.2432
    1SOL    HW2 3202   1.067   4.359   1.513  0.1729  0.3912  1.0013
    1SOL    HW3 3203   1.143   4.486   1.481  0.5754 -0.1826 -0.3669
    1SOL    MW4 3204   1.127   4.401   1.466 -0.3444 -0.0587 -0.0952
    1SOL     OW 3205   1.547   4.615   1.590  0.0029  0.3135  0.3089
    1SOL    HW2 3206   1.538   4.621   1.685 -0.8284 -0.2248  0.2718
    1SOL    HW3 3207   1.469   4.658   1.555 -0.0567 -0.1253 -0.1139
    1SOL    MW4 3208   1.535   4.621   1.598 -0.1147  0.1845  0.2482
    1SOL     OW 3209   1.316   0.092   1.485 -0.2509  0.2998  0.3398
    1SOL    HW2 3210   1.327   0.178   1.526 -0.2723  0.0846  0.8069
    1SOL    HW3 3211   1.303   0.110   1.392  0.5884  0.7599  0.3068
    1SOL    MW4 3212   1.316   0.105   1.478 -0.1429  0.3321  0.3971
    1SOL     OW 3213   1.360   0.359   1.597  0.1688  0.4313  0.3858
    1SOL    HW2 3214   1.435   0.414   1.572  0.0921  0.8709  1.0986
    1SOL    HW3 3215   1.285   0.399   1.554  0.4749 -0.6032 -1.1699
    1SOL    MW4 3216   1.360   0.371   1.588  0.1992  0.3528  0.2747
    1SOL     OW 3217   1.577   0.535   1.509 -0.6646 -0.0533  0.3464
    1SOL    HW2 3218   1.646   0.476   1.539 -0.4683  0.0790  0.1648
    1SOL    HW3 3219   1.556   0.505   1.420 -2.1235 -1.2124  1.0847
    1SOL    MW4 3220   1.584   0.523   1.501 -0.8312 -0.1888  0.4197
    1SOL     OW 3221   1.576   0.780   1.611  0.1467  0.1531 -0.1864
    1SOL    HW2 3222   1.573   0.776   1.706 -0.3256 -0.1412 -0.2121
    1SOL    HW3 3223   1.576   0.689   1.582 -1.1531  0.2310 -0.4983
    1SOL    MW4 3224   1.575   0.768   1.620 -0.0871  0.1245 -0.2310
    1SOL     OW 3225   1.362   0.924   1.518  0.6399  0.1564  0.2415
    1SOL    HW2 3226   1.439   0.873   1.544  0.2594 -0.9429 -0.7290
    1SOL    HW3 3227   1.365   0.924   1.422  0.2148  1.3296  0.2263
    1SOL    MW4 3228   1.373   0.917   1.509  0.5336  0.1662  0.1116
    1SOL     OW 3229   1.316   1.185   1.590  0.0882  0.1095 -0.0543
    1SOL    HW2 3230   1.307   1.183   1.685 -1.4778  0.2655 -0.1980
    1SOL    HW3 3231   1.326   1.093   1.565  1.0334  0.1063  0.2944
    1SOL    MW4 3232   1.316   1.173   1.600  0.0063  0.1295 -0.0274
    1SOL     OW 3233   1.529   1.303   1.453 -0.1774  0.4229 -0.1708
    1SOL    HW2 3234   1.453   1.270   1.500  0.2474  0.9335  0.8774
    1SOL    HW3 3235   1.600   1.242   1.475 -0.0400  0.5109 -0.3613
    1SOL    MW4 3236   1.528   1.291   1.462 -0.1032  0.5019 -0.0576
    1SOL     OW 3237   1.597   1.544   1.577  0.4319  0.3407  0.7028
    1SOL    HW2 3238   1.609   1.521   1.669  0.1602 -1.5530  0.2917
    1SOL    HW3 3239   1.588   1.459   1.532  0.2851  1.2452 -1.0199
    1SOL    MW4 3240   1.597   1.530   1.583  0.3767  0.2102  0.4214
    1SOL     OW 3241   1.342   1.676   1.506  0.4191  0.3313 -0.1149
    1SOL    HW2 3242   1.427   1.640   1.532 -0.6334 -1.8387  0.4920
    1SOL    HW3 3243   1.348   1.685   1.411  1.6076  1.0170  0.0090
    1SOL    MW4 3244   1.354   1.672   1.497  0.4371  0.1355 -0.0184
    1SOL     OW 3245   1.401   1.916   1.603  0.0750 -0.1916  0.1079
    1SOL    HW2 3246   1.378   1.922   1.696  0.9412 -0.0331  0.3141
    1SOL    HW3 3247   1.374   1.827   1.578  1.3730 -0.8451  0.9435
    1SOL    MW4 3248   1.394   1.905   1.612  0.3605 -0.2569  0.2453
    1SOL     OW 3249   1.586   2.081   1.478 -0.2938  0.4547 -0.5272
    1SOL    HW2 3250   1.528   2.016   1.518  0.2732 -0.7612 -1.6416
    1SOL    HW3 3251   1.571   2.073   1.384  1.6986  0.0682 -0.8370
    1SOL    MW4 3252   1.577   2.071   1.471  0.0440  0.2434 -0.7151
    1SOL     OW 3253   1.584   2.329   1.608  0.0400 -0.6636  0.3116
    1SOL    HW2 3254   1.665   2.372   1.582 -0.0635  0.5577  1.9143
    1SOL    HW3 3255   1.589   2.241   1.570  0.6341  0.4668 -2.3416
    1SOL    MW4 3256   1.595   2.323   1.599  0.1049 -0.3533  0.1730
    1SOL     OW 3257   1.363   2.443   1.471 -0.1518 -0.1367  0.0266
    1SOL    HW2 3258   1.349   2.529   1.510 -2.4506 -0.5733  0.2173
    1SOL    HW3 3259   1.445   2.412   1.509  0.0434  1.4184  0.9085
    1SOL    MW4 3260   1.372   2.450   1.481 -0.4294  0.0107  0.1681
    1SOL     OW 3261   1.322   2.696   1.550 -0.0239  0.3124  0.0794
    1SOL    HW2 3262   1.396   2.739   1.508  0.2255  0.9545  1.1567
    1SOL    HW3 3263   1.245   2.736   1.511  0.1924 -0.1329 -0.8147
    1SOL    MW4 3264   1.322   2.707   1.539  0.0377  0.3383  0.1037
    1SOL     OW 3265   1.554   2.825   1.435  0.0993 -0.4097 -0.0294
    1SOL    HW2 3266   1.634   2.784   1.466  1.0320  1.0148 -0.4941
    1SOL    HW3 3267   1.566   2.835   1.341 -0.5651 -0.0600 -0.0834
    1SOL    MW4 3268   1.566   2.821   1.427  0.1347 -0.1755 -0.0980
    1SOL     OW 3269   1.577   3.094   1.549  0.0399  0.5320 -0.0211
    1SOL    HW2 3270   1.656   3.142   1.524  0.7634 -0.2464  0.7633
    1SOL    HW3 3271   1.580   3.014   1.498 -0.0872  0.3637  0.2340
    1SOL    MW4 3272   1.588   3.090   1.539  0.1185  0.4070  0.1161
    1SOL     OW 3273   1.347   3.242   1.490 -0.1603 -0.1163  0.2161
    1SOL    HW2 3274   1.347   3.329   1.531 -0.1440 -0.2289  0.4586
    1SOL    HW3 3275   1.413   3.193   1.538 -0.5090 -0.4108  0.4000
    1SOL    MW4 3276   1.356   3.247   1.502 -0.2042 -0.1698  0.2723
    1SOL     OW 3277   1.360   3.494   1.610  0.2713  0.1339 -0.0880
    1SOL    HW2 3278   1.362   3.487   1.705 -0.9722  0.0438 -0.0551
    1SOL    HW3 3279   1.447   3.527   1.586  0.7264 -0.2208  1.0367
    1SOL    MW4 3280   1.372   3.498   1.619  0.1673  0.0749  0.0648
    1SOL     OW 3281   1.613   3.608   1.527 -0.3526  0.1070  0.2695
    1SOL    HW2 3282   1.604   3.694   1.568  0.2303  0.1562  0.2976
    1SOL    HW3 3283   1.604   3.626   1.433  0.2260  0.2624  0.2441
    1SOL    MW4 3284   1.610   3.622   1.520 -0.1993  0.1340  0.2699
    1SOL     OW 3285   1.599   3.873   1.606  0.3289  0.2309 -0.0443
    1SOL    HW2 3286   1.587   3.884   1.701  2.1194  0.7924  0.1222
    1SOL    HW3 3287   1.514   3.896   1.569 -0.3229  0.2327  1.4006
    1SOL    MW4 3288   1.586   3.877   1.614  0.4790  0.3052  0.1683
    1SOL     OW 3289   1.378   3.962   1.478  0.2571 -0.1477  0.0271
    1SOL    HW2 3290   1.357   4.053   1.499 -2.0333 -0.6820  0.1010
    1SOL    HW3 3291   1.396   3.963   1.384 -0.8742  0.1788 -0.1859
    1SOL    MW4 3292   1.378   3.974   1.469 -0.1943 -0.1752  0.0087
    1SOL     OW 3293   1.352   4.230   1.588 -0.0341  0.0277 -0.3662
    1SOL    HW2 3294   1.420   4.289   1.554 -0.0729  0.0329 -0.4334
    1SOL    HW3 3295   1.270   4.278   1.575  0.0803  0.5841  0.9401
    1SOL    MW4 3296   1.350   4.244   1.582 -0.0242  0.1016 -0.2027
    1SOL     OW 3297   1.564   4.374   1.471  0.6307 -0.3581 -0.1058
    1SOL    HW2 3298   1.646   4.337   1.505  1.1447  1.3224  0.5080
    1SOL    HW3 3299   1.558   4.461   1.510 -2.3790 -1.1173  1.2915
    1SOL    MW4 3300   1.574   4.380   1.480  0.3014 -0.2360  0.1595
    1SOL     OW 3301   2.005   4.663   1.571 -0.1437 -0.5290  0.6983
    1SOL    HW2 3302   2.005   4.638   1.663 -2.5908  0.7149  1.0727
    1SOL    HW3 3303   1.926   4.715   1.560  0.2497 -0.4271 -2.0557
    1SOL    MW4 3304   1.995   4.667   1.582 -0.4147 -0.3514  0.3843
    1SOL     OW 3305   1.770   0.124   1.477 -0.0814 -0.2325 -0.3250
    1SOL    HW2 3306   1.694   0.070   1.498 -0.4583  0.4878  0.1823
    1SOL    HW3 3307   1.786   0.107   1.384 -1.4253  0.3106 -0.6608
    1SOL    MW4 3308   1.762   0.114   1.468 -0.3086 -0.0658 -0.3026
    1SOL     OW 3309   1.803   0.380   1.579  0.3360  0.0219  0.0920
    1SOL    HW2 3310   1.867   0.424   1.523 -1.1287  0.3484 -1.3598
    1SOL    HW3 3311   1.799   0.291   1.543  1.1860 -0.4867  1.2298
    1SOL    MW4 3312   1.811   0.374   1.567  0.2550 -0.0021  0.0507
    1SOL     OW 3313   2.019   0.521   1.487  0.1731  0.2133 -0.4250
    1SOL    HW2 3314   2.100   0.485   1.523 -0.8171 -0.9503  0.6828
    1SOL    HW3 3315   2.019   0.613   1.515  0.2715 -0.2264  1.0458
    1SOL    MW4 3316   2.030   0.528   1.496  0.0556  0.0018 -0.0848
    1SOL     OW 3317   2.016   0.778   1.566  0.0263  0.2125 -0.1895
    1SOL    HW2 3318   2.020   0.770   1.661 -1.4280 -1.5362 -0.2490
    1SOL    HW3 3319   1.937   0.830   1.549 -0.4198 -0.5488 -0.4750
    1SOL    MW4 3320   2.006   0.784   1.576 -0.2246 -0.1187 -0.2350
    1SOL     OW 3321   1.793   0.920   1.510  0.9155  0.0077 -0.4785
    1SOL    HW2 3322   1.774   1.009   1.540  1.0415 -0.2803  0.4887
    1SOL    HW3 3323   1.737   0.864   1.565  0.6197 -0.4863 -1.2810
    1SOL    MW4 3324   1.783   0.924   1.521  0.8931 -0.0954 -0.4567
    1SOL     OW 3325   1.747   1.166   1.581 -0.1422 -0.3205  0.3052
    1SOL    HW2 3326   1.813   1.228   1.549 -2.4358  1.7983 -0.4655
    1SOL    HW3 3327   1.754   1.171   1.676 -0.0474  0.8638  0.2432
    1SOL    MW4 3328   1.757   1.175   1.589 -0.4323  0.1152  0.1954
    1SOL     OW 3329   1.995   1.293   1.485 -0.3592  0.0164  0.2665
    1SOL    HW2 3330   2.001   1.381   1.523 -1.2435  0.3747 -0.4277
    1SOL    HW3 3331   1.998   1.307   1.391 -0.3080 -0.7152  0.1590
    1SOL    MW4 3332   1.996   1.307   1.478 -0.4692 -0.0328  0.1607
    1SOL     OW 3333   2.034   1.558   1.576  0.2323 -0.2448 -0.2770
    1SOL    HW2 3334   2.110   1.602   1.539  0.0580 -0.7688 -1.3035
    1SOL    HW3 3335   1.959   1.608   1.543  0.1430  0.6936  1.3046
    1SOL    MW4 3336   2.034   1.570   1.567  0.1974 -0.1901 -0.2036
    1SOL     OW 3337   1.819   1.712   1.504 -0.3166  0.1733 -0.0613
    1SOL    HW2 3338   1.747   1.664   1.545  1.2037 -1.4509  0.8274
    1SOL    HW3 3339   1.801   1.707   1.410 -0.3874 -1.9150  0.0251
    1SOL    MW4 3340   1.807   1.705   1.497 -0.1253 -0.3165  0.0675
    1SOL     OW 3341   1.805   1.959   1.587 -0.3926  0.4101 -0.3165
    1SOL    HW2 3342   1.801   1.872   1.547 -0.0780 -0.2333  1.0185
    1SOL    HW3 3343   1.732   2.007   1.548 -0.8299 -0.5897 -0.7451
    1SOL    MW4 3344   1.795   1.954   1.576 -0.4088  0.1934 -0.1969
    1SOL     OW 3345   2.037   2.050   1.464  0.3229 -0.0465 -0.5994
    1SOL    HW2 3346   2.106   2.009   1.515  0.0106  0.0514 -0.0954
    1SOL    HW3 3347   1.957   2.036   1.514  0.0586  0.3153 -0.9059
    1SOL    MW4 3348   2.036   2.043   1.477  0.2468  0.0143 -0.5734
    1SOL     OW 3349   2.017   2.304   1.569  0.8400 -0.1124  0.0692
    1SOL    HW2 3350   2.023   2.299   1.664 -1.1633 -0.2931  0.2081
    1SOL    HW3 3351   2.042   2.216   1.539  2.5765  0.2779  0.3537
    1SOL    MW4 3352   2.021   2.292   1.577  0.8047 -0.0849  0.1252
    1SOL     OW 3353   1.835   2.459   1.436 -0.2626 -0.4051 -0.1951
    1SOL    HW2 3354   1.900   2.398   1.472 -0.9380 -1.3638 -0.5801
    1SOL    HW3 3355   1.853   2.460   1.342 -1.2804 -1.2667 -0.4113
    1SOL    MW4 3356   1.846   2.451   1.429 -0.4859 -0.6452 -0.2745
    1SOL     OW 3357   1.790   2.719   1.534  0.2966 -0.0504 -0.1481
    1SOL    HW2 3358   1.869   2.765   1.507  0.1012  0.3207 -0.0931
    1SOL    HW3 3359   1.799   2.631   1.496  1.1438 -0.3002  0.5940
    1SOL    MW4 3360   1.801   2.713   1.525  0.3827 -0.0346 -0.0429
    1SOL     OW 3361   2.061   2.836   1.517 -0.1219  0.2317 -0.0357
    1SOL    HW2 3362   2.050   2.929   1.537 -0.7138  0.0837  0.3329
    1SOL    HW3 3363   2.073   2.833   1.422  2.0855  0.8804  0.1851
    1SOL    MW4 3364   2.061   2.848   1.507  0.0911  0.2980  0.0420
    1SOL     OW 3365   2.013   3.115   1.590 -0.2431  0.3682  0.1286
    1SOL    HW2 3366   2.009   3.127   1.685 -0.3961  2.7379 -0.1469
    1SOL    HW3 3367   2.102   3.141   1.566 -0.3121  0.1060 -0.4117
    1SOL    MW4 3368   2.024   3.120   1.600 -0.2725  0.6464  0.0211
    1SOL     OW 3369   1.807   3.235   1.463 -0.4335  0.3759  0.4780
    1SOL    HW2 3370   1.817   3.314   1.516  0.4046  0.3919  0.3066
    1SOL    HW3 3371   1.873   3.175   1.498 -0.5071  0.0536  0.0626
    1SOL    MW4 3372   1.817   3.238   1.475 -0.3325  0.3352  0.4005
    1SOL     OW 3373   1.830   3.479   1.603 -0.6887 -0.0348 -0.0577
    1SOL    HW2 3374   1.829   3.480   1.698  1.0882  0.3355 -0.0272
    1SOL    HW3 3375   1.759   3.537   1.577  1.1045  2.7448  1.0616
    1SOL    MW4 3376   1.820   3.487   1.612 -0.2177  0.3810  0.0941
    1SOL     OW 3377   2.044   3.636   1.540  0.0649 -0.6553  0.3531
    1SOL    HW2 3378   2.122   3.587   1.568 -0.1190 -0.5478  1.0713
    1SOL    HW3 3379   1.971   3.580   1.565 -0.1190 -0.3498  0.4974
    1SOL    MW4 3380   2.045   3.622   1.547  0.0165 -0.6008  0.4669
    1SOL     OW 3381   2.003   3.894   1.617  0.0507 -0.2907  0.1177
    1SOL    HW2 3382   2.085   3.941   1.603 -0.0833  0.4836  1.8143
    1SOL    HW3 3383   2.018   3.808   1.579  1.6206 -0.1263  0.3344
    1SOL    MW4 3384   2.016   3.889   1.610  0.2401 -0.1669  0.3700
    1SOL     OW 3385   1.803   3.991   1.450 -0.2956  0.0737  0.3149
    1SOL    HW2 3386   1.875   3.947   1.497 -0.6048 -0.1136  0.6183
    1SOL    HW3 3387   1.724   3.952   1.487 -0.5331 -0.4584 -0.7471
    1SOL    MW4 3388   1.802   3.980   1.461 -0.3678 -0.0215  0.2149
    1SOL     OW 3389   1.785   4.246   1.581  0.1720 -0.2132  0.6196
    1SOL    HW2 3390   1.869   4.286   1.561 -0.0893  0.1232  0.1822
    1SOL    HW3 3391   1.785   4.163   1.532  0.1401 -0.0851  0.4009
    1SOL    MW4 3392   1.796   4.240   1.572  0.1334 -0.1521  0.5330
    1SOL     OW 3393   2.025   4.409   1.478  0.5608 -0.0599  0.0752
    1SOL    HW2 3394   2.104   4.384   1.526  0.4400  0.9208  0.7891
    1SOL    HW3 3395   2.017   4.504   1.491 -1.0395 -0.2300  0.4801
    1SOL    MW4 3396   2.034   4.418   1.486  0.3338  0.0477  0.2228
    1SOL     OW 3397   2.504   4.608   1.586  0.0467 -0.3362 -0.0991
    1SOL    HW2 3398   2.500   4.616   1.682 -0.2339  0.6443 -0.1856
    1SOL    HW3 3399   2.419   4.640   1.556  0.2780 -0.2709 -0.6940
    1SOL    MW4 3400   2.492   4.614   1.595  0.0401 -0.1979 -0.1891
    1SOL     OW 3401   2.268   0.077   1.487  0.1711  0.2948 -0.2637
    1SOL    HW2 3402   2.179   0.053   1.512  0.0932  1.7836  0.9834
    1SOL    HW3 3403   2.263   0.093   1.393 -0.6337 -0.6452 -0.3890
    1SOL    MW4 3404   2.255   0.076   1.478  0.0544  0.3672 -0.1156
    1SOL     OW 3405   2.230   0.361   1.596 -0.2684  0.2031  0.0889
    1SOL    HW2 3406   2.227   0.361   1.692  0.5387 -1.3776  0.1270
    1SOL    HW3 3407   2.248   0.270   1.572  3.2068  1.1985 -1.4193
    1SOL    MW4 3408   2.232   0.349   1.605  0.2966  0.1259 -0.1051
    1SOL     OW 3409   2.429   0.550   1.502  0.3828 -0.3216  0.4253
    1SOL    HW2 3410   2.506   0.494   1.514  1.4046  1.3350  1.7418
    1SOL    HW3 3411   2.357   0.499   1.538  1.2670 -0.9267  1.3846
    1SOL    MW4 3412   2.430   0.536   1.508  0.6344 -0.1828  0.7256
    1SOL     OW 3413   2.492   0.809   1.581  0.2979  0.5399 -0.2795
    1SOL    HW2 3414   2.418   0.858   1.544  1.3496  1.7962 -0.7679
    1SOL    HW3 3415   2.471   0.718   1.563 -0.8788  0.9133 -0.8945
    1SOL    MW4 3416   2.479   0.804   1.573  0.2813  0.7549 -0.4250
    1SOL     OW 3417   2.251   0.933   1.493 -0.0769  0.2955 -0.7709
    1SOL    HW2 3418   2.248   1.025   1.519  0.1319 -0.3870  1.8052
    1SOL    HW3 3419   2.170   0.896   1.527  1.2360 -1.1277  0.9281
    1SOL    MW4 3420   2.240   0.940   1.501  0.1240  0.0178 -0.2068
    1SOL     OW 3421   2.235   1.180   1.580 -0.1275  0.2228 -0.5409
    1SOL    HW2 3422   2.234   1.174   1.675  0.6031  0.2788 -0.5309
    1SOL    HW3 3423   2.151   1.220   1.557 -0.2201  0.3796  0.0864
    1SOL    MW4 3424   2.223   1.184   1.589 -0.0434  0.2508 -0.4568
    1SOL     OW 3425   2.471   1.274   1.487  0.0840  0.6183  0.2075
    1SOL    HW2 3426   2.392   1.240   1.528  0.6516  0.2830  1.0284
    1SOL    HW3 3427   2.463   1.251   1.395  1.2641 -3.3171  1.0216
    1SOL    MW4 3428   2.460   1.267   1.480  0.3147  0.0548  0.4233
    1SOL     OW 3429   2.472   1.542   1.590  0.0813 -0.3284 -0.0437
    1SOL    HW2 3430   2.546   1.583   1.545 -1.6265  0.0576 -2.5686
    1SOL    HW3 3431   2.487   1.448   1.581  0.7327 -0.2640  0.2982
    1SOL    MW4 3432   2.484   1.535   1.583 -0.0582 -0.2689 -0.3318
    1SOL     OW 3433   2.252   1.683   1.465 -0.5006  0.2350  0.2307
    1SOL    HW2 3434   2.333   1.642   1.498 -0.5123 -0.5301 -0.6613
    1SOL    HW3 3435   2.262   1.681   1.370 -1.5564  0.1697  0.1222
    1SOL    MW4 3436   2.264   1.677   1.457 -0.6413  0.1254  0.0987
    1SOL     OW 3437   2.235   1.915   1.600  0.1614 -0.1975 -0.2277
    1SOL    HW2 3438   2.221   1.899   1.693  0.3200  0.0285 -0.1656
    1SOL    HW3 3439   2.233   1.827   1.560  0.2042 -0.3035  0.0017
    1SOL    MW4 3440   2.233   1.901   1.607  0.1879 -0.1818 -0.1892
    1SOL     OW 3441   2.461   2.020   1.460 -0.0102  0.0535 -0.2500
    1SOL    HW2 3442   2.375   1.990   1.492 -0.0904  0.2750 -0.2584
    1SOL    HW3 3443   2.455   2.013   1.365 -0.3636  1.0027 -0.3029
    1SOL    MW4 3444   2.449   2.015   1.452 -0.0675  0.2079 -0.2581
    1SOL     OW 3445   2.478   2.287   1.570  0.2994  0.1033  0.0641
    1SOL    HW2 3446   2.477   2.294   1.666  0.3717 -0.4102  0.1019
    1SOL    HW3 3447   2.486   2.194   1.553  0.6204  0.2221 -0.4436
    1SOL    MW4 3448   2.479   2.276   1.581  0.3514  0.0513  0.0021
    1SOL     OW 3449   2.229   2.431   1.471  0.2561 -0.1372 -0.0584
    1SOL    HW2 3450   2.302   2.373   1.492  0.3899 -0.6639 -1.8674
    1SOL    HW3 3451   2.154   2.394   1.517  0.9151 -0.1809  0.9869
    1SOL    MW4 3452   2.229   2.419   1.480  0.3605 -0.2127 -0.1591
    1SOL     OW 3453   2.275   2.678   1.590 -0.4610  0.0916 -0.0126
    1SOL    HW2 3454   2.254   2.594   1.548 -0.3299 -0.2243  0.5524
    1SOL    HW3 3455   2.208   2.738   1.557 -0.6557 -0.2729 -0.2929
    1SOL    MW4 3456   2.263   2.675   1.580 -0.4692  0.0021  0.0249
    1SOL     OW 3457   2.509   2.798   1.468  0.1976 -0.0016  0.1492
    1SOL    HW2 3458   2.510   2.880   1.518  0.9940 -0.4492  0.8976
    1SOL    HW3 3459   2.434   2.750   1.503  0.4714 -0.1132  0.5913
    1SOL    MW4 3460   2.499   2.803   1.480  0.3388 -0.0756  0.3064
    1SOL     OW 3461   2.475   3.061   1.603  0.1830 -0.1401  0.1832
    1SOL    HW2 3462   2.549   3.114   1.570 -0.0494  1.2428  1.8194
    1SOL    HW3 3463   2.398   3.114   1.583 -0.2419 -0.8487 -0.0681
    1SOL    MW4 3464   2.475   3.075   1.596  0.0966 -0.0510  0.3659
    1SOL     OW 3465   2.278   3.238   1.516 -0.2558  0.4980  0.0973
    1SOL    HW2 3466   2.272   3.332   1.535 -0.0305  0.2726  1.3445
    1SOL    HW3 3467   2.299   3.234   1.423 -0.7050  1.6774 -0.0682
    1SOL    MW4 3468   2.280   3.250   1.506 -0.2851  0.6239  0.2401
    1SOL     OW 3469   2.296   3.498   1.601 -0.3438  0.1993  0.4050
    1SOL    HW2 3470   2.310   3.484   1.694  0.6318  1.3990  0.4509
    1SOL    HW3 3471   2.364   3.559   1.575 -1.3728  0.8529 -0.8343
    1SOL    MW4 3472   2.307   3.504   1.610 -0.3510  0.4437  0.2475
    1SOL     OW 3473   2.487   3.664   1.472  0.3711  0.1230  0.0737
    1SOL    HW2 3474   2.562   3.612   1.500 -0.0648  0.4048  1.8437
    1SOL    HW3 3475   2.509   3.754   1.497 -0.0102  0.3873 -0.5348
    1SOL    MW4 3476   2.500   3.669   1.479  0.2635  0.1953  0.2270
    1SOL     OW 3477   2.482   3.917   1.619 -0.6237 -0.3109 -0.3022
    1SOL    HW2 3478   2.472   3.903   1.713  0.0257  0.0439 -0.1799
    1SOL    HW3 3479   2.575   3.933   1.606 -0.6857 -0.5022 -1.0265
    1SOL    MW4 3480   2.493   3.917   1.630 -0.5462 -0.2894 -0.3817
    1SOL     OW 3481   2.228   4.033   1.541  0.0962 -0.7665  0.0235
    1SOL    HW2 3482   2.315   4.001   1.565  0.6360  0.7201  0.1028
    1SOL    HW3 3483   2.224   4.023   1.446  0.8929  0.4410 -0.1476
    1SOL    MW4 3484   2.239   4.028   1.532  0.2728 -0.4106  0.0114
    1SOL     OW 3485   2.264   4.292   1.591 -0.0301 -0.6548  0.2749
    1SOL    HW2 3486   2.351   4.307   1.554  0.4820 -1.6140  1.0800
    1SOL    HW3 3487   2.247   4.199   1.577 -0.9058 -0.4839  0.1742
    1SOL    MW4 3488   2.273   4.282   1.584 -0.0777 -0.7586  0.3678
    1SOL     OW 3489   2.522   4.359   1.458 -0.1363  0.1435 -0.1334
    1SOL    HW2 3490   2.504   4.450   1.482  1.5506  0.8197 -1.3681
    1SOL    HW3 3491   2.521   4.359   1.362 -0.4523 -1.2100 -0.1376
    1SOL    MW4 3492   2.519   4.371   1.448  0.0446  0.0539 -0.2970
    1SOL     OW 3493   2.928   4.666   1.551 -0.1160 -0.4291 -0.0003
    1SOL    HW2 3494   2.930   4.664   1.646  0.2263 -0.0673  0.0010
    1SOL    HW3 3495   2.849   4.717   1.530 -0.3933 -0.8249  0.0862
    1SOL    MW4 3496   2.918   4.673   1.561 -0.1073 -0.4336  0.0113
    1SOL     OW 3497   2.669   0.105   1.469 -0.0112 -0.2994  0.1269
    1SOL    HW2 3498   2.658   0.187   1.516 -0.6326 -0.4687  0.2798
    1SOL    HW3 3499   2.613   0.042   1.515  1.9139 -1.2901  1.1764
    1SOL    MW4 3500   2.660   0.107   1.481  0.1607 -0.4525  0.2855
    1SOL     OW 3501   2.657   0.379   1.557 -0.1563  0.4711  0.0571
    1SOL    HW2 3502   2.665   0.389   1.652 -2.3134  1.6071  0.1522
    1SOL    HW3 3503   2.744   0.397   1.524  0.0104  2.7370  1.6372
    1SOL    MW4 3504   2.669   0.382   1.565 -0.4189  0.9199  0.2780
    1SOL     OW 3505   2.905   0.442   1.467 -0.1966 -0.1078  0.0714
    1SOL    HW2 3506   2.905   0.534   1.494  0.9310 -0.3764  1.0130
    1SOL    HW3 3507   2.916   0.445   1.372  1.2156  0.7031  0.2459
    1SOL    MW4 3508   2.907   0.455   1.458  0.1385 -0.0362  0.2187
    1SOL     OW 3509   2.884   0.701   1.555  0.1775  0.2760 -0.3868
    1SOL    HW2 3510   2.893   0.727   1.646  2.0236 -0.3246 -0.3719
    1SOL    HW3 3511   2.839   0.774   1.513 -0.4441  0.6665  0.9322
    1SOL    MW4 3512   2.879   0.714   1.561  0.3393  0.2483 -0.2108
    1SOL     OW 3513   2.708   0.904   1.450 -0.0887  0.3081 -0.2584
    1SOL    HW2 3514   2.636   0.855   1.491 -0.8664  1.3422 -0.3635
    1SOL    HW3 3515   2.703   0.879   1.358 -0.9752  1.1550 -0.4513
    1SOL    MW4 3516   2.698   0.894   1.443 -0.3083  0.5562 -0.2977
    1SOL     OW 3517   2.684   1.124   1.603 -0.3250 -0.2063  0.2609
    1SOL    HW2 3518   2.684   1.046   1.548 -0.8078 -0.9164  1.2443
    1SOL    HW3 3519   2.605   1.172   1.577 -0.3040 -0.3060  0.0159
    1SOL    MW4 3520   2.673   1.120   1.593 -0.3860 -0.3132  0.3583
    1SOL     OW 3521   2.898   1.266   1.458  0.2769 -0.3522 -0.1894
    1SOL    HW2 3522   2.973   1.209   1.476 -0.4209 -0.8097  1.3251
    1SOL    HW3 3523   2.823   1.221   1.497 -0.5650  0.7615 -0.4971
    1SOL    MW4 3524   2.898   1.253   1.466  0.0739 -0.2657 -0.0302
    1SOL     OW 3525   2.910   1.501   1.625 -0.5153 -0.4999 -0.3591
    1SOL    HW2 3526   2.836   1.556   1.598 -0.9466 -1.2338 -0.6954
    1SOL    HW3 3527   2.899   1.421   1.574  0.1616 -0.8552  0.0585
    1SOL    MW4 3528   2.898   1.498   1.615 -0.4830 -0.6436 -0.3483
    1SOL     OW 3529   2.703   1.649   1.496  0.1698 -0.3136 -0.1180
    1SOL    HW2 3530   2.692   1.738   1.527  2.5737 -0.4192  1.1872
    1SOL    HW3 3531   2.721   1.658   1.403  0.6233  0.5840  0.0515
    1SOL    MW4 3532   2.704   1.662   1.488  0.5467 -0.2092  0.0765
    1SOL     OW 3533   2.693   1.914   1.557 -0.1220  0.0751 -0.5027
    1SOL    HW2 3534   2.689   1.917   1.652  0.2587 -1.0490 -0.4412
    1SOL    HW3 3535   2.620   1.968   1.528 -0.8684 -0.4180  0.4347
    1SOL    MW4 3536   2.683   1.922   1.565 -0.1705 -0.1383 -0.3709
    1SOL     OW 3537   2.902   2.028   1.419  0.5119 -0.0327  0.2023
    1SOL    HW2 3538   2.903   2.115   1.459 -1.1291 -0.1995  0.6366
    1SOL    HW3 3539   2.829   1.983   1.460  1.3536 -1.6395 -0.0072
    1SOL    MW4 3540   2.893   2.033   1.429  0.4065 -0.2668  0.2320
    1SOL     OW 3541   2.910   2.266   1.578 -0.0013  0.0424  0.3701
    1SOL    HW2 3542   2.912   2.272   1.673  0.1325 -0.9054  0.4274
    1SOL    HW3 3543   2.832   2.317   1.552 -0.0852  0.2268  0.9794
    1SOL    MW4 3544   2.900   2.274   1.587  0.0052 -0.0584  0.4581
    1SOL     OW 3545   2.716   2.427   1.476 -0.1536  0.0653 -0.0953
    1SOL    HW2 3546   2.712   2.516   1.511  0.0848  0.0541 -0.0396
    1SOL    HW3 3547   2.629   2.390   1.494  0.4434 -0.4535  1.8215
    1SOL    MW4 3548   2.704   2.434   1.483 -0.0434 -0.0045  0.1650
    1SOL     OW 3549   2.718   2.683   1.601  0.1981 -0.0932 -0.3790
    1SOL    HW2 3550   2.778   2.753   1.575  0.0541 -0.1059 -0.7505
    1SOL    HW3 3551   2.632   2.712   1.570 -0.2733  0.7044  1.5896
    1SOL    MW4 3552   2.714   2.696   1.594  0.1168  0.0105 -0.1684
    1SOL     OW 3553   2.907   2.888   1.522  0.0192  0.1305 -0.2772
    1SOL    HW2 3554   2.988   2.841   1.542 -0.5566 -1.3919 -1.4256
    1SOL    HW3 3555   2.915   2.971   1.569  0.7043 -1.4140  2.4376
    1SOL    MW4 3556   2.919   2.893   1.531  0.0339 -0.2742 -0.0705
    1SOL     OW 3557   2.928   3.159   1.590  0.4445  0.0278  0.4371
    1SOL    HW2 3558   2.932   3.157   1.686  0.4943 -0.5673  0.4286
    1SOL    HW3 3559   3.014   3.190   1.563  0.5213 -0.0586  0.5793
    1SOL    MW4 3560   2.940   3.163   1.599  0.4611 -0.0618  0.4545
    1SOL     OW 3561   2.680   3.226   1.496 -0.1121  0.0930  0.6795
    1SOL    HW2 3562   2.770   3.213   1.526  0.3087  1.4707  0.0580
    1SOL    HW3 3563   2.685   3.214   1.401 -0.1789  2.1270  0.3945
    1SOL    MW4 3564   2.693   3.222   1.488 -0.0653  0.5429  0.5600
    1SOL     OW 3565   2.693   3.509   1.568 -0.2405 -0.1768  0.0772
    1SOL    HW2 3566   2.682   3.513   1.663  2.0389 -1.4321  0.4334
    1SOL    HW3 3567   2.684   3.416   1.546 -2.0717  0.2578 -1.1342
    1SOL    MW4 3568   2.690   3.497   1.578 -0.1814 -0.2854 -0.0356
    1SOL     OW 3569   2.950   3.620   1.531 -0.1242 -0.0964  0.0942
    1SOL    HW2 3570   2.862   3.582   1.540  0.0225 -0.1671  1.4671
    1SOL    HW3 3571   2.969   3.615   1.438 -2.0430  0.9886 -0.3719
    1SOL    MW4 3572   2.941   3.614   1.520 -0.3579  0.0372  0.2137
    1SOL     OW 3573   2.970   3.873   1.603  0.0370 -0.1646  0.1975
    1SOL    HW2 3574   2.885   3.917   1.592  0.3355  0.7804  1.5477
    1SOL    HW3 3575   2.956   3.787   1.565 -1.5242 -0.0038  0.3384
    1SOL    MW4 3576   2.957   3.868   1.596 -0.1299 -0.0188  0.3943
    1SOL     OW 3577   2.749   3.997   1.527  0.3867  0.0067  0.2370
    1SOL    HW2 3578   2.750   4.084   1.567  1.3301  0.1250 -0.0364
    1SOL    HW3 3579   2.725   4.012   1.436  0.1248 -0.0610  0.2961
    1SOL    MW4 3580   2.746   4.010   1.521  0.4766  0.0138  0.2087
    1SOL     OW 3581   2.749   4.264   1.614 -0.3103 -0.0690 -0.6228
    1SOL    HW2 3582   2.821   4.319   1.585  0.1417 -1.4609 -2.2277
    1SOL    HW3 3583   2.675   4.289   1.558 -0.7523  0.5201  0.2147
    1SOL    MW4 3584   2.749   4.274   1.603 -0.3090 -0.1755 -0.7240
    1SOL     OW 3585   2.935   4.410   1.451 -0.0111  0.0952  0.0811
    1SOL    HW2 3586   2.934   4.502   1.475  1.7325  0.3653 -0.8112
    1SOL    HW3 3587   2.924   4.409   1.356 -1.2850 -0.6956  0.2155
    1SOL    MW4 3588   2.933   4.422   1.442  0.0510  0.0267 -0.0190
    1SOL     OW 3589   3.333   0.045   1.603  0.0874 -0.0446  0.3465
    1SOL    HW2 3590   3.411   0.087   1.568 -0.9324 -0.0198 -1.9916
    1SOL    HW3 3591   3.336  -0.045   1.569 -1.1819  0.1239 -0.2620
    1SOL    MW4 3592   3.344   0.039   1.594 -0.2148 -0.0191 -0.0423
    1SOL     OW 3593   3.137   0.103   1.426  0.5076 -0.3462 -0.1427
    1SOL    HW2 3594   3.220   0.078   1.467  0.5154  2.5510  1.7370
    1SOL    HW3 3595   3.070   0.070   1.484  0.4211 -0.0414 -0.0671
    1SOL    MW4 3596   3.139   0.096   1.439  0.4976  0.0763  0.1153
    1SOL     OW 3597   3.153   0.360   1.557  0.0952 -0.1861 -0.2779
    1SOL    HW2 3598   3.166   0.277   1.510  1.5322 -1.0653  1.6114
    1SOL    HW3 3599   3.070   0.393   1.524 -1.1829 -3.0525 -0.0842
    1SOL    MW4 3600   3.144   0.354   1.546  0.1161 -0.6803 -0.0031
    1SOL     OW 3601   3.372   0.514   1.464 -0.1470 -0.4509 -0.1250
    1SOL    HW2 3602   3.293   0.466   1.487 -0.3351 -0.2898 -0.4336
    1SOL    HW3 3603   3.384   0.499   1.370 -1.0679  1.3453 -0.5617
    1SOL    MW4 3604   3.364   0.506   1.454 -0.2935 -0.1926 -0.2232
    1SOL     OW 3605   3.363   0.791   1.572  0.5215 -0.2249  0.5576
    1SOL    HW2 3606   3.368   0.773   1.666  1.1264  0.2086  0.6147
    1SOL    HW3 3607   3.349   0.706   1.532 -0.7195 -0.2864  1.1158
    1SOL    MW4 3608   3.362   0.778   1.579  0.4377 -0.1758  0.6386
    1SOL     OW 3609   3.108   0.884   1.489  0.5307 -0.1768 -0.1526
    1SOL    HW2 3610   3.187   0.857   1.536  0.7164 -0.7571 -0.7928
    1SOL    HW3 3611   3.041   0.820   1.515  0.3956  0.0317  0.0156
    1SOL    MW4 3612   3.110   0.872   1.499  0.5376 -0.2258 -0.2148
    1SOL     OW 3613   3.128   1.136   1.600 -0.2184 -0.7663 -0.0639
    1SOL    HW2 3614   3.128   1.139   1.695  2.1215  0.4219 -0.0360
    1SOL    HW3 3615   3.114   1.044   1.578  1.1514 -1.3718  1.4876
    1SOL    MW4 3616   3.126   1.124   1.609  0.2711 -0.6894  0.1444
    1SOL     OW 3617   3.325   1.283   1.464  0.1596 -0.0927  0.5857
    1SOL    HW2 3618   3.400   1.240   1.504  0.3553 -0.8043 -0.5263
    1SOL    HW3 3619   3.249   1.245   1.508  0.3676 -0.8879  0.2577
    1SOL    MW4 3620   3.325   1.272   1.475  0.2127 -0.2915  0.3958
    1SOL     OW 3621   3.321   1.532   1.577 -0.2013 -0.3278 -0.0282
    1SOL    HW2 3622   3.327   1.512   1.670 -0.3212 -1.2932 -0.2164
    1SOL    HW3 3623   3.314   1.446   1.535 -0.3420  0.1089 -0.9080
    1SOL    MW4 3624   3.321   1.518   1.584 -0.2358 -0.3976 -0.1690
    1SOL     OW 3625   3.098   1.653   1.491 -0.3820  0.0913  0.0303
    1SOL    HW2 3626   3.187   1.621   1.504 -0.2015  0.7549  0.4660
    1SOL    HW3 3627   3.042   1.588   1.533 -0.1518 -0.7303 -0.9352
    1SOL    MW4 3628   3.102   1.640   1.498 -0.3278  0.0703 -0.0397
    1SOL     OW 3629   3.124   1.923   1.576 -0.2726 -0.0015 -0.1658
    1SOL    HW2 3630   3.108   1.833   1.549 -2.1753  0.0168  0.8151
    1SOL    HW3 3631   3.060   1.975   1.527  0.4609  0.7456 -0.3356
    1SOL    MW4 3632   3.113   1.918   1.566 -0.4268  0.0994 -0.0589
    1SOL     OW 3633   3.338   2.051   1.451  0.1937 -0.3431  0.1117
    1SOL    HW2 3634   3.263   2.003   1.486 -0.0126 -0.2894 -0.2608
    1SOL    HW3 3635   3.334   2.038   1.357  0.6093 -0.2748  0.0831
    1SOL    MW4 3636   3.328   2.043   1.443  0.2215 -0.3273  0.0588
    1SOL     OW 3637   3.328   2.311   1.565  0.1054  0.2213  0.3112
    1SOL    HW2 3638   3.393   2.352   1.508 -0.4338 -0.1207 -0.5659
    1SOL    HW3 3639   3.317   2.223   1.529 -1.0302  0.3660  0.2907
    1SOL    MW4 3640   3.335   2.305   1.553 -0.1154  0.1953  0.1926
    1SOL     OW 3641   3.099   2.438   1.460 -0.3174 -0.2926  0.1391
    1SOL    HW2 3642   3.176   2.393   1.497  0.0216  0.2467  0.0903
    1SOL    HW3 3643   3.025   2.388   1.494 -0.0392  0.6631  2.2065
    1SOL    MW4 3644   3.100   2.425   1.469 -0.2363 -0.0954  0.4054
    1SOL     OW 3645   3.110   2.699   1.594 -0.2669  0.2961  0.3444
    1SOL    HW2 3646   3.194   2.743   1.578 -1.3447  2.1340 -0.3137
    1SOL    HW3 3647   3.116   2.619   1.541  1.4479 -0.0646  1.0439
    1SOL    MW4 3648   3.122   2.694   1.585 -0.1829  0.4911  0.3499
    1SOL     OW 3649   3.363   2.814   1.516  0.0719 -0.1648  0.3342
    1SOL    HW2 3650   3.364   2.905   1.547 -1.0256 -0.0421  0.0303
    1SOL    HW3 3651   3.379   2.821   1.422  2.6510 -0.4849  0.7006
    1SOL    MW4 3652   3.365   2.827   1.507  0.2673 -0.1907  0.3425
    1SOL     OW 3653   3.355   3.066   1.627 -0.1328 -0.0383  0.1696
    1SOL    HW2 3654   3.375   3.057   1.720 -1.0640 -0.8342  0.3100
    1SOL    HW3 3655   3.427   3.117   1.591  1.3198 -1.5385  0.9254
    1SOL    MW4 3656   3.367   3.072   1.635 -0.0639 -0.3417  0.2879
    1SOL     OW 3657   3.172   3.236   1.497 -0.0874  0.3689 -0.0562
    1SOL    HW2 3658   3.179   3.324   1.534  0.9880  0.9036 -1.4684
    1SOL    HW3 3659   3.234   3.183   1.548  0.4822  0.8150 -0.2837
    1SOL    MW4 3660   3.181   3.240   1.509  0.1297  0.4985 -0.2725
    1SOL     OW 3661   3.185   3.487   1.614  0.2536 -0.1380  0.8068
    1SOL    HW2 3662   3.169   3.461   1.705 -0.0223  0.2697  0.8731
    1SOL    HW3 3663   3.106   3.534   1.588  0.3572 -0.1980  0.3750
    1SOL    MW4 3664   3.172   3.489   1.623  0.2306 -0.0918  0.7585
    1SOL     OW 3665   3.417   3.622   1.524 -0.1509 -0.1423 -0.5783
    1SOL    HW2 3666   3.496   3.580   1.559 -0.1463  0.9801  0.8101
    1SOL    HW3 3667   3.345   3.567   1.553  0.0936 -1.1002 -1.7417
    1SOL    MW4 3668   3.418   3.610   1.532 -0.1180 -0.1206 -0.5484
    1SOL     OW 3669   3.388   3.895   1.562 -0.2576 -0.1657 -0.2760
    1SOL    HW2 3670   3.312   3.929   1.515  0.6332  0.9063 -0.9727
    1SOL    HW3 3671   3.380   3.800   1.557 -0.2897 -0.0713 -2.4178
    1SOL    MW4 3672   3.377   3.887   1.555 -0.1445 -0.0117 -0.6504
    1SOL     OW 3673   3.162   4.020   1.455  0.3091 -0.0601  0.1594
    1SOL    HW2 3674   3.158   4.113   1.476  0.8534 -0.2133  0.9585
    1SOL    HW3 3675   3.083   3.983   1.495  1.8292 -0.5202  2.8864
    1SOL    MW4 3676   3.151   4.027   1.463  0.5813 -0.1416  0.6247
    1SOL     OW 3677   3.143   4.272   1.545 -0.3047 -0.4658  0.3269
    1SOL    HW2 3678   3.141   4.276   1.640  1.8514  1.0788  0.3563
    1SOL    HW3 3679   3.064   4.319   1.517 -0.7738 -0.6398  1.3337
    1SOL    MW4 3680   3.132   4.279   1.554 -0.0823 -0.2851  0.4636
    1SOL     OW 3681   3.362   4.443   1.510 -0.0330 -0.4084 -0.4749
    1SOL    HW2 3682   3.298   4.385   1.552  1.0674 -0.6692  0.8879
    1SOL    HW3 3683   3.355   4.423   1.417 -1.2175 -1.1569 -0.2333
    1SOL    MW4 3684   3.352   4.433   1.504 -0.0443 -0.5417 -0.2631
    1SOL     OW 3685   3.789   0.011   1.583 -0.4524 -0.5870 -0.2460
    1SOL    HW2 3686   3.819  -0.012   1.671 -0.7389  1.6227  0.4551
    1SOL    HW3 3687   3.869   0.039   1.537 -0.7351  1.1285  0.2681
    1SOL    MW4 3688   3.804   0.012   1.588 -0.5279 -0.0691 -0.0856
    1SOL     OW 3689   3.577   0.136   1.463 -0.4553 -0.3698  0.1797
    1SOL    HW2 3690   3.661   0.107   1.498  0.3245  1.8096  0.1951
    1SOL    HW3 3691   3.583   0.116   1.369  0.4603  0.5932  0.0203
    1SOL    MW4 3692   3.589   0.130   1.455 -0.2317  0.0448  0.1607
    1SOL     OW 3693   3.568   0.371   1.593 -0.0718  0.1660  0.2224
    1SOL    HW2 3694   3.579   0.299   1.531  2.1361 -1.1985  2.1079
    1SOL    HW3 3695   3.499   0.425   1.555 -0.0438 -1.5991 -2.4836
    1SOL    MW4 3696   3.560   0.369   1.580  0.2232 -0.2470  0.1142
    1SOL     OW 3697   3.789   0.519   1.488 -0.4739  0.1737 -0.2982
    1SOL    HW2 3698   3.714   0.470   1.520  0.6741 -1.8257 -0.5402
    1SOL    HW3 3699   3.779   0.519   1.392  0.0037 -0.3790 -0.3487
    1SOL    MW4 3700   3.778   0.513   1.479 -0.2594 -0.1630 -0.3366
    1SOL     OW 3701   3.838   0.776   1.605 -0.6837  0.0597  0.1825
    1SOL    HW2 3702   3.764   0.817   1.560 -1.0091 -0.3646  0.3195
    1SOL    HW3 3703   3.827   0.683   1.588  1.1480  0.1715 -1.7546
    1SOL    MW4 3704   3.826   0.769   1.597 -0.4849  0.0185 -0.0550
    1SOL     OW 3705   3.600   0.880   1.480  0.4766  0.2497  0.0177
    1SOL    HW2 3706   3.516   0.844   1.507  0.6387  0.4899  0.8606
    1SOL    HW3 3707   3.590   0.900   1.387 -0.7326  1.2253  0.3475
    1SOL    MW4 3708   3.588   0.878   1.472  0.3386  0.4100  0.1725
    1SOL     OW 3709   3.617   1.161   1.577 -0.2628 -0.1087  0.0573
    1SOL    HW2 3710   3.702   1.190   1.544  0.1308 -0.5354  0.6695
    1SOL    HW3 3711   3.603   1.076   1.536 -0.9961  0.5328 -1.0375
    1SOL    MW4 3712   3.626   1.153   1.568 -0.3076 -0.0803 -0.0063
    1SOL     OW 3713   3.830   1.301   1.469 -0.0413 -0.5947 -0.0716
    1SOL    HW2 3714   3.898   1.248   1.510 -1.7138 -1.6470  1.4077
    1SOL    HW3 3715   3.835   1.386   1.513  0.7176 -0.4761 -0.3917
    1SOL    MW4 3716   3.839   1.305   1.480 -0.1621 -0.7178  0.0813
    1SOL     OW 3717   3.805   1.568   1.569 -0.0015 -0.0511  0.0283
    1SOL    HW2 3718   3.778   1.559   1.661 -2.1156 -4.0360 -0.8297
    1SOL    HW3 3719   3.728   1.603   1.525  0.1166 -0.6239 -0.6368
    1SOL    MW4 3720   3.791   1.571   1.576 -0.2649 -0.6524 -0.1726
    1SOL     OW 3721   3.544   1.640   1.473  0.0032  0.1365 -0.0622
    1SOL    HW2 3722   3.465   1.601   1.511  0.2759 -0.1131  0.2415
    1SOL    HW3 3723   3.536   1.623   1.379  0.6660 -1.6103  0.1919
    1SOL    MW4 3724   3.532   1.633   1.466  0.1268 -0.1268  0.0112
    1SOL     OW 3725   3.543   1.915   1.576  0.1184  0.2998 -0.2394
    1SOL    HW2 3726   3.524   1.825   1.549 -1.2862  0.1235  1.2464
    1SOL    HW3 3727   3.486   1.968   1.521  0.8332  0.2714 -1.0088
    1SOL    MW4 3728   3.533   1.910   1.565  0.0272  0.2728 -0.1448
    1SOL     OW 3729   3.798   2.037   1.469 -0.2976 -0.0146 -0.3488
    1SOL    HW2 3730   3.792   2.125   1.507 -0.3064 -0.2338  0.1645
    1SOL    HW3 3731   3.731   1.986   1.515  0.2839 -0.5081 -0.0363
    1SOL    MW4 3732   3.789   2.042   1.480 -0.2220 -0.1087 -0.2398
    1SOL     OW 3733   3.782   2.284   1.570 -0.0778 -0.0694  0.1815
    1SOL    HW2 3734   3.786   2.279   1.666  0.0923  1.2128  0.2419
    1SOL    HW3 3735   3.868   2.317   1.544  0.0689 -0.9261 -0.4599
    1SOL    MW4 3736   3.794   2.287   1.580 -0.0358 -0.0134  0.1048
    1SOL     OW 3737   3.548   2.413   1.454  0.0756 -0.1419  0.3127
    1SOL    HW2 3738   3.551   2.496   1.501  0.4890 -0.8364  1.5071
    1SOL    HW3 3739   3.616   2.359   1.495 -0.7694 -1.3715  0.1116
    1SOL    MW4 3740   3.558   2.417   1.465  0.0186 -0.3960  0.4439
    1SOL     OW 3741   3.590   2.655   1.587  0.6386  0.0708  0.2676
    1SOL    HW2 3742   3.582   2.662   1.682 -0.9566 -0.5986  0.2060
    1SOL    HW3 3743   3.517   2.708   1.554  0.0245 -1.2487 -0.5360
    1SOL    MW4 3744   3.579   2.663   1.595  0.3471 -0.1917  0.1535
    1SOL     OW 3745   3.802   2.794   1.479 -0.7151 -0.2107  0.1304
    1SOL    HW2 3746   3.887   2.757   1.505 -0.6602 -0.2417 -0.0916
    1SOL    HW3 3747   3.738   2.737   1.521 -0.6319 -0.6653 -0.3531
    1SOL    MW4 3748   3.805   2.781   1.488 -0.6964 -0.2747  0.0374
    1SOL     OW 3749   3.814   3.066   1.589  0.3544 -0.0809 -0.1103
    1SOL    HW2 3750   3.883   3.121   1.552  0.2214 -0.2592 -0.6264
    1SOL    HW3 3751   3.843   2.976   1.572  1.1803 -0.2171  1.8149
    1SOL    MW4 3752   3.827   3.061   1.582  0.4458 -0.1228  0.0756
    1SOL     OW 3753   3.574   3.184   1.520  0.0163  0.2737 -0.1260
    1SOL    HW2 3754   3.649   3.134   1.553 -0.7491 -0.3526  0.7082
    1SOL    HW3 3755   3.587   3.188   1.425  0.9567 -0.0704 -0.0144
    1SOL    MW4 3756   3.586   3.178   1.512  0.0396  0.1457 -0.0013
    1SOL     OW 3757   3.638   3.440   1.619  0.0180 -0.2000 -0.2235
    1SOL    HW2 3758   3.718   3.474   1.580  0.2696 -0.2283  0.2685
    1SOL    HW3 3759   3.621   3.358   1.571  0.2881 -0.2021 -0.3165
    1SOL    MW4 3760   3.646   3.433   1.607  0.0868 -0.2043 -0.1708
    1SOL     OW 3761   3.826   3.606   1.481 -0.0735 -0.0483  0.5590
    1SOL    HW2 3762   3.909   3.573   1.516 -0.3030 -0.0133  1.1281
    1SOL    HW3 3763   3.832   3.701   1.493 -1.1635 -0.2311  2.6942
    1SOL    MW4 3764   3.838   3.614   1.487 -0.2475 -0.0677  0.9159
    1SOL     OW 3765   3.811   3.889   1.534 -0.1023  0.0137 -0.2003
    1SOL    HW2 3766   3.887   3.944   1.514 -0.1884  0.3880  0.5034
    1SOL    HW3 3767   3.744   3.917   1.472 -0.1987  0.8020  0.2696
    1SOL    MW4 3768   3.812   3.900   1.523 -0.1259  0.1671 -0.0454
    1SOL     OW 3769   3.590   4.032   1.415 -0.0385 -0.5744  0.2843
    1SOL    HW2 3770   3.601   4.119   1.455 -1.5883 -0.3666  0.2808
    1SOL    HW3 3771   3.519   3.992   1.465  1.5131 -2.3624  1.1221
    1SOL    MW4 3772   3.582   4.038   1.427 -0.0379 -0.7825  0.3945
    1SOL     OW 3773   3.610   4.284   1.536 -0.0786 -0.3673 -0.3153
    1SOL    HW2 3774   3.608   4.249   1.625  0.9867 -0.0927 -0.1776
    1SOL    HW3 3775   3.535   4.343   1.531  0.8407  0.9282  0.9496
    1SOL    MW4 3776   3.600   4.287   1.547  0.1836 -0.1597 -0.1303
    1SOL     OW 3777   3.829   4.417   1.493  0.2221  0.5254  0.1662
    1SOL    HW2 3778   3.745   4.375   1.513  1.4326 -1.4737  1.1786
    1SOL    HW3 3779   3.820   4.506   1.528 -1.0803 -0.0070  1.2428
    1SOL    MW4 3780   3.817   4.423   1.500  0.2098  0.1912  0.4419
    1SOL     OW 3781   4.260   4.665   1.610 -0.3886  0.5996 -0.1115
    1SOL    HW2 3782   4.246   4.657   1.704 -0.9047  2.0459 -0.0608
    1SOL    HW3 3783   4.267   4.574   1.579  0.7077  0.1315  1.4409
    1SOL    MW4 3784   4.259   4.652   1.618 -0.3119  0.7286  0.1001
    1SOL     OW 3785   4.046   0.108   1.490 -0.5932  0.0109  0.4292
    1SOL    HW2 3786   4.051   0.202   1.505 -1.7653  0.2539 -0.6177
    1SOL    HW3 3787   4.128   0.073   1.526 -0.6637  1.2807  1.8715
    1SOL    MW4 3788   4.057   0.116   1.497 -0.7572  0.2105  0.4815
    1SOL     OW 3789   4.035   0.387   1.532  0.4337  0.0735 -0.1868
    1SOL    HW2 3790   4.022   0.384   1.626 -0.3189 -0.6297 -0.2983
    1SOL    HW3 3791   3.960   0.437   1.499 -0.4246 -1.4141 -0.5764
    1SOL    MW4 3792   4.023   0.393   1.540  0.2208 -0.2156 -0.2528
    1SOL     OW 3793   4.274   0.505   1.456  0.3392 -0.3163 -0.5942
    1SOL    HW2 3794   4.199   0.460   1.495 -0.2478  1.0604 -0.0972
    1SOL    HW3 3795   4.350   0.466   1.499 -0.2691  0.7420  1.5584
    1SOL    MW4 3796   4.274   0.494   1.467  0.1812  0.0049 -0.2445
    1SOL     OW 3797   4.309   0.748   1.585  0.2603  0.0791 -0.1994
    1SOL    HW2 3798   4.295   0.660   1.550 -0.5579  0.2963 -0.4247
    1SOL    HW3 3799   4.381   0.783   1.532  0.7300 -0.5246  0.0285
    1SOL    MW4 3800   4.317   0.741   1.574  0.2146  0.0281 -0.1990
    1SOL     OW 3801   4.070   0.911   1.476 -0.3512  0.4477 -0.7107
    1SOL    HW2 3802   4.145   0.857   1.501 -0.7254 -0.7804 -2.1825
    1SOL    HW3 3803   3.997   0.875   1.526  0.0070  1.5863  0.6545
    1SOL    MW4 3804   4.070   0.899   1.486 -0.3529  0.4359 -0.7248
    1SOL     OW 3805   4.051   1.163   1.613 -0.3662  0.0758  0.3059
    1SOL    HW2 3806   4.044   1.120   1.698  0.6665 -1.3683 -0.3156
    1SOL    HW3 3807   4.060   1.090   1.551  0.7314  1.1823 -0.8491
    1SOL    MW4 3808   4.051   1.148   1.616 -0.0854  0.0311  0.0714
    1SOL     OW 3809   4.289   1.278   1.530  0.1639 -0.4308 -0.7254
    1SOL    HW2 3810   4.212   1.233   1.567  0.3740 -0.6834 -0.5930
    1SOL    HW3 3811   4.362   1.219   1.550  0.6981  0.7576  0.9112
    1SOL    MW4 3812   4.288   1.264   1.538  0.2618 -0.3074 -0.4920
    1SOL     OW 3813   4.246   1.539   1.610  0.1268  0.0611  0.3972
    1SOL    HW2 3814   4.257   1.444   1.598 -0.5030 -0.3001  2.4725
    1SOL    HW3 3815   4.328   1.577   1.577  0.2943 -1.1720 -0.6589
    1SOL    MW4 3816   4.258   1.531   1.604  0.0663 -0.1493  0.5316
    1SOL     OW 3817   4.034   1.685   1.502  0.2727  0.3728  0.3254
    1SOL    HW2 3818   4.094   1.626   1.547  0.2441  0.7309  0.8379
    1SOL    HW3 3819   3.949   1.643   1.510  0.4420 -0.1146 -0.3651
    1SOL    MW4 3820   4.031   1.671   1.509  0.2909  0.3557  0.3020
    1SOL     OW 3821   4.040   1.934   1.606  0.4153  0.0844 -0.4218
    1SOL    HW2 3822   4.039   1.845   1.573 -1.9471 -0.7683  1.8020
    1SOL    HW3 3823   3.964   1.976   1.566  1.9700  1.3780 -2.0875
    1SOL    MW4 3824   4.030   1.928   1.597  0.3090  0.1426 -0.3482
    1SOL     OW 3825   4.274   2.066   1.493  0.1207 -0.0365  0.2657
    1SOL    HW2 3826   4.199   2.023   1.534  0.6931 -1.8016 -0.5221
    1SOL    HW3 3827   4.254   2.066   1.400  0.2641  1.1545  0.2239
    1SOL    MW4 3828   4.262   2.060   1.486  0.2151 -0.1123  0.1563
    1SOL     OW 3829   4.270   2.320   1.574 -0.1820 -0.6411 -0.3634
    1SOL    HW2 3830   4.273   2.302   1.668  1.9223  0.1574 -0.2613
    1SOL    HW3 3831   4.283   2.235   1.533  0.4459 -0.7658  0.0787
    1SOL    MW4 3832   4.272   2.307   1.581  0.1783 -0.5522 -0.2917
    1SOL     OW 3833   4.024   2.407   1.481  0.0275  0.1269 -0.1411
    1SOL    HW2 3834   4.024   2.496   1.518 -0.2485 -0.3208  0.9386
    1SOL    HW3 3835   4.103   2.366   1.516 -0.1259 -0.2314 -0.2173
    1SOL    MW4 3836   4.034   2.414   1.491 -0.0286  0.0205 -0.0087
    1SOL     OW 3837   4.022   2.678   1.593 -0.2692  0.7023 -0.0110
    1SOL    HW2 3838   4.017   2.692   1.687 -0.4245  1.6700 -0.1546
    1SOL    HW3 3839   4.096   2.733   1.565 -0.0247  0.1771 -0.4086
    1SOL    MW4 3840   4.031   2.688   1.602 -0.2575  0.7608 -0.0824
    1SOL     OW 3841   4.242   2.844   1.545  0.2567 -0.2147  0.3549
    1SOL    HW2 3842   4.248   2.936   1.571 -1.2957  0.1602 -0.5968
    1SOL    HW3 3843   4.264   2.843   1.452  0.9075 -0.9043  0.5059
    1SOL    MW4 3844   4.246   2.856   1.536  0.1378 -0.2561  0.2493
    1SOL     OW 3845   4.249   3.107   1.635 -0.0146  0.0285  0.1184
    1SOL    HW2 3846   4.253   3.108   1.730  0.3268 -0.5752  0.1068
    1SOL    HW3 3847   4.335   3.140   1.607 -0.1474  0.2951  0.0161
    1SOL    MW4 3848   4.261   3.112   1.644  0.0134 -0.0160  0.1034
    1SOL     OW 3849   4.026   3.209   1.486 -0.3534  0.5213  0.1100
    1SOL    HW2 3850   4.034   3.298   1.522  0.3147  0.1062  1.0135
    1SOL    HW3 3851   4.099   3.161   1.526  0.8013  0.2011 -2.2772
    1SOL    MW4 3852   4.037   3.215   1.496 -0.1130  0.4241 -0.0856
    1SOL     OW 3853   4.044   3.468   1.589  0.4692 -0.1566 -0.3195
    1SOL    HW2 3854   4.052   3.464   1.684 -0.4712 -0.6882 -0.2623
    1SOL    HW3 3855   4.128   3.503   1.559  0.0358  1.9819  0.8583
    1SOL    MW4 3856   4.056   3.472   1.597  0.2885  0.0553 -0.1565
    1SOL     OW 3857   4.291   3.604   1.497 -0.0031  0.4203  0.1164
    1SOL    HW2 3858   4.283   3.695   1.524  0.5772  1.3673 -2.8043
    1SOL    HW3 3859   4.262   3.603   1.406  1.6641 -1.9966 -0.4156
    1SOL    MW4 3860   4.286   3.616   1.489  0.2937  0.2265 -0.3390
    1SOL     OW 3861   4.269   3.859   1.574 -0.1238  0.6692  0.4729
    1SOL    HW2 3862   4.197   3.918   1.552 -0.2303  1.1214  1.9404
    1SOL    HW3 3863   4.348   3.903   1.542 -0.3905  0.7455 -0.0696
    1SOL    MW4 3864   4.270   3.873   1.567 -0.1736  0.7389  0.5950
    1SOL     OW 3865   4.052   3.996   1.484  0.0950  0.1458 -0.1415
    1SOL    HW2 3866   4.039   4.089   1.505  0.7135  0.0973  0.5076
    1SOL    HW3 3867   4.072   3.995   1.390  1.2214  0.7996  0.0799
    1SOL    MW4 3868   4.053   4.008   1.474  0.3252  0.2255 -0.0267
    1SOL     OW 3869   4.036   4.272   1.584 -0.1813 -0.0192 -0.3204
    1SOL    HW2 3870   4.038   4.262   1.679  2.6919  1.0810 -0.2066
    1SOL    HW3 3871   3.956   4.322   1.567 -0.9717 -0.6215  1.4387
    1SOL    MW4 3872   4.026   4.277   1.594  0.0935  0.0467 -0.0734
    1SOL     OW 3873   4.251   4.428   1.479 -0.0343 -0.3364  0.2777
    1SOL    HW2 3874   4.178   4.372   1.506  0.9016 -0.5860  2.3713
    1SOL    HW3 3875   4.245   4.430   1.384 -2.4974 -0.7322  0.3826
    1SOL    MW4 3876   4.241   4.421   1.470 -0.2360 -0.4215  0.5678
    1SOL     OW 3877   0.233   4.612   1.831  0.1153  0.6416  0.1373
    1SOL    HW2 3878   0.298   4.670   1.872 -0.8757  1.5255  0.5004
    1SOL    HW3 3879   0.222   4.648   1.743  0.2008  0.4252  0.0383
    1SOL    MW4 3880   0.240   4.625   1.825 -0.0042  0.7300  0.1720
    1SOL     OW 3881   0.010   0.049   1.972  0.0927 -0.2766  0.3605
    1SOL    HW2 3882   0.021   0.140   1.943 -3.4232 -0.8031 -3.0398
    1SOL    HW3 3883   0.086   0.003   1.935  0.6577  0.8564  0.0935
    1SOL    MW4 3884   0.022   0.055   1.963 -0.2966 -0.1966 -0.1235
    1SOL     OW 3885   0.021   0.301   1.857 -0.2772  0.0883  0.2966
    1SOL    HW2 3886  -0.069   0.327   1.873 -0.0107  1.2993 -0.1184
    1SOL    HW3 3887   0.074   0.371   1.895  0.4859 -0.4920  0.3236
    1SOL    MW4 3888   0.016   0.313   1.864 -0.1413  0.1715  0.2455
    1SOL     OW 3889   0.219   0.496   1.946  0.2624  0.0309 -0.0530
    1SOL    HW2 3890   0.294   0.457   1.902  1.2188  1.0090  0.6919
    1SOL    HW3 3891   0.231   0.590   1.935 -0.2441  0.2352  1.0650
    1SOL    MW4 3892   0.230   0.503   1.939  0.3218  0.1870  0.1929
    1SOL     OW 3893   0.223   0.758   1.898 -0.0604  0.0596  0.0972
    1SOL    HW2 3894   0.302   0.800   1.931 -0.4987  1.6896 -0.8768
    1SOL    HW3 3895   0.234   0.757   1.803 -0.2187 -1.7362  0.0814
    1SOL    MW4 3896   0.235   0.764   1.890 -0.1391  0.0377 -0.0334
    1SOL     OW 3897   4.467   0.862   1.961  0.5719  0.1542  0.5354
    1SOL    HW2 3898   4.393   0.814   1.925  0.3030  1.5432 -0.8094
    1SOL    HW3 3899   4.545   0.816   1.929  0.3164  0.4367 -0.4886
    1SOL    MW4 3900   4.468   0.850   1.952  0.5021  0.3747  0.2228
    1SOL     OW 3901   4.474   1.127   1.875 -0.3198 -0.3855  0.5426
    1SOL    HW2 3902   4.402   1.176   1.915 -0.0965 -0.3893  0.9517
    1SOL    HW3 3903   4.482   1.048   1.928  0.3651 -0.1139  0.8599
    1SOL    MW4 3904   4.466   1.123   1.887 -0.1993 -0.3502  0.6384
    1SOL     OW 3905   0.229   1.272   1.987  0.0920  1.0189  0.3388
    1SOL    HW2 3906   0.227   1.366   1.972 -1.6110  1.2220  1.7268
    1SOL    HW3 3907   0.142   1.241   1.960  0.2055  0.0364  1.0530
    1SOL    MW4 3908   0.217   1.280   1.982 -0.1177  0.9161  0.6162
    1SOL     OW 3909   0.229   1.539   1.920 -0.6918 -0.0587  0.3207
    1SOL    HW2 3910   0.301   1.600   1.937 -0.7046  0.0096  0.1349
    1SOL    HW3 3911   0.150   1.586   1.948 -0.8199  0.4538 -0.8765
    1SOL    MW4 3912   0.228   1.553   1.926 -0.7104  0.0180  0.1382
    1SOL     OW 3913   0.012   1.675   2.015  0.1313 -0.2660 -0.1770
    1SOL    HW2 3914   0.008   1.669   2.110 -1.5039 -0.1511 -0.2273
    1SOL    HW3 3915  -0.056   1.615   1.984  0.4905 -0.1213 -1.2677
    1SOL    MW4 3916   0.002   1.666   2.023 -0.0370 -0.2319 -0.3273
    1SOL     OW 3917   0.026   1.943   1.884  0.5624 -0.5323 -0.3102
    1SOL    HW2 3918  -0.051   1.988   1.918  0.6611 -0.4378 -0.2056
    1SOL    HW3 3919   0.018   1.853   1.915  0.2028 -0.6610 -0.7910
    1SOL    MW4 3920   0.015   1.937   1.893  0.5280 -0.5367 -0.3599
    1SOL     OW 3921   0.248   2.076   1.967 -0.2903 -0.3516 -0.4694
    1SOL    HW2 3922   0.247   2.159   1.919 -0.7769 -0.1243 -0.0803
    1SOL    HW3 3923   0.179   2.024   1.927 -0.0787 -0.5145 -0.6215
    1SOL    MW4 3924   0.239   2.080   1.955 -0.3266 -0.3428 -0.4380
    1SOL     OW 3925   0.269   2.314   1.840 -0.0799 -0.2598  0.0709
    1SOL    HW2 3926   0.348   2.355   1.876 -0.4443  0.2039  0.3555
    1SOL    HW3 3927   0.197   2.359   1.884 -0.5367  0.3578 -1.2549
    1SOL    MW4 3928   0.270   2.326   1.850 -0.1883 -0.1171 -0.0665
    1SOL     OW 3929   0.040   2.402   1.949  0.3231 -0.0444  0.1553
    1SOL    HW2 3930   0.030   2.408   2.044  2.1364  0.3807  0.3408
    1SOL    HW3 3931   0.030   2.492   1.918  2.9750  0.3480  0.3172
    1SOL    MW4 3932   0.037   2.414   1.957  0.9122  0.0634  0.2011
    1SOL     OW 3933   4.484   2.663   1.879  0.5872  0.2303  0.1179
    1SOL    HW2 3934   4.426   2.722   1.928  0.7965  0.5642 -0.0363
    1SOL    HW3 3935   4.476   2.692   1.788  0.9091  0.1986  0.0812
    1SOL    MW4 3936   4.475   2.674   1.873  0.6571  0.2701  0.0929
    1SOL     OW 3937   0.222   2.804   1.976  0.1329 -0.2656  0.2509
    1SOL    HW2 3938   0.192   2.894   1.962  0.6650  0.1918  1.9204
    1SOL    HW3 3939   0.148   2.750   1.948 -0.5161  0.7047  0.0413
    1SOL    MW4 3940   0.209   2.809   1.970  0.1175 -0.0772  0.4435
    1SOL     OW 3941   0.226   3.069   1.922  0.1342 -0.2937 -0.0866
    1SOL    HW2 3942   0.310   3.097   1.960 -0.3111  1.6116 -0.4736
    1SOL    HW3 3943   0.234   3.089   1.829 -0.4263 -0.9333 -0.2762
    1SOL    MW4 3944   0.238   3.075   1.914  0.0015 -0.1266 -0.1627
    1SOL     OW 3945   0.002   3.217   1.993  0.2197 -0.2817  1.0490
    1SOL    HW2 3946  -0.068   3.159   1.964  0.1173 -0.1309  0.9956
    1SOL    HW3 3947   0.083   3.169   1.973  0.1406 -0.3285  0.8429
    1SOL    MW4 3948   0.004   3.203   1.987  0.1958 -0.2680  1.0148
    1SOL     OW 3949   0.016   3.454   1.848  0.3174 -0.4659  0.5179
    1SOL    HW2 3950   0.078   3.506   1.898  0.9656 -1.4434  0.7500
    1SOL    HW3 3951   0.026   3.365   1.883 -1.3974 -0.5966  0.7581
    1SOL    MW4 3952   0.025   3.449   1.859  0.1768 -0.6123  0.5802
    1SOL     OW 3953   0.225   3.598   1.941 -0.1281  0.1727 -0.1861
    1SOL    HW2 3954   0.226   3.601   2.037  2.0568  0.3347 -0.1774
    1SOL    HW3 3955   0.309   3.560   1.918 -1.0106 -0.6840 -2.0428
    1SOL    MW4 3956   0.236   3.594   1.951  0.0438  0.0811 -0.4300
    1SOL     OW 3957   0.222   3.877   1.884  0.1694  0.5474 -0.4547
    1SOL    HW2 3958   0.310   3.914   1.892  1.2535 -1.6374 -1.8397
    1SOL    HW3 3959   0.231   3.785   1.909 -2.0845  0.6684  1.0320
    1SOL    MW4 3960   0.234   3.870   1.889  0.0151  0.2749 -0.4413
    1SOL     OW 3961   4.482   3.991   1.947 -0.0718 -0.2012  0.4333
    1SOL    HW2 3962   4.482   4.070   1.893 -0.6380 -0.3792  0.1682
    1SOL    HW3 3963   4.566   3.949   1.928  0.9804  1.1951  1.8678
    1SOL    MW4 3964   4.493   3.996   1.937 -0.0076 -0.0398  0.5876
    1SOL     OW 3965   0.015   4.244   1.782 -0.6036  0.0474  0.1596
    1SOL    HW2 3966  -0.057   4.287   1.827 -0.1743  0.6871  0.2495
    1SOL    HW3 3967   0.094   4.279   1.824 -0.2467 -0.8628  0.2559
    1SOL    MW4 3968   0.016   4.255   1.793 -0.4998  0.0114  0.1842
    1SOL     OW 3969   0.238   4.364   1.946  0.0642 -0.2276 -0.2024
    1SOL    HW2 3970   0.206   4.366   2.036  1.5016  0.7146  0.3057
    1SOL    HW3 3971   0.242   4.456   1.919 -0.9374 -0.5367 -1.4450
    1SOL    MW4 3972   0.234   4.376   1.954  0.1217 -0.1440 -0.2995
    1SOL     OW 3973   0.684   0.004   1.903  0.4127 -0.1732 -0.1790
    1SOL    HW2 3974   0.683  -0.090   1.920 -1.9452  0.0260  0.9288
    1SOL    HW3 3975   0.669   0.011   1.809 -0.9979 -0.8708 -0.0171
    1SOL    MW4 3976   0.682  -0.008   1.893 -0.0845 -0.2389 -0.0116
    1SOL     OW 3977   0.423   0.093   1.963 -0.0703 -0.3494 -0.0727
    1SOL    HW2 3978   0.436   0.180   1.926  0.2052 -0.1421  0.5080
    1SOL    HW3 3979   0.503   0.046   1.943  0.1216 -0.2032  0.3626
    1SOL    MW4 3980   0.435   0.098   1.955 -0.0086 -0.3027  0.0613
    1SOL     OW 3981   0.441   0.353   1.848 -0.6404 -0.3092  0.2953
    1SOL    HW2 3982   0.515   0.403   1.881  1.0291 -2.1327 -0.6126
    1SOL    HW3 3983   0.460   0.340   1.755 -1.7313 -1.4397  0.2141
    1SOL    MW4 3984   0.453   0.358   1.840 -0.5641 -0.6990  0.1649
    1SOL     OW 3985   0.656   0.487   1.960  0.0194 -0.0297 -0.0616
    1SOL    HW2 3986   0.657   0.486   2.056 -0.7408 -1.9826 -0.0493
    1SOL    HW3 3987   0.743   0.456   1.935  0.3682  0.9010 -0.0090
    1SOL    MW4 3988   0.667   0.483   1.970 -0.0347 -0.1645 -0.0529
    1SOL     OW 3989   0.653   0.769   1.886  0.0927  0.4033  0.3777
    1SOL    HW2 3990   0.725   0.819   1.923 -0.2722 -0.2941  2.0947
    1SOL    HW3 3991   0.671   0.678   1.913 -0.1418 -0.1312 -1.2355
    1SOL    MW4 3992   0.665   0.763   1.895  0.0136  0.2409  0.3914
    1SOL     OW 3993   0.440   0.897   1.985  0.0339  0.2280 -0.2317
    1SOL    HW2 3994   0.444   0.881   2.079  0.1534  1.9588  0.0727
    1SOL    HW3 3995   0.517   0.852   1.949  0.9144  0.9556  0.7210
    1SOL    MW4 3996   0.451   0.889   1.992  0.1659  0.5524 -0.0659
    1SOL     OW 3997   0.443   1.152   1.857  0.1012  0.1485 -0.1411
    1SOL    HW2 3998   0.365   1.196   1.891  0.1430  0.5158 -0.5103
    1SOL    HW3 3999   0.432   1.061   1.883 -0.2087  0.2905  0.2394
    1SOL    MW4 4000   0.431   1.146   1.865  0.0658  0.2156 -0.1395
    1SOL     OW 4001   0.669   1.274   1.975  0.1236  0.0469  0.0180
    1SOL    HW2 4002   0.655   1.245   2.066 -0.6204 -0.0083 -0.1089
    1SOL    HW3 4003   0.587   1.251   1.930  0.1307  0.9323 -0.4495
    1SOL    MW4 4004   0.656   1.267   1.981  0.0263  0.1564 -0.0606
    1SOL     OW 4005   0.683   1.565   1.928  0.3685 -0.7367  0.1054
    1SOL    HW2 4006   0.667   1.477   1.960 -0.6337 -1.0249 -1.1450
    1SOL    HW3 4007   0.678   1.558   1.832 -0.9673  0.8886  0.0229
    1SOL    MW4 4008   0.680   1.553   1.919  0.0601 -0.5602 -0.0706
    1SOL     OW 4009   0.441   1.700   2.008 -0.4248 -0.4167  0.0593
    1SOL    HW2 4010   0.444   1.705   2.103 -3.5092 -1.7967  0.2875
    1SOL    HW3 4011   0.523   1.658   1.983  1.2048  1.5309  1.9363
    1SOL    MW4 4012   0.452   1.695   2.017 -0.6167 -0.3418  0.3371
    1SOL     OW 4013   0.465   1.936   1.862  0.2620 -0.2764  0.3122
    1SOL    HW2 4014   0.451   1.852   1.905  0.7217  0.0755  1.1694
    1SOL    HW3 4015   0.392   1.991   1.892  0.9234  0.1582  1.1437
    1SOL    MW4 4016   0.454   1.932   1.872  0.4099 -0.1726  0.5350
    1SOL     OW 4017   0.708   2.048   1.938  0.5530 -0.2445  0.2537
    1SOL    HW2 4018   0.697   2.072   2.029 -0.0981  1.9779 -0.3864
    1SOL    HW3 4019   0.625   2.008   1.913  0.5791 -0.4627  0.5187
    1SOL    MW4 4020   0.696   2.046   1.946  0.4705  0.0198  0.2042
    1SOL     OW 4021   0.695   2.313   1.861 -0.2403  0.3352  0.2572
    1SOL    HW2 4022   0.699   2.219   1.876 -2.7345  0.1364 -0.1142
    1SOL    HW3 4023   0.692   2.322   1.766  0.2011  0.8203  0.2824
    1SOL    MW4 4024   0.695   2.302   1.850 -0.5111  0.3729  0.2116
    1SOL     OW 4025   0.477   2.457   1.946 -0.3487 -0.2745 -0.2647
    1SOL    HW2 4026   0.471   2.466   2.041 -0.8444  0.0815 -0.3275
    1SOL    HW3 4027   0.560   2.413   1.931 -0.5342 -0.8528  0.3731
    1SOL    MW4 4028   0.487   2.452   1.956 -0.4386 -0.3037 -0.1887
    1SOL     OW 4029   0.452   2.718   1.857  0.0409 -0.2425  0.0889
    1SOL    HW2 4030   0.454   2.623   1.871 -1.5959 -0.2097  0.6169
    1SOL    HW3 4031   0.370   2.746   1.897 -0.0058  1.2517 -1.0436
    1SOL    MW4 4032   0.442   2.709   1.864 -0.1812 -0.0410  0.0092
    1SOL     OW 4033   0.674   2.834   1.973  0.5893 -0.2491  0.4349
    1SOL    HW2 4034   0.644   2.840   2.064 -0.4313 -0.1843  0.0979
    1SOL    HW3 4035   0.601   2.794   1.926  0.9233  0.1717 -0.4552
    1SOL    MW4 4036   0.661   2.829   1.979  0.4987 -0.1850  0.2730
    1SOL     OW 4037   0.690   3.104   1.877 -0.5061 -0.0557 -0.4097
    1SOL    HW2 4038   0.699   3.015   1.909  0.1421  0.1993  0.1399
    1SOL    HW3 4039   0.656   3.095   1.788  1.5097 -0.9489 -1.1175
    1SOL    MW4 4040   0.687   3.091   1.870 -0.1546 -0.1400 -0.4306
    1SOL     OW 4041   0.471   3.216   2.000  0.1998  0.4335 -0.0013
    1SOL    HW2 4042   0.470   3.310   1.979  0.6557  0.5180  0.3386
    1SOL    HW3 4043   0.551   3.184   1.958  0.4805  0.3644  0.5813
    1SOL    MW4 4044   0.481   3.224   1.992  0.2970  0.4354  0.1205
    1SOL     OW 4045   0.488   3.502   1.893  0.3490  0.1745 -0.3628
    1SOL    HW2 4046   0.563   3.558   1.917  0.6356 -0.2592 -0.2435
    1SOL    HW3 4047   0.485   3.506   1.797 -0.3063  1.2696 -0.3072
    1SOL    MW4 4048   0.498   3.510   1.883  0.3003  0.2618 -0.3397
    1SOL     OW 4049   0.697   3.648   1.992  0.1666 -0.4824 -0.0430
    1SOL    HW2 4050   0.778   3.600   1.975  0.1346 -0.6443  0.2510
    1SOL    HW3 4051   0.710   3.733   1.951  0.7461 -0.2715  0.5858
    1SOL    MW4 4052   0.709   3.653   1.984  0.2388 -0.4761  0.0788
    1SOL     OW 4053   0.713   3.902   1.906 -0.0842 -0.7433 -0.1085
    1SOL    HW2 4054   0.782   3.963   1.933 -0.9629  0.2511 -0.0704
    1SOL    HW3 4055   0.712   3.909   1.810 -2.0271  1.3894  0.0294
    1SOL    MW4 4056   0.722   3.911   1.897 -0.4565 -0.3309 -0.0854
    1SOL     OW 4057   0.456   3.986   1.943 -0.2264 -0.0296 -1.0372
    1SOL    HW2 4058   0.460   4.077   1.914  1.4729  0.7336  1.4895
    1SOL    HW3 4059   0.546   3.955   1.942 -0.3944 -0.7210  1.0283
    1SOL    MW4 4060   0.468   3.994   1.939 -0.0244 -0.0203 -0.4313
    1SOL     OW 4061   0.458   4.244   1.833 -0.2150  0.3531  0.0286
    1SOL    HW2 4062   0.386   4.291   1.877 -0.8074 -0.6569  0.1519
    1SOL    HW3 4063   0.448   4.266   1.741 -0.6368  0.2790  0.0558
    1SOL    MW4 4064   0.447   4.253   1.827 -0.3488  0.2098  0.0485
    1SOL     OW 4065   0.643   4.397   1.957 -0.4371  0.0149 -0.1949
    1SOL    HW2 4066   0.725   4.355   1.932 -0.1742 -0.0147  0.6861
    1SOL    HW3 4067   0.575   4.334   1.935 -0.0637 -0.7774  0.9122
    1SOL    MW4 4068   0.645   4.383   1.951 -0.3532 -0.0935  0.0674
    1SOL     OW 4069   1.137   4.640   1.862  0.3518 -0.1487  0.2992
    1SOL    HW2 4070   1.222   4.674   1.888  0.5309 -1.0233  0.8799
    1SOL    HW3 4071   1.129   4.556   1.908 -0.9828  0.1046  0.5775
    1SOL    MW4 4072   1.147   4.633   1.872  0.1993 -0.2308  0.4126
    1SOL     OW 4073   0.918   0.136   1.976  0.1222  0.0122  0.4040
    1SOL    HW2 4074   0.989   0.091   1.931  0.5367 -0.6173  1.6578
    1SOL    HW3 4075   0.839   0.089   1.949  0.3487 -0.2554  0.2016
    1SOL    MW4 4076   0.917   0.124   1.967  0.2068 -0.1062  0.5428
    1SOL     OW 4077   0.903   0.390   1.875 -0.3827 -0.2856 -0.1825
    1SOL    HW2 4078   0.987   0.426   1.902  0.2734 -0.8925 -1.3552
    1SOL    HW3 4079   0.896   0.308   1.924 -0.9014  0.3879  0.8908
    1SOL    MW4 4080   0.913   0.384   1.885 -0.3645 -0.2768 -0.1956
    1SOL     OW 4081   1.141   0.516   1.962  0.1078  0.1527  0.1299
    1SOL    HW2 4082   1.214   0.479   1.913  0.3053  0.8728 -0.1154
    1SOL    HW3 4083   1.138   0.608   1.936  0.0321  0.4762  1.2552
    1SOL    MW4 4084   1.150   0.523   1.952  0.1237  0.2903  0.2460
    1SOL     OW 4085   1.127   0.761   1.881  0.7445  0.1364 -0.0141
    1SOL    HW2 4086   1.203   0.813   1.905 -0.1227  1.6380 -0.4610
    1SOL    HW3 4087   1.052   0.816   1.903 -0.2704 -1.8294  1.6201
    1SOL    MW4 4088   1.127   0.775   1.887  0.4961  0.0752  0.1426
    1SOL     OW 4089   0.876   0.894   1.952 -0.1723  0.0250 -0.3406
    1SOL    HW2 4090   0.871   0.899   2.048  0.2361 -0.3092 -0.2985
    1SOL    HW3 4091   0.890   0.985   1.924 -0.6975  0.1786 -0.1122
    1SOL    MW4 4092   0.877   0.907   1.961 -0.1878  0.0012 -0.3048
    1SOL     OW 4093   0.896   1.164   1.877 -0.1698 -0.0356 -0.3456
    1SOL    HW2 4094   0.815   1.206   1.905  0.1363  0.8794 -0.7986
    1SOL    HW3 4095   0.890   1.161   1.781  0.0316 -0.5856 -0.3478
    1SOL    MW4 4096   0.885   1.169   1.868 -0.1029  0.0126 -0.4054
    1SOL     OW 4097   1.105   1.289   2.017  0.0330 -0.1459 -0.5906
    1SOL    HW2 4098   1.104   1.381   1.989  0.6023  0.2942  0.8076
    1SOL    HW3 4099   1.027   1.251   1.977 -0.1770  0.9327 -1.2216
    1SOL    MW4 4100   1.095   1.296   2.008  0.0805  0.0546 -0.4897
    1SOL     OW 4101   1.143   1.540   1.888  0.4030  0.4627 -0.6674
    1SOL    HW2 4102   1.062   1.580   1.918  0.0774 -0.2080 -0.6463
    1SOL    HW3 4103   1.130   1.527   1.794 -0.3939 -1.6606 -0.3017
    1SOL    MW4 4104   1.130   1.543   1.879  0.2550  0.0941 -0.6163
    1SOL     OW 4105   0.931   1.670   1.972  0.2884  0.2274  0.2842
    1SOL    HW2 4106   0.929   1.756   1.930  0.0574 -0.6342 -1.5166
    1SOL    HW3 4107   0.844   1.634   1.958  0.5740 -0.5552  0.4818
    1SOL    MW4 4108   0.920   1.676   1.964  0.2956  0.0105  0.0727
    1SOL     OW 4109   0.947   1.931   1.873  0.0271  0.1208  0.5556
    1SOL    HW2 4110   0.867   1.974   1.903  0.7188  1.8786 -0.0047
    1SOL    HW3 4111   0.937   1.924   1.778  0.2135 -0.3266  0.5692
    1SOL    MW4 4112   0.935   1.936   1.865  0.1430  0.2937  0.4834
    1SOL     OW 4113   1.122   2.077   2.018 -0.4593 -0.5966  0.3280
    1SOL    HW2 4114   1.132   2.165   1.980 -0.5776 -0.4296  0.6856
    1SOL    HW3 4115   1.056   2.035   1.962 -0.0546 -0.6250 -0.1344
    1SOL    MW4 4116   1.115   2.083   2.005 -0.4214 -0.5782  0.3145
    1SOL     OW 4117   1.132   2.320   1.885 -0.2307  0.2765  0.0432
    1SOL    HW2 4118   1.200   2.370   1.930 -0.9868  2.5207 -1.2017
    1SOL    HW3 4119   1.159   2.321   1.793 -0.9467 -0.4878 -0.1798
    1SOL    MW4 4120   1.145   2.327   1.878 -0.4250  0.4716 -0.1506
    1SOL     OW 4121   0.922   2.476   1.947 -0.6954  0.1356 -0.3612
    1SOL    HW2 4122   0.993   2.417   1.922  1.0940  2.2943 -0.5150
    1SOL    HW3 4123   0.844   2.438   1.908  0.5200 -1.7953 -0.9668
    1SOL    MW4 4124   0.921   2.463   1.939 -0.2990  0.1659 -0.4612
    1SOL     OW 4125   0.935   2.745   1.900  0.2550 -0.3790  0.5886
    1SOL    HW2 4126   0.925   2.651   1.909  0.6537 -0.6548 -1.5912
    1SOL    HW3 4127   0.847   2.781   1.913  0.1251 -1.0279  1.5188
    1SOL    MW4 4128   0.922   2.738   1.903  0.2905 -0.5009  0.4238
    1SOL     OW 4129   1.168   2.881   1.976  0.1695  0.2198  0.1779
    1SOL    HW2 4130   1.167   2.876   2.072 -1.1409  1.4020  0.2487
    1SOL    HW3 4131   1.086   2.842   1.949  0.6345 -0.3098 -0.4903
    1SOL    MW4 4132   1.157   2.875   1.985  0.0581  0.3061  0.0991
    1SOL     OW 4133   1.131   3.122   1.799 -0.1320  0.0713 -0.4574
    1SOL    HW2 4134   1.060   3.167   1.846  0.3356  0.3185  0.0221
    1SOL    HW3 4135   1.147   3.043   1.851  0.2598  0.2504 -0.3029
    1SOL    MW4 4136   1.124   3.118   1.812 -0.0188  0.1276 -0.3737
    1SOL     OW 4137   0.918   3.239   1.954  0.2607  0.3662  0.0278
    1SOL    HW2 4138   0.931   3.236   2.049 -1.3094 -2.3004  0.2166
    1SOL    HW3 4139   0.828   3.208   1.942 -0.1436  2.2823 -2.2419
    1SOL    MW4 4140   0.908   3.235   1.965  0.0002  0.2675 -0.2466
    1SOL     OW 4141   0.929   3.504   1.888  0.4131  0.2236  0.2170
    1SOL    HW2 4142   0.931   3.409   1.899  0.0345  0.2931  0.8989
    1SOL    HW3 4143   0.916   3.517   1.794 -0.8750 -0.3969  0.3067
    1SOL    MW4 4144   0.928   3.493   1.877  0.1932  0.1509  0.3189
    1SOL     OW 4145   1.160   3.656   1.950 -0.0908  0.1925 -0.1270
    1SOL    HW2 4146   1.163   3.641   2.044  0.6127 -2.2929 -0.5122
    1SOL    HW3 4147   1.077   3.618   1.921  0.2303 -0.1052 -0.6763
    1SOL    MW4 4148   1.150   3.649   1.958  0.0443 -0.1748 -0.2503
    1SOL     OW 4149   1.158   3.888   1.809 -0.5353  0.6333 -0.0130
    1SOL    HW2 4150   1.164   3.799   1.842 -0.5754  0.2189 -1.1097
    1SOL    HW3 4151   1.157   3.879   1.714 -0.7376  1.7889 -0.1338
    1SOL    MW4 4152   1.159   3.875   1.801 -0.5673  0.7312 -0.1736
    1SOL     OW 4153   0.957   4.030   1.980  0.6366  0.0489 -0.2046
    1SOL    HW2 4154   0.963   4.029   2.076  1.0456  0.0539 -0.2297
    1SOL    HW3 4155   1.038   3.990   1.951  0.1118 -0.7865 -0.5356
    1SOL    MW4 4156   0.968   4.025   1.989  0.6214 -0.0610 -0.2514
    1SOL     OW 4157   0.873   4.267   1.876 -0.6429 -0.2593  0.3595
    1SOL    HW2 4158   0.954   4.311   1.905 -1.9286  0.7312  2.6127
    1SOL    HW3 4159   0.884   4.177   1.905  0.5994 -0.6860 -1.3542
    1SOL    MW4 4160   0.885   4.261   1.884 -0.6486 -0.1850  0.4307
    1SOL     OW 4161   1.115   4.386   1.969 -0.1970  0.0902  0.0053
    1SOL    HW2 4162   1.127   4.372   2.062  0.7633  0.3441 -0.0730
    1SOL    HW3 4163   1.190   4.343   1.928 -0.2587  0.5450 -0.5998
    1SOL    MW4 4164   1.127   4.378   1.976 -0.0784  0.1836 -0.0849
    1SOL     OW 4165   1.566   4.664   1.860 -0.0848 -0.0842 -0.2505
    1SOL    HW2 4166   1.649   4.708   1.876 -0.6650  1.4412 -1.2500
    1SOL    HW3 4167   1.574   4.579   1.904  2.1955 -0.1902 -0.8482
    1SOL    MW4 4168   1.578   4.659   1.868  0.1395  0.1030 -0.4613
    1SOL     OW 4169   1.348   0.126   1.946  0.2108  0.1363 -0.5051
    1SOL    HW2 4170   1.342   0.120   2.041 -2.2510 -0.9247 -0.6841
    1SOL    HW3 4171   1.426   0.074   1.924  0.2687 -0.3817  0.8558
    1SOL    MW4 4172   1.357   0.118   1.956 -0.1063 -0.0720 -0.3493
    1SOL     OW 4173   1.356   0.394   1.861 -0.1429 -0.4897 -0.2963
    1SOL    HW2 4174   1.350   0.304   1.893  0.0638 -0.2515  0.4195
    1SOL    HW3 4175   1.353   0.386   1.766  0.2698 -1.2786 -0.2443
    1SOL    MW4 4176   1.355   0.381   1.853 -0.0612 -0.5624 -0.1949
    1SOL     OW 4177   1.584   0.515   1.975  0.1774  0.3342 -0.2988
    1SOL    HW2 4178   1.658   0.463   1.943 -0.1309  0.2163 -0.8372
    1SOL    HW3 4179   1.506   0.468   1.942 -0.2282 -0.8953  2.2984
    1SOL    MW4 4180   1.583   0.502   1.966  0.0833  0.1565 -0.0271
    1SOL     OW 4181   1.563   0.764   1.874 -0.5148  0.5229  0.3683
    1SOL    HW2 4182   1.641   0.814   1.899 -0.0106  0.5796 -1.2210
    1SOL    HW3 4183   1.581   0.674   1.902  1.0052  0.1311 -1.7739
    1SOL    MW4 4184   1.575   0.759   1.881 -0.2477  0.4786 -0.1240
    1SOL     OW 4185   1.343   0.914   1.970 -0.5354 -0.4737 -0.3056
    1SOL    HW2 4186   1.337   0.906   2.065  0.4580  0.5876 -0.1394
    1SOL    HW3 4187   1.426   0.872   1.947  0.4553  1.4619 -0.3939
    1SOL    MW4 4188   1.353   0.908   1.980 -0.2736 -0.0783 -0.2953
    1SOL     OW 4189   1.292   1.174   1.865  0.0471  0.0132 -0.4182
    1SOL    HW2 4190   1.292   1.082   1.891 -1.2277 -0.1761 -1.0445
    1SOL    HW3 4191   1.224   1.214   1.919  0.8941  0.6934  0.1660
    1SOL    MW4 4192   1.283   1.167   1.876 -0.0094  0.0780 -0.4238
    1SOL     OW 4193   1.535   1.254   1.976 -0.3137 -0.0948 -0.3072
    1SOL    HW2 4194   1.553   1.342   1.944  0.9508 -0.5035 -0.7579
    1SOL    HW3 4195   1.454   1.228   1.933  0.0541  0.3121 -1.2456
    1SOL    MW4 4196   1.527   1.262   1.966 -0.0982 -0.0950 -0.4904
    1SOL     OW 4197   1.586   1.516   1.868 -0.1092 -0.4498 -0.2983
    1SOL    HW2 4198   1.658   1.577   1.884  0.8857 -1.6661 -0.0020
    1SOL    HW3 4199   1.508   1.563   1.895  0.5789  0.9050 -0.6338
    1SOL    MW4 4200   1.585   1.530   1.874  0.1129 -0.4315 -0.3034
    1SOL     OW 4201   1.376   1.670   1.936  0.0601 -0.1148 -0.2429
    1SOL    HW2 4202   1.382   1.670   2.031  0.6984  0.1866 -0.2833
    1SOL    HW3 4203   1.291   1.630   1.917  0.5864 -1.5481  0.4094
    1SOL    MW4 4204   1.365   1.665   1.946  0.2136 -0.2640 -0.1620
    1SOL     OW 4205   1.353   1.961   1.871 -0.1287 -0.1524 -0.1477
    1SOL    HW2 4206   1.358   1.868   1.897  0.4723  0.0124  0.3454
    1SOL    HW3 4207   1.271   1.992   1.910 -0.9940 -0.7983 -1.4010
    1SOL    MW4 4208   1.343   1.952   1.880 -0.1637 -0.2159 -0.2480
    1SOL     OW 4209   1.578   2.094   1.985 -0.6402  0.1316  0.2931
    1SOL    HW2 4210   1.575   2.178   1.940 -0.0157 -0.2755 -0.5162
    1SOL    HW3 4211   1.495   2.052   1.963  0.1504 -0.5628 -1.4678
    1SOL    MW4 4212   1.567   2.100   1.976 -0.4536 -0.0141 -0.0460
    1SOL     OW 4213   1.570   2.356   1.874  0.0876  0.4477 -0.3183
    1SOL    HW2 4214   1.647   2.411   1.891  1.3658 -1.5973  0.7634
    1SOL    HW3 4215   1.572   2.340   1.780  0.9254  0.5528 -0.3254
    1SOL    MW4 4216   1.581   2.361   1.864  0.3667  0.1917 -0.1764
    1SOL     OW 4217   1.348   2.466   1.982 -0.3994  0.5100 -0.3706
    1SOL    HW2 4218   1.349   2.557   1.951 -0.5075  0.7257  0.2517
    1SOL    HW3 4219   1.431   2.430   1.952 -0.4547  0.7443 -0.8198
    1SOL    MW4 4220   1.359   2.474   1.974 -0.4209  0.5691 -0.3477
    1SOL     OW 4221   1.355   2.717   1.862 -1.1972  0.4606  0.0361
    1SOL    HW2 4222   1.274   2.756   1.895 -1.3822  0.3861 -0.3285
    1SOL    HW3 4223   1.340   2.705   1.768 -0.9614 -0.0361  0.0579
    1SOL    MW4 4224   1.342   2.720   1.854 -1.1905  0.3850 -0.0092
    1SOL     OW 4225   1.578   2.847   1.951  0.0500  0.1889  0.0078
    1SOL    HW2 4226   1.645   2.810   1.894  0.9702 -1.1922  1.9511
    1SOL    HW3 4227   1.497   2.803   1.925  0.7776 -1.7498  0.9271
    1SOL    MW4 4228   1.576   2.836   1.940  0.2674 -0.2489  0.3855
    1SOL     OW 4229   1.578   3.100   1.834 -0.1907 -0.1013 -0.3605
    1SOL    HW2 4230   1.581   3.016   1.880 -1.4216  0.5805  1.0281
    1SOL    HW3 4231   1.556   3.077   1.743  0.6242 -1.3451 -0.2506
    1SOL    MW4 4232   1.575   3.086   1.828 -0.2456 -0.1755 -0.1627
    1SOL     OW 4233   1.336   3.242   1.943 -0.4309 -0.5509  0.1568
    1SOL    HW2 4234   1.409   3.191   1.907  0.4119  2.8909 -3.4089
    1SOL    HW3 4235   1.258   3.207   1.900 -0.1129 -0.3278 -0.6213
    1SOL    MW4 4236   1.336   3.231   1.932 -0.2778 -0.0675 -0.4164
    1SOL     OW 4237   1.388   3.503   1.892  0.5477  0.2112  0.0152
    1SOL    HW2 4238   1.369   3.416   1.925  3.0879  0.2299  1.6696
    1SOL    HW3 4239   1.314   3.556   1.919  0.5957 -0.7135  1.9900
    1SOL    MW4 4240   1.376   3.499   1.900  0.8891  0.0918  0.4941
    1SOL     OW 4241   1.611   3.631   1.981 -0.0422  0.3704  0.2667
    1SOL    HW2 4242   1.618   3.607   2.074  1.0856 -0.4321 -0.0125
    1SOL    HW3 4243   1.535   3.582   1.950  0.4258 -0.4724  0.4362
    1SOL    MW4 4244   1.602   3.621   1.990  0.1684  0.1533  0.2524
    1SOL     OW 4245   1.575   3.888   1.907 -0.1304  0.0127  0.0683
    1SOL    HW2 4246   1.646   3.942   1.942 -1.3888  0.8609  1.3401
    1SOL    HW3 4247   1.595   3.799   1.937  1.9142 -0.2630 -1.9769
    1SOL    MW4 4248   1.587   3.883   1.915 -0.0266  0.0882 -0.0339
    1SOL     OW 4249   1.349   4.012   1.982  0.6221  0.2432 -0.4854
    1SOL    HW2 4250   1.430   3.962   1.972  0.9870  0.8065 -0.3538
    1SOL    HW3 4251   1.288   3.972   1.920  1.9050  1.7169 -2.7084
    1SOL    MW4 4252   1.352   4.000   1.973  0.8396  0.5121 -0.7615
    1SOL     OW 4253   1.335   4.261   1.877 -0.1086 -0.2371  0.0274
    1SOL    HW2 4254   1.344   4.173   1.915  0.7743 -0.5549 -0.9082
    1SOL    HW3 4255   1.362   4.251   1.786  1.1153  1.2537  0.2133
    1SOL    MW4 4256   1.340   4.248   1.870  0.1692 -0.0825 -0.0714
    1SOL     OW 4257   1.591   4.390   1.943  0.3787 -0.3295 -0.0354
    1SOL    HW2 4258   1.608   4.382   2.037  2.8194 -2.9700 -0.6423
    1SOL    HW3 4259   1.509   4.341   1.930 -0.3610  0.6557  0.7811
    1SOL    MW4 4260   1.582   4.382   1.954  0.6031 -0.5479 -0.0077
    1SOL     OW 4261   2.026   4.634   1.838  0.3468  0.0195 -0.0170
    1SOL    HW2 4262   2.104   4.677   1.874  1.3374 -0.4949 -1.4678
    1SOL    HW3 4263   2.032   4.544   1.870  0.5430 -0.1150 -0.4392
    1SOL    MW4 4264   2.037   4.628   1.847  0.5033 -0.0658 -0.2640
    1SOL     OW 4265   1.804   0.112   1.938  0.1564 -0.4225  0.3701
    1SOL    HW2 4266   1.812   0.103   2.033  1.6047 -0.6879  0.2461
    1SOL    HW3 4267   1.886   0.075   1.904  0.7174  1.8160 -0.8270
    1SOL    MW4 4268   1.816   0.106   1.946  0.4215 -0.1622  0.1959
    1SOL     OW 4269   1.809   0.384   1.859 -0.2612  0.1514 -0.1641
    1SOL    HW2 4270   1.808   0.290   1.877 -2.0606 -0.0463 -1.1615
    1SOL    HW3 4271   1.806   0.390   1.763 -1.2437  1.2165 -0.0849
    1SOL    MW4 4272   1.808   0.372   1.849 -0.6284  0.2658 -0.2851
    1SOL     OW 4273   2.059   0.516   1.928  0.0433 -0.0554 -0.1297
    1SOL    HW2 4274   2.035   0.608   1.916  0.7442  0.3635  1.5798
    1SOL    HW3 4275   1.982   0.467   1.899 -0.7450  1.1159 -0.0215
    1SOL    MW4 4276   2.045   0.521   1.923  0.0317  0.1544  0.1100
    1SOL     OW 4277   2.016   0.779   1.881  0.1902  0.0919  0.4685
    1SOL    HW2 4278   2.081   0.838   1.920 -0.7127  1.3812  0.0699
    1SOL    HW3 4279   1.932   0.824   1.893 -0.6786 -1.6305  1.1346
    1SOL    MW4 4280   2.013   0.793   1.888 -0.0439  0.0347  0.5038
    1SOL     OW 4281   1.783   0.903   1.954  0.0255  0.7189  0.2360
    1SOL    HW2 4282   1.786   0.993   1.923 -1.1373  0.6777 -0.0467
    1SOL    HW3 4283   1.781   0.910   2.049  0.2111  0.9812  0.2196
    1SOL    MW4 4284   1.783   0.915   1.962 -0.1034  0.7481  0.1965
    1SOL     OW 4285   1.759   1.167   1.854  0.0413  0.1506  0.6908
    1SOL    HW2 4286   1.674   1.194   1.889 -0.0436 -0.6464  1.1132
    1SOL    HW3 4287   1.823   1.212   1.908 -0.1033 -0.0267  1.0110
    1SOL    MW4 4288   1.756   1.176   1.865  0.0111  0.0221  0.7888
    1SOL     OW 4289   1.976   1.286   1.978  0.2094  0.1915 -0.0482
    1SOL    HW2 4290   2.058   1.254   1.940 -0.7901 -1.0235 -1.2852
    1SOL    HW3 4291   1.980   1.262   2.070  1.6412  0.9738  0.0907
    1SOL    MW4 4292   1.987   1.279   1.985  0.2664  0.1345 -0.1931
    1SOL     OW 4293   2.027   1.537   1.851 -0.0311 -0.5659  0.1398
    1SOL    HW2 4294   2.001   1.448   1.876  0.8518 -1.3187 -1.5431
    1SOL    HW3 4295   2.034   1.534   1.756  0.6871  1.1222  0.1274
    1SOL    MW4 4296   2.025   1.525   1.842  0.1805 -0.4425 -0.0838
    1SOL     OW 4297   1.814   1.675   1.961 -0.5774  0.2601  0.1759
    1SOL    HW2 4298   1.809   1.767   1.937  0.5188  0.6316  1.3422
    1SOL    HW3 4299   1.901   1.647   1.930 -0.2408  0.0568  1.2930
    1SOL    MW4 4300   1.825   1.683   1.954 -0.3884  0.2823  0.4771
    1SOL     OW 4301   1.771   1.926   1.875 -0.2381 -0.0534  0.2185
    1SOL    HW2 4302   1.710   1.993   1.907 -1.4649 -1.0435 -0.0051
    1SOL    HW3 4303   1.772   1.939   1.780  1.4893  1.2830  0.4086
    1SOL    MW4 4304   1.763   1.937   1.867 -0.1720 -0.0077  0.2141
    1SOL     OW 4305   1.990   2.067   1.973  0.5271 -0.0376  0.2417
    1SOL    HW2 4306   2.058   2.013   1.932 -0.9505 -1.8017  0.1042
    1SOL    HW3 4307   1.908   2.022   1.955 -0.5518  1.2210  1.8246
    1SOL    MW4 4308   1.988   2.054   1.965  0.1898 -0.1040  0.4324
    1SOL     OW 4309   2.004   2.319   1.860 -0.3209  0.0396  0.3871
    1SOL    HW2 4310   2.088   2.344   1.900  0.5261 -0.9271 -0.7378
    1SOL    HW3 4311   1.986   2.232   1.898 -0.8161  0.2470  0.6261
    1SOL    MW4 4312   2.013   2.311   1.870 -0.2744 -0.0603  0.2702
    1SOL     OW 4313   1.794   2.486   1.942 -0.2652 -0.2653  0.3586
    1SOL    HW2 4314   1.803   2.472   2.036 -0.6290  0.6146  0.5236
    1SOL    HW3 4315   1.869   2.439   1.904 -1.2359 -2.3381  0.9303
    1SOL    MW4 4316   1.805   2.478   1.949 -0.4414 -0.4230  0.4556
    1SOL     OW 4317   1.809   2.743   1.816 -0.1183  0.1231  0.0977
    1SOL    HW2 4318   1.798   2.653   1.847  1.3088  0.0912  0.5203
    1SOL    HW3 4319   1.788   2.738   1.722  0.5853 -0.7741 -0.0232
    1SOL    MW4 4320   1.805   2.730   1.807  0.1628  0.0005  0.1374
    1SOL     OW 4321   2.017   2.871   1.925  0.1700 -0.2451 -0.3569
    1SOL    HW2 4322   2.022   2.857   2.020 -0.5024  1.0931 -0.1142
    1SOL    HW3 4323   1.938   2.825   1.898  0.0400 -0.1337 -0.1697
    1SOL    MW4 4324   2.007   2.863   1.934  0.0641 -0.0536 -0.3000
    1SOL     OW 4325   2.019   3.146   1.882  0.4645  0.4947  0.1091
    1SOL    HW2 4326   1.938   3.185   1.915  0.7026  0.7607  0.3836
    1SOL    HW3 4327   2.013   3.054   1.906 -0.6064  0.1282 -1.5124
    1SOL    MW4 4328   2.008   3.139   1.890  0.3545  0.4816 -0.0685
    1SOL     OW 4329   1.764   3.240   1.987 -0.2935  0.3982 -1.0503
    1SOL    HW2 4330   1.769   3.210   2.077  1.7443 -0.5282 -1.4456
    1SOL    HW3 4331   1.695   3.188   1.947 -0.8013  0.4111 -0.1797
    1SOL    MW4 4332   1.756   3.229   1.993 -0.0918  0.2775 -0.9875
    1SOL     OW 4333   1.819   3.494   1.870 -0.0373 -0.2002 -0.2611
    1SOL    HW2 4334   1.799   3.405   1.902 -0.2213 -0.9806 -2.4740
    1SOL    HW3 4335   1.744   3.547   1.899 -0.8823 -1.1891 -0.5932
    1SOL    MW4 4336   1.806   3.489   1.878 -0.1729 -0.4337 -0.5968
    1SOL     OW 4337   2.063   3.587   1.948  0.0417 -0.4324 -0.6875
    1SOL    HW2 4338   2.036   3.677   1.932  1.1452  0.2567  1.2166
    1SOL    HW3 4339   1.992   3.534   1.910 -0.8795  1.2275 -1.3356
    1SOL    MW4 4340   2.050   3.592   1.941  0.0658 -0.1225 -0.5218
    1SOL     OW 4341   2.008   3.842   1.890 -0.3006  0.2060 -0.2422
    1SOL    HW2 4342   2.096   3.869   1.914  0.7746 -2.2281 -1.2361
    1SOL    HW3 4343   2.006   3.849   1.795 -1.0584 -0.0796 -0.2516
    1SOL    MW4 4344   2.019   3.846   1.881 -0.2587 -0.1528 -0.3746
    1SOL     OW 4345   1.816   4.028   1.991 -0.1191 -0.3058  0.1886
    1SOL    HW2 4346   1.831   4.096   1.926 -0.5550 -0.9115 -0.5412
    1SOL    HW3 4347   1.882   3.961   1.971  0.1996 -0.1823  0.8032
    1SOL    MW4 4348   1.827   4.028   1.980 -0.1347 -0.3695  0.1734
    1SOL     OW 4349   1.841   4.259   1.843  0.2448 -0.1258 -0.2854
    1SOL    HW2 4350   1.765   4.299   1.884  0.7773  0.5214  0.0859
    1SOL    HW3 4351   1.818   4.250   1.751 -0.6466 -0.8265  0.0005
    1SOL    MW4 4352   1.828   4.263   1.836  0.1975 -0.1326 -0.1987
    1SOL     OW 4353   2.078   4.385   1.935 -0.0803  0.4175 -0.5193
    1SOL    HW2 4354   2.145   4.330   1.893 -0.2031 -0.3717  0.3155
    1SOL    HW3 4355   1.995   4.344   1.909 -0.2438  1.2632 -1.3664
    1SOL    MW4 4356   2.076   4.372   1.926 -0.1180  0.4249 -0.5211
    1SOL     OW 4357   2.482   4.653   1.862 -0.9242  0.1165  0.2436
    1SOL    HW2 4358   2.561   4.697   1.893 -0.2619  0.0900 -1.3442
    1SOL    HW3 4359   2.488   4.565   1.900  0.7612 -0.4779 -1.2794
    1SOL    MW4 4360   2.494   4.647   1.871 -0.6144  0.0343 -0.1668
    1SOL     OW 4361   2.235   0.122   1.922 -0.0237  0.6457 -0.2091
    1SOL    HW2 4362   2.234   0.133   2.017  0.3381  2.8008 -0.4246
    1SOL    HW3 4363   2.309   0.063   1.905 -1.4427 -1.5557  0.9790
    1SOL    MW4 4364   2.245   0.116   1.932 -0.1633  0.6396 -0.0808
    1SOL     OW 4365   2.284   0.384   1.853  0.1215  0.1622  0.0005
    1SOL    HW2 4366   2.274   0.294   1.885 -0.6599  0.6406  1.1399
    1SOL    HW3 4367   2.204   0.428   1.881 -0.0260  0.9223 -1.5636
    1SOL    MW4 4368   2.272   0.378   1.861 -0.0014  0.3256 -0.0557
    1SOL     OW 4369   2.507   0.530   1.959 -0.1743 -0.2791  0.1761
    1SOL    HW2 4370   2.583   0.479   1.934 -0.3582 -0.5951  0.2542
    1SOL    HW3 4371   2.433   0.485   1.919 -0.1995  0.7417 -0.9511
    1SOL    MW4 4372   2.507   0.517   1.951 -0.2019 -0.1861  0.0376
    1SOL     OW 4373   2.474   0.796   1.873  0.0135  0.0109 -0.0555
    1SOL    HW2 4374   2.486   0.701   1.885  0.6584  0.0589 -0.2978
    1SOL    HW3 4375   2.489   0.811   1.780  0.0659  0.3728  0.0100
    1SOL    MW4 4376   2.478   0.785   1.863  0.1056  0.0650 -0.0788
    1SOL     OW 4377   2.238   0.920   1.972  0.5751 -0.6571 -0.0912
    1SOL    HW2 4378   2.242   0.899   2.065  1.0396  0.0917  0.0600
    1SOL    HW3 4379   2.313   0.873   1.934  0.6225 -0.6386 -0.0210
    1SOL    MW4 4380   2.249   0.911   1.979  0.6425 -0.5559 -0.0622
    1SOL     OW 4381   2.191   1.181   1.864 -0.1346 -0.0473  0.2795
    1SOL    HW2 4382   2.278   1.217   1.883 -0.0232 -0.1041 -0.1188
    1SOL    HW3 4383   2.196   1.091   1.896  0.0450 -0.1369 -0.0012
    1SOL    MW4 4384   2.203   1.174   1.871 -0.0966 -0.0665  0.1900
    1SOL     OW 4385   2.447   1.267   1.928  0.0735 -0.9198 -0.5338
    1SOL    HW2 4386   2.452   1.248   2.021 -1.4645 -0.8284 -0.4295
    1SOL    HW3 4387   2.461   1.362   1.921  1.0779 -1.0555 -0.4879
    1SOL    MW4 4388   2.450   1.277   1.939  0.0031 -0.9255 -0.5139
    1SOL     OW 4389   2.472   1.545   1.894 -0.7187 -0.2807 -0.0134
    1SOL    HW2 4390   2.402   1.595   1.935  0.6837  1.8680 -0.1759
    1SOL    HW3 4391   2.462   1.563   1.800  0.5400  0.7174  0.0306
    1SOL    MW4 4392   2.462   1.554   1.887 -0.3676  0.1345 -0.0291
    1SOL     OW 4393   2.237   1.665   2.004 -0.3155 -0.2165  0.2884
    1SOL    HW2 4394   2.254   1.660   2.098 -2.1006  0.1949  0.6608
    1SOL    HW3 4395   2.172   1.596   1.988 -0.8115  0.4109 -0.4433
    1SOL    MW4 4396   2.231   1.655   2.015 -0.6163 -0.0795  0.2410
    1SOL     OW 4397   2.196   1.908   1.876  0.0343  0.0948  0.1747
    1SOL    HW2 4398   2.277   1.955   1.897 -0.0943  0.3275  0.1532
    1SOL    HW3 4399   2.198   1.830   1.932  0.6152 -0.2593 -0.3300
    1SOL    MW4 4400   2.207   1.904   1.886  0.0942  0.0788  0.1053
    1SOL     OW 4401   2.450   2.043   1.919  0.3786  0.1103  0.4601
    1SOL    HW2 4402   2.520   1.992   1.880 -0.0331 -0.9631  1.1106
    1SOL    HW3 4403   2.470   2.134   1.896  1.1333 -0.3417 -0.6551
    1SOL    MW4 4404   2.462   2.048   1.911  0.4237 -0.0911  0.3988
    1SOL     OW 4405   2.473   2.316   1.870  0.5952  0.2332  0.0940
    1SOL    HW2 4406   2.550   2.342   1.921  0.7042 -0.8265  0.4756
    1SOL    HW3 4407   2.399   2.345   1.923  0.7093  2.3801 -0.8522
    1SOL    MW4 4408   2.474   2.323   1.884  0.6244  0.3765  0.0196
    1SOL     OW 4409   2.242   2.428   1.965 -0.0057 -0.2761 -0.2211
    1SOL    HW2 4410   2.223   2.447   2.057 -1.4699 -1.6052 -0.2217
    1SOL    HW3 4411   2.249   2.514   1.924  0.9117  0.3331  1.1737
    1SOL    MW4 4412   2.240   2.442   1.972 -0.0777 -0.3710 -0.0370
    1SOL     OW 4413   2.260   2.696   1.869 -0.3494 -0.2222 -0.1360
    1SOL    HW2 4414   2.183   2.748   1.889  0.6890  1.5936 -0.7284
    1SOL    HW3 4415   2.258   2.686   1.773 -0.3400 -0.9639 -0.0643
    1SOL    MW4 4416   2.250   2.702   1.859 -0.2112 -0.0803 -0.2048
    1SOL     OW 4417   2.495   2.834   1.958 -0.2011 -0.3127 -0.3330
    1SOL    HW2 4418   2.491   2.925   1.930 -2.5932 -0.3121 -0.0607
    1SOL    HW3 4419   2.418   2.793   1.919  1.1308 -2.3814 -0.9154
    1SOL    MW4 4420   2.484   2.841   1.949 -0.3409 -0.5856 -0.3740
    1SOL     OW 4421   2.511   3.086   1.872 -0.2903 -0.0412  0.3289
    1SOL    HW2 4422   2.424   3.118   1.895 -0.3105  1.0542 -1.2147
    1SOL    HW3 4423   2.505   3.065   1.779  1.3334  0.8640  0.0037
    1SOL    MW4 4424   2.498   3.087   1.863 -0.0787  0.2227  0.0825
    1SOL     OW 4425   2.269   3.189   1.967 -0.1600 -0.4609  0.1521
    1SOL    HW2 4426   2.270   3.189   2.063  1.1251  0.4148  0.1523
    1SOL    HW3 4427   2.176   3.189   1.944 -0.5217  1.9228  1.4221
    1SOL    MW4 4428   2.257   3.189   1.976 -0.0384 -0.0310  0.3197
    1SOL     OW 4429   2.307   3.464   1.884 -0.0409  0.4236 -0.3332
    1SOL    HW2 4430   2.303   3.370   1.902  0.4765  0.6891  1.1833
    1SOL    HW3 4431   2.221   3.497   1.910  0.0777  0.5196 -0.0701
    1SOL    MW4 4432   2.295   3.456   1.890  0.0432  0.4711 -0.0985
    1SOL     OW 4433   2.504   3.630   1.962  0.0540 -0.2298 -0.0081
    1SOL    HW2 4434   2.496   3.639   2.057 -0.4853 -0.6081 -0.0160
    1SOL    HW3 4435   2.429   3.576   1.936 -0.0080  0.1713 -0.6933
    1SOL    MW4 4436   2.493   3.624   1.971 -0.0255 -0.2265 -0.0995
    1SOL     OW 4437   2.503   3.885   1.902 -0.0352  0.2437  0.0986
    1SOL    HW2 4438   2.413   3.904   1.927  0.3003  0.6825  0.9886
    1SOL    HW3 4439   2.512   3.790   1.914 -0.6062  0.0776 -0.7542
    1SOL    MW4 4440   2.492   3.875   1.907 -0.0663  0.2794  0.1036
    1SOL     OW 4441   2.255   3.966   1.985 -0.2250 -0.0240 -0.3150
    1SOL    HW2 4442   2.271   3.995   2.075 -0.6114 -0.5398 -0.0713
    1SOL    HW3 4443   2.260   4.045   1.932  0.8001  0.1682  0.0531
    1SOL    MW4 4444   2.258   3.980   1.990 -0.1404 -0.0668 -0.2344
    1SOL     OW 4445   2.296   4.228   1.847  0.0490 -0.1951 -0.2793
    1SOL    HW2 4446   2.351   4.289   1.897 -1.7074  0.8204  0.4427
    1SOL    HW3 4447   2.297   4.263   1.758 -0.0196  0.2351 -0.1120
    1SOL    MW4 4448   2.304   4.241   1.842 -0.1917 -0.0043 -0.1619
    1SOL     OW 4449   2.475   4.390   1.991  0.2386 -0.0638  0.3619
    1SOL    HW2 4450   2.491   4.391   2.085 -1.7397 -1.9903  0.7614
    1SOL    HW3 4451   2.555   4.355   1.952  0.8067  0.0989  1.3851
    1SOL    MW4 4452   2.488   4.386   1.998  0.0525 -0.2966  0.5496
    1SOL     OW 4453   2.926   4.629   1.832 -0.1462 -0.5755 -0.8014
    1SOL    HW2 4454   3.002   4.670   1.873 -0.5368  0.0366 -0.6847
    1SOL    HW3 4455   2.925   4.540   1.868  0.8022 -0.7502 -1.1843
    1SOL    MW4 4456   2.936   4.622   1.842 -0.0725 -0.5174 -0.8366
    1SOL     OW 4457   2.704   0.152   1.921 -0.2478 -0.4044  0.4770
    1SOL    HW2 4458   2.724   0.137   2.013 -0.4963  0.4852  0.6789
    1SOL    HW3 4459   2.758   0.089   1.874 -0.2545 -0.9815  1.2405
    1SOL    MW4 4460   2.714   0.142   1.927 -0.2813 -0.3632  0.6045
    1SOL     OW 4461   2.711   0.397   1.837  0.6096 -0.0350 -0.1328
    1SOL    HW2 4462   2.794   0.443   1.848  0.8427 -0.5048  0.0402
    1SOL    HW3 4463   2.728   0.308   1.866  0.1799 -0.2607 -0.5687
    1SOL    MW4 4464   2.724   0.392   1.842  0.5836 -0.1268 -0.1675
    1SOL     OW 4465   2.935   0.532   1.955  0.2517 -0.8723  0.2583
    1SOL    HW2 4466   3.020   0.505   1.921  0.4040 -1.0095  0.7482
    1SOL    HW3 4467   2.918   0.617   1.913  0.8275 -0.6376  0.5008
    1SOL    MW4 4468   2.944   0.540   1.945  0.3479 -0.8594  0.3550
    1SOL     OW 4469   2.923   0.778   1.806  0.5526  0.0835 -0.5859
    1SOL    HW2 4470   2.997   0.797   1.863  0.2583  0.8304 -0.4500
    1SOL    HW3 4471   2.849   0.825   1.845  0.2348  0.1738 -1.2850
    1SOL    MW4 4472   2.923   0.787   1.818  0.4718  0.1939 -0.6603
    1SOL     OW 4473   2.722   0.873   1.971 -0.3446 -0.1246 -0.9678
    1SOL    HW2 4474   2.717   0.967   1.958 -1.3827 -0.1442 -0.7618
    1SOL    HW3 4475   2.633   0.842   1.953 -0.3822 -0.8699  0.4651
    1SOL    MW4 4476   2.710   0.881   1.967 -0.4864 -0.2255 -0.7516
    1SOL     OW 4477   2.691   1.138   1.891 -0.1406 -0.6646 -0.0652
    1SOL    HW2 4478   2.622   1.200   1.912  0.5218  0.2487 -0.5463
    1SOL    HW3 4479   2.694   1.137   1.795  1.6196  0.5593 -0.0438
    1SOL    MW4 4480   2.683   1.146   1.881  0.1788 -0.3825 -0.1259
    1SOL     OW 4481   2.923   1.253   1.999 -0.3848  0.4344 -0.4328
    1SOL    HW2 4482   2.914   1.345   1.975 -1.0989  0.3362 -0.5429
    1SOL    HW3 4483   2.843   1.211   1.966 -1.8304  0.4458  2.8579
    1SOL    MW4 4484   2.911   1.260   1.992 -0.6697  0.4231 -0.0132
    1SOL     OW 4485   2.905   1.515   1.895  0.0588 -0.0012  0.6251
    1SOL    HW2 4486   2.987   1.561   1.910  1.4978 -2.5170  0.9074
    1SOL    HW3 4487   2.897   1.511   1.800  0.5022 -0.1294  0.5910
    1SOL    MW4 4488   2.915   1.520   1.884  0.3073 -0.3500  0.6579
    1SOL     OW 4489   2.694   1.693   1.958  0.4290 -0.3139  0.1146
    1SOL    HW2 4490   2.766   1.634   1.936  0.0721 -0.5104 -0.5371
    1SOL    HW3 4491   2.616   1.648   1.925  0.1171  0.3646 -0.0672
    1SOL    MW4 4492   2.693   1.679   1.951  0.3412 -0.2502  0.0046
    1SOL     OW 4493   2.692   1.938   1.846  0.1591  0.0070 -0.1650
    1SOL    HW2 4494   2.774   1.982   1.867 -0.0358  0.3635 -0.1574
    1SOL    HW3 4495   2.693   1.859   1.900  0.4491  0.0591 -0.0924
    1SOL    MW4 4496   2.703   1.933   1.856  0.1714  0.0608 -0.1546
    1SOL     OW 4497   2.936   2.048   1.941  0.1808  0.2102  0.2393
    1SOL    HW2 4498   2.920   2.047   2.036 -1.0562  0.7666  0.0561
    1SOL    HW3 4499   3.011   1.991   1.929  0.9122  0.8367  1.6574
    1SOL    MW4 4500   2.944   2.041   1.952  0.1140  0.3662  0.4022
    1SOL     OW 4501   2.940   2.302   1.859  0.5133 -0.4654 -0.0818
    1SOL    HW2 4502   3.025   2.337   1.885  0.2514 -0.5809  0.9426
    1SOL    HW3 4503   2.947   2.208   1.876  1.1291 -0.9209 -2.5848
    1SOL    MW4 4504   2.953   2.294   1.865  0.5600 -0.5407 -0.2769
    1SOL     OW 4505   2.714   2.453   1.973 -0.0029  0.1227  0.0080
    1SOL    HW2 4506   2.720   2.539   1.932 -0.6504  0.0902 -0.1579
    1SOL    HW3 4507   2.791   2.406   1.941 -0.9689 -0.2072 -1.9066
    1SOL    MW4 4508   2.725   2.458   1.963 -0.2158  0.0751 -0.2667
    1SOL     OW 4509   2.733   2.713   1.868 -0.3423 -0.4864 -0.5349
    1SOL    HW2 4510   2.647   2.742   1.900  0.1326 -0.4356  0.7207
    1SOL    HW3 4511   2.720   2.701   1.773 -1.8514 -0.9054 -0.3030
    1SOL    MW4 4512   2.720   2.715   1.860 -0.4785 -0.5352 -0.3386
    1SOL     OW 4513   2.957   2.835   1.971  0.0626  0.0811 -0.1947
    1SOL    HW2 4514   2.942   2.925   1.942  0.2158  0.1478 -0.0622
    1SOL    HW3 4515   2.878   2.788   1.942 -1.2569  0.8109  2.0767
    1SOL    MW4 4516   2.944   2.841   1.964 -0.0913  0.1862  0.1225
    1SOL     OW 4517   2.919   3.115   1.867  0.1792 -0.0939  0.1512
    1SOL    HW2 4518   2.990   3.147   1.923  0.8450 -0.1741 -0.6334
    1SOL    HW3 4519   2.841   3.159   1.899  0.7001  0.5321  0.5704
    1SOL    MW4 4520   2.918   3.125   1.879  0.3359 -0.0215  0.1030
    1SOL     OW 4521   2.709   3.249   1.982  0.0945  0.0591 -0.0783
    1SOL    HW2 4522   2.700   3.335   1.942 -1.2198  0.1638  0.4294
    1SOL    HW3 4523   2.628   3.203   1.960  0.8417 -1.1129 -0.4710
    1SOL    MW4 4524   2.697   3.254   1.974  0.0193 -0.0813 -0.0632
    1SOL     OW 4525   2.707   3.498   1.842 -0.5441 -0.0731 -0.0279
    1SOL    HW2 4526   2.794   3.515   1.880 -0.7013  1.4306 -0.3214
    1SOL    HW3 4527   2.648   3.555   1.892 -1.0530  0.4287 -1.1995
    1SOL    MW4 4528   2.711   3.508   1.854 -0.6320  0.1917 -0.2213
    1SOL     OW 4529   2.952   3.583   1.959  0.0000 -0.0616  0.4771
    1SOL    HW2 4530   2.950   3.582   2.054  2.4748  0.6642  0.5566
    1SOL    HW3 4531   3.025   3.527   1.935  1.1530  1.9297 -0.8843
    1SOL    MW4 4532   2.961   3.576   1.968  0.4785  0.2966  0.3080
    1SOL     OW 4533   2.972   3.860   1.879 -0.2308  0.0310 -0.2021
    1SOL    HW2 4534   2.965   3.768   1.902 -2.7339  0.2490  0.0401
    1SOL    HW3 4535   2.986   3.860   1.784 -0.0468 -0.5945 -0.1744
    1SOL    MW4 4536   2.973   3.848   1.869 -0.5367 -0.0231 -0.1664
    1SOL     OW 4537   2.736   3.989   1.995 -0.0062  0.4372 -0.0173
    1SOL    HW2 4538   2.805   3.942   1.947 -0.7803  1.2694 -1.9842
    1SOL    HW3 4539   2.656   3.941   1.975 -0.4022  1.0595  0.0789
    1SOL    MW4 4540   2.735   3.976   1.986 -0.1605  0.6289 -0.2643
    1SOL     OW 4541   2.675   4.242   1.873 -0.6648  0.2118  0.1288
    1SOL    HW2 4542   2.683   4.148   1.887  0.3350  0.3676  0.6264
    1SOL    HW3 4543   2.699   4.254   1.781 -0.7630 -0.0214  0.0732
    1SOL    MW4 4544   2.680   4.231   1.862 -0.5457  0.2012  0.1872
    1SOL     OW 4545   2.928   4.372   1.978 -0.1498  0.2106 -0.3475
    1SOL    HW2 4546   2.918   4.394   2.070  0.5071  0.1106 -0.2488
    1SOL    HW3 4547   2.865   4.302   1.962  0.8749 -0.8959  0.4246
    1SOL    MW4 4548   2.918   4.366   1.988  0.0722  0.0510 -0.2326
    1SOL     OW 4549   3.376   0.020   1.879 -0.0321  0.3932  0.0997
    1SOL    HW2 4550   3.380  -0.073   1.899  1.2723  0.3710 -0.2261
    1SOL    HW3 4551   3.353   0.023   1.786  1.1719  0.3610 -0.2100
    1SOL    MW4 4552   3.373   0.008   1.869  0.2987  0.3858  0.0157
    1SOL     OW 4553   3.131   0.126   1.982  0.1606 -0.2243  0.2042
    1SOL    HW2 4554   3.132   0.111   2.077 -0.4139 -1.4603  0.0225
    1SOL    HW3 4555   3.219   0.101   1.953 -0.4425 -2.2557  0.0664
    1SOL    MW4 4556   3.143   0.120   1.991  0.0052 -0.6554  0.1621
    1SOL     OW 4557   3.146   0.373   1.845 -0.3730  0.4250  0.2679
    1SOL    HW2 4558   3.145   0.283   1.879 -1.2904  0.8282  1.3807
    1SOL    HW3 4559   3.154   0.364   1.751  0.4602 -0.8065  0.4566
    1SOL    MW4 4560   3.147   0.360   1.837 -0.3843  0.3157  0.4395
    1SOL     OW 4561   3.369   0.490   1.968 -0.3510 -0.5075  0.3263
    1SOL    HW2 4562   3.440   0.432   1.939 -1.1872 -1.3109 -0.1473
    1SOL    HW3 4563   3.290   0.452   1.930 -0.9413  0.8498  0.1631
    1SOL    MW4 4564   3.368   0.477   1.959 -0.5395 -0.4345  0.2424
    1SOL     OW 4565   3.360   0.734   1.867 -0.0056  0.2346 -0.0521
    1SOL    HW2 4566   3.281   0.777   1.901  0.1864  0.0112  0.6719
    1SOL    HW3 4567   3.360   0.647   1.908  0.3771  0.0686 -0.3987
    1SOL    MW4 4568   3.349   0.728   1.877  0.0701  0.1832 -0.0023
    1SOL     OW 4569   3.136   0.841   1.965 -0.4057 -0.4331  0.2889
    1SOL    HW2 4570   3.149   0.851   2.059 -0.8660 -0.0130  0.3109
    1SOL    HW3 4571   3.145   0.930   1.931 -2.1649 -0.2771  0.1740
    1SOL    MW4 4572   3.139   0.854   1.973 -0.6986 -0.3572  0.2767
    1SOL     OW 4573   3.123   1.108   1.869 -0.3770  0.4187 -0.2621
    1SOL    HW2 4574   3.202   1.153   1.901  0.0696 -0.6973  0.2010
    1SOL    HW3 4575   3.051   1.154   1.913  0.0220  1.2331 -0.4333
    1SOL    MW4 4576   3.124   1.120   1.879 -0.2654  0.3790 -0.2236
    1SOL     OW 4577   3.354   1.235   1.963 -0.2132  0.0202 -0.7781
    1SOL    HW2 4578   3.359   1.232   2.059 -0.0766  0.5347 -0.7686
    1SOL    HW3 4579   3.363   1.327   1.942  1.2955 -0.2456 -1.3588
    1SOL    MW4 4580   3.356   1.246   1.973  0.0038  0.0530 -0.8534
    1SOL     OW 4581   3.363   1.498   1.868  0.6236  0.4140  0.1092
    1SOL    HW2 4582   3.434   1.554   1.899 -0.0533  0.5612  1.4409
    1SOL    HW3 4583   3.283   1.546   1.891  0.0811  0.0799 -1.0430
    1SOL    MW4 4584   3.362   1.512   1.875  0.4628  0.3893  0.1329
    1SOL     OW 4585   3.147   1.634   1.963  0.2925 -0.2133  0.4262
    1SOL    HW2 4586   3.156   1.636   2.059 -2.0046 -1.4366  0.7035
    1SOL    HW3 4587   3.139   1.726   1.938  0.0400  0.0632  1.4976
    1SOL    MW4 4588   3.147   1.646   1.973 -0.0439 -0.3383  0.6042
    1SOL     OW 4589   3.153   1.889   1.855 -0.1415  0.3744 -0.0790
    1SOL    HW2 4590   3.213   1.963   1.863  2.2117 -1.3461 -1.2361
    1SOL    HW3 4591   3.146   1.874   1.760 -0.3083 -1.1054  0.1613
    1SOL    MW4 4592   3.160   1.897   1.843  0.1471 -0.0479 -0.1999
    1SOL     OW 4593   3.374   2.043   1.955  0.4719  0.2763  0.3020
    1SOL    HW2 4594   3.438   1.980   1.922  0.3055  0.8736 -1.2290
    1SOL    HW3 4595   3.398   2.126   1.913 -1.9128  0.2891 -1.1620
    1SOL    MW4 4596   3.385   2.046   1.945  0.1354  0.3569 -0.0932
    1SOL     OW 4597   3.386   2.293   1.828  0.2369  0.4587 -0.2352
    1SOL    HW2 4598   3.321   2.346   1.874  1.5392  0.8969  1.1411
    1SOL    HW3 4599   3.361   2.299   1.736 -1.4474  0.9084  0.2328
    1SOL    MW4 4600   3.374   2.301   1.822  0.1864  0.5758  0.0081
    1SOL     OW 4601   3.182   2.437   1.955  0.4132 -0.1175 -0.2571
    1SOL    HW2 4602   3.195   2.448   2.049  2.0379  0.1688 -0.4846
    1SOL    HW3 4603   3.174   2.526   1.921 -0.4667 -0.2333 -0.3507
    1SOL    MW4 4604   3.183   2.450   1.963  0.5112 -0.0949 -0.2995
    1SOL     OW 4605   3.170   2.698   1.860  0.2000 -0.1885 -0.2054
    1SOL    HW2 4606   3.103   2.757   1.895 -0.9671 -1.5874 -0.0108
    1SOL    HW3 4607   3.155   2.698   1.766  1.0874  0.8691 -0.3573
    1SOL    MW4 4608   3.159   2.706   1.852  0.1631 -0.2334 -0.1998
    1SOL     OW 4609   3.386   2.803   2.004 -0.1333  0.3041 -0.0870
    1SOL    HW2 4610   3.350   2.828   2.089 -0.1118 -0.0859  0.0362
    1SOL    HW3 4611   3.313   2.760   1.959 -0.9641  2.9267 -1.3254
    1SOL    MW4 4612   3.371   2.801   2.009 -0.2401  0.5987 -0.2339
    1SOL     OW 4613   3.405   3.043   1.899  0.0998 -0.4161 -0.0492
    1SOL    HW2 4614   3.484   3.087   1.932  0.8626 -0.8527 -1.2679
    1SOL    HW3 4615   3.404   2.959   1.944  0.3668 -0.4414 -0.0908
    1SOL    MW4 4616   3.415   3.038   1.909  0.2356 -0.4771 -0.2154
    1SOL     OW 4617   3.167   3.182   1.986  0.6553  0.5243 -0.3599
    1SOL    HW2 4618   3.176   3.162   2.080 -0.0954  0.1784 -0.3545
    1SOL    HW3 4619   3.242   3.138   1.945  0.6685  0.1941  0.0140
    1SOL    MW4 4620   3.178   3.173   1.993  0.5581  0.4349 -0.3099
    1SOL     OW 4621   3.160   3.425   1.872  0.3318 -0.1666  0.4755
    1SOL    HW2 4622   3.163   3.342   1.920 -0.2172 -0.1456  0.5439
    1SOL    HW3 4623   3.230   3.477   1.911  0.7801 -0.6553  0.3280
    1SOL    MW4 4624   3.170   3.421   1.884  0.3185 -0.2282  0.4652
    1SOL     OW 4625   3.361   3.580   1.985  0.3168 -0.1696  0.1990
    1SOL    HW2 4626   3.426   3.523   1.945  0.7280 -0.1461  0.8179
    1SOL    HW3 4627   3.374   3.665   1.942  0.4854 -0.2449  0.1018
    1SOL    MW4 4628   3.372   3.584   1.974  0.3932 -0.1767  0.2677
    1SOL     OW 4629   3.395   3.815   1.846  0.5098  0.3444 -0.0978
    1SOL    HW2 4630   3.338   3.873   1.896  2.0411  2.0224 -0.2332
    1SOL    HW3 4631   3.394   3.850   1.757  1.1624 -0.0655 -0.2717
    1SOL    MW4 4632   3.388   3.827   1.841  0.7980  0.5116 -0.1386
    1SOL     OW 4633   3.207   3.977   1.970  0.0041 -0.0679  0.1095
    1SOL    HW2 4634   3.180   3.993   2.061 -0.0510 -0.0468  0.0899
    1SOL    HW3 4635   3.129   3.938   1.929 -0.3814  1.0476 -0.2441
    1SOL    MW4 4636   3.193   3.974   1.977 -0.0541  0.0818  0.0603
    1SOL     OW 4637   3.171   4.245   1.839  0.5762 -0.2286  0.1951
    1SOL    HW2 4638   3.192   4.153   1.855  0.3905 -0.1715  0.7728
    1SOL    HW3 4639   3.092   4.262   1.891  1.0532  0.4608  0.7115
    1SOL    MW4 4640   3.163   4.235   1.848  0.6146 -0.1302  0.3394
    1SOL     OW 4641   3.391   4.398   1.914 -0.2031 -0.2404  0.0315
    1SOL    HW2 4642   3.461   4.348   1.872 -1.2373  0.4420 -2.5870
    1SOL    HW3 4643   3.312   4.348   1.896 -0.7290  0.3020  0.8117
    1SOL    MW4 4644   3.390   4.385   1.906 -0.4091 -0.0792 -0.2111
    1SOL     OW 4645   3.808   4.630   1.865  0.6088  0.1374 -0.1454
    1SOL    HW2 4646   3.798   4.543   1.903  0.3673  0.1440 -0.1902
    1SOL    HW3 4647   3.754   4.686   1.919 -0.7143 -0.0661 -1.2173
    1SOL    MW4 4648   3.800   4.626   1.877  0.4027  0.1116 -0.2928
    1SOL     OW 4649   3.624   0.106   1.998  0.8259 -0.1750 -0.2120
    1SOL    HW2 4650   3.616   0.107   2.094  1.0974 -0.5374 -0.1840
    1SOL    HW3 4651   3.536   0.084   1.967  0.6211  0.4338 -0.0639
    1SOL    MW4 4652   3.611   0.103   2.007  0.8345 -0.1425 -0.1888
    1SOL     OW 4653   3.579   0.350   1.871  0.6506  0.1488  0.1212
    1SOL    HW2 4654   3.604   0.275   1.925  1.4788 -0.7847 -1.5318
    1SOL    HW3 4655   3.590   0.320   1.781 -0.5627  1.7349 -0.5899
    1SOL    MW4 4656   3.584   0.336   1.866  0.6001  0.2349 -0.1907
    1SOL     OW 4657   3.805   0.482   1.962 -0.3778  0.3316 -0.2024
    1SOL    HW2 4658   3.820   0.573   1.939 -0.6804  0.5845  0.5884
    1SOL    HW3 4659   3.723   0.459   1.917 -0.4657  0.5450 -0.1520
    1SOL    MW4 4660   3.796   0.491   1.953 -0.4294  0.3932 -0.0913
    1SOL     OW 4661   3.826   0.746   1.885  0.8868  0.0910  0.5312
    1SOL    HW2 4662   3.746   0.791   1.909  0.7767 -0.2738  0.8533
    1SOL    HW3 4663   3.829   0.750   1.789  0.2078 -0.3631  0.4881
    1SOL    MW4 4664   3.816   0.752   1.875  0.7827 -0.0170  0.5680
    1SOL     OW 4665   3.585   0.867   1.983 -0.6053  0.2826 -0.0973
    1SOL    HW2 4666   3.593   0.945   1.929  0.1757 -1.1814 -2.1540
    1SOL    HW3 4667   3.521   0.812   1.937 -0.0397 -0.9164  0.5196
    1SOL    MW4 4668   3.578   0.870   1.970 -0.4277 -0.0687 -0.2872
    1SOL     OW 4669   3.595   1.135   1.865 -0.0714 -0.4954 -0.1892
    1SOL    HW2 4670   3.516   1.166   1.908 -0.2141 -0.1429 -0.7044
    1SOL    HW3 4671   3.590   1.170   1.776 -0.4267 -2.2709 -0.9073
    1SOL    MW4 4672   3.584   1.143   1.859 -0.1371 -0.6833 -0.3519
    1SOL     OW 4673   3.833   1.231   1.980  0.3597  0.1529 -0.4906
    1SOL    HW2 4674   3.830   1.254   2.073  0.3273  1.1820 -0.7373
    1SOL    HW3 4675   3.754   1.178   1.966  0.4205 -0.0929  0.0932
    1SOL    MW4 4676   3.822   1.227   1.991  0.3633  0.2563 -0.4461
    1SOL     OW 4677   3.823   1.493   1.878 -0.8076  0.3061  0.1817
    1SOL    HW2 4678   3.897   1.532   1.925 -1.9619  2.0740  0.5684
    1SOL    HW3 4679   3.811   1.407   1.919  0.0340  0.6609  1.1831
    1SOL    MW4 4680   3.831   1.487   1.890 -0.8490  0.5862  0.3648
    1SOL     OW 4681   3.608   1.635   1.954  0.4903  0.0704  0.2170
    1SOL    HW2 4682   3.606   1.711   1.897  1.1425  0.9347  1.3492
    1SOL    HW3 4683   3.687   1.587   1.929  0.2480 -0.0832 -0.2717
    1SOL    MW4 4684   3.618   1.638   1.943  0.5443  0.1643  0.3020
    1SOL     OW 4685   3.589   1.886   1.846  0.3647 -0.3362  0.0434
    1SOL    HW2 4686   3.666   1.938   1.871  0.2701  0.0552 -0.4783
    1SOL    HW3 4687   3.583   1.896   1.751  0.8949 -2.0571 -0.1889
    1SOL    MW4 4688   3.599   1.894   1.837  0.4225 -0.5115 -0.0561
    1SOL     OW 4689   3.810   2.030   1.940  0.1897 -0.2515  0.2532
    1SOL    HW2 4690   3.895   1.991   1.916  0.4608 -0.2315  1.1664
    1SOL    HW3 4691   3.806   2.111   1.890 -0.1588 -1.1937 -1.2939
    1SOL    MW4 4692   3.821   2.036   1.930  0.1795 -0.3734  0.1695
    1SOL     OW 4693   3.791   2.293   1.853 -0.0202 -0.3550  0.1397
    1SOL    HW2 4694   3.873   2.341   1.868  0.5463 -1.2945  0.1350
    1SOL    HW3 4695   3.724   2.345   1.897  0.7097 -0.0048  0.8543
    1SOL    MW4 4696   3.793   2.306   1.861  0.1509 -0.4327  0.2334
    1SOL     OW 4697   3.596   2.437   1.969 -0.6751 -0.5276 -0.2886
    1SOL    HW2 4698   3.601   2.531   1.954  0.8682 -0.4921  0.3507
    1SOL    HW3 4699   3.528   2.407   1.909 -0.5641  0.8544 -1.1290
    1SOL    MW4 4700   3.588   2.445   1.959 -0.4566 -0.3405 -0.3152
    1SOL     OW 4701   3.584   2.693   1.865  0.2326  0.1167 -0.1134
    1SOL    HW2 4702   3.660   2.749   1.881  0.8039 -0.7579  0.2919
    1SOL    HW3 4703   3.513   2.734   1.913  0.3792  1.0962 -0.7205
    1SOL    MW4 4704   3.585   2.706   1.873  0.3273  0.1304 -0.1400
    1SOL     OW 4705   3.799   2.825   1.953 -0.0288  0.0157  0.0574
    1SOL    HW2 4706   3.789   2.821   2.048  0.4385 -0.3829  0.0939
    1SOL    HW3 4707   3.834   2.913   1.937  0.7014 -0.2120  0.3400
    1SOL    MW4 4708   3.802   2.836   1.964  0.1292 -0.0670  0.0995
    1SOL     OW 4709   3.869   3.080   1.868 -0.5005  0.1231  0.0462
    1SOL    HW2 4710   3.785   3.121   1.888 -1.0257 -0.6106 -0.5925
    1SOL    HW3 4711   3.867   3.065   1.773  2.0227  3.7309 -0.6787
    1SOL    MW4 4712   3.858   3.083   1.858 -0.2367  0.5023 -0.1338
    1SOL     OW 4713   3.629   3.193   1.981  0.0419 -0.2112  0.3064
    1SOL    HW2 4714   3.623   3.199   2.077 -0.5558 -1.2685  0.3379
    1SOL    HW3 4715   3.619   3.283   1.951 -2.6493 -0.2165  1.0842
    1SOL    MW4 4716   3.627   3.206   1.990 -0.3917 -0.3514  0.4132
    1SOL     OW 4717   3.602   3.450   1.900  0.0491 -0.1091  0.2742
    1SOL    HW2 4718   3.675   3.506   1.926  0.2573 -0.3904  0.3084
    1SOL    HW3 4719   3.622   3.424   1.810 -0.7377  0.9692 -0.2188
    1SOL    MW4 4720   3.614   3.454   1.891 -0.0274 -0.0043  0.2136
    1SOL     OW 4721   3.826   3.624   1.953 -0.2848  0.4207 -0.2986
    1SOL    HW2 4722   3.910   3.587   1.925 -0.6226  0.1386 -0.9397
    1SOL    HW3 4723   3.825   3.712   1.915 -0.5939  0.1611 -0.9014
    1SOL    MW4 4724   3.837   3.631   1.944 -0.3703  0.3493 -0.4627
    1SOL     OW 4725   3.823   3.864   1.848 -0.0289  0.2225  0.3333
    1SOL    HW2 4726   3.757   3.923   1.886 -0.2136 -0.0175  0.3860
    1SOL    HW3 4727   3.808   3.868   1.754  0.0646  0.3837  0.3241
    1SOL    MW4 4728   3.813   3.872   1.841 -0.0408  0.2120  0.3389
    1SOL     OW 4729   3.601   3.997   1.965  0.1748  0.1157 -0.0989
    1SOL    HW2 4730   3.577   3.993   2.058 -1.8489  2.3348 -0.4856
    1SOL    HW3 4731   3.557   3.922   1.925 -0.5959  0.3062  0.3858
    1SOL    MW4 4732   3.592   3.987   1.972 -0.1938  0.4337 -0.0861
    1SOL     OW 4733   3.596   4.231   1.806  0.1887 -0.1343 -0.1093
    1SOL    HW2 4734   3.676   4.267   1.844  0.4771 -0.3790 -0.4781
    1SOL    HW3 4735   3.580   4.151   1.856 -0.3765  0.4180  0.6195
    1SOL    MW4 4736   3.604   4.225   1.818  0.1523 -0.0939 -0.0616
    1SOL     OW 4737   3.811   4.369   1.937  0.7852 -0.3873  0.4103
    1SOL    HW2 4738   3.814   4.359   2.032  0.8313 -1.7028  0.2866
    1SOL    HW3 4739   3.898   4.340   1.907 -0.2050 -2.8380 -0.2496
    1SOL    MW4 4740   3.823   4.364   1.945  0.6604 -0.8845  0.3068
    1SOL     OW 4741   4.237   4.633   1.877  0.0343  0.5261  0.1389
    1SOL    HW2 4742   4.170   4.690   1.915 -0.2005  0.5454 -0.3024
    1SOL    HW3 4743   4.318   4.659   1.920 -0.6128 -1.0426  2.3526
    1SOL    MW4 4744   4.239   4.644   1.888 -0.0820  0.3214  0.3728
    1SOL     OW 4745   4.033   0.124   1.950  0.1005  0.5021  0.2954
    1SOL    HW2 4746   4.043   0.099   2.042  0.1076  0.1523  0.2030
    1SOL    HW3 4747   3.961   0.069   1.918  0.2729  0.4298  0.0263
    1SOL    MW4 4748   4.025   0.113   1.958  0.1245  0.4464  0.2478
    1SOL     OW 4749   4.005   0.364   1.824 -0.4415 -0.2285 -0.0234
    1SOL    HW2 4750   4.012   0.272   1.851  0.5614  0.2612  1.4380
    1SOL    HW3 4751   3.942   0.402   1.886 -0.3834  0.2212 -0.2412
    1SOL    MW4 4752   3.997   0.357   1.835 -0.3014 -0.1045  0.1405
    1SOL     OW 4753   4.259   0.435   1.919 -0.2531  0.2899 -0.4431
    1SOL    HW2 4754   4.268   0.421   2.013 -0.0637 -0.3074 -0.5480
    1SOL    HW3 4755   4.175   0.394   1.896  0.7648 -1.5788 -0.9209
    1SOL    MW4 4756   4.249   0.428   1.928 -0.0935 -0.0355 -0.5199
    1SOL     OW 4757   4.272   0.726   1.867  0.4681 -0.5110 -0.4586
    1SOL    HW2 4758   4.265   0.630   1.872 -1.2601 -0.3908 -0.2764
    1SOL    HW3 4759   4.291   0.744   1.775 -0.9879 -0.9443 -0.8556
    1SOL    MW4 4760   4.274   0.716   1.855  0.0477 -0.5523 -0.4867
    1SOL     OW 4761   4.049   0.848   2.009  0.0685 -0.2956 -0.4329
    1SOL    HW2 4762   4.128   0.806   1.975 -0.3760 -1.1887 -0.3665
    1SOL    HW3 4763   3.978   0.810   1.958 -0.4216 -0.2822  0.2318
    1SOL    MW4 4764   4.050   0.838   1.998 -0.0553 -0.4116 -0.3362
    1SOL     OW 4765   4.059   1.098   1.889 -0.2072  0.1549 -0.4490
    1SOL    HW2 4766   4.045   1.009   1.921  2.9464 -0.0864  0.3465
    1SOL    HW3 4767   3.985   1.148   1.924 -1.1537 -1.8026  0.4184
    1SOL    MW4 4768   4.047   1.093   1.898  0.0834 -0.1353 -0.2296
    1SOL     OW 4769   4.263   1.275   1.982 -0.1017  0.1047  0.2359
    1SOL    HW2 4770   4.266   1.266   2.077 -1.6894  1.2387  0.4105
    1SOL    HW3 4771   4.201   1.207   1.953 -0.4692  0.4865  0.1205
    1SOL    MW4 4772   4.255   1.265   1.991 -0.3591  0.3047  0.2435
    1SOL     OW 4773   4.282   1.531   1.885 -0.1359 -0.2423  0.4610
    1SOL    HW2 4774   4.261   1.443   1.916 -0.0027 -0.4180  0.0550
    1SOL    HW3 4775   4.265   1.528   1.791  0.7660 -0.0979  0.2931
    1SOL    MW4 4776   4.277   1.519   1.877  0.0010 -0.2465  0.3853
    1SOL     OW 4777   4.052   1.641   1.985 -0.5269  0.0025 -0.1979
    1SOL    HW2 4778   4.057   1.657   2.080 -1.5101 -0.4424 -0.0685
    1SOL    HW3 4779   4.136   1.601   1.964  0.4039  1.7314  0.1696
    1SOL    MW4 4780   4.064   1.638   1.995 -0.5336  0.1719 -0.1323
    1SOL     OW 4781   4.035   1.896   1.882 -0.1596 -0.0025  0.4784
    1SOL    HW2 4782   4.051   1.809   1.919  0.9433  0.1870  0.4661
    1SOL    HW3 4783   4.043   1.884   1.788  1.4871  0.3943  0.5497
    1SOL    MW4 4784   4.038   1.883   1.875  0.2036  0.0749  0.4863
    1SOL     OW 4785   4.265   2.043   1.961  0.1377  0.2987  0.1310
    1SOL    HW2 4786   4.258   2.025   2.054  0.8945 -0.6662  0.0120
    1SOL    HW3 4787   4.181   2.014   1.924 -0.2061  0.7927  0.5179
    1SOL    MW4 4788   4.253   2.037   1.968  0.1922  0.2365  0.1663
    1SOL     OW 4789   4.281   2.306   1.858  0.0480 -0.3719 -0.0841
    1SOL    HW2 4790   4.290   2.216   1.887  0.3166 -0.3982 -0.2411
    1SOL    HW3 4791   4.364   2.348   1.883  0.4803 -0.5150 -1.2112
    1SOL    MW4 4792   4.293   2.300   1.865  0.1402 -0.3943 -0.2536
    1SOL     OW 4793   4.048   2.441   1.940 -0.2381 -0.3409 -0.0116
    1SOL    HW2 4794   4.055   2.443   2.035  0.8868  0.2356 -0.1028
    1SOL    HW3 4795   4.134   2.413   1.909  0.0657  1.5158 -0.9288
    1SOL    MW4 4796   4.060   2.438   1.948 -0.0496 -0.0198 -0.1445
    1SOL     OW 4797   4.026   2.705   1.866 -0.3271  0.0135  0.4932
    1SOL    HW2 4798   4.030   2.614   1.896 -1.1223 -0.0727  0.3459
    1SOL    HW3 4799   3.944   2.739   1.903 -0.5062  0.3862 -0.2321
    1SOL    MW4 4800   4.016   2.697   1.875 -0.4554  0.0515  0.3779
    1SOL     OW 4801   4.258   2.810   1.987 -0.4514 -0.1941 -0.2631
    1SOL    HW2 4802   4.218   2.838   2.070 -0.3831 -0.7337 -0.0523
    1SOL    HW3 4803   4.183   2.793   1.930 -0.5016 -0.0743 -0.2352
    1SOL    MW4 4804   4.242   2.812   1.990 -0.4492 -0.2494 -0.2316
    1SOL     OW 4805   4.262   3.082   1.911 -0.1360 -0.5289  0.0466
    1SOL    HW2 4806   4.187   3.130   1.948  0.1482 -0.7227  0.9041
    1SOL    HW3 4807   4.241   2.990   1.927  0.8006 -0.5363  1.3280
    1SOL    MW4 4808   4.249   3.077   1.918  0.0253 -0.5553  0.3288
    1SOL     OW 4809   4.049   3.228   2.018 -0.3259  0.0639 -0.2637
    1SOL    HW2 4810   4.039   3.224   2.113  0.2390  0.7429 -0.1732
    1SOL    HW3 4811   3.976   3.176   1.984 -1.3478  0.9695  0.5014
    1SOL    MW4 4812   4.038   3.221   2.026 -0.3862  0.2730 -0.1509
    1SOL     OW 4813   4.056   3.470   1.869  0.4476 -0.2305 -0.0194
    1SOL    HW2 4814   4.126   3.516   1.915 -0.4649 -0.4520  1.6083
    1SOL    HW3 4815   4.056   3.382   1.906  0.7760 -0.9189 -1.6146
    1SOL    MW4 4816   4.066   3.464   1.880  0.3700 -0.3505 -0.0150
    1SOL     OW 4817   4.290   3.569   1.967 -0.3016  0.1274 -0.8217
    1SOL    HW2 4818   4.298   3.657   1.930 -0.4846  0.6239  0.2952
    1SOL    HW3 4819   4.355   3.517   1.920 -0.0968  0.8920 -1.3951
    1SOL    MW4 4820   4.300   3.574   1.956 -0.2990  0.2935 -0.7498
    1SOL     OW 4821   4.255   3.836   1.856  0.0136  0.4450  0.1371
    1SOL    HW2 4822   4.342   3.866   1.882  0.4536 -0.4032 -0.3407
    1SOL    HW3 4823   4.255   3.841   1.760 -0.0166 -0.7689  0.0630
    1SOL    MW4 4824   4.266   3.841   1.846  0.0682  0.1731  0.0643
    1SOL     OW 4825   4.061   4.011   1.942 -0.1681  0.1891 -0.0768
    1SOL    HW2 4826   4.122   3.950   1.901 -0.6070 -0.8123  0.7373
    1SOL    HW3 4827   3.975   3.970   1.931 -0.2627 -0.2146  2.0280
    1SOL    MW4 4828   4.057   3.997   1.935 -0.2384  0.0038  0.3083
    1SOL     OW 4829   4.065   4.265   1.856  0.0818  0.2602  0.3018
    1SOL    HW2 4830   4.151   4.295   1.885 -0.4877  1.1938  1.0615
    1SOL    HW3 4831   4.060   4.174   1.885  0.3473  0.5621  1.3061
    1SOL    MW4 4832   4.075   4.257   1.863  0.0420  0.4239  0.5344
    1SOL     OW 4833   4.300   4.367   1.938 -0.7017  0.2350  0.1497
    1SOL    HW2 4834   4.293   4.363   2.033  0.0311  1.2927  0.2642
    1SOL    HW3 4835   4.279   4.458   1.916  1.8547  0.7185 -0.4366
    1SOL    MW4 4836   4.296   4.379   1.947 -0.2675  0.4382  0.0874
    1SOL     OW 4837   0.264   4.609   2.325 -0.0188 -0.1244  0.3589
    1SOL    HW2 4838   0.250   4.612   2.420  1.6437  1.4960  0.5882
    1SOL    HW3 4839   0.344   4.660   2.311  1.0062 -2.1826 -1.6944
    1SOL    MW4 4840   0.273   4.616   2.336  0.3358 -0.1822  0.1180
    1SOL     OW 4841   0.028   0.085   2.240  0.2070 -0.3065 -0.0462
    1SOL    HW2 4842   0.114   0.057   2.271 -0.0372 -1.0796 -0.0538
    1SOL    HW3 4843   0.022   0.050   2.151  0.5528  1.1608 -0.6634
    1SOL    MW4 4844   0.038   0.076   2.232  0.2213 -0.2149 -0.1285
    1SOL     OW 4845   4.473   0.343   2.346  0.3178 -0.5646  0.4238
    1SOL    HW2 4846   4.560   0.374   2.322 -0.9718  2.1465 -1.0029
    1SOL    HW3 4847   4.467   0.255   2.309  1.9128 -0.2085 -0.7151
    1SOL    MW4 4848   4.483   0.336   2.338  0.3581 -0.1599  0.0851
    1SOL     OW 4849   0.225   0.429   2.230 -0.3665  0.4209 -0.0885
    1SOL    HW2 4850   0.311   0.392   2.252 -1.1498 -1.3415  0.1198
    1SOL    HW3 4851   0.240   0.477   2.148  0.5328 -0.9928 -0.7748
    1SOL    MW4 4852   0.238   0.430   2.222 -0.3512  0.0019 -0.1516
    1SOL     OW 4853   0.179   0.717   2.342 -0.2867  0.0161 -0.0694
    1SOL    HW2 4854   0.203   0.718   2.435  1.3606  0.5919 -0.4767
    1SOL    HW3 4855   0.184   0.625   2.317  0.5583  0.0119  0.0998
    1SOL    MW4 4856   0.183   0.705   2.351  0.0421  0.0916 -0.1009
    1SOL     OW 4857   0.006   0.896   2.240 -0.0708 -0.1177  0.1076
    1SOL    HW2 4858   0.063   0.826   2.274 -2.5705 -1.5667  1.4694
    1SOL    HW3 4859   0.006   0.883   2.145 -0.0776 -1.6588  0.2967
    1SOL    MW4 4860   0.014   0.885   2.232 -0.4015 -0.5122  0.3119
    1SOL     OW 4861   0.033   1.169   2.348  0.1338  0.1673 -0.1880
    1SOL    HW2 4862   0.028   1.170   2.443  1.6971  1.6812 -0.0936
    1SOL    HW3 4863   0.052   1.078   2.326  0.6146 -0.0282  1.0025
    1SOL    MW4 4864   0.035   1.158   2.358  0.4034  0.3413 -0.0184
    1SOL     OW 4865   0.264   1.271   2.267  0.8202 -0.0719  0.2802
    1SOL    HW2 4866   0.174   1.246   2.290  1.0997 -0.4946  0.9447
    1SOL    HW3 4867   0.266   1.269   2.171  0.4120 -1.1489  0.2808
    1SOL    MW4 4868   0.252   1.267   2.258  0.8032 -0.2698  0.3679
    1SOL     OW 4869   0.235   1.549   2.348  0.1328  0.1343 -0.0131
    1SOL    HW2 4870   0.235   1.537   2.443 -0.6547  1.3876  0.1592
    1SOL    HW3 4871   0.255   1.463   2.312  0.5659 -0.3144  1.2974
    1SOL    MW4 4872   0.238   1.536   2.356  0.0860  0.2404  0.1824
    1SOL     OW 4873   4.487   1.659   2.290 -0.0619 -0.0855 -0.4211
    1SOL    HW2 4874   4.503   1.747   2.321 -1.0820 -0.0011 -0.0954
    1SOL    HW3 4875   4.570   1.613   2.301 -0.2420  0.0853  1.9365
    1SOL    MW4 4876   4.500   1.664   2.295 -0.2202 -0.0519 -0.0668
    1SOL     OW 4877   0.036   1.943   2.345  0.3379  0.3677 -0.0347
    1SOL    HW2 4878  -0.042   1.970   2.297  0.5603  0.7349 -0.1922
    1SOL    HW3 4879   0.107   1.995   2.307  0.2564  1.8117  1.7462
    1SOL    MW4 4880   0.035   1.953   2.334  0.3564  0.6068  0.1793
    1SOL     OW 4881   0.253   2.097   2.250  0.0673  0.0634  0.4803
    1SOL    HW2 4882   0.320   2.044   2.293 -0.5198 -0.5858  0.6016
    1SOL    HW3 4883   0.261   2.075   2.157  0.1869  0.1720  0.4646
    1SOL    MW4 4884   0.263   2.087   2.244  0.0056 -0.0081  0.4940
    1SOL     OW 4885   0.253   2.348   2.343 -0.0215  0.1554  0.0134
    1SOL    HW2 4886   0.265   2.348   2.438  0.6777 -0.2460 -0.0756
    1SOL    HW3 4887   0.241   2.256   2.320 -1.7160  0.3889 -0.1012
    1SOL    MW4 4888   0.253   2.336   2.352 -0.1529  0.1333 -0.0136
    1SOL     OW 4889   0.002   2.435   2.243 -0.0785 -0.1004  0.0698
    1SOL    HW2 4890  -0.026   2.523   2.268 -0.8215 -0.4315  0.3923
    1SOL    HW3 4891   0.086   2.423   2.287 -0.2793  0.2019  0.5356
    1SOL    MW4 4892   0.009   2.445   2.252 -0.2030 -0.1040  0.1738
    1SOL     OW 4893   4.441   2.710   2.335  0.0006 -0.3344 -0.1208
    1SOL    HW2 4894   4.448   2.709   2.430 -0.7700  0.0130 -0.0599
    1SOL    HW3 4895   4.524   2.749   2.306  0.0384  0.0001  0.4280
    1SOL    MW4 4896   4.453   2.715   2.343 -0.0963 -0.2441 -0.0405
    1SOL     OW 4897   0.190   2.823   2.254  0.3655  0.2673  0.0662
    1SOL    HW2 4898   0.275   2.786   2.276 -0.3971 -1.7071 -0.2630
    1SOL    HW3 4899   0.184   2.815   2.159  0.1828  1.2470 -0.0119
    1SOL    MW4 4900   0.200   2.817   2.245  0.2408  0.1359  0.0124
    1SOL     OW 4901   0.231   3.093   2.390 -0.2877  0.5436  0.0571
    1SOL    HW2 4902   0.156   3.133   2.346 -0.6282 -0.4271 -0.2721
    1SOL    HW3 4903   0.228   3.001   2.363  0.3576  0.2499  0.9556
    1SOL    MW4 4904   0.221   3.086   2.380 -0.2474  0.3769  0.1321
    1SOL     OW 4905   0.011   3.216   2.268  0.1789 -0.1265 -0.0994
    1SOL    HW2 4906   0.020   3.309   2.288 -0.2030  0.0335 -0.6669
    1SOL    HW3 4907   0.006   3.212   2.172 -1.4331 -0.5711 -0.0183
    1SOL    MW4 4908   0.011   3.228   2.258 -0.0842 -0.1640 -0.1636
    1SOL     OW 4909   0.032   3.500   2.313  0.2263  0.0186  0.2856
    1SOL    HW2 4910   0.033   3.475   2.406 -0.6451 -1.1441  0.0068
    1SOL    HW3 4911  -0.056   3.535   2.299 -0.3759 -1.7243 -0.5492
    1SOL    MW4 4912   0.021   3.501   2.324  0.0319 -0.3650  0.1385
    1SOL     OW 4913   0.252   3.625   2.223  0.2166 -0.4206 -0.3147
    1SOL    HW2 4914   0.310   3.583   2.286 -1.5075  0.2584  1.8046
    1SOL    HW3 4915   0.165   3.592   2.246 -0.3292 -0.9245 -3.0030
    1SOL    MW4 4916   0.248   3.615   2.235 -0.0829 -0.3974 -0.3898
    1SOL     OW 4917   0.230   3.890   2.293 -0.1239 -0.0364 -0.2070
    1SOL    HW2 4918   0.141   3.914   2.267  0.2632  0.9954 -0.6202
    1SOL    HW3 4919   0.241   3.801   2.260 -0.6194  0.2402 -1.1352
    1SOL    MW4 4920   0.220   3.881   2.285 -0.1382  0.1361 -0.3839
    1SOL     OW 4921   4.480   3.965   2.216  0.3460  0.2581 -0.1023
    1SOL    HW2 4922   4.494   4.053   2.252 -0.5566  0.0966  0.6536
    1SOL    HW3 4923   4.479   3.978   2.121  0.1199  1.0786  0.0085
    1SOL    MW4 4924   4.482   3.979   2.208  0.1969  0.3450  0.0119
    1SOL     OW 4925   0.002   4.217   2.329 -0.2479 -0.1504  0.4627
    1SOL    HW2 4926   0.001   4.235   2.423  0.9830  1.3706  0.2062
    1SOL    HW3 4927   0.078   4.266   2.296  0.7976 -2.6141 -0.9433
    1SOL    MW4 4928   0.012   4.226   2.337  0.0525 -0.2742  0.2434
    1SOL     OW 4929   0.217   4.355   2.244  0.0170  0.7489 -0.6390
    1SOL    HW2 4930   0.296   4.313   2.279 -0.0520 -0.2820 -1.6689
    1SOL    HW3 4931   0.231   4.448   2.259  0.0315  0.3582  2.0008
    1SOL    MW4 4932   0.229   4.361   2.251  0.0098  0.5612 -0.4265
    1SOL     OW 4933   0.731   4.613   2.354 -0.4208  0.6428 -0.1481
    1SOL    HW2 4934   0.720   4.632   2.447  0.0057  0.3332 -0.0331
    1SOL    HW3 4935   0.802   4.670   2.326  0.9436 -0.8275  0.2234
    1SOL    MW4 4936   0.739   4.623   2.363 -0.1845  0.4082 -0.0837
    1SOL     OW 4937   0.487   0.076   2.247 -0.1598  0.2251 -0.4948
    1SOL    HW2 4938   0.570   0.038   2.277 -1.0533 -0.9945  0.5138
    1SOL    HW3 4939   0.483   0.053   2.154  0.1397 -0.6576 -0.3018
    1SOL    MW4 4940   0.498   0.068   2.238 -0.2382 -0.0523 -0.3364
    1SOL     OW 4941   0.456   0.353   2.314  0.0137  0.0976  0.0488
    1SOL    HW2 4942   0.462   0.348   2.409 -2.1672 -1.2388  0.1543
    1SOL    HW3 4943   0.484   0.267   2.284 -0.6542  0.0561 -0.4472
    1SOL    MW4 4944   0.461   0.341   2.323 -0.3622 -0.0842 -0.0026
    1SOL     OW 4945   0.687   0.510   2.250 -0.7059  0.1145 -0.7744
    1SOL    HW2 4946   0.677   0.601   2.280  0.8041  0.4726 -1.3074
    1SOL    HW3 4947   0.602   0.470   2.267 -1.5033  1.7196 -0.8290
    1SOL    MW4 4948   0.675   0.517   2.256 -0.6119  0.3735 -0.8523
    1SOL     OW 4949   0.656   0.782   2.358 -0.0330 -0.2631  0.4522
    1SOL    HW2 4950   0.657   0.795   2.453 -0.6375 -1.5886  0.6489
    1SOL    HW3 4951   0.568   0.806   2.331 -0.1414 -0.7807  0.3515
    1SOL    MW4 4952   0.645   0.787   2.367 -0.1271 -0.5063  0.4649
    1SOL     OW 4953   0.414   0.822   2.265 -0.4448 -0.0682  0.3248
    1SOL    HW2 4954   0.422   0.908   2.305 -0.7347  0.0730  0.0832
    1SOL    HW3 4955   0.331   0.787   2.298 -1.3050  0.5697 -1.1267
    1SOL    MW4 4956   0.404   0.829   2.274 -0.5966  0.0346  0.1018
    1SOL     OW 4957   0.442   1.077   2.364  0.3303 -0.2676 -0.0081
    1SOL    HW2 4958   0.430   1.099   2.456  1.8718 -1.3699  0.4860
    1SOL    HW3 4959   0.380   1.133   2.317 -0.0126  0.7709  1.6464
    1SOL    MW4 4960   0.432   1.088   2.370  0.4885 -0.2760  0.2756
    1SOL     OW 4961   0.669   1.235   2.260  0.3261  0.0911  0.6398
    1SOL    HW2 4962   0.656   1.320   2.302 -0.9140  0.0345  0.3994
    1SOL    HW3 4963   0.606   1.177   2.304  1.0069 -0.6488  0.6493
    1SOL    MW4 4964   0.659   1.239   2.271  0.2523 -0.0139  0.6094
    1SOL     OW 4965   0.695   1.492   2.342 -0.0326 -0.5123  0.0661
    1SOL    HW2 4966   0.673   1.509   2.433 -0.5676 -1.8833  0.2086
    1SOL    HW3 4967   0.772   1.546   2.325 -1.7846  2.1721  0.4037
    1SOL    MW4 4968   0.702   1.501   2.352 -0.3343 -0.3390  0.1295
    1SOL     OW 4969   0.486   1.684   2.275 -0.7906  0.4532 -0.3137
    1SOL    HW2 4970   0.558   1.621   2.282 -1.9498 -0.9717 -0.8544
    1SOL    HW3 4971   0.410   1.636   2.307 -1.5762  1.8185 -0.1109
    1SOL    MW4 4972   0.486   1.669   2.280 -1.0472  0.4454 -0.3583
    1SOL     OW 4973   0.468   1.946   2.367 -0.2712  0.1209 -0.4199
    1SOL    HW2 4974   0.534   1.989   2.312 -0.6668  0.4823 -0.6242
    1SOL    HW3 4975   0.473   1.854   2.343  1.1544 -0.0827  0.6129
    1SOL    MW4 4976   0.477   1.940   2.356 -0.1353  0.1416 -0.3107
    1SOL     OW 4977   0.663   2.094   2.232 -0.0866 -0.0442 -0.2021
    1SOL    HW2 4978   0.719   2.034   2.281 -2.2992 -1.0155  1.2364
    1SOL    HW3 4979   0.676   2.179   2.274  1.7894  0.1752 -1.1722
    1SOL    MW4 4980   0.672   2.097   2.244 -0.1310 -0.1435 -0.1404
    1SOL     OW 4981   0.683   2.361   2.341  0.5227  0.3364  0.0643
    1SOL    HW2 4982   0.688   2.359   2.437  0.4180  1.6553  0.1070
    1SOL    HW3 4983   0.768   2.395   2.313  0.7630 -0.5979 -0.3383
    1SOL    MW4 4984   0.695   2.365   2.350  0.5406  0.3872  0.0169
    1SOL     OW 4985   0.473   2.471   2.211 -0.1499 -0.3916  0.1356
    1SOL    HW2 4986   0.547   2.429   2.257 -0.5433  0.4056  1.5415
    1SOL    HW3 4987   0.396   2.429   2.248 -0.5406  1.3671  1.3911
    1SOL    MW4 4988   0.473   2.460   2.222 -0.2534 -0.0544  0.4871
    1SOL     OW 4989   0.426   2.704   2.367  0.1998 -0.4248 -0.4654
    1SOL    HW2 4990   0.438   2.697   2.462 -0.2297 -1.9946 -0.5105
    1SOL    HW3 4991   0.440   2.615   2.335 -0.0289  0.0286 -1.8302
    1SOL    MW4 4992   0.429   2.691   2.376  0.1129 -0.5722 -0.6514
    1SOL     OW 4993   0.644   2.839   2.259 -0.0998  0.3926  0.0335
    1SOL    HW2 4994   0.728   2.795   2.273 -0.4858 -1.1814 -2.2756
    1SOL    HW3 4995   0.578   2.777   2.292 -0.3831  1.6084  1.8121
    1SOL    MW4 4996   0.646   2.825   2.265 -0.1881  0.3455 -0.0367
    1SOL     OW 4997   0.671   3.092   2.385 -0.3083 -0.1299  0.4552
    1SOL    HW2 4998   0.591   3.133   2.353 -0.9998 -0.8108  1.2730
    1SOL    HW3 4999   0.663   3.000   2.361 -0.8220 -0.6504  2.4813
    1SOL    MW4 5000   0.659   3.085   2.378 -0.4673 -0.2885  0.8302
    1SOL     OW 5001   0.449   3.244   2.298  0.2106 -0.2653  0.2734
    1SOL    HW2 5002   0.373   3.196   2.329  0.8932 -0.6954  1.3036
    1SOL    HW3 5003   0.443   3.239   2.202 -0.6070 -0.9975  0.3608
    1SOL    MW4 5004   0.438   3.237   2.289  0.1928 -0.4187  0.4210
    1SOL     OW 5005   0.460   3.500   2.366  0.1496 -0.0772 -0.3047
    1SOL    HW2 5006   0.547   3.523   2.332  0.1324  2.1421  1.0414
    1SOL    HW3 5007   0.453   3.406   2.351  2.7410 -0.2811 -0.5667
    1SOL    MW4 5008   0.471   3.491   2.359  0.4892  0.1888 -0.1616
    1SOL     OW 5009   0.718   3.627   2.263  0.0583  0.4106 -0.0038
    1SOL    HW2 5010   0.718   3.716   2.298 -0.7468  0.1401  0.7060
    1SOL    HW3 5011   0.702   3.637   2.169 -0.1126  1.0068  0.0912
    1SOL    MW4 5012   0.716   3.640   2.255 -0.0705  0.4537  0.1023
    1SOL     OW 5013   0.710   3.884   2.368 -0.2602  0.4714  0.4279
    1SOL    HW2 5014   0.698   3.890   2.463 -0.4097  1.3873  0.3561
    1SOL    HW3 5015   0.628   3.919   2.332  0.0792  0.7848 -0.0403
    1SOL    MW4 5016   0.698   3.889   2.375 -0.2352  0.6335  0.3567
    1SOL     OW 5017   0.479   3.989   2.225  0.0583  0.2876  0.1213
    1SOL    HW2 5018   0.390   3.961   2.247  0.4245 -1.2111 -0.2363
    1SOL    HW3 5019   0.483   3.986   2.129  0.9646 -1.2540  0.1759
    1SOL    MW4 5020   0.468   3.985   2.215  0.2262 -0.1137  0.0813
    1SOL     OW 5021   0.455   4.224   2.337  0.4126 -0.0427  0.1425
    1SOL    HW2 5022   0.537   4.268   2.313 -0.0285  0.0991 -1.1385
    1SOL    HW3 5023   0.459   4.139   2.294  0.8575 -0.9292  1.8868
    1SOL    MW4 5024   0.466   4.219   2.328  0.4131 -0.1407  0.2038
    1SOL     OW 5025   0.695   4.351   2.230  0.5542 -0.4343 -0.0684
    1SOL    HW2 5026   0.695   4.442   2.258 -0.9559 -0.8216  1.2171
    1SOL    HW3 5027   0.687   4.355   2.134  0.6711  0.7654 -0.0282
    1SOL    MW4 5028   0.694   4.363   2.221  0.3704 -0.3271  0.1063
    1SOL     OW 5029   1.112   4.622   2.354 -0.4416  0.0095  0.8839
    1SOL    HW2 5030   1.082   4.614   2.444 -0.0967 -0.5470  0.9511
    1SOL    HW3 5031   1.041   4.667   2.308 -0.6887  0.1343  1.3923
    1SOL    MW4 5032   1.099   4.627   2.359 -0.4288 -0.0477  0.9596
    1SOL     OW 5033   0.915   0.113   2.257 -0.0586  0.3744  0.5480
    1SOL    HW2 5034   0.897   0.198   2.298 -2.6038  0.4183 -0.5973
    1SOL    HW3 5035   0.934   0.135   2.165 -0.8799 -0.3158  0.2129
    1SOL    MW4 5036   0.915   0.127   2.250 -0.5028  0.2891  0.3524
    1SOL     OW 5037   0.893   0.385   2.371 -0.2103 -0.0106 -0.1774
    1SOL    HW2 5038   0.972   0.430   2.340  0.4449 -0.5392  0.6957
    1SOL    HW3 5039   0.821   0.429   2.326  0.4744  1.3685  0.0387
    1SOL    MW4 5040   0.894   0.397   2.361 -0.0335  0.1016 -0.0339
    1SOL     OW 5041   1.085   0.519   2.240 -0.3230  0.1796  0.2130
    1SOL    HW2 5042   1.172   0.483   2.258 -0.7324 -1.0514 -0.2378
    1SOL    HW3 5043   1.076   0.513   2.145 -1.2688 -0.5911  0.3378
    1SOL    MW4 5044   1.095   0.513   2.230 -0.5019 -0.0845  0.1700
    1SOL     OW 5045   1.114   0.774   2.332 -0.5704 -0.1508 -0.2232
    1SOL    HW2 5046   1.032   0.820   2.312 -0.4370  0.2519  0.1513
    1SOL    HW3 5047   1.100   0.685   2.299 -0.6412  0.2878 -1.4041
    1SOL    MW4 5048   1.101   0.768   2.325 -0.5621 -0.0398 -0.3295
    1SOL     OW 5049   0.878   0.897   2.250 -0.4788  0.2063 -0.2821
    1SOL    HW2 5050   0.878   0.989   2.276 -0.5172  0.3516 -0.7946
    1SOL    HW3 5051   0.798   0.862   2.289 -0.9754  0.6265 -0.9046
    1SOL    MW4 5052   0.867   0.905   2.259 -0.5494  0.2809 -0.4320
    1SOL     OW 5053   0.891   1.127   2.383 -0.1143  0.4887  0.5239
    1SOL    HW2 5054   0.962   1.173   2.339 -1.4219  1.1586 -0.9394
    1SOL    HW3 5055   0.813   1.153   2.334 -1.1626 -1.4397  1.1646
    1SOL    MW4 5056   0.890   1.137   2.371 -0.4251  0.3226  0.4151
    1SOL     OW 5057   1.091   1.300   2.281 -0.1129 -0.1371 -0.4959
    1SOL    HW2 5058   1.177   1.275   2.315  0.2585  1.2279 -0.4160
    1SOL    HW3 5059   1.096   1.281   2.187  0.4502  0.3885 -0.5778
    1SOL    MW4 5060   1.103   1.294   2.273  0.0105  0.1124 -0.4964
    1SOL     OW 5061   1.118   1.577   2.361  0.7058 -0.0326 -0.3469
    1SOL    HW2 5062   1.033   1.614   2.339 -0.3146 -1.1693  1.5962
    1SOL    HW3 5063   1.108   1.483   2.344  1.7728 -0.0831 -0.7146
    1SOL    MW4 5064   1.106   1.569   2.356  0.7118 -0.1892 -0.1392
    1SOL     OW 5065   0.888   1.690   2.254 -0.0985 -0.1242  0.1406
    1SOL    HW2 5066   0.873   1.780   2.282  0.8805  0.4983 -1.2876
    1SOL    HW3 5067   0.902   1.696   2.160 -0.8045 -1.8681 -0.0961
    1SOL    MW4 5068   0.888   1.703   2.245 -0.0625 -0.2720 -0.0792
    1SOL     OW 5069   0.849   1.948   2.378 -0.1091  0.1196  0.2743
    1SOL    HW2 5070   0.852   1.942   2.474 -0.4141 -0.4243  0.2552
    1SOL    HW3 5071   0.917   2.011   2.355  1.3824 -1.3213  0.7101
    1SOL    MW4 5072   0.858   1.956   2.388  0.0474 -0.1421  0.3293
    1SOL     OW 5073   1.092   2.079   2.290  0.2114  0.1457 -0.0667
    1SOL    HW2 5074   1.172   2.035   2.317 -0.1051 -0.8316 -0.7140
    1SOL    HW3 5075   1.094   2.077   2.194 -1.3063 -1.2086 -0.0846
    1SOL    MW4 5076   1.103   2.073   2.281 -0.0306 -0.1621 -0.1545
    1SOL     OW 5077   1.127   2.336   2.396  0.3752  0.4709  0.0636
    1SOL    HW2 5078   1.209   2.372   2.360  0.2857 -0.1267 -0.7375
    1SOL    HW3 5079   1.119   2.250   2.356 -1.1949  0.9553 -0.6655
    1SOL    MW4 5080   1.137   2.330   2.386  0.1563  0.4559 -0.1385
    1SOL     OW 5081   0.918   2.456   2.246 -0.1956  0.1003 -0.0051
    1SOL    HW2 5082   0.988   2.404   2.286  0.1047 -0.3501 -1.1099
    1SOL    HW3 5083   0.936   2.452   2.152 -0.6846  1.4544 -0.1639
    1SOL    MW4 5084   0.930   2.449   2.239 -0.2204  0.2196 -0.1719
    1SOL     OW 5085   0.876   2.731   2.341 -0.1480  0.6637 -0.4821
    1SOL    HW2 5086   0.852   2.702   2.429  0.0765  0.6062 -0.4398
    1SOL    HW3 5087   0.876   2.650   2.289  0.4053  0.5980 -0.3807
    1SOL    MW4 5088   0.873   2.716   2.345 -0.0454  0.6475 -0.4632
    1SOL     OW 5089   1.125   2.847   2.266 -0.1986 -0.1546  0.1773
    1SOL    HW2 5090   1.189   2.784   2.300  0.4335  1.0452  1.2894
    1SOL    HW3 5091   1.040   2.811   2.291  0.0745 -1.2731 -0.4534
    1SOL    MW4 5092   1.122   2.834   2.274 -0.0792 -0.1440  0.2408
    1SOL     OW 5093   1.118   3.115   2.364  0.3027 -0.1754  0.2257
    1SOL    HW2 5094   1.045   3.151   2.314  0.8603 -0.2707 -0.6653
    1SOL    HW3 5095   1.123   3.024   2.336 -0.0279 -0.5044  1.2196
    1SOL    MW4 5096   1.109   3.108   2.354  0.3326 -0.2315  0.2391
    1SOL     OW 5097   0.905   3.224   2.234  0.0678 -0.0548  0.6203
    1SOL    HW2 5098   0.913   3.313   2.269 -0.7059  0.3721 -0.2633
    1SOL    HW3 5099   0.817   3.196   2.259  0.3858 -0.6695  1.0864
    1SOL    MW4 5100   0.894   3.232   2.242  0.0077 -0.0796  0.5653
    1SOL     OW 5101   0.909   3.462   2.356  0.0427 -0.3034 -0.1720
    1SOL    HW2 5102   0.890   3.462   2.450  0.2692  0.9188 -0.1158
    1SOL    HW3 5103   0.848   3.524   2.319  0.4454 -0.2362 -0.7322
    1SOL    MW4 5104   0.899   3.470   2.363  0.1257 -0.1335 -0.2384
    1SOL     OW 5105   1.138   3.601   2.259  0.2611  0.0741 -0.3180
    1SOL    HW2 5106   1.208   3.564   2.313  0.6039  0.5574 -0.4392
    1SOL    HW3 5107   1.060   3.550   2.284  0.1192  1.1916  1.6330
    1SOL    MW4 5108   1.137   3.589   2.269  0.2875  0.2854 -0.0763
    1SOL     OW 5109   1.119   3.845   2.357 -0.0623  0.1945  0.3926
    1SOL    HW2 5110   1.202   3.888   2.334  1.1275 -0.9507  2.3775
    1SOL    HW3 5111   1.127   3.757   2.320 -0.9129  0.4762 -0.4618
    1SOL    MW4 5112   1.131   3.839   2.349 -0.0176  0.0803  0.5417
    1SOL     OW 5113   0.930   4.003   2.263 -0.2879  0.4050 -0.4763
    1SOL    HW2 5114   0.998   3.939   2.285  0.7496  1.4622 -0.5834
    1SOL    HW3 5115   0.850   3.965   2.299  0.4007 -0.6962 -0.0538
    1SOL    MW4 5116   0.929   3.989   2.271 -0.0601  0.3991 -0.4346
    1SOL     OW 5117   0.920   4.242   2.384 -0.7317  0.3015  0.0480
    1SOL    HW2 5118   0.931   4.149   2.363 -1.3145  0.1838  0.2582
    1SOL    HW3 5119   0.847   4.270   2.328  0.4936  1.0369 -1.2317
    1SOL    MW4 5120   0.911   4.233   2.374 -0.6469  0.3834 -0.0930
    1SOL     OW 5121   1.167   4.366   2.254  0.0173  0.2118 -0.1484
    1SOL    HW2 5122   1.096   4.315   2.293  0.7056 -1.5625 -1.1840
    1SOL    HW3 5123   1.160   4.452   2.296 -0.5961 -0.9818  2.2928
    1SOL    MW4 5124   1.156   4.371   2.265  0.0273 -0.1802  0.0372
    1SOL     OW 5125   1.547   4.650   2.313  0.3435  0.1035 -0.1223
    1SOL    HW2 5126   1.622   4.698   2.276  0.1473  0.7135  0.2700
    1SOL    HW3 5127   1.470   4.692   2.273  0.1859 -0.0759 -0.0046
    1SOL    MW4 5128   1.547   4.662   2.303  0.2967  0.1597 -0.0551
    1SOL     OW 5129   1.321   0.125   2.224 -0.0386 -0.2406 -0.3310
    1SOL    HW2 5130   1.337   0.209   2.265  0.3806 -0.7552  0.5676
    1SOL    HW3 5131   1.255   0.083   2.278 -1.5834  0.2419 -1.7962
    1SOL    MW4 5132   1.315   0.130   2.236 -0.1870 -0.2448 -0.4058
    1SOL     OW 5133   1.340   0.387   2.328 -0.3244  0.2952 -0.2627
    1SOL    HW2 5134   1.334   0.378   2.423 -0.4914  0.3651 -0.2662
    1SOL    HW3 5135   1.424   0.432   2.313 -1.2438  2.1404 -0.0321
    1SOL    MW4 5136   1.350   0.392   2.338 -0.4677  0.5479 -0.2325
    1SOL     OW 5137   1.567   0.528   2.276 -0.1873  0.0852  0.4430
    1SOL    HW2 5138   1.633   0.464   2.304 -0.1979  0.1108  0.5272
    1SOL    HW3 5139   1.574   0.529   2.181 -0.3645 -0.2304  0.4242
    1SOL    MW4 5140   1.577   0.519   2.267 -0.2121  0.0469  0.4516
    1SOL     OW 5141   1.535   0.809   2.331 -0.3930 -0.5817  0.2171
    1SOL    HW2 5142   1.617   0.847   2.301 -0.9518  0.4382 -0.0366
    1SOL    HW3 5143   1.543   0.715   2.312  0.4352 -0.3810 -0.4157
    1SOL    MW4 5144   1.547   0.801   2.325 -0.3574 -0.4207  0.0999
    1SOL     OW 5145   1.317   0.950   2.247  0.1390  0.2706 -0.0247
    1SOL    HW2 5146   1.400   0.910   2.274 -0.4227  0.0460  1.4054
    1SOL    HW3 5147   1.251   0.886   2.270 -0.4897  0.7115 -0.5948
    1SOL    MW4 5148   1.319   0.937   2.253 -0.0180  0.2992  0.0885
    1SOL     OW 5149   1.330   1.196   2.367  0.2369 -0.3082  0.0425
    1SOL    HW2 5150   1.301   1.183   2.458 -2.2989  0.7642 -0.5436
    1SOL    HW3 5151   1.322   1.110   2.326 -0.5689 -0.3923  0.3543
    1SOL    MW4 5152   1.325   1.183   2.374 -0.2038 -0.1780  0.0064
    1SOL     OW 5153   1.555   1.289   2.256  0.2460 -0.3768 -0.0006
    1SOL    HW2 5154   1.469   1.264   2.290  0.7164 -1.5973  0.3415
    1SOL    HW3 5155   1.552   1.263   2.164  0.5031 -1.1078  0.1937
    1SOL    MW4 5156   1.543   1.282   2.248  0.3419 -0.6343  0.0703
    1SOL     OW 5157   1.533   1.550   2.362 -0.2425  0.3548  0.1816
    1SOL    HW2 5158   1.613   1.590   2.326  0.3491  0.8730  2.0237
    1SOL    HW3 5159   1.524   1.468   2.314  0.2982  1.2149 -1.4250
    1SOL    MW4 5160   1.543   1.544   2.351 -0.0931  0.5367  0.2131
    1SOL     OW 5161   1.347   1.693   2.239 -0.0198 -0.0191  0.5010
    1SOL    HW2 5162   1.409   1.638   2.288 -1.4135 -2.1930 -0.0707
    1SOL    HW3 5163   1.261   1.657   2.263 -0.9843  1.9847  0.1339
    1SOL    MW4 5164   1.344   1.681   2.249 -0.3310 -0.0416  0.3774
    1SOL     OW 5165   1.312   1.935   2.354 -0.1483 -0.3301  0.2344
    1SOL    HW2 5166   1.388   1.985   2.326 -0.7380  0.7186  0.4674
    1SOL    HW3 5167   1.318   1.852   2.307  0.8775 -0.0595 -0.1006
    1SOL    MW4 5168   1.323   1.930   2.344 -0.0908 -0.1562  0.2208
    1SOL     OW 5169   1.582   2.025   2.283  0.2340 -0.0279 -0.1224
    1SOL    HW2 5170   1.649   1.964   2.314 -0.3942 -1.4142 -1.4107
    1SOL    HW3 5171   1.606   2.043   2.192 -0.6915  0.0964 -0.3462
    1SOL    MW4 5172   1.594   2.019   2.275  0.0291 -0.1943 -0.3219
    1SOL     OW 5173   1.590   2.299   2.323  0.3697 -0.0883  0.5205
    1SOL    HW2 5174   1.588   2.314   2.418 -1.2733  2.6382  0.1302
    1SOL    HW3 5175   1.582   2.205   2.313  0.6599 -0.4181  3.1004
    1SOL    MW4 5176   1.589   2.289   2.334  0.1913  0.2277  0.8094
    1SOL     OW 5177   1.349   2.399   2.249  0.0178  0.1062  0.2782
    1SOL    HW2 5178   1.434   2.365   2.278  0.4802  1.4608  0.5740
    1SOL    HW3 5179   1.365   2.431   2.160 -0.4418 -0.5807 -0.0495
    1SOL    MW4 5180   1.362   2.399   2.241  0.0181  0.1943  0.2737
    1SOL     OW 5181   1.311   2.656   2.318 -0.2603 -0.0020 -0.2633
    1SOL    HW2 5182   1.398   2.686   2.293 -0.2042 -0.4839 -0.6432
    1SOL    HW3 5183   1.308   2.564   2.293 -0.6186 -0.1853  0.4258
    1SOL    MW4 5184   1.322   2.648   2.312 -0.3003 -0.0896 -0.2224
    1SOL     OW 5185   1.552   2.776   2.218  0.0020  0.3195 -0.0215
    1SOL    HW2 5186   1.541   2.863   2.256 -2.3257  0.4134 -0.8569
    1SOL    HW3 5187   1.553   2.791   2.123 -0.2324 -0.5506 -0.1650
    1SOL    MW4 5188   1.551   2.789   2.210 -0.3361  0.2172 -0.1509
    1SOL     OW 5189   1.542   3.047   2.332  0.5584  0.4661 -0.1265
    1SOL    HW2 5190   1.563   3.060   2.425 -0.0430 -0.5195  0.1562
    1SOL    HW3 5191   1.481   3.117   2.311  0.5809  0.6039  0.2679
    1SOL    MW4 5192   1.537   3.058   2.342  0.4821  0.3545 -0.0372
    1SOL     OW 5193   1.351   3.241   2.266  0.0510  0.3684  0.0445
    1SOL    HW2 5194   1.275   3.204   2.311 -0.4255 -0.0004 -1.0377
    1SOL    HW3 5195   1.328   3.237   2.173  0.6636  1.9309 -0.1842
    1SOL    MW4 5196   1.338   3.235   2.259  0.0689  0.5257 -0.1285
    1SOL     OW 5197   1.380   3.500   2.353 -0.0681 -0.1118 -0.0780
    1SOL    HW2 5198   1.365   3.505   2.447 -0.4580 -1.5248 -0.0537
    1SOL    HW3 5199   1.389   3.406   2.335 -0.4404  0.1141 -1.5129
    1SOL    MW4 5200   1.379   3.488   2.363 -0.1687 -0.2682 -0.2639
    1SOL     OW 5201   1.615   3.624   2.266 -0.4530  0.1564  0.3491
    1SOL    HW2 5202   1.593   3.716   2.284 -0.4192 -0.0165  1.2617
    1SOL    HW3 5203   1.540   3.574   2.298 -0.1670 -0.1872  0.4872
    1SOL    MW4 5204   1.602   3.630   2.272 -0.4109  0.0882  0.4880
    1SOL     OW 5205   1.578   3.878   2.361 -0.0133 -0.1932 -0.5963
    1SOL    HW2 5206   1.605   3.848   2.448  1.0365 -3.4988 -1.9707
    1SOL    HW3 5207   1.656   3.919   2.324  0.2930 -1.0021 -0.8716
    1SOL    MW4 5208   1.592   3.880   2.367  0.1655 -0.7360 -0.8142
    1SOL     OW 5209   1.344   3.982   2.276  0.5592 -0.1057 -0.1343
    1SOL    HW2 5210   1.418   3.930   2.306 -0.6516 -1.8821 -0.1718
    1SOL    HW3 5211   1.359   3.993   2.182  1.1015  0.0937 -0.0272
    1SOL    MW4 5212   1.356   3.977   2.267  0.4711 -0.3138 -0.1252
    1SOL     OW 5213   1.376   4.237   2.369 -0.1547  0.1521 -0.0793
    1SOL    HW2 5214   1.369   4.149   2.330 -0.6547  1.0955 -2.1800
    1SOL    HW3 5215   1.301   4.285   2.334  0.8638  1.8166 -0.0325
    1SOL    MW4 5216   1.366   4.231   2.359 -0.0862  0.4964 -0.3505
    1SOL     OW 5217   1.591   4.382   2.238 -0.2438 -0.1613 -0.3542
    1SOL    HW2 5218   1.518   4.332   2.274  0.6867 -0.4274  1.2424
    1SOL    HW3 5219   1.566   4.474   2.250  0.0604 -0.2491  1.0110
    1SOL    MW4 5220   1.578   4.388   2.244 -0.0808 -0.2079  0.0365
    1SOL     OW 5221   2.039   4.646   2.301  0.3874  0.3721  0.2920
    1SOL    HW2 5222   2.115   4.700   2.279  1.4367 -1.3515 -0.3952
    1SOL    HW3 5223   2.060   4.560   2.266 -1.9010 -0.1276  0.1061
    1SOL    MW4 5224   2.052   4.642   2.294  0.2236  0.0792  0.1769
    1SOL     OW 5225   1.800   0.087   2.220  0.9634 -0.0009 -0.2928
    1SOL    HW2 5226   1.791   0.179   2.242  0.3201  0.0597 -0.7618
    1SOL    HW3 5227   1.888   0.063   2.247  0.9636  0.6294  0.2649
    1SOL    MW4 5228   1.810   0.096   2.226  0.8786  0.0902 -0.2809
    1SOL     OW 5229   1.786   0.343   2.302 -0.2451  0.3736  0.6387
    1SOL    HW2 5230   1.810   0.344   2.394  2.4404 -1.1180  0.0038
    1SOL    HW3 5231   1.856   0.391   2.258 -0.2260 -0.9642 -0.8599
    1SOL    MW4 5232   1.798   0.349   2.308  0.1118  0.0002  0.3574
    1SOL     OW 5233   2.014   0.514   2.200 -0.3178 -0.1940  0.0735
    1SOL    HW2 5234   2.008   0.603   2.234 -1.7973  0.0496 -0.7875
    1SOL    HW3 5235   2.037   0.525   2.108 -2.8287 -0.5815 -0.6486
    1SOL    MW4 5236   2.016   0.527   2.192 -0.8447 -0.2130 -0.1354
    1SOL     OW 5237   1.990   0.769   2.313 -0.4715  0.4859 -0.3667
    1SOL    HW2 5238   2.078   0.800   2.291  0.7505 -3.0565 -0.7736
    1SOL    HW3 5239   1.986   0.771   2.408 -0.1139  1.0523 -0.3619
    1SOL    MW4 5240   2.001   0.774   2.322 -0.2632  0.0933 -0.4196
    1SOL     OW 5241   1.768   0.907   2.230  0.4430  0.4003 -0.2090
    1SOL    HW2 5242   1.768   0.994   2.271  0.1893 -0.2770  1.2294
    1SOL    HW3 5243   1.839   0.860   2.274 -2.7005 -1.8282  2.6615
    1SOL    MW4 5244   1.777   0.913   2.241 -0.0052  0.0169  0.3593
    1SOL     OW 5245   1.757   1.151   2.362 -0.0047  0.0622 -0.0471
    1SOL    HW2 5246   1.838   1.184   2.323 -0.3986 -1.9889 -2.7500
    1SOL    HW3 5247   1.687   1.200   2.319 -0.3559 -0.8597 -0.5489
    1SOL    MW4 5248   1.759   1.162   2.351 -0.1030 -0.3301 -0.4702
    1SOL     OW 5249   1.994   1.249   2.245  0.0891  0.4714  0.5347
    1SOL    HW2 5250   2.013   1.327   2.297  1.7364 -1.6372  3.2132
    1SOL    HW3 5251   2.070   1.193   2.258 -1.7881 -2.2794 -0.0126
    1SOL    MW4 5252   2.007   1.252   2.253  0.0587 -0.1698  0.8161
    1SOL     OW 5253   1.999   1.514   2.343 -0.3831  0.5600 -0.4167
    1SOL    HW2 5254   1.999   1.516   2.439 -0.6836 -0.3827 -0.3853
    1SOL    HW3 5255   1.919   1.560   2.318 -0.2879  0.8356 -0.2178
    1SOL    MW4 5256   1.989   1.520   2.352 -0.4103  0.4721 -0.3862
    1SOL     OW 5257   1.764   1.653   2.250  0.2846  0.0561  0.2602
    1SOL    HW2 5258   1.794   1.739   2.280 -0.7431  0.1358  1.0940
    1SOL    HW3 5259   1.760   1.661   2.155  1.6044  0.4623  0.2377
    1SOL    MW4 5260   1.767   1.666   2.242  0.3231  0.1202  0.3672
    1SOL     OW 5261   1.837   1.908   2.344  0.1403 -0.0236  0.3660
    1SOL    HW2 5262   1.824   1.940   2.434 -1.2446  0.4209  0.0189
    1SOL    HW3 5263   1.904   1.967   2.308 -1.5043  1.7312  0.1281
    1SOL    MW4 5264   1.844   1.920   2.351 -0.2595  0.2666  0.2887
    1SOL     OW 5265   2.013   2.082   2.239  0.3902  0.0469 -0.0995
    1SOL    HW2 5266   2.090   2.028   2.254  0.0367  0.0043  1.6471
    1SOL    HW3 5267   1.999   2.078   2.144  1.9805 -0.6812 -0.3180
    1SOL    MW4 5268   2.021   2.074   2.228  0.5534 -0.0548  0.1020
    1SOL     OW 5269   1.990   2.331   2.355 -0.2149  0.1828  0.2066
    1SOL    HW2 5270   2.071   2.383   2.353  0.0442 -0.1994  0.6318
    1SOL    HW3 5271   2.011   2.252   2.306 -0.2393 -0.0428  0.5565
    1SOL    MW4 5272   2.004   2.328   2.348 -0.1841  0.1025  0.3088
    1SOL     OW 5273   1.786   2.446   2.212 -0.1144 -0.0583  0.2934
    1SOL    HW2 5274   1.865   2.408   2.250  0.2450  0.3767 -0.0154
    1SOL    HW3 5275   1.714   2.396   2.251  0.2633  0.1311  1.2634
    1SOL    MW4 5276   1.787   2.435   2.223 -0.0172  0.0243  0.3805
    1SOL     OW 5277   1.783   2.693   2.351  0.7901 -0.2817  0.5032
    1SOL    HW2 5278   1.778   2.607   2.310  1.2587  0.0428 -0.2351
    1SOL    HW3 5279   1.703   2.737   2.324  0.7334 -0.3406  0.5720
    1SOL    MW4 5280   1.772   2.687   2.342  0.8444 -0.2468  0.4148
    1SOL     OW 5281   1.992   2.818   2.201  0.1017 -0.3395 -0.0221
    1SOL    HW2 5282   2.075   2.785   2.238  0.7244  2.5713  1.3284
    1SOL    HW3 5283   1.926   2.757   2.233  1.3913 -1.1198  1.2341
    1SOL    MW4 5284   1.995   2.806   2.210  0.3539 -0.0587  0.3219
    1SOL     OW 5285   2.003   3.073   2.324 -0.2350 -0.2195 -0.3230
    1SOL    HW2 5286   2.088   3.113   2.305 -0.0200 -0.4070  0.2290
    1SOL    HW3 5287   2.008   2.986   2.285 -0.5697  0.1647 -1.2183
    1SOL    MW4 5288   2.015   3.067   2.316 -0.2506 -0.1934 -0.3684
    1SOL     OW 5289   1.756   3.191   2.252  0.2252 -0.0064  0.0184
    1SOL    HW2 5290   1.834   3.142   2.277  0.8457  1.2734  0.6413
    1SOL    HW3 5291   1.684   3.144   2.296  0.7941 -0.4112  0.5342
    1SOL    MW4 5292   1.757   3.178   2.261  0.3821  0.1090  0.1688
    1SOL     OW 5293   1.818   3.454   2.336  0.2325  0.0686 -0.2008
    1SOL    HW2 5294   1.799   3.379   2.279  2.8183  0.3977 -1.5871
    1SOL    HW3 5295   1.755   3.521   2.308 -1.2281 -1.1213  0.1499
    1SOL    MW4 5296   1.807   3.453   2.325  0.3809 -0.0451 -0.3376
    1SOL     OW 5297   1.994   3.618   2.230  0.1302 -0.1145 -0.3323
    1SOL    HW2 5298   1.930   3.549   2.249  0.7344 -0.6638 -0.2835
    1SOL    HW3 5299   2.023   3.601   2.141  0.7618 -0.3096 -0.0921
    1SOL    MW4 5300   1.989   3.607   2.221  0.2933 -0.2129 -0.2942
    1SOL     OW 5301   2.038   3.900   2.340  0.5909  0.0989  0.1418
    1SOL    HW2 5302   2.039   3.889   2.435  1.8512 -1.3427 -0.0123
    1SOL    HW3 5303   2.023   3.812   2.306 -0.8428  0.7546 -1.0012
    1SOL    MW4 5304   2.036   3.887   2.348  0.5682 -0.0048 -0.0296
    1SOL     OW 5305   1.799   4.021   2.276 -0.3669  0.2953 -0.3591
    1SOL    HW2 5306   1.885   3.983   2.293 -1.4179 -1.9599 -0.0092
    1SOL    HW3 5307   1.796   4.030   2.181 -0.2506 -0.8259 -0.4719
    1SOL    MW4 5308   1.810   4.017   2.266 -0.4902 -0.1507 -0.3278
    1SOL     OW 5309   1.851   4.294   2.338  0.7139 -0.0228 -0.1869
    1SOL    HW2 5310   1.813   4.210   2.313  0.1163  0.5838 -1.3156
    1SOL    HW3 5311   1.779   4.357   2.331  1.2736  0.6699  0.1914
    1SOL    MW4 5312   1.837   4.291   2.334  0.7088  0.1483 -0.2856
    1SOL     OW 5313   2.088   4.387   2.231 -0.2625 -0.3104  0.2246
    1SOL    HW2 5314   2.010   4.338   2.256 -0.8547 -0.0091 -1.0288
    1SOL    HW3 5315   2.085   4.391   2.136  0.9074  0.3264  0.2038
    1SOL    MW4 5316   2.077   4.381   2.222 -0.1867 -0.1864  0.0567
    1SOL     OW 5317   2.481   0.009   2.334 -0.5038 -0.2533  0.3247
    1SOL    HW2 5318   2.567   0.042   2.308 -1.4314  1.0843 -1.1246
    1SOL    HW3 5319   2.482  -0.083   2.308 -0.3687  0.3617 -1.9162
    1SOL    MW4 5320   2.492   0.001   2.327 -0.6082  0.0043 -0.1624
    1SOL     OW 5321   2.255   0.146   2.213  0.0540  0.1485 -0.1914
    1SOL    HW2 5322   2.253   0.228   2.261 -0.9094 -0.4461  0.8162
    1SOL    HW3 5323   2.328   0.097   2.251 -0.3688 -0.0985  0.3232
    1SOL    MW4 5324   2.264   0.150   2.224 -0.1290  0.0375  0.0095
    1SOL     OW 5325   2.231   0.378   2.335  0.1956  0.0384  0.0133
    1SOL    HW2 5326   2.156   0.428   2.302  0.0089 -1.0418 -1.2296
    1SOL    HW3 5327   2.307   0.417   2.292  0.1701  0.0425 -0.0284
    1SOL    MW4 5328   2.231   0.389   2.325  0.1678 -0.1035 -0.1562
    1SOL     OW 5329   2.472   0.488   2.232 -0.5448 -0.1715  0.2437
    1SOL    HW2 5330   2.553   0.451   2.264 -0.2637 -1.9294 -2.3203
    1SOL    HW3 5331   2.486   0.499   2.137 -3.7085 -1.7988 -0.4939
    1SOL    MW4 5332   2.484   0.485   2.223 -0.9253 -0.6182 -0.1919
    1SOL     OW 5333   2.493   0.758   2.339 -0.1610 -0.1265 -0.2381
    1SOL    HW2 5334   2.566   0.805   2.298 -0.2167  0.0579 -0.1297
    1SOL    HW3 5335   2.489   0.675   2.293 -1.4939  0.8690 -1.9897
    1SOL    MW4 5336   2.502   0.753   2.327 -0.3438  0.0291 -0.4549
    1SOL     OW 5337   2.238   0.851   2.237  0.0674  0.2383 -0.3257
    1SOL    HW2 5338   2.241   0.941   2.269 -0.7025  0.1231  0.0981
    1SOL    HW3 5339   2.316   0.809   2.272 -0.7561  0.1188  1.4283
    1SOL    MW4 5340   2.248   0.857   2.246 -0.1428  0.2074 -0.0381
    1SOL     OW 5341   2.229   1.120   2.296 -0.0385 -0.4057  0.3487
    1SOL    HW2 5342   2.301   1.168   2.256 -0.6156 -0.5918 -0.9230
    1SOL    HW3 5343   2.247   1.124   2.390  0.9755  0.5816  0.1193
    1SOL    MW4 5344   2.241   1.127   2.303  0.0188 -0.2999  0.1504
    1SOL     OW 5345   2.480   1.231   2.196 -0.0749  0.1580 -0.1107
    1SOL    HW2 5346   2.552   1.183   2.239  0.7968  0.6951 -0.9495
    1SOL    HW3 5347   2.479   1.316   2.240  0.1034  0.3146 -0.4094
    1SOL    MW4 5348   2.490   1.236   2.208  0.0637  0.2495 -0.2608
    1SOL     OW 5349   2.466   1.472   2.316  0.1364  0.1115 -0.2544
    1SOL    HW2 5350   2.487   1.479   2.409 -1.9952  0.6791  0.2127
    1SOL    HW3 5351   2.520   1.539   2.274  2.7846 -1.6441  0.2521
    1SOL    MW4 5352   2.475   1.482   2.323  0.2046 -0.0452 -0.1256
    1SOL     OW 5353   2.252   1.646   2.288 -0.1034  0.2269 -0.0196
    1SOL    HW2 5354   2.317   1.577   2.306  0.4234  0.8521  0.5267
    1SOL    HW3 5355   2.168   1.602   2.297  0.2263 -0.3224  0.4722
    1SOL    MW4 5356   2.250   1.631   2.292  0.0098  0.2369  0.1175
    1SOL     OW 5357   2.228   1.929   2.314  0.4305 -0.0205  0.1430
    1SOL    HW2 5358   2.303   1.976   2.276  1.0219 -1.4834 -0.5158
    1SOL    HW3 5359   2.244   1.837   2.295 -0.6847 -0.5226  1.5181
    1SOL    MW4 5360   2.240   1.923   2.306  0.3614 -0.2797  0.2375
    1SOL     OW 5361   2.432   2.075   2.225 -0.0060 -0.4415 -0.0933
    1SOL    HW2 5362   2.510   2.028   2.253  0.5818  0.0289 -0.9121
    1SOL    HW3 5363   2.429   2.062   2.130  0.4785  1.6097 -0.4209
    1SOL    MW4 5364   2.442   2.067   2.216  0.1354 -0.1090 -0.2446
    1SOL     OW 5365   2.442   2.346   2.317 -0.9167  0.3769  0.2033
    1SOL    HW2 5366   2.526   2.380   2.287 -1.6271  1.7572 -0.2592
    1SOL    HW3 5367   2.435   2.260   2.276 -0.3426  0.8217 -0.8333
    1SOL    MW4 5368   2.452   2.339   2.308 -0.9346  0.6177  0.0057
    1SOL     OW 5369   2.202   2.460   2.242  0.0906 -0.4189 -0.2543
    1SOL    HW2 5370   2.201   2.555   2.256  0.2338 -0.4513 -0.0227
    1SOL    HW3 5371   2.290   2.433   2.268  0.0198 -0.6290 -0.2343
    1SOL    MW4 5372   2.214   2.469   2.247  0.1001 -0.4508 -0.2210
    1SOL     OW 5373   2.224   2.725   2.308  0.1226 -0.4619 -0.3669
    1SOL    HW2 5374   2.231   2.724   2.404 -0.2136 -0.4350 -0.3425
    1SOL    HW3 5375   2.304   2.768   2.279  0.6715 -1.2959 -0.1346
    1SOL    MW4 5376   2.236   2.730   2.317  0.1507 -0.5686 -0.3331
    1SOL     OW 5377   2.476   2.839   2.221  0.0636 -0.2490 -0.1455
    1SOL    HW2 5378   2.554   2.792   2.251  0.0997  0.5161  0.9750
    1SOL    HW3 5379   2.490   2.850   2.126  1.9162  0.9842  0.2332
    1SOL    MW4 5380   2.488   2.834   2.212  0.3130  0.0148  0.0522
    1SOL     OW 5381   2.474   3.091   2.345 -0.3657 -0.7775  0.2451
    1SOL    HW2 5382   2.550   3.132   2.304  0.1428 -1.8152  0.1218
    1SOL    HW3 5383   2.485   2.997   2.326 -1.3253 -1.0044  0.7950
    1SOL    MW4 5384   2.486   3.084   2.337 -0.4253 -0.9444  0.3016
    1SOL     OW 5385   2.253   3.199   2.247  0.4237  0.2101  0.3893
    1SOL    HW2 5386   2.256   3.293   2.262  1.7548  0.5599 -1.8182
    1SOL    HW3 5387   2.332   3.165   2.289  0.9133  0.3505 -0.4010
    1SOL    MW4 5388   2.264   3.207   2.255  0.6638  0.2747 -0.0062
    1SOL     OW 5389   2.227   3.489   2.316 -0.4523  0.1797 -0.5940
    1SOL    HW2 5390   2.225   3.490   2.412 -0.7620 -0.0292 -0.5973
    1SOL    HW3 5391   2.147   3.534   2.291  0.6812  2.1712 -0.7582
    1SOL    MW4 5392   2.216   3.495   2.326 -0.3433  0.4148 -0.6161
    1SOL     OW 5393   2.457   3.633   2.224  0.5458 -0.0831  0.2735
    1SOL    HW2 5394   2.456   3.717   2.270  1.2594 -0.1472  0.3994
    1SOL    HW3 5395   2.383   3.585   2.262  0.9992 -0.0515  1.1949
    1SOL    MW4 5396   2.447   3.638   2.235  0.7000 -0.0875  0.4117
    1SOL     OW 5397   2.503   3.871   2.356  0.2983 -0.1047 -0.2220
    1SOL    HW2 5398   2.493   3.874   2.451  0.8766 -1.1440 -0.1185
    1SOL    HW3 5399   2.433   3.926   2.323  0.0704  0.2408  0.8101
    1SOL    MW4 5400   2.493   3.878   2.364  0.3443 -0.1962 -0.0720
    1SOL     OW 5401   2.292   4.001   2.250  0.3962  0.0037  0.4095
    1SOL    HW2 5402   2.298   4.092   2.278 -0.3705  0.2845 -0.3501
    1SOL    HW3 5403   2.206   3.972   2.281  0.8787 -0.6363  1.1658
    1SOL    MW4 5404   2.281   4.009   2.258  0.3588 -0.0439  0.4094
    1SOL     OW 5405   2.311   4.252   2.365 -0.2369 -0.1467  0.0603
    1SOL    HW2 5406   2.271   4.243   2.451  0.8814  1.1378  0.7269
    1SOL    HW3 5407   2.244   4.294   2.311 -0.6201 -0.1607  0.5270
    1SOL    MW4 5408   2.297   4.256   2.369 -0.1400  0.0210  0.2098
    1SOL     OW 5409   2.518   4.410   2.267  0.0581  0.0227  0.2131
    1SOL    HW2 5410   2.606   4.399   2.303 -0.2636  1.7514  1.5623
    1SOL    HW3 5411   2.463   4.352   2.320  0.0857  0.2928  0.5374
    1SOL    MW4 5412   2.523   4.401   2.278  0.0193  0.2866  0.4339
    1SOL     OW 5413   2.899   4.661   2.388 -0.1950  0.1948 -0.0691
    1SOL    HW2 5414   2.978   4.700   2.351 -0.5225  0.5485 -0.4026
    1SOL    HW3 5415   2.902   4.570   2.360  0.3435  0.0893  0.3327
    1SOL    MW4 5416   2.910   4.654   2.379 -0.1671  0.2275 -0.0601
    1SOL     OW 5417   2.732   0.094   2.194  0.0340 -0.0740  0.2456
    1SOL    HW2 5418   2.739   0.175   2.246 -0.5864 -1.1841  2.0924
    1SOL    HW3 5419   2.791   0.033   2.239  1.9780 -0.1080 -2.2489
    1SOL    MW4 5420   2.741   0.097   2.207  0.2086 -0.2249  0.1600
    1SOL     OW 5421   2.698   0.357   2.296  0.0549 -0.4308  0.1404
    1SOL    HW2 5422   2.711   0.364   2.390  0.7706  0.3811 -0.0127
    1SOL    HW3 5423   2.766   0.412   2.258  0.0568 -1.1066 -0.8667
    1SOL    MW4 5424   2.709   0.365   2.303  0.1495 -0.4129 -0.0126
    1SOL     OW 5425   2.928   0.500   2.237 -0.1841  0.0432 -0.2310
    1SOL    HW2 5426   2.947   0.586   2.274 -1.1196  0.1813 -0.0547
    1SOL    HW3 5427   2.935   0.512   2.142  0.0215  0.2330 -0.1897
    1SOL    MW4 5428   2.931   0.513   2.229 -0.2804  0.0864 -0.2022
    1SOL     OW 5429   2.942   0.747   2.334 -0.4793 -0.0651 -0.0358
    1SOL    HW2 5430   2.945   0.736   2.429 -0.6519 -0.6148 -0.0967
    1SOL    HW3 5431   2.854   0.781   2.316 -1.0244 -1.5020 -0.1605
    1SOL    MW4 5432   2.930   0.750   2.344 -0.5739 -0.3272 -0.0603
    1SOL     OW 5433   2.720   0.882   2.252  0.2719 -0.2366  0.2382
    1SOL    HW2 5434   2.714   0.970   2.287  0.2344 -0.7071  1.4330
    1SOL    HW3 5435   2.736   0.894   2.158 -2.9022  1.0556 -0.2068
    1SOL    MW4 5436   2.722   0.895   2.244 -0.1519 -0.1281  0.3371
    1SOL     OW 5437   2.703   1.151   2.350  0.3769 -0.1373  0.4371
    1SOL    HW2 5438   2.686   1.148   2.445 -1.4450  1.3464  0.1971
    1SOL    HW3 5439   2.788   1.193   2.342  0.9166 -1.0136  1.4466
    1SOL    MW4 5440   2.712   1.156   2.362  0.2077 -0.0572  0.5383
    1SOL     OW 5441   2.957   1.261   2.276  0.4949 -0.3361 -0.4826
    1SOL    HW2 5442   3.035   1.210   2.298  0.4926 -0.1409 -0.0104
    1SOL    HW3 5443   2.948   1.253   2.181  2.4006  1.5030 -0.8507
    1SOL    MW4 5444   2.966   1.254   2.267  0.7458 -0.0678 -0.4690
    1SOL     OW 5445   2.871   1.543   2.348 -0.3653 -0.1696  0.0216
    1SOL    HW2 5446   2.876   1.544   2.444 -0.5270 -0.8893  0.0429
    1SOL    HW3 5447   2.892   1.452   2.324  1.2796  0.3752 -0.7157
    1SOL    MW4 5448   2.875   1.531   2.358 -0.1698 -0.1926 -0.0727
    1SOL     OW 5449   2.627   1.666   2.215  0.2135 -0.1450  0.0529
    1SOL    HW2 5450   2.708   1.639   2.259  0.0649 -0.9333 -0.1555
    1SOL    HW3 5451   2.652   1.676   2.123  0.4112  1.0360  0.2288
    1SOL    MW4 5452   2.641   1.664   2.209  0.2201 -0.0932  0.0486
    1SOL     OW 5453   2.669   1.927   2.273 -0.1282  0.3520 -0.4261
    1SOL    HW2 5454   2.656   1.927   2.368  1.4027 -0.6640 -0.1981
    1SOL    HW3 5455   2.655   1.835   2.248  1.9268  0.1236 -0.8132
    1SOL    MW4 5456   2.665   1.915   2.282  0.3450  0.1879 -0.4473
    1SOL     OW 5457   2.917   2.047   2.220  0.2651 -0.2638 -0.0437
    1SOL    HW2 5458   2.978   1.994   2.271 -0.2466  1.4167  2.3907
    1SOL    HW3 5459   2.832   2.006   2.234  0.2395 -0.2582 -0.1817
    1SOL    MW4 5460   2.914   2.034   2.229  0.1943 -0.0415  0.2592
    1SOL     OW 5461   2.935   2.306   2.335  0.1393  0.2558 -0.7915
    1SOL    HW2 5462   2.941   2.291   2.429  0.9007 -0.2379 -0.9197
    1SOL    HW3 5463   2.921   2.219   2.298  0.4447  0.3792 -1.1916
    1SOL    MW4 5464   2.934   2.293   2.342  0.2801  0.2069 -0.8612
    1SOL     OW 5465   2.701   2.442   2.260 -0.0445 -0.3102 -0.2565
    1SOL    HW2 5466   2.784   2.401   2.283 -0.2510  0.1839  1.4467
    1SOL    HW3 5467   2.697   2.438   2.164  1.7160 -0.7601 -0.3142
    1SOL    MW4 5468   2.711   2.436   2.250  0.1605 -0.3042 -0.0393
    1SOL     OW 5469   2.703   2.706   2.334 -0.0292 -0.3956 -0.3105
    1SOL    HW2 5470   2.786   2.743   2.304 -0.9192 -0.2719 -2.7379
    1SOL    HW3 5471   2.702   2.618   2.297 -0.5756 -0.7332  0.4985
    1SOL    MW4 5472   2.714   2.699   2.325 -0.2189 -0.4239 -0.5240
    1SOL     OW 5473   2.930   2.825   2.247  0.6973  0.3113 -0.1988
    1SOL    HW2 5474   2.918   2.917   2.271 -0.3845  0.0336  0.3545
    1SOL    HW3 5475   2.939   2.826   2.152 -0.6525  0.8739 -0.3370
    1SOL    MW4 5476   2.930   2.837   2.238  0.3765  0.3488 -0.1440
    1SOL     OW 5477   2.904   3.074   2.355 -0.2808  0.0794  0.1526
    1SOL    HW2 5478   2.891   3.066   2.449  0.5397  0.6135  0.3107
    1SOL    HW3 5479   2.840   3.140   2.327 -1.1001 -0.6853  0.1972
    1SOL    MW4 5480   2.894   3.081   2.363 -0.2806  0.0486  0.1798
    1SOL     OW 5481   2.707   3.239   2.258 -0.2643  0.0465 -0.5179
    1SOL    HW2 5482   2.681   3.321   2.302 -2.7184 -0.7505 -0.4070
    1SOL    HW3 5483   2.716   3.263   2.166 -3.1930  0.0353 -0.8697
    1SOL    MW4 5484   2.704   3.253   2.252 -0.9742 -0.0601 -0.5500
    1SOL     OW 5485   2.671   3.470   2.377 -0.1199 -0.2313  0.3285
    1SOL    HW2 5486   2.756   3.496   2.343  0.1594 -1.0782  0.3730
    1SOL    HW3 5487   2.609   3.532   2.338  0.5797  0.7452  0.7503
    1SOL    MW4 5488   2.674   3.482   2.367  0.0093 -0.2146  0.3903
    1SOL     OW 5489   2.910   3.594   2.242  0.4458 -0.5361 -0.3109
    1SOL    HW2 5490   2.994   3.558   2.270  0.8326 -0.3293 -1.1930
    1SOL    HW3 5491   2.904   3.678   2.288  0.2026 -1.0532  0.6229
    1SOL    MW4 5492   2.920   3.600   2.252  0.4649 -0.5767 -0.3040
    1SOL     OW 5493   2.911   3.856   2.335  0.0053  0.0069  0.4437
    1SOL    HW2 5494   2.916   3.862   2.430  1.0263  0.5681  0.3527
    1SOL    HW3 5495   2.843   3.919   2.311 -0.3681 -0.2517  0.8075
    1SOL    MW4 5496   2.902   3.865   2.344  0.0908  0.0472  0.4799
    1SOL     OW 5497   2.709   4.032   2.276 -0.1021 -0.2132  0.0898
    1SOL    HW2 5498   2.635   3.976   2.296 -0.0624 -0.5362 -0.6440
    1SOL    HW3 5499   2.725   4.019   2.182  0.3937  0.4351  0.0742
    1SOL    MW4 5500   2.702   4.023   2.266 -0.0315 -0.1698 -0.0091
    1SOL     OW 5501   2.739   4.279   2.392 -0.4243  0.1761 -0.0685
    1SOL    HW2 5502   2.709   4.274   2.483  0.8645 -0.7712  0.3262
    1SOL    HW3 5503   2.722   4.192   2.356  1.1775 -0.1630 -0.0362
    1SOL    MW4 5504   2.733   4.267   2.400 -0.0429  0.0062 -0.0122
    1SOL     OW 5505   2.926   4.417   2.241 -0.4984  0.0476 -0.6018
    1SOL    HW2 5506   3.015   4.390   2.264 -0.3393  0.7426 -0.3934
    1SOL    HW3 5507   2.870   4.362   2.296 -0.1853 -0.0854 -0.4100
    1SOL    MW4 5508   2.931   4.406   2.251 -0.4363  0.1221 -0.5491
    1SOL     OW 5509   3.347   4.610   2.322 -0.2702 -0.4971  0.1405
    1SOL    HW2 5510   3.343   4.621   2.417 -0.4997 -1.8281  0.2908
    1SOL    HW3 5511   3.426   4.658   2.296 -0.2106 -0.1166  0.9961
    1SOL    MW4 5512   3.357   4.618   2.331 -0.2925 -0.6223  0.2730
    1SOL     OW 5513   3.122   0.081   2.274  0.3272 -0.2677  0.2581
    1SOL    HW2 5514   3.147   0.166   2.311 -0.7427 -0.0358  0.4527
    1SOL    HW3 5515   3.200   0.027   2.286  0.5556  0.2804  1.3845
    1SOL    MW4 5516   3.136   0.085   2.281  0.2162 -0.1648  0.4320
    1SOL     OW 5517   3.137   0.348   2.366  0.1324 -0.4596  0.6010
    1SOL    HW2 5518   3.208   0.398   2.326  0.5127 -1.5122 -0.0731
    1SOL    HW3 5519   3.057   0.387   2.331  0.4608 -1.4914 -1.4172
    1SOL    MW4 5520   3.136   0.359   2.356  0.2255 -0.7346  0.2458
    1SOL     OW 5521   3.351   0.475   2.235 -0.1025 -0.3745  0.2340
    1SOL    HW2 5522   3.423   0.425   2.273 -1.2352 -1.0398  1.5565
    1SOL    HW3 5523   3.367   0.473   2.141  2.2855  0.5711  0.5778
    1SOL    MW4 5524   3.362   0.468   2.228  0.0632 -0.3376  0.4539
    1SOL     OW 5525   3.369   0.719   2.371 -0.2657  0.4657  0.3778
    1SOL    HW2 5526   3.439   0.775   2.336  1.4294 -0.7610  1.6551
    1SOL    HW3 5527   3.374   0.639   2.319  1.0109 -0.6193  2.0948
    1SOL    MW4 5528   3.379   0.716   2.360  0.1266  0.1608  0.7727
    1SOL     OW 5529   3.180   0.852   2.242  0.4126  0.5417  0.0573
    1SOL    HW2 5530   3.239   0.790   2.285 -0.0126  0.5016  0.5865
    1SOL    HW3 5531   3.093   0.826   2.270  0.0675 -0.0059 -1.5140
    1SOL    MW4 5532   3.177   0.841   2.251  0.3109  0.4641 -0.0799
    1SOL     OW 5533   3.185   1.118   2.338  0.0370 -0.6489  0.0187
    1SOL    HW2 5534   3.262   1.155   2.295 -0.7694 -0.1804 -1.0309
    1SOL    HW3 5535   3.170   1.035   2.292 -0.2134 -0.6314  0.0693
    1SOL    MW4 5536   3.193   1.112   2.326 -0.1023 -0.5847 -0.1130
    1SOL     OW 5537   3.381   1.268   2.232  0.1570  0.8035 -0.2085
    1SOL    HW2 5538   3.453   1.217   2.269 -0.0273  0.2801 -0.5639
    1SOL    HW3 5539   3.388   1.354   2.275  1.4542  1.0119 -0.7867
    1SOL    MW4 5540   3.392   1.273   2.243  0.3040  0.7621 -0.3314
    1SOL     OW 5541   3.357   1.526   2.342  0.1576 -0.1931 -0.0773
    1SOL    HW2 5542   3.337   1.531   2.435  0.9308  0.6274  0.0556
    1SOL    HW3 5543   3.288   1.577   2.300  0.4892  0.4469  0.1522
    1SOL    MW4 5544   3.345   1.534   2.348  0.3035 -0.0002 -0.0293
    1SOL     OW 5545   3.124   1.633   2.248  0.1489 -0.3451 -0.3430
    1SOL    HW2 5546   3.130   1.725   2.271  1.8383 -0.6744  0.6610
    1SOL    HW3 5547   3.040   1.604   2.284  0.2324  0.4925  0.5408
    1SOL    MW4 5548   3.114   1.641   2.256  0.3827 -0.2780 -0.0939
    1SOL     OW 5549   3.138   1.899   2.338 -0.1088  0.0090 -0.5948
    1SOL    HW2 5550   3.123   1.912   2.431 -0.8247  0.2209 -0.7367
    1SOL    HW3 5551   3.213   1.954   2.318 -0.1372  0.1901 -0.2048
    1SOL    MW4 5552   3.146   1.908   2.348 -0.2072  0.0609 -0.5617
    1SOL     OW 5553   3.348   2.052   2.234  0.1038 -0.5180  0.3249
    1SOL    HW2 5554   3.415   1.997   2.275 -0.3412 -1.8756 -0.7678
    1SOL    HW3 5555   3.359   2.038   2.140 -0.6301  0.5413  0.0740
    1SOL    MW4 5556   3.358   2.043   2.227 -0.0520 -0.5572  0.1476
    1SOL     OW 5557   3.369   2.313   2.355 -0.4361 -0.1783 -0.1522
    1SOL    HW2 5558   3.304   2.360   2.302  0.9331  0.7588 -1.0308
    1SOL    HW3 5559   3.369   2.224   2.319 -0.9684 -0.0888 -0.3843
    1SOL    MW4 5560   3.361   2.308   2.343 -0.3257 -0.0429 -0.2987
    1SOL     OW 5561   3.150   2.431   2.229  0.4625  0.1435 -0.5023
    1SOL    HW2 5562   3.138   2.521   2.260 -0.4430  0.1024 -0.7196
    1SOL    HW3 5563   3.076   2.383   2.264  0.3739 -0.2873 -1.2676
    1SOL    MW4 5564   3.139   2.437   2.238  0.3314  0.0813 -0.6316
    1SOL     OW 5565   3.125   2.675   2.359  0.3509  0.2461 -0.1333
    1SOL    HW2 5566   3.124   2.692   2.453 -0.7255  0.4164 -0.1730
    1SOL    HW3 5567   3.053   2.728   2.324  1.2792  0.8321 -1.1651
    1SOL    MW4 5568   3.115   2.684   2.367  0.3314  0.3459 -0.2747
    1SOL     OW 5569   3.364   2.810   2.293  0.3205 -0.0388  0.0922
    1SOL    HW2 5570   3.364   2.900   2.323 -1.5730  0.0732 -0.1882
    1SOL    HW3 5571   3.278   2.776   2.319  1.2273 -1.9240  0.6994
    1SOL    MW4 5572   3.353   2.817   2.301  0.1900 -0.2728  0.1352
    1SOL     OW 5573   3.386   3.082   2.386 -0.0176 -0.1223 -0.0675
    1SOL    HW2 5574   3.457   3.130   2.343  0.8106 -0.5518  0.7983
    1SOL    HW3 5575   3.307   3.115   2.344  0.6183  1.1426 -0.3168
    1SOL    MW4 5576   3.385   3.093   2.375  0.1755 -0.0122  0.0138
    1SOL     OW 5577   3.158   3.189   2.280 -0.5448 -0.0936 -0.1074
    1SOL    HW2 5578   3.147   3.284   2.291  1.4580  0.1845 -0.3362
    1SOL    HW3 5579   3.074   3.152   2.308 -1.1195  1.6999  0.6309
    1SOL    MW4 5580   3.145   3.197   2.285 -0.3564  0.1798 -0.0401
    1SOL     OW 5581   3.157   3.476   2.325 -0.2221  0.7847  0.0528
    1SOL    HW2 5582   3.148   3.483   2.420  0.2456  0.6985  0.1056
    1SOL    HW3 5583   3.245   3.509   2.307  0.4274 -0.9960 -0.1388
    1SOL    MW4 5584   3.168   3.482   2.335 -0.0744  0.5386  0.0346
    1SOL     OW 5585   3.385   3.608   2.257 -0.0092 -0.2933  0.0694
    1SOL    HW2 5586   3.479   3.589   2.263  0.9549  3.2628 -2.4009
    1SOL    HW3 5587   3.363   3.592   2.165 -1.1846  1.5671  0.0026
    1SOL    MW4 5588   3.394   3.603   2.246 -0.0370  0.4215 -0.2654
    1SOL     OW 5589   3.327   3.870   2.348  0.6276  0.0151 -0.1090
    1SOL    HW2 5590   3.410   3.899   2.312  1.5136 -0.5161  1.4423
    1SOL    HW3 5591   3.321   3.778   2.323  0.3984  0.1091 -0.4040
    1SOL    MW4 5592   3.337   3.862   2.340  0.7141 -0.0424  0.0567
    1SOL     OW 5593   3.120   4.001   2.238 -0.1199 -0.2431 -0.0023
    1SOL    HW2 5594   3.197   3.964   2.282 -0.2766  0.0825  0.5498
    1SOL    HW3 5595   3.047   3.950   2.271 -0.2837  0.2525  0.4200
    1SOL    MW4 5596   3.121   3.990   2.248 -0.1624 -0.1347  0.1264
    1SOL     OW 5597   3.151   4.276   2.308 -0.0137  0.3161 -0.1553
    1SOL    HW2 5598   3.234   4.305   2.268 -0.4273  1.6562 -0.0639
    1SOL    HW3 5599   3.143   4.185   2.282  0.6701  0.6421 -1.5783
    1SOL    MW4 5600   3.161   4.268   2.299  0.0219  0.5355 -0.3307
    1SOL     OW 5601   3.413   4.377   2.190  0.0567 -0.2411 -0.1506
    1SOL    HW2 5602   3.386   4.458   2.232 -0.0005 -0.4433  0.2099
    1SOL    HW3 5603   3.400   4.391   2.097 -1.6598 -0.4805  0.0355
    1SOL    MW4 5604   3.408   4.389   2.183 -0.1771 -0.2999 -0.0787
    1SOL     OW 5605   3.807   4.624   2.326  0.8773 -0.0032 -0.1252
    1SOL    HW2 5606   3.813   4.643   2.420  0.8125 -0.4144 -0.0380
    1SOL    HW3 5607   3.888   4.659   2.290  0.3313  1.3092 -0.1155
    1SOL    MW4 5608   3.818   4.631   2.334  0.7966  0.1159 -0.1123
    1SOL     OW 5609   3.565   0.109   2.256  0.1009  0.5891  0.1597
    1SOL    HW2 5610   3.563   0.196   2.295  1.6449  0.9137 -0.4664
    1SOL    HW3 5611   3.635   0.063   2.302  0.9663  0.5051 -1.2220
    1SOL    MW4 5612   3.574   0.115   2.267  0.4184  0.6208 -0.1054
    1SOL     OW 5613   3.594   0.366   2.338  0.3335 -0.3408  0.0632
    1SOL    HW2 5614   3.604   0.376   2.432 -0.9455  1.4708  0.0461
    1SOL    HW3 5615   3.678   0.395   2.302  0.8278 -1.0470  0.6374
    1SOL    MW4 5616   3.606   0.372   2.345  0.2298 -0.1950  0.1369
    1SOL     OW 5617   3.834   0.474   2.237  0.3998 -0.3426  0.4392
    1SOL    HW2 5618   3.825   0.566   2.264 -0.8149 -0.5624  0.8318
    1SOL    HW3 5619   3.798   0.472   2.149  0.2700 -0.4717  0.4955
    1SOL    MW4 5620   3.828   0.486   2.229  0.2222 -0.3887  0.4985
    1SOL     OW 5621   3.803   0.728   2.324  0.3724 -0.2340 -0.2610
    1SOL    HW2 5622   3.797   0.735   2.419  0.4241 -0.9897 -0.2017
    1SOL    HW3 5623   3.889   0.765   2.302  1.4953 -2.5047  0.2353
    1SOL    MW4 5624   3.813   0.734   2.333  0.5274 -0.6333 -0.1879
    1SOL     OW 5625   3.567   0.883   2.261 -0.2737 -0.1306 -0.0071
    1SOL    HW2 5626   3.651   0.839   2.275  0.5278  1.1809 -0.6048
    1SOL    HW3 5627   3.558   0.888   2.165 -0.9062 -0.0293  0.0552
    1SOL    MW4 5628   3.577   0.878   2.250 -0.2511  0.0558 -0.0775
    1SOL     OW 5629   3.591   1.149   2.357  0.7001 -0.1206 -0.0812
    1SOL    HW2 5630   3.611   1.140   2.450  1.4658  0.8131 -0.1471
    1SOL    HW3 5631   3.576   1.059   2.326  0.0509 -0.3996  1.0195
    1SOL    MW4 5632   3.592   1.136   2.365  0.7155 -0.0342  0.0551
    1SOL     OW 5633   3.825   1.260   2.257 -0.0937  0.0605 -0.1013
    1SOL    HW2 5634   3.810   1.349   2.289 -0.3212 -0.2211  0.5765
    1SOL    HW3 5635   3.750   1.211   2.287  1.3503 -0.9856  1.8784
    1SOL    MW4 5636   3.813   1.266   2.265  0.0668 -0.1147  0.2491
    1SOL     OW 5637   3.830   1.534   2.361  0.1796  0.1882  0.1057
    1SOL    HW2 5638   3.830   1.535   2.457 -0.2492 -0.5827  0.1193
    1SOL    HW3 5639   3.743   1.568   2.337  0.2520  0.2926 -0.0104
    1SOL    MW4 5640   3.818   1.539   2.370  0.1328  0.1003  0.0923
    1SOL     OW 5641   3.609   1.626   2.249  0.4931 -0.5844  0.3439
    1SOL    HW2 5642   3.520   1.602   2.278  0.2761  0.0267  0.1922
    1SOL    HW3 5643   3.604   1.628   2.154  0.0066  1.8887  0.3879
    1SOL    MW4 5644   3.596   1.623   2.240  0.4003 -0.1775  0.3297
    1SOL     OW 5645   3.565   1.894   2.319  0.7167  0.1225 -0.1925
    1SOL    HW2 5646   3.639   1.944   2.284  1.1756 -0.0451  0.5373
    1SOL    HW3 5647   3.583   1.804   2.295  0.5617  0.1271 -0.3308
    1SOL    MW4 5648   3.577   1.889   2.311  0.7567  0.1010 -0.1142
    1SOL     OW 5649   3.803   2.023   2.218 -0.2605  0.0349 -0.0053
    1SOL    HW2 5650   3.886   1.977   2.232  0.7591  1.6784 -0.4551
    1SOL    HW3 5651   3.802   2.041   2.124  0.0273  2.1101  0.3560
    1SOL    MW4 5652   3.814   2.019   2.207 -0.0880  0.5255 -0.0169
    1SOL     OW 5653   3.843   2.300   2.349  0.0617  0.7830 -0.0953
    1SOL    HW2 5654   3.758   2.336   2.326 -0.9620 -0.6316  1.3133
    1SOL    HW3 5655   3.839   2.209   2.320  0.8192  0.5148  0.6069
    1SOL    MW4 5656   3.831   2.293   2.342  0.0262  0.5612  0.1829
    1SOL     OW 5657   3.595   2.419   2.255  0.0989  0.4485  0.2334
    1SOL    HW2 5658   3.512   2.387   2.289  0.9173 -1.0664  0.8839
    1SOL    HW3 5659   3.592   2.400   2.161  0.6259 -1.7798  0.6255
    1SOL    MW4 5660   3.584   2.412   2.247  0.2763 -0.0451  0.3707
    1SOL     OW 5661   3.611   2.695   2.348 -0.2316 -0.5322  0.1949
    1SOL    HW2 5662   3.610   2.605   2.314 -0.6479  0.2284 -1.8932
    1SOL    HW3 5663   3.523   2.728   2.330  0.3161  0.7096 -0.2538
    1SOL    MW4 5664   3.599   2.687   2.341 -0.2143 -0.2682 -0.1397
    1SOL     OW 5665   3.799   2.843   2.223 -0.3518 -0.1169  0.0132
    1SOL    HW2 5666   3.802   2.930   2.261 -0.3690  0.0110 -0.2822
    1SOL    HW3 5667   3.722   2.802   2.263  0.1203 -0.2832  0.7650
    1SOL    MW4 5668   3.789   2.849   2.233 -0.2918 -0.1218  0.0734
    1SOL     OW 5669   3.833   3.079   2.386  0.3955  0.3870  0.0581
    1SOL    HW2 5670   3.834   3.067   2.481 -2.0596  0.1841  0.0798
    1SOL    HW3 5671   3.916   3.123   2.367  1.4084 -0.5574  2.1480
    1SOL    MW4 5672   3.844   3.083   2.396  0.2055  0.2356  0.3369
    1SOL     OW 5673   3.619   3.177   2.248 -0.0524 -0.1359  0.3073
    1SOL    HW2 5674   3.616   3.271   2.268  0.5420  0.2007 -1.1194
    1SOL    HW3 5675   3.694   3.145   2.298  0.5367  0.4083 -0.2140
    1SOL    MW4 5676   3.628   3.185   2.257  0.1037 -0.0198  0.0501
    1SOL     OW 5677   3.641   3.446   2.309  0.0425  0.2409  0.0577
    1SOL    HW2 5678   3.631   3.464   2.402  1.7769 -2.5932  0.8313
    1SOL    HW3 5679   3.715   3.501   2.282  0.4282  0.0333  0.6747
    1SOL    MW4 5680   3.649   3.456   2.318  0.3223 -0.1605  0.2413
    1SOL     OW 5681   3.854   3.604   2.238 -0.3027  0.1213 -0.3600
    1SOL    HW2 5682   3.832   3.689   2.278  2.0987  1.0251 -0.9038
    1SOL    HW3 5683   3.848   3.620   2.144 -0.1833 -0.4176 -0.4582
    1SOL    MW4 5684   3.850   3.618   2.231  0.0298  0.1695 -0.4447
    1SOL     OW 5685   3.798   3.858   2.348 -0.0355 -0.1753  0.0842
    1SOL    HW2 5686   3.809   3.876   2.441 -0.9693  1.3998 -0.0981
    1SOL    HW3 5687   3.859   3.918   2.304 -2.6075  2.1172 -0.4921
    1SOL    MW4 5688   3.808   3.868   2.354 -0.4983  0.3347 -0.0157
    1SOL     OW 5689   3.553   3.978   2.239 -0.2676  0.1275 -0.0736
    1SOL    HW2 5690   3.558   4.067   2.274 -0.5398 -0.2410  0.9178
    1SOL    HW3 5691   3.638   3.939   2.261 -0.6529 -0.2909  0.7110
    1SOL    MW4 5692   3.565   3.984   2.247 -0.3543  0.0234  0.1607
    1SOL     OW 5693   3.606   4.251   2.335 -0.4472 -0.1586 -0.5167
    1SOL    HW2 5694   3.688   4.285   2.300 -0.2951  0.2526  0.2367
    1SOL    HW3 5695   3.538   4.295   2.283 -0.2607  1.5961  0.6829
    1SOL    MW4 5696   3.608   4.261   2.323 -0.4025  0.1273 -0.2587
    1SOL     OW 5697   3.814   4.371   2.204  0.0268 -0.2900 -0.3935
    1SOL    HW2 5698   3.893   4.321   2.224 -0.9135 -1.8648 -0.5051
    1SOL    HW3 5699   3.823   4.452   2.254  2.0965 -0.0770 -1.0686
    1SOL    MW4 5700   3.825   4.375   2.213  0.1760 -0.4692 -0.4973
    1SOL     OW 5701   4.287   4.637   2.325  0.5628  0.2135  0.6714
    1SOL    HW2 5702   4.298   4.628   2.419  1.2919  1.2374  0.6897
    1SOL    HW3 5703   4.369   4.676   2.294  0.1894  0.2330 -0.3319
    1SOL    MW4 5704   4.299   4.641   2.333  0.6094  0.3510  0.5412
    1SOL     OW 5705   4.046   0.052   2.220  0.0430  0.0566  0.4870
    1SOL    HW2 5706   4.045   0.136   2.267  0.0915  0.5109 -0.3166
    1SOL    HW3 5707   4.119   0.004   2.259 -0.7648 -0.1160  1.8104
    1SOL    MW4 5708   4.056   0.057   2.232 -0.0577  0.0937  0.5553
    1SOL     OW 5709   4.065   0.314   2.327 -0.4655 -0.1918  0.8106
    1SOL    HW2 5710   4.142   0.363   2.297  0.2634 -1.2061  1.0188
    1SOL    HW3 5711   3.991   0.368   2.300  0.2723  0.2221 -0.4218
    1SOL    MW4 5712   4.066   0.328   2.320 -0.2728 -0.2710  0.6754
    1SOL     OW 5713   4.267   0.459   2.210 -0.1331  0.4396  0.2323
    1SOL    HW2 5714   4.257   0.551   2.235 -0.5993  0.9895 -1.9130
    1SOL    HW3 5715   4.351   0.432   2.248  0.6855  2.1488 -0.3406
    1SOL    MW4 5716   4.276   0.467   2.218 -0.0858  0.7377 -0.1264
    1SOL     OW 5717   4.270   0.735   2.337 -0.4572 -1.0233 -0.4422
    1SOL    HW2 5718   4.182   0.769   2.349 -0.1289 -0.5760  0.7343
    1SOL    HW3 5719   4.321   0.810   2.306 -0.0298 -0.7621  0.8788
    1SOL    MW4 5720   4.265   0.749   2.335 -0.3576 -0.9299 -0.1125
    1SOL     OW 5721   4.039   0.871   2.299  0.2186  0.4646  0.0125
    1SOL    HW2 5722   4.044   0.962   2.329 -0.9432  0.3525  0.5497
    1SOL    HW3 5723   4.050   0.877   2.204  0.4339  1.1416  0.0789
    1SOL    MW4 5724   4.041   0.884   2.290  0.0939  0.5391  0.0920
    1SOL     OW 5725   4.052   1.138   2.376 -0.6153  0.1721 -0.6246
    1SOL    HW2 5726   4.051   1.154   2.470  0.9550  1.0641 -0.7363
    1SOL    HW3 5727   3.964   1.161   2.346 -0.8444  0.7422  0.4916
    1SOL    MW4 5728   4.040   1.143   2.384 -0.4377  0.3649 -0.4921
    1SOL     OW 5729   4.278   1.289   2.261  0.2372  0.1303 -0.0264
    1SOL    HW2 5730   4.206   1.229   2.282  0.3243 -0.6707 -1.8893
    1SOL    HW3 5731   4.357   1.245   2.292  0.2729 -0.6051 -1.1517
    1SOL    MW4 5732   4.279   1.275   2.268  0.2532 -0.0724 -0.4206
    1SOL     OW 5733   4.269   1.545   2.384  0.2902  0.2104  0.1874
    1SOL    HW2 5734   4.267   1.457   2.345  0.1955  0.8138 -1.1825
    1SOL    HW3 5735   4.349   1.585   2.348 -0.4591  1.2221 -0.3615
    1SOL    MW4 5736   4.279   1.538   2.374  0.1788  0.4236 -0.0658
    1SOL     OW 5737   4.057   1.667   2.261  0.2694  0.0956 -0.1317
    1SOL    HW2 5738   4.132   1.628   2.306  0.2317  1.3993  1.1090
    1SOL    HW3 5739   3.982   1.616   2.293  0.4454 -0.1695 -0.1364
    1SOL    MW4 5740   4.057   1.655   2.271  0.2875  0.2327  0.0315
    1SOL     OW 5741   4.045   1.936   2.308 -0.0802  0.4060  0.1655
    1SOL    HW2 5742   4.031   1.941   2.402 -2.2839  0.2635 -0.1337
    1SOL    HW3 5743   4.052   1.842   2.289 -2.4389  0.2915 -0.1859
    1SOL    MW4 5744   4.044   1.924   2.318 -0.6819  0.3721  0.0796
    1SOL     OW 5745   4.286   2.043   2.244  0.3627 -0.1157 -0.5844
    1SOL    HW2 5746   4.272   2.133   2.274 -0.3285  0.7957 -3.4884
    1SOL    HW3 5747   4.204   1.999   2.263  0.5983 -0.0763  0.5762
    1SOL    MW4 5748   4.274   2.049   2.251  0.3023  0.0098 -0.8144
    1SOL     OW 5749   4.277   2.308   2.362  0.3004  0.2382 -0.7866
    1SOL    HW2 5750   4.214   2.369   2.322 -0.2770 -0.1266 -0.4459
    1SOL    HW3 5751   4.360   2.328   2.319 -0.4275 -0.5448 -2.5899
    1SOL    MW4 5752   4.280   2.319   2.351  0.1278  0.0868 -0.9794
    1SOL     OW 5753   4.068   2.423   2.218  0.2124 -0.1500  0.4431
    1SOL    HW2 5754   4.049   2.514   2.243 -0.1463  0.0564 -0.5701
    1SOL    HW3 5755   3.990   2.374   2.243  0.1698 -0.0820  0.4444
    1SOL    MW4 5756   4.056   2.429   2.225  0.1597 -0.1135  0.3095
    1SOL     OW 5757   4.019   2.668   2.333  0.0568  0.4001 -0.3139
    1SOL    HW2 5758   4.019   2.672   2.429  2.0285 -0.8288 -0.2375
    1SOL    HW3 5759   3.940   2.716   2.307 -0.8549  0.1704  1.9410
    1SOL    MW4 5760   4.008   2.675   2.342  0.1965  0.2074 -0.0067
    1SOL     OW 5761   4.212   2.852   2.251 -0.1866  0.1772  0.2442
    1SOL    HW2 5762   4.139   2.810   2.297 -1.2234  0.0108 -1.5077
    1SOL    HW3 5763   4.282   2.786   2.253 -1.2711 -1.0539 -1.1096
    1SOL    MW4 5764   4.212   2.837   2.258 -0.4663 -0.0069 -0.1655
    1SOL     OW 5765   4.277   3.098   2.413  0.4126 -0.0581 -0.2955
    1SOL    HW2 5766   4.270   3.015   2.365  2.0259 -0.4611  0.1425
    1SOL    HW3 5767   4.357   3.138   2.381  0.7408  0.3514  0.9829
    1SOL    MW4 5768   4.286   3.092   2.403  0.6685 -0.0572 -0.0689
    1SOL     OW 5769   4.057   3.206   2.295 -0.1084 -0.4533  0.0668
    1SOL    HW2 5770   4.051   3.300   2.307 -0.8489 -0.5847  0.7442
    1SOL    HW3 5771   4.134   3.179   2.345 -0.0432 -0.2482  0.0740
    1SOL    MW4 5772   4.067   3.215   2.303 -0.1974 -0.4437  0.1569
    1SOL     OW 5773   4.059   3.473   2.375 -0.0812  0.2855 -0.3742
    1SOL    HW2 5774   4.129   3.529   2.342 -0.1710 -0.7479 -2.4200
    1SOL    HW3 5775   3.980   3.509   2.336 -0.0867 -1.4990 -2.0943
    1SOL    MW4 5776   4.058   3.485   2.365 -0.0944 -0.0861 -0.8712
    1SOL     OW 5777   4.288   3.638   2.261  0.3267 -0.1991 -0.0087
    1SOL    HW2 5778   4.257   3.726   2.279  0.3871 -0.2919  0.5712
    1SOL    HW3 5779   4.279   3.627   2.167 -1.6423 -0.3256  0.1889
    1SOL    MW4 5780   4.283   3.648   2.251  0.0744 -0.2279  0.0937
    1SOL     OW 5781   4.236   3.906   2.342  0.0449  0.2948  0.1602
    1SOL    HW2 5782   4.259   3.895   2.434  0.4048 -1.7748 -0.1449
    1SOL    HW3 5783   4.319   3.928   2.299  0.0049  0.5739  0.2262
    1SOL    MW4 5784   4.250   3.907   2.348  0.0873  0.0584  0.1285
    1SOL     OW 5785   4.009   3.972   2.207 -0.4922 -0.1238  0.1586
    1SOL    HW2 5786   4.089   3.938   2.247 -0.7216  0.1933  0.9002
    1SOL    HW3 5787   4.032   3.988   2.116  0.2542 -0.1614  0.3405
    1SOL    MW4 5788   4.022   3.970   2.200 -0.4239 -0.0868  0.2804
    1SOL     OW 5789   4.035   4.240   2.315  0.3543  0.0970  0.0938
    1SOL    HW2 5790   4.122   4.271   2.291  0.3964 -0.3089 -0.2827
    1SOL    HW3 5791   4.030   4.153   2.277 -0.5948  0.5118 -0.7588
    1SOL    MW4 5792   4.046   4.233   2.307  0.2341  0.0978 -0.0684
    1SOL     OW 5793   4.277   4.343   2.224 -0.2304  0.0846 -0.0577
    1SOL    HW2 5794   4.283   4.432   2.259 -1.2123 -0.4857  1.6237
    1SOL    HW3 5795   4.349   4.296   2.265  0.2051  0.0496 -0.8454
    1SOL    MW4 5796   4.287   4.349   2.234 -0.3028  0.0048  0.0601
    1SOL     OW 5797   0.247   4.627   2.611 -0.3845 -0.3804  0.4882
    1SOL    HW2 5798   0.231   4.543   2.654 -1.9727  0.0906  0.8653
    1SOL    HW3 5799   0.167   4.677   2.627  0.3978  1.0634 -0.0638
    1SOL    MW4 5800   0.234   4.622   2.619 -0.4908 -0.1283  0.4649
    1SOL     OW 5801   0.031   0.078   2.696  0.0679  0.3503  0.2390
    1SOL    HW2 5802   0.019   0.070   2.791  0.3616 -0.1269  0.2435
    1SOL    HW3 5803  -0.001   0.165   2.674 -3.4150 -0.8511  0.2169
    1SOL    MW4 5804   0.025   0.088   2.706 -0.3529  0.1288  0.2367
    1SOL     OW 5805   4.462   0.331   2.621 -0.4226 -0.4119 -0.1107
    1SOL    HW2 5806   4.556   0.347   2.633 -0.3136 -1.2502  0.1960
    1SOL    HW3 5807   4.449   0.337   2.527 -0.2386  0.6307 -0.0791
    1SOL    MW4 5808   4.473   0.334   2.610 -0.3839 -0.3850 -0.0663
    1SOL     OW 5809   0.213   0.476   2.691  0.0872 -0.0763 -0.3413
    1SOL    HW2 5810   0.216   0.467   2.787  1.8402  0.5510 -0.3247
    1SOL    HW3 5811   0.294   0.436   2.660  0.0413  0.6865 -1.4802
    1SOL    MW4 5812   0.224   0.470   2.700  0.3124  0.1070 -0.4892
    1SOL     OW 5813   0.215   0.740   2.622  0.3973 -0.2495 -0.3081
    1SOL    HW2 5814   0.287   0.782   2.668 -0.4559  1.9091 -0.8269
    1SOL    HW3 5815   0.221   0.648   2.645  2.4792  0.1200  0.7419
    1SOL    MW4 5816   0.225   0.734   2.631  0.5594  0.0840 -0.2377
    1SOL     OW 5817   4.485   0.893   2.729  0.1419  0.4118 -0.1013
    1SOL    HW2 5818   4.411   0.844   2.691 -0.5166 -0.2836  2.0201
    1SOL    HW3 5819   4.562   0.841   2.707 -0.2432 -0.0400 -0.3902
    1SOL    MW4 5820   4.485   0.880   2.721  0.0038  0.2604  0.1407
    1SOL     OW 5821   4.481   1.164   2.633  0.1701 -0.0972 -0.4269
    1SOL    HW2 5822   4.547   1.206   2.688 -0.1867 -0.7528  0.5067
    1SOL    HW3 5823   4.480   1.073   2.662  0.1461 -0.5052 -1.6815
    1SOL    MW4 5824   4.490   1.158   2.644  0.1198 -0.2376 -0.4690
    1SOL     OW 5825   0.205   1.289   2.758 -0.2498  0.1242 -0.3319
    1SOL    HW2 5826   0.282   1.234   2.746  0.6041  1.2305 -0.0098
    1SOL    HW3 5827   0.231   1.375   2.725 -1.2838  0.5524 -0.0637
    1SOL    MW4 5828   0.219   1.293   2.752 -0.2736  0.3266 -0.2537
    1SOL     OW 5829   0.265   1.539   2.626  0.0656  0.4234  0.2104
    1SOL    HW2 5830   0.345   1.580   2.660  0.1844  1.4209 -1.2300
    1SOL    HW3 5831   0.194   1.591   2.663  0.1378  0.4517  0.3095
    1SOL    MW4 5832   0.267   1.552   2.635  0.0908  0.5587  0.0334
    1SOL     OW 5833   0.033   1.668   2.722  0.4079  0.0575 -0.0241
    1SOL    HW2 5834   0.009   1.666   2.814  1.4593 -1.0567  0.2355
    1SOL    HW3 5835   0.026   1.760   2.697  1.3249  0.5607  1.4976
    1SOL    MW4 5836   0.029   1.680   2.731  0.6676 -0.0231  0.2108
    1SOL     OW 5837   4.488   1.927   2.633 -0.5478 -0.5722 -0.0748
    1SOL    HW2 5838   4.571   1.958   2.670 -0.0486 -1.7857 -0.1422
    1SOL    HW3 5839   4.501   1.932   2.538 -0.8498 -0.0015 -0.0878
    1SOL    MW4 5840   4.501   1.932   2.626 -0.5217 -0.6571 -0.0851
    1SOL     OW 5841   0.230   2.048   2.749  0.4691  0.8811  0.9508
    1SOL    HW2 5842   0.310   2.007   2.714  0.0606 -0.5441  1.6555
    1SOL    HW3 5843   0.239   2.141   2.726  2.0020  0.6194  0.4182
    1SOL    MW4 5844   0.242   2.055   2.741  0.6174  0.6585  0.9735
    1SOL     OW 5845   0.252   2.305   2.644 -0.3421 -0.1900 -0.0867
    1SOL    HW2 5846   0.338   2.342   2.663 -0.0196  0.1522 -2.1230
    1SOL    HW3 5847   0.190   2.365   2.685  0.3093  0.7637 -0.5009
    1SOL    MW4 5848   0.255   2.317   2.652 -0.2137 -0.0188 -0.4101
    1SOL     OW 5849   0.039   2.451   2.733 -0.0385 -0.0308  0.0005
    1SOL    HW2 5850   0.026   2.465   2.827  0.8888 -0.5061  0.2096
    1SOL    HW3 5851  -0.047   2.421   2.702 -0.4359  0.4257  0.6369
    1SOL    MW4 5852   0.026   2.449   2.742  0.0314 -0.0331  0.1118
    1SOL     OW 5853   4.488   2.704   2.615  0.2620  0.0352  0.5424
    1SOL    HW2 5854   4.402   2.734   2.645  0.3415 -0.3268  1.1455
    1SOL    HW3 5855   4.495   2.614   2.648  1.8135  0.8351  2.5029
    1SOL    MW4 5856   4.478   2.696   2.623  0.4773  0.0930  0.8807
    1SOL     OW 5857   0.222   2.814   2.740  0.3316  0.1403  0.3668
    1SOL    HW2 5858   0.223   2.908   2.720  0.7462 -0.1056 -0.7747
    1SOL    HW3 5859   0.142   2.782   2.699 -0.4875  0.2214  1.8604
    1SOL    MW4 5860   0.211   2.822   2.732  0.2782  0.1185  0.4134
    1SOL     OW 5861   0.240   3.093   2.671  0.2736 -0.2336  0.4499
    1SOL    HW2 5862   0.316   3.145   2.697 -0.9213  1.8244 -0.0415
    1SOL    HW3 5863   0.239   3.098   2.575  0.6070 -1.8581  0.3545
    1SOL    MW4 5864   0.250   3.101   2.662  0.1599 -0.1764  0.3724
    1SOL     OW 5865   4.465   3.205   2.765 -0.0393  0.1117 -0.0815
    1SOL    HW2 5866   4.391   3.151   2.736  0.5452  0.2634 -1.9239
    1SOL    HW3 5867   4.543   3.155   2.740  0.4925  0.9631 -0.1494
    1SOL    MW4 5868   4.465   3.191   2.758  0.1081  0.2444 -0.3335
    1SOL     OW 5869   0.004   3.416   2.597 -0.0379  0.4441 -0.0859
    1SOL    HW2 5870   0.059   3.483   2.638  0.4808  0.5201 -0.8927
    1SOL    HW3 5871  -0.007   3.349   2.665  0.3214  0.8528  0.3737
    1SOL    MW4 5872   0.010   3.416   2.611  0.0772  0.5081 -0.1316
    1SOL     OW 5873   0.179   3.611   2.703 -0.4752  0.0472  0.0848
    1SOL    HW2 5874   0.184   3.609   2.798 -0.6395 -0.3042  0.0862
    1SOL    HW3 5875   0.261   3.572   2.674 -0.0713  0.8785  0.0741
    1SOL    MW4 5876   0.190   3.606   2.711 -0.4435  0.1106  0.0837
    1SOL     OW 5877   0.208   3.866   2.595  0.0188  0.0512  0.3565
    1SOL    HW2 5878   0.180   3.777   2.616 -2.0106  0.7082  0.5313
    1SOL    HW3 5879   0.197   3.874   2.501  0.9903 -0.1360  0.2207
    1SOL    MW4 5880   0.203   3.856   2.585 -0.1207  0.1130  0.3617
    1SOL     OW 5881   4.486   3.983   2.734 -0.5663 -0.6952  0.0220
    1SOL    HW2 5882   4.473   4.067   2.690  0.7077 -1.1113 -1.1889
    1SOL    HW3 5883   4.559   3.942   2.687  0.3092 -1.5178  2.0287
    1SOL    MW4 5884   4.494   3.989   2.722 -0.2827 -0.8585  0.1268
    1SOL     OW 5885   4.489   4.222   2.610  0.1036 -0.0145  0.3602
    1SOL    HW2 5886   4.413   4.274   2.635  0.9297  1.8412 -0.8725
    1SOL    HW3 5887   4.564   4.269   2.646  0.8284 -0.7260 -0.1687
    1SOL    MW4 5888   4.489   4.235   2.618  0.3080  0.1364  0.1276
    1SOL     OW 5889   0.217   4.356   2.716 -0.2348 -0.1289  0.2890
    1SOL    HW2 5890   0.228   4.373   2.810  1.8218  1.4497 -0.1988
    1SOL    HW3 5891   0.295   4.306   2.691 -0.4623 -0.0015 -0.7106
    1SOL    MW4 5892   0.229   4.352   2.725  0.0066  0.0968  0.0927
    1SOL     OW 5893   0.666   4.649   2.622 -0.1134  0.1919 -0.4433
    1SOL    HW2 5894   0.744   4.696   2.651 -1.2830  2.4316 -0.8175
    1SOL    HW3 5895   0.594   4.687   2.673 -0.8989 -2.3379  0.4262
    1SOL    MW4 5896   0.667   4.660   2.633 -0.3713  0.1535 -0.3781
    1SOL     OW 5897   0.448   0.108   2.732 -0.0790  0.3368 -0.3472
    1SOL    HW2 5898   0.450   0.101   2.828  1.0443  0.5089 -0.3510
    1SOL    HW3 5899   0.372   0.056   2.706  0.3817 -0.8044  0.5536
    1SOL    MW4 5900   0.438   0.100   2.741  0.1300  0.2089 -0.2286
    1SOL     OW 5901   0.437   0.351   2.590 -0.4704  0.1412  0.2612
    1SOL    HW2 5902   0.512   0.406   2.613 -0.6634  0.5175  0.0012
    1SOL    HW3 5903   0.446   0.273   2.645  1.7015 -1.1253 -1.8219
    1SOL    MW4 5904   0.448   0.348   2.600 -0.2093  0.0238 -0.0479
    1SOL     OW 5905   0.658   0.499   2.671  0.3184  1.0172 -0.4287
    1SOL    HW2 5906   0.638   0.483   2.763 -0.1975  1.6647 -0.4265
    1SOL    HW3 5907   0.751   0.475   2.662  0.3116  0.7577  0.2128
    1SOL    MW4 5908   0.668   0.494   2.682  0.2494  1.0684 -0.3440
    1SOL     OW 5909   0.673   0.774   2.636  0.4349  0.2049 -0.3893
    1SOL    HW2 5910   0.753   0.809   2.676  0.1771 -0.6720  0.9026
    1SOL    HW3 5911   0.677   0.680   2.653 -1.6756  0.3750  1.0991
    1SOL    MW4 5912   0.684   0.766   2.644  0.1224  0.1116 -0.0224
    1SOL     OW 5913   0.436   0.874   2.729 -0.0463  0.2556 -0.1158
    1SOL    HW2 5914   0.449   0.885   2.823 -0.7047 -0.9089  0.1272
    1SOL    HW3 5915   0.520   0.842   2.696  0.3020  1.0272  0.0020
    1SOL    MW4 5916   0.449   0.871   2.737 -0.0873  0.2038 -0.0684
    1SOL     OW 5917   0.415   1.140   2.632  0.0858  0.0322  0.2274
    1SOL    HW2 5918   0.469   1.204   2.678 -0.6817  1.1326 -0.3405
    1SOL    HW3 5919   0.439   1.056   2.669  0.2437  0.7838  1.8633
    1SOL    MW4 5920   0.425   1.138   2.643  0.0054  0.2767  0.3684
    1SOL     OW 5921   0.619   1.296   2.756 -0.0893 -0.2270  0.2781
    1SOL    HW2 5922   0.620   1.299   2.851  0.5776  1.6366  0.2486
    1SOL    HW3 5923   0.695   1.242   2.733  0.7728  0.7324  0.7969
    1SOL    MW4 5924   0.629   1.290   2.765  0.1124  0.1456  0.3424
    1SOL     OW 5925   0.669   1.541   2.611  0.0530  0.0227 -0.1988
    1SOL    HW2 5926   0.615   1.603   2.660  0.8439  0.9093 -0.4149
    1SOL    HW3 5927   0.681   1.467   2.670  0.0575  0.5923  0.5244
    1SOL    MW4 5928   0.664   1.539   2.625  0.1580  0.2147 -0.1318
    1SOL     OW 5929   0.486   1.672   2.763 -0.2682  0.1247  0.3040
    1SOL    HW2 5930   0.445   1.660   2.849  1.1239  0.9730  1.1028
    1SOL    HW3 5931   0.480   1.766   2.746  0.5203  0.1254  0.0107
    1SOL    MW4 5932   0.480   1.683   2.772  0.0196  0.2367  0.3705
    1SOL     OW 5933   0.466   1.928   2.653  0.0913 -0.1885 -0.0222
    1SOL    HW2 5934   0.516   1.998   2.695 -1.5290  1.8118 -1.3728
    1SOL    HW3 5935   0.478   1.942   2.559 -1.6746 -0.6474 -0.3397
    1SOL    MW4 5936   0.474   1.939   2.646 -0.3555  0.0149 -0.2422
    1SOL     OW 5937   0.660   2.120   2.781 -0.5242 -0.6317 -0.6855
    1SOL    HW2 5938   0.644   2.120   2.875 -0.5324 -1.6457 -0.6812
    1SOL    HW3 5939   0.725   2.051   2.767 -0.0340 -0.0554 -1.3479
    1SOL    MW4 5940   0.667   2.111   2.791 -0.4606 -0.6897 -0.7722
    1SOL     OW 5941   0.711   2.362   2.622  0.2409  0.1709  0.0691
    1SOL    HW2 5942   0.787   2.391   2.672 -0.7506  0.7085  1.2864
    1SOL    HW3 5943   0.685   2.280   2.664  0.0221  0.0913 -0.2211
    1SOL    MW4 5944   0.718   2.355   2.634  0.0812  0.2310  0.1912
    1SOL     OW 5945   0.474   2.454   2.737  0.1355 -0.3263 -0.0379
    1SOL    HW2 5946   0.470   2.546   2.713  0.1378 -0.4747 -0.6057
    1SOL    HW3 5947   0.560   2.425   2.705  0.3996 -0.3701  0.6921
    1SOL    MW4 5948   0.485   2.462   2.730  0.1706 -0.3517 -0.0165
    1SOL     OW 5949   0.445   2.706   2.646  0.2923  0.0920  0.1805
    1SOL    HW2 5950   0.507   2.769   2.681  0.3985 -0.2806  0.6701
    1SOL    HW3 5951   0.360   2.735   2.677  0.2038  0.6756 -0.5965
    1SOL    MW4 5952   0.442   2.718   2.655  0.2947  0.1199  0.1426
    1SOL     OW 5953   0.673   2.823   2.766 -0.0185 -0.1412  0.2934
    1SOL    HW2 5954   0.707   2.811   2.855 -0.9607  0.0608  0.6914
    1SOL    HW3 5955   0.694   2.913   2.743  0.5043 -0.2876  0.1823
    1SOL    MW4 5956   0.680   2.833   2.775 -0.0738 -0.1338  0.3314
    1SOL     OW 5957   0.687   3.078   2.655 -0.0445  0.3401  0.5229
    1SOL    HW2 5958   0.763   3.133   2.675  0.1385 -0.0014  0.7724
    1SOL    HW3 5959   0.680   3.079   2.560  1.2553 -0.9574  0.4157
    1SOL    MW4 5960   0.696   3.085   2.645  0.1512  0.1237  0.5419
    1SOL     OW 5961   0.459   3.250   2.720  0.3484 -0.2124 -0.5437
    1SOL    HW2 5962   0.452   3.232   2.814 -0.3537  1.9846 -0.1510
    1SOL    HW3 5963   0.538   3.204   2.693  1.1228 -0.0405  1.3347
    1SOL    MW4 5964   0.468   3.242   2.729  0.3580  0.1001 -0.2441
    1SOL     OW 5965   0.420   3.509   2.631  0.3420 -0.8169  0.5962
    1SOL    HW2 5966   0.432   3.423   2.671  2.0466 -1.0664 -0.4267
    1SOL    HW3 5967   0.442   3.497   2.539 -0.3745  0.4871  0.2437
    1SOL    MW4 5968   0.425   3.496   2.624  0.4723 -0.6778  0.4148
    1SOL     OW 5969   0.675   3.630   2.720  0.1627  0.5920  0.3889
    1SOL    HW2 5970   0.680   3.652   2.813  1.5896  0.3052  0.3968
    1SOL    HW3 5971   0.587   3.594   2.709 -0.2446  1.2146  1.4968
    1SOL    MW4 5972   0.664   3.628   2.731  0.2972  0.6363  0.5362
    1SOL     OW 5973   0.668   3.883   2.638 -0.4952  0.1489 -0.5732
    1SOL    HW2 5974   0.579   3.910   2.663 -1.1764 -0.5318 -2.1713
    1SOL    HW3 5975   0.673   3.791   2.664  0.7401  0.9098  2.0434
    1SOL    MW4 5976   0.657   3.874   2.644 -0.4221  0.1595 -0.4389
    1SOL     OW 5977   0.429   3.957   2.726 -0.2363 -0.4639  0.1821
    1SOL    HW2 5978   0.414   4.040   2.681  0.1106 -0.3436  0.2859
    1SOL    HW3 5979   0.350   3.905   2.708 -0.8635  0.2354  0.8921
    1SOL    MW4 5980   0.417   3.961   2.718 -0.2733 -0.3560  0.2892
    1SOL     OW 5981   0.449   4.220   2.628 -0.3207  0.1012 -0.3961
    1SOL    HW2 5982   0.516   4.278   2.665 -0.9261  0.1051  0.7396
    1SOL    HW3 5983   0.459   4.228   2.533  0.5374  0.9656 -0.2390
    1SOL    MW4 5984   0.459   4.228   2.621 -0.2874  0.2155 -0.2255
    1SOL     OW 5985   0.660   4.393   2.737  0.3303  0.6297  0.0112
    1SOL    HW2 5986   0.742   4.350   2.713 -0.3581 -0.9189  0.3483
    1SOL    HW3 5987   0.663   4.477   2.691  2.1604  0.6634  0.1362
    1SOL    MW4 5988   0.671   4.398   2.728  0.4810  0.4296  0.0722
    1SOL     OW 5989   1.101   4.601   2.632  0.0038 -0.2116 -0.1023
    1SOL    HW2 5990   1.179   4.655   2.642 -0.8656  0.8906  0.8531
    1SOL    HW3 5991   1.127   4.514   2.665  1.8712 -0.8425 -3.0909
    1SOL    MW4 5992   1.115   4.596   2.638  0.1353 -0.1493 -0.3705
    1SOL     OW 5993   0.894   0.114   2.706 -0.2070  0.1281 -0.6332
    1SOL    HW2 5994   0.888   0.111   2.802  0.4965  2.5643 -0.4676
    1SOL    HW3 5995   0.971   0.062   2.684 -0.3679 -0.4327  0.1409
    1SOL    MW4 5996   0.903   0.107   2.716 -0.1354  0.3755 -0.5093
    1SOL     OW 5997   0.897   0.381   2.642 -0.3001 -0.4367 -0.3504
    1SOL    HW2 5998   0.906   0.288   2.661 -2.2823 -0.4931  0.3616
    1SOL    HW3 5999   0.888   0.385   2.547  0.6855 -0.8828 -0.4705
    1SOL    MW4 6000   0.897   0.369   2.632 -0.4315 -0.5030 -0.2723
    1SOL     OW 6001   1.143   0.523   2.722  0.2303  0.0526  0.6792
    1SOL    HW2 6002   1.134   0.615   2.699 -0.9542 -0.0346  0.7547
    1SOL    HW3 6003   1.066   0.481   2.684 -0.0576 -0.6372  1.9775
    1SOL    MW4 6004   1.132   0.530   2.714  0.0360 -0.0499  0.8605
    1SOL     OW 6005   1.123   0.769   2.612  0.4992 -0.0402 -0.0959
    1SOL    HW2 6006   1.192   0.831   2.636  0.7912 -0.3053 -0.2379
    1SOL    HW3 6007   1.117   0.776   2.517 -0.5170  0.8652  0.0163
    1SOL    MW4 6008   1.131   0.778   2.603  0.4036  0.0442 -0.0999
    1SOL     OW 6009   0.902   0.896   2.748 -0.1983  0.2529  0.6246
    1SOL    HW2 6010   0.896   0.879   2.842  1.2568  0.5596  0.7891
    1SOL    HW3 6011   0.968   0.834   2.716 -0.0632  0.7339 -0.0490
    1SOL    MW4 6012   0.910   0.885   2.756  0.0115  0.3569  0.5574
    1SOL     OW 6013   0.849   1.144   2.641  0.1409 -0.2524 -0.1917
    1SOL    HW2 6014   0.873   1.056   2.669 -0.1416 -0.6123 -1.0754
    1SOL    HW3 6015   0.853   1.141   2.546  1.0888  0.9541 -0.2117
    1SOL    MW4 6016   0.853   1.132   2.632  0.2287 -0.1408 -0.3109
    1SOL     OW 6017   1.059   1.294   2.769 -0.1797 -0.5368 -0.9376
    1SOL    HW2 6018   1.073   1.378   2.725  0.4909 -0.4525 -0.5855
    1SOL    HW3 6019   0.986   1.254   2.723 -1.4033  0.8499 -0.2218
    1SOL    MW4 6020   1.051   1.300   2.757 -0.2527 -0.3427 -0.7968
    1SOL     OW 6021   1.086   1.525   2.630 -0.5065 -0.2165  0.5240
    1SOL    HW2 6022   1.012   1.581   2.655  0.0451  0.2036  1.2225
    1SOL    HW3 6023   1.080   1.518   2.534  0.2228  2.1558  0.2827
    1SOL    MW4 6024   1.075   1.531   2.620 -0.3374  0.1519  0.5846
    1SOL     OW 6025   0.886   1.660   2.743  0.0244  0.7285 -0.0814
    1SOL    HW2 6026   0.874   1.656   2.837  0.0461 -0.4954 -0.1163
    1SOL    HW3 6027   0.814   1.608   2.707  1.3516 -0.8114 -0.6092
    1SOL    MW4 6028   0.875   1.652   2.750  0.2024  0.3637 -0.1554
    1SOL     OW 6029   0.858   1.942   2.661 -0.0799 -0.2299 -0.5542
    1SOL    HW2 6030   0.937   1.990   2.687 -1.5097  1.1942  1.3059
    1SOL    HW3 6031   0.878   1.850   2.682  1.1157  0.1067 -0.1801
    1SOL    MW4 6032   0.871   1.936   2.667 -0.1108  0.0024 -0.2596
    1SOL     OW 6033   1.100   2.054   2.713  0.2477  0.1932  0.0938
    1SOL    HW2 6034   1.172   2.012   2.666  0.4632  1.6858 -0.9423
    1SOL    HW3 6035   1.110   2.148   2.694 -0.5569  0.6683  1.8882
    1SOL    MW4 6036   1.111   2.061   2.705  0.1700  0.4525  0.1936
    1SOL     OW 6037   1.129   2.330   2.663 -0.1432 -0.4817 -0.1516
    1SOL    HW2 6038   1.209   2.376   2.688 -0.7977  0.6582 -0.1330
    1SOL    HW3 6039   1.128   2.334   2.568 -1.3556  1.5609 -0.0772
    1SOL    MW4 6040   1.140   2.337   2.654 -0.3896 -0.0622 -0.1392
    1SOL     OW 6041   0.927   2.452   2.779 -0.3064  0.1516 -0.5702
    1SOL    HW2 6042   0.926   2.539   2.740  0.6522  0.1179 -0.6591
    1SOL    HW3 6043   0.992   2.403   2.729  0.2029 -0.1911  0.4113
    1SOL    MW4 6044   0.935   2.457   2.768 -0.1128  0.1020 -0.4525
    1SOL     OW 6045   0.857   2.693   2.625 -0.2067  0.2322 -0.0235
    1SOL    HW2 6046   0.936   2.742   2.649 -0.4032  0.4183  0.2330
    1SOL    HW3 6047   0.785   2.740   2.667 -0.3319 -0.6454  0.7630
    1SOL    MW4 6048   0.858   2.706   2.633 -0.2491  0.1409  0.1140
    1SOL     OW 6049   1.083   2.832   2.723  0.0000  0.0000 -0.3113
    1SOL    HW2 6050   1.106   2.825   2.816  0.0000  0.0000 -0.3107
    1SOL    HW3 6051   1.159   2.795   2.677  0.0000  0.0000 -0.3090
    1SOL    MW4 6052   1.096   2.826   2.729  0.0000  0.0000 -0.3111
    1SOL     OW 6053   1.148   3.096   2.642  0.0000  0.0000 -0.2856
    1SOL    HW2 6054   1.122   3.007   2.665  0.0000  0.0000 -0.2863
    1SOL    HW3 6055   1.136   3.101   2.547  0.0000  0.0000 -0.2858
    1SOL    MW4 6056   1.143   3.085   2.633  0.0000  0.0000 -0.2859
    1SOL     OW 6057   0.919   3.208   2.742  0.0000  0.0000  0.4976
    1SOL    HW2 6058   0.903   3.287   2.690  0.0000  0.0000  0.4959
    1SOL    HW3 6059   1.006   3.179   2.714  0.0000  0.0000  0.4765
    1SOL    MW4 6060   0.928   3.215   2.731  0.0000  0.0000  0.4947
    1SOL     OW 6061   0.887   3.462   2.634  0.0000  0.0000  0.0058
    1SOL    HW2 6062   0.961   3.508   2.675  0.0000  0.0000  0.0423
    1SOL    HW3 6063   0.810   3.511   2.664  0.0000  0.0000 -0.0462
    1SOL    MW4 6064   0.887   3.475   2.644  0.0000  0.0000  0.0038
    1SOL     OW 6065   1.102   3.599   2.733  0.0000  0.0000  0.6003
    1SOL    HW2 6066   1.101   3.626   2.825  0.0000  0.0000  0.6014
    1SOL    HW3 6067   1.100   3.681   2.684  0.0000  0.0000  0.6039
    1SOL    MW4 6068   1.102   3.613   2.739  0.0000  0.0000  0.6008
    1SOL     OW 6069   1.098   3.851   2.633  0.0000  0.0000 -0.0381
    1SOL    HW2 6070   1.178   3.889   2.670  0.0000  0.0000 -0.0438
    1SOL    HW3 6071   1.110   3.859   2.538  0.0000  0.0000 -0.0392
    1SOL    MW4 6072   1.110   3.857   2.625  0.0000  0.0000 -0.0393
    1SOL     OW 6073   0.893   4.008   2.738  0.0000  0.0000  0.2213
    1SOL    HW2 6074   0.957   3.963   2.683  0.0000  0.0000  0.2142
    1SOL    HW3 6075   0.809   3.969   2.712  0.0000  0.0000  0.2252
    1SOL    MW4 6076   0.890   3.997   2.728  0.0000  0.0000  0.2210
    1SOL     OW 6077   0.888   4.266   2.670  0.0000  0.0000  0.0241
    1SOL    HW2 6078   0.892   4.173   2.695  0.0000  0.0000  0.0248
    1SOL    HW3 6079   0.884   4.265   2.575  0.0000  0.0000  0.0243
    1SOL    MW4 6080   0.888   4.254   2.661  0.0000  0.0000  0.0246
    1SOL     OW 6081   1.144   4.351   2.734  0.0000  0.0000 -0.1725
    1SOL    HW2 6082   1.137   4.378   2.825  0.0000  0.0000 -0.1729
    1SOL    HW3 6083   1.055   4.327   2.709  0.0000  0.0000 -0.1603
    1SOL    MW4 6084   1.131   4.351   2.743  0.0000  0.0000 -0.1709
    1SOL     OW 6085   1.530   4.622   2.615  0.5690 -0.0121 -0.0574
    1SOL    HW2 6086   1.558   4.539   2.653 -1.2758 -0.1108  1.1710
    1SOL    HW3 6087   1.527   4.605   2.521 -2.0657 -2.1071  0.3396
    1SOL    MW4 6088   1.533   4.609   2.608 -0.0221 -0.3009  0.1569
    1SOL     OW 6089   1.316   0.101   2.714  0.2358  0.1502  0.4147
    1SOL    HW2 6090   1.306   0.182   2.664  2.1823  0.8118  1.0469
    1SOL    HW3 6091   1.393   0.059   2.675 -0.3509 -1.0691  0.5501
    1SOL    MW4 6092   1.325   0.106   2.702  0.4152  0.0766  0.5162
    1SOL     OW 6093   1.331   0.360   2.599 -0.3459 -0.5126  0.1883
    1SOL    HW2 6094   1.407   0.366   2.657 -0.9867 -3.1812  1.3608
    1SOL    HW3 6095   1.267   0.419   2.638  0.1779 -0.2591  0.6802
    1SOL    MW4 6096   1.333   0.369   2.612 -0.3614 -0.8312  0.4082
    1SOL     OW 6097   1.576   0.479   2.720  0.2804 -0.2293 -0.1185
    1SOL    HW2 6098   1.642   0.443   2.660 -0.1531 -1.5186  0.1508
    1SOL    HW3 6099   1.563   0.569   2.690  0.8811 -0.5039 -1.2660
    1SOL    MW4 6100   1.583   0.486   2.708  0.3024 -0.4357 -0.2344
    1SOL     OW 6101   1.539   0.741   2.601  0.1196 -0.1226 -0.1059
    1SOL    HW2 6102   1.472   0.793   2.646  0.2279  0.9823 -1.1850
    1SOL    HW3 6103   1.538   0.775   2.511  1.2119 -1.0045 -0.4542
    1SOL    MW4 6104   1.530   0.753   2.595  0.2780 -0.0932 -0.2940
    1SOL     OW 6105   1.351   0.893   2.724  0.1171 -0.0764  0.1573
    1SOL    HW2 6106   1.351   0.888   2.819  1.9251  0.6810  0.2242
    1SOL    HW3 6107   1.344   0.986   2.704 -2.2888 -0.3768 -0.5023
    1SOL    MW4 6108   1.350   0.904   2.734  0.0383 -0.0161  0.0792
    1SOL     OW 6109   1.283   1.152   2.643  0.2447 -0.5218  0.1019
    1SOL    HW2 6110   1.369   1.191   2.661 -0.2138  0.3777  0.3306
    1SOL    HW3 6111   1.223   1.199   2.700 -0.6211 -0.2178 -1.0570
    1SOL    MW4 6112   1.287   1.163   2.653  0.0699 -0.3630 -0.0207
    1SOL     OW 6113   1.530   1.244   2.738  0.0171  0.2372 -0.0915
    1SOL    HW2 6114   1.545   1.275   2.827 -0.2453  1.4718 -0.4713
    1SOL    HW3 6115   1.610   1.198   2.715  0.3548  0.5092  0.5324
    1SOL    MW4 6116   1.542   1.242   2.746  0.0272  0.4361 -0.0594
    1SOL     OW 6117   1.548   1.518   2.641  0.4816  0.2606 -0.1915
    1SOL    HW2 6118   1.545   1.427   2.669  0.9967  0.0954 -0.6727
    1SOL    HW3 6119   1.549   1.515   2.546  0.9169  0.7489 -0.2083
    1SOL    MW4 6120   1.548   1.506   2.632  0.6070  0.3034 -0.2573
    1SOL     OW 6121   1.321   1.665   2.722 -0.4854 -0.0403 -0.4012
    1SOL    HW2 6122   1.395   1.609   2.697 -0.5495 -0.6826  0.8097
    1SOL    HW3 6123   1.246   1.630   2.673 -0.0955  0.3297 -1.2812
    1SOL    MW4 6124   1.321   1.653   2.712 -0.4423 -0.0763 -0.3576
    1SOL     OW 6125   1.329   1.931   2.627  0.2630 -0.0364 -0.1371
    1SOL    HW2 6126   1.348   1.842   2.655 -0.7662  0.1658  1.2372
    1SOL    HW3 6127   1.317   1.924   2.532  0.7648 -1.2479 -0.1187
    1SOL    MW4 6128   1.330   1.918   2.618  0.1934 -0.1695  0.0467
    1SOL     OW 6129   1.540   2.071   2.708  0.6345  0.3656 -0.1079
    1SOL    HW2 6130   1.616   2.019   2.684  0.6759  0.5620 -0.4121
    1SOL    HW3 6131   1.465   2.022   2.674  0.6376  0.2434  0.0644
    1SOL    MW4 6132   1.540   2.058   2.700  0.6404  0.3753 -0.1254
    1SOL     OW 6133   1.562   2.317   2.608  0.3571  0.5041 -0.1111
    1SOL    HW2 6134   1.638   2.354   2.652  1.1529 -0.3698 -0.7249
    1SOL    HW3 6135   1.556   2.228   2.642 -0.0172  0.3710 -0.5300
    1SOL    MW4 6136   1.571   2.310   2.618  0.4127  0.3712 -0.2472
    1SOL     OW 6137   1.347   2.454   2.752 -0.3328  0.0584  0.4831
    1SOL    HW2 6138   1.330   2.544   2.725  0.0124  0.4729  1.6206
    1SOL    HW3 6139   1.425   2.428   2.702 -1.3878 -0.1815 -1.0705
    1SOL    MW4 6140   1.355   2.462   2.741 -0.4264  0.0815  0.4280
    1SOL     OW 6141   1.300   2.688   2.616 -0.0766  0.4631  0.1748
    1SOL    HW2 6142   1.386   2.728   2.629  0.4198 -0.0520 -1.3138
    1SOL    HW3 6143   1.296   2.672   2.521 -1.6662  0.1521  0.2829
    1SOL    MW4 6144   1.311   2.691   2.605 -0.2209  0.3543 -0.0072
    1SOL     OW 6145   1.533   2.815   2.706 -0.3660 -0.2975  0.0994
    1SOL    HW2 6146   1.532   2.821   2.801  1.4272  0.2330  0.0920
    1SOL    HW3 6147   1.609   2.761   2.686 -0.7207 -0.3844 -1.0534
    1SOL    MW4 6148   1.543   2.808   2.716 -0.1762 -0.2394 -0.0539
    1SOL     OW 6149   1.602   3.073   2.599 -0.1768  0.3330  0.1655
    1SOL    HW2 6150   1.664   3.122   2.654 -1.0927  0.9087  0.6968
    1SOL    HW3 6151   1.586   2.992   2.648  0.5572 -0.0574 -0.2280
    1SOL    MW4 6152   1.608   3.069   2.613 -0.2009  0.3574  0.1838
    1SOL     OW 6153   1.367   3.251   2.699 -0.3644 -0.0665 -0.1132
    1SOL    HW2 6154   1.442   3.197   2.675  0.2928  0.1878  1.3037
    1SOL    HW3 6155   1.291   3.197   2.680  0.2498 -1.1200  0.3829
    1SOL    MW4 6156   1.367   3.237   2.693 -0.1966 -0.1717  0.1392
    1SOL     OW 6157   1.339   3.511   2.613  0.2790 -0.3666  0.2909
    1SOL    HW2 6158   1.346   3.418   2.636 -0.4130 -0.6927 -0.7430
    1SOL    HW3 6159   1.260   3.541   2.658  0.0547 -0.4938 -0.0106
    1SOL    MW4 6160   1.329   3.502   2.622  0.1581 -0.4263  0.1147
    1SOL     OW 6161   1.568   3.574   2.751 -0.5690  0.2364 -0.0853
    1SOL    HW2 6162   1.642   3.528   2.711 -0.2740  1.5022 -1.0315
    1SOL    HW3 6163   1.492   3.547   2.698 -0.3157  1.2116 -0.9706
    1SOL    MW4 6164   1.567   3.564   2.738 -0.4967  0.5322 -0.3269
    1SOL     OW 6165   1.609   3.825   2.635  0.0748 -0.0014  0.0190
    1SOL    HW2 6166   1.526   3.862   2.667  0.3591  0.8843 -0.2518
    1SOL    HW3 6167   1.608   3.734   2.666 -2.1545 -0.7678 -2.0956
    1SOL    MW4 6168   1.598   3.818   2.643 -0.1820  0.0143 -0.2959
    1SOL     OW 6169   1.357   3.934   2.709 -0.0869  0.4494 -0.3054
    1SOL    HW2 6170   1.361   3.952   2.803 -1.4959 -0.3006 -0.0966
    1SOL    HW3 6171   1.353   4.020   2.669  0.2341  0.7685  0.3292
    1SOL    MW4 6172   1.357   3.948   2.716 -0.2304  0.3927 -0.1943
    1SOL     OW 6173   1.359   4.198   2.652  0.3158  0.5261 -0.0878
    1SOL    HW2 6174   1.297   4.261   2.687  0.1699 -0.5534  1.6233
    1SOL    HW3 6175   1.353   4.209   2.557 -1.5532  1.3016  0.1102
    1SOL    MW4 6176   1.350   4.208   2.644  0.0501  0.4854  0.1640
    1SOL     OW 6177   1.584   4.359   2.711  0.1797 -0.0997 -0.0725
    1SOL    HW2 6178   1.576   4.367   2.806 -1.6356  1.2924 -0.3130
    1SOL    HW3 6179   1.510   4.305   2.686  0.8926 -0.8097 -0.6722
    1SOL    MW4 6180   1.573   4.353   2.720  0.0342 -0.0100 -0.1831
    1SOL     OW 6181   2.018   4.663   2.583  0.0732 -0.1627 -0.1296
    1SOL    HW2 6182   2.100   4.699   2.617 -0.4180  0.5204  0.3489
    1SOL    HW3 6183   2.023   4.675   2.489  0.1493  0.6720 -0.0193
    1SOL    MW4 6184   2.029   4.669   2.575  0.0184  0.0377 -0.0520
    1SOL     OW 6185   1.754   0.085   2.704 -0.1981  0.0169 -0.1460
    1SOL    HW2 6186   1.830   0.038   2.670  0.1710  0.7596 -0.3612
    1SOL    HW3 6187   1.679   0.030   2.682  0.4021 -1.4675  1.3910
    1SOL    MW4 6188   1.754   0.072   2.697 -0.0702 -0.0810  0.0284
    1SOL     OW 6189   1.784   0.327   2.570  0.4751 -0.0118  0.1240
    1SOL    HW2 6190   1.854   0.375   2.614  0.3464 -0.3254  0.6753
    1SOL    HW3 6191   1.788   0.239   2.608  0.7728 -0.4669 -0.9425
    1SOL    MW4 6192   1.794   0.322   2.581  0.4973 -0.1132  0.0558
    1SOL     OW 6193   1.988   0.449   2.703 -0.0534  0.0789  0.0487
    1SOL    HW2 6194   2.069   0.414   2.666 -0.7836 -1.8921  0.2327
    1SOL    HW3 6195   1.997   0.436   2.797  0.1194  1.4003  0.2170
    1SOL    MW4 6196   2.000   0.442   2.711 -0.1270 -0.0068  0.0954
    1SOL     OW 6197   1.965   0.731   2.591 -0.4059  0.1515  0.0678
    1SOL    HW2 6198   1.970   0.642   2.626 -0.5353 -0.0133 -0.3316
    1SOL    HW3 6199   1.886   0.768   2.632 -1.6477 -0.6900 -1.5158
    1SOL    MW4 6200   1.955   0.725   2.601 -0.5867  0.0188 -0.1938
    1SOL     OW 6201   1.757   0.857   2.720 -0.6014 -0.1657 -0.3642
    1SOL    HW2 6202   1.751   0.948   2.691 -2.3084 -0.2723 -0.3994
    1SOL    HW3 6203   1.689   0.811   2.671  0.5873 -1.5756 -0.7320
    1SOL    MW4 6204   1.747   0.863   2.710 -0.6697 -0.3658 -0.4175
    1SOL     OW 6205   1.750   1.122   2.640 -0.1101  0.0996 -0.4710
    1SOL    HW2 6206   1.834   1.169   2.647 -0.9809  1.8468 -1.4505
    1SOL    HW3 6207   1.732   1.120   2.546 -1.2909 -0.0587 -0.2410
    1SOL    MW4 6208   1.759   1.128   2.629 -0.3808  0.3092 -0.5701
    1SOL     OW 6209   1.999   1.224   2.656 -0.3390 -0.3153 -0.0757
    1SOL    HW2 6210   2.010   1.241   2.749  0.8712  1.8584 -0.5668
    1SOL    HW3 6211   2.081   1.180   2.630  0.1295  0.7721 -0.4665
    1SOL    MW4 6212   2.012   1.220   2.665 -0.1175  0.1150 -0.1922
    1SOL     OW 6213   1.976   1.505   2.617 -0.3900 -0.1438  0.0607
    1SOL    HW2 6214   1.899   1.556   2.643 -1.1122 -1.3601  0.3916
    1SOL    HW3 6215   1.948   1.414   2.627  1.1018 -0.6046  0.1840
    1SOL    MW4 6216   1.962   1.500   2.622 -0.2884 -0.3651  0.1206
    1SOL     OW 6217   1.766   1.664   2.699  0.1695  0.0078 -0.4124
    1SOL    HW2 6218   1.767   1.664   2.795  0.2032 -1.7090 -0.3861
    1SOL    HW3 6219   1.686   1.615   2.677  0.3166  0.1457 -1.2569
    1SOL    MW4 6220   1.755   1.657   2.709  0.1935 -0.2005 -0.5200
    1SOL     OW 6221   1.767   1.935   2.627  0.3578  0.0527  0.1130
    1SOL    HW2 6222   1.845   1.957   2.677  1.6297 -0.8029 -1.4317
    1SOL    HW3 6223   1.755   1.841   2.641  0.0420  0.0363 -0.2538
    1SOL    MW4 6224   1.775   1.925   2.635  0.4839 -0.0625 -0.1392
    1SOL     OW 6225   1.997   2.035   2.727 -0.0744  0.3953 -0.1665
    1SOL    HW2 6226   1.990   2.034   2.823  1.8514 -0.3099 -0.0036
    1SOL    HW3 6227   1.987   2.127   2.703 -0.3005  0.6108  0.7440
    1SOL    MW4 6228   1.995   2.047   2.737  0.1498  0.3307 -0.0250
    1SOL     OW 6229   1.977   2.301   2.642  0.1717  0.4315  0.5035
    1SOL    HW2 6230   2.062   2.342   2.659  0.5343  0.2861 -0.8854
    1SOL    HW3 6231   1.970   2.300   2.547 -0.6342 -1.0929  0.5642
    1SOL    MW4 6232   1.988   2.307   2.632  0.1132  0.2110  0.3285
    1SOL     OW 6233   1.764   2.444   2.743 -0.1386 -0.2594  0.1083
    1SOL    HW2 6234   1.750   2.421   2.835 -1.0091 -0.7249 -0.1320
    1SOL    HW3 6235   1.852   2.411   2.724 -0.2179 -0.7727  0.5879
    1SOL    MW4 6236   1.774   2.437   2.753 -0.2637 -0.3884  0.1397
    1SOL     OW 6237   1.791   2.692   2.629 -0.2981  0.3006 -0.2213
    1SOL    HW2 6238   1.782   2.603   2.664  0.3564 -0.0924 -1.0378
    1SOL    HW3 6239   1.788   2.681   2.534 -1.5450  1.3054 -0.3203
    1SOL    MW4 6240   1.789   2.679   2.621 -0.3762  0.3815 -0.3421
    1SOL     OW 6241   2.019   2.821   2.732  0.2974 -0.0523 -0.1977
    1SOL    HW2 6242   2.093   2.772   2.695  1.9392  0.6030  2.1373
    1SOL    HW3 6243   1.942   2.773   2.702  1.7706 -2.4169 -0.3502
    1SOL    MW4 6244   2.019   2.808   2.723  0.7086 -0.2782  0.0904
    1SOL     OW 6245   1.989   3.067   2.609 -0.1671  0.3612 -0.0621
    1SOL    HW2 6246   2.008   2.978   2.641 -0.9522  0.2381  0.0736
    1SOL    HW3 6247   1.968   3.055   2.516 -0.8736  0.3260  0.1016
    1SOL    MW4 6248   1.989   3.053   2.601 -0.3639  0.3402 -0.0229
    1SOL     OW 6249   1.784   3.211   2.765  0.0865  0.3089 -0.2049
    1SOL    HW2 6250   1.779   3.287   2.706  0.5329  0.0020 -0.6413
    1SOL    HW3 6251   1.856   3.158   2.730 -0.8103 -0.7686 -0.4286
    1SOL    MW4 6252   1.793   3.214   2.752  0.0271  0.1261 -0.2921
    1SOL     OW 6253   1.769   3.457   2.604 -0.5160  0.1109 -0.1145
    1SOL    HW2 6254   1.847   3.497   2.643 -0.5005  0.7615 -0.7795
    1SOL    HW3 6255   1.787   3.458   2.510 -1.2298  0.0503 -0.2550
    1SOL    MW4 6256   1.782   3.462   2.596 -0.6080  0.1891 -0.2210
    1SOL     OW 6257   1.977   3.602   2.742  0.3946  0.0228 -0.5718
    1SOL    HW2 6258   1.992   3.605   2.837  0.8741  1.4495 -0.6738
    1SOL    HW3 6259   2.055   3.560   2.706  1.1280  1.2985 -0.4998
    1SOL    MW4 6260   1.989   3.597   2.750  0.5547  0.3796 -0.5758
    1SOL     OW 6261   2.007   3.855   2.624  0.0841 -0.0367 -0.0466
    1SOL    HW2 6262   1.935   3.910   2.653  0.5275  0.7191 -0.3466
    1SOL    HW3 6263   1.986   3.768   2.656 -1.2749  0.0535 -0.6705
    1SOL    MW4 6264   1.995   3.851   2.632 -0.0366  0.0749 -0.1686
    1SOL     OW 6265   1.799   3.985   2.745 -0.5896  0.0173 -0.4395
    1SOL    HW2 6266   1.800   4.074   2.709 -0.9040 -0.3100 -1.2647
    1SOL    HW3 6267   1.731   3.940   2.696 -2.7578  0.2331  2.2535
    1SOL    MW4 6268   1.790   3.991   2.734 -0.9173  0.0026 -0.1929
    1SOL     OW 6269   1.810   4.229   2.621 -0.3038  0.2468 -0.2235
    1SOL    HW2 6270   1.726   4.269   2.643 -0.0369  0.2638  0.8233
    1SOL    HW3 6271   1.821   4.246   2.528 -1.8845 -0.5578 -0.5725
    1SOL    MW4 6272   1.800   4.237   2.612 -0.4770  0.1426 -0.1316
    1SOL     OW 6273   2.011   4.395   2.705  0.5449 -0.0924  0.0210
    1SOL    HW2 6274   1.938   4.337   2.681  0.5537  0.3167 -1.0168
    1SOL    HW3 6275   2.001   4.471   2.648  1.1711  0.4413  0.6211
    1SOL    MW4 6276   2.000   4.397   2.694  0.6288  0.0324 -0.0365
    1SOL     OW 6277   2.486   4.626   2.605  0.0304  0.7961  0.5166
    1SOL    HW2 6278   2.553   4.677   2.650 -0.6107  2.0756  0.0520
    1SOL    HW3 6279   2.487   4.660   2.515 -1.0621  0.6476  0.4458
    1SOL    MW4 6280   2.495   4.637   2.599 -0.1981  0.9451  0.4461
    1SOL     OW 6281   2.246   0.101   2.673  0.0139 -0.4891 -0.0764
    1SOL    HW2 6282   2.330   0.065   2.645  0.3850  0.2171  0.1207
    1SOL    HW3 6283   2.252   0.103   2.769  0.0719  0.2741 -0.0922
    1SOL    MW4 6284   2.258   0.096   2.682  0.0703 -0.2952 -0.0525
    1SOL     OW 6285   2.227   0.364   2.608  0.1469  0.2059 -0.0510
    1SOL    HW2 6286   2.228   0.369   2.513 -1.1178  0.1880 -0.0774
    1SOL    HW3 6287   2.240   0.271   2.628 -1.8267 -0.1493 -0.2852
    1SOL    MW4 6288   2.229   0.352   2.598 -0.2801  0.1567 -0.0856
    1SOL     OW 6289   2.494   0.447   2.685  0.4077  0.0481  0.2121
    1SOL    HW2 6290   2.484   0.542   2.689  0.8030  0.0927  0.1683
    1SOL    HW3 6291   2.405   0.414   2.672  0.3400  0.4497 -0.3813
    1SOL    MW4 6292   2.481   0.455   2.684  0.4506  0.1070  0.1280
    1SOL     OW 6293   2.466   0.713   2.620 -0.5575 -0.4560  0.2390
    1SOL    HW2 6294   2.387   0.756   2.653  0.2188  0.6428  0.6942
    1SOL    HW3 6295   2.465   0.731   2.526 -0.2629  0.5299  0.4183
    1SOL    MW4 6296   2.455   0.721   2.612 -0.4160 -0.1808  0.3226
    1SOL     OW 6297   2.202   0.851   2.699  0.1216 -0.4061  0.4477
    1SOL    HW2 6298   2.194   0.862   2.794 -0.3241 -0.4302  0.4167
    1SOL    HW3 6299   2.115   0.819   2.672 -0.5873  2.0637 -0.3093
    1SOL    MW4 6300   2.189   0.848   2.708 -0.0308 -0.0834  0.3436
    1SOL     OW 6301   2.238   1.099   2.569 -0.3159 -0.6021 -0.3294
    1SOL    HW2 6302   2.225   1.015   2.614 -1.0078 -0.0375  0.5485
    1SOL    HW3 6303   2.307   1.143   2.620 -1.6681  0.3795  0.6900
    1SOL    MW4 6304   2.246   1.094   2.582 -0.5856 -0.3983 -0.0792
    1SOL     OW 6305   2.418   1.232   2.711 -0.1816  0.1946  0.1021
    1SOL    HW2 6306   2.434   1.319   2.675  0.1005  0.7651  1.5585
    1SOL    HW3 6307   2.499   1.184   2.695  0.9002  1.2377  2.1950
    1SOL    MW4 6308   2.431   1.238   2.704 -0.0019  0.4076  0.5703
    1SOL     OW 6309   2.453   1.480   2.608  0.2461 -0.2351 -0.2156
    1SOL    HW2 6310   2.371   1.529   2.618  0.8595  0.4498  1.4702
    1SOL    HW3 6311   2.519   1.534   2.650  1.7350 -0.4034 -2.2730
    1SOL    MW4 6312   2.451   1.493   2.615  0.5233 -0.1669 -0.2646
    1SOL     OW 6313   2.220   1.614   2.666 -0.7509 -0.1862 -0.5656
    1SOL    HW2 6314   2.211   1.704   2.634  1.4729 -0.6931 -2.6777
    1SOL    HW3 6315   2.135   1.574   2.648 -1.0421  0.8640 -1.5804
    1SOL    MW4 6316   2.207   1.621   2.660 -0.4959 -0.1146 -0.9780
    1SOL     OW 6317   2.208   1.873   2.596 -0.3206 -0.7914 -0.5399
    1SOL    HW2 6318   2.142   1.930   2.635  0.2919  0.1979 -0.9183
    1SOL    HW3 6319   2.203   1.892   2.502 -0.1133 -1.3536 -0.6648
    1SOL    MW4 6320   2.199   1.883   2.588 -0.2124 -0.7352 -0.6063
    1SOL     OW 6321   2.448   1.991   2.666  0.1306  0.3228 -0.2308
    1SOL    HW2 6322   2.447   2.081   2.632 -0.2795 -0.0935 -1.3310
    1SOL    HW3 6323   2.362   1.956   2.644  0.0936 -0.1741  0.6655
    1SOL    MW4 6324   2.437   1.999   2.658  0.0715  0.2024 -0.2577
    1SOL     OW 6325   2.446   2.263   2.576 -0.5190  0.0287 -0.1658
    1SOL    HW2 6326   2.518   2.306   2.622  1.4761 -3.1383 -0.2384
    1SOL    HW3 6327   2.450   2.298   2.487 -1.1145  2.2333  0.6373
    1SOL    MW4 6328   2.456   2.274   2.570 -0.3340 -0.0982 -0.0696
    1SOL     OW 6329   2.246   2.436   2.655  0.3702  0.1224  0.1753
    1SOL    HW2 6330   2.257   2.426   2.749 -0.2473  0.5499  0.2909
    1SOL    HW3 6331   2.314   2.380   2.617  1.3882  0.8524  0.8819
    1SOL    MW4 6332   2.257   2.428   2.662  0.4232  0.2749  0.2837
    1SOL     OW 6333   2.246   2.708   2.586  0.1483 -0.2249  0.3539
    1SOL    HW2 6334   2.312   2.740   2.647  0.2679  1.0032 -0.3931
    1SOL    HW3 6335   2.237   2.615   2.606  2.0221 -0.3868  0.5282
    1SOL    MW4 6336   2.253   2.700   2.597  0.4115 -0.0842  0.2780
    1SOL     OW 6337   2.443   2.817   2.739  0.1070 -0.1583  0.7237
    1SOL    HW2 6338   2.519   2.777   2.696  0.7745  0.3751  1.3841
    1SOL    HW3 6339   2.442   2.907   2.706 -1.3449 -0.6718 -0.7031
    1SOL    MW4 6340   2.453   2.824   2.729  0.0033 -0.1557  0.6227
    1SOL     OW 6341   2.462   3.069   2.615  0.1625  0.0447  0.3178
    1SOL    HW2 6342   2.384   3.111   2.652  0.8232  1.2383  0.3881
    1SOL    HW3 6343   2.458   3.089   2.521  0.8983  0.9689  0.4751
    1SOL    MW4 6344   2.451   3.077   2.607  0.3469  0.3240  0.3479
    1SOL     OW 6345   2.221   3.236   2.683 -0.2196  0.0826  0.8367
    1SOL    HW2 6346   2.219   3.235   2.779 -0.8047 -0.8808  0.8166
    1SOL    HW3 6347   2.144   3.186   2.656  0.2914 -0.2044 -0.1338
    1SOL    MW4 6348   2.211   3.229   2.692 -0.2296 -0.0825  0.7062
    1SOL     OW 6349   2.202   3.496   2.595  0.2415  0.2866 -0.4393
    1SOL    HW2 6350   2.277   3.534   2.640  0.5462 -1.2370  0.4052
    1SOL    HW3 6351   2.207   3.402   2.615 -1.7155  0.1094 -0.6035
    1SOL    MW4 6352   2.212   3.488   2.604  0.0236  0.0622 -0.3493
    1SOL     OW 6353   2.436   3.600   2.712 -0.1714 -0.2607  0.4892
    1SOL    HW2 6354   2.445   3.596   2.807 -1.5941 -1.9112  0.5669
    1SOL    HW3 6355   2.455   3.692   2.690 -0.6416  0.3221  2.4364
    1SOL    MW4 6356   2.440   3.612   2.722 -0.4210 -0.4015  0.7563
    1SOL     OW 6357   2.444   3.860   2.627  0.0355  0.0414  0.3102
    1SOL    HW2 6358   2.525   3.901   2.657  0.3283  1.0379 -1.7797
    1SOL    HW3 6359   2.374   3.917   2.658  0.1459 -0.5441  1.6679
    1SOL    MW4 6360   2.446   3.873   2.635  0.0887  0.0958  0.2136
    1SOL     OW 6361   2.228   3.996   2.735  0.0812 -0.0812 -0.1429
    1SOL    HW2 6362   2.228   3.998   2.831 -0.5783  1.2230 -0.1603
    1SOL    HW3 6363   2.141   3.964   2.712 -0.2316  0.8768 -0.3166
    1SOL    MW4 6364   2.217   3.992   2.745 -0.0472  0.2172 -0.1678
    1SOL     OW 6365   2.240   4.254   2.629  0.0810 -0.4475 -0.1183
    1SOL    HW2 6366   2.245   4.170   2.674  1.2201 -0.2689  0.1095
    1SOL    HW3 6367   2.168   4.300   2.673  1.0477 -0.3467  1.4133
    1SOL    MW4 6368   2.231   4.249   2.641  0.3588 -0.4106  0.1137
    1SOL     OW 6369   2.461   4.385   2.746  0.2688 -0.5263 -0.0613
    1SOL    HW2 6370   2.386   4.341   2.707 -0.2399  0.4420 -0.1894
    1SOL    HW3 6371   2.460   4.473   2.708  0.8593 -0.1665  0.7271
    1SOL    MW4 6372   2.451   4.391   2.736  0.2794 -0.3514  0.0255
    1SOL     OW 6373   2.905   4.619   2.671 -0.0724 -0.2189  0.3795
    1SOL    HW2 6374   2.982   4.664   2.703 -0.8413  0.5694  1.1452
    1SOL    HW3 6375   2.905   4.634   2.577  0.9124 -0.5426  0.3318
    1SOL    MW4 6376   2.915   4.627   2.663 -0.0439 -0.1583  0.4742
    1SOL     OW 6377   2.687   0.097   2.734  0.2495 -0.1047  0.0437
    1SOL    HW2 6378   2.680   0.110   2.829 -1.0076 -1.9051  0.2247
    1SOL    HW3 6379   2.771   0.054   2.721  0.1579 -0.3991  0.4162
    1SOL    MW4 6380   2.697   0.093   2.745  0.0713 -0.3811  0.1166
    1SOL     OW 6381   2.725   0.321   2.573  0.5575  0.0759  0.4474
    1SOL    HW2 6382   2.727   0.231   2.607  0.6021 -0.2393 -0.3613
    1SOL    HW3 6383   2.641   0.356   2.604  0.3195 -0.4121  0.3734
    1SOL    MW4 6384   2.714   0.314   2.582  0.5322 -0.0300  0.3309
    1SOL     OW 6385   2.923   0.481   2.718  0.0761  0.1502 -0.0179
    1SOL    HW2 6386   2.947   0.558   2.666 -2.2024  1.6423  1.0440
    1SOL    HW3 6387   2.851   0.440   2.669 -0.1427 -0.0798  0.4956
    1SOL    MW4 6388   2.917   0.486   2.705 -0.2534  0.3167  0.1900
    1SOL     OW 6389   2.921   0.714   2.602  0.0899  0.4198  0.3221
    1SOL    HW2 6390   2.991   0.769   2.638 -0.2684  1.5140 -0.6216
    1SOL    HW3 6391   2.840   0.759   2.625 -0.2125  0.2599 -0.3921
    1SOL    MW4 6392   2.919   0.727   2.609  0.0029  0.5431  0.1035
    1SOL     OW 6393   2.695   0.859   2.686 -0.3286 -0.4840 -0.0389
    1SOL    HW2 6394   2.702   0.876   2.780  1.1909  0.7932 -0.3589
    1SOL    HW3 6395   2.616   0.806   2.677 -0.0850 -1.2460  2.0328
    1SOL    MW4 6396   2.685   0.854   2.697 -0.0961 -0.4160  0.1924
    1SOL     OW 6397   2.678   1.128   2.621 -0.1325 -0.1540 -0.2419
    1SOL    HW2 6398   2.756   1.173   2.653  0.1605 -0.1327 -0.9876
    1SOL    HW3 6399   2.694   1.035   2.641 -0.5413  0.0118  0.8866
    1SOL    MW4 6400   2.690   1.121   2.628 -0.1476 -0.1292 -0.1917
    1SOL     OW 6401   2.906   1.296   2.720  0.5523  0.0612  0.1256
    1SOL    HW2 6402   2.910   1.304   2.815 -0.6577 -0.8308  0.2732
    1SOL    HW3 6403   2.984   1.246   2.697  0.1262 -0.9449  0.8193
    1SOL    MW4 6404   2.917   1.290   2.730  0.3364 -0.1893  0.2363
    1SOL     OW 6405   2.904   1.557   2.618  0.2371  0.1418  0.4803
    1SOL    HW2 6406   2.820   1.591   2.649  0.7296  1.8229  0.0384
    1SOL    HW3 6407   2.907   1.467   2.650 -2.2464 -0.3154 -0.4670
    1SOL    MW4 6408   2.893   1.550   2.626 -0.0255  0.3033  0.2971
    1SOL     OW 6409   2.665   1.655   2.704 -0.1804  0.2751  0.0670
    1SOL    HW2 6410   2.638   1.675   2.793 -2.0598  1.0489 -0.6550
    1SOL    HW3 6411   2.647   1.735   2.655  1.5772  0.1271 -0.8581
    1SOL    MW4 6412   2.659   1.668   2.709 -0.1967  0.3575 -0.1502
    1SOL     OW 6413   2.675   1.885   2.552  0.1610  0.3005  0.3697
    1SOL    HW2 6414   2.744   1.935   2.595 -0.0809  0.1315  0.9580
    1SOL    HW3 6415   2.594   1.915   2.595  0.0594 -0.9163  1.0387
    1SOL    MW4 6416   2.674   1.896   2.564  0.1159  0.1177  0.5360
    1SOL     OW 6417   2.850   2.035   2.703 -0.2176  0.1675 -0.6093
    1SOL    HW2 6418   2.937   1.999   2.684 -0.3948 -0.5194 -0.1524
    1SOL    HW3 6419   2.855   2.127   2.676  0.7121  0.1787 -0.4035
    1SOL    MW4 6420   2.862   2.042   2.697 -0.1183  0.0782 -0.5219
    1SOL     OW 6421   2.915   2.289   2.605 -0.1637  0.7398 -0.3090
    1SOL    HW2 6422   2.982   2.342   2.647 -0.9256 -0.2565  2.2724
    1SOL    HW3 6423   2.833   2.332   2.628 -0.6473 -0.3645  0.0707
    1SOL    MW4 6424   2.913   2.302   2.614 -0.3281  0.4628  0.0815
    1SOL     OW 6425   2.668   2.420   2.673 -0.1521 -0.2433  0.1201
    1SOL    HW2 6426   2.673   2.440   2.766  1.7502 -0.2194  0.0469
    1SOL    HW3 6427   2.705   2.497   2.630 -0.7938 -0.3525 -0.6391
    1SOL    MW4 6428   2.674   2.433   2.679  0.0143 -0.2546  0.0103
    1SOL     OW 6429   2.673   2.713   2.620 -0.0717 -0.1703 -0.0877
    1SOL    HW2 6430   2.756   2.746   2.653  0.3605 -2.0099  0.7147
    1SOL    HW3 6431   2.685   2.707   2.525  0.5440  0.0270 -0.0216
    1SOL    MW4 6432   2.685   2.716   2.612  0.0665 -0.3870  0.0269
    1SOL     OW 6433   2.891   2.847   2.710 -0.2354  0.1436  0.0090
    1SOL    HW2 6434   2.976   2.807   2.694 -0.8428 -1.1249 -0.0711
    1SOL    HW3 6435   2.877   2.837   2.805 -0.3858  0.1608 -0.0104
    1SOL    MW4 6436   2.900   2.841   2.721 -0.3357 -0.0215 -0.0043
    1SOL     OW 6437   2.905   3.121   2.629 -0.1727  0.1270 -0.4367
    1SOL    HW2 6438   2.822   3.155   2.662  0.6120  2.1445 -0.4691
    1SOL    HW3 6439   2.904   3.028   2.652 -2.3561  0.1633 -0.2909
    1SOL    MW4 6440   2.894   3.113   2.636 -0.3572  0.3979 -0.4215
    1SOL     OW 6441   2.663   3.223   2.722  0.6127  0.2780 -0.1435
    1SOL    HW2 6442   2.657   3.312   2.685 -0.4858  0.0355 -0.5737
    1SOL    HW3 6443   2.589   3.177   2.683  2.2712 -1.3859 -1.4078
    1SOL    MW4 6444   2.652   3.229   2.712  0.6866  0.0265 -0.3672
    1SOL     OW 6445   2.679   3.485   2.643 -0.2801 -0.0707  0.0654
    1SOL    HW2 6446   2.590   3.518   2.647 -0.1270  0.2659  0.7527
    1SOL    HW3 6447   2.695   3.470   2.549 -1.4751 -1.3153  0.0565
    1SOL    MW4 6448   2.670   3.488   2.631 -0.4175 -0.1907  0.1550
    1SOL     OW 6449   2.912   3.633   2.727  0.2297 -0.3547  0.7405
    1SOL    HW2 6450   2.900   3.634   2.822 -2.1251  1.5623  0.4659
    1SOL    HW3 6451   2.835   3.587   2.693 -0.3947  1.4082 -0.3644
    1SOL    MW4 6452   2.900   3.627   2.735 -0.1633  0.1309  0.5584
    1SOL     OW 6453   2.930   3.895   2.632 -0.2005  0.2860 -0.0179
    1SOL    HW2 6454   3.003   3.947   2.666 -0.5774  0.7845  0.0259
    1SOL    HW3 6455   2.941   3.810   2.674  0.5178  0.2700 -0.2260
    1SOL    MW4 6456   2.941   3.891   2.642 -0.1554  0.3498 -0.0396
    1SOL     OW 6457   2.689   3.979   2.722  0.1823  0.0049 -0.0639
    1SOL    HW2 6458   2.667   4.071   2.706  0.5954  0.1610  0.2751
    1SOL    HW3 6459   2.779   3.970   2.692  0.1165 -0.3150 -0.1723
    1SOL    MW4 6460   2.698   3.990   2.716  0.2277 -0.0167 -0.0334
    1SOL     OW 6461   2.666   4.242   2.647  0.1713  0.2829 -0.3281
    1SOL    HW2 6462   2.749   4.273   2.685  0.8551  0.0948 -1.6648
    1SOL    HW3 6463   2.599   4.290   2.695  1.0382  0.2309  0.9675
    1SOL    MW4 6464   2.668   4.252   2.659  0.3760  0.2513 -0.3333
    1SOL     OW 6465   2.912   4.350   2.724 -0.5915  0.1800 -0.4918
    1SOL    HW2 6466   2.903   4.346   2.819 -0.6196 -1.3368 -0.5499
    1SOL    HW3 6467   2.899   4.443   2.703 -0.3575  0.5708  0.9968
    1SOL    MW4 6468   2.909   4.362   2.734 -0.5641  0.0315 -0.3035
    1SOL     OW 6469   3.371   0.010   2.614 -0.0694 -0.4909  0.2312
    1SOL    HW2 6470   3.392  -0.082   2.627 -0.4341 -0.7619 -1.0827
    1SOL    HW3 6471   3.286   0.022   2.657 -0.0578 -0.7897  0.3342
    1SOL    MW4 6472   3.362  -0.001   2.621 -0.1161 -0.5660  0.0715
    1SOL     OW 6473   3.135   0.100   2.737  0.3925  0.0412  0.4116
    1SOL    HW2 6474   3.128   0.100   2.833  0.2179  1.0404  0.4122
    1SOL    HW3 6475   3.150   0.192   2.715 -2.2122  0.2488 -0.6957
    1SOL    MW4 6476   3.136   0.112   2.747  0.0255  0.2004  0.2656
    1SOL     OW 6477   3.165   0.380   2.673 -0.0152 -0.2417 -0.3631
    1SOL    HW2 6478   3.076   0.402   2.702  0.7857  2.4988  0.1301
    1SOL    HW3 6479   3.168   0.409   2.582  0.3421 -0.4807 -0.4263
    1SOL    MW4 6480   3.153   0.386   2.665  0.1376  0.0883 -0.3064
    1SOL     OW 6481   3.396   0.488   2.769 -0.1371  0.0888 -0.6751
    1SOL    HW2 6482   3.392   0.573   2.725 -0.1525  1.7242  2.3041
    1SOL    HW3 6483   3.319   0.440   2.736 -1.3261  2.0488 -0.8290
    1SOL    MW4 6484   3.385   0.493   2.759 -0.2959  0.5632 -0.3023
    1SOL     OW 6485   3.371   0.754   2.646 -0.0731  0.2578 -0.0883
    1SOL    HW2 6486   3.456   0.789   2.674  0.2343 -0.2802 -0.3485
    1SOL    HW3 6487   3.378   0.746   2.551  1.0491 -3.5308  0.2184
    1SOL    MW4 6488   3.383   0.758   2.637  0.1154 -0.3130 -0.0820
    1SOL     OW 6489   3.136   0.874   2.735  0.1464 -0.1476  0.0150
    1SOL    HW2 6490   3.158   0.889   2.827  1.1505 -2.2521  0.1505
    1SOL    HW3 6491   3.214   0.833   2.698 -0.4296  0.2302 -1.6722
    1SOL    MW4 6492   3.149   0.870   2.742  0.2024 -0.3754 -0.1900
    1SOL     OW 6493   3.149   1.136   2.631  0.0201 -0.0414  0.2193
    1SOL    HW2 6494   3.138   1.051   2.674  0.2598 -0.2024 -0.0368
    1SOL    HW3 6495   3.183   1.115   2.544 -0.6321  0.2766 -0.1112
    1SOL    MW4 6496   3.152   1.122   2.625 -0.0343 -0.0207  0.1419
    1SOL     OW 6497   3.350   1.304   2.730  0.0755 -0.1390  0.2721
    1SOL    HW2 6498   3.349   1.285   2.824  0.2504  0.8993  0.4861
    1SOL    HW3 6499   3.281   1.247   2.693 -1.1726  0.6939  1.2728
    1SOL    MW4 6500   3.340   1.294   2.737 -0.0660  0.1079  0.4323
    1SOL     OW 6501   3.350   1.570   2.638 -0.0162  0.2194 -0.4848
    1SOL    HW2 6502   3.268   1.607   2.669 -0.7710 -0.5407 -1.5584
    1SOL    HW3 6503   3.360   1.489   2.687  0.5264  0.7115  0.2448
    1SOL    MW4 6504   3.341   1.565   2.649 -0.0443  0.1842 -0.5300
    1SOL     OW 6505   3.127   1.705   2.716  0.0419 -0.3040 -0.3667
    1SOL    HW2 6506   3.050   1.660   2.681  0.1956 -0.6999 -0.1955
    1SOL    HW3 6507   3.132   1.677   2.808 -0.4159  0.7960  0.0065
    1SOL    MW4 6508   3.118   1.695   2.724  0.0017 -0.2111 -0.2949
    1SOL     OW 6509   3.080   1.946   2.602 -0.4124 -0.6337 -0.2124
    1SOL    HW2 6510   3.159   1.995   2.626 -0.0076 -1.6990  0.7009
    1SOL    HW3 6511   3.096   1.858   2.635 -2.4981 -0.5806  1.0144
    1SOL    MW4 6512   3.093   1.941   2.609 -0.6340 -0.7672  0.0696
    1SOL     OW 6513   3.329   2.056   2.681 -0.2355  0.2880  0.1764
    1SOL    HW2 6514   3.344   2.043   2.774  0.9594  0.2602 -0.0062
    1SOL    HW3 6515   3.321   2.151   2.670 -0.3459  0.2925  0.3049
    1SOL    MW4 6516   3.330   2.067   2.692 -0.0925  0.2849  0.1695
    1SOL     OW 6517   3.350   2.338   2.618  0.1576  0.0674 -0.0257
    1SOL    HW2 6518   3.435   2.370   2.649  0.5225 -1.9939  1.2067
    1SOL    HW3 6519   3.359   2.336   2.522  0.9899  1.2156  0.0219
    1SOL    MW4 6520   3.363   2.342   2.609  0.3154 -0.0529  0.1433
    1SOL     OW 6521   3.108   2.464   2.702 -0.2233 -0.2444 -0.2490
    1SOL    HW2 6522   3.191   2.423   2.677 -0.0980  0.1287 -0.4511
    1SOL    HW3 6523   3.106   2.458   2.797  0.6988  0.9922 -0.1301
    1SOL    MW4 6524   3.119   2.458   2.711 -0.0851 -0.0317 -0.2599
    1SOL     OW 6525   3.147   2.735   2.628  0.3804 -0.4136 -0.1882
    1SOL    HW2 6526   3.220   2.776   2.676  1.1242 -1.5132 -0.3661
    1SOL    HW3 6527   3.147   2.644   2.658 -1.6523 -0.1452  0.6495
    1SOL    MW4 6528   3.157   2.729   2.638  0.2103 -0.5233 -0.1009
    1SOL     OW 6529   3.350   2.879   2.735 -0.0315  0.2851 -0.1189
    1SOL    HW2 6530   3.359   2.871   2.830  1.0319 -1.0755 -0.3291
    1SOL    HW3 6531   3.410   2.814   2.699 -0.8757  0.3717 -1.7274
    1SOL    MW4 6532   3.359   2.870   2.743 -0.0024  0.1171 -0.3586
    1SOL     OW 6533   3.367   3.132   2.652  0.0639 -0.2275 -0.1404
    1SOL    HW2 6534   3.370   3.047   2.696 -0.9995 -0.2889 -0.1818
    1SOL    HW3 6535   3.379   3.112   2.559  1.2649 -0.1911 -0.0064
    1SOL    MW4 6536   3.369   3.118   2.646  0.0818 -0.2308 -0.1283
    1SOL     OW 6537   3.135   3.256   2.730  0.2709  0.1348  0.3425
    1SOL    HW2 6538   3.208   3.204   2.696 -1.0501  0.6827 -3.4745
    1SOL    HW3 6539   3.058   3.220   2.687 -1.1118  2.8244  0.4850
    1SOL    MW4 6540   3.135   3.244   2.720 -0.0858  0.5617 -0.1423
    1SOL     OW 6541   3.111   3.498   2.609  0.2258  0.5025  0.1082
    1SOL    HW2 6542   3.110   3.410   2.649 -0.1431 -0.6536 -2.3583
    1SOL    HW3 6543   3.044   3.546   2.658  1.0537 -0.2867  2.0952
    1SOL    MW4 6544   3.102   3.492   2.621  0.2863  0.2458  0.0448
    1SOL     OW 6545   3.359   3.610   2.670 -0.7195  0.2186 -0.1133
    1SOL    HW2 6546   3.369   3.582   2.761 -1.4373 -0.1504 -0.1467
    1SOL    HW3 6547   3.280   3.566   2.639 -0.3305  0.1271 -1.0031
    1SOL    MW4 6548   3.350   3.601   2.678 -0.7632  0.1578 -0.2353
    1SOL     OW 6549   3.371   3.886   2.626  0.4425 -0.1467  0.0249
    1SOL    HW2 6550   3.360   3.799   2.664 -2.2048  0.5023  0.8950
    1SOL    HW3 6551   3.373   3.872   2.532 -0.9624 -1.0683  0.1258
    1SOL    MW4 6552   3.370   3.873   2.619 -0.0923 -0.1829  0.1531
    1SOL     OW 6553   3.161   4.038   2.701  0.0119  0.1574  0.2019
    1SOL    HW2 6554   3.171   4.122   2.655 -0.3207  0.1435  0.1079
    1SOL    HW3 6555   3.238   3.988   2.674  0.3721  0.5401  0.4936
    1SOL    MW4 6556   3.173   4.043   2.691  0.0155  0.2060  0.2279
    1SOL     OW 6557   3.144   4.290   2.586  0.5638  0.4333 -0.7194
    1SOL    HW2 6558   3.059   4.304   2.628  1.4354  1.7066  0.6445
    1SOL    HW3 6559   3.126   4.303   2.493 -0.7694  0.5016 -0.4710
    1SOL    MW4 6560   3.130   4.293   2.579  0.5028  0.6104 -0.5069
    1SOL     OW 6561   3.385   4.394   2.696  0.4140  0.4709  0.6285
    1SOL    HW2 6562   3.385   4.383   2.791 -0.4602  0.5104  0.6336
    1SOL    HW3 6563   3.308   4.346   2.666 -0.3422  1.9596  0.1203
    1SOL    MW4 6564   3.375   4.386   2.705  0.1991  0.6723  0.5622
    1SOL     OW 6565   3.832   4.643   2.604 -0.1053 -0.0520  0.2499
    1SOL    HW2 6566   3.827   4.549   2.624 -2.6646 -0.0841 -0.2820
    1SOL    HW3 6567   3.762   4.682   2.656 -0.5830  1.2065 -1.2752
    1SOL    MW4 6568   3.822   4.635   2.613 -0.5062  0.1097 -0.0212
    1SOL     OW 6569   3.605   0.124   2.726  0.4275  0.5365  0.6193
    1SOL    HW2 6570   3.610   0.212   2.690  1.4704 -0.2857 -1.3443
    1SOL    HW3 6571   3.516   0.095   2.707  0.7459  0.3845 -0.6501
    1SOL    MW4 6572   3.594   0.132   2.719  0.6070  0.4079  0.1929
    1SOL     OW 6573   3.635   0.401   2.634 -0.2609 -0.3975  0.3097
    1SOL    HW2 6574   3.711   0.444   2.674 -0.4901  0.6432 -0.3548
    1SOL    HW3 6575   3.560   0.431   2.686 -0.3804 -0.2599  0.0619
    1SOL    MW4 6576   3.635   0.411   2.646 -0.3068 -0.2420  0.1891
    1SOL     OW 6577   3.870   0.530   2.742 -0.0952 -0.1354 -0.2110
    1SOL    HW2 6578   3.871   0.520   2.837  0.1832  1.4585 -0.0273
    1SOL    HW3 6579   3.930   0.462   2.710 -0.9922 -1.3626  0.6628
    1SOL    MW4 6580   3.878   0.520   2.750 -0.1767 -0.0870 -0.0718
    1SOL     OW 6581   3.805   0.763   2.611  0.1322  0.3243 -0.0221
    1SOL    HW2 6582   3.745   0.804   2.674 -0.3221  0.0366 -0.2694
    1SOL    HW3 6583   3.820   0.675   2.646 -0.0113  0.2126 -0.2391
    1SOL    MW4 6584   3.799   0.757   2.624  0.0532  0.2716 -0.0837
    1SOL     OW 6585   3.588   0.888   2.753  0.5986 -0.1926  0.0258
    1SOL    HW2 6586   3.576   0.890   2.848  1.1353  0.2483  0.0885
    1SOL    HW3 6587   3.590   0.981   2.728  0.1055 -0.3125 -0.4617
    1SOL    MW4 6588   3.586   0.901   2.762  0.6044 -0.1502 -0.0305
    1SOL     OW 6589   3.586   1.152   2.665  0.2789  0.1722  0.4423
    1SOL    HW2 6590   3.663   1.204   2.688 -0.4032  1.0190  0.8562
    1SOL    HW3 6591   3.512   1.211   2.681 -0.5817 -1.2607  1.8731
    1SOL    MW4 6592   3.587   1.167   2.670  0.0753  0.0949  0.6855
    1SOL     OW 6593   3.816   1.286   2.758 -0.4955 -0.4730 -0.4246
    1SOL    HW2 6594   3.906   1.255   2.746 -0.0444  0.4427  0.5362
    1SOL    HW3 6595   3.818   1.377   2.729 -0.6516  0.1347  1.3945
    1SOL    MW4 6596   3.828   1.294   2.753 -0.4568 -0.2719 -0.0582
    1SOL     OW 6597   3.835   1.530   2.648 -0.1228 -0.3325  0.1026
    1SOL    HW2 6598   3.900   1.585   2.692 -1.2068  1.5355 -0.5409
    1SOL    HW3 6599   3.751   1.567   2.675 -0.9086 -2.0294  0.0611
    1SOL    MW4 6600   3.832   1.542   2.657 -0.3693 -0.3098  0.0122
    1SOL     OW 6601   3.604   1.668   2.679 -0.0489 -0.5529  0.1336
    1SOL    HW2 6602   3.608   1.763   2.668  0.6723 -0.4095  1.4661
    1SOL    HW3 6603   3.516   1.644   2.651 -0.1861  0.4763 -0.3692
    1SOL    MW4 6604   3.593   1.678   2.674  0.0281 -0.3983  0.2432
    1SOL     OW 6605   3.587   1.939   2.612  0.0601 -0.1370 -0.2671
    1SOL    HW2 6606   3.502   1.976   2.636 -1.2229 -2.6815 -0.7031
    1SOL    HW3 6607   3.581   1.925   2.518  1.1708  0.1312 -0.3844
    1SOL    MW4 6608   3.575   1.942   2.603  0.0372 -0.4374 -0.3400
    1SOL     OW 6609   3.824   2.053   2.722  0.1311 -0.0811  0.1805
    1SOL    HW2 6610   3.901   2.014   2.680  0.2192 -0.1390  0.3957
    1SOL    HW3 6611   3.750   2.005   2.685  0.2871 -0.9544  0.9846
    1SOL    MW4 6612   3.824   2.041   2.711  0.1633 -0.2041  0.3150
    1SOL     OW 6613   3.817   2.309   2.632 -0.7621 -0.0560  0.4875
    1SOL    HW2 6614   3.820   2.220   2.667  0.7819  0.5293  1.9303
    1SOL    HW3 6615   3.828   2.298   2.537  1.9327 -1.2732  0.9007
    1SOL    MW4 6616   3.819   2.296   2.624 -0.2027 -0.1395  0.7327
    1SOL     OW 6617   3.592   2.435   2.731 -0.3049 -0.0587 -0.3596
    1SOL    HW2 6618   3.593   2.426   2.826 -0.5362 -1.5461 -0.4789
    1SOL    HW3 6619   3.670   2.388   2.701 -0.6339 -0.2568 -0.9395
    1SOL    MW4 6620   3.602   2.427   2.739 -0.3788 -0.2813 -0.4520
    1SOL     OW 6621   3.525   2.692   2.634  0.6485  0.1316 -0.1945
    1SOL    HW2 6622   3.552   2.608   2.672  0.7920  0.9521  1.5981
    1SOL    HW3 6623   3.545   2.683   2.541  0.7923 -1.7677 -0.0177
    1SOL    MW4 6624   3.531   2.679   2.627  0.6859 -0.0107  0.0653
    1SOL     OW 6625   3.753   2.815   2.723 -0.1250  0.3813  0.3391
    1SOL    HW2 6626   3.826   2.770   2.680  0.0992 -0.7752  1.8802
    1SOL    HW3 6627   3.675   2.773   2.688  0.0728 -0.9757  1.4665
    1SOL    MW4 6628   3.752   2.803   2.713 -0.0696  0.0496  0.6914
    1SOL     OW 6629   3.816   3.072   2.670  0.8255  0.2538  0.1389
    1SOL    HW2 6630   3.732   3.112   2.693  0.3376 -1.2358  1.0164
    1SOL    HW3 6631   3.804   2.979   2.690  2.2615 -0.1725 -0.9545
    1SOL    MW4 6632   3.803   3.065   2.676  0.9508  0.0012  0.1106
    1SOL     OW 6633   3.608   3.250   2.703 -0.2332  0.3054  0.3890
    1SOL    HW2 6634   3.602   3.343   2.682  1.3339  0.3875  0.2538
    1SOL    HW3 6635   3.523   3.214   2.677 -0.8165  1.6754  0.3546
    1SOL    MW4 6636   3.596   3.257   2.697 -0.1030  0.4969  0.3664
    1SOL     OW 6637   3.596   3.503   2.575  0.1452  0.2702  0.0961
    1SOL    HW2 6638   3.664   3.553   2.620 -0.4825  0.5547  0.7407
    1SOL    HW3 6639   3.517   3.557   2.583 -0.9426 -1.5567  2.2826
    1SOL    MW4 6640   3.595   3.517   2.582 -0.0813  0.0665  0.4699
    1SOL     OW 6641   3.815   3.611   2.716  0.2914  0.1764  0.4578
    1SOL    HW2 6642   3.896   3.572   2.684 -0.0186 -0.4578  0.4352
    1SOL    HW3 6643   3.817   3.702   2.685  1.3282  0.3654  1.0736
    1SOL    MW4 6644   3.826   3.618   2.708  0.3872  0.1178  0.5362
    1SOL     OW 6645   3.831   3.872   2.622  0.4193 -0.0086 -0.2217
    1SOL    HW2 6646   3.910   3.913   2.656  0.3552  0.3687 -0.5305
    1SOL    HW3 6647   3.759   3.917   2.667  0.3871 -0.5639  0.2936
    1SOL    MW4 6648   3.832   3.883   2.632  0.4067 -0.0322 -0.1943
    1SOL     OW 6649   3.598   3.990   2.733 -0.1091 -0.2410  0.0673
    1SOL    HW2 6650   3.602   4.084   2.712  0.7653 -0.1868  0.4606
    1SOL    HW3 6651   3.516   3.961   2.694 -0.6787  0.8178  0.4480
    1SOL    MW4 6652   3.588   3.999   2.725 -0.0689 -0.0944  0.1695
    1SOL     OW 6653   3.605   4.253   2.612 -0.1531  0.4068 -0.5035
    1SOL    HW2 6654   3.530   4.309   2.632 -1.4502 -1.5346  0.1521
    1SOL    HW3 6655   3.604   4.246   2.516 -0.0296  1.4404 -0.5837
    1SOL    MW4 6656   3.595   4.259   2.602 -0.3080  0.2871 -0.4277
    1SOL     OW 6657   3.821   4.387   2.723  0.4360 -0.2088  0.0156
    1SOL    HW2 6658   3.904   4.345   2.699 -0.2521 -1.5129 -0.0928
    1SOL    HW3 6659   3.754   4.338   2.676 -0.4245  0.7787  0.1807
    1SOL    MW4 6660   3.823   4.375   2.713  0.2317 -0.2503  0.0231
    1SOL     OW 6661   4.275   4.624   2.604  0.5063  0.4548 -0.0743
    1SOL    HW2 6662   4.197   4.675   2.623  0.1701 -0.3210  0.6396
    1SOL    HW3 6663   4.344   4.663   2.657  0.5473  0.9735 -0.5058
    1SOL    MW4 6664   4.274   4.636   2.613  0.4673  0.4206 -0.0372
    1SOL     OW 6665   4.061   0.080   2.709 -0.5199 -0.2452 -0.0727
    1SOL    HW2 6666   4.056   0.100   2.803 -0.4617  0.5890 -0.2437
    1SOL    HW3 6667   3.972   0.053   2.686 -0.5326 -0.4629  0.2230
    1SOL    MW4 6668   4.049   0.079   2.719 -0.5136 -0.1639 -0.0563
    1SOL     OW 6669   4.053   0.355   2.621 -0.1164 -0.4020 -0.2761
    1SOL    HW2 6670   4.063   0.266   2.654  0.2709 -0.8822 -1.6343
    1SOL    HW3 6671   4.070   0.347   2.527 -0.0839  1.1045 -0.4039
    1SOL    MW4 6672   4.057   0.342   2.613 -0.0610 -0.2667 -0.4721
    1SOL     OW 6673   4.263   0.497   2.724 -0.1622 -0.3581  0.0086
    1SOL    HW2 6674   4.189   0.452   2.684  0.4653 -0.3631 -1.1590
    1SOL    HW3 6675   4.340   0.446   2.698  0.2811 -0.1977  0.9879
    1SOL    MW4 6676   4.263   0.485   2.715 -0.0205 -0.3376 -0.0162
    1SOL     OW 6677   4.276   0.757   2.621  0.7500  0.2950  0.5710
    1SOL    HW2 6678   4.282   0.668   2.655 -2.3898 -0.7532 -1.3462
    1SOL    HW3 6679   4.283   0.748   2.526 -0.4125  1.9618  0.2912
    1SOL    MW4 6680   4.277   0.744   2.613  0.1822  0.3765  0.2811
    1SOL     OW 6681   4.064   0.903   2.732 -0.0642 -0.3085  0.1647
    1SOL    HW2 6682   4.137   0.851   2.698  0.2081  0.8635 -1.0755
    1SOL    HW3 6683   3.986   0.860   2.696 -0.0427 -1.7295  1.7176
    1SOL    MW4 6684   4.063   0.890   2.723 -0.0253 -0.3414  0.2060
    1SOL     OW 6685   4.050   1.177   2.655  0.0382 -0.5167  0.6043
    1SOL    HW2 6686   4.125   1.221   2.695  0.2669 -1.3098  1.0525
    1SOL    HW3 6687   4.069   1.084   2.664 -0.8797 -0.7195  0.4915
    1SOL    MW4 6688   4.062   1.170   2.662 -0.0529 -0.6483  0.6485
    1SOL     OW 6689   4.267   1.296   2.753 -0.3891 -0.1770 -0.2665
    1SOL    HW2 6690   4.281   1.383   2.715 -0.0225  0.7097  1.8722
    1SOL    HW3 6691   4.335   1.242   2.713 -0.2367  0.6395 -1.1486
    1SOL    MW4 6692   4.278   1.301   2.743 -0.3204  0.0477 -0.1006
    1SOL     OW 6693   4.280   1.559   2.659 -0.5694  0.0297 -0.3827
    1SOL    HW2 6694   4.368   1.597   2.664 -0.2853 -0.6017 -0.5516
    1SOL    HW3 6695   4.267   1.541   2.565 -0.4775 -0.8176 -0.2357
    1SOL    MW4 6696   4.290   1.562   2.647 -0.5202 -0.1652 -0.3858
    1SOL     OW 6697   4.055   1.690   2.731  0.2700 -0.2645 -0.6637
    1SOL    HW2 6698   4.062   1.698   2.826  1.2944 -1.4482 -0.6230
    1SOL    HW3 6699   4.132   1.639   2.706 -1.0530 -1.7124 -1.8763
    1SOL    MW4 6700   4.066   1.684   2.740  0.2303 -0.6118 -0.8183
    1SOL     OW 6701   4.035   1.932   2.586 -0.1476  0.6029  0.0073
    1SOL    HW2 6702   4.094   1.987   2.637  0.6129  1.3204 -1.6121
    1SOL    HW3 6703   4.041   1.846   2.628  1.7175  0.7690  0.1585
    1SOL    MW4 6704   4.044   1.928   2.598  0.1988  0.7195 -0.1862
    1SOL     OW 6705   4.231   2.054   2.729 -0.6939  0.2267 -0.2156
    1SOL    HW2 6706   4.240   2.147   2.712 -1.2110 -0.0148 -1.8846
    1SOL    HW3 6707   4.309   2.014   2.691 -0.5096 -0.0413  0.4262
    1SOL    MW4 6708   4.243   2.061   2.722 -0.7377  0.1593 -0.3507
    1SOL     OW 6709   4.282   2.347   2.652 -0.7473 -0.3017 -0.1576
    1SOL    HW2 6710   4.204   2.402   2.661 -0.2111  0.5146 -0.4971
    1SOL    HW3 6711   4.296   2.340   2.558 -0.4300 -0.4679 -0.0980
    1SOL    MW4 6712   4.273   2.354   2.641 -0.6347 -0.2160 -0.1945
    1SOL     OW 6713   4.030   2.458   2.739 -0.0420  0.1213  0.2811
    1SOL    HW2 6714   4.031   2.441   2.834 -2.6026 -0.5953  0.2077
    1SOL    HW3 6715   3.962   2.400   2.705  0.0131  1.2556 -1.8447
    1SOL    MW4 6716   4.021   2.448   2.747 -0.3724  0.1764 -0.0091
    1SOL     OW 6717   3.995   2.702   2.613 -0.2238 -0.8504  0.2398
    1SOL    HW2 6718   4.073   2.748   2.646  0.1449 -1.4200  0.1742
    1SOL    HW3 6719   3.995   2.619   2.661 -1.0052 -0.6886  0.5135
    1SOL    MW4 6720   4.006   2.697   2.624 -0.2785 -0.9043  0.2670
    1SOL     OW 6721   4.235   2.805   2.696 -0.3157  0.1531  0.1754
    1SOL    HW2 6722   4.250   2.786   2.789 -2.1036  1.0073  0.6554
    1SOL    HW3 6723   4.240   2.900   2.690  0.8632  0.0472 -0.8255
    1SOL    MW4 6724   4.238   2.815   2.707 -0.3963  0.2520  0.1066
    1SOL     OW 6725   4.236   3.080   2.675 -0.7121  0.0677  0.9350
    1SOL    HW2 6726   4.153   3.117   2.706 -1.1000  0.5343 -0.6027
    1SOL    HW3 6727   4.236   3.098   2.581  0.8704 -0.4560  0.8257
    1SOL    MW4 6728   4.225   3.087   2.666 -0.5546  0.0601  0.7176
    1SOL     OW 6729   4.010   3.213   2.762 -0.4925 -0.4109  0.1998
    1SOL    HW2 6730   4.008   3.296   2.714  0.1678 -1.2459 -1.2929
    1SOL    HW3 6731   3.933   3.166   2.731 -1.5230  0.1035  1.9184
    1SOL    MW4 6732   4.000   3.218   2.751 -0.5414 -0.4530  0.2298
    1SOL     OW 6733   4.034   3.466   2.647  0.7296 -0.0222 -0.2643
    1SOL    HW2 6734   4.118   3.508   2.665  1.2679 -1.7347  1.5449
    1SOL    HW3 6735   4.022   3.475   2.553  1.3809  3.0459 -0.0995
    1SOL    MW4 6736   4.044   3.473   2.637  0.8864  0.1566 -0.0041
    1SOL     OW 6737   4.280   3.590   2.694  0.0952 -0.2333 -0.0051
    1SOL    HW2 6738   4.280   3.574   2.788 -2.0558 -1.6694 -0.2214
    1SOL    HW3 6739   4.349   3.534   2.660  0.5840 -0.0398  0.6583
    1SOL    MW4 6740   4.289   3.581   2.702 -0.1245 -0.3974  0.0536
    1SOL     OW 6741   4.280   3.856   2.600 -0.2994 -0.0111  0.3198
    1SOL    HW2 6742   4.274   3.763   2.622 -0.1885  0.4375  2.3939
    1SOL    HW3 6743   4.360   3.886   2.643  0.5291  0.7070 -1.6858
    1SOL    MW4 6744   4.290   3.848   2.609 -0.1755  0.1426  0.3288
    1SOL     OW 6745   4.069   3.988   2.710  0.4182 -0.3136 -0.1466
    1SOL    HW2 6746   4.083   3.982   2.805 -0.5819  1.0715  0.1034
    1SOL    HW3 6747   4.145   3.945   2.672  1.4981  0.3047  1.2665
    1SOL    MW4 6748   4.081   3.982   2.718  0.4282 -0.0491  0.0727
    1SOL     OW 6749   4.027   4.254   2.587  0.0291 -0.6498 -0.6683
    1SOL    HW2 6750   4.028   4.165   2.623 -0.1983 -0.3241  0.1532
    1SOL    HW3 6751   4.037   4.241   2.492  1.1018 -1.4887 -0.4561
    1SOL    MW4 6752   4.028   4.240   2.579  0.1407 -0.7176 -0.5319
    1SOL     OW 6753   4.270   4.348   2.713 -0.0723 -0.6156  0.3865
    1SOL    HW2 6754   4.193   4.307   2.674  0.3406 -1.4329  0.4131
    1SOL    HW3 6755   4.269   4.438   2.681 -0.0414 -1.1304 -1.0592
    1SOL    MW4 6756   4.260   4.355   2.704 -0.0143 -0.7911  0.1993
    1SOL     OW 6757   0.200   4.641   3.118  0.0979 -0.0720  0.2064
    1SOL    HW2 6758   0.180   4.639   3.211 -1.2682  1.6034 -0.0133
    1SOL    HW3 6759   0.122   4.681   3.078  0.9087 -0.2260 -1.5743
    1SOL    MW4 6760   0.187   4.646   3.125  0.0246  0.1292 -0.0575
    1SOL     OW 6761   4.482   0.076   2.976 -0.2341  0.2170 -0.3911
    1SOL    HW2 6762   4.400   0.047   3.016  0.0465  0.4356  0.3620
    1SOL    HW3 6763   4.490   0.168   3.003  0.8959 -0.1597  0.6333
    1SOL    MW4 6764   4.472   0.085   2.985 -0.0486  0.1962 -0.1566
    1SOL     OW 6765   4.474   0.373   3.054  0.1259 -0.1308  0.1541
    1SOL    HW2 6766   4.486   0.373   3.149  0.7831  1.0187  0.0861
    1SOL    HW3 6767   4.385   0.406   3.041  0.3065  0.4483  0.3556
    1SOL    MW4 6768   4.464   0.378   3.065  0.2360  0.0972  0.1719
    1SOL     OW 6769   0.203   0.502   2.967  0.3190 -0.6065  0.0488
    1SOL    HW2 6770   0.272   0.443   2.997  0.2058 -1.3346 -1.0664
    1SOL    HW3 6771   0.121   0.460   2.994  0.2490 -0.8251 -0.4875
    1SOL    MW4 6772   0.201   0.489   2.974  0.2948 -0.7314 -0.1690
    1SOL     OW 6773   0.209   0.748   3.092  0.3073 -0.0874  0.1532
    1SOL    HW2 6774   0.192   0.740   3.186 -0.0992  0.3187  0.1148
    1SOL    HW3 6775   0.196   0.660   3.057 -0.1082 -0.1164  0.3849
    1SOL    MW4 6776   0.205   0.735   3.100  0.1988 -0.0377  0.1791
    1SOL     OW 6777   4.463   0.862   3.011 -0.0496  0.3212  0.0738
    1SOL    HW2 6778   4.548   0.825   3.038  0.7141  2.1196  0.2274
    1SOL    HW3 6779   4.472   0.877   2.917 -0.4592 -0.1613 -0.0412
    1SOL    MW4 6780   4.476   0.859   3.002 -0.0029  0.4948  0.0792
    1SOL     OW 6781   0.002   1.121   3.106 -0.2641  0.6405 -0.3658
    1SOL    HW2 6782  -0.068   1.175   3.069 -0.7631 -0.6002 -1.2900
    1SOL    HW3 6783  -0.012   1.034   3.067  2.7682  0.7571 -1.8075
    1SOL    MW4 6784  -0.009   1.116   3.096  0.0706  0.4923 -0.6778
    1SOL     OW 6785   0.216   1.273   3.031 -0.2550 -0.5044 -0.4162
    1SOL    HW2 6786   0.145   1.214   3.057 -0.3969  0.0303  0.4183
    1SOL    HW3 6787   0.211   1.276   2.935 -2.5840  1.0513 -0.2681
    1SOL    MW4 6788   0.206   1.266   3.022 -0.5810 -0.2285 -0.2868
    1SOL     OW 6789   0.184   1.521   3.166 -0.3613  0.1977  0.2757
    1SOL    HW2 6790   0.114   1.563   3.115  0.6073 -0.0863 -1.3154
    1SOL    HW3 6791   0.204   1.441   3.118  0.1006 -0.4300  1.4903
    1SOL    MW4 6792   0.177   1.516   3.153 -0.1726  0.0774  0.2258
    1SOL     OW 6793   0.006   1.679   2.997  0.3159  0.2977  0.3087
    1SOL    HW2 6794  -0.070   1.632   3.032  1.1163 -0.3852  1.1222
    1SOL    HW3 6795   0.003   1.765   3.038  0.9483 -0.3162  1.6653
    1SOL    MW4 6796  -0.005   1.684   3.007  0.5050  0.1266  0.5951
    1SOL     OW 6797   4.460   1.928   3.143  0.2693  0.1032  0.0668
    1SOL    HW2 6798   4.378   1.973   3.123 -0.5718 -1.0831  0.8049
    1SOL    HW3 6799   4.527   1.980   3.098 -0.8962  0.9749 -0.6935
    1SOL    MW4 6800   4.458   1.941   3.135  0.0043  0.0616  0.0641
    1SOL     OW 6801   0.180   2.034   3.014 -0.1044  0.0893  0.1618
    1SOL    HW2 6802   0.201   2.125   3.037 -0.8289  0.3278 -0.1037
    1SOL    HW3 6803   0.182   2.033   2.918 -1.7870  0.2474  0.1033
    1SOL    MW4 6804   0.183   2.046   3.005 -0.4220  0.1419  0.1190
    1SOL     OW 6805   0.243   2.295   3.098 -0.2110 -0.0543  0.1126
    1SOL    HW2 6806   0.225   2.312   3.190  0.6600 -0.1185  0.2995
    1SOL    HW3 6807   0.316   2.353   3.077 -1.0282  0.6807 -0.7999
    1SOL    MW4 6808   0.250   2.305   3.107 -0.2039  0.0339  0.0169
    1SOL     OW 6809   0.017   2.470   3.005  0.1641 -0.1014  0.0315
    1SOL    HW2 6810   0.020   2.542   3.068 -1.5994 -0.6041  0.7044
    1SOL    HW3 6811   0.098   2.421   3.021  1.3623  1.6830 -0.4104
    1SOL    MW4 6812   0.028   2.473   3.016  0.0895  0.0679  0.0618
    1SOL     OW 6813   4.476   2.722   3.127  0.6527  0.1845  0.3245
    1SOL    HW2 6814   4.496   2.736   3.219  0.1284  0.9193  0.3353
    1SOL    HW3 6815   4.547   2.765   3.080  1.6177 -1.3198  0.3881
    1SOL    MW4 6816   4.488   2.730   3.133  0.7105  0.0830  0.3343
    1SOL     OW 6817   0.191   2.840   3.007  0.1609 -0.2833 -0.2315
    1SOL    HW2 6818   0.270   2.804   3.048  0.2583  0.5870  0.3408
    1SOL    HW3 6819   0.200   2.817   2.914  0.9167 -0.4941 -0.1113
    1SOL    MW4 6820   0.202   2.832   3.000  0.2735 -0.1960 -0.1400
    1SOL     OW 6821   0.202   3.081   3.121 -0.0855  0.1902  0.4009
    1SOL    HW2 6822   0.126   3.138   3.107 -0.3419 -0.0548  0.7666
    1SOL    HW3 6823   0.176   2.997   3.084  0.5422  0.4805 -0.7332
    1SOL    MW4 6824   0.188   3.077   3.114 -0.0365  0.1962  0.2997
    1SOL     OW 6825   4.462   3.232   3.038 -0.1961 -0.4002  0.1130
    1SOL    HW2 6826   4.409   3.157   3.065 -2.4600  0.6326 -1.3608
    1SOL    HW3 6827   4.463   3.227   2.942  1.1038  0.4690  0.0744
    1SOL    MW4 6828   4.455   3.221   3.029 -0.3228 -0.1493 -0.0868
    1SOL     OW 6829   4.487   3.494   3.149  0.3873  0.0919 -0.4415
    1SOL    HW2 6830   4.418   3.539   3.100  1.6953  0.7497 -1.7162
    1SOL    HW3 6831   4.487   3.405   3.112  0.1213  0.0377 -0.3175
    1SOL    MW4 6832   4.478   3.488   3.138  0.5250  0.1717 -0.5937
    1SOL     OW 6833   0.218   3.584   2.987 -0.4186 -0.4239 -0.0352
    1SOL    HW2 6834   0.238   3.668   3.027 -0.8839 -0.0953 -0.4821
    1SOL    HW3 6835   0.157   3.542   3.048 -0.0455 -0.5132  0.2742
    1SOL    MW4 6836   0.212   3.590   3.000 -0.4308 -0.3924 -0.0536
    1SOL     OW 6837   0.232   3.825   3.114  0.3365 -0.3123  0.1808
    1SOL    HW2 6838   0.228   3.828   3.210 -1.8299 -0.9953  0.1487
    1SOL    HW3 6839   0.290   3.897   3.091  0.4371  0.2287  1.9985
    1SOL    MW4 6840   0.239   3.835   3.124  0.0639 -0.3309  0.4163
    1SOL     OW 6841   0.015   3.964   3.015  0.1270  0.2284  0.0205
    1SOL    HW2 6842   0.094   3.924   3.051 -1.1232 -1.2629  1.1873
    1SOL    HW3 6843   0.029   3.966   2.921  1.5539  0.0030  0.2212
    1SOL    MW4 6844   0.027   3.959   3.008  0.1503  0.0021  0.2010
    1SOL     OW 6845   4.478   4.234   3.071  0.0173 -0.2983 -0.1795
    1SOL    HW2 6846   4.465   4.238   3.166  1.4647 -0.6476  0.0302
    1SOL    HW3 6847   4.488   4.141   3.052  4.1113  0.0472 -0.0629
    1SOL    MW4 6848   4.477   4.223   3.081  0.7482 -0.2990 -0.1366
    1SOL     OW 6849   0.231   4.406   2.997  0.2358  0.6491  0.6860
    1SOL    HW2 6850   0.154   4.351   3.006  1.3866 -0.9795  0.8343
    1SOL    HW3 6851   0.213   4.483   3.051 -1.3437  0.3708  0.5602
    1SOL    MW4 6852   0.219   4.409   3.005  0.1792  0.3982  0.6890
    1SOL     OW 6853   0.686   4.662   3.088  0.2822  0.2757  0.1112
    1SOL    HW2 6854   0.669   4.568   3.079 -1.3277  0.4525  1.1388
    1SOL    HW3 6855   0.606   4.703   3.054  1.4361  1.3003 -1.3946
    1SOL    MW4 6856   0.673   4.655   3.082  0.2220  0.4339  0.0482
    1SOL     OW 6857   0.439   0.102   3.012 -0.0728 -0.3685 -0.3616
    1SOL    HW2 6858   0.441   0.196   3.028  0.9164 -0.5123  0.3437
    1SOL    HW3 6859   0.355   0.074   3.049  0.6198 -0.1253  1.4328
    1SOL    MW4 6860   0.428   0.111   3.019  0.1491 -0.3554 -0.0317
    1SOL     OW 6861   0.424   0.371   3.077 -0.2655  0.1334 -0.1849
    1SOL    HW2 6862   0.433   0.367   3.172  1.1920 -0.0397 -0.3080
    1SOL    HW3 6863   0.509   0.403   3.047 -0.9229  0.7731 -1.3878
    1SOL    MW4 6864   0.437   0.375   3.086 -0.1599  0.1950 -0.3600
    1SOL     OW 6865   0.665   0.485   2.959  0.1168  0.1088  0.2471
    1SOL    HW2 6866   0.744   0.435   2.981  0.3871  0.4911  0.1332
    1SOL    HW3 6867   0.668   0.561   3.017 -0.8504 -0.5477  1.1800
    1SOL    MW4 6868   0.676   0.488   2.970  0.0249  0.0726  0.3552
    1SOL     OW 6869   0.661   0.713   3.108  0.0616  0.0572  0.0816
    1SOL    HW2 6870   0.669   0.718   3.203 -0.4032  0.4111  0.1009
    1SOL    HW3 6871   0.733   0.768   3.076  0.7481 -0.7535  0.2167
    1SOL    MW4 6872   0.672   0.721   3.116  0.0908 -0.0032  0.1020
    1SOL     OW 6873   0.428   0.885   3.008 -0.0379 -0.1687 -0.1123
    1SOL    HW2 6874   0.346   0.840   3.026  0.0258  0.1938  1.1236
    1SOL    HW3 6875   0.496   0.827   3.044  0.0967  0.5346  0.7800
    1SOL    MW4 6876   0.426   0.871   3.015 -0.0117 -0.0280  0.1686
    1SOL     OW 6877   0.438   1.143   3.111  0.0196 -0.3901 -0.4695
    1SOL    HW2 6878   0.436   1.061   3.063 -1.9160 -1.7861  1.9154
    1SOL    HW3 6879   0.359   1.190   3.084  0.2062 -0.0905 -0.5050
    1SOL    MW4 6880   0.427   1.139   3.101 -0.2112 -0.5348 -0.1597
    1SOL     OW 6881   0.646   1.283   3.019  0.3698  0.0995 -0.3824
    1SOL    HW2 6882   0.725   1.235   3.043  0.6745  0.4464 -0.6863
    1SOL    HW3 6883   0.574   1.228   3.051  0.7678  0.7137  1.6940
    1SOL    MW4 6884   0.647   1.269   3.027  0.4626  0.2264 -0.1485
    1SOL     OW 6885   0.629   1.524   3.158 -0.1643  0.1633 -0.2089
    1SOL    HW2 6886   0.640   1.501   3.250 -0.5154  0.9577  0.0335
    1SOL    HW3 6887   0.642   1.442   3.111  0.6256 -0.1257  0.5056
    1SOL    MW4 6888   0.632   1.510   3.164 -0.1065  0.2300 -0.0825
    1SOL     OW 6889   0.410   1.633   3.050  0.0241  0.1087  0.0413
    1SOL    HW2 6890   0.483   1.592   3.095  1.1238  0.7278 -1.1572
    1SOL    HW3 6891   0.333   1.583   3.078  1.0151 -1.1202  0.5911
    1SOL    MW4 6892   0.409   1.621   3.059  0.3000  0.0283 -0.0443
    1SOL     OW 6893   0.405   1.918   3.121  0.1112  0.1918  0.3195
    1SOL    HW2 6894   0.412   1.832   3.081  0.4008  0.4914 -0.2805
    1SOL    HW3 6895   0.324   1.955   3.086 -0.2063  0.0171  0.8637
    1SOL    MW4 6896   0.395   1.912   3.111  0.1076  0.2081  0.3119
    1SOL     OW 6897   0.615   2.075   3.055  0.1160  0.0528  0.0699
    1SOL    HW2 6898   0.688   2.020   3.083  0.0084  0.6150  1.5066
    1SOL    HW3 6899   0.538   2.020   3.065  0.2264 -0.2171 -0.5162
    1SOL    MW4 6900   0.615   2.061   3.060  0.1165  0.0916  0.1822
    1SOL     OW 6901   0.680   2.307   3.177 -0.1396 -0.1209  0.2827
    1SOL    HW2 6902   0.657   2.323   3.268 -0.6298 -0.6372  0.2508
    1SOL    HW3 6903   0.641   2.222   3.157  1.4793 -0.8438  0.1343
    1SOL    MW4 6904   0.672   2.298   3.186  0.0094 -0.2842  0.2589
    1SOL     OW 6905   0.437   2.455   3.012  0.0384  0.1486  0.1029
    1SOL    HW2 6906   0.515   2.423   3.058 -0.2254 -0.5152  0.0925
    1SOL    HW3 6907   0.462   2.453   2.919 -0.1340 -0.4626  0.0689
    1SOL    MW4 6908   0.451   2.451   3.006 -0.0192 -0.0198  0.0968
    1SOL     OW 6909   0.426   2.715   3.080 -0.2424  0.2391 -0.2372
    1SOL    HW2 6910   0.514   2.749   3.066 -0.0496  0.1129  0.6435
    1SOL    HW3 6911   0.428   2.627   3.041 -0.0294  0.2967 -0.3564
    1SOL    MW4 6912   0.438   2.708   3.073 -0.1889  0.2303 -0.1366
    1SOL     OW 6913   0.684   2.798   3.052  0.2850 -0.6224 -0.4547
    1SOL    HW2 6914   0.765   2.759   3.084 -0.7665 -1.0234  1.8185
    1SOL    HW3 6915   0.690   2.890   3.080 -0.2504 -0.7669  0.1371
    1SOL    MW4 6916   0.696   2.805   3.060  0.0756 -0.6943 -0.0765
    1SOL     OW 6917   0.673   3.065   3.105 -0.3344 -0.2368 -0.1347
    1SOL    HW2 6918   0.672   3.084   3.199 -0.3186  2.1516 -0.6043
    1SOL    HW3 6919   0.593   3.105   3.071 -0.5779 -1.4847 -1.0933
    1SOL    MW4 6920   0.663   3.073   3.113 -0.3645 -0.0865 -0.3231
    1SOL     OW 6921   0.442   3.184   3.005 -0.2085  0.4898 -0.0010
    1SOL    HW2 6922   0.435   3.274   3.034  1.9222  0.8754 -0.5525
    1SOL    HW3 6923   0.361   3.142   3.034 -0.5883  2.2165  1.5001
    1SOL    MW4 6924   0.430   3.190   3.013  0.0226  0.7684  0.1245
    1SOL     OW 6925   0.452   3.478   3.089 -0.1063 -0.3853  0.0915
    1SOL    HW2 6926   0.449   3.490   3.184  0.3348 -0.2831  0.0947
    1SOL    HW3 6927   0.378   3.529   3.057 -0.8144 -1.1780  0.4503
    1SOL    MW4 6928   0.442   3.487   3.097 -0.1416 -0.4766  0.1395
    1SOL     OW 6929   0.656   3.638   2.997 -0.1982  0.0906  0.4782
    1SOL    HW2 6930   0.737   3.600   3.031 -0.1549 -1.1255 -0.9055
    1SOL    HW3 6931   0.588   3.575   3.020 -0.4435  0.1380 -0.1018
    1SOL    MW4 6932   0.657   3.625   3.004 -0.2248 -0.0639  0.2191
    1SOL     OW 6933   0.654   3.902   3.117  0.3134  0.7476  0.4801
    1SOL    HW2 6934   0.659   3.887   3.212  0.9700 -0.0053  0.3291
    1SOL    HW3 6935   0.649   3.815   3.079 -1.9308  1.0804 -0.0994
    1SOL    MW4 6936   0.654   3.889   3.125  0.1039  0.6921  0.3836
    1SOL     OW 6937   0.415   4.021   3.015 -0.4668  0.1843  0.3680
    1SOL    HW2 6938   0.500   3.986   3.041 -0.2875  1.1422  1.0506
    1SOL    HW3 6939   0.408   4.000   2.921 -0.4506 -1.8659  0.7969
    1SOL    MW4 6940   0.425   4.013   3.006 -0.4410  0.0401  0.5145
    1SOL     OW 6941   0.449   4.275   3.128  0.0956 -0.3830  0.0516
    1SOL    HW2 6942   0.434   4.191   3.084  1.2805 -0.3257 -0.4833
    1SOL    HW3 6943   0.380   4.332   3.094 -1.1370 -1.3188  0.9410
    1SOL    MW4 6944   0.438   4.271   3.118  0.0893 -0.4992  0.0982
    1SOL     OW 6945   0.655   4.402   3.036 -0.6296  0.2878 -0.4421
    1SOL    HW2 6946   0.586   4.342   3.062 -2.5644  1.8783 -1.6980
    1SOL    HW3 6947   0.642   4.415   2.942  0.3772  1.8476 -0.3960
    1SOL    MW4 6948   0.644   4.396   3.027 -0.7520  0.7033 -0.6013
    1SOL     OW 6949   1.143   4.662   3.095 -0.0958  0.2238  0.0655
    1SOL    HW2 6950   1.213   4.713   3.053  0.3048 -0.0334  0.4194
    1SOL    HW3 6951   1.062   4.701   3.062  0.1985 -0.7736 -1.9578
    1SOL    MW4 6952   1.142   4.674   3.085 -0.0042  0.0583 -0.1550
    1SOL     OW 6953   0.917   0.119   2.979  0.2399  0.1785  0.5786
    1SOL    HW2 6954   0.910   0.211   3.005 -0.9291  0.4734 -0.6858
    1SOL    HW3 6955   0.841   0.078   3.019 -0.3684  0.1953 -0.5333
    1SOL    MW4 6956   0.906   0.126   2.988  0.0054  0.2196  0.2651
    1SOL     OW 6957   0.903   0.378   3.079  0.2047 -0.3693 -0.0957
    1SOL    HW2 6958   0.909   0.376   3.174  0.5994  0.6010 -0.0876
    1SOL    HW3 6959   0.983   0.423   3.051 -0.7245  0.8973 -0.7798
    1SOL    MW4 6960   0.914   0.384   3.088  0.1342 -0.0741 -0.1848
    1SOL     OW 6961   1.144   0.502   3.007  0.4139 -0.5290 -0.2143
    1SOL    HW2 6962   1.222   0.458   3.040 -0.8542 -2.3662  0.4431
    1SOL    HW3 6963   1.155   0.504   2.912  1.0757 -1.1084 -0.1489
    1SOL    MW4 6964   1.156   0.497   2.999  0.3341 -0.8479 -0.1190
    1SOL     OW 6965   1.121   0.762   3.110  0.2866  0.1368  0.1673
    1SOL    HW2 6966   1.137   0.760   3.204  0.8762 -0.8303  0.0501
    1SOL    HW3 6967   1.104   0.670   3.087  0.3762  0.3402 -0.7116
    1SOL    MW4 6968   1.121   0.749   3.119  0.3762  0.0361  0.0358
    1SOL     OW 6969   0.876   0.878   3.019 -0.1333 -0.3876  0.0205
    1SOL    HW2 6970   0.864   0.966   3.054  1.1837  0.3039 -1.1915
    1SOL    HW3 6971   0.956   0.846   3.061 -0.9056 -1.2200  0.8661
    1SOL    MW4 6972   0.885   0.885   3.029 -0.0614 -0.4061 -0.0277
    1SOL     OW 6973   0.872   1.124   3.126  0.1449  0.3132  0.2902
    1SOL    HW2 6974   0.878   1.117   3.221 -0.8394  0.9684  0.4102
    1SOL    HW3 6975   0.943   1.183   3.102 -1.4053  2.4935  0.9428
    1SOL    MW4 6976   0.882   1.131   3.135 -0.1896  0.6872  0.3922
    1SOL     OW 6977   1.078   1.298   3.052 -0.1815 -0.1083  0.6479
    1SOL    HW2 6978   1.167   1.266   3.067  0.2704  0.9902  0.3603
    1SOL    HW3 6979   1.063   1.284   2.958 -0.6371 -1.0653  0.8503
    1SOL    MW4 6980   1.087   1.292   3.042 -0.1820 -0.0898  0.6368
    1SOL     OW 6981   1.097   1.573   3.118  0.0593  0.4530 -0.4584
    1SOL    HW2 6982   1.181   1.603   3.084  0.3842  0.5864  0.4444
    1SOL    HW3 6983   1.092   1.481   3.094  0.4440  0.4600 -0.5665
    1SOL    MW4 6984   1.107   1.565   3.111  0.1531  0.4715 -0.3533
    1SOL     OW 6985   0.840   1.662   3.012  0.3167 -0.6060 -0.7851
    1SOL    HW2 6986   0.928   1.638   3.042  0.8600  0.0204 -1.8816
    1SOL    HW3 6987   0.781   1.613   3.070  1.3911 -1.7243 -0.6271
    1SOL    MW4 6988   0.843   1.652   3.024  0.5301 -0.6710 -0.9089
    1SOL     OW 6989   0.864   1.931   3.121  0.0087 -0.4160  0.0211
    1SOL    HW2 6990   0.871   1.930   3.217 -0.7647 -0.1052  0.0825
    1SOL    HW3 6991   0.848   1.840   3.097  1.6165 -0.7327  0.0702
    1SOL    MW4 6992   0.863   1.919   3.130  0.1188 -0.4168  0.0358
    1SOL     OW 6993   1.109   1.984   2.979 -0.1713 -0.4982  0.7044
    1SOL    HW2 6994   1.017   1.967   3.001 -0.3692 -1.3847 -0.7558
    1SOL    HW3 6995   1.106   2.031   2.896  0.6474  1.1674  1.5742
    1SOL    MW4 6996   1.097   1.988   2.971 -0.0895 -0.3954  0.6266
    1SOL     OW 6997   1.136   2.243   3.102 -0.3022 -0.1484 -0.1589
    1SOL    HW2 6998   1.054   2.289   3.084 -1.4718 -1.3033  1.9760
    1SOL    HW3 6999   1.124   2.156   3.063  0.7683  0.3719 -1.6892
    1SOL    MW4 7000   1.124   2.237   3.095 -0.3153 -0.2320 -0.0792
    1SOL     OW 7001   0.912   2.390   3.049 -0.3593  0.1637  0.2440
    1SOL    HW2 7002   0.825   2.361   3.075 -1.4574  2.8115 -0.2999
    1SOL    HW3 7003   0.904   2.407   2.955  0.6194  0.7921  0.2684
    1SOL    MW4 7004   0.900   2.388   3.040 -0.3750  0.5958  0.1755
    1SOL     OW 7005   0.934   2.667   3.113 -0.3447 -0.0061  0.2498
    1SOL    HW2 7006   0.938   2.665   3.209 -1.8083 -3.7764  0.3114
    1SOL    HW3 7007   0.930   2.575   3.087  0.4781  0.9414 -3.4864
    1SOL    MW4 7008   0.934   2.655   3.122 -0.4292 -0.3786 -0.2353
    1SOL     OW 7009   1.131   2.799   2.990  0.1367  0.0465  0.3128
    1SOL    HW2 7010   1.135   2.881   3.039 -2.2827  0.2802  0.1792
    1SOL    HW3 7011   1.066   2.747   3.037 -1.6732 -0.0066 -2.1976
    1SOL    MW4 7012   1.123   2.803   3.003 -0.4213  0.0703 -0.0360
    1SOL     OW 7013   1.150   3.062   3.110 -0.4817 -0.8458  0.0655
    1SOL    HW2 7014   1.226   3.108   3.074 -0.7483 -0.0658  0.4917
    1SOL    HW3 7015   1.076   3.119   3.091 -0.7181 -0.7462  1.2616
    1SOL    MW4 7016   1.150   3.075   3.103 -0.5481 -0.7298  0.2797
    1SOL     OW 7017   0.924   3.222   3.039  0.3913  0.2088 -0.0918
    1SOL    HW2 7018   0.862   3.156   3.071 -0.2666  0.8456 -0.0310
    1SOL    HW3 7019   0.913   3.221   2.944  1.5437 -0.9022 -0.2112
    1SOL    MW4 7020   0.914   3.213   3.031  0.4565  0.1466 -0.0997
    1SOL     OW 7021   0.882   3.494   3.124 -0.1590  0.1373  0.3647
    1SOL    HW2 7022   0.961   3.540   3.094  0.6168 -0.8688  0.8663
    1SOL    HW3 7023   0.892   3.405   3.091 -0.4364 -0.3570  1.6152
    1SOL    MW4 7024   0.894   3.488   3.116 -0.0932 -0.0603  0.5958
    1SOL     OW 7025   1.101   3.634   3.014  0.0833 -0.3804 -0.4136
    1SOL    HW2 7026   1.175   3.583   3.043  0.2773  0.5840  0.8134
    1SOL    HW3 7027   1.115   3.722   3.050 -1.8010 -0.2602  0.1150
    1SOL    MW4 7028   1.112   3.639   3.022 -0.1398 -0.2372 -0.1819
    1SOL     OW 7029   1.122   3.880   3.122  0.1587  0.0803  0.1016
    1SOL    HW2 7030   1.116   3.870   3.217 -1.3485 -0.1910 -0.0211
    1SOL    HW3 7031   1.042   3.926   3.097 -0.8310 -2.3185 -1.3661
    1SOL    MW4 7032   1.111   3.885   3.131 -0.1706 -0.2718 -0.1082
    1SOL     OW 7033   0.908   4.007   3.016 -0.0632  0.5490  0.6424
    1SOL    HW2 7034   0.820   3.987   3.047 -1.0605  3.0792 -0.4236
    1SOL    HW3 7035   0.908   3.984   2.923  0.2506  0.9445  0.5387
    1SOL    MW4 7036   0.897   4.002   3.008 -0.1533  0.9351  0.4883
    1SOL     OW 7037   0.885   4.279   3.087 -0.0996  0.2713 -0.3327
    1SOL    HW2 7038   0.889   4.193   3.045  0.1358  0.2054 -0.1771
    1SOL    HW3 7039   0.800   4.314   3.062 -0.5914 -0.4128  0.3722
    1SOL    MW4 7040   0.874   4.272   3.078 -0.1334  0.1726 -0.2191
    1SOL     OW 7041   1.129   4.391   3.017 -0.3351 -0.5419 -0.0059
    1SOL    HW2 7042   1.045   4.361   3.053  0.1415 -0.7790  0.9276
    1SOL    HW3 7043   1.143   4.478   3.055 -0.1695 -0.4880 -0.1841
    1SOL    MW4 7044   1.120   4.398   3.027 -0.2503 -0.5660  0.0937
    1SOL     OW 7045   1.534   4.614   3.059  0.2423  0.1746  0.0996
    1SOL    HW2 7046   1.548   4.635   3.152 -1.3869 -1.0628  0.6443
    1SOL    HW3 7047   1.467   4.676   3.031 -0.0571 -0.1725  0.0475
    1SOL    MW4 7048   1.527   4.625   3.068 -0.0122 -0.0343  0.1647
    1SOL     OW 7049   1.341   0.129   3.001 -0.5708 -0.0175 -0.3570
    1SOL    HW2 7050   1.340   0.217   3.038  1.5708  0.2848 -0.9616
    1SOL    HW3 7051   1.323   0.142   2.908 -0.4510 -0.2541 -0.4118
    1SOL    MW4 7052   1.338   0.142   2.993 -0.2723 -0.0089 -0.4442
    1SOL     OW 7053   1.383   0.393   3.075  0.2689  0.3631  0.3838
    1SOL    HW2 7054   1.400   0.415   3.166  0.6741  2.1768 -0.1048
    1SOL    HW3 7055   1.448   0.443   3.025 -1.5125  1.3682 -1.0386
    1SOL    MW4 7056   1.394   0.403   3.080  0.0874  0.7350  0.1316
    1SOL     OW 7057   1.640   0.497   2.979  0.1668 -0.2170  0.6098
    1SOL    HW2 7058   1.611   0.579   3.020 -0.6196 -1.7374  3.2086
    1SOL    HW3 7059   1.602   0.500   2.891 -2.2409  0.9387  1.6410
    1SOL    MW4 7060   1.631   0.508   2.973 -0.2546 -0.2651  1.0889
    1SOL     OW 7061   1.557   0.755   3.086 -0.4030  0.5817 -0.6619
    1SOL    HW2 7062   1.533   0.733   3.176  0.5822  0.0101 -0.5298
    1SOL    HW3 7063   1.490   0.817   3.058  0.2650  2.1551  1.0708
    1SOL    MW4 7064   1.545   0.760   3.094 -0.1849  0.7139 -0.4156
    1SOL     OW 7065   1.338   0.900   3.017 -0.1766  0.3301 -0.0007
    1SOL    HW2 7066   1.329   0.993   3.038  0.0718 -0.1193  2.2190
    1SOL    HW3 7067   1.257   0.860   3.050  0.6861 -0.5675  1.0487
    1SOL    MW4 7068   1.326   0.907   3.024 -0.0300  0.1524  0.4303
    1SOL     OW 7069   1.322   1.176   3.082  0.0886  1.0526 -0.3411
    1SOL    HW2 7070   1.320   1.167   3.178 -0.8911 -0.2678 -0.4713
    1SOL    HW3 7071   1.408   1.215   3.064  0.4911  0.8640  1.0354
    1SOL    MW4 7072   1.333   1.180   3.093  0.0123  0.8535 -0.1767
    1SOL     OW 7073   1.565   1.285   3.012  0.0309 -0.3857 -0.1116
    1SOL    HW2 7074   1.640   1.229   3.032 -0.1117 -0.5590 -0.0653
    1SOL    HW3 7075   1.577   1.362   3.068  0.0667 -0.5020  0.0402
    1SOL    MW4 7076   1.577   1.288   3.022  0.0168 -0.4238 -0.0856
    1SOL     OW 7077   1.577   1.535   3.133  0.1110 -0.1108 -0.3353
    1SOL    HW2 7078   1.657   1.570   3.094 -0.0419  0.0355 -0.5254
    1SOL    HW3 7079   1.506   1.579   3.085 -0.0790  0.6135  0.5952
    1SOL    MW4 7080   1.578   1.546   3.121  0.0657  0.0041 -0.2379
    1SOL     OW 7081   1.349   1.631   3.001  0.4632 -0.3048  0.0779
    1SOL    HW2 7082   1.343   1.719   3.039  0.0076 -0.2649 -0.0910
    1SOL    HW3 7083   1.331   1.643   2.908  0.2320 -0.5999  0.0830
    1SOL    MW4 7084   1.346   1.644   2.994  0.3725 -0.3384  0.0563
    1SOL     OW 7085   1.322   1.883   3.105  0.1442 -0.3564 -0.1397
    1SOL    HW2 7086   1.305   1.905   3.197 -1.4277  0.0997 -0.5215
    1SOL    HW3 7087   1.245   1.914   3.059 -0.0162 -2.4961 -1.3479
    1SOL    MW4 7088   1.310   1.890   3.111 -0.0844 -0.5786 -0.3493
    1SOL     OW 7089   1.553   2.010   2.985 -0.4531  0.0595 -0.1368
    1SOL    HW2 7090   1.483   1.953   3.016  0.7161 -2.3390 -1.7519
    1SOL    HW3 7091   1.517   2.052   2.907 -0.1059 -1.1399 -0.9436
    1SOL    MW4 7092   1.539   2.008   2.979 -0.2531 -0.4153 -0.4563
    1SOL     OW 7093   1.580   2.244   3.150 -0.0709  0.2569  0.1369
    1SOL    HW2 7094   1.523   2.305   3.103 -0.7953 -0.4412  0.1018
    1SOL    HW3 7095   1.565   2.160   3.107 -0.3494 -0.2833  1.2680
    1SOL    MW4 7096   1.570   2.241   3.138 -0.2033  0.0935  0.2816
    1SOL     OW 7097   1.362   2.396   3.024  0.0680  0.7040 -0.0837
    1SOL    HW2 7098   1.293   2.334   3.049  0.8905 -0.0439  0.3794
    1SOL    HW3 7099   1.352   2.406   2.929  1.5179 -2.1799 -0.6131
    1SOL    MW4 7100   1.352   2.389   3.015  0.3678  0.2251 -0.0925
    1SOL     OW 7101   1.360   2.657   3.102 -0.2587  0.4533 -0.7606
    1SOL    HW2 7102   1.371   2.563   3.084  0.1901  0.1819  0.8309
    1SOL    HW3 7103   1.279   2.681   3.057 -1.8307 -1.3216  0.9999
    1SOL    MW4 7104   1.351   2.648   3.094 -0.4069  0.1831 -0.3185
    1SOL     OW 7105   1.565   2.805   2.982  0.1290  0.4527  0.3579
    1SOL    HW2 7106   1.637   2.758   3.022  0.5905  1.1981  0.4063
    1SOL    HW3 7107   1.486   2.768   3.023  0.6026  1.4136  2.1614
    1SOL    MW4 7108   1.564   2.794   2.993  0.2525  0.6781  0.6022
    1SOL     OW 7109   1.556   3.052   3.110 -0.2489 -0.1807  0.1273
    1SOL    HW2 7110   1.561   3.039   3.205  1.6945 -0.6236 -0.0193
    1SOL    HW3 7111   1.565   2.964   3.073  0.4216  0.1486 -0.5070
    1SOL    MW4 7112   1.557   3.038   3.118  0.0960 -0.1955  0.0243
    1SOL     OW 7113   1.363   3.208   2.979  0.3649 -0.0587 -0.0139
    1SOL    HW2 7114   1.431   3.151   3.015  1.5459  1.7720  0.7098
    1SOL    HW3 7115   1.395   3.233   2.892 -0.1709 -0.5258 -0.3493
    1SOL    MW4 7116   1.376   3.204   2.972  0.4499  0.1214  0.0372
    1SOL     OW 7117   1.326   3.468   3.102 -0.2290  0.1982 -0.1106
    1SOL    HW2 7118   1.359   3.458   3.192 -1.8961  1.7979  0.7240
    1SOL    HW3 7119   1.335   3.381   3.063 -0.0161 -0.6610  1.7884
    1SOL    MW4 7120   1.332   3.455   3.109 -0.4208  0.2959  0.2503
    1SOL     OW 7121   1.534   3.620   3.017 -0.0661  0.2524  0.0708
    1SOL    HW2 7122   1.463   3.560   3.042 -0.0543 -0.6061 -1.9105
    1SOL    HW3 7123   1.546   3.606   2.923  1.6974  1.5100  0.0848
    1SOL    MW4 7124   1.526   3.610   3.008  0.1682  0.3052 -0.1886
    1SOL     OW 7125   1.545   3.872   3.136 -0.0963  0.1289 -0.0204
    1SOL    HW2 7126   1.621   3.910   3.091  0.4278 -1.4911 -0.5372
    1SOL    HW3 7127   1.543   3.781   3.107 -1.8279 -0.0314  0.5465
    1SOL    MW4 7128   1.555   3.865   3.126 -0.2557 -0.1061 -0.0136
    1SOL     OW 7129   1.347   3.999   2.988  0.0345 -0.0831 -0.3930
    1SOL    HW2 7130   1.418   3.954   3.035  1.0709  2.0704  0.1840
    1SOL    HW3 7131   1.268   3.975   3.036  0.6453 -0.7230  0.3241
    1SOL    MW4 7132   1.346   3.990   3.001  0.2519  0.1166 -0.2224
    1SOL     OW 7133   1.371   4.245   3.104  0.0341  0.3198 -0.0516
    1SOL    HW2 7134   1.369   4.157   3.065 -0.6721 -0.1273  0.9829
    1SOL    HW3 7135   1.289   4.285   3.075  0.0137  0.3782  0.0885
    1SOL    MW4 7136   1.360   4.239   3.095 -0.0616  0.2680  0.1035
    1SOL     OW 7137   1.585   4.355   2.978 -0.5291  0.1217 -0.3028
    1SOL    HW2 7138   1.508   4.318   3.022  1.3128 -0.8568  2.2285
    1SOL    HW3 7139   1.583   4.448   3.000 -0.3882 -0.1094  0.7073
    1SOL    MW4 7140   1.574   4.362   2.987 -0.2676 -0.0381  0.1645
    1SOL     OW 7141   2.018   4.629   3.056 -0.5142  0.0520  0.0563
    1SOL    HW2 7142   2.031   4.639   3.150 -0.6207 -0.6729  0.1487
    1SOL    HW3 7143   1.949   4.691   3.035 -0.8994 -0.2008  0.5583
    1SOL    MW4 7144   2.011   4.638   3.066 -0.5791 -0.0772  0.1345
    1SOL     OW 7145   1.753   0.081   2.978 -0.0523  0.2281 -0.4426
    1SOL    HW2 7146   1.677   0.034   3.010 -0.1238  0.1671 -0.6988
    1SOL    HW3 7147   1.741   0.084   2.883  0.4936 -0.1818 -0.5259
    1SOL    MW4 7148   1.742   0.075   2.970  0.0101  0.1660 -0.4876
    1SOL     OW 7149   1.781   0.325   3.123  0.1874  0.0127  0.1789
    1SOL    HW2 7150   1.773   0.238   3.084 -1.5734  0.2030  0.0500
    1SOL    HW3 7151   1.731   0.382   3.065  0.6317  0.9585  0.7185
    1SOL    MW4 7152   1.773   0.321   3.110  0.0136  0.1625  0.2327
    1SOL     OW 7153   2.001   0.454   2.992  0.0755  0.3747  0.3866
    1SOL    HW2 7154   1.936   0.422   3.054  0.3321  0.2567  0.5946
    1SOL    HW3 7155   2.084   0.418   3.023  0.2252  0.4368  0.0617
    1SOL    MW4 7156   2.003   0.445   3.004  0.1290  0.3673  0.3710
    1SOL     OW 7157   2.020   0.722   3.062  0.2278 -0.1942  0.2317
    1SOL    HW2 7158   1.936   0.763   3.041  0.5246 -0.3868 -1.4149
    1SOL    HW3 7159   2.009   0.630   3.039  0.6359 -0.3843  0.7846
    1SOL    MW4 7160   2.007   0.716   3.056  0.3211 -0.2447  0.0875
    1SOL     OW 7161   1.786   0.854   2.991  0.4022  0.3100 -0.1918
    1SOL    HW2 7162   1.707   0.819   3.033  0.3771 -1.0446 -1.3477
    1SOL    HW3 7163   1.774   0.836   2.898  1.3828  1.4869 -0.5547
    1SOL    MW4 7164   1.774   0.847   2.985  0.5283  0.2866 -0.3922
    1SOL     OW 7165   1.790   1.132   3.068 -0.1440 -0.2609 -0.4823
    1SOL    HW2 7166   1.790   1.114   3.162 -0.9576 -0.3665 -0.4989
    1SOL    HW3 7167   1.790   1.046   3.027 -0.9029 -0.2200 -0.5731
    1SOL    MW4 7168   1.790   1.118   3.075 -0.3517 -0.2694 -0.4964
    1SOL     OW 7169   2.014   1.241   2.938 -0.0736 -0.5595 -0.0077
    1SOL    HW2 7170   2.082   1.193   2.986  0.6781  0.4755 -0.0245
    1SOL    HW3 7171   1.932   1.202   2.968  0.5811 -2.9236 -1.1918
    1SOL    MW4 7172   2.012   1.229   2.949  0.1118 -0.7349 -0.1659
    1SOL     OW 7173   2.002   1.494   3.080  0.1297  0.3122 -0.0168
    1SOL    HW2 7174   1.980   1.507   3.173 -0.5631  1.1400 -0.2837
    1SOL    HW3 7175   2.001   1.399   3.068 -1.5027  0.2548  0.4344
    1SOL    MW4 7176   1.999   1.483   3.091 -0.1771  0.4138  0.0074
    1SOL     OW 7177   1.781   1.637   2.980  0.2262 -0.4131  0.4745
    1SOL    HW2 7178   1.775   1.723   3.021 -0.6736 -0.6161  0.7806
    1SOL    HW3 7179   1.862   1.600   3.014 -0.3839 -0.4847  1.9013
    1SOL    MW4 7180   1.791   1.643   2.990  0.0271 -0.4494  0.7029
    1SOL     OW 7181   1.771   1.868   3.103  0.8595  0.3089 -0.0272
    1SOL    HW2 7182   1.825   1.936   3.064  0.2297  0.4229 -0.7048
    1SOL    HW3 7183   1.681   1.894   3.084  0.6134 -0.7528 -0.3686
    1SOL    MW4 7184   1.766   1.880   3.096  0.7439  0.1838 -0.1616
    1SOL     OW 7185   1.972   2.028   3.015  0.4198  0.4905 -0.5107
    1SOL    HW2 7186   2.055   1.981   3.029 -0.2411 -0.0473  1.8534
    1SOL    HW3 7187   1.989   2.116   3.050 -0.1578  0.2189  0.4671
    1SOL    MW4 7188   1.986   2.034   3.022  0.2564  0.3839 -0.0699
    1SOL     OW 7189   2.030   2.283   3.079 -0.4191  0.0105  0.3093
    1SOL    HW2 7190   2.098   2.337   3.038 -1.5488  0.0920 -1.5174
    1SOL    HW3 7191   1.948   2.325   3.054 -1.1797 -0.1646  2.4014
    1SOL    MW4 7192   2.028   2.296   3.070 -0.6683 -0.0017  0.3445
    1SOL     OW 7193   1.782   2.387   3.012 -0.6661 -0.6136  0.0428
    1SOL    HW2 7194   1.785   2.477   3.046 -1.2541 -0.6890  0.2989
    1SOL    HW3 7195   1.724   2.340   3.072  0.3228 -1.3853  0.4108
    1SOL    MW4 7196   1.775   2.393   3.024 -0.6132 -0.7253  0.1254
    1SOL     OW 7197   1.773   2.649   3.090 -0.0509  0.5764 -0.3812
    1SOL    HW2 7198   1.775   2.644   3.186 -0.3109  1.3510 -0.3348
    1SOL    HW3 7199   1.851   2.701   3.067 -0.2093  0.7287 -0.5715
    1SOL    MW4 7200   1.784   2.655   3.100 -0.1062  0.6986 -0.4001
    1SOL     OW 7201   1.992   2.801   3.003  0.0650 -0.1966 -0.3056
    1SOL    HW2 7202   1.989   2.893   3.030 -3.8329  0.0651 -1.4353
    1SOL    HW3 7203   2.017   2.804   2.911 -0.8417 -0.2274 -0.5513
    1SOL    MW4 7204   1.995   2.813   2.995 -0.5687 -0.1662 -0.4869
    1SOL     OW 7205   1.992   3.071   3.081 -0.0667  0.4135 -0.4902
    1SOL    HW2 7206   2.019   3.072   3.173  1.7356  1.5460 -1.0116
    1SOL    HW3 7207   1.920   3.134   3.076 -0.6022 -0.1271  0.2525
    1SOL    MW4 7208   1.986   3.079   3.092  0.1006  0.4919 -0.4611
    1SOL     OW 7209   1.771   3.227   3.033  0.1023  0.1649 -0.2241
    1SOL    HW2 7210   1.699   3.170   3.058 -1.2414  2.1755  0.5627
    1SOL    HW3 7211   1.777   3.217   2.938 -0.9501 -0.3356 -0.2449
    1SOL    MW4 7212   1.762   3.218   3.024 -0.2140  0.3641 -0.1228
    1SOL     OW 7213   1.764   3.483   3.097  0.3148 -0.2250  0.0923
    1SOL    HW2 7214   1.744   3.392   3.074  1.5655 -0.1090 -1.5141
    1SOL    HW3 7215   1.691   3.533   3.061 -0.5184 -0.6003  1.2193
    1SOL    MW4 7216   1.752   3.478   3.089  0.3699 -0.2592  0.0291
    1SOL     OW 7217   1.999   3.607   3.013  0.1507  0.2347  0.0686
    1SOL    HW2 7218   1.998   3.693   3.053 -0.6139 -0.2103  1.0181
    1SOL    HW3 7219   1.917   3.566   3.040  0.3163 -0.6424 -0.7003
    1SOL    MW4 7220   1.988   3.613   3.022  0.0715  0.0601  0.0923
    1SOL     OW 7221   2.000   3.881   3.117  0.2346  0.3307 -0.2598
    1SOL    HW2 7222   1.995   3.894   3.211  0.4137 -0.8448 -0.0753
    1SOL    HW3 7223   1.913   3.903   3.084 -0.1420 -0.2958  0.3152
    1SOL    MW4 7224   1.988   3.886   3.125  0.2086  0.0930 -0.1597
    1SOL     OW 7225   1.761   3.988   3.017  0.4353 -0.1764  0.5745
    1SOL    HW2 7226   1.778   4.079   3.042  0.9070 -0.3555  0.9152
    1SOL    HW3 7227   1.784   3.984   2.924  0.5780  0.0138  0.6005
    1SOL    MW4 7228   1.767   4.000   3.008  0.5164 -0.1748  0.6227
    1SOL     OW 7229   1.805   4.271   3.111  0.1802 -0.0829 -0.0361
    1SOL    HW2 7230   1.882   4.306   3.067  0.2572 -0.5708 -0.2914
    1SOL    HW3 7231   1.731   4.299   3.056  0.2823 -0.7573 -0.5159
    1SOL    MW4 7232   1.805   4.280   3.098  0.2038 -0.2360 -0.1330
    1SOL     OW 7233   2.040   4.357   2.981  0.2763 -0.4948 -0.4247
    1SOL    HW2 7234   2.036   4.450   3.002 -0.0225 -0.7284  0.5809
    1SOL    HW3 7235   2.049   4.354   2.885  0.1516  0.5585 -0.4711
    1SOL    MW4 7236   2.040   4.369   2.971  0.2203 -0.3862 -0.2983
    1SOL     OW 7237   2.467   4.635   3.105 -0.0496  0.3791 -0.2136
    1SOL    HW2 7238   2.473   4.546   3.070  0.8147  0.2291  0.2951
    1SOL    HW3 7239   2.398   4.677   3.054 -0.9822 -0.8204  0.0356
    1SOL    MW4 7240   2.459   4.629   3.094 -0.0584  0.2017 -0.1137
    1SOL     OW 7241   2.249   0.083   2.956  0.2782  0.2968 -0.1423
    1SOL    HW2 7242   2.230   0.165   3.000 -0.9749  0.2804 -0.6404
    1SOL    HW3 7243   2.175   0.026   2.979  0.5044 -0.2766 -0.8262
    1SOL    MW4 7244   2.237   0.086   2.965  0.1431  0.2190 -0.2985
    1SOL     OW 7245   2.238   0.325   3.080  0.0909 -0.0327  0.2180
    1SOL    HW2 7246   2.224   0.329   3.175  0.9366  1.4174  0.2939
    1SOL    HW3 7247   2.318   0.374   3.066 -0.0544 -0.2114 -1.2643
    1SOL    MW4 7248   2.246   0.332   3.091  0.1833  0.1351  0.0327
    1SOL     OW 7249   2.458   0.466   2.959  0.1236  0.1741 -0.0256
    1SOL    HW2 7250   2.533   0.429   3.005 -0.1023  0.9947  1.0449
    1SOL    HW3 7251   2.474   0.448   2.867  2.1753  1.3052  0.1000
    1SOL    MW4 7252   2.470   0.459   2.953  0.3645  0.4316  0.1318
    1SOL     OW 7253   2.460   0.743   3.055 -0.6014 -0.4137  0.2369
    1SOL    HW2 7254   2.536   0.786   3.017 -0.8405 -0.6693 -0.5400
    1SOL    HW3 7255   2.459   0.656   3.017 -1.4123 -0.3363  0.0639
    1SOL    MW4 7256   2.470   0.737   3.045 -0.7403 -0.4372  0.1116
    1SOL     OW 7257   2.238   0.887   2.986  0.0801  0.1654  0.2293
    1SOL    HW2 7258   2.318   0.848   3.021 -0.4010  0.0321  1.1853
    1SOL    HW3 7259   2.167   0.836   3.024 -0.4874  0.6918 -0.1043
    1SOL    MW4 7260   2.239   0.875   2.996 -0.0582  0.2172  0.3116
    1SOL     OW 7261   2.202   1.135   3.112 -0.1823  0.4994  0.2053
    1SOL    HW2 7262   2.187   1.109   3.203 -2.3087  0.4802 -0.1361
    1SOL    HW3 7263   2.224   1.054   3.067  0.3725  0.4303  0.6007
    1SOL    MW4 7264   2.203   1.121   3.118 -0.3896  0.4878  0.2122
    1SOL     OW 7265   2.451   1.274   2.986 -0.4967  0.0425 -0.2537
    1SOL    HW2 7266   2.381   1.227   3.032 -0.0065 -1.4755 -1.0263
    1SOL    HW3 7267   2.437   1.254   2.894 -1.3177  2.8759 -0.7858
    1SOL    MW4 7268   2.440   1.265   2.980 -0.5403  0.2160 -0.4258
    1SOL     OW 7269   2.439   1.529   3.105  0.2587 -0.5520  0.1070
    1SOL    HW2 7270   2.365   1.574   3.063  0.4068 -0.4927 -0.0944
    1SOL    HW3 7271   2.442   1.443   3.062  0.1945 -0.6218  0.2424
    1SOL    MW4 7272   2.430   1.524   3.094  0.2699 -0.5533  0.0985
    1SOL     OW 7273   2.227   1.641   2.957 -0.0367 -0.2753  0.3407
    1SOL    HW2 7274   2.139   1.608   2.972 -0.6566  1.4669  0.7026
    1SOL    HW3 7275   2.244   1.624   2.864 -0.4221 -1.3768  0.4741
    1SOL    MW4 7276   2.217   1.635   2.947 -0.1693 -0.1909  0.4060
    1SOL     OW 7277   2.213   1.892   3.082 -0.0255 -0.0207 -0.0414
    1SOL    HW2 7278   2.295   1.927   3.048 -0.2852  1.0390  0.3981
    1SOL    HW3 7279   2.208   1.804   3.046 -0.1741  0.9702 -2.5679
    1SOL    MW4 7280   2.223   1.885   3.073 -0.0794  0.2499 -0.3166
    1SOL     OW 7281   2.439   2.029   2.972 -0.0181 -0.1317  0.3429
    1SOL    HW2 7282   2.522   2.005   3.013  0.3271  0.9156  0.2694
    1SOL    HW3 7283   2.457   2.029   2.878 -0.0120  0.4525  0.3458
    1SOL    MW4 7284   2.452   2.026   2.965  0.0281  0.0832  0.3338
    1SOL     OW 7285   2.455   2.297   3.052  0.2416  0.4021  0.4179
    1SOL    HW2 7286   2.443   2.297   3.147 -3.5304 -0.0697 -0.0109
    1SOL    HW3 7287   2.471   2.205   3.030 -3.2221 -0.1812  0.1511
    1SOL    MW4 7288   2.456   2.285   3.061 -0.7131  0.2627  0.3262
    1SOL     OW 7289   2.227   2.425   2.953  0.4648 -0.0262  0.3021
    1SOL    HW2 7290   2.225   2.506   3.004  1.4857 -0.7851  1.5789
    1SOL    HW3 7291   2.305   2.380   2.983  0.3768 -1.0902 -1.0304
    1SOL    MW4 7292   2.237   2.430   2.964  0.5882 -0.2668  0.2949
    1SOL     OW 7293   2.218   2.662   3.092  0.5000 -0.3456 -0.0549
    1SOL    HW2 7294   2.294   2.715   3.066 -0.2014  1.1608  0.8568
    1SOL    HW3 7295   2.142   2.718   3.074 -0.1809 -0.4895  2.1250
    1SOL    MW4 7296   2.218   2.676   3.086  0.3178 -0.1657  0.3531
    1SOL     OW 7297   2.439   2.815   3.018 -0.3094 -0.2458  0.0983
    1SOL    HW2 7298   2.446   2.903   3.055 -1.1471 -0.7839  1.6044
    1SOL    HW3 7299   2.444   2.828   2.923 -0.4397  1.4263  0.3044
    1SOL    MW4 7300   2.441   2.828   3.010 -0.4368 -0.0966  0.3240
    1SOL     OW 7301   2.441   3.083   3.093 -0.1176 -0.4240 -0.1854
    1SOL    HW2 7302   2.516   3.123   3.050  0.0388  1.7508  2.0437
    1SOL    HW3 7303   2.365   3.121   3.049  0.0538  0.8824  0.6305
    1SOL    MW4 7304   2.441   3.093   3.081 -0.0744  0.0350  0.2165
    1SOL     OW 7305   2.217   3.218   2.976  0.3897 -0.1290 -0.3413
    1SOL    HW2 7306   2.201   3.300   3.023  0.7491 -0.5146  0.4669
    1SOL    HW3 7307   2.137   3.167   2.988  0.2098  0.0626 -0.7469
    1SOL    MW4 7308   2.204   3.222   2.984  0.4134 -0.1547 -0.2882
    1SOL     OW 7309   2.234   3.476   3.107 -0.0140  0.4645 -0.0856
    1SOL    HW2 7310   2.320   3.514   3.087  0.0092  0.4200 -0.0719
    1SOL    HW3 7311   2.172   3.535   3.065  0.1094 -0.6018 -1.7695
    1SOL    MW4 7312   2.237   3.489   3.099  0.0052  0.3178 -0.3059
    1SOL     OW 7313   2.461   3.610   2.993 -0.2189  0.6102  0.1166
    1SOL    HW2 7314   2.541   3.571   3.029 -0.2034  0.5107 -0.0236
    1SOL    HW3 7315   2.465   3.702   3.020 -0.6141  0.3505  1.0546
    1SOL    MW4 7316   2.472   3.617   3.001 -0.2689  0.5627  0.2217
    1SOL     OW 7317   2.462   3.864   3.109  0.2143  0.3815 -0.1489
    1SOL    HW2 7318   2.480   3.857   3.203  2.1983  1.1443 -0.4440
    1SOL    HW3 7319   2.544   3.898   3.072 -1.1508  1.8026 -1.9175
    1SOL    MW4 7320   2.475   3.868   3.117  0.2959  0.6695 -0.4210
    1SOL     OW 7321   2.243   3.986   3.010  0.4704 -0.1130  0.5063
    1SOL    HW2 7322   2.322   3.939   3.037  0.5992  0.4197  1.0645
    1SOL    HW3 7323   2.171   3.933   3.044  0.6362  0.6274  2.0371
    1SOL    MW4 7324   2.244   3.973   3.018  0.5090  0.0551  0.7818
    1SOL     OW 7325   2.238   4.244   3.137  0.1599  0.6304 -0.0156
    1SOL    HW2 7326   2.239   4.151   3.115 -0.3398  0.6916 -0.2864
    1SOL    HW3 7327   2.164   4.280   3.088  0.5627  1.2365 -0.1903
    1SOL    MW4 7328   2.229   4.237   3.127  0.1471  0.7186 -0.0746
    1SOL     OW 7329   2.473   4.363   3.017 -0.5645  0.0417  0.1056
    1SOL    HW2 7330   2.399   4.313   3.049 -0.5645 -0.3176 -0.4484
    1SOL    HW3 7331   2.460   4.367   2.922  1.7659 -2.6950 -0.3880
    1SOL    MW4 7332   2.462   4.357   3.009 -0.2570 -0.3667 -0.0324
    1SOL     OW 7333   2.910   4.654   3.086 -0.0980  0.0118  0.0456
    1SOL    HW2 7334   2.982   4.706   3.049  1.1238 -0.1828  2.0573
    1SOL    HW3 7335   2.918   4.568   3.046 -0.2230  0.4543 -0.9519
    1SOL    MW4 7336   2.920   4.650   3.076  0.0467  0.0443  0.1793
    1SOL     OW 7337   2.685   0.115   3.012  0.4623 -0.2279 -0.2449
    1SOL    HW2 7338   2.761   0.063   3.039  0.2084 -0.1638  0.6048
    1SOL    HW3 7339   2.610   0.072   3.054  0.3696  1.4941  1.4621
    1SOL    MW4 7340   2.685   0.102   3.021  0.4168  0.0078  0.0923
    1SOL     OW 7341   2.684   0.372   3.090  0.1803 -0.1435 -0.2999
    1SOL    HW2 7342   2.693   0.281   3.062  0.1316 -0.1173 -0.4020
    1SOL    HW3 7343   2.681   0.368   3.185  0.7398 -0.1947 -0.2842
    1SOL    MW4 7344   2.684   0.360   3.099  0.2475 -0.1468 -0.3111
    1SOL     OW 7345   2.927   0.495   2.991 -0.1731  0.1601 -0.2470
    1SOL    HW2 7346   2.840   0.466   3.017  0.1570  0.6178  1.4148
    1SOL    HW3 7347   2.927   0.489   2.895 -1.4052 -1.5643 -0.1459
    1SOL    MW4 7348   2.916   0.491   2.982 -0.2923 -0.0070 -0.0145
    1SOL     OW 7349   2.907   0.774   3.076 -0.3500 -0.3615 -0.1232
    1SOL    HW2 7350   2.893   0.771   3.171 -2.3302 -1.3297 -0.4285
    1SOL    HW3 7351   2.938   0.686   3.055  3.9661  0.9684  0.1503
    1SOL    MW4 7352   2.910   0.762   3.086 -0.0417 -0.3138 -0.1271
    1SOL     OW 7353   2.684   0.884   2.962 -0.3453 -0.6130  0.0449
    1SOL    HW2 7354   2.684   0.972   3.001  0.8172 -0.1134 -1.0290
    1SOL    HW3 7355   2.759   0.840   3.001  1.0776  0.0352 -1.8871
    1SOL    MW4 7356   2.694   0.890   2.972 -0.0045 -0.4615 -0.3517
    1SOL     OW 7357   2.681   1.136   3.062  0.1926  0.4096  0.4649
    1SOL    HW2 7358   2.757   1.180   3.023  0.2777 -0.4420 -0.3558
    1SOL    HW3 7359   2.606   1.188   3.033  0.2961  0.0466 -0.4699
    1SOL    MW4 7360   2.681   1.149   3.053  0.2177  0.2494  0.2334
    1SOL     OW 7361   2.911   1.260   2.995  0.1845  0.0165  0.2389
    1SOL    HW2 7362   2.993   1.233   3.036 -0.3013 -0.3603  0.9992
    1SOL    HW3 7363   2.904   1.354   3.013  0.4914  0.0623  0.1051
    1SOL    MW4 7364   2.921   1.269   3.003  0.1609 -0.0271  0.3214
    1SOL     OW 7365   2.895   1.536   3.084  0.7861  0.1359  0.0635
    1SOL    HW2 7366   2.917   1.541   3.177 -0.3120  0.6192  0.3047
    1SOL    HW3 7367   2.971   1.574   3.039  0.9462  0.7143  0.8102
    1SOL    MW4 7368   2.908   1.542   3.091  0.6623  0.2760  0.1938
    1SOL     OW 7369   2.661   1.657   2.995  0.2295  0.0181 -1.1237
    1SOL    HW2 7370   2.745   1.617   3.021  1.2839  2.4060 -0.7292
    1SOL    HW3 7371   2.595   1.595   3.025  1.8442 -1.8879 -1.3909
    1SOL    MW4 7372   2.663   1.643   3.002  0.5815  0.0817 -1.1070
    1SOL     OW 7373   2.660   1.934   3.100 -0.0209 -0.4214  0.2127
    1SOL    HW2 7374   2.741   1.978   3.074  0.0496 -0.7241 -0.0892
    1SOL    HW3 7375   2.662   1.851   3.053 -1.1967  0.1878 -0.9548
    1SOL    MW4 7376   2.671   1.929   3.090 -0.1667 -0.3810  0.0191
    1SOL     OW 7377   2.900   2.046   3.000  0.4894 -0.0575  0.1024
    1SOL    HW2 7378   2.891   2.137   3.026 -1.1478 -0.5191  1.2649
    1SOL    HW3 7379   2.876   2.045   2.907  0.0951  0.6406  0.1945
    1SOL    MW4 7380   2.896   2.058   2.991  0.2215 -0.0262  0.2680
    1SOL     OW 7381   2.893   2.295   3.102  0.1210 -0.1686 -0.2376
    1SOL    HW2 7382   2.973   2.341   3.075  0.3672  0.6211  1.8023
    1SOL    HW3 7383   2.822   2.346   3.062  0.5209  0.5565 -0.0394
    1SOL    MW4 7384   2.894   2.308   3.093  0.2062  0.0312  0.0577
    1SOL     OW 7385   2.685   2.428   2.962 -0.1717  0.0245  0.1508
    1SOL    HW2 7386   2.688   2.515   3.002 -0.2782 -0.1308  0.4967
    1SOL    HW3 7387   2.602   2.390   2.991  0.4991 -0.7313  1.1335
    1SOL    MW4 7388   2.674   2.434   2.971 -0.0973 -0.0956  0.3259
    1SOL     OW 7389   2.700   2.689   3.079 -0.0400  0.0577 -0.1932
    1SOL    HW2 7390   2.701   2.697   3.174 -0.6898  0.0670 -0.1838
    1SOL    HW3 7391   2.621   2.736   3.052  0.5736  0.7596 -0.8023
    1SOL    MW4 7392   2.690   2.697   3.088 -0.0451  0.1514 -0.2725
    1SOL     OW 7393   2.915   2.850   2.996  0.3596  0.4451  0.6674
    1SOL    HW2 7394   2.986   2.803   3.040 -0.5989 -0.5181  1.2236
    1SOL    HW3 7395   2.836   2.808   3.029 -0.4871  1.9601  0.5688
    1SOL    MW4 7396   2.914   2.838   3.006  0.1216  0.5178  0.7277
    1SOL     OW 7397   2.923   3.118   3.083  0.3699 -0.6930 -0.5692
    1SOL    HW2 7398   2.841   3.152   3.045 -0.7175 -2.0026  0.5573
    1SOL    HW3 7399   2.918   3.024   3.070  0.6937 -1.0061  1.4008
    1SOL    MW4 7400   2.911   3.110   3.076  0.2694 -0.9072 -0.1607
    1SOL     OW 7401   2.666   3.210   2.998  0.3453  0.2157 -0.1150
    1SOL    HW2 7402   2.666   3.299   3.033  3.4041  0.2392 -0.0017
    1SOL    HW3 7403   2.676   3.220   2.904  0.3660 -0.0094 -0.1379
    1SOL    MW4 7404   2.667   3.223   2.991  0.7517  0.1891 -0.1028
    1SOL     OW 7405   2.685   3.489   3.078  0.2620  0.1337 -0.4578
    1SOL    HW2 7406   2.686   3.493   3.174 -0.6089  2.1266 -0.5074
    1SOL    HW3 7407   2.766   3.532   3.051  0.9085 -1.1581 -0.6181
    1SOL    MW4 7408   2.696   3.495   3.087  0.2322  0.2263 -0.4857
    1SOL     OW 7409   2.916   3.607   3.006 -0.1659  0.0631 -0.1361
    1SOL    HW2 7410   3.002   3.577   3.037  0.2174  0.7318 -0.5558
    1SOL    HW3 7411   2.913   3.700   3.029 -0.5170  0.1931 -0.7065
    1SOL    MW4 7412   2.927   3.615   3.013 -0.1619  0.1683 -0.2666
    1SOL     OW 7413   2.916   3.864   3.065 -0.2577  0.2027 -0.1464
    1SOL    HW2 7414   2.926   3.860   3.160  1.1743 -0.2673 -0.3037
    1SOL    HW3 7415   2.834   3.911   3.052 -0.3064  0.5666  1.3191
    1SOL    MW4 7416   2.907   3.870   3.076 -0.0751  0.1888  0.0262
    1SOL     OW 7417   2.692   3.990   2.991 -0.1568  0.2492 -0.3301
    1SOL    HW2 7418   2.692   4.080   3.024 -3.9003  0.1354  0.1957
    1SOL    HW3 7419   2.698   3.999   2.896  1.2776  0.9559 -0.1831
    1SOL    MW4 7420   2.692   4.003   2.983 -0.4616  0.3276 -0.2415
    1SOL     OW 7421   2.683   4.230   3.117  0.2523 -0.0551  0.3557
    1SOL    HW2 7422   2.670   4.226   3.212  0.5989  0.5034  0.4285
    1SOL    HW3 7423   2.606   4.276   3.084  0.6053  0.6232  0.4724
    1SOL    MW4 7424   2.671   4.236   3.125  0.3443  0.1082  0.3805
    1SOL     OW 7425   2.904   4.387   2.997  0.4070 -0.0228 -0.5864
    1SOL    HW2 7426   2.981   4.334   3.015  0.3767 -0.6928 -2.3369
    1SOL    HW3 7427   2.832   4.340   3.039  0.7000 -0.2417 -0.3289
    1SOL    MW4 7428   2.904   4.374   3.005  0.4416 -0.1402 -0.7832
    1SOL     OW 7429   3.358   4.633   3.098 -0.0354 -0.1519 -0.1702
    1SOL    HW2 7430   3.439   4.680   3.079 -0.0750  0.4696  1.1811
    1SOL    HW3 7431   3.366   4.551   3.049  1.1433  0.1566 -0.5078
    1SOL    MW4 7432   3.369   4.628   3.089  0.1149 -0.0296 -0.0365
    1SOL     OW 7433   3.140   0.121   3.010 -0.0461 -0.5878 -0.0540
    1SOL    HW2 7434   3.131   0.209   3.045 -0.9152 -0.6416 -0.1329
    1SOL    HW3 7435   3.213   0.083   3.059 -0.1760 -0.0922  0.5274
    1SOL    MW4 7436   3.148   0.128   3.021 -0.1781 -0.5295  0.0124
    1SOL     OW 7437   3.140   0.366   3.134 -0.8234  0.8213 -0.5271
    1SOL    HW2 7438   3.216   0.409   3.094 -1.0946  2.6717  0.8487
    1SOL    HW3 7439   3.065   0.412   3.097 -1.1142  1.7753  1.1793
    1SOL    MW4 7440   3.140   0.378   3.124 -0.8976  1.1913 -0.1204
    1SOL     OW 7441   3.353   0.489   3.035 -0.2934  0.0747  0.0154
    1SOL    HW2 7442   3.430   0.448   3.074 -1.8697 -1.9809  1.0223
    1SOL    HW3 7443   3.373   0.494   2.941  0.7097 -1.2453  0.1538
    1SOL    MW4 7444   3.366   0.484   3.028 -0.3691 -0.3707  0.1664
    1SOL     OW 7445   3.358   0.765   3.085 -0.0965  0.0956  0.3322
    1SOL    HW2 7446   3.357   0.774   3.181  0.0202  0.5643  0.2928
    1SOL    HW3 7447   3.355   0.671   3.070 -2.1448  0.0671  0.7803
    1SOL    MW4 7448   3.357   0.754   3.096 -0.3517  0.1537  0.3860
    1SOL     OW 7449   3.152   0.930   3.001  0.2251  0.4898 -0.3728
    1SOL    HW2 7450   3.220   0.876   3.041  0.0937  1.2753  0.9288
    1SOL    HW3 7451   3.070   0.888   3.028  0.1660 -0.1291 -1.4767
    1SOL    MW4 7452   3.150   0.917   3.010  0.1998  0.5118 -0.3467
    1SOL     OW 7453   3.138   1.187   3.082 -0.2318  0.2437 -0.6385
    1SOL    HW2 7454   3.221   1.225   3.054  1.6037 -1.9923  1.6534
    1SOL    HW3 7455   3.142   1.096   3.054 -1.9913  0.1296 -0.6044
    1SOL    MW4 7456   3.149   1.180   3.075 -0.2217 -0.0664 -0.3316
    1SOL     OW 7457   3.370   1.280   3.002 -0.0793  0.1267  0.8539
    1SOL    HW2 7458   3.448   1.235   3.035 -0.4657  0.0694  1.6962
    1SOL    HW3 7459   3.379   1.370   3.033  0.2953  0.4415 -0.1526
    1SOL    MW4 7460   3.381   1.286   3.010 -0.0803  0.1607  0.8321
    1SOL     OW 7461   3.388   1.533   3.087  0.1232 -0.7038 -0.3468
    1SOL    HW2 7462   3.395   1.562   3.178 -0.3380 -1.1872 -0.1554
    1SOL    HW3 7463   3.471   1.557   3.047  0.3530 -0.5598  0.2251
    1SOL    MW4 7464   3.400   1.540   3.093  0.0927 -0.7486 -0.2460
    1SOL     OW 7465   3.167   1.633   2.984  0.0861  0.4088  0.2001
    1SOL    HW2 7466   3.254   1.597   3.001 -0.3278 -0.5860  0.2499
    1SOL    HW3 7467   3.166   1.717   3.030  0.7348  0.0414  0.8857
    1SOL    MW4 7468   3.178   1.640   2.992  0.1171  0.2290  0.2973
    1SOL     OW 7469   3.132   1.882   3.086 -0.0742 -0.2381 -0.0843
    1SOL    HW2 7470   3.143   1.913   3.176 -2.0814 -0.8333  0.4044
    1SOL    HW3 7471   3.053   1.927   3.055  0.0977 -0.7153 -1.2231
    1SOL    MW4 7472   3.123   1.892   3.094 -0.3161 -0.3797 -0.1702
    1SOL     OW 7473   3.338   2.040   2.950 -0.2564  0.1154 -0.2075
    1SOL    HW2 7474   3.409   1.988   2.987 -0.0055 -0.2794 -1.2405
    1SOL    HW3 7475   3.258   1.997   2.980 -0.0530 -0.2973 -0.2565
    1SOL    MW4 7476   3.337   2.028   2.959 -0.1962  0.0091 -0.3502
    1SOL     OW 7477   3.322   2.300   3.080 -0.5128 -0.3542 -0.0056
    1SOL    HW2 7478   3.335   2.295   3.174 -0.4869  2.3955  0.1916
    1SOL    HW3 7479   3.345   2.213   3.047  0.8133 -0.9353  2.3639
    1SOL    MW4 7480   3.327   2.288   3.088 -0.3345 -0.0682  0.3331
    1SOL     OW 7481   3.094   2.429   2.976 -0.2382 -0.2107  0.5541
    1SOL    HW2 7482   3.169   2.374   3.001 -0.9112 -0.9824  0.8849
    1SOL    HW3 7483   3.106   2.510   3.026  2.2289  1.0740 -1.9292
    1SOL    MW4 7484   3.106   2.432   2.985 -0.0019 -0.1433  0.2699
    1SOL     OW 7485   3.111   2.676   3.087  0.2355  0.5790  0.4192
    1SOL    HW2 7486   3.187   2.727   3.060  0.2651  0.8005  0.9190
    1SOL    HW3 7487   3.102   2.693   3.181 -1.2766  1.6963  0.1014
    1SOL    MW4 7488   3.120   2.685   3.096  0.0401  0.7555  0.4430
    1SOL     OW 7489   3.335   2.817   3.026  0.0215  0.2414  0.3388
    1SOL    HW2 7490   3.404   2.764   3.065 -0.9320 -0.3712  1.2023
    1SOL    HW3 7491   3.344   2.903   3.068 -0.2770 -0.0884  1.0940
    1SOL    MW4 7492   3.345   2.822   3.037 -0.1440  0.1171  0.5524
    1SOL     OW 7493   3.377   3.077   3.127 -0.0356 -0.3736 -0.0057
    1SOL    HW2 7494   3.311   3.125   3.075  0.4253 -0.3053 -0.5345
    1SOL    HW3 7495   3.355   3.098   3.218  1.5064  2.6923 -0.2735
    1SOL    MW4 7496   3.365   3.086   3.132  0.2289  0.0398 -0.1109
    1SOL     OW 7497   3.175   3.210   2.993  0.1025 -0.4137  0.0724
    1SOL    HW2 7498   3.093   3.170   3.020 -0.9568  1.0241 -0.9985
    1SOL    HW3 7499   3.160   3.240   2.904  1.2995  1.2101  0.3845
    1SOL    MW4 7500   3.162   3.209   2.985  0.1209 -0.0098 -0.0279
    1SOL     OW 7501   3.168   3.488   3.070 -0.2636 -0.1339 -0.8402
    1SOL    HW2 7502   3.261   3.505   3.054  0.4565 -1.6722  1.4615
    1SOL    HW3 7503   3.160   3.392   3.065 -1.8955  0.0237 -1.7807
    1SOL    MW4 7504   3.179   3.477   3.067 -0.3836 -0.3161 -0.6604
    1SOL     OW 7505   3.410   3.552   2.956 -0.1607  0.2212  0.2790
    1SOL    HW2 7506   3.480   3.501   2.997 -0.9451 -1.5627 -0.5373
    1SOL    HW3 7507   3.414   3.637   2.999  0.6633 -0.7819  2.2793
    1SOL    MW4 7508   3.420   3.556   2.967 -0.1554 -0.1464  0.4351
    1SOL     OW 7509   3.404   3.817   3.066  0.2163  0.5778  0.1038
    1SOL    HW2 7510   3.387   3.826   3.159  0.0717  0.4752  0.0878
    1SOL    HW3 7511   3.325   3.852   3.024  0.5649  1.2626  0.0086
    1SOL    MW4 7512   3.391   3.823   3.072  0.2432  0.6547  0.0894
    1SOL     OW 7513   3.180   3.973   2.974  0.1175  0.4882  0.1025
    1SOL    HW2 7514   3.092   3.942   2.994  0.1423 -0.4783 -1.2633
    1SOL    HW3 7515   3.180   3.990   2.880  1.2573  0.8907  0.1648
    1SOL    MW4 7516   3.168   3.971   2.965  0.2711  0.4137 -0.0696
    1SOL     OW 7517   3.137   4.255   3.060 -0.0137  0.0947  0.2315
    1SOL    HW2 7518   3.117   4.241   3.153 -0.9255  0.7955  0.1539
    1SOL    HW3 7519   3.154   4.167   3.026  0.5830 -0.1411  1.1168
    1SOL    MW4 7520   3.136   4.241   3.068 -0.0556  0.1559  0.3381
    1SOL     OW 7521   3.378   4.357   2.968 -0.0018  0.1579  0.2350
    1SOL    HW2 7522   3.442   4.299   3.008 -0.0847 -1.0669 -1.3861
    1SOL    HW3 7523   3.295   4.335   3.011 -0.1731 -1.4642 -0.8916
    1SOL    MW4 7524   3.376   4.346   2.979 -0.0353 -0.2174 -0.1278
    1SOL     OW 7525   3.809   4.664   3.094  0.4659 -0.0999 -0.4638
    1SOL    HW2 7526   3.809   4.573   3.065 -0.3062 -0.8106  1.6257
    1SOL    HW3 7527   3.735   4.704   3.048 -0.0686 -0.9076 -0.3201
    1SOL    MW4 7528   3.799   4.657   3.084  0.2933 -0.3004 -0.1693
    1SOL     OW 7529   3.586   0.103   2.986  0.7590  0.0879  0.6077
    1SOL    HW2 7530   3.582   0.193   3.019  0.0687  0.1023  0.4819
    1SOL    HW3 7531   3.590   0.113   2.890  1.6801  0.0127  0.6321
    1SOL    MW4 7532   3.586   0.116   2.977  0.7892  0.0799  0.5944
    1SOL     OW 7533   3.574   0.358   3.130  0.1240 -0.0791  0.0128
    1SOL    HW2 7534   3.573   0.365   3.225 -1.2674  0.3296 -0.0140
    1SOL    HW3 7535   3.654   0.403   3.103 -0.9909  2.4596  0.8118
    1SOL    MW4 7536   3.584   0.365   3.139 -0.2067  0.3098  0.1144
    1SOL     OW 7537   3.831   0.501   3.034 -0.0461 -0.3217  0.4280
    1SOL    HW2 7538   3.897   0.453   3.086 -0.8668 -0.1043  1.6896
    1SOL    HW3 7539   3.836   0.591   3.067 -1.0210 -0.3218  0.5740
    1SOL    MW4 7540   3.841   0.506   3.045 -0.2830 -0.2930  0.6137
    1SOL     OW 7541   3.801   0.766   3.094 -0.3456  0.0841 -0.0890
    1SOL    HW2 7542   3.804   0.794   3.186 -1.0515 -0.4807  0.1107
    1SOL    HW3 7543   3.881   0.802   3.056 -0.5413  1.1706  0.5020
    1SOL    MW4 7544   3.812   0.775   3.101 -0.4644  0.1529  0.0153
    1SOL     OW 7545   3.589   0.923   3.015  0.0235 -0.2890 -0.1103
    1SOL    HW2 7546   3.667   0.875   3.044  0.1793 -0.5791 -1.0015
    1SOL    HW3 7547   3.516   0.875   3.053  0.2315 -0.5901 -0.0854
    1SOL    MW4 7548   3.590   0.911   3.024  0.0713 -0.3670 -0.2246
    1SOL     OW 7549   3.583   1.161   3.141  0.5712 -0.0122 -0.5457
    1SOL    HW2 7550   3.666   1.206   3.122  0.1181  1.6572  1.2811
    1SOL    HW3 7551   3.589   1.079   3.092  3.0964  0.3030 -0.8490
    1SOL    MW4 7552   3.595   1.156   3.132  0.8447  0.2496 -0.3448
    1SOL     OW 7553   3.831   1.284   3.034  0.4698  0.2162  0.5801
    1SOL    HW2 7554   3.827   1.379   3.046  2.7811  0.5445 -0.8824
    1SOL    HW3 7555   3.819   1.271   2.940  1.1557 -0.8632  0.6250
    1SOL    MW4 7556   3.829   1.295   3.023  0.8652  0.1171  0.3932
    1SOL     OW 7557   3.839   1.558   3.088 -0.1504 -0.3878 -0.1141
    1SOL    HW2 7558   3.831   1.555   3.183 -1.3667 -1.5035 -0.2439
    1SOL    HW3 7559   3.755   1.591   3.057  0.3682  0.3319 -0.7946
    1SOL    MW4 7560   3.827   1.562   3.096 -0.2425 -0.4399 -0.2208
    1SOL     OW 7561   3.609   1.649   2.949 -0.1880  0.0661 -0.0661
    1SOL    HW2 7562   3.585   1.737   2.977 -1.0202 -0.2692  0.3152
    1SOL    HW3 7563   3.599   1.651   2.854 -0.5451  0.2957 -0.0278
    1SOL    MW4 7564   3.604   1.661   2.940 -0.3448  0.0522 -0.0107
    1SOL     OW 7565   3.553   1.904   3.058  0.1399 -0.2806  0.3511
    1SOL    HW2 7566   3.554   1.893   3.153  2.2257 -2.1383  0.1652
    1SOL    HW3 7567   3.634   1.951   3.038 -0.6430  0.7567 -0.4603
    1SOL    MW4 7568   3.564   1.908   3.068  0.3116 -0.3887  0.2193
    1SOL     OW 7569   3.808   2.034   3.015  0.1469 -0.3369  0.6977
    1SOL    HW2 7570   3.813   2.127   3.034  1.4515 -0.3283  0.3523
    1SOL    HW3 7571   3.825   2.027   2.921 -1.7106 -0.7758  0.3758
    1SOL    MW4 7572   3.811   2.045   3.005  0.0741 -0.3941  0.6099
    1SOL     OW 7573   3.807   2.310   3.055 -0.3317 -0.2409  0.1325
    1SOL    HW2 7574   3.824   2.322   3.149  0.1799 -0.4381  0.0704
    1SOL    HW3 7575   3.719   2.345   3.042 -0.8010 -1.1137  0.8765
    1SOL    MW4 7576   3.798   2.316   3.066 -0.3259 -0.3819  0.2224
    1SOL     OW 7577   3.558   2.417   3.019  0.0616 -0.2567  0.2670
    1SOL    HW2 7578   3.544   2.507   3.049  1.8843 -0.0818  0.6109
    1SOL    HW3 7579   3.473   2.374   3.032 -1.0054  1.5720 -0.5214
    1SOL    MW4 7580   3.545   2.423   3.025  0.1614  0.0076  0.2086
    1SOL     OW 7581   3.561   2.677   3.113  0.3217  0.7836 -0.1419
    1SOL    HW2 7582   3.585   2.663   3.205  0.4585 -0.0618 -0.2995
    1SOL    HW3 7583   3.635   2.724   3.076  1.0483 -0.4078 -0.2342
    1SOL    MW4 7584   3.574   2.681   3.120  0.4354  0.5147 -0.1748
    1SOL     OW 7585   3.781   2.819   3.012 -0.1229  0.0829 -0.0597
    1SOL    HW2 7586   3.791   2.905   3.054 -0.5419 -0.7167  1.7405
    1SOL    HW3 7587   3.787   2.837   2.918 -0.1497  2.0718  0.2984
    1SOL    MW4 7588   3.783   2.833   3.005 -0.1819  0.2396  0.2248
    1SOL     OW 7589   3.816   3.056   3.124  0.3644  0.4096  0.2506
    1SOL    HW2 7590   3.898   3.098   3.098  0.0267  0.2036 -1.1701
    1SOL    HW3 7591   3.747   3.110   3.083 -0.1307 -0.5457 -0.1858
    1SOL    MW4 7592   3.818   3.069   3.115  0.2546  0.2563  0.0057
    1SOL     OW 7593   3.609   3.186   2.986  0.0226 -0.0583 -0.5313
    1SOL    HW2 7594   3.523   3.154   3.014 -0.4222  1.5387 -0.0113
    1SOL    HW3 7595   3.596   3.214   2.895  0.5286 -1.7168 -1.1438
    1SOL    MW4 7596   3.596   3.185   2.977  0.0308 -0.0663 -0.5434
    1SOL     OW 7597   3.649   3.460   3.086 -0.2238  0.0077 -0.2536
    1SOL    HW2 7598   3.727   3.509   3.059 -0.4837  0.2768 -0.5315
    1SOL    HW3 7599   3.663   3.372   3.052  0.3913 -0.1951  0.5170
    1SOL    MW4 7600   3.661   3.455   3.078 -0.1769  0.0165 -0.1888
    1SOL     OW 7601   3.875   3.567   2.975 -0.0255 -0.1481 -0.1127
    1SOL    HW2 7602   3.870   3.652   3.018 -1.4560 -0.6710  0.7766
    1SOL    HW3 7603   3.846   3.583   2.885  1.4277  0.6346 -0.4604
    1SOL    MW4 7604   3.871   3.580   2.969 -0.0222 -0.1137 -0.0415
    1SOL     OW 7605   3.899   3.827   3.083 -0.5257  0.2217  0.3789
    1SOL    HW2 7606   3.879   3.818   3.177  0.5227  1.6573  0.7487
    1SOL    HW3 7607   3.825   3.876   3.048 -0.4911  0.4440  0.6178
    1SOL    MW4 7608   3.886   3.832   3.091 -0.3829  0.4404  0.4594
    1SOL     OW 7609   3.639   3.955   3.017  0.1063 -0.0811 -0.3213
    1SOL    HW2 7610   3.563   3.918   3.063 -0.0038 -0.7678 -1.0542
    1SOL    HW3 7611   3.611   3.960   2.926  0.5142  0.7950 -0.3981
    1SOL    MW4 7612   3.625   3.951   3.011  0.1457 -0.0558 -0.4282
    1SOL     OW 7613   3.577   4.219   3.076  0.0902  0.3527  0.4316
    1SOL    HW2 7614   3.649   4.279   3.053 -0.7176  0.7413 -1.1720
    1SOL    HW3 7615   3.613   4.132   3.060  0.1848  0.5515 -0.4829
    1SOL    MW4 7616   3.591   4.215   3.071 -0.0038  0.4306  0.0994
    1SOL     OW 7617   3.784   4.405   2.998 -0.2082  0.4001  0.1711
    1SOL    HW2 7618   3.860   4.355   3.030  0.5711  0.9975 -0.7415
    1SOL    HW3 7619   3.782   4.389   2.904 -1.2998  0.2872  0.2078
    1SOL    MW4 7620   3.794   4.396   2.990 -0.2496  0.4644  0.0556
    1SOL     OW 7621   4.247   4.641   3.084 -0.2430  0.5858  0.5829
    1SOL    HW2 7622   4.246   4.640   3.180  0.4673  2.5093  0.6172
    1SOL    HW3 7623   4.237   4.549   3.060  1.9142 -0.2055  2.5156
    1SOL    MW4 7624   4.245   4.629   3.094  0.1349  0.7353  0.8426
    1SOL     OW 7625   4.022   0.120   2.987 -0.4159 -0.2701  0.0431
    1SOL    HW2 7626   4.096   0.087   3.038  0.0973  0.7062 -0.0400
    1SOL    HW3 7627   3.945   0.084   3.030  0.1505 -1.9673 -0.3634
    1SOL    MW4 7628   4.022   0.111   3.000 -0.2732 -0.3652 -0.0215
    1SOL     OW 7629   4.046   0.351   3.119 -0.2467 -0.1090 -0.1571
    1SOL    HW2 7630   4.121   0.392   3.076 -1.1540  1.5780 -0.1662
    1SOL    HW3 7631   4.038   0.265   3.077  0.7493  0.2921 -1.1966
    1SOL    MW4 7632   4.055   0.345   3.108 -0.2346  0.1665 -0.2954
    1SOL     OW 7633   4.251   0.526   3.001 -0.3562  0.4787 -0.0095
    1SOL    HW2 7634   4.253   0.614   3.040  1.3782  0.7077 -0.5881
    1SOL    HW3 7635   4.252   0.542   2.907  0.4592 -0.1796 -0.1148
    1SOL    MW4 7636   4.251   0.540   2.994 -0.0200  0.4221 -0.0994
    1SOL     OW 7637   4.240   0.748   3.149 -0.0412 -0.2305 -0.5099
    1SOL    HW2 7638   4.172   0.794   3.100 -1.2888 -0.5449  0.9109
    1SOL    HW3 7639   4.322   0.782   3.113 -0.9407  0.7578 -1.6645
    1SOL    MW4 7640   4.242   0.759   3.137 -0.3242 -0.1416 -0.4747
    1SOL     OW 7641   4.038   0.879   3.006  0.2309 -0.2517  0.1457
    1SOL    HW2 7642   4.047   0.966   3.044 -1.4717 -0.5182  1.2285
    1SOL    HW3 7643   4.040   0.893   2.911 -1.9725  1.2077  0.2928
    1SOL    MW4 7644   4.039   0.892   2.999 -0.2847 -0.0943  0.3076
    1SOL     OW 7645   4.063   1.133   3.100  0.0096 -0.3656  0.5917
    1SOL    HW2 7646   4.076   1.134   3.195 -0.3744 -1.5590  0.6708
    1SOL    HW3 7647   3.984   1.184   3.085 -0.9694 -1.6994  1.1048
    1SOL    MW4 7648   4.054   1.140   3.110 -0.1702 -0.6990  0.6697
    1SOL     OW 7649   4.282   1.286   3.022  0.1299 -0.1014 -0.1576
    1SOL    HW2 7650   4.206   1.243   3.060  0.0300  0.5830  0.4442
    1SOL    HW3 7651   4.264   1.291   2.929 -1.1586  1.1953  0.1331
    1SOL    MW4 7652   4.270   1.281   3.015 -0.0534  0.1599 -0.0398
    1SOL     OW 7653   4.281   1.556   3.131  0.3665 -0.5397  0.2383
    1SOL    HW2 7654   4.205   1.604   3.099  1.5638  0.9765 -0.4039
    1SOL    HW3 7655   4.276   1.471   3.088 -0.9227 -0.4366  0.1616
    1SOL    MW4 7656   4.271   1.551   3.121  0.3543 -0.3260  0.1433
    1SOL     OW 7657   4.071   1.689   3.024 -0.1306 -0.3979 -0.1359
    1SOL    HW2 7658   4.070   1.773   3.070 -2.1140  0.6761 -2.0670
    1SOL    HW3 7659   3.989   1.647   3.050 -0.5677 -0.4139 -1.5126
    1SOL    MW4 7660   4.060   1.695   3.034 -0.4501 -0.2583 -0.5727
    1SOL     OW 7661   4.042   1.919   3.150  0.0982 -0.1923  0.1746
    1SOL    HW2 7662   4.108   1.969   3.103  0.6083 -0.3623  0.7153
    1SOL    HW3 7663   3.958   1.952   3.116  0.4643 -0.4885 -1.0383
    1SOL    MW4 7664   4.039   1.930   3.139  0.2136 -0.2539  0.0856
    1SOL     OW 7665   4.253   2.046   3.019  0.0305 -0.3366 -0.8077
    1SOL    HW2 7666   4.264   2.139   3.040  0.0373 -0.5770  0.2976
    1SOL    HW3 7667   4.244   2.043   2.924  2.0795  0.6078 -1.0533
    1SOL    MW4 7668   4.253   2.058   3.009  0.3018 -0.2437 -0.6945
    1SOL     OW 7669   4.301   2.302   3.105  0.7693 -0.5009  0.3560
    1SOL    HW2 7670   4.222   2.343   3.070  0.8916 -0.7280 -0.2016
    1SOL    HW3 7671   4.373   2.347   3.062  0.9539 -0.1623  1.0104
    1SOL    MW4 7672   4.300   2.313   3.095  0.8097 -0.4861  0.3691
    1SOL     OW 7673   4.053   2.427   3.015  0.2268  0.0283  0.2081
    1SOL    HW2 7674   4.044   2.520   3.036  0.3984  0.2506 -0.6698
    1SOL    HW3 7675   3.967   2.389   3.034 -0.1104  0.5394 -0.3015
    1SOL    MW4 7676   4.040   2.434   3.021  0.2050  0.1249  0.0253
    1SOL     OW 7677   4.017   2.681   3.099 -0.7786  0.0183  0.6069
    1SOL    HW2 7678   4.034   2.687   3.193 -1.2985  1.2003  0.6322
    1SOL    HW3 7679   3.934   2.726   3.086 -0.6644 -0.0510 -0.4429
    1SOL    MW4 7680   4.008   2.687   3.110 -0.8321  0.1650  0.4718
    1SOL     OW 7681   4.245   2.790   2.976  0.1385 -0.0195 -0.1522
    1SOL    HW2 7682   4.166   2.757   3.020  0.6421 -1.2628 -0.1732
    1SOL    HW3 7683   4.318   2.757   3.028  0.6978 -0.3763 -1.1601
    1SOL    MW4 7684   4.244   2.781   2.989  0.2785 -0.2306 -0.2880
    1SOL     OW 7685   4.278   3.039   3.115 -0.1877 -0.4061  0.0690
    1SOL    HW2 7686   4.199   3.089   3.095 -0.3502 -0.4255  0.6629
    1SOL    HW3 7687   4.270   2.959   3.063 -1.8227 -1.6173  2.1121
    1SOL    MW4 7688   4.267   3.035   3.105 -0.4244 -0.5686  0.4170
    1SOL     OW 7689   4.050   3.181   3.043 -0.3105  0.1413 -0.3214
    1SOL    HW2 7690   4.066   3.268   3.078  1.3065  0.5348 -1.9962
    1SOL    HW3 7691   4.045   3.193   2.948 -1.7293 -1.3412 -0.4512
    1SOL    MW4 7692   4.051   3.194   3.035 -0.2847 -0.0026 -0.5596
    1SOL     OW 7693   4.081   3.447   3.086  0.0770 -0.3019  0.3191
    1SOL    HW2 7694   4.062   3.464   3.178  0.6897 -1.0944  0.5903
    1SOL    HW3 7695   4.007   3.486   3.039 -0.8105 -0.8910  1.2149
    1SOL    MW4 7696   4.069   3.454   3.092  0.0405 -0.4840  0.4730
    1SOL     OW 7697   4.286   3.589   2.977  0.0162 -0.1943 -0.1755
    1SOL    HW2 7698   4.278   3.679   3.007 -0.8245 -0.9717  2.0972
    1SOL    HW3 7699   4.210   3.544   3.015  0.4145 -1.8595 -1.2562
    1SOL    MW4 7700   4.275   3.595   2.986 -0.0415 -0.5167 -0.0179
    1SOL     OW 7701   4.274   3.839   3.120 -0.2705  0.1441  0.4587
    1SOL    HW2 7702   4.212   3.896   3.075 -0.2192 -0.1661 -0.0127
    1SOL    HW3 7703   4.358   3.885   3.116  0.2440 -0.9087 -1.8198
    1SOL    MW4 7704   4.277   3.852   3.114 -0.1955 -0.0360  0.0958
    1SOL     OW 7705   4.072   4.005   2.983  0.3770  0.0830 -0.2862
    1SOL    HW2 7706   4.040   4.086   3.023 -0.5199  0.7359 -2.2332
    1SOL    HW3 7707   4.008   3.939   3.010  1.8272 -0.2743  2.3787
    1SOL    MW4 7708   4.059   4.007   2.992  0.4501  0.1221 -0.1917
    1SOL     OW 7709   4.000   4.239   3.101 -0.2709  0.5440 -0.4287
    1SOL    HW2 7710   3.992   4.232   3.196  1.1651 -0.5356 -0.3816
    1SOL    HW3 7711   4.083   4.283   3.086  0.1689 -0.5140 -1.2060
    1SOL    MW4 7712   4.010   4.244   3.111 -0.0234  0.2618 -0.5248
    1SOL     OW 7713   4.242   4.366   2.996  0.2776 -0.2005 -0.4198
    1SOL    HW2 7714   4.328   4.338   3.026  1.1665  3.7951  1.1123
    1SOL    HW3 7715   4.249   4.371   2.901  1.2418 -1.3613 -0.4163
    1SOL    MW4 7716   4.254   4.363   2.988  0.5221  0.1736 -0.2172
    1SOL     OW 7717   0.194   4.621   3.400 -0.1901  0.3793 -0.3041
    1SOL    HW2 7718   0.278   4.663   3.420 -0.0557 -1.0604  2.3958
    1SOL    HW3 7719   0.203   4.533   3.435 -2.3120 -0.2693 -1.3349
    1SOL    MW4 7720   0.206   4.615   3.408 -0.4523  0.1040 -0.0839
    1SOL     OW 7721   4.462   0.092   3.463 -0.1025  0.0777  0.2644
    1SOL    HW2 7722   4.485   0.181   3.437 -0.2560 -0.0572 -0.3556
    1SOL    HW3 7723   4.539   0.039   3.441 -0.5793 -0.1931 -0.8157
    1SOL    MW4 7724   4.475   0.096   3.457 -0.1860  0.0241  0.0401
    1SOL     OW 7725   4.479   0.349   3.336 -0.5718 -0.0463 -0.0080
    1SOL    HW2 7726   4.406   0.393   3.380  0.1170  0.1145  0.9860
    1SOL    HW3 7727   4.558   0.384   3.378 -0.0000 -2.1526  0.7527
    1SOL    MW4 7728   4.480   0.359   3.347 -0.4053 -0.3030  0.2232
    1SOL     OW 7729   0.207   0.462   3.447  0.5079 -0.3590  0.3391
    1SOL    HW2 7730   0.297   0.432   3.435  0.5626 -0.8640  1.8735
    1SOL    HW3 7731   0.211   0.555   3.426  1.1320 -0.6110 -0.7441
    1SOL    MW4 7732   0.220   0.470   3.443  0.5974 -0.4589  0.3989
    1SOL     OW 7733   0.177   0.736   3.357 -0.4087  0.5438  0.0270
    1SOL    HW2 7734   0.255   0.782   3.390 -0.1609  2.4115 -3.0400
    1SOL    HW3 7735   0.104   0.780   3.400  0.1120 -0.0123  1.5158
    1SOL    MW4 7736   0.178   0.748   3.367 -0.3073  0.7169 -0.1810
    1SOL     OW 7737   4.463   0.867   3.512 -0.4852 -0.5039 -0.4597
    1SOL    HW2 7738   4.490   0.867   3.604 -1.2581 -0.0555 -0.2291
    1SOL    HW3 7739   4.478   0.956   3.482  2.6937 -1.3828 -1.6636
    1SOL    MW4 7740   4.469   0.879   3.520 -0.1678 -0.5608 -0.5882
    1SOL     OW 7741   0.023   1.129   3.399 -0.3333 -0.4592 -0.1152
    1SOL    HW2 7742   0.097   1.185   3.422  0.7327 -1.8891 -0.0186
    1SOL    HW3 7743   0.030   1.118   3.304 -1.1004  0.3341 -0.2735
    1SOL    MW4 7744   0.034   1.135   3.389 -0.2939 -0.5432 -0.1235
    1SOL     OW 7745   0.245   1.270   3.483 -0.1626 -0.2871 -0.0702
    1SOL    HW2 7746   0.258   1.252   3.576 -0.3435 -0.8671 -0.1525
    1SOL    HW3 7747   0.256   1.364   3.474  0.7555 -0.3539  0.3902
    1SOL    MW4 7748   0.248   1.280   3.494 -0.0654 -0.3724 -0.0203
    1SOL     OW 7749   0.221   1.540   3.434 -0.6028  0.0658 -0.0511
    1SOL    HW2 7750   0.289   1.607   3.444 -1.2570  0.6970  0.2157
    1SOL    HW3 7751   0.205   1.535   3.340  0.5103 -0.7892 -0.2037
    1SOL    MW4 7752   0.228   1.549   3.423 -0.5423  0.0362 -0.0360
    1SOL     OW 7753   4.461   1.684   3.518  0.3720  0.0581  0.5981
    1SOL    HW2 7754   4.386   1.631   3.493 -0.1644  0.4761  1.2808
    1SOL    HW3 7755   4.537   1.631   3.495 -0.1548 -1.2444  1.7684
    1SOL    MW4 7756   4.461   1.670   3.512  0.2322 -0.0589  0.8426
    1SOL     OW 7757   0.015   1.947   3.419  0.1104  0.2415 -0.3165
    1SOL    HW2 7758  -0.005   1.860   3.455  0.1165  0.6429  0.6696
    1SOL    HW3 7759  -0.000   1.938   3.325  0.2449 -0.8693 -0.2382
    1SOL    MW4 7760   0.010   1.934   3.412  0.1289  0.1478 -0.1760
    1SOL     OW 7761   0.240   2.089   3.509 -0.1111 -0.3794 -0.2924
    1SOL    HW2 7762   0.174   2.035   3.465 -0.8596  0.9980 -0.8586
    1SOL    HW3 7763   0.219   2.079   3.603 -0.9644 -0.1458 -0.4540
    1SOL    MW4 7764   0.228   2.080   3.516 -0.3224 -0.1669 -0.3884
    1SOL     OW 7765   0.203   2.319   3.380 -0.4160  0.3448 -0.0145
    1SOL    HW2 7766   0.129   2.363   3.421  0.5721  1.5859  0.4390
    1SOL    HW3 7767   0.208   2.234   3.425 -1.1617  0.5045  0.3776
    1SOL    MW4 7768   0.194   2.313   3.391 -0.3840  0.5295  0.0970
    1SOL     OW 7769   0.012   2.443   3.530  0.4272  0.2877  0.2612
    1SOL    HW2 7770  -0.004   2.436   3.624 -0.1419 -1.2172  0.0678
    1SOL    HW3 7771  -0.071   2.416   3.490  1.2194 -0.7403 -0.6868
    1SOL    MW4 7772  -0.001   2.439   3.537  0.4567 -0.0465  0.1104
    1SOL     OW 7773   0.020   2.703   3.415 -0.2870  0.6822 -0.3578
    1SOL    HW2 7774   0.100   2.752   3.436  0.1730  0.0379 -0.5986
    1SOL    HW3 7775   0.024   2.626   3.472 -0.3714  0.2799 -0.8944
    1SOL    MW4 7776   0.031   2.699   3.425 -0.2375  0.5443 -0.4606
    1SOL     OW 7777   0.253   2.847   3.491 -0.5047  0.2221  0.1559
    1SOL    HW2 7778   0.334   2.818   3.449 -1.0133 -0.1383 -0.5881
    1SOL    HW3 7779   0.233   2.931   3.450 -1.2443 -0.3421 -0.6709
    1SOL    MW4 7780   0.261   2.854   3.480 -0.6694  0.0999 -0.0513
    1SOL     OW 7781   0.253   3.126   3.390 -0.2827 -0.2570  0.6733
    1SOL    HW2 7782   0.172   3.157   3.431  0.2339  3.0373 -0.6298
    1SOL    HW3 7783   0.233   3.126   3.296  0.8614 -0.4768  0.4272
    1SOL    MW4 7784   0.240   3.130   3.383 -0.0636  0.1485  0.4690
    1SOL     OW 7785   0.013   3.193   3.501 -0.9227  0.2203 -0.5640
    1SOL    HW2 7786  -0.059   3.151   3.455 -0.0961  0.9018 -2.5139
    1SOL    HW3 7787   0.005   3.286   3.480 -0.2602  0.4776  0.2854
    1SOL    MW4 7788   0.003   3.199   3.492 -0.7262  0.3443 -0.7091
    1SOL     OW 7789   4.472   3.452   3.409 -0.0784 -0.0117  0.2231
    1SOL    HW2 7790   4.405   3.508   3.449  0.2672  0.2315  0.4667
    1SOL    HW3 7791   4.468   3.473   3.315 -2.2459 -2.0242 -0.1728
    1SOL    MW4 7792   4.463   3.462   3.402 -0.3185 -0.2456  0.2031
    1SOL     OW 7793   0.228   3.612   3.487  0.1965  0.1329 -0.7672
    1SOL    HW2 7794   0.219   3.624   3.582  0.9452  0.2518 -0.7078
    1SOL    HW3 7795   0.146   3.570   3.461 -0.0918  0.2629 -0.0963
    1SOL    MW4 7796   0.216   3.608   3.496  0.2573  0.1657 -0.6709
    1SOL     OW 7797   0.250   3.858   3.380  0.0667  0.0144  0.0838
    1SOL    HW2 7798   0.169   3.897   3.411  0.0392 -0.0325  0.0712
    1SOL    HW3 7799   0.246   3.767   3.409  0.1952  0.0558  0.2343
    1SOL    MW4 7800   0.239   3.851   3.388  0.0800  0.0136  0.1018
    1SOL     OW 7801   0.028   3.968   3.455 -0.0141 -0.0004 -0.0544
    1SOL    HW2 7802   0.019   3.979   3.550 -1.0359 -1.4729  0.0328
    1SOL    HW3 7803   0.018   4.056   3.420 -0.5425  0.4265  1.1323
    1SOL    MW4 7804   0.026   3.981   3.463 -0.2187 -0.1380  0.1137
    1SOL     OW 7805   4.489   4.227   3.369 -0.3483  0.3030  0.1166
    1SOL    HW2 7806   4.409   4.254   3.414 -0.9371  0.3503 -0.9476
    1SOL    HW3 7807   4.559   4.273   3.415 -1.0177  0.9439  0.5038
    1SOL    MW4 7808   4.488   4.236   3.381 -0.5140  0.3939  0.0274
    1SOL     OW 7809   0.213   4.351   3.475 -0.1313 -0.4134 -0.3227
    1SOL    HW2 7810   0.227   4.353   3.570  1.6422 -0.0663 -0.5612
    1SOL    HW3 7811   0.296   4.317   3.440 -0.3332  0.6206 -1.8216
    1SOL    MW4 7812   0.226   4.347   3.483  0.0761 -0.2313 -0.5519
    1SOL     OW 7813   0.681   0.032   3.367 -0.0732 -0.3481  0.3367
    1SOL    HW2 7814   0.771   0.041   3.398 -0.3453 -1.0510  1.3824
    1SOL    HW3 7815   0.688   0.021   3.273  0.9623 -0.7486  0.4566
    1SOL    MW4 7816   0.694   0.032   3.359  0.0276 -0.4937  0.4904
    1SOL     OW 7817   0.446   0.117   3.474 -0.0820  0.3375  0.0490
    1SOL    HW2 7818   0.458   0.104   3.568 -0.7407 -0.1949  0.0694
    1SOL    HW3 7819   0.527   0.085   3.435 -0.3830 -0.8293  0.3422
    1SOL    MW4 7820   0.458   0.111   3.481 -0.2087  0.1133  0.0906
    1SOL     OW 7821   0.456   0.377   3.383 -0.0559 -0.1217 -0.4016
    1SOL    HW2 7822   0.543   0.413   3.400 -0.2449  1.0375 -1.8018
    1SOL    HW3 7823   0.457   0.291   3.425  1.8412 -0.2036 -0.5846
    1SOL    MW4 7824   0.467   0.370   3.391  0.1694  0.0204 -0.6104
    1SOL     OW 7825   0.685   0.496   3.484  0.0341  0.2170 -0.0475
    1SOL    HW2 7826   0.701   0.502   3.578 -1.0542  0.7151  0.1197
    1SOL    HW3 7827   0.758   0.444   3.450 -0.3231 -1.1709  1.2772
    1SOL    MW4 7828   0.697   0.490   3.492 -0.1566  0.0996  0.1495
    1SOL     OW 7829   0.679   0.757   3.375  0.4501  0.4498 -0.2419
    1SOL    HW2 7830   0.592   0.795   3.379  0.8644  1.3730  0.2688
    1SOL    HW3 7831   0.669   0.670   3.411 -0.4788  0.1217 -1.2503
    1SOL    MW4 7832   0.666   0.751   3.380  0.3823  0.5283 -0.3076
    1SOL     OW 7833   0.416   0.845   3.451  0.4757  0.0861  0.1591
    1SOL    HW2 7834   0.443   0.842   3.542 -2.5705  1.8118  1.1941
    1SOL    HW3 7835   0.423   0.938   3.427  1.1806 -0.3382 -1.3689
    1SOL    MW4 7836   0.421   0.857   3.460  0.1668  0.2578  0.0939
    1SOL     OW 7837   0.458   1.114   3.390  0.0005 -0.1906 -0.2677
    1SOL    HW2 7838   0.387   1.175   3.412  0.6775  0.5670 -0.1534
    1SOL    HW3 7839   0.463   1.118   3.294  1.0456  1.0954 -0.1725
    1SOL    MW4 7840   0.449   1.123   3.380  0.2277  0.0790 -0.2403
    1SOL     OW 7841   0.646   1.242   3.549  0.2811 -0.0196  0.2128
    1SOL    HW2 7842   0.576   1.202   3.498 -0.7163 -0.0124  1.5431
    1SOL    HW3 7843   0.636   1.336   3.533 -0.5667  0.0458  1.0670
    1SOL    MW4 7844   0.635   1.249   3.540  0.0376 -0.0100  0.5009
    1SOL     OW 7845   0.654   1.501   3.451  0.0760  0.0148 -0.2920
    1SOL    HW2 7846   0.731   1.553   3.473  0.3957  0.0978 -1.5269
    1SOL    HW3 7847   0.580   1.562   3.456  0.1611  0.0542  0.4196
    1SOL    MW4 7848   0.654   1.516   3.454  0.1294  0.0311 -0.3612
    1SOL     OW 7849   0.447   1.689   3.488  0.1011  0.2332 -0.2791
    1SOL    HW2 7850   0.424   1.704   3.580 -0.0422  0.2844 -0.3222
    1SOL    HW3 7851   0.449   1.777   3.450  0.1379  0.2101 -0.3290
    1SOL    MW4 7852   0.444   1.703   3.495  0.0870  0.2369 -0.2916
    1SOL     OW 7853   0.462   1.953   3.401 -0.2082  0.1123 -0.1415
    1SOL    HW2 7854   0.400   2.009   3.449  0.7829  1.2456 -0.1659
    1SOL    HW3 7855   0.431   1.957   3.311  0.1177  0.9928 -0.2213
    1SOL    MW4 7856   0.450   1.961   3.396 -0.0344  0.3779 -0.1554
    1SOL     OW 7857   0.694   2.070   3.523 -0.0710 -0.6373 -0.3038
    1SOL    HW2 7858   0.683   2.073   3.618 -0.5606 -0.9920 -0.3456
    1SOL    HW3 7859   0.616   2.024   3.491 -0.9254  1.3175 -1.0641
    1SOL    MW4 7860   0.682   2.064   3.531 -0.2483 -0.4263 -0.4094
    1SOL     OW 7861   0.643   2.341   3.461  0.2064  0.2555 -0.4264
    1SOL    HW2 7862   0.730   2.380   3.467  0.5552 -0.6997  1.2308
    1SOL    HW3 7863   0.658   2.248   3.481 -1.2458  0.1574  0.2266
    1SOL    MW4 7864   0.657   2.334   3.464  0.0608  0.1166 -0.1216
    1SOL     OW 7865   0.410   2.470   3.499 -0.2986 -0.1110  0.0496
    1SOL    HW2 7866   0.493   2.430   3.473 -0.5566  0.3183 -1.4293
    1SOL    HW3 7867   0.343   2.407   3.471 -0.5172 -0.1238  0.5953
    1SOL    MW4 7868   0.412   2.456   3.492 -0.3615 -0.0560 -0.0737
    1SOL     OW 7869   0.472   2.711   3.371  0.1208  0.5263  0.0328
    1SOL    HW2 7870   0.441   2.634   3.418 -1.7927  1.6314  0.6106
    1SOL    HW3 7871   0.471   2.685   3.279  0.4552 -0.4606  0.3037
    1SOL    MW4 7872   0.468   2.698   3.365 -0.0876  0.5419  0.1447
    1SOL     OW 7873   0.684   2.857   3.515  0.6554  0.1117 -0.1306
    1SOL    HW2 7874   0.762   2.808   3.489  1.2960  0.4059  1.1872
    1SOL    HW3 7875   0.611   2.806   3.480  1.3951 -0.7457 -0.4578
    1SOL    MW4 7876   0.684   2.844   3.507  0.8375  0.0374  0.0002
    1SOL     OW 7877   0.687   3.109   3.390 -0.0080 -0.1587 -0.0976
    1SOL    HW2 7878   0.616   3.161   3.428  0.2071 -0.5150  0.8033
    1SOL    HW3 7879   0.674   3.021   3.424  0.6095 -0.3260 -0.2913
    1SOL    MW4 7880   0.676   3.104   3.399  0.1018 -0.2277 -0.0045
    1SOL     OW 7881   0.491   3.259   3.484 -0.5462 -0.2051  0.2859
    1SOL    HW2 7882   0.484   3.258   3.580 -0.1719 -0.1539  0.3139
    1SOL    HW3 7883   0.408   3.222   3.454 -0.4475 -0.7181  0.6400
    1SOL    MW4 7884   0.479   3.254   3.493 -0.4838 -0.2661  0.3364
    1SOL     OW 7885   0.455   3.502   3.367  0.5707 -0.0686  0.0546
    1SOL    HW2 7886   0.455   3.414   3.405  0.6340  0.2297  0.7511
    1SOL    HW3 7887   0.374   3.542   3.401  0.6343  0.1998 -0.1106
    1SOL    MW4 7888   0.444   3.496   3.377  0.5874  0.0062  0.1249
    1SOL     OW 7889   0.657   3.635   3.508 -0.4554 -0.0077  0.6929
    1SOL    HW2 7890   0.739   3.596   3.478 -0.5924 -0.7051  1.1990
    1SOL    HW3 7891   0.589   3.580   3.471 -0.7478  1.2758 -0.7133
    1SOL    MW4 7892   0.659   3.623   3.499 -0.5121  0.0694  0.5741
    1SOL     OW 7893   0.666   3.877   3.400 -0.8342 -0.0081 -0.4274
    1SOL    HW2 7894   0.607   3.937   3.446 -0.0344 -0.2952  0.9929
    1SOL    HW3 7895   0.650   3.792   3.439 -0.0992 -0.2491 -0.6297
    1SOL    MW4 7896   0.656   3.874   3.411 -0.6317 -0.0780 -0.2666
    1SOL     OW 7897   0.465   4.022   3.531 -0.3753 -0.0541 -0.3771
    1SOL    HW2 7898   0.462   4.106   3.486  1.2460  0.2660  0.0592
    1SOL    HW3 7899   0.402   3.967   3.485 -0.2186  0.8861 -1.7449
    1SOL    MW4 7900   0.456   4.026   3.519 -0.1407  0.1121 -0.4997
    1SOL     OW 7901   0.459   4.256   3.409 -0.0576 -0.0421  0.2404
    1SOL    HW2 7902   0.528   4.322   3.419 -0.5045  0.4479  0.1723
    1SOL    HW3 7903   0.465   4.229   3.317  0.4029 -0.4067  0.3790
    1SOL    MW4 7904   0.469   4.261   3.398 -0.0558 -0.0257  0.2496
    1SOL     OW 7905   0.707   4.420   3.464 -0.1198 -0.5597  0.2002
    1SOL    HW2 7906   0.776   4.384   3.409 -0.1559 -0.0176 -0.2038
    1SOL    HW3 7907   0.695   4.509   3.432 -0.5218 -0.4211  0.7277
    1SOL    MW4 7908   0.715   4.427   3.453 -0.1776 -0.4702  0.2167
    1SOL     OW 7909   1.159   4.655   3.379  0.2744  0.2071 -0.2198
    1SOL    HW2 7910   1.231   4.713   3.401  1.1750 -0.4138 -1.4224
    1SOL    HW3 7911   1.153   4.660   3.283  0.7692 -2.1290 -0.3924
    1SOL    MW4 7912   1.167   4.663   3.369  0.4585 -0.1831 -0.4010
    1SOL     OW 7913   0.931   0.100   3.488  0.5587  0.0443  0.3061
    1SOL    HW2 7914   0.921   0.103   3.583  1.2152  0.1958  0.3744
    1SOL    HW3 7915   1.016   0.058   3.474  0.2380 -0.4410 -0.2290
    1SOL    MW4 7916   0.941   0.095   3.498  0.6031  0.0002  0.2444
    1SOL     OW 7917   0.892   0.353   3.360  0.4876 -0.2920 -0.0316
    1SOL    HW2 7918   0.952   0.413   3.404 -1.3881  2.6348 -1.2914
    1SOL    HW3 7919   0.892   0.274   3.414  1.6933  1.4886  2.6532
    1SOL    MW4 7920   0.900   0.351   3.373  0.3992  0.3291  0.1564
    1SOL     OW 7921   1.103   0.489   3.474 -0.3152 -0.2108 -0.3654
    1SOL    HW2 7922   1.147   0.492   3.559 -1.1896  0.5669  0.0638
    1SOL    HW3 7923   1.102   0.580   3.444  0.2060 -0.5083 -1.3264
    1SOL    MW4 7924   1.109   0.502   3.481 -0.3618 -0.1474 -0.4356
    1SOL     OW 7925   1.112   0.754   3.405  0.1112 -0.2817  0.2796
    1SOL    HW2 7926   1.178   0.795   3.461  1.4318 -0.5565 -1.0399
    1SOL    HW3 7927   1.028   0.787   3.437  0.9586  0.8933  1.3074
    1SOL    MW4 7928   1.110   0.763   3.416  0.3971 -0.1629  0.2413
    1SOL     OW 7929   0.884   0.867   3.508  0.1604 -0.0246  0.7251
    1SOL    HW2 7930   0.887   0.958   3.478 -1.8501  0.1352  0.9236
    1SOL    HW3 7931   0.805   0.831   3.468  1.5123 -2.0256 -0.2197
    1SOL    MW4 7932   0.874   0.874   3.499  0.0735 -0.2675  0.6266
    1SOL     OW 7933   0.893   1.125   3.406 -0.4986  0.1583 -0.0895
    1SOL    HW2 7934   0.955   1.186   3.446 -0.0663  0.7712 -1.6286
    1SOL    HW3 7935   0.808   1.148   3.443 -0.1392  0.8383  0.3254
    1SOL    MW4 7936   0.890   1.136   3.416 -0.3940  0.3288 -0.2377
    1SOL     OW 7937   1.095   1.290   3.499 -0.0016 -0.1857 -0.4932
    1SOL    HW2 7938   1.080   1.281   3.593  1.1573  1.1786 -0.1612
    1SOL    HW3 7939   1.089   1.384   3.482 -1.8976 -0.5578 -2.1029
    1SOL    MW4 7940   1.093   1.301   3.509 -0.0988 -0.0547 -0.6621
    1SOL     OW 7941   1.090   1.555   3.410  0.1220 -0.0617  0.0597
    1SOL    HW2 7942   1.174   1.572   3.452 -0.6765  1.5226  1.0786
    1SOL    HW3 7943   1.107   1.569   3.316  0.7840  1.2037  0.3497
    1SOL    MW4 7944   1.103   1.559   3.403  0.1040  0.3141  0.2325
    1SOL     OW 7945   0.880   1.650   3.524  0.1359 -0.1838 -0.0735
    1SOL    HW2 7946   0.877   1.744   3.506 -0.2601 -0.2368 -0.3008
    1SOL    HW3 7947   0.954   1.618   3.473  0.4231  0.0437  0.1962
    1SOL    MW4 7948   0.889   1.658   3.515  0.1215 -0.1608 -0.0679
    1SOL     OW 7949   0.877   1.895   3.391 -0.0025 -0.3839 -0.1392
    1SOL    HW2 7950   0.962   1.929   3.420  0.5399 -2.6991  1.1024
    1SOL    HW3 7951   0.813   1.953   3.433  0.9284  0.5120  0.0714
    1SOL    MW4 7952   0.880   1.907   3.400  0.1919 -0.5713  0.0525
    1SOL     OW 7953   1.097   2.029   3.510  0.1976  0.4121  0.7726
    1SOL    HW2 7954   1.179   1.991   3.479  0.0228  0.8373 -0.2294
    1SOL    HW3 7955   1.103   2.121   3.486 -1.1795  0.1649 -0.5938
    1SOL    MW4 7956   1.108   2.036   3.503 -0.0073  0.4356  0.4601
    1SOL     OW 7957   1.112   2.271   3.374  0.0766 -0.3345 -0.2467
    1SOL    HW2 7958   1.181   2.325   3.413  1.1993 -1.6897 -0.3484
    1SOL    HW3 7959   1.145   2.249   3.287 -1.2909  0.5285 -1.0052
    1SOL    MW4 7960   1.125   2.275   3.368  0.0442 -0.3994 -0.3603
    1SOL     OW 7961   0.921   2.465   3.486  0.0360  0.2374  0.2177
    1SOL    HW2 7962   0.926   2.449   3.580  0.4799  0.4431  0.2281
    1SOL    HW3 7963   0.956   2.386   3.446  0.4265  0.3982  0.2375
    1SOL    MW4 7964   0.926   2.453   3.493  0.1461  0.2859  0.2215
    1SOL     OW 7965   0.905   2.714   3.398 -0.2003 -0.3030  0.2153
    1SOL    HW2 7966   0.981   2.760   3.433 -0.2061 -0.0282 -0.1253
    1SOL    HW3 7967   0.918   2.622   3.423  0.6644 -0.3962 -0.5546
    1SOL    MW4 7968   0.916   2.708   3.406 -0.0870 -0.2792  0.0689
    1SOL     OW 7969   1.141   2.850   3.466  0.3036  0.3487  0.6408
    1SOL    HW2 7970   1.134   2.844   3.561  0.5375  2.2074  0.8084
    1SOL    HW3 7971   1.205   2.783   3.442 -0.7401 -1.0236  1.6296
    1SOL    MW4 7972   1.149   2.841   3.475  0.1967  0.4129  0.7935
    1SOL     OW 7973   1.148   3.123   3.391  0.3273 -0.0747 -0.3421
    1SOL    HW2 7974   1.140   3.034   3.425  1.4219 -0.8356 -2.0141
    1SOL    HW3 7975   1.161   3.112   3.297 -0.5933  1.8978 -0.7339
    1SOL    MW4 7976   1.148   3.110   3.383  0.3502  0.0854 -0.6144
    1SOL     OW 7977   0.914   3.233   3.506 -0.5232 -0.2856 -0.0496
    1SOL    HW2 7978   0.989   3.194   3.462 -1.0224 -1.0238 -0.2625
    1SOL    HW3 7979   0.839   3.183   3.474 -1.1529  0.6939 -0.1393
    1SOL    MW4 7980   0.914   3.221   3.496 -0.6721 -0.2539 -0.0894
    1SOL     OW 7981   0.902   3.492   3.399 -0.3851  0.0524  0.1077
    1SOL    HW2 7982   0.909   3.405   3.436  0.4714  0.2700  0.4663
    1SOL    HW3 7983   0.884   3.477   3.306  0.3900 -0.5134  0.0416
    1SOL    MW4 7984   0.900   3.479   3.391 -0.1699  0.0064  0.1464
    1SOL     OW 7985   1.151   3.576   3.494  0.3794  0.1602  0.2652
    1SOL    HW2 7986   1.136   3.563   3.588  0.1115 -0.9484  0.0792
    1SOL    HW3 7987   1.070   3.544   3.453  0.8695 -0.2342 -0.3976
    1SOL    MW4 7988   1.138   3.570   3.501  0.4086 -0.0381  0.1531
    1SOL     OW 7989   1.134   3.831   3.393 -0.4129  0.1783  0.3264
    1SOL    HW2 7990   1.213   3.876   3.421  0.2567 -0.9449  0.2748
    1SOL    HW3 7991   1.147   3.740   3.421 -1.5091 -0.0980 -0.0281
    1SOL    MW4 7992   1.146   3.825   3.401 -0.4692 -0.0064  0.2728
    1SOL     OW 7993   0.916   4.003   3.448  0.6252 -0.2169 -0.0036
    1SOL    HW2 7994   0.984   3.944   3.415  0.5943 -0.3304  0.1336
    1SOL    HW3 7995   0.834   3.958   3.428  0.5712  0.1561 -0.6187
    1SOL    MW4 7996   0.914   3.989   3.441  0.6139 -0.1826 -0.0663
    1SOL     OW 7997   0.940   4.287   3.350  0.1218  0.1995 -0.1998
    1SOL    HW2 7998   0.944   4.198   3.386 -0.2529  0.0027 -0.6379
    1SOL    HW3 7999   0.912   4.274   3.259 -0.3897  0.8009 -0.1237
    1SOL    MW4 8000   0.937   4.273   3.343  0.0048  0.2537 -0.2475
    1SOL     OW 8001   1.169   4.388   3.472 -0.1887  0.5381 -0.0514
    1SOL    HW2 8002   1.091   4.368   3.419 -1.4844  2.0121  1.2589
    1SOL    HW3 8003   1.192   4.477   3.447  0.2382  0.6087  0.6033
    1SOL    MW4 8004   1.162   4.397   3.462 -0.3034  0.7424  0.2081
    1SOL     OW 8005   1.580   4.661   3.328 -0.0386  0.2395 -0.5039
    1SOL    HW2 8006   1.562   4.571   3.356  1.1537  0.1927  0.1700
    1SOL    HW3 8007   1.505   4.711   3.361 -0.9697 -0.5766 -1.3383
    1SOL    MW4 8008   1.567   4.655   3.336 -0.0042  0.1259 -0.5250
    1SOL     OW 8009   1.382   0.149   3.457  0.2461 -1.0315 -0.3740
    1SOL    HW2 8010   1.395   0.170   3.550  0.8891 -0.7754 -0.5169
    1SOL    HW3 8011   1.355   0.232   3.418  1.0601 -0.8761 -0.6167
    1SOL    MW4 8012   1.381   0.163   3.464  0.4383 -0.9772 -0.4251
    1SOL     OW 8013   1.336   0.395   3.360 -0.3943 -0.5440 -0.3043
    1SOL    HW2 8014   1.416   0.424   3.403 -0.3111  0.9144 -1.3806
    1SOL    HW3 8015   1.266   0.444   3.403 -0.4162  0.1439 -1.0940
    1SOL    MW4 8016   1.337   0.405   3.371 -0.3861 -0.2608 -0.5507
    1SOL     OW 8017   1.560   0.525   3.486  0.0838 -0.3664  0.5263
    1SOL    HW2 8018   1.586   0.528   3.577 -0.4942 -0.9834  0.7161
    1SOL    HW3 8019   1.623   0.467   3.444  1.0601  0.8480  0.2868
    1SOL    MW4 8020   1.571   0.518   3.492  0.1364 -0.2875  0.5198
    1SOL     OW 8021   1.507   0.764   3.372  0.0623  0.0185 -0.4418
    1SOL    HW2 8022   1.444   0.825   3.411 -0.3301  0.2237 -1.3852
    1SOL    HW3 8023   1.506   0.689   3.431  0.3215  0.7902  0.5593
    1SOL    MW4 8024   1.498   0.762   3.385  0.0447  0.1474 -0.4342
    1SOL     OW 8025   1.321   0.939   3.489  0.2726 -0.7189  0.0059
    1SOL    HW2 8026   1.322   0.966   3.581  1.3748 -2.0544  0.3917
    1SOL    HW3 8027   1.323   1.022   3.440  2.0875 -0.0443  1.1848
    1SOL    MW4 8028   1.322   0.954   3.494  0.6574 -0.8061  0.2120
    1SOL     OW 8029   1.305   1.169   3.358 -0.3929 -0.0376  0.0588
    1SOL    HW2 8030   1.379   1.210   3.404 -0.4409  0.2135 -0.0851
    1SOL    HW3 8031   1.228   1.205   3.401 -0.4511  1.0313 -0.9321
    1SOL    MW4 8032   1.305   1.179   3.370 -0.4070  0.1366 -0.0911
    1SOL     OW 8033   1.551   1.268   3.466 -0.1250  0.0239 -0.2336
    1SOL    HW2 8034   1.573   1.261   3.559 -0.3513  0.4940 -0.1412
    1SOL    HW3 8035   1.602   1.199   3.424  2.2765  1.6674 -0.1387
    1SOL    MW4 8036   1.561   1.258   3.473  0.1621  0.3028 -0.2089
    1SOL     OW 8037   1.545   1.539   3.398  0.1254  0.0389  0.1895
    1SOL    HW2 8038   1.552   1.445   3.416 -2.0748 -0.1125  0.4525
    1SOL    HW3 8039   1.552   1.546   3.303 -0.4216 -0.4870  0.1047
    1SOL    MW4 8040   1.546   1.527   3.388 -0.2370 -0.0504  0.2129
    1SOL     OW 8041   1.312   1.657   3.521  0.3359 -0.4792  0.0359
    1SOL    HW2 8042   1.313   1.650   3.617  0.2071 -2.3561 -0.0818
    1SOL    HW3 8043   1.388   1.607   3.492 -0.5985 -1.4029 -0.9011
    1SOL    MW4 8044   1.322   1.649   3.530  0.1956 -0.8488 -0.1035
    1SOL     OW 8045   1.311   1.914   3.392 -0.0116 -0.1379  0.5561
    1SOL    HW2 8046   1.396   1.951   3.415 -0.8576  1.2352  1.6155
    1SOL    HW3 8047   1.310   1.828   3.434  0.0089  0.7389  2.4241
    1SOL    MW4 8048   1.322   1.908   3.401 -0.1206  0.1589  0.9425
    1SOL     OW 8049   1.542   2.000   3.513  0.1336  0.2044  0.0617
    1SOL    HW2 8050   1.630   1.971   3.489  0.4249  0.6326  0.5979
    1SOL    HW3 8051   1.543   2.094   3.499 -0.1719  0.2392  0.2748
    1SOL    MW4 8052   1.554   2.008   3.508  0.1317  0.2654  0.1607
    1SOL     OW 8053   1.550   2.253   3.421 -0.1607 -0.0614  0.1412
    1SOL    HW2 8054   1.468   2.297   3.444 -0.6823 -0.6244 -0.5913
    1SOL    HW3 8055   1.548   2.247   3.326  0.8817  0.1815  0.0995
    1SOL    MW4 8056   1.539   2.258   3.412 -0.0920 -0.1035  0.0391
    1SOL     OW 8057   1.317   2.426   3.475 -0.0298  0.4788 -0.0232
    1SOL    HW2 8058   1.342   2.437   3.567  2.9603  1.4556 -0.8777
    1SOL    HW3 8059   1.322   2.514   3.438 -1.0520  0.0677 -1.1453
    1SOL    MW4 8060   1.321   2.439   3.482  0.2297  0.5531 -0.2840
    1SOL     OW 8061   1.340   2.679   3.380  0.2848 -0.5513  0.1606
    1SOL    HW2 8062   1.417   2.725   3.413  0.5357 -0.6953 -0.2164
    1SOL    HW3 8063   1.358   2.667   3.287 -0.5030  0.0247 -0.0707
    1SOL    MW4 8064   1.352   2.683   3.372  0.2139 -0.4942  0.0806
    1SOL     OW 8065   1.584   2.793   3.466 -0.3583 -0.0008 -0.1333
    1SOL    HW2 8066   1.653   2.738   3.431 -1.0779 -0.6161 -0.6127
    1SOL    HW3 8067   1.610   2.882   3.444  0.0489 -0.2638 -0.7194
    1SOL    MW4 8068   1.596   2.797   3.458 -0.3995 -0.1166 -0.2739
    1SOL     OW 8069   1.609   3.062   3.389 -0.3483 -0.2516 -0.0655
    1SOL    HW2 8070   1.685   3.116   3.410  0.7495 -1.5977 -0.5004
    1SOL    HW3 8071   1.537   3.104   3.436  0.9696  0.0683  1.7740
    1SOL    MW4 8072   1.610   3.075   3.398 -0.0296 -0.3872  0.1199
    1SOL     OW 8073   1.394   3.196   3.501  0.6103  0.2789 -0.0979
    1SOL    HW2 8074   1.380   3.197   3.596 -1.1733 -0.2738 -0.3279
    1SOL    HW3 8075   1.308   3.171   3.465  1.3213  0.3044 -1.8402
    1SOL    MW4 8076   1.381   3.193   3.509  0.4687  0.2091 -0.3581
    1SOL     OW 8077   1.391   3.473   3.389  0.4484  0.2468 -0.0976
    1SOL    HW2 8078   1.412   3.382   3.413 -0.4659 -0.0217 -0.2879
    1SOL    HW3 8079   1.301   3.486   3.421  0.1527  0.7083 -1.1007
    1SOL    MW4 8080   1.382   3.463   3.396  0.2890  0.2723 -0.2549
    1SOL     OW 8081   1.589   3.622   3.484 -0.2047  0.3710  0.4056
    1SOL    HW2 8082   1.596   3.609   3.578 -0.1621 -1.5615  0.1451
    1SOL    HW3 8083   1.518   3.563   3.457  0.9416 -0.3885 -1.0192
    1SOL    MW4 8084   1.580   3.613   3.493 -0.0478  0.0157  0.1829
    1SOL     OW 8085   1.594   3.883   3.397  0.3572 -0.3940 -0.0771
    1SOL    HW2 8086   1.592   3.794   3.434  1.2658 -0.5791 -0.4561
    1SOL    HW3 8087   1.573   3.870   3.304 -0.3866 -0.1075  0.0481
    1SOL    MW4 8088   1.591   3.869   3.390  0.3788 -0.3805 -0.1106
    1SOL     OW 8089   1.339   3.990   3.456 -0.3581 -0.2340  0.5491
    1SOL    HW2 8090   1.346   4.079   3.421 -1.2189 -0.4449 -0.1861
    1SOL    HW3 8091   1.426   3.952   3.443  0.2795  0.7944  1.7127
    1SOL    MW4 8092   1.352   3.997   3.450 -0.3877 -0.1264  0.6056
    1SOL     OW 8093   1.396   4.269   3.373  0.5873 -0.3144  0.4000
    1SOL    HW2 8094   1.314   4.304   3.406  0.9285  0.6856  0.1988
    1SOL    HW3 8095   1.390   4.280   3.278  1.2057  0.3282  0.4300
    1SOL    MW4 8096   1.385   4.275   3.365  0.7139 -0.0978  0.3777
    1SOL     OW 8097   1.583   4.436   3.495  0.2603  0.4128 -0.1108
    1SOL    HW2 8098   1.669   4.406   3.465  1.3321  1.2933  1.9660
    1SOL    HW3 8099   1.522   4.370   3.463  1.6952 -0.1973 -1.6641
    1SOL    MW4 8100   1.586   4.424   3.487  0.5909  0.4482 -0.0415
    1SOL     OW 8101   2.074   4.664   3.357 -0.5701  0.1012  0.0626
    1SOL    HW2 8102   2.141   4.710   3.407 -1.1110  1.8866 -0.7994
    1SOL    HW3 8103   1.991   4.690   3.398 -0.9052  0.1566 -0.6439
    1SOL    MW4 8104   2.072   4.673   3.369 -0.6859  0.3443 -0.1442
    1SOL     OW 8105   1.822   0.082   3.440 -0.0545  0.0970  0.5859
    1SOL    HW2 8106   1.806   0.058   3.531 -1.4508  0.9365  0.5851
    1SOL    HW3 8107   1.753   0.035   3.391 -0.7059  1.4044  0.2243
    1SOL    MW4 8108   1.811   0.073   3.445 -0.3248  0.3802  0.5383
    1SOL     OW 8109   1.745   0.344   3.381  0.1051 -0.1481  0.1249
    1SOL    HW2 8110   1.763   0.255   3.413  1.5604  0.6248  1.5124
    1SOL    HW3 8111   1.766   0.339   3.287  0.3644 -1.2293  0.2284
    1SOL    MW4 8112   1.750   0.331   3.373  0.3313 -0.1887  0.3216
    1SOL     OW 8113   1.995   0.474   3.471  0.0592 -0.3940 -0.0946
    1SOL    HW2 8114   1.980   0.555   3.424 -0.5081 -0.1003  0.5816
    1SOL    HW3 8115   1.912   0.426   3.463 -0.6073  0.3667  1.9659
    1SOL    MW4 8116   1.982   0.478   3.464 -0.1036 -0.2549  0.2666
    1SOL     OW 8117   1.972   0.729   3.343  0.2676  0.1131 -0.1403
    1SOL    HW2 8118   2.057   0.757   3.378 -0.1604  0.1881  0.8440
    1SOL    HW3 8119   1.988   0.718   3.249  1.2903  0.4237 -0.0140
    1SOL    MW4 8120   1.986   0.731   3.335  0.3461  0.1640  0.0062
    1SOL     OW 8121   1.752   0.846   3.472  0.0172 -0.2809  0.4659
    1SOL    HW2 8122   1.816   0.794   3.422 -0.4059  0.8412 -1.3048
    1SOL    HW3 8123   1.667   0.819   3.436 -0.2663  0.8297  0.2991
    1SOL    MW4 8124   1.749   0.835   3.461 -0.0761  0.0136  0.2103
    1SOL     OW 8125   1.766   1.095   3.384  0.3350 -0.0441  0.0424
    1SOL    HW2 8126   1.844   1.148   3.405  0.4590  0.3496 -1.3706
    1SOL    HW3 8127   1.788   1.007   3.414  0.6854  0.4089  1.1384
    1SOL    MW4 8128   1.780   1.091   3.391  0.3976  0.0676  0.0005
    1SOL     OW 8129   1.985   1.249   3.435  0.3597  0.0303  0.6913
    1SOL    HW2 8130   1.995   1.251   3.530  0.5190 -0.8220  0.6945
    1SOL    HW3 8131   1.970   1.341   3.410 -0.7867  0.1147  1.6600
    1SOL    MW4 8132   1.984   1.262   3.444  0.2294 -0.0709  0.8197
    1SOL     OW 8133   1.964   1.508   3.352  0.2893 -0.0635 -0.2478
    1SOL    HW2 8134   2.047   1.533   3.393 -0.1592  0.9860  0.0384
    1SOL    HW3 8135   1.898   1.563   3.394 -0.5891 -1.0233 -0.3372
    1SOL    MW4 8136   1.966   1.519   3.363  0.1142 -0.0519 -0.2217
    1SOL     OW 8137   1.763   1.660   3.509 -0.1551 -0.0793  0.0306
    1SOL    HW2 8138   1.775   1.745   3.467  0.6690 -0.1305  0.1542
    1SOL    HW3 8139   1.691   1.619   3.460 -0.3478  0.5594 -0.2222
    1SOL    MW4 8140   1.755   1.665   3.497 -0.0719 -0.0018  0.0134
    1SOL     OW 8141   1.772   1.908   3.376  0.7804  0.4897  0.4450
    1SOL    HW2 8142   1.851   1.951   3.407  0.8530  1.6568 -1.2644
    1SOL    HW3 8143   1.785   1.899   3.282 -1.6273  1.8714 -0.0637
    1SOL    MW4 8144   1.784   1.913   3.368  0.4724  0.8260  0.1526
    1SOL     OW 8145   2.007   2.007   3.469 -0.8735 -0.2768  0.3942
    1SOL    HW2 8146   2.081   1.956   3.435 -1.7632 -0.5336 -1.1986
    1SOL    HW3 8147   2.013   2.091   3.424  0.0340  0.7227  2.3109
    1SOL    MW4 8148   2.018   2.011   3.459 -0.8714 -0.1788  0.4368
    1SOL     OW 8149   2.040   2.272   3.375  0.0513  0.0836  0.1752
    1SOL    HW2 8150   1.960   2.313   3.409 -0.9741 -1.6445 -0.0861
    1SOL    HW3 8151   2.040   2.293   3.282  0.8236  1.5421  0.4922
    1SOL    MW4 8152   2.029   2.280   3.367  0.0181  0.0479  0.1824
    1SOL     OW 8153   1.803   2.378   3.499 -0.0142 -0.1377  0.2727
    1SOL    HW2 8154   1.813   2.395   3.593  0.8241 -2.5518  0.6621
    1SOL    HW3 8155   1.719   2.331   3.493 -1.1594  1.9651 -0.4732
    1SOL    MW4 8156   1.793   2.374   3.511 -0.0546 -0.1786  0.2258
    1SOL     OW 8157   1.777   2.623   3.365 -0.0768  0.0028 -0.3825
    1SOL    HW2 8158   1.855   2.673   3.389  0.2888 -0.5314 -0.4446
    1SOL    HW3 8159   1.789   2.538   3.409 -1.0254  0.2136  0.2947
    1SOL    MW4 8160   1.789   2.618   3.374 -0.1537 -0.0398 -0.3011
    1SOL     OW 8161   2.020   2.766   3.472 -0.1012  0.0986 -0.0335
    1SOL    HW2 8162   2.045   2.766   3.565  0.6886 -0.0982 -0.2384
    1SOL    HW3 8163   2.026   2.858   3.446  0.3248  0.0651 -0.0563
    1SOL    MW4 8164   2.024   2.778   3.481  0.0591  0.0684 -0.0637
    1SOL     OW 8165   2.019   3.012   3.363  0.2005 -0.3873 -0.2521
    1SOL    HW2 8166   2.106   3.046   3.384 -0.0169 -1.2252  2.1245
    1SOL    HW3 8167   1.959   3.082   3.389  0.0644 -0.5108 -0.2338
    1SOL    MW4 8168   2.022   3.026   3.369  0.1540 -0.5143  0.0641
    1SOL     OW 8169   1.818   3.243   3.454  0.2374 -0.2268 -0.3467
    1SOL    HW2 8170   1.809   3.246   3.549  0.3901 -1.0741 -0.2985
    1SOL    HW3 8171   1.816   3.334   3.426 -0.2937 -0.0041  0.4240
    1SOL    MW4 8172   1.816   3.255   3.463  0.1875 -0.3090 -0.2387
    1SOL     OW 8173   1.816   3.495   3.363 -0.5737 -0.3344 -0.1181
    1SOL    HW2 8174   1.745   3.549   3.396 -0.8061 -0.5848 -0.2101
    1SOL    HW3 8175   1.801   3.492   3.268 -0.4217 -0.3618 -0.1418
    1SOL    MW4 8176   1.805   3.502   3.355 -0.5842 -0.3715 -0.1335
    1SOL     OW 8177   2.027   3.630   3.487  0.1688  0.1188  0.0310
    1SOL    HW2 8178   2.106   3.588   3.452  0.2855  0.4806 -0.1398
    1SOL    HW3 8179   1.955   3.580   3.448  0.3125 -0.6577  0.7343
    1SOL    MW4 8180   2.028   3.618   3.477  0.2034  0.0639  0.1013
    1SOL     OW 8181   1.989   3.909   3.406 -0.2083  0.2481  0.3298
    1SOL    HW2 8182   1.914   3.958   3.441 -0.7115 -0.8655  0.8257
    1SOL    HW3 8183   1.978   3.820   3.440  0.6833 -0.2274 -0.5942
    1SOL    MW4 8184   1.978   3.904   3.415 -0.1570  0.0384  0.2735
    1SOL     OW 8185   1.780   4.056   3.503  0.2396  0.0656 -0.0957
    1SOL    HW2 8186   1.770   4.031   3.595 -0.5006  0.2876 -0.1090
    1SOL    HW3 8187   1.702   4.020   3.460  0.3645  0.3346 -0.5538
    1SOL    MW4 8188   1.768   4.048   3.510  0.1584  0.1302 -0.1581
    1SOL     OW 8189   1.811   4.310   3.381  0.0736  0.3085  0.3547
    1SOL    HW2 8190   1.801   4.223   3.420  1.0455  0.4984  1.0539
    1SOL    HW3 8191   1.797   4.297   3.288 -2.9876 -0.0529  0.8018
    1SOL    MW4 8192   1.808   4.297   3.374 -0.2021  0.2856  0.5059
    1SOL     OW 8193   2.056   4.423   3.486  0.2072  0.4221  0.0466
    1SOL    HW2 8194   1.986   4.385   3.434  0.2426  1.0143 -0.4375
    1SOL    HW3 8195   2.075   4.507   3.444  1.0964  0.3398  0.2700
    1SOL    MW4 8196   2.050   4.429   3.474  0.3293  0.4892  0.0124
    1SOL     OW 8197   2.471   0.012   3.382  0.2409  0.2220  0.2528
    1SOL    HW2 8198   2.471  -0.075   3.422  2.5986  0.4284  0.7768
    1SOL    HW3 8199   2.481  -0.005   3.288  0.4240 -0.0921  0.3275
    1SOL    MW4 8200   2.473  -0.002   3.375  0.5760  0.2079  0.3321
    1SOL     OW 8201   2.262   0.151   3.485 -0.1385 -0.1264  0.0596
    1SOL    HW2 8202   2.238   0.225   3.430 -1.4557 -0.3699  0.2869
    1SOL    HW3 8203   2.351   0.128   3.457  0.1984  1.4077 -0.1336
    1SOL    MW4 8204   2.271   0.158   3.474 -0.2677  0.0439  0.0639
    1SOL     OW 8205   2.213   0.380   3.340  0.5568  0.3628 -0.2306
    1SOL    HW2 8206   2.284   0.436   3.373  0.2207  0.6752 -0.0419
    1SOL    HW3 8207   2.135   0.411   3.385  0.2918  0.0395 -0.4687
    1SOL    MW4 8208   2.212   0.391   3.350  0.4773  0.3614 -0.2372
    1SOL     OW 8209   2.438   0.494   3.460 -0.1852 -0.5655  0.1922
    1SOL    HW2 8210   2.513   0.446   3.424 -1.3274 -1.1595 -1.4324
    1SOL    HW3 8211   2.429   0.571   3.405 -1.4726 -1.0846 -0.3510
    1SOL    MW4 8212   2.447   0.498   3.448 -0.5057 -0.7123 -0.0937
    1SOL     OW 8213   2.441   0.739   3.319 -0.1122  0.3282  0.1046
    1SOL    HW2 8214   2.516   0.786   3.355  0.7732 -0.6794 -0.4273
    1SOL    HW3 8215   2.463   0.724   3.227 -0.3843 -1.1473  0.2731
    1SOL    MW4 8216   2.454   0.743   3.312 -0.0312  0.0005  0.0567
    1SOL     OW 8217   2.215   0.825   3.447  0.2585 -0.2791 -0.3431
    1SOL    HW2 8218   2.216   0.920   3.443  0.4996 -0.2818 -0.3834
    1SOL    HW3 8219   2.294   0.798   3.400 -0.3800 -0.5329 -1.2938
    1SOL    MW4 8220   2.225   0.834   3.440  0.2062 -0.3129 -0.4737
    1SOL     OW 8221   2.209   1.086   3.389 -0.2921  0.1580  0.3615
    1SOL    HW2 8222   2.288   1.133   3.419  0.6166 -0.9691 -0.2147
    1SOL    HW3 8223   2.137   1.144   3.412  0.8174  1.9430 -0.4949
    1SOL    MW4 8224   2.210   1.100   3.396 -0.0257  0.2449  0.1726
    1SOL     OW 8225   2.429   1.239   3.473  0.6853  0.2011 -0.1705
    1SOL    HW2 8226   2.447   1.258   3.565 -0.9888 -3.2720  0.9535
    1SOL    HW3 8227   2.516   1.224   3.435  1.4591  2.4127  0.5727
    1SOL    MW4 8228   2.443   1.240   3.480  0.5665  0.0347  0.0761
    1SOL     OW 8229   2.469   1.523   3.372  0.6368  0.0789 -0.1299
    1SOL    HW2 8230   2.446   1.430   3.376  0.6763  0.0973  0.5300
    1SOL    HW3 8231   2.466   1.544   3.278  0.9252 -0.6606 -0.3108
    1SOL    MW4 8232   2.466   1.513   3.360  0.6800 -0.0162 -0.0668
    1SOL     OW 8233   2.194   1.624   3.477  0.6361  0.2151  0.1802
    1SOL    HW2 8234   2.209   1.631   3.571 -0.1697 -0.0478  0.3275
    1SOL    HW3 8235   2.270   1.574   3.444  0.6761 -0.1070  0.7590
    1SOL    MW4 8236   2.206   1.618   3.485  0.5350  0.1379  0.2763
    1SOL     OW 8237   2.262   1.865   3.369 -0.0540  0.1063 -0.2131
    1SOL    HW2 8238   2.254   1.773   3.394  0.5375  0.0429 -0.2601
    1SOL    HW3 8239   2.251   1.865   3.274 -0.0199  0.0814 -0.2168
    1SOL    MW4 8240   2.259   1.853   3.360  0.0286  0.0945 -0.2196
    1SOL     OW 8241   2.456   2.034   3.490 -0.3074 -0.0536  0.2434
    1SOL    HW2 8242   2.378   1.983   3.466 -0.7121  1.0324 -0.7993
    1SOL    HW3 8243   2.464   2.100   3.421  0.8699  0.5797  0.9668
    1SOL    MW4 8244   2.447   2.036   3.478 -0.2053  0.1733  0.2012
    1SOL     OW 8245   2.459   2.255   3.327  0.2327 -0.3520 -0.1045
    1SOL    HW2 8246   2.397   2.289   3.391 -0.1430 -1.6268  0.2198
    1SOL    HW3 8247   2.543   2.295   3.352 -0.1374  0.1120  0.4277
    1SOL    MW4 8248   2.462   2.265   3.339  0.1345 -0.4590  0.0086
    1SOL     OW 8249   2.260   2.392   3.492 -0.3563  0.2543 -0.3420
    1SOL    HW2 8250   2.183   2.349   3.457 -1.0887  0.7844  0.5873
    1SOL    HW3 8251   2.271   2.470   3.438  0.3357 -0.5145 -1.3342
    1SOL    MW4 8252   2.251   2.397   3.480 -0.3614  0.2227 -0.3502
    1SOL     OW 8253   2.245   2.647   3.371 -0.2503  0.1019 -0.1196
    1SOL    HW2 8254   2.167   2.690   3.406  0.4620  0.9107  0.5175
    1SOL    HW3 8255   2.232   2.647   3.276 -0.4981  1.2892 -0.0976
    1SOL    MW4 8256   2.233   2.653   3.363 -0.1891  0.3653 -0.0327
    1SOL     OW 8257   2.474   2.777   3.473 -0.2221  0.3260  0.5189
    1SOL    HW2 8258   2.478   2.866   3.439  1.6993 -0.2284 -0.7945
    1SOL    HW3 8259   2.388   2.744   3.445 -0.7429  1.5887  0.6065
    1SOL    MW4 8260   2.463   2.784   3.465 -0.0374  0.4196  0.3569
    1SOL     OW 8261   2.494   3.053   3.372 -0.1601  0.1054  0.2191
    1SOL    HW2 8262   2.564   3.111   3.403  0.5660 -0.7113  0.1181
    1SOL    HW3 8263   2.487   3.071   3.278  1.4520 -1.3921 -0.2186
    1SOL    MW4 8264   2.502   3.063   3.364  0.1483 -0.2000  0.1481
    1SOL     OW 8265   2.240   3.174   3.419  0.2151  0.4328 -0.5043
    1SOL    HW2 8266   2.232   3.164   3.514  0.2251  1.4295 -0.3930
    1SOL    HW3 8267   2.316   3.121   3.395  2.8327  3.5068  0.6473
    1SOL    MW4 8268   2.249   3.166   3.428  0.5615  0.9696 -0.3376
    1SOL     OW 8269   2.255   3.465   3.390  0.6081  0.1084 -0.1237
    1SOL    HW2 8270   2.262   3.373   3.416 -1.7960 -0.3839 -1.1232
    1SOL    HW3 8271   2.242   3.462   3.295 -0.3787  1.4371 -0.0427
    1SOL    MW4 8272   2.254   3.452   3.381  0.1609  0.2186 -0.2449
    1SOL     OW 8273   2.503   3.589   3.486 -0.2363 -0.1275  0.0412
    1SOL    HW2 8274   2.481   3.678   3.457 -0.1625 -0.0894  0.1013
    1SOL    HW3 8275   2.431   3.535   3.454  0.0555 -0.1570 -0.5733
    1SOL    MW4 8276   2.490   3.594   3.478 -0.1881 -0.1264 -0.0319
    1SOL     OW 8277   2.465   3.857   3.397 -0.0801 -0.1386  0.1766
    1SOL    HW2 8278   2.537   3.907   3.436  0.1242 -1.4355  1.5085
    1SOL    HW3 8279   2.386   3.898   3.431  0.0609  0.1684  0.1353
    1SOL    MW4 8280   2.464   3.869   3.406 -0.0346 -0.2692  0.3467
    1SOL     OW 8281   2.239   3.987   3.503 -0.0134 -0.2648  0.2818
    1SOL    HW2 8282   2.255   4.076   3.471  0.7507 -0.4395  0.1565
    1SOL    HW3 8283   2.156   3.962   3.464 -0.9276  0.9142  1.4439
    1SOL    MW4 8284   2.230   3.996   3.494 -0.0331 -0.1321  0.4187
    1SOL     OW 8285   2.254   4.247   3.420 -0.1411  0.0658 -0.0072
    1SOL    HW2 8286   2.184   4.309   3.441 -0.3893 -0.2063 -0.0219
    1SOL    HW3 8287   2.257   4.247   3.324 -0.7377 -0.5990 -0.0305
    1SOL    MW4 8288   2.245   4.255   3.410 -0.2527 -0.0577 -0.0124
    1SOL     OW 8289   2.459   4.416   3.494 -0.3595 -0.2883 -0.3678
    1SOL    HW2 8290   2.458   4.406   3.589 -1.8969  1.4202 -0.1959
    1SOL    HW3 8291   2.386   4.362   3.463 -0.1249 -0.5021 -0.5545
    1SOL    MW4 8292   2.449   4.407   3.502 -0.5314 -0.0916 -0.3698
    1SOL     OW 8293   2.952   4.656   3.363 -0.2082 -0.0775 -0.2597
    1SOL    HW2 8294   2.881   4.707   3.402 -0.6471  0.2758 -1.5057
    1SOL    HW3 8295   2.930   4.651   3.270  1.8076  0.7146 -0.8168
    1SOL    MW4 8296   2.940   4.662   3.356 -0.0002  0.0739 -0.4976
    1SOL     OW 8297   2.725   0.118   3.444 -0.1575  0.4075  0.0237
    1SOL    HW2 8298   2.717   0.122   3.539  0.7153 -0.1436  0.1284
    1SOL    HW3 8299   2.642   0.080   3.414  0.9559 -2.8608  0.8606
    1SOL    MW4 8300   2.713   0.113   3.453  0.1044 -0.0964  0.1478
    1SOL     OW 8301   2.693   0.386   3.365 -0.2030 -0.3953  0.0361
    1SOL    HW2 8302   2.768   0.439   3.395  0.8056 -1.0380 -1.3186
    1SOL    HW3 8303   2.712   0.298   3.396 -0.7568 -0.4281  0.2931
    1SOL    MW4 8304   2.705   0.382   3.373 -0.1428 -0.4844 -0.1090
    1SOL     OW 8305   2.905   0.516   3.470  0.0846  0.3238  0.2061
    1SOL    HW2 8306   2.895   0.529   3.564 -2.6081  1.0372 -0.1271
    1SOL    HW3 8307   2.913   0.605   3.434  0.5571  0.0867 -0.2860
    1SOL    MW4 8308   2.905   0.529   3.477 -0.2084  0.3867  0.0973
    1SOL     OW 8309   2.891   0.774   3.367 -0.2138  0.0017  0.3138
    1SOL    HW2 8310   2.963   0.828   3.400 -0.0338 -0.8422  1.3146
    1SOL    HW3 8311   2.816   0.834   3.362 -0.0901  0.2843  1.6703
    1SOL    MW4 8312   2.891   0.789   3.370 -0.1738 -0.0724  0.6247
    1SOL     OW 8313   2.645   0.900   3.397  0.3104  0.0764  0.3209
    1SOL    HW2 8314   2.670   0.889   3.489 -0.3162  1.7279  0.7093
    1SOL    HW3 8315   2.653   0.994   3.381  0.6928 -0.2298 -1.4065
    1SOL    MW4 8316   2.649   0.911   3.407  0.2782  0.2539  0.1442
    1SOL     OW 8317   2.673   1.172   3.328 -0.4100 -0.3589 -0.1212
    1SOL    HW2 8318   2.755   1.204   3.365 -0.8056  0.6509 -0.1201
    1SOL    HW3 8319   2.692   1.161   3.234  0.6876 -3.2270  0.3909
    1SOL    MW4 8320   2.686   1.174   3.320 -0.3176 -0.6042 -0.0536
    1SOL     OW 8321   2.913   1.261   3.432 -0.3080  0.5530 -0.1885
    1SOL    HW2 8322   2.917   1.264   3.528 -1.0342  1.5352 -0.1727
    1SOL    HW3 8323   2.982   1.200   3.407  0.9597  1.5168  0.8794
    1SOL    MW4 8324   2.922   1.254   3.442 -0.2365  0.8098 -0.0455
    1SOL     OW 8325   2.940   1.545   3.363  0.4331  0.4073 -0.2293
    1SOL    HW2 8326   2.867   1.593   3.401  0.3064  0.5646 -0.6642
    1SOL    HW3 8327   2.924   1.453   3.387  0.3963  0.5120  0.1536
    1SOL    MW4 8328   2.929   1.539   3.371  0.4115  0.4418 -0.2360
    1SOL     OW 8329   2.705   1.659   3.470  0.5057  0.1216  0.4648
    1SOL    HW2 8330   2.690   1.742   3.426  0.2580  1.0607  2.2852
    1SOL    HW3 8331   2.634   1.603   3.439  0.0558  0.9124  0.0531
    1SOL    MW4 8332   2.694   1.662   3.460  0.4137  0.3499  0.6504
    1SOL     OW 8333   2.692   1.904   3.363 -0.1671 -0.1311  0.2830
    1SOL    HW2 8334   2.616   1.939   3.409  0.1224 -0.1982  0.8087
    1SOL    HW3 8335   2.667   1.908   3.270 -1.3357 -1.3966  0.5171
    1SOL    MW4 8336   2.678   1.909   3.357 -0.2830 -0.3070  0.3831
    1SOL     OW 8337   2.940   1.998   3.474 -0.3052 -0.1447  0.2963
    1SOL    HW2 8338   2.916   1.987   3.566 -0.9631 -0.2423  0.1099
    1SOL    HW3 8339   2.859   1.983   3.425  0.2376 -0.9775 -0.3587
    1SOL    MW4 8340   2.927   1.995   3.479 -0.3204 -0.2675  0.1855
    1SOL     OW 8341   2.941   2.275   3.384 -0.2304 -0.2692 -0.2120
    1SOL    HW2 8342   2.947   2.184   3.412 -0.3915 -0.8614 -2.0602
    1SOL    HW3 8343   2.926   2.271   3.290 -0.1360  1.6730 -0.3386
    1SOL    MW4 8344   2.940   2.263   3.375 -0.2391 -0.0911 -0.4723
    1SOL     OW 8345   2.677   2.430   3.441 -0.0570 -0.0576  0.0236
    1SOL    HW2 8346   2.652   2.430   3.534 -1.8760  1.2642 -0.4245
    1SOL    HW3 8347   2.761   2.385   3.439 -1.3772 -2.8443  1.9398
    1SOL    MW4 8348   2.685   2.424   3.453 -0.4711 -0.2511  0.2170
    1SOL     OW 8349   2.700   2.689   3.350  0.3574 -0.2517 -0.3366
    1SOL    HW2 8350   2.691   2.598   3.379 -0.2495 -0.2497 -0.5141
    1SOL    HW3 8351   2.625   2.734   3.389  0.0619 -0.0502 -1.1338
    1SOL    MW4 8352   2.689   2.683   3.359  0.2384 -0.2246 -0.4654
    1SOL     OW 8353   2.878   2.859   3.474  0.6248 -0.1577  0.1684
    1SOL    HW2 8354   2.884   2.838   3.567 -0.5010  0.3868  0.3785
    1SOL    HW3 8355   2.809   2.801   3.441  1.1026 -0.4318 -0.3476
    1SOL    MW4 8356   2.870   2.848   3.482  0.5393 -0.1218  0.1278
    1SOL     OW 8357   2.934   3.128   3.370 -0.1253  0.1662  0.2794
    1SOL    HW2 8358   2.921   3.036   3.395  0.9625 -0.3755 -1.0668
    1SOL    HW3 8359   2.924   3.128   3.274  1.4819  1.1400  0.0904
    1SOL    MW4 8360   2.931   3.116   3.360  0.2303  0.2234  0.0770
    1SOL     OW 8361   2.695   3.243   3.453  0.1813 -0.0153 -0.1189
    1SOL    HW2 8362   2.682   3.226   3.546 -0.3125  1.2561  0.0548
    1SOL    HW3 8363   2.781   3.207   3.433  0.9465  1.0572  1.1851
    1SOL    MW4 8364   2.705   3.236   3.462  0.2170  0.2940  0.0761
    1SOL     OW 8365   2.718   3.491   3.352 -0.0737 -0.1583 -0.3590
    1SOL    HW2 8366   2.700   3.402   3.383  0.4459 -0.4563 -0.9004
    1SOL    HW3 8367   2.650   3.544   3.393  2.1640 -0.0696  3.4050
    1SOL    MW4 8368   2.706   3.486   3.361  0.2902 -0.1857  0.0660
    1SOL     OW 8369   2.935   3.639   3.451  0.3271  0.2450 -0.1169
    1SOL    HW2 8370   2.914   3.729   3.425 -0.1140  0.3363  0.5308
    1SOL    HW3 8371   2.870   3.585   3.404 -0.6794  0.4370  1.0090
    1SOL    MW4 8372   2.923   3.643   3.441  0.1361  0.2823  0.1171
    1SOL     OW 8373   2.920   3.901   3.352  0.0104  0.4095  0.1693
    1SOL    HW2 8374   2.999   3.940   3.390  0.5823  0.6206 -1.2220
    1SOL    HW3 8375   2.847   3.946   3.397  0.6692  1.0064  0.6478
    1SOL    MW4 8376   2.920   3.912   3.363  0.1726  0.5159  0.0489
    1SOL     OW 8377   2.696   3.998   3.489 -0.0769  0.0218 -0.0184
    1SOL    HW2 8378   2.704   4.009   3.584 -1.4006  0.0590  0.0929
    1SOL    HW3 8379   2.688   4.086   3.455  0.1685 -0.0056 -0.1492
    1SOL    MW4 8380   2.696   4.011   3.497 -0.2191  0.0234 -0.0207
    1SOL     OW 8381   2.674   4.256   3.390  0.3204  0.2652 -0.1253
    1SOL    HW2 8382   2.750   4.314   3.401 -0.4296  1.5588 -1.5768
    1SOL    HW3 8383   2.604   4.302   3.437  0.2586 -0.6156  0.6617
    1SOL    MW4 8384   2.675   4.270   3.398  0.2131  0.3200 -0.2129
    1SOL     OW 8385   2.902   4.391   3.452  0.0162  0.6091  0.0555
    1SOL    HW2 8386   2.893   4.398   3.547  0.2434  1.1716  0.0389
    1SOL    HW3 8387   2.920   4.480   3.423  1.5008  0.2002 -0.3443
    1SOL    MW4 8388   2.903   4.403   3.461  0.2420  0.6299  0.0005
    1SOL     OW 8389   3.378   4.614   3.373 -0.1293 -0.0071  0.3293
    1SOL    HW2 8390   3.311   4.672   3.410  0.0558 -0.0413  0.7320
    1SOL    HW3 8391   3.377   4.632   3.279  0.1593  0.9039  0.4948
    1SOL    MW4 8392   3.369   4.624   3.366 -0.0670  0.1087  0.4044
    1SOL     OW 8393   3.160   0.084   3.499  0.0676 -0.1919 -0.3048
    1SOL    HW2 8394   3.147   0.175   3.474  0.0530 -0.6607 -2.0822
    1SOL    HW3 8395   3.100   0.035   3.443  0.5187 -1.3461  0.2096
    1SOL    MW4 8396   3.150   0.090   3.488  0.1252 -0.4060 -0.4716
    1SOL     OW 8397   3.132   0.348   3.409 -0.5453  0.0288  0.4327
    1SOL    HW2 8398   3.066   0.416   3.428 -0.6889  0.1066 -0.3313
    1SOL    HW3 8399   3.147   0.355   3.315 -0.3598 -0.8252  0.3968
    1SOL    MW4 8400   3.125   0.358   3.399 -0.5400 -0.0736  0.3271
    1SOL     OW 8401   3.350   0.510   3.480 -0.0279 -0.2312 -0.0690
    1SOL    HW2 8402   3.357   0.519   3.575 -0.7760  1.7925 -0.1734
    1SOL    HW3 8403   3.278   0.449   3.468  0.8060 -1.3758  0.6718
    1SOL    MW4 8404   3.341   0.503   3.491 -0.0165 -0.1152  0.0148
    1SOL     OW 8405   3.349   0.757   3.359 -0.3167 -0.6553 -0.4761
    1SOL    HW2 8406   3.428   0.798   3.396 -0.0584 -1.2340 -0.3678
    1SOL    HW3 8407   3.349   0.669   3.397 -1.1670 -0.5646 -0.2691
    1SOL    MW4 8408   3.360   0.751   3.369 -0.3946 -0.7196 -0.4346
    1SOL     OW 8409   3.137   0.880   3.479 -0.0064 -0.0529 -0.2087
    1SOL    HW2 8410   3.141   0.968   3.441 -0.3288 -0.5083 -1.3267
    1SOL    HW3 8411   3.214   0.835   3.444 -0.3602 -0.5115 -0.4058
    1SOL    MW4 8412   3.148   0.886   3.470 -0.0954 -0.1735 -0.3819
    1SOL     OW 8413   3.150   1.135   3.348 -0.1164  0.2036  0.3028
    1SOL    HW2 8414   3.227   1.181   3.382 -0.9425  1.0598  1.0291
    1SOL    HW3 8415   3.144   1.162   3.256  0.0221  0.7203  0.4436
    1SOL    MW4 8416   3.159   1.145   3.340 -0.2072  0.3848  0.4172
    1SOL     OW 8417   3.370   1.275   3.463  0.5276 -0.2428  0.4993
    1SOL    HW2 8418   3.453   1.229   3.453  0.8396 -0.0814  2.2076
    1SOL    HW3 8419   3.385   1.360   3.422  0.1983 -1.3339 -1.9617
    1SOL    MW4 8420   3.383   1.280   3.457  0.5252 -0.3655  0.4001
    1SOL     OW 8421   3.407   1.547   3.392 -0.1237  0.6843  0.1336
    1SOL    HW2 8422   3.476   1.582   3.449 -0.4849  0.1348  0.9198
    1SOL    HW3 8423   3.325   1.576   3.433 -0.3858  0.2393 -0.0664
    1SOL    MW4 8424   3.405   1.555   3.405 -0.2060  0.5533  0.2110
    1SOL     OW 8425   3.169   1.631   3.500  0.0040  0.6459 -0.3877
    1SOL    HW2 8426   3.167   1.725   3.483  0.1077  0.6171 -0.5593
    1SOL    HW3 8427   3.100   1.595   3.443 -1.4633  0.8695  1.2299
    1SOL    MW4 8428   3.159   1.639   3.490 -0.1760  0.6715 -0.1969
    1SOL     OW 8429   3.180   1.889   3.383  0.6777 -0.4248  0.4080
    1SOL    HW2 8430   3.096   1.925   3.411  0.2731  0.9123 -2.3379
    1SOL    HW3 8431   3.245   1.944   3.426  0.0901  1.0506 -0.5491
    1SOL    MW4 8432   3.178   1.901   3.392  0.5467 -0.0536 -0.0808
    1SOL     OW 8433   3.421   2.031   3.487  0.2103  0.2550 -0.3073
    1SOL    HW2 8434   3.385   2.119   3.484 -1.4874 -0.3438  1.3260
    1SOL    HW3 8435   3.423   2.009   3.580  0.0623 -1.6366 -0.7298
    1SOL    MW4 8436   3.417   2.039   3.499 -0.0331 -0.0734 -0.1476
    1SOL     OW 8437   3.333   2.294   3.375 -0.0914 -0.0823 -0.5123
    1SOL    HW2 8438   3.417   2.318   3.413 -0.6951  1.1828  0.0384
    1SOL    HW3 8439   3.271   2.356   3.412 -1.1586 -0.5665 -1.4504
    1SOL    MW4 8440   3.336   2.305   3.385 -0.3116  0.0207 -0.5634
    1SOL     OW 8441   3.131   2.447   3.490 -0.0935 -0.3015  0.6582
    1SOL    HW2 8442   3.108   2.532   3.452 -1.1658 -0.3293  1.2114
    1SOL    HW3 8443   3.070   2.385   3.449 -0.6125 -0.4874  1.6691
    1SOL    MW4 8444   3.120   2.450   3.480 -0.3035 -0.3293  0.8645
    1SOL     OW 8445   3.096   2.690   3.363 -0.9420 -0.0155  0.2589
    1SOL    HW2 8446   3.172   2.740   3.389 -1.1644  0.7033 -0.4599
    1SOL    HW3 8447   3.021   2.739   3.398 -1.0870 -0.6109  0.7940
    1SOL    MW4 8448   3.096   2.703   3.371 -0.9904  0.0005  0.2346
    1SOL     OW 8449   3.326   2.810   3.474  0.0369 -0.3441  0.3734
    1SOL    HW2 8450   3.337   2.825   3.568  1.8203  0.9610 -0.0223
    1SOL    HW3 8451   3.328   2.897   3.435 -1.3083 -0.8301 -0.8441
    1SOL    MW4 8452   3.328   2.824   3.481  0.0947 -0.2358  0.1605
    1SOL     OW 8453   3.346   3.084   3.398 -0.3577 -0.0643  0.3996
    1SOL    HW2 8454   3.431   3.115   3.430 -0.3123  0.6973 -0.4276
    1SOL    HW3 8455   3.282   3.141   3.441 -0.4151 -0.2303  0.5364
    1SOL    MW4 8456   3.349   3.095   3.408 -0.3591  0.0143  0.3085
    1SOL     OW 8457   3.149   3.232   3.496 -0.1301 -0.3126  0.3156
    1SOL    HW2 8458   3.146   3.322   3.465  0.1394 -0.2464  0.4873
    1SOL    HW3 8459   3.063   3.196   3.473 -0.2669  0.0112  0.3197
    1SOL    MW4 8460   3.137   3.239   3.489 -0.1128 -0.2611  0.3388
    1SOL     OW 8461   3.151   3.487   3.360 -1.1780  0.1467 -0.4495
    1SOL    HW2 8462   3.078   3.539   3.391  0.3045  3.3193 -1.9661
    1SOL    HW3 8463   3.140   3.484   3.265  0.7933  0.9916 -0.7465
    1SOL    MW4 8464   3.140   3.494   3.351 -0.7224  0.6769 -0.6888
    1SOL     OW 8465   3.374   3.620   3.462  0.0874  0.2789  0.1589
    1SOL    HW2 8466   3.378   3.701   3.411 -0.0962 -0.3886 -0.9234
    1SOL    HW3 8467   3.292   3.578   3.434  0.4401 -0.5336  0.3313
    1SOL    MW4 8468   3.364   3.625   3.451  0.1099  0.0834  0.0386
    1SOL     OW 8469   3.395   3.874   3.334  0.0352  0.0776 -0.0084
    1SOL    HW2 8470   3.466   3.924   3.375  0.6628 -0.4237 -0.4725
    1SOL    HW3 8471   3.315   3.918   3.363  0.6202  2.1911 -1.4525
    1SOL    MW4 8472   3.394   3.887   3.343  0.1950  0.2904 -0.2601
    1SOL     OW 8473   3.173   3.987   3.434 -0.8127 -0.5418 -0.2833
    1SOL    HW2 8474   3.159   3.994   3.528 -0.0312 -0.3081 -0.1811
    1SOL    HW3 8475   3.141   4.071   3.399 -1.2022 -0.6717 -0.2388
    1SOL    MW4 8476   3.167   3.999   3.442 -0.7610 -0.5279 -0.2639
    1SOL     OW 8477   3.109   4.239   3.341 -0.5430 -0.1331 -0.0574
    1SOL    HW2 8478   3.191   4.271   3.380 -0.2775 -1.0404  0.1559
    1SOL    HW3 8479   3.040   4.285   3.389 -0.1978 -0.7471  1.0442
    1SOL    MW4 8480   3.111   4.249   3.353 -0.4623 -0.3338  0.1161
    1SOL     OW 8481   3.328   4.357   3.445  0.0048 -0.0187  0.3138
    1SOL    HW2 8482   3.363   4.352   3.534  1.5673  0.1084 -0.2715
    1SOL    HW3 8483   3.334   4.450   3.422  0.7341 -0.2289 -0.3594
    1SOL    MW4 8484   3.333   4.368   3.453  0.3071 -0.0296  0.1476
    1SOL     OW 8485   3.801   4.635   3.374  0.3960 -0.0369 -0.2306
    1SOL    HW2 8486   3.730   4.690   3.404 -1.7888 -1.9380 -1.7054
    1SOL    HW3 8487   3.802   4.647   3.279  0.3803 -1.9023 -0.4887
    1SOL    MW4 8488   3.792   4.643   3.365  0.1059 -0.5336 -0.4592
    1SOL     OW 8489   3.585   0.108   3.497  0.3815 -0.1277 -0.2078
    1SOL    HW2 8490   3.555   0.194   3.468  0.0246 -0.6428 -1.4174
    1SOL    HW3 8491   3.518   0.048   3.465  0.6761 -0.8619  0.5533
    1SOL    MW4 8492   3.573   0.111   3.489  0.3734 -0.2925 -0.2670
    1SOL     OW 8493   3.568   0.377   3.399  0.2251 -0.1325 -0.2589
    1SOL    HW2 8494   3.640   0.434   3.427 -0.2859 -0.7007  2.2856
    1SOL    HW3 8495   3.489   0.421   3.430 -0.3503 -0.8998 -0.6295
    1SOL    MW4 8496   3.567   0.390   3.407  0.0815 -0.3087  0.0279
    1SOL     OW 8497   3.807   0.517   3.446 -0.2284 -0.3207  0.1782
    1SOL    HW2 8498   3.828   0.529   3.539 -0.3284 -0.6880  0.2526
    1SOL    HW3 8499   3.866   0.448   3.417  0.9999  0.9845 -0.4788
    1SOL    MW4 8500   3.817   0.509   3.454 -0.0796 -0.1969  0.1011
    1SOL     OW 8501   3.799   0.770   3.377  0.9798 -0.3330 -0.7682
    1SOL    HW2 8502   3.873   0.803   3.428  0.2469  0.6161 -0.2853
    1SOL    HW3 8503   3.793   0.678   3.399  0.5948  0.0942  0.9698
    1SOL    MW4 8504   3.808   0.762   3.387  0.8321 -0.1513 -0.4752
    1SOL     OW 8505   3.559   0.889   3.461  0.0610 -0.1542 -0.4291
    1SOL    HW2 8506   3.553   0.876   3.556 -1.3866  1.1894 -0.3223
    1SOL    HW3 8507   3.646   0.856   3.438  0.7820  0.3149  1.5048
    1SOL    MW4 8508   3.570   0.883   3.471 -0.0348  0.0849 -0.1597
    1SOL     OW 8509   3.592   1.146   3.416 -0.5730  0.1710  0.2119
    1SOL    HW2 8510   3.581   1.052   3.435 -0.3622  0.2115  0.5478
    1SOL    HW3 8511   3.590   1.152   3.321 -0.9507 -0.1322  0.1993
    1SOL    MW4 8512   3.591   1.134   3.406 -0.5949  0.1363  0.2544
    1SOL     OW 8513   3.839   1.253   3.460  0.2878  0.1748 -0.3712
    1SOL    HW2 8514   3.855   1.258   3.554  1.4233 -0.9380 -0.5064
    1SOL    HW3 8515   3.756   1.206   3.452 -0.2531  1.0349  0.0961
    1SOL    MW4 8516   3.830   1.248   3.471  0.3664  0.1415 -0.3273
    1SOL     OW 8517   3.825   1.519   3.395  0.3486  0.3610 -0.0916
    1SOL    HW2 8518   3.903   1.546   3.443 -0.0859 -0.1525  0.9207
    1SOL    HW3 8519   3.815   1.426   3.415  0.8107 -0.1547 -2.1189
    1SOL    MW4 8520   3.834   1.511   3.404  0.3524  0.2252 -0.2255
    1SOL     OW 8521   3.621   1.662   3.523  0.8662 -0.2510 -0.4468
    1SOL    HW2 8522   3.611   1.731   3.457 -0.8131 -1.1371 -1.1542
    1SOL    HW3 8523   3.692   1.607   3.490  1.9092  0.8570 -0.1033
    1SOL    MW4 8524   3.629   1.664   3.510  0.7823 -0.2217 -0.4950
    1SOL     OW 8525   3.595   1.889   3.343  0.0039  0.1946 -0.1333
    1SOL    HW2 8526   3.677   1.928   3.373 -0.6371  1.2418  0.2983
    1SOL    HW3 8527   3.527   1.937   3.390 -0.8899 -0.1266 -1.0721
    1SOL    MW4 8528   3.597   1.901   3.353 -0.1986  0.2904 -0.2000
    1SOL     OW 8529   3.815   2.010   3.434  0.0971  0.4789 -0.2859
    1SOL    HW2 8530   3.798   2.045   3.522 -0.2559  0.2450 -0.2605
    1SOL    HW3 8531   3.901   1.967   3.442 -0.3503 -0.3429  0.1914
    1SOL    MW4 8532   3.824   2.009   3.447 -0.0083  0.3397 -0.2196
    1SOL     OW 8533   3.828   2.276   3.330 -0.1417  0.4312  0.5495
    1SOL    HW2 8534   3.904   2.317   3.372 -1.1395  0.7029  2.1171
    1SOL    HW3 8535   3.826   2.188   3.366  0.0384  0.0651 -0.3104
    1SOL    MW4 8536   3.838   2.270   3.340 -0.2496  0.4191  0.6430
    1SOL     OW 8537   3.576   2.376   3.459 -0.0107  0.1440 -0.0503
    1SOL    HW2 8538   3.573   2.468   3.433 -1.7909 -0.9471 -4.1602
    1SOL    HW3 8539   3.655   2.342   3.417 -1.4125 -1.0317 -1.7933
    1SOL    MW4 8540   3.586   2.384   3.450 -0.4308 -0.1552 -0.8223
    1SOL     OW 8541   3.555   2.649   3.400  0.3525  0.1856 -0.1932
    1SOL    HW2 8542   3.631   2.695   3.435  0.2128 -0.5804  1.1877
    1SOL    HW3 8543   3.480   2.692   3.441  0.1159  0.1688 -0.6126
    1SOL    MW4 8544   3.555   2.661   3.410  0.3030  0.0825 -0.0665
    1SOL     OW 8545   3.786   2.763   3.482 -0.4773  0.1189  0.0587
    1SOL    HW2 8546   3.789   2.777   3.576 -1.1291 -1.2939  0.2918
    1SOL    HW3 8547   3.778   2.851   3.445 -0.5163  0.6500  1.3278
    1SOL    MW4 8548   3.785   2.777   3.489 -0.5684  0.0026  0.2570
    1SOL     OW 8549   3.813   3.051   3.402 -0.3968  0.2289  0.0107
    1SOL    HW2 8550   3.903   3.079   3.417 -0.2859  0.3183 -0.8462
    1SOL    HW3 8551   3.804   3.045   3.307 -1.3194  0.3032  0.0842
    1SOL    MW4 8552   3.824   3.054   3.392 -0.5040  0.2506 -0.0925
    1SOL     OW 8553   3.578   3.182   3.480  0.4191 -0.1928  0.1520
    1SOL    HW2 8554   3.585   3.273   3.451 -0.2569  0.0713  0.7870
    1SOL    HW3 8555   3.667   3.148   3.475  0.9332  0.9318  1.2671
    1SOL    MW4 8556   3.590   3.190   3.476  0.3979 -0.0098  0.3831
    1SOL     OW 8557   3.596   3.455   3.357  0.6160 -0.4351  0.2086
    1SOL    HW2 8558   3.524   3.516   3.375  0.3362 -1.0111  1.0628
    1SOL    HW3 8559   3.611   3.463   3.263  1.3448  1.7886  0.4946
    1SOL    MW4 8560   3.588   3.464   3.347  0.6752 -0.2179  0.3588
    1SOL     OW 8561   3.808   3.588   3.475  0.0429 -0.4041 -0.6181
    1SOL    HW2 8562   3.796   3.600   3.569  0.9179 -0.2536 -0.5205
    1SOL    HW3 8563   3.734   3.534   3.447 -3.2297  3.8962 -0.7864
    1SOL    MW4 8564   3.797   3.583   3.483 -0.2737  0.1829 -0.6275
    1SOL     OW 8565   3.818   3.833   3.345 -0.1718  0.1942 -0.1693
    1SOL    HW2 8566   3.752   3.892   3.381 -0.5733  0.4124 -1.2275
    1SOL    HW3 8567   3.804   3.751   3.391  1.2794  1.2658  2.3003
    1SOL    MW4 8568   3.808   3.830   3.356 -0.0334  0.3643  0.0169
    1SOL     OW 8569   3.604   3.981   3.472  0.4927 -0.4404 -0.3070
    1SOL    HW2 8570   3.590   3.957   3.563 -0.1383 -0.6354 -0.4486
    1SOL    HW3 8571   3.616   4.076   3.473 -0.8293 -0.2674 -0.1604
    1SOL    MW4 8572   3.603   3.990   3.484  0.2348 -0.4435 -0.3061
    1SOL     OW 8573   3.554   4.257   3.357  0.4371  0.3538 -0.0822
    1SOL    HW2 8574   3.470   4.300   3.377  0.8508  0.5710  1.2750
    1SOL    HW3 8575   3.558   4.254   3.262 -0.4607  1.6436 -0.1697
    1SOL    MW4 8576   3.543   4.262   3.347  0.3731  0.5527  0.0851
    1SOL     OW 8577   3.752   4.394   3.492 -0.1669  0.5313  0.2887
    1SOL    HW2 8578   3.682   4.363   3.435  0.6466 -0.3132 -0.2701
    1SOL    HW3 8579   3.778   4.478   3.454  0.1466  0.1290 -0.4086
    1SOL    MW4 8580   3.746   4.401   3.479 -0.0184  0.3672  0.1228
    1SOL     OW 8581   4.252   4.608   3.360  0.0227 -0.0508  0.4073
    1SOL    HW2 8582   4.257   4.515   3.384  0.3621 -0.5798 -1.6072
    1SOL    HW3 8583   4.337   4.644   3.385  0.3720 -0.5926  0.0145
    1SOL    MW4 8584   4.264   4.600   3.366  0.1135 -0.1922  0.0894
    1SOL     OW 8585   4.029   0.068   3.489 -0.6539  0.0382 -0.1324
    1SOL    HW2 8586   4.104   0.027   3.446 -0.4915  1.3281 -1.1185
    1SOL    HW3 8587   3.953   0.022   3.454 -0.4809  0.6355 -1.2826
    1SOL    MW4 8588   4.029   0.056   3.479 -0.6094  0.2872 -0.4146
    1SOL     OW 8589   4.004   0.328   3.400  0.1867  0.4045  0.0211
    1SOL    HW2 8590   4.007   0.234   3.421  2.2390  0.5401  0.4556
    1SOL    HW3 8591   4.022   0.332   3.306 -0.0280  0.3358 -0.0207
    1SOL    MW4 8592   4.007   0.316   3.390  0.4287  0.4134  0.0730
    1SOL     OW 8593   4.246   0.468   3.457  0.3604  0.0415  0.0424
    1SOL    HW2 8594   4.231   0.562   3.444 -0.0616  0.1707  1.3570
    1SOL    HW3 8595   4.160   0.428   3.442  0.3766 -0.0459  0.1777
    1SOL    MW4 8596   4.232   0.476   3.454  0.3071  0.0470  0.2339
    1SOL     OW 8597   4.223   0.755   3.411  0.0858  0.0585  0.0475
    1SOL    HW2 8598   4.290   0.815   3.442 -1.0498  0.6170  1.4464
    1SOL    HW3 8599   4.236   0.752   3.316  2.4506 -0.3135  0.3504
    1SOL    MW4 8600   4.234   0.762   3.402  0.2475  0.0831  0.2718
    1SOL     OW 8601   4.005   0.900   3.515  0.2117 -0.3232  0.5685
    1SOL    HW2 8602   4.008   0.983   3.469 -0.3595  0.2537  1.5527
    1SOL    HW3 8603   4.080   0.851   3.482  0.4438  0.5034 -0.1464
    1SOL    MW4 8604   4.015   0.904   3.505  0.1664 -0.1380  0.6044
    1SOL     OW 8605   4.073   1.149   3.377 -0.5572 -0.0070  0.3987
    1SOL    HW2 8606   4.147   1.185   3.426 -0.2539 -1.4335  1.0181
    1SOL    HW3 8607   3.996   1.191   3.416 -0.1250  1.0962  0.0949
    1SOL    MW4 8608   4.072   1.159   3.389 -0.4606 -0.0497  0.4404
    1SOL     OW 8609   4.290   1.264   3.487  0.0083  0.1287 -0.0550
    1SOL    HW2 8610   4.289   1.350   3.446 -0.0323  0.8939  1.5229
    1SOL    HW3 8611   4.367   1.220   3.449 -0.1367  0.7453 -1.0662
    1SOL    MW4 8612   4.300   1.269   3.477 -0.0162  0.3110  0.0198
    1SOL     OW 8613   4.271   1.517   3.399  0.5555  0.1366 -0.2366
    1SOL    HW2 8614   4.193   1.564   3.429  1.7691  1.0306  1.6389
    1SOL    HW3 8615   4.275   1.533   3.305 -0.8887  1.0089 -0.1575
    1SOL    MW4 8616   4.261   1.525   3.391  0.5255  0.3698  0.0212
    1SOL     OW 8617   4.060   1.664   3.511 -0.5909 -0.0359 -0.2040
    1SOL    HW2 8618   4.050   1.672   3.606  2.8101  1.1110  0.1458
    1SOL    HW3 8619   4.045   1.753   3.478 -0.8479 -0.2350 -0.6151
    1SOL    MW4 8620   4.057   1.677   3.519 -0.1764  0.0892 -0.2120
    1SOL     OW 8621   4.070   1.916   3.423 -0.0892 -0.3576  0.4140
    1SOL    HW2 8622   4.134   1.979   3.458  0.3064 -1.1941  1.2187
    1SOL    HW3 8623   4.087   1.915   3.329  0.3907  0.2031  0.4872
    1SOL    MW4 8624   4.081   1.924   3.415  0.0267 -0.3939  0.5300
    1SOL     OW 8625   4.273   2.077   3.498 -0.5064  0.2437 -0.1065
    1SOL    HW2 8626   4.281   2.165   3.460  1.5155 -0.0742 -0.4704
    1SOL    HW3 8627   4.351   2.031   3.467 -1.0108 -1.3522  0.9646
    1SOL    MW4 8628   4.284   2.083   3.489 -0.3061 -0.0088 -0.0131
    1SOL     OW 8629   4.284   2.334   3.396 -0.3966  0.7648 -0.0192
    1SOL    HW2 8630   4.197   2.365   3.423 -1.0325  0.4718 -1.7152
    1SOL    HW3 8631   4.282   2.334   3.301  0.9797 -0.6517 -0.0757
    1SOL    MW4 8632   4.272   2.338   3.387 -0.2995  0.5395 -0.2503
    1SOL     OW 8633   4.019   2.397   3.497 -0.0569 -0.1558  0.1326
    1SOL    HW2 8634   4.007   2.414   3.590  0.0998 -0.9424  0.2966
    1SOL    HW3 8635   4.034   2.484   3.459  1.6706  0.0077  1.1150
    1SOL    MW4 8636   4.020   2.411   3.504  0.1917 -0.2379  0.2840
    1SOL     OW 8637   4.026   2.651   3.391 -0.4154 -0.2819  0.0093
    1SOL    HW2 8638   4.097   2.701   3.433 -0.6259 -0.0926  0.1399
    1SOL    HW3 8639   3.946   2.685   3.431 -0.5034 -1.3853  0.7873
    1SOL    MW4 8640   4.025   2.662   3.402 -0.4549 -0.4025  0.1292
    1SOL     OW 8641   4.256   2.795   3.474  0.1493 -0.1875 -0.6056
    1SOL    HW2 8642   4.259   2.806   3.569 -0.7491 -1.3419 -0.4401
    1SOL    HW3 8643   4.347   2.774   3.449  0.3675  0.0240  0.0028
    1SOL    MW4 8644   4.269   2.794   3.483  0.0596 -0.3119 -0.5038
    1SOL     OW 8645   4.289   3.075   3.383  0.3862  0.3248 -0.5119
    1SOL    HW2 8646   4.271   2.987   3.415 -0.8115  0.7256 -0.0598
    1SOL    HW3 8647   4.300   3.065   3.288 -0.6983 -0.1812 -0.5929
    1SOL    MW4 8648   4.288   3.062   3.374  0.0854  0.3107 -0.4628
    1SOL     OW 8649   4.053   3.227   3.447  0.0154 -0.1039  0.0725
    1SOL    HW2 8650   4.055   3.314   3.407 -0.8411  0.2671  0.8225
    1SOL    HW3 8651   4.128   3.181   3.409  0.4681  0.9613 -0.3253
    1SOL    MW4 8652   4.063   3.232   3.436 -0.0377  0.0858  0.1190
    1SOL     OW 8653   4.020   3.504   3.356  0.3390  0.1732  0.0120
    1SOL    HW2 8654   4.094   3.540   3.406  0.3555  1.0306 -0.6161
    1SOL    HW3 8655   3.942   3.536   3.402  0.3596  0.3631 -0.0823
    1SOL    MW4 8656   4.020   3.513   3.368  0.3438  0.3116 -0.0837
    1SOL     OW 8657   4.232   3.601   3.472  0.2622 -0.0968 -0.3308
    1SOL    HW2 8658   4.253   3.594   3.566 -0.6730 -2.1531 -0.2546
    1SOL    HW3 8659   4.244   3.694   3.452  1.7309  0.1446  1.5263
    1SOL    MW4 8660   4.237   3.613   3.482  0.3328 -0.3364 -0.0758
    1SOL     OW 8661   4.264   3.861   3.387  0.0066 -0.1798  0.2112
    1SOL    HW2 8662   4.352   3.895   3.405 -0.3796  1.0497 -0.1791
    1SOL    HW3 8663   4.263   3.844   3.293 -0.6665  1.2752 -0.0562
    1SOL    MW4 8664   4.275   3.863   3.377 -0.1335  0.1743  0.1245
    1SOL     OW 8665   4.017   3.948   3.487  0.8114  0.4174  0.0381
    1SOL    HW2 8666   4.094   3.905   3.451  0.1746 -0.5920 -0.1191
    1SOL    HW3 8667   3.942   3.901   3.450  0.1267  0.0357  1.8047
    1SOL    MW4 8668   4.017   3.936   3.478  0.6371  0.2337  0.2503
    1SOL     OW 8669   3.975   4.232   3.383 -0.1642  0.2894  0.1196
    1SOL    HW2 8670   3.987   4.149   3.430  0.3124 -0.0711 -0.6265
    1SOL    HW3 8671   3.900   4.273   3.425 -1.7327 -1.4880 -0.8702
    1SOL    MW4 8672   3.967   4.226   3.395 -0.3080  0.0067 -0.1092
    1SOL     OW 8673   4.256   4.352   3.462  0.3072 -0.0817  0.1647
    1SOL    HW2 8674   4.238   4.371   3.554  1.5382  0.0128  0.3853
    1SOL    HW3 8675   4.183   4.296   3.434 -1.0498  1.3924  0.6919
    1SOL    MW4 8676   4.244   4.347   3.470  0.2904  0.1254  0.2632
    1SOL     OW 8677   0.246   4.651   3.829  0.1824 -0.3528  0.3322
    1SOL    HW2 8678   0.224   4.651   3.922  1.0903 -0.1888  0.5439
    1SOL    HW3 8679   0.174   4.698   3.788 -0.1892 -0.3691  0.9544
    1SOL    MW4 8680   0.233   4.657   3.836  0.2531 -0.3333  0.4423
    1SOL     OW 8681   0.009   0.090   3.728 -0.1906  0.5310  0.0268
    1SOL    HW2 8682   0.001   0.185   3.735  0.7276  0.5845  0.4234
    1SOL    HW3 8683  -0.015   0.070   3.638 -0.8356  1.0852  0.0742
    1SOL    MW4 8684   0.005   0.100   3.717 -0.1545  0.6112  0.0854
    1SOL     OW 8685   0.025   0.351   3.843  0.0109  0.0076  0.5447
    1SOL    HW2 8686  -0.049   0.403   3.811  0.8860  0.2998 -1.0404
    1SOL    HW3 8687   0.103   0.403   3.820  0.7898 -1.0404  0.7586
    1SOL    MW4 8688   0.026   0.365   3.836  0.2291 -0.0921  0.3636
    1SOL     OW 8689   0.260   0.475   3.733 -0.4587  0.2967  0.0351
    1SOL    HW2 8690   0.257   0.569   3.748 -1.4384  0.0442  1.5477
    1SOL    HW3 8691   0.249   0.465   3.638 -1.0378  1.6730 -0.0510
    1SOL    MW4 8692   0.258   0.486   3.722 -0.6644  0.4449  0.2234
    1SOL     OW 8693   0.246   0.722   3.848 -0.0853 -0.3136  0.2636
    1SOL    HW2 8694   0.240   0.706   3.942  0.1798 -0.9415  0.1767
    1SOL    HW3 8695   0.179   0.788   3.830  0.3073  0.2867  1.0027
    1SOL    MW4 8696   0.236   0.728   3.858  0.0015 -0.3173  0.3495
    1SOL     OW 8697   0.014   0.882   3.777 -0.0983  0.3174  0.2230
    1SOL    HW2 8698  -0.056   0.829   3.816 -0.6156  0.8030 -0.0534
    1SOL    HW3 8699   0.003   0.968   3.816  1.6463 -0.1377  1.7949
    1SOL    MW4 8700   0.003   0.886   3.788  0.0634  0.3214  0.3939
    1SOL     OW 8701   0.011   1.138   3.886 -0.0105 -0.0733 -0.0892
    1SOL    HW2 8702  -0.067   1.185   3.858  1.5181  4.0643  2.2607
    1SOL    HW3 8703  -0.005   1.115   3.977  1.3809  0.4793  0.3037
    1SOL    MW4 8704  -0.001   1.141   3.894  0.3748  0.5456  0.2730
    1SOL     OW 8705   0.255   1.230   3.762 -0.2377  0.7824  0.2982
    1SOL    HW2 8706   0.243   1.315   3.804  0.4741 -0.0732  2.2817
    1SOL    HW3 8707   0.183   1.177   3.795 -2.0960  1.2685 -2.7900
    1SOL    MW4 8708   0.244   1.234   3.772 -0.3890  0.7337  0.1526
    1SOL     OW 8709   0.216   1.492   3.868  0.3854 -0.0459  0.0305
    1SOL    HW2 8710   0.247   1.501   3.958  2.2160 -2.2729 -0.3139
    1SOL    HW3 8711   0.134   1.542   3.865  0.8968  1.0125  2.5993
    1SOL    MW4 8712   0.209   1.499   3.879  0.6944 -0.2002  0.3242
    1SOL     OW 8713   4.485   1.666   3.811 -0.5675  0.3370 -0.0745
    1SOL    HW2 8714   4.492   1.756   3.843 -0.7844 -0.1907  1.4924
    1SOL    HW3 8715   4.466   1.675   3.717 -2.8040  1.9289  0.5151
    1SOL    MW4 8716   4.484   1.679   3.803 -0.8912  0.4774  0.2100
    1SOL     OW 8717   4.478   1.915   3.901 -0.2669 -0.1196  0.6267
    1SOL    HW2 8718   4.474   1.914   3.996 -0.5186  1.3637  0.6521
    1SOL    HW3 8719   4.407   1.974   3.874  1.1569  1.1965 -0.3645
    1SOL    MW4 8720   4.468   1.923   3.910 -0.1121  0.2497  0.4992
    1SOL     OW 8721   0.202   2.062   3.789  0.6687  0.1723 -0.2744
    1SOL    HW2 8722   0.185   2.143   3.837 -0.2138 -0.0962 -0.1286
    1SOL    HW3 8723   0.131   2.003   3.815  1.2206 -0.5929 -0.5032
    1SOL    MW4 8724   0.190   2.065   3.798  0.6251  0.0358 -0.2856
    1SOL     OW 8725   0.207   2.315   3.893  0.5473  0.4298  0.1373
    1SOL    HW2 8726   0.206   2.312   3.989  0.8210  0.0244  0.1303
    1SOL    HW3 8727   0.133   2.370   3.870  0.9066  1.1165  0.6037
    1SOL    MW4 8728   0.197   2.322   3.902  0.6308  0.4668  0.1979
    1SOL     OW 8729   4.482   2.457   3.810 -0.6783 -0.1250 -0.0974
    1SOL    HW2 8730   4.398   2.412   3.815 -0.2346 -1.1963 -1.6416
    1SOL    HW3 8731   4.464   2.545   3.841 -2.1056 -0.6811  0.7165
    1SOL    MW4 8732   4.469   2.462   3.815 -0.8082 -0.3397 -0.1938
    1SOL     OW 8733   4.460   2.718   3.894 -0.0729 -0.6276 -0.2661
    1SOL    HW2 8734   4.470   2.705   3.988  0.4792  0.7493 -0.1307
    1SOL    HW3 8735   4.546   2.749   3.864 -0.5308 -0.1062 -1.0629
    1SOL    MW4 8736   4.473   2.720   3.902 -0.0610 -0.3769 -0.3533
    1SOL     OW 8737   0.203   2.820   3.773  0.4214  0.1062  0.3173
    1SOL    HW2 8738   0.267   2.765   3.819  1.4510  1.4775  0.5531
    1SOL    HW3 8739   0.226   2.811   3.680  0.8003  0.4015  0.3817
    1SOL    MW4 8740   0.215   2.811   3.767  0.6072  0.3262  0.3569
    1SOL     OW 8741   0.279   3.078   3.830 -0.5658 -0.0861  0.2643
    1SOL    HW2 8742   0.275   3.071   3.925  2.4917 -1.4609  0.3207
    1SOL    HW3 8743   0.264   2.989   3.798 -0.5472  0.1794 -0.4982
    1SOL    MW4 8744   0.276   3.066   3.838 -0.1599 -0.2325  0.1712
    1SOL     OW 8745   0.042   3.188   3.781  0.3977 -0.0107 -0.0715
    1SOL    HW2 8746   0.122   3.143   3.805  1.0932  0.4691 -1.4276
    1SOL    HW3 8747   0.026   3.163   3.690 -0.6131  0.4340 -0.0312
    1SOL    MW4 8748   0.050   3.179   3.772  0.3561  0.1111 -0.2453
    1SOL     OW 8749   4.478   3.460   3.854  0.0920  0.0729 -0.0236
    1SOL    HW2 8750   4.531   3.531   3.818 -1.2805  1.0477 -0.1556
    1SOL    HW3 8751   4.523   3.380   3.827  0.7118  0.8543 -1.3362
    1SOL    MW4 8752   4.491   3.459   3.846 -0.0076  0.3047 -0.2141
    1SOL     OW 8753   0.199   3.621   3.754  0.0296 -0.8325  0.2584
    1SOL    HW2 8754   0.270   3.565   3.784 -0.0665 -1.1974 -0.1952
    1SOL    HW3 8755   0.212   3.704   3.800  0.3084 -1.1489  0.7471
    1SOL    MW4 8756   0.210   3.625   3.764  0.0537 -0.9222  0.2630
    1SOL     OW 8757   0.222   3.865   3.883 -0.2060 -0.3024 -0.0906
    1SOL    HW2 8758   0.302   3.913   3.864 -0.8590  0.3888 -1.1891
    1SOL    HW3 8759   0.217   3.862   3.978  0.5429  0.6426 -0.0163
    1SOL    MW4 8760   0.232   3.871   3.893 -0.1933 -0.0865 -0.2258
    1SOL     OW 8761   0.015   3.998   3.754 -0.5250 -0.7982 -0.0255
    1SOL    HW2 8762  -0.055   3.942   3.786 -1.1095 -0.0431  0.0387
    1SOL    HW3 8763   0.096   3.955   3.782 -0.9617 -1.6419 -0.0552
    1SOL    MW4 8764   0.017   3.985   3.762 -0.6597 -0.8097 -0.0210
    1SOL     OW 8765   4.462   4.265   3.784  0.5521 -0.3205  0.0990
    1SOL    HW2 8766   4.546   4.310   3.790  0.9624 -1.1835  1.2763
    1SOL    HW3 8767   4.485   4.172   3.790 -0.5238 -0.5329  1.2415
    1SOL    MW4 8768   4.476   4.258   3.786  0.4640 -0.4621  0.4048
    1SOL     OW 8769   0.229   4.374   3.747  0.0236 -0.5673  0.4860
    1SOL    HW2 8770   0.308   4.344   3.792  0.5384 -0.8981 -0.6379
    1SOL    HW3 8771   0.225   4.468   3.767  0.9830 -0.4409  0.1350
    1SOL    MW4 8772   0.239   4.383   3.756  0.2181 -0.5941  0.2913
    1SOL     OW 8773   0.685   4.649   3.872 -0.5779  0.2065 -0.2976
    1SOL    HW2 8774   0.677   4.563   3.830  0.2421  0.0885 -0.2168
    1SOL    HW3 8775   0.610   4.699   3.839 -0.7161 -0.3391 -0.8186
    1SOL    MW4 8776   0.674   4.644   3.862 -0.4880  0.1192 -0.3555
    1SOL     OW 8777   0.472   0.109   3.743 -0.3477 -0.0771  0.3080
    1SOL    HW2 8778   0.459   0.198   3.777  0.1219  0.0914  0.0415
    1SOL    HW3 8779   0.403   0.057   3.786 -1.0020  0.5329  0.0099
    1SOL    MW4 8780   0.461   0.114   3.753 -0.3721  0.0256  0.2334
    1SOL     OW 8781   0.503   0.369   3.842  0.0573 -0.1683 -0.0477
    1SOL    HW2 8782   0.573   0.401   3.785 -0.0391  0.1205 -0.0053
    1SOL    HW3 8783   0.427   0.423   3.819 -0.1538 -0.4864 -0.0996
    1SOL    MW4 8784   0.502   0.380   3.831  0.0167 -0.1721 -0.0491
    1SOL     OW 8785   0.722   0.503   3.744 -0.0810  0.5046 -0.3427
    1SOL    HW2 8786   0.801   0.468   3.783 -0.5169 -0.5500 -0.3804
    1SOL    HW3 8787   0.702   0.582   3.794 -0.1576 -0.3585  0.9902
    1SOL    MW4 8788   0.730   0.509   3.755 -0.1487  0.2516 -0.1717
    1SOL     OW 8789   0.639   0.725   3.884  0.1571  0.5739 -0.0599
    1SOL    HW2 8790   0.719   0.770   3.858 -0.0214  0.8024 -0.2166
    1SOL    HW3 8791   0.569   0.774   3.841 -0.0793  0.4790  0.2169
    1SOL    MW4 8792   0.640   0.738   3.875  0.1023  0.5916 -0.0441
    1SOL     OW 8793   0.454   0.848   3.740 -0.3821  0.9023  0.1426
    1SOL    HW2 8794   0.457   0.934   3.781  0.6286  0.2500  1.4549
    1SOL    HW3 8795   0.379   0.805   3.780  0.2351  0.4927  0.8710
    1SOL    MW4 8796   0.444   0.853   3.750 -0.1673  0.7622  0.4120
    1SOL     OW 8797   0.460   1.089   3.901 -0.5962 -0.1665 -0.2516
    1SOL    HW2 8798   0.539   1.138   3.878  0.3412 -0.5481  1.9969
    1SOL    HW3 8799   0.392   1.124   3.843  1.0485  0.6713 -1.7124
    1SOL    MW4 8800   0.461   1.100   3.891 -0.2556 -0.1062 -0.1473
    1SOL     OW 8801   0.669   1.243   3.824 -0.3101  0.7731 -0.3386
    1SOL    HW2 8802   0.753   1.205   3.850 -0.9580 -1.3486 -1.2478
    1SOL    HW3 8803   0.663   1.228   3.730 -1.9843  0.2937 -0.1854
    1SOL    MW4 8804   0.679   1.236   3.815 -0.6164  0.4299 -0.4382
    1SOL     OW 8805   0.608   1.508   3.882 -0.2068 -0.0151  0.3004
    1SOL    HW2 8806   0.693   1.550   3.867 -0.6541  0.2825 -1.5236
    1SOL    HW3 8807   0.622   1.417   3.856 -0.6479  0.2144 -0.7703
    1SOL    MW4 8808   0.621   1.501   3.877 -0.3240  0.0545 -0.0815
    1SOL     OW 8809   0.411   1.663   3.777 -0.4412  0.1413 -0.3387
    1SOL    HW2 8810   0.482   1.602   3.795 -0.2298  0.7621  0.9607
    1SOL    HW3 8811   0.332   1.617   3.804 -0.3338  0.2489  0.1540
    1SOL    MW4 8812   0.410   1.649   3.783 -0.3991  0.2373 -0.1025
    1SOL     OW 8813   0.435   1.942   3.901 -0.1292 -0.1623 -0.1776
    1SOL    HW2 8814   0.428   1.850   3.875  1.1022 -0.5745  0.8915
    1SOL    HW3 8815   0.360   1.984   3.860 -1.3145 -1.8606  0.1688
    1SOL    MW4 8816   0.424   1.935   3.892 -0.1231 -0.4406  0.0088
    1SOL     OW 8817   0.669   2.054   3.808 -0.4444 -0.1190  0.0958
    1SOL    HW2 8818   0.661   2.143   3.842  0.4961  0.2818 -0.7256
    1SOL    HW3 8819   0.591   2.008   3.842 -1.7127  1.4056 -0.6823
    1SOL    MW4 8820   0.657   2.059   3.817 -0.4876  0.1347 -0.1152
    1SOL     OW 8821   0.675   2.297   3.900  0.4029 -0.3738 -0.4604
    1SOL    HW2 8822   0.751   2.325   3.849  0.0155 -0.5361 -1.1223
    1SOL    HW3 8823   0.603   2.350   3.867  0.6173  1.2181  1.5486
    1SOL    MW4 8824   0.675   2.307   3.889  0.3801 -0.1850 -0.2828
    1SOL     OW 8825   0.462   2.423   3.792 -0.2826 -0.3574 -0.2507
    1SOL    HW2 8826   0.383   2.392   3.835 -1.0024 -0.7620 -1.8324
    1SOL    HW3 8827   0.443   2.418   3.699  1.4832 -0.1335 -0.6534
    1SOL    MW4 8828   0.449   2.418   3.786 -0.1445 -0.3812 -0.5128
    1SOL     OW 8829   0.440   2.693   3.857 -0.1250  0.0871 -0.1456
    1SOL    HW2 8830   0.521   2.740   3.837  0.3250 -0.7174 -0.2082
    1SOL    HW3 8831   0.454   2.605   3.824 -0.3920 -0.5219  1.3259
    1SOL    MW4 8832   0.453   2.688   3.850 -0.1009 -0.0997  0.0405
    1SOL     OW 8833   0.659   2.849   3.783 -0.1391  0.5932 -0.1839
    1SOL    HW2 8834   0.731   2.795   3.814  0.0328  0.3628 -0.9940
    1SOL    HW3 8835   0.669   2.852   3.688 -1.9373 -0.5084 -0.4292
    1SOL    MW4 8836   0.670   2.843   3.775 -0.3537  0.4175 -0.3233
    1SOL     OW 8837   0.684   3.112   3.900 -0.2908  0.1986 -0.2305
    1SOL    HW2 8838   0.680   3.105   3.996  0.8590  1.2546 -0.0851
    1SOL    HW3 8839   0.664   3.024   3.868  0.5200 -0.4599  1.0270
    1SOL    MW4 8840   0.681   3.099   3.909 -0.0321  0.2508 -0.0455
    1SOL     OW 8841   0.494   3.234   3.756  0.2467 -0.4382 -0.1717
    1SOL    HW2 8842   0.566   3.196   3.806 -0.2109 -1.3931 -0.2251
    1SOL    HW3 8843   0.418   3.181   3.780 -0.2294 -0.0942 -0.9115
    1SOL    MW4 8844   0.493   3.222   3.766  0.1236 -0.5186 -0.2766
    1SOL     OW 8845   0.437   3.487   3.878  0.0227 -0.1342  0.1588
    1SOL    HW2 8846   0.509   3.549   3.866 -0.0115 -0.0023  0.6284
    1SOL    HW3 8847   0.460   3.413   3.823 -0.6887  0.9405 -1.6467
    1SOL    MW4 8848   0.450   3.486   3.869 -0.0757  0.0250 -0.0174
    1SOL     OW 8849   0.675   3.648   3.797 -0.7067  0.0722 -0.6858
    1SOL    HW2 8850   0.653   3.739   3.818 -0.7855 -0.1202  0.0720
    1SOL    HW3 8851   0.660   3.641   3.702 -0.0762  1.0205 -0.8620
    1SOL    MW4 8852   0.670   3.659   3.787 -0.6339  0.1719 -0.6089
    1SOL     OW 8853   0.661   3.910   3.864  0.0299  0.2277  0.2023
    1SOL    HW2 8854   0.677   3.906   3.958  0.8662 -0.6132  0.0317
    1SOL    HW3 8855   0.747   3.895   3.824 -0.5178 -0.6379 -0.6922
    1SOL    MW4 8856   0.675   3.907   3.871  0.0679  0.0026  0.0618
    1SOL     OW 8857   0.420   4.030   3.818 -0.1024  0.0427  0.1104
    1SOL    HW2 8858   0.505   3.996   3.846 -0.6385  0.0394  1.7889
    1SOL    HW3 8859   0.427   4.035   3.723  2.0269  0.7304  0.2706
    1SOL    MW4 8860   0.432   4.026   3.809  0.1078  0.1326  0.3531
    1SOL     OW 8861   0.453   4.294   3.884 -0.6071  0.1500  0.3881
    1SOL    HW2 8862   0.532   4.318   3.836 -0.5539  0.3370  0.5667
    1SOL    HW3 8863   0.439   4.202   3.864  0.1926 -0.1300  1.1046
    1SOL    MW4 8864   0.461   4.285   3.875 -0.4946  0.1378  0.5062
    1SOL     OW 8865   0.668   4.398   3.745 -0.1837  0.3174  0.2269
    1SOL    HW2 8866   0.746   4.358   3.784 -0.2696  1.5010  1.6986
    1SOL    HW3 8867   0.694   4.419   3.655  1.4372  1.2767  0.8847
    1SOL    MW4 8868   0.682   4.396   3.738  0.0189  0.6003  0.5078
    1SOL     OW 8869   1.149   0.008   3.854  0.2160 -0.2181  0.0867
    1SOL    HW2 8870   1.232   0.049   3.832  0.9504 -2.5235 -1.7185
    1SOL    HW3 8871   1.158  -0.082   3.822 -2.5641 -0.8069  0.8358
    1SOL    MW4 8872   1.161   0.001   3.847 -0.0539 -0.5999 -0.0525
    1SOL     OW 8873   0.915   0.119   3.774 -0.1422 -0.0199 -0.0155
    1SOL    HW2 8874   0.996   0.070   3.790 -0.8018 -1.2512 -0.4745
    1SOL    HW3 8875   0.847   0.070   3.820 -1.0230 -0.2355 -1.5114
    1SOL    MW4 8876   0.917   0.106   3.782 -0.3455 -0.2108 -0.2732
    1SOL     OW 8877   0.969   0.386   3.842  0.0271  0.2464 -0.2087
    1SOL    HW2 8878   1.009   0.366   3.927  0.6679  0.3768 -0.4775
    1SOL    HW3 8879   0.934   0.302   3.812 -0.7608  0.3348  0.4797
    1SOL    MW4 8880   0.970   0.372   3.849  0.0077  0.2753 -0.1535
    1SOL     OW 8881   1.213   0.504   3.741  0.1508  0.0627  0.0898
    1SOL    HW2 8882   1.295   0.457   3.753 -0.0060 -0.2064  0.1262
    1SOL    HW3 8883   1.147   0.446   3.780 -0.1815 -0.1906 -0.8309
    1SOL    MW4 8884   1.215   0.490   3.747  0.0862 -0.0063 -0.0267
    1SOL     OW 8885   1.120   0.741   3.889 -0.4164 -0.0343  0.5144
    1SOL    HW2 8886   1.120   0.725   3.984 -1.9316 -1.4139  0.2946
    1SOL    HW3 8887   1.145   0.657   3.851 -0.6059  0.3070 -0.3578
    1SOL    MW4 8888   1.124   0.728   3.897 -0.6413 -0.1712  0.3705
    1SOL     OW 8889   0.877   0.848   3.804 -0.0566 -0.5249  0.1190
    1SOL    HW2 8890   0.956   0.795   3.816 -0.2278 -1.0986 -1.1464
    1SOL    HW3 8891   0.877   0.869   3.711 -0.3465  1.1621  0.4912
    1SOL    MW4 8892   0.888   0.843   3.793 -0.1175 -0.3781  0.0010
    1SOL     OW 8893   0.915   1.119   3.880 -0.2386 -0.4853  0.3419
    1SOL    HW2 8894   0.920   1.104   3.974  3.2154 -0.3074  0.2711
    1SOL    HW3 8895   0.892   1.034   3.843 -1.3874 -0.6068  1.2956
    1SOL    MW4 8896   0.913   1.106   3.887  0.0656 -0.4778  0.4585
    1SOL     OW 8897   1.110   1.296   3.788 -0.1472  0.3661  0.1649
    1SOL    HW2 8898   1.091   1.377   3.835 -0.7234  0.3567 -0.0509
    1SOL    HW3 8899   1.046   1.233   3.822 -0.0252  0.1371 -0.0293
    1SOL    MW4 8900   1.099   1.298   3.798 -0.2072  0.3346  0.1104
    1SOL     OW 8901   1.099   1.543   3.904 -0.3512 -0.3556  0.0869
    1SOL    HW2 8902   1.109   1.525   3.998  0.3445 -0.3120  0.0290
    1SOL    HW3 8903   1.187   1.570   3.876 -0.3205 -1.3289 -0.7818
    1SOL    MW4 8904   1.112   1.544   3.913 -0.2555 -0.4783 -0.0355
    1SOL     OW 8905   0.850   1.641   3.816 -0.4485 -0.1858 -0.0259
    1SOL    HW2 8906   0.939   1.626   3.848 -0.4877 -0.8086 -0.2023
    1SOL    HW3 8907   0.858   1.636   3.721 -0.9947 -2.1080  0.0116
    1SOL    MW4 8908   0.863   1.638   3.807 -0.5258 -0.5215 -0.0446
    1SOL     OW 8909   0.875   1.907   3.887  0.5486  0.0397 -0.1162
    1SOL    HW2 8910   0.870   1.821   3.845 -0.7892 -0.1256  0.3570
    1SOL    HW3 8911   0.796   1.952   3.859  1.7679  1.5396 -1.2389
    1SOL    MW4 8912   0.864   1.901   3.878  0.5330  0.2159 -0.2019
    1SOL     OW 8913   1.081   2.051   3.786  0.2294  0.0359 -0.1638
    1SOL    HW2 8914   1.004   2.003   3.815  1.7241 -2.1429  0.3403
    1SOL    HW3 8915   1.086   2.033   3.692 -0.2589  0.7720 -0.3381
    1SOL    MW4 8916   1.072   2.042   3.777  0.3623 -0.1547 -0.1202
    1SOL     OW 8917   1.111   2.305   3.879  0.0987 -0.1661  0.7413
    1SOL    HW2 8918   1.094   2.298   3.973  1.5443 -3.0028  0.8556
    1SOL    HW3 8919   1.098   2.216   3.846  1.8090  0.3231 -1.3381
    1SOL    MW4 8920   1.107   2.293   3.887  0.5152 -0.4759  0.4823
    1SOL     OW 8921   0.882   2.433   3.764  0.0216 -0.0604 -0.5493
    1SOL    HW2 8922   0.865   2.522   3.794 -0.4293 -0.7461  1.3112
    1SOL    HW3 8923   0.958   2.404   3.815 -2.4766 -2.2320  2.1501
    1SOL    MW4 8924   0.890   2.441   3.775 -0.3675 -0.4373  0.0525
    1SOL     OW 8925   0.875   2.689   3.850 -0.4347  0.0425  0.7325
    1SOL    HW2 8926   0.874   2.685   3.945  0.5614 -1.2829  0.7006
    1SOL    HW3 8927   0.955   2.737   3.828 -1.4217  1.6672  0.5794
    1SOL    MW4 8928   0.885   2.695   3.860 -0.4335  0.0823  0.7081
    1SOL     OW 8929   1.099   2.819   3.738  0.5441  0.2307  0.0328
    1SOL    HW2 8930   1.172   2.771   3.777 -0.7569 -1.3021  0.6298
    1SOL    HW3 8931   1.112   2.910   3.767  0.7303 -0.5081  2.3780
    1SOL    MW4 8932   1.110   2.825   3.747  0.3972 -0.0689  0.4210
    1SOL     OW 8933   1.113   3.064   3.871 -0.1068  0.2614 -0.1437
    1SOL    HW2 8934   1.191   3.114   3.847 -0.0867  0.0017 -0.6288
    1SOL    HW3 8935   1.041   3.116   3.834 -0.2234  0.9063  0.9733
    1SOL    MW4 8936   1.114   3.078   3.863 -0.1193  0.3123 -0.0601
    1SOL     OW 8937   0.906   3.223   3.784  0.0255 -0.2413  0.4351
    1SOL    HW2 8938   0.828   3.185   3.824 -0.1735 -0.5522 -0.2353
    1SOL    HW3 8939   0.885   3.227   3.690  0.7202 -0.1010  0.2839
    1SOL    MW4 8940   0.893   3.219   3.777  0.0909 -0.2639  0.3269
    1SOL     OW 8941   0.899   3.504   3.890 -0.0870 -0.1230  0.2556
    1SOL    HW2 8942   0.890   3.424   3.839 -0.4940  0.4139 -0.5407
    1SOL    HW3 8943   0.816   3.551   3.875  1.1554  1.6416 -1.4357
    1SOL    MW4 8944   0.887   3.500   3.881  0.0232  0.1810 -0.0725
    1SOL     OW 8945   1.168   3.573   3.779  0.2104 -0.3617  0.1357
    1SOL    HW2 8946   1.162   3.669   3.786  1.2619 -0.3303  0.7080
    1SOL    HW3 8947   1.087   3.541   3.820 -0.3386  0.2840 -0.4204
    1SOL    MW4 8948   1.156   3.582   3.785  0.2768 -0.2720  0.1378
    1SOL     OW 8949   1.131   3.836   3.811  0.2464  0.0539  0.3165
    1SOL    HW2 8950   1.134   3.838   3.907  2.3485 -0.8905  0.3000
    1SOL    HW3 8951   1.205   3.891   3.784  1.6308 -2.2736 -0.7294
    1SOL    MW4 8952   1.141   3.844   3.820  0.7063 -0.3779  0.1764
    1SOL     OW 8953   0.910   3.999   3.727 -0.1748 -0.1338  0.2510
    1SOL    HW2 8954   0.977   3.945   3.769  0.0503  0.2257  0.3636
    1SOL    HW3 8955   0.926   3.990   3.634 -0.0999 -0.2166  0.2724
    1SOL    MW4 8956   0.921   3.991   3.721 -0.1352 -0.0973  0.2687
    1SOL     OW 8957   0.899   4.280   3.839  0.9301 -0.1847  0.0900
    1SOL    HW2 8958   0.903   4.277   3.934  0.7783 -1.7814  0.0650
    1SOL    HW3 8959   0.869   4.192   3.813  0.2200  0.4659 -1.3835
    1SOL    MW4 8960   0.896   4.268   3.848  0.8164 -0.3095 -0.1078
    1SOL     OW 8961   1.132   4.413   3.755  0.5306 -0.3134  0.5663
    1SOL    HW2 8962   1.046   4.373   3.767 -0.0039  0.4006 -0.8324
    1SOL    HW3 8963   1.148   4.410   3.661  1.3205  1.0420  0.6357
    1SOL    MW4 8964   1.123   4.407   3.744  0.5642 -0.0405  0.3910
    1SOL     OW 8965   1.604   4.633   3.863 -0.0754  0.2158  0.1462
    1SOL    HW2 8966   1.588   4.632   3.957  0.2091 -1.7284  0.1847
    1SOL    HW3 8967   1.575   4.547   3.832  0.8372  0.4287 -1.3696
    1SOL    MW4 8968   1.598   4.622   3.871  0.0825 -0.0129 -0.0482
    1SOL     OW 8969   1.394   0.153   3.802  0.4487 -0.0144 -0.2196
    1SOL    HW2 8970   1.412   0.245   3.823 -0.9849  0.4971 -1.1558
    1SOL    HW3 8971   1.477   0.108   3.816  0.8766  1.2198  1.3693
    1SOL    MW4 8972   1.407   0.159   3.807  0.3161  0.2159 -0.1333
    1SOL     OW 8973   1.487   0.417   3.799 -0.2961  0.6427  0.2975
    1SOL    HW2 8974   1.574   0.384   3.823 -0.6457 -1.1808 -0.8241
    1SOL    HW3 8975   1.501   0.508   3.775  1.7356 -0.2173 -2.0177
    1SOL    MW4 8976   1.500   0.424   3.799 -0.0741  0.2887 -0.1562
    1SOL     OW 8977   1.527   0.700   3.745  0.7105  0.0715 -0.4118
    1SOL    HW2 8978   1.609   0.749   3.741  0.5854  0.2371 -1.0667
    1SOL    HW3 8979   1.469   0.754   3.797  1.4418 -0.6854  1.2175
    1SOL    MW4 8980   1.530   0.714   3.751  0.7906 -0.0066 -0.2832
    1SOL     OW 8981   1.497   0.750   4.085 -0.4764 -0.3528  0.0321
    1SOL    HW2 8982   1.581   0.795   4.089 -0.1857 -0.6152 -2.2154
    1SOL    HW3 8983   1.445   0.804   4.024 -1.5165 -0.8334  0.4933
    1SOL    MW4 8984   1.501   0.763   4.077 -0.5755 -0.4508 -0.2031
    1SOL     OW 8985   1.359   0.881   3.877  0.0010  0.1533  0.2131
    1SOL    HW2 8986   1.355   0.970   3.841  0.4415  0.4317  0.8444
    1SOL    HW3 8987   1.270   0.848   3.867 -0.2166  0.7438  0.1465
    1SOL    MW4 8988   1.346   0.889   3.871  0.0304  0.2680  0.2875
    1SOL     OW 8989   1.328   1.099   3.729  0.0771  0.2094  0.0719
    1SOL    HW2 8990   1.409   1.149   3.726 -0.3848  1.0219  0.9218
    1SOL    HW3 8991   1.261   1.162   3.757 -1.1503 -0.0662 -2.1377
    1SOL    MW4 8992   1.330   1.114   3.733 -0.1458  0.2804 -0.1075
    1SOL     OW 8993   1.565   1.230   3.737 -0.5983 -0.3895 -0.2981
    1SOL    HW2 8994   1.652   1.199   3.763 -0.8861 -1.0111 -0.0677
    1SOL    HW3 8995   1.555   1.314   3.783 -0.5002 -0.7741  0.4331
    1SOL    MW4 8996   1.575   1.237   3.747 -0.6233 -0.5224 -0.1712
    1SOL     OW 8997   1.533   1.500   3.849 -0.1866 -0.0356 -0.0465
    1SOL    HW2 8998   1.536   1.502   3.944 -0.5394 -0.5554 -0.0188
    1SOL    HW3 8999   1.613   1.543   3.821 -0.3729  0.6643  0.4812
    1SOL    MW4 9000   1.544   1.506   3.858 -0.2576 -0.0118  0.0267
    1SOL     OW 9001   1.320   1.643   3.792  0.0686  0.0000  0.1341
    1SOL    HW2 9002   1.329   1.735   3.818 -0.2278  0.2466 -0.6241
    1SOL    HW3 9003   1.408   1.606   3.804  0.1751  0.3635  0.4988
    1SOL    MW4 9004   1.333   1.650   3.797  0.0434  0.0805  0.0818
    1SOL     OW 9005   1.318   1.895   3.876 -0.6175 -0.1632  0.0848
    1SOL    HW2 9006   1.315   1.891   3.972 -0.3072  1.1666  0.1530
    1SOL    HW3 9007   1.231   1.926   3.851 -0.4319  0.2667 -0.0237
    1SOL    MW4 9008   1.306   1.898   3.886 -0.5519  0.0690  0.0799
    1SOL     OW 9009   1.538   2.041   3.785 -0.1960  0.1153  0.2313
    1SOL    HW2 9010   1.460   1.992   3.811  0.1674 -0.8912 -0.5757
    1SOL    HW3 9011   1.546   2.027   3.691  1.6407 -0.7651  0.4966
    1SOL    MW4 9012   1.529   2.033   3.776  0.0943 -0.1338  0.1597
    1SOL     OW 9013   1.565   2.314   3.920 -0.1461 -0.4921  0.3966
    1SOL    HW2 9014   1.533   2.304   4.009  0.8020 -2.5894  0.5327
    1SOL    HW3 9015   1.568   2.224   3.886 -0.9136  0.3121 -1.8882
    1SOL    MW4 9016   1.561   2.301   3.927 -0.1222 -0.6628  0.1130
    1SOL     OW 9017   1.357   2.412   3.760  0.1688  0.3002 -0.0498
    1SOL    HW2 9018   1.433   2.388   3.812 -0.3924 -0.0563  0.6075
    1SOL    HW3 9019   1.288   2.352   3.788  0.0718 -0.4343 -1.7472
    1SOL    MW4 9020   1.358   2.401   3.770  0.0821  0.1562 -0.1872
    1SOL     OW 9021   1.320   2.675   3.842  0.5043  0.4122 -0.0197
    1SOL    HW2 9022   1.328   2.680   3.937 -0.9963  1.3566  0.0751
    1SOL    HW3 9023   1.330   2.583   3.821  0.6187  0.1743  1.0780
    1SOL    MW4 9024   1.322   2.664   3.852  0.3214  0.5052  0.1378
    1SOL     OW 9025   1.565   2.818   3.771 -0.3601  0.4042 -0.0216
    1SOL    HW2 9026   1.485   2.769   3.790  0.3324 -0.8173 -0.2694
    1SOL    HW3 9027   1.573   2.816   3.676  0.2627  0.0459  0.0347
    1SOL    MW4 9028   1.555   2.812   3.761 -0.1866  0.1957 -0.0470
    1SOL     OW 9029   1.577   3.094   3.824  0.0224  0.7029  0.0749
    1SOL    HW2 9030   1.591   3.098   3.919  0.1752 -0.2621  0.1039
    1SOL    HW3 9031   1.572   3.000   3.805 -1.3355  0.9232 -0.6835
    1SOL    MW4 9032   1.578   3.082   3.834 -0.1365  0.6046 -0.0212
    1SOL     OW 9033   1.325   3.207   3.775 -0.5048  0.1366  0.0502
    1SOL    HW2 9034   1.341   3.292   3.815 -0.9296 -0.2052  0.9458
    1SOL    HW3 9035   1.407   3.158   3.789 -0.6523  0.0174  0.5095
    1SOL    MW4 9036   1.338   3.212   3.782 -0.5802  0.0756  0.2289
    1SOL     OW 9037   1.367   3.472   3.906  0.3424 -0.3239 -0.0247
    1SOL    HW2 9038   1.438   3.485   3.844  0.4424  0.5828  0.2740
    1SOL    HW3 9039   1.293   3.519   3.867 -0.4063 -2.1462 -0.8625
    1SOL    MW4 9040   1.366   3.480   3.893  0.2569 -0.4449 -0.0958
    1SOL     OW 9041   1.573   3.562   3.759 -0.6875  0.0593  0.1321
    1SOL    HW2 9042   1.643   3.516   3.805 -2.1805 -1.7410  0.6420
    1SOL    HW3 9043   1.575   3.651   3.795  1.1789 -0.0280  0.2933
    1SOL    MW4 9044   1.583   3.568   3.770 -0.6384 -0.1898  0.2205
    1SOL     OW 9045   1.569   3.830   3.840  0.0258  0.1284  0.0783
    1SOL    HW2 9046   1.560   3.843   3.935 -1.1166 -0.1553  0.0252
    1SOL    HW3 9047   1.492   3.873   3.803  1.7758  2.4899 -0.9505
    1SOL    MW4 9048   1.557   3.838   3.848  0.1057  0.4027 -0.0646
    1SOL     OW 9049   1.354   3.969   3.728  0.1886 -0.6699 -0.6361
    1SOL    HW2 9050   1.346   4.058   3.763 -1.4659 -1.3254  0.7357
    1SOL    HW3 9051   1.348   3.980   3.633  1.5417  0.8224 -0.5803
    1SOL    MW4 9052   1.352   3.982   3.720  0.1489 -0.5596 -0.4478
    1SOL     OW 9053   1.323   4.221   3.838  0.3447 -0.2845  0.2930
    1SOL    HW2 9054   1.401   4.272   3.819  0.9244 -1.2373  0.1127
    1SOL    HW3 9055   1.250   4.280   3.819  0.9784 -0.0628 -1.4895
    1SOL    MW4 9056   1.323   4.235   3.833  0.5050 -0.3810  0.0343
    1SOL     OW 9057   1.583   4.356   3.771  0.3490  0.0526 -0.5212
    1SOL    HW2 9058   1.659   4.301   3.791 -0.7004 -0.9580  0.7883
    1SOL    HW3 9059   1.586   4.368   3.676  0.9203 -1.8020 -0.7607
    1SOL    MW4 9060   1.593   4.350   3.761  0.2859 -0.3247 -0.3800
    1SOL     OW 9061   2.030   4.627   3.910  0.3445 -0.3276  0.2727
    1SOL    HW2 9062   2.102   4.674   3.869 -0.0920 -0.4379 -0.6255
    1SOL    HW3 9063   2.024   4.545   3.860 -1.7471  0.5775 -1.0129
    1SOL    MW4 9064   2.039   4.622   3.898  0.0107 -0.2222 -0.0155
    1SOL     OW 9065   1.831   0.062   3.729 -0.0193 -0.1490 -0.2911
    1SOL    HW2 9066   1.910   0.035   3.774 -0.6223  1.0518  1.5614
    1SOL    HW3 9067   1.761   0.011   3.771 -0.4474  0.1678 -0.6196
    1SOL    MW4 9068   1.832   0.052   3.741 -0.1553  0.0512 -0.0904
    1SOL     OW 9069   1.750   0.329   3.834 -0.2110 -0.2050  0.1413
    1SOL    HW2 9070   1.768   0.331   3.928 -1.3734 -0.5703  0.3810
    1SOL    HW3 9071   1.781   0.242   3.806  0.7916  0.1822  0.0488
    1SOL    MW4 9072   1.757   0.318   3.843 -0.2321 -0.2021  0.1607
    1SOL     OW 9073   2.028   0.450   3.751 -0.0977  0.0433  0.2249
    1SOL    HW2 9074   1.942   0.418   3.776  0.2445  0.1715  1.6209
    1SOL    HW3 9075   2.030   0.443   3.656 -1.2716 -0.8955  0.2611
    1SOL    MW4 9076   2.017   0.445   3.742 -0.2077 -0.0637  0.4137
    1SOL     OW 9077   1.980   0.721   3.807  0.0780 -0.0565  0.7151
    1SOL    HW2 9078   1.982   0.716   3.902 -1.0720  0.2465  0.7592
    1SOL    HW3 9079   1.999   0.632   3.778 -1.9705 -0.7000  1.2688
    1SOL    MW4 9080   1.983   0.709   3.815 -0.3440 -0.1014  0.7942
    1SOL     OW 9081   1.755   0.877   3.756 -0.4074  0.0946  0.3723
    1SOL    HW2 9082   1.828   0.823   3.784  0.2459  0.7056 -0.1351
    1SOL    HW3 9083   1.759   0.875   3.660 -0.4750  0.9047  0.3498
    1SOL    MW4 9084   1.765   0.870   3.747 -0.3301  0.2820  0.3026
    1SOL     OW 9085   1.814   1.149   3.814 -0.1606 -0.1848  0.0116
    1SOL    HW2 9086   1.786   1.146   3.905  0.2896 -0.6845  0.1343
    1SOL    HW3 9087   1.808   1.058   3.784  0.9875 -0.2403 -0.0616
    1SOL    MW4 9088   1.809   1.137   3.822  0.0503 -0.2581  0.0184
    1SOL     OW 9089   2.048   1.277   3.709  0.2458 -0.5896 -0.0183
    1SOL    HW2 9090   2.133   1.232   3.711  0.6524  0.2145  1.8774
    1SOL    HW3 9091   1.988   1.217   3.754 -0.0474 -0.8824 -0.8026
    1SOL    MW4 9092   2.052   1.263   3.715  0.2611 -0.5221  0.1285
    1SOL     OW 9093   2.018   1.507   3.878 -0.3685  0.0901  1.2899
    1SOL    HW2 9094   1.937   1.547   3.846  0.3363  0.4348 -0.0852
    1SOL    HW3 9095   2.024   1.423   3.833 -0.3575 -0.2879  1.9858
    1SOL    MW4 9096   2.009   1.501   3.868 -0.2742  0.0856  1.2002
    1SOL     OW 9097   1.768   1.611   3.781  0.4144  0.1972  0.1789
    1SOL    HW2 9098   1.763   1.700   3.815  0.2085 -0.2916  1.4825
    1SOL    HW3 9099   1.753   1.620   3.687 -0.1098  1.4829  0.3739
    1SOL    MW4 9100   1.765   1.624   3.773  0.3182  0.3023  0.3767
    1SOL     OW 9101   1.781   1.871   3.882 -0.4987 -0.2039 -0.4449
    1SOL    HW2 9102   1.711   1.922   3.841  0.6171  1.2341 -0.5811
    1SOL    HW3 9103   1.862   1.909   3.848  0.3864 -0.7645  1.0031
    1SOL    MW4 9104   1.783   1.883   3.872 -0.2346 -0.0881 -0.2716
    1SOL     OW 9105   1.987   2.275   3.868 -0.2079  0.0811 -0.0956
    1SOL    HW2 9106   2.075   2.307   3.846  0.3993 -1.5998 -0.1113
    1SOL    HW3 9107   1.965   2.320   3.950  1.2928 -0.6797  0.7346
    1SOL    MW4 9108   1.995   2.285   3.876  0.0702 -0.2410  0.0119
    1SOL     OW 9109   2.214   2.380   3.768  0.0446  0.7858 -0.4889
    1SOL    HW2 9110   2.228   2.388   3.673  1.3270  0.6653 -0.3138
    1SOL    HW3 9111   2.299   2.355   3.803 -0.2114  1.6861  0.8048
    1SOL    MW4 9112   2.227   2.378   3.760  0.1802  0.8888 -0.2952
    1SOL     OW 9113   1.766   2.425   3.769 -0.1537  0.1208  0.0135
    1SOL    HW2 9114   1.844   2.376   3.796 -0.5917 -2.0825 -2.5525
    1SOL    HW3 9115   1.694   2.385   3.818 -0.2072 -0.3133 -0.4257
    1SOL    MW4 9116   1.767   2.413   3.779 -0.2186 -0.2272 -0.3829
    1SOL     OW 9117   3.196   2.592   4.533  0.6255 -0.1831  0.2700
    1SOL    HW2 9118   3.106   2.603   4.565  0.2561 -0.6898 -0.5863
    1SOL    HW3 9119   3.232   2.681   4.535 -0.4453  0.3136 -0.9604
    1SOL    MW4 9120   3.189   2.605   4.537  0.4351 -0.1845 -0.0052
    1SOL     OW 9121   2.015   3.093   3.817  0.5896 -0.0913  0.7749
    1SOL    HW2 9122   2.086   3.150   3.785  0.1321 -0.3260 -0.6993
    1SOL    HW3 9123   2.017   3.104   3.912  1.3665  1.3821  0.6129
    1SOL    MW4 9124   2.025   3.102   3.825  0.6318  0.0720  0.5591
    1SOL     OW 9125   2.040   2.810   3.751  0.3121  0.0925 -0.2219
    1SOL    HW2 9126   2.040   2.904   3.769 -0.5934 -0.3074  2.1230
    1SOL    HW3 9127   1.947   2.785   3.752  0.5501 -0.8321 -0.7349
    1SOL    MW4 9128   2.028   2.819   3.754  0.2241 -0.0823  0.0200
    1SOL     OW 9129   1.791   3.235   3.731 -0.4040 -0.2990  0.0470
    1SOL    HW2 9130   1.860   3.172   3.753  0.3594  0.7650  0.7384
    1SOL    HW3 9131   1.709   3.186   3.743  0.2267 -1.7404 -1.3289
    1SOL    MW4 9132   1.789   3.220   3.736 -0.2201 -0.3488 -0.0436
    1SOL     OW 9133   1.795   3.458   3.857 -0.1723 -0.1858  0.5061
    1SOL    HW2 9134   1.875   3.507   3.837  0.5542 -1.0890  1.1221
    1SOL    HW3 9135   1.806   3.374   3.811 -1.0047 -0.1088  0.1649
    1SOL    MW4 9136   1.807   3.453   3.848 -0.1862 -0.2947  0.5422
    1SOL     OW 9137   2.026   3.593   3.761  0.3009 -0.2233  0.0691
    1SOL    HW2 9138   2.103   3.543   3.789  0.4730 -0.0132 -0.0153
    1SOL    HW3 9139   2.039   3.605   3.667  1.2900  1.6758  0.4029
    1SOL    MW4 9140   2.038   3.588   3.752  0.4542  0.0551  0.1023
    1SOL     OW 9141   2.036   3.835   3.916  0.2035 -0.2125  0.7526
    1SOL    HW2 9142   2.093   3.891   3.863 -1.9385  1.7519  0.4058
    1SOL    HW3 9143   2.037   3.750   3.871  1.2986  0.3559 -0.3373
    1SOL    MW4 9144   2.044   3.831   3.903  0.0656  0.1216  0.5629
    1SOL     OW 9145   1.806   3.972   3.780  0.0491 -0.4851  0.6723
    1SOL    HW2 9146   1.868   3.914   3.823 -0.4323 -0.7183  1.0654
    1SOL    HW3 9147   1.723   3.923   3.781  0.0915 -0.6146 -0.7726
    1SOL    MW4 9148   1.803   3.958   3.786 -0.0087 -0.5329  0.5336
    1SOL     OW 9149   1.802   4.217   3.892  0.3075  0.0239  0.0706
    1SOL    HW2 9150   1.869   4.270   3.848 -0.2118  0.5559 -0.0814
    1SOL    HW3 9151   1.811   4.130   3.853  0.5052  0.2485 -0.3916
    1SOL    MW4 9152   1.812   4.213   3.881  0.2651  0.1240 -0.0105
    1SOL     OW 9153   2.005   4.411   3.757  0.4002  0.4105  0.1246
    1SOL    HW2 9154   2.078   4.361   3.794  0.2974  0.2693  0.1395
    1SOL    HW3 9155   2.019   4.407   3.662  0.2849  0.1871  0.1165
    1SOL    MW4 9156   2.016   4.404   3.749  0.3715  0.3624  0.1254
    1SOL     OW 9157   2.482   4.640   3.837  0.1553  0.2925  0.1807
    1SOL    HW2 9158   2.464   4.651   3.930 -1.3220  0.3447 -0.1015
    1SOL    HW3 9159   2.477   4.546   3.821 -0.4330  0.3582 -0.0163
    1SOL    MW4 9160   2.479   4.629   3.847 -0.1171  0.3080  0.1173
    1SOL     OW 9161   2.243   0.070   3.749 -0.4426 -0.1239 -0.3921
    1SOL    HW2 9162   2.326   0.039   3.783  0.1145  1.3045 -0.4504
    1SOL    HW3 9163   2.258   0.081   3.655 -0.3140  1.3533 -0.2066
    1SOL    MW4 9164   2.256   0.067   3.741 -0.3521  0.2595 -0.3753
    1SOL     OW 9165   2.261   0.330   3.848  0.8460  0.4217 -0.2846
    1SOL    HW2 9166   2.252   0.238   3.825  0.4552  0.3009  0.3571
    1SOL    HW3 9167   2.183   0.372   3.813  0.6247  0.3700  0.1508
    1SOL    MW4 9168   2.250   0.323   3.840  0.7653  0.3989 -0.1426
    1SOL     OW 9169   2.458   0.500   3.734 -0.7321  0.5680 -0.0841
    1SOL    HW2 9170   2.390   0.446   3.773  1.5096 -2.3778 -0.1217
    1SOL    HW3 9171   2.442   0.496   3.640 -1.8956  1.8599  0.0392
    1SOL    MW4 9172   2.447   0.493   3.727 -0.5898  0.3498 -0.0727
    1SOL     OW 9173   2.481   0.757   3.810 -0.0989 -0.4111 -0.4046
    1SOL    HW2 9174   2.396   0.796   3.791 -0.5401 -1.2446 -0.1846
    1SOL    HW3 9175   2.472   0.666   3.781  0.9754 -0.3045 -1.1155
    1SOL    MW4 9176   2.469   0.750   3.803 -0.0155 -0.5070 -0.4694
    1SOL     OW 9177   2.222   0.816   3.731 -0.5345  0.2464  0.0749
    1SOL    HW2 9178   2.135   0.788   3.761 -0.0492 -1.8099 -0.3920
    1SOL    HW3 9179   2.214   0.819   3.636 -0.2824  0.7366  0.0668
    1SOL    MW4 9180   2.209   0.813   3.722 -0.4373  0.0398  0.0124
    1SOL     OW 9181   2.256   1.089   3.798  0.0640 -0.2779  0.1095
    1SOL    HW2 9182   2.226   1.105   3.887  1.7021 -0.6283  0.7533
    1SOL    HW3 9183   2.244   0.995   3.784  0.6610 -0.3897  0.3098
    1SOL    MW4 9184   2.251   1.079   3.808  0.3588 -0.3389  0.2210
    1SOL     OW 9185   2.470   1.256   3.740 -0.2026 -0.3766 -0.5926
    1SOL    HW2 9186   2.467   1.332   3.798  0.4657  1.6347 -3.1029
    1SOL    HW3 9187   2.400   1.199   3.772 -1.1611  1.5935  0.9454
    1SOL    MW4 9188   2.460   1.258   3.752 -0.2408  0.1488 -0.7207
    1SOL     OW 9189   2.482   1.505   3.873  0.0148  0.1951  0.5069
    1SOL    HW2 9190   2.556   1.541   3.824 -0.2335  2.3545  1.6656
    1SOL    HW3 9191   2.405   1.542   3.830 -0.4416 -1.9278 -0.6034
    1SOL    MW4 9192   2.482   1.514   3.861 -0.0784  0.1999  0.5136
    1SOL     OW 9193   2.250   1.621   3.740  0.1338  0.2038  0.6964
    1SOL    HW2 9194   2.246   1.712   3.769  0.8208  0.1917  0.8371
    1SOL    HW3 9195   2.201   1.572   3.807 -1.7315  0.6769 -0.2840
    1SOL    MW4 9196   2.243   1.626   3.753 -0.0219  0.2646  0.5856
    1SOL     OW 9197   2.253   1.896   3.831  0.4061 -0.1165 -0.1967
    1SOL    HW2 9198   2.169   1.939   3.823  0.5715  0.2948  0.2820
    1SOL    HW3 9199   2.318   1.963   3.808  0.6582 -0.1270  0.4823
    1SOL    MW4 9200   2.251   1.910   3.827  0.4611 -0.0635 -0.0439
    1SOL     OW 9201   2.467   2.048   3.761 -0.1378  0.0305  0.0219
    1SOL    HW2 9202   2.461   2.064   3.667  0.6013  0.9880  0.1375
    1SOL    HW3 9203   2.537   1.982   3.770  0.3816  0.5738 -0.0301
    1SOL    MW4 9204   2.475   2.041   3.750  0.0281  0.2284  0.0300
    1SOL     OW 9205   2.238   2.635   3.886  0.1946 -0.1539 -0.0245
    1SOL    HW2 9206   2.171   2.699   3.861  1.7874  1.9651  0.9128
    1SOL    HW3 9207   2.215   2.556   3.837 -1.1858  1.4743 -2.1353
    1SOL    MW4 9208   2.226   2.633   3.876  0.2224  0.3405 -0.1793
    1SOL     OW 9209   0.665   1.927   4.540  0.4244  0.4448 -0.0606
    1SOL    HW2 9210   0.733   1.861   4.547  0.8171  0.6939 -1.4105
    1SOL    HW3 9211   0.664   1.952   4.447 -2.0603 -0.1608 -0.2494
    1SOL    MW4 9212   0.674   1.922   4.529  0.1484  0.3976 -0.2646
    1SOL     OW 9213   2.004   2.013   3.758  0.1803  0.0747 -0.2357
    1SOL    HW2 9214   1.992   2.103   3.787 -1.3505 -0.4736  0.8673
    1SOL    HW3 9215   2.000   2.018   3.662  0.3709  1.2136 -0.1851
    1SOL    MW4 9216   2.002   2.026   3.749  0.0033  0.1523 -0.0837
    1SOL     OW 9217   2.458   2.784   3.770 -0.1922  0.3915 -0.4320
    1SOL    HW2 9218   2.379   2.738   3.800 -0.3469  1.0444  0.1782
    1SOL    HW3 9219   2.450   2.787   3.675 -0.2576 -0.7032 -0.4677
    1SOL    MW4 9220   2.446   2.779   3.762 -0.2213  0.3335 -0.3562
    1SOL     OW 9221   2.454   3.069   3.835  0.2886 -0.2362  0.7380
    1SOL    HW2 9222   2.440   3.071   3.929  0.6268 -0.0956  0.7866
    1SOL    HW3 9223   2.457   2.976   3.813 -0.0986 -0.2692  0.8162
    1SOL    MW4 9224   2.453   3.057   3.844  0.2823 -0.2222  0.7548
    1SOL     OW 9225   2.236   3.210   3.712 -0.0846 -0.5331 -0.0257
    1SOL    HW2 9226   2.236   3.301   3.743 -0.7088 -0.9515  1.2227
    1SOL    HW3 9227   2.302   3.167   3.766 -0.8026 -1.1466  0.3671
    1SOL    MW4 9228   2.245   3.216   3.724 -0.2618 -0.6695  0.1910
    1SOL     OW 9229   2.251   3.450   3.837 -0.4573  0.2915 -0.2344
    1SOL    HW2 9230   2.259   3.415   3.925 -0.3867  0.8981  0.0027
    1SOL    HW3 9231   2.324   3.511   3.828 -1.6989  1.8551  0.0594
    1SOL    MW4 9232   2.262   3.453   3.847 -0.6118  0.5779 -0.1645
    1SOL     OW 9233   2.485   3.584   3.760 -0.1317 -0.1650 -0.1588
    1SOL    HW2 9234   2.567   3.556   3.802 -0.1263  0.4882  0.2901
    1SOL    HW3 9235   2.502   3.575   3.667  1.3967  2.3840 -0.1887
    1SOL    MW4 9236   2.498   3.579   3.754  0.0708  0.2573 -0.1035
    1SOL     OW 9237   2.439   3.847   3.863  0.4059 -1.0163  0.1777
    1SOL    HW2 9238   2.505   3.906   3.826 -0.3584 -0.6145 -0.5975
    1SOL    HW3 9239   2.457   3.762   3.823  1.0439 -1.1286  0.7073
    1SOL    MW4 9240   2.450   3.844   3.853  0.3891 -0.9782  0.1454
    1SOL     OW 9241   2.227   3.997   3.781 -0.8034  0.0732  0.0670
    1SOL    HW2 9242   2.298   3.942   3.812  0.4257  1.8140  0.4003
    1SOL    HW3 9243   2.229   3.987   3.686  0.7471  1.1295 -0.0249
    1SOL    MW4 9244   2.236   3.989   3.772 -0.4368  0.4423  0.0989
    1SOL     OW 9245   2.207   4.255   3.877 -0.1630 -0.0703  0.0482
    1SOL    HW2 9246   2.207   4.240   3.971  0.8376 -0.5428 -0.0193
    1SOL    HW3 9247   2.205   4.167   3.839 -2.1001  0.1413 -0.3868
    1SOL    MW4 9248   2.207   4.241   3.884 -0.2866 -0.1044 -0.0179
    1SOL     OW 9249   2.453   4.366   3.766 -0.0951  0.1782 -0.1449
    1SOL    HW2 9250   2.526   4.319   3.808  0.2561  0.2817 -0.6339
    1SOL    HW3 9251   2.376   4.338   3.814  0.4911  1.6477  1.7555
    1SOL    MW4 9252   2.453   4.356   3.778  0.0286  0.3862  0.0415
    1SOL     OW 9253   2.917   4.664   3.851 -0.3318  0.6211 -0.3150
    1SOL    HW2 9254   2.894   4.663   3.944 -0.4179  0.1891 -0.3385
    1SOL    HW3 9255   3.006   4.699   3.849  0.1873 -0.6414  0.0520
    1SOL    MW4 9256   2.926   4.669   3.863 -0.2749  0.3977 -0.2697
    1SOL     OW 9257   2.682   0.120   3.730 -0.4475 -0.3618 -0.0528
    1SOL    HW2 9258   2.759   0.072   3.759 -0.9071 -0.5814  0.8236
    1SOL    HW3 9259   2.609   0.075   3.772 -1.0417 -0.0916 -0.7938
    1SOL    MW4 9260   2.682   0.107   3.739 -0.5867 -0.3551 -0.0348
    1SOL     OW 9261   2.679   0.373   3.851  0.4033 -0.1172 -0.5882
    1SOL    HW2 9262   2.689   0.283   3.821  0.3924  0.4736 -2.4124
    1SOL    HW3 9263   2.609   0.409   3.797  0.0946  0.8477  0.4451
    1SOL    MW4 9264   2.671   0.366   3.840  0.3612  0.0881 -0.6924
    1SOL     OW 9265   2.939   0.509   3.751 -0.5973  0.5625 -0.1408
    1SOL    HW2 9266   3.019   0.464   3.779 -0.4604  0.6859 -0.3414
    1SOL    HW3 9267   2.868   0.454   3.786 -0.4406 -0.2970 -1.1280
    1SOL    MW4 9268   2.940   0.496   3.760 -0.5586  0.4654 -0.2975
    1SOL     OW 9269   2.900   0.779   3.825  0.0882  0.3159  0.0782
    1SOL    HW2 9270   2.979   0.824   3.795 -0.4783  1.4395  0.2350
    1SOL    HW3 9271   2.915   0.687   3.804  2.2071  0.2388  1.7478
    1SOL    MW4 9272   2.912   0.773   3.818  0.2933  0.4540  0.3195
    1SOL     OW 9273   2.696   0.858   3.654 -0.1863 -0.2711 -0.7684
    1SOL    HW2 9274   2.770   0.819   3.701  0.5875  2.4554  0.3995
    1SOL    HW3 9275   2.619   0.828   3.702  0.4130 -0.1349  0.3013
    1SOL    MW4 9276   2.695   0.849   3.667 -0.0050  0.1066 -0.4733
    1SOL     OW 9277   2.701   1.103   3.775 -0.3689 -0.4188 -0.0550
    1SOL    HW2 9278   2.697   1.026   3.718  0.9745 -0.2574 -0.3978
    1SOL    HW3 9279   2.632   1.161   3.743 -0.8818 -1.1579 -0.2831
    1SOL    MW4 9280   2.691   1.100   3.763 -0.2594 -0.4951 -0.1307
    1SOL     OW 9281   2.904   1.283   3.709  0.4866  0.1436 -0.0146
    1SOL    HW2 9282   2.897   1.362   3.763  0.8635  0.0385  0.1940
    1SOL    HW3 9283   2.832   1.228   3.737  0.3586  0.3183  0.0010
    1SOL    MW4 9284   2.894   1.287   3.720  0.5198  0.1528  0.0148
    1SOL     OW 9285   2.890   1.502   3.867 -0.0339 -0.3620  0.4581
    1SOL    HW2 9286   2.888   1.465   3.956  1.9632 -1.1888  0.1863
    1SOL    HW3 9287   2.980   1.530   3.855 -1.0220  2.7714 -0.1401
    1SOL    MW4 9288   2.901   1.501   3.877  0.0992 -0.0577  0.3431
    1SOL     OW 9289   2.690   1.651   3.748 -0.0660 -0.1628  0.0299
    1SOL    HW2 9290   2.764   1.594   3.771  1.1358  1.3596  0.0330
    1SOL    HW3 9291   2.698   1.664   3.653 -0.0943  0.3278  0.0924
    1SOL    MW4 9292   2.701   1.645   3.739  0.0885  0.1028  0.0384
    1SOL     OW 9293   2.648   1.870   3.874 -0.2780 -0.3189 -0.0620
    1SOL    HW2 9294   2.654   1.849   3.968 -1.8895 -0.6741 -0.0294
    1SOL    HW3 9295   2.658   1.785   3.831  0.8304 -0.1057 -0.2341
    1SOL    MW4 9296   2.650   1.856   3.881 -0.3443 -0.3376 -0.0803
    1SOL     OW 9297   2.882   2.275   3.831  0.2024  0.1183  0.0714
    1SOL    HW2 9298   2.811   2.327   3.793  0.7117  0.4155 -0.4979
    1SOL    HW3 9299   2.961   2.325   3.809  0.6442 -0.5987  0.0427
    1SOL    MW4 9300   2.883   2.289   3.823  0.3278  0.0629 -0.0074
    1SOL     OW 9301   2.596   2.061   4.819 -0.5974  0.2705 -0.0809
    1SOL    HW2 9302   2.514   2.061   4.769  0.0911  0.1316 -1.2403
    1SOL    HW3 9303   2.636   2.146   4.799  0.6359 -0.5990 -1.3791
    1SOL    MW4 9304   2.590   2.072   4.810 -0.3440  0.1373 -0.4048
    1SOL     OW 9305   2.674   2.421   3.723  0.4048 -0.2877 -0.3726
    1SOL    HW2 9306   2.694   2.506   3.762 -0.6726  1.2462 -3.0274
    1SOL    HW3 9307   2.587   2.400   3.756 -0.1122  0.5659 -1.1445
    1SOL    MW4 9308   2.665   2.429   3.732  0.1943  0.0277 -0.8247
    1SOL     OW 9309   2.712   2.664   3.843  0.1512 -0.0987  0.3902
    1SOL    HW2 9310   2.634   2.710   3.810 -0.3457 -1.0577  0.1996
    1SOL    HW3 9311   2.704   2.669   3.938 -0.0848 -0.0966  0.3711
    1SOL    MW4 9312   2.700   2.671   3.851  0.0548 -0.2248  0.3626
    1SOL     OW 9313   2.917   2.821   3.752 -0.0992 -0.0710  0.2437
    1SOL    HW2 9314   2.892   2.911   3.773  2.3078  0.1811  2.2983
    1SOL    HW3 9315   2.844   2.767   3.784  0.1370  0.8944  2.4768
    1SOL    MW4 9316   2.904   2.825   3.759  0.2496  0.0894  0.8097
    1SOL     OW 9317   2.877   3.085   3.858  0.0284 -0.0786 -0.1643
    1SOL    HW2 9318   2.955   3.128   3.822 -0.1922  0.4972  0.0458
    1SOL    HW3 9319   2.805   3.140   3.829 -0.2418 -0.2164  0.2567
    1SOL    MW4 9320   2.878   3.098   3.849 -0.0365 -0.0207 -0.0806
    1SOL     OW 9321   2.667   3.219   3.731 -0.3988 -0.1366 -0.4928
    1SOL    HW2 9322   2.675   3.309   3.762 -3.0416  0.7057 -2.0720
    1SOL    HW3 9323   2.586   3.187   3.771  0.8707 -2.0438  0.5757
    1SOL    MW4 9324   2.657   3.227   3.740 -0.5801 -0.2773 -0.5603
    1SOL     OW 9325   2.754   3.467   3.833 -0.4026 -0.0333 -0.0352
    1SOL    HW2 9326   2.767   3.477   3.927  1.9147  0.8328 -0.4139
    1SOL    HW3 9327   2.823   3.520   3.794 -0.6729 -1.2422 -2.2229
    1SOL    MW4 9328   2.765   3.475   3.840 -0.1323 -0.0787 -0.3738
    1SOL     OW 9329   2.934   3.643   3.726 -0.9235 -0.1922  0.3388
    1SOL    HW2 9330   2.992   3.576   3.763 -2.3352 -1.3245  0.5625
    1SOL    HW3 9331   2.940   3.630   3.631 -0.1894  0.2258  0.3291
    1SOL    MW4 9332   2.942   3.632   3.718 -1.0128 -0.2863  0.3667
    1SOL     OW 9333   2.890   3.909   3.806  0.0534  0.3332  0.1438
    1SOL    HW2 9334   2.898   3.913   3.901 -0.9740 -1.2394  0.3216
    1SOL    HW3 9335   2.897   3.816   3.785 -1.6768  0.4627 -1.1368
    1SOL    MW4 9336   2.892   3.897   3.815 -0.3107  0.1428 -0.0014
    1SOL     OW 9337   2.649   4.025   3.781 -0.2277 -0.0593 -0.1268
    1SOL    HW2 9338   2.658   4.106   3.831 -0.7031  0.1166 -0.3259
    1SOL    HW3 9339   2.733   3.981   3.793 -0.9488 -0.8447  2.2429
    1SOL    MW4 9340   2.661   4.030   3.789 -0.3853 -0.1397  0.1597
    1SOL     OW 9341   2.675   4.264   3.905  0.1261  0.0774  0.7759
    1SOL    HW2 9342   2.757   4.301   3.873 -0.1189  0.1332  0.1962
    1SOL    HW3 9343   2.674   4.285   3.998  0.4237  0.7277  0.6389
    1SOL    MW4 9344   2.686   4.272   3.913  0.1328  0.1707  0.6812
    1SOL     OW 9345   2.908   4.392   3.733  0.1156  0.0715  0.5451
    1SOL    HW2 9346   2.991   4.355   3.763  1.5438  0.9288 -2.1581
    1SOL    HW3 9347   2.913   4.485   3.757  0.3066  0.2889 -0.3072
    1SOL    MW4 9348   2.920   4.399   3.740  0.3290  0.2136  0.0763
    1SOL     OW 9349   3.424   4.657   3.808  0.0719 -0.2559 -0.4529
    1SOL    HW2 9350   3.431   4.662   3.903  1.0878 -2.6761 -0.3455
    1SOL    HW3 9351   3.485   4.723   3.776 -0.1289  0.4361  0.5696
    1SOL    MW4 9352   3.433   4.666   3.816  0.1795 -0.4840 -0.3040
    1SOL     OW 9353   3.156   0.116   3.775  0.3876  0.3597 -0.0826
    1SOL    HW2 9354   3.234   0.070   3.807 -0.3244 -0.8996 -0.1369
    1SOL    HW3 9355   3.151   0.092   3.683 -1.6754 -1.8892  0.5793
    1SOL    MW4 9356   3.166   0.107   3.767  0.0212 -0.1032 -0.0021
    1SOL     OW 9357   3.166   0.386   3.845  0.2846 -0.0051 -0.3670
    1SOL    HW2 9358   3.159   0.386   3.941  0.6658  0.3853 -0.3340
    1SOL    HW3 9359   3.163   0.294   3.821  1.1304 -0.1621  0.1023
    1SOL    MW4 9360   3.165   0.374   3.854  0.4466  0.0257 -0.3009
    1SOL     OW 9361   3.386   0.537   3.757  0.1720  0.1400 -0.1792
    1SOL    HW2 9362   3.467   0.499   3.791 -0.0159 -0.0210  0.0851
    1SOL    HW3 9363   3.317   0.481   3.791 -0.0436  0.2016 -0.5130
    1SOL    MW4 9364   3.388   0.525   3.766  0.1187  0.1268 -0.1886
    1SOL     OW 9365   3.356   0.783   3.857 -0.6881 -0.2035 -0.3233
    1SOL    HW2 9366   3.342   0.773   3.951 -0.3918 -1.6081 -0.4167
    1SOL    HW3 9367   3.358   0.693   3.823 -0.6585  0.2828 -1.6481
    1SOL    MW4 9368   3.355   0.770   3.865 -0.6452 -0.3247 -0.5102
    1SOL     OW 9369   3.149   0.926   3.767  0.1482  0.4167  0.4834
    1SOL    HW2 9370   3.219   0.869   3.800 -0.2141  0.1767  0.8324
    1SOL    HW3 9371   3.151   0.912   3.672  0.5541  0.3892  0.4919
    1SOL    MW4 9372   3.159   0.917   3.758  0.1540  0.3814  0.5307
    1SOL     OW 9373   3.152   1.180   3.865  0.1618  0.3831 -0.3318
    1SOL    HW2 9374   3.151   1.090   3.835  0.6406 -0.6173  2.4826
    1SOL    HW3 9375   3.070   1.217   3.833 -1.1651 -1.7651  0.4756
    1SOL    MW4 9376   3.141   1.173   3.857  0.0501 -0.0324  0.1459
    1SOL     OW 9377   3.402   1.257   3.747  0.0753  0.0736  0.4204
    1SOL    HW2 9378   3.317   1.240   3.787  0.0611 -2.6809 -0.6645
    1SOL    HW3 9379   3.386   1.253   3.653  1.2856  0.1654  0.1974
    1SOL    MW4 9380   3.389   1.254   3.740  0.2332 -0.2776  0.2477
    1SOL     OW 9381   3.397   1.524   3.862 -0.0732  0.2301  0.2619
    1SOL    HW2 9382   3.311   1.549   3.829  0.6980  0.3743 -1.7202
    1SOL    HW3 9383   3.405   1.431   3.840  0.2324  0.1966  0.5163
    1SOL    MW4 9384   3.387   1.515   3.854  0.0691  0.2446  0.0341
    1SOL     OW 9385   3.133   1.606   3.774 -0.0787  0.1084 -0.0168
    1SOL    HW2 9386   3.125   1.699   3.793 -0.4883  0.2385 -0.8149
    1SOL    HW3 9387   3.134   1.600   3.679 -1.9335 -0.8504  0.0015
    1SOL    MW4 9388   3.132   1.617   3.764 -0.3774 -0.0010 -0.1197
    1SOL     OW 9389   3.097   1.887   3.857  0.0311  0.4106  0.0205
    1SOL    HW2 9390   3.057   1.855   3.938  0.6512  0.4216  0.3365
    1SOL    HW3 9391   3.025   1.926   3.808 -1.0755 -2.8818 -1.1203
    1SOL    MW4 9392   3.082   1.888   3.861 -0.0329 -0.0224 -0.0882
    1SOL     OW 9393   3.340   2.020   3.756  0.0890  0.3706  0.1651
    1SOL    HW2 9394   3.277   1.964   3.802 -0.2440  0.5955 -0.0168
    1SOL    HW3 9395   3.426   1.985   3.780 -0.0542  0.8861  1.4994
    1SOL    MW4 9396   3.343   2.008   3.765  0.0257  0.4680  0.3173
    1SOL     OW 9397   3.328   2.294   3.835 -0.0464  0.8348  0.0737
    1SOL    HW2 9398   3.236   2.321   3.831  0.0542  1.2575  0.5822
    1SOL    HW3 9399   3.328   2.202   3.808 -0.4593  1.1873 -1.1765
    1SOL    MW4 9400   3.316   2.286   3.831 -0.0875  0.9370 -0.0241
    1SOL     OW 9401   3.102   2.429   3.755  0.1349 -0.1640 -0.5000
    1SOL    HW2 9402   3.105   2.515   3.796 -1.6159 -0.0655 -0.5318
    1SOL    HW3 9403   3.114   2.446   3.662  2.4182 -0.2310 -0.2596
    1SOL    MW4 9404   3.104   2.442   3.748  0.2053 -0.1600 -0.4723
    1SOL     OW 9405   3.110   2.681   3.896  0.3679  0.4853  0.3476
    1SOL    HW2 9406   3.088   2.686   3.989  0.9536 -0.9330  0.5685
    1SOL    HW3 9407   3.043   2.734   3.852 -2.1518 -1.8939  1.2044
    1SOL    MW4 9408   3.099   2.689   3.902  0.1128 -0.0157  0.4897
    1SOL     OW 9409   3.334   2.799   3.788 -0.1099 -0.3445 -0.0233
    1SOL    HW2 9410   3.258   2.763   3.833 -0.4840  1.2049  0.5975
    1SOL    HW3 9411   3.340   2.890   3.818  1.6191 -0.2680 -0.5348
    1SOL    MW4 9412   3.325   2.806   3.798  0.0691 -0.1299 -0.0091
    1SOL     OW 9413   3.325   3.073   3.844  0.0515 -0.4270  0.0334
    1SOL    HW2 9414   3.319   3.063   3.939 -0.2525  0.2371  0.0831
    1SOL    HW3 9415   3.409   3.117   3.830 -0.2790  0.2004  0.0431
    1SOL    MW4 9416   3.336   3.077   3.855 -0.0322 -0.2565  0.0412
    1SOL     OW 9417   3.104   3.208   3.762 -0.1608 -0.4771 -0.2544
    1SOL    HW2 9418   3.173   3.151   3.796 -0.7387 -0.5406  0.8299
    1SOL    HW3 9419   3.137   3.237   3.677  2.3367  1.4732  1.3243
    1SOL    MW4 9420   3.117   3.204   3.755  0.0925 -0.2282  0.0968
    1SOL     OW 9421   3.113   3.478   3.851 -0.1905  0.1273 -0.1930
    1SOL    HW2 9422   3.191   3.518   3.810 -0.3980  0.6547 -0.0836
    1SOL    HW3 9423   3.121   3.385   3.831  0.6979  0.1114  0.1805
    1SOL    MW4 9424   3.125   3.471   3.843 -0.1006  0.1948 -0.1290
    1SOL     OW 9425   3.344   3.591   3.745  1.2329 -0.1513  0.1524
    1SOL    HW2 9426   3.333   3.682   3.772 -0.4701  0.2804 -1.8773
    1SOL    HW3 9427   3.352   3.595   3.649 -0.5613 -2.2574 -0.1320
    1SOL    MW4 9428   3.344   3.603   3.736  0.7713 -0.3719 -0.1528
    1SOL     OW 9429   3.339   3.859   3.829  0.3412 -0.0837  0.4227
    1SOL    HW2 9430   3.429   3.883   3.807  0.2572  0.4564  0.6629
    1SOL    HW3 9431   3.285   3.918   3.776  0.1086 -1.9281 -1.4385
    1SOL    MW4 9432   3.344   3.870   3.819  0.2995 -0.2558  0.2089
    1SOL     OW 9433   3.129   4.017   3.708  0.5405 -0.6679  0.5214
    1SOL    HW2 9434   3.137   4.108   3.736  1.3476 -0.6217  0.1472
    1SOL    HW3 9435   3.044   3.989   3.743 -0.5561  0.7790 -0.8673
    1SOL    MW4 9436   3.119   4.026   3.716  0.5023 -0.4711  0.2890
    1SOL     OW 9437   3.143   4.271   3.809 -0.2403 -0.2206  0.1775
    1SOL    HW2 9438   3.146   4.284   3.904  1.2241 -2.3752  0.4511
    1SOL    HW3 9439   3.212   4.328   3.775 -1.7139  1.6489  0.2433
    1SOL    MW4 9440   3.152   4.280   3.817 -0.2415 -0.2584  0.2222
    1SOL     OW 9441   3.362   4.383   3.721 -0.0255 -0.2756  0.3403
    1SOL    HW2 9442   3.429   4.341   3.775  0.0045 -0.6410  0.0174
    1SOL    HW3 9443   3.370   4.476   3.742  1.2058 -0.2087 -0.3829
    1SOL    MW4 9444   3.372   4.390   3.731  0.1409 -0.3152  0.2022
    1SOL     OW 9445   3.820   4.626   3.909  0.0651  0.1861  0.2505
    1SOL    HW2 9446   3.901   4.654   3.865 -0.7088  1.2993 -0.4957
    1SOL    HW3 9447   3.809   4.534   3.883  1.0750  0.0321  0.3402
    1SOL    MW4 9448   3.829   4.617   3.900  0.0963  0.3128  0.1638
    1SOL     OW 9449   3.660   0.136   3.762 -0.1371  0.5368 -0.6125
    1SOL    HW2 9450   3.720   0.066   3.787 -2.2597 -1.1927 -0.2209
    1SOL    HW3 9451   3.648   0.124   3.668  1.0866  1.6920 -0.9431
    1SOL    MW4 9452   3.667   0.125   3.753 -0.2556  0.4610 -0.6044
    1SOL     OW 9453   3.611   0.405   3.841  0.2148 -0.1088  0.3864
    1SOL    HW2 9454   3.685   0.442   3.794  0.2451  0.5771  0.9738
    1SOL    HW3 9455   3.615   0.311   3.822  1.5219 -0.1413  0.8142
    1SOL    MW4 9456   3.621   0.397   3.833  0.3915 -0.0226  0.5205
    1SOL     OW 9457   3.851   0.516   3.726  0.4679  0.1131  0.4839
    1SOL    HW2 9458   3.922   0.467   3.769  0.8583 -0.2039 -0.5031
    1SOL    HW3 9459   3.842   0.596   3.778 -0.5557 -1.2485  2.4627
    1SOL    MW4 9460   3.859   0.520   3.738  0.3841 -0.1084  0.6151
    1SOL     OW 9461   3.812   0.736   3.860  0.0126 -0.0726 -0.0641
    1SOL    HW2 9462   3.880   0.798   3.835  0.0185 -0.4971 -1.1243
    1SOL    HW3 9463   3.730   0.778   3.833  0.0054 -0.4563 -0.6440
    1SOL    MW4 9464   3.810   0.750   3.853  0.0124 -0.1792 -0.2806
    1SOL     OW 9465   3.577   0.862   3.741  0.5040  0.4899 -0.1177
    1SOL    HW2 9466   3.596   0.948   3.779 -0.1308  0.0057  1.3621
    1SOL    HW3 9467   3.495   0.836   3.782 -0.3412  0.0292 -2.0541
    1SOL    MW4 9468   3.569   0.870   3.752  0.3088  0.3653 -0.1781
    1SOL     OW 9469   3.630   1.110   3.824  0.3730  0.1300  0.2553
    1SOL    HW2 9470   3.708   1.153   3.787  0.0950 -0.6117 -1.2091
    1SOL    HW3 9471   3.556   1.154   3.782  0.0302 -0.0442  0.6762
    1SOL    MW4 9472   3.631   1.121   3.814  0.2909  0.0091  0.1178
    1SOL     OW 9473   3.845   1.247   3.725  0.9053 -0.3420 -0.0315
    1SOL    HW2 9474   3.917   1.200   3.766 -0.5984 -0.8942  2.0702
    1SOL    HW3 9475   3.841   1.331   3.770 -0.1890 -0.5900  0.3557
    1SOL    MW4 9476   3.854   1.251   3.736  0.5627 -0.4475  0.2971
    1SOL     OW 9477   3.835   1.472   3.861  0.4571 -0.3276  0.0254
    1SOL    HW2 9478   3.841   1.471   3.956 -0.2940  0.4343  0.0859
    1SOL    HW3 9479   3.760   1.528   3.842  0.4031 -0.7320 -1.0057
    1SOL    MW4 9480   3.826   1.479   3.871  0.3510 -0.2805 -0.1030
    1SOL     OW 9481   3.635   1.663   3.799  0.2956  0.0991  0.4638
    1SOL    HW2 9482   3.547   1.633   3.820 -0.1082  1.4666  0.7956
    1SOL    HW3 9483   3.640   1.658   3.704 -0.3148  0.4667  0.4086
    1SOL    MW4 9484   3.624   1.659   3.789  0.1619  0.3282  0.5002
    1SOL     OW 9485   3.591   1.927   3.823  0.1610 -0.7675  0.1214
    1SOL    HW2 9486   3.606   1.834   3.802  3.5441 -0.5049  1.1802
    1SOL    HW3 9487   3.560   1.926   3.913  0.9949 -0.8097  0.4076
    1SOL    MW4 9488   3.589   1.914   3.832  0.7174 -0.7383  0.2990
    1SOL     OW 9489   3.814   2.069   3.726 -0.0594 -0.3551  0.4165
    1SOL    HW2 9490   3.891   2.022   3.758 -0.0350  0.0361  0.9234
    1SOL    HW3 9491   3.740   2.018   3.759 -0.0256 -0.6021  0.1195
    1SOL    MW4 9492   3.814   2.056   3.734 -0.0517 -0.3362  0.4439
    1SOL     OW 9493   3.789   2.309   3.890  0.2721 -0.1658  0.5393
    1SOL    HW2 9494   3.807   2.227   3.844 -0.3341 -0.5018  0.8925
    1SOL    HW3 9495   3.704   2.338   3.857  0.3078  0.1229  0.6966
    1SOL    MW4 9496   3.780   2.302   3.880  0.1972 -0.1719  0.6068
    1SOL     OW 9497   3.573   2.421   3.723  0.0030  0.3667  0.0020
    1SOL    HW2 9498   3.490   2.392   3.761  0.4240 -0.1124  0.5697
    1SOL    HW3 9499   3.569   2.391   3.632 -0.0029 -0.6012  0.3087
    1SOL    MW4 9500   3.562   2.413   3.716  0.0579  0.1757  0.1173
    1SOL     OW 9501   3.560   2.662   3.873  0.4308 -0.0415  0.1508
    1SOL    HW2 9502   3.568   2.571   3.843 -0.5071  0.0767 -0.4955
    1SOL    HW3 9503   3.478   2.692   3.833 -0.0762  0.5891  1.6569
    1SOL    MW4 9504   3.550   2.654   3.863  0.2403  0.0575  0.2642
    1SOL     OW 9505   3.787   2.820   3.755  0.0479  0.1686  0.1868
    1SOL    HW2 9506   3.873   2.793   3.786 -0.7125  0.7313  2.8695
    1SOL    HW3 9507   3.725   2.764   3.802 -1.0695 -0.4794 -1.9736
    1SOL    MW4 9508   3.790   2.809   3.765 -0.2000  0.1574  0.2556
    1SOL     OW 9509   3.808   3.105   3.818  0.0446  0.4432 -0.1380
    1SOL    HW2 9510   3.719   3.135   3.799  0.0355  0.3960 -0.1703
    1SOL    HW3 9511   3.807   3.011   3.799  0.5789  0.7653 -1.9031
    1SOL    MW4 9512   3.796   3.096   3.813  0.1140  0.4795 -0.3753
    1SOL     OW 9513   3.561   3.208   3.759 -0.0982 -0.3336  0.6755
    1SOL    HW2 9514   3.565   3.301   3.781  0.5728 -0.3186  0.4927
    1SOL    HW3 9515   3.559   3.207   3.663 -1.2536 -0.4676  0.6906
    1SOL    MW4 9516   3.561   3.220   3.749 -0.1619 -0.3493  0.6535
    1SOL     OW 9517   3.574   3.489   3.864  0.0079 -0.1703 -0.1134
    1SOL    HW2 9518   3.584   3.503   3.958  0.5567  0.1840 -0.2225
    1SOL    HW3 9519   3.490   3.532   3.842  0.4821  0.8379 -0.0025
    1SOL    MW4 9520   3.564   3.497   3.873  0.1426  0.0098 -0.1132
    1SOL     OW 9521   3.777   3.638   3.745 -0.6058 -0.0166  0.5222
    1SOL    HW2 9522   3.781   3.721   3.793 -1.4651  0.7057 -0.6348
    1SOL    HW3 9523   3.711   3.587   3.791  0.1049 -0.1588  1.3885
    1SOL    MW4 9524   3.769   3.642   3.757 -0.6251  0.0598  0.4838
    1SOL     OW 9525   3.792   3.877   3.881  0.3064 -0.4283 -0.0522
    1SOL    HW2 9526   3.778   3.871   3.975 -0.8554  0.3969 -0.1648
    1SOL    HW3 9527   3.877   3.921   3.872 -0.2081  0.7083  0.5991
    1SOL    MW4 9528   3.801   3.882   3.892  0.0851 -0.1698  0.0186
    1SOL     OW 9529   3.571   3.983   3.747 -0.0450  0.0221 -0.2438
    1SOL    HW2 9530   3.551   4.070   3.783  0.4606  0.2079 -0.4128
    1SOL    HW3 9531   3.651   3.956   3.791 -0.4479 -0.5653  0.1478
    1SOL    MW4 9532   3.579   3.991   3.757 -0.0312 -0.0310 -0.2146
    1SOL     OW 9533   3.552   4.239   3.861 -0.2151  0.3687 -0.3602
    1SOL    HW2 9534   3.560   4.225   3.956 -0.9395  0.9059 -0.2159
    1SOL    HW3 9535   3.632   4.286   3.838  1.3113 -2.2067 -0.5165
    1SOL    MW4 9536   3.564   4.243   3.871 -0.1092  0.0992 -0.3617
    1SOL     OW 9537   3.776   4.380   3.788 -0.2446  0.5931  0.3909
    1SOL    HW2 9538   3.843   4.312   3.798  0.3737  1.1145 -0.1179
    1SOL    HW3 9539   3.755   4.380   3.695 -0.3581  0.9840  0.4116
    1SOL    MW4 9540   3.782   4.371   3.777 -0.1779  0.7129  0.3262
    1SOL     OW 9541   4.270   4.638   3.835  0.0883 -0.2334 -0.2762
    1SOL    HW2 9542   4.289   4.640   3.929 -0.7667 -0.4433 -0.0966
    1SOL    HW3 9543   4.348   4.676   3.794  0.0365  0.8082  0.5787
    1SOL    MW4 9544   4.283   4.643   3.842 -0.0310 -0.1235 -0.1397
    1SOL     OW 9545   4.035   0.096   3.776 -0.1169  0.3269 -0.7479
    1SOL    HW2 9546   4.121   0.064   3.803 -0.2604  0.2459 -0.3860
    1SOL    HW3 9547   4.032   0.079   3.682 -0.0955 -0.5206 -0.6031
    1SOL    MW4 9548   4.046   0.090   3.767 -0.1330  0.2044 -0.6812
    1SOL     OW 9549   4.049   0.364   3.848  0.6225  0.1152 -0.7659
    1SOL    HW2 9550   4.036   0.358   3.943 -2.3439  0.3245 -1.1125
    1SOL    HW3 9551   4.033   0.275   3.816 -0.4992  0.4831 -1.2694
    1SOL    MW4 9552   4.045   0.351   3.856  0.0834  0.1913 -0.8781
    1SOL     OW 9553   4.295   0.485   3.741  0.1234  0.0470 -0.1691
    1SOL    HW2 9554   4.215   0.445   3.774  0.7963  0.4435  2.0842
    1SOL    HW3 9555   4.285   0.484   3.646 -2.2862 -0.4184  0.0456
    1SOL    MW4 9556   4.283   0.479   3.733 -0.1054  0.0379  0.1566
    1SOL     OW 9557   4.308   0.728   3.896 -0.3431 -0.1374  0.6305
    1SOL    HW2 9558   4.228   0.776   3.874  0.4392  0.4734 -1.0165
    1SOL    HW3 9559   4.303   0.647   3.845  0.2391  0.0684  0.2320
    1SOL    MW4 9560   4.297   0.724   3.886 -0.1631 -0.0296  0.3605
    1SOL     OW 9561   4.067   0.864   3.791 -0.3582 -0.0060  0.1794
    1SOL    HW2 9562   4.071   0.957   3.813  2.4542  0.3095 -1.3500
    1SOL    HW3 9563   4.065   0.862   3.695 -0.5266 -1.5103  0.1963
    1SOL    MW4 9564   4.067   0.876   3.781 -0.0095 -0.1628 -0.0200
    1SOL     OW 9565   4.036   1.128   3.893 -0.0216  0.3960 -0.0437
    1SOL    HW2 9566   4.034   1.121   3.989  0.4208  0.0778 -0.0564
    1SOL    HW3 9567   4.117   1.174   3.874 -0.9228  1.9516 -0.1805
    1SOL    MW4 9568   4.046   1.133   3.903 -0.0815  0.5593 -0.0637
    1SOL     OW 9569   4.252   1.285   3.779 -0.1279 -0.1947  0.1264
    1SOL    HW2 9570   4.234   1.377   3.798 -0.4135 -0.0820 -0.6649
    1SOL    HW3 9571   4.262   1.282   3.684 -0.4239 -1.0358  0.1186
    1SOL    MW4 9572   4.251   1.297   3.769 -0.2050 -0.2909  0.0210
    1SOL     OW 9573   4.272   1.534   3.894  0.4231  0.4072 -0.0464
    1SOL    HW2 9574   4.207   1.593   3.857  0.6262  0.5626 -0.1616
    1SOL    HW3 9575   4.356   1.574   3.872  0.5647  0.0561 -0.1572
    1SOL    MW4 9576   4.275   1.547   3.887  0.4683  0.3815 -0.0761
    1SOL     OW 9577   4.045   1.650   3.796 -0.2800 -0.2431  0.1951
    1SOL    HW2 9578   4.017   1.736   3.829 -2.1235 -0.4476 -0.7454
    1SOL    HW3 9579   3.973   1.591   3.819  0.0950 -1.1422 -0.8946
    1SOL    MW4 9580   4.032   1.654   3.803 -0.4735 -0.3887 -0.0727
    1SOL     OW 9581   4.008   1.924   3.855 -0.7060 -0.3953 -0.1435
    1SOL    HW2 9582   4.011   1.937   3.949  1.6077  0.9645 -0.3745
    1SOL    HW3 9583   4.092   1.958   3.823 -2.3573  1.2129 -2.9394
    1SOL    MW4 9584   4.020   1.930   3.863 -0.6189 -0.0037 -0.5429
    1SOL     OW 9585   4.241   2.058   3.773  0.3096  0.0972 -0.1106
    1SOL    HW2 9586   4.222   2.149   3.799  2.4654  0.2767  0.9219
    1SOL    HW3 9587   4.264   2.063   3.681  1.2388  0.7188  0.1549
    1SOL    MW4 9588   4.241   2.071   3.765  0.7167  0.2029  0.0603
    1SOL     OW 9589   4.213   2.321   3.870  0.1247 -0.2728  0.5752
    1SOL    HW2 9590   4.195   2.282   3.956 -1.4560 -2.4916 -0.6953
    1SOL    HW3 9591   4.139   2.380   3.855  0.6476  0.4821  0.9200
    1SOL    MW4 9592   4.201   2.323   3.880 -0.0148 -0.4659  0.4530
    1SOL     OW 9593   3.999   2.451   3.781  0.4320 -0.0298 -0.2943
    1SOL    HW2 9594   3.979   2.543   3.799  0.2588  0.2814 -2.0664
    1SOL    HW3 9595   3.926   2.402   3.820  0.3875  0.5900  0.4079
    1SOL    MW4 9596   3.987   2.456   3.789  0.4032  0.0932 -0.4354
    1SOL     OW 9597   4.024   2.711   3.854 -1.2208 -0.0121 -0.3262
    1SOL    HW2 9598   4.010   2.703   3.949 -3.8259  2.9563 -0.3885
    1SOL    HW3 9599   4.110   2.753   3.846 -0.8845 -0.4841  0.7085
    1SOL    MW4 9600   4.034   2.715   3.866 -1.5206  0.3171 -0.1979
    1SOL     OW 9601   4.274   2.880   3.738 -0.1103 -0.0541  0.0911
    1SOL    HW2 9602   4.266   2.965   3.783  2.1950  0.3137 -0.1609
    1SOL    HW3 9603   4.337   2.831   3.791 -1.8229 -1.8421  0.5311
    1SOL    MW4 9604   4.281   2.885   3.751 -0.0324 -0.2413  0.1156
    1SOL     OW 9605   4.266   3.119   3.893 -0.0290  0.2882 -0.4290
    1SOL    HW2 9606   4.195   3.173   3.860  0.4296  0.8513 -0.4981
    1SOL    HW3 9607   4.344   3.152   3.848  0.4740  0.5362  0.6321
    1SOL    MW4 9608   4.267   3.130   3.882  0.0982  0.3953 -0.2983
    1SOL     OW 9609   4.039   3.251   3.748 -0.2929  0.0913 -0.1244
    1SOL    HW2 9610   3.961   3.211   3.785 -0.5434  0.6211 -0.0740
    1SOL    HW3 9611   4.030   3.241   3.653 -0.7825  0.8035 -0.1583
    1SOL    MW4 9612   4.028   3.245   3.740 -0.3910  0.2551 -0.1221
    1SOL     OW 9613   4.001   3.500   3.872  0.0586 -0.6279  0.4341
    1SOL    HW2 9614   4.003   3.420   3.820  1.6904  0.1809 -0.7529
    1SOL    HW3 9615   3.935   3.555   3.829  2.2476  0.5202 -1.5302
    1SOL    MW4 9616   3.992   3.497   3.860  0.5624 -0.3698  0.0184
    1SOL     OW 9617   4.241   3.571   3.770 -0.1590  0.1666 -0.2080
    1SOL    HW2 9618   4.160   3.534   3.807  0.2562  0.6118  1.1692
    1SOL    HW3 9619   4.310   3.510   3.798 -0.0632 -0.3957 -1.6698
    1SOL    MW4 9620   4.239   3.558   3.779 -0.0916  0.1514 -0.2193
    1SOL     OW 9621   4.282   3.852   3.837 -0.4540 -0.0638  0.0298
    1SOL    HW2 9622   4.199   3.897   3.822 -0.2942  0.4077  0.5520
    1SOL    HW3 9623   4.261   3.759   3.821 -0.7675  0.1925 -1.0892
    1SOL    MW4 9624   4.268   3.846   3.833 -0.4740  0.0322 -0.0489
    1SOL     OW 9625   4.051   3.955   3.767  0.0940 -0.0409  0.0698
    1SOL    HW2 9626   4.029   4.048   3.772 -1.4028 -0.3509 -0.5632
    1SOL    HW3 9627   4.053   3.935   3.674  0.3234 -0.6671  0.2043
    1SOL    MW4 9628   4.048   3.964   3.756 -0.0730 -0.1643  0.0043
    1SOL     OW 9629   4.000   4.235   3.826  0.0305  0.3789 -0.6192
    1SOL    HW2 9630   4.008   4.252   3.920  1.5557 -0.9964 -0.4628
    1SOL    HW3 9631   4.073   4.284   3.787 -0.8724  1.3189 -1.1527
    1SOL    MW4 9632   4.011   4.244   3.833  0.1125  0.3214 -0.6688
    1SOL     OW 9633   4.213   4.387   3.748  0.1608  0.1782  0.6500
    1SOL    HW2 9634   4.237   4.467   3.795  1.5273 -0.1256  0.5092
    1SOL    HW3 9635   4.293   4.335   3.750 -0.1820 -0.4025 -0.8447
    1SOL    MW4 9636   4.227   4.391   3.755  0.2956  0.0615  0.4344
    1SOL     OW 9637   2.742   1.815   4.815  0.0464 -0.0880 -0.1578
    1SOL    HW2 9638   2.826   1.822   4.860 -0.5764  0.7725  0.8899
    1SOL    HW3 9639   2.697   1.897   4.835 -1.1631 -0.6585 -0.4837
    1SOL    MW4 9640   2.747   1.827   4.824 -0.1953 -0.0497 -0.0629
    1SOL     OW 9641   3.996   4.255   4.102  0.3076 -0.0251 -0.1356
    1SOL    HW2 9642   4.015   4.173   4.149 -0.4693  0.2364  0.6433
    1SOL    HW3 9643   3.917   4.289   4.144  0.7516  1.2444 -0.3067
    1SOL    MW4 9644   3.988   4.248   4.114  0.2637  0.1764 -0.0553
    1SOL     OW 9645   1.951   0.495   4.501  0.0758 -0.1572  0.2690
    1SOL    HW2 9646   1.860   0.467   4.496  0.3949 -1.5203  1.5245
    1SOL    HW3 9647   1.947   0.589   4.517 -1.1881 -0.5851  2.6930
    1SOL    MW4 9648   1.939   0.504   4.503 -0.0489 -0.3935  0.7548
    1SOL     OW 9649   0.630   0.674   4.157  0.5385  0.2519  0.2966
    1SOL    HW2 9650   0.719   0.704   4.175  0.8438 -0.7272  0.3921
    1SOL    HW3 9651   0.611   0.709   4.070  1.5832 -0.8206 -0.3836
    1SOL    MW4 9652   0.639   0.683   4.148  0.7167 -0.0187  0.2198
    1SOL     OW 9653   4.277   0.681   4.172  0.3062 -0.5473 -0.1547
    1SOL    HW2 9654   4.278   0.688   4.076  0.6445 -1.3710 -0.2212
    1SOL    HW3 9655   4.355   0.729   4.200 -0.0635  0.1169 -0.2581
    1SOL    MW4 9656   4.287   0.688   4.163  0.3023 -0.5683 -0.1769
    1SOL     OW 9657   1.859   2.178   4.457  0.3105  0.4038 -0.1429
    1SOL    HW2 9658   1.852   2.212   4.546 -1.9777  2.0376 -0.8980
    1SOL    HW3 9659   1.950   2.193   4.432  0.9875 -0.1442  1.9351
    1SOL    MW4 9660   1.870   2.184   4.465  0.0980  0.5472  0.0324
    1SOL     OW 9661   4.455   1.104   4.166 -0.3709 -0.2700  0.0158
    1SOL    HW2 9662   4.389   1.166   4.197  0.7626  0.5129  0.9234
    1SOL    HW3 9663   4.537   1.134   4.206  0.2495 -2.1855  0.2530
    1SOL    MW4 9664   4.457   1.116   4.175 -0.1394 -0.4194  0.1669
    1SOL     OW 9665   1.134   2.830   4.205  0.0636 -0.2263 -0.0346
    1SOL    HW2 9666   1.121   2.924   4.193  0.1162 -0.4069 -1.6946
    1SOL    HW3 9667   1.126   2.815   4.299 -1.2080  1.2460  0.0928
    1SOL    MW4 9668   1.131   2.840   4.216 -0.0973 -0.0558 -0.2375
    1SOL     OW 9669   0.089   4.313   4.477  0.3863  0.4297  0.3148
    1SOL    HW2 9670  -0.006   4.323   4.482  0.4243 -0.1063  2.4581
    1SOL    HW3 9671   0.124   4.393   4.516  0.8506  1.0775 -1.3725
    1SOL    MW4 9672   0.081   4.325   4.482  0.4525  0.4444  0.3753
    1SOL     OW 9673   3.143   3.529   4.621 -0.2014  0.2408 -0.0520
    1SOL    HW2 9674   3.171   3.455   4.568  1.2764  0.9823 -0.3293
    1SOL    HW3 9675   3.178   3.511   4.708 -1.6003 -0.3782  0.4100
    1SOL    MW4 9676   3.151   3.517   4.626 -0.1910  0.2570 -0.0277
    1SOL     OW 9677   0.404   3.610   4.570  0.3277  0.1135  0.4301
    1SOL    HW2 9678   0.462   3.535   4.584  0.1303  0.0841  1.1156
    1SOL    HW3 9679   0.401   3.654   4.656  0.5674  0.9876 -0.0056
    1SOL    MW4 9680   0.411   3.606   4.584  0.3332  0.2251  0.4630
    1SOL     OW 9681   1.348   3.991   4.212  0.5535  0.1866  0.3225
    1SOL    HW2 9682   1.415   3.932   4.178 -1.4017 -1.0429 -1.4818
    1SOL    HW3 9683   1.363   3.992   4.307  2.0202 -1.4265  0.1220
    1SOL    MW4 9684   1.359   3.983   4.220  0.4890 -0.1884  0.0577
    1SOL     OW 9685   0.204   2.344   4.165 -0.1116 -0.0074 -0.2033
    1SOL    HW2 9686   0.194   2.259   4.209 -0.1060 -0.7472 -1.6073
    1SOL    HW3 9687   0.288   2.377   4.196 -0.6566  0.0613  1.2806
    1SOL    MW4 9688   0.213   2.337   4.175 -0.1828 -0.0958 -0.1926
    1SOL     OW 9689   1.140   4.372   4.247  0.6271 -0.3034  0.1463
    1SOL    HW2 9690   1.067   4.351   4.188  0.8978 -0.2193 -0.2177
    1SOL    HW3 9691   1.217   4.335   4.204  0.8137 -0.3228  0.4929
    1SOL    MW4 9692   1.140   4.364   4.234  0.6874 -0.2952  0.1440
    1SOL     OW 9693   4.236   4.382   4.216  0.2835 -0.0937 -0.0477
    1SOL    HW2 9694   4.259   4.469   4.182  1.0876 -0.4014 -0.2925
    1SOL    HW3 9695   4.152   4.362   4.175 -0.2647  0.8880  0.5816
    1SOL    MW4 9696   4.228   4.391   4.206  0.3171 -0.0052  0.0029
    1SOL     OW 9697   4.115   1.775   4.628 -0.0170 -0.5490 -0.1768
    1SOL    HW2 9698   4.109   1.681   4.612 -1.1671 -0.7999  1.5092
    1SOL    HW3 9699   4.196   1.786   4.678 -0.7630 -0.8958  1.1345
    1SOL    MW4 9700   4.125   1.764   4.633 -0.2670 -0.6279  0.2189
    1SOL     OW 9701   0.217   2.807   4.216 -0.1272  0.1461  0.1927
    1SOL    HW2 9702   0.221   2.891   4.170 -0.4172 -0.0512 -0.1983
    1SOL    HW3 9703   0.127   2.776   4.202 -0.8854  1.0928  2.6832
    1SOL    MW4 9704   0.205   2.814   4.208 -0.2655  0.2449  0.4697
    1SOL     OW 9705   2.010   1.472   4.595  0.1790  0.2134  0.5106
    1SOL    HW2 9706   1.941   1.494   4.533 -0.0016 -0.2516  0.5393
    1SOL    HW3 9707   2.082   1.531   4.574  0.3923 -0.4421 -0.6218
    1SOL    MW4 9708   2.011   1.483   4.584  0.1833  0.0656  0.3648
    1SOL     OW 9709   4.278   3.012   4.153 -0.4580 -0.4655 -0.0462
    1SOL    HW2 9710   4.358   3.061   4.174 -0.9598  0.5539 -0.5147
    1SOL    HW3 9711   4.251   3.045   4.067 -1.2649 -0.9560  0.0142
    1SOL    MW4 9712   4.285   3.023   4.145 -0.6313 -0.3958 -0.1001
    1SOL     OW 9713   3.466   2.462   4.520  0.0189  0.4082  0.3318
    1SOL    HW2 9714   3.534   2.527   4.505  0.8457 -0.5517 -0.1333
    1SOL    HW3 9715   3.384   2.510   4.511  0.6078  1.2391 -0.6947
    1SOL    MW4 9716   3.464   2.477   4.517  0.2058  0.3910  0.1349
    1SOL     OW 9717   2.263   1.511   4.894 -0.2623 -0.2027  0.0560
    1SOL    HW2 9718   2.286   1.528   4.986 -0.6713  0.5686  0.0205
    1SOL    HW3 9719   2.245   1.597   4.858  0.3681 -0.4634 -0.8838
    1SOL    MW4 9720   2.264   1.524   4.902 -0.2332 -0.1353 -0.0725
    1SOL     OW 9721   1.295   1.644   4.570  0.4974  0.0354 -0.5435
    1SOL    HW2 9722   1.216   1.698   4.567 -0.1414 -0.8731 -0.2917
    1SOL    HW3 9723   1.343   1.676   4.646  1.0768  1.5381 -1.4978
    1SOL    MW4 9724   1.291   1.656   4.580  0.4896  0.1138 -0.6356
    1SOL     OW 9725   0.160   4.371   4.217  0.7692 -0.2197  0.1549
    1SOL    HW2 9726   0.148   4.370   4.312 -0.8446  1.6301  0.0194
    1SOL    HW3 9727   0.080   4.332   4.183 -0.0314  1.9028 -0.4932
    1SOL    MW4 9728   0.148   4.366   4.225  0.4506  0.3042  0.0520
    1SOL     OW 9729   3.150   1.078   4.139  0.2152 -0.4291 -0.6980
    1SOL    HW2 9730   3.152   1.125   4.055  1.4836 -0.3982 -0.6590
    1SOL    HW3 9731   3.074   1.115   4.185  1.6203  2.1769 -0.3461
    1SOL    MW4 9732   3.140   1.089   4.134  0.5682 -0.0812 -0.6461
    1SOL     OW 9733   0.894   0.866   4.494  0.2135 -0.6717 -0.0414
    1SOL    HW2 9734   0.804   0.841   4.516  0.3251 -0.9704  0.0710
    1SOL    HW3 9735   0.943   0.784   4.496  0.4862 -0.5095 -0.1172
    1SOL    MW4 9736   0.888   0.852   4.497  0.2642 -0.6897 -0.0362
    1SOL     OW 9737   0.432   0.042   4.226  0.2100  0.4981  0.6258
    1SOL    HW2 9738   0.425   0.020   4.319  1.1523  1.6483  0.9745
    1SOL    HW3 9739   0.518   0.009   4.199 -0.4730 -0.7493 -0.1110
    1SOL    MW4 9740   0.442   0.034   4.235  0.2442  0.4853  0.5746
    1SOL     OW 9741   0.648   0.397   4.080 -0.5468 -0.0318  0.3949
    1SOL    HW2 9742   0.645   0.492   4.095 -1.3242  0.0797 -0.4097
    1SOL    HW3 9743   0.592   0.383   4.003 -1.7754 -1.3296  1.4861
    1SOL    MW4 9744   0.640   0.408   4.072 -0.8113 -0.1883  0.4325
    1SOL     OW 9745   0.866   0.862   4.226  0.2448 -0.3138 -0.3472
    1SOL    HW2 9746   0.879   0.955   4.204  0.8164  0.1513  1.8201
    1SOL    HW3 9747   0.900   0.854   4.315  1.4033 -2.9152 -0.9791
    1SOL    MW4 9748   0.872   0.873   4.235  0.4731 -0.5956 -0.1445
    1SOL     OW 9749   4.008   0.477   4.816 -0.6107 -0.0265  0.1100
    1SOL    HW2 9750   3.945   0.542   4.786  0.3361  0.6609 -0.3919
    1SOL    HW3 9751   3.957   0.421   4.876 -1.6937  0.5098 -0.2866
    1SOL    MW4 9752   3.993   0.478   4.820 -0.6287  0.1350 -0.0081
    1SOL     OW 9753   2.592   1.987   4.349  0.5087 -0.0388  0.7975
    1SOL    HW2 9754   2.632   1.921   4.404 -1.2846 -0.4551  1.6506
    1SOL    HW3 9755   2.546   2.045   4.410 -0.4664  0.2148 -0.1577
    1SOL    MW4 9756   2.591   1.986   4.364  0.1438 -0.0603  0.7844
    1SOL     OW 9757   0.646   1.539   4.170 -0.3359 -0.0748 -0.4575
    1SOL    HW2 9758   0.637   1.445   4.188  0.5240  0.0353  0.6071
    1SOL    HW3 9759   0.626   1.547   4.077  1.7769 -1.6520 -1.0903
    1SOL    MW4 9760   0.642   1.527   4.160  0.0563 -0.2685 -0.4010
    1SOL     OW 9761   0.203   0.673   4.108 -0.2833 -0.1422 -0.0175
    1SOL    HW2 9762   0.211   0.602   4.172 -1.3713 -1.8574 -1.7197
    1SOL    HW3 9763   0.139   0.733   4.146  0.5450 -0.1136  1.3735
    1SOL    MW4 9764   0.196   0.672   4.122 -0.3176 -0.3647 -0.0587
    1SOL     OW 9765   0.690   2.225   4.559  0.3141  0.2596 -0.1594
    1SOL    HW2 9766   0.782   2.250   4.570  0.8912 -1.8866  0.1037
    1SOL    HW3 9767   0.692   2.129   4.553 -1.9925  0.1328  0.7652
    1SOL    MW4 9768   0.703   2.215   4.560  0.0858 -0.0401 -0.0024
    1SOL     OW 9769   3.784   1.219   4.545  0.3135 -0.0899 -0.0666
    1SOL    HW2 9770   3.824   1.299   4.580 -1.0851  0.9869 -0.8596
    1SOL    HW3 9771   3.796   1.227   4.451  0.7140 -1.1354 -0.1031
    1SOL    MW4 9772   3.791   1.231   4.537  0.1817 -0.0857 -0.1764
    1SOL     OW 9773   0.421   1.974   4.187  0.2345  0.1408 -0.7201
    1SOL    HW2 9774   0.515   1.985   4.198  0.1495  0.0589  0.0967
    1SOL    HW3 9775   0.409   1.963   4.092  0.9923  0.6141 -0.8727
    1SOL    MW4 9776   0.432   1.974   4.176  0.3232  0.1923 -0.6328
    1SOL     OW 9777   1.905   3.146   4.511  0.9117  0.3025  0.1439
    1SOL    HW2 9778   1.981   3.089   4.503  0.6950  0.0463 -0.0781
    1SOL    HW3 9779   1.882   3.169   4.421 -0.7929 -1.6342  0.0641
    1SOL    MW4 9780   1.912   3.141   4.498  0.6583  0.0134  0.1035
    1SOL     OW 9781   0.694   2.282   4.196 -0.1740 -0.4035 -0.4989
    1SOL    HW2 9782   0.609   2.308   4.231  0.7144  2.3397 -0.2240
    1SOL    HW3 9783   0.682   2.285   4.101 -0.9851 -2.2392 -0.4744
    1SOL    MW4 9784   0.682   2.286   4.188 -0.1639 -0.2837 -0.4597
    1SOL     OW 9785   2.024   4.285   4.530 -0.2901  0.0513 -0.2927
    1SOL    HW2 9786   1.937   4.261   4.561 -0.2026 -1.1162 -0.9393
    1SOL    HW3 9787   2.011   4.317   4.441 -0.0668 -0.0401 -0.3598
    1SOL    MW4 9788   2.011   4.286   4.523 -0.2491 -0.1149 -0.3872
    1SOL     OW 9789   0.652   2.812   4.251  0.5239 -0.3719  0.0537
    1SOL    HW2 9790   0.724   2.764   4.210 -0.1407 -2.2254  1.0102
    1SOL    HW3 9791   0.573   2.765   4.224 -0.5977  3.0196 -2.9113
    1SOL    MW4 9792   0.651   2.800   4.242  0.2882 -0.1690 -0.2112
    1SOL     OW 9793   1.608   2.814   4.178  0.2256  0.2914  0.3255
    1SOL    HW2 9794   1.618   2.820   4.273  0.9564  2.0175  0.1487
    1SOL    HW3 9795   1.691   2.777   4.147  0.2517  0.3720  0.2980
    1SOL    MW4 9796   1.620   2.810   4.187  0.3254  0.5295  0.2990
    1SOL     OW 9797   0.651   3.074   4.171 -0.1442  0.1693 -0.1745
    1SOL    HW2 9798   0.651   2.981   4.195  0.7677  0.2818  0.3062
    1SOL    HW3 9799   0.569   3.108   4.205 -0.2439 -0.3493  0.1086
    1SOL    MW4 9800   0.640   3.066   4.178 -0.0370  0.1159 -0.0739
    1SOL     OW 9801   0.003   3.144   4.228 -0.3121  0.4119 -0.1940
    1SOL    HW2 9802  -0.004   3.230   4.185 -0.1507  0.9804  0.8851
    1SOL    HW3 9803   0.012   3.165   4.321  0.9653 -0.7362 -0.0428
    1SOL    MW4 9804   0.004   3.158   4.235 -0.1223  0.3352 -0.0315
    1SOL     OW 9805   0.665   1.301   4.518 -0.2300 -0.1535  0.1114
    1SOL    HW2 9806   0.585   1.288   4.568  0.3776  0.3758  1.2305
    1SOL    HW3 9807   0.714   1.367   4.567  1.1638 -0.9145 -0.2296
    1SOL    MW4 9808   0.661   1.308   4.531  0.0340 -0.1841  0.2146
    1SOL     OW 9809   3.361   3.717   4.541  0.5616  0.1207  0.1253
    1SOL    HW2 9810   3.446   3.674   4.540  1.3784  1.6779 -0.3506
    1SOL    HW3 9811   3.301   3.653   4.577  1.8703 -1.1406  0.0861
    1SOL    MW4 9812   3.365   3.703   4.545  0.8421  0.1600  0.0572
    1SOL     OW 9813   0.675   3.621   4.224 -0.4653 -0.1301 -0.2403
    1SOL    HW2 9814   0.747   3.563   4.199  0.9148  1.5539 -0.2508
    1SOL    HW3 9815   0.700   3.706   4.189 -2.6294  0.4177 -0.5262
    1SOL    MW4 9816   0.688   3.625   4.216 -0.5687  0.1643 -0.2794
    1SOL     OW 9817   2.335   0.259   4.355  0.0909 -0.6511  0.1962
    1SOL    HW2 9818   2.330   0.303   4.270 -0.6981 -1.0284  0.0384
    1SOL    HW3 9819   2.290   0.319   4.415 -0.6841 -1.0720  0.0475
    1SOL    MW4 9820   2.328   0.273   4.352 -0.1154 -0.7564  0.1559
    1SOL     OW 9821   4.219   0.640   4.605  0.3087 -0.2591 -0.4173
    1SOL    HW2 9822   4.204   0.624   4.698  0.6860  2.3638  0.1376
    1SOL    HW3 9823   4.133   0.660   4.570  0.5462  1.5859 -0.0059
    1SOL    MW4 9824   4.206   0.640   4.613  0.3901  0.3304 -0.2894
    1SOL     OW 9825   0.078   0.095   4.747  0.1232 -0.2067 -0.3756
    1SOL    HW2 9826   0.150   0.148   4.712 -0.3036  0.3933 -0.3634
    1SOL    HW3 9827   0.009   0.102   4.680  0.6626 -2.0886 -1.1441
    1SOL    MW4 9828   0.078   0.103   4.733  0.1380 -0.3758 -0.4754
    1SOL     OW 9829   1.156   4.657   4.149 -0.1692 -0.0448 -0.1120
    1SOL    HW2 9830   1.164   4.566   4.177 -1.8076 -0.1871 -0.0777
    1SOL    HW3 9831   1.157   4.653   4.053  1.2562  0.0574 -0.1164
    1SOL    MW4 9832   1.157   4.644   4.140 -0.1973 -0.0501 -0.1082
    1SOL     OW 9833   0.913   0.034   4.270  0.0383  0.4014 -0.4145
    1SOL    HW2 9834   0.893   0.128   4.263 -0.1023  0.3719 -0.4040
    1SOL    HW3 9835   0.996   0.024   4.223  0.6108  0.7265  0.5067
    1SOL    MW4 9836   0.922   0.045   4.263  0.0954  0.4404 -0.2918
    1SOL     OW 9837   0.384   4.044   4.707 -0.3272 -0.2518 -0.2711
    1SOL    HW2 9838   0.450   4.036   4.638 -0.3601 -0.0696 -0.3240
    1SOL    HW3 9839   0.384   4.137   4.730 -0.9264 -0.1559 -0.6289
    1SOL    MW4 9840   0.392   4.055   4.701 -0.4106 -0.2151 -0.3257
    1SOL     OW 9841   0.422   1.708   4.284 -0.3756  0.1281  0.0669
    1SOL    HW2 9842   0.508   1.671   4.264 -0.6710  0.0875 -1.1261
    1SOL    HW3 9843   0.425   1.796   4.246 -1.5358 -0.5496 -1.6415
    1SOL    MW4 9844   0.434   1.715   4.277 -0.5677  0.0333 -0.3161
    1SOL     OW 9845   1.087   0.413   4.115 -0.3567  0.4514  0.5889
    1SOL    HW2 9846   1.161   0.379   4.166  0.2454  1.2218  0.2435
    1SOL    HW3 9847   1.087   0.507   4.134 -0.1689  0.7270 -0.7772
    1SOL    MW4 9848   1.097   0.421   4.124 -0.2526  0.5894  0.3633
    1SOL     OW 9849   1.657   0.503   4.429  0.6689 -0.6941 -0.1193
    1SOL    HW2 9850   1.610   0.421   4.444 -0.7419 -0.0332 -0.8365
    1SOL    HW3 9851   1.599   0.570   4.466  0.2204  0.2948 -2.5586
    1SOL    MW4 9852   1.643   0.501   4.436  0.4236 -0.4764 -0.5355
    1SOL     OW 9853   0.894   1.138   4.177 -0.4626 -0.0227 -0.5344
    1SOL    HW2 9854   0.807   1.174   4.194 -0.1475  1.6204 -2.2322
    1SOL    HW3 9855   0.952   1.184   4.238 -0.7262 -0.9083  0.3944
    1SOL    MW4 9856   0.891   1.149   4.187 -0.4557  0.0772 -0.6361
    1SOL     OW 9857   0.021   1.593   4.520 -0.2926 -0.0419 -0.1457
    1SOL    HW2 9858   0.115   1.603   4.535 -0.3097  0.7157 -0.5365
    1SOL    HW3 9859  -0.017   1.676   4.548 -0.8044 -0.1975 -0.3685
    1SOL    MW4 9860   0.028   1.605   4.526 -0.3624  0.0376 -0.2265
    1SOL     OW 9861   3.604   3.593   4.512 -0.3050 -0.0187  0.4043
    1SOL    HW2 9862   3.633   3.502   4.514  1.3471  0.4980  1.1159
    1SOL    HW3 9863   3.671   3.638   4.460 -1.6105  0.6299 -0.7424
    1SOL    MW4 9864   3.617   3.587   4.505 -0.2589  0.1352  0.3467
    1SOL     OW 9865   1.296   3.493   4.555 -0.3780 -0.0772  0.0523
    1SOL    HW2 9866   1.211   3.534   4.573 -0.3769  1.3417 -2.9384
    1SOL    HW3 9867   1.358   3.566   4.552  0.5064 -0.8339 -0.2358
    1SOL    MW4 9868   1.293   3.508   4.557 -0.2611  0.0100 -0.3800
    1SOL     OW 9869   0.197   1.904   4.644 -0.3000 -0.3911  0.1977
    1SOL    HW2 9870   0.257   1.865   4.580 -1.5466 -0.5540 -0.8825
    1SOL    HW3 9871   0.240   1.889   4.728  0.3849 -1.9998 -0.4079
    1SOL    MW4 9872   0.211   1.897   4.647 -0.3741 -0.6250 -0.0248
    1SOL     OW 9873   0.906   1.878   4.151  0.2364  0.3829 -1.0079
    1SOL    HW2 9874   0.978   1.934   4.179  1.1402 -0.9133 -0.6937
    1SOL    HW3 9875   0.900   1.892   4.057  0.0515  1.4607 -0.8416
    1SOL    MW4 9876   0.915   1.887   4.143  0.3313  0.3541 -0.9446
    1SOL     OW 9877   2.464   2.166   4.507  0.5891 -0.0389  0.3565
    1SOL    HW2 9878   2.410   2.240   4.479  0.4495 -0.7418 -1.3216
    1SOL    HW3 9879   2.408   2.113   4.563  0.4775  0.7766  1.0156
    1SOL    MW4 9880   2.450   2.169   4.510  0.5562 -0.0243  0.2222
    1SOL     OW 9881   0.335   3.862   4.421 -0.2181  0.0044 -0.1662
    1SOL    HW2 9882   0.355   3.776   4.457 -0.8052 -0.3191 -0.5937
    1SOL    HW3 9883   0.278   3.903   4.486 -1.1549 -0.5195 -0.6470
    1SOL    MW4 9884   0.330   3.856   4.434 -0.4192 -0.1073 -0.2861
    1SOL     OW 9885   0.888   2.702   4.131 -0.4349  0.5647 -0.0131
    1SOL    HW2 9886   0.881   2.612   4.166 -0.6058  0.5854  0.0069
    1SOL    HW3 9887   0.978   2.727   4.150  0.0202 -0.1097 -1.2494
    1SOL    MW4 9888   0.899   2.693   4.138 -0.3975  0.4783 -0.1736
    1SOL     OW 9889   0.438   3.804   4.803 -0.1979 -0.5670 -0.3660
    1SOL    HW2 9890   0.505   3.810   4.870  0.8154  2.3542 -1.5464
    1SOL    HW3 9891   0.412   3.895   4.787 -2.1399 -1.3972 -2.1924
    1SOL    MW4 9892   0.443   3.817   4.810 -0.3204 -0.2911 -0.7625
    1SOL     OW 9893   1.136   3.091   4.148 -0.3953  0.1606 -0.0270
    1SOL    HW2 9894   1.124   3.083   4.054 -0.5165 -0.7081  0.0556
    1SOL    HW3 9895   1.049   3.114   4.181 -0.2430  0.9725 -0.1729
    1SOL    MW4 9896   1.123   3.093   4.140 -0.3911  0.1528 -0.0348
    1SOL     OW 9897   3.561   0.116   4.245 -0.0311  0.1428  0.3080
    1SOL    HW2 9898   3.637   0.058   4.243 -0.1730 -0.0457  0.3757
    1SOL    HW3 9899   3.593   0.199   4.210 -0.0805 -0.2850 -0.7798
    1SOL    MW4 9900   3.575   0.119   4.240 -0.0560  0.0615  0.1731
    1SOL     OW 9901   0.177   3.557   4.184  0.2460 -0.3598  0.4131
    1SOL    HW2 9902   0.189   3.649   4.161 -0.5952  0.3159  2.5393
    1SOL    HW3 9903   0.263   3.517   4.169  0.9144  1.0199  0.4941
    1SOL    MW4 9904   0.190   3.564   4.179  0.2232 -0.0885  0.7043
    1SOL     OW 9905   3.965   2.657   4.138 -0.4250 -0.2914 -0.1006
    1SOL    HW2 9906   3.954   2.567   4.169  0.5044 -0.0170  1.0372
    1SOL    HW3 9907   3.897   2.706   4.184 -0.4169 -0.2646 -0.1174
    1SOL    MW4 9908   3.954   2.652   4.148 -0.3014 -0.2515  0.0472
    1SOL     OW 9909   2.056   2.852   4.222 -0.1254 -0.3807 -0.2195
    1SOL    HW2 9910   1.978   2.807   4.190 -0.1951  0.2982 -1.0271
    1SOL    HW3 9911   2.125   2.786   4.220 -0.4665 -0.7338 -0.3740
    1SOL    MW4 9912   2.055   2.837   4.218 -0.1795 -0.3376 -0.3462
    1SOL     OW 9913   0.399   3.209   4.253 -0.1131 -0.2374  0.4856
    1SOL    HW2 9914   0.403   3.301   4.227 -0.1650 -0.3865 -0.0431
    1SOL    HW3 9915   0.375   3.212   4.346 -2.0185  0.2452 -0.0004
    1SOL    MW4 9916   0.396   3.221   4.262 -0.3713 -0.1936  0.3524
    1SOL     OW 9917   0.944   4.259   4.111 -0.2829  0.4033  0.0600
    1SOL    HW2 9918   0.861   4.292   4.147  0.4338  1.4676  0.7593
    1SOL    HW3 9919   0.950   4.169   4.142 -0.5221  0.7551  1.1305
    1SOL    MW4 9920   0.934   4.252   4.120 -0.2199  0.5898  0.2933
    1SOL     OW 9921   0.372   4.336   4.755 -0.4629  0.4011  0.0635
    1SOL    HW2 9922   0.436   4.407   4.763 -0.7523  0.4672  2.0226
    1SOL    HW3 9923   0.292   4.380   4.728  0.1259  0.4091 -1.7095
    1SOL    MW4 9924   0.370   4.351   4.752 -0.4234  0.4110  0.0882
    1SOL     OW 9925   2.627   4.002   4.219  0.2005  0.1882  0.0732
    1SOL    HW2 9926   2.625   3.995   4.314 -0.2608 -0.1108  0.0447
    1SOL    HW3 9927   2.550   3.953   4.190  0.3077  0.3262 -0.4495
    1SOL    MW4 9928   2.616   3.994   4.227  0.1540  0.1669  0.0005
    1SOL     OW 9929   1.378   0.091   4.300  0.0302 -0.6815  0.0026
    1SOL    HW2 9930   1.357   0.061   4.388 -0.7116  0.8628  0.3665
    1SOL    HW3 9931   1.308   0.056   4.244  0.5131 -1.6774  0.0182
    1SOL    MW4 9932   1.366   0.083   4.304 -0.0041 -0.6091  0.0520
    1SOL     OW 9933   1.337   0.382   4.272 -0.2639  0.0419 -0.6333
    1SOL    HW2 9934   1.416   0.425   4.239  0.3918  0.3708  1.2643
    1SOL    HW3 9935   1.344   0.292   4.241  0.6645  0.1615 -0.7970
    1SOL    MW4 9936   1.348   0.376   4.264 -0.0547  0.1011 -0.4044
    1SOL     OW 9937   1.462   3.085   4.708 -0.0033  0.0492  0.0475
    1SOL    HW2 9938   1.457   3.081   4.804 -1.2465 -2.2050 -0.0771
    1SOL    HW3 9939   1.553   3.066   4.688 -0.3134 -2.2082  0.6943
    1SOL    MW4 9940   1.473   3.082   4.718 -0.2083 -0.5457  0.1168
    1SOL     OW 9941   2.325   1.998   4.682 -0.4420 -0.1597  0.0729
    1SOL    HW2 9942   2.268   2.072   4.703 -0.3982 -0.3540  0.9169
    1SOL    HW3 9943   2.286   1.958   4.605  0.5189  1.8139 -1.4889
    1SOL    MW4 9944   2.313   2.003   4.675 -0.3097  0.0751 -0.0219
    1SOL     OW 9945   1.062   4.022   4.474 -0.0523  0.2551  0.0592
    1SOL    HW2 9946   1.058   4.115   4.499  0.1418  0.4213 -0.5265
    1SOL    HW3 9947   1.021   3.976   4.547  1.3790  0.6548  1.1257
    1SOL    MW4 9948   1.056   4.028   4.487  0.1621  0.3295  0.1225
    1SOL     OW 9949   0.898   3.204   4.240  0.3508  0.0694  0.4465
    1SOL    HW2 9950   0.895   3.233   4.331  0.5577  1.8563 -0.0935
    1SOL    HW3 9951   0.810   3.170   4.223  0.1649  0.1730  1.1777
    1SOL    MW4 9952   0.886   3.203   4.250  0.3536  0.3185  0.4716
    1SOL     OW 9953   1.512   1.247   4.199  0.4110  0.0906 -0.1126
    1SOL    HW2 9954   1.590   1.204   4.164 -0.8506 -1.6905 -0.7629
    1SOL    HW3 9955   1.507   1.330   4.151  1.0707 -0.4549 -1.1424
    1SOL    MW4 9956   1.522   1.253   4.188  0.3316 -0.2165 -0.3343
    1SOL     OW 9957   3.297   2.848   4.532  0.3928  0.1266 -0.8422
    1SOL    HW2 9958   3.379   2.880   4.570 -0.9945  0.8911  1.6420
    1SOL    HW3 9959   3.240   2.924   4.531 -0.9973 -0.8830 -0.4359
    1SOL    MW4 9960   3.301   2.862   4.537  0.0262  0.0939 -0.4601
    1SOL     OW 9961   3.354   4.444   4.489  0.4324  0.1163 -0.3423
    1SOL    HW2 9962   3.276   4.438   4.543 -0.9438  1.7754 -2.0904
    1SOL    HW3 9963   3.414   4.499   4.539 -0.4996  0.9287 -0.1073
    1SOL    MW4 9964   3.352   4.450   4.503  0.1278  0.4425 -0.5417
    1SOL     OW 9965   2.760   2.224   4.271  0.2289  0.5814  0.0209
    1SOL    HW2 9966   2.707   2.144   4.275 -0.0266  0.6872 -1.0474
    1SOL    HW3 9967   2.700   2.290   4.237  1.2725  0.5028 -2.0325
    1SOL    MW4 9968   2.745   2.222   4.267  0.3331  0.5851 -0.3910
    1SOL     OW 9969   0.999   0.287   4.623 -0.5941  0.3374 -0.7105
    1SOL    HW2 9970   1.079   0.339   4.615  0.0478 -0.4670  0.3635
    1SOL    HW3 9971   0.934   0.336   4.572  0.4630  1.2145 -1.2564
    1SOL    MW4 9972   1.001   0.300   4.615 -0.3699  0.3470 -0.6404
    1SOL     OW 9973   2.355   0.608   4.480  0.2520  0.1437  0.8066
    1SOL    HW2 9974   2.398   0.608   4.395  0.4193  1.1145  0.8808
    1SOL    HW3 9975   2.300   0.687   4.479  2.7205  1.9524  2.8109
    1SOL    MW4 9976   2.353   0.619   4.469  0.5996  0.5103  1.0805
    1SOL     OW 9977   1.799   2.694   3.807 -0.3130 -0.3510 -0.0517
    1SOL    HW2 9978   1.713   2.732   3.792 -0.4333  0.1250  1.7502
    1SOL    HW3 9979   1.789   2.601   3.786 -0.5184  0.1887 -2.5630
    1SOL    MW4 9980   1.787   2.686   3.802 -0.3560 -0.2170 -0.1452
    1SOL     OW 9981   2.959   3.727   4.485  0.1347  0.4587  0.0149
    1SOL    HW2 9982   2.986   3.819   4.479  1.6697 -0.0476 -0.9752
    1SOL    HW3 9983   3.038   3.679   4.509 -0.5285 -0.6847 -0.0151
    1SOL    MW4 9984   2.973   3.733   4.488  0.2499  0.2410 -0.1197
    1SOL     OW 9985   1.123   2.036   4.247 -0.0236 -0.5707 -0.2308
    1SOL    HW2 9986   1.190   1.970   4.229 -1.3928 -2.6033  1.9099
    1SOL    HW3 9987   1.139   2.064   4.337 -1.6964 -0.6890  0.1272
    1SOL    MW4 9988   1.134   2.031   4.256 -0.4249 -0.8543  0.0987
    1SOL     OW 9989   3.507   4.014   4.272  0.4147 -0.0309 -0.1498
    1SOL    HW2 9990   3.592   3.983   4.242  0.2428  0.4471 -1.1725
    1SOL    HW3 9991   3.444   3.954   4.230  0.3081 -1.4231  1.9303
    1SOL    MW4 9992   3.510   4.002   4.262  0.3777 -0.1516 -0.0100
    1SOL     OW 9993   3.093   0.825   4.251 -0.3743  0.2802  0.3473
    1SOL    HW2 9994   3.115   0.911   4.215  0.8133  0.3348  1.1876
    1SOL    HW3 9995   3.087   0.839   4.345 -2.0067 -0.1770  0.3184
    1SOL    MW4 9996   3.095   0.838   4.259 -0.4330  0.2271  0.4544
    1SOL     OW 9997   3.099   0.130   4.483  0.1702  0.6090  0.1620
    1SOL    HW2 9998   3.192   0.134   4.504  0.3910  0.1326 -0.7041
    1SOL    HW3 9999   3.060   0.205   4.528  0.9061  0.5781  0.8496
    1SOL    MW410000   3.106   0.141   4.492  0.2964  0.5421  0.1388
    1SOL     OW10001   1.764   0.074   4.307  0.5335  0.6754  0.1407
    1SOL    HW210002   1.840   0.038   4.261  0.4440  1.7554 -0.8866
    1SOL    HW310003   1.688   0.030   4.268  0.6117 -0.3267  1.0944
    1SOL    MW410004   1.764   0.064   4.295  0.5320  0.6857  0.1311
    1SOL     OW10005   0.713   3.884   4.123 -0.5220  0.5520  0.6642
    1SOL    HW210006   0.633   3.919   4.161  0.2275  1.4234  1.4429
    1SOL    HW310007   0.783   3.940   4.156  0.2918  0.5158 -0.9254
    1SOL    MW410008   0.712   3.896   4.132 -0.3157  0.6623  0.5569
    1SOL     OW10009   0.966   4.008   4.220 -0.2550 -0.6208  0.1333
    1SOL    HW210010   1.024   3.951   4.169 -1.7355 -2.2105  0.1514
    1SOL    HW310011   1.005   4.009   4.308 -0.3994 -1.9458  0.2333
    1SOL    MW410012   0.979   4.001   4.225 -0.4694 -1.0052  0.1483
    1SOL     OW10013   1.574   0.493   4.159  0.1557 -0.4777 -0.1432
    1SOL    HW210014   1.610   0.530   4.240 -0.2969 -0.1131 -0.1069
    1SOL    HW310015   1.556   0.569   4.103  0.1895 -0.7087 -0.4698
    1SOL    MW410016   1.576   0.508   4.162  0.1006 -0.4601 -0.1817
    1SOL     OW10017   1.580   0.245   4.453  0.3930 -0.0163  0.1913
    1SOL    HW210018   1.510   0.224   4.391  0.1065 -0.9240  0.8045
    1SOL    HW310019   1.648   0.180   4.435  0.8369  0.5007 -0.0099
    1SOL    MW410020   1.579   0.234   4.443  0.4137 -0.0679  0.2460
    1SOL     OW10021   1.973   4.599   4.177 -0.1951  0.4518  0.2426
    1SOL    HW210022   2.052   4.641   4.211  0.3200  0.9617 -1.5367
    1SOL    HW310023   1.987   4.595   4.082 -0.8021 -2.5172  0.2295
    1SOL    MW410024   1.985   4.604   4.169 -0.2072  0.1273  0.0057
    1SOL     OW10025   2.012   0.727   4.077 -0.4512  0.1872  0.1949
    1SOL    HW210026   2.081   0.782   4.112 -0.3718 -0.1503  0.5707
    1SOL    HW310027   2.015   0.647   4.130  0.8898 -1.0935 -1.7471
    1SOL    MW410028   2.022   0.724   4.089 -0.2639 -0.0263 -0.0124
    1SOL     OW10029   1.566   4.606   4.142  0.2912  0.3278 -0.3090
    1SOL    HW210030   1.504   4.646   4.203 -0.5504  0.2152 -1.0850
    1SOL    HW310031   1.571   4.515   4.169  0.4793  0.4396  0.0423
    1SOL    MW410032   1.558   4.599   4.154  0.2052  0.3276 -0.3648
    1SOL     OW10033   0.907   4.428   4.631  0.2593 -0.2871  0.4736
    1SOL    HW210034   0.933   4.517   4.607 -2.5191  0.1150 -1.2839
    1SOL    HW310035   0.979   4.373   4.601  1.4158  1.2195  0.4063
    1SOL    MW410036   0.920   4.433   4.624  0.0453 -0.0348  0.2332
    1SOL     OW10037   3.832   0.774   4.139 -0.4876 -0.0249 -0.4885
    1SOL    HW210038   3.746   0.806   4.165  0.4898  2.4887 -0.1516
    1SOL    HW310039   3.826   0.767   4.043 -1.0655  0.1240 -0.4682
    1SOL    MW410040   3.820   0.778   4.130 -0.4349  0.3264 -0.4416
    1SOL     OW10041   3.430   0.153   4.499  0.1194 -0.0065  0.6275
    1SOL    HW210042   3.466   0.089   4.561  0.3033  0.2128  0.7458
    1SOL    HW310043   3.479   0.138   4.418  1.3514  1.1238  1.1424
    1SOL    MW410044   3.441   0.142   4.497  0.3059  0.1716  0.7114
    1SOL     OW10045   1.074   1.247   4.365  0.3244 -0.0520  0.3129
    1SOL    HW210046   1.152   1.194   4.352 -0.1446 -0.4991 -0.7249
    1SOL    HW310047   1.024   1.202   4.433  0.5092 -0.2889  0.2898
    1SOL    MW410048   1.078   1.234   4.372  0.2868 -0.1423  0.1731
    1SOL     OW10049   1.651   1.859   4.473 -0.2425  0.1970 -0.1932
    1SOL    HW210050   1.654   1.765   4.454  1.0436 -0.2796  2.2204
    1SOL    HW310051   1.742   1.886   4.473 -0.5282  1.1836  0.3529
    1SOL    MW410052   1.663   1.850   4.470 -0.1106  0.2643  0.1969
    1SOL     OW10053   1.585   1.188   4.759 -0.0763  0.0772 -0.0551
    1SOL    HW210054   1.681   1.183   4.765 -0.0861 -0.3127 -0.1889
    1SOL    HW310055   1.561   1.263   4.812  0.3364  0.3778 -0.2938
    1SOL    MW410056   1.595   1.197   4.766 -0.0231  0.0654 -0.1040
    1SOL     OW10057   1.551   1.547   4.125 -0.5564  0.0151  0.2033
    1SOL    HW210058   1.632   1.591   4.152 -0.3090  0.2250 -0.8477
    1SOL    HW310059   1.487   1.572   4.191  0.4132 -0.7180  1.4431
    1SOL    MW410060   1.554   1.556   4.137 -0.3958 -0.0540  0.2284
    1SOL     OW10061   1.125   1.477   4.185  0.4799  0.2434  0.1970
    1SOL    HW210062   1.123   1.398   4.238 -0.8192 -0.6836 -1.1862
    1SOL    HW310063   1.046   1.525   4.212  0.2069  0.1132 -0.3531
    1SOL    MW410064   1.114   1.473   4.196  0.2725  0.1040 -0.0577
    1SOL     OW10065   0.441   2.341   4.528 -0.0719 -0.0000  0.0619
    1SOL    HW210066   0.375   2.280   4.560  1.3877 -1.8749 -0.4110
    1SOL    HW310067   0.524   2.293   4.537  1.0704  1.8203 -0.5593
    1SOL    MW410068   0.443   2.326   4.533  0.2714 -0.0072 -0.0820
    1SOL     OW10069   3.580   2.676   4.166 -0.3480  0.0607 -0.5935
    1SOL    HW210070   3.573   2.660   4.072 -1.4010 -3.8160  0.0279
    1SOL    HW310071   3.502   2.727   4.188 -0.7210 -0.0616 -1.6259
    1SOL    MW410072   3.569   2.680   4.157 -0.5362 -0.4671 -0.6471
    1SOL     OW10073   3.373   1.700   4.249  0.6844 -0.3430 -0.0635
    1SOL    HW210074   3.388   1.730   4.339  0.8440 -0.0274 -0.1937
    1SOL    HW310075   3.282   1.670   4.249  0.9271 -1.0851  0.4074
    1SOL    MW410076   3.363   1.700   4.261  0.7374 -0.3992 -0.0186
    1SOL     OW10077   2.252   2.655   4.183  0.2634  0.1313  0.2996
    1SOL    HW210078   2.224   2.650   4.091  0.9215  0.1290  0.0915
    1SOL    HW310079   2.230   2.569   4.220 -0.0958  0.1681  0.1674
    1SOL    MW410080   2.245   2.643   4.176  0.3028  0.1359  0.2546
    1SOL     OW10081   2.120   1.283   4.741  0.0638 -0.3102  0.0256
    1SOL    HW210082   2.077   1.340   4.677 -0.1357 -0.4041  0.0744
    1SOL    HW310083   2.162   1.343   4.803  1.6274 -0.2197 -1.1049
    1SOL    MW410084   2.120   1.298   4.741  0.2437 -0.3107 -0.1173
    1SOL     OW10085   2.735   1.837   4.150  0.6788  0.0888  0.0919
    1SOL    HW210086   2.697   1.904   4.206 -1.0626 -0.0772 -0.8531
    1SOL    HW310087   2.725   1.755   4.199 -0.3356  0.0261 -0.2098
    1SOL    MW410088   2.729   1.835   4.164  0.3152  0.0585 -0.0730
    1SOL     OW10089   1.374   2.675   4.122 -0.5175  0.1321  0.1624
    1SOL    HW210090   1.302   2.728   4.156  0.1318  1.5769 -0.6757
    1SOL    HW310091   1.453   2.721   4.148  0.0380 -0.0405 -1.1464
    1SOL    MW410092   1.375   2.688   4.130 -0.3586  0.3002 -0.1206
    1SOL     OW10093   2.044   3.579   4.265 -0.5382  0.1046 -0.5088
    1SOL    HW210094   1.959   3.544   4.237 -0.4520 -0.7933  0.3436
    1SOL    HW310095   2.046   3.668   4.229 -1.3681 -0.2524 -1.4749
    1SOL    MW410096   2.033   3.586   4.256 -0.6366 -0.0608 -0.5245
    1SOL     OW10097   0.863   1.720   4.550  0.3583 -0.1251 -0.1986
    1SOL    HW210098   0.875   1.692   4.459 -1.6778 -0.0648 -0.5036
    1SOL    HW310099   0.845   1.639   4.598 -0.2498  0.0444 -0.1420
    1SOL    MW410100   0.863   1.706   4.545  0.0094 -0.0949 -0.2317
    1SOL     OW10101   2.000   3.844   4.175 -0.4774 -0.0934 -0.2520
    1SOL    HW210102   2.009   3.847   4.080 -0.9775 -1.5463 -0.3603
    1SOL    HW310103   1.918   3.890   4.194 -0.7954 -0.5161 -0.5976
    1SOL    MW410104   1.991   3.850   4.165 -0.5853 -0.3409 -0.3119
    1SOL     OW10105   1.357   4.249   4.114 -0.2806 -0.4036  0.0600
    1SOL    HW210106   1.336   4.242   4.021 -0.2025 -0.7522  0.0673
    1SOL    HW310107   1.367   4.158   4.143  0.2172 -0.2831  0.2832
    1SOL    MW410108   1.356   4.236   4.105 -0.2047 -0.4334  0.0901
    1SOL     OW10109   1.546   3.848   4.106 -0.1158  0.0557 -0.8157
    1SOL    HW210110   1.541   3.759   4.139 -3.1791  0.7314  0.7863
    1SOL    HW310111   1.624   3.885   4.147 -1.0739 -0.6913  1.8099
    1SOL    MW410112   1.555   3.841   4.116 -0.6465  0.0465 -0.2584
    1SOL     OW10113   2.462   2.827   4.193 -0.5430  0.5237  0.2808
    1SOL    HW210114   2.439   2.912   4.157 -1.3499 -0.0124 -0.4796
    1SOL    HW310115   2.383   2.775   4.186 -0.1563 -0.1947  1.0664
    1SOL    MW410116   2.449   2.831   4.188 -0.5984  0.3581  0.2837
    1SOL     OW10117   2.404   4.665   4.108  0.2048 -0.1182  0.4109
    1SOL    HW210118   2.468   4.724   4.150 -0.5143  0.6188  0.4817
    1SOL    HW310119   2.326   4.672   4.164 -0.3965  0.0450 -0.4496
    1SOL    MW410120   2.402   4.674   4.121  0.0305  0.0005  0.3066
    1SOL     OW10121   3.993   1.880   4.406  0.5083  0.1498 -0.0379
    1SOL    HW210122   4.036   1.840   4.482  0.7473 -0.9229 -0.7313
    1SOL    HW310123   3.936   1.947   4.444 -1.2057 -2.0097  1.2811
    1SOL    MW410124   3.991   1.884   4.421  0.3133 -0.2768  0.0448
    1SOL     OW10125   1.235   0.476   4.507  0.1909 -0.3641 -0.2384
    1SOL    HW210126   1.308   0.533   4.532 -0.4097  1.0719 -1.7023
    1SOL    HW310127   1.261   0.441   4.422  0.3210 -1.9271  0.4140
    1SOL    MW410128   1.248   0.479   4.499  0.1289 -0.3808 -0.3448
    1SOL     OW10129   2.482   0.837   4.087 -0.0487  0.3464 -0.1136
    1SOL    HW210130   2.475   0.811   3.995  1.7022  1.0869 -0.4868
    1SOL    HW310131   2.573   0.865   4.097 -0.1740  0.1219  1.8944
    1SOL    MW410132   2.493   0.837   4.076  0.1657  0.4145  0.1016
    1SOL     OW10133   3.871   3.177   4.722 -0.2255  0.2635 -0.2162
    1SOL    HW210134   3.895   3.096   4.677  1.2240  0.3277  0.4374
    1SOL    HW310135   3.926   3.179   4.800 -1.2668  1.1798  0.5081
    1SOL    MW410136   3.881   3.167   4.726 -0.1717  0.3927 -0.0348
    1SOL     OW10137   2.236   0.885   4.189 -0.7609 -0.3069 -0.6457
    1SOL    HW210138   2.216   0.970   4.149 -0.7034 -0.0534 -0.1423
    1SOL    HW310139   2.324   0.865   4.160 -0.3301  0.3589  0.1705
    1SOL    MW410140   2.245   0.894   4.180 -0.6962 -0.1856 -0.4721
    1SOL     OW10141   0.443   2.398   4.256 -0.1761  0.4007 -0.0447
    1SOL    HW210142   0.436   2.391   4.352 -1.1708 -2.1707 -0.2662
    1SOL    HW310143   0.455   2.492   4.240 -2.1633  1.1546  2.4675
    1SOL    MW410144   0.444   2.409   4.267 -0.5695  0.1609  0.2580
    1SOL     OW10145   0.226   1.245   4.250 -0.0732 -0.3629 -0.2877
    1SOL    HW210146   0.242   1.336   4.225  0.7851 -0.3314  0.3430
    1SOL    HW310147   0.308   1.200   4.229 -0.0930 -0.7549  0.4722
    1SOL    MW410148   0.239   1.251   4.244  0.0374 -0.4103 -0.1040
    1SOL     OW10149   2.698   1.176   4.031  0.3377  0.2188 -0.1199
    1SOL    HW210150   2.719   1.092   4.070 -0.7287  0.5232  1.1658
    1SOL    HW310151   2.694   1.159   3.937  0.6134 -1.0471  0.0899
    1SOL    MW410152   2.700   1.163   4.024  0.2332  0.0918  0.0777
    1SOL     OW10153   3.101   2.689   4.209 -0.5030 -0.1112 -0.2914
    1SOL    HW210154   3.021   2.696   4.262 -0.6260  0.4340 -0.5416
    1SOL    HW310155   3.122   2.596   4.210 -1.1961 -0.2712 -0.2956
    1SOL    MW410156   3.093   2.678   4.216 -0.6106 -0.0603 -0.3247
    1SOL     OW10157   0.416   4.269   4.156 -0.6905  0.2636 -0.0613
    1SOL    HW210158   0.427   4.281   4.062 -1.0155 -0.1204 -0.1512
    1SOL    HW310159   0.327   4.297   4.174 -0.7179  0.0862  0.0867
    1SOL    MW410160   0.406   4.274   4.146 -0.7370  0.1898 -0.0539
    1SOL     OW10161   1.193   2.116   4.494  0.0019 -0.0485  0.6941
    1SOL    HW210162   1.274   2.126   4.543 -0.0089  0.3034  0.6410
    1SOL    HW310163   1.136   2.184   4.528 -0.0594  0.0971  0.2976
    1SOL    MW410164   1.196   2.126   4.505 -0.0076  0.0169  0.6351
    1SOL     OW10165   2.603   1.623   4.624  0.0525 -0.4706  0.0250
    1SOL    HW210166   2.653   1.692   4.581  1.5287 -1.1602  0.5917
    1SOL    HW310167   2.613   1.642   4.718  0.2480 -1.2874  0.1731
    1SOL    MW410168   2.611   1.635   4.631  0.2732 -0.6694  0.1192
    1SOL     OW10169   3.051   1.445   4.496 -0.1426 -0.1737  0.3078
    1SOL    HW210170   3.074   1.496   4.419  0.9475 -0.6375  0.3327
    1SOL    HW310171   2.957   1.430   4.487 -0.0229 -0.1983 -0.8975
    1SOL    MW410172   3.041   1.450   4.485  0.0169 -0.2381  0.1521
    1SOL     OW10173   2.673   2.278   4.651  0.3613 -0.1630  0.2497
    1SOL    HW210174   2.608   2.231   4.598  0.6330 -0.8279  0.5037
    1SOL    HW310175   2.756   2.236   4.630  0.4658 -0.4634  1.2440
    1SOL    MW410176   2.675   2.266   4.641  0.4108 -0.2904  0.4139
    1SOL     OW10177   4.439   2.415   4.276  0.1250  0.4744  0.3867
    1SOL    HW210178   4.480   2.411   4.363  1.3387  0.4242 -0.1782
    1SOL    HW310179   4.511   2.398   4.215 -0.9251 -0.5255 -0.5856
    1SOL    MW410180   4.454   2.412   4.280  0.1464  0.3359  0.1836
    1SOL     OW10181   3.920   3.296   4.312  0.2133 -0.2845 -0.1690
    1SOL    HW210182   4.000   3.251   4.339  0.1729 -0.3898 -0.2213
    1SOL    HW310183   3.950   3.377   4.271  0.2904 -0.2936 -0.1311
    1SOL    MW410184   3.934   3.300   4.310  0.2182 -0.2997 -0.1712
    1SOL     OW10185   1.845   2.706   4.088  0.1572 -0.0453  0.3149
    1SOL    HW210186   1.869   2.614   4.102  1.3180  0.2671  0.4936
    1SOL    HW310187   1.828   2.713   3.994 -1.0922 -0.7011  0.4922
    1SOL    MW410188   1.846   2.695   4.078  0.1456 -0.0908  0.3624
    1SOL     OW10189   0.770   2.880   4.508  0.4383 -0.3098 -0.4598
    1SOL    HW210190   0.727   2.882   4.422 -1.6381  1.2867  0.5478
    1SOL    HW310191   0.774   2.787   4.531 -1.0579 -0.5969 -1.2956
    1SOL    MW410192   0.765   2.868   4.499 -0.0330 -0.1369 -0.4373
    1SOL     OW10193   4.372   3.585   4.481 -0.3595 -0.1028 -0.1434
    1SOL    HW210194   4.463   3.556   4.488 -0.1362  0.6794  0.2849
    1SOL    HW310195   4.377   3.681   4.491 -1.3026 -0.1251  0.5712
    1SOL    MW410196   4.385   3.594   4.483 -0.4544 -0.0024  0.0076
    1SOL     OW10197   2.613   3.037   4.545 -0.0108 -0.4354  0.3354
    1SOL    HW210198   2.611   3.125   4.508  1.9687 -0.0095  1.1692
    1SOL    HW310199   2.674   2.988   4.489  0.3665 -0.7356  1.0007
    1SOL    MW410200   2.621   3.042   4.533  0.3002 -0.4191  0.5331
    1SOL     OW10201   2.209   3.982   4.273  0.0331  0.3362  0.0849
    1SOL    HW210202   2.275   3.926   4.231 -0.7720 -0.0164 -0.7196
    1SOL    HW310203   2.126   3.938   4.257 -0.6738  1.9993 -0.9903
    1SOL    MW410204   2.207   3.969   4.265 -0.1662  0.5095 -0.1631
    1SOL     OW10205   2.422   4.395   4.215  0.0643  0.0952 -0.2996
    1SOL    HW210206   2.434   4.425   4.305 -2.0807 -0.7100  0.2686
    1SOL    HW310207   2.409   4.476   4.165  0.6079  0.5006  0.2006
    1SOL    MW410208   2.422   4.410   4.220 -0.1469  0.0429 -0.1588
    1SOL     OW10209   2.631   0.678   4.584 -0.5010 -0.4273  0.0433
    1SOL    HW210210   2.672   0.598   4.618 -0.5538 -0.7304 -0.6014
    1SOL    HW310211   2.539   0.654   4.572 -0.5171 -0.2651 -0.1481
    1SOL    MW410212   2.624   0.664   4.587 -0.5100 -0.4460 -0.0672
    1SOL     OW10213   2.621   0.116   4.212  0.1035 -0.2065 -0.3650
    1SOL    HW210214   2.640   0.209   4.196  1.0584 -0.7412 -2.6247
    1SOL    HW310215   2.703   0.071   4.189 -1.2100 -1.8238 -2.0230
    1SOL    MW410216   2.635   0.122   4.207  0.0560 -0.4904 -0.8821
    1SOL     OW10217   2.271   3.787   4.565  0.4023  0.4179 -0.0015
    1SOL    HW210218   2.202   3.721   4.558  0.6521  0.0454  1.0092
    1SOL    HW310219   2.224   3.870   4.570  0.0672  0.2734 -0.7044
    1SOL    MW410220   2.256   3.789   4.565  0.3912  0.3495  0.0391
    1SOL     OW10221   2.674   0.400   4.146 -0.4342 -0.3124 -0.1777
    1SOL    HW210222   2.625   0.480   4.166  0.8805  0.3967  0.2021
    1SOL    HW310223   2.688   0.404   4.051 -0.8523 -0.3766 -0.2451
    1SOL    MW410224   2.669   0.411   4.136 -0.3159 -0.2273 -0.1364
    1SOL     OW10225   0.604   4.019   4.504  0.2751 -0.3293  0.4151
    1SOL    HW210226   0.626   4.112   4.510  1.0074 -0.4564 -0.3208
    1SOL    HW310227   0.574   4.006   4.414  0.1063 -0.7955  0.5345
    1SOL    MW410228   0.603   4.029   4.493  0.3494 -0.4077  0.3338
    1SOL     OW10229   2.770   0.889   4.075  0.1578  0.3777 -0.0943
    1SOL    HW210230   2.812   0.841   4.146 -1.2846 -2.3410 -0.9824
    1SOL    HW310231   2.823   0.869   3.998  0.2215  1.1730 -0.2568
    1SOL    MW410232   2.782   0.880   4.074 -0.0238  0.1240 -0.2332
    1SOL     OW10233   2.472   2.567   4.414 -0.0591  0.0640  0.1833
    1SOL    HW210234   2.428   2.647   4.444  1.2507  0.3298  1.4788
    1SOL    HW310235   2.408   2.498   4.429 -0.5119  0.6146  0.8694
    1SOL    MW410236   2.458   2.569   4.420  0.0539  0.1714  0.4444
    1SOL     OW10237   2.645   4.226   4.554 -0.5285  0.2627 -0.0713
    1SOL    HW210238   2.586   4.151   4.543  0.7265 -0.5537 -1.3850
    1SOL    HW310239   2.590   4.302   4.537 -2.1577 -0.2287  2.6031
    1SOL    MW410240   2.630   4.226   4.550 -0.5779  0.0901  0.1082
    1SOL     OW10241   2.069   3.349   4.574 -0.6696  0.0296  0.2377
    1SOL    HW210242   1.994   3.290   4.569 -0.4099 -0.2313 -0.4784
    1SOL    HW310243   2.133   3.314   4.513 -0.3477  0.8134  0.1091
    1SOL    MW410244   2.067   3.337   4.566 -0.5927  0.0987  0.1259
    1SOL     OW10245   3.111   1.132   4.492 -0.4307 -0.3528  0.2232
    1SOL    HW210246   3.054   1.124   4.415  1.1654  0.6362 -1.0974
    1SOL    HW310247   3.113   1.226   4.510 -0.3599 -0.5283  1.1549
    1SOL    MW410248   3.104   1.143   4.484 -0.2108 -0.2455  0.1721
    1SOL     OW10249   4.411   3.890   4.461  0.1199  0.0144  0.5066
    1SOL    HW210250   4.419   3.880   4.366  0.5944  1.2628  0.4016
    1SOL    HW310251   4.491   3.936   4.487  0.0045 -0.3589  1.5135
    1SOL    MW410252   4.422   3.895   4.452  0.1669  0.1299  0.6261
    1SOL     OW10253   3.444   3.193   4.498  0.0292 -0.4467  0.0388
    1SOL    HW210254   3.441   3.200   4.403  0.2674  0.9653  0.1222
    1SOL    HW310255   3.522   3.242   4.523  0.7022 -1.9185  0.8749
    1SOL    MW410256   3.453   3.200   4.489  0.1495 -0.4547  0.1602
    1SOL     OW10257   2.871   2.007   3.748 -0.1780 -0.2574 -0.4022
    1SOL    HW210258   2.807   1.960   3.802  0.3819 -0.7260 -0.1419
    1SOL    HW310259   2.865   2.097   3.778 -1.3170 -0.1327 -0.9551
    1SOL    MW410260   2.861   2.012   3.759 -0.2544 -0.3030 -0.4406
    1SOL     OW10261   0.204   4.544   4.610 -0.0240 -0.1424 -0.8389
    1SOL    HW210262   0.175   4.608   4.674  0.0735  0.9201 -1.8367
    1SOL    HW310263   0.264   4.592   4.553  2.1618 -1.7598 -0.0372
    1SOL    MW410264   0.208   4.558   4.611  0.2773 -0.2151 -0.8645
    1SOL     OW10265   2.711   0.438   4.707 -0.6858  0.5480  0.5500
    1SOL    HW210266   2.654   0.376   4.663  0.5237 -1.1040  1.2692
    1SOL    HW310267   2.678   0.442   4.797  0.2719 -0.3986  0.9641
    1SOL    MW410268   2.699   0.431   4.713 -0.3998  0.2052  0.6995
    1SOL     OW10269   4.189   2.768   4.533 -0.7002 -0.0320  0.3210
    1SOL    HW210270   4.283   2.761   4.553 -0.3483  1.1976 -0.8041
    1SOL    HW310271   4.186   2.793   4.441 -2.1725 -0.8512  0.1232
    1SOL    MW410272   4.201   2.770   4.524 -0.8483  0.0224  0.1459
    1SOL     OW10273   2.213   1.635   4.532  0.5089  0.2926 -0.0850
    1SOL    HW210274   2.227   1.688   4.611  1.5685 -0.2265  0.0847
    1SOL    HW310275   2.269   1.559   4.544 -1.2102 -1.0204 -0.2112
    1SOL    MW410276   2.222   1.632   4.544  0.4215  0.0509 -0.0792
    1SOL     OW10277   0.353   3.156   4.523  0.1611  0.7423 -0.0833
    1SOL    HW210278   0.414   3.228   4.541  2.1083 -0.3046 -2.2426
    1SOL    HW310279   0.403   3.077   4.541 -1.8536 -0.1290  1.8757
    1SOL    MW410280   0.368   3.155   4.528  0.1522  0.4895 -0.1101
    1SOL     OW10281   2.832   2.934   4.708 -0.2510 -0.1324 -0.1437
    1SOL    HW210282   2.816   2.904   4.797  0.7644  0.8390  0.3828
    1SOL    HW310283   2.750   2.976   4.681 -0.1812  0.6184  0.7777
    1SOL    MW410284   2.819   2.936   4.716 -0.1078  0.0947  0.0467
    1SOL     OW10285   2.942   3.663   4.210  0.2100 -0.0466 -0.1501
    1SOL    HW210286   2.924   3.681   4.302 -1.1199  0.0367 -0.4062
    1SOL    HW310287   2.941   3.749   4.168 -1.9409 -0.2810 -0.6762
    1SOL    MW410288   2.939   3.677   4.217 -0.2491 -0.0665 -0.2532
    1SOL     OW10289   2.669   3.244   4.193  0.6716 -0.1619  0.1118
    1SOL    HW210290   2.701   3.332   4.175 -0.5492  0.2901  0.1545
    1SOL    HW310291   2.746   3.188   4.181  1.8807  1.0843  1.7414
    1SOL    MW410292   2.684   3.248   4.189  0.6702  0.0620  0.3324
    1SOL     OW10293   2.883   3.928   4.086 -0.1965  0.0296 -0.4271
    1SOL    HW210294   2.801   3.954   4.127 -0.7111 -1.0702 -0.7664
    1SOL    HW310295   2.951   3.972   4.138 -0.9950  1.0005 -0.2032
    1SOL    MW410296   2.881   3.938   4.099 -0.3698  0.0124 -0.4425
    1SOL     OW10297   2.676   4.278   4.190 -0.5887  0.2937 -0.3070
    1SOL    HW210298   2.594   4.325   4.202 -1.2062 -1.0449  0.8956
    1SOL    HW310299   2.652   4.186   4.197  0.9027 -0.1427 -0.6730
    1SOL    MW410300   2.662   4.272   4.193 -0.4735  0.0596 -0.1969
    1SOL     OW10301   2.408   3.852   4.132 -0.1500  0.1768 -0.1617
    1SOL    HW210302   2.380   3.858   4.041 -0.4661  0.7561 -0.0250
    1SOL    HW310303   2.441   3.762   4.140 -0.6703 -0.0686 -0.6880
    1SOL    MW410304   2.409   3.841   4.121 -0.2604  0.2210 -0.2131
    1SOL     OW10305   2.910   4.419   4.237 -0.3147  0.1768 -0.4803
    1SOL    HW210306   2.839   4.357   4.219  0.1254 -0.1247 -1.1732
    1SOL    HW310307   2.985   4.383   4.191  0.9364 -0.8469  2.2625
    1SOL    MW410308   2.910   4.406   4.229 -0.0916  0.0024 -0.2103
    1SOL     OW10309   3.336   0.013   4.111  0.2885 -0.2457  0.0012
    1SOL    HW210310   3.400   0.064   4.162 -0.2084  0.0544  0.3324
    1SOL    HW310311   3.251   0.052   4.134 -0.1794 -1.7302  0.8498
    1SOL    MW410312   3.333   0.025   4.121  0.1612 -0.4019  0.1569
    1SOL     OW10313   1.337   1.620   4.303 -0.1292  0.0274  0.4330
    1SOL    HW210314   1.271   1.561   4.266  0.1870 -0.9185  1.3375
    1SOL    HW310315   1.318   1.622   4.397  0.3831  0.7116  0.5315
    1SOL    MW410316   1.326   1.612   4.311 -0.0199 -0.0072  0.5651
    1SOL     OW10317   2.909   0.471   4.288 -0.3791  0.0605  0.1230
    1SOL    HW210318   2.836   0.431   4.241  0.0580  0.3397 -0.8069
    1SOL    HW310319   2.889   0.564   4.289  0.1680  0.1918 -0.5179
    1SOL    MW410320   2.897   0.478   4.282 -0.2494  0.1147 -0.0844
    1SOL     OW10321   3.373   0.428   4.213 -0.0967 -0.0272 -0.4353
    1SOL    HW210322   3.367   0.424   4.308 -0.6805 -0.0578 -0.4757
    1SOL    HW310323   3.466   0.412   4.194 -0.3952 -2.3390 -0.0062
    1SOL    MW410324   3.385   0.425   4.223 -0.2131 -0.3363 -0.3839
    1SOL     OW10325   2.212   0.393   4.570  0.0154 -0.2052  0.2558
    1SOL    HW210326   2.120   0.418   4.564  0.0864 -0.1132 -0.4510
    1SOL    HW310327   2.259   0.476   4.560  0.2233 -0.4761 -1.0648
    1SOL    MW410328   2.206   0.407   4.568  0.0525 -0.2288 -0.0114
    1SOL     OW10329   4.023   4.516   4.849  0.1228  0.4484 -0.1537
    1SOL    HW210330   4.097   4.520   4.788  0.4903  1.6737  0.3561
    1SOL    HW310331   4.064   4.527   4.935 -0.5530  0.1385  0.2077
    1SOL    MW410332   4.038   4.518   4.852  0.0820  0.5689 -0.0386
    1SOL     OW10333   2.932   1.186   4.272 -0.4511 -0.5007 -0.2384
    1SOL    HW210334   2.852   1.159   4.316  0.4260 -0.2414  1.5736
    1SOL    HW310335   2.904   1.252   4.208 -1.8817 -1.6767 -0.8599
    1SOL    MW410336   2.918   1.191   4.269 -0.5240 -0.6217 -0.0811
    1SOL     OW10337   1.377   0.240   4.646  0.0542  0.3998 -0.0879
    1SOL    HW210338   1.457   0.235   4.594  0.2267  0.0104  0.2070
    1SOL    HW310339   1.345   0.329   4.633  1.5937  1.1965  1.3520
    1SOL    MW410340   1.384   0.251   4.638  0.2800  0.4535  0.1411
    1SOL     OW10341   2.835   2.950   4.391  0.5780 -0.2040 -0.1596
    1SOL    HW210342   2.861   2.986   4.306  1.0302  0.6200  0.3259
    1SOL    HW310343   2.850   2.856   4.382  2.0803  0.0494 -0.4894
    1SOL    MW410344   2.841   2.942   4.379  0.8359 -0.0620 -0.1388
    1SOL     OW10345   2.472   1.520   4.155 -0.1511  0.0762  0.2515
    1SOL    HW210346   2.387   1.551   4.187  0.1994 -0.8723  2.1714
    1SOL    HW310347   2.467   1.531   4.061 -1.8055  1.5501  0.4760
    1SOL    MW410348   2.460   1.526   4.147 -0.3231  0.1456  0.5350
    1SOL     OW10349   2.554   0.263   4.586 -0.2515 -0.4981 -0.2331
    1SOL    HW210350   2.484   0.289   4.527 -0.3834  0.5483  0.3846
    1SOL    HW310351   2.596   0.188   4.542 -1.0023 -0.3836 -1.1483
    1SOL    MW410352   2.550   0.256   4.572 -0.3681 -0.3449 -0.2723
    1SOL     OW10353   2.368   2.230   4.136  0.1781 -0.1677  0.1208
    1SOL    HW210354   2.349   2.142   4.167  0.4909 -0.2191  0.1650
    1SOL    HW310355   2.303   2.285   4.181  1.7408  0.0003  2.2379
    1SOL    MW410356   2.357   2.226   4.146  0.4256 -0.1521  0.4063
    1SOL     OW10357   3.553   0.858   4.487 -0.2638  0.1592  0.1807
    1SOL    HW210358   3.496   0.934   4.494 -0.7585 -0.1374 -0.6356
    1SOL    HW310359   3.556   0.838   4.394  0.3181 -0.4768  0.3289
    1SOL    MW410360   3.546   0.865   4.476 -0.2522  0.0361  0.0925
    1SOL     OW10361   3.517   1.322   4.553  0.6299 -0.2178  0.0657
    1SOL    HW210362   3.543   1.413   4.562  0.2790 -0.3214  2.4502
    1SOL    HW310363   3.600   1.273   4.553  0.7686  0.0188 -0.1364
    1SOL    MW410364   3.531   1.327   4.554  0.6018 -0.2002  0.3538
    1SOL     OW10365   3.391   2.401   4.100  0.0498 -0.4409  0.1643
    1SOL    HW210366   3.308   2.421   4.143 -0.5758 -0.9378 -0.7958
    1SOL    HW310367   3.367   2.382   4.009  1.3228  0.3438 -0.3530
    1SOL    MW410368   3.377   2.401   4.093  0.1352 -0.4029 -0.0305
    1SOL     OW10369   2.220   4.219   4.139 -0.4049  0.5685  0.3913
    1SOL    HW210370   2.202   4.147   4.200 -0.0570  0.1918  0.0490
    1SOL    HW310371   2.306   4.253   4.166  1.1502 -1.5143 -1.7244
    1SOL    MW410372   2.229   4.214   4.151 -0.1535  0.2441  0.0668
    1SOL     OW10373   3.322   3.055   4.116  0.3618 -0.3273  0.0935
    1SOL    HW210374   3.242   3.092   4.152  0.7087 -0.8015  1.4210
    1SOL    HW310375   3.331   2.971   4.161  2.0734  0.1344  0.6546
    1SOL    MW410376   3.313   3.049   4.127  0.6332 -0.3290  0.3424
    1SOL     OW10377   2.418   3.103   4.117 -0.1077  0.3038  0.2119
    1SOL    HW210378   2.498   3.141   4.152  0.7674 -0.4303 -0.9693
    1SOL    HW310379   2.349   3.132   4.178  0.7407  2.5297  0.1501
    1SOL    MW410380   2.419   3.112   4.130  0.1199  0.5007  0.0482
    1SOL     OW10381   3.333   3.642   4.255  0.0033 -0.1177  0.2886
    1SOL    HW210382   3.280   3.563   4.247 -0.2864  0.1369 -0.2623
    1SOL    HW310383   3.342   3.654   4.350 -0.8221 -0.2182  0.3856
    1SOL    MW410384   3.328   3.633   4.267 -0.1440 -0.0975  0.2284
    1SOL     OW10385   3.564   3.528   4.149  0.1209 -0.4360 -0.2267
    1SOL    HW210386   3.550   3.439   4.182  0.5912 -0.2660  0.4274
    1SOL    HW310387   3.484   3.575   4.174  0.0052 -0.5894 -0.3013
    1SOL    MW410388   3.551   3.522   4.157  0.1676 -0.4337 -0.1502
    1SOL     OW10389   3.306   3.882   4.120  0.2438  0.0897 -0.4389
    1SOL    HW210390   3.301   3.797   4.165  0.1282  0.3066 -0.0394
    1SOL    HW310391   3.310   3.860   4.027 -2.1054 -0.2824 -0.4767
    1SOL    MW410392   3.306   3.868   4.114 -0.0815  0.0694 -0.3915
    1SOL     OW10393   4.470   2.675   4.161 -0.3905  0.2121  0.3506
    1SOL    HW210394   4.391   2.721   4.188 -0.0196  0.6641  0.6743
    1SOL    HW310395   4.452   2.583   4.179 -1.1605  0.2203 -0.3563
    1SOL    MW410396   4.457   2.669   4.167 -0.4430  0.2725  0.2999
    1SOL     OW10397   0.012   0.837   4.239 -0.2767  0.4051 -0.2327
    1SOL    HW210398  -0.002   0.829   4.334  1.5548 -0.8824 -0.0273
    1SOL    HW310399  -0.006   0.928   4.219  0.5768  1.0035  1.6161
    1SOL    MW410400   0.008   0.848   4.249  0.0776  0.3142  0.0377
    1SOL     OW10401   3.557   4.256   4.142  0.2791  0.1745 -0.3329
    1SOL    HW210402   3.489   4.319   4.166  0.9341  1.4055 -1.6237
    1SOL    HW310403   3.529   4.174   4.182 -1.5258  0.8620 -0.1406
    1SOL    MW410404   3.544   4.253   4.151  0.1273  0.4272 -0.4778
    1SOL     OW10405   3.779   4.640   4.175  0.3297 -0.4937  0.2658
    1SOL    HW210406   3.781   4.553   4.214 -0.0325 -0.5492  0.1584
    1SOL    HW310407   3.782   4.625   4.081  0.3867 -0.3863  0.2495
    1SOL    MW410408   3.779   4.627   4.168  0.2892 -0.4864  0.2494
    1SOL     OW10409   2.215   1.974   4.436  0.3517  0.4641 -0.0758
    1SOL    HW210410   2.279   1.961   4.367 -0.1606 -0.4817 -0.3911
    1SOL    HW310411   2.177   2.060   4.419  1.0773  0.7400 -0.2660
    1SOL    MW410412   2.218   1.983   4.425  0.3798  0.3757 -0.1431
    1SOL     OW10413   3.634   0.371   4.129  0.0938  0.5086 -0.4459
    1SOL    HW210414   3.705   0.431   4.152  1.1811 -0.2917 -1.6236
    1SOL    HW310415   3.625   0.380   4.034 -0.8634  0.0481 -0.4032
    1SOL    MW410416   3.642   0.380   4.119  0.1111  0.3422 -0.5960
    1SOL     OW10417   4.053   0.360   4.117 -0.5049 -0.3551  0.0116
    1SOL    HW210418   4.040   0.276   4.162  2.0347 -0.5945  0.3430
    1SOL    HW310419   3.988   0.418   4.157 -2.3537 -2.1355 -0.2727
    1SOL    MW410420   4.043   0.357   4.128 -0.4139 -0.6216  0.0181
    1SOL     OW10421   1.292   4.663   4.543 -0.1442 -0.8096 -0.1978
    1SOL    HW210422   1.197   4.666   4.556  0.1424  0.0526  1.9535
    1SOL    HW310423   1.325   4.742   4.586  1.7920 -2.4493  1.4585
    1SOL    MW410424   1.284   4.674   4.550  0.1490 -0.9127  0.3047
    1SOL     OW10425   2.193   0.019   4.284 -0.0549  0.2929 -0.0111
    1SOL    HW210426   2.234   0.102   4.308  0.9667 -0.4281  0.8036
    1SOL    HW310427   2.200  -0.035   4.363 -0.9941 -0.4598 -0.4318
    1SOL    MW410428   2.200   0.023   4.297 -0.0439  0.0984  0.0405
    1SOL     OW10429   2.035   2.115   4.160 -0.5669 -0.7046 -0.2093
    1SOL    HW210430   2.050   2.139   4.251 -1.2839 -1.0804  0.0135
    1SOL    HW310431   2.017   2.197   4.115  0.1032 -0.4851 -0.0722
    1SOL    MW410432   2.034   2.129   4.166 -0.5732 -0.7250 -0.1616
    1SOL     OW10433   0.097   2.417   4.508  0.1327  0.0968  0.1201
    1SOL    HW210434   0.139   2.338   4.541  1.1738 -0.3198 -2.0777
    1SOL    HW310435   0.170   2.475   4.485 -0.5371  0.3586 -1.4165
    1SOL    MW410436   0.112   2.414   4.509  0.1817  0.0765 -0.3729
    1SOL     OW10437   4.154   2.200   4.115 -0.9884 -0.1298 -0.2083
    1SOL    HW210438   4.198   2.219   4.198  1.6329 -1.2352 -1.2891
    1SOL    HW310439   4.118   2.112   4.127  0.0601 -0.6081 -0.4748
    1SOL    MW410440   4.155   2.191   4.128 -0.5045 -0.3386 -0.3862
    1SOL     OW10441   3.115   1.576   4.242 -0.4244 -0.1420  0.4604
    1SOL    HW210442   3.065   1.634   4.184  0.2440 -0.2336 -0.2363
    1SOL    HW310443   3.155   1.512   4.182 -0.3201 -0.6934  1.1118
    1SOL    MW410444   3.114   1.575   4.226 -0.3226 -0.2269  0.4539
    1SOL     OW10445   3.457   1.916   4.093 -0.3791  0.5072 -0.1079
    1SOL    HW210446   3.416   1.847   4.145 -0.3863  2.1961  2.2098
    1SOL    HW310447   3.419   1.997   4.126  0.1694  1.6998 -2.2761
    1SOL    MW410448   3.447   1.918   4.104 -0.3078  0.8873 -0.0882
    1SOL     OW10449   1.775   1.594   4.464 -0.0011  0.0568  0.2407
    1SOL    HW210450   1.779   1.627   4.375 -0.0255  0.2729  0.3200
    1SOL    HW310451   1.708   1.526   4.462 -1.8052  1.7752  0.6589
    1SOL    MW410452   1.767   1.589   4.452 -0.2422  0.3121  0.3061
    1SOL     OW10453   0.386   0.566   4.684  0.0216  0.1321  0.2990
    1SOL    HW210454   0.452   0.617   4.732  0.0812  0.4845 -0.1546
    1SOL    HW310455   0.309   0.624   4.682 -0.3781 -0.3573  1.0060
    1SOL    MW410456   0.385   0.581   4.690 -0.0232  0.1140  0.3319
    1SOL     OW10457   3.552   2.016   4.614  0.3783 -0.6729 -0.1483
    1SOL    HW210458   3.633   2.056   4.582 -0.5945  1.1469 -0.3976
    1SOL    HW310459   3.538   2.056   4.700 -1.1729  0.3719 -0.8597
    1SOL    MW410460   3.561   2.026   4.621  0.0455 -0.2952 -0.2751
    1SOL     OW10461   3.714   2.054   4.188 -0.0965  0.0283  0.2527
    1SOL    HW210462   3.636   2.000   4.174 -0.4132  0.5235  0.0818
    1SOL    HW310463   3.683   2.144   4.176  0.6498  0.1949 -0.5054
    1SOL    MW410464   3.699   2.059   4.185 -0.0398  0.1154  0.1297
    1SOL     OW10465   1.864   3.933   4.512 -0.3413 -0.3841 -0.1725
    1SOL    HW210466   1.854   3.856   4.567  0.8681 -0.5103 -0.1095
    1SOL    HW310467   1.958   3.951   4.514 -0.5001  0.5439 -0.9257
    1SOL    MW410468   1.875   3.925   4.520 -0.2028 -0.2782 -0.2637
    1SOL     OW10469   3.772   3.129   4.130  0.2829 -0.4786 -0.0482
    1SOL    HW210470   3.847   3.159   4.181  0.4959 -0.7412 -0.2079
    1SOL    HW310471   3.792   3.152   4.040 -0.4080  0.6180  0.0682
    1SOL    MW410472   3.784   3.136   4.125  0.2201 -0.3686 -0.0539
    1SOL     OW10473   3.788   4.368   4.260 -0.2174 -0.5232 -0.3037
    1SOL    HW210474   3.711   4.327   4.220 -0.2536  0.2278 -1.0161
    1SOL    HW310475   3.775   4.358   4.354 -1.5457  0.2374 -0.4020
    1SOL    MW410476   3.776   4.361   4.267 -0.3974 -0.3233 -0.4106
    1SOL     OW10477   3.526   3.249   4.204  0.0368 -0.1003  0.7181
    1SOL    HW210478   3.462   3.184   4.175 -0.3853  0.2637  0.8218
    1SOL    HW310479   3.611   3.215   4.175 -0.3200 -0.0203 -0.4433
    1SOL    MW410480   3.529   3.236   4.197 -0.0660 -0.0417  0.5779
    1SOL     OW10481   1.171   2.477   4.517 -0.0351  0.6411  0.5496
    1SOL    HW210482   1.250   2.472   4.572  1.3266  0.4675 -1.3866
    1SOL    HW310483   1.204   2.476   4.427 -2.2721  0.2533 -0.3001
    1SOL    MW410484   1.186   2.476   4.513 -0.1504  0.5670  0.1817
    1SOL     OW10485   0.059   2.747   4.631 -0.2892 -0.2046  0.5801
    1SOL    HW210486   0.084   2.793   4.711  0.8574 -0.7639  0.5476
    1SOL    HW310487  -0.004   2.680   4.659  1.2526 -1.3900  1.2261
    1SOL    MW410488   0.054   2.745   4.645  0.0653 -0.4346  0.6609
    1SOL     OW10489   1.344   3.446   4.184  0.0167  0.1050 -0.2685
    1SOL    HW210490   1.349   3.429   4.090  3.2065 -0.5788 -0.0261
    1SOL    HW310491   1.354   3.360   4.225  0.1542  0.5787  0.7166
    1SOL    MW410492   1.346   3.432   4.177  0.4557  0.0772 -0.1063
    1SOL     OW10493   3.118   4.311   4.083 -0.1649 -0.2325  0.3070
    1SOL    HW210494   3.118   4.222   4.119 -0.7871  0.1504  1.2843
    1SOL    HW310495   3.197   4.351   4.120  0.2763 -0.4636 -0.3718
    1SOL    MW410496   3.128   4.304   4.093 -0.1888 -0.2122  0.3471
    1SOL     OW10497   0.251   1.168   4.525 -0.1998  0.9180 -0.4748
    1SOL    HW210498   0.240   1.183   4.431  0.0804  0.2654 -0.6142
    1SOL    HW310499   0.278   1.077   4.532  0.1445  1.0693  0.2177
    1SOL    MW410500   0.253   1.158   4.514 -0.1175  0.8518 -0.4015
    1SOL     OW10501   4.302   4.334   4.480  0.1761  0.1858  0.0227
    1SOL    HW210502   4.267   4.351   4.393 -0.4645 -0.3391  0.1750
    1SOL    HW310503   4.271   4.407   4.534  2.3526  1.6556 -0.6652
    1SOL    MW410504   4.293   4.346   4.476  0.3786  0.3109 -0.0482
    1SOL     OW10505   4.222   2.261   4.386  0.3754 -0.0638 -0.5427
    1SOL    HW210506   4.185   2.313   4.457  0.7694  0.2058 -0.5309
    1SOL    HW310507   4.295   2.313   4.354 -0.1186  0.0517 -1.4893
    1SOL    MW410508   4.227   2.275   4.391  0.3624 -0.0129 -0.6657
    1SOL     OW10509   2.939   0.371   4.546  0.0591 -0.1996 -0.0676
    1SOL    HW210510   2.873   0.405   4.606 -0.1984 -1.4771  0.4071
    1SOL    HW310511   2.911   0.400   4.459 -0.8255 -0.2525  0.1957
    1SOL    MW410512   2.927   0.379   4.542 -0.0916 -0.3752  0.0296
    1SOL     OW10513   0.150   0.691   4.651  0.0053  0.1745  0.2871
    1SOL    HW210514   0.134   0.596   4.650 -1.5822  0.3735  2.3835
    1SOL    HW310515   0.087   0.726   4.588  0.5654 -0.1548 -0.4635
    1SOL    MW410516   0.139   0.683   4.643 -0.1302  0.1574  0.4649
    1SOL     OW10517   4.267   0.389   4.494  0.4519 -0.0312  0.3544
    1SOL    HW210518   4.268   0.480   4.522 -1.5152  0.0625  0.1803
    1SOL    HW310519   4.266   0.393   4.399 -1.6600 -0.1767  0.3515
    1SOL    MW410520   4.267   0.401   4.485 -0.0863 -0.0380  0.3309
    1SOL     OW10521   4.191   4.559   4.621 -0.0240  0.1061 -0.0412
    1SOL    HW210522   4.275   4.605   4.618  0.6515 -1.1829 -3.3774
    1SOL    HW310523   4.131   4.615   4.573 -0.3919 -0.2604 -0.0141
    1SOL    MW410524   4.194   4.572   4.614  0.0167 -0.1116 -0.4778
    1SOL     OW10525   4.072   1.124   4.180  0.4886 -0.1830 -0.4213
    1SOL    HW210526   3.992   1.134   4.233  0.2497  1.0423 -0.9827
    1SOL    HW310527   4.087   1.030   4.177 -1.3073 -0.4948 -0.8102
    1SOL    MW410528   4.063   1.113   4.186  0.2203 -0.0625 -0.5465
    1SOL     OW10529   2.765   1.445   4.481 -0.0989 -0.1524  0.0949
    1SOL    HW210530   2.703   1.490   4.539  1.7610 -0.5203  2.4802
    1SOL    HW310531   2.732   1.355   4.475 -0.6968  0.0707 -0.0245
    1SOL    MW410532   2.752   1.439   4.488  0.0675 -0.1717  0.3939
    1SOL     OW10533   0.905   1.135   4.565  0.2124 -0.2343 -0.3357
    1SOL    HW210534   0.811   1.147   4.550 -0.0568 -1.0186  0.6135
    1SOL    HW310535   0.917   1.040   4.561  0.5749 -0.2973  1.6693
    1SOL    MW410536   0.894   1.124   4.563  0.2247 -0.3462  0.0544
    1SOL     OW10537   1.934   0.769   4.508 -0.2262  0.5942 -0.6080
    1SOL    HW210538   1.882   0.833   4.460 -0.4617 -0.3978 -1.7043
    1SOL    HW310539   2.024   0.803   4.502 -0.1177  0.0320 -2.5432
    1SOL    MW410540   1.939   0.782   4.501 -0.2429  0.3891 -1.0076
    1SOL     OW10541   1.127   4.280   4.531  0.5556  0.4709 -0.3463
    1SOL    HW210542   1.125   4.312   4.441 -0.5630  2.1741  0.2705
    1SOL    HW310543   1.209   4.315   4.567  0.3520  0.8904 -0.2960
    1SOL    MW410544   1.138   4.289   4.524  0.3812  0.7515 -0.2584
    1SOL     OW10545   3.850   0.517   4.235 -0.0224 -0.0653  0.2370
    1SOL    HW210546   3.831   0.609   4.219  0.9650 -0.1990 -1.8893
    1SOL    HW310547   3.849   0.508   4.330  1.8706  2.5759  0.5329
    1SOL    MW410548   3.847   0.528   4.245  0.3576  0.2655 -0.0043
    1SOL     OW10549   3.634   2.329   4.209  0.1481  0.4373 -0.0436
    1SOL    HW210550   3.634   2.350   4.302  1.6098 -0.4126  0.1559
    1SOL    HW310551   3.548   2.358   4.178 -0.9682 -0.7008  1.8887
    1SOL    MW410552   3.623   2.335   4.217  0.1936  0.1748  0.2379
    1SOL     OW10553   3.991   3.534   4.159 -0.0889 -0.0218 -0.3584
    1SOL    HW210554   4.003   3.512   4.067  1.3216 -2.6748  0.4117
    1SOL    HW310555   4.078   3.559   4.189 -0.4964  0.6056  0.3229
    1SOL    MW410556   4.004   3.535   4.151  0.0434 -0.2892 -0.1669
    1SOL     OW10557   3.924   2.377   4.154 -0.4090  0.0726 -0.0435
    1SOL    HW210558   3.871   2.371   4.074  0.0907 -1.0109 -0.3021
    1SOL    HW310559   4.005   2.331   4.133  0.1045  0.5767  0.7920
    1SOL    MW410560   3.928   2.370   4.141 -0.2756 -0.0038  0.0329
    1SOL     OW10561   1.328   3.222   4.528  0.3081 -0.9905  0.0983
    1SOL    HW210562   1.329   3.317   4.539 -1.4587 -0.9743  0.3020
    1SOL    HW310563   1.376   3.188   4.604  0.6329 -0.2757  0.2100
    1SOL    MW410564   1.334   3.230   4.540  0.1177 -0.8943  0.1402
    1SOL     OW10565   3.366   0.427   4.478  0.2488  0.3172 -0.2509
    1SOL    HW210566   3.389   0.336   4.496  0.4622  0.7165  1.6468
    1SOL    HW310567   3.443   0.477   4.505 -0.3473  1.1518 -0.0787
    1SOL    MW410568   3.379   0.422   4.484  0.1981  0.4800  0.0219
    1SOL     OW10569   3.776   3.647   4.287 -0.0315  0.1685  0.0815
    1SOL    HW210570   3.713   3.589   4.243  1.0275  0.0981 -1.3978
    1SOL    HW310571   3.861   3.622   4.250  0.7908  0.7214  1.5536
    1SOL    MW410572   3.779   3.636   4.276  0.2167  0.2322  0.0811
    1SOL     OW10573   2.036   1.528   4.153 -0.1074  0.4852 -0.1597
    1SOL    HW210574   2.022   1.523   4.058 -0.1509  1.9964 -0.2384
    1SOL    HW310575   2.111   1.586   4.163 -0.7202  1.1156  0.7826
    1SOL    MW410576   2.044   1.535   4.142 -0.1941  0.7678 -0.0463
    1SOL     OW10577   4.255   3.596   4.230  0.4898  0.1123  0.4381
    1SOL    HW210578   4.306   3.531   4.182 -0.1365  0.2926 -0.4750
    1SOL    HW310579   4.272   3.575   4.322  1.7620 -0.1734  0.1525
    1SOL    MW410580   4.264   3.584   4.236  0.5751  0.0982  0.2799
    1SOL     OW10581   0.491   4.008   4.231 -0.2208  0.1062  0.1749
    1SOL    HW210582   0.412   3.974   4.272 -0.8325  0.3367 -0.7939
    1SOL    HW310583   0.468   4.097   4.205  0.4729  0.2967  0.2024
    1SOL    MW410584   0.478   4.015   4.233 -0.2100  0.1616  0.0510
    1SOL     OW10585   1.006   0.613   4.501  0.0399 -0.0795  0.1719
    1SOL    HW210586   1.084   0.558   4.496 -0.1815 -0.4774  0.9734
    1SOL    HW310587   0.934   0.551   4.514 -0.3698  0.3110 -0.2167
    1SOL    MW410588   1.007   0.597   4.502 -0.0434 -0.0805  0.2265
    1SOL     OW10589   3.760   3.894   4.170 -0.2740 -0.2499  0.1407
    1SOL    HW210590   3.826   3.947   4.214  0.0526 -1.4371  1.1024
    1SOL    HW310591   3.765   3.809   4.212 -1.4948 -0.7580 -0.6960
    1SOL    MW410592   3.769   3.890   4.181 -0.3920 -0.4735  0.1578
    1SOL     OW10593   2.650   0.035   4.481  0.1392 -0.2488  0.3598
    1SOL    HW210594   2.738  -0.003   4.494  0.2703  0.3547  1.2721
    1SOL    HW310595   2.642   0.043   4.386  1.1503 -0.1321  0.2715
    1SOL    MW410596   2.661   0.031   4.470  0.2899 -0.1540  0.4687
    1SOL     OW10597   4.129   2.467   4.546 -0.1654  0.0901  0.1057
    1SOL    HW210598   4.157   2.558   4.546  0.1678 -0.0134  0.3198
    1SOL    HW310599   4.035   2.471   4.527 -0.3661  0.5442  1.1715
    1SOL    MW410600   4.120   2.480   4.544 -0.1478  0.1361  0.2742
    1SOL     OW10601   2.202   1.770   4.785 -0.1276 -0.3013 -0.4122
    1SOL    HW210602   2.109   1.779   4.762 -0.2136  1.6067  0.5776
    1SOL    HW310603   2.236   1.859   4.780  1.5764 -0.9502 -0.4226
    1SOL    MW410604   2.194   1.783   4.781  0.0856 -0.1352 -0.2828
    1SOL     OW10605   4.272   1.983   4.406  0.3544 -0.3250 -0.3020
    1SOL    HW210606   4.249   2.075   4.394  1.3576 -0.2155 -1.5310
    1SOL    HW310607   4.194   1.944   4.447 -0.9576  0.5934 -1.8542
    1SOL    MW410608   4.259   1.990   4.410  0.3138 -0.1895 -0.6690
    1SOL     OW10609   4.025   0.097   4.219  0.2358  0.3450 -0.0830
    1SOL    HW210610   4.017   0.074   4.311  0.3441 -0.3450 -0.2419
    1SOL    HW310611   3.943   0.066   4.180  1.3840 -1.9551 -0.7420
    1SOL    MW410612   4.013   0.090   4.226  0.4020 -0.0495 -0.1917
    1SOL     OW10613   1.108   2.737   4.467  0.1066  0.0466 -0.4838
    1SOL    HW210614   1.127   2.644   4.475  0.2740 -0.0150 -1.5250
    1SOL    HW310615   1.013   2.743   4.467  0.0928  0.0260  1.1433
    1SOL    MW410616   1.098   2.726   4.468  0.1271  0.0358 -0.4063
    1SOL     OW10617   1.882   0.875   4.749  0.5628 -0.0515  0.2779
    1SOL    HW210618   1.958   0.836   4.792  0.7495  0.6645  0.6037
    1SOL    HW310619   1.884   0.839   4.660  0.7695 -0.7271  0.5532
    1SOL    MW410620   1.892   0.865   4.743  0.6148 -0.0461  0.3572
    1SOL     OW10621   1.724   3.002   4.664  0.4319 -0.2188  0.1504
    1SOL    HW210622   1.786   2.936   4.696  0.7242  0.3040  0.6779
    1SOL    HW310623   1.779   3.067   4.621  0.0587 -0.7965 -1.2221
    1SOL    MW410624   1.740   3.002   4.663  0.4213 -0.2260  0.0396
    1SOL     OW10625   0.255   1.529   4.140 -0.2733 -0.2357 -0.3044
    1SOL    HW210626   0.169   1.560   4.170 -0.5017 -0.7294 -0.4517
    1SOL    HW310627   0.318   1.589   4.181 -0.5833 -0.8849  1.1296
    1SOL    MW410628   0.252   1.541   4.149 -0.3443 -0.3866 -0.1345
    1SOL     OW10629   3.946   4.131   4.630 -0.0691 -0.0347  0.5913
    1SOL    HW210630   3.922   4.077   4.705  0.3859 -0.2884  0.5549
    1SOL    HW310631   4.028   4.093   4.598  0.0374  0.4190  0.3136
    1SOL    MW410632   3.954   4.119   4.636  0.0052 -0.0086  0.5493
    1SOL     OW10633   0.526   1.514   4.865 -0.3407 -0.3851  0.0899
    1SOL    HW210634   0.465   1.557   4.924 -0.6487 -1.0778  0.2817
    1SOL    HW310635   0.471   1.456   4.812 -0.3396  1.4854 -2.0806
    1SOL    MW410636   0.511   1.512   4.866 -0.3812 -0.2297 -0.1712
    1SOL     OW10637   0.618   0.801   4.516  0.3873 -0.2114  0.3552
    1SOL    HW210638   0.554   0.861   4.478  0.5089  0.7686  1.6617
    1SOL    HW310639   0.597   0.716   4.478 -0.6912  0.3949 -0.4294
    1SOL    MW410640   0.607   0.797   4.506  0.2609 -0.0021  0.4244
    1SOL     OW10641   4.489   1.935   4.215 -0.5455  0.0250 -0.2792
    1SOL    HW210642   4.515   1.846   4.235  0.6191  0.4594  0.1761
    1SOL    HW310643   4.413   1.951   4.271  0.3859 -0.0548  1.0187
    1SOL    MW410644   4.482   1.926   4.225 -0.2689  0.0716 -0.0482
    1SOL     OW10645   2.132   4.030   4.540  0.3539 -0.1215 -0.3608
    1SOL    HW210646   2.173   4.033   4.454 -0.0452 -0.5229 -0.5605
    1SOL    HW310647   2.103   4.120   4.555  0.0811 -0.1327 -0.8085
    1SOL    MW410648   2.134   4.043   4.531  0.2654 -0.1760 -0.4458
    1SOL     OW10649   3.844   0.530   4.508 -0.0641 -0.2782 -0.2004
    1SOL    HW210650   3.896   0.609   4.521 -0.5777  0.0134  0.1017
    1SOL    HW310651   3.896   0.460   4.548 -0.2551  0.1360  0.7810
    1SOL    MW410652   3.857   0.531   4.515 -0.1569 -0.1851 -0.0310
    1SOL     OW10653   0.441   3.464   4.155 -0.2322 -0.2833 -0.2684
    1SOL    HW210654   0.524   3.502   4.185 -1.0524 -0.1590  1.9773
    1SOL    HW310655   0.443   3.473   4.060  1.8330  0.7484 -0.1566
    1SOL    MW410656   0.452   3.471   4.146 -0.0679 -0.1307  0.0424
    1SOL     OW10657   3.338   1.346   4.782  0.1060 -0.2717 -0.3959
    1SOL    HW210658   3.408   1.345   4.716  0.6429  1.0120  0.1282
    1SOL    HW310659   3.283   1.271   4.760  1.0634 -0.6803 -1.4567
    1SOL    MW410660   3.340   1.336   4.770  0.3033 -0.1563 -0.4668
    1SOL     OW10661   3.996   0.770   4.511 -0.3843  0.5738 -0.4168
    1SOL    HW210662   3.921   0.827   4.526 -0.4511  0.2671  0.4160
    1SOL    HW310663   4.043   0.811   4.439 -0.7704  1.3502 -0.2282
    1SOL    MW410664   3.992   0.783   4.504 -0.4442  0.6357 -0.2818
    1SOL     OW10665   3.141   0.585   4.560 -0.3987 -0.0259 -0.0333
    1SOL    HW210666   3.069   0.522   4.559 -0.7118  0.3401 -0.7699
    1SOL    HW310667   3.218   0.533   4.536 -0.4800 -0.3365  0.3753
    1SOL    MW410668   3.142   0.570   4.556 -0.4506 -0.0185 -0.0758
    1SOL     OW10669   0.330   1.614   4.528 -0.1035  0.3267  0.4308
    1SOL    HW210670   0.396   1.652   4.587 -1.4717  2.7413  0.4851
    1SOL    HW310671   0.356   1.645   4.441 -0.0334 -0.3774  0.2016
    1SOL    MW410672   0.342   1.623   4.524 -0.2748  0.5523  0.4077
    1SOL     OW10673   0.208   3.835   4.163  0.4560  0.2424  0.7885
    1SOL    HW210674   0.246   3.845   4.251  0.1180  3.9611  0.6099
    1SOL    HW310675   0.129   3.890   4.165 -0.9460 -1.6286 -1.0888
    1SOL    MW410676   0.203   3.844   4.175  0.2265  0.4866  0.5169
    1SOL     OW10677   2.205   1.145   4.073 -0.4124  0.4156 -0.6923
    1SOL    HW210678   2.147   1.212   4.110 -0.0677 -0.6061  1.7855
    1SOL    HW310679   2.291   1.166   4.109 -0.1048 -0.7878 -0.7201
    1SOL    MW410680   2.209   1.157   4.082 -0.3264  0.1221 -0.3695
    1SOL     OW10681   1.329   4.404   4.676 -0.2713  0.0811 -0.3029
    1SOL    HW210682   1.336   4.486   4.627  0.2065  0.5071  0.4692
    1SOL    HW310683   1.275   4.426   4.752 -0.0158 -0.2880 -0.0141
    1SOL    MW410684   1.323   4.418   4.679 -0.1745  0.0887 -0.1631
    1SOL     OW10685   3.703   3.314   4.525  0.0670 -0.2094 -0.0663
    1SOL    HW210686   3.748   3.284   4.603  0.9657  0.2258 -0.4086
    1SOL    HW310687   3.772   3.325   4.459 -0.5057  0.5916 -0.5574
    1SOL    MW410688   3.718   3.312   4.526  0.1101 -0.0465 -0.1760
    1SOL     OW10689   0.583   4.520   4.663 -0.0373  0.1572  0.0922
    1SOL    HW210690   0.675   4.523   4.689  0.3239 -0.6480 -1.0495
    1SOL    HW310691   0.579   4.453   4.595 -1.6222 -0.4085  0.7194
    1SOL    MW410692   0.594   4.512   4.657 -0.1987 -0.0238  0.0243
    1SOL     OW10693   0.421   1.355   4.662  0.3079 -0.2878 -0.3824
    1SOL    HW210694   0.381   1.426   4.611  1.0597  0.4685  0.0726
    1SOL    HW310695   0.367   1.279   4.642 -1.6070  0.7927  0.4694
    1SOL    MW410696   0.408   1.355   4.653  0.1544 -0.0454 -0.2098
    1SOL     OW10697   4.245   1.550   4.172  0.2376  0.6527 -0.0074
    1SOL    HW210698   4.255   1.460   4.200 -2.8800  0.4082  0.4786
    1SOL    HW310699   4.238   1.545   4.077 -1.0691  0.2313  0.0974
    1SOL    MW410700   4.246   1.538   4.163 -0.3462  0.5648  0.0706
    1SOL     OW10701   2.872   1.388   4.109  0.4353 -0.5286  0.0903
    1SOL    HW210702   2.793   1.341   4.082 -0.7671  1.2681  0.3292
    1SOL    HW310703   2.840   1.454   4.171  2.2237 -0.1978  0.6872
    1SOL    MW410704   2.857   1.391   4.113  0.5126 -0.2480  0.2012
    1SOL     OW10705   3.793   2.850   4.214  0.3548  0.3306 -0.4457
    1SOL    HW210706   3.720   2.808   4.169  0.5801 -0.9563  0.3370
    1SOL    HW310707   3.791   2.941   4.186 -1.2585  0.1884 -0.8007
    1SOL    MW410708   3.783   2.857   4.205  0.1717  0.1423 -0.3886
    1SOL     OW10709   3.802   2.084   4.463 -0.2279 -0.1392  0.0730
    1SOL    HW210710   3.761   2.075   4.377 -0.7746  1.0616  0.2078
    1SOL    HW310711   3.850   2.167   4.458  1.0952 -0.8591  0.3766
    1SOL    MW410712   3.803   2.093   4.451 -0.1256 -0.0756  0.1307
    1SOL     OW10713   4.460   1.125   4.551 -0.0545  0.3313  0.5821
    1SOL    HW210714   4.553   1.146   4.559 -0.1784  0.8201  0.7410
    1SOL    HW310715   4.416   1.209   4.561 -0.5547 -0.0109  1.2693
    1SOL    MW410716   4.467   1.139   4.554 -0.1364  0.3507  0.6938
    1SOL     OW10717   1.987   4.338   4.257  0.5363 -0.4697  0.1114
    1SOL    HW210718   1.978   4.426   4.221 -1.7108 -0.9413 -0.6046
    1SOL    HW310719   2.061   4.300   4.210  0.7486  0.6190 -0.4526
    1SOL    MW410720   1.995   4.344   4.246  0.2679 -0.3881 -0.0577
    1SOL     OW10721   2.920   4.552   4.480  0.2345  0.4449  0.0905
    1SOL    HW210722   2.914   4.517   4.391  1.5061  0.7368 -0.1132
    1SOL    HW310723   2.970   4.633   4.471 -1.2003  1.4477  0.8093
    1SOL    MW410724   2.926   4.558   4.467  0.2131  0.6156  0.1583
    1SOL     OW10725   2.754   1.835   4.537  0.5016  0.2268 -0.2736
    1SOL    HW210726   2.748   1.824   4.632  0.7838  0.1625 -0.2644
    1SOL    HW310727   2.848   1.841   4.519  0.3731  2.7384 -0.2713
    1SOL    MW410728   2.766   1.834   4.547  0.5219  0.5496 -0.2718
    1SOL     OW10729   0.543   0.530   4.455  0.3158  0.2905 -0.1844
    1SOL    HW210730   0.475   0.542   4.522  0.1565  0.8300 -0.4334
    1SOL    HW310731   0.511   0.459   4.400  0.3932 -0.0766  0.2516
    1SOL    MW410732   0.530   0.522   4.457  0.3050  0.3132 -0.1602
    1SOL     OW10733   0.313   0.886   4.524  0.2113  0.4803 -0.0101
    1SOL    HW210734   0.340   0.847   4.441 -0.9330  0.9196 -0.5993
    1SOL    HW310735   0.275   0.814   4.574  0.1404  0.3842 -0.2023
    1SOL    MW410736   0.312   0.872   4.520  0.0510  0.5257 -0.1130
    1SOL     OW10737   0.481   0.318   4.290  0.2538  0.2530  0.3778
    1SOL    HW210738   0.462   0.224   4.282  2.1476 -0.2228  1.2674
    1SOL    HW310739   0.525   0.341   4.209 -2.0305  0.8678 -0.7361
    1SOL    MW410740   0.484   0.309   4.278  0.2023  0.2713  0.3486
    1SOL     OW10741   0.952   2.331   4.536 -0.2476 -0.0966  0.0791
    1SOL    HW210742   1.033   2.382   4.545 -0.0238 -0.4542  0.1032
    1SOL    HW310743   0.917   2.356   4.451 -0.8087  1.0650  0.6305
    1SOL    MW410744   0.958   2.341   4.526 -0.2921  0.0095  0.1545
    1SOL     OW10745   1.137   3.616   4.249  0.1620 -0.3567  0.1420
    1SOL    HW210746   1.219   3.570   4.229  0.4763 -0.8576  2.5143
    1SOL    HW310747   1.069   3.560   4.210  0.9669  0.7475 -3.0266
    1SOL    MW410748   1.139   3.602   4.241  0.3096 -0.2773  0.0372
    1SOL     OW10749   3.126   3.196   4.237  0.0513  0.6984 -0.4096
    1SOL    HW210750   3.111   3.283   4.201 -2.2582  0.8005  0.6817
    1SOL    HW310751   3.138   3.211   4.331 -2.2423 -0.2861  0.0820
    1SOL    MW410752   3.126   3.209   4.245 -0.5562  0.5820 -0.2003
    1SOL     OW10753   3.388   2.195   4.460 -0.1443  0.2819 -0.3680
    1SOL    HW210754   3.434   2.269   4.500 -0.4639 -0.2501  1.0396
    1SOL    HW310755   3.400   2.124   4.523 -0.6883 -0.5810 -1.2365
    1SOL    MW410756   3.396   2.195   4.474 -0.2582  0.0975 -0.2966
    1SOL     OW10757   0.636   1.274   4.223  0.1417  0.4698 -0.3478
    1SOL    HW210758   0.650   1.291   4.316  3.5835  0.3878 -0.7751
    1SOL    HW310759   0.575   1.200   4.222  0.9150 -0.2648  1.8943
    1SOL    MW410760   0.630   1.266   4.235  0.6979  0.3620 -0.1082
    1SOL     OW10761   1.522   1.996   4.251 -0.0901 -0.0639  0.2256
    1SOL    HW210762   1.596   1.981   4.192  0.4062 -0.2694  0.8839
    1SOL    HW310763   1.542   1.942   4.328 -0.1396  1.0944  1.0703
    1SOL    MW410764   1.535   1.987   4.253 -0.0312  0.0618  0.4239
    1SOL     OW10765   1.353   2.867   4.542 -0.0267 -0.2864  0.3755
    1SOL    HW210766   1.354   2.943   4.601 -0.0347 -0.0066  0.0202
    1SOL    HW310767   1.261   2.853   4.522  0.0206 -0.0165 -0.0340
    1SOL    MW410768   1.341   2.875   4.548 -0.0216 -0.2139  0.2747
    1SOL     OW10769   0.971   3.830   4.675 -0.3339 -0.1018  0.2710
    1SOL    HW210770   1.025   3.756   4.647 -1.6532 -1.0797  0.2738
    1SOL    HW310771   0.885   3.792   4.693 -1.1284  1.4911 -0.0646
    1SOL    MW410772   0.967   3.815   4.674 -0.6129 -0.0205  0.2270
    1SOL     OW10773   4.454   3.398   4.129  0.0884  0.0246 -0.1882
    1SOL    HW210774   4.515   3.467   4.156 -0.3773  0.1821  0.4732
    1SOL    HW310775   4.444   3.410   4.035 -0.3549  1.1552  0.0022
    1SOL    MW410776   4.461   3.408   4.120 -0.0319  0.1948 -0.0763
    1SOL     OW10777   3.033   1.922   4.496  0.5015 -0.6712 -0.1213
    1SOL    HW210778   2.994   2.009   4.510  0.7187 -0.9594  2.5573
    1SOL    HW310779   3.073   1.928   4.410 -1.5411  1.1146 -1.0161
    1SOL    MW410780   3.033   1.935   4.487  0.2606 -0.4737  0.1140
    1SOL     OW10781   4.196   4.052   4.467 -0.1239  0.1693  0.0695
    1SOL    HW210782   4.233   4.129   4.508 -0.7001  0.2165  0.5129
    1SOL    HW310783   4.262   3.984   4.477  0.0574  0.3928  0.3895
    1SOL    MW410784   4.209   4.053   4.474 -0.1764  0.2046  0.1698
    1SOL     OW10785   2.513   3.600   4.472 -0.1260  0.4935  0.4622
    1SOL    HW210786   2.435   3.637   4.514 -0.9079  0.8119 -1.2202
    1SOL    HW310787   2.586   3.654   4.505 -1.0518  2.5509 -0.7222
    1SOL    MW410788   2.512   3.612   4.482 -0.3512  0.8070  0.0839
    1SOL     OW10789   4.442   0.825   4.497 -0.4466  0.0798 -0.2319
    1SOL    HW210790   4.371   0.784   4.547  1.9906 -0.5802  2.7944
    1SOL    HW310791   4.433   0.918   4.513 -0.8047  0.0273 -0.1240
    1SOL    MW410792   4.432   0.832   4.505 -0.1721 -0.0142  0.1822
    1SOL     OW10793   2.434   1.229   4.435 -0.2830 -0.0013 -0.1617
    1SOL    HW210794   2.425   1.310   4.486 -1.0086 -0.1717 -0.0240
    1SOL    HW310795   2.422   1.257   4.344  0.2602  0.1749 -0.1831
    1SOL    MW410796   2.432   1.244   4.430 -0.3071 -0.0005 -0.1464
    1SOL     OW10797   1.563   3.599   4.241  0.0782  0.5104 -0.5333
    1SOL    HW210798   1.487   3.547   4.214 -0.1476  1.4490 -1.7215
    1SOL    HW310799   1.540   3.629   4.329 -1.3481  1.5688 -1.2470
    1SOL    MW410800   1.550   3.596   4.249 -0.1397  0.7741 -0.7839
    1SOL     OW10801   3.096   4.054   4.203  0.3345  0.6072  0.0724
    1SOL    HW210802   3.169   4.009   4.162 -0.6562  0.0975 -1.1646
    1SOL    HW310803   3.097   4.024   4.294  0.0014 -1.5453 -0.5983
    1SOL    MW410804   3.106   4.044   4.210  0.1597  0.2561 -0.1793
    1SOL     OW10805   0.195   2.105   4.299 -0.2669 -0.1822 -0.0156
    1SOL    HW210806   0.125   2.045   4.272  0.6557 -1.1587 -0.2890
    1SOL    HW310807   0.275   2.059   4.276  0.4560  1.9765 -1.9520
    1SOL    MW410808   0.196   2.091   4.292 -0.0498 -0.0262 -0.3076
    1SOL     OW10809   1.941   1.762   4.696  0.3767 -0.3123  0.3635
    1SOL    HW210810   1.940   1.804   4.610  1.6634  0.8486  0.9066
    1SOL    HW310811   1.929   1.669   4.676 -0.9011  0.1061 -0.9501
    1SOL    MW410812   1.940   1.755   4.682  0.3778 -0.1040  0.2618
    1SOL     OW10813   2.549   3.283   4.442  0.1223 -0.3681 -0.0172
    1SOL    HW210814   2.564   3.376   4.462  0.3567 -0.3850 -0.1180
    1SOL    HW310815   2.597   3.268   4.361  0.4184 -0.6802  0.2141
    1SOL    MW410816   2.557   3.293   4.434  0.1926 -0.4115  0.0000
    1SOL     OW10817   0.761   3.584   4.490 -0.0826  0.4198 -0.1554
    1SOL    HW210818   0.720   3.605   4.406 -3.6439 -2.9504  0.5591
    1SOL    HW310819   0.724   3.647   4.551 -0.0319  0.8086 -0.5251
    1SOL    MW410820   0.751   3.595   4.487 -0.5457  0.0267 -0.1097
    1SOL     OW10821   1.843   3.199   4.226  0.0287 -0.0282  0.2280
    1SOL    HW210822   1.761   3.163   4.193 -0.2148  2.0702 -1.6423
    1SOL    HW310823   1.832   3.294   4.219  2.5605  0.3034  0.1052
    1SOL    MW410824   1.831   3.207   4.221  0.3306  0.2923 -0.0348
    1SOL     OW10825   2.975   2.213   4.111  0.3754 -0.4288 -0.1259
    1SOL    HW210826   2.894   2.228   4.159 -0.7258 -3.6832 -0.8468
    1SOL    HW310827   2.952   2.229   4.020  0.5948 -1.0197 -0.2922
    1SOL    MW410828   2.961   2.217   4.105  0.2589 -0.9360 -0.2432
    1SOL     OW10829   2.528   3.952   4.482 -0.2926  0.2408 -0.2512
    1SOL    HW210830   2.435   3.934   4.493  0.0136 -0.9528  0.3688
    1SOL    HW310831   2.573   3.887   4.535  1.0036 -1.3973 -3.1909
    1SOL    MW410832   2.522   3.941   4.490 -0.0808 -0.1330 -0.5574
    1SOL     OW10833   1.007   0.008   4.541 -0.1121 -0.1928 -0.1131
    1SOL    HW210834   0.975   0.089   4.582  0.6336  0.0322  0.0273
    1SOL    HW310835   0.974   0.012   4.451  0.6239  0.6772 -0.3535
    1SOL    MW410836   0.999   0.020   4.535  0.0834 -0.0483 -0.1264
    1SOL     OW10837   4.420   1.840   4.605  0.2643  0.2351 -0.0530
    1SOL    HW210838   4.506   1.875   4.631 -0.6243  0.2724  3.0390
    1SOL    HW310839   4.386   1.905   4.543  1.8289  0.9837 -0.1571
    1SOL    MW410840   4.427   1.854   4.600  0.3533  0.3389  0.3414
    1SOL     OW10841   3.770   2.870   4.491  0.5072 -0.5654 -0.1597
    1SOL    HW210842   3.852   2.903   4.525  0.6432 -0.8547 -0.2053
    1SOL    HW310843   3.781   2.872   4.396  1.0073 -1.9711 -0.1408
    1SOL    MW410844   3.782   2.874   4.483  0.5910 -0.7892 -0.1631
    1SOL     OW10845   1.779   1.985   4.133  0.0386 -0.3168 -0.2693
    1SOL    HW210846   1.797   1.955   4.044  2.0024  1.2265 -0.4297
    1SOL    HW310847   1.856   2.036   4.157 -0.7885 -0.1023  2.0567
    1SOL    MW410848   1.792   1.988   4.124  0.1885 -0.0850  0.0162
    1SOL     OW10849   1.737   1.139   4.072  0.4406  0.2269 -0.1558
    1SOL    HW210850   1.740   1.044   4.084 -0.4684  0.1784 -0.3004
    1SOL    HW310851   1.810   1.172   4.124 -0.6918 -0.3651  1.8932
    1SOL    MW410852   1.747   1.131   4.081  0.1712  0.1423  0.0958
    1SOL     OW10853   3.994   2.973   4.574  0.0000  0.0500 -0.3515
    1SOL    HW210854   4.051   2.897   4.581  0.2547  0.2058 -0.7511
    1SOL    HW310855   4.045   3.037   4.524 -1.1227 -0.3751 -2.0580
    1SOL    MW410856   4.008   2.971   4.569 -0.1144  0.0145 -0.6294
    1SOL     OW10857   0.554   0.750   4.805  0.2717 -0.6551  0.0220
    1SOL    HW210858   0.630   0.778   4.854 -1.2561  2.3680  0.7479
    1SOL    HW310859   0.568   0.784   4.716 -0.3366  0.1311  0.2220
    1SOL    MW410860   0.566   0.758   4.800 -0.0101 -0.1525  0.1440
    1SOL     OW10861   2.406   2.865   4.467  0.1833  0.2430 -0.4744
    1SOL    HW210862   2.464   2.925   4.512 -0.5531  1.2931 -0.9065
    1SOL    HW310863   2.443   2.856   4.379  1.3042 -1.3657  0.1382
    1SOL    MW410864   2.418   2.872   4.462  0.2341  0.1690 -0.4511
    1SOL     OW10865   3.172   1.571   4.730 -0.2912 -0.6122  0.2326
    1SOL    HW210866   3.135   1.528   4.653  0.9538 -0.5986 -0.3859
    1SOL    HW310867   3.234   1.508   4.765 -0.4390 -0.3889  0.8996
    1SOL    MW410868   3.175   1.557   4.724 -0.1464 -0.5809  0.2389
    1SOL     OW10869   1.511   2.266   4.202 -0.1232 -0.4347  0.1130
    1SOL    HW210870   1.597   2.295   4.232  0.3753 -0.7462 -0.9841
    1SOL    HW310871   1.503   2.176   4.235  0.4253 -0.7791 -0.6758
    1SOL    MW410872   1.522   2.258   4.210  0.0149 -0.5214 -0.1359
    1SOL     OW10873   1.250   1.951   4.816 -0.1209  0.5816 -0.4081
    1SOL    HW210874   1.324   2.003   4.785  0.5516 -0.9278 -1.3496
    1SOL    HW310875   1.207   1.920   4.737  0.6536 -1.9386  0.1296
    1SOL    MW410876   1.254   1.954   4.802  0.0701  0.0501 -0.4616
    1SOL     OW10877   3.833   4.574   4.661 -0.0637  0.2107  0.3569
    1SOL    HW210878   3.881   4.551   4.740 -1.0617 -0.5764  0.7467
    1SOL    HW310879   3.824   4.491   4.613  0.1357  0.5983 -0.3657
    1SOL    MW410880   3.838   4.560   4.665 -0.1688  0.1578  0.3133
    1SOL     OW10881   2.164   3.004   4.433  0.2567  0.4124 -0.2856
    1SOL    HW210882   2.126   2.952   4.363 -1.2493 -0.4431  1.1198
    1SOL    HW310883   2.246   2.959   4.455 -0.4721 -0.7382  0.1411
    1SOL    MW410884   2.170   2.991   4.427 -0.0384  0.1478 -0.0439
    1SOL     OW10885   4.222   3.851   4.106  0.4466  0.0219  0.6293
    1SOL    HW210886   4.226   3.760   4.135  0.3685 -1.0320 -2.5148
    1SOL    HW310887   4.245   3.848   4.014 -1.3243  2.9785  0.0226
    1SOL    MW410888   4.226   3.838   4.098  0.2027  0.2728  0.1340
    1SOL     OW10889   0.781   2.614   4.520  0.5543 -0.2585 -0.1079
    1SOL    HW210890   0.824   2.539   4.561  0.9940  0.6014  1.0363
    1SOL    HW310891   0.690   2.609   4.550  0.8154  0.2230  0.8052
    1SOL    MW410892   0.775   2.603   4.530  0.6467 -0.0815  0.1636
    1SOL     OW10893   0.797   0.416   4.483  0.0631 -0.1177  0.1795
    1SOL    HW210894   0.702   0.431   4.488  0.1705  0.3052  0.9350
    1SOL    HW310895   0.809   0.374   4.398 -0.6762  0.7880 -0.3894
    1SOL    MW410896   0.786   0.412   4.472 -0.0203  0.0575  0.2041
    1SOL     OW10897   4.205   2.748   4.243  0.0844  0.1441  0.0654
    1SOL    HW210898   4.220   2.830   4.197  0.3032  0.0690 -0.0000
    1SOL    HW310899   4.119   2.718   4.214 -0.1748  0.5550  0.3996
    1SOL    MW410900   4.196   2.755   4.233  0.0796  0.1884  0.1011
    1SOL     OW10901   0.201   4.616   4.105  0.3107  0.3078 -0.0549
    1SOL    HW210902   0.282   4.639   4.150 -0.1663 -0.3013  1.1181
    1SOL    HW310903   0.186   4.524   4.127  0.2885 -0.1363 -1.7917
    1SOL    MW410904   0.210   4.607   4.114  0.2449  0.1683 -0.1297
    1SOL     OW10905   3.138   2.328   4.483  0.5817 -0.1144  0.4013
    1SOL    HW210906   3.226   2.296   4.468 -0.0537 -1.1198 -1.3033
    1SOL    HW310907   3.147   2.423   4.490  1.5985 -0.0611 -1.4084
    1SOL    MW410908   3.151   2.336   4.482  0.6320 -0.2403 -0.0625
    1SOL     OW10909   0.434   1.056   4.183  0.3289 -0.3000  0.0836
    1SOL    HW210910   0.421   0.961   4.194  0.1037 -0.2285  0.4551
    1SOL    HW310911   0.430   1.070   4.089 -2.0340 -0.3309  0.1391
    1SOL    MW410912   0.432   1.045   4.172 -0.0125 -0.2946  0.1397
    1SOL     OW10913   2.282   3.239   4.352 -0.1359  0.3147  0.3789
    1SOL    HW210914   2.374   3.239   4.379  0.4517 -0.8632 -1.5451
    1SOL    HW310915   2.248   3.156   4.387 -0.4892  0.7591  1.1065
    1SOL    MW410916   2.290   3.228   4.360 -0.1049  0.2177  0.2213
    1SOL     OW10917   4.477   0.098   4.253 -0.0382 -0.3928 -0.2089
    1SOL    HW210918   4.548   0.042   4.221  1.9463  0.6782  2.1216
    1SOL    HW310919   4.485   0.178   4.201 -1.9894 -1.6794 -2.5715
    1SOL    MW410920   4.488   0.101   4.242 -0.0339 -0.4213 -0.2131
    1SOL     OW10921   1.361   3.969   4.478 -0.0786  0.3719 -0.2862
    1SOL    HW210922   1.407   4.048   4.509 -0.5245 -0.2058  1.9237
    1SOL    HW310923   1.270   3.982   4.506 -0.4795 -0.1979 -1.3288
    1SOL    MW410924   1.355   3.981   4.486 -0.1901  0.2205 -0.1316
    1SOL     OW10925   1.035   3.593   4.502 -0.2278 -0.1438 -0.0029
    1SOL    HW210926   1.072   3.615   4.417 -0.2958  1.6782  0.4082
    1SOL    HW310927   0.942   3.581   4.486 -0.0574 -0.9952 -0.3834
    1SOL    MW410928   1.028   3.595   4.489 -0.2142 -0.0160  0.0010
    1SOL     OW10929   2.389   1.449   4.591 -0.4384 -0.3084  0.0184
    1SOL    HW210930   2.381   1.423   4.683 -0.2624 -0.5163 -0.0240
    1SOL    HW310931   2.458   1.515   4.591  0.2860 -1.0524 -0.1047
    1SOL    MW410932   2.397   1.454   4.603 -0.3197 -0.4340 -0.0029
    1SOL     OW10933   2.790   0.897   4.526 -0.8210  0.7282  1.2658
    1SOL    HW210934   2.875   0.873   4.562 -1.3493 -0.9661  1.4404
    1SOL    HW310935   2.732   0.824   4.551 -1.5989  0.3405 -1.5510
    1SOL    MW410936   2.793   0.884   4.534 -0.9933  0.4535  0.9174
    1SOL     OW10937   1.114   0.698   4.159  0.2433  0.6075 -0.1441
    1SOL    HW210938   1.170   0.752   4.215 -0.5303  0.9119  0.3464
    1SOL    HW310939   1.025   0.716   4.190 -0.0051 -1.1316  0.1659
    1SOL    MW410940   1.109   0.708   4.170  0.1085  0.4182 -0.0386
    1SOL     OW10941   3.796   0.935   4.590  0.0601 -0.0692 -0.5494
    1SOL    HW210942   3.810   1.029   4.582  0.2332 -0.0766 -0.3221
    1SOL    HW310943   3.713   0.919   4.544 -0.5764  0.3741  0.4312
    1SOL    MW410944   3.787   0.945   4.582 -0.0007 -0.0116 -0.3901
    1SOL     OW10945   2.267   1.070   4.589 -0.2349 -0.2108 -0.2483
    1SOL    HW210946   2.228   1.132   4.651  0.5933  0.4583 -0.3847
    1SOL    HW310947   2.326   1.123   4.536 -0.0333 -0.9972 -0.8221
    1SOL    MW410948   2.270   1.085   4.590 -0.0989 -0.2263 -0.3424
    1SOL     OW10949   1.376   3.198   4.265 -0.2880  0.6216 -0.1334
    1SOL    HW210950   1.365   3.195   4.360 -0.9425  0.7610 -0.1985
    1SOL    HW310951   1.293   3.164   4.231  0.1107  0.1502 -0.6546
    1SOL    MW410952   1.363   3.193   4.273 -0.3217  0.5779 -0.2112
    1SOL     OW10953   1.094   2.298   4.169 -0.1055  1.1694 -0.2720
    1SOL    HW210954   1.175   2.342   4.194  0.6403  0.0374 -0.6367
    1SOL    HW310955   1.104   2.208   4.201 -0.9980  0.8780 -0.7719
    1SOL    MW410956   1.106   2.292   4.176 -0.1247  0.9818 -0.3858
    1SOL     OW10957   4.329   1.371   4.542  0.1105  0.4060  0.0672
    1SOL    HW210958   4.249   1.420   4.562  0.3495  0.3016  1.3265
    1SOL    HW310959   4.398   1.438   4.542  0.2966  0.2302  0.8798
    1SOL    MW410960   4.328   1.387   4.545  0.1669  0.3691  0.3405
    1SOL     OW10961   3.587   0.605   4.563  0.1812 -0.3513  0.0686
    1SOL    HW210962   3.569   0.694   4.533  0.0254  0.3668  2.1904
    1SOL    HW310963   3.673   0.584   4.528  0.1010  0.5376 -0.6668
    1SOL    MW410964   3.596   0.614   4.554  0.1500 -0.1393  0.2522
    1SOL     OW10965   3.397   1.096   4.484  0.0801 -0.6147  0.1799
    1SOL    HW210966   3.428   1.181   4.515 -0.2093 -1.0175  1.5939
    1SOL    HW310967   3.303   1.110   4.467  0.4060 -0.1736 -1.3392
    1SOL    MW410968   3.388   1.109   4.486  0.0849 -0.6096  0.1664
    1SOL     OW10969   3.114   4.427   4.665 -0.5929 -0.2089 -0.4052
    1SOL    HW210970   3.040   4.476   4.628 -0.7717 -1.0175 -1.1311
    1SOL    HW310971   3.078   4.341   4.686  0.0897 -0.5390 -0.5603
    1SOL    MW410972   3.099   4.422   4.663 -0.5264 -0.3591 -0.5217
    1SOL     OW10973   0.688   4.602   4.149  0.1457  0.7522 -0.2490
    1SOL    HW210974   0.764   4.649   4.182  0.8892  1.2204 -2.5076
    1SOL    HW310975   0.679   4.632   4.059 -1.7864 -0.4598 -0.4834
    1SOL    MW410976   0.697   4.612   4.141 -0.0111  0.6533 -0.5779
    1SOL     OW10977   0.222   2.178   4.571  0.3463  0.2673  0.2166
    1SOL    HW210978   0.218   2.100   4.627  1.0986 -0.0710 -0.1956
    1SOL    HW310979   0.211   2.144   4.482 -0.5210  0.7719  0.1233
    1SOL    MW410980   0.220   2.163   4.567  0.3311  0.2890  0.1497
    1SOL     OW10981   1.878   1.159   4.738 -0.0118 -0.3224  0.2524
    1SOL    HW210982   1.881   1.064   4.746 -2.3320 -0.2972  2.0358
    1SOL    HW310983   1.966   1.188   4.760  0.1122 -1.9360  1.9721
    1SOL    MW410984   1.890   1.150   4.742 -0.3015 -0.5320  0.7148
    1SOL     OW10985   4.266   4.647   4.133  0.5944  0.3878  0.0216
    1SOL    HW210986   4.188   4.682   4.176 -0.2357 -1.2201 -0.1770
    1SOL    HW310987   4.339   4.685   4.182 -0.3029  1.6979  0.3618
    1SOL    MW410988   4.265   4.657   4.145  0.3667  0.3490  0.0405
    1SOL     OW10989   2.742   2.500   4.509 -0.4305 -0.2141 -0.4458
    1SOL    HW210990   2.729   2.429   4.571 -0.6990 -1.5683 -2.0217
    1SOL    HW310991   2.656   2.515   4.470  0.2383 -1.2060 -2.3942
    1SOL    MW410992   2.729   2.493   4.512 -0.3779 -0.5236 -0.9108
    1SOL     OW10993   1.779   4.187   4.592 -0.3623 -0.2555  0.4234
    1SOL    HW210994   1.798   4.093   4.591 -0.3411 -0.2587  1.1548
    1SOL    HW310995   1.687   4.193   4.567 -0.1111 -0.4071 -0.5550
    1SOL    MW410996   1.769   4.175   4.588 -0.3263 -0.2756  0.3905
    1SOL     OW10997   2.926   4.221   4.492 -0.0240 -0.3104 -0.1297
    1SOL    HW210998   2.840   4.236   4.531  0.0084 -0.1541 -0.1136
    1SOL    HW310999   2.930   4.283   4.419  0.1560 -0.1672 -0.0009
    1SOL    MW411000   2.915   4.231   4.488  0.0041 -0.2713 -0.1106
    1SOL     OW11001   3.496   4.243   4.631 -0.2659  0.1361 -0.6120
    1SOL    HW211002   3.436   4.169   4.634  0.0308 -0.1343 -1.1462
    1SOL    HW311003   3.456   4.304   4.570 -1.0081  0.8692  0.5894
    1SOL    MW411004   3.483   4.241   4.623 -0.3250  0.1974 -0.5240
    1SOL     OW11005   3.030   1.798   4.917  0.1391  0.1180  0.0631
    1SOL    HW211006   3.107   1.855   4.913 -0.9477  1.5027 -1.7971
    1SOL    HW311007   3.051   1.726   4.858 -0.0633  0.6064 -0.6138
    1SOL    MW411008   3.043   1.796   4.909 -0.0312  0.3650 -0.2713
    1SOL     OW11009   1.751   4.236   4.174 -0.4279  0.4951 -0.2919
    1SOL    HW211010   1.772   4.226   4.081  0.2601 -1.3475  0.0426
    1SOL    HW311011   1.830   4.273   4.213 -0.2078 -0.0444 -0.2144
    1SOL    MW411012   1.764   4.239   4.167 -0.3080  0.1807 -0.2375
    1SOL     OW11013   1.965   1.258   4.192 -0.1201 -0.4083  0.0401
    1SOL    HW211014   1.982   1.351   4.182 -0.3389 -0.4637 -0.8939
    1SOL    HW311015   1.947   1.246   4.285  0.2001  0.4312  0.2079
    1SOL    MW411016   1.965   1.268   4.203 -0.1067 -0.3049 -0.0610
    1SOL     OW11017   2.280   0.130   4.652 -0.2889 -0.2547 -0.0696
    1SOL    HW211018   2.374   0.140   4.643 -0.3492 -0.2008 -0.6622
    1SOL    HW311019   2.244   0.216   4.635 -0.3961 -0.0675  1.0323
    1SOL    MW411020   2.287   0.142   4.649 -0.3107 -0.2229 -0.0024
    1SOL     OW11021   2.851   0.726   4.299  0.4138  0.3740 -0.1330
    1SOL    HW211022   2.939   0.761   4.290 -0.2561  2.0038 -0.4605
    1SOL    HW311023   2.817   0.764   4.380  0.4752 -1.2990  0.7064
    1SOL    MW411024   2.858   0.735   4.308  0.3338  0.3684 -0.0658
    1SOL     OW11025   3.999   1.607   4.305 -0.0701 -0.2539 -0.5357
    1SOL    HW211026   4.085   1.599   4.263  0.5602 -2.4812  1.0656
    1SOL    HW311027   3.988   1.701   4.319  2.2240  0.0404 -0.5338
    1SOL    MW411028   4.009   1.618   4.301  0.3152 -0.5090 -0.3242
    1SOL     OW11029   1.672   1.836   4.747 -0.2634  0.1446  0.2215
    1SOL    HW211030   1.751   1.781   4.751 -0.6926 -0.4304  0.7155
    1SOL    HW311031   1.651   1.839   4.654  0.1960  0.0878  0.1124
    1SOL    MW411032   1.680   1.829   4.735 -0.2594  0.0613  0.2723
    1SOL     OW11033   1.111   1.853   4.585  0.1407  0.5445 -0.1707
    1SOL    HW211034   1.024   1.814   4.574 -0.6534  2.2162  0.0941
    1SOL    HW311035   1.105   1.938   4.542  2.0808  0.0984 -1.4018
    1SOL    MW411036   1.099   1.859   4.578  0.2919  0.7062 -0.2980
    1SOL     OW11037   2.851   2.682   4.327  0.4687  0.1272 -0.1663
    1SOL    HW211038   2.822   2.609   4.382 -0.1980 -0.3186 -1.1152
    1SOL    HW311039   2.793   2.681   4.251 -0.7195  2.7315  0.6225
    1SOL    MW411040   2.839   2.672   4.324  0.2239  0.4122 -0.1864
    1SOL     OW11041   1.331   0.819   4.299 -0.1848 -0.4407 -0.5204
    1SOL    HW211042   1.338   0.913   4.315  3.0530 -0.5999 -0.7634
    1SOL    HW311043   1.386   0.803   4.223 -0.9836 -2.4983 -0.6974
    1SOL    MW411044   1.339   0.829   4.291  0.1370 -0.7332 -0.5755
    1SOL     OW11045   3.862   2.396   4.443  0.4379 -0.7536 -0.0816
    1SOL    HW211046   3.815   2.478   4.457 -0.9054 -1.5046 -0.0772
    1SOL    HW311047   3.878   2.393   4.349  1.6096  0.0971  0.0775
    1SOL    MW411048   3.858   2.406   4.433  0.4151 -0.7405 -0.0596
    1SOL     OW11049   4.024   4.019   4.247 -0.1038  0.2061  0.3427
    1SOL    HW211050   4.083   3.961   4.198  0.2778  0.3027  0.6922
    1SOL    HW311051   4.065   4.029   4.332 -0.9357 -0.2116  0.7956
    1SOL    MW411052   4.037   4.012   4.252 -0.1631  0.1640  0.4482
    1SOL     OW11053   3.070   3.992   4.471  0.4520  0.3039 -0.1269
    1SOL    HW211054   3.157   4.010   4.508  0.3834 -0.4908  0.4433
    1SOL    HW311055   3.019   4.070   4.491  1.0055  0.7283 -0.3599
    1SOL    MW411056   3.075   4.004   4.479  0.5159  0.2551 -0.0820
    1SOL     OW11057   0.318   0.258   4.640  0.3996  0.0648 -0.4085
    1SOL    HW211058   0.266   0.324   4.593 -0.5211  0.6414  1.3892
    1SOL    HW311059   0.375   0.309   4.697  1.2888 -0.6451 -0.6584
    1SOL    MW411060   0.318   0.273   4.641  0.3954  0.0472 -0.2046
    1SOL     OW11061   0.774   3.176   4.537  0.2399 -0.0662 -0.1626
    1SOL    HW211062   0.793   3.082   4.530  1.4062  0.2800 -1.8221
    1SOL    HW311063   0.858   3.215   4.564  0.6081  0.8606 -2.5428
    1SOL    MW411064   0.788   3.169   4.540  0.4424  0.1016 -0.6952
    1SOL     OW11065   0.493   2.613   4.596 -0.1812  0.3778 -0.2871
    1SOL    HW211066   0.420   2.652   4.549  0.4668  0.5719 -1.1369
    1SOL    HW311067   0.479   2.518   4.589 -0.2006  0.4114 -0.6788
    1SOL    MW411068   0.481   2.605   4.589 -0.0983  0.4082 -0.4511
    1SOL     OW11069   1.430   1.730   4.810  0.1406 -0.2099 -0.0541
    1SOL    HW211070   1.367   1.797   4.833  0.1567 -0.2883  0.2171
    1SOL    HW311071   1.516   1.772   4.821  0.1382 -0.1066 -0.4131
    1SOL    MW411072   1.433   1.744   4.814  0.1425 -0.2067 -0.0653
    1SOL     OW11073   0.393   0.789   4.272 -0.3323 -0.4357 -0.4158
    1SOL    HW211074   0.481   0.757   4.251 -0.4080 -0.9858  0.0891
    1SOL    HW311075   0.337   0.747   4.207 -0.2287 -0.1236 -0.7076
    1SOL    MW411076   0.398   0.779   4.261 -0.3286 -0.4671 -0.3877
    1SOL     OW11077   2.247   1.667   4.248  0.0042 -0.2430 -0.1152
    1SOL    HW211078   2.247   1.685   4.342  0.2965 -2.1086  0.2609
    1SOL    HW311079   2.238   1.753   4.207 -1.1806  0.4931  1.6283
    1SOL    MW411080   2.246   1.681   4.255 -0.1135 -0.3920  0.1645
    1SOL     OW11081   3.224   1.831   4.688  0.3897  0.9134 -0.1381
    1SOL    HW211082   3.203   1.737   4.697 -0.5962  1.1053 -0.3300
    1SOL    HW311083   3.157   1.864   4.628 -0.6878  2.2120  1.7147
    1SOL    MW411084   3.212   1.823   4.681  0.1173  1.1102  0.0811
    1SOL     OW11085   2.291   2.444   4.715  0.4746  0.0572 -0.0618
    1SOL    HW211086   2.286   2.426   4.621 -0.0625 -1.1063  0.1724
    1SOL    HW311087   2.377   2.408   4.741  1.2360  1.6340 -0.3519
    1SOL    MW411088   2.302   2.437   4.706  0.5040  0.1118 -0.0691
    1SOL     OW11089   1.595   1.366   4.434  0.2627  0.9837 -0.0216
    1SOL    HW211090   1.560   1.328   4.353  0.9536 -1.2449  0.6996
    1SOL    HW311091   1.533   1.341   4.502  0.3845  1.7003  0.3604
    1SOL    MW411092   1.583   1.358   4.432  0.3699  0.7843  0.1240
    1SOL     OW11093   3.436   1.254   4.254  0.2932  0.1866  0.4576
    1SOL    HW211094   3.351   1.247   4.210  1.3143 -0.2081 -1.5047
    1SOL    HW311095   3.430   1.193   4.327 -0.5043 -1.1387 -0.6817
    1SOL    MW411096   3.424   1.245   4.257  0.3228 -0.0403  0.0486
    1SOL     OW11097   1.768   3.964   4.248 -0.2715  0.4043 -0.4810
    1SOL    HW211098   1.752   4.056   4.226 -0.7240  0.1139 -1.3830
    1SOL    HW311099   1.786   3.965   4.342 -2.9530  1.1080  0.0659
    1SOL    MW411100   1.768   3.976   4.258 -0.6850  0.4590 -0.5274
    1SOL     OW11101   4.077   0.863   4.264 -0.1334  0.0619  0.1551
    1SOL    HW211102   3.996   0.835   4.223  0.6120 -0.1840 -1.1723
    1SOL    HW311103   4.140   0.794   4.243  0.4704  0.3294  1.0275
    1SOL    MW411104   4.075   0.850   4.256  0.0443  0.0647  0.0954
    1SOL     OW11105   0.240   0.450   4.261 -0.6915  0.1147 -0.2199
    1SOL    HW211106   0.186   0.411   4.192 -0.4349  0.5318 -0.6597
    1SOL    HW311107   0.317   0.393   4.266 -0.9522 -0.2138  0.0854
    1SOL    MW411108   0.243   0.437   4.253 -0.6920  0.1264 -0.2375
    1SOL     OW11109   1.027   3.313   4.499  0.0330  0.1502  0.3582
    1SOL    HW211110   1.029   3.409   4.494  0.7840  0.2504  2.0148
    1SOL    HW311111   1.117   3.286   4.479  0.1468 -0.1124  1.1884
    1SOL    MW411112   1.039   3.322   4.496  0.1470  0.1287  0.6866
    1SOL     OW11113   1.835   3.714   4.673 -0.2050  0.5330  0.3345
    1SOL    HW211114   1.915   3.669   4.647 -1.0537 -0.0776 -1.3074
    1SOL    HW311115   1.843   3.724   4.768  0.7244 -1.7014  0.5362
    1SOL    MW411116   1.846   3.709   4.682 -0.1943  0.1576  0.1450
    1SOL     OW11117   4.457   3.958   4.179  0.4011 -0.2154  0.5316
    1SOL    HW211118   4.377   3.915   4.150  0.0615  0.8942 -0.2015
    1SOL    HW311119   4.442   4.051   4.162  2.0020 -0.0364 -0.0076
    1SOL    MW411120   4.445   3.964   4.173  0.5679 -0.0455  0.3638
    1SOL     OW11121   0.683   4.340   4.207 -0.0669 -0.1328 -0.0031
    1SOL    HW211122   0.588   4.335   4.197 -0.1066 -0.7616  0.6532
    1SOL    HW311123   0.705   4.430   4.185 -0.7581 -0.1153 -0.6505
    1SOL    MW411124   0.674   4.351   4.203 -0.1633 -0.2131 -0.0019
    1SOL     OW11125   0.591   3.386   4.570  0.2277 -0.1431  0.2538
    1SOL    HW211126   0.637   3.302   4.567  0.9502  0.2181  0.9243
    1SOL    HW311127   0.652   3.448   4.530 -0.8752 -0.1771 -1.5368
    1SOL    MW411128   0.605   3.383   4.565  0.1775 -0.0999  0.1063
    1SOL     OW11129   0.029   0.338   4.122 -0.1120  0.0210  0.0764
    1SOL    HW211130   0.020   0.331   4.027  1.4153 -0.2937 -0.0622
    1SOL    HW311131  -0.051   0.381   4.151 -0.2976  0.7197 -1.4311
    1SOL    MW411132   0.017   0.342   4.113  0.0650  0.0717 -0.1407
    1SOL     OW11133   1.311   1.852   4.140  0.2836 -0.1800 -0.2235
    1SOL    HW211134   1.382   1.900   4.182 -0.5779  0.7402  0.1983
    1SOL    HW311135   1.306   1.770   4.189 -1.3206  1.2615  2.1466
    1SOL    MW411136   1.319   1.847   4.152 -0.0417  0.1315  0.1445
    1SOL     OW11137   1.625   3.093   4.102  0.3882 -0.1345  0.1226
    1SOL    HW211138   1.549   3.134   4.144  0.9034 -0.6181  1.5525
    1SOL    HW311139   1.615   2.999   4.121  0.2812 -0.4485 -1.4125
    1SOL    MW411140   1.613   3.086   4.110  0.4419 -0.2398  0.1087
    1SOL     OW11141   2.476   3.593   4.197  0.3671 -0.0898  0.2135
    1SOL    HW211142   2.392   3.548   4.184  0.2442  0.2944 -0.3332
    1SOL    HW311143   2.494   3.585   4.291 -1.1118  1.2907  0.6298
    1SOL    MW411144   2.467   3.586   4.208  0.1559  0.1431  0.1969
    1SOL     OW11145   2.576   2.415   4.205  0.2664  0.3339 -0.0058
    1SOL    HW211146   2.533   2.473   4.267  1.9181 -0.3678  1.8240
    1SOL    HW311147   2.504   2.366   4.163 -0.8529  0.8388  1.3126
    1SOL    MW411148   2.561   2.416   4.207  0.3366  0.3080  0.4091
    1SOL     OW11149   0.141   4.030   4.557 -0.0458  0.3303 -0.3473
    1SOL    HW211150   0.202   4.032   4.631  0.0060 -0.1131 -0.3762
    1SOL    HW311151   0.130   4.122   4.533 -2.7608  0.7555  2.3713
    1SOL    MW411152   0.148   4.042   4.564 -0.3971  0.3285  0.0076
    1SOL     OW11153   0.903   2.466   4.243 -0.0254  0.0463  0.0850
    1SOL    HW211154   0.821   2.419   4.224  0.3901 -0.2331 -1.0591
    1SOL    HW311155   0.972   2.405   4.218  0.5210  1.1021 -1.0043
    1SOL    MW411156   0.901   2.452   4.237  0.1014  0.1488 -0.2098
    1SOL     OW11157   2.261   1.946   4.126  0.1255  0.0857 -0.4795
    1SOL    HW211158   2.193   2.013   4.131  0.3156  0.2414  0.1467
    1SOL    HW311159   2.273   1.930   4.033 -1.9927 -1.1730 -0.5576
    1SOL    MW411160   2.253   1.953   4.115 -0.1287 -0.0597 -0.4072
    1SOL     OW11161   2.495   4.484   4.473  0.5349  0.8244  0.4819
    1SOL    HW211162   2.411   4.512   4.508  1.2327  1.0019  2.0883
    1SOL    HW311163   2.554   4.558   4.488  1.2241  0.3216  0.3282
    1SOL    MW411164   2.492   4.497   4.480  0.7181  0.7815  0.6733
    1SOL     OW11165   4.083   1.510   4.549  0.0805  0.2082 -0.0212
    1SOL    HW211166   4.060   1.536   4.460 -0.8921  0.7539  0.3824
    1SOL    HW311167   3.999   1.488   4.590  0.4415  0.6656  0.9874
    1SOL    MW411168   4.068   1.510   4.543 -0.0005  0.3405  0.1655
    1SOL     OW11169   3.832   1.433   4.126  0.2760  0.0003 -0.2354
    1SOL    HW211170   3.747   1.464   4.159  1.3840  0.5968  2.2095
    1SOL    HW311171   3.896   1.488   4.170  1.9827 -0.8481 -1.5925
    1SOL    MW411172   3.829   1.444   4.136  0.6473 -0.0330 -0.0920
    1SOL     OW11173   4.279   1.291   4.265 -0.5657  0.5337 -0.3436
    1SOL    HW211174   4.206   1.229   4.263 -0.2105  0.0621  0.8081
    1SOL    HW311175   4.280   1.323   4.355  1.7552 -0.7825  0.1078
    1SOL    MW411176   4.269   1.287   4.276 -0.2127  0.2979 -0.1321
    1SOL     OW11177   2.026   0.491   4.230 -0.3177  0.4146  0.2670
    1SOL    HW211178   1.952   0.434   4.210  0.1608 -0.3383  0.5891
    1SOL    HW311179   2.021   0.504   4.325  1.5149 -1.8927  0.7352
    1SOL    MW411180   2.016   0.485   4.240 -0.0129  0.0108  0.3715
    1SOL     OW11181   0.760   1.507   4.701  0.2747 -0.6787  0.6993
    1SOL    HW211182   0.686   1.505   4.762  1.3020 -0.5840  1.9664
    1SOL    HW311183   0.829   1.456   4.744  1.0120 -0.6229 -0.3838
    1SOL    MW411184   0.759   1.500   4.715  0.5075 -0.6588  0.7238
    1SOL     OW11185   1.603   0.897   4.674 -0.3847 -0.0685  0.2251
    1SOL    HW211186   1.682   0.863   4.716  0.7558  1.3384 -0.7270
    1SOL    HW311187   1.590   0.983   4.713 -0.5343  0.3619 -0.7684
    1SOL    MW411188   1.612   0.904   4.685 -0.2539  0.1739 -0.0315
    1SOL     OW11189   3.260   1.370   4.064  0.3147 -0.0435 -0.1203
    1SOL    HW211190   3.319   1.419   4.007  0.0712  0.0635 -0.2799
    1SOL    HW311191   3.191   1.337   4.005  0.8197 -1.1149 -0.1274
    1SOL    MW411192   3.258   1.372   4.049  0.3493 -0.1708 -0.1421
    1SOL     OW11193   1.766   0.857   4.142 -0.2823  0.3054  0.3672
    1SOL    HW211194   1.853   0.821   4.125 -0.9239 -1.4639  0.6675
    1SOL    HW311195   1.765   0.872   4.236 -1.3034 -2.5580  0.8729
    1SOL    MW411196   1.778   0.854   4.152 -0.5018 -0.3058  0.4730
    1SOL     OW11197   1.749   0.955   4.424 -0.4045  0.3101  0.3486
    1SOL    HW211198   1.791   1.039   4.446 -1.2247  0.7111  0.3971
    1SOL    HW311199   1.684   0.942   4.493  0.4347 -0.8902  0.9383
    1SOL    MW411200   1.746   0.964   4.436 -0.4021  0.2047  0.4325
    1SOL     OW11201   1.933   1.922   4.447 -0.3449  0.2065 -0.0549
    1SOL    HW211202   2.029   1.922   4.442 -0.2050 -1.1336  2.0752
    1SOL    HW311203   1.908   2.012   4.427  1.4560  0.9432  0.8932
    1SOL    MW411204   1.942   1.933   4.444 -0.0889  0.1270  0.3510
    1SOL     OW11205   2.897   2.175   4.517  0.2175  0.1115 -0.0545
    1SOL    HW211206   2.976   2.227   4.500 -0.7550  0.9013 -2.2989
    1SOL    HW311207   2.846   2.182   4.437 -1.4852 -1.5890  0.8466
    1SOL    MW411208   2.901   2.183   4.504 -0.1352 -0.0086 -0.2317
    1SOL     OW11209   2.063   3.613   4.564  0.0077  0.0839  0.0730
    1SOL    HW211210   2.063   3.522   4.591  2.1719 -0.4507 -1.5765
    1SOL    HW311211   2.031   3.611   4.474  2.5393  0.5898 -0.8933
    1SOL    MW411212   2.059   3.601   4.555  0.6270  0.0801 -0.2723
    1SOL     OW11213   1.745   2.379   4.302  0.5796  0.0443 -0.0211
    1SOL    HW211214   1.793   2.315   4.354  1.8997 -0.3843 -1.7029
    1SOL    HW311215   1.752   2.461   4.351  0.7867 -0.5988  1.0356
    1SOL    MW411216   1.752   2.382   4.315  0.7811 -0.0970 -0.1040
    1SOL     OW11217   3.820   1.462   4.649 -0.0381  0.0323 -0.4036
    1SOL    HW211218   3.758   1.512   4.596  0.2315  0.6228 -0.1716
    1SOL    HW311219   3.782   1.462   4.737 -0.3883 -0.7784 -0.5486
    1SOL    MW411220   3.807   1.469   4.654 -0.0489  0.0033 -0.3924
    1SOL     OW11221   0.669   3.787   4.654  0.0175  0.4480 -0.3594
    1SOL    HW211222   0.586   3.774   4.701 -0.3936  0.7102 -1.0123
    1SOL    HW311223   0.651   3.858   4.593  0.5894  0.1814 -0.8376
    1SOL    MW411224   0.656   3.795   4.652  0.0386  0.4475 -0.5083
    1SOL     OW11225   2.943   2.683   4.624 -0.4739 -0.5577  0.0869
    1SOL    HW211226   2.865   2.630   4.608 -1.0647  0.8978 -2.0111
    1SOL    HW311227   2.910   2.773   4.632  1.1084  0.2363 -2.0639
    1SOL    MW411228   2.928   2.688   4.623 -0.3433 -0.2611 -0.4735
    1SOL     OW11229   2.883   3.086   4.148  0.5165  0.1921  0.2753
    1SOL    HW211230   2.891   3.070   4.054  1.3020  3.4206 -0.2932
    1SOL    HW311231   2.970   3.117   4.174 -0.3203  1.4978  1.5782
    1SOL    MW411232   2.896   3.088   4.139  0.5095  0.7904  0.3724
    1SOL     OW11233   1.614   2.850   4.447  0.3430 -0.3761  0.2583
    1SOL    HW211234   1.666   2.907   4.504 -0.8493  1.4597 -0.4678
    1SOL    HW311235   1.524   2.865   4.474  0.0192 -2.2316  0.3048
    1SOL    MW411236   1.609   2.859   4.458  0.1431 -0.3786  0.1688
    1SOL     OW11237   1.454   0.671   4.513  0.1493 -0.3750  0.3668
    1SOL    HW211238   1.417   0.732   4.449  0.9566 -0.5033 -0.2424
    1SOL    HW311239   1.491   0.728   4.581 -0.3240 -0.2232  0.4971
    1SOL    MW411240   1.454   0.687   4.514  0.1934 -0.3719  0.3037
    1SOL     OW11241   1.315   1.099   4.334 -0.2892  0.0007  0.0132
    1SOL    HW211242   1.371   1.140   4.268 -1.6785  0.4891 -0.8960
    1SOL    HW311243   1.352   1.127   4.418 -0.1792  1.7370 -0.5825
    1SOL    MW411244   1.327   1.108   4.336 -0.4580  0.2941 -0.1855
    1SOL     OW11245   0.260   2.678   4.455  0.4423 -0.3136 -0.7759
    1SOL    HW211246   0.253   2.734   4.378  2.2357 -0.7103 -1.2544
    1SOL    HW311247   0.189   2.707   4.512 -0.0976  0.8653 -2.0118
    1SOL    MW411248   0.250   2.689   4.452  0.6077 -0.2103 -1.0028
    1SOL     OW11249   3.341   2.118   4.208 -0.4384  0.0439 -0.4233
    1SOL    HW211250   3.360   2.194   4.153  0.4455  0.2687  0.1748
    1SOL    HW311251   3.365   2.146   4.296  0.4168 -1.1077 -0.2818
    1SOL    MW411252   3.347   2.132   4.212 -0.2091 -0.0784 -0.3257
    1SOL     OW11253   3.755   4.319   4.537 -0.3083  0.6600 -0.5103
    1SOL    HW211254   3.676   4.297   4.587  0.4234  0.1486  0.4393
    1SOL    HW311255   3.822   4.259   4.570  0.1304  0.1339 -2.2866
    1SOL    MW411256   3.753   4.308   4.548 -0.1540  0.5226 -0.6194
    1SOL     OW11257   3.534   2.956   4.632 -0.0101  0.2148 -0.0808
    1SOL    HW211258   3.611   2.930   4.582 -1.5496 -0.4075 -2.1887
    1SOL    HW311259   3.515   3.046   4.603  0.0631  0.4576  0.6121
    1SOL    MW411260   3.542   2.965   4.622 -0.2036  0.1647 -0.2675
    1SOL     OW11261   0.164   3.502   4.454 -0.0427  0.6643 -0.3106
    1SOL    HW211262   0.187   3.521   4.363 -1.3538  0.5781 -0.6758
    1SOL    HW311263   0.239   3.532   4.504  0.9367  0.2010 -1.4664
    1SOL    MW411264   0.177   3.509   4.448 -0.0864  0.5915 -0.5112
    1SOL     OW11265   3.107   0.401   4.117 -0.0868  0.1124  0.3154
    1SOL    HW211266   3.042   0.438   4.178 -1.1388 -1.4575  0.1642
    1SOL    HW311267   3.191   0.414   4.162 -0.6761  0.5871  1.3071
    1SOL    MW411268   3.109   0.408   4.131 -0.3033 -0.0321  0.4263
    1SOL     OW11269   0.246   3.054   4.105 -0.1982  0.4380 -0.0069
    1SOL    HW211270   0.311   3.104   4.154 -0.8292 -0.1422  1.4693
    1SOL    HW311271   0.163   3.075   4.148 -0.7416 -0.2117 -0.7333
    1SOL    MW411272   0.243   3.063   4.117 -0.3531  0.2759  0.0925
    1SOL     OW11273   1.846   1.219   4.455 -0.1808 -0.1176  0.3513
    1SOL    HW211274   1.858   1.238   4.548 -1.2571 -1.2241  0.7231
    1SOL    HW311275   1.765   1.264   4.432 -0.1893 -0.2755  0.0698
    1SOL    MW411276   1.837   1.228   4.465 -0.3240 -0.2844  0.3629
    1SOL     OW11277   2.256   3.431   4.144 -0.5140 -0.1712  0.7081
    1SOL    HW211278   2.265   3.362   4.211  0.5022 -0.5091  0.2278
    1SOL    HW311279   2.185   3.487   4.177 -1.0926 -1.2327  1.2867
    1SOL    MW411280   2.247   3.429   4.158 -0.4561 -0.3557  0.7215
    1SOL     OW11281   4.001   0.310   4.598 -0.4632 -0.4119 -0.2592
    1SOL    HW211282   4.085   0.333   4.557 -0.4227  0.5550  0.3519
    1SOL    HW311283   4.009   0.341   4.688 -1.4154 -0.4749 -0.1497
    1SOL    MW411284   4.013   0.317   4.604 -0.5832 -0.2927 -0.1645
    1SOL     OW11285   2.200   0.843   4.452  0.1486 -0.1473 -0.7936
    1SOL    HW211286   2.237   0.921   4.496 -0.8334  0.1093 -0.4001
    1SOL    HW311287   2.225   0.853   4.361  1.1432 -0.0324 -0.5167
    1SOL    MW411288   2.208   0.855   4.446  0.1502 -0.0983 -0.7052
    1SOL     OW11289   4.323   3.321   4.508  0.4138 -0.4696  0.3034
    1SOL    HW211290   4.405   3.272   4.514  0.6842  0.1907  2.1683
    1SOL    HW311291   4.350   3.412   4.504 -0.2399 -0.2575  0.7898
    1SOL    MW411292   4.337   3.326   4.508  0.3633 -0.3545  0.6137
    1SOL     OW11293   2.277   0.423   4.129  0.3102 -0.0987 -0.5866
    1SOL    HW211294   2.262   0.390   4.040  1.0925 -0.5437 -0.5628
    1SOL    HW311295   2.191   0.451   4.160  0.1549  0.7704 -1.7657
    1SOL    MW411296   2.264   0.422   4.121  0.3929 -0.0427 -0.7391
    1SOL     OW11297   3.557   0.811   4.216  0.1726  0.4812 -0.2071
    1SOL    HW211298   3.474   0.773   4.187 -0.0026  0.9091 -0.2814
    1SOL    HW311299   3.550   0.903   4.190  0.6833  0.5090 -0.2374
    1SOL    MW411300   3.545   0.818   4.209  0.2170  0.5413 -0.2203
    1SOL     OW11301   0.522   2.935   4.625  0.0789  0.0222  0.1929
    1SOL    HW211302   0.498   2.845   4.648  1.8125 -0.3670  0.6137
    1SOL    HW311303   0.615   2.929   4.601  0.9150  2.1220  2.7126
    1SOL    MW411304   0.531   2.922   4.625  0.4179  0.2480  0.5813
    1SOL     OW11305   1.797   1.679   4.195  0.0904 -0.2252 -0.1240
    1SOL    HW211306   1.826   1.769   4.179 -1.1046  0.2713  0.3861
    1SOL    HW311307   1.876   1.626   4.188  0.9878  0.9966  0.5473
    1SOL    MW411308   1.811   1.684   4.192  0.0513  0.0015  0.0315
    1SOL     OW11309   0.906   1.629   4.269 -0.4309  0.4431 -0.6214
    1SOL    HW211310   0.828   1.593   4.226 -0.0807 -0.5860 -0.4236
    1SOL    HW311311   0.917   1.716   4.231 -1.6902  0.6091 -0.6340
    1SOL    MW411312   0.897   1.635   4.258 -0.5508  0.3293 -0.5970
    1SOL     OW11313   3.593   1.511   4.229 -0.1020  0.0230 -0.0212
    1SOL    HW211314   3.527   1.576   4.202 -0.3809  0.0256  0.6581
    1SOL    HW311315   3.543   1.431   4.241  0.1870 -0.2341 -0.4999
    1SOL    MW411316   3.577   1.509   4.227 -0.1009 -0.0107  0.0052
    1SOL     OW11317   3.347   2.813   4.266  0.5787  0.0594  0.0116
    1SOL    HW211318   3.261   2.775   4.248  1.1532 -1.3660  0.1298
    1SOL    HW311319   3.349   2.823   4.361  0.4456  0.3449 -0.0152
    1SOL    MW411320   3.336   2.809   4.276  0.6371 -0.0908  0.0238
    1SOL     OW11321   3.684   2.613   4.408 -0.3902 -0.1532  0.4636
    1SOL    HW211322   3.713   2.699   4.438 -0.0091 -0.0795 -0.1124
    1SOL    HW311323   3.644   2.629   4.323 -0.7198 -0.4810  0.5571
    1SOL    MW411324   3.683   2.626   4.401 -0.3831 -0.1869  0.4001
    1SOL     OW11325   0.660   4.322   4.484  0.1734 -0.3830  0.3034
    1SOL    HW211326   0.743   4.339   4.528  0.4882  0.4025 -0.5688
    1SOL    HW311327   0.677   4.342   4.392 -1.1950  0.5334  0.2331
    1SOL    MW411328   0.673   4.327   4.477  0.0344 -0.1588  0.1793
    1SOL     OW11329   1.534   4.362   4.289 -0.4087  0.3283 -0.5080
    1SOL    HW211330   1.611   4.319   4.252 -0.7809  1.2801 -2.4594
    1SOL    HW311331   1.460   4.323   4.243 -1.1111 -0.5572  1.3369
    1SOL    MW411332   1.534   4.351   4.278 -0.5505  0.3371 -0.5217
    1SOL     OW11333   3.095   2.002   4.241 -0.2687 -0.1484 -0.1816
    1SOL    HW211334   3.040   2.067   4.196 -0.0930  1.1117  1.3618
    1SOL    HW311335   3.183   2.040   4.238  0.2331 -1.3502 -1.1333
    1SOL    MW411336   3.099   2.016   4.234 -0.1793 -0.1409 -0.1030
    1SOL     OW11337   3.609   1.076   4.118  0.2771 -0.3592 -0.4459
    1SOL    HW211338   3.617   1.103   4.027  3.4099  0.1586 -0.0775
    1SOL    HW311339   3.551   1.141   4.157 -0.7261 -0.3282 -1.9544
    1SOL    MW411340   3.603   1.088   4.111  0.5581 -0.2867 -0.5965
    1SOL     OW11341   1.808   0.325   4.160  0.1147 -0.4106 -0.2025
    1SOL    HW211342   1.727   0.373   4.171 -0.2253 -1.1419  0.5770
    1SOL    HW311343   1.803   0.255   4.225  0.4207 -1.7240 -1.5692
    1SOL    MW411344   1.797   0.322   4.170  0.1103 -0.6803 -0.2799
    1SOL     OW11345   3.338   4.420   4.219 -0.1314 -0.1293  0.0991
    1SOL    HW211346   3.348   4.427   4.314  1.4902  0.6548 -0.1017
    1SOL    HW311347   3.341   4.510   4.188 -0.4360 -0.4021 -0.7094
    1SOL    MW411348   3.340   4.433   4.228  0.0422 -0.0620 -0.0339
    1SOL     OW11349   2.488   0.592   4.235  0.1323 -0.4491 -0.0575
    1SOL    HW211350   2.482   0.672   4.182 -0.1721  0.3889  1.2092
    1SOL    HW311351   2.426   0.532   4.193 -0.3161  0.2956 -0.4930
    1SOL    MW411352   2.479   0.595   4.222  0.0327 -0.2402  0.0520
    1SOL     OW11353   2.675   2.676   4.116 -0.4910  0.2630  0.4316
    1SOL    HW211354   2.607   2.736   4.146 -1.4448  0.0104 -1.1652
    1SOL    HW311355   2.636   2.589   4.123 -0.0869  0.0554  0.1423
    1SOL    MW411356   2.661   2.672   4.121 -0.5636  0.2024  0.1826
    1SOL     OW11357   2.460   1.243   4.144  0.1275  0.3310 -0.2008
    1SOL    HW211358   2.540   1.208   4.105 -0.2708  0.3208 -1.0096
    1SOL    HW311359   2.470   1.338   4.137 -0.2744  0.3180 -1.0057
    1SOL    MW411360   2.472   1.251   4.138  0.0222  0.3279 -0.4139
    1SOL     OW11361   3.135   3.460   4.138  0.2429  0.1953  0.1840
    1SOL    HW211362   3.107   3.459   4.047  0.5740 -0.0823  0.0822
    1SOL    HW311363   3.088   3.533   4.178  0.8921  0.9766 -0.4553
    1SOL    MW411364   3.125   3.469   4.132  0.3724  0.2618  0.0863
    1SOL     OW11365   3.357   4.015   4.517 -0.2893  0.0359 -0.1852
    1SOL    HW211366   3.413   4.026   4.441 -1.8998  0.2607 -1.3569
    1SOL    HW311367   3.355   3.921   4.533  0.9296  0.0757  0.2749
    1SOL    MW411368   3.364   4.004   4.509 -0.3409  0.0710 -0.2789
    1SOL     OW11369   3.803   1.182   4.258 -0.2638 -0.0544 -0.0957
    1SOL    HW211370   3.817   1.264   4.211 -0.1728 -0.5966 -1.0330
    1SOL    HW311371   3.734   1.137   4.209 -1.2958  0.0724  1.2143
    1SOL    MW411372   3.795   1.187   4.245 -0.3879 -0.1092 -0.0463
    1SOL     OW11373   3.003   1.771   4.097 -0.4967 -0.1210 -0.1410
    1SOL    HW211374   3.031   1.849   4.145 -2.2543 -0.0488  0.8185
    1SOL    HW311375   2.911   1.786   4.079 -0.6918 -1.6846 -0.5392
    1SOL    MW411376   2.995   1.783   4.101 -0.7544 -0.3176 -0.0668
    1SOL     OW11377   3.542   4.588   4.645 -0.1707 -0.3221 -0.5433
    1SOL    HW211378   3.636   4.600   4.661 -0.2160 -0.0841 -0.4395
    1SOL    HW311379   3.512   4.534   4.718 -0.2039  0.0049 -0.3090
    1SOL    MW411380   3.551   4.583   4.657 -0.1810 -0.2480 -0.4988
    1SOL     OW11381   2.731   1.582   4.248  0.1058  0.1326  0.2143
    1SOL    HW211382   2.637   1.569   4.238 -0.1860  1.2476  1.5027
    1SOL    HW311383   2.751   1.550   4.336  0.7966  0.6670  0.2525
    1SOL    MW411384   2.721   1.576   4.258  0.1585  0.3501  0.3896
    1SOL     OW11385   4.280   0.415   4.242  0.3038 -0.0660  0.4901
    1SOL    HW211386   4.279   0.508   4.218 -0.1175 -0.0370  0.6053
    1SOL    HW311387   4.200   0.380   4.201  1.1658 -0.6761 -0.6983
    1SOL    MW411388   4.269   0.423   4.233  0.3619 -0.1426  0.3481
    1SOL     OW11389   4.006   0.043   4.496 -0.0306 -0.2785 -0.0689
    1SOL    HW211390   3.993   0.130   4.532  2.5979  0.1498 -0.0891
    1SOL    HW311391   3.945  -0.013   4.545 -1.0253  1.3784  0.6078
    1SOL    MW411392   3.996   0.047   4.507  0.1848 -0.0034  0.0172
    1SOL     OW11393   2.082   3.108   4.100  0.4671  0.0089  0.2980
    1SOL    HW211394   2.078   3.021   4.140  1.2843  0.7256  1.9862
    1SOL    HW311395   2.005   3.154   4.134 -0.8482 -0.5420 -1.8378
    1SOL    MW411396   2.071   3.103   4.110  0.4013  0.0308  0.2394
    1SOL     OW11397   0.948   1.310   4.790 -0.3129 -0.6330 -0.2710
    1SOL    HW211398   0.925   1.242   4.727 -1.2425 -1.8362  1.3447
    1SOL    HW311399   1.016   1.270   4.845  0.5083  0.4184 -0.4933
    1SOL    MW411400   0.954   1.296   4.789 -0.3272 -0.6529 -0.0868
    1SOL     OW11401   0.498   1.780   4.700  0.6201 -0.3474 -0.2567
    1SOL    HW211402   0.554   1.732   4.760  1.3287  0.3212 -0.3702
    1SOL    HW311403   0.558   1.836   4.651 -0.1174  0.2013 -0.5418
    1SOL    MW411404   0.513   1.781   4.702  0.6163 -0.1868 -0.3090
    1SOL     OW11405   3.078   0.835   4.534 -0.4273 -0.0598  0.5085
    1SOL    HW211406   3.121   0.751   4.551 -0.6148 -0.1547  0.5059
    1SOL    HW311407   3.134   0.899   4.578  0.1870 -0.0976 -0.1989
    1SOL    MW411408   3.091   0.832   4.542 -0.3707 -0.0774  0.4148
    1SOL     OW11409   3.336   0.688   4.118 -0.0517 -0.1646 -0.3622
    1SOL    HW211410   3.352   0.597   4.142 -0.4149 -0.0352  0.3843
    1SOL    HW311411   3.253   0.710   4.161  0.2604  0.6496 -0.1612
    1SOL    MW411412   3.327   0.679   4.127 -0.0584 -0.0401 -0.2375
    1SOL     OW11413   3.795   0.668   4.769  0.4065  0.2237  0.2492
    1SOL    HW211414   3.719   0.657   4.712 -0.2410  0.5798  1.0380
    1SOL    HW311415   3.804   0.763   4.778  1.1009  0.1856 -0.0510
    1SOL    MW411416   3.786   0.679   4.763  0.4129  0.2657  0.3133
    1SOL     OW11417   2.440   2.294   3.885  0.0267  0.3334 -0.0469
    1SOL    HW211418   2.417   2.282   3.977 -1.3924  1.6732 -0.2126
    1SOL    HW311419   2.461   2.206   3.854 -0.8755 -0.3402  1.1995
    1SOL    MW411420   2.440   2.281   3.893 -0.2792  0.4213  0.0958
    1SOL     OW11421   2.221   4.563   4.529 -0.2147  0.0501  0.0681
    1SOL    HW211422   2.217   4.640   4.585  0.9073 -0.3931  0.7926
    1SOL    HW311423   2.170   4.496   4.577  0.9726 -0.4100  0.7194
    1SOL    MW411424   2.214   4.564   4.543  0.0899 -0.0691  0.2494
    1SOL     OW11425   3.612   1.581   4.498 -0.1800 -0.1596 -0.0668
    1SOL    HW211426   3.613   1.564   4.404 -0.4390  0.3608 -0.1643
    1SOL    HW311427   3.551   1.654   4.509 -0.7933 -0.7672  0.5959
    1SOL    MW411428   3.604   1.588   4.487 -0.2949 -0.1711  0.0076
    1SOL     OW11429   3.099   0.140   4.205 -0.0470 -0.1025 -0.0107
    1SOL    HW211430   3.086   0.230   4.176  1.3898 -0.4213 -1.7712
    1SOL    HW311431   3.089   0.143   4.300 -1.7771  1.5779 -0.2267
    1SOL    MW411432   3.096   0.152   4.214 -0.0856  0.0772 -0.2718
    1SOL     OW11433   2.727   3.507   4.105  0.1292 -0.2621  0.5097
    1SOL    HW211434   2.791   3.572   4.134 -1.0565  1.8942 -1.4825
    1SOL    HW311435   2.643   3.540   4.138 -0.2985 -1.5551  0.7273
    1SOL    MW411436   2.724   3.520   4.113 -0.0834 -0.1481  0.2756
    1SOL     OW11437   1.145   3.854   4.091 -0.2579  0.1340 -0.1509
    1SOL    HW211438   1.213   3.905   4.136  0.2948 -0.1358 -0.6717
    1SOL    HW311439   1.130   3.778   4.147  1.5177 -0.9881 -1.1439
    1SOL    MW411440   1.152   3.851   4.104  0.0492 -0.0496 -0.3505
    1SOL     OW11441   0.109   0.417   4.522 -0.3583 -0.5023 -0.1226
    1SOL    HW211442   0.019   0.386   4.511 -1.2559  2.2148 -0.6584
    1SOL    HW311443   0.140   0.433   4.433 -0.5003  1.7462  0.2208
    1SOL    MW411444   0.102   0.415   4.509 -0.4955  0.1529 -0.1478
    1SOL     OW11445   0.683   2.012   4.267  0.1952 -0.0406 -0.0873
    1SOL    HW211446   0.753   1.968   4.220  1.0143 -0.1249  1.1964
    1SOL    HW311447   0.694   2.105   4.246  2.1669  0.2316  1.9783
    1SOL    MW411448   0.693   2.018   4.258  0.5633 -0.0155  0.3543
    1SOL     OW11449   0.435   2.640   4.134 -0.5156 -0.3066 -0.1489
    1SOL    HW211450   0.442   2.658   4.040  2.0774  1.2350  0.2776
    1SOL    HW311451   0.358   2.690   4.162  1.9919  4.0101 -0.4891
    1SOL    MW411452   0.425   2.649   4.126  0.1573  0.4663 -0.1369
    1SOL     OW11453   1.298   2.452   4.272 -0.5421 -0.0473  0.3108
    1SOL    HW211454   1.372   2.392   4.269  0.1599  0.8812 -2.7678
    1SOL    HW311455   1.330   2.532   4.231 -2.5930  1.1346  0.9519
    1SOL    MW411456   1.312   2.455   4.266 -0.7199  0.2313 -0.0110
    1SOL     OW11457   3.040   3.025   4.557 -0.0426 -0.4907 -0.7302
    1SOL    HW211458   2.990   3.007   4.636  0.6149 -0.4273 -0.2950
    1SOL    HW311459   2.991   2.982   4.486 -0.0559 -1.4608 -0.1372
    1SOL    MW411460   3.027   3.017   4.558  0.0424 -0.6104 -0.5941
    1SOL     OW11461   2.713   1.148   4.440 -0.3337  0.5102  0.0880
    1SOL    HW211462   2.731   1.069   4.490 -0.6679 -0.0058 -0.5947
    1SOL    HW311463   2.620   1.143   4.419 -0.3154  0.9836 -0.1234
    1SOL    MW411464   2.703   1.137   4.444 -0.3755  0.5045 -0.0296
    1SOL     OW11465   4.388   0.110   4.530 -0.3309  0.0581  0.2055
    1SOL    HW211466   4.351   0.198   4.533  0.7312  0.5492 -0.4690
    1SOL    HW311467   4.407   0.095   4.437 -1.0582 -1.1233  0.2387
    1SOL    MW411468   4.386   0.119   4.518 -0.2866 -0.0330  0.1211
    1SOL     OW11469   0.100   3.233   4.470  0.3041 -0.0215  0.0150
    1SOL    HW211470   0.119   3.326   4.458  1.3088  0.0449  1.9440
    1SOL    HW311471   0.185   3.193   4.485 -0.3883 -0.7653  2.1401
    1SOL    MW411472   0.113   3.240   4.470  0.3453 -0.1109  0.5498
    1SOL     OW11473   3.183   3.262   4.498 -0.6428 -0.3079 -0.2015
    1SOL    HW211474   3.137   3.185   4.531 -0.8001  0.3485  1.1356
    1SOL    HW311475   3.275   3.242   4.509 -0.6855 -0.2868  0.1890
    1SOL    MW411476   3.189   3.249   4.504 -0.6695 -0.2184  0.0267
    1SOL     OW11477   1.480   1.458   4.777  0.1612 -0.4110 -0.4549
    1SOL    HW211478   1.463   1.551   4.792 -0.0280 -0.4736 -0.2789
    1SOL    HW311479   1.407   1.429   4.722  0.9344 -0.1451 -1.6461
    1SOL    MW411480   1.468   1.467   4.772  0.2384 -0.3841 -0.5889
    1SOL     OW11481   1.205   1.382   4.669  0.0903 -0.3278 -0.3492
    1SOL    HW211482   1.112   1.376   4.687 -0.3345  1.4573 -1.8373
    1SOL    HW311483   1.217   1.469   4.631  2.3825 -0.4745 -0.0402
    1SOL    MW411484   1.195   1.393   4.666  0.3366 -0.1117 -0.5050
    1SOL     OW11485   3.995   1.972   4.138  0.4153  0.4821 -0.2193
    1SOL    HW211486   3.909   2.015   4.142  1.2484  2.0298  1.0949
    1SOL    HW311487   4.011   1.943   4.227  1.0843 -0.1682 -0.5546
    1SOL    MW411488   3.986   1.974   4.150  0.6132  0.6005 -0.0896
    1SOL     OW11489   2.870   0.004   4.124  0.1452  0.0768  0.5336
    1SOL    HW211490   2.944   0.055   4.159  2.0873 -2.5975  0.4401
    1SOL    HW311491   2.880  -0.083   4.163 -2.0280 -0.7953 -0.7735
    1SOL    MW411492   2.881  -0.001   4.134  0.1149 -0.3910  0.3495
    1SOL     OW11493   0.401   0.034   4.497 -0.4904 -0.1016  0.2203
    1SOL    HW211494   0.393   0.117   4.543  1.4962 -0.1729  0.7443
    1SOL    HW311495   0.465  -0.016   4.548  0.4113 -0.8692 -1.6112
    1SOL    MW411496   0.408   0.038   4.510 -0.1093 -0.2123  0.0477
    1SOL     OW11497   1.504   4.207   4.535 -0.0323  0.0459 -0.4458
    1SOL    HW211498   1.515   4.261   4.457 -0.0763 -0.8484 -1.0748
    1SOL    HW311499   1.465   4.266   4.600  1.2256  1.1496 -0.6698
    1SOL    MW411500   1.500   4.222   4.533  0.1278  0.0739 -0.5589
    1SOL     OW11501   3.431   1.806   4.504 -0.1274  0.0637  0.1843
    1SOL    HW211502   3.500   1.866   4.530  0.4960  0.0587 -1.4199
    1SOL    HW311503   3.368   1.808   4.576  0.6543  1.4442  0.8252
    1SOL    MW411504   3.432   1.814   4.517  0.0582  0.2451  0.0577
    1SOL     OW11505   4.384   2.519   4.679  0.2576 -0.1384 -0.2180
    1SOL    HW211506   4.295   2.487   4.665  0.0456  0.8636 -1.2338
    1SOL    HW311507   4.435   2.482   4.607  0.7133 -0.8567  0.4644
    1SOL    MW411508   4.379   2.510   4.668  0.2894 -0.1011 -0.2618
    1SOL     OW11509   2.702   3.775   4.601 -0.3702  0.2293 -0.4576
    1SOL    HW211510   2.704   3.776   4.697 -0.1835 -1.9858 -0.4124
    1SOL    HW311511   2.793   3.766   4.575 -0.6193 -1.7375 -0.7542
    1SOL    MW411512   2.714   3.774   4.611 -0.3784 -0.3223 -0.4911
    1SOL     OW11513   1.491   3.709   4.474 -0.1451  0.5134  0.2166
    1SOL    HW211514   1.447   3.793   4.490 -0.0241  0.5991  0.0960
    1SOL    HW311515   1.564   3.709   4.537 -0.9242 -0.0791  1.1366
    1SOL    MW411516   1.495   3.720   4.485 -0.2319  0.4466  0.3223
    1SOL     OW11517   1.796   3.470   4.153  0.4306  0.2694 -0.3518
    1SOL    HW211518   1.788   3.464   4.058  0.4122  0.3070 -0.3522
    1SOL    HW311519   1.718   3.519   4.181 -0.5889 -1.4352 -0.1349
    1SOL    MW411520   1.784   3.475   4.144  0.2937  0.0496 -0.3233
    1SOL     OW11521   1.381   1.202   4.579 -0.1722 -0.0032 -0.3019
    1SOL    HW211522   1.316   1.265   4.611  0.2861  0.5961 -0.5520
    1SOL    HW311523   1.446   1.198   4.649  0.9699  1.5056 -1.2405
    1SOL    MW411524   1.381   1.210   4.593  0.0389  0.2749 -0.4587
    1SOL     OW11525   2.137   2.204   4.681 -0.2245  0.8718  0.0543
    1SOL    HW211526   2.114   2.236   4.594 -0.0652 -0.3452 -0.4550
    1SOL    HW311527   2.176   2.279   4.725  1.0866  1.1014 -1.4501
    1SOL    MW411528   2.139   2.218   4.675 -0.0305  0.7412 -0.2112
    1SOL     OW11529   0.909   3.474   4.173 -0.0829 -0.3225  0.0224
    1SOL    HW211530   0.914   3.381   4.196  0.4489 -0.2816  0.0949
    1SOL    HW311531   0.914   3.475   4.077 -0.9665 -0.4180 -0.0256
    1SOL    MW411532   0.911   3.462   4.163 -0.1293 -0.3297  0.0257
    1SOL     OW11533   0.018   1.649   4.232  0.0461  0.0614 -0.0108
    1SOL    HW211534   0.032   1.622   4.323 -0.6819 -1.1290 -0.2373
    1SOL    HW311535  -0.071   1.621   4.212  0.0379  0.7398 -0.9455
    1SOL    MW411536   0.008   1.642   4.241 -0.0505 -0.0062 -0.1640
    1SOL     OW11537   4.146   3.141   4.382  0.3819  0.4720 -0.0343
    1SOL    HW211538   4.207   3.096   4.324  0.0217  1.8135 -1.4700
    1SOL    HW311539   4.197   3.212   4.421  0.2565  0.4154  0.2385
    1SOL    MW411540   4.160   3.145   4.380  0.3176  0.6416 -0.1874
    1SOL     OW11541   3.138   2.407   4.198  0.1878  0.7016 -0.2358
    1SOL    HW211542   3.116   2.408   4.292  0.0754 -0.6474 -0.2318
    1SOL    HW311543   3.075   2.346   4.160  0.2285  1.2588 -1.1944
    1SOL    MW411544   3.127   2.399   4.206  0.1783  0.5970 -0.3619
    1SOL     OW11545   4.432   4.243   4.078 -0.1622 -0.4386  0.1239
    1SOL    HW211546   4.356   4.276   4.127 -0.6470  0.4410 -1.1769
    1SOL    HW311547   4.410   4.261   3.986  1.9266  0.5086 -0.2202
    1SOL    MW411548   4.419   4.250   4.072  0.0496 -0.1969 -0.0935
    1SOL     OW11549   1.949   2.426   4.114 -0.2385 -0.6487  0.0427
    1SOL    HW211550   1.888   2.401   4.184 -0.5474 -0.1826 -0.0571
    1SOL    HW311551   2.035   2.421   4.154 -0.4805  0.6224  0.7621
    1SOL    MW411552   1.952   2.422   4.128 -0.3113 -0.4196  0.1240
    1SOL     OW11553   0.852   0.298   4.231  0.5307 -0.4041 -0.3162
    1SOL    HW211554   0.930   0.336   4.191  0.2894 -1.0465 -1.4314
    1SOL    HW311555   0.781   0.318   4.170 -0.1355 -0.0577  0.5566
    1SOL    MW411556   0.853   0.306   4.218  0.4110 -0.4431 -0.3481
    1NA      NA11557   3.143   3.935   0.459 -0.0609 -0.4353  0.2558
    1NA      NA11558   0.922   2.478   0.703 -0.3369  0.1641  0.3665
   4.49070   4.66690  10.00000
