Getting the Right Output Means no Artefacts in Calculating Stuff
  159
    1DT     O5'    1   0.093   0.559   1.110
    1DT     H5T    2   0.162   0.582   1.179
    1DT     C5'    3  -0.008   0.653   1.113
    1DT    H5'1    4   0.033   0.742   1.095
    1DT    H5'2    5  -0.047   0.653   1.205
    1DT     C4'    6  -0.112   0.624   1.014
    1DT     H4'    7  -0.185   0.689   1.036
    1DT     O4'    8  -0.062   0.647   0.883
    1DT     C1'    9  -0.096   0.541   0.797
    1DT     H1'   10  -0.184   0.561   0.755
    1DT      N1   11   0.007   0.525   0.684
    1DT      C6   12   0.135   0.489   0.713
    1DT      H6   13   0.159   0.470   0.808
    1DT      C5   14   0.229   0.478   0.619
    1DT      C7   15   0.369   0.436   0.655
    1DT     H71   16   0.425   0.433   0.572
    1DT     H72   17   0.408   0.502   0.720
    1DT     H73   18   0.367   0.345   0.697
    1DT      C4   19   0.196   0.507   0.483
    1DT      O4   20   0.275   0.502   0.388
    1DT      N3   21   0.067   0.545   0.460
    1DT      H3   22   0.042   0.567   0.366
    1DT      C2   23  -0.030   0.555   0.555
    1DT      O2   24  -0.143   0.589   0.526
    1DT     C3'   25  -0.162   0.479   1.014
    1DT     H3'   26  -0.140   0.424   1.094
    1DT     C2'   27  -0.105   0.422   0.885
    1DT    H2'1   28  -0.015   0.382   0.899
    1DT    H2'2   29  -0.166   0.353   0.845
    1DT     O3'   30  -0.305   0.479   1.014
    2DT       P   31  -0.386   0.353   1.019
    2DT     O1P   32  -0.497   0.383   1.110
    2DT     O2P   33  -0.300   0.240   1.052
    2DT     O5'   34  -0.442   0.338   0.874
    2DT     C5'   35  -0.518   0.436   0.813
    2DT    H5'1   36  -0.466   0.522   0.818
    2DT    H5'2   37  -0.603   0.445   0.865
    2DT     C4'   38  -0.548   0.402   0.673
    2DT     H4'   39  -0.614   0.471   0.644
    2DT     O4'   40  -0.431   0.411   0.595
    2DT     C1'   41  -0.418   0.299   0.510
    2DT     H1'   42  -0.464   0.317   0.423
    2DT      N1   43  -0.270   0.269   0.479
    2DT      C6   44  -0.186   0.230   0.579
    2DT      H6   45  -0.222   0.218   0.671
    2DT      C5   46  -0.057   0.207   0.557
    2DT      C7   47   0.033   0.163   0.669
    2DT     H71   48   0.126   0.151   0.634
    2DT     H72   49   0.033   0.233   0.741
    2DT     H73   50  -0.000   0.077   0.707
    2DT      C4   51  -0.003   0.225   0.426
    2DT      O4   52   0.116   0.208   0.395
    2DT      N3   53  -0.092   0.266   0.330
    2DT      H3   54  -0.057   0.280   0.237
    2DT      C2   55  -0.224   0.289   0.351
    2DT      O2   56  -0.297   0.324   0.260
    2DT     C3'   57  -0.601   0.260   0.652
    2DT     H3'   58  -0.633   0.211   0.733
    2DT     C2'   59  -0.486   0.190   0.583
    2DT    H2'1   60  -0.424   0.148   0.649
    2DT    H2'2   61  -0.519   0.120   0.519
    2DT     O3'   62  -0.718   0.266   0.569
    3DT       P   63  -0.798   0.145   0.533
    3DT     O1P   64  -0.938   0.187   0.541
    3DT     O2P   65  -0.756   0.032   0.615
    3DT     O5'   66  -0.762   0.118   0.383
    3DT     C5'   67  -0.780   0.214   0.285
    3DT    H5'1   68  -0.732   0.297   0.314
    3DT    H5'2   69  -0.878   0.233   0.279
    3DT     C4'   70  -0.728   0.168   0.155
    3DT     H4'   71  -0.761   0.236   0.090
    3DT     O4'   72  -0.586   0.166   0.159
    3DT     C1'   73  -0.536   0.046   0.103
    3DT     H1'   74  -0.520   0.059   0.005
    3DT      N1   75  -0.401   0.007   0.164
    3DT      C6   76  -0.393  -0.026   0.296
    3DT      H6   77  -0.477  -0.028   0.351
    3DT      C5   78  -0.277  -0.056   0.355
    3DT      C7   79  -0.272  -0.094   0.500
    3DT     H71   80  -0.177  -0.113   0.526
    3DT     H72   81  -0.308  -0.019   0.555
    3DT     H73   82  -0.328  -0.176   0.515
    3DT      C4   83  -0.156  -0.052   0.278
    3DT      O4   84  -0.043  -0.077   0.322
    3DT      N3   85  -0.170  -0.018   0.147
    3DT      H3   86  -0.087  -0.016   0.091
    3DT      C2   87  -0.288   0.013   0.086
    3DT      O2   88  -0.292   0.043  -0.032
    3DT     C3'   89  -0.771   0.027   0.114
    3DT     H3'   90  -0.848  -0.013   0.164
    3DT     C2'   91  -0.644  -0.054   0.128
    3DT    H2'1   92  -0.636  -0.093   0.220
    3DT    H2'2   93  -0.640  -0.128   0.060
    3DT     O3'   94  -0.817   0.031  -0.021
    4DT       P   95  -0.872  -0.091  -0.090
    4DT     O1P   96  -0.988  -0.042  -0.167
    4DT     O2P   97  -0.895  -0.197   0.007
    4DT     O5'   98  -0.760  -0.132  -0.190
    4DT     C5'   99  -0.710  -0.045  -0.285
    4DT    H5'1  100  -0.681   0.038  -0.238
    4DT    H5'2  101  -0.784  -0.023  -0.348
    4DT     C4'  102  -0.597  -0.104  -0.358
    4DT     H4'  103  -0.581  -0.040  -0.433
    4DT     O4'  104  -0.483  -0.112  -0.273
    4DT     C1'  105  -0.422  -0.238  -0.284
    4DT     H1'  106  -0.353  -0.234  -0.357
    4DT      N1  107  -0.350  -0.277  -0.154
    4DT      C6  108  -0.422  -0.299  -0.040
    4DT      H6  109  -0.522  -0.293  -0.044
    4DT      C5  110  -0.364  -0.328   0.076
    4DT      C7  111  -0.445  -0.352   0.199
    4DT     H71  112  -0.384  -0.372   0.276
    4DT     H72  113  -0.499  -0.270   0.220
    4DT     H73  114  -0.506  -0.429   0.184
    4DT      C4  115  -0.221  -0.336   0.083
    4DT      O4  116  -0.156  -0.361   0.186
    4DT      N3  117  -0.154  -0.312  -0.034
    4DT      H3  118  -0.054  -0.316  -0.031
    4DT      C2  119  -0.212  -0.283  -0.153
    4DT      O2  120  -0.146  -0.264  -0.253
    4DT     C3'  121  -0.620  -0.246  -0.410
    4DT     H3'  122  -0.715  -0.277  -0.413
    4DT     C2'  123  -0.532  -0.331  -0.320
    4DT    H2'1  124  -0.581  -0.361  -0.238
    4DT    H2'2  125  -0.496  -0.411  -0.368
    4DT     O3'  126  -0.581  -0.254  -0.547
    5DT       P  127  -0.596  -0.378  -0.629
    5DT     O1P  128  -0.642  -0.332  -0.760
    5DT     O2P  129  -0.679  -0.475  -0.558
    5DT     O5'  130  -0.451  -0.433  -0.643
    5DT     C5'  131  -0.348  -0.357  -0.696
    5DT    H5'1  132  -0.344  -0.271  -0.645
    5DT    H5'2  133  -0.370  -0.338  -0.792
    5DT     C4'  134  -0.219  -0.428  -0.687
    5DT     H4'  135  -0.156  -0.373  -0.742
    5DT     O4'  136  -0.176  -0.432  -0.552
    5DT     C1'  137  -0.131  -0.561  -0.518
    5DT     H1'  138  -0.033  -0.567  -0.536
    5DT      N1  139  -0.150  -0.591  -0.369
    5DT      C6  140  -0.275  -0.599  -0.317
    5DT      H6  141  -0.353  -0.589  -0.378
    5DT      C5  142  -0.297  -0.620  -0.187
    5DT      C7  143  -0.437  -0.630  -0.133
    5DT     H71  144  -0.434  -0.646  -0.034
    5DT     H72  145  -0.486  -0.545  -0.152
    5DT     H73  146  -0.484  -0.706  -0.177
    5DT      C4  147  -0.186  -0.633  -0.098
    5DT      O4  148  -0.194  -0.651   0.024
    5DT      N3  149  -0.062  -0.623  -0.156
    5DT      H3  150   0.018  -0.632  -0.096
    5DT      C2  151  -0.039  -0.602  -0.288
    5DT      O2  152   0.075  -0.595  -0.332
    5DT     C3'  153  -0.221  -0.572  -0.735
    5DT     H3'  154  -0.300  -0.598  -0.790
    5DT     C2'  155  -0.207  -0.652  -0.607
    5DT    H2'1  156  -0.296  -0.673  -0.567
    5DT    H2'2  157  -0.156  -0.737  -0.622
    5DT     O3'  158  -0.111  -0.594  -0.824
    5DT     H3T  159  -0.112  -0.689  -0.856
   1.41326   1.47900   2.06077
