Getting the Right Output Means no Artefacts in Calculating Stuff
  159
    1DT     O5'    1   2.566   2.713   6.368
    1DT     H5T    2   2.635   2.736   6.437
    1DT     C5'    3   2.465   2.807   6.371
    1DT    H5'1    4   2.506   2.896   6.353
    1DT    H5'2    5   2.426   2.807   6.463
    1DT     C4'    6   2.361   2.778   6.272
    1DT     H4'    7   2.288   2.843   6.294
    1DT     O4'    8   2.411   2.801   6.141
    1DT     C1'    9   2.377   2.695   6.055
    1DT     H1'   10   2.289   2.715   6.013
    1DT      N1   11   2.480   2.679   5.942
    1DT      C6   12   2.608   2.643   5.971
    1DT      H6   13   2.632   2.624   6.066
    1DT      C5   14   2.702   2.632   5.877
    1DT      C7   15   2.842   2.590   5.913
    1DT     H71   16   2.898   2.587   5.830
    1DT     H72   17   2.881   2.656   5.978
    1DT     H73   18   2.840   2.499   5.955
    1DT      C4   19   2.669   2.661   5.741
    1DT      O4   20   2.748   2.656   5.646
    1DT      N3   21   2.540   2.699   5.718
    1DT      H3   22   2.515   2.721   5.624
    1DT      C2   23   2.443   2.709   5.813
    1DT      O2   24   2.330   2.743   5.784
    1DT     C3'   25   2.311   2.633   6.272
    1DT     H3'   26   2.333   2.578   6.352
    1DT     C2'   27   2.368   2.576   6.143
    1DT    H2'1   28   2.458   2.536   6.157
    1DT    H2'2   29   2.307   2.507   6.103
    1DT     O3'   30   2.168   2.633   6.272
    2DT       P   31   2.087   2.507   6.277
    2DT     O1P   32   1.976   2.537   6.368
    2DT     O2P   33   2.173   2.394   6.310
    2DT     O5'   34   2.031   2.492   6.132
    2DT     C5'   35   1.955   2.590   6.071
    2DT    H5'1   36   2.007   2.676   6.076
    2DT    H5'2   37   1.870   2.599   6.123
    2DT     C4'   38   1.925   2.556   5.931
    2DT     H4'   39   1.859   2.625   5.902
    2DT     O4'   40   2.042   2.565   5.853
    2DT     C1'   41   2.055   2.453   5.768
    2DT     H1'   42   2.009   2.471   5.681
    2DT      N1   43   2.203   2.423   5.737
    2DT      C6   44   2.287   2.384   5.837
    2DT      H6   45   2.251   2.372   5.929
    2DT      C5   46   2.416   2.361   5.815
    2DT      C7   47   2.506   2.317   5.927
    2DT     H71   48   2.599   2.305   5.892
    2DT     H72   49   2.506   2.387   5.999
    2DT     H73   50   2.473   2.231   5.965
    2DT      C4   51   2.470   2.379   5.684
    2DT      O4   52   2.589   2.362   5.653
    2DT      N3   53   2.381   2.420   5.588
    2DT      H3   54   2.416   2.434   5.495
    2DT      C2   55   2.249   2.443   5.609
    2DT      O2   56   2.176   2.478   5.518
    2DT     C3'   57   1.872   2.414   5.910
    2DT     H3'   58   1.840   2.365   5.991
    2DT     C2'   59   1.987   2.344   5.841
    2DT    H2'1   60   2.049   2.302   5.907
    2DT    H2'2   61   1.954   2.274   5.777
    2DT     O3'   62   1.755   2.420   5.827
    3DT       P   63   1.675   2.299   5.791
    3DT     O1P   64   1.535   2.341   5.799
    3DT     O2P   65   1.717   2.186   5.873
    3DT     O5'   66   1.711   2.272   5.641
    3DT     C5'   67   1.693   2.368   5.543
    3DT    H5'1   68   1.741   2.451   5.572
    3DT    H5'2   69   1.595   2.387   5.537
    3DT     C4'   70   1.745   2.322   5.413
    3DT     H4'   71   1.712   2.390   5.348
    3DT     O4'   72   1.887   2.320   5.417
    3DT     C1'   73   1.937   2.200   5.361
    3DT     H1'   74   1.953   2.213   5.263
    3DT      N1   75   2.072   2.161   5.422
    3DT      C6   76   2.080   2.128   5.554
    3DT      H6   77   1.996   2.126   5.609
    3DT      C5   78   2.196   2.098   5.613
    3DT      C7   79   2.201   2.060   5.758
    3DT     H71   80   2.296   2.041   5.784
    3DT     H72   81   2.165   2.135   5.813
    3DT     H73   82   2.145   1.978   5.773
    3DT      C4   83   2.317   2.102   5.536
    3DT      O4   84   2.430   2.077   5.580
    3DT      N3   85   2.303   2.136   5.405
    3DT      H3   86   2.386   2.138   5.349
    3DT      C2   87   2.185   2.167   5.344
    3DT      O2   88   2.181   2.197   5.226
    3DT     C3'   89   1.702   2.181   5.372
    3DT     H3'   90   1.625   2.141   5.422
    3DT     C2'   91   1.829   2.100   5.386
    3DT    H2'1   92   1.837   2.061   5.478
    3DT    H2'2   93   1.833   2.026   5.318
    3DT     O3'   94   1.656   2.185   5.237
    4DT       P   95   1.601   2.063   5.168
    4DT     O1P   96   1.485   2.112   5.091
    4DT     O2P   97   1.578   1.957   5.265
    4DT     O5'   98   1.713   2.022   5.068
    4DT     C5'   99   1.763   2.109   4.973
    4DT    H5'1  100   1.792   2.192   5.020
    4DT    H5'2  101   1.689   2.131   4.910
    4DT     C4'  102   1.876   2.050   4.900
    4DT     H4'  103   1.892   2.114   4.825
    4DT     O4'  104   1.990   2.042   4.985
    4DT     C1'  105   2.051   1.916   4.974
    4DT     H1'  106   2.120   1.920   4.901
    4DT      N1  107   2.123   1.877   5.104
    4DT      C6  108   2.051   1.855   5.218
    4DT      H6  109   1.951   1.861   5.214
    4DT      C5  110   2.109   1.826   5.334
    4DT      C7  111   2.028   1.802   5.457
    4DT     H71  112   2.089   1.782   5.534
    4DT     H72  113   1.974   1.884   5.478
    4DT     H73  114   1.967   1.725   5.442
    4DT      C4  115   2.252   1.818   5.341
    4DT      O4  116   2.317   1.793   5.444
    4DT      N3  117   2.319   1.842   5.224
    4DT      H3  118   2.419   1.838   5.227
    4DT      C2  119   2.261   1.871   5.105
    4DT      O2  120   2.327   1.890   5.005
    4DT     C3'  121   1.853   1.908   4.848
    4DT     H3'  122   1.758   1.877   4.845
    4DT     C2'  123   1.941   1.823   4.938
    4DT    H2'1  124   1.892   1.793   5.020
    4DT    H2'2  125   1.977   1.743   4.890
    4DT     O3'  126   1.892   1.900   4.711
    5DT       P  127   1.877   1.776   4.629
    5DT     O1P  128   1.831   1.822   4.498
    5DT     O2P  129   1.794   1.679   4.700
    5DT     O5'  130   2.022   1.721   4.615
    5DT     C5'  131   2.125   1.797   4.562
    5DT    H5'1  132   2.129   1.883   4.613
    5DT    H5'2  133   2.103   1.816   4.466
    5DT     C4'  134   2.254   1.726   4.571
    5DT     H4'  135   2.317   1.781   4.516
    5DT     O4'  136   2.297   1.722   4.706
    5DT     C1'  137   2.342   1.593   4.740
    5DT     H1'  138   2.440   1.587   4.722
    5DT      N1  139   2.323   1.563   4.889
    5DT      C6  140   2.198   1.555   4.941
    5DT      H6  141   2.120   1.565   4.880
    5DT      C5  142   2.176   1.534   5.071
    5DT      C7  143   2.036   1.524   5.125
    5DT     H71  144   2.039   1.508   5.224
    5DT     H72  145   1.987   1.609   5.106
    5DT     H73  146   1.989   1.448   5.081
    5DT      C4  147   2.287   1.521   5.160
    5DT      O4  148   2.279   1.503   5.282
    5DT      N3  149   2.411   1.531   5.102
    5DT      H3  150   2.491   1.522   5.162
    5DT      C2  151   2.434   1.552   4.970
    5DT      O2  152   2.548   1.559   4.926
    5DT     C3'  153   2.252   1.582   4.523
    5DT     H3'  154   2.173   1.556   4.468
    5DT     C2'  155   2.266   1.502   4.651
    5DT    H2'1  156   2.177   1.481   4.691
    5DT    H2'2  157   2.317   1.417   4.636
    5DT     O3'  158   2.362   1.560   4.434
    5DT     H3T  159   2.361   1.465   4.402
   4.49070   4.66690  10.00000
