5-NUCLEOTIDE LONG A-FORM DNA STRAND: TTTTT
   95
    1T A      P    1   0.000   0.000   0.000
    1T A    O1P    2   0.153   0.000   0.000
    1T A    O2P    3  -0.076   0.123   0.000
    1T A    O5'    4  -0.076  -0.123   0.000
    1T A    C5'    5  -0.219  -0.123   0.000
    1T A    C4'    6  -0.290  -0.253   0.000
    1T A    O4'    7  -0.219  -0.376   0.000
    1T A    C3'    8  -0.440  -0.253   0.000
    1T A    O3'    9  -0.511  -0.130   0.000
    1T A    C2'   10  -0.440  -0.376   0.120
    1T A    C1'   11  -0.290  -0.376   0.120
    1T A     N1   12  -0.219  -0.505   0.120
    1T A     C2   13  -0.076  -0.505   0.120
    1T A     O2   14   0.000  -0.382   0.120
    1T A     N3   15  -0.076  -0.628   0.120
    1T A     C4   16  -0.219  -0.628   0.120
    1T A     O4   17  -0.295  -0.751   0.120
    1T A     C5   18  -0.362  -0.628   0.120
    1T A     C7   19  -0.433  -0.505   0.120
    2T A      P   20   0.000   0.000   0.700
    2T A    O1P   21   0.153   0.000   0.700
    2T A    O2P   22  -0.076   0.123   0.700
    2T A    O5'   23  -0.076  -0.123   0.700
    2T A    C5'   24  -0.219  -0.123   0.700
    2T A    C4'   25  -0.290  -0.253   0.700
    2T A    O4'   26  -0.219  -0.376   0.700
    2T A    C3'   27  -0.440  -0.253   0.700
    2T A    O3'   28  -0.511  -0.130   0.700
    2T A    C2'   29  -0.440  -0.376   0.820
    2T A    C1'   30  -0.290  -0.376   0.820
    2T A     N1   31  -0.219  -0.505   0.820
    2T A     C2   32  -0.076  -0.505   0.820
    2T A     O2   33   0.000  -0.382   0.820
    2T A     N3   34  -0.076  -0.628   0.820
    2T A     C4   35  -0.219  -0.628   0.820
    2T A     O4   36  -0.295  -0.751   0.820
    2T A     C5   37  -0.362  -0.628   0.820
    2T A     C7   38  -0.433  -0.505   0.820
    3T A      P   39   0.000   0.000   1.400
    3T A    O1P   40   0.153   0.000   1.400
    3T A    O2P   41  -0.076   0.123   1.400
    3T A    O5'   42  -0.076  -0.123   1.400
    3T A    C5'   43  -0.219  -0.123   1.400
    3T A    C4'   44  -0.290  -0.253   1.400
    3T A    O4'   45  -0.219  -0.376   1.400
    3T A    C3'   46  -0.440  -0.253   1.400
    3T A    O3'   47  -0.511  -0.130   1.400
    3T A    C2'   48  -0.440  -0.376   1.520
    3T A    C1'   49  -0.290  -0.376   1.520
    3T A     N1   50  -0.219  -0.505   1.520
    3T A     C2   51  -0.076  -0.505   1.520
    3T A     O2   52   0.000  -0.382   1.520
    3T A     N3   53  -0.076  -0.628   1.520
    3T A     C4   54  -0.219  -0.628   1.520
    3T A     O4   55  -0.295  -0.751   1.520
    3T A     C5   56  -0.362  -0.628   1.520
    3T A     C7   57  -0.433  -0.505   1.520
    4T A      P   58   0.000   0.000   2.100
    4T A    O1P   59   0.153   0.000   2.100
    4T A    O2P   60  -0.076   0.123   2.100
    4T A    O5'   61  -0.076  -0.123   2.100
    4T A    C5'   62  -0.219  -0.123   2.100
    4T A    C4'   63  -0.290  -0.253   2.100
    4T A    O4'   64  -0.219  -0.376   2.100
    4T A    C3'   65  -0.440  -0.253   2.100
    4T A    O3'   66  -0.511  -0.130   2.100
    4T A    C2'   67  -0.440  -0.376   2.220
    4T A    C1'   68  -0.290  -0.376   2.220
    4T A     N1   69  -0.219  -0.505   2.220
    4T A     C2   70  -0.076  -0.505   2.220
    4T A     O2   71   0.000  -0.382   2.220
    4T A     N3   72  -0.076  -0.628   2.220
    4T A     C4   73  -0.219  -0.628   2.220
    4T A     O4   74  -0.295  -0.751   2.220
    4T A     C5   75  -0.362  -0.628   2.220
    4T A     C7   76  -0.433  -0.505   2.220
    5T A      P   77   0.000   0.000   2.800
    5T A    O1P   78   0.153   0.000   2.800
    5T A    O2P   79  -0.076   0.123   2.800
    5T A    O5'   80  -0.076  -0.123   2.800
    5T A    C5'   81  -0.219  -0.123   2.800
    5T A    C4'   82  -0.290  -0.253   2.800
    5T A    O4'   83  -0.219  -0.376   2.800
    5T A    C3'   84  -0.440  -0.253   2.800
    5T A    O3'   85  -0.511  -0.130   2.800
    5T A    C2'   86  -0.440  -0.376   2.920
    5T A    C1'   87  -0.290  -0.376   2.920
    5T A     N1   88  -0.219  -0.505   2.920
    5T A     C2   89  -0.076  -0.505   2.920
    5T A     O2   90   0.000  -0.382   2.920
    5T A     N3   91  -0.076  -0.628   2.920
    5T A     C4   92  -0.219  -0.628   2.920
    5T A     O4   93  -0.295  -0.751   2.920
    5T A     C5   94  -0.362  -0.628   2.920
    5T A     C7   95  -0.433  -0.505   2.920
   0.00000   0.00000   0.00000
