;
;	File 'topol.top' was generated
;	By user: root (1000)
;	On host: Cas2
;	At date: Wed Jul  9 13:33:05 2025
;
;	This is a standalone topology file
;
;	Created by:
;	                    :-) GROMACS - gmx pdb2gmx, 2020.3 (-:
;	
;	Executable:   /usr/local/gromacs/bin/gmx
;	Data prefix:  /usr/local/gromacs
;	Working dir:  /home/chemistry/MD/TTTTT_DNA
;	Command line:
;	  gmx pdb2gmx -f TTTTT.gro -ignh -o conf.gro
;	Force field was read from the standard GROMACS share directory.
;

; Include forcefield parameters
#include "amber_na_desres.ff/forcefield.itp"

[ moleculetype ]
; Name            nrexcl
DNA                 3

[ atoms ]
;   nr       type  resnr residue  atom   cgnr     charge       mass  typeB    chargeB      massB
; residue   1 DT  rtp DT5  q -0.3
     1         OH      1     DT    O5'      1    -0.6318         16
     2         HO      1     DT    H5T      2     0.4422      1.008
     3         CI      1     DT    C5'      3    -0.0069      12.01
     4         H1      1     DT   H5'1      4     0.0754      1.008
     5         H1      1     DT   H5'2      5     0.0754      1.008
     6         CT      1     DT    C4'      6     0.1629      12.01
     7         H1      1     DT    H4'      7     0.1176      1.008
     8         OS      1     DT    O4'      8    -0.3691         16
     9         CT      1     DT    C1'      9      0.068      12.01
    10         H2      1     DT    H1'     10     0.1804      1.008
    11         N*      1     DT     N1     11    -0.0239      14.01
    12         CM      1     DT     C6     12    -0.2209      12.01
    13         H4      1     DT     H6     13     0.2607      1.008
    14         CM      1     DT     C5     14     0.0025      12.01
    15         CT      1     DT     C7     15    -0.2269      12.01
    16         HC      1     DT    H71     16      0.077      1.008
    17         HC      1     DT    H72     17      0.077      1.008
    18         HC      1     DT    H73     18      0.077      1.008
    19          C      1     DT     C4     19     0.5194      12.01
    20          O      1     DT     O4     20    -0.5563         16
    21         NA      1     DT     N3     21     -0.434      14.01
    22          H      1     DT     H3     22      0.342      1.008
    23          C      1     DT     C2     23     0.5677      12.01
    24          O      1     DT     O2     24    -0.5881         16
    25         CT      1     DT    C3'     25     0.0713      12.01
    26         H1      1     DT    H3'     26     0.0985      1.008
    27         CT      1     DT    C2'     27    -0.0854      12.01
    28         HC      1     DT   H2'1     28     0.0718      1.008
    29         HC      1     DT   H2'2     29     0.0718      1.008
    30         OS      1     DT    O3'     30    -0.5232         16   ; qtot -0.3079
; residue   2 DT  rtp DT   q -1.0
    31          P      2     DT      P     31     1.1659      30.97
    32         O2      2     DT    O1P     32    -0.7761         16
    33         O2      2     DT    O2P     33    -0.7761         16
    34         OS      2     DT    O5'     34    -0.4954         16
    35         CI      2     DT    C5'     35    -0.0069      12.01
    36         H1      2     DT   H5'1     36     0.0754      1.008
    37         H1      2     DT   H5'2     37     0.0754      1.008
    38         CT      2     DT    C4'     38     0.1629      12.01
    39         H1      2     DT    H4'     39     0.1176      1.008
    40         OS      2     DT    O4'     40    -0.3691         16
    41         CT      2     DT    C1'     41      0.068      12.01
    42         H2      2     DT    H1'     42     0.1804      1.008
    43         N*      2     DT     N1     43    -0.0239      14.01
    44         CM      2     DT     C6     44    -0.2209      12.01
    45         H4      2     DT     H6     45     0.2607      1.008
    46         CM      2     DT     C5     46     0.0025      12.01
    47         CT      2     DT     C7     47    -0.2269      12.01
    48         HC      2     DT    H71     48      0.077      1.008
    49         HC      2     DT    H72     49      0.077      1.008
    50         HC      2     DT    H73     50      0.077      1.008
    51          C      2     DT     C4     51     0.5194      12.01
    52          O      2     DT     O4     52    -0.5563         16
    53         NA      2     DT     N3     53     -0.434      14.01
    54          H      2     DT     H3     54      0.342      1.008
    55          C      2     DT     C2     55     0.5677      12.01
    56          O      2     DT     O2     56    -0.5881         16
    57         CT      2     DT    C3'     57     0.0713      12.01
    58         H1      2     DT    H3'     58     0.0985      1.008
    59         CT      2     DT    C2'     59    -0.0854      12.01
    60         HC      2     DT   H2'1     60     0.0718      1.008
    61         HC      2     DT   H2'2     61     0.0718      1.008
    62         OS      2     DT    O3'     62    -0.5232         16   ; qtot -1.308
; residue   3 DT  rtp DT   q -1.0
    63          P      3     DT      P     63     1.1659      30.97
    64         O2      3     DT    O1P     64    -0.7761         16
    65         O2      3     DT    O2P     65    -0.7761         16
    66         OS      3     DT    O5'     66    -0.4954         16
    67         CI      3     DT    C5'     67    -0.0069      12.01
    68         H1      3     DT   H5'1     68     0.0754      1.008
    69         H1      3     DT   H5'2     69     0.0754      1.008
    70         CT      3     DT    C4'     70     0.1629      12.01
    71         H1      3     DT    H4'     71     0.1176      1.008
    72         OS      3     DT    O4'     72    -0.3691         16
    73         CT      3     DT    C1'     73      0.068      12.01
    74         H2      3     DT    H1'     74     0.1804      1.008
    75         N*      3     DT     N1     75    -0.0239      14.01
    76         CM      3     DT     C6     76    -0.2209      12.01
    77         H4      3     DT     H6     77     0.2607      1.008
    78         CM      3     DT     C5     78     0.0025      12.01
    79         CT      3     DT     C7     79    -0.2269      12.01
    80         HC      3     DT    H71     80      0.077      1.008
    81         HC      3     DT    H72     81      0.077      1.008
    82         HC      3     DT    H73     82      0.077      1.008
    83          C      3     DT     C4     83     0.5194      12.01
    84          O      3     DT     O4     84    -0.5563         16
    85         NA      3     DT     N3     85     -0.434      14.01
    86          H      3     DT     H3     86      0.342      1.008
    87          C      3     DT     C2     87     0.5677      12.01
    88          O      3     DT     O2     88    -0.5881         16
    89         CT      3     DT    C3'     89     0.0713      12.01
    90         H1      3     DT    H3'     90     0.0985      1.008
    91         CT      3     DT    C2'     91    -0.0854      12.01
    92         HC      3     DT   H2'1     92     0.0718      1.008
    93         HC      3     DT   H2'2     93     0.0718      1.008
    94         OS      3     DT    O3'     94    -0.5232         16   ; qtot -2.308
; residue   4 DT  rtp DT   q -1.0
    95          P      4     DT      P     95     1.1659      30.97
    96         O2      4     DT    O1P     96    -0.7761         16
    97         O2      4     DT    O2P     97    -0.7761         16
    98         OS      4     DT    O5'     98    -0.4954         16
    99         CI      4     DT    C5'     99    -0.0069      12.01
   100         H1      4     DT   H5'1    100     0.0754      1.008
   101         H1      4     DT   H5'2    101     0.0754      1.008
   102         CT      4     DT    C4'    102     0.1629      12.01
   103         H1      4     DT    H4'    103     0.1176      1.008
   104         OS      4     DT    O4'    104    -0.3691         16
   105         CT      4     DT    C1'    105      0.068      12.01
   106         H2      4     DT    H1'    106     0.1804      1.008
   107         N*      4     DT     N1    107    -0.0239      14.01
   108         CM      4     DT     C6    108    -0.2209      12.01
   109         H4      4     DT     H6    109     0.2607      1.008
   110         CM      4     DT     C5    110     0.0025      12.01
   111         CT      4     DT     C7    111    -0.2269      12.01
   112         HC      4     DT    H71    112      0.077      1.008
   113         HC      4     DT    H72    113      0.077      1.008
   114         HC      4     DT    H73    114      0.077      1.008
   115          C      4     DT     C4    115     0.5194      12.01
   116          O      4     DT     O4    116    -0.5563         16
   117         NA      4     DT     N3    117     -0.434      14.01
   118          H      4     DT     H3    118      0.342      1.008
   119          C      4     DT     C2    119     0.5677      12.01
   120          O      4     DT     O2    120    -0.5881         16
   121         CT      4     DT    C3'    121     0.0713      12.01
   122         H1      4     DT    H3'    122     0.0985      1.008
   123         CT      4     DT    C2'    123    -0.0854      12.01
   124         HC      4     DT   H2'1    124     0.0718      1.008
   125         HC      4     DT   H2'2    125     0.0718      1.008
   126         OS      4     DT    O3'    126    -0.5232         16   ; qtot -3.308
; residue   5 DT  rtp DT3  q -0.7
   127          P      5     DT      P    127     1.1659      30.97
   128         O2      5     DT    O1P    128    -0.7761         16
   129         O2      5     DT    O2P    129    -0.7761         16
   130         OS      5     DT    O5'    130    -0.4954         16
   131         CI      5     DT    C5'    131    -0.0069      12.01
   132         H1      5     DT   H5'1    132     0.0754      1.008
   133         H1      5     DT   H5'2    133     0.0754      1.008
   134         CT      5     DT    C4'    134     0.1629      12.01
   135         H1      5     DT    H4'    135     0.1176      1.008
   136         OS      5     DT    O4'    136    -0.3691         16
   137         CT      5     DT    C1'    137      0.068      12.01
   138         H2      5     DT    H1'    138     0.1804      1.008
   139         N*      5     DT     N1    139    -0.0239      14.01
   140         CM      5     DT     C6    140    -0.2209      12.01
   141         H4      5     DT     H6    141     0.2607      1.008
   142         CM      5     DT     C5    142     0.0025      12.01
   143         CT      5     DT     C7    143    -0.2269      12.01
   144         HC      5     DT    H71    144      0.077      1.008
   145         HC      5     DT    H72    145      0.077      1.008
   146         HC      5     DT    H73    146      0.077      1.008
   147          C      5     DT     C4    147     0.5194      12.01
   148          O      5     DT     O4    148    -0.5563         16
   149         NA      5     DT     N3    149     -0.434      14.01
   150          H      5     DT     H3    150      0.342      1.008
   151          C      5     DT     C2    151     0.5677      12.01
   152          O      5     DT     O2    152    -0.5881         16
   153         CT      5     DT    C3'    153     0.0713      12.01
   154         H1      5     DT    H3'    154     0.0985      1.008
   155         CT      5     DT    C2'    155    -0.0854      12.01
   156         HC      5     DT   H2'1    156     0.0718      1.008
   157         HC      5     DT   H2'2    157     0.0718      1.008
   158         OH      5     DT    O3'    158    -0.6549         16
   159         HO      5     DT    H3T    159     0.4396      1.008   ; qtot -4

[ bonds ]
;  ai    aj funct            c0            c1            c2            c3
    1     2     1 
    1     3     1 
    3     4     1 
    3     5     1 
    3     6     1 
    6     7     1 
    6     8     1 
    6    25     1 
    8     9     1 
    9    10     1 
    9    11     1 
    9    27     1 
   11    12     1 
   11    23     1 
   12    13     1 
   12    14     1 
   14    15     1 
   14    19     1 
   15    16     1 
   15    17     1 
   15    18     1 
   19    20     1 
   19    21     1 
   21    22     1 
   21    23     1 
   23    24     1 
   25    26     1 
   25    27     1 
   25    30     1 
   27    28     1 
   27    29     1 
   30    31     1 
   31    32     1 
   31    33     1 
   31    34     1 
   34    35     1 
   35    36     1 
   35    37     1 
   35    38     1 
   38    39     1 
   38    40     1 
   38    57     1 
   40    41     1 
   41    42     1 
   41    43     1 
   41    59     1 
   43    44     1 
   43    55     1 
   44    45     1 
   44    46     1 
   46    47     1 
   46    51     1 
   47    48     1 
   47    49     1 
   47    50     1 
   51    52     1 
   51    53     1 
   53    54     1 
   53    55     1 
   55    56     1 
   57    58     1 
   57    59     1 
   57    62     1 
   59    60     1 
   59    61     1 
   62    63     1 
   63    64     1 
   63    65     1 
   63    66     1 
   66    67     1 
   67    68     1 
   67    69     1 
   67    70     1 
   70    71     1 
   70    72     1 
   70    89     1 
   72    73     1 
   73    74     1 
   73    75     1 
   73    91     1 
   75    76     1 
   75    87     1 
   76    77     1 
   76    78     1 
   78    79     1 
   78    83     1 
   79    80     1 
   79    81     1 
   79    82     1 
   83    84     1 
   83    85     1 
   85    86     1 
   85    87     1 
   87    88     1 
   89    90     1 
   89    91     1 
   89    94     1 
   91    92     1 
   91    93     1 
   94    95     1 
   95    96     1 
   95    97     1 
   95    98     1 
   98    99     1 
   99   100     1 
   99   101     1 
   99   102     1 
  102   103     1 
  102   104     1 
  102   121     1 
  104   105     1 
  105   106     1 
  105   107     1 
  105   123     1 
  107   108     1 
  107   119     1 
  108   109     1 
  108   110     1 
  110   111     1 
  110   115     1 
  111   112     1 
  111   113     1 
  111   114     1 
  115   116     1 
  115   117     1 
  117   118     1 
  117   119     1 
  119   120     1 
  121   122     1 
  121   123     1 
  121   126     1 
  123   124     1 
  123   125     1 
  126   127     1 
  127   128     1 
  127   129     1 
  127   130     1 
  130   131     1 
  131   132     1 
  131   133     1 
  131   134     1 
  134   135     1 
  134   136     1 
  134   153     1 
  136   137     1 
  137   138     1 
  137   139     1 
  137   155     1 
  139   140     1 
  139   151     1 
  140   141     1 
  140   142     1 
  142   143     1 
  142   147     1 
  143   144     1 
  143   145     1 
  143   146     1 
  147   148     1 
  147   149     1 
  149   150     1 
  149   151     1 
  151   152     1 
  153   154     1 
  153   155     1 
  153   158     1 
  155   156     1 
  155   157     1 
  158   159     1 

[ pairs ]
;  ai    aj funct            c0            c1            c2            c3
    1     7     1 
    1     8     1 
    1    25     1 
    2     4     1 
    2     5     1 
    2     6     1 
    3     9     1 
    3    26     1 
    3    27     1 
    3    30     1 
    4     7     1 
    4     8     1 
    4    25     1 
    5     7     1 
    5     8     1 
    5    25     1 
    6    10     1 
    6    11     1 
    6    28     1 
    6    29     1 
    6    31     1 
    7     9     1 
    7    26     1 
    7    27     1 
    7    30     1 
    8    12     1 
    8    23     1 
    8    26     1 
    8    28     1 
    8    29     1 
    8    30     1 
    9    13     1 
    9    14     1 
    9    21     1 
    9    24     1 
    9    26     1 
    9    30     1 
   10    12     1 
   10    23     1 
   10    25     1 
   10    28     1 
   10    29     1 
   11    15     1 
   11    19     1 
   11    22     1 
   11    25     1 
   11    28     1 
   11    29     1 
   12    16     1 
   12    17     1 
   12    18     1 
   12    20     1 
   12    21     1 
   12    24     1 
   12    27     1 
   13    15     1 
   13    19     1 
   13    23     1 
   14    22     1 
   14    23     1 
   15    20     1 
   15    21     1 
   16    19     1 
   17    19     1 
   18    19     1 
   19    24     1 
   20    22     1 
   20    23     1 
   22    24     1 
   23    27     1 
   25    32     1 
   25    33     1 
   25    34     1 
   26    28     1 
   26    29     1 
   26    31     1 
   27    31     1 
   28    30     1 
   29    30     1 
   30    35     1 
   31    36     1 
   31    37     1 
   31    38     1 
   32    35     1 
   33    35     1 
   34    39     1 
   34    40     1 
   34    57     1 
   35    41     1 
   35    58     1 
   35    59     1 
   35    62     1 
   36    39     1 
   36    40     1 
   36    57     1 
   37    39     1 
   37    40     1 
   37    57     1 
   38    42     1 
   38    43     1 
   38    60     1 
   38    61     1 
   38    63     1 
   39    41     1 
   39    58     1 
   39    59     1 
   39    62     1 
   40    44     1 
   40    55     1 
   40    58     1 
   40    60     1 
   40    61     1 
   40    62     1 
   41    45     1 
   41    46     1 
   41    53     1 
   41    56     1 
   41    58     1 
   41    62     1 
   42    44     1 
   42    55     1 
   42    57     1 
   42    60     1 
   42    61     1 
   43    47     1 
   43    51     1 
   43    54     1 
   43    57     1 
   43    60     1 
   43    61     1 
   44    48     1 
   44    49     1 
   44    50     1 
   44    52     1 
   44    53     1 
   44    56     1 
   44    59     1 
   45    47     1 
   45    51     1 
   45    55     1 
   46    54     1 
   46    55     1 
   47    52     1 
   47    53     1 
   48    51     1 
   49    51     1 
   50    51     1 
   51    56     1 
   52    54     1 
   52    55     1 
   54    56     1 
   55    59     1 
   57    64     1 
   57    65     1 
   57    66     1 
   58    60     1 
   58    61     1 
   58    63     1 
   59    63     1 
   60    62     1 
   61    62     1 
   62    67     1 
   63    68     1 
   63    69     1 
   63    70     1 
   64    67     1 
   65    67     1 
   66    71     1 
   66    72     1 
   66    89     1 
   67    73     1 
   67    90     1 
   67    91     1 
   67    94     1 
   68    71     1 
   68    72     1 
   68    89     1 
   69    71     1 
   69    72     1 
   69    89     1 
   70    74     1 
   70    75     1 
   70    92     1 
   70    93     1 
   70    95     1 
   71    73     1 
   71    90     1 
   71    91     1 
   71    94     1 
   72    76     1 
   72    87     1 
   72    90     1 
   72    92     1 
   72    93     1 
   72    94     1 
   73    77     1 
   73    78     1 
   73    85     1 
   73    88     1 
   73    90     1 
   73    94     1 
   74    76     1 
   74    87     1 
   74    89     1 
   74    92     1 
   74    93     1 
   75    79     1 
   75    83     1 
   75    86     1 
   75    89     1 
   75    92     1 
   75    93     1 
   76    80     1 
   76    81     1 
   76    82     1 
   76    84     1 
   76    85     1 
   76    88     1 
   76    91     1 
   77    79     1 
   77    83     1 
   77    87     1 
   78    86     1 
   78    87     1 
   79    84     1 
   79    85     1 
   80    83     1 
   81    83     1 
   82    83     1 
   83    88     1 
   84    86     1 
   84    87     1 
   86    88     1 
   87    91     1 
   89    96     1 
   89    97     1 
   89    98     1 
   90    92     1 
   90    93     1 
   90    95     1 
   91    95     1 
   92    94     1 
   93    94     1 
   94    99     1 
   95   100     1 
   95   101     1 
   95   102     1 
   96    99     1 
   97    99     1 
   98   103     1 
   98   104     1 
   98   121     1 
   99   105     1 
   99   122     1 
   99   123     1 
   99   126     1 
  100   103     1 
  100   104     1 
  100   121     1 
  101   103     1 
  101   104     1 
  101   121     1 
  102   106     1 
  102   107     1 
  102   124     1 
  102   125     1 
  102   127     1 
  103   105     1 
  103   122     1 
  103   123     1 
  103   126     1 
  104   108     1 
  104   119     1 
  104   122     1 
  104   124     1 
  104   125     1 
  104   126     1 
  105   109     1 
  105   110     1 
  105   117     1 
  105   120     1 
  105   122     1 
  105   126     1 
  106   108     1 
  106   119     1 
  106   121     1 
  106   124     1 
  106   125     1 
  107   111     1 
  107   115     1 
  107   118     1 
  107   121     1 
  107   124     1 
  107   125     1 
  108   112     1 
  108   113     1 
  108   114     1 
  108   116     1 
  108   117     1 
  108   120     1 
  108   123     1 
  109   111     1 
  109   115     1 
  109   119     1 
  110   118     1 
  110   119     1 
  111   116     1 
  111   117     1 
  112   115     1 
  113   115     1 
  114   115     1 
  115   120     1 
  116   118     1 
  116   119     1 
  118   120     1 
  119   123     1 
  121   128     1 
  121   129     1 
  121   130     1 
  122   124     1 
  122   125     1 
  122   127     1 
  123   127     1 
  124   126     1 
  125   126     1 
  126   131     1 
  127   132     1 
  127   133     1 
  127   134     1 
  128   131     1 
  129   131     1 
  130   135     1 
  130   136     1 
  130   153     1 
  131   137     1 
  131   154     1 
  131   155     1 
  131   158     1 
  132   135     1 
  132   136     1 
  132   153     1 
  133   135     1 
  133   136     1 
  133   153     1 
  134   138     1 
  134   139     1 
  134   156     1 
  134   157     1 
  134   159     1 
  135   137     1 
  135   154     1 
  135   155     1 
  135   158     1 
  136   140     1 
  136   151     1 
  136   154     1 
  136   156     1 
  136   157     1 
  136   158     1 
  137   141     1 
  137   142     1 
  137   149     1 
  137   152     1 
  137   154     1 
  137   158     1 
  138   140     1 
  138   151     1 
  138   153     1 
  138   156     1 
  138   157     1 
  139   143     1 
  139   147     1 
  139   150     1 
  139   153     1 
  139   156     1 
  139   157     1 
  140   144     1 
  140   145     1 
  140   146     1 
  140   148     1 
  140   149     1 
  140   152     1 
  140   155     1 
  141   143     1 
  141   147     1 
  141   151     1 
  142   150     1 
  142   151     1 
  143   148     1 
  143   149     1 
  144   147     1 
  145   147     1 
  146   147     1 
  147   152     1 
  148   150     1 
  148   151     1 
  150   152     1 
  151   155     1 
  154   156     1 
  154   157     1 
  154   159     1 
  155   159     1 
  156   158     1 
  157   158     1 

[ angles ]
;  ai    aj    ak funct            c0            c1            c2            c3
    2     1     3     1 
    1     3     4     1 
    1     3     5     1 
    1     3     6     1 
    4     3     5     1 
    4     3     6     1 
    5     3     6     1 
    3     6     7     1 
    3     6     8     1 
    3     6    25     1 
    7     6     8     1 
    7     6    25     1 
    8     6    25     1 
    6     8     9     1 
    8     9    10     1 
    8     9    11     1 
    8     9    27     1 
   10     9    11     1 
   10     9    27     1 
   11     9    27     1 
    9    11    12     1 
    9    11    23     1 
   12    11    23     1 
   11    12    13     1 
   11    12    14     1 
   13    12    14     1 
   12    14    15     1 
   12    14    19     1 
   15    14    19     1 
   14    15    16     1 
   14    15    17     1 
   14    15    18     1 
   16    15    17     1 
   16    15    18     1 
   17    15    18     1 
   14    19    20     1 
   14    19    21     1 
   20    19    21     1 
   19    21    22     1 
   19    21    23     1 
   22    21    23     1 
   11    23    21     1 
   11    23    24     1 
   21    23    24     1 
    6    25    26     1 
    6    25    27     1 
    6    25    30     1 
   26    25    27     1 
   26    25    30     1 
   27    25    30     1 
    9    27    25     1 
    9    27    28     1 
    9    27    29     1 
   25    27    28     1 
   25    27    29     1 
   28    27    29     1 
   25    30    31     1 
   30    31    32     1 
   30    31    33     1 
   30    31    34     1 
   32    31    33     1 
   32    31    34     1 
   33    31    34     1 
   31    34    35     1 
   34    35    36     1 
   34    35    37     1 
   34    35    38     1 
   36    35    37     1 
   36    35    38     1 
   37    35    38     1 
   35    38    39     1 
   35    38    40     1 
   35    38    57     1 
   39    38    40     1 
   39    38    57     1 
   40    38    57     1 
   38    40    41     1 
   40    41    42     1 
   40    41    43     1 
   40    41    59     1 
   42    41    43     1 
   42    41    59     1 
   43    41    59     1 
   41    43    44     1 
   41    43    55     1 
   44    43    55     1 
   43    44    45     1 
   43    44    46     1 
   45    44    46     1 
   44    46    47     1 
   44    46    51     1 
   47    46    51     1 
   46    47    48     1 
   46    47    49     1 
   46    47    50     1 
   48    47    49     1 
   48    47    50     1 
   49    47    50     1 
   46    51    52     1 
   46    51    53     1 
   52    51    53     1 
   51    53    54     1 
   51    53    55     1 
   54    53    55     1 
   43    55    53     1 
   43    55    56     1 
   53    55    56     1 
   38    57    58     1 
   38    57    59     1 
   38    57    62     1 
   58    57    59     1 
   58    57    62     1 
   59    57    62     1 
   41    59    57     1 
   41    59    60     1 
   41    59    61     1 
   57    59    60     1 
   57    59    61     1 
   60    59    61     1 
   57    62    63     1 
   62    63    64     1 
   62    63    65     1 
   62    63    66     1 
   64    63    65     1 
   64    63    66     1 
   65    63    66     1 
   63    66    67     1 
   66    67    68     1 
   66    67    69     1 
   66    67    70     1 
   68    67    69     1 
   68    67    70     1 
   69    67    70     1 
   67    70    71     1 
   67    70    72     1 
   67    70    89     1 
   71    70    72     1 
   71    70    89     1 
   72    70    89     1 
   70    72    73     1 
   72    73    74     1 
   72    73    75     1 
   72    73    91     1 
   74    73    75     1 
   74    73    91     1 
   75    73    91     1 
   73    75    76     1 
   73    75    87     1 
   76    75    87     1 
   75    76    77     1 
   75    76    78     1 
   77    76    78     1 
   76    78    79     1 
   76    78    83     1 
   79    78    83     1 
   78    79    80     1 
   78    79    81     1 
   78    79    82     1 
   80    79    81     1 
   80    79    82     1 
   81    79    82     1 
   78    83    84     1 
   78    83    85     1 
   84    83    85     1 
   83    85    86     1 
   83    85    87     1 
   86    85    87     1 
   75    87    85     1 
   75    87    88     1 
   85    87    88     1 
   70    89    90     1 
   70    89    91     1 
   70    89    94     1 
   90    89    91     1 
   90    89    94     1 
   91    89    94     1 
   73    91    89     1 
   73    91    92     1 
   73    91    93     1 
   89    91    92     1 
   89    91    93     1 
   92    91    93     1 
   89    94    95     1 
   94    95    96     1 
   94    95    97     1 
   94    95    98     1 
   96    95    97     1 
   96    95    98     1 
   97    95    98     1 
   95    98    99     1 
   98    99   100     1 
   98    99   101     1 
   98    99   102     1 
  100    99   101     1 
  100    99   102     1 
  101    99   102     1 
   99   102   103     1 
   99   102   104     1 
   99   102   121     1 
  103   102   104     1 
  103   102   121     1 
  104   102   121     1 
  102   104   105     1 
  104   105   106     1 
  104   105   107     1 
  104   105   123     1 
  106   105   107     1 
  106   105   123     1 
  107   105   123     1 
  105   107   108     1 
  105   107   119     1 
  108   107   119     1 
  107   108   109     1 
  107   108   110     1 
  109   108   110     1 
  108   110   111     1 
  108   110   115     1 
  111   110   115     1 
  110   111   112     1 
  110   111   113     1 
  110   111   114     1 
  112   111   113     1 
  112   111   114     1 
  113   111   114     1 
  110   115   116     1 
  110   115   117     1 
  116   115   117     1 
  115   117   118     1 
  115   117   119     1 
  118   117   119     1 
  107   119   117     1 
  107   119   120     1 
  117   119   120     1 
  102   121   122     1 
  102   121   123     1 
  102   121   126     1 
  122   121   123     1 
  122   121   126     1 
  123   121   126     1 
  105   123   121     1 
  105   123   124     1 
  105   123   125     1 
  121   123   124     1 
  121   123   125     1 
  124   123   125     1 
  121   126   127     1 
  126   127   128     1 
  126   127   129     1 
  126   127   130     1 
  128   127   129     1 
  128   127   130     1 
  129   127   130     1 
  127   130   131     1 
  130   131   132     1 
  130   131   133     1 
  130   131   134     1 
  132   131   133     1 
  132   131   134     1 
  133   131   134     1 
  131   134   135     1 
  131   134   136     1 
  131   134   153     1 
  135   134   136     1 
  135   134   153     1 
  136   134   153     1 
  134   136   137     1 
  136   137   138     1 
  136   137   139     1 
  136   137   155     1 
  138   137   139     1 
  138   137   155     1 
  139   137   155     1 
  137   139   140     1 
  137   139   151     1 
  140   139   151     1 
  139   140   141     1 
  139   140   142     1 
  141   140   142     1 
  140   142   143     1 
  140   142   147     1 
  143   142   147     1 
  142   143   144     1 
  142   143   145     1 
  142   143   146     1 
  144   143   145     1 
  144   143   146     1 
  145   143   146     1 
  142   147   148     1 
  142   147   149     1 
  148   147   149     1 
  147   149   150     1 
  147   149   151     1 
  150   149   151     1 
  139   151   149     1 
  139   151   152     1 
  149   151   152     1 
  134   153   154     1 
  134   153   155     1 
  134   153   158     1 
  154   153   155     1 
  154   153   158     1 
  155   153   158     1 
  137   155   153     1 
  137   155   156     1 
  137   155   157     1 
  153   155   156     1 
  153   155   157     1 
  156   155   157     1 
  153   158   159     1 

[ dihedrals ]
;  ai    aj    ak    al funct            c0            c1            c2            c3            c4            c5
    2     1     3     4     9 
    2     1     3     5     9 
    2     1     3     6     9 
    1     3     6     7     9 
    1     3     6     8     9 
    1     3     6    25     9 
    4     3     6     7     9 
    4     3     6     8     9 
    4     3     6    25     9 
    5     3     6     7     9 
    5     3     6     8     9 
    5     3     6    25     9 
    3     6     8     9     9 
    7     6     8     9     9 
   25     6     8     9     9 
    3     6    25    26     9 
    3     6    25    27     9 
    3     6    25    30     9 
    7     6    25    26     9 
    7     6    25    27     9 
    7     6    25    30     9 
    8     6    25    26     9 
    8     6    25    27     9 
    8     6    25    30     9 
    6     8     9    10     9 
    6     8     9    11     9 
    6     8     9    27     9 
    8     9    11    12     9 
    8     9    11    23     9 
   10     9    11    12     9 
   10     9    11    23     9 
   27     9    11    12     9 
   27     9    11    23     9 
    8     9    27    25     9 
    8     9    27    28     9 
    8     9    27    29     9 
   10     9    27    25     9 
   10     9    27    28     9 
   10     9    27    29     9 
   11     9    27    25     9 
   11     9    27    28     9 
   11     9    27    29     9 
    9    11    12    13     9 
    9    11    12    14     9 
   23    11    12    13     9 
   23    11    12    14     9 
    9    11    23    21     9 
    9    11    23    24     9 
   12    11    23    21     9 
   12    11    23    24     9 
   11    12    14    15     9 
   11    12    14    19     9 
   13    12    14    15     9 
   13    12    14    19     9 
   12    14    15    16     9 
   12    14    15    17     9 
   12    14    15    18     9 
   19    14    15    16     9 
   19    14    15    17     9 
   19    14    15    18     9 
   12    14    19    20     9 
   12    14    19    21     9 
   15    14    19    20     9 
   15    14    19    21     9 
   14    19    21    22     9 
   14    19    21    23     9 
   20    19    21    22     9 
   20    19    21    23     9 
   19    21    23    11     9 
   19    21    23    24     9 
   22    21    23    11     9 
   22    21    23    24     9 
    6    25    27     9     9 
    6    25    27    28     9 
    6    25    27    29     9 
   26    25    27     9     9 
   26    25    27    28     9 
   26    25    27    29     9 
   30    25    27     9     9 
   30    25    27    28     9 
   30    25    27    29     9 
    6    25    30    31     9 
   26    25    30    31     9 
   27    25    30    31     9 
   25    30    31    32     9 
   25    30    31    33     9 
   25    30    31    34     9 
   30    31    34    35     9 
   32    31    34    35     9 
   33    31    34    35     9 
   31    34    35    36     9 
   31    34    35    37     9 
   31    34    35    38     9 
   34    35    38    39     9 
   34    35    38    40     9 
   34    35    38    57     9 
   36    35    38    39     9 
   36    35    38    40     9 
   36    35    38    57     9 
   37    35    38    39     9 
   37    35    38    40     9 
   37    35    38    57     9 
   35    38    40    41     9 
   39    38    40    41     9 
   57    38    40    41     9 
   35    38    57    58     9 
   35    38    57    59     9 
   35    38    57    62     9 
   39    38    57    58     9 
   39    38    57    59     9 
   39    38    57    62     9 
   40    38    57    58     9 
   40    38    57    59     9 
   40    38    57    62     9 
   38    40    41    42     9 
   38    40    41    43     9 
   38    40    41    59     9 
   40    41    43    44     9 
   40    41    43    55     9 
   42    41    43    44     9 
   42    41    43    55     9 
   59    41    43    44     9 
   59    41    43    55     9 
   40    41    59    57     9 
   40    41    59    60     9 
   40    41    59    61     9 
   42    41    59    57     9 
   42    41    59    60     9 
   42    41    59    61     9 
   43    41    59    57     9 
   43    41    59    60     9 
   43    41    59    61     9 
   41    43    44    45     9 
   41    43    44    46     9 
   55    43    44    45     9 
   55    43    44    46     9 
   41    43    55    53     9 
   41    43    55    56     9 
   44    43    55    53     9 
   44    43    55    56     9 
   43    44    46    47     9 
   43    44    46    51     9 
   45    44    46    47     9 
   45    44    46    51     9 
   44    46    47    48     9 
   44    46    47    49     9 
   44    46    47    50     9 
   51    46    47    48     9 
   51    46    47    49     9 
   51    46    47    50     9 
   44    46    51    52     9 
   44    46    51    53     9 
   47    46    51    52     9 
   47    46    51    53     9 
   46    51    53    54     9 
   46    51    53    55     9 
   52    51    53    54     9 
   52    51    53    55     9 
   51    53    55    43     9 
   51    53    55    56     9 
   54    53    55    43     9 
   54    53    55    56     9 
   38    57    59    41     9 
   38    57    59    60     9 
   38    57    59    61     9 
   58    57    59    41     9 
   58    57    59    60     9 
   58    57    59    61     9 
   62    57    59    41     9 
   62    57    59    60     9 
   62    57    59    61     9 
   38    57    62    63     9 
   58    57    62    63     9 
   59    57    62    63     9 
   57    62    63    64     9 
   57    62    63    65     9 
   57    62    63    66     9 
   62    63    66    67     9 
   64    63    66    67     9 
   65    63    66    67     9 
   63    66    67    68     9 
   63    66    67    69     9 
   63    66    67    70     9 
   66    67    70    71     9 
   66    67    70    72     9 
   66    67    70    89     9 
   68    67    70    71     9 
   68    67    70    72     9 
   68    67    70    89     9 
   69    67    70    71     9 
   69    67    70    72     9 
   69    67    70    89     9 
   67    70    72    73     9 
   71    70    72    73     9 
   89    70    72    73     9 
   67    70    89    90     9 
   67    70    89    91     9 
   67    70    89    94     9 
   71    70    89    90     9 
   71    70    89    91     9 
   71    70    89    94     9 
   72    70    89    90     9 
   72    70    89    91     9 
   72    70    89    94     9 
   70    72    73    74     9 
   70    72    73    75     9 
   70    72    73    91     9 
   72    73    75    76     9 
   72    73    75    87     9 
   74    73    75    76     9 
   74    73    75    87     9 
   91    73    75    76     9 
   91    73    75    87     9 
   72    73    91    89     9 
   72    73    91    92     9 
   72    73    91    93     9 
   74    73    91    89     9 
   74    73    91    92     9 
   74    73    91    93     9 
   75    73    91    89     9 
   75    73    91    92     9 
   75    73    91    93     9 
   73    75    76    77     9 
   73    75    76    78     9 
   87    75    76    77     9 
   87    75    76    78     9 
   73    75    87    85     9 
   73    75    87    88     9 
   76    75    87    85     9 
   76    75    87    88     9 
   75    76    78    79     9 
   75    76    78    83     9 
   77    76    78    79     9 
   77    76    78    83     9 
   76    78    79    80     9 
   76    78    79    81     9 
   76    78    79    82     9 
   83    78    79    80     9 
   83    78    79    81     9 
   83    78    79    82     9 
   76    78    83    84     9 
   76    78    83    85     9 
   79    78    83    84     9 
   79    78    83    85     9 
   78    83    85    86     9 
   78    83    85    87     9 
   84    83    85    86     9 
   84    83    85    87     9 
   83    85    87    75     9 
   83    85    87    88     9 
   86    85    87    75     9 
   86    85    87    88     9 
   70    89    91    73     9 
   70    89    91    92     9 
   70    89    91    93     9 
   90    89    91    73     9 
   90    89    91    92     9 
   90    89    91    93     9 
   94    89    91    73     9 
   94    89    91    92     9 
   94    89    91    93     9 
   70    89    94    95     9 
   90    89    94    95     9 
   91    89    94    95     9 
   89    94    95    96     9 
   89    94    95    97     9 
   89    94    95    98     9 
   94    95    98    99     9 
   96    95    98    99     9 
   97    95    98    99     9 
   95    98    99   100     9 
   95    98    99   101     9 
   95    98    99   102     9 
   98    99   102   103     9 
   98    99   102   104     9 
   98    99   102   121     9 
  100    99   102   103     9 
  100    99   102   104     9 
  100    99   102   121     9 
  101    99   102   103     9 
  101    99   102   104     9 
  101    99   102   121     9 
   99   102   104   105     9 
  103   102   104   105     9 
  121   102   104   105     9 
   99   102   121   122     9 
   99   102   121   123     9 
   99   102   121   126     9 
  103   102   121   122     9 
  103   102   121   123     9 
  103   102   121   126     9 
  104   102   121   122     9 
  104   102   121   123     9 
  104   102   121   126     9 
  102   104   105   106     9 
  102   104   105   107     9 
  102   104   105   123     9 
  104   105   107   108     9 
  104   105   107   119     9 
  106   105   107   108     9 
  106   105   107   119     9 
  123   105   107   108     9 
  123   105   107   119     9 
  104   105   123   121     9 
  104   105   123   124     9 
  104   105   123   125     9 
  106   105   123   121     9 
  106   105   123   124     9 
  106   105   123   125     9 
  107   105   123   121     9 
  107   105   123   124     9 
  107   105   123   125     9 
  105   107   108   109     9 
  105   107   108   110     9 
  119   107   108   109     9 
  119   107   108   110     9 
  105   107   119   117     9 
  105   107   119   120     9 
  108   107   119   117     9 
  108   107   119   120     9 
  107   108   110   111     9 
  107   108   110   115     9 
  109   108   110   111     9 
  109   108   110   115     9 
  108   110   111   112     9 
  108   110   111   113     9 
  108   110   111   114     9 
  115   110   111   112     9 
  115   110   111   113     9 
  115   110   111   114     9 
  108   110   115   116     9 
  108   110   115   117     9 
  111   110   115   116     9 
  111   110   115   117     9 
  110   115   117   118     9 
  110   115   117   119     9 
  116   115   117   118     9 
  116   115   117   119     9 
  115   117   119   107     9 
  115   117   119   120     9 
  118   117   119   107     9 
  118   117   119   120     9 
  102   121   123   105     9 
  102   121   123   124     9 
  102   121   123   125     9 
  122   121   123   105     9 
  122   121   123   124     9 
  122   121   123   125     9 
  126   121   123   105     9 
  126   121   123   124     9 
  126   121   123   125     9 
  102   121   126   127     9 
  122   121   126   127     9 
  123   121   126   127     9 
  121   126   127   128     9 
  121   126   127   129     9 
  121   126   127   130     9 
  126   127   130   131     9 
  128   127   130   131     9 
  129   127   130   131     9 
  127   130   131   132     9 
  127   130   131   133     9 
  127   130   131   134     9 
  130   131   134   135     9 
  130   131   134   136     9 
  130   131   134   153     9 
  132   131   134   135     9 
  132   131   134   136     9 
  132   131   134   153     9 
  133   131   134   135     9 
  133   131   134   136     9 
  133   131   134   153     9 
  131   134   136   137     9 
  135   134   136   137     9 
  153   134   136   137     9 
  131   134   153   154     9 
  131   134   153   155     9 
  131   134   153   158     9 
  135   134   153   154     9 
  135   134   153   155     9 
  135   134   153   158     9 
  136   134   153   154     9 
  136   134   153   155     9 
  136   134   153   158     9 
  134   136   137   138     9 
  134   136   137   139     9 
  134   136   137   155     9 
  136   137   139   140     9 
  136   137   139   151     9 
  138   137   139   140     9 
  138   137   139   151     9 
  155   137   139   140     9 
  155   137   139   151     9 
  136   137   155   153     9 
  136   137   155   156     9 
  136   137   155   157     9 
  138   137   155   153     9 
  138   137   155   156     9 
  138   137   155   157     9 
  139   137   155   153     9 
  139   137   155   156     9 
  139   137   155   157     9 
  137   139   140   141     9 
  137   139   140   142     9 
  151   139   140   141     9 
  151   139   140   142     9 
  137   139   151   149     9 
  137   139   151   152     9 
  140   139   151   149     9 
  140   139   151   152     9 
  139   140   142   143     9 
  139   140   142   147     9 
  141   140   142   143     9 
  141   140   142   147     9 
  140   142   143   144     9 
  140   142   143   145     9 
  140   142   143   146     9 
  147   142   143   144     9 
  147   142   143   145     9 
  147   142   143   146     9 
  140   142   147   148     9 
  140   142   147   149     9 
  143   142   147   148     9 
  143   142   147   149     9 
  142   147   149   150     9 
  142   147   149   151     9 
  148   147   149   150     9 
  148   147   149   151     9 
  147   149   151   139     9 
  147   149   151   152     9 
  150   149   151   139     9 
  150   149   151   152     9 
  134   153   155   137     9 
  134   153   155   156     9 
  134   153   155   157     9 
  154   153   155   137     9 
  154   153   155   156     9 
  154   153   155   157     9 
  158   153   155   137     9 
  158   153   155   156     9 
  158   153   155   157     9 
  134   153   158   159     9 
  154   153   158   159     9 
  155   153   158   159     9 

[ dihedrals ]
;  ai    aj    ak    al funct            c0            c1            c2            c3
    9    11    12    23     4 
   11    14    12    13     4 
   11    21    23    24     4 
   14    21    19    20     4 
   15    14    12    19     4 
   19    23    21    22     4 
   41    43    44    55     4 
   43    46    44    45     4 
   43    53    55    56     4 
   46    53    51    52     4 
   47    46    44    51     4 
   51    55    53    54     4 
   73    75    76    87     4 
   75    78    76    77     4 
   75    85    87    88     4 
   78    85    83    84     4 
   79    78    76    83     4 
   83    87    85    86     4 
  105   107   108   119     4 
  107   110   108   109     4 
  107   117   119   120     4 
  110   117   115   116     4 
  111   110   108   115     4 
  115   119   117   118     4 
  137   139   140   151     4 
  139   142   140   141     4 
  139   149   151   152     4 
  142   149   147   148     4 
  143   142   140   147     4 
  147   151   149   150     4 

; Include Position restraint file
#ifdef POSRES
#include "posre.itp"
#endif

; Include water topology
#include "amber_na_desres.ff/tip4pd.itp"

#ifdef POSRES_WATER
; Position restraint for each water oxygen
[ position_restraints ]
;  i funct       fcx        fcy        fcz
   1    1       1000       1000       1000
#endif

; Include topology for ions
#include "amber_na_desres.ff/ions.itp"

[ system ]
; Name
Getting the Right Output Means no Artefacts in Calculating Stuff in water

[ molecules ]
; Compound        #mols
DNA                 1
SOL              2873
NA                  4