Getting the Right Output Means no Artefacts in Calculating Stuff
   97
    1DT     C4'    1  -0.112   0.624   1.014
    1DT     O5'    2   0.093   0.559   1.110
    1DT     O3'    3  -0.305   0.479   1.014
    1DT     O4'    4  -0.062   0.647   0.883
    1DT     C1'    5  -0.096   0.541   0.797
    1DT     C2'    6  -0.105   0.422   0.885
    1DT     C5'    7  -0.008   0.653   1.113
    1DT     C3'    8  -0.162   0.479   1.014
    1DT      O4    9   0.275   0.502   0.388
    1DT      C6   10   0.135   0.489   0.713
    1DT      C2   11  -0.030   0.555   0.555
    1DT      N1   12   0.007   0.525   0.684
    1DT      N3   13   0.067   0.545   0.460
    1DT      C7   14   0.369   0.436   0.655
    1DT      O2   15  -0.143   0.589   0.526
    1DT      C5   16   0.229   0.478   0.619
    1DT      C4   17   0.196   0.507   0.483
    2DT     C4'   18  -0.548   0.402   0.673
    2DT     O5'   19  -0.442   0.338   0.874
    2DT     O3'   20  -0.718   0.266   0.569
    2DT     O4'   21  -0.431   0.411   0.595
    2DT     C1'   22  -0.418   0.299   0.510
    2DT     OP1   23  -0.497   0.383   1.110
    2DT     C2'   24  -0.486   0.190   0.583
    2DT       P   25  -0.386   0.353   1.019
    2DT     OP2   26  -0.300   0.240   1.052
    2DT     C5'   27  -0.518   0.436   0.813
    2DT     C3'   28  -0.601   0.260   0.652
    2DT      O4   29   0.116   0.208   0.395
    2DT      C6   30  -0.186   0.230   0.579
    2DT      C2   31  -0.224   0.289   0.351
    2DT      N1   32  -0.270   0.269   0.479
    2DT      N3   33  -0.092   0.266   0.330
    2DT      C7   34   0.033   0.163   0.669
    2DT      O2   35  -0.297   0.324   0.260
    2DT      C5   36  -0.057   0.207   0.557
    2DT      C4   37  -0.003   0.225   0.426
    3DT     C4'   38  -0.728   0.168   0.155
    3DT     O5'   39  -0.762   0.118   0.383
    3DT     O3'   40  -0.817   0.031  -0.021
    3DT     O4'   41  -0.586   0.166   0.159
    3DT     C1'   42  -0.536   0.046   0.103
    3DT     OP1   43  -0.938   0.187   0.541
    3DT     C2'   44  -0.644  -0.054   0.128
    3DT       P   45  -0.798   0.145   0.533
    3DT     OP2   46  -0.756   0.032   0.615
    3DT     C5'   47  -0.780   0.214   0.285
    3DT     C3'   48  -0.771   0.027   0.114
    3DT      O4   49  -0.043  -0.077   0.322
    3DT      C6   50  -0.393  -0.026   0.296
    3DT      C2   51  -0.288   0.013   0.086
    3DT      N1   52  -0.401   0.007   0.164
    3DT      N3   53  -0.170  -0.018   0.147
    3DT      C7   54  -0.272  -0.094   0.500
    3DT      O2   55  -0.292   0.043  -0.032
    3DT      C5   56  -0.277  -0.056   0.355
    3DT      C4   57  -0.156  -0.052   0.278
    4DT     C4'   58  -0.597  -0.104  -0.358
    4DT     O5'   59  -0.760  -0.132  -0.190
    4DT     O3'   60  -0.581  -0.254  -0.547
    4DT     O4'   61  -0.483  -0.112  -0.273
    4DT     C1'   62  -0.422  -0.238  -0.284
    4DT     OP1   63  -0.988  -0.042  -0.167
    4DT     C2'   64  -0.532  -0.331  -0.320
    4DT       P   65  -0.872  -0.091  -0.090
    4DT     OP2   66  -0.895  -0.197   0.007
    4DT     C5'   67  -0.710  -0.045  -0.285
    4DT     C3'   68  -0.620  -0.246  -0.410
    4DT      O4   69  -0.156  -0.361   0.186
    4DT      C6   70  -0.422  -0.299  -0.040
    4DT      C2   71  -0.212  -0.283  -0.153
    4DT      N1   72  -0.350  -0.277  -0.154
    4DT      N3   73  -0.154  -0.312  -0.034
    4DT      C7   74  -0.445  -0.352   0.199
    4DT      O2   75  -0.146  -0.264  -0.253
    4DT      C5   76  -0.364  -0.328   0.076
    4DT      C4   77  -0.221  -0.336   0.083
    5DT     C4'   78  -0.219  -0.428  -0.687
    5DT     O5'   79  -0.451  -0.433  -0.643
    5DT     O3'   80  -0.111  -0.594  -0.824
    5DT     O4'   81  -0.176  -0.432  -0.552
    5DT     C1'   82  -0.131  -0.561  -0.518
    5DT     OP1   83  -0.642  -0.332  -0.760
    5DT     C2'   84  -0.207  -0.652  -0.607
    5DT       P   85  -0.596  -0.378  -0.629
    5DT     OP2   86  -0.679  -0.475  -0.558
    5DT     C5'   87  -0.348  -0.357  -0.696
    5DT     C3'   88  -0.221  -0.572  -0.735
    5DT      O4   89  -0.194  -0.651   0.024
    5DT      C6   90  -0.275  -0.599  -0.317
    5DT      C2   91  -0.039  -0.602  -0.288
    5DT      N1   92  -0.150  -0.591  -0.369
    5DT      N3   93  -0.062  -0.623  -0.156
    5DT      C7   94  -0.437  -0.630  -0.133
    5DT      O2   95   0.075  -0.595  -0.332
    5DT      C5   96  -0.297  -0.620  -0.187
    5DT      C4   97  -0.186  -0.633  -0.098
   0.00000   0.00000   0.00000
