Gromacs Runs On Most of All Computer Systems in water
11558
    1RG35     P    1   4.469   2.413   2.494 -0.0972 -0.0270  0.0292
    1RG35   O1P    2   4.326   2.402   2.470  0.5813  0.0551  0.0717
    1RG35   O2P    3   4.517   2.514   2.587  0.2389 -0.5406 -0.2166
    1RG35   O5'    4   4.512   2.277   2.559 -0.3513 -0.0309  0.1557
    1RG35   C5'    5   4.534   2.156   2.486 -0.6228 -0.4000  0.3325
    1RG35  H5'1    6   4.632   2.152   2.438 -1.8192 -2.2721 -2.0640
    1RG35  H5'2    7   4.457   2.163   2.409 -0.2849  3.5063  0.2592
    1RG35   C4'    8   4.507   2.021   2.550 -0.4621  0.2244 -0.3685
    1RG35   H4'    9   4.509   1.943   2.474  0.1920 -0.9403  0.8274
    1RG35   O4'   10   4.610   2.006   2.644 -0.0717 -0.7113 -0.0376
    1RG35   C1'   11   4.556   1.994   2.770  0.6621 -0.2950 -0.1400
    1RG35   H1'   12   4.561   1.888   2.794  3.6429  0.0552  0.9259
    1RG35    N9   13   4.640   2.065   2.869 -0.0989  0.1715 -0.3447
    1RG35    C8   14   4.695   2.191   2.863 -0.3071  0.0792  0.3338
    1RG35    H8   15   4.673   2.255   2.779  0.2277  1.0537  0.9380
    1RG35    N7   16   4.767   2.221   2.967 -0.1839 -0.2449  0.0676
    1RG35    C5   17   4.763   2.107   3.044 -0.3048  0.5555 -0.1749
    1RG35    C6   18   4.825   2.082   3.171  0.2346  0.3857 -1.0112
    1RG35    O6   19   4.899   2.154   3.243 -0.7667  0.2109  0.1193
    1RG35    N1   20   4.781   1.959   3.233 -0.9638 -0.5359 -0.2004
    1RG35    H1   21   4.823   1.940   3.322  1.9974  2.7215 -0.7943
    1RG35    C2   22   4.693   1.879   3.175  0.7863  0.2696  0.6431
    1RG35    N2   23   4.653   1.770   3.236 -0.1855 -0.5422  0.6684
    1RG35   H21   24   4.689   1.743   3.326 -0.6313  0.8113  1.2681
    1RG35   H22   25   4.586   1.709   3.193  1.0613 -0.0566 -2.0935
    1RG35    N3   26   4.637   1.900   3.055 -0.3013  0.1277 -0.1874
    1RG35    C4   27   4.675   2.017   2.994  0.2018  0.5628 -0.2829
    1RG35   C3'   28   4.374   2.016   2.624  0.0907 -0.2765 -0.6630
    1RG35   H3'   29   4.307   2.097   2.595  1.3177  0.1906 -2.2614
    1RG35   C2'   30   4.413   2.049   2.765 -0.0372 -0.3581 -0.1784
    1RG35  H2'1   31   4.423   2.156   2.779  2.2686 -0.5075 -0.4104
    1RG35   O2'   32   4.341   1.978   2.864  0.3537 -0.2868 -0.2284
    1RG35  HO'2   33   4.366   1.886   2.855 -0.9369 -0.5729 -1.1708
    1RG35   O3'   34   4.306   1.890   2.606  0.3322  0.3365 -0.0787
    1RG35   H3T   35   4.212   1.897   2.623 -0.0990  0.5287 -2.3890
    1RG35   O3P   36   4.547   2.418   2.369  0.2894  0.1378 -0.2794
    2SOL     OW   37   0.052   3.438   2.555  0.2484  0.1713  0.3954
    2SOL    HW2   38   0.005   3.394   2.625  0.5505  1.4625  1.4234
    2SOL    HW3   39  -0.013   3.497   2.516 -0.0209 -0.7991 -0.6646
    2SOL    MW4   40   0.037   3.440   2.559  0.2527  0.2136  0.3912
    3SOL     OW   41   1.119   1.299   4.036  0.1063 -0.2112  0.0610
    3SOL    HW2   42   1.073   1.331   3.957  0.2882  1.1194  0.4731
    3SOL    HW3   43   1.072   1.341   4.108  1.0523 -0.0162  0.5641
    3SOL    MW4   44   1.107   1.309   4.035  0.2551 -0.0099  0.1818
    4SOL     OW   45   3.020   4.389   4.085 -0.1428  0.3729  0.1394
    4SOL    HW2   46   2.967   4.339   4.147  0.6554  2.1891  2.3422
    4SOL    HW3   47   2.998   4.480   4.102  2.6870  1.1099  0.2259
    4SOL    MW4   48   3.010   4.394   4.095  0.3358  0.7098  0.4414
    5SOL     OW   49   4.299   0.848   2.081  0.1089 -0.5804 -0.1595
    5SOL    HW2   50   4.245   0.859   2.159  0.3182 -0.1452 -0.0715
    5SOL    HW3   51   4.237   0.840   2.009 -0.0773 -0.4890 -0.0079
    5SOL    MW4   52   4.284   0.849   2.082  0.1120 -0.5109 -0.1279
    6SOL     OW   53   3.284   1.578   3.533  0.5055  0.4526 -0.1675
    6SOL    HW2   54   3.205   1.619   3.498  0.6676  0.4537 -0.5340
    6SOL    HW3   55   3.342   1.569   3.458 -0.5882 -2.9518 -0.6897
    6SOL    MW4   56   3.281   1.582   3.519  0.3826  0.0036 -0.2847
    7SOL     OW   57   2.997   4.060   0.613  0.1724 -0.0978 -0.1946
    7SOL    HW2   58   2.976   4.153   0.600 -0.0100 -0.0645  0.3246
    7SOL    HW3   59   3.083   4.049   0.571  1.1642  0.7887  1.5108
    7SOL    MW4   60   3.006   4.071   0.606  0.2792  0.0235  0.0989
    8SOL     OW   61   0.667   2.030   4.095  0.1685 -0.2843 -0.5076
    8SOL    HW2   62   0.629   1.942   4.103  0.2997 -0.2888  0.1079
    8SOL    HW3   63   0.724   2.024   4.018  1.1776 -1.1154  0.2828
    8SOL    MW4   64   0.669   2.017   4.086  0.3189 -0.3946 -0.3221
    9SOL     OW   65   3.612   2.979   2.429  0.4329 -0.2241  0.2885
    9SOL    HW2   66   3.690   2.926   2.410  0.3718  0.0483 -0.7247
    9SOL    HW3   67   3.564   2.982   2.347 -1.3362 -1.4859  1.2287
    9SOL    MW4   68   3.616   2.972   2.416  0.1915 -0.3546  0.2789
   10SOL     OW   69   4.258   0.189   1.989  0.6028  0.0943  0.2929
   10SOL    HW2   70   4.307   0.238   1.923 -0.4293  0.0776 -0.4935
   10SOL    HW3   71   4.311   0.197   2.069  1.5118  0.6872 -0.3602
   10SOL    MW4   72   4.271   0.196   1.991  0.5866  0.1703  0.1030
   11SOL     OW   73   0.705   2.290   2.112  0.1955  0.3443 -0.0527
   11SOL    HW2   74   0.686   2.210   2.063 -0.1957 -0.2793  1.0949
   11SOL    HW3   75   0.791   2.274   2.151 -0.0487  0.3382  0.4816
   11SOL    MW4   76   0.714   2.277   2.111  0.1116  0.2612  0.1692
   12SOL     OW   77   0.244   2.739   3.739 -0.4618  0.0867 -0.5801
   12SOL    HW2   78   0.165   2.701   3.777 -1.7376  1.0389 -2.2257
   12SOL    HW3   79   0.223   2.751   3.646  2.0196 -0.7046 -1.2847
   12SOL    MW4   80   0.231   2.735   3.731 -0.3028  0.1079 -0.8902
   13SOL     OW   81   1.120   4.317   2.050  0.7206 -0.5229  0.0515
   13SOL    HW2   82   1.031   4.301   2.083  0.7743  0.2108  0.5857
   13SOL    HW3   83   1.172   4.245   2.085  0.3506 -0.9113 -0.1954
   13SOL    MW4   84   1.115   4.306   2.059  0.6789 -0.4774  0.0894
   14SOL     OW   85   4.210   0.955   0.754  0.9740  0.1190  0.2814
   14SOL    HW2   86   4.175   0.959   0.666  0.3725 -1.2922  0.4352
   14SOL    HW3   87   4.279   0.889   0.749 -0.6688 -1.7428  1.3690
   14SOL    MW4   88   4.215   0.946   0.742  0.6779 -0.3129  0.4452
   15SOL     OW   89   0.419   1.740   2.763 -0.1443 -0.0039 -0.3421
   15SOL    HW2   90   0.370   1.694   2.832  0.0685 -0.8564 -0.7502
   15SOL    HW3   91   0.442   1.824   2.802  0.3493 -0.6557  0.7992
   15SOL    MW4   92   0.416   1.745   2.777 -0.0511 -0.2023 -0.2453
   16SOL     OW   93   1.178   2.058   1.063  0.7195 -0.3074 -0.1605
   16SOL    HW2   94   1.082   2.064   1.065  0.7966  1.1693 -0.6068
   16SOL    HW3   95   1.200   2.051   0.970  1.0415 -0.9314 -0.0446
   16SOL    MW4   96   1.168   2.058   1.051  0.7722 -0.1949 -0.2041
   17SOL     OW   97   3.369   0.779   1.718 -0.3971  0.1245 -0.4396
   17SOL    HW2   98   3.352   0.758   1.810  0.7892  0.7066 -0.0744
   17SOL    HW3   99   3.291   0.749   1.672 -0.6302 -0.9878  0.6425
   17SOL    MW4  100   3.357   0.772   1.724 -0.2713  0.0546 -0.2486
   18SOL     OW  101   1.762   3.971   2.184 -0.2002  0.3438 -0.0182
   18SOL    HW2  102   1.820   3.952   2.258 -0.5053 -1.6729 -0.2726
   18SOL    HW3  103   1.806   3.931   2.109 -0.2118  1.8235 -0.8364
   18SOL    MW4  104   1.776   3.963   2.184 -0.2420  0.2730 -0.1597
   19SOL     OW  105   0.404   1.262   0.290  0.1913  0.4034  0.2762
   19SOL    HW2  106   0.352   1.325   0.340 -2.3188 -0.6757 -0.9061
   19SOL    HW3  107   0.365   1.177   0.309  0.9696 -0.3394 -1.3195
   19SOL    MW4  108   0.392   1.259   0.299 -0.0372  0.1631 -0.0903
   20SOL     OW  109   2.032   0.488   1.140 -0.1795  0.0343 -0.3377
   20SOL    HW2  110   1.980   0.547   1.195  0.3833 -0.6309  0.9418
   20SOL    HW3  111   2.037   0.406   1.190 -0.0835 -0.7641 -1.6169
   20SOL    MW4  112   2.026   0.485   1.154 -0.0926 -0.1588 -0.3377
   21SOL     OW  113   0.817   4.607   4.355  0.1613 -0.0651 -0.0749
   21SOL    HW2  114   0.728   4.572   4.344 -0.4291  1.3758  0.0570
   21SOL    HW3  115   0.806   4.682   4.413  1.3228  0.7721 -0.9273
   21SOL    MW4  116   0.804   4.612   4.361  0.2367  0.2355 -0.1700
   22SOL     OW  117   2.533   1.924   2.944  0.1841 -0.2045  0.1078
   22SOL    HW2  118   2.614   1.882   2.973  0.0308 -0.9032 -0.4532
   22SOL    HW3  119   2.479   1.930   3.023  1.0235  0.8317  0.6029
   22SOL    MW4  120   2.536   1.919   2.958  0.2746 -0.1600  0.0991
   23SOL     OW  121   4.431   2.955   2.619  0.1910 -0.4522 -0.0208
   23SOL    HW2  122   4.358   2.969   2.559 -1.0311  1.6120  1.8751
   23SOL    HW3  123   4.490   3.028   2.602  0.5355 -0.6617  0.2692
   23SOL    MW4  124   4.429   2.966   2.609  0.0752 -0.2075  0.2676
   24SOL     OW  125   0.122   3.693   1.301  0.7676  0.4466  0.6482
   24SOL    HW2  126   0.139   3.752   1.228  1.3685  0.6739  0.9622
   24SOL    HW3  127   0.205   3.646   1.313  0.6082  0.2685  1.0494
   24SOL    MW4  128   0.135   3.695   1.293  0.8258  0.4531  0.7426
   25SOL     OW  129   3.825   1.471   1.772  0.1684 -0.0475  0.2916
   25SOL    HW2  130   3.802   1.483   1.679  0.8794 -0.5571  0.0435
   25SOL    HW3  131   3.803   1.555   1.813  0.4944  0.4176 -0.4732
   25SOL    MW4  132   3.819   1.484   1.765  0.3052 -0.0534  0.1579
   26SOL     OW  133   0.987   1.193   3.049  0.2873 -0.0787  0.0530
   26SOL    HW2  134   0.913   1.174   3.107  0.8709 -0.9112  0.5314
   26SOL    HW3  135   1.011   1.284   3.070 -0.9055  0.3728 -0.4602
   26SOL    MW4  136   0.981   1.203   3.060  0.2069 -0.1290  0.0484
   27SOL     OW  137   0.898   1.995   4.299  0.4081 -0.3784 -0.7170
   27SOL    HW2  138   0.818   2.018   4.252 -0.4479 -0.3676  0.7142
   27SOL    HW3  139   0.965   2.053   4.262 -0.4787  0.3615 -1.1763
   27SOL    MW4  140   0.897   2.006   4.288  0.1781 -0.2794 -0.5888
   28SOL     OW  141   1.972   0.872   4.473 -0.0287 -0.0733  0.7236
   28SOL    HW2  142   1.902   0.910   4.421 -1.2887 -1.2040  1.5343
   28SOL    HW3  143   2.033   0.836   4.409 -0.3371  0.6888  0.0031
   28SOL    MW4  144   1.970   0.872   4.458 -0.2357 -0.1220  0.7355
   29SOL     OW  145   3.349   3.632   4.074 -0.1828 -0.4940  0.5495
   29SOL    HW2  146   3.425   3.577   4.056 -0.1453 -0.8199  1.6647
   29SOL    HW3  147   3.331   3.618   4.167 -2.4923 -1.5278 -0.0336
   29SOL    MW4  148   3.357   3.623   4.084 -0.4825 -0.6734  0.6197
   30SOL     OW  149   0.127   2.152   1.202 -0.0518  0.0146 -0.0921
   30SOL    HW2  150   0.047   2.175   1.250  0.6976 -0.3992  1.3580
   30SOL    HW3  151   0.190   2.130   1.270  0.8687 -1.0746 -1.2988
   30SOL    MW4  152   0.125   2.152   1.217  0.1685 -0.1837 -0.0600
   31SOL     OW  153   4.042   2.512   3.071  0.0620  0.1029 -0.0834
   31SOL    HW2  154   4.029   2.420   3.096  0.1731 -0.1137 -0.8147
   31SOL    HW3  155   3.978   2.560   3.123 -1.2474 -0.5844 -1.0492
   31SOL    MW4  156   4.032   2.506   3.082 -0.0961 -0.0164 -0.3073
   32SOL     OW  157   2.455   1.154   4.035  0.0003 -0.2897 -0.4781
   32SOL    HW2  158   2.399   1.077   4.045 -0.4923  0.2486  1.0371
   32SOL    HW3  159   2.493   1.167   4.121 -0.1114  1.3068 -0.6549
   32SOL    MW4  160   2.452   1.145   4.048 -0.0795 -0.0080 -0.3015
   33SOL     OW  161   2.818   3.925   2.532  0.8917 -0.4172  0.0710
   33SOL    HW2  162   2.724   3.947   2.528  1.1043  0.4844 -0.1143
   33SOL    HW3  163   2.861   4.009   2.546  1.5686 -1.0548  1.8591
   33SOL    MW4  164   2.811   3.939   2.533  1.0091 -0.3823  0.2824
   34SOL     OW  165   0.240   3.769   1.986 -0.1635 -0.1902 -0.0242
   34SOL    HW2  166   0.278   3.700   2.040 -0.3334 -0.1960  0.0885
   34SOL    HW3  167   0.301   3.778   1.913 -0.3612 -0.7609 -0.2676
   34SOL    MW4  168   0.253   3.761   1.983 -0.2120 -0.2663 -0.0414
   35SOL     OW  169   0.559   0.816   2.642 -0.4163  0.1745 -0.5167
   35SOL    HW2  170   0.572   0.860   2.558 -0.9473  0.3064 -0.5312
   35SOL    HW3  171   0.464   0.817   2.655 -0.3175  0.3565  0.1961
   35SOL    MW4  172   0.548   0.822   2.633 -0.4733  0.2159 -0.4245
   36SOL     OW  173   3.071   2.364   4.158  0.1606  0.4675 -0.3226
   36SOL    HW2  174   3.066   2.270   4.174  1.2070  0.5042  0.2688
   36SOL    HW3  175   2.994   2.400   4.202  0.1283 -0.0369  0.0354
   36SOL    MW4  176   3.060   2.357   4.166  0.2944  0.4058 -0.1973
   37SOL     OW  177   1.211   4.073   3.901  0.2446 -0.1066  0.3587
   37SOL    HW2  178   1.174   4.160   3.909 -0.3841 -0.3152 -0.3237
   37SOL    HW3  179   1.171   4.023   3.973  0.2391  0.0305  0.4510
   37SOL    MW4  180   1.201   4.078   3.912  0.1609 -0.1161  0.2808
   38SOL     OW  181   2.647   2.264   3.460 -0.3213  0.2226  0.1425
   38SOL    HW2  182   2.648   2.227   3.371 -0.5133 -1.1163  0.6925
   38SOL    HW3  183   2.739   2.262   3.487 -0.3654 -0.1001  0.2711
   38SOL    MW4  184   2.659   2.259   3.452 -0.3525  0.0034  0.2321
   39SOL     OW  185   2.715   2.822   2.830  0.5398 -0.2259 -0.1897
   39SOL    HW2  186   2.762   2.880   2.891 -0.2322  1.0482 -0.7844
   39SOL    HW3  187   2.775   2.812   2.756  0.7751 -0.3912  0.0210
   39SOL    MW4  188   2.729   2.829   2.829  0.4690 -0.0796 -0.2403
   40SOL     OW  189   0.817   3.005   2.792  0.3443  0.4643  0.3610
   40SOL    HW2  190   0.888   3.063   2.763  1.5065 -1.2539 -0.2559
   40SOL    HW3  191   0.769   3.058   2.856  1.5533  2.0164  0.0366
   40SOL    MW4  192   0.820   3.020   2.797  0.6572  0.4424  0.2368
   41SOL     OW  193   2.692   1.104   3.545  0.3724 -0.0737  0.1719
   41SOL    HW2  194   2.699   1.030   3.606  0.3376 -0.5229 -0.3693
   41SOL    HW3  195   2.778   1.107   3.503 -0.0922 -0.7034 -0.8386
   41SOL    MW4  196   2.704   1.095   3.547  0.3065 -0.2161 -0.0328
   42SOL     OW  197   1.914   0.449   2.573 -0.4931 -0.1612 -0.3080
   42SOL    HW2  198   1.861   0.401   2.636  0.0263 -1.1830 -0.6371
   42SOL    HW3  199   1.996   0.400   2.569 -0.2432  0.3213 -1.2110
   42SOL    MW4  200   1.918   0.436   2.580 -0.3916 -0.2324 -0.4705
   43SOL     OW  201   2.041   3.027   1.527  0.1221  0.4613  0.3602
   43SOL    HW2  202   2.030   2.956   1.590  0.6320  0.1724  0.1254
   43SOL    HW3  203   1.991   3.099   1.564 -0.9564 -0.2287  0.2739
   43SOL    MW4  204   2.033   3.027   1.540  0.0471  0.3321  0.3178
   44SOL     OW  205   1.122   2.126   4.193  0.2238 -0.4823  0.0170
   44SOL    HW2  206   1.189   2.195   4.187  0.0740 -0.4356 -1.2242
   44SOL    HW3  207   1.171   2.045   4.183  0.1082 -0.4494 -0.8651
   44SOL    MW4  208   1.138   2.125   4.191  0.1888 -0.4718 -0.2631
   45SOL     OW  209   3.252   1.135   0.514 -0.1289 -0.1553 -0.2821
   45SOL    HW2  210   3.312   1.195   0.557  0.2664 -0.6713 -0.1049
   45SOL    HW3  211   3.213   1.186   0.443 -0.1985  0.4618  0.1999
   45SOL    MW4  212   3.255   1.150   0.510 -0.0859 -0.1420 -0.1951
   46SOL     OW  213   0.530   3.126   4.455  0.0044  0.1866  0.0607
   46SOL    HW2  214   0.477   3.140   4.377 -1.4165 -1.3574  0.7062
   46SOL    HW3  215   0.607   3.078   4.424 -0.2855  0.0769 -0.4842
   46SOL    MW4  216   0.533   3.121   4.441 -0.2213 -0.0316  0.0740
   47SOL     OW  217   1.340   2.757   2.499 -0.2119 -0.1689  0.0080
   47SOL    HW2  218   1.392   2.693   2.451  0.8435  0.3338  0.4656
   47SOL    HW3  219   1.377   2.756   2.587 -1.3309 -0.1925  0.4876
   47SOL    MW4  220   1.352   2.748   2.504 -0.2203 -0.1057  0.1316
   48SOL     OW  221   0.691   2.942   1.847  0.5044  0.0985  0.1696
   48SOL    HW2  222   0.682   2.857   1.805  2.5733 -0.1673  0.1886
   48SOL    HW3  223   0.630   2.939   1.921  0.4819 -1.3259  0.1055
   48SOL    MW4  224   0.682   2.930   1.851  0.7744 -0.1245  0.1636
   49SOL     OW  225   1.823   2.066   1.930  0.3181 -0.1099  0.1343
   49SOL    HW2  226   1.851   2.044   1.842 -0.0515 -0.5822  0.1312
   49SOL    HW3  227   1.774   1.989   1.960  0.6850 -0.0691  0.8541
   49SOL    MW4  228   1.820   2.053   1.923  0.3177 -0.1669  0.2288
   50SOL     OW  229   3.581   2.213   4.345 -0.0024  0.3771  0.7818
   50SOL    HW2  230   3.567   2.295   4.297 -0.5426 -0.6133 -0.7774
   50SOL    HW3  231   3.546   2.230   4.432 -0.1073  1.8057  0.4660
   50SOL    MW4  232   3.575   2.226   4.350 -0.0875  0.4349  0.5344
   51SOL     OW  233   1.289   1.292   4.625  0.1693 -0.0652  0.0018
   51SOL    HW2  234   1.281   1.278   4.719  0.1024  0.0030  0.0065
   51SOL    HW3  235   1.217   1.242   4.587  0.6190 -0.6709 -0.0682
   51SOL    MW4  236   1.279   1.284   4.633  0.2198 -0.1361 -0.0068
   52SOL     OW  237   0.536   2.066   3.630 -0.0671 -0.2920  0.3047
   52SOL    HW2  238   0.512   2.050   3.721  0.9666 -2.8032  0.1629
   52SOL    HW3  239   0.474   2.015   3.579  1.3284 -1.4382 -0.2712
   52SOL    MW4  240   0.525   2.058   3.635  0.2534 -0.7745  0.2100
   53SOL     OW  241   3.706   3.129   0.879 -0.9289  0.1136  0.1054
   53SOL    HW2  242   3.612   3.141   0.879 -1.0226 -0.5715 -0.7425
   53SOL    HW3  243   3.722   3.059   0.942 -0.7378  1.9467  2.1490
   53SOL    MW4  244   3.696   3.121   0.887 -0.9160  0.2651  0.2631
   54SOL     OW  245   1.735   0.540   4.280  0.0488 -0.2118 -0.2956
   54SOL    HW2  246   1.757   0.556   4.371 -0.2343 -0.3727 -0.1989
   54SOL    HW3  247   1.807   0.579   4.230 -1.8398  3.5670 -0.1845
   54SOL    MW4  248   1.748   0.547   4.285 -0.2377  0.2656 -0.2682
   55SOL     OW  249   2.666   0.445   2.569  0.1934 -0.1808 -0.4494
   55SOL    HW2  250   2.747   0.479   2.531 -0.2940  2.7524  1.0044
   55SOL    HW3  251   2.597   0.479   2.511 -0.2675  0.8713  0.7053
   55SOL    MW4  252   2.667   0.454   2.556  0.0683  0.3450 -0.1052
   56SOL     OW  253   0.038   0.436   4.063 -0.1291  0.7842 -0.1680
   56SOL    HW2  254  -0.049   0.475   4.052 -0.3369  0.5518  0.6173
   56SOL    HW3  255   0.064   0.459   4.153  0.4200  0.4533 -0.2357
   56SOL    MW4  256   0.030   0.444   4.074 -0.0841  0.7099 -0.0733
   57SOL     OW  257   2.281   2.019   4.042 -0.2039 -0.2349 -0.5506
   57SOL    HW2  258   2.304   2.095   4.096 -0.0487 -0.5338 -0.1911
   57SOL    HW3  259   2.185   2.018   4.043 -0.2013 -0.2675 -0.2420
   57SOL    MW4  260   2.271   2.029   4.049 -0.1831 -0.2787 -0.4625
   58SOL     OW  261   2.290   0.865   1.219  0.0947  0.3142 -0.3076
   58SOL    HW2  262   2.281   0.960   1.211 -0.1112  0.2779 -0.5139
   58SOL    HW3  263   2.384   0.850   1.223  0.1019  0.6367  1.1071
   58SOL    MW4  264   2.301   0.876   1.218  0.0685  0.3520 -0.1482
   59SOL     OW  265   2.141   1.636   3.419  0.3005 -0.1664  0.5087
   59SOL    HW2  266   2.157   1.559   3.365 -2.2152  0.1323 -0.7088
   59SOL    HW3  267   2.214   1.695   3.400  0.5335 -0.9198 -0.9755
   59SOL    MW4  268   2.153   1.634   3.410 -0.0007 -0.2264  0.1523
   60SOL     OW  269   3.157   2.606   1.218 -0.3504  0.1108  0.1218
   60SOL    HW2  270   3.108   2.523   1.221  0.4808 -0.3647  1.1653
   60SOL    HW3  271   3.134   2.649   1.300  0.5425  0.1313  0.3661
   60SOL    MW4  272   3.147   2.600   1.229 -0.1229  0.0507  0.2917
   61SOL     OW  273   4.044   0.351   2.047 -0.2478 -0.2949 -0.3656
   61SOL    HW2  274   4.110   0.289   2.014  0.5517 -0.8395  2.1550
   61SOL    HW3  275   3.979   0.296   2.090 -0.2177  0.5130  0.7337
   61SOL    MW4  276   4.044   0.335   2.048 -0.1384 -0.2602  0.1120
   62SOL     OW  277   0.481   0.538   3.843  0.1034 -0.2460  0.0857
   62SOL    HW2  278   0.510   0.451   3.818  0.1843 -0.5265  1.1266
   62SOL    HW3  279   0.387   0.530   3.857 -0.0338  0.0351 -0.6395
   62SOL    MW4  280   0.472   0.526   3.842  0.0960 -0.2459  0.1274
   63SOL     OW  281   0.253   2.161   3.510 -0.6566  0.0148  0.7324
   63SOL    HW2  282   0.287   2.249   3.494  1.1500 -0.6607  0.7622
   63SOL    HW3  283   0.205   2.139   3.430 -0.1274  0.5844  0.2492
   63SOL    MW4  284   0.251   2.170   3.497 -0.3484  0.0008  0.6726
   64SOL     OW  285   0.849   3.859   2.019  0.1576 -0.5084 -0.1089
   64SOL    HW2  286   0.765   3.812   2.022  0.0569 -0.4097 -1.2342
   64SOL    HW3  287   0.913   3.794   2.048 -0.5046 -0.0964  2.3852
   64SOL    MW4  288   0.846   3.844   2.023  0.0570 -0.4410  0.0717
   65SOL     OW  289   0.162   2.187   1.982  0.0448 -0.0964 -0.2305
   65SOL    HW2  290   0.077   2.220   2.011  1.4475  1.0529  2.7340
   65SOL    HW3  291   0.164   2.096   2.014 -0.2273 -0.2376 -0.6195
   65SOL    MW4  292   0.151   2.179   1.990  0.1939  0.0366  0.1093
   66SOL     OW  293   1.105   1.983   2.716 -0.3449 -0.1390 -0.8966
   66SOL    HW2  294   1.032   2.022   2.668  1.3255 -0.2260 -3.6340
   66SOL    HW3  295   1.102   1.890   2.695 -1.2632 -0.6948  1.5028
   66SOL    MW4  296   1.095   1.976   2.707 -0.2456 -0.2238 -0.9412
   67SOL     OW  297   4.001   3.055   4.220  0.0073  0.6213 -0.0652
   67SOL    HW2  298   3.997   3.079   4.127  1.5776 -0.6464 -0.4850
   67SOL    HW3  299   3.970   2.964   4.222  0.8478  0.3500  0.5311
   67SOL    MW4  300   3.996   3.046   4.208  0.3254  0.4182 -0.0419
   68SOL     OW  301   3.108   2.816   1.424  0.5099  0.2261  0.4424
   68SOL    HW2  302   3.201   2.822   1.401  0.5310  1.7991  0.8853
   68SOL    HW3  303   3.076   2.906   1.418 -1.0183 -0.3251  0.1871
   68SOL    MW4  304   3.116   2.828   1.420  0.3111  0.3609  0.4672
   69SOL     OW  305   0.759   1.373   1.097  0.2213  0.1193  0.2036
   69SOL    HW2  306   0.776   1.428   1.021  0.1182 -0.4834 -0.2540
   69SOL    HW3  307   0.689   1.314   1.069  0.1881 -0.1102  0.7596
   69SOL    MW4  308   0.752   1.372   1.083  0.2033  0.0095  0.2166
   70SOL     OW  309   1.921   3.130   1.973 -0.0077 -0.4488 -0.0229
   70SOL    HW2  310   1.858   3.060   1.956 -0.6140 -0.3717  1.8813
   70SOL    HW3  311   1.872   3.196   2.022  1.3927 -0.1290  0.9771
   70SOL    MW4  312   1.907   3.129   1.977  0.0971 -0.3964  0.3603
   71SOL     OW  313   4.216   0.672   0.463  0.0986  0.2185 -0.0890
   71SOL    HW2  314   4.305   0.698   0.437  0.1053  0.1732 -0.1135
   71SOL    HW3  315   4.173   0.755   0.485  0.0901  0.2585 -0.2541
   71SOL    MW4  316   4.222   0.687   0.462  0.0983  0.2178 -0.1140
   72SOL     OW  317   2.247   1.543   4.428  0.1798  0.0854 -0.6886
   72SOL    HW2  318   2.168   1.563   4.378  0.2845  3.1015  0.2846
   72SOL    HW3  319   2.215   1.491   4.502 -0.6966  0.2030 -0.9751
   72SOL    MW4  320   2.232   1.539   4.431  0.0780  0.4989 -0.5980
   73SOL     OW  321   3.240   0.901   3.605  0.2910  0.2998  0.3249
   73SOL    HW2  322   3.304   0.831   3.615  0.2320 -0.0926 -1.7665
   73SOL    HW3  323   3.292   0.980   3.589  0.2789 -0.1122 -1.8999
   73SOL    MW4  324   3.255   0.902   3.604  0.2816  0.1937 -0.2446
   74SOL     OW  325   0.208   4.090   0.998  0.3222  0.0662 -0.7055
   74SOL    HW2  326   0.206   4.113   0.905 -0.3563 -0.1026 -0.7327
   74SOL    HW3  327   0.191   4.172   1.044  0.5533  0.1287 -0.7284
   74SOL    MW4  328   0.206   4.104   0.992  0.2632  0.0522 -0.7121
   75SOL     OW  329   2.603   2.090   3.687 -0.4587 -0.4578  0.0882
   75SOL    HW2  330   2.598   2.135   3.602 -0.7889 -1.0781 -0.2286
   75SOL    HW3  331   2.517   2.105   3.727  0.6285  2.2138  1.5621
   75SOL    MW4  332   2.591   2.098   3.681 -0.3588 -0.1872  0.2409
   76SOL     OW  333   1.084   2.549   1.996  0.4780  0.4235 -0.2810
   76SOL    HW2  334   1.108   2.641   2.005  1.3789  0.2196 -0.4963
   76SOL    HW3  335   1.126   2.506   2.071 -0.3756  0.2627  0.1133
   76SOL    MW4  336   1.093   2.556   2.007  0.4842  0.3754 -0.2574
   77SOL     OW  337   1.739   2.812   2.784 -0.0438 -0.0106  0.1368
   77SOL    HW2  338   1.755   2.897   2.824  0.7920  0.5519 -1.3803
   77SOL    HW3  339   1.821   2.790   2.739 -0.0582 -1.8596  0.9309
   77SOL    MW4  340   1.752   2.820   2.783  0.0645 -0.1804  0.0414
   78SOL     OW  341   3.343   1.687   1.383  0.0926 -0.0206 -0.6197
   78SOL    HW2  342   3.333   1.757   1.319 -0.0160  0.2142 -0.3469
   78SOL    HW3  343   3.305   1.610   1.341  0.0987  0.1126 -0.8696
   78SOL    MW4  344   3.337   1.686   1.369  0.0790  0.0279 -0.6167
   79SOL     OW  345   1.371   3.093   2.888 -0.4869  0.1969  0.3979
   79SOL    HW2  346   1.418   3.031   2.944 -1.3080 -0.3415  0.4987
   79SOL    HW3  347   1.431   3.110   2.815  0.5311  0.8114  1.3823
   79SOL    MW4  348   1.385   3.087   2.886 -0.4609  0.2070  0.5411
   80SOL     OW  349   3.687   2.154   1.279  0.0755 -0.1984  0.2204
   80SOL    HW2  350   3.729   2.084   1.329  0.0137 -0.4505 -0.0709
   80SOL    HW3  351   3.747   2.170   1.206 -0.2402 -0.4245 -0.0895
   80SOL    MW4  352   3.700   2.147   1.276  0.0257 -0.2615  0.1411
   81SOL     OW  353   4.448   2.690   1.438  0.1864  0.1440 -0.6111
   81SOL    HW2  354   4.388   2.756   1.472 -0.1389 -0.1278 -0.6616
   81SOL    HW3  355   4.439   2.615   1.497 -0.8533 -0.5698 -1.6437
   81SOL    MW4  356   4.439   2.689   1.450  0.0063  0.0140 -0.7540
   82SOL     OW  357   1.593   1.233   0.460  0.1904 -0.3000 -0.0390
   82SOL    HW2  358   1.522   1.186   0.416  0.2322 -0.2088 -0.2057
   82SOL    HW3  359   1.577   1.325   0.440  0.2219 -0.2596  0.1200
   82SOL    MW4  360   1.581   1.239   0.452  0.2001 -0.2826 -0.0400
   83SOL     OW  361   2.282   0.947   4.104 -0.3258 -0.8284 -0.4154
   83SOL    HW2  362   2.233   0.958   4.023 -0.1776 -0.9234 -0.5182
   83SOL    HW3  363   2.240   1.007   4.165 -0.3443 -0.6493 -0.6038
   83SOL    MW4  364   2.270   0.956   4.101 -0.3087 -0.8173 -0.4538
   84SOL     OW  365   0.982   2.193   0.752  0.1384  0.1513  0.3476
   84SOL    HW2  366   0.895   2.193   0.792 -0.3662  0.8799 -0.7203
   84SOL    HW3  367   1.020   2.277   0.778  0.1810  0.2081  0.1019
   84SOL    MW4  368   0.975   2.204   0.761  0.0774  0.2549  0.1743
   85SOL     OW  369   0.390   1.204   3.754  0.0243  0.2817 -0.0589
   85SOL    HW2  370   0.431   1.120   3.772 -1.1216 -0.3025 -0.1645
   85SOL    HW3  371   0.447   1.246   3.690  0.7570 -0.2835  0.2216
   85SOL    MW4  372   0.403   1.199   3.748 -0.0302  0.1300 -0.0358
   86SOL     OW  373   0.869   3.772   2.955  0.2399  0.4045  0.2885
   86SOL    HW2  374   0.828   3.771   3.041  1.1095 -0.3117  0.7032
   86SOL    HW3  375   0.869   3.864   2.929  0.3092  0.6635  1.2095
   86SOL    MW4  376   0.863   3.784   2.963  0.3638  0.3442  0.4648
   87SOL     OW  377   0.889   4.525   4.086  0.2526  0.3607 -0.2825
   87SOL    HW2  378   0.862   4.564   4.170  0.0057  0.8442 -0.5820
   87SOL    HW3  379   0.983   4.538   4.083  0.1099  1.3482 -0.5837
   87SOL    MW4  380   0.898   4.532   4.097  0.2012  0.5548 -0.3617
   88SOL     OW  381   1.710   2.984   1.619  0.1093  0.0057 -0.4312
   88SOL    HW2  382   1.761   2.908   1.591  1.2942  0.4292  0.4912
   88SOL    HW3  383   1.692   2.967   1.712  0.4551  0.8819 -0.1979
   88SOL    MW4  384   1.715   2.971   1.628  0.3112  0.1772 -0.2787
   89SOL     OW  385   3.951   1.414   3.626 -0.4347  0.3126 -0.0251
   89SOL    HW2  386   3.923   1.324   3.644 -0.7405  0.2145 -0.9665
   89SOL    HW3  387   3.960   1.454   3.713  1.4556 -1.1359  0.4842
   89SOL    MW4  388   3.948   1.407   3.640 -0.2257  0.1086 -0.0821
   90SOL     OW  389   2.135   4.572   2.839 -0.0136 -0.4147 -1.2304
   90SOL    HW2  390   2.165   4.507   2.902 -0.1347  0.4619 -0.2472
   90SOL    HW3  391   2.202   4.640   2.841 -0.8062  0.3695 -0.8617
   90SOL    MW4  392   2.148   4.573   2.847 -0.1342 -0.1956 -1.0520
   91SOL     OW  393   0.606   0.357   1.800 -0.2108  0.2041 -0.2323
   91SOL    HW2  394   0.691   0.396   1.821 -0.9767  1.3983  0.7317
   91SOL    HW3  395   0.602   0.279   1.855 -0.1048  0.6178  0.3702
   91SOL    MW4  396   0.617   0.352   1.810 -0.2979  0.4162 -0.0256
   92SOL     OW  397   2.742   1.960   1.833  0.6537 -0.4276 -0.4956
   92SOL    HW2  398   2.772   2.026   1.896  1.6031 -1.5873  0.2876
   92SOL    HW3  399   2.745   1.878   1.882 -0.1504 -1.1038 -1.5829
   92SOL    MW4  400   2.747   1.958   1.848  0.6729 -0.6698 -0.5357
   93SOL     OW  401   4.208   1.848   0.655 -0.1603  0.2511 -0.1497
   93SOL    HW2  402   4.232   1.922   0.598 -1.3506  1.2149  0.5619
   93SOL    HW3  403   4.113   1.854   0.662 -0.0649 -0.0272  1.6894
   93SOL    MW4  404   4.199   1.859   0.648 -0.3047  0.3415  0.1868
   94SOL     OW  405   1.844   1.494   2.327 -0.3542  0.1699  0.4816
   94SOL    HW2  406   1.763   1.448   2.305 -0.4604  1.2022 -1.3677
   94SOL    HW3  407   1.816   1.562   2.389 -0.6677 -0.3420  0.9141
   94SOL    MW4  408   1.829   1.497   2.332 -0.4095  0.2386  0.2946
   95SOL     OW  409   1.208   4.616   1.106  0.3550 -0.4231 -0.5224
   95SOL    HW2  410   1.193   4.521   1.108 -1.7212 -0.1134 -0.7512
   95SOL    HW3  411   1.131   4.652   1.063  1.5040  1.3213 -1.1756
   95SOL    MW4  412   1.196   4.608   1.101  0.2327 -0.1521 -0.6388
   96SOL     OW  413   2.240   3.546   4.324  0.0919 -0.4374 -0.0993
   96SOL    HW2  414   2.160   3.581   4.285 -1.3142 -2.5491  0.8004
   96SOL    HW3  415   2.288   3.509   4.251  0.4890  1.2156 -0.7078
   96SOL    MW4  416   2.236   3.546   4.310 -0.0412 -0.4979 -0.0609
   97SOL     OW  417   1.353   1.495   0.695  0.7350 -0.3459 -0.0484
   97SOL    HW2  418   1.271   1.447   0.692 -0.0081  0.9562 -0.7308
   97SOL    HW3  419   1.331   1.579   0.736  1.4936  0.4326 -1.2121
   97SOL    MW4  420   1.340   1.500   0.700  0.7370 -0.0714 -0.2919
   98SOL     OW  421   0.425   3.623   3.440 -0.0466 -0.6539 -0.4811
   98SOL    HW2  422   0.391   3.712   3.451  1.7373  0.0310 -0.4526
   98SOL    HW3  423   0.416   3.606   3.346  1.4529  0.3252 -0.8217
   98SOL    MW4  424   0.419   3.633   3.429  0.3866 -0.4343 -0.5223
   99SOL     OW  425   0.302   0.698   0.701 -0.5252  0.2218 -0.0520
   99SOL    HW2  426   0.231   0.759   0.724  0.2421  0.3878  1.9495
   99SOL    HW3  427   0.268   0.612   0.726 -0.6396  0.1143 -0.5775
   99SOL    MW4  428   0.288   0.695   0.707 -0.4391  0.2295  0.1427
  100SOL     OW  429   2.967   2.193   4.422 -0.2821  0.2844 -0.1554
  100SOL    HW2  430   2.953   2.099   4.428  0.5698  0.1619 -0.0032
  100SOL    HW3  431   2.879   2.230   4.416 -0.5908 -0.5734 -1.0683
  100SOL    MW4  432   2.954   2.185   4.422 -0.2105  0.1551 -0.2558
  101SOL     OW  433   1.440   2.746   2.099 -0.0933  0.3196 -0.1995
  101SOL    HW2  434   1.495   2.820   2.123  0.7328 -0.4787  0.3756
  101SOL    HW3  435   1.353   2.785   2.086  0.3827  1.4226 -0.1415
  101SOL    MW4  436   1.435   2.761   2.100  0.0785  0.3598 -0.1160
  102SOL     OW  437   1.360   0.114   1.596  0.2656  0.1751 -0.0021
  102SOL    HW2  438   1.330   0.068   1.674 -2.3222  0.7357 -0.6464
  102SOL    HW3  439   1.324   0.064   1.523  0.1757  1.3716 -0.7859
  102SOL    MW4  440   1.351   0.101   1.596 -0.0877  0.4069 -0.1905
  103SOL     OW  441   3.694   2.658   0.765 -0.3254 -0.0076  0.0940
  103SOL    HW2  442   3.682   2.714   0.688  2.8743 -0.1506 -0.5600
  103SOL    HW3  443   3.676   2.570   0.733  0.5180 -0.0103 -0.3801
  103SOL    MW4  444   3.690   2.654   0.751  0.2080 -0.0268 -0.0549
  104SOL     OW  445   2.005   3.025   4.071  0.1669 -0.0472  1.0050
  104SOL    HW2  446   1.994   3.105   4.019 -0.3722 -0.3887  0.5892
  104SOL    HW3  447   2.029   2.958   4.007  0.0363 -0.3498  1.2699
  104SOL    MW4  448   2.007   3.027   4.056  0.0786 -0.1322  0.9851
  105SOL     OW  449   0.429   3.071   0.854 -0.2776  0.0101 -0.3125
  105SOL    HW2  450   0.415   2.978   0.836  0.6397  0.1517 -1.8430
  105SOL    HW3  451   0.514   3.073   0.899 -0.9779 -0.0179  1.0335
  105SOL    MW4  452   0.439   3.059   0.858 -0.2490  0.0251 -0.3368
  106SOL     OW  453   1.246   1.274   1.279  0.0492 -0.5484 -0.4596
  106SOL    HW2  454   1.260   1.338   1.209  0.3129  1.0036  0.9906
  106SOL    HW3  455   1.213   1.326   1.352  0.8747 -1.9791  0.9418
  106SOL    MW4  456   1.244   1.289   1.279  0.1929 -0.5324 -0.0834
  107SOL     OW  457   0.763   0.169   4.501 -0.0793  0.5961 -0.2307
  107SOL    HW2  458   0.826   0.241   4.505 -1.2860  1.6042  1.5523
  107SOL    HW3  459   0.690   0.204   4.450 -0.0930  0.1728 -0.5001
  107SOL    MW4  460   0.762   0.183   4.495 -0.2403  0.6732 -0.0310
  108SOL     OW  461   3.913   0.261   3.149 -0.1941  0.5296 -0.3930
  108SOL    HW2  462   3.989   0.230   3.199 -0.7566 -0.7683 -0.3257
  108SOL    HW3  463   3.845   0.196   3.164 -0.6792  0.6065 -2.0726
  108SOL    MW4  464   3.914   0.248   3.157 -0.3323  0.3685 -0.6057
  109SOL     OW  465   4.374   0.713   3.882  0.3296 -0.5880  0.4584
  109SOL    HW2  466   4.294   0.733   3.931 -0.6337  1.9280 -2.0008
  109SOL    HW3  467   4.442   0.766   3.924  0.1507 -0.6642  0.8483
  109SOL    MW4  468   4.372   0.722   3.894  0.1789 -0.2661  0.1854
  110SOL     OW  469   1.148   0.088   4.373 -0.1189 -0.0296 -0.0614
  110SOL    HW2  470   1.128   0.123   4.286  1.6817  0.6095 -0.2505
  110SOL    HW3  471   1.138  -0.006   4.364 -0.9819  0.1120 -0.6716
  110SOL    MW4  472   1.144   0.080   4.360  0.0048  0.0734 -0.1669
  111SOL     OW  473   2.694   3.723   2.222 -0.4759  0.2381 -0.2866
  111SOL    HW2  474   2.695   3.688   2.133 -2.6411  1.7506 -0.9465
  111SOL    HW3  475   2.775   3.773   2.230 -1.1509  1.6688 -2.1026
  111SOL    MW4  476   2.705   3.725   2.212 -0.8507  0.6264 -0.6133
  112SOL     OW  477   1.079   3.117   0.517  0.2203 -0.3123  0.1224
  112SOL    HW2  478   0.984   3.133   0.520  0.4063  0.8215  0.3264
  112SOL    HW3  479   1.096   3.060   0.592 -0.2614 -0.2671  0.2707
  112SOL    MW4  480   1.068   3.112   0.528  0.1813 -0.1568  0.1689
  113SOL     OW  481   0.004   0.347   1.393  0.6300 -0.1765  0.7391
  113SOL    HW2  482  -0.016   0.260   1.428 -1.5604  0.3041  0.7741
  113SOL    HW3  483   0.033   0.397   1.470  0.1777 -0.3855  1.0485
  113SOL    MW4  484   0.005   0.342   1.408  0.2813 -0.1407  0.7846
  114SOL     OW  485   1.700   2.292   1.379 -0.1641  0.1819  0.0765
  114SOL    HW2  486   1.764   2.269   1.447 -0.2857 -1.8755 -0.4765
  114SOL    HW3  487   1.738   2.258   1.298 -1.4155 -0.0330 -0.4343
  114SOL    MW4  488   1.714   2.284   1.378 -0.3452 -0.1179 -0.0639
  115SOL     OW  489   2.312   0.529   1.191  0.1193 -0.1725 -0.1597
  115SOL    HW2  490   2.349   0.444   1.167 -0.2361 -0.3066 -0.2376
  115SOL    HW3  491   2.220   0.524   1.163  0.5697  0.9219 -1.8663
  115SOL    MW4  492   2.305   0.517   1.184  0.1319 -0.0458 -0.3951
  116SOL     OW  493   1.584   4.256   2.705 -0.1845 -0.0774 -0.2889
  116SOL    HW2  494   1.647   4.194   2.668 -0.2337  0.1104 -0.6985
  116SOL    HW3  495   1.509   4.251   2.645  0.3987  1.4737 -1.1781
  116SOL    MW4  496   1.582   4.247   2.692 -0.1141  0.1520 -0.4602
  117SOL     OW  497   0.967   4.651   2.620  0.2140  0.1138  0.5260
  117SOL    HW2  498   0.933   4.740   2.608 -0.5747 -0.1989  0.3643
  117SOL    HW3  499   1.031   4.640   2.550  0.7005  0.7410  0.8708
  117SOL    MW4  500   0.971   4.662   2.609  0.1741  0.1553  0.5502
  118SOL     OW  501   4.158   3.793   4.240  0.4953  0.2343  0.4181
  118SOL    HW2  502   4.164   3.715   4.295  2.0654  1.1834  1.6254
  118SOL    HW3  503   4.093   3.770   4.173  1.2585 -2.2588  0.4874
  118SOL    MW4  504   4.150   3.779   4.238  0.8031  0.0306  0.5865
  119SOL     OW  505   2.477   1.427   2.755 -0.1067 -0.2145  0.2519
  119SOL    HW2  506   2.531   1.505   2.764 -1.8281  0.9367  0.6793
  119SOL    HW3  507   2.527   1.358   2.800  1.6812  0.4850 -0.6284
  119SOL    MW4  508   2.491   1.428   2.762 -0.0980  0.0297  0.1922
  120SOL     OW  509   0.750   1.372   2.645  0.4769 -0.1421 -0.0574
  120SOL    HW2  510   0.808   1.316   2.696  1.0940 -0.0274 -0.6234
  120SOL    HW3  511   0.707   1.428   2.709  1.2061 -0.0342  0.3396
  120SOL    MW4  512   0.752   1.372   2.660  0.6545 -0.1128 -0.0797
  121SOL     OW  513   3.418   1.721   3.725  0.6317 -0.2504 -0.0276
  121SOL    HW2  514   3.371   1.659   3.669  0.9511 -0.3762 -0.1570
  121SOL    HW3  515   3.492   1.671   3.759  0.7041 -0.0356  0.1330
  121SOL    MW4  516   3.421   1.706   3.722  0.6834 -0.2386 -0.0235
  122SOL     OW  517   3.332   0.415   1.979 -0.0842  0.3411  0.0582
  122SOL    HW2  518   3.307   0.447   2.066 -0.3729 -1.2720  0.5800
  122SOL    HW3  519   3.290   0.477   1.918  0.0462  1.4284  1.0524
  122SOL    MW4  520   3.323   0.428   1.982 -0.1051  0.2717  0.2582
  123SOL     OW  521   3.258   1.865   1.154  0.2322 -0.0279  0.2371
  123SOL    HW2  522   3.213   1.809   1.090 -0.3918  2.0435 -1.2056
  123SOL    HW3  523   3.348   1.869   1.122  0.6918 -1.4954  1.2723
  123SOL    MW4  524   3.264   1.858   1.141  0.2105  0.0518  0.1833
  124SOL     OW  525   3.886   4.261   3.448  0.2454  0.2563 -0.4072
  124SOL    HW2  526   3.911   4.230   3.536  1.5464  0.4587 -0.7038
  124SOL    HW3  527   3.833   4.190   3.413 -2.4152  1.2337  1.5019
  124SOL    MW4  528   3.882   4.247   3.455  0.0660  0.4119 -0.1945
  125SOL     OW  529   0.508   1.490   4.463  0.1697 -1.0028  0.0556
  125SOL    HW2  530   0.582   1.544   4.491 -0.5284 -1.8724  3.8478
  125SOL    HW3  531   0.447   1.552   4.422  0.0457  0.8753  2.9802
  125SOL    MW4  532   0.510   1.505   4.461  0.0613 -0.8698  0.9418
  126SOL     OW  533   0.955   1.515   2.899  0.6758 -0.1990  0.3434
  126SOL    HW2  534   0.985   1.459   2.828  1.7240  1.4018 -0.5233
  126SOL    HW3  535   1.009   1.491   2.974  0.4000 -1.0575  0.2660
  126SOL    MW4  536   0.966   1.505   2.900  0.7777 -0.1011  0.2188
  127SOL     OW  537   1.558   4.515   4.250  0.6462 -0.1517  0.4810
  127SOL    HW2  538   1.647   4.483   4.238  0.8138  0.3252  0.4632
  127SOL    HW3  539   1.536   4.558   4.167  0.3243 -0.4509  0.4081
  127SOL    MW4  540   1.567   4.516   4.237  0.6258 -0.1283  0.4690
  128SOL     OW  541   2.441   3.428   2.207 -0.0553 -0.1444 -0.6035
  128SOL    HW2  542   2.426   3.343   2.166 -1.4271 -0.0336 -0.3320
  128SOL    HW3  543   2.397   3.491   2.150 -0.4882  0.2039  0.1140
  128SOL    MW4  544   2.433   3.425   2.194 -0.2934 -0.0838 -0.4730
  129SOL     OW  545   0.879   2.708   2.765  0.4569 -0.5720 -0.3831
  129SOL    HW2  546   0.786   2.693   2.745  0.2219 -0.3407  0.5139
  129SOL    HW3  547   0.886   2.803   2.774  0.9920 -0.5029 -1.4338
  129SOL    MW4  548   0.867   2.719   2.763  0.4965 -0.5324 -0.4034
  130SOL     OW  549   0.360   3.445   0.450 -0.6632  0.1886 -0.4293
  130SOL    HW2  550   0.350   3.353   0.477 -0.4594  0.7409  1.5472
  130SOL    HW3  551   0.297   3.493   0.503 -0.0640  1.3448 -0.7479
  130SOL    MW4  552   0.350   3.439   0.460 -0.5573  0.4140 -0.2106
  131SOL     OW  553   1.534   3.927   2.965 -0.5357  0.0592 -0.2791
  131SOL    HW2  554   1.446   3.900   2.940 -0.1541 -0.7836 -0.7484
  131SOL    HW3  555   1.589   3.903   2.890  0.3839 -1.0877  0.7401
  131SOL    MW4  556   1.530   3.920   2.951 -0.3640 -0.2033 -0.2065
  132SOL     OW  557   4.102   0.947   3.026  0.1800  0.1012  0.0928
  132SOL    HW2  558   4.013   0.959   2.993  0.2238 -0.8484 -0.3557
  132SOL    HW3  559   4.121   1.029   3.071 -0.7199  0.5208 -0.2765
  132SOL    MW4  560   4.093   0.960   3.028  0.0670  0.0313 -0.0151
  133SOL     OW  561   0.161   4.338   1.120 -0.4276  0.0646  0.1445
  133SOL    HW2  562   0.242   4.374   1.154 -0.7189 -0.4127  1.3509
  133SOL    HW3  563   0.154   4.375   1.032  0.6574  0.7806  0.3475
  133SOL    MW4  564   0.170   4.347   1.113 -0.3228  0.0961  0.3304
  134SOL     OW  565   2.914   2.400   2.277 -0.3308  0.2408 -0.0487
  134SOL    HW2  566   2.855   2.407   2.352 -2.4456 -0.5053 -1.6024
  134SOL    HW3  567   2.961   2.318   2.292 -0.7290  0.1090  0.4938
  134SOL    MW4  568   2.912   2.390   2.289 -0.6624  0.1249 -0.1821
  135SOL     OW  569   0.426   2.180   2.594  0.5911 -0.4332  0.1452
  135SOL    HW2  570   0.395   2.271   2.590  0.8396 -0.3958 -1.2750
  135SOL    HW3  571   0.390   2.139   2.515  0.4953 -1.5625  0.7713
  135SOL    MW4  572   0.417   2.187   2.583  0.6113 -0.5773  0.0405
  136SOL     OW  573   2.903   0.570   3.539  0.6370  0.6504  0.0644
  136SOL    HW2  574   2.820   0.585   3.494  1.3704  1.2241 -1.1357
  136SOL    HW3  575   2.878   0.539   3.626 -0.8439  1.3472 -0.0895
  136SOL    MW4  576   2.889   0.568   3.544  0.5384  0.8180 -0.1143
  137SOL     OW  577   3.743   4.355   2.616  0.0358 -0.3976  0.1962
  137SOL    HW2  578   3.829   4.380   2.649 -0.0288 -2.5566  2.1500
  137SOL    HW3  579   3.750   4.261   2.598 -2.3420 -0.9756  1.9985
  137SOL    MW4  580   3.755   4.346   2.618 -0.2864 -0.7587  0.6918
  138SOL     OW  581   0.785   3.913   1.638 -0.1922 -0.3710 -0.3984
  138SOL    HW2  582   0.734   3.951   1.566  0.1476 -0.6614 -0.7981
  138SOL    HW3  583   0.860   3.871   1.594  1.5812  1.9098  0.3187
  138SOL    MW4  584   0.788   3.912   1.623  0.0866 -0.1084 -0.3565
  139SOL     OW  585   1.422   2.240   1.446 -0.3318 -0.2865  0.6800
  139SOL    HW2  586   1.392   2.322   1.487 -2.7896 -0.9853  0.3510
  139SOL    HW3  587   1.508   2.261   1.410 -1.0148  2.2156  0.4277
  139SOL    MW4  588   1.429   2.254   1.447 -0.7462 -0.0486  0.6033
  140SOL     OW  589   3.366   3.327   3.571 -0.4624  0.0462 -0.2999
  140SOL    HW2  590   3.294   3.390   3.560  0.0777  0.7381  0.0381
  140SOL    HW3  591   3.380   3.291   3.484 -0.3995  0.8216 -0.6165
  140SOL    MW4  592   3.358   3.331   3.558 -0.3829  0.2398 -0.2970
  141SOL     OW  593   1.107   0.921   4.313  0.0740  0.1916  0.0069
  141SOL    HW2  594   1.026   0.869   4.319  0.5534 -0.5121  0.5277
  141SOL    HW3  595   1.091   0.996   4.369 -1.1944  1.4061 -1.9068
  141SOL    MW4  596   1.094   0.924   4.321 -0.0301  0.2590 -0.1769
  142SOL     OW  597   3.341   2.973   3.054 -0.3391 -0.0226  0.4409
  142SOL    HW2  598   3.358   2.894   3.003 -0.4181  0.2129  0.0525
  142SOL    HW3  599   3.428   3.004   3.079 -0.2001  1.0782 -1.3940
  142SOL    MW4  600   3.355   2.966   3.051 -0.3312  0.1537  0.1475
  143SOL     OW  601   1.807   0.183   1.148 -0.3590  0.1078  0.2887
  143SOL    HW2  602   1.783   0.219   1.063 -0.9218  1.1278  0.8716
  143SOL    HW3  603   1.722   0.167   1.191 -0.1527 -2.2142 -0.0740
  143SOL    MW4  604   1.792   0.185   1.142 -0.4061 -0.0640  0.3177
  144SOL     OW  605   0.096   0.907   3.975 -0.0465 -0.3508  0.1966
  144SOL    HW2  606   0.123   0.958   3.899 -1.1630  1.0684  0.7365
  144SOL    HW3  607   0.171   0.850   3.994 -0.2474 -1.6693 -2.7566
  144SOL    MW4  608   0.109   0.906   3.968 -0.2203 -0.3375 -0.1218
  145SOL     OW  609   0.818   2.481   1.145  0.0081 -0.0409 -0.0888
  145SOL    HW2  610   0.761   2.518   1.212  1.3427 -1.7659  2.0757
  145SOL    HW3  611   0.898   2.457   1.192  0.8868 -1.5241 -2.2466
  145SOL    MW4  612   0.821   2.483   1.160  0.3001 -0.4642 -0.0879
  146SOL     OW  613   0.429   2.419   1.061 -0.3640 -0.6107 -0.1155
  146SOL    HW2  614   0.356   2.417   1.123 -1.6571  1.0227 -1.5319
  146SOL    HW3  615   0.445   2.512   1.045 -1.0939 -0.9950 -3.3861
  146SOL    MW4  616   0.422   2.431   1.067 -0.6309 -0.4459 -0.7339
  147SOL     OW  617   0.967   0.056   1.009 -0.0016 -0.1346 -0.3206
  147SOL    HW2  618   0.991   0.145   0.984  1.0281 -1.4233 -4.3192
  147SOL    HW3  619   0.910   0.026   0.937 -1.4171 -2.2553  1.6234
  147SOL    MW4  620   0.962   0.064   0.996 -0.0525 -0.5845 -0.5917
  148SOL     OW  621   0.771   3.837   3.209 -0.0591 -0.1297 -0.2777
  148SOL    HW2  622   0.865   3.840   3.223 -0.1013 -1.2929  0.2413
  148SOL    HW3  623   0.738   3.771   3.270 -1.1398 -0.1144 -0.8158
  148SOL    MW4  624   0.779   3.829   3.219 -0.2072 -0.2811 -0.2802
  149SOL     OW  625   2.699   3.153   2.466  0.1833  0.1367  0.1326
  149SOL    HW2  626   2.622   3.102   2.492  0.1790 -0.3169 -0.7464
  149SOL    HW3  627   2.714   3.214   2.539 -0.8093  0.0065  0.4465
  149SOL    MW4  628   2.691   3.154   2.479  0.0517  0.0597  0.0580
  150SOL     OW  629   1.031   0.663   3.307 -0.5778 -0.1482  0.2126
  150SOL    HW2  630   0.948   0.710   3.316 -0.4264 -0.1808  1.7925
  150SOL    HW3  631   1.023   0.589   3.366  1.1504  0.6602  1.4869
  150SOL    MW4  632   1.019   0.660   3.316 -0.3298 -0.0458  0.5892
  151SOL     OW  633   4.366   0.158   4.105 -0.9859 -0.1919  0.1624
  151SOL    HW2  634   4.321   0.186   4.185  0.5713  1.7257  0.3970
  151SOL    HW3  635   4.395   0.239   4.064  0.1068 -1.2716 -1.2580
  151SOL    MW4  636   4.364   0.172   4.110 -0.6362 -0.0813  0.0059
  152SOL     OW  637   0.801   4.646   1.243 -0.3310  0.1219 -0.3036
  152SOL    HW2  638   0.837   4.560   1.264 -2.6755 -0.6770  0.5497
  152SOL    HW3  639   0.870   4.689   1.192  1.6484 -1.5018  0.9312
  152SOL    MW4  640   0.815   4.641   1.239 -0.3792 -0.1977 -0.0281
  153SOL     OW  641   2.171   1.536   0.749  0.3019 -0.5125 -0.2055
  153SOL    HW2  642   2.176   1.449   0.711 -1.1029 -1.1500  1.0112
  153SOL    HW3  643   2.092   1.574   0.712 -1.2043 -1.2205  2.1712
  153SOL    MW4  644   2.161   1.530   0.739 -0.0822 -0.6900  0.2686
  154SOL     OW  645   3.058   2.453   2.827  0.4235 -0.3489  0.4989
  154SOL    HW2  646   3.075   2.539   2.866 -0.3418  0.0946 -0.1284
  154SOL    HW3  647   3.011   2.405   2.895 -0.7191  0.3501  0.2287
  154SOL    MW4  648   3.054   2.458   2.841  0.1718 -0.1982  0.3805
  155SOL     OW  649   3.246   3.714   0.639 -0.4073 -0.0627 -0.3783
  155SOL    HW2  650   3.295   3.639   0.606 -1.5170  0.3915 -3.1577
  155SOL    HW3  651   3.156   3.699   0.610 -1.0304  1.3708  0.7410
  155SOL    MW4  652   3.241   3.702   0.631 -0.6360  0.1863 -0.5973
  156SOL     OW  653   2.581   2.096   2.214 -0.4219  0.0867 -0.0193
  156SOL    HW2  654   2.621   2.022   2.261  0.8924  0.2871 -0.8076
  156SOL    HW3  655   2.510   2.056   2.163  0.3779 -0.6547 -0.5568
  156SOL    MW4  656   2.577   2.081   2.213 -0.1430  0.0153 -0.1943
  157SOL     OW  657   2.482   2.989   2.522 -0.6152 -0.0727  0.4258
  157SOL    HW2  658   2.480   2.989   2.617  1.0419  0.8691  0.4731
  157SOL    HW3  659   2.407   3.044   2.496  0.2836  1.5852  1.2488
  157SOL    MW4  660   2.472   2.997   2.531 -0.2780  0.2703  0.5406
  158SOL     OW  661   0.705   4.454   2.163 -0.2939  0.0416 -0.4983
  158SOL    HW2  662   0.633   4.417   2.111 -0.4981 -0.3518  0.0595
  158SOL    HW3  663   0.748   4.515   2.104 -0.3410 -0.6289 -1.2277
  158SOL    MW4  664   0.701   4.457   2.149 -0.3271 -0.0987 -0.5209
  159SOL     OW  665   4.403   4.386   3.701 -0.1211 -0.1217  0.0303
  159SOL    HW2  666   4.364   4.355   3.619  0.7202  0.7456 -0.7189
  159SOL    HW3  667   4.334   4.438   3.742  0.0607  1.0204 -1.0611
  159SOL    MW4  668   4.389   4.389   3.695  0.0139  0.1434 -0.2125
  160SOL     OW  669   0.811   0.177   2.433  0.0307  0.1781 -0.4050
  160SOL    HW2  670   0.874   0.197   2.364 -1.0097  0.8384 -1.1589
  160SOL    HW3  671   0.754   0.110   2.396 -0.5297  0.5357 -0.2040
  160SOL    MW4  672   0.812   0.171   2.419 -0.1805  0.3124 -0.4779
  161SOL     OW  673   3.202   2.069   3.194  0.4092 -0.1100 -0.1309
  161SOL    HW2  674   3.269   2.135   3.208  0.6271 -0.2517 -0.5030
  161SOL    HW3  675   3.119   2.115   3.208  0.5345  0.4097 -1.0767
  161SOL    MW4  676   3.200   2.084   3.198  0.4545 -0.0602 -0.3048
  162SOL     OW  677   2.555   2.197   1.522  0.0766 -0.3652  0.1008
  162SOL    HW2  678   2.461   2.203   1.541 -0.1211  0.9550 -1.1898
  162SOL    HW3  679   2.559   2.155   1.436  0.5727  1.3231 -0.7120
  162SOL    MW4  680   2.543   2.192   1.513  0.1159  0.0318 -0.1767
  163SOL     OW  681   0.412   0.717   3.148  0.0984  0.2353 -0.0268
  163SOL    HW2  682   0.451   0.711   3.235 -1.4315  2.1756  0.8319
  163SOL    HW3  683   0.361   0.636   3.139 -0.6125  0.5097  1.3427
  163SOL    MW4  684   0.410   0.706   3.158 -0.1972  0.5275  0.2672
  164SOL     OW  685   3.487   3.801   3.399  0.2661  0.4408  0.0558
  164SOL    HW2  686   3.426   3.867   3.367  1.5654  1.7255  0.1592
  164SOL    HW3  687   3.439   3.755   3.468 -0.5994  1.3941  0.1025
  164SOL    MW4  688   3.473   3.803   3.404  0.3233  0.7361  0.0756
  165SOL     OW  689   0.742   2.974   3.173 -0.0998  0.0118  0.4324
  165SOL    HW2  690   0.820   2.945   3.127  0.3517  1.7689  0.0430
  165SOL    HW3  691   0.775   3.013   3.254 -0.5680  0.6234  0.3383
  165SOL    MW4  692   0.756   2.975   3.178 -0.1020  0.3243  0.3686
  166SOL     OW  693   4.199   3.553   0.885 -0.2992  0.1823 -0.0744
  166SOL    HW2  694   4.251   3.633   0.888  1.7789 -1.1315  0.3270
  166SOL    HW3  695   4.215   3.517   0.798 -0.1348 -0.4771  0.2255
  166SOL    MW4  696   4.208   3.559   0.874 -0.0033 -0.0780  0.0181
  167SOL     OW  697   0.895   0.967   0.359  0.4183  0.5237  0.2062
  167SOL    HW2  698   0.846   0.904   0.307 -1.6105  0.2197  2.4125
  167SOL    HW3  699   0.967   0.917   0.396  0.8629  0.3509 -0.8580
  167SOL    MW4  700   0.898   0.952   0.357  0.2093  0.4608  0.3569
  168SOL     OW  701   0.607   4.045   0.883  0.3406  0.4569  0.0889
  168SOL    HW2  702   0.689   4.078   0.845  0.5648 -0.3136 -0.1078
  168SOL    HW3  703   0.580   4.113   0.945  0.4219  1.3277 -0.8277
  168SOL    MW4  704   0.614   4.058   0.886  0.3809  0.4701 -0.0580
  169SOL     OW  705   1.326   0.029   0.762  0.0869  0.3554 -0.0713
  169SOL    HW2  706   1.266  -0.038   0.795 -0.4669  0.0781 -1.5742
  169SOL    HW3  707   1.326   0.015   0.667 -0.2483  2.6663 -0.4362
  169SOL    MW4  708   1.318   0.018   0.754 -0.0304  0.6237 -0.3177
  170SOL     OW  709   3.416   0.348   3.520  0.0583  1.1277 -0.2193
  170SOL    HW2  710   3.345   0.389   3.570 -0.2094 -1.0874  1.2576
  170SOL    HW3  711   3.496   0.383   3.559 -0.1516 -0.4729  1.7085
  170SOL    MW4  712   3.417   0.358   3.532 -0.0047  0.6243  0.2299
  171SOL     OW  713   0.704   0.829   3.565 -0.4112 -0.7888  0.1860
  171SOL    HW2  714   0.644   0.805   3.636 -0.4862 -1.9241 -0.2426
  171SOL    HW3  715   0.746   0.909   3.595 -1.4351 -0.5067  0.9185
  171SOL    MW4  716   0.701   0.836   3.578 -0.5562 -0.9014  0.2261
  172SOL     OW  717   2.501   3.217   2.948  0.0093  0.3072 -0.2331
  172SOL    HW2  718   2.502   3.303   2.908  1.3261  0.3181 -0.2119
  172SOL    HW3  719   2.581   3.214   3.001 -0.2016 -0.7922  0.0519
  172SOL    MW4  720   2.512   3.228   2.950  0.1552  0.1636 -0.1927
  173SOL     OW  721   2.744   2.397   2.493 -0.4322 -0.0454  0.4933
  173SOL    HW2  722   2.809   2.446   2.544  0.3766 -0.7503  0.1570
  173SOL    HW3  723   2.677   2.462   2.471  0.7604  0.9835 -0.1894
  173SOL    MW4  724   2.744   2.412   2.497 -0.1681 -0.0027  0.3589
  174SOL     OW  725   3.621   4.458   3.954 -0.6867 -0.3357 -0.2473
  174SOL    HW2  726   3.654   4.431   4.040  1.3229  0.1178 -0.8592
  174SOL    HW3  727   3.526   4.449   3.962 -0.6266  0.8397  2.4047
  174SOL    MW4  728   3.612   4.453   3.966 -0.4136 -0.1208  0.0219
  175SOL     OW  729   3.114   1.410   1.295 -0.1449 -0.5357  0.0498
  175SOL    HW2  730   3.027   1.444   1.275 -0.4996 -0.4845  1.6045
  175SOL    HW3  731   3.106   1.316   1.285 -0.0103 -0.4295 -1.1334
  175SOL    MW4  732   3.102   1.402   1.291 -0.1739 -0.5149  0.0988
  176SOL     OW  733   1.282   1.779   0.702 -0.5032 -0.2024 -0.5638
  176SOL    HW2  734   1.337   1.821   0.768 -0.6443  0.1891 -0.6955
  176SOL    HW3  735   1.194   1.815   0.717 -0.4620  0.1737 -1.2035
  176SOL    MW4  736   1.278   1.789   0.713 -0.5164 -0.1011 -0.6656
  177SOL     OW  737   2.792   0.128   2.823  0.0780 -0.4085  0.0951
  177SOL    HW2  738   2.782   0.037   2.851 -0.1674 -0.0402  1.2110
  177SOL    HW3  739   2.739   0.179   2.885 -0.7239  0.3904 -1.2226
  177SOL    MW4  740   2.784   0.123   2.835 -0.0602 -0.2545  0.0685
  178SOL     OW  741   1.988   0.191   0.531  0.3006 -0.0960 -0.1555
  178SOL    HW2  742   1.993   0.100   0.558 -0.5244 -0.2279 -0.4490
  178SOL    HW3  743   1.895   0.207   0.516  0.3196  1.0877  0.9074
  178SOL    MW4  744   1.977   0.181   0.533  0.1943  0.0428 -0.0540
  179SOL     OW  745   2.925   0.667   4.109  0.5272 -0.4831 -0.2743
  179SOL    HW2  746   2.833   0.681   4.088  0.1969 -1.0439  0.7426
  179SOL    HW3  747   2.939   0.573   4.094  1.1461 -0.2443 -1.2137
  179SOL    MW4  748   2.914   0.656   4.104  0.5653 -0.5256 -0.2641
  180SOL     OW  749   2.319   0.047   3.497 -0.0265 -0.4699 -0.4210
  180SOL    HW2  750   2.245   0.000   3.534 -1.1657  0.6860 -1.1866
  180SOL    HW3  751   2.298   0.140   3.510  1.9956 -0.1295  0.7119
  180SOL    MW4  752   2.306   0.053   3.504  0.0900 -0.2725 -0.3725
  181SOL     OW  753   3.432   4.200   0.998  0.3009  0.2027 -0.0785
  181SOL    HW2  754   3.399   4.230   0.914  0.9066  1.1495  0.0161
  181SOL    HW3  755   3.511   4.151   0.977  0.9943  1.2696  0.0113
  181SOL    MW4  756   3.438   4.198   0.984  0.4723  0.4684 -0.0542
  182SOL     OW  757   4.169   2.870   2.470  0.2551 -0.2961  0.1174
  182SOL    HW2  758   4.142   2.856   2.379 -0.3426 -1.5191  0.4853
  182SOL    HW3  759   4.117   2.945   2.499 -0.7061 -0.8913 -0.0553
  182SOL    MW4  760   4.159   2.878   2.461  0.0494 -0.5360  0.1432
  183SOL     OW  761   2.242   4.525   0.679  0.2768  0.4837 -0.2489
  183SOL    HW2  762   2.281   4.612   0.674 -1.7267  1.4074 -0.3907
  183SOL    HW3  763   2.311   4.466   0.651  2.1945  1.8740  1.4289
  183SOL    MW4  764   2.256   4.529   0.675  0.2655  0.7890 -0.0463
  184SOL     OW  765   2.701   4.255   2.459  0.5546 -0.0037  0.4714
  184SOL    HW2  766   2.613   4.255   2.497 -0.2751 -0.2007 -1.3807
  184SOL    HW3  767   2.755   4.302   2.523 -1.0590  0.7732  1.2884
  184SOL    MW4  768   2.697   4.261   2.472  0.2322  0.0728  0.3348
  185SOL     OW  769   3.049   4.066   3.288  0.4415 -0.2692  0.5876
  185SOL    HW2  770   3.125   4.008   3.288  0.8968  0.3220  0.0874
  185SOL    HW3  771   3.079   4.147   3.329  0.5866  0.5896 -1.1488
  185SOL    MW4  772   3.063   4.069   3.293  0.5207 -0.0779  0.2925
  186SOL     OW  773   4.147   4.611   1.512  0.1905  0.0683 -0.3866
  186SOL    HW2  774   4.176   4.682   1.569  0.3389 -0.8746  0.7146
  186SOL    HW3  775   4.076   4.650   1.461  1.5233  1.5806 -1.1676
  186SOL    MW4  776   4.142   4.626   1.513  0.3859  0.1434 -0.3443
  187SOL     OW  777   1.010   1.103   1.589  0.2846  0.1821  0.2080
  187SOL    HW2  778   1.003   1.189   1.546  0.0552 -0.0514 -0.2207
  187SOL    HW3  779   0.942   1.105   1.657  1.0952  0.8117  1.0215
  187SOL    MW4  780   1.000   1.115   1.592  0.3613  0.2344  0.2588
  188SOL     OW  781   3.643   0.729   3.919  0.2128  0.0875  0.2390
  188SOL    HW2  782   3.715   0.687   3.872  0.3603 -1.7188  1.9849
  188SOL    HW3  783   3.677   0.815   3.945  1.0962 -0.0339 -0.5036
  188SOL    MW4  784   3.657   0.735   3.916  0.3488 -0.1668  0.3714
  189SOL     OW  785   0.726   0.459   3.241 -0.3278 -0.3544 -0.2496
  189SOL    HW2  786   0.730   0.531   3.179  0.5892  0.2165  0.4546
  189SOL    HW3  787   0.806   0.408   3.223  0.7998  0.7417  1.5610
  189SOL    MW4  788   0.737   0.462   3.230 -0.0580 -0.1345  0.0822
  190SOL     OW  789   3.281   2.281   1.674 -0.1848 -0.2737 -0.0475
  190SOL    HW2  790   3.188   2.285   1.698 -0.7133 -1.4505 -1.8391
  190SOL    HW3  791   3.284   2.314   1.585  1.0534 -0.7562 -0.1849
  190SOL    MW4  792   3.269   2.286   1.666 -0.0911 -0.4927 -0.3020
  191SOL     OW  793   1.111   2.351   0.332  0.1969 -0.2122 -0.0163
  191SOL    HW2  794   1.133   2.401   0.411  0.9625 -1.7098  0.7265
  191SOL    HW3  795   1.028   2.308   0.354  0.0919 -0.1390 -0.2676
  191SOL    MW4  796   1.103   2.352   0.346  0.2841 -0.4001  0.0486
  192SOL     OW  797   1.557   2.957   0.486  0.7860 -0.5629 -0.1538
  192SOL    HW2  798   1.465   2.929   0.482  0.9652 -0.8700 -3.4075
  192SOL    HW3  799   1.552   3.052   0.497  0.0922 -0.6047 -0.0907
  192SOL    MW4  800   1.544   2.966   0.487  0.7181 -0.6090 -0.5748
  193SOL     OW  801   3.947   3.352   3.246  0.3001  0.2195 -0.7687
  193SOL    HW2  802   3.980   3.350   3.157  1.2503 -1.2815 -0.4017
  193SOL    HW3  803   3.945   3.261   3.274 -0.1374  0.6493  0.6979
  193SOL    MW4  804   3.951   3.340   3.238  0.3678  0.0782 -0.5268
  194SOL     OW  805   2.336   2.587   1.887 -0.1501  0.3890 -0.1909
  194SOL    HW2  806   2.350   2.494   1.872 -0.6631  0.0384  1.4011
  194SOL    HW3  807   2.372   2.630   1.810  0.2929 -1.1145 -0.8275
  194SOL    MW4  808   2.342   2.581   1.875 -0.1593  0.1443 -0.0649
  195SOL     OW  809   2.514   2.507   3.442 -0.3566 -0.3612 -0.2767
  195SOL    HW2  810   2.562   2.424   3.448 -0.1954 -0.2331  0.2268
  195SOL    HW3  811   2.565   2.561   3.382 -0.5324 -0.6739 -0.7101
  195SOL    MW4  812   2.527   2.503   3.435 -0.3585 -0.3856 -0.2674
  196SOL     OW  813   2.023   4.061   3.269 -0.3219  0.0086  0.2834
  196SOL    HW2  814   1.941   4.016   3.248  0.3896 -1.0141 -0.3089
  196SOL    HW3  815   2.007   4.152   3.245 -0.7032 -0.4991 -1.4701
  196SOL    MW4  816   2.010   4.067   3.263 -0.2783 -0.1933 -0.0261
  197SOL     OW  817   4.005   4.379   1.636 -0.4911 -0.6527 -0.1839
  197SOL    HW2  818   4.037   4.457   1.590  0.1811 -0.8193 -0.0114
  197SOL    HW3  819   3.998   4.407   1.727  0.3598 -0.9714 -0.0168
  197SOL    MW4  820   4.008   4.393   1.642 -0.2902 -0.7167 -0.1391
  198SOL     OW  821   2.441   4.105   3.241  0.2539 -0.4425  0.5737
  198SOL    HW2  822   2.504   4.067   3.302  1.3677  0.9622  0.3178
  198SOL    HW3  823   2.408   4.183   3.285  1.1513  0.6478 -0.6444
  198SOL    MW4  824   2.445   4.110   3.255  0.5192 -0.1133  0.3792
  199SOL     OW  825   2.598   2.617   2.357 -0.0011 -0.7440  0.4363
  199SOL    HW2  826   2.666   2.681   2.338 -1.2474  0.6185  0.4802
  199SOL    HW3  827   2.600   2.557   2.282 -0.7128  0.9933 -1.0166
  199SOL    MW4  828   2.607   2.617   2.345 -0.2594 -0.3350  0.2504
  200SOL     OW  829   2.383   4.108   0.948 -0.8936 -0.8122  0.4722
  200SOL    HW2  830   2.338   4.026   0.971  0.6004 -1.7434  0.1629
  200SOL    HW3  831   2.362   4.167   1.020 -3.3641 -0.9057 -0.1203
  200SOL    MW4  832   2.374   4.105   0.961 -1.0225 -0.9474  0.3532
  201SOL     OW  833   1.398   3.633   0.804  0.6125 -0.0659 -0.0600
  201SOL    HW2  834   1.320   3.578   0.793  0.7998 -0.5876  1.1733
  201SOL    HW3  835   1.371   3.701   0.866  1.5554 -1.0569  1.4312
  201SOL    MW4  836   1.384   3.635   0.810  0.7616 -0.2655  0.2995
  202SOL     OW  837   0.058   2.208   3.838 -0.5250  0.1475 -0.2930
  202SOL    HW2  838   0.075   2.282   3.781 -0.5734 -0.6719 -1.3783
  202SOL    HW3  839  -0.036   2.191   3.827 -0.7770  0.7042  0.9031
  202SOL    MW4  840   0.048   2.215   3.829 -0.5647  0.1129 -0.2784
  203SOL     OW  841   2.345   1.408   2.071  0.1045  0.2365 -0.1586
  203SOL    HW2  842   2.290   1.359   2.133  0.3273 -0.2681 -0.3626
  203SOL    HW3  843   2.402   1.343   2.032 -0.2612  0.4988 -1.1474
  203SOL    MW4  844   2.345   1.393   2.074  0.0857  0.2045 -0.3160
  204SOL     OW  845   4.268   3.026   4.298 -0.3811 -0.1664  0.0955
  204SOL    HW2  846   4.174   3.027   4.277 -0.4152  1.4894  0.2460
  204SOL    HW3  847   4.311   3.049   4.216 -0.1616  0.0104  0.2609
  204SOL    MW4  848   4.261   3.029   4.284 -0.3566  0.0754  0.1371
  205SOL     OW  849   2.861   3.143   3.511 -0.5533 -0.3292  0.1282
  205SOL    HW2  850   2.944   3.145   3.464 -0.7705 -0.7297 -0.2719
  205SOL    HW3  851   2.803   3.201   3.462 -0.0181  1.2444  1.3372
  205SOL    MW4  852   2.864   3.151   3.499 -0.5113 -0.1745  0.2349
  206SOL     OW  853   3.820   0.913   2.951  0.1712 -0.0135  0.1583
  206SOL    HW2  854   3.790   0.935   3.039  1.7309 -0.4310  0.8253
  206SOL    HW3  855   3.779   0.978   2.894 -1.1785  0.0091  1.1351
  206SOL    MW4  856   3.811   0.924   2.955  0.1989 -0.0656  0.3752
  207SOL     OW  857   3.475   1.630   2.605 -0.0573  0.0278 -0.6106
  207SOL    HW2  858   3.550   1.583   2.570  0.5717  1.6429 -1.5125
  207SOL    HW3  859   3.479   1.615   2.699  1.4256  0.1140 -0.6436
  207SOL    MW4  860   3.485   1.622   2.613  0.2213  0.2523 -0.7340
  208SOL     OW  861   3.046   1.143   1.273  0.0775  0.3989  0.5912
  208SOL    HW2  862   3.041   1.149   1.178  0.4499 -1.6993  0.4123
  208SOL    HW3  863   2.981   1.077   1.296  0.9845 -0.1421  1.6474
  208SOL    MW4  864   3.037   1.135   1.264  0.2463  0.0507  0.7069
  209SOL     OW  865   4.189   0.137   1.703 -0.3330  0.4084  0.2284
  209SOL    HW2  866   4.272   0.179   1.726  0.5254 -0.4449 -1.2095
  209SOL    HW3  867   4.133   0.209   1.672  0.1412  0.8760  0.4564
  209SOL    MW4  868   4.192   0.152   1.702 -0.1572  0.3575  0.0688
  210SOL     OW  869   0.537   0.468   3.483 -0.1624 -0.0610 -0.1953
  210SOL    HW2  870   0.562   0.391   3.534 -0.1946 -0.7989 -1.2528
  210SOL    HW3  871   0.592   0.463   3.405 -0.7217  0.5618 -0.6340
  210SOL    MW4  872   0.548   0.457   3.479 -0.2404 -0.0762 -0.3927
  211SOL     OW  873   4.361   2.775   4.341 -0.5716 -0.3701 -0.0361
  211SOL    HW2  874   4.328   2.865   4.330  0.5948  0.1012  0.2551
  211SOL    HW3  875   4.442   2.785   4.390 -1.5828 -1.7856  1.9900
  211SOL    MW4  876   4.367   2.788   4.346 -0.5511 -0.4947  0.2696
  212SOL     OW  877   1.282   1.911   4.122 -0.2510 -0.2045  0.0057
  212SOL    HW2  878   1.216   1.846   4.100 -2.5350  1.7025  0.9912
  212SOL    HW3  879   1.309   1.889   4.211  1.9568 -2.1514 -1.0773
  212SOL    MW4  880   1.277   1.900   4.131 -0.2611 -0.2098 -0.0071
  213SOL     OW  881   3.714   2.895   3.574  0.3275 -0.2848 -0.2490
  213SOL    HW2  882   3.731   2.986   3.552  1.0998 -0.5460 -0.7576
  213SOL    HW3  883   3.652   2.899   3.648  1.5755  0.6656  0.7586
  213SOL    MW4  884   3.708   2.907   3.581  0.5940 -0.1939 -0.1832
  214SOL     OW  885   3.213   1.535   2.532 -0.2500 -0.2115 -0.6269
  214SOL    HW2  886   3.227   1.510   2.440 -0.5669 -2.0310 -0.2030
  214SOL    HW3  887   3.296   1.573   2.560 -0.3875  1.0576 -1.8790
  214SOL    MW4  888   3.226   1.537   2.523 -0.3100 -0.2841 -0.7362
  215SOL     OW  889   3.236   3.970   0.480 -1.0305  0.2315 -0.1265
  215SOL    HW2  890   3.309   3.971   0.418 -0.8805  0.4065  0.0504
  215SOL    HW3  891   3.240   3.883   0.521 -0.2865  0.6095  0.6245
  215SOL    MW4  892   3.246   3.959   0.477 -0.9125  0.3045 -0.0040
  216SOL     OW  893   0.057   2.649   2.082 -0.1334  0.3000  0.4258
  216SOL    HW2  894   0.062   2.601   1.999 -2.8437 -0.2647  0.5330
  216SOL    HW3  895   0.063   2.741   2.057 -3.4503  0.2566 -0.7180
  216SOL    MW4  896   0.058   2.655   2.068 -0.9286  0.2198  0.2890
  217SOL     OW  897   3.109   3.353   3.812 -0.2065  0.8201  0.5059
  217SOL    HW2  898   3.026   3.309   3.796  1.0760 -1.3036 -0.5038
  217SOL    HW3  899   3.120   3.412   3.737  0.6831 -1.2645 -1.0584
  217SOL    MW4  900   3.100   3.355   3.800  0.0801  0.2649  0.1663
  218SOL     OW  901   4.368   3.062   0.962 -0.3334 -0.0408 -0.0231
  218SOL    HW2  902   4.296   3.028   0.910  0.2619  0.0252 -0.8980
  218SOL    HW3  903   4.374   3.002   1.037 -0.8092 -0.4703 -0.3296
  218SOL    MW4  904   4.359   3.050   0.965 -0.3176 -0.0887 -0.1790
  219SOL     OW  905   3.518   3.962   1.263  0.3921  0.2708  0.2398
  219SOL    HW2  906   3.467   4.012   1.328 -1.1694  1.7310 -2.0447
  219SOL    HW3  907   3.498   3.870   1.283  0.3649  0.6618  2.1636
  219SOL    MW4  908   3.508   3.957   1.274  0.1825  0.5150  0.1922
  220SOL     OW  909   0.622   0.150   2.649  0.2968 -0.0546  0.6535
  220SOL    HW2  910   0.666   0.067   2.661  1.1566  0.1875 -0.6876
  220SOL    HW3  911   0.664   0.189   2.572 -0.9859  1.0140  0.4642
  220SOL    MW4  912   0.633   0.144   2.640  0.2410  0.1183  0.4516
  221SOL     OW  913   3.170   0.654   3.863  0.4740  0.2782  0.2614
  221SOL    HW2  914   3.264   0.670   3.849  0.3654  0.4815 -0.2347
  221SOL    HW3  915   3.136   0.738   3.894  0.3058  0.4346 -0.3296
  221SOL    MW4  916   3.178   0.667   3.865  0.4375  0.3257  0.1179
  222SOL     OW  917   0.506   1.098   1.261 -0.1423  0.6689  0.1930
  222SOL    HW2  918   0.586   1.112   1.312 -0.9636  1.3203  1.3127
  222SOL    HW3  919   0.524   1.141   1.177 -1.1580  5.2185  2.1971
  222SOL    MW4  920   0.519   1.106   1.256 -0.3847  1.3551  0.6051
  223SOL     OW  921   2.558   0.486   2.824 -0.4030  0.0122 -0.2718
  223SOL    HW2  922   2.608   0.481   2.742 -2.4865  0.5874 -1.6343
  223SOL    HW3  923   2.604   0.551   2.876 -1.4273  2.8959 -2.7818
  223SOL    MW4  924   2.571   0.494   2.820 -0.8130  0.4685 -0.7828
  224SOL     OW  925   4.333   1.967   2.240  0.2624  0.6520  0.2176
  224SOL    HW2  926   4.301   2.055   2.257 -0.6704  0.4706 -0.5493
  224SOL    HW3  927   4.279   1.935   2.169 -0.8028 -1.2974  1.8490
  224SOL    MW4  928   4.322   1.974   2.233 -0.0013  0.3709  0.3317
  225SOL     OW  929   0.175   4.258   1.514  0.1621  0.7189  0.3541
  225SOL    HW2  930   0.246   4.299   1.464  0.3437  0.0777  0.0735
  225SOL    HW3  931   0.097   4.273   1.460  0.1792  0.9422  0.3912
  225SOL    MW4  932   0.174   4.265   1.500  0.1883  0.6638  0.3220
  226SOL     OW  933   1.439   1.887   1.092  0.0315  0.2428  0.7412
  226SOL    HW2  934   1.390   1.963   1.060 -2.0088 -0.9859  0.8357
  226SOL    HW3  935   1.478   1.850   1.013 -3.1065 -1.4556 -0.1066
  226SOL    MW4  936   1.437   1.892   1.077 -0.6517 -0.1434  0.6418
  227SOL     OW  937   3.582   4.040   3.613 -0.1563 -0.4885  0.0425
  227SOL    HW2  938   3.592   4.135   3.617 -2.4303 -0.2390  0.2598
  227SOL    HW3  939   3.601   4.017   3.522  1.2427  0.0543  0.1871
  227SOL    MW4  940   3.586   4.049   3.602 -0.2717 -0.3840  0.0903
  228SOL     OW  941   4.378   2.195   4.157 -0.0172  0.1025  0.2629
  228SOL    HW2  942   4.422   2.111   4.140 -1.5434 -0.8510  0.9077
  228SOL    HW3  943   4.433   2.238   4.222  0.3238 -0.7871  0.5766
  228SOL    MW4  944   4.391   2.189   4.163 -0.1735 -0.1407  0.3893
  229SOL     OW  945   2.392   1.028   4.510 -0.2170  0.3342  0.2053
  229SOL    HW2  946   2.431   1.059   4.592 -0.0946 -0.1081  0.3175
  229SOL    HW3  947   2.428   0.940   4.498 -0.2545  0.3863 -0.3121
  229SOL    MW4  948   2.402   1.021   4.519 -0.2058  0.2828  0.1519
  230SOL     OW  949   3.899   0.761   1.118 -0.3176 -0.1465  0.0172
  230SOL    HW2  950   3.931   0.807   1.195  1.5636  0.0009 -0.8376
  230SOL    HW3  951   3.946   0.800   1.045 -0.7876 -1.4775 -1.0156
  230SOL    MW4  952   3.909   0.772   1.119 -0.1314 -0.3027 -0.2318
  231SOL     OW  953   2.846   4.400   2.644  0.4879 -0.1052 -0.0617
  231SOL    HW2  954   2.893   4.334   2.694 -1.2289 -0.5384  1.0302
  231SOL    HW3  955   2.788   4.441   2.708 -1.3004 -0.2392 -1.5526
  231SOL    MW4  956   2.844   4.397   2.659  0.0254 -0.1800 -0.1144
  232SOL     OW  957   0.603   0.106   1.931 -0.4866  0.0439  0.3752
  232SOL    HW2  958   0.672   0.055   1.973 -0.1818 -0.2803 -0.5080
  232SOL    HW3  959   0.564   0.045   1.868 -0.9982  0.5025  0.2452
  232SOL    MW4  960   0.607   0.091   1.928 -0.5139  0.0616  0.2415
  233SOL     OW  961   0.252   4.221   3.655  0.5700 -0.7604 -0.0251
  233SOL    HW2  962   0.274   4.304   3.697 -0.4546 -0.1506 -0.6955
  233SOL    HW3  963   0.160   4.206   3.677 -0.3311  0.1499 -2.9599
  233SOL    MW4  964   0.243   4.230   3.663  0.3159 -0.5599 -0.5007
  234SOL     OW  965   1.491   0.658   4.166  0.3435  0.2189  0.2417
  234SOL    HW2  966   1.440   0.683   4.243  1.6587 -0.4298  1.3672
  234SOL    HW3  967   1.577   0.634   4.202  1.0782  0.2074 -1.4706
  234SOL    MW4  968   1.496   0.658   4.181  0.6140  0.1318  0.1643
  235SOL     OW  969   3.385   3.595   3.211  0.3233 -0.1091 -0.0994
  235SOL    HW2  970   3.426   3.666   3.261 -0.1389  0.2828 -0.2594
  235SOL    HW3  971   3.431   3.595   3.127  1.7288 -1.3915  0.6623
  235SOL    MW4  972   3.397   3.605   3.206  0.4477 -0.2266 -0.0200
  236SOL     OW  973   1.290   3.412   2.144 -0.3081  0.2706  0.0607
  236SOL    HW2  974   1.341   3.468   2.086  1.7862 -1.5616  0.0432
  236SOL    HW3  975   1.311   3.443   2.232 -0.1616  0.3707 -0.0083
  236SOL    MW4  976   1.300   3.423   2.148 -0.0124  0.0421  0.0493
  237SOL     OW  977   2.274   4.093   2.930 -0.4857  0.4530 -0.0540
  237SOL    HW2  978   2.262   4.041   3.010  0.4939 -1.8680 -1.3780
  237SOL    HW3  979   2.185   4.118   2.906 -1.0769 -1.2671  0.2142
  237SOL    MW4  980   2.260   4.089   2.938 -0.4345 -0.0801 -0.1933
  238SOL     OW  981   1.168   3.247   3.251  0.0998  0.4903 -0.3377
  238SOL    HW2  982   1.232   3.301   3.296  0.8949 -0.9624  0.3131
  238SOL    HW3  983   1.091   3.304   3.241  0.6992  1.5359  0.8796
  238SOL    MW4  984   1.166   3.262   3.256  0.2838  0.4366 -0.0912
  239SOL     OW  985   1.764   1.924   0.248  0.6185 -0.0678  0.5931
  239SOL    HW2  986   1.843   1.872   0.266  1.3009  0.4612 -0.8645
  239SOL    HW3  987   1.746   1.908   0.156 -0.2945  0.7658  0.6299
  239SOL    MW4  988   1.772   1.915   0.238  0.5881  0.1120  0.4057
  240SOL     OW  989   3.885   0.467   3.914 -0.0124  0.3203 -0.6698
  240SOL    HW2  990   3.968   0.434   3.878 -0.1273  0.6996 -1.2934
  240SOL    HW3  991   3.896   0.461   4.009  0.1642 -1.0069 -0.7678
  240SOL    MW4  992   3.898   0.462   3.921 -0.0043  0.1953 -0.7650
  241SOL     OW  993   0.909   3.134   1.875  0.3004 -0.1109  0.0114
  241SOL    HW2  994   0.842   3.068   1.859 -0.7745  1.0255 -0.2908
  241SOL    HW3  995   0.889   3.205   1.813  0.0483  1.4764  1.8564
  241SOL    MW4  996   0.898   3.135   1.865  0.1253  0.2485  0.2149
  242SOL     OW  997   3.783   0.155   2.721 -0.0889  0.4542 -0.2791
  242SOL    HW2  998   3.795   0.111   2.804 -0.2212 -0.1030 -0.5540
  242SOL    HW3  999   3.754   0.243   2.744 -1.8844 -0.2485  0.2424
  242SOL    MW4 1000   3.781   0.161   2.735 -0.3432  0.2880 -0.2466
  243SOL     OW 1001   2.601   3.946   1.123  0.8113 -0.0864  0.3346
  243SOL    HW2 1002   2.624   3.991   1.043 -1.0443  2.1641  1.0048
  243SOL    HW3 1003   2.526   3.890   1.099 -0.2316  1.1604  0.6417
  243SOL    MW4 1004   2.594   3.944   1.109  0.4289  0.3750  0.4635
  244SOL     OW 1005   1.446   1.542   3.385  0.0869 -0.1030 -0.0395
  244SOL    HW2 1006   1.397   1.530   3.467  0.4674  0.3960  0.2695
  244SOL    HW3 1007   1.381   1.575   3.323 -0.1913 -0.4233  0.0822
  244SOL    MW4 1008   1.431   1.545   3.388  0.1004 -0.0794  0.0174
  245SOL     OW 1009   1.827   2.055   3.094  0.2766  0.0719  0.2547
  245SOL    HW2 1010   1.779   2.124   3.048  0.1632 -0.8798 -1.0956
  245SOL    HW3 1011   1.918   2.084   3.090  0.2300  0.1633 -0.2940
  245SOL    MW4 1012   1.833   2.068   3.087  0.2555 -0.0416  0.0041
  246SOL     OW 1013   2.711   2.611   1.704  0.2401  0.4728 -0.1381
  246SOL    HW2 1014   2.655   2.601   1.627 -0.6404 -0.3433  0.5938
  246SOL    HW3 1015   2.793   2.568   1.679 -0.3246 -0.5212 -0.3478
  246SOL    MW4 1016   2.715   2.604   1.690  0.0494  0.2340 -0.0692
  247SOL     OW 1017   2.909   0.712   4.403  0.2989  0.0016  0.1423
  247SOL    HW2 1018   2.909   0.713   4.307  0.7391 -0.3839  0.1390
  247SOL    HW3 1019   2.966   0.785   4.428 -0.2380  0.4325  0.1151
  247SOL    MW4 1020   2.917   0.722   4.394  0.2861  0.0076  0.1383
  248SOL     OW 1021   4.483   4.529   0.898 -0.7645 -0.1915  0.1716
  248SOL    HW2 1022   4.574   4.510   0.872 -1.0548  0.7425 -1.6541
  248SOL    HW3 1023   4.437   4.447   0.884 -1.4222  0.8583 -4.9000
  248SOL    MW4 1024   4.489   4.516   0.893 -0.8896  0.0702 -0.7384
  249SOL     OW 1025   3.622   2.545   3.921 -0.0289 -0.0162 -0.3335
  249SOL    HW2 1026   3.603   2.634   3.893  0.8750  0.4866  0.6390
  249SOL    HW3 1027   3.717   2.540   3.926 -0.1321 -0.1547  2.3436
  249SOL    MW4 1028   3.632   2.556   3.918  0.0767  0.0318  0.1480
  250SOL     OW 1029   0.928   1.045   0.959 -0.4194  0.7555  0.1881
  250SOL    HW2 1030   0.965   1.062   1.046  1.1862  0.7697 -0.4752
  250SOL    HW3 1031   0.850   0.992   0.976 -0.7416  1.6981  1.7097
  250SOL    MW4 1032   0.923   1.040   0.973 -0.2501  0.8818  0.3013
  251SOL     OW 1033   3.274   2.458   2.084  0.6333 -0.2480  0.0990
  251SOL    HW2 1034   3.332   2.413   2.022  1.8178  2.6224 -0.9548
  251SOL    HW3 1035   3.325   2.533   2.113 -2.0061  1.4855  0.3766
  251SOL    MW4 1036   3.289   2.462   2.080  0.4413  0.3594 -0.0034
  252SOL     OW 1037   3.869   2.264   2.416 -0.1277  0.0749  0.3069
  252SOL    HW2 1038   3.941   2.325   2.431  0.8074 -0.9627  0.0800
  252SOL    HW3 1039   3.795   2.304   2.461  0.3107  1.6800 -0.3209
  252SOL    MW4 1040   3.869   2.278   2.424  0.0535  0.1498  0.1942
  253SOL     OW 1041   4.345   0.746   1.166 -0.2225 -0.4081  0.4111
  253SOL    HW2 1042   4.343   0.695   1.085  1.3717  0.8250 -0.4325
  253SOL    HW3 1043   4.438   0.763   1.182 -0.6946  2.7577  0.2875
  253SOL    MW4 1044   4.357   0.742   1.157 -0.0744  0.1723  0.2835
  254SOL     OW 1045   0.521   4.658   3.993 -0.2768  0.8972 -0.1041
  254SOL    HW2 1046   0.472   4.738   3.978 -1.3516  0.2061 -0.3459
  254SOL    HW3 1047   0.606   4.674   3.952 -0.8025  1.5877 -0.9507
  254SOL    MW4 1048   0.526   4.670   3.985 -0.4880  0.8971 -0.2477
  255SOL     OW 1049   3.199   4.394   1.298 -0.2059 -0.3664 -0.0999
  255SOL    HW2 1050   3.207   4.404   1.393  1.5099 -2.6989  0.0365
  255SOL    HW3 1051   3.290   4.389   1.267 -0.7484  0.5916 -1.8956
  255SOL    MW4 1052   3.212   4.395   1.307 -0.0511 -0.5477 -0.3188
  256SOL     OW 1053   0.447   0.748   1.575  0.2459 -0.0230 -0.6919
  256SOL    HW2 1054   0.357   0.733   1.547 -0.0942  0.9206 -0.1456
  256SOL    HW3 1055   0.455   0.701   1.658 -0.4142  1.6801  0.3527
  256SOL    MW4 1056   0.436   0.740   1.582  0.1140  0.3262 -0.4820
  257SOL     OW 1057   1.649   1.287   2.218 -0.3032  0.3207  0.5654
  257SOL    HW2 1058   1.607   1.224   2.159 -0.5471  0.7015  0.3314
  257SOL    HW3 1059   1.583   1.304   2.285  0.1652 -0.5215  1.2601
  257SOL    MW4 1060   1.635   1.281   2.219 -0.2736  0.2598  0.6262
  258SOL     OW 1061   2.722   2.856   4.431  0.3491 -0.2656 -0.0559
  258SOL    HW2 1062   2.681   2.928   4.384  0.2920 -0.0679  0.2962
  258SOL    HW3 1063   2.689   2.864   4.520  0.0858 -0.9197 -0.0895
  258SOL    MW4 1064   2.712   2.866   4.436  0.3068 -0.3258 -0.0139
  259SOL     OW 1065   1.499   3.776   2.561 -0.1369  0.7459  0.1922
  259SOL    HW2 1066   1.581   3.781   2.611  0.0205 -0.0872  0.0264
  259SOL    HW3 1067   1.527   3.759   2.471 -0.5119 -0.0564  0.2240
  259SOL    MW4 1068   1.514   3.775   2.556 -0.1656  0.5301  0.1745
  260SOL     OW 1069   2.921   4.328   0.630 -0.4273 -0.4248  0.2726
  260SOL    HW2 1070   2.844   4.362   0.583  0.5197  0.8094 -0.3970
  260SOL    HW3 1071   2.986   4.397   0.623  0.9690 -1.7116  0.3195
  260SOL    MW4 1072   2.919   4.341   0.623 -0.1182 -0.4318  0.1905
  261SOL     OW 1073   0.705   3.618   1.732 -0.0280  0.1340 -0.0319
  261SOL    HW2 1074   0.711   3.713   1.746 -1.5895  0.0202  1.7330
  261SOL    HW3 1075   0.653   3.609   1.653 -0.3019  0.7550  0.0704
  261SOL    MW4 1076   0.699   3.630   1.724 -0.2702  0.2009  0.2144
  262SOL     OW 1077   0.015   2.299   0.818 -0.0270  0.2325  0.4613
  262SOL    HW2 1078   0.036   2.292   0.725 -0.3841 -0.4517  0.4343
  262SOL    HW3 1079  -0.011   2.391   0.830 -0.5204  0.1792 -0.2182
  262SOL    MW4 1080   0.014   2.310   0.808 -0.1392  0.1352  0.3680
  263SOL     OW 1081   1.055   2.734   0.893  0.2973 -0.5574 -0.4036
  263SOL    HW2 1082   1.046   2.765   0.983  1.0745  1.5069 -1.0074
  263SOL    HW3 1083   1.150   2.722   0.881  0.5795  2.6546 -2.0150
  263SOL    MW4 1084   1.066   2.736   0.903  0.4371  0.1387 -0.6958
  264SOL     OW 1085   4.106   4.531   3.784 -0.0642  0.3518 -0.1860
  264SOL    HW2 1086   4.091   4.463   3.850  0.3222 -0.1277 -0.5847
  264SOL    HW3 1087   4.116   4.612   3.834  0.3860 -0.0356  0.3562
  264SOL    MW4 1088   4.106   4.533   3.799  0.0462  0.2374 -0.1670
  265SOL     OW 1089   4.310   0.425   3.216  0.5065  0.1762  0.0896
  265SOL    HW2 1090   4.236   0.483   3.201  1.6728  1.7402  0.2264
  265SOL    HW3 1091   4.348   0.411   3.129  1.1124  0.8531  0.2366
  265SOL    MW4 1092   4.305   0.430   3.202  0.7403  0.4719  0.1271
  266SOL     OW 1093   2.794   1.049   4.311  0.0339  0.1970  0.1069
  266SOL    HW2 1094   2.809   1.007   4.226  1.0347 -0.5468  0.6328
  266SOL    HW3 1095   2.767   0.977   4.369 -1.0891  0.7773  0.3117
  266SOL    MW4 1096   2.793   1.034   4.308  0.0177  0.1754  0.2033
  267SOL     OW 1097   3.741   3.645   2.402 -0.2514 -0.3792  0.1016
  267SOL    HW2 1098   3.705   3.686   2.481 -0.4682 -0.3502 -0.0116
  267SOL    HW3 1099   3.693   3.686   2.330  0.0794 -0.2691 -0.0558
  267SOL    MW4 1100   3.730   3.656   2.403 -0.2364 -0.3608  0.0659
  268SOL     OW 1101   1.450   2.665   1.786 -0.0211 -0.0135 -0.3281
  268SOL    HW2 1102   1.392   2.593   1.809  0.3923 -0.5477 -0.9426
  268SOL    HW3 1103   1.492   2.690   1.868 -0.1702 -0.4680 -0.1140
  268SOL    MW4 1104   1.448   2.659   1.800  0.0137 -0.1440 -0.3809
  269SOL     OW 1105   1.865   1.571   1.424 -0.1288 -0.0110 -0.1766
  269SOL    HW2 1106   1.867   1.511   1.498 -2.2450 -1.3650 -1.1621
  269SOL    HW3 1107   1.911   1.524   1.354  0.8551  0.7914 -0.0858
  269SOL    MW4 1108   1.872   1.557   1.425 -0.2782 -0.0837 -0.2947
  270SOL     OW 1109   2.100   0.805   1.434 -0.3842  0.3467  0.2609
  270SOL    HW2 1110   2.037   0.766   1.373  0.0339 -1.2036  0.8144
  270SOL    HW3 1111   2.178   0.819   1.381 -0.2003 -0.4966  0.3079
  270SOL    MW4 1112   2.102   0.802   1.419 -0.3048  0.0309  0.3402
  271SOL     OW 1113   0.570   0.791   0.363 -0.1760 -0.0948  0.1435
  271SOL    HW2 1114   0.629   0.771   0.290 -0.8254 -1.9028  0.0931
  271SOL    HW3 1115   0.560   0.708   0.409  1.9980  1.4625  3.6497
  271SOL    MW4 1116   0.577   0.778   0.359  0.0251 -0.1279  0.5994
  272SOL     OW 1117   1.292   2.947   1.422  0.2865 -0.2104 -0.0564
  272SOL    HW2 1118   1.280   2.882   1.353  0.1340  0.6886 -0.8911
  272SOL    HW3 1119   1.223   3.011   1.407 -0.0397 -0.2446  1.2222
  272SOL    MW4 1120   1.281   2.947   1.411  0.2234 -0.0963  0.0022
  273SOL     OW 1121   1.280   1.647   4.321  0.3873 -0.0583  0.4298
  273SOL    HW2 1122   1.322   1.585   4.379 -1.8161  0.4535  2.6779
  273SOL    HW3 1123   1.307   1.733   4.353  0.2676  0.2077 -0.1666
  273SOL    MW4 1124   1.289   1.650   4.333  0.0808  0.0443  0.6477
  274SOL     OW 1125   1.558   3.418   3.802 -0.6151 -0.1520  0.0694
  274SOL    HW2 1126   1.573   3.493   3.744  0.3445 -0.6551 -0.3504
  274SOL    HW3 1127   1.567   3.454   3.890 -1.7067  0.5418 -0.0880
  274SOL    MW4 1128   1.561   3.433   3.806 -0.6325 -0.1269 -0.0068
  275SOL     OW 1129   2.448   3.707   3.797 -0.6075 -0.0457 -0.1442
  275SOL    HW2 1130   2.479   3.621   3.827 -1.3224 -0.2051  0.1333
  275SOL    HW3 1131   2.486   3.716   3.709  1.1185  0.2220  0.5996
  275SOL    MW4 1132   2.457   3.697   3.789 -0.4741 -0.0314 -0.0094
  276SOL     OW 1133   4.316   2.837   2.117  0.2601  0.3467 -0.1802
  276SOL    HW2 1134   4.221   2.830   2.124  0.3837 -0.5129  0.8261
  276SOL    HW3 1135   4.349   2.768   2.174  1.5096  1.6808  0.7456
  276SOL    MW4 1136   4.308   2.827   2.125  0.4412  0.4093  0.0747
  277SOL     OW 1137   0.707   0.854   0.985 -0.0613  0.2977  0.0158
  277SOL    HW2 1138   0.770   0.789   1.015 -1.3777 -0.5878  0.9112
  277SOL    HW3 1139   0.638   0.852   1.051 -2.1940 -0.4858 -2.1795
  277SOL    MW4 1140   0.706   0.845   0.998 -0.5164  0.0775 -0.1557
  278SOL     OW 1141   1.001   4.460   3.540 -0.1534  0.2497 -0.7855
  278SOL    HW2 1142   0.917   4.484   3.580 -0.4703 -1.9817 -0.0514
  278SOL    HW3 1143   0.990   4.485   3.448 -0.9392  1.6180 -0.3476
  278SOL    MW4 1144   0.988   4.467   3.533 -0.2989  0.1359 -0.6309
  279SOL     OW 1145   1.670   3.361   1.460 -0.4880  0.1280 -0.6489
  279SOL    HW2 1146   1.607   3.289   1.452  0.7306 -0.9614 -0.7039
  279SOL    HW3 1147   1.751   3.318   1.486  0.0758  1.5875  0.0526
  279SOL    MW4 1148   1.672   3.345   1.462 -0.2529  0.1768 -0.5636
  280SOL     OW 1149   3.857   3.263   1.047  0.3008 -0.0868 -0.2372
  280SOL    HW2 1150   3.946   3.272   1.013  0.1921  0.7226 -0.3188
  280SOL    HW3 1151   3.806   3.229   0.973  0.0072  1.9355 -0.9760
  280SOL    MW4 1152   3.862   3.259   1.033  0.2478  0.2869 -0.3455
  281SOL     OW 1153   4.345   2.772   3.192 -0.4097 -0.0151 -0.1221
  281SOL    HW2 1154   4.287   2.837   3.152 -0.3769 -0.7636 -1.4172
  281SOL    HW3 1155   4.287   2.699   3.215 -0.4462  0.4424  1.3315
  281SOL    MW4 1156   4.330   2.771   3.190 -0.4102 -0.0535 -0.1012
  282SOL     OW 1157   3.995   4.265   4.424  0.2544  0.1804  0.3839
  282SOL    HW2 1158   3.931   4.260   4.353 -1.9955 -0.6315  2.3896
  282SOL    HW3 1159   4.064   4.203   4.400 -0.0551  0.5309 -1.4633
  282SOL    MW4 1160   3.996   4.256   4.411 -0.0833  0.1195  0.4048
  283SOL     OW 1161   3.573   4.380   0.672 -0.2062  0.3225 -0.1297
  283SOL    HW2 1162   3.612   4.419   0.750 -0.4724  0.7126 -0.1878
  283SOL    HW3 1163   3.485   4.353   0.701 -0.5356  1.0349 -0.4554
  283SOL    MW4 1164   3.566   4.382   0.686 -0.2847  0.4679 -0.1803
  284SOL     OW 1165   1.609   4.001   4.252 -0.5129  0.0326  0.1136
  284SOL    HW2 1166   1.539   3.971   4.311 -1.1052  1.6222  0.2201
  284SOL    HW3 1167   1.569   4.003   4.166  0.2123 -1.7839 -0.2980
  284SOL    MW4 1168   1.594   3.997   4.249 -0.4954  0.0027  0.0734
  285SOL     OW 1169   0.250   1.425   2.138  0.0396 -0.3098  0.3798
  285SOL    HW2 1170   0.250   1.435   2.043  0.1619  0.6399  0.4782
  285SOL    HW3 1171   0.326   1.370   2.156  1.1171  1.0848  0.0914
  285SOL    MW4 1172   0.260   1.419   2.128  0.1979 -0.0005  0.3548
  286SOL     OW 1173   2.416   4.334   0.576 -0.5550  0.6192 -0.6940
  286SOL    HW2 1174   2.494   4.379   0.542 -0.6310  1.1265 -0.2130
  286SOL    HW3 1175   2.450   4.256   0.620 -0.2691  1.0963 -0.0575
  286SOL    MW4 1176   2.431   4.330   0.578 -0.5273  0.7491 -0.5465
  287SOL     OW 1177   4.254   3.545   2.428  0.0238  0.1681 -0.2508
  287SOL    HW2 1178   4.165   3.551   2.392  0.3954  0.3223 -1.1483
  287SOL    HW3 1179   4.249   3.593   2.511 -1.2488 -1.5395  0.7220
  287SOL    MW4 1180   4.241   3.552   2.434 -0.0951 -0.0368 -0.2408
  288SOL     OW 1181   1.224   1.692   1.102 -0.0148  0.8294  0.2191
  288SOL    HW2 1182   1.298   1.751   1.089 -0.0060  0.7055 -0.3143
  288SOL    HW3 1183   1.148   1.743   1.076  0.1593  0.0399 -2.0057
  288SOL    MW4 1184   1.224   1.706   1.097  0.0094  0.7089 -0.1448
  289SOL     OW 1185   2.342   1.171   3.023  0.1272  0.1191 -0.0828
  289SOL    HW2 1186   2.347   1.130   2.937 -0.0255  0.7784 -0.4060
  289SOL    HW3 1187   2.293   1.108   3.076  1.0417 -0.7165 -0.2142
  289SOL    MW4 1188   2.336   1.157   3.019  0.2277  0.0958 -0.1428
  290SOL     OW 1189   2.897   0.537   2.436 -0.9165 -0.1359  0.2229
  290SOL    HW2 1190   2.918   0.595   2.509 -0.3060 -1.1608  0.8700
  290SOL    HW3 1191   2.909   0.592   2.358  0.4989  0.3744  0.7860
  290SOL    MW4 1192   2.902   0.552   2.435 -0.6492 -0.2038  0.3825
  291SOL     OW 1193   3.307   4.094   4.172 -0.1864 -0.3212  0.3807
  291SOL    HW2 1194   3.344   4.064   4.256 -1.3168 -0.8882  0.6888
  291SOL    HW3 1195   3.324   4.021   4.112 -0.4063 -0.3917  0.4058
  291SOL    MW4 1196   3.314   4.080   4.175 -0.3645 -0.4053  0.4247
  292SOL     OW 1197   1.240   1.049   3.811 -0.0911 -0.4730  0.5741
  292SOL    HW2 1198   1.165   1.005   3.850 -0.6050 -0.6059 -0.5198
  292SOL    HW3 1199   1.221   1.048   3.717  0.6757  0.6169  0.3984
  292SOL    MW4 1200   1.228   1.043   3.803 -0.0577 -0.3467  0.4066
  293SOL     OW 1201   3.335   2.694   3.602  0.3339  0.3666  0.2186
  293SOL    HW2 1202   3.256   2.744   3.584 -0.0689 -0.3962 -0.1408
  293SOL    HW3 1203   3.383   2.694   3.518  1.0761  1.4696  0.6384
  293SOL    MW4 1204   3.331   2.700   3.588  0.3786  0.4115  0.2266
  294SOL     OW 1205   2.391   1.346   1.213  0.3762  0.0213  0.4863
  294SOL    HW2 1206   2.330   1.275   1.195 -1.2554  1.6345 -0.6144
  294SOL    HW3 1207   2.360   1.384   1.295  0.4901  0.2073  0.4429
  294SOL    MW4 1208   2.379   1.342   1.221  0.1759  0.2587  0.3353
  295SOL     OW 1209   3.816   0.675   2.392  0.3530  0.3793  0.7007
  295SOL    HW2 1210   3.908   0.702   2.394  0.1730  0.9465  1.3034
  295SOL    HW3 1211   3.818   0.589   2.349  1.1339  0.5034  0.4712
  295SOL    MW4 1212   3.829   0.667   2.386  0.4323  0.4705  0.7500
  296SOL     OW 1213   2.582   1.315   3.858  0.9986  0.3549 -0.0052
  296SOL    HW2 1214   2.547   1.249   3.918 -0.4839 -0.4645 -1.7158
  296SOL    HW3 1215   2.532   1.394   3.878  2.2596  0.7905  1.5359
  296SOL    MW4 1216   2.571   1.317   3.869  0.9694  0.3043 -0.0276
  297SOL     OW 1217   3.825   1.374   0.621 -0.4957  0.0973  0.0986
  297SOL    HW2 1218   3.777   1.297   0.590 -0.0119 -0.4401  0.6794
  297SOL    HW3 1219   3.898   1.382   0.560 -0.2739 -0.1882  0.3290
  297SOL    MW4 1220   3.828   1.365   0.609 -0.4026 -0.0113  0.2057
  298SOL     OW 1221   2.222   1.199   2.221 -0.0981 -0.3387  0.2953
  298SOL    HW2 1222   2.162   1.216   2.294 -0.9023  0.0238 -0.4562
  298SOL    HW3 1223   2.279   1.129   2.254 -0.5880 -0.3216  1.2028
  298SOL    MW4 1224   2.222   1.192   2.235 -0.2688 -0.2887  0.3159
  299SOL     OW 1225   3.066   1.039   1.996 -0.1532 -0.1415  0.0452
  299SOL    HW2 1226   3.104   1.085   1.920  0.7737 -0.3938  0.3490
  299SOL    HW3 1227   2.990   0.993   1.960  0.5692 -0.6662 -0.8497
  299SOL    MW4 1228   3.061   1.039   1.981  0.0644 -0.2440 -0.0328
  300SOL     OW 1229   3.117   0.477   0.774  0.6687 -0.3380 -0.0504
  300SOL    HW2 1230   3.134   0.479   0.680  0.1712  2.2414 -0.1220
  300SOL    HW3 1231   3.193   0.521   0.813 -0.0901  0.4465  0.5734
  300SOL    MW4 1232   3.130   0.483   0.767  0.5030  0.1058  0.0225
  301SOL     OW 1233   3.368   2.794   1.394 -0.6917 -0.0712  0.4866
  301SOL    HW2 1234   3.431   2.865   1.381  0.4860 -1.1438  0.3007
  301SOL    HW3 1235   3.415   2.729   1.446 -0.8625 -1.9138 -1.6142
  301SOL    MW4 1236   3.382   2.795   1.399 -0.5589 -0.4559  0.1849
  302SOL     OW 1237   1.523   3.388   1.091  0.1769  0.4226 -0.2416
  302SOL    HW2 1238   1.571   3.399   1.010  2.2040  0.5700  0.9531
  302SOL    HW3 1239   1.544   3.300   1.121  1.4827  1.2576  1.3949
  302SOL    MW4 1240   1.532   3.378   1.085  0.6166  0.5522  0.1319
  303SOL     OW 1241   0.961   1.025   1.873  0.0274  0.3637 -0.5257
  303SOL    HW2 1242   0.903   1.077   1.929  1.0046 -1.4422  2.3069
  303SOL    HW3 1243   0.911   0.947   1.852  0.3036  0.2203 -0.6544
  303SOL    MW4 1244   0.947   1.022   1.878  0.1928  0.1066 -0.1689
  304SOL     OW 1245   1.567   3.098   4.137  0.4539 -0.2467  0.0522
  304SOL    HW2 1246   1.473   3.109   4.130  0.0274 -3.3317  0.5632
  304SOL    HW3 1247   1.599   3.097   4.047 -0.0202  0.3460 -0.1265
  304SOL    MW4 1248   1.559   3.099   4.124  0.3350 -0.5756  0.0960
  305SOL     OW 1249   1.054   4.067   0.598 -0.4736  0.2201  0.5359
  305SOL    HW2 1250   0.970   4.110   0.586 -1.0479 -0.4600  2.0512
  305SOL    HW3 1251   1.118   4.131   0.568 -1.4906  0.9690 -0.0742
  305SOL    MW4 1252   1.051   4.081   0.592 -0.6836  0.2291  0.6553
  306SOL     OW 1253   3.711   4.463   4.216  0.1073  0.0848  0.3187
  306SOL    HW2 1254   3.775   4.506   4.274  0.6113 -2.0026  1.3876
  306SOL    HW3 1255   3.626   4.489   4.251  0.3998  0.1756  0.9737
  306SOL    MW4 1256   3.708   4.472   4.228  0.2124 -0.1786  0.5462
  307SOL     OW 1257   3.125   3.531   2.842  0.1097  0.3327 -0.5771
  307SOL    HW2 1258   3.192   3.549   2.777 -1.0451  2.0694 -1.3377
  307SOL    HW3 1259   3.115   3.613   2.890  0.2740 -0.6422  1.1707
  307SOL    MW4 1260   3.132   3.544   2.840 -0.0210  0.4332 -0.4468
  308SOL     OW 1261   0.758   1.316   4.201  0.2881 -0.2545 -0.3912
  308SOL    HW2 1262   0.707   1.397   4.195 -1.5113 -1.3460 -0.2715
  308SOL    HW3 1263   0.758   1.281   4.112  1.8943  0.3392 -0.6486
  308SOL    MW4 1264   0.751   1.322   4.189  0.2626 -0.3202 -0.4093
  309SOL     OW 1265   3.677   3.143   2.047 -0.2621 -0.6586  0.0767
  309SOL    HW2 1266   3.640   3.133   1.959 -0.3523 -0.5971  0.1077
  309SOL    HW3 1267   3.763   3.101   2.042  0.9778  1.8763 -0.8652
  309SOL    MW4 1268   3.683   3.136   2.034 -0.1104 -0.3161 -0.0435
  310SOL     OW 1269   1.253   4.096   2.144 -0.6384 -0.7047 -0.2485
  310SOL    HW2 1270   1.224   4.016   2.187 -0.5662 -0.0746  0.9793
  310SOL    HW3 1271   1.348   4.091   2.145 -0.6403 -0.8166 -0.5817
  310SOL    MW4 1272   1.262   4.085   2.150 -0.6291 -0.6363 -0.1305
  311SOL     OW 1273   3.351   0.082   3.598  0.1197  0.3074 -0.7029
  311SOL    HW2 1274   3.429   0.029   3.616  0.5215  1.1162 -0.0107
  311SOL    HW3 1275   3.385   0.171   3.584 -0.7116  0.7853  0.1706
  311SOL    MW4 1276   3.366   0.087   3.599  0.0630  0.4772 -0.4963
  312SOL     OW 1277   1.765   1.531   3.642 -0.0016  0.1171 -0.5536
  312SOL    HW2 1278   1.851   1.571   3.652 -0.1527  0.1707  0.6245
  312SOL    HW3 1279   1.782   1.437   3.646 -0.1789  0.1479  1.4108
  312SOL    MW4 1280   1.779   1.524   3.644 -0.0449  0.1283 -0.1390
  313SOL     OW 1281   4.326   1.022   1.562  0.1801  0.5535  0.7375
  313SOL    HW2 1282   4.299   1.043   1.473  1.0379 -1.0582  0.0698
  313SOL    HW3 1283   4.247   1.038   1.615 -0.9392 -0.3787 -0.6005
  313SOL    MW4 1284   4.312   1.027   1.557  0.1456  0.2179  0.4729
  314SOL     OW 1285   4.387   1.712   2.901 -0.0834 -0.0530 -0.4252
  314SOL    HW2 1286   4.431   1.654   2.963 -0.1698  0.7760  0.4192
  314SOL    HW3 1287   4.305   1.667   2.880  0.3214 -0.7296 -0.5915
  314SOL    MW4 1288   4.382   1.698   2.906 -0.0414 -0.0329 -0.3357
  315SOL     OW 1289   3.368   3.705   1.265 -0.6133  0.1246 -0.0567
  315SOL    HW2 1290   3.282   3.739   1.289 -0.6363 -0.2154  0.3430
  315SOL    HW3 1291   3.405   3.672   1.347 -0.7066 -1.0800 -0.4795
  315SOL    MW4 1292   3.361   3.705   1.279 -0.6287 -0.0792 -0.0597
  316SOL     OW 1293   2.231   3.717   1.263 -0.4561  0.5299  0.1426
  316SOL    HW2 1294   2.148   3.764   1.268 -2.6187 -3.1188  0.3813
  316SOL    HW3 1295   2.263   3.715   1.353 -1.1786  0.1234  0.3927
  316SOL    MW4 1296   2.225   3.723   1.276 -0.8368 -0.0051  0.2071
  317SOL     OW 1297   4.221   2.225   2.296 -0.1140  0.6812 -0.3202
  317SOL    HW2 1298   4.251   2.276   2.372  2.4099 -1.5722  0.2964
  317SOL    HW3 1299   4.158   2.163   2.332 -0.0546  0.6158 -0.3279
  317SOL    MW4 1300   4.217   2.224   2.311  0.2269  0.3752 -0.2398
  318SOL     OW 1301   1.666   2.279   1.854 -0.0687 -0.3321  0.1971
  318SOL    HW2 1302   1.707   2.194   1.870  1.3206  0.3642  0.4156
  318SOL    HW3 1303   1.738   2.336   1.828 -0.9993  0.7708 -0.0218
  318SOL    MW4 1304   1.681   2.275   1.853 -0.0082 -0.0947  0.1970
  319SOL     OW 1305   0.293   2.442   2.594  0.3755 -0.1756  0.0622
  319SOL    HW2 1306   0.348   2.483   2.527  0.3245 -1.3023 -0.6884
  319SOL    HW3 1307   0.203   2.462   2.567  0.3911  0.8274  0.7444
  319SOL    MW4 1308   0.288   2.450   2.582  0.3708 -0.1919  0.0532
  320SOL     OW 1309   2.125   0.994   3.884  0.3083 -0.0294 -0.4303
  320SOL    HW2 1310   2.174   0.955   3.812  0.3224 -1.2769  0.2573
  320SOL    HW3 1311   2.119   1.087   3.861  1.0845 -0.2642 -1.5977
  320SOL    MW4 1312   2.131   1.001   3.872  0.4126 -0.2249 -0.4936
  321SOL     OW 1313   2.285   3.732   1.531  0.3340 -0.2707 -0.2408
  321SOL    HW2 1314   2.319   3.822   1.532 -0.3256 -0.0171 -0.5500
  321SOL    HW3 1315   2.344   3.684   1.589  0.5685  0.4073  0.0900
  321SOL    MW4 1316   2.297   3.737   1.539  0.2779 -0.1478 -0.2380
  322SOL     OW 1317   2.160   2.409   3.018  0.3486 -0.1414  0.2838
  322SOL    HW2 1318   2.223   2.420   3.089  0.3781  0.1283  0.2167
  322SOL    HW3 1319   2.212   2.372   2.946  0.8376  1.8084 -0.3856
  322SOL    MW4 1320   2.175   2.405   3.018  0.4170  0.1515  0.1866
  323SOL     OW 1321   3.466   4.398   1.203 -0.0499 -0.3841  0.4286
  323SOL    HW2 1322   3.543   4.350   1.232  0.6263  0.7183  0.4830
  323SOL    HW3 1323   3.430   4.347   1.131 -0.2676 -1.8028  1.5296
  323SOL    MW4 1324   3.471   4.385   1.197  0.0106 -0.4258  0.5810
  324SOL     OW 1325   3.559   3.889   1.884  0.4533  0.0546  0.1349
  324SOL    HW2 1326   3.615   3.948   1.935  0.3087  0.4673 -0.1849
  324SOL    HW3 1327   3.476   3.888   1.932 -0.1086  1.4408 -0.7700
  324SOL    MW4 1328   3.556   3.897   1.897  0.3601  0.2920 -0.0267
  325SOL     OW 1329   0.808   1.803   1.684  0.4127  0.5127 -0.0879
  325SOL    HW2 1330   0.771   1.890   1.667 -0.4361  0.0812 -0.4820
  325SOL    HW3 1331   0.855   1.813   1.767 -0.2532  1.1806  0.2150
  325SOL    MW4 1332   0.809   1.816   1.693  0.2129  0.5439 -0.0999
  326SOL     OW 1333   1.591   0.089   4.408 -0.0376 -0.3645 -0.2386
  326SOL    HW2 1334   1.571   0.003   4.372  2.9613 -1.6390  0.9448
  326SOL    HW3 1335   1.616   0.072   4.499  2.1488  1.5188 -0.4413
  326SOL    MW4 1336   1.592   0.075   4.416  0.6465 -0.2842 -0.1092
  327SOL     OW 1337   0.886   2.468   4.594 -0.6405  0.1443 -0.0595
  327SOL    HW2 1338   0.837   2.388   4.574 -0.3514 -0.0152 -0.1282
  327SOL    HW3 1339   0.893   2.468   4.689  0.3236 -0.4858 -0.1252
  327SOL    MW4 1340   0.880   2.457   4.604 -0.4752  0.0401 -0.0773
  328SOL     OW 1341   4.435   2.290   2.143 -0.1038  0.0725  0.0251
  328SOL    HW2 1342   4.464   2.357   2.205  1.4382 -1.7900  1.4140
  328SOL    HW3 1343   4.358   2.251   2.184 -0.1092  0.0014 -0.0517
  328SOL    MW4 1344   4.429   2.294   2.157  0.0989 -0.1826  0.1982
  329SOL     OW 1345   0.138   4.528   3.586  0.7468 -0.0862 -0.2609
  329SOL    HW2 1346   0.053   4.495   3.614  0.7327 -0.0032 -0.2049
  329SOL    HW3 1347   0.162   4.592   3.654  0.9714 -0.3030 -0.1380
  329SOL    MW4 1348   0.130   4.532   3.599  0.7746 -0.1039 -0.2373
  330SOL     OW 1349   0.229   3.483   3.991 -0.2032  0.3896 -0.2294
  330SOL    HW2 1350   0.244   3.540   4.067  0.3431  1.0499 -0.8292
  330SOL    HW3 1351   0.186   3.539   3.927 -1.6496 -0.4558 -0.0196
  330SOL    MW4 1352   0.225   3.498   3.993 -0.3220  0.3652 -0.2809
  331SOL     OW 1353   2.123   3.260   0.502  0.1576  0.2156  0.1247
  331SOL    HW2 1354   2.154   3.232   0.416 -1.0909  0.0103 -0.2669
  331SOL    HW3 1355   2.156   3.349   0.511  0.8031  0.0286 -0.3061
  331SOL    MW4 1356   2.132   3.268   0.492  0.0780  0.1638  0.0162
  332SOL     OW 1357   4.273   2.181   3.836  0.6708  0.1529 -0.1101
  332SOL    HW2 1358   4.256   2.167   3.743  0.1658 -2.4061  0.3234
  332SOL    HW3 1359   4.223   2.259   3.858  0.2224  0.3685 -1.8429
  332SOL    MW4 1360   4.264   2.189   3.827  0.5450 -0.1563 -0.2815
  333SOL     OW 1361   2.296   3.092   3.347  0.3408 -0.1298 -0.2120
  333SOL    HW2 1362   2.368   3.104   3.409  0.3055  1.8402 -0.5061
  333SOL    HW3 1363   2.324   3.139   3.269  0.6268 -3.0718 -1.9519
  333SOL    MW4 1364   2.309   3.100   3.345  0.3739 -0.2580 -0.4804
  334SOL     OW 1365   0.008   4.133   3.751  0.1430  0.0237 -0.3509
  334SOL    HW2 1366  -0.025   4.223   3.764 -1.4020 -0.6709  0.7172
  334SOL    HW3 1367   0.005   4.094   3.838 -0.5421 -1.5103 -1.0511
  334SOL    MW4 1368   0.003   4.140   3.764 -0.1512 -0.2703 -0.3024
  335SOL     OW 1369   3.201   1.985   0.779  0.0840 -0.1034  0.0981
  335SOL    HW2 1370   3.119   1.939   0.763 -0.4577  0.2824  1.7556
  335SOL    HW3 1371   3.208   2.048   0.707  0.0976 -1.7271 -1.3520
  335SOL    MW4 1372   3.191   1.987   0.767  0.0143 -0.2667  0.1255
  336SOL     OW 1373   0.807   0.665   2.066 -0.3775  0.1441 -0.2791
  336SOL    HW2 1374   0.841   0.693   2.151 -1.7927 -0.3572  0.4644
  336SOL    HW3 1375   0.730   0.719   2.052  0.9002  1.5439 -2.1433
  336SOL    MW4 1376   0.801   0.676   2.076 -0.3957  0.2627 -0.4270
  337SOL     OW 1377   1.246   4.135   1.834 -0.1705  0.5898  0.1395
  337SOL    HW2 1378   1.237   4.097   1.922  3.2082  0.8295  0.6416
  337SOL    HW3 1379   1.167   4.188   1.824 -2.1895 -1.9441  1.7269
  337SOL    MW4 1380   1.234   4.137   1.845  0.0089  0.2871  0.4152
  338SOL     OW 1381   1.986   1.790   0.407  0.5304  0.2893  0.3972
  338SOL    HW2 1382   1.986   1.746   0.492  1.5537  0.5872  0.5619
  338SOL    HW3 1383   2.074   1.775   0.373 -0.5120 -1.5877 -1.5438
  338SOL    MW4 1384   1.998   1.782   0.414  0.5279  0.0810  0.1628
  339SOL     OW 1385   2.832   0.289   0.617  0.3356  0.6120 -0.0086
  339SOL    HW2 1386   2.895   0.283   0.689 -1.0945 -1.8397  1.0905
  339SOL    HW3 1387   2.761   0.342   0.653 -0.1286 -0.1577  0.2270
  339SOL    MW4 1388   2.831   0.295   0.632  0.0857  0.1870  0.1675
  340SOL     OW 1389   3.735   2.619   2.072  0.6075 -0.2563  0.1023
  340SOL    HW2 1390   3.656   2.634   2.020  0.7591  0.5181  0.0923
  340SOL    HW3 1391   3.760   2.528   2.052  0.4656 -0.0741 -0.9135
  340SOL    MW4 1392   3.728   2.609   2.062  0.6088 -0.1301 -0.0330
  341SOL     OW 1393   2.105   3.704   3.637  0.2579  0.2195  0.0586
  341SOL    HW2 1394   2.099   3.782   3.582  1.4097  0.1563 -0.1621
  341SOL    HW3 1395   2.199   3.693   3.654  0.1356 -1.2590 -0.1147
  341SOL    MW4 1396   2.117   3.713   3.632  0.3937  0.0161  0.0066
  342SOL     OW 1397   1.634   4.384   1.166 -0.5711 -0.5297  0.1170
  342SOL    HW2 1398   1.688   4.404   1.090 -0.0805 -0.7373  0.4118
  342SOL    HW3 1399   1.581   4.309   1.140  0.8384 -1.6887  0.5795
  342SOL    MW4 1400   1.634   4.377   1.153 -0.3204 -0.7100  0.2169
  343SOL     OW 1401   4.177   1.171   3.175  0.8438  0.1035  0.1334
  343SOL    HW2 1402   4.182   1.198   3.266 -1.4040  1.2539 -0.0469
  343SOL    HW3 1403   4.269   1.157   3.149  1.5410  0.2817  2.3787
  343SOL    MW4 1404   4.190   1.173   3.183  0.6392  0.2788  0.4058
  344SOL     OW 1405   1.218   0.933   2.726  0.0781 -0.5410  0.3193
  344SOL    HW2 1406   1.253   0.848   2.698  0.5600  0.2285 -1.4738
  344SOL    HW3 1407   1.161   0.912   2.800 -1.0786 -2.6472 -1.1025
  344SOL    MW4 1408   1.215   0.919   2.732 -0.0109 -0.7173 -0.1048
  345SOL     OW 1409   2.000   4.502   2.383 -0.5506 -0.3411  0.3723
  345SOL    HW2 1410   1.913   4.542   2.388  0.4566  1.8143  1.4232
  345SOL    HW3 1411   2.015   4.464   2.469 -0.2459 -0.2781  0.3484
  345SOL    MW4 1412   1.990   4.502   2.395 -0.3775 -0.0484  0.5078
  346SOL     OW 1413   3.745   3.767   3.371 -0.0549  0.4141  0.6177
  346SOL    HW2 1414   3.783   3.778   3.458  1.4824  1.9633 -0.2170
  346SOL    HW3 1415   3.650   3.763   3.386  0.2124  0.5841  2.3609
  346SOL    MW4 1416   3.737   3.768   3.384  0.1832  0.6409  0.7375
  347SOL     OW 1417   2.111   1.148   4.263  0.3527  0.4715 -0.0287
  347SOL    HW2 1418   2.017   1.160   4.252  0.2423 -0.4837 -0.2262
  347SOL    HW3 1419   2.127   1.162   4.356 -0.0217  0.4231  0.0434
  347SOL    MW4 1420   2.101   1.151   4.274  0.2887  0.3391 -0.0453
  348SOL     OW 1421   1.564   1.590   2.242  0.0581  0.5449 -0.7136
  348SOL    HW2 1422   1.624   1.639   2.298  1.8394 -0.8422 -1.3711
  348SOL    HW3 1423   1.524   1.526   2.301  0.6617  0.2045 -0.6712
  348SOL    MW4 1424   1.567   1.588   2.257  0.3727  0.3170 -0.7947
  349SOL     OW 1425   2.714   0.673   1.693 -0.4222 -0.0461 -0.2400
  349SOL    HW2 1426   2.622   0.648   1.697 -0.0819 -1.0927  1.2735
  349SOL    HW3 1427   2.714   0.769   1.700 -1.1819 -0.2743  3.9572
  349SOL    MW4 1428   2.702   0.683   1.694 -0.4775 -0.2143  0.5135
  350SOL     OW 1429   4.336   2.656   2.347 -0.0852  0.3216 -0.0623
  350SOL    HW2 1430   4.323   2.571   2.389 -1.6477  0.9275  0.7101
  350SOL    HW3 1431   4.299   2.719   2.408  0.4850  1.5111 -0.9283
  350SOL    MW4 1432   4.330   2.653   2.361 -0.2161  0.5585 -0.0746
  351SOL     OW 1433   2.608   2.320   2.996 -0.6166 -0.1048  0.2132
  351SOL    HW2 1434   2.565   2.280   2.920 -1.7847  0.5859  0.4903
  351SOL    HW3 1435   2.596   2.414   2.983  0.5659  0.0928  0.4574
  351SOL    MW4 1436   2.601   2.327   2.984 -0.6147  0.0124  0.2820
  352SOL     OW 1437   4.284   1.201   0.874 -0.3755  0.3722  0.3481
  352SOL    HW2 1438   4.198   1.243   0.868 -0.3527  0.5095  0.9310
  352SOL    HW3 1439   4.271   1.113   0.838 -0.1565  1.2519 -1.9443
  352SOL    MW4 1440   4.271   1.195   0.868 -0.3436  0.5064  0.1226
  353SOL     OW 1441   2.307   1.203   3.393 -0.1939 -0.6510  0.0950
  353SOL    HW2 1442   2.296   1.289   3.352  2.0572 -0.9312 -1.2193
  353SOL    HW3 1443   2.365   1.219   3.468  1.1787 -1.1669 -0.8301
  353SOL    MW4 1444   2.313   1.216   3.398  0.2842 -0.7560 -0.2005
  354SOL     OW 1445   0.684   1.591   4.174  0.6311  0.6568 -0.2858
  354SOL    HW2 1446   0.771   1.629   4.179  0.2727  1.4336  0.0548
  354SOL    HW3 1447   0.624   1.665   4.180 -0.0864 -0.0245  1.4649
  354SOL    MW4 1448   0.687   1.605   4.176  0.4891  0.6694 -0.0099
  355SOL     OW 1449   2.537   1.863   1.567 -0.0489 -0.1748  0.0763
  355SOL    HW2 1450   2.625   1.895   1.553  0.0446 -0.8243 -0.8538
  355SOL    HW3 1451   2.500   1.921   1.634  0.4908  1.1519 -0.7724
  355SOL    MW4 1452   2.543   1.875   1.574  0.0347 -0.0855 -0.1584
  356SOL     OW 1453   4.376   1.551   1.860  0.7409 -1.0539 -0.2149
  356SOL    HW2 1454   4.421   1.532   1.942  1.7414 -1.6838 -0.8879
  356SOL    HW3 1455   4.447   1.564   1.796  0.0087  1.1413 -0.6271
  356SOL    MW4 1456   4.391   1.550   1.862  0.7763 -0.8474 -0.3581
  357SOL     OW 1457   4.488   1.550   3.124 -0.4966  1.0234  0.3702
  357SOL    HW2 1458   4.418   1.592   3.174  0.2552  1.1680  1.3060
  357SOL    HW3 1459   4.520   1.480   3.181 -0.2774  0.5666 -0.3001
  357SOL    MW4 1460   4.483   1.546   3.138 -0.3685  0.9822  0.4053
  358SOL     OW 1461   3.257   4.219   2.908 -0.3744  0.1669  0.5243
  358SOL    HW2 1462   3.165   4.243   2.918 -0.9031 -1.1206 -1.0653
  358SOL    HW3 1463   3.286   4.269   2.832  0.0815  0.1342  0.6768
  358SOL    MW4 1464   3.249   4.229   2.899 -0.3840 -0.0073  0.3347
  359SOL     OW 1465   2.634   2.642   3.204 -0.0942  0.2660  0.3431
  359SOL    HW2 1466   2.630   2.735   3.229 -0.9348  0.6780 -1.2406
  359SOL    HW3 1467   2.587   2.638   3.120  1.4607 -1.2764 -0.4880
  359SOL    MW4 1468   2.628   2.654   3.196  0.0000  0.1169  0.0245
  360SOL     OW 1469   0.145   1.989   2.198 -0.1619  0.1011  0.4000
  360SOL    HW2 1470   0.055   1.980   2.230  0.3276 -2.0210  1.2789
  360SOL    HW3 1471   0.178   1.899   2.194  2.1104  0.8951  0.6166
  360SOL    MW4 1472   0.137   1.976   2.202  0.2025 -0.0741  0.5446
  361SOL     OW 1473   0.175   4.114   4.063 -0.2363  0.0331 -0.2046
  361SOL    HW2 1474   0.242   4.115   3.994 -0.5472 -2.0295 -0.5624
  361SOL    HW3 1475   0.224   4.097   4.143 -0.3448 -1.6972 -0.4966
  361SOL    MW4 1476   0.191   4.112   4.064 -0.2917 -0.4673 -0.2904
  362SOL     OW 1477   1.599   2.651   3.384  0.0022  0.3219 -0.4574
  362SOL    HW2 1478   1.563   2.592   3.318  1.7864 -1.0840 -0.2122
  362SOL    HW3 1479   1.694   2.651   3.368  0.1096  2.6640 -0.0650
  362SOL    MW4 1480   1.607   2.643   3.373  0.2517  0.4454 -0.3733
  363SOL     OW 1481   4.059   1.487   1.971 -0.0453  0.5590  0.2099
  363SOL    HW2 1482   4.007   1.478   1.891 -0.4935  0.5453  0.4999
  363SOL    HW3 1483   4.149   1.469   1.944 -0.2955 -0.1788 -0.1468
  363SOL    MW4 1484   4.064   1.484   1.957 -0.1375  0.4598  0.2011
  364SOL     OW 1485   4.024   0.327   1.579  0.3446  0.0139 -0.3049
  364SOL    HW2 1486   3.960   0.270   1.622  0.3475  1.1020  1.1892
  364SOL    HW3 1487   4.048   0.391   1.646  1.3484  0.9600 -1.5383
  364SOL    MW4 1488   4.019   0.328   1.594  0.4774  0.2823 -0.2705
  365SOL     OW 1489   3.620   1.277   3.435 -0.5004 -0.2667  0.1016
  365SOL    HW2 1490   3.705   1.249   3.400 -0.2682 -1.1986  1.3675
  365SOL    HW3 1491   3.640   1.355   3.487 -0.4415 -0.3862  0.2591
  365SOL    MW4 1492   3.634   1.284   3.437 -0.4620 -0.4054  0.2894
  366SOL     OW 1493   0.199   1.039   0.490  0.2086  0.2650  0.1429
  366SOL    HW2 1494   0.270   1.088   0.531  0.6438 -0.3904  0.1841
  366SOL    HW3 1495   0.240   0.958   0.460 -0.8135 -0.7827  1.4951
  366SOL    MW4 1496   0.213   1.035   0.492  0.1312  0.0403  0.3268
  367SOL     OW 1497   3.308   0.433   2.502 -0.2634 -0.1863  0.4818
  367SOL    HW2 1498   3.319   0.515   2.453 -1.5845 -0.3594 -0.1274
  367SOL    HW3 1499   3.220   0.403   2.479  1.3025 -3.4102 -1.7084
  367SOL    MW4 1500   3.298   0.440   2.493 -0.2311 -0.6345  0.1125
  368SOL     OW 1501   2.827   1.615   4.725  0.4207 -0.3469 -0.5754
  368SOL    HW2 1502   2.754   1.553   4.721  2.0065 -2.2412 -0.5902
  368SOL    HW3 1503   2.895   1.576   4.671  1.7229  1.0608  0.0130
  368SOL    MW4 1504   2.826   1.602   4.718  0.8017 -0.4111 -0.4998
  369SOL     OW 1505   0.310   1.604   3.428 -0.6476 -0.0141  0.2207
  369SOL    HW2 1506   0.355   1.564   3.502 -1.9998 -0.1190  1.0024
  369SOL    HW3 1507   0.350   1.564   3.350  0.1382 -0.5816  0.9112
  369SOL    MW4 1508   0.322   1.594   3.427 -0.7223 -0.1028  0.4150
  370SOL     OW 1509   2.224   0.989   3.233 -0.4226 -0.7539 -0.3162
  370SOL    HW2 1510   2.257   1.064   3.283  0.2592  0.7283 -2.9377
  370SOL    HW3 1511   2.284   0.917   3.254 -0.9236 -0.5530  1.9997
  370SOL    MW4 1512   2.236   0.989   3.243 -0.3987 -0.5318 -0.3565
  371SOL     OW 1513   0.207   3.460   1.638  0.7250 -0.1964  0.1398
  371SOL    HW2 1514   0.256   3.402   1.697 -1.6433 -1.8111  0.6242
  371SOL    HW3 1515   0.141   3.501   1.694 -0.2439 -0.1882 -0.9845
  371SOL    MW4 1516   0.204   3.457   1.653  0.2847 -0.4083  0.0554
  372SOL     OW 1517   4.098   2.520   1.577 -0.2675 -0.6117  0.9098
  372SOL    HW2 1518   4.061   2.593   1.528 -0.2742 -0.8767  0.5173
  372SOL    HW3 1519   4.119   2.557   1.663 -1.9669 -0.5958  1.3349
  372SOL    MW4 1520   4.096   2.535   1.582 -0.4926 -0.6445  0.9141
  373SOL     OW 1521   3.299   1.386   2.321  0.1469  0.0442 -0.3512
  373SOL    HW2 1522   3.379   1.438   2.313  1.0306 -1.1525  0.3783
  373SOL    HW3 1523   3.321   1.321   2.388 -1.4516 -0.2843 -0.1437
  373SOL    MW4 1524   3.313   1.384   2.329  0.0526 -0.1570 -0.2276
  374SOL     OW 1525   2.023   1.304   2.406 -0.6216  0.4896 -0.1506
  374SOL    HW2 1526   1.953   1.241   2.423 -0.5221  0.3812 -0.1376
  374SOL    HW3 1527   1.979   1.379   2.367 -0.9885  1.1436  1.4833
  374SOL    MW4 1528   2.008   1.306   2.403 -0.6569  0.5616  0.0667
  375SOL     OW 1529   0.839   1.952   2.324 -0.2761  0.2828 -0.1525
  375SOL    HW2 1530   0.872   2.017   2.262 -0.1076 -1.5919 -2.0800
  375SOL    HW3 1531   0.745   1.944   2.303 -0.1144 -0.7249 -0.5245
  375SOL    MW4 1532   0.831   1.960   2.314 -0.2325 -0.0975 -0.4559
  376SOL     OW 1533   4.482   0.985   4.222  0.3790  0.2298  0.2736
  376SOL    HW2 1534   4.534   1.066   4.220 -0.2371  0.6490  0.8843
  376SOL    HW3 1535   4.497   0.945   4.137  1.7853  0.3014  0.4848
  376SOL    MW4 1536   4.491   0.991   4.211  0.4833  0.2946  0.3821
  377SOL     OW 1537   1.166   4.480   2.781 -0.5821 -0.4028 -0.4694
  377SOL    HW2 1538   1.092   4.539   2.774 -0.6637 -0.5309 -0.6746
  377SOL    HW3 1539   1.161   4.446   2.870 -0.4910 -0.0431 -0.3265
  377SOL    MW4 1540   1.156   4.483   2.792 -0.5809 -0.3723 -0.4777
  378SOL     OW 1541   3.874   1.784   4.303 -0.1914 -0.0984 -0.0765
  378SOL    HW2 1542   3.967   1.805   4.311 -0.5794  1.3316  0.7522
  378SOL    HW3 1543   3.829   1.858   4.344 -1.7705  0.4887 -2.7641
  378SOL    MW4 1544   3.881   1.796   4.309 -0.4509  0.1677 -0.3217
  379SOL     OW 1545   2.466   0.554   3.160  0.3015 -0.2964 -0.1431
  379SOL    HW2 1546   2.439   0.628   3.216 -0.5636 -2.2141  2.0677
  379SOL    HW3 1547   2.399   0.549   3.092 -1.0755 -0.6346  1.2116
  379SOL    MW4 1548   2.454   0.563   3.159  0.0057 -0.5940  0.3273
  380SOL     OW 1549   2.641   4.188   4.124 -0.0683  0.2364 -0.0615
  380SOL    HW2 1550   2.654   4.173   4.031  0.7755  1.8216 -0.2052
  380SOL    HW3 1551   2.623   4.101   4.160  0.3750 -0.4867 -1.5738
  380SOL    MW4 1552   2.640   4.174   4.117  0.1015  0.3501 -0.2800
  381SOL     OW 1553   2.158   4.182   0.515 -0.2090  0.4257  0.1444
  381SOL    HW2 1554   2.079   4.235   0.503 -0.8224 -0.2147  1.2527
  381SOL    HW3 1555   2.230   4.243   0.505 -0.8275  0.9579 -1.2346
  381SOL    MW4 1556   2.157   4.197   0.512 -0.3716  0.4114  0.1087
  382SOL     OW 1557   3.440   2.732   2.937  0.1669 -0.0626  0.2107
  382SOL    HW2 1558   3.414   2.684   2.858  1.6275  0.8993 -0.8848
  382SOL    HW3 1559   3.412   2.676   3.009  0.9623 -2.1066 -1.0101
  382SOL    MW4 1560   3.433   2.718   2.936  0.4645 -0.2054 -0.0949
  383SOL     OW 1561   1.203   1.670   3.226 -0.1026  0.2788 -0.1763
  383SOL    HW2 1562   1.187   1.698   3.136  0.0672  0.6595 -0.0875
  383SOL    HW3 1563   1.173   1.742   3.281  0.3830  0.3161  0.0477
  383SOL    MW4 1564   1.197   1.683   3.221 -0.0161  0.3340 -0.1351
  384SOL     OW 1565   1.873   0.920   2.604 -0.3825  0.4934  0.0999
  384SOL    HW2 1566   1.847   0.951   2.517 -0.2498  0.7037  0.1338
  384SOL    HW3 1567   1.892   1.000   2.653  1.5112  0.3077 -0.2912
  384SOL    MW4 1568   1.872   0.935   2.599 -0.1151  0.4967  0.0527
  385SOL     OW 1569   0.482   2.993   1.443 -0.0322 -0.0808  0.2654
  385SOL    HW2 1570   0.448   2.917   1.395 -2.2813  0.1648  1.3901
  385SOL    HW3 1571   0.442   3.068   1.398  0.6188  0.3333  0.3785
  385SOL    MW4 1572   0.472   2.993   1.431 -0.2430  0.0062  0.4287
  386SOL     OW 1573   3.670   2.882   0.598  0.5131  0.3338 -0.4966
  386SOL    HW2 1574   3.667   2.897   0.503  0.8910  1.3775 -0.3472
  386SOL    HW3 1575   3.725   2.952   0.632  0.4785 -0.1081  0.4901
  386SOL    MW4 1576   3.676   2.893   0.590  0.5584  0.4132 -0.3467
  387SOL     OW 1577   3.228   1.766   3.920 -0.0507 -0.6379  0.1149
  387SOL    HW2 1578   3.149   1.715   3.902 -1.1739  1.3843 -0.8076
  387SOL    HW3 1579   3.287   1.746   3.847 -0.3267 -0.9436 -0.0227
  387SOL    MW4 1580   3.226   1.757   3.908 -0.2353 -0.4114 -0.0250
  388SOL     OW 1581   3.729   4.329   1.290  0.2823 -0.2029  0.5374
  388SOL    HW2 1582   3.775   4.401   1.248  0.8243  0.0212  1.5233
  388SOL    HW3 1583   3.797   4.266   1.312 -0.1359 -0.8237  0.0915
  388SOL    MW4 1584   3.744   4.330   1.287  0.2986 -0.2552  0.6087
  389SOL     OW 1585   1.164   3.054   1.868  0.2719  0.1611  0.0644
  389SOL    HW2 1586   1.188   3.007   1.788  0.3394 -0.3339  0.3755
  389SOL    HW3 1587   1.073   3.080   1.854  0.3475  0.2551 -0.2583
  389SOL    MW4 1588   1.155   3.051   1.855  0.2908  0.1082  0.0629
  390SOL     OW 1589   0.245   1.735   2.514 -0.0537  0.1184 -0.1979
  390SOL    HW2 1590   0.300   1.727   2.592 -0.3450  1.8121  0.2140
  390SOL    HW3 1591   0.155   1.737   2.548 -0.1807  0.8325 -0.5621
  390SOL    MW4 1592   0.241   1.735   2.529 -0.1089  0.4361 -0.1916
  391SOL     OW 1593   2.772   2.638   0.491 -0.4505 -0.2770 -0.3817
  391SOL    HW2 1594   2.867   2.633   0.493 -0.4976 -1.2105 -0.3549
  391SOL    HW3 1595   2.749   2.691   0.568  0.0951  0.8371 -0.9844
  391SOL    MW4 1596   2.781   2.645   0.502 -0.3847 -0.2532 -0.4577
  392SOL     OW 1597   2.543   0.082   1.206  0.7182 -0.3963 -0.5254
  392SOL    HW2 1598   2.510   0.040   1.286  1.4405 -0.5151 -0.2845
  392SOL    HW3 1599   2.631   0.047   1.196  1.3798  1.1717 -0.2452
  392SOL    MW4 1600   2.550   0.072   1.215  0.9008 -0.2051 -0.4566
  393SOL     OW 1601   1.798   4.386   4.143  0.0921  0.2389 -0.1003
  393SOL    HW2 1602   1.813   4.297   4.173  0.6737 -0.3624 -2.0850
  393SOL    HW3 1603   1.880   4.432   4.161  0.5264 -0.1835 -0.9810
  393SOL    MW4 1604   1.810   4.380   4.149  0.2262  0.1038 -0.4784
  394SOL     OW 1605   3.145   0.818   2.151 -0.1567 -0.3188  0.0411
  394SOL    HW2 1606   3.117   0.896   2.103 -1.1160 -1.4244 -1.2096
  394SOL    HW3 1607   3.179   0.853   2.234  0.1127  1.4822 -0.7950
  394SOL    MW4 1608   3.146   0.833   2.156 -0.2477 -0.2270 -0.2342
  395SOL     OW 1609   1.386   2.551   1.330 -0.1377 -0.0451 -0.1364
  395SOL    HW2 1610   1.399   2.523   1.240 -0.0887  2.3210 -0.8904
  395SOL    HW3 1611   1.474   2.575   1.361 -0.4564  1.1614 -0.1577
  395SOL    MW4 1612   1.399   2.551   1.322 -0.1733  0.4262 -0.2387
  396SOL     OW 1613   3.826   2.632   3.587  0.1473  0.1869  0.0447
  396SOL    HW2 1614   3.876   2.619   3.667  0.4026  0.3956 -0.0784
  396SOL    HW3 1615   3.812   2.726   3.582 -1.4242  0.0116  0.7751
  396SOL    MW4 1616   3.831   2.643   3.597 -0.0264  0.1913  0.1248
  397SOL     OW 1617   4.152   3.166   1.430  0.6042 -0.2281  0.1981
  397SOL    HW2 1618   4.088   3.137   1.366  0.4774  1.4846 -0.4744
  397SOL    HW3 1619   4.111   3.150   1.515 -0.8789  1.2332 -0.2324
  397SOL    MW4 1620   4.138   3.160   1.433  0.3918  0.1907  0.0526
  398SOL     OW 1621   1.531   1.436   1.786  0.4129  0.5366 -0.4806
  398SOL    HW2 1622   1.602   1.408   1.843  1.0627 -1.1090 -2.0485
  398SOL    HW3 1623   1.557   1.522   1.755  0.4082  1.1199  1.0863
  398SOL    MW4 1624   1.544   1.443   1.790  0.4980  0.3964 -0.4807
  399SOL     OW 1625   4.020   4.611   0.762 -0.3226 -0.2624  0.0150
  399SOL    HW2 1626   4.029   4.694   0.808 -0.3679 -1.0830  1.5115
  399SOL    HW3 1627   4.011   4.545   0.831 -0.2053 -1.5291 -1.1514
  399SOL    MW4 1628   4.020   4.613   0.777 -0.3131 -0.5378  0.0586
  400SOL     OW 1629   2.972   1.921   4.359 -0.0098  0.3061  0.0524
  400SOL    HW2 1630   2.899   1.883   4.408 -0.0408  1.0172  0.5655
  400SOL    HW3 1631   3.036   1.851   4.354 -0.3723 -0.0515  0.3492
  400SOL    MW4 1632   2.970   1.907   4.365 -0.0617  0.3527  0.1593
  401SOL     OW 1633   2.270   4.310   3.346  0.2531 -0.3480 -0.1208
  401SOL    HW2 1634   2.308   4.397   3.335 -1.4240  0.4307  0.2086
  401SOL    HW3 1635   2.254   4.303   3.440 -2.1361  0.0713 -0.4791
  401SOL    MW4 1636   2.273   4.321   3.357 -0.2834 -0.1899 -0.1246
  402SOL     OW 1637   4.222   1.126   0.462  0.5657  0.2572  0.1795
  402SOL    HW2 1638   4.317   1.133   0.458  0.6005  0.2028  0.9001
  402SOL    HW3 1639   4.191   1.214   0.441  0.7442  0.0171 -1.1173
  402SOL    MW4 1640   4.230   1.139   0.459  0.5939  0.2183  0.1035
  403SOL     OW 1641   0.599   3.427   0.625  0.0138 -0.0000  0.2065
  403SOL    HW2 1642   0.524   3.393   0.577 -0.8381  1.7463  0.2495
  403SOL    HW3 1643   0.666   3.360   0.615 -1.2232 -1.1468 -0.6579
  403SOL    MW4 1644   0.598   3.414   0.617 -0.2618  0.0791  0.0981
  404SOL     OW 1645   3.591   0.327   2.211  0.4676 -0.3194 -0.0606
  404SOL    HW2 1646   3.537   0.290   2.281 -1.1634 -1.1459 -1.7371
  404SOL    HW3 1647   3.608   0.254   2.152  2.8335  0.0910  0.0446
  404SOL    MW4 1648   3.586   0.313   2.213  0.5645 -0.3743 -0.2679
  405SOL     OW 1649   4.140   0.775   4.019 -0.0005 -0.6138  0.1402
  405SOL    HW2 1650   4.156   0.865   4.048  0.8203 -0.2950 -1.2543
  405SOL    HW3 1651   4.078   0.784   3.946  0.0506 -1.1731  0.0224
  405SOL    MW4 1652   4.134   0.788   4.013  0.1145 -0.6455 -0.0593
  406SOL     OW 1653   2.277   0.141   1.952  0.0736  0.3240 -0.0453
  406SOL    HW2 1654   2.208   0.094   1.906 -0.5422  1.0769  0.0996
  406SOL    HW3 1655   2.314   0.076   2.012  0.4627 -0.4877 -1.1386
  406SOL    MW4 1656   2.273   0.126   1.954  0.0437  0.3162 -0.1704
  407SOL     OW 1657   2.003   3.388   1.301  0.4782  0.0720  0.2570
  407SOL    HW2 1658   2.074   3.406   1.239  1.7241  0.5742  1.8147
  407SOL    HW3 1659   2.041   3.404   1.387 -1.2808 -0.4946  1.1635
  407SOL    MW4 1660   2.018   3.392   1.304  0.4105  0.0635  0.5821
  408SOL     OW 1661   3.953   2.718   0.697  0.0157  0.1101 -0.1366
  408SOL    HW2 1662   3.870   2.685   0.730 -0.3126 -0.8515 -1.8629
  408SOL    HW3 1663   3.942   2.813   0.696 -0.8126  0.0220  0.2925
  408SOL    MW4 1664   3.941   2.726   0.701 -0.1369 -0.0284 -0.3077
  409SOL     OW 1665   2.978   4.656   1.815  0.3915  0.2784  0.5992
  409SOL    HW2 1666   2.974   4.750   1.831  1.5785  0.7781 -1.6986
  409SOL    HW3 1667   3.066   4.641   1.780 -0.5106 -1.2929 -1.1645
  409SOL    MW4 1668   2.989   4.666   1.812  0.4291  0.1370  0.0633
  410SOL     OW 1669   0.211   1.987   3.772  0.1793 -0.3004  0.4591
  410SOL    HW2 1670   0.235   2.015   3.683 -0.2462 -1.2940  0.0308
  410SOL    HW3 1671   0.147   2.052   3.801  1.0901  0.6284  0.4467
  410SOL    MW4 1672   0.206   1.999   3.764  0.2433 -0.3090  0.4010
  411SOL     OW 1673   2.468   0.309   1.068 -0.2166  0.0709  0.0375
  411SOL    HW2 1674   2.481   0.231   1.123  1.6132 -0.7229 -1.4479
  411SOL    HW3 1675   2.549   0.360   1.078 -0.2255  0.3576 -1.1701
  411SOL    MW4 1676   2.481   0.305   1.076  0.0236  0.0040 -0.3178
  412SOL     OW 1677   1.384   0.259   4.364 -0.0887 -0.5130 -0.3370
  412SOL    HW2 1678   1.456   0.200   4.387 -0.3763 -0.5721  0.4300
  412SOL    HW3 1679   1.305   0.210   4.387 -0.3855 -0.6251 -1.6011
  412SOL    MW4 1680   1.383   0.244   4.370 -0.1658 -0.5356 -0.4026
  413SOL     OW 1681   0.832   4.268   4.161 -0.1824 -0.1381 -0.1929
  413SOL    HW2 1682   0.922   4.253   4.190 -0.0714 -0.8994 -0.9199
  413SOL    HW3 1683   0.839   4.341   4.099 -0.3719  1.2521  1.4014
  413SOL    MW4 1684   0.845   4.276   4.157 -0.1928 -0.0551 -0.0785
  414SOL     OW 1685   4.119   0.427   0.980  0.0836 -0.2076  0.0495
  414SOL    HW2 1686   4.166   0.427   1.064 -1.6475 -0.6097  1.0424
  414SOL    HW3 1687   4.030   0.453   1.003 -0.3618 -0.1190 -1.7148
  414SOL    MW4 1688   4.113   0.431   0.995 -0.2036 -0.2490 -0.0523
  415SOL     OW 1689   4.055   2.065   2.453 -0.0217 -0.0061  0.2362
  415SOL    HW2 1690   4.036   1.987   2.400 -1.3356 -0.0590  0.7523
  415SOL    HW3 1691   3.981   2.124   2.436  0.2639  0.5532  0.9185
  415SOL    MW4 1692   4.043   2.062   2.444 -0.1574  0.0607  0.3943
  416SOL     OW 1693   0.367   3.683   1.584  0.2021 -0.1667  0.1166
  416SOL    HW2 1694   0.449   3.654   1.543  0.9585  0.6514  1.0297
  416SOL    HW3 1695   0.314   3.604   1.588  0.6378 -0.5446 -1.1981
  416SOL    MW4 1696   0.371   3.669   1.579  0.3594 -0.1086  0.0636
  417SOL     OW 1697   3.557   2.430   4.168  0.5534  0.1452 -0.2395
  417SOL    HW2 1698   3.561   2.475   4.084 -0.8374  0.6531 -0.0488
  417SOL    HW3 1699   3.467   2.443   4.198  1.1882  0.4152  1.5804
  417SOL    MW4 1700   3.545   2.437   4.161  0.4537  0.2478  0.0257
  418SOL     OW 1701   0.026   0.709   0.502  0.0986  0.1122 -0.2758
  418SOL    HW2 1702   0.112   0.727   0.466  0.0745  0.1632 -0.3062
  418SOL    HW3 1703   0.028   0.615   0.521  0.0524  0.0539 -0.5628
  418SOL    MW4 1704   0.038   0.699   0.500  0.0893  0.1112 -0.3176
  419SOL     OW 1705   0.139   3.103   0.573 -0.2521 -0.2369 -0.0652
  419SOL    HW2 1706   0.155   3.041   0.502  1.0371  0.9215 -0.8216
  419SOL    HW3 1707   0.226   3.136   0.595 -0.6372 -0.6310  2.1160
  419SOL    MW4 1708   0.153   3.099   0.566 -0.1328 -0.1360  0.1228
  420SOL     OW 1709   0.505   4.287   1.006 -0.1712 -0.0060  0.7182
  420SOL    HW2 1710   0.555   4.361   1.041  0.8947 -0.0132 -0.7297
  420SOL    HW3 1711   0.445   4.326   0.942 -0.8329 -0.2018  1.2078
  420SOL    MW4 1712   0.504   4.302   1.002 -0.1179 -0.0328  0.5918
  421SOL     OW 1713   1.920   4.411   3.525 -0.1554  0.3211 -0.1878
  421SOL    HW2 1714   1.829   4.439   3.535 -0.0617  0.4688  0.2668
  421SOL    HW3 1715   1.972   4.485   3.556  0.0834 -0.5525  1.6006
  421SOL    MW4 1716   1.915   4.424   3.530 -0.1116  0.2253  0.1081
  422SOL     OW 1717   4.016   2.566   2.203  0.5719 -0.6031 -0.5461
  422SOL    HW2 1718   4.040   2.547   2.293  2.9507  1.0483 -0.7654
  422SOL    HW3 1719   3.965   2.490   2.175  0.0696 -1.2830  2.0643
  422SOL    MW4 1720   4.013   2.554   2.211  0.8194 -0.4749 -0.2306
  423SOL     OW 1721   4.188   2.260   1.159 -0.0026 -0.1588  0.0389
  423SOL    HW2 1722   4.105   2.215   1.172  0.0740 -0.1483  0.5494
  423SOL    HW3 1723   4.222   2.225   1.076 -0.2570 -0.5550  0.1042
  423SOL    MW4 1724   4.182   2.250   1.149 -0.0260 -0.2097  0.1149
  424SOL     OW 1725   3.036   0.241   2.737 -0.4178 -0.0644  0.1833
  424SOL    HW2 1726   3.031   0.330   2.773 -1.1881 -0.8745  2.1873
  424SOL    HW3 1727   2.955   0.199   2.768  0.3450 -1.7164 -0.0302
  424SOL    MW4 1728   3.024   0.247   2.746 -0.4188 -0.3892  0.4195
  425SOL     OW 1729   4.374   0.125   0.920 -0.1698  0.0742  0.0932
  425SOL    HW2 1730   4.424   0.047   0.894  0.6653  0.5117  0.3702
  425SOL    HW3 1731   4.342   0.161   0.838  1.7616  0.9839 -0.2791
  425SOL    MW4 1732   4.376   0.119   0.906  0.1952  0.2520  0.0806
  426SOL     OW 1733   3.432   2.601   2.677 -0.1946  0.2209 -0.3949
  426SOL    HW2 1734   3.525   2.611   2.657 -0.3191 -2.2068 -2.4202
  426SOL    HW3 1735   3.388   2.665   2.620  0.0435 -1.0051 -2.0066
  426SOL    MW4 1736   3.438   2.611   2.667 -0.1796 -0.2611 -0.8747
  427SOL     OW 1737   3.738   1.355   4.013 -0.0622 -0.1767 -0.0906
  427SOL    HW2 1738   3.643   1.356   4.001 -0.1832 -0.9784  0.7404
  427SOL    HW3 1739   3.761   1.446   4.028 -0.7994 -0.0725  0.4437
  427SOL    MW4 1740   3.728   1.367   4.013 -0.1754 -0.2687  0.0896
  428SOL     OW 1741   2.297   2.813   4.439 -0.7602 -0.6727  0.4901
  428SOL    HW2 1742   2.301   2.897   4.395 -0.6624 -0.9507 -0.0281
  428SOL    HW3 1743   2.214   2.775   4.411  0.1179 -1.6267 -0.8530
  428SOL    MW4 1744   2.286   2.819   4.430 -0.6315 -0.8353  0.2445
  429SOL     OW 1745   2.087   1.947   4.481  0.0784  0.0893  0.0067
  429SOL    HW2 1746   2.049   1.903   4.404 -1.4744  1.3810  0.0009
  429SOL    HW3 1747   2.076   2.040   4.462  1.2589  0.4327  1.0357
  429SOL    MW4 1748   2.080   1.953   4.468  0.0293  0.3050  0.1417
  430SOL     OW 1749   1.546   0.638   3.870 -0.0449  0.3205 -0.2196
  430SOL    HW2 1750   1.527   0.732   3.862  0.1133  0.2633 -1.4672
  430SOL    HW3 1751   1.553   0.623   3.964 -0.6042  1.4537  0.0208
  430SOL    MW4 1752   1.544   0.648   3.881 -0.0978  0.4625 -0.3525
  431SOL     OW 1753   2.420   3.747   1.870 -0.2069  0.4651 -0.1454
  431SOL    HW2 1754   2.448   3.700   1.791 -0.7252 -0.4081  0.1721
  431SOL    HW3 1755   2.497   3.796   1.899  1.4212 -2.8477  1.4191
  431SOL    MW4 1756   2.434   3.747   1.864 -0.0605 -0.0872  0.1029
  432SOL     OW 1757   0.195   2.441   1.191 -0.4300 -0.1886 -0.3724
  432SOL    HW2 1758   0.226   2.449   1.282  0.2964 -1.0893 -0.5248
  432SOL    HW3 1759   0.172   2.348   1.183 -0.1738 -0.1800 -1.2064
  432SOL    MW4 1760   0.196   2.430   1.202 -0.3004 -0.3063 -0.5025
  433SOL     OW 1761   2.353   0.112   2.799 -0.0455  0.0536  0.6895
  433SOL    HW2 1762   2.308   0.194   2.778  2.6413  1.3369 -0.2409
  433SOL    HW3 1763   2.428   0.138   2.853  1.7180 -1.5989 -0.8669
  433SOL    MW4 1764   2.357   0.126   2.804  0.5417  0.0049  0.3614
  434SOL     OW 1765   0.354   4.390   1.316  0.1508 -0.6491  0.3626
  434SOL    HW2 1766   0.344   4.477   1.355  1.4771 -1.1055  1.7714
  434SOL    HW3 1767   0.449   4.373   1.318 -0.0275 -1.8604 -0.5060
  434SOL    MW4 1768   0.366   4.399   1.321  0.3023 -0.8691  0.4339
  435SOL     OW 1769   2.828   0.569   0.720 -0.2917 -0.7733 -0.3884
  435SOL    HW2 1770   2.840   0.631   0.648  1.3028  0.2214  0.7017
  435SOL    HW3 1771   2.917   0.551   0.751 -0.9871 -0.7037  1.7205
  435SOL    MW4 1772   2.842   0.575   0.715 -0.1730 -0.6328  0.0337
  436SOL     OW 1773   3.219   3.686   2.145 -0.4272 -0.7081 -0.0618
  436SOL    HW2 1774   3.295   3.629   2.138  0.2548  0.1480  0.2475
  436SOL    HW3 1775   3.154   3.635   2.193  0.4912 -0.8966  0.9926
  436SOL    MW4 1776   3.220   3.672   2.150 -0.2161 -0.6200  0.1181
  437SOL     OW 1777   3.153   1.759   4.236 -0.2458 -0.1358 -0.3355
  437SOL    HW2 1778   3.105   1.676   4.232 -1.2673  0.4257  0.0755
  437SOL    HW3 1779   3.160   1.787   4.145 -0.6357 -0.2506 -0.4016
  437SOL    MW4 1780   3.148   1.752   4.224 -0.4320 -0.0769 -0.2900
  438SOL     OW 1781   1.120   2.026   3.601 -0.2527 -0.6232  0.0368
  438SOL    HW2 1782   1.144   1.957   3.662  1.2265  0.2983  0.5254
  438SOL    HW3 1783   1.203   2.060   3.568 -0.8856  1.6799  0.6802
  438SOL    MW4 1784   1.134   2.021   3.605 -0.1411 -0.1978  0.1862
  439SOL     OW 1785   2.316   3.073   1.442  0.0666  0.0443 -0.1083
  439SOL    HW2 1786   2.223   3.076   1.463  0.1917  0.6291  0.3590
  439SOL    HW3 1787   2.334   3.157   1.399  0.2072 -0.3891 -0.9225
  439SOL    MW4 1788   2.306   3.085   1.439  0.1017  0.0643 -0.1541
  440SOL     OW 1789   3.637   2.352   2.524 -0.0202 -0.1252  0.1904
  440SOL    HW2 1790   3.598   2.271   2.491  1.7198 -1.1740  0.5979
  440SOL    HW3 1791   3.625   2.415   2.453 -1.5093 -0.6896 -0.0845
  440SOL    MW4 1792   3.630   2.350   2.510  0.0129 -0.3380  0.2079
  441SOL     OW 1793   1.763   2.743   0.564  0.0321 -0.4739 -0.0630
  441SOL    HW2 1794   1.798   2.676   0.506  0.8364 -0.1580  0.0532
  441SOL    HW3 1795   1.705   2.795   0.507  0.1745 -0.6623 -0.3839
  441SOL    MW4 1796   1.760   2.741   0.549  0.1570 -0.4571 -0.0900
  442SOL     OW 1797   1.386   1.666   2.823 -0.0369  0.3731  0.1157
  442SOL    HW2 1798   1.371   1.665   2.729 -1.2239 -2.3463  0.2886
  442SOL    HW3 1799   1.477   1.637   2.833 -0.4650 -1.0556 -0.1128
  442SOL    MW4 1800   1.396   1.662   2.812 -0.2500 -0.1742  0.1084
  443SOL     OW 1801   1.064   3.998   0.873 -0.3845  0.2096 -0.3826
  443SOL    HW2 1802   0.988   3.991   0.930 -0.5609 -1.4966 -0.8008
  443SOL    HW3 1803   1.032   4.041   0.794 -0.0428  2.9816  0.9309
  443SOL    MW4 1804   1.050   4.003   0.870 -0.3627  0.3502 -0.2645
  444SOL     OW 1805   3.389   1.305   4.031  0.4474 -0.1677  0.1473
  444SOL    HW2 1806   3.422   1.229   3.982  1.1789  0.8492 -0.9701
  444SOL    HW3 1807   3.426   1.296   4.118  1.0850 -0.7330 -0.1803
  444SOL    MW4 1808   3.398   1.294   4.036  0.6280 -0.1081 -0.0433
  445SOL     OW 1809   3.912   2.997   2.014  0.0666  0.0014  0.0129
  445SOL    HW2 1810   3.966   3.056   1.961 -0.7238  0.1614 -0.6246
  445SOL    HW3 1811   3.905   2.918   1.961 -1.2409  0.3887 -0.3879
  445SOL    MW4 1812   3.918   2.994   2.000 -0.2102  0.0736 -0.1241
  446SOL     OW 1813   2.125   4.494   1.977 -0.4741 -0.5601  0.2256
  446SOL    HW2 1814   2.057   4.427   1.966  0.5446 -1.6324  0.3804
  446SOL    HW3 1815   2.204   4.445   1.998  0.3769  0.6735 -0.0375
  446SOL    MW4 1816   2.127   4.479   1.978 -0.2274 -0.5388  0.2113
  447SOL     OW 1817   2.700   2.369   0.510 -0.7308  0.1242 -0.0604
  447SOL    HW2 1818   2.785   2.326   0.515 -1.5312 -1.3181  2.1902
  447SOL    HW3 1819   2.720   2.463   0.509  0.9535 -0.2107 -2.7488
  447SOL    MW4 1820   2.714   2.376   0.511 -0.6142 -0.1103 -0.1182
  448SOL     OW 1821   1.989   2.764   2.647 -0.0967  0.2429 -0.0954
  448SOL    HW2 1822   2.074   2.790   2.684 -0.1827 -0.3420  0.5162
  448SOL    HW3 1823   1.983   2.670   2.665 -1.1966  0.4212  0.5049
  448SOL    MW4 1824   2.000   2.755   2.655 -0.2532  0.1893  0.0645
  449SOL     OW 1825   0.195   1.161   0.833  0.1451  0.3150  0.6147
  449SOL    HW2 1826   0.267   1.161   0.770 -1.2234 -1.5614 -1.0229
  449SOL    HW3 1827   0.119   1.192   0.783 -1.4254 -3.1719  0.6558
  449SOL    MW4 1828   0.195   1.165   0.818 -0.2427 -0.3926  0.4041
  450SOL     OW 1829   0.400   1.218   4.255  0.1350 -0.2067 -0.0398
  450SOL    HW2 1830   0.436   1.265   4.180  0.4312 -0.9280 -0.3547
  450SOL    HW3 1831   0.460   1.239   4.327 -0.7701  1.3682  0.2603
  450SOL    MW4 1832   0.413   1.227   4.255  0.0547 -0.0941 -0.0417
  451SOL     OW 1833   3.319   2.927   3.371 -0.2214 -1.2654  0.2485
  451SOL    HW2 1834   3.298   2.915   3.279 -1.1780  0.5341  0.1989
  451SOL    HW3 1835   3.238   2.903   3.417 -1.1064  1.7009  0.3321
  451SOL    MW4 1836   3.305   2.922   3.365 -0.4643 -0.6366  0.2530
  452SOL     OW 1837   0.304   0.178   3.998 -0.0053 -0.0550  0.2126
  452SOL    HW2 1838   0.293   0.263   3.955  1.4552  0.4464  0.8018
  452SOL    HW3 1839   0.250   0.185   4.077 -1.5537 -0.4597 -0.7792
  452SOL    MW4 1840   0.296   0.190   4.003 -0.0169 -0.0422  0.1594
  453SOL     OW 1841   4.480   2.668   3.809  0.1842  0.3932 -0.4154
  453SOL    HW2 1842   4.461   2.688   3.900 -3.0738 -0.2237 -0.8791
  453SOL    HW3 1843   4.424   2.728   3.759  1.7183  0.5481 -2.0112
  453SOL    MW4 1844   4.470   2.679   3.814 -0.0433  0.3323 -0.6872
  454SOL     OW 1845   4.165   2.175   3.570 -0.7787 -0.0953  0.2830
  454SOL    HW2 1846   4.070   2.166   3.556 -0.5514 -3.9975  0.6358
  454SOL    HW3 1847   4.203   2.165   3.483 -0.5926 -1.3053  0.4868
  454SOL    MW4 1848   4.157   2.172   3.557 -0.7242 -0.7698  0.3565
  455SOL     OW 1849   0.532   3.865   4.134 -0.3727 -1.2160 -0.0895
  455SOL    HW2 1850   0.506   3.828   4.050  0.8429 -1.6899 -0.2715
  455SOL    HW3 1851   0.613   3.913   4.116 -0.8225 -0.1890  0.5533
  455SOL    MW4 1852   0.539   3.866   4.121 -0.2717 -1.1430 -0.0287
  456SOL     OW 1853   2.630   3.801   1.515 -0.3231 -0.3159 -0.1886
  456SOL    HW2 1854   2.643   3.881   1.566 -0.6946  0.2303 -0.9479
  456SOL    HW3 1855   2.711   3.751   1.528 -0.4376 -0.2093  0.9856
  456SOL    MW4 1856   2.643   3.805   1.524 -0.3872 -0.2297 -0.1338
  457SOL     OW 1857   1.608   4.604   0.461  0.3052 -0.2075  0.3440
  457SOL    HW2 1858   1.652   4.687   0.481  0.8355  0.3061 -2.6476
  457SOL    HW3 1859   1.677   4.549   0.425 -0.5717 -1.0215 -0.1141
  457SOL    MW4 1860   1.623   4.608   0.458  0.2595 -0.2471 -0.1112
  458SOL     OW 1861   4.314   1.206   1.159 -0.2550 -0.1447 -0.5033
  458SOL    HW2 1862   4.404   1.185   1.185 -0.4402 -0.5960 -0.2123
  458SOL    HW3 1863   4.313   1.198   1.064  0.3542  1.2094 -0.6421
  458SOL    MW4 1864   4.326   1.202   1.150 -0.1990 -0.0256 -0.4832
  459SOL     OW 1865   2.931   0.380   2.098  0.1358 -0.2212  0.2976
  459SOL    HW2 1866   2.884   0.310   2.143  2.4812 -2.1177 -0.1258
  459SOL    HW3 1867   2.862   0.439   2.067 -2.0079 -3.1573 -0.7539
  459SOL    MW4 1868   2.915   0.379   2.100  0.1624 -0.8588  0.1030
  460SOL     OW 1869   4.281   2.007   1.438  0.1289 -0.0644 -0.2082
  460SOL    HW2 1870   4.193   2.038   1.460  0.6818  1.6523 -0.3886
  460SOL    HW3 1871   4.319   1.980   1.521 -0.6205 -0.9601 -0.1486
  460SOL    MW4 1872   4.274   2.007   1.452  0.1030  0.0440 -0.2242
  461SOL     OW 1873   0.551   0.221   2.179 -0.2286 -0.3561  0.3582
  461SOL    HW2 1874   0.558   0.192   2.088 -0.4527  0.1154  0.1870
  461SOL    HW3 1875   0.592   0.308   2.179 -1.0636  0.0447  0.5073
  461SOL    MW4 1876   0.557   0.229   2.167 -0.3683 -0.2410  0.3553
  462SOL     OW 1877   1.007   2.891   2.207 -0.1754  0.0662 -0.2587
  462SOL    HW2 1878   0.922   2.852   2.190 -0.2484  1.2053 -2.7022
  462SOL    HW3 1879   0.997   2.984   2.185  1.6069  0.2667 -0.3556
  462SOL    MW4 1880   0.995   2.898   2.202  0.0501  0.2430 -0.5939
  463SOL     OW 1881   2.159   4.193   0.793 -0.6559  0.3507  0.0567
  463SOL    HW2 1882   2.175   4.174   0.701 -3.1840 -0.3260 -0.2762
  463SOL    HW3 1883   2.242   4.171   0.836  0.3412  0.0477 -1.9415
  463SOL    MW4 1884   2.172   4.187   0.787 -0.8579  0.2215 -0.2509
  464SOL     OW 1885   4.294   2.380   4.445  0.1054  0.2559 -0.1220
  464SOL    HW2 1886   4.241   2.459   4.433 -0.7161 -0.5787 -2.3344
  464SOL    HW3 1887   4.239   2.321   4.496  0.0804  0.5197  0.1528
  464SOL    MW4 1888   4.280   2.383   4.450 -0.0063  0.1806 -0.3776
  465SOL     OW 1889   3.417   2.948   0.656  0.2426 -0.6794 -0.0393
  465SOL    HW2 1890   3.507   2.920   0.644 -0.0609 -1.8389  0.4201
  465SOL    HW3 1891   3.372   2.872   0.691 -0.7394  0.1463  0.5136
  465SOL    MW4 1892   3.423   2.935   0.659  0.0730 -0.7234  0.0943
  466SOL     OW 1893   2.387   1.220   3.667 -0.0296  0.2402  0.9272
  466SOL    HW2 1894   2.297   1.230   3.695 -0.6317  0.1509 -0.8825
  466SOL    HW3 1895   2.439   1.237   3.745 -1.5673  1.5919  1.6842
  466SOL    MW4 1896   2.382   1.224   3.681 -0.3119  0.4068  0.7883
  467SOL     OW 1897   0.388   1.186   0.618  0.0600 -0.1077 -0.0362
  467SOL    HW2 1898   0.474   1.151   0.643 -0.8479 -0.6597  2.4677
  467SOL    HW3 1899   0.405   1.277   0.596  1.2980 -0.1948  0.4878
  467SOL    MW4 1900   0.401   1.193   0.619  0.1035 -0.1920  0.3633
  468SOL     OW 1901   2.673   2.369   0.797  0.0442  0.5845  0.2599
  468SOL    HW2 1902   2.583   2.393   0.820  0.2987  0.3698  1.4955
  468SOL    HW3 1903   2.678   2.383   0.702 -1.5424 -0.2055  0.0470
  468SOL    MW4 1904   2.662   2.374   0.788 -0.1316  0.4519  0.3948
  469SOL     OW 1905   0.551   1.688   2.395 -0.2746  0.1149 -0.5986
  469SOL    HW2 1906   0.549   1.771   2.348  1.8192  1.0236  0.8542
  469SOL    HW3 1907   0.603   1.705   2.473  0.7099 -2.7116 -0.5635
  469SOL    MW4 1908   0.557   1.701   2.399  0.1316 -0.1381 -0.4023
  470SOL     OW 1909   4.220   4.090   3.160  0.2298 -0.0984  0.2230
  470SOL    HW2 1910   4.154   4.152   3.188 -0.6053 -0.9889  0.2583
  470SOL    HW3 1911   4.301   4.120   3.201 -0.1160  1.0870  0.0495
  470SOL    MW4 1912   4.222   4.102   3.169  0.0740 -0.0595  0.2047
  471SOL     OW 1913   1.328   0.728   1.623 -0.2107  0.0387  0.4395
  471SOL    HW2 1914   1.235   0.720   1.598 -0.1548  1.6049 -0.3897
  471SOL    HW3 1915   1.345   0.822   1.617  1.5979 -0.3077 -0.0053
  471SOL    MW4 1916   1.318   0.740   1.619  0.0353  0.1997  0.2714
  472SOL     OW 1917   2.773   2.010   0.496  0.4802 -0.4769  0.1904
  472SOL    HW2 1918   2.696   2.006   0.551 -2.1999  0.3643 -3.2987
  472SOL    HW3 1919   2.820   2.088   0.526 -1.6042  0.7254  0.4461
  472SOL    MW4 1920   2.769   2.020   0.507 -0.1484 -0.2073 -0.2362
  473SOL     OW 1921   3.983   4.431   2.698 -0.6186 -0.5804  1.2410
  473SOL    HW2 1922   4.033   4.462   2.623 -0.4961  0.1142  1.6044
  473SOL    HW3 1923   4.005   4.338   2.706 -0.3365 -0.5613  0.6561
  473SOL    MW4 1924   3.992   4.423   2.689 -0.5652 -0.4863  1.2117
  474SOL     OW 1925   3.094   4.479   2.567  0.3478  0.0182 -0.0896
  474SOL    HW2 1926   3.099   4.565   2.524  1.0389  0.9999  1.9008
  474SOL    HW3 1927   3.003   4.469   2.591  0.4704  0.6839  0.6529
  474SOL    MW4 1928   3.083   4.489   2.564  0.4552  0.2355  0.2710
  475SOL     OW 1929   2.299   0.542   2.933  0.3080 -0.8132 -0.1864
  475SOL    HW2 1930   2.272   0.630   2.904  1.0272 -0.3228  0.6117
  475SOL    HW3 1931   2.298   0.490   2.853  0.7912  0.1552 -0.8453
  475SOL    MW4 1932   2.295   0.547   2.918  0.4666 -0.6207 -0.1680
  476SOL     OW 1933   2.188   0.547   0.458 -0.1499 -0.9920  0.0587
  476SOL    HW2 1934   2.276   0.585   0.466 -0.4162 -0.2454 -0.5445
  476SOL    HW3 1935   2.200   0.455   0.479  0.5664 -0.6517  1.2097
  476SOL    MW4 1936   2.201   0.540   0.462 -0.0905 -0.8486  0.1310
  477SOL     OW 1937   2.760   1.405   4.231  0.5590  0.0313  0.1810
  477SOL    HW2 1938   2.687   1.410   4.293 -0.9467  1.0058 -1.5947
  477SOL    HW3 1939   2.743   1.476   4.169  3.7580  1.1158  0.4582
  477SOL    MW4 1940   2.748   1.415   4.231  0.7824  0.3030 -0.0167
  478SOL     OW 1941   3.486   0.261   4.147  0.1145 -0.0727 -0.4521
  478SOL    HW2 1942   3.527   0.344   4.125 -0.0260 -0.0440 -0.6008
  478SOL    HW3 1943   3.546   0.195   4.112  0.2792 -0.0365 -0.2404
  478SOL    MW4 1944   3.499   0.263   4.140  0.1177 -0.0641 -0.4438
  479SOL     OW 1945   0.801   3.066   3.428  0.1702 -0.2457 -0.8778
  479SOL    HW2 1946   0.721   3.050   3.478  0.3541 -0.7066 -0.7301
  479SOL    HW3 1947   0.870   3.022   3.478  1.0597  2.7530  0.7079
  479SOL    MW4 1948   0.800   3.058   3.441  0.3118  0.0891 -0.6491
  480SOL     OW 1949   3.239   0.061   2.751  0.3784  0.2272  0.5273
  480SOL    HW2 1950   3.156   0.106   2.734 -0.1092 -0.8263  0.1173
  480SOL    HW3 1951   3.282   0.056   2.666  0.2965 -0.3452  0.5164
  480SOL    MW4 1952   3.233   0.067   2.737  0.3033  0.0127  0.4718
  481SOL     OW 1953   0.910   1.539   0.897 -0.0454  0.1336  0.3632
  481SOL    HW2 1954   0.942   1.449   0.900 -1.0449 -0.3206 -1.8158
  481SOL    HW3 1955   0.886   1.553   0.806 -1.1295  2.1802  0.9378
  481SOL    MW4 1956   0.911   1.529   0.886 -0.3203  0.3437  0.1515
  482SOL     OW 1957   4.161   1.837   4.257 -0.0342  0.1185 -0.4619
  482SOL    HW2 1958   4.145   1.886   4.177 -0.7713  1.6176  0.5842
  482SOL    HW3 1959   4.229   1.774   4.234 -0.1394  0.6439 -2.2158
  482SOL    MW4 1960   4.168   1.835   4.244 -0.1454  0.3856 -0.5553
  483SOL     OW 1961   0.217   3.192   1.985  0.3491 -0.4677  0.4610
  483SOL    HW2 1962   0.167   3.111   1.994  0.0074 -0.4153 -0.9824
  483SOL    HW3 1963   0.285   3.185   2.053 -1.0408 -0.9325  1.8305
  483SOL    MW4 1964   0.220   3.180   1.995  0.1206 -0.5221  0.4513
  484SOL     OW 1965   0.460   3.565   2.355  0.3063  0.1075 -0.1011
  484SOL    HW2 1966   0.417   3.642   2.320 -0.4701 -0.5912 -0.7137
  484SOL    HW3 1967   0.389   3.501   2.366  1.1036 -0.8953 -0.6679
  484SOL    MW4 1968   0.445   3.566   2.352  0.3091 -0.1170 -0.2567
  485SOL     OW 1969   3.669   2.310   3.158 -0.2824 -0.1442  0.2710
  485SOL    HW2 1970   3.628   2.334   3.241  0.4953 -0.5149  0.7674
  485SOL    HW3 1971   3.728   2.383   3.138  0.7960 -0.8192  0.9115
  485SOL    MW4 1972   3.671   2.322   3.166 -0.0375 -0.2822  0.4210
  486SOL     OW 1973   1.859   3.126   1.191 -0.7196 -0.0738  0.8017
  486SOL    HW2 1974   1.893   3.203   1.236 -1.7880  0.2781  1.0141
  486SOL    HW3 1975   1.921   3.056   1.213 -0.1964  0.5284  1.2677
  486SOL    MW4 1976   1.872   3.127   1.200 -0.7915  0.0521  0.8912
  487SOL     OW 1977   1.842   4.274   3.046 -0.1940 -0.6108 -0.1848
  487SOL    HW2 1978   1.875   4.317   3.125  0.7817 -2.3239  0.3699
  487SOL    HW3 1979   1.766   4.225   3.075 -1.2945  0.6820 -0.8153
  487SOL    MW4 1980   1.837   4.273   3.060 -0.2105 -0.6663 -0.1948
  488SOL     OW 1981   1.774   4.644   2.437 -0.2718 -0.3046 -0.6141
  488SOL    HW2 1982   1.799   4.729   2.401  0.5717  0.0318  0.7482
  488SOL    HW3 1983   1.760   4.660   2.530 -0.9958 -1.4717 -0.5069
  488SOL    MW4 1984   1.775   4.657   2.445 -0.2560 -0.4142 -0.4202
  489SOL     OW 1985   4.165   4.591   1.901  0.0565 -0.6049  0.3557
  489SOL    HW2 1986   4.227   4.545   1.844 -1.8446 -0.6333 -1.7347
  489SOL    HW3 1987   4.162   4.680   1.867 -0.4719 -0.3981  0.9380
  489SOL    MW4 1988   4.173   4.596   1.889 -0.2641 -0.5814  0.1568
  490SOL     OW 1989   4.061   1.514   2.679 -0.2128  0.7386 -0.0203
  490SOL    HW2 1990   4.065   1.532   2.773  1.3841 -0.9855  0.2874
  490SOL    HW3 1991   4.123   1.442   2.666 -1.5149 -0.0522 -2.1555
  490SOL    MW4 1992   4.069   1.506   2.690 -0.1739  0.4068 -0.2614
  491SOL     OW 1993   2.504   1.682   1.770 -0.2811 -0.2958 -0.0901
  491SOL    HW2 1994   2.502   1.757   1.710 -0.7143  0.6451  1.0704
  491SOL    HW3 1995   2.415   1.647   1.766  0.2891 -1.6443 -1.7015
  491SOL    MW4 1996   2.492   1.687   1.761 -0.2630 -0.3496 -0.1496
  492SOL     OW 1997   1.188   4.524   4.042  0.2332 -0.5448 -0.5647
  492SOL    HW2 1998   1.239   4.481   4.110  1.4008 -0.1503 -1.1672
  492SOL    HW3 1999   1.162   4.453   3.983  0.7927 -0.6400 -0.6992
  492SOL    MW4 2000   1.191   4.509   4.043  0.4610 -0.5053 -0.6619
  493SOL     OW 2001   0.769   2.185   3.526  0.3505 -0.4996  0.0626
  493SOL    HW2 2002   0.806   2.193   3.614  0.0602 -1.4132  0.2780
  493SOL    HW3 2003   0.676   2.169   3.541  0.5623 -2.2014 -0.3658
  493SOL    MW4 2004   0.761   2.184   3.540  0.3402 -0.8447  0.0345
  494SOL     OW 2005   3.866   0.070   3.495 -0.1268  0.1795 -0.1239
  494SOL    HW2 2006   3.931  -0.000   3.498 -0.8180 -0.4011  2.2273
  494SOL    HW3 2007   3.784   0.026   3.472 -0.3764  0.3699  0.4042
  494SOL    MW4 2008   3.863   0.055   3.492 -0.2509  0.1280  0.2560
  495SOL     OW 2009   4.047   2.425   3.390 -0.7122  0.2154  0.2228
  495SOL    HW2 2010   4.001   2.342   3.402 -1.2512  0.4080 -0.4603
  495SOL    HW3 2011   3.978   2.488   3.368 -0.3072  0.8457  0.7487
  495SOL    MW4 2012   4.032   2.422   3.389 -0.7299  0.3240  0.2021
  496SOL     OW 2013   0.762   0.713   4.004  0.2131 -0.0355 -0.4517
  496SOL    HW2 2014   0.704   0.655   4.054  1.4146 -0.4801  0.4525
  496SOL    HW3 2015   0.783   0.784   4.064  1.1298 -0.2264 -0.5315
  496SOL    MW4 2016   0.757   0.714   4.018  0.4926 -0.1193 -0.3429
  497SOL     OW 2017   0.662   4.278   3.563  0.3831  0.3940  0.1038
  497SOL    HW2 2018   0.614   4.358   3.538  1.1005  1.5391  2.3090
  497SOL    HW3 2019   0.707   4.301   3.644  0.5365 -2.2968  0.8251
  497SOL    MW4 2020   0.661   4.292   3.570  0.4980  0.1900  0.4899
  498SOL     OW 2021   4.283   0.557   3.539  0.6239 -0.1053 -0.3651
  498SOL    HW2 2022   4.367   0.545   3.494  1.1689  0.3104  0.5215
  498SOL    HW3 2023   4.297   0.519   3.626  0.2021  0.8038  0.1120
  498SOL    MW4 2024   4.296   0.550   3.544  0.6401  0.0695 -0.1852
  499SOL     OW 2025   0.220   2.510   0.438  0.2448  0.1392 -0.0425
  499SOL    HW2 2026   0.293   2.569   0.456  1.0808 -0.6380 -0.8097
  499SOL    HW3 2027   0.142   2.564   0.448  0.9289  0.9822  0.7744
  499SOL    MW4 2028   0.219   2.525   0.442  0.4453  0.1479 -0.0359
  500SOL     OW 2029   2.662   1.586   4.050  0.2010 -0.4323 -0.0748
  500SOL    HW2 2030   2.641   1.673   4.084 -0.7860 -1.4603  2.0554
  500SOL    HW3 2031   2.603   1.575   3.975 -0.0922  0.5046  0.0139
  500SOL    MW4 2032   2.651   1.596   4.044  0.0321 -0.4443  0.2180
  501SOL     OW 2033   1.393   2.415   4.407 -0.5611 -0.0275  0.5484
  501SOL    HW2 2034   1.300   2.430   4.421 -0.4429  1.0925  0.1250
  501SOL    HW3 2035   1.432   2.502   4.405  0.4340 -0.4707  0.2605
  501SOL    MW4 2036   1.386   2.428   4.409 -0.4142  0.0618  0.4546
  502SOL     OW 2037   1.673   2.204   2.916  0.3000 -0.0186  0.6843
  502SOL    HW2 2038   1.640   2.205   2.826 -2.0598 -0.5596  1.4940
  502SOL    HW3 2039   1.733   2.278   2.921 -1.1070  1.2684 -0.7945
  502SOL    MW4 2040   1.676   2.214   2.905 -0.1970  0.0798  0.5960
  503SOL     OW 2041   2.720   3.611   1.957  0.1513  0.2018  0.3145
  503SOL    HW2 2042   2.796   3.665   1.933 -0.0845  0.0381 -0.8405
  503SOL    HW3 2043   2.712   3.548   1.886  0.2564 -1.2013  1.5352
  503SOL    MW4 2044   2.729   3.610   1.944  0.1340 -0.0049  0.3232
  504SOL     OW 2045   3.981   0.607   4.398  0.3845  0.0252 -0.6324
  504SOL    HW2 2046   3.966   0.681   4.338 -2.2766  1.0001  1.1294
  504SOL    HW3 2047   3.898   0.597   4.444  2.1032 -1.2211  2.3241
  504SOL    MW4 2048   3.968   0.616   4.396  0.2602 -0.0106 -0.0099
  505SOL     OW 2049   2.407   3.773   1.054 -0.2153 -0.0584 -0.3442
  505SOL    HW2 2050   2.323   3.765   1.099 -1.7868  0.8154 -2.9644
  505SOL    HW3 2051   2.458   3.698   1.083 -2.6922 -1.7571 -0.2542
  505SOL    MW4 2052   2.402   3.762   1.064 -0.7495 -0.1672 -0.6780
  506SOL     OW 2053   0.689   0.277   2.906  0.5538 -0.2846 -0.1873
  506SOL    HW2 2054   0.618   0.275   2.970  0.7687 -1.4552  0.0372
  506SOL    HW3 2055   0.655   0.229   2.830  0.8471 -0.2328 -0.3533
  506SOL    MW4 2056   0.675   0.270   2.905  0.6209 -0.4322 -0.1795
  507SOL     OW 2057   2.719   2.760   0.727  0.2980  0.2929  0.3561
  507SOL    HW2 2058   2.800   2.765   0.777  0.3687  0.7751  0.1933
  507SOL    HW3 2059   2.652   2.793   0.787  0.4651  1.3755 -0.0488
  507SOL    MW4 2060   2.721   2.765   0.741  0.3294  0.4994  0.2812
  508SOL     OW 2061   0.501   2.658   4.019  0.6415  0.2249  0.2913
  508SOL    HW2 2062   0.543   2.582   4.059 -2.5698 -1.1240  1.3047
  508SOL    HW3 2063   0.497   2.638   3.926 -0.3125 -0.9644  0.5722
  508SOL    MW4 2064   0.506   2.645   4.012  0.0920 -0.1099  0.4621
  509SOL     OW 2065   4.166   3.805   3.133 -0.5109 -0.3944 -0.4803
  509SOL    HW2 2066   4.073   3.805   3.110 -0.8339  0.5524  0.7332
  509SOL    HW3 2067   4.188   3.898   3.146  0.3541 -0.6732  0.1691
  509SOL    MW4 2068   4.157   3.817   3.132 -0.4394 -0.3063 -0.2345
  510SOL     OW 2069   3.905   3.881   2.083  0.5498 -0.1611 -0.2494
  510SOL    HW2 2070   3.981   3.891   2.140 -1.2078  1.4704  1.9006
  510SOL    HW3 2071   3.882   3.789   2.089 -0.1312  0.1327  2.4776
  510SOL    MW4 2072   3.912   3.870   2.091  0.2280  0.0929  0.3941
  511SOL     OW 2073   3.057   1.251   0.315  0.2240  0.1518  0.0950
  511SOL    HW2 2074   2.996   1.257   0.388  1.7033  2.2521  1.1767
  511SOL    HW3 2075   3.058   1.157   0.293  0.0386 -0.5611  2.9751
  511SOL    MW4 2076   3.049   1.239   0.321  0.3947  0.3348  0.6177
  512SOL     OW 2077   4.111   1.841   3.203 -0.2274  0.1846  0.2577
  512SOL    HW2 2078   4.117   1.928   3.243  2.7849  0.2994 -0.3279
  512SOL    HW3 2079   4.073   1.857   3.116 -0.2485  0.8370  0.3849
  512SOL    MW4 2080   4.107   1.855   3.196  0.1673  0.2858  0.1973
  513SOL     OW 2081   1.830   1.914   1.100 -0.1643  0.0521 -0.5993
  513SOL    HW2 2082   1.845   1.845   1.036  0.1283  0.4730 -0.9811
  513SOL    HW3 2083   1.753   1.884   1.149  0.5407 -1.0069 -0.1205
  513SOL    MW4 2084   1.822   1.901   1.098 -0.0327 -0.0321 -0.5865
  514SOL     OW 2085   1.364   3.617   4.090  0.2283  0.0871 -0.0684
  514SOL    HW2 2086   1.317   3.544   4.128 -0.9879 -0.0393 -1.7736
  514SOL    HW3 2087   1.455   3.588   4.088 -0.1375 -1.0946 -0.0614
  514SOL    MW4 2088   1.370   3.604   4.094  0.0195 -0.0855 -0.2924
  515SOL     OW 2089   1.815   1.812   4.551  0.0117  0.1604  0.0169
  515SOL    HW2 2090   1.851   1.731   4.588 -0.3935 -0.3152 -0.6150
  515SOL    HW3 2091   1.889   1.871   4.545  0.6298 -0.6955 -0.9564
  515SOL    MW4 2092   1.829   1.809   4.555  0.0398 -0.0153 -0.1949
  516SOL     OW 2093   0.073   3.953   2.105  0.0448  0.2214  0.5465
  516SOL    HW2 2094  -0.009   3.904   2.104 -0.1003  0.4574  0.7307
  516SOL    HW3 2095   0.136   3.896   2.061 -1.0461  1.4796 -2.7941
  516SOL    MW4 2096   0.071   3.939   2.099 -0.1182  0.4186  0.1300
  517SOL     OW 2097   1.710   2.236   3.333 -0.2394  0.1388 -0.1643
  517SOL    HW2 2098   1.712   2.142   3.348 -0.5782 -0.4005 -3.1780
  517SOL    HW3 2099   1.790   2.254   3.284 -0.0956  1.4669  0.5194
  517SOL    MW4 2100   1.721   2.226   3.329 -0.2651  0.2429 -0.4717
  518SOL     OW 2101   3.396   3.995   2.615  0.0844 -0.0764 -0.0332
  518SOL    HW2 2102   3.470   3.991   2.675  0.2262  1.4145 -0.0884
  518SOL    HW3 2103   3.392   4.086   2.588 -0.2292 -0.6503 -2.0016
  518SOL    MW4 2104   3.405   4.006   2.620  0.0617  0.0446 -0.3002
  519SOL     OW 2105   0.234   0.091   1.540 -0.1002  0.1950 -0.0957
  519SOL    HW2 2106   0.286   0.171   1.534  3.0631 -1.7149  0.3578
  519SOL    HW3 2107   0.253   0.056   1.627 -1.2058 -1.1718 -0.3798
  519SOL    MW4 2108   0.244   0.097   1.551  0.1713 -0.2373 -0.0733
  520SOL     OW 2109   4.055   0.727   3.552  0.1828  0.3661  0.1023
  520SOL    HW2 2110   4.129   0.668   3.561  0.4043  0.8066  1.1550
  520SOL    HW3 2111   3.985   0.672   3.515  0.6661 -0.3213  0.2079
  520SOL    MW4 2112   4.055   0.712   3.548  0.2758  0.3335  0.2551
  521SOL     OW 2113   3.246   3.134   1.930  0.2750 -0.0746  0.0249
  521SOL    HW2 2114   3.264   3.221   1.895  1.6364 -0.1971  0.3879
  521SOL    HW3 2115   3.288   3.074   1.869 -1.6134 -0.5522 -0.8343
  521SOL    MW4 2116   3.253   3.138   1.917  0.2055 -0.1537 -0.0405
  522SOL     OW 2117   0.767   0.270   1.309 -0.4721 -0.5916 -0.1923
  522SOL    HW2 2118   0.843   0.271   1.368 -0.1011 -0.3427 -0.6679
  522SOL    HW3 2119   0.729   0.183   1.321 -0.4392 -0.5177  0.4646
  522SOL    MW4 2120   0.772   0.258   1.319 -0.4188 -0.5490 -0.1684
  523SOL     OW 2121   1.943   2.524   2.329 -0.5751  0.3117  0.3331
  523SOL    HW2 2122   1.962   2.613   2.357 -0.3145  0.4623 -0.3331
  523SOL    HW3 2123   1.999   2.469   2.384  0.5554  0.6574 -0.4622
  523SOL    MW4 2124   1.953   2.528   2.340 -0.3915  0.3772  0.1403
  524SOL     OW 2125   3.145   4.089   0.835 -0.0319 -0.3355 -0.0248
  524SOL    HW2 2126   3.082   4.067   0.767 -0.6705  1.2286  0.0341
  524SOL    HW3 2127   3.199   4.011   0.845 -2.4175 -1.9805  0.4310
  524SOL    MW4 2128   3.144   4.076   0.828 -0.4309 -0.3462  0.0431
  525SOL     OW 2129   1.052   1.456   3.163 -0.2109  0.1624 -0.6127
  525SOL    HW2 2130   0.966   1.475   3.199  0.5067  2.5957 -0.0748
  525SOL    HW3 2131   1.107   1.529   3.193  1.6416 -0.5096 -2.2785
  525SOL    MW4 2132   1.048   1.468   3.172  0.1282  0.3948 -0.7615
  526SOL     OW 2133   3.568   4.008   1.618 -0.2645  0.2173  0.2184
  526SOL    HW2 2134   3.484   3.995   1.574 -0.0874  0.3068 -0.1506
  526SOL    HW3 2135   3.561   3.959   1.700 -0.6397  0.1443  0.1399
  526SOL    MW4 2136   3.556   4.000   1.623 -0.2906  0.2195  0.1594
  527SOL     OW 2137   0.716   0.911   2.895 -0.3078  0.4055  0.4994
  527SOL    HW2 2138   0.759   0.991   2.865 -1.3762  0.9318  0.3510
  527SOL    HW3 2139   0.692   0.865   2.814 -0.7243  0.4961  0.5694
  527SOL    MW4 2140   0.718   0.916   2.880 -0.5037  0.4869  0.4891
  528SOL     OW 2141   1.727   3.951   1.267 -0.3250  0.5683  0.4339
  528SOL    HW2 2142   1.682   3.895   1.330  0.0134 -0.5403 -0.2801
  528SOL    HW3 2143   1.731   4.037   1.309  1.2609 -0.5041  2.6041
  528SOL    MW4 2144   1.722   3.955   1.281 -0.0711  0.2805  0.6260
  529SOL     OW 2145   1.710   3.550   2.939  0.3282  0.0978  0.3827
  529SOL    HW2 2146   1.746   3.488   3.003  0.2468  0.4794  0.8022
  529SOL    HW3 2147   1.628   3.510   2.911  0.2352  0.0489  0.7114
  529SOL    MW4 2148   1.704   3.537   2.944  0.3052  0.1417  0.4814
  530SOL     OW 2149   2.984   4.035   2.082  0.0094 -0.0633 -0.1960
  530SOL    HW2 2150   2.905   4.064   2.128  0.4874 -1.9447  1.8929
  530SOL    HW3 2151   3.044   4.007   2.151  1.9415 -0.1007 -1.8290
  530SOL    MW4 2152   2.981   4.035   2.097  0.3274 -0.3164 -0.1358
  531SOL     OW 2153   2.223   3.050   4.248 -0.1672  0.7855 -0.0229
  531SOL    HW2 2154   2.297   3.055   4.188  0.1777 -1.7813  0.1303
  531SOL    HW3 2155   2.147   3.036   4.191 -0.1768  0.8293 -0.0211
  531SOL    MW4 2156   2.222   3.049   4.233 -0.1230  0.4526 -0.0025
  532SOL     OW 2157   1.046   2.254   3.952  0.2028 -0.3399 -0.2487
  532SOL    HW2 2158   1.138   2.260   3.925  0.5295  1.8198  1.1793
  532SOL    HW3 2159   1.049   2.211   4.037  0.3412  3.3759  1.7119
  532SOL    MW4 2160   1.059   2.249   3.959  0.2642  0.4353  0.1984
  533SOL     OW 2161   4.026   4.296   3.198  0.0248  0.1012  0.2694
  533SOL    HW2 2162   3.993   4.351   3.127 -0.1204  0.2842  0.4782
  533SOL    HW3 2163   3.968   4.314   3.271  0.8300  0.7306  0.7624
  533SOL    MW4 2164   4.014   4.305   3.198  0.1119  0.2084  0.3620
  534SOL     OW 2165   0.357   0.242   2.646 -0.1199  0.0900  0.0769
  534SOL    HW2 2166   0.446   0.213   2.667  0.2008 -0.0489 -1.4489
  534SOL    HW3 2167   0.364   0.279   2.558 -1.3226  1.2394  0.4618
  534SOL    MW4 2168   0.370   0.243   2.637 -0.2363  0.2233 -0.0736
  535SOL     OW 2169   1.024   0.579   3.046 -0.0507  0.2902 -0.2168
  535SOL    HW2 2170   1.111   0.616   3.031  1.0165 -2.0088  0.1646
  535SOL    HW3 2171   1.009   0.590   3.140  0.4997 -0.7167 -0.0061
  535SOL    MW4 2172   1.033   0.585   3.057  0.1628 -0.1460 -0.1387
  536SOL     OW 2173   3.144   3.705   3.184 -0.1903 -0.5752 -0.2501
  536SOL    HW2 2174   3.225   3.654   3.194  1.4715  1.6991 -1.6501
  536SOL    HW3 2175   3.152   3.746   3.098 -1.1406  2.5660  1.0711
  536SOL    MW4 2176   3.156   3.704   3.174 -0.0964  0.1393 -0.2605
  537SOL     OW 2177   0.781   0.413   1.053  0.2592  0.4592 -0.2974
  537SOL    HW2 2178   0.812   0.375   1.135  0.5012  0.7626 -0.2442
  537SOL    HW3 2179   0.731   0.344   1.010  0.5478  0.1466 -0.1223
  537SOL    MW4 2180   0.778   0.399   1.058  0.3292  0.4580 -0.2673
  538SOL     OW 2181   0.853   0.128   3.352 -0.5112  0.1457  0.0278
  538SOL    HW2 2182   0.914   0.055   3.360 -0.1970  0.2992 -0.9569
  538SOL    HW3 2183   0.836   0.155   3.442  1.0516  0.2552  0.2931
  538SOL    MW4 2184   0.859   0.122   3.365 -0.2635  0.1804 -0.0672
  539SOL     OW 2185   0.966   2.882   3.034 -0.0449 -0.0461  0.4265
  539SOL    HW2 2186   0.967   2.787   3.028 -0.4750 -0.0278  0.0044
  539SOL    HW3 2187   1.036   2.904   3.094  0.5065 -0.5956 -0.0160
  539SOL    MW4 2188   0.975   2.873   3.041 -0.0289 -0.1162  0.3124
  540SOL     OW 2189   0.669   1.125   1.636 -0.1193 -0.0919  0.3624
  540SOL    HW2 2190   0.704   1.062   1.700 -0.8929 -0.4102  0.4772
  540SOL    HW3 2191   0.669   1.209   1.682  1.5201  0.1259 -0.0025
  540SOL    MW4 2192   0.674   1.128   1.651 -0.0051 -0.1052  0.3294
  541SOL     OW 2193   0.631   1.553   2.823  0.9542  0.0075 -0.1764
  541SOL    HW2 2194   0.675   1.576   2.904 -0.6919  1.4377  0.3351
  541SOL    HW3 2195   0.566   1.622   2.810  0.4395 -0.8004 -2.1229
  541SOL    MW4 2196   0.628   1.565   2.832  0.6691  0.0896 -0.3658
  542SOL     OW 2197   1.476   2.062   2.228  0.6315 -0.2774 -0.2771
  542SOL    HW2 2198   1.495   1.977   2.188 -0.9358 -0.3096 -1.0122
  542SOL    HW3 2199   1.458   2.119   2.153  0.3665  0.3587  0.2731
  542SOL    MW4 2200   1.476   2.058   2.213  0.3898 -0.1977 -0.3015
  543SOL     OW 2201   1.040   2.649   1.582  0.4297 -0.1804 -0.4207
  543SOL    HW2 2202   1.082   2.719   1.632  0.5144 -0.6258  0.1258
  543SOL    HW3 2203   0.962   2.690   1.544 -1.1410 -0.5350  2.2870
  543SOL    MW4 2204   1.035   2.664   1.583  0.2336 -0.2860  0.0087
  544SOL     OW 2205   3.446   0.658   2.370  0.0784 -0.6125 -0.3783
  544SOL    HW2 2206   3.517   0.646   2.434 -0.4409 -0.6905  0.1920
  544SOL    HW3 2207   3.489   0.652   2.285  0.8241 -0.2781 -0.0340
  544SOL    MW4 2208   3.461   0.656   2.367  0.1083 -0.5786 -0.2576
  545SOL     OW 2209   0.913   1.716   4.208 -0.5738 -0.2029 -0.0559
  545SOL    HW2 2210   0.907   1.801   4.251  0.1127  0.0378 -0.4282
  545SOL    HW3 2211   0.975   1.729   4.136 -0.7383 -0.9233 -0.3402
  545SOL    MW4 2212   0.921   1.729   4.204 -0.5049 -0.2662 -0.1425
  546SOL     OW 2213   3.900   2.010   2.009 -0.3547  0.6138 -0.1629
  546SOL    HW2 2214   3.988   1.985   2.038 -0.7353  1.4963  1.9002
  546SOL    HW3 2215   3.912   2.045   1.921  1.2131 -0.2313 -0.2885
  546SOL    MW4 2216   3.913   2.012   2.001 -0.1981  0.6187  0.0927
  547SOL     OW 2217   3.724   2.982   3.990 -0.4543 -0.0446  0.2351
  547SOL    HW2 2218   3.718   3.041   3.915 -0.5702 -0.6150 -0.2098
  547SOL    HW3 2219   3.634   2.970   4.020 -0.2298  1.7001  1.6681
  547SOL    MW4 2220   3.712   2.988   3.984 -0.4400  0.1104  0.3654
  548SOL     OW 2221   3.217   3.255   0.586 -0.1206  0.3519 -0.1396
  548SOL    HW2 2222   3.262   3.172   0.570  0.9633  0.8756  0.1561
  548SOL    HW3 2223   3.124   3.235   0.572  0.2194 -0.6692 -1.0449
  548SOL    MW4 2224   3.211   3.242   0.582  0.0672  0.2863 -0.2201
  549SOL     OW 2225   2.010   4.121   1.791 -0.0833 -0.1486  0.0990
  549SOL    HW2 2226   2.072   4.055   1.820  2.0554  1.8415  0.1621
  549SOL    HW3 2227   1.954   4.076   1.728  1.0578 -2.1025  0.4606
  549SOL    MW4 2228   2.011   4.107   1.787  0.3494 -0.1438  0.1551
  550SOL     OW 2229   1.761   4.227   1.362  0.2806  0.0886 -0.3789
  550SOL    HW2 2230   1.710   4.291   1.312 -1.2159 -0.7964 -0.0173
  550SOL    HW3 2231   1.847   4.227   1.320 -0.1032  1.3889 -1.1913
  550SOL    MW4 2232   1.766   4.235   1.350  0.0325  0.1434 -0.4384
  551SOL     OW 2233   2.505   0.920   1.974 -0.3943 -0.3698 -0.0798
  551SOL    HW2 2234   2.429   0.906   1.917 -1.0935 -1.1227  1.0112
  551SOL    HW3 2235   2.508   1.014   1.988 -0.9275 -0.3018 -0.4022
  551SOL    MW4 2236   2.496   0.930   1.968 -0.5569 -0.4601  0.0216
  552SOL     OW 2237   3.555   1.489   3.135  0.4593 -0.0486  0.0462
  552SOL    HW2 2238   3.526   1.526   3.218 -0.0943 -0.6436  0.1173
  552SOL    HW3 2239   3.636   1.442   3.157  1.0590  0.9210 -0.0070
  552SOL    MW4 2240   3.562   1.488   3.149  0.4654  0.0008  0.0486
  553SOL     OW 2241   1.162   1.299   3.376 -0.0954 -0.2549  0.0729
  553SOL    HW2 2242   1.110   1.340   3.307 -0.8863 -2.0787 -0.4406
  553SOL    HW3 2243   1.244   1.274   3.333 -0.4856 -1.1590 -0.1588
  553SOL    MW4 2244   1.166   1.301   3.361 -0.2512 -0.6148 -0.0254
  554SOL     OW 2245   3.488   0.835   1.302  0.4406 -0.2054  0.2055
  554SOL    HW2 2246   3.505   0.751   1.345  0.5807 -0.6954 -0.7933
  554SOL    HW3 2247   3.572   0.861   1.265  0.4548  0.5025  0.7373
  554SOL    MW4 2248   3.501   0.827   1.302  0.4609 -0.1767  0.1439
  555SOL     OW 2249   1.461   2.132   1.711 -0.1245 -0.1157  0.1353
  555SOL    HW2 2250   1.476   2.165   1.623  0.1524 -1.0607 -0.1697
  555SOL    HW3 2251   1.533   2.170   1.763 -0.6777  0.9963  0.1107
  555SOL    MW4 2252   1.473   2.142   1.706 -0.1610 -0.0936  0.0918
  556SOL     OW 2253   2.067   3.413   1.851 -0.0842 -0.4436 -0.0766
  556SOL    HW2 2254   1.972   3.409   1.838 -0.1904  1.5646 -0.0680
  556SOL    HW3 2255   2.094   3.321   1.856 -2.5184 -1.0730  3.4592
  556SOL    MW4 2256   2.058   3.400   1.850 -0.4194 -0.2617  0.3910
  557SOL     OW 2257   2.328   3.420   4.087 -0.1163 -0.1515 -0.3385
  557SOL    HW2 2258   2.390   3.441   4.017  0.3753 -0.4371  0.0085
  557SOL    HW3 2259   2.242   3.441   4.050  0.2905  1.6120 -0.3119
  557SOL    MW4 2260   2.325   3.425   4.073  0.0023  0.0435 -0.2892
  558SOL     OW 2261   2.918   4.448   1.282 -0.2454  0.2402 -0.5302
  558SOL    HW2 2262   3.008   4.421   1.298 -1.0984 -0.9500  2.7968
  558SOL    HW3 2263   2.878   4.374   1.236 -0.3405 -0.6494  0.9418
  558SOL    MW4 2264   2.924   4.435   1.278 -0.3705 -0.0342  0.1030
  559SOL     OW 2265   4.463   4.199   4.328 -0.3135 -0.3673 -0.0395
  559SOL    HW2 2266   4.471   4.203   4.233  0.2612  1.8686  0.0887
  559SOL    HW3 2267   4.376   4.163   4.343 -1.4272  1.6618 -1.4274
  559SOL    MW4 2268   4.453   4.195   4.317 -0.3846  0.1954 -0.2057
  560SOL     OW 2269   1.742   2.749   0.958 -0.1713 -0.1259  0.0567
  560SOL    HW2 2270   1.653   2.784   0.967  0.5706  2.3614 -1.8336
  560SOL    HW3 2271   1.771   2.734   1.048 -2.0102  0.3515  0.7448
  560SOL    MW4 2272   1.734   2.752   0.971 -0.3160  0.2653 -0.1019
  561SOL     OW 2273   3.789   2.039   4.372 -0.1944  0.4251  0.5423
  561SOL    HW2 2274   3.704   2.084   4.379 -0.7906 -0.6860  0.6734
  561SOL    HW3 2275   3.826   2.071   4.290 -1.4306 -0.1855 -0.2844
  561SOL    MW4 2276   3.782   2.049   4.362 -0.4362  0.1980  0.4505
  562SOL     OW 2277   4.032   0.277   3.511 -0.1233 -0.4269  0.4387
  562SOL    HW2 2278   3.976   0.204   3.486  1.3493 -1.3875 -0.1159
  562SOL    HW3 2279   4.102   0.277   3.445  0.0104  1.3475  0.5583
  562SOL    MW4 2280   4.034   0.267   3.499  0.0887 -0.3195  0.3813
  563SOL     OW 2281   4.408   3.059   2.905 -0.2775  0.1676  0.0713
  563SOL    HW2 2282   4.434   2.991   2.843  0.3179  0.4653 -0.0083
  563SOL    HW3 2283   4.482   3.065   2.966  0.1836  1.5802 -0.6169
  563SOL    MW4 2284   4.421   3.050   2.905 -0.1381  0.3933 -0.0300
  564SOL     OW 2285   3.668   3.379   2.197 -0.0985 -0.3162  0.0042
  564SOL    HW2 2286   3.715   3.444   2.145  1.1658 -0.7110  0.6163
  564SOL    HW3 2287   3.662   3.302   2.141 -1.2541  0.1825 -0.5789
  564SOL    MW4 2288   3.674   3.378   2.183 -0.0842 -0.3025  0.0081
  565SOL     OW 2289   0.886   4.016   3.818 -0.4797 -0.3360  0.8587
  565SOL    HW2 2290   0.962   4.001   3.762  0.0177  1.5171  1.0084
  565SOL    HW3 2291   0.815   3.967   3.777  0.1829  0.0107 -0.7075
  565SOL    MW4 2292   0.887   4.008   3.806 -0.3266 -0.0457  0.6718
  566SOL     OW 2293   0.022   3.943   2.836  0.3777 -0.0151  0.1863
  566SOL    HW2 2294   0.020   3.866   2.891 -0.8408 -1.5683 -1.9489
  566SOL    HW3 2295  -0.065   3.981   2.844  1.2693  1.7744  2.0132
  566SOL    MW4 2296   0.011   3.938   2.844  0.3346  0.0161  0.1456
  567SOL     OW 2297   2.631   3.932   4.191  0.3195 -0.0191  0.0013
  567SOL    HW2 2298   2.588   3.925   4.106  1.6172 -0.5429 -0.6096
  567SOL    HW3 2299   2.577   3.878   4.249  0.2601 -0.8198 -0.7958
  567SOL    MW4 2300   2.618   3.924   4.188  0.4829 -0.1939 -0.1845
  568SOL     OW 2301   2.824   2.733   1.948  0.2441 -0.1835  0.1028
  568SOL    HW2 2302   2.793   2.731   1.858 -1.3989  1.2016  0.5991
  568SOL    HW3 2303   2.781   2.659   1.991  0.4710 -0.4206 -0.0789
  568SOL    MW4 2304   2.814   2.723   1.942  0.0573 -0.0321  0.1443
  569SOL     OW 2305   2.095   2.090   0.435 -0.6354 -0.1509 -0.4067
  569SOL    HW2 2306   2.138   2.095   0.520 -0.9902  0.6968 -0.2671
  569SOL    HW3 2307   2.049   2.006   0.436 -1.7626  0.4637  0.7924
  569SOL    MW4 2308   2.095   2.080   0.446 -0.8310  0.0420 -0.2300
  570SOL     OW 2309   3.415   2.085   1.542 -0.1777  0.5964  0.3028
  570SOL    HW2 2310   3.345   2.135   1.583 -1.6786 -0.2975 -1.1142
  570SOL    HW3 2311   3.397   2.092   1.448  0.3193 -1.5425  0.0356
  570SOL    MW4 2312   3.404   2.093   1.535 -0.3101  0.1962  0.0806
  571SOL     OW 2313   3.337   3.123   3.787 -0.1014  0.3858  0.3784
  571SOL    HW2 2314   3.342   3.181   3.710 -0.7284  0.4409  0.3731
  571SOL    HW3 2315   3.292   3.176   3.853  0.0815  0.1969  0.6554
  571SOL    MW4 2316   3.332   3.138   3.785 -0.1600  0.3681  0.4143
  572SOL     OW 2317   0.033   3.898   3.621  0.4075 -0.3513 -0.1228
  572SOL    HW2 2318   0.125   3.892   3.595  0.1750 -0.2626 -0.9874
  572SOL    HW3 2319   0.024   3.984   3.661  0.4974  0.0132 -0.8803
  572SOL    MW4 2320   0.044   3.908   3.623  0.3887 -0.2915 -0.3368
  573SOL     OW 2321   4.030   3.997   3.915 -0.1252 -0.2100  0.1388
  573SOL    HW2 2322   4.053   4.062   3.982 -0.1694  0.0517 -0.0990
  573SOL    HW3 2323   4.083   4.021   3.840  0.0947 -0.6452  0.1566
  573SOL    MW4 2324   4.040   4.009   3.914 -0.1020 -0.2329  0.1097
  574SOL     OW 2325   1.758   0.663   0.496  1.0390 -0.3730 -0.5756
  574SOL    HW2 2326   1.813   0.725   0.448  1.4433 -0.7810 -0.6358
  574SOL    HW3 2327   1.816   0.623   0.560  0.2849  0.8525  0.9017
  574SOL    MW4 2328   1.773   0.666   0.498  0.9929 -0.2651 -0.3886
  575SOL     OW 2329   3.668   0.329   3.831  0.3478  0.1310  0.3352
  575SOL    HW2 2330   3.712   0.258   3.784 -0.3318  0.4816 -0.8477
  575SOL    HW3 2331   3.740   0.379   3.870  0.9441 -0.0468 -0.4984
  575SOL    MW4 2332   3.684   0.326   3.830  0.3368  0.1538  0.0692
  576SOL     OW 2333   0.164   4.583   3.306 -0.3307 -0.3158  0.0841
  576SOL    HW2 2334   0.147   4.587   3.400 -1.4467 -0.8126 -0.0892
  576SOL    HW3 2335   0.085   4.616   3.265  0.7883  1.5093 -0.6701
  576SOL    MW4 2336   0.152   4.588   3.313 -0.3303 -0.1405 -0.0383
  577SOL     OW 2337   1.381   0.256   2.465  0.2306  0.5212 -0.2144
  577SOL    HW2 2338   1.403   0.163   2.467 -0.4305  0.3550 -0.8029
  577SOL    HW3 2339   1.432   0.291   2.391 -0.1119  0.4797 -0.4696
  577SOL    MW4 2340   1.391   0.249   2.455  0.0982  0.4938 -0.3258
  578SOL     OW 2341   4.380   3.802   0.878 -0.1613 -0.0234  0.4308
  578SOL    HW2 2342   4.443   3.820   0.947  1.5773  0.0758 -1.1671
  578SOL    HW3 2343   4.423   3.828   0.797 -2.1639 -0.1375 -0.7255
  578SOL    MW4 2344   4.394   3.807   0.876 -0.1961 -0.0254  0.0674
  579SOL     OW 2345   3.290   0.538   1.371 -0.0415  0.3347  0.1696
  579SOL    HW2 2346   3.261   0.480   1.442 -0.2454  0.0991 -0.1044
  579SOL    HW3 2347   3.252   0.623   1.392  0.1638  0.3461  0.5123
  579SOL    MW4 2348   3.281   0.541   1.383 -0.0413  0.3051  0.1787
  580SOL     OW 2349   0.668   3.624   2.540 -0.6025 -0.0156  0.0111
  580SOL    HW2 2350   0.596   3.598   2.482 -0.9203  1.3112 -0.2178
  580SOL    HW3 2351   0.633   3.611   2.628 -0.7099 -0.4775 -0.0984
  580SOL    MW4 2352   0.654   3.619   2.544 -0.6586  0.0985 -0.0335
  581SOL     OW 2353   3.902   0.386   1.343 -0.2111  0.4277 -0.3012
  581SOL    HW2 2354   3.955   0.355   1.416 -0.1407  0.6782 -0.2469
  581SOL    HW3 2355   3.812   0.361   1.367 -0.2317  0.8018  0.0284
  581SOL    MW4 2356   3.897   0.379   1.356 -0.2045  0.5101 -0.2506
  582SOL     OW 2357   3.029   0.242   1.504 -0.2131  0.3107  0.1999
  582SOL    HW2 2358   2.951   0.192   1.526 -1.7625  2.1474 -0.9282
  582SOL    HW3 2359   3.046   0.221   1.412  0.2842  0.3777  0.2716
  582SOL    MW4 2360   3.021   0.233   1.494 -0.3519  0.5618  0.0605
  583SOL     OW 2361   3.892   2.848   2.968  0.0848  0.1928 -0.0183
  583SOL    HW2 2362   3.966   2.791   2.946 -0.1241  0.1683 -0.6585
  583SOL    HW3 2363   3.908   2.929   2.918 -0.0444  0.3877  0.2537
  583SOL    MW4 2364   3.904   2.852   2.959  0.0402  0.2153 -0.0669
  584SOL     OW 2365   0.023   3.726   4.351  0.2358  0.1864  0.0404
  584SOL    HW2 2366  -0.022   3.748   4.270 -2.1939  1.0580  1.5933
  584SOL    HW3 2367   0.067   3.807   4.377  0.1888  0.1831  0.1301
  584SOL    MW4 2368   0.023   3.739   4.343 -0.0909  0.3010  0.2571
  585SOL     OW 2369   3.002   0.248   0.827  0.1862 -0.2549 -0.1225
  585SOL    HW2 2370   3.058   0.177   0.858  0.5561  0.5550  1.1073
  585SOL    HW3 2371   3.063   0.318   0.803 -0.2364  0.1634  0.0122
  585SOL    MW4 2372   3.017   0.248   0.828  0.1793 -0.0929  0.0575
  586SOL     OW 2373   3.973   3.744   1.161 -0.1459  0.0168  0.2067
  586SOL    HW2 2374   4.051   3.788   1.194  0.1761 -0.3226 -0.0987
  586SOL    HW3 2375   3.904   3.810   1.165  0.1446  0.2984  0.5297
  586SOL    MW4 2376   3.974   3.758   1.166 -0.0651  0.0091  0.2090
  587SOL     OW 2377   0.017   3.085   1.610  0.1550  0.0287  0.1313
  587SOL    HW2 2378   0.070   3.033   1.670  0.9759 -1.4114 -1.7760
  587SOL    HW3 2379  -0.027   3.020   1.555  0.2059  1.3184 -1.4646
  587SOL    MW4 2380   0.018   3.069   1.610  0.2701  0.0089 -0.3309
  588SOL     OW 2381   1.382   1.876   1.779  0.0254 -0.1502 -0.1378
  588SOL    HW2 2382   1.413   1.872   1.870  2.0768 -0.8754 -0.8335
  588SOL    HW3 2383   1.407   1.964   1.750  0.0628 -0.1919 -0.2322
  588SOL    MW4 2384   1.390   1.887   1.787  0.3010 -0.2514 -0.2421
  589SOL     OW 2385   2.755   0.108   1.538 -0.4517  0.3348  0.1155
  589SOL    HW2 2386   2.737   0.132   1.629  0.0971  0.5480  0.1680
  589SOL    HW3 2387   2.745   0.013   1.536 -0.8063  0.3636  0.3183
  589SOL    MW4 2388   2.751   0.099   1.550 -0.4261  0.3668  0.1492
  590SOL     OW 2389   2.856   3.403   2.124 -0.3043 -0.2122 -0.3820
  590SOL    HW2 2390   2.781   3.456   2.097 -0.8283 -0.1007  1.1832
  590SOL    HW3 2391   2.878   3.435   2.212  0.7299 -1.1356 -0.2848
  590SOL    MW4 2392   2.849   3.414   2.132 -0.2370 -0.3194 -0.1627
  591SOL     OW 2393   4.059   0.911   0.490  0.3255  0.2782 -0.0661
  591SOL    HW2 2394   3.967   0.926   0.466  0.0721  1.5940  1.6422
  591SOL    HW3 2395   4.101   0.996   0.479  1.5907 -0.5569 -1.8160
  591SOL    MW4 2396   4.052   0.924   0.486  0.4590  0.3416 -0.0716
  592SOL     OW 2397   3.994   4.398   1.912 -0.0462  0.1622  0.2221
  592SOL    HW2 2398   4.015   4.339   1.984 -1.3230  0.7063  1.0571
  592SOL    HW3 2399   4.059   4.468   1.919  0.5154 -0.3535  0.1698
  592SOL    MW4 2400   4.005   4.400   1.923 -0.1405  0.1659  0.3254
  593SOL     OW 2401   1.110   3.533   1.876  0.5714  0.0314  0.0162
  593SOL    HW2 2402   1.172   3.459   1.873  0.7013  0.1987 -2.0074
  593SOL    HW3 2403   1.153   3.602   1.825 -0.8749  0.4607 -0.6395
  593SOL    MW4 2404   1.124   3.532   1.869  0.3977  0.1101 -0.3373
  594SOL     OW 2405   2.056   3.107   2.859 -0.0911  0.1606 -0.3138
  594SOL    HW2 2406   2.114   3.155   2.917 -0.4918 -0.4166  0.5714
  594SOL    HW3 2407   2.076   3.141   2.772  0.8831  0.6546  0.0955
  594SOL    MW4 2408   2.066   3.118   2.855 -0.0154  0.1496 -0.1430
  595SOL     OW 2409   2.333   1.100   2.765  0.0912  0.1025  0.0499
  595SOL    HW2 2410   2.281   1.165   2.717  2.2518  2.5210  0.8807
  595SOL    HW3 2411   2.424   1.119   2.740  0.8716 -1.7344  1.3671
  595SOL    MW4 2412   2.338   1.111   2.755  0.4792  0.1792  0.3333
  596SOL     OW 2413   4.209   4.069   4.308  0.5479 -0.0561  0.1792
  596SOL    HW2 2414   4.214   3.973   4.305 -2.2371 -0.1977 -1.4361
  596SOL    HW3 2415   4.211   4.096   4.216  1.6566  1.4880  0.6341
  596SOL    MW4 2416   4.210   4.060   4.296  0.3267  0.1289  0.0261
  597SOL     OW 2417   3.692   0.275   0.976  0.2240  0.2444 -0.0669
  597SOL    HW2 2418   3.756   0.204   0.976  1.6595  1.5318 -0.1928
  597SOL    HW3 2419   3.742   0.353   1.000 -1.0952  1.4444 -1.1590
  597SOL    MW4 2420   3.707   0.276   0.979  0.2394  0.5726 -0.2276
  598SOL     OW 2421   3.027   0.191   1.217  0.1394 -0.2704 -0.5736
  598SOL    HW2 2422   3.106   0.155   1.176  0.1675 -0.0772 -0.6865
  598SOL    HW3 2423   2.999   0.262   1.159  2.2304  2.4240  1.6283
  598SOL    MW4 2424   3.033   0.195   1.204  0.4190  0.1106 -0.2980
  599SOL     OW 2425   1.746   0.248   0.887 -0.1707 -0.2605  0.5642
  599SOL    HW2 2426   1.693   0.322   0.857 -0.0625 -0.7177 -0.7867
  599SOL    HW3 2427   1.693   0.171   0.866  0.6058 -0.6664  0.1006
  599SOL    MW4 2428   1.732   0.248   0.880 -0.0539 -0.3743  0.3248
  600SOL     OW 2429   0.509   2.827   3.217  0.0796  0.0425  0.4779
  600SOL    HW2 2430   0.592   2.873   3.214  1.3286 -2.0749  1.2988
  600SOL    HW3 2431   0.477   2.829   3.127  0.8493  1.1752  0.2264
  600SOL    MW4 2432   0.516   2.833   3.205  0.3460 -0.0874  0.5531
  601SOL     OW 2433   2.265   1.772   2.835 -0.2544  0.2799  0.1837
  601SOL    HW2 2434   2.221   1.762   2.750  1.3701 -0.6074 -0.5831
  601SOL    HW3 2435   2.217   1.842   2.879 -0.4616  1.5005 -1.9186
  601SOL    MW4 2436   2.253   1.780   2.830 -0.0674  0.3239 -0.1949
  602SOL     OW 2437   1.341   2.325   4.164  0.0951  0.4347  0.1182
  602SOL    HW2 2438   1.307   2.397   4.110 -1.2349 -0.1823  0.1222
  602SOL    HW3 2439   1.370   2.367   4.245 -1.4182  0.8820  0.4441
  602SOL    MW4 2440   1.340   2.340   4.168 -0.2801  0.4123  0.1617
  603SOL     OW 2441   0.146   4.292   3.092 -0.0497  0.1637 -0.3694
  603SOL    HW2 2442   0.152   4.237   3.014 -0.7354 -1.8205  0.9101
  603SOL    HW3 2443   0.237   4.307   3.118  0.1656  0.3929 -1.2713
  603SOL    MW4 2444   0.158   4.286   3.085 -0.1117 -0.0678 -0.3196
  604SOL     OW 2445   1.943   1.842   2.754 -0.0901 -0.4596 -0.1637
  604SOL    HW2 2446   1.968   1.934   2.762  1.2443 -0.7284 -1.0074
  604SOL    HW3 2447   2.003   1.807   2.688  0.6067 -2.3619  1.4299
  604SOL    MW4 2448   1.954   1.849   2.746  0.1779 -0.7460 -0.0648
  605SOL     OW 2449   3.282   1.944   2.932 -0.2093 -0.0458  0.0616
  605SOL    HW2 2450   3.275   1.994   3.013 -0.1730  0.9045 -0.5100
  605SOL    HW3 2451   3.376   1.939   2.914 -0.3278  2.5184 -1.5829
  605SOL    MW4 2452   3.293   1.950   2.940 -0.2201  0.4179 -0.2308
  606SOL     OW 2453   3.968   2.833   3.960  0.8096  0.7333 -0.1285
  606SOL    HW2 2454   3.898   2.897   3.953  0.0879 -0.2292 -2.1249
  606SOL    HW3 2455   4.048   2.882   3.942  0.4019  1.3547 -0.2544
  606SOL    MW4 2456   3.970   2.848   3.957  0.6606  0.6883 -0.4085
  607SOL     OW 2457   1.207   0.453   3.634  0.2982 -0.5293 -0.7637
  607SOL    HW2 2458   1.243   0.542   3.627 -0.0539 -0.4522 -1.7102
  607SOL    HW3 2459   1.274   0.405   3.683  0.9094  0.0384 -1.0162
  607SOL    MW4 2460   1.221   0.459   3.639  0.3324 -0.4442 -0.9219
  608SOL     OW 2461   1.859   1.217   0.542 -0.4045  0.0173 -0.3710
  608SOL    HW2 2462   1.789   1.187   0.484  1.1741 -0.3643 -2.1047
  608SOL    HW3 2463   1.917   1.142   0.552 -0.0937  0.4041  0.8518
  608SOL    MW4 2464   1.857   1.203   0.536 -0.1552  0.0180 -0.4384
  609SOL     OW 2465   3.366   0.314   0.364 -0.1604  0.1376  0.1724
  609SOL    HW2 2466   3.292   0.285   0.311  1.4808  1.1006 -2.7277
  609SOL    HW3 2467   3.413   0.234   0.387 -1.2475 -0.3388  0.7854
  609SOL    MW4 2468   3.362   0.300   0.360 -0.0873  0.2018 -0.1294
  610SOL     OW 2469   2.154   0.476   3.779 -0.2487  0.0602  0.4039
  610SOL    HW2 2470   2.239   0.515   3.800  0.7471 -2.4194  1.0345
  610SOL    HW3 2471   2.123   0.438   3.861 -2.4773  1.7707  0.4379
  610SOL    MW4 2472   2.161   0.476   3.793 -0.4113 -0.0413  0.4916
  611SOL     OW 2473   2.936   2.161   0.845 -0.0155  0.2137  0.1559
  611SOL    HW2 2474   2.925   2.248   0.882 -0.2665  1.2063 -2.1691
  611SOL    HW3 2475   3.007   2.122   0.895 -0.4160  1.4568  1.7272
  611SOL    MW4 2476   2.944   2.167   0.856 -0.1014  0.5086  0.0565
  612SOL     OW 2477   2.188   0.288   3.237 -0.7435  0.0653  0.3239
  612SOL    HW2 2478   2.143   0.207   3.213  0.6579  0.0648 -2.6283
  612SOL    HW3 2479   2.135   0.358   3.198  0.3167  0.2426 -0.8441
  612SOL    MW4 2480   2.175   0.287   3.228 -0.4187  0.0887 -0.2197
  613SOL     OW 2481   2.224   4.360   3.011 -0.1021 -0.3030  0.1798
  613SOL    HW2 2482   2.205   4.363   3.104  1.3174  0.2967  0.4650
  613SOL    HW3 2483   2.239   4.267   2.992  0.8045 -0.2956  0.8147
  613SOL    MW4 2484   2.224   4.348   3.021  0.2048 -0.2229  0.3012
  614SOL     OW 2485   0.631   4.370   2.538  0.1629 -0.2409  0.1764
  614SOL    HW2 2486   0.713   4.326   2.516  0.9278  0.5759  1.3418
  614SOL    HW3 2487   0.576   4.302   2.576 -0.2042 -1.0809 -1.7802
  614SOL    MW4 2488   0.634   4.356   2.540  0.2154 -0.2440  0.0720
  615SOL     OW 2489   2.253   3.380   2.405 -0.1550  0.1845 -0.0232
  615SOL    HW2 2490   2.171   3.422   2.378 -0.2700  1.6516  2.4643
  615SOL    HW3 2491   2.309   3.384   2.327 -3.1424 -2.8767 -2.5271
  615SOL    MW4 2492   2.249   3.386   2.391 -0.5643 -0.0258 -0.0254
  616SOL     OW 2493   2.068   2.630   1.439 -0.0623  0.0253  0.2923
  616SOL    HW2 2494   2.142   2.691   1.442 -0.1267  0.0928  0.5809
  616SOL    HW3 2495   2.109   2.545   1.425  0.0632  0.0809  0.3143
  616SOL    MW4 2496   2.083   2.627   1.438 -0.0542  0.0415  0.3332
  617SOL     OW 2497   0.748   2.727   3.644 -0.0182  0.1009  0.2580
  617SOL    HW2 2498   0.827   2.730   3.698 -0.1525 -0.5231  0.4891
  617SOL    HW3 2499   0.762   2.653   3.586 -0.5833 -0.2235  0.5343
  617SOL    MW4 2500   0.760   2.718   3.644 -0.1105 -0.0242  0.3249
  618SOL     OW 2501   1.843   3.365   4.432  0.0337  0.5609 -0.5635
  618SOL    HW2 2502   1.930   3.327   4.416 -0.3929 -0.8469  0.3866
  618SOL    HW3 2503   1.849   3.403   4.520 -0.6544 -0.5442 -0.0385
  618SOL    MW4 2504   1.855   3.365   4.441 -0.1134  0.2294 -0.3689
  619SOL     OW 2505   2.702   3.379   2.631  0.2510 -0.0311 -0.1476
  619SOL    HW2 2506   2.789   3.416   2.648  0.0638  0.8149 -0.9792
  619SOL    HW3 2507   2.668   3.430   2.558 -0.9027 -0.4354  0.0900
  619SOL    MW4 2508   2.709   3.391   2.624  0.0741  0.0272 -0.2260
  620SOL     OW 2509   0.824   4.192   3.339 -0.4273 -0.0830  0.0594
  620SOL    HW2 2510   0.759   4.127   3.312 -1.9370  1.5698 -0.3912
  620SOL    HW3 2511   0.782   4.241   3.409  1.3633 -0.6936  1.5970
  620SOL    MW4 2512   0.810   4.190   3.345 -0.3902  0.0545  0.2029
  621SOL     OW 2513   4.163   1.963   2.014  0.4200 -0.1573  0.0085
  621SOL    HW2 2514   4.144   1.905   1.941 -1.7698  0.1777  0.2737
  621SOL    HW3 2515   4.186   2.047   1.973  1.6254 -0.6328 -0.3214
  621SOL    MW4 2516   4.164   1.967   1.999  0.2901 -0.1758 -0.0000
  622SOL     OW 2517   3.182   2.774   0.994  0.1100 -0.5268 -0.1121
  622SOL    HW2 2518   3.169   2.702   1.056 -0.7112 -0.9527 -0.7649
  622SOL    HW3 2519   3.227   2.734   0.919  0.9147 -0.0590  0.1084
  622SOL    MW4 2520   3.186   2.759   0.992  0.1078 -0.5213 -0.1691
  623SOL     OW 2521   1.919   3.886   2.917 -0.3234 -0.1806 -0.3881
  623SOL    HW2 2522   1.875   3.905   3.000  0.1315  0.7539 -0.3563
  623SOL    HW3 2523   1.955   3.798   2.929  0.7783  0.4155  0.8718
  623SOL    MW4 2524   1.918   3.877   2.929 -0.1180  0.0213 -0.2177
  624SOL     OW 2525   2.128   1.256   3.754 -0.1385 -0.3491 -0.3537
  624SOL    HW2 2526   2.132   1.333   3.810  0.4262 -0.0533 -0.7857
  624SOL    HW3 2527   2.043   1.260   3.711  0.4687  0.8435 -1.4897
  624SOL    MW4 2528   2.117   1.266   3.755  0.0161 -0.1527 -0.5606
  625SOL     OW 2529   2.254   4.331   3.864 -0.0748  0.0215 -0.0511
  625SOL    HW2 2530   2.327   4.361   3.919 -0.8752  3.6399 -0.8221
  625SOL    HW3 2531   2.200   4.279   3.923  1.9576 -0.8286  1.1185
  625SOL    MW4 2532   2.256   4.328   3.879  0.0878  0.3867  0.0015
  626SOL     OW 2533   4.372   0.586   0.942  0.4825  0.1068  0.1488
  626SOL    HW2 2534   4.426   0.511   0.920 -0.2403 -0.0076 -1.2655
  626SOL    HW3 2535   4.282   0.555   0.932  0.1846  1.3481 -1.1483
  626SOL    MW4 2536   4.367   0.572   0.938  0.3478  0.2555 -0.2089
  627SOL     OW 2537   1.727   1.634   3.082  0.3408 -0.1341 -0.0455
  627SOL    HW2 2538   1.756   1.576   3.152  1.1487  0.4543  0.1138
  627SOL    HW3 2539   1.696   1.576   3.013 -0.1772 -0.7219  0.6718
  627SOL    MW4 2540   1.726   1.619   3.082  0.3790 -0.1340  0.0701
  628SOL     OW 2541   1.137   2.972   3.991  0.3690 -0.3092 -0.5514
  628SOL    HW2 2542   1.194   3.006   4.060 -0.3445  1.6422 -0.8926
  628SOL    HW3 2543   1.195   2.921   3.935  1.2413 -0.6782  0.6748
  628SOL    MW4 2544   1.152   2.970   3.993  0.3900 -0.1004 -0.4346
  629SOL     OW 2545   4.475   1.051   2.166 -0.0224 -0.1722 -0.4026
  629SOL    HW2 2546   4.434   1.136   2.182 -0.2061 -0.1836 -0.7966
  629SOL    HW3 2547   4.402   0.990   2.158  0.1356 -0.4837  0.5274
  629SOL    MW4 2548   4.460   1.054   2.167 -0.0258 -0.2148 -0.3319
  630SOL     OW 2549   1.394   3.241   2.493 -0.2368  0.3324 -0.1327
  630SOL    HW2 2550   1.338   3.169   2.463  1.1920 -0.8670 -0.0453
  630SOL    HW3 2551   1.434   3.207   2.573  0.3268  1.2976 -0.0053
  630SOL    MW4 2552   1.392   3.227   2.500  0.0261  0.3015 -0.1044
  631SOL     OW 2553   2.865   0.142   2.286 -0.0937 -0.2213  0.4186
  631SOL    HW2 2554   2.840   0.163   2.377 -1.2486  2.1878 -0.4041
  631SOL    HW3 2555   2.942   0.086   2.294 -1.1434 -1.3659  2.9256
  631SOL    MW4 2556   2.872   0.137   2.299 -0.3846 -0.0544  0.6408
  632SOL     OW 2557   0.418   3.873   1.790 -0.1170 -0.4239  0.3596
  632SOL    HW2 2558   0.495   3.918   1.824  0.0078 -1.5205  1.5667
  632SOL    HW3 2559   0.453   3.805   1.732 -0.2146 -0.3947  0.2646
  632SOL    MW4 2560   0.433   3.870   1.787 -0.1134 -0.5647  0.5064
  633SOL     OW 2561   0.210   4.662   2.879 -0.2470  0.1470 -0.5090
  633SOL    HW2 2562   0.173   4.747   2.855  1.1194  0.5104 -1.4008
  633SOL    HW3 2563   0.283   4.683   2.936  0.5975 -0.3697 -1.3781
  633SOL    MW4 2564   0.215   4.676   2.883  0.0447  0.1268 -0.7413
  634SOL     OW 2565   4.179   1.765   1.287  0.1962 -0.2359 -0.1290
  634SOL    HW2 2566   4.233   1.841   1.307  2.3092 -1.4116 -1.2150
  634SOL    HW3 2567   4.155   1.729   1.372 -2.3816  2.6582  0.4678
  634SOL    MW4 2568   4.183   1.771   1.300  0.1349 -0.0092 -0.1935
  635SOL     OW 2569   0.460   3.401   3.877  0.7401  0.6542 -0.7156
  635SOL    HW2 2570   0.447   3.372   3.787  1.0733  0.9978 -0.8750
  635SOL    HW3 2571   0.373   3.432   3.904  0.6092  0.4290 -0.8716
  635SOL    MW4 2572   0.447   3.401   3.869  0.7668  0.6698 -0.7572
  636SOL     OW 2573   1.303   2.269   3.839  0.4684 -0.2314 -0.6915
  636SOL    HW2 2574   1.370   2.324   3.880  0.3670 -0.3959 -0.3121
  636SOL    HW3 2575   1.295   2.305   3.750 -1.4560  2.0671  0.3507
  636SOL    MW4 2576   1.311   2.281   3.833  0.2011  0.0502 -0.5040
  637SOL     OW 2577   3.424   1.161   1.176 -0.0244  0.1212 -0.0051
  637SOL    HW2 2578   3.492   1.184   1.112 -0.6767  0.7057 -0.4905
  637SOL    HW3 2579   3.392   1.076   1.147 -1.2650  0.9908 -1.2611
  637SOL    MW4 2580   3.429   1.153   1.164 -0.2742  0.3131 -0.2349
  638SOL     OW 2581   0.829   3.712   0.843 -0.2154 -0.1068  0.5097
  638SOL    HW2 2582   0.795   3.694   0.755 -2.7207  0.0398  1.4164
  638SOL    HW3 2583   0.924   3.716   0.831 -0.5100 -0.0564 -2.1916
  638SOL    MW4 2584   0.837   3.710   0.830 -0.5848 -0.0809  0.2729
  639SOL     OW 2585   4.460   1.485   3.746 -0.1967  0.0662 -0.4285
  639SOL    HW2 2586   4.441   1.572   3.783 -0.3151 -0.3219  0.4424
  639SOL    HW3 2587   4.446   1.425   3.819  0.4751 -0.6285 -0.8642
  639SOL    MW4 2588   4.456   1.489   3.761 -0.1237 -0.0767 -0.3711
  640SOL     OW 2589   3.658   1.047   1.719  0.2905  0.1545 -0.3087
  640SOL    HW2 2590   3.572   1.061   1.679 -0.0451  1.7216  0.8982
  640SOL    HW3 2591   3.639   1.005   1.803  0.7927 -0.6435 -0.5928
  640SOL    MW4 2592   3.644   1.044   1.725  0.3125  0.2560 -0.1869
  641SOL     OW 2593   0.696   3.112   4.001  0.4509 -0.1691  0.1804
  641SOL    HW2 2594   0.669   3.028   4.037 -1.4380  0.2548 -0.2227
  641SOL    HW3 2595   0.672   3.176   4.067  1.9470  0.0702  0.5154
  641SOL    MW4 2596   0.689   3.109   4.014  0.3990 -0.0816  0.1714
  642SOL     OW 2597   0.295   1.938   0.851  0.1719  0.3047 -0.3240
  642SOL    HW2 2598   0.262   1.856   0.816 -1.2908  1.1091 -0.8597
  642SOL    HW3 2599   0.258   1.944   0.939 -0.2025  0.6791 -0.5079
  642SOL    MW4 2600   0.286   1.928   0.858 -0.0705  0.4602 -0.4190
  643SOL     OW 2601   4.122   2.525   3.645 -0.0664  0.6410  0.1945
  643SOL    HW2 2602   4.119   2.459   3.576  2.2382 -0.0387  0.6877
  643SOL    HW3 2603   4.119   2.475   3.726 -0.7894  1.3183  0.5966
  643SOL    MW4 2604   4.121   2.510   3.647  0.1423  0.6407  0.3126
  644SOL     OW 2605   4.029   4.166   2.741 -0.1840  0.2249  0.2172
  644SOL    HW2 2606   3.965   4.117   2.792 -0.1809  0.1714  0.1705
  644SOL    HW3 2607   4.114   4.140   2.777 -0.1044 -0.8340 -0.6770
  644SOL    MW4 2608   4.032   4.156   2.752 -0.1731  0.0781  0.0931
  645SOL     OW 2609   2.885   1.871   1.116  0.1009 -0.5018  0.3387
  645SOL    HW2 2610   2.830   1.859   1.193 -0.5185  1.6551  0.2537
  645SOL    HW3 2611   2.947   1.940   1.140 -0.5059  0.6564 -1.2896
  645SOL    MW4 2612   2.886   1.878   1.129 -0.0609 -0.0644  0.1126
  646SOL     OW 2613   1.533   1.123   2.024 -0.2268 -0.3949  0.2658
  646SOL    HW2 2614   1.446   1.085   2.029  0.1890 -1.7789 -2.0831
  646SOL    HW3 2615   1.593   1.051   2.045  0.4498 -0.3797 -1.4761
  646SOL    MW4 2616   1.529   1.109   2.027 -0.0827 -0.5755 -0.2739
  647SOL     OW 2617   0.060   0.273   2.443  0.1984  0.5604  0.0967
  647SOL    HW2 2618  -0.004   0.252   2.375  0.4760 -2.5572  0.7130
  647SOL    HW3 2619   0.144   0.276   2.396 -0.1000  2.6300 -0.3632
  647SOL    MW4 2620   0.063   0.271   2.428  0.1957  0.4222  0.1173
  648SOL     OW 2621   4.387   0.144   3.472 -0.1085 -0.1246  0.1317
  648SOL    HW2 2622   4.305   0.145   3.422  0.8989 -0.5747 -1.5475
  648SOL    HW3 2623   4.429   0.061   3.448  1.6998  0.9355 -0.4292
  648SOL    MW4 2624   4.382   0.133   3.462  0.2630 -0.0441 -0.1639
  649SOL     OW 2625   3.660   2.348   1.035  0.1082  0.0078 -0.1171
  649SOL    HW2 2626   3.576   2.384   1.063  0.0418  1.4084 -1.9667
  649SOL    HW3 2627   3.725   2.399   1.083 -0.0684  0.2787 -0.1641
  649SOL    MW4 2628   3.658   2.360   1.045  0.0761  0.2283 -0.3673
  650SOL     OW 2629   2.460   2.006   1.810 -0.0766  0.0870  0.3857
  650SOL    HW2 2630   2.484   2.097   1.789 -0.8657  0.0847 -0.5304
  650SOL    HW3 2631   2.539   1.969   1.850  0.5821  0.8644 -0.1900
  650SOL    MW4 2632   2.474   2.013   1.813 -0.0938  0.1893  0.1889
  651SOL     OW 2633   2.781   1.268   0.965  0.0576  0.0449  0.0749
  651SOL    HW2 2634   2.765   1.353   0.924 -2.3704  0.0328  0.9099
  651SOL    HW3 2635   2.732   1.206   0.912  1.7479 -0.8654 -0.4806
  651SOL    MW4 2636   2.773   1.271   0.953 -0.0397 -0.0768  0.1118
  652SOL     OW 2637   2.693   0.516   0.252  0.0268 -0.6432 -0.0350
  652SOL    HW2 2638   2.770   0.470   0.284  0.8056 -0.4473 -1.5528
  652SOL    HW3 2639   2.696   0.503   0.157 -1.1849  0.3374 -0.2159
  652SOL    MW4 2640   2.704   0.508   0.243 -0.0303 -0.4880 -0.2591
  653SOL     OW 2641   0.252   0.416   0.764 -0.0793  0.3797 -0.2692
  653SOL    HW2 2642   0.178   0.414   0.824 -0.4992  3.6715 -0.6109
  653SOL    HW3 2643   0.215   0.392   0.679 -0.5285  1.0223 -0.2501
  653SOL    MW4 2644   0.238   0.412   0.761 -0.1940  0.8988 -0.3118
  654SOL     OW 2645   2.060   3.182   3.435 -0.0165  0.0409  0.0503
  654SOL    HW2 2646   2.141   3.141   3.405  0.2074  0.0227  0.6567
  654SOL    HW3 2647   2.055   3.265   3.388 -0.1892 -0.4393 -0.7765
  654SOL    MW4 2648   2.070   3.187   3.425 -0.0097 -0.0248  0.0212
  655SOL     OW 2649   3.584   1.697   1.490  0.1310  0.8587  0.3491
  655SOL    HW2 2650   3.508   1.681   1.434  2.3684 -3.0169 -1.7854
  655SOL    HW3 2651   3.571   1.640   1.566  1.3368 -0.5471 -0.4844
  655SOL    MW4 2652   3.572   1.687   1.493  0.5853  0.1619 -0.0425
  656SOL     OW 2653   1.277   2.998   4.410  0.1768  0.5097 -0.0085
  656SOL    HW2 2654   1.370   2.979   4.419  0.2604  0.8045 -0.2498
  656SOL    HW3 2655   1.258   3.059   4.481  0.0334 -0.0231  0.4141
  656SOL    MW4 2656   1.287   3.003   4.420  0.1689  0.4783  0.0154
  657SOL     OW 2657   2.274   0.081   1.408 -0.1085 -0.2521 -0.2005
  657SOL    HW2 2658   2.336   0.152   1.422  0.3838 -0.3605 -1.7945
  657SOL    HW3 2659   2.325   0.001   1.423 -0.3597 -0.3103  0.3845
  657SOL    MW4 2660   2.289   0.079   1.412 -0.0767 -0.2741 -0.3337
  658SOL     OW 2661   1.239   2.416   2.207 -0.0257 -0.5411 -0.5369
  658SOL    HW2 2662   1.193   2.388   2.286  3.1050 -2.6328  0.6601
  658SOL    HW3 2663   1.317   2.461   2.239  1.8713 -2.3783 -2.3288
  658SOL    MW4 2664   1.243   2.418   2.222  0.6376 -1.0595 -0.6154
  659SOL     OW 2665   4.426   2.268   1.736 -0.1078  0.0236  0.1744
  659SOL    HW2 2666   4.477   2.331   1.787 -1.3523  0.2401  1.1822
  659SOL    HW3 2667   4.403   2.314   1.656  0.6377  0.1855  0.0580
  659SOL    MW4 2668   4.429   2.282   1.732 -0.1736  0.0735  0.2920
  660SOL     OW 2669   4.139   3.003   3.506 -0.3296 -0.2557  0.1140
  660SOL    HW2 2670   4.152   2.930   3.567 -2.8074 -0.6952  0.1588
  660SOL    HW3 2671   4.195   3.073   3.540  0.7020 -1.5253  1.0875
  660SOL    MW4 2672   4.148   3.002   3.518 -0.5204 -0.4812  0.2484
  661SOL     OW 2673   2.872   0.478   1.505 -0.2278  0.0665  0.6928
  661SOL    HW2 2674   2.934   0.406   1.497 -0.9266 -0.3714 -0.8034
  661SOL    HW3 2675   2.927   0.556   1.515  0.5281 -0.5956  1.8900
  661SOL    MW4 2676   2.887   0.479   1.505 -0.2203 -0.0787  0.6534
  662SOL     OW 2677   0.298   0.946   3.061  0.0991  0.6970  0.1235
  662SOL    HW2 2678   0.363   1.015   3.073  0.3439  0.4450  0.2301
  662SOL    HW3 2679   0.339   0.867   3.096 -0.9622  0.9158  1.9758
  662SOL    MW4 2680   0.312   0.945   3.067 -0.0086  0.6927  0.3819
  663SOL     OW 2681   3.005   3.944   1.601  0.0581  0.6807  0.3677
  663SOL    HW2 2682   3.000   4.034   1.635  0.7687  0.9155 -0.1268
  663SOL    HW3 2683   2.957   3.947   1.519  0.5905  0.7578  0.0564
  663SOL    MW4 2684   2.998   3.956   1.595  0.2221  0.7219  0.2614
  664SOL     OW 2685   2.508   1.730   2.040  0.4688  0.6843  0.0334
  664SOL    HW2 2686   2.445   1.798   2.063  0.7035  0.4794  1.3067
  664SOL    HW3 2687   2.496   1.718   1.946 -0.9529  1.1014  0.1429
  664SOL    MW4 2688   2.498   1.737   2.031  0.3122  0.7123  0.2158
  665SOL     OW 2689   3.438   0.859   0.830  0.1212 -0.3853 -0.6645
  665SOL    HW2 2690   3.410   0.879   0.740 -0.0227 -0.6964 -0.6899
  665SOL    HW3 2691   3.525   0.897   0.837 -0.0365  0.0095 -0.8001
  665SOL    MW4 2692   3.446   0.867   0.819  0.0814 -0.3743 -0.6857
  666SOL     OW 2693   2.411   2.348   0.483 -0.1673 -0.4021  0.0424
  666SOL    HW2 2694   2.386   2.279   0.421 -0.6121 -1.4225  1.3269
  666SOL    HW3 2695   2.506   2.349   0.480 -0.1688 -0.8344 -0.2359
  666SOL    MW4 2696   2.420   2.339   0.474 -0.2262 -0.5937  0.1751
  667SOL     OW 2697   4.388   3.542   2.182  0.2003 -0.0497  0.3393
  667SOL    HW2 2698   4.403   3.451   2.155  0.9378  0.3542 -0.6068
  667SOL    HW3 2699   4.345   3.534   2.268 -0.0914 -1.2961  0.0887
  667SOL    MW4 2700   4.384   3.529   2.190  0.2591 -0.1608  0.1814
  668SOL     OW 2701   2.693   2.754   3.685  0.2645 -0.5230 -0.3171
  668SOL    HW2 2702   2.731   2.774   3.599  0.0270 -0.4489 -0.4040
  668SOL    HW3 2703   2.616   2.701   3.666 -0.5602  0.6278 -0.2232
  668SOL    MW4 2704   2.688   2.750   3.671  0.1244 -0.3614 -0.3162
  669SOL     OW 2705   4.410   3.034   4.055  0.0718 -0.1532  0.0823
  669SOL    HW2 2706   4.494   3.076   4.038  0.2951 -0.8209 -0.4392
  669SOL    HW3 2707   4.430   2.941   4.064 -0.7616 -0.4613 -1.1791
  669SOL    MW4 2708   4.424   3.028   4.054 -0.0087 -0.2819 -0.1529
  670SOL     OW 2709   1.885   2.752   1.602  0.2635  0.4106  0.6476
  670SOL    HW2 2710   1.947   2.705   1.547 -0.4270 -0.5619  0.6818
  670SOL    HW3 2711   1.807   2.697   1.602 -0.4757  1.4399  0.8915
  670SOL    MW4 2712   1.883   2.739   1.595  0.0749  0.4181  0.6843
  671SOL     OW 2713   2.044   0.436   3.042  0.2335 -0.5979  0.3692
  671SOL    HW2 2714   2.127   0.464   3.003  0.0105 -0.5278 -0.0638
  671SOL    HW3 2715   1.997   0.517   3.060  0.4154 -0.6233  0.9702
  671SOL    MW4 2716   2.049   0.451   3.039  0.2280 -0.5920  0.3913
  672SOL     OW 2717   2.450   2.605   3.669  0.4440  0.0947 -0.0869
  672SOL    HW2 2718   2.420   2.533   3.725 -2.1778  1.0211 -0.2264
  672SOL    HW3 2719   2.466   2.564   3.584 -0.2941 -0.4698  0.0392
  672SOL    MW4 2720   2.448   2.590   3.665  0.0007  0.1424 -0.0887
  673SOL     OW 2721   3.168   4.655   2.101  0.1099  0.1976  0.1370
  673SOL    HW2 2722   3.154   4.732   2.045  0.7070 -1.0996 -1.8269
  673SOL    HW3 2723   3.263   4.646   2.107  0.0401 -0.8133 -0.2233
  673SOL    MW4 2724   3.178   4.664   2.095  0.1795 -0.1069 -0.1696
  674SOL     OW 2725   1.861   3.219   1.591  0.1811  0.4546  0.4145
  674SOL    HW2 2726   1.837   3.261   1.674 -0.4097  1.4749 -0.2688
  674SOL    HW3 2727   1.806   3.141   1.587 -1.5970  1.7118 -0.1828
  674SOL    MW4 2728   1.851   3.214   1.602 -0.1315  0.7551  0.2455
  675SOL     OW 2729   1.128   3.605   1.049  0.3330  0.1109  0.0943
  675SOL    HW2 2730   1.148   3.645   0.964 -1.5167 -0.7790 -0.7664
  675SOL    HW3 2731   1.046   3.559   1.036 -0.0158  0.0167  2.4068
  675SOL    MW4 2732   1.120   3.604   1.036  0.0429 -0.0190  0.2858
  676SOL     OW 2733   0.520   2.622   2.465  0.0139  0.1827 -0.4652
  676SOL    HW2 2734   0.545   2.534   2.438  0.1103  0.3870 -1.0424
  676SOL    HW3 2735   0.543   2.626   2.558 -1.5654 -0.9907  0.0113
  676SOL    MW4 2736   0.526   2.611   2.474 -0.1817  0.0548 -0.4785
  677SOL     OW 2737   1.166   2.813   3.484 -0.1903  0.1741 -0.1274
  677SOL    HW2 2738   1.114   2.889   3.511 -0.1787 -0.1650  0.8949
  677SOL    HW3 2739   1.109   2.738   3.500 -0.3777 -0.0007 -1.5932
  677SOL    MW4 2740   1.152   2.813   3.490 -0.2135  0.1063 -0.1859
  678SOL     OW 2741   1.171   2.516   2.567 -0.1063  0.4947  0.6267
  678SOL    HW2 2742   1.236   2.581   2.540 -0.6070  0.3622 -0.9803
  678SOL    HW3 2743   1.199   2.489   2.654  1.2035  1.4579  0.5299
  678SOL    MW4 2744   1.183   2.521   2.575  0.0004  0.6043  0.4019
  679SOL     OW 2745   2.809   2.462   4.192 -0.0398  0.2036  0.3105
  679SOL    HW2 2746   2.850   2.525   4.251  2.8205 -1.2746  0.0229
  679SOL    HW3 2747   2.755   2.407   4.249 -0.8403  1.5339  0.8613
  679SOL    MW4 2748   2.807   2.463   4.208  0.2320  0.1841  0.3452
  680SOL     OW 2749   3.859   0.488   1.078 -0.2911  0.2491  0.3049
  680SOL    HW2 2750   3.875   0.447   1.164 -1.8153 -0.8178  0.0787
  680SOL    HW3 2751   3.884   0.580   1.092  2.0853 -0.4598  1.1229
  680SOL    MW4 2752   3.865   0.495   1.091 -0.1787  0.0148  0.3830
  681SOL     OW 2753   0.053   3.265   0.920  0.0010 -0.3388 -0.0833
  681SOL    HW2 2754  -0.018   3.201   0.927 -0.7125  0.5186  0.5273
  681SOL    HW3 2755   0.013   3.348   0.944  1.1078  0.2216 -0.1685
  681SOL    MW4 2756   0.038   3.267   0.924  0.0529 -0.1517 -0.0140
  682SOL     OW 2757   1.165   2.472   0.579  0.1860  0.0425 -0.0360
  682SOL    HW2 2758   1.121   2.481   0.663  0.3855  0.4777  0.0200
  682SOL    HW3 2759   1.211   2.554   0.566 -0.2958  0.2016 -0.8275
  682SOL    MW4 2760   1.165   2.484   0.588  0.1487  0.1209 -0.1330
  683SOL     OW 2761   3.559   1.278   1.415 -0.0746  0.1066 -0.4178
  683SOL    HW2 2762   3.517   1.249   1.334  0.2590 -0.0316 -0.5420
  683SOL    HW3 2763   3.622   1.208   1.436  0.6911  0.7071 -0.6864
  683SOL    MW4 2764   3.562   1.265   1.407  0.0704  0.1676 -0.4696
  684SOL     OW 2765   2.225   3.233   3.055  0.4292  0.1894  0.2301
  684SOL    HW2 2766   2.319   3.224   3.036  1.0759  1.8441  2.4315
  684SOL    HW3 2767   2.214   3.325   3.079 -1.7688  0.0136 -0.0458
  684SOL    MW4 2768   2.236   3.244   3.056  0.2245  0.3845  0.4841
  685SOL     OW 2769   3.936   0.636   0.725  0.0980  0.1068 -0.2338
  685SOL    HW2 2770   3.845   0.618   0.745 -0.0029  1.5095  0.6254
  685SOL    HW3 2771   3.937   0.656   0.631 -0.7492  1.7245  0.0875
  685SOL    MW4 2772   3.924   0.636   0.715 -0.0271  0.5053 -0.0781
  686SOL     OW 2773   3.845   3.600   2.085  0.2155 -0.3090  0.0399
  686SOL    HW2 2774   3.858   3.570   1.995  0.5585  2.1547 -0.7984
  686SOL    HW3 2775   3.925   3.574   2.131  0.5674 -0.5470 -0.6924
  686SOL    MW4 2776   3.858   3.593   2.079  0.3072 -0.0154 -0.1673
  687SOL     OW 2777   4.281   3.307   4.068 -0.3059  0.1529  0.0002
  687SOL    HW2 2778   4.344   3.236   4.053  0.2614  0.8468 -0.9961
  687SOL    HW3 2779   4.271   3.310   4.163  0.1871 -0.8116  0.0936
  687SOL    MW4 2780   4.288   3.298   4.079 -0.1660  0.1172 -0.1189
  688SOL     OW 2781   4.201   4.448   4.319 -0.1752  0.2100  0.2287
  688SOL    HW2 2782   4.128   4.392   4.346 -0.6758  0.6447 -0.2261
  688SOL    HW3 2783   4.167   4.537   4.326  0.1696  0.3964 -0.4079
  688SOL    MW4 2784   4.187   4.452   4.324 -0.1958  0.2919  0.0847
  689SOL     OW 2785   2.556   1.197   1.700  0.1073 -0.6263 -0.3379
  689SOL    HW2 2786   2.609   1.250   1.640  0.0744  2.2117  2.0312
  689SOL    HW3 2787   2.466   1.223   1.681  0.1140  0.5270  1.0962
  689SOL    MW4 2788   2.551   1.207   1.689  0.1038 -0.0997  0.1639
  690SOL     OW 2789   2.876   4.020   3.747 -0.2518 -0.0655  0.2065
  690SOL    HW2 2790   2.933   4.087   3.786  1.3921 -1.0597 -0.4425
  690SOL    HW3 2791   2.909   3.937   3.781 -0.0898 -0.7923 -1.6693
  690SOL    MW4 2792   2.888   4.018   3.756 -0.0136 -0.2926 -0.1266
  691SOL     OW 2793   2.492   0.801   4.232 -0.4733  0.0162 -0.2971
  691SOL    HW2 2794   2.437   0.727   4.259 -0.5154  0.4686  0.8947
  691SOL    HW3 2795   2.431   0.860   4.187 -1.0310  0.6269  1.2317
  691SOL    MW4 2796   2.476   0.799   4.229 -0.5525  0.1565  0.0619
  692SOL     OW 2797   2.575   4.346   1.245  0.0473 -0.4309 -0.5607
  692SOL    HW2 2798   2.548   4.397   1.168  0.8880  0.7207 -0.1094
  692SOL    HW3 2799   2.661   4.311   1.221  0.6858  0.6284  0.1733
  692SOL    MW4 2800   2.583   4.348   1.232  0.2425 -0.1392 -0.4043
  693SOL     OW 2801   2.944   1.862   1.556  0.0287  0.5145  0.3006
  693SOL    HW2 2802   2.955   1.767   1.557  0.0323  0.5172  0.7521
  693SOL    HW3 2803   2.948   1.887   1.648  0.3039  0.9831  0.1603
  693SOL    MW4 2804   2.946   1.853   1.568  0.0654  0.5767  0.3417
  694SOL     OW 2805   3.102   4.330   3.362 -0.3139  0.5808  0.2369
  694SOL    HW2 2806   3.007   4.338   3.364 -0.2908  0.9974 -0.4205
  694SOL    HW3 2807   3.134   4.420   3.369  0.0250  0.4930 -0.1741
  694SOL    MW4 2808   3.094   4.343   3.363 -0.2661  0.6242  0.0960
  695SOL     OW 2809   2.976   1.863   0.676  0.4372 -0.0397 -0.0821
  695SOL    HW2 2810   2.916   1.911   0.618  0.1407  0.7182  0.8283
  695SOL    HW3 2811   2.971   1.772   0.646  0.4693  0.3666 -1.3860
  695SOL    MW4 2812   2.967   1.858   0.664  0.4023  0.1139 -0.1340
  696SOL     OW 2813   2.602   2.992   0.930 -0.4781 -0.8709 -0.1043
  696SOL    HW2 2814   2.562   3.051   0.995 -0.5634 -2.0127  0.8889
  696SOL    HW3 2815   2.555   3.011   0.849 -1.3752 -0.4775  0.5001
  696SOL    MW4 2816   2.590   3.002   0.928 -0.6077 -0.9697  0.1065
  697SOL     OW 2817   3.777   1.093   1.469  0.0489 -0.5490  0.6200
  697SOL    HW2 2818   3.742   1.056   1.550 -0.5362 -2.3125 -0.4230
  697SOL    HW3 2819   3.857   1.044   1.453 -0.3886 -0.9366 -0.4176
  697SOL    MW4 2820   3.783   1.082   1.477 -0.0860 -0.8328  0.3455
  698SOL     OW 2821   3.405   2.963   1.782 -0.3502 -0.0462 -0.0734
  698SOL    HW2 2822   3.367   2.958   1.694  0.3284 -1.6906 -0.3109
  698SOL    HW3 2823   3.374   2.883   1.825  0.4572  0.0583  0.7074
  698SOL    MW4 2824   3.396   2.951   1.776 -0.1542 -0.2494 -0.0017
  699SOL     OW 2825   4.168   4.596   2.218 -0.3679  0.1692  0.4740
  699SOL    HW2 2826   4.250   4.582   2.170 -1.2916 -0.7230 -0.8679
  699SOL    HW3 2827   4.121   4.661   2.166 -0.7843  0.2486  0.9433
  699SOL    MW4 2828   4.172   4.603   2.205 -0.5447  0.0619  0.3589
  700SOL     OW 2829   4.266   2.103   0.538  0.5968 -0.1524  0.2429
  700SOL    HW2 2830   4.218   2.181   0.563  1.0383 -0.3464  1.7474
  700SOL    HW3 2831   4.348   2.136   0.500 -0.5741  0.1669 -2.0407
  700SOL    MW4 2832   4.271   2.117   0.536  0.5005 -0.1359  0.1401
  701SOL     OW 2833   0.012   2.780   4.084 -0.2784  0.0756 -0.2042
  701SOL    HW2 2834   0.083   2.717   4.084 -1.0675 -0.8264 -0.8499
  701SOL    HW3 2835  -0.045   2.753   4.156 -1.0756 -0.4795 -1.0372
  701SOL    MW4 2836   0.014   2.768   4.093 -0.4877 -0.1166 -0.3993
  702SOL     OW 2837   3.522   1.846   1.062  0.0675 -0.5068 -0.3954
  702SOL    HW2 2838   3.548   1.936   1.041 -0.8569  0.0097  0.6514
  702SOL    HW3 2839   3.499   1.807   0.978  0.1218  0.3450 -0.8079
  702SOL    MW4 2840   3.523   1.853   1.048 -0.0473 -0.3263 -0.3117
  703SOL     OW 2841   0.174   2.568   3.242 -0.4639 -0.1849 -0.7690
  703SOL    HW2 2842   0.148   2.621   3.167 -0.9075  0.3719 -0.2254
  703SOL    HW3 2843   0.257   2.528   3.215 -0.5327  0.1435 -1.4902
  703SOL    MW4 2844   0.182   2.570   3.229 -0.5315 -0.0681 -0.7924
  704SOL     OW 2845   2.215   3.514   3.132 -0.1759  0.7135 -0.1371
  704SOL    HW2 2846   2.164   3.535   3.054 -1.3406  1.0063  0.6959
  704SOL    HW3 2847   2.289   3.575   3.129  0.0788  0.3726 -1.2761
  704SOL    MW4 2848   2.218   3.525   3.121 -0.2960  0.7072 -0.1775
  705SOL     OW 2849   0.580   1.522   1.531 -0.4220  0.4681 -0.1843
  705SOL    HW2 2850   0.642   1.503   1.460  0.0211 -1.6748  0.7649
  705SOL    HW3 2851   0.496   1.494   1.497 -0.4929  1.0352 -0.4959
  705SOL    MW4 2852   0.577   1.516   1.517 -0.3729  0.2602 -0.1002
  706SOL     OW 2853   1.360   1.564   1.485 -0.3269  0.1809  0.0189
  706SOL    HW2 2854   1.297   1.630   1.457 -1.0763 -1.0974 -1.3812
  706SOL    HW3 2855   1.316   1.517   1.555 -0.9221 -0.6608 -0.9056
  706SOL    MW4 2856   1.346   1.566   1.490 -0.5043 -0.0988 -0.2878
  707SOL     OW 2857   0.393   2.002   1.733 -0.3316 -0.4608  0.0977
  707SOL    HW2 2858   0.300   1.977   1.731 -0.4287 -0.2798  2.0130
  707SOL    HW3 2859   0.428   1.965   1.652 -1.9160 -1.1490 -0.3127
  707SOL    MW4 2860   0.385   1.993   1.722 -0.5535 -0.5277  0.2962
  708SOL     OW 2861   4.381   0.328   1.794  0.0399 -0.1237 -0.0470
  708SOL    HW2 2862   4.377   0.407   1.741 -1.0520 -0.4129 -0.4216
  708SOL    HW3 2863   4.473   0.317   1.815  0.2348  1.1017 -0.2161
  708SOL    MW4 2864   4.392   0.337   1.790 -0.0784 -0.0002 -0.1187
  709SOL     OW 2865   3.865   3.542   1.784 -0.0820  0.1196  0.0090
  709SOL    HW2 2866   3.940   3.583   1.741 -1.1293  1.0459 -0.9797
  709SOL    HW3 2867   3.857   3.457   1.743 -0.4214  0.5743 -0.8684
  709SOL    MW4 2868   3.874   3.536   1.773 -0.2649  0.3018 -0.2372
  710SOL     OW 2869   0.760   0.894   0.599 -0.2849 -0.0820 -0.7207
  710SOL    HW2 2870   0.682   0.843   0.575  0.4973 -1.3383 -0.6365
  710SOL    HW3 2871   0.797   0.923   0.516  0.4200 -1.3953 -0.8663
  710SOL    MW4 2872   0.755   0.891   0.585 -0.0887 -0.4211 -0.7288
  711SOL     OW 2873   1.161   4.348   1.095 -0.0799  0.8180 -0.3911
  711SOL    HW2 2874   1.212   4.322   1.172  0.8887  0.2335 -1.2251
  711SOL    HW3 2875   1.070   4.351   1.127  0.2915  0.4551  0.7428
  711SOL    MW4 2876   1.155   4.345   1.110  0.0969  0.6930 -0.3516
  712SOL     OW 2877   1.706   1.056   3.982 -0.3240 -0.5264 -0.0649
  712SOL    HW2 2878   1.785   1.003   3.971 -0.7255 -0.8703 -1.2884
  712SOL    HW3 2879   1.634   0.994   3.968 -0.8382 -0.4008  1.8450
  712SOL    MW4 2880   1.707   1.041   3.979 -0.4448 -0.5552  0.0257
  713SOL     OW 2881   0.825   4.403   3.135  0.0324 -0.2196 -0.4060
  713SOL    HW2 2882   0.761   4.415   3.064 -0.8560 -0.0635  0.4151
  713SOL    HW3 2883   0.796   4.324   3.180  0.1654  0.0953  0.2376
  713SOL    MW4 2884   0.812   4.394   3.131 -0.0673 -0.1574 -0.2128
  714SOL     OW 2885   0.373   2.796   0.797 -0.0231 -0.0188 -0.0972
  714SOL    HW2 2886   0.283   2.782   0.826 -0.5746 -1.5851 -2.4092
  714SOL    HW3 2887   0.427   2.748   0.860 -0.8464  0.3197  0.8736
  714SOL    MW4 2888   0.368   2.787   0.809 -0.2045 -0.1808 -0.2742
  715SOL     OW 2889   0.975   2.263   3.332  0.1063 -0.0610 -0.0234
  715SOL    HW2 2890   0.970   2.175   3.293  0.7952  0.0441 -0.3711
  715SOL    HW3 2891   0.909   2.263   3.401  0.1358 -0.8740  0.0114
  715SOL    MW4 2892   0.966   2.251   3.336  0.2011 -0.1544 -0.0647
  716SOL     OW 2893   1.497   4.128   1.155 -0.2951  0.2372 -0.4973
  716SOL    HW2 2894   1.406   4.103   1.139  0.5834 -2.4799 -1.5108
  716SOL    HW3 2895   1.518   4.089   1.240  0.3950 -0.5196 -1.0100
  716SOL    MW4 2896   1.488   4.120   1.164 -0.0882 -0.2211 -0.6987
  717SOL     OW 2897   1.332   3.339   1.543  0.1310 -0.0107  0.0715
  717SOL    HW2 2898   1.294   3.270   1.489 -0.7416  0.7965 -0.3570
  717SOL    HW3 2899   1.296   3.324   1.631  1.0326 -0.9215  0.3014
  717SOL    MW4 2900   1.322   3.328   1.548  0.1348 -0.0244  0.0453
  718SOL     OW 2901   1.962   1.827   1.357 -0.7182  0.2605  0.2331
  718SOL    HW2 2902   1.914   1.836   1.275 -0.4666 -0.8734 -0.0514
  718SOL    HW3 2903   1.932   1.744   1.393 -2.3136  1.6924  2.2951
  718SOL    MW4 2904   1.952   1.817   1.351 -0.8955  0.2998  0.4676
  719SOL     OW 2905   1.115   1.090   3.556  0.0886 -0.1751  0.2069
  719SOL    HW2 2906   1.159   1.020   3.509 -0.2291  0.4613 -1.0661
  719SOL    HW3 2907   1.127   1.167   3.501 -0.4581  0.5424  1.0761
  719SOL    MW4 2908   1.122   1.091   3.543 -0.0255  0.0035  0.1536
  720SOL     OW 2909   4.242   3.767   0.556 -0.5456 -0.0610 -0.5546
  720SOL    HW2 2910   4.260   3.687   0.606 -1.8063 -0.3890 -0.5906
  720SOL    HW3 2911   4.173   3.811   0.606  0.5490  1.2978 -0.2377
  720SOL    MW4 2912   4.235   3.762   0.569 -0.5675  0.0750 -0.5175
  721SOL     OW 2913   3.343   4.412   3.909  0.7601  0.3331  0.1816
  721SOL    HW2 2914   3.300   4.408   3.995  1.1403 -0.3349  0.3462
  721SOL    HW3 2915   3.339   4.505   3.885  1.6694  0.7124  1.4389
  721SOL    MW4 2916   3.336   4.424   3.917  0.9303  0.2950  0.3692
  722SOL     OW 2917   1.932   2.359   3.237  0.2397 -0.2243 -0.4283
  722SOL    HW2 2918   1.908   2.450   3.250 -0.0674 -0.5618  1.6267
  722SOL    HW3 2919   1.998   2.342   3.304  0.8129 -1.3192 -1.2449
  722SOL    MW4 2920   1.938   2.369   3.248  0.2748 -0.4133 -0.2649
  723SOL     OW 2921   1.799   0.256   4.249 -0.0577  0.5184  0.3391
  723SOL    HW2 2922   1.724   0.229   4.302  0.3695 -1.2509  0.0654
  723SOL    HW3 2923   1.807   0.351   4.265 -2.4172  0.7559  0.2536
  723SOL    MW4 2924   1.790   0.265   4.258 -0.3126  0.3163  0.2917
  724SOL     OW 2925   3.425   0.681   3.753 -0.5769  0.0010 -0.1445
  724SOL    HW2 2926   3.475   0.736   3.813 -0.4663  0.9192 -1.0680
  724SOL    HW3 2927   3.490   0.625   3.710 -0.5492 -0.0230 -0.0704
  724SOL    MW4 2928   3.440   0.681   3.755 -0.5586  0.1190 -0.2566
  725SOL     OW 2929   4.167   1.361   4.004 -0.1969  0.3796 -0.7484
  725SOL    HW2 2930   4.259   1.335   4.010 -0.3102  0.5216  2.4277
  725SOL    HW3 2931   4.118   1.279   3.998  0.0535  0.2652 -1.2475
  725SOL    MW4 2932   4.173   1.347   4.004 -0.1788  0.3832 -0.3952
  726SOL     OW 2933   0.955   1.545   2.002  0.3476  0.3679 -0.0603
  726SOL    HW2 2934   0.883   1.499   2.045 -0.6242  1.3547 -0.6035
  726SOL    HW3 2935   0.941   1.530   1.908  1.0834  0.2338 -0.1550
  726SOL    MW4 2936   0.944   1.537   1.995  0.3165  0.4804 -0.1445
  727SOL     OW 2937   0.599   2.954   3.587  0.5508  0.2218  0.1119
  727SOL    HW2 2938   0.635   2.867   3.602 -0.2462  0.0186  0.8599
  727SOL    HW3 2939   0.579   2.988   3.674  1.4958  1.4429 -0.1242
  727SOL    MW4 2940   0.601   2.947   3.600  0.5703  0.3561  0.1795
  728SOL     OW 2941   2.010   1.606   4.310  0.1837  0.0847  0.3395
  728SOL    HW2 2942   1.989   1.544   4.240 -0.8739  0.8046  0.0078
  728SOL    HW3 2943   1.983   1.691   4.275  0.5336  0.5782  1.2526
  728SOL    MW4 2944   2.004   1.609   4.296  0.0903  0.2448  0.4162
  729SOL     OW 2945   1.429   3.810   2.095 -0.3981 -0.1859 -0.1360
  729SOL    HW2 2946   1.443   3.728   2.048 -0.8356 -0.0927 -0.4321
  729SOL    HW3 2947   1.473   3.798   2.179  0.4603 -0.3278 -0.5966
  729SOL    MW4 2948   1.437   3.798   2.099 -0.3426 -0.1924 -0.2358
  730SOL     OW 2949   1.266   2.459   1.819 -0.2267  0.2573 -0.0290
  730SOL    HW2 2950   1.192   2.485   1.874 -0.8960  0.1997 -0.8890
  730SOL    HW3 2951   1.226   2.427   1.738  0.7401  0.2457 -0.5149
  730SOL    MW4 2952   1.251   2.458   1.815 -0.1874  0.2482 -0.2066
  731SOL     OW 2953   0.317   3.002   2.365  0.2681 -0.2571  0.8213
  731SOL    HW2 2954   0.361   3.056   2.300 -0.8585  0.0011  0.2502
  731SOL    HW3 2955   0.385   2.978   2.427  1.5773 -1.2627 -0.9555
  731SOL    MW4 2956   0.332   3.006   2.364  0.2922 -0.3557  0.5115
  732SOL     OW 2957   0.832   1.072   3.625 -0.3574  0.1581 -0.1855
  732SOL    HW2 2958   0.926   1.071   3.607 -0.3028  1.2790 -0.0281
  732SOL    HW3 2959   0.826   1.106   3.714 -0.8966 -0.1618 -0.1020
  732SOL    MW4 2960   0.844   1.077   3.634 -0.4214  0.2638 -0.1537
  733SOL     OW 2961   1.480   1.139   1.344  0.3140 -0.0324 -0.4384
  733SOL    HW2 2962   1.403   1.192   1.327  0.1722 -0.3207 -0.7134
  733SOL    HW3 2963   1.533   1.191   1.405 -0.0992  0.1614 -0.2432
  733SOL    MW4 2964   1.477   1.152   1.350  0.2408 -0.0449 -0.4489
  734SOL     OW 2965   2.511   1.193   4.736  0.1668 -0.2971 -0.8576
  734SOL    HW2 2966   2.541   1.279   4.708 -1.0545  0.1324 -0.8540
  734SOL    HW3 2967   2.588   1.153   4.778  1.6849 -0.4867 -3.7230
  734SOL    MW4 2968   2.525   1.199   4.738  0.2059 -0.2655 -1.2352
  735SOL     OW 2969   0.289   1.387   1.874  0.0822  0.1576  0.3107
  735SOL    HW2 2970   0.302   1.292   1.868  1.8833  0.5095 -1.9495
  735SOL    HW3 2971   0.375   1.421   1.900 -0.4608  1.2069  0.7285
  735SOL    MW4 2972   0.302   1.379   1.876  0.2482  0.3424  0.0676
  736SOL     OW 2973   2.246   1.662   2.240 -0.5744  0.2117 -0.6153
  736SOL    HW2 2974   2.298   1.607   2.182  0.4976  1.1556 -0.5640
  736SOL    HW3 2975   2.196   1.718   2.180  1.3424  1.9333 -0.6425
  736SOL    MW4 2976   2.246   1.662   2.224 -0.1801  0.5633 -0.6121
  737SOL     OW 2977   0.439   2.775   2.935  0.2230 -0.6766 -0.0879
  737SOL    HW2 2978   0.389   2.835   2.880  2.4325 -0.7157 -2.1956
  737SOL    HW3 2979   0.400   2.690   2.919  0.3490 -0.5674 -0.9765
  737SOL    MW4 2980   0.427   2.772   2.926  0.5312 -0.6674 -0.4832
  738SOL     OW 2981   1.015   1.359   1.448 -0.1733 -0.1788  0.3171
  738SOL    HW2 2982   0.947   1.419   1.416  0.4616 -0.3014 -1.3607
  738SOL    HW3 2983   1.063   1.410   1.513  1.2686  1.7168 -2.1191
  738SOL    MW4 2984   1.013   1.374   1.452  0.1007  0.0551 -0.2257
  739SOL     OW 2985   0.331   1.992   2.423  0.0211  0.4796 -0.8522
  739SOL    HW2 2986   0.266   1.999   2.353 -2.5201 -0.4321  1.3589
  739SOL    HW3 2987   0.305   1.914   2.472  1.2839  1.5483  1.5970
  739SOL    MW4 2988   0.319   1.983   2.420 -0.1476  0.5003 -0.2373
  740SOL     OW 2989   1.020   3.491   3.252  0.1717  0.5375 -0.5759
  740SOL    HW2 2990   0.928   3.505   3.232  0.0323 -0.3004 -0.5577
  740SOL    HW3 2991   1.064   3.572   3.226 -0.6273  1.0889 -0.2065
  740SOL    MW4 2992   1.014   3.503   3.246  0.0479  0.4997 -0.5248
  741SOL     OW 2993   0.341   1.107   2.451  0.4521 -0.2900 -0.4017
  741SOL    HW2 2994   0.258   1.067   2.478  1.2532 -2.5132 -1.0986
  741SOL    HW3 2995   0.357   1.175   2.516 -1.7481 -0.0432 -0.0702
  741SOL    MW4 2996   0.332   1.111   2.463  0.2675 -0.5508 -0.4499
  742SOL     OW 2997   2.430   0.693   2.684  0.0652 -0.4830 -0.2078
  742SOL    HW2 2998   2.470   0.629   2.744 -0.4191 -0.4278  0.1783
  742SOL    HW3 2999   2.412   0.642   2.604 -1.6218 -1.1943  0.6000
  742SOL    MW4 3000   2.433   0.678   2.681 -0.2213 -0.5696 -0.0502
  743SOL     OW 3001   0.896   1.687   3.469 -0.1119  0.5250  0.1045
  743SOL    HW2 3002   0.963   1.749   3.440 -0.2441  1.2240  1.2517
  743SOL    HW3 3003   0.829   1.743   3.510 -1.7682 -0.0746 -1.7215
  743SOL    MW4 3004   0.896   1.703   3.470 -0.3479  0.5381  0.0149
  744SOL     OW 3005   1.580   0.452   0.762 -0.2120 -0.2694 -0.1606
  744SOL    HW2 3006   1.563   0.543   0.784  0.8213 -0.0159 -0.3590
  744SOL    HW3 3007   1.495   0.409   0.767 -0.4541  0.3831  1.4521
  744SOL    MW4 3008   1.567   0.458   0.766 -0.1076 -0.1499  0.0260
  745SOL     OW 3009   4.257   3.709   2.641  0.1017  0.2115  0.1825
  745SOL    HW2 3010   4.248   3.699   2.735  0.2716  1.4193  0.3421
  745SOL    HW3 3011   4.184   3.766   2.616  0.1351  0.0075 -0.3913
  745SOL    MW4 3012   4.246   3.715   2.650  0.1286  0.3439  0.1279
  746SOL     OW 3013   3.145   1.317   2.677 -0.2429 -0.4693 -0.0473
  746SOL    HW2 3014   3.158   1.378   2.604  0.2829 -0.2998  0.1943
  746SOL    HW3 3015   3.072   1.262   2.648 -0.6265  0.1821 -0.3207
  746SOL    MW4 3016   3.137   1.318   2.663 -0.2241 -0.3610 -0.0515
  747SOL     OW 3017   1.336   2.230   0.637 -0.2566  0.2398 -0.2839
  747SOL    HW2 3018   1.262   2.288   0.619 -0.9259 -0.2301  0.8455
  747SOL    HW3 3019   1.411   2.288   0.647 -0.7560  0.8341  0.0203
  747SOL    MW4 3020   1.336   2.245   0.636 -0.4108  0.2562 -0.0948
  748SOL     OW 3021   2.562   3.733   2.885 -0.4844 -0.2393 -0.5481
  748SOL    HW2 3022   2.531   3.649   2.850 -2.2419  0.1670 -0.0627
  748SOL    HW3 3023   2.495   3.795   2.858 -0.0660  0.6989  0.5544
  748SOL    MW4 3024   2.549   3.730   2.877 -0.6611 -0.0619 -0.3386
  749SOL     OW 3025   0.339   0.980   3.459 -0.1754 -0.2319 -0.8354
  749SOL    HW2 3026   0.255   0.972   3.414 -0.4009  0.4979 -0.5596
  749SOL    HW3 3027   0.394   0.914   3.418 -0.2464  0.6987 -2.4870
  749SOL    MW4 3028   0.335   0.971   3.447 -0.2145 -0.0128 -1.0169
  750SOL     OW 3029   4.372   1.679   4.128 -0.3214 -0.1003  0.2688
  750SOL    HW2 3030   4.411   1.766   4.114  1.9678 -1.0711  0.3617
  750SOL    HW3 3031   4.317   1.665   4.051  1.0164  0.5368 -0.8329
  750SOL    MW4 3032   4.370   1.689   4.116  0.1571 -0.1444  0.1357
  751SOL     OW 3033   1.671   4.362   0.681 -0.5090 -0.1054 -0.3363
  751SOL    HW2 3034   1.620   4.441   0.665 -1.1346 -0.4240  0.0572
  751SOL    HW3 3035   1.699   4.370   0.772 -0.7432 -0.4290 -0.2350
  751SOL    MW4 3036   1.668   4.373   0.691 -0.6224 -0.1902 -0.2711
  752SOL     OW 3037   4.297   4.039   2.418  0.0210  0.0644 -0.0587
  752SOL    HW2 3038   4.343   4.123   2.419  2.5014 -1.2181 -1.4930
  752SOL    HW3 3039   4.353   3.981   2.468 -0.3240 -1.3972 -1.3327
  752SOL    MW4 3040   4.310   4.043   2.425  0.3027 -0.2976 -0.4161
  753SOL     OW 3041   4.422   0.786   0.759 -0.1948 -0.1290  0.2830
  753SOL    HW2 3042   4.406   0.718   0.824  1.1948 -0.5084  0.2480
  753SOL    HW3 3043   4.450   0.738   0.681  2.3429  0.5391  0.7389
  753SOL    MW4 3044   4.423   0.771   0.757  0.3234 -0.0909  0.3386
  754SOL     OW 3045   4.078   0.823   1.862  0.0642  0.3834 -0.2098
  754SOL    HW2 3046   4.106   0.912   1.842 -0.1624  0.8195  1.2923
  754SOL    HW3 3047   4.018   0.834   1.936  0.3985 -1.0597  0.2875
  754SOL    MW4 3048   4.074   0.836   1.869  0.0784  0.2506  0.0540
  755SOL     OW 3049   1.016   4.315   1.789  0.4319  0.2539 -0.3703
  755SOL    HW2 3050   1.045   4.340   1.877  1.4159 -1.1116 -0.2973
  755SOL    HW3 3051   0.954   4.243   1.804  2.2777 -1.4733 -0.8981
  755SOL    MW4 3052   1.012   4.309   1.803  0.8052 -0.1542 -0.4303
  756SOL     OW 3053   0.707   4.516   1.582  0.2843  0.1552 -0.4873
  756SOL    HW2 3054   0.793   4.555   1.593  0.7148 -0.4738 -1.5327
  756SOL    HW3 3055   0.659   4.578   1.527 -0.0528  0.6685  0.3711
  756SOL    MW4 3056   0.712   4.529   1.576  0.2966  0.1400 -0.5120
  757SOL     OW 3057   1.691   4.365   3.339  0.2586 -0.7111  0.0687
  757SOL    HW2 3058   1.695   4.431   3.270  1.0752 -1.8989 -1.0328
  757SOL    HW3 3059   1.606   4.379   3.380 -1.1195 -1.2749 -2.4737
  757SOL    MW4 3060   1.680   4.376   3.335  0.1846 -0.9422 -0.4120
  758SOL     OW 3061   2.079   2.797   2.386 -0.3694  0.3125 -0.4219
  758SOL    HW2 3062   2.169   2.763   2.391 -0.0554  1.3266  1.0793
  758SOL    HW3 3063   2.048   2.794   2.476 -0.9728  2.3113 -0.5576
  758SOL    MW4 3064   2.087   2.792   2.398 -0.4076  0.7100 -0.2418
  759SOL     OW 3065   0.458   1.549   3.207  0.7487 -0.4640 -0.0173
  759SOL    HW2 3066   0.516   1.617   3.243 -0.0080  0.3702 -0.3556
  759SOL    HW3 3067   0.411   1.593   3.136 -2.2588 -0.3443  1.9820
  759SOL    MW4 3068   0.460   1.564   3.203  0.2520 -0.3381  0.2018
  760SOL     OW 3069   1.311   2.127   0.375 -0.1056 -0.1253  0.6876
  760SOL    HW2 3070   1.296   2.160   0.464 -0.1107  0.5588  0.4292
  760SOL    HW3 3071   1.239   2.163   0.324 -0.7719 -1.4799  0.6511
  760SOL    MW4 3072   1.299   2.136   0.380 -0.1942 -0.2137  0.6487
  761SOL     OW 3073   4.009   4.422   0.968 -0.0763 -0.5625 -0.5810
  761SOL    HW2 3074   3.973   4.469   1.043  0.8861 -0.1789 -0.3552
  761SOL    HW3 3075   4.020   4.332   1.000  0.9686 -0.2488 -0.0457
  761SOL    MW4 3076   4.006   4.416   0.982  0.1886 -0.4705 -0.4806
  762SOL     OW 3077   3.177   3.947   2.292  0.2112  0.2578 -0.1924
  762SOL    HW2 3078   3.229   4.026   2.307  1.0988 -0.2959 -0.2599
  762SOL    HW3 3079   3.227   3.878   2.337 -0.9696 -0.1168  0.5515
  762SOL    MW4 3080   3.191   3.948   2.300  0.1725  0.1353 -0.1031
  763SOL     OW 3081   0.566   0.934   2.407 -0.2404  0.0067  0.3446
  763SOL    HW2 3082   0.482   0.977   2.422 -0.4483 -0.6627  1.1434
  763SOL    HW3 3083   0.544   0.855   2.358 -0.2212 -0.7553  1.5419
  763SOL    MW4 3084   0.552   0.929   2.402 -0.2653 -0.1822  0.6079
  764SOL     OW 3085   3.940   1.171   3.963  0.0202  0.0364 -0.4689
  764SOL    HW2 3086   3.872   1.236   3.982 -1.1253 -1.5590  1.0732
  764SOL    HW3 3087   3.943   1.168   3.867  0.3366  2.5801 -0.5793
  764SOL    MW4 3088   3.931   1.179   3.953 -0.0892  0.1615 -0.2800
  765SOL     OW 3089   1.468   1.275   2.693  0.4057  0.3511 -0.3051
  765SOL    HW2 3090   1.472   1.187   2.732  2.3341  0.5718  0.0266
  765SOL    HW3 3091   1.406   1.322   2.749 -1.6831 -1.1489 -1.2703
  765SOL    MW4 3092   1.460   1.269   2.706  0.3845  0.1823 -0.3887
  766SOL     OW 3093   2.798   3.024   1.945 -0.2275 -0.0287  0.8368
  766SOL    HW2 3094   2.811   2.933   1.974  1.0941 -0.1642 -0.1250
  766SOL    HW3 3095   2.801   3.075   2.026 -1.0098 -0.8261  1.3947
  766SOL    MW4 3096   2.800   3.019   1.960 -0.1564 -0.1518  0.7835
  767SOL     OW 3097   0.846   0.478   1.853 -0.1971  0.0038  0.3227
  767SOL    HW2 3098   0.838   0.542   1.923 -2.5579 -0.3037  0.3458
  767SOL    HW3 3099   0.866   0.530   1.775 -0.7312  0.6424  0.6129
  767SOL    MW4 3100   0.848   0.493   1.852 -0.5791  0.0475  0.3640
  768SOL     OW 3101   2.099   2.118   3.057 -0.1220  0.4845 -0.5439
  768SOL    HW2 3102   2.137   2.082   3.137 -0.0504  0.0734 -0.7594
  768SOL    HW3 3103   2.130   2.209   3.054  0.3524  0.3286 -0.4080
  768SOL    MW4 3104   2.108   2.125   3.067 -0.0500  0.4097 -0.5544
  769SOL     OW 3105   2.289   2.452   3.280  0.3785  0.3546 -0.3848
  769SOL    HW2 3106   2.371   2.458   3.328  0.1310  0.2855  0.0542
  769SOL    HW3 3107   2.232   2.399   3.337 -0.0950  0.7317 -0.5060
  769SOL    MW4 3108   2.292   2.446   3.294  0.2834  0.3952 -0.3428
  770SOL     OW 3109   2.499   0.779   2.226  0.8435  0.2929  0.1617
  770SOL    HW2 3110   2.582   0.814   2.259  0.5043  1.6650 -0.3981
  770SOL    HW3 3111   2.491   0.817   2.138 -1.7666  2.4815  1.2893
  770SOL    MW4 3112   2.509   0.789   2.219  0.4544  0.7627  0.2366
  771SOL     OW 3113   2.433   3.151   4.082  0.2192 -0.0394  0.1330
  771SOL    HW2 3114   2.385   3.234   4.077  0.7248  0.2217 -0.4849
  771SOL    HW3 3115   2.412   3.106   4.000  0.4917 -0.2141  0.1570
  771SOL    MW4 3116   2.424   3.156   4.071  0.3219 -0.0280  0.0547
  772SOL     OW 3117   3.850   2.619   3.290  0.2625  0.5345  0.1533
  772SOL    HW2 3118   3.819   2.707   3.268 -0.5133  0.6107  1.5165
  772SOL    HW3 3119   3.825   2.607   3.381  1.9811 -0.4104  0.5224
  772SOL    MW4 3120   3.843   2.629   3.299  0.3869  0.4199  0.3819
  773SOL     OW 3121   3.077   0.939   4.441  0.3374  0.2118 -0.2080
  773SOL    HW2 3122   3.059   1.008   4.377  1.2261 -0.6645 -1.4367
  773SOL    HW3 3123   3.142   0.883   4.398 -0.8187 -1.7480  0.4886
  773SOL    MW4 3124   3.083   0.940   4.427  0.3021 -0.1624 -0.2782
  774SOL     OW 3125   2.538   3.712   3.534 -0.1305  0.6192 -0.4031
  774SOL    HW2 3126   2.482   3.671   3.469 -0.6635  3.2614 -1.6715
  774SOL    HW3 3127   2.619   3.661   3.532 -1.1960 -1.0929 -1.0318
  774SOL    MW4 3128   2.541   3.700   3.525 -0.3414  0.7419 -0.6534
  775SOL     OW 3129   2.342   2.394   3.840 -0.0854  0.1934  0.4266
  775SOL    HW2 3130   2.251   2.418   3.856  0.1212  1.6419 -0.4510
  775SOL    HW3 3131   2.387   2.413   3.922 -0.9123 -2.5058  1.5718
  775SOL    MW4 3132   2.336   2.399   3.853 -0.1672  0.0284  0.4619
  776SOL     OW 3133   3.270   3.411   1.451  0.3217  0.3263 -0.6478
  776SOL    HW2 3134   3.309   3.496   1.472 -0.3490  0.5732 -0.4203
  776SOL    HW3 3135   3.233   3.422   1.364 -0.4638  0.4992 -0.2900
  776SOL    MW4 3136   3.270   3.423   1.442  0.1296  0.3817 -0.5706
  777SOL     OW 3137   2.673   0.835   4.465 -0.8660 -0.4765  0.4144
  777SOL    HW2 3138   2.623   0.809   4.387  0.1674 -2.3366  0.3448
  777SOL    HW3 3139   2.743   0.770   4.471  0.5918  1.1394  1.4413
  777SOL    MW4 3140   2.676   0.823   4.455 -0.5374 -0.5087  0.5407
  778SOL     OW 3141   2.329   1.836   4.494  0.1164 -0.1149  0.0449
  778SOL    HW2 3142   2.242   1.876   4.497  0.2436  0.2016 -0.4095
  778SOL    HW3 3143   2.312   1.742   4.492 -0.1654 -0.1137  1.8748
  778SOL    MW4 3144   2.315   1.829   4.494  0.0960 -0.0730  0.2264
  779SOL     OW 3145   3.141   3.537   3.603  0.2797  0.0963 -0.3796
  779SOL    HW2 3146   3.198   3.613   3.617  0.2353  0.1900 -0.6978
  779SOL    HW3 3147   3.072   3.569   3.544  0.2547 -0.1862 -0.5051
  779SOL    MW4 3148   3.139   3.551   3.597  0.2706  0.0714 -0.4381
  780SOL     OW 3149   2.248   0.352   0.818 -0.3507  0.0322 -0.2733
  780SOL    HW2 3150   2.159   0.379   0.840 -0.0721  1.9156 -1.3246
  780SOL    HW3 3151   2.302   0.428   0.838  1.0724 -1.2103  0.6503
  780SOL    MW4 3152   2.243   0.365   0.823 -0.1262  0.1167 -0.2901
  781SOL     OW 3153   3.529   2.623   1.900  0.2661 -0.0259 -0.1351
  781SOL    HW2 3154   3.496   2.533   1.908  1.4760 -0.4098  0.7681
  781SOL    HW3 3155   3.457   2.678   1.930 -0.0222 -0.7770  0.5660
  781SOL    MW4 3156   3.515   2.618   1.905  0.3877 -0.1757  0.0766
  782SOL     OW 3157   2.020   4.326   3.258  0.1903 -0.0413  0.3965
  782SOL    HW2 3158   1.975   4.347   3.339 -0.1572 -1.0705  0.4764
  782SOL    HW3 3159   2.110   4.307   3.284 -0.1931 -1.4715  0.6810
  782SOL    MW4 3160   2.026   4.326   3.272  0.0939 -0.3658  0.4446
  783SOL     OW 3161   0.528   1.481   1.966 -0.2105 -0.4550 -0.1456
  783SOL    HW2 3162   0.608   1.464   2.015 -0.5829 -0.0375  0.6296
  783SOL    HW3 3163   0.541   1.568   1.927 -0.0216 -0.6730 -0.5743
  783SOL    MW4 3164   0.540   1.491   1.967 -0.2347 -0.4286 -0.0999
  784SOL     OW 3165   0.581   0.077   1.484  0.3992 -0.4696 -0.2432
  784SOL    HW2 3166   0.540   0.141   1.541 -0.1165 -1.3494  0.3947
  784SOL    HW3 3167   0.523   0.072   1.408  0.6780  0.1419 -0.4985
  784SOL    MW4 3168   0.568   0.085   1.481  0.3679 -0.5050 -0.1927
  785SOL     OW 3169   2.781   3.874   0.601 -0.2693 -0.0285  0.3181
  785SOL    HW2 3170   2.852   3.935   0.581 -0.6598  1.0323  2.0772
  785SOL    HW3 3171   2.760   3.891   0.693 -2.0955 -1.0706  0.1121
  785SOL    MW4 3172   2.788   3.884   0.611 -0.5618 -0.0261  0.5230
  786SOL     OW 3173   1.859   2.400   2.988  0.0268  0.1522  0.2802
  786SOL    HW2 3174   1.918   2.433   2.920  0.7398  0.5198  1.0667
  786SOL    HW3 3175   1.918   2.365   3.055 -0.5908  1.8289  1.7336
  786SOL    MW4 3176   1.875   2.400   2.988  0.0394  0.4219  0.5757
  787SOL     OW 3177   3.924   1.297   1.354 -0.2786  0.1672  0.0947
  787SOL    HW2 3178   3.876   1.225   1.395  0.7823 -0.7308 -0.2193
  787SOL    HW3 3179   3.889   1.376   1.396 -2.5609 -0.3943 -0.6373
  787SOL    MW4 3180   3.913   1.298   1.365 -0.4398 -0.0254 -0.0433
  788SOL     OW 3181   1.857   1.263   3.656 -0.0406  0.4517  0.1386
  788SOL    HW2 3182   1.774   1.220   3.677  0.6329 -0.6110  0.6725
  788SOL    HW3 3183   1.886   1.221   3.575  1.6711 -1.6486  1.7927
  788SOL    MW4 3184   1.850   1.252   3.648  0.2741  0.0344  0.4273
  789SOL     OW 3185   0.155   0.461   1.902 -0.0115 -0.0533 -0.2413
  789SOL    HW2 3186   0.191   0.382   1.940 -0.4298  0.2548  0.8256
  789SOL    HW3 3187   0.102   0.499   1.972 -1.7459 -0.0789 -1.5024
  789SOL    MW4 3188   0.153   0.456   1.916 -0.2955 -0.0160 -0.2669
  790SOL     OW 3189   0.511   0.730   3.404  0.0952 -0.3988 -0.1331
  790SOL    HW2 3190   0.527   0.649   3.452 -0.0424  0.3503  1.2026
  790SOL    HW3 3191   0.564   0.795   3.448  1.1529  0.0093 -1.9649
  790SOL    MW4 3192   0.520   0.728   3.416  0.2166 -0.2461 -0.1986
  791SOL     OW 3193   0.202   1.854   0.425  0.1286  0.6151 -0.2881
  791SOL    HW2 3194   0.173   1.899   0.346  0.9982 -0.1163 -1.0313
  791SOL    HW3 3195   0.210   1.924   0.490 -2.2006  0.9999 -0.3486
  791SOL    MW4 3196   0.199   1.869   0.423 -0.0639  0.5694 -0.3941
  792SOL     OW 3197   1.075   4.486   4.391  0.2001  0.1230 -0.1313
  792SOL    HW2 3198   1.066   4.391   4.391  0.0146  0.1259  1.2618
  792SOL    HW3 3199   0.986   4.520   4.387  0.1361  0.2147  1.7528
  792SOL    MW4 3200   1.062   4.478   4.390  0.1672  0.1355  0.3011
  793SOL     OW 3201   1.527   3.053   2.136  0.2463  0.7205 -0.1367
  793SOL    HW2 3202   1.434   3.071   2.138 -0.4899 -2.7207  0.8946
  793SOL    HW3 3203   1.550   3.034   2.227  1.3171 -1.1373 -0.7657
  793SOL    MW4 3204   1.518   3.053   2.148  0.2904  0.0213 -0.0836
  794SOL     OW 3205   1.880   0.088   3.390 -0.5126  0.5433  0.2389
  794SOL    HW2 3206   1.946   0.073   3.322 -1.0456  3.1009 -0.9090
  794SOL    HW3 3207   1.852   0.001   3.416 -0.9638 -0.5043 -3.4868
  794SOL    MW4 3208   1.885   0.075   3.384 -0.6424  0.7425 -0.4041
  795SOL     OW 3209   1.196   2.439   1.518 -0.0705 -0.2039  0.4930
  795SOL    HW2 3210   1.133   2.502   1.555  0.5762  0.6054  0.2317
  795SOL    HW3 3211   1.261   2.493   1.473  0.1823 -1.0950 -0.2312
  795SOL    MW4 3212   1.196   2.455   1.517  0.0482 -0.2147  0.3630
  796SOL     OW 3213   1.580   0.790   2.082  0.0000 -0.3433 -0.2939
  796SOL    HW2 3214   1.524   0.784   2.159  0.8689 -0.2061  0.3417
  796SOL    HW3 3215   1.525   0.755   2.011 -0.3347 -1.7230  0.6144
  796SOL    MW4 3216   1.565   0.785   2.083  0.0705 -0.5072 -0.0902
  797SOL     OW 3217   3.694   4.105   0.921 -0.4455 -0.4736 -0.4435
  797SOL    HW2 3218   3.749   4.062   0.987  1.8159  0.4071 -1.6912
  797SOL    HW3 3219   3.660   4.033   0.867  0.9765 -0.9329 -0.7518
  797SOL    MW4 3220   3.697   4.090   0.922  0.0405 -0.4180 -0.6488
  798SOL     OW 3221   0.986   0.228   2.223  0.4727 -0.1147 -0.1054
  798SOL    HW2 3222   1.019   0.256   2.308 -0.6666  2.3598 -0.4304
  798SOL    HW3 3223   1.059   0.243   2.162  0.4475  0.5383  0.0206
  798SOL    MW4 3224   1.000   0.234   2.226  0.3190  0.2979 -0.1316
  799SOL     OW 3225   2.381   3.015   1.719  0.3371  0.6208 -0.1185
  799SOL    HW2 3226   2.353   3.044   1.633 -1.6024 -0.9682 -0.0535
  799SOL    HW3 3227   2.311   3.043   1.778  1.2979  1.0482  0.8568
  799SOL    MW4 3228   2.368   3.023   1.716  0.2080  0.4675  0.0187
  800SOL     OW 3229   0.573   0.284   3.679 -0.2905  0.3525  0.4711
  800SOL    HW2 3230   0.517   0.207   3.668 -0.2019  0.3444  0.0518
  800SOL    HW3 3231   0.662   0.251   3.662 -0.2705  0.5801  0.1251
  800SOL    MW4 3232   0.577   0.269   3.675 -0.2762  0.3815  0.3701
  801SOL     OW 3233   2.151   1.302   0.582 -0.1409 -0.3397  0.1886
  801SOL    HW2 3234   2.207   1.225   0.585 -0.2170 -0.4352 -0.7299
  801SOL    HW3 3235   2.062   1.267   0.578 -0.2940 -0.1861  2.0968
  801SOL    MW4 3236   2.146   1.288   0.582 -0.1711 -0.3321  0.3192
  802SOL     OW 3237   2.656   0.067   0.540 -0.0471  0.1107 -0.3809
  802SOL    HW2 3238   2.570   0.084   0.578 -0.4663 -0.4063 -1.0699
  802SOL    HW3 3239   2.709   0.143   0.563 -0.9232  0.8006 -0.6286
  802SOL    MW4 3240   2.651   0.079   0.548 -0.2180  0.1335 -0.5045
  803SOL     OW 3241   2.941   3.163   0.616 -0.1273  0.3540 -0.2921
  803SOL    HW2 3242   2.924   3.143   0.708 -0.3889 -0.3035 -0.4801
  803SOL    HW3 3243   2.882   3.105   0.568  0.4348  0.2732 -0.8891
  803SOL    MW4 3244   2.931   3.153   0.622 -0.0877  0.2566 -0.3957
  804SOL     OW 3245   1.898   0.680   1.262  0.0755 -0.1766 -0.0702
  804SOL    HW2 3246   1.831   0.674   1.329  0.2833  0.3736  0.1901
  804SOL    HW3 3247   1.876   0.759   1.212  0.7251  0.2091  0.2422
  804SOL    MW4 3248   1.887   0.690   1.264  0.1886 -0.0531  0.0054
  805SOL     OW 3249   2.155   1.922   1.578 -0.0574 -1.1289  0.1487
  805SOL    HW2 3250   2.162   1.856   1.647 -0.8073 -0.1181  1.2024
  805SOL    HW3 3251   2.104   1.879   1.509 -1.8986 -1.1218  1.4817
  805SOL    MW4 3252   2.149   1.907   1.578 -0.3993 -0.9946  0.4636
  806SOL     OW 3253   1.231   4.340   3.026  0.7602 -0.0636  0.0955
  806SOL    HW2 3254   1.199   4.250   3.023  2.1051 -0.5769  0.7430
  806SOL    HW3 3255   1.325   4.333   3.011  0.8650  1.2448  0.0586
  806SOL    MW4 3256   1.239   4.328   3.023  0.9515  0.0413  0.1761
  807SOL     OW 3257   1.216   3.322   3.007 -0.0779  0.4599 -0.3619
  807SOL    HW2 3258   1.202   3.298   3.098 -2.1856  1.8574 -0.2904
  807SOL    HW3 3259   1.252   3.242   2.966 -0.0655 -0.4724  1.4388
  807SOL    MW4 3260   1.219   3.308   3.013 -0.3544  0.5213 -0.1149
  808SOL     OW 3261   3.657   4.407   1.550  0.1497  0.6412  0.5705
  808SOL    HW2 3262   3.666   4.379   1.459 -0.1521  4.6682 -0.7571
  808SOL    HW3 3263   3.572   4.374   1.578  0.1491 -0.4038 -0.6285
  808SOL    MW4 3264   3.647   4.399   1.542  0.1098  1.0346  0.2371
  809SOL     OW 3265   1.204   0.340   3.032 -0.2960  0.2305  0.1828
  809SOL    HW2 3266   1.223   0.291   3.112  2.1391  2.3698  0.9846
  809SOL    HW3 3267   1.123   0.387   3.050 -2.0868 -2.5727 -0.2103
  809SOL    MW4 3268   1.196   0.339   3.045 -0.2110  0.1429  0.2367
  810SOL     OW 3269   1.948   0.040   0.881 -0.0986  0.0883  0.5739
  810SOL    HW2 3270   1.901   0.122   0.866  1.3454  0.5432 -1.6944
  810SOL    HW3 3271   2.038   0.067   0.900 -0.0210 -0.9103  1.6601
  810SOL    MW4 3272   1.953   0.054   0.882  0.1022  0.0166  0.4179
  811SOL     OW 3273   0.783   2.623   0.900 -0.5657  0.1182 -0.2252
  811SOL    HW2 3274   0.857   2.680   0.878 -0.3677 -0.1208 -0.1889
  811SOL    HW3 3275   0.814   2.573   0.976 -0.7183 -0.0688 -0.2853
  811SOL    MW4 3276   0.797   2.624   0.907 -0.5597  0.0620 -0.2283
  812SOL     OW 3277   3.621   0.672   2.617  0.4418 -0.5372 -0.2267
  812SOL    HW2 3278   3.592   0.762   2.631  1.4343 -0.2162 -0.1606
  812SOL    HW3 3279   3.713   0.681   2.591  1.2384 -1.6462  2.0691
  812SOL    MW4 3280   3.629   0.686   2.615  0.6779 -0.6412  0.0849
  813SOL     OW 3281   2.071   0.948   3.008  0.2459 -0.1205 -0.7349
  813SOL    HW2 3282   2.120   0.898   2.942  0.2431 -0.6638 -0.3238
  813SOL    HW3 3283   2.126   0.945   3.086  0.1379  0.3324 -0.6412
  813SOL    MW4 3284   2.085   0.941   3.009  0.2313 -0.1324 -0.6683
  814SOL     OW 3285   3.492   2.199   0.618  0.0344 -0.1471  0.1060
  814SOL    HW2 3286   3.554   2.255   0.664 -0.7213 -0.2784  1.2997
  814SOL    HW3 3287   3.528   2.111   0.628  0.5903 -0.0257 -0.7460
  814SOL    MW4 3288   3.505   2.195   0.626  0.0081 -0.1484  0.1511
  815SOL     OW 3289   0.898   4.361   1.271 -0.1836  0.3386  0.3519
  815SOL    HW2 3290   0.802   4.357   1.282 -0.3036 -0.8426 -0.9783
  815SOL    HW3 3291   0.932   4.310   1.344 -0.7308 -2.0807 -1.0079
  815SOL    MW4 3292   0.890   4.354   1.282 -0.2716 -0.1364 -0.0030
  816SOL     OW 3293   4.253   3.461   1.604  0.1106  0.0137  0.1672
  816SOL    HW2 3294   4.262   3.446   1.510 -0.0820 -0.0419  0.1563
  816SOL    HW3 3295   4.182   3.525   1.612 -0.3542 -0.5096  0.3058
  816SOL    MW4 3296   4.245   3.467   1.593  0.0238 -0.0627  0.1841
  817SOL     OW 3297   2.983   4.139   2.604  0.3180  0.0702  0.1789
  817SOL    HW2 3298   3.037   4.168   2.531 -0.6276  3.3383  0.7006
  817SOL    HW3 3299   3.046   4.104   2.668  1.3227 -0.8116 -1.2561
  817SOL    MW4 3300   2.999   4.138   2.603  0.3258  0.3851  0.0584
  818SOL     OW 3301   2.513   3.913   3.946 -0.0232 -0.2806  0.6008
  818SOL    HW2 3302   2.506   3.831   3.898  0.0753  0.1878 -0.2128
  818SOL    HW3 3303   2.425   3.927   3.982 -0.9455  0.9958 -2.0932
  818SOL    MW4 3304   2.501   3.904   3.945 -0.1319 -0.0504  0.1380
  819SOL     OW 3305   3.069   1.781   2.587 -0.0870 -0.0222  0.0838
  819SOL    HW2 3306   3.101   1.691   2.592 -1.3315 -0.4504  0.7691
  819SOL    HW3 3307   3.147   1.834   2.575  0.6105 -1.2424 -0.8788
  819SOL    MW4 3308   3.083   1.776   2.586 -0.1592 -0.2397  0.0472
  820SOL     OW 3309   2.345   3.012   3.862  0.4370  0.4551  0.7411
  820SOL    HW2 3310   2.414   3.012   3.797 -0.0362 -0.7119  0.2266
  820SOL    HW3 3311   2.269   3.050   3.817 -0.0743 -0.9410  0.3914
  820SOL    MW4 3312   2.344   3.017   3.848  0.3071  0.1169  0.6270
  821SOL     OW 3313   3.127   0.772   3.143 -0.0293  0.6039  0.2251
  821SOL    HW2 3314   3.177   0.694   3.120  0.1057  0.8043 -0.1606
  821SOL    HW3 3315   3.107   0.761   3.236  0.3402  0.3062  0.2707
  821SOL    MW4 3316   3.131   0.760   3.152  0.0372  0.5911  0.1802
  822SOL     OW 3317   2.034   3.166   2.593 -0.5796 -0.2197  0.3213
  822SOL    HW2 3318   1.980   3.098   2.552 -0.1508 -0.4208  0.0939
  822SOL    HW3 3319   2.119   3.158   2.552 -0.4992  0.4055  0.3570
  822SOL    MW4 3320   2.038   3.156   2.582 -0.5124 -0.1638  0.2960
  823SOL     OW 3321   0.548   3.837   0.522  0.2012 -0.1345 -0.7145
  823SOL    HW2 3322   0.561   3.805   0.611  0.8208  1.2323 -0.3051
  823SOL    HW3 3323   0.472   3.789   0.490  0.9451 -1.8137 -0.0273
  823SOL    MW4 3324   0.540   3.826   0.529  0.3811 -0.1757 -0.5698
  824SOL     OW 3325   3.624   2.418   1.415  0.4137  0.0786 -0.0876
  824SOL    HW2 3326   3.642   2.352   1.348  0.7540  0.3823 -0.2975
  824SOL    HW3 3327   3.710   2.449   1.443  0.2641  0.1790  0.2638
  824SOL    MW4 3328   3.637   2.414   1.409  0.4389  0.1319 -0.0689
  825SOL     OW 3329   1.806   3.317   2.132  0.0031 -0.0047 -0.7587
  825SOL    HW2 3330   1.892   3.335   2.169  0.4198  0.1287 -1.7557
  825SOL    HW3 3331   1.751   3.294   2.206  0.5012  1.4482  0.0851
  825SOL    MW4 3332   1.810   3.317   2.146  0.1238  0.2046 -0.7789
  826SOL     OW 3333   0.928   2.571   2.386  0.1759 -0.0444 -0.7273
  826SOL    HW2 3334   0.990   2.605   2.450  1.2202 -2.4752 -0.4077
  826SOL    HW3 3335   0.895   2.490   2.425 -1.8764  0.2857 -1.6920
  826SOL    MW4 3336   0.932   2.565   2.400  0.0429 -0.3215 -0.8124
  827SOL     OW 3337   3.000   0.438   4.420 -0.5685 -0.0597  0.1211
  827SOL    HW2 3338   3.082   0.429   4.468 -0.2013  0.0558 -0.4819
  827SOL    HW3 3339   2.986   0.533   4.415  0.0181 -0.0211 -1.0412
  827SOL    MW4 3340   3.009   0.450   4.426 -0.4426 -0.0393 -0.1118
  828SOL     OW 3341   0.691   2.922   4.335 -0.6534 -0.6153 -0.3359
  828SOL    HW2 3342   0.710   2.835   4.370  1.3885  0.1134  0.4337
  828SOL    HW3 3343   0.629   2.906   4.264 -0.0421 -2.7368 -0.4363
  828SOL    MW4 3344   0.685   2.909   4.330 -0.3033 -0.7991 -0.2476
  829SOL     OW 3345   1.434   0.982   0.812  0.7946 -0.3422 -0.5011
  829SOL    HW2 3346   1.377   0.945   0.879  0.8552 -0.3455 -0.4513
  829SOL    HW3 3347   1.472   1.059   0.853  0.1520  0.1607 -0.8312
  829SOL    MW4 3348   1.431   0.987   0.826  0.7178 -0.2762 -0.5381
  830SOL     OW 3349   4.174   0.141   2.505 -0.3752  0.0972 -0.1730
  830SOL    HW2 3350   4.189   0.166   2.596 -0.2306 -0.1152 -0.1368
  830SOL    HW3 3351   4.169   0.045   2.507  0.4998  0.0340 -0.5083
  830SOL    MW4 3352   4.175   0.131   2.518 -0.2407  0.0609 -0.2125
  831SOL     OW 3353   2.730   0.877   0.716 -0.1594  0.1272 -0.4820
  831SOL    HW2 3354   2.700   0.808   0.776  1.1527  0.5991  0.7374
  831SOL    HW3 3355   2.705   0.959   0.759 -1.2909  0.4394 -1.7069
  831SOL    MW4 3356   2.723   0.878   0.730 -0.1355  0.2307 -0.4827
  832SOL     OW 3357   2.500   3.618   1.652  0.6787  0.2161  0.2935
  832SOL    HW2 3358   2.556   3.679   1.604  1.3922  0.5003  1.4582
  832SOL    HW3 3359   2.560   3.551   1.685  0.0812 -0.4090  0.1287
  832SOL    MW4 3360   2.516   3.617   1.650  0.6940  0.1712  0.4254
  833SOL     OW 3361   2.925   3.784   3.876  0.0484 -0.0027 -0.0111
  833SOL    HW2 3362   2.999   3.729   3.901  1.4824  1.2029 -1.5177
  833SOL    HW3 3363   2.900   3.829   3.957  1.1307 -0.2225  0.4525
  833SOL    MW4 3364   2.931   3.782   3.890  0.3804  0.1274 -0.1487
  834SOL     OW 3365   1.587   4.322   2.354  0.0033 -0.4352 -0.2099
  834SOL    HW2 3366   1.546   4.264   2.419  0.5468 -0.8378 -0.2192
  834SOL    HW3 3367   1.678   4.293   2.351  0.2667  0.3898 -0.2635
  834SOL    MW4 3368   1.594   4.310   2.362  0.1098 -0.3795 -0.2182
  835SOL     OW 3369   2.152   1.180   4.539 -0.0792  0.3315  0.3396
  835SOL    HW2 3370   2.233   1.129   4.540  1.4456  2.7071  1.1726
  835SOL    HW3 3371   2.088   1.124   4.583  0.8568 -1.9345 -1.0948
  835SOL    MW4 3372   2.154   1.166   4.545  0.2455  0.3459  0.2603
  836SOL     OW 3373   4.447   1.093   3.528  0.2531  0.3317  0.0713
  836SOL    HW2 3374   4.419   1.010   3.565  1.4652  0.1714  0.6393
  836SOL    HW3 3375   4.495   1.069   3.449  0.4104  0.5023  0.1148
  836SOL    MW4 3376   4.449   1.079   3.522  0.4338  0.3330  0.1520
  837SOL     OW 3377   2.005   3.453   2.282  0.3539 -0.1181 -0.5924
  837SOL    HW2 3378   2.036   3.517   2.219  1.2692  0.5084  0.4662
  837SOL    HW3 3379   1.950   3.503   2.342  0.0722 -0.5545 -0.4876
  837SOL    MW4 3380   2.002   3.468   2.282  0.4375 -0.0930 -0.4389
  838SOL     OW 3381   0.083   3.372   0.649  0.2278 -0.1930 -0.4246
  838SOL    HW2 3382   0.094   3.302   0.584  1.9975 -0.2832 -0.0503
  838SOL    HW3 3383   0.087   3.327   0.733 -0.0289  0.1953 -0.2062
  838SOL    MW4 3384   0.085   3.357   0.651  0.4274 -0.1537 -0.3464
  839SOL     OW 3385   0.745   1.190   1.376  0.2425 -0.1654  0.3921
  839SOL    HW2 3386   0.731   1.176   1.470 -0.0710 -0.2034  0.3416
  839SOL    HW3 3387   0.757   1.285   1.368  0.8829 -0.2291  0.5468
  839SOL    MW4 3388   0.745   1.201   1.388  0.2856 -0.1788  0.4058
  840SOL     OW 3389   0.771   2.661   4.407 -0.0705  0.3533 -0.2733
  840SOL    HW2 3390   0.841   2.645   4.344  0.2352  2.0984 -0.4217
  840SOL    HW3 3391   0.790   2.604   4.481  0.6742 -0.2628 -0.9425
  840SOL    MW4 3392   0.783   2.652   4.408  0.0681  0.5023 -0.3811
  841SOL     OW 3393   0.651   2.301   1.732  0.2027 -0.4937  0.2039
  841SOL    HW2 3394   0.731   2.347   1.756  0.9698 -1.6319 -0.1171
  841SOL    HW3 3395   0.677   2.209   1.725 -1.0600 -0.8374 -0.2261
  841SOL    MW4 3396   0.665   2.295   1.734  0.1373 -0.6892  0.1048
  842SOL     OW 3397   1.901   2.079   3.625  0.3183 -0.0406  0.3203
  842SOL    HW2 3398   1.863   2.032   3.551 -0.3914 -1.3135  1.4850
  842SOL    HW3 3399   1.831   2.136   3.657  0.2986 -0.2744  0.6890
  842SOL    MW4 3400   1.887   2.081   3.620  0.2221 -0.2394  0.5226
  843SOL     OW 3401   4.185   1.903   3.566 -0.4020 -0.3264  0.8303
  843SOL    HW2 3402   4.164   1.996   3.566 -2.1608 -0.6901 -1.0069
  843SOL    HW3 3403   4.271   1.898   3.525 -1.0443  0.3673 -0.6569
  843SOL    MW4 3404   4.193   1.914   3.561 -0.7188 -0.2829  0.3917
  844SOL     OW 3405   1.579   3.630   3.630 -0.0259  0.1159 -0.4487
  844SOL    HW2 3406   1.586   3.650   3.537  0.0373 -0.8351 -0.6479
  844SOL    HW3 3407   1.493   3.662   3.655 -1.2714 -2.3045 -1.5087
  844SOL    MW4 3408   1.569   3.637   3.621 -0.1819 -0.3289 -0.6148
  845SOL     OW 3409   4.220   4.201   1.390 -0.0548  0.2148  0.4596
  845SOL    HW2 3410   4.294   4.152   1.353 -0.2903 -0.3112  0.6890
  845SOL    HW3 3411   4.252   4.232   1.475  0.0841  0.4371  0.3265
  845SOL    MW4 3412   4.234   4.198   1.396 -0.0675  0.1747  0.4723
  846SOL     OW 3413   1.211   2.608   3.789  0.3677  0.5094 -0.3690
  846SOL    HW2 3414   1.200   2.569   3.876 -0.4217  0.7368 -0.3588
  846SOL    HW3 3415   1.201   2.535   3.728 -3.4575  1.0083 -0.4646
  846SOL    MW4 3416   1.208   2.593   3.792 -0.2411  0.6053 -0.3803
  847SOL     OW 3417   1.547   3.255   1.941 -0.3666 -0.0817  0.7803
  847SOL    HW2 3418   1.508   3.335   1.977 -2.7088 -0.7209 -0.1812
  847SOL    HW3 3419   1.549   3.194   2.014  0.5149  0.5327  1.2763
  847SOL    MW4 3420   1.542   3.258   1.955 -0.5593 -0.0850  0.7189
  848SOL     OW 3421   2.066   2.755   2.052  0.4753 -0.1930  0.4889
  848SOL    HW2 3422   2.154   2.740   2.086  0.8139  0.8216  0.0716
  848SOL    HW3 3423   2.079   2.787   1.963 -0.3594 -1.3470 -0.0678
  848SOL    MW4 3424   2.079   2.757   2.045  0.4098 -0.2114  0.3604
  849SOL     OW 3425   1.925   0.728   3.664 -0.2146  0.6763 -0.1936
  849SOL    HW2 3426   1.842   0.682   3.655 -0.7602  1.5812  0.0681
  849SOL    HW3 3427   1.990   0.659   3.677 -0.9174 -0.0408 -0.4481
  849SOL    MW4 3428   1.922   0.713   3.665 -0.3793  0.7011 -0.1927
  850SOL     OW 3429   0.308   0.725   1.079  0.2548 -0.3621 -0.4346
  850SOL    HW2 3430   0.259   0.784   1.020 -1.3696 -0.4513  0.7914
  850SOL    HW3 3431   0.387   0.774   1.101 -0.4742  0.8558 -0.4443
  850SOL    MW4 3432   0.312   0.739   1.074 -0.0557 -0.2132 -0.2741
  851SOL     OW 3433   1.551   3.121   2.676 -0.2938 -0.2080 -0.8902
  851SOL    HW2 3434   1.571   3.046   2.620  0.7969 -1.0140  0.5504
  851SOL    HW3 3435   1.637   3.158   2.696 -0.6136 -0.3937  0.8764
  851SOL    MW4 3436   1.565   3.116   2.671 -0.1921 -0.3388 -0.4671
  852SOL     OW 3437   4.023   2.162   4.451  0.7654 -0.0198 -0.3873
  852SOL    HW2 3438   3.952   2.098   4.441 -0.4255  1.0244  1.1922
  852SOL    HW3 3439   4.103   2.110   4.442 -0.1857 -1.6914  0.5536
  852SOL    MW4 3440   4.024   2.147   4.449  0.4828 -0.1026 -0.0548
  853SOL     OW 3441   4.458   0.750   3.256  0.0458  0.2158  0.0665
  853SOL    HW2 3442   4.492   0.673   3.301  0.0279  0.5748  0.6888
  853SOL    HW3 3443   4.423   0.715   3.173  0.2759 -0.4037  0.2284
  853SOL    MW4 3444   4.458   0.735   3.251  0.0738  0.1814  0.1700
  854SOL     OW 3445   2.029   2.469   2.036 -0.1634 -0.0338  0.3374
  854SOL    HW2 3446   2.045   2.563   2.034 -2.7452  0.4238 -0.4408
  854SOL    HW3 3447   1.970   2.456   2.111 -0.0719 -0.9880  0.2514
  854SOL    MW4 3448   2.023   2.480   2.046 -0.4920 -0.0993  0.2234
  855SOL     OW 3449   2.516   2.937   2.220  0.1069  0.2533  0.5924
  855SOL    HW2 3450   2.476   2.858   2.184  2.8906 -0.5911 -0.7725
  855SOL    HW3 3451   2.467   2.954   2.301 -2.2217 -1.3477 -0.4258
  855SOL    MW4 3452   2.504   2.929   2.226  0.1669 -0.0693  0.2780
  856SOL     OW 3453   2.757   0.186   2.565 -0.1417 -0.0298 -0.3053
  856SOL    HW2 3454   2.767   0.166   2.658 -1.8607 -0.3869 -0.1859
  856SOL    HW3 3455   2.710   0.269   2.563 -0.3292 -0.1453 -0.8651
  856SOL    MW4 3456   2.752   0.194   2.577 -0.3933 -0.0921 -0.3634
  857SOL     OW 3457   2.541   4.128   0.731  0.2053 -0.0837  0.2233
  857SOL    HW2 3458   2.487   4.132   0.810  0.6395  0.3499  0.5008
  857SOL    HW3 3459   2.513   4.048   0.687  1.2833 -1.3277  1.7810
  857SOL    MW4 3460   2.530   4.118   0.736  0.4048 -0.1907  0.4654
  858SOL     OW 3461   0.911   2.408   4.301  0.0427  0.2267  0.5102
  858SOL    HW2 3462   0.868   2.336   4.348  0.3328  0.3284  0.9319
  858SOL    HW3 3463   0.993   2.421   4.348  0.1554  0.5942  0.2092
  858SOL    MW4 3464   0.916   2.400   4.313  0.0958  0.2886  0.5261
  859SOL     OW 3465   0.393   0.510   4.181  0.0001  0.0914 -0.2176
  859SOL    HW2 3466   0.462   0.477   4.124  0.1510  1.2986 -0.7333
  859SOL    HW3 3467   0.367   0.433   4.233  0.1250 -0.9199 -1.6167
  859SOL    MW4 3468   0.399   0.495   4.180  0.0365  0.1173 -0.4702
  860SOL     OW 3469   0.395   4.061   1.200 -0.2904  0.5193 -0.0568
  860SOL    HW2 3470   0.437   4.145   1.216  1.5204 -0.1035 -1.4448
  860SOL    HW3 3471   0.348   4.073   1.118  0.5256 -0.0283 -0.6058
  860SOL    MW4 3472   0.394   4.074   1.192  0.0562  0.3649 -0.3124
  861SOL     OW 3473   4.136   0.107   3.918  0.5378  0.0192 -0.3541
  861SOL    HW2 3474   4.067   0.101   3.985  0.9127 -0.8186 -0.0423
  861SOL    HW3 3475   4.215   0.129   3.968  0.8822 -0.9214 -0.4808
  861SOL    MW4 3476   4.137   0.109   3.934  0.6327 -0.2154 -0.3296
  862SOL     OW 3477   1.854   1.434   0.952  0.2422  0.0074 -0.4766
  862SOL    HW2 3478   1.764   1.432   0.985 -0.1471  1.6524 -1.3966
  862SOL    HW3 3479   1.846   1.419   0.858  1.0073 -0.6614 -0.4447
  862SOL    MW4 3480   1.841   1.432   0.944  0.2918  0.1362 -0.5938
  863SOL     OW 3481   1.306   0.446   0.148 -0.3452  0.8309  0.2314
  863SOL    HW2 3482   1.267   0.527   0.181 -0.9864  0.6703 -0.1198
  863SOL    HW3 3483   1.269   0.436   0.060 -0.4677  0.0197  0.3684
  863SOL    MW4 3484   1.296   0.455   0.140 -0.4459  0.7027  0.2031
  864SOL     OW 3485   1.923   0.204   2.298  0.7295  0.3099  0.4090
  864SOL    HW2 3486   1.862   0.262   2.252  0.4431 -0.3769 -0.0763
  864SOL    HW3 3487   1.941   0.134   2.236  0.8706 -0.2676  1.0979
  864SOL    MW4 3488   1.918   0.203   2.284  0.7103  0.1431  0.4358
  865SOL     OW 3489   2.022   0.324   4.028 -0.0644  0.3283  0.3142
  865SOL    HW2 3490   1.953   0.302   3.964  1.2042 -0.0919 -0.9419
  865SOL    HW3 3491   2.039   0.241   4.073 -0.9592  0.6248  1.2109
  865SOL    MW4 3492   2.015   0.310   4.025 -0.0150  0.3120  0.2668
  866SOL     OW 3493   1.358   0.300   0.377  0.0326  0.0960 -0.0469
  866SOL    HW2 3494   1.340   0.345   0.295  0.4338 -0.9430 -0.7138
  866SOL    HW3 3495   1.440   0.338   0.409  0.7648 -0.6650 -0.9852
  866SOL    MW4 3496   1.366   0.311   0.371  0.1821 -0.1415 -0.2587
  867SOL     OW 3497   2.608   1.166   3.096 -0.2024 -0.3875  0.6394
  867SOL    HW2 3498   2.522   1.183   3.058 -0.0988 -0.2864  0.4465
  867SOL    HW3 3499   2.645   1.096   3.041  0.4833  0.6704 -0.2746
  867SOL    MW4 3500   2.602   1.159   3.084 -0.0982 -0.2346  0.4934
  868SOL     OW 3501   3.284   0.409   4.495 -0.3861 -0.1707 -0.4984
  868SOL    HW2 3502   3.330   0.325   4.495 -1.9200 -1.0650 -2.9758
  868SOL    HW3 3503   3.323   0.456   4.421  0.6392  1.4562  1.0199
  868SOL    MW4 3504   3.295   0.404   4.485 -0.4532 -0.0741 -0.6249
  869SOL     OW 3505   4.252   0.488   4.065 -0.0448  0.3881 -0.2092
  869SOL    HW2 3506   4.195   0.564   4.056  0.4478  0.8050  0.1885
  869SOL    HW3 3507   4.266   0.479   4.159 -1.2683 -1.0644 -0.1431
  869SOL    MW4 3508   4.246   0.497   4.076 -0.1412  0.2515 -0.1480
  870SOL     OW 3509   1.751   1.843   1.570  0.0397  0.3406 -0.1661
  870SOL    HW2 3510   1.745   1.881   1.483 -0.2050  1.5003  0.3453
  870SOL    HW3 3511   1.673   1.789   1.578  1.1087 -1.4161 -1.4286
  870SOL    MW4 3512   1.740   1.841   1.560  0.1485  0.2618 -0.2652
  871SOL     OW 3513   3.056   4.015   4.290 -0.3858  0.1411  0.6731
  871SOL    HW2 3514   3.096   3.957   4.354 -0.0012  1.9230  2.0897
  871SOL    HW3 3515   3.127   4.038   4.230 -0.7740 -1.6247 -0.4908
  871SOL    MW4 3516   3.070   4.011   4.290 -0.3863  0.1432  0.7064
  872SOL     OW 3517   1.038   1.295   0.863  0.6314 -0.0700  0.5784
  872SOL    HW2 3518   1.007   1.206   0.879  1.7136 -0.7833 -1.1714
  872SOL    HW3 3519   1.053   1.299   0.769  0.4153  2.0375  0.5976
  872SOL    MW4 3520   1.036   1.284   0.853  0.7456  0.1139  0.3500
  873SOL     OW 3521   0.711   2.485   4.135 -0.2726  0.1429 -0.5692
  873SOL    HW2 3522   0.773   2.455   4.201 -1.4427 -0.3221  0.3434
  873SOL    HW3 3523   0.759   2.480   4.052  1.8056  2.4457  0.4244
  873SOL    MW4 3524   0.725   2.480   4.133 -0.1528  0.3854 -0.3177
  874SOL     OW 3525   3.177   0.770   1.459  0.0224  0.4009  0.3697
  874SOL    HW2 3526   3.081   0.769   1.456  0.0654 -0.5269 -1.7876
  874SOL    HW3 3527   3.201   0.858   1.431 -0.1764  0.1172 -0.7104
  874SOL    MW4 3528   3.168   0.781   1.455  0.0018  0.2411 -0.0574
  875SOL     OW 3529   0.756   2.979   1.417  0.4403 -0.1007 -0.1800
  875SOL    HW2 3530   0.793   2.896   1.449  1.1917  0.2132 -0.2357
  875SOL    HW3 3531   0.662   2.972   1.436  0.8387  0.0100  1.9356
  875SOL    MW4 3532   0.749   2.967   1.424  0.5920 -0.0447  0.0917
  876SOL     OW 3533   3.301   3.091   1.548 -0.4776  0.0322  0.1326
  876SOL    HW2 3534   3.322   3.184   1.546  1.0048 -0.2507  1.8586
  876SOL    HW3 3535   3.209   3.087   1.521 -0.6013  2.0073  0.2043
  876SOL    MW4 3536   3.291   3.102   1.544 -0.2984  0.2555  0.3698
  877SOL     OW 3537   3.934   1.672   0.896 -0.2631 -0.1528 -0.5056
  877SOL    HW2 3538   4.021   1.635   0.885  0.0532  0.9740 -2.0613
  877SOL    HW3 3539   3.941   1.730   0.971 -0.0716 -1.1905  0.2847
  877SOL    MW4 3540   3.946   1.675   0.904 -0.1961 -0.1411 -0.6066
  878SOL     OW 3541   2.681   0.466   1.114  0.2524 -0.0119  0.0021
  878SOL    HW2 3542   2.685   0.424   1.200  1.8659  1.7886  0.8447
  878SOL    HW3 3543   2.763   0.441   1.071  0.3980  0.7560 -0.1834
  878SOL    MW4 3544   2.692   0.457   1.120  0.4845  0.3270  0.0888
  879SOL     OW 3545   1.464   2.643   4.082  0.0710 -0.2436 -0.1008
  879SOL    HW2 3546   1.517   2.566   4.061 -0.9612 -0.9319 -0.2214
  879SOL    HW3 3547   1.470   2.651   4.177 -1.1007 -1.4362  0.0935
  879SOL    MW4 3548   1.472   2.633   4.092 -0.2198 -0.4918 -0.0911
  880SOL     OW 3549   1.646   3.658   0.462  0.1010 -0.5546  0.0411
  880SOL    HW2 3550   1.602   3.579   0.429  1.2519 -0.5499 -1.5915
  880SOL    HW3 3551   1.576   3.714   0.493 -0.7779 -2.0086  0.7569
  880SOL    MW4 3552   1.631   3.655   0.462  0.1369 -0.7458 -0.0799
  881SOL     OW 3553   2.131   0.253   2.488 -0.3951  0.0648 -0.2007
  881SOL    HW2 3554   2.217   0.229   2.456 -0.0069  0.5745  0.4445
  881SOL    HW3 3555   2.070   0.208   2.430  0.2966  0.3093 -1.1195
  881SOL    MW4 3556   2.134   0.244   2.476 -0.2526  0.1643 -0.2368
  882SOL     OW 3557   4.212   0.489   2.232 -0.0631  0.3960  0.1490
  882SOL    HW2 3558   4.152   0.460   2.163  1.2327  0.0172 -0.8448
  882SOL    HW3 3559   4.156   0.533   2.296 -1.6892 -1.7374  0.2512
  882SOL    MW4 3560   4.197   0.491   2.232 -0.1067  0.0645  0.0313
  883SOL     OW 3561   1.000   3.369   2.859  0.2625  0.4270 -0.3384
  883SOL    HW2 3562   0.998   3.301   2.792  0.2598  0.8084 -0.7286
  883SOL    HW3 3563   1.065   3.339   2.922  0.0155 -0.1000 -0.3318
  883SOL    MW4 3564   1.008   3.356   2.858  0.2295  0.4078 -0.3890
  884SOL     OW 3565   0.100   1.158   3.753  0.5161 -0.3487  0.1783
  884SOL    HW2 3566   0.069   1.129   3.667  0.7761 -0.4233  0.1089
  884SOL    HW3 3567   0.195   1.161   3.744  0.4578  1.3526 -0.0725
  884SOL    MW4 3568   0.109   1.154   3.740  0.5427 -0.1340  0.1360
  885SOL     OW 3569   1.063   2.459   0.844  0.0105  0.0633  0.2098
  885SOL    HW2 3570   1.055   2.551   0.870  1.0158  0.2848 -0.2387
  885SOL    HW3 3571   1.135   2.425   0.897  2.6296  0.7308 -2.7416
  885SOL    MW4 3572   1.071   2.467   0.854  0.4887  0.1806 -0.2388
  886SOL     OW 3573   4.074   2.277   0.730 -0.6565  0.0750 -0.7462
  886SOL    HW2 3574   4.084   2.373   0.732 -1.2427  0.1718 -1.9425
  886SOL    HW3 3575   4.130   2.246   0.802 -0.2347  1.2948 -0.5256
  886SOL    MW4 3576   4.083   2.286   0.740 -0.6782  0.2487 -0.8749
  887SOL     OW 3577   3.623   2.449   3.662 -0.4448  0.0874  0.1238
  887SOL    HW2 3578   3.599   2.475   3.751  0.0359 -0.7782  0.5080
  887SOL    HW3 3579   3.689   2.514   3.636 -1.1796  0.8279  0.0853
  887SOL    MW4 3580   3.629   2.461   3.671 -0.4783  0.0709  0.1694
  888SOL     OW 3581   2.302   4.314   2.266 -0.2040  0.6084  0.3346
  888SOL    HW2 3582   2.342   4.301   2.180 -0.1424  1.1853  0.2745
  888SOL    HW3 3583   2.314   4.407   2.284  3.1557 -0.2160  2.6781
  888SOL    MW4 3584   2.309   4.324   2.257  0.2474  0.5758  0.6359
  889SOL     OW 3585   2.205   2.079   0.680 -0.1496  0.3388  0.0435
  889SOL    HW2 3586   2.158   2.067   0.762  0.4642  0.1869  0.3718
  889SOL    HW3 3587   2.283   2.024   0.688 -1.5855 -2.1058 -1.8517
  889SOL    MW4 3588   2.209   2.070   0.692 -0.2581 -0.0038 -0.1632
  890SOL     OW 3589   0.491   1.124   2.864 -0.0373 -0.8407  0.0158
  890SOL    HW2 3590   0.519   1.195   2.922  1.5927 -0.9250 -0.6374
  890SOL    HW3 3591   0.556   1.055   2.878 -1.0931 -1.8550 -0.0269
  890SOL    MW4 3592   0.504   1.124   2.873  0.0384 -0.9857 -0.0760
  891SOL     OW 3593   2.687   2.498   2.098  0.1295  0.7112 -0.0147
  891SOL    HW2 3594   2.740   2.434   2.146 -1.8533 -1.1319 -0.2046
  891SOL    HW3 3595   2.674   2.459   2.012 -0.4829  1.7182 -0.3909
  891SOL    MW4 3596   2.693   2.485   2.093 -0.2129  0.6009 -0.0894
  892SOL     OW 3597   1.292   4.321   1.368  0.3083 -0.2402 -0.5564
  892SOL    HW2 3598   1.352   4.251   1.393  0.8862  0.1237 -0.9343
  892SOL    HW3 3599   1.209   4.298   1.411  0.8881 -0.3968  0.4876
  892SOL    MW4 3600   1.289   4.309   1.377  0.4611 -0.2129 -0.4685
  893SOL     OW 3601   3.519   3.338   1.387  0.0363  0.1031  0.5598
  893SOL    HW2 3602   3.561   3.397   1.324  0.8494 -0.6564  0.3824
  893SOL    HW3 3603   3.428   3.366   1.389  0.3455  1.1557  0.2271
  893SOL    MW4 3604   3.513   3.350   1.379  0.1844  0.1418  0.4925
  894SOL     OW 3605   1.985   2.525   3.644 -0.2129  0.0017  0.0408
  894SOL    HW2 3606   2.046   2.595   3.624 -0.4777 -0.4370 -2.3785
  894SOL    HW3 3607   1.912   2.568   3.689 -0.2087  1.2374 -1.1123
  894SOL    MW4 3608   1.983   2.540   3.648 -0.2473  0.1069 -0.4305
  895SOL     OW 3609   0.987   4.649   1.547 -0.0147 -0.5169 -0.2361
  895SOL    HW2 3610   0.970   4.737   1.514  0.2464 -0.3712  0.0210
  895SOL    HW3 3611   1.076   4.629   1.517 -0.0777 -0.6970 -0.3030
  895SOL    MW4 3612   0.996   4.658   1.539  0.0114 -0.5214 -0.2110
  896SOL     OW 3613   0.869   2.082   2.575  0.2074 -0.0852 -0.0287
  896SOL    HW2 3614   0.852   2.044   2.489 -1.6466 -1.1674  0.7756
  896SOL    HW3 3615   0.833   2.170   2.571 -2.3375 -1.0643  0.4576
  896SOL    MW4 3616   0.862   2.088   2.563 -0.3730 -0.3572  0.1416
  897SOL     OW 3617   1.276   4.646   1.840  1.2103  0.4793  0.1743
  897SOL    HW2 3618   1.335   4.570   1.844 -1.1642 -1.3301  2.3064
  897SOL    HW3 3619   1.326   4.716   1.883  2.2997 -0.6726  0.8500
  897SOL    MW4 3620   1.291   4.645   1.846  1.0407  0.0886  0.5447
  898SOL     OW 3621   1.102   3.048   2.814 -0.7868  0.2424  0.4358
  898SOL    HW2 3622   1.041   3.007   2.876  0.1411  0.5253  1.5546
  898SOL    HW3 3623   1.188   3.034   2.853 -0.2684  1.2248 -0.3420
  898SOL    MW4 3624   1.105   3.041   2.827 -0.5960  0.4094  0.4808
  899SOL     OW 3625   2.733   3.959   0.859 -0.4589 -0.0828 -0.1676
  899SOL    HW2 3626   2.699   4.042   0.824 -0.2363  0.4515  0.8677
  899SOL    HW3 3627   2.817   3.983   0.899 -0.1204 -0.9191 -0.3724
  899SOL    MW4 3628   2.740   3.973   0.860 -0.3848 -0.1226 -0.0580
  900SOL     OW 3629   0.077   1.626   0.541  0.2586 -0.2234  0.2738
  900SOL    HW2 3630   0.131   1.634   0.620 -0.5370  2.0009  0.6068
  900SOL    HW3 3631   0.093   1.707   0.492 -1.7920 -0.1109 -0.2592
  900SOL    MW4 3632   0.087   1.637   0.545 -0.1169  0.0849  0.2474
  901SOL     OW 3633   3.371   0.883   0.564 -0.6414  0.2781  0.1161
  901SOL    HW2 3634   3.364   0.972   0.530  0.3256  0.5683  0.6644
  901SOL    HW3 3635   3.280   0.852   0.569 -0.9306  0.9752 -0.7375
  901SOL    MW4 3636   3.358   0.891   0.560 -0.5520  0.4083  0.0758
  902SOL     OW 3637   2.837   2.486   3.270  0.0196 -0.4199 -0.0240
  902SOL    HW2 3638   2.769   2.546   3.238  0.9934  0.6657 -0.0963
  902SOL    HW3 3639   2.867   2.440   3.192  0.4850  0.2554 -0.2444
  902SOL    MW4 3640   2.832   2.488   3.256  0.2095 -0.1876 -0.0626
  903SOL     OW 3641   1.230   3.559   1.400  0.3117  0.0789 -0.4614
  903SOL    HW2 3642   1.266   3.484   1.448  1.5412 -0.6003 -2.3433
  903SOL    HW3 3643   1.300   3.583   1.338 -0.6048  1.9071 -0.8192
  903SOL    MW4 3644   1.244   3.552   1.398  0.3530  0.2305 -0.7569
  904SOL     OW 3645   0.544   2.349   1.473  0.3659  0.1299  0.0633
  904SOL    HW2 3646   0.553   2.270   1.420  1.3003  0.2286  0.0707
  904SOL    HW3 3647   0.577   2.324   1.560  1.8702  0.8826 -0.2799
  904SOL    MW4 3648   0.549   2.335   1.478  0.6877  0.2422  0.0190
  905SOL     OW 3649   3.401   3.714   2.893 -0.3230  0.1123  0.1144
  905SOL    HW2 3650   3.376   3.692   2.803  2.2319  1.2734 -0.9326
  905SOL    HW3 3651   3.452   3.639   2.923 -0.5900  0.0245  0.3494
  905SOL    MW4 3652   3.404   3.701   2.885 -0.0211  0.2539  0.0072
  906SOL     OW 3653   1.779   2.125   4.077 -0.3205  0.2232 -0.5257
  906SOL    HW2 3654   1.771   2.128   4.172 -0.4937  2.2399 -0.5687
  906SOL    HW3 3655   1.690   2.108   4.046 -0.1359 -1.1609 -0.3184
  906SOL    MW4 3656   1.766   2.123   4.086 -0.3190  0.3067 -0.5040
  907SOL     OW 3657   1.397   2.898   3.848  0.6562 -0.1254  0.4997
  907SOL    HW2 3658   1.422   2.811   3.819  0.0008 -0.4986  1.0292
  907SOL    HW3 3659   1.418   2.956   3.775 -0.2903 -0.9373 -0.4221
  907SOL    MW4 3660   1.403   2.894   3.835  0.4448 -0.2817  0.4479
  908SOL     OW 3661   0.086   0.940   2.417  0.4027  0.2337 -0.1690
  908SOL    HW2 3662   0.048   0.980   2.338  1.8372  1.4133 -0.2798
  908SOL    HW3 3663   0.035   0.977   2.489 -1.1394 -1.1042 -0.5352
  908SOL    MW4 3664   0.074   0.950   2.416  0.3885  0.2128 -0.2319
  909SOL     OW 3665   1.454   3.534   2.699  0.2136 -0.2680 -0.2767
  909SOL    HW2 3666   1.405   3.469   2.647 -0.1008  0.1152 -0.4584
  909SOL    HW3 3667   1.434   3.618   2.658 -1.1490  0.1944  1.3147
  909SOL    MW4 3668   1.445   3.536   2.686 -0.0077 -0.1564 -0.0907
  910SOL     OW 3669   2.956   2.491   1.606  0.0715 -0.1499  0.2060
  910SOL    HW2 3670   3.033   2.544   1.626  0.3638  0.0209 -1.2802
  910SOL    HW3 3671   2.979   2.403   1.635  1.0151 -0.1875 -0.6303
  910SOL    MW4 3672   2.969   2.487   1.613  0.2345 -0.1323 -0.1004
  911SOL     OW 3673   4.204   3.834   1.267 -0.1269 -0.1600  0.2239
  911SOL    HW2 3674   4.251   3.751   1.275 -0.1942 -0.3837 -1.5346
  911SOL    HW3 3675   4.177   3.854   1.356  0.4550 -1.6986  0.7741
  911SOL    MW4 3676   4.206   3.825   1.280 -0.0590 -0.3925  0.0645
  912SOL     OW 3677   2.640   1.181   1.206  0.6409 -0.5992  0.1494
  912SOL    HW2 3678   2.683   1.231   1.136  1.6583  0.1576  1.3088
  912SOL    HW3 3679   2.556   1.224   1.217  1.0656  0.1717  0.3822
  912SOL    MW4 3680   2.635   1.193   1.198  0.8312 -0.3977  0.3331
  913SOL     OW 3681   3.861   0.719   1.723  0.5141  0.2225 -0.2096
  913SOL    HW2 3682   3.888   0.710   1.632 -2.6985  1.8417 -1.3748
  913SOL    HW3 3683   3.936   0.761   1.766  1.5455  0.6798 -2.3691
  913SOL    MW4 3684   3.875   0.723   1.717  0.2263  0.4964 -0.6482
  914SOL     OW 3685   3.747   1.534   4.377 -0.3629 -0.4736  0.2040
  914SOL    HW2 3686   3.658   1.530   4.343 -0.0776  1.0238 -0.8032
  914SOL    HW3 3687   3.779   1.620   4.348  1.9474 -1.6429 -0.8364
  914SOL    MW4 3688   3.739   1.545   4.369 -0.0205 -0.4303 -0.0662
  915SOL     OW 3689   3.390   2.120   1.239 -0.0080 -0.9491 -0.4090
  915SOL    HW2 3690   3.369   2.122   1.146 -1.3577 -1.0847 -0.1204
  915SOL    HW3 3691   3.486   2.121   1.242  0.0427 -0.5643 -1.7790
  915SOL    MW4 3692   3.400   2.120   1.227 -0.1794 -0.9162 -0.5517
  916SOL     OW 3693   4.176   0.085   0.529  0.0941  0.0150  0.0935
  916SOL    HW2 3694   4.147   0.032   0.604 -0.2300 -0.7890 -0.5921
  916SOL    HW3 3695   4.106   0.149   0.517 -0.7235 -0.9932 -0.6348
  916SOL    MW4 3696   4.163   0.086   0.538 -0.0565 -0.2241 -0.0931
  917SOL     OW 3697   0.377   2.997   3.419 -0.0527  0.7135  0.2645
  917SOL    HW2 3698   0.456   2.987   3.472 -0.2840  0.9666  0.6622
  917SOL    HW3 3699   0.399   2.958   3.335  0.4885  0.7677  0.3810
  917SOL    MW4 3700   0.390   2.990   3.415 -0.0118  0.7541  0.3323
  918SOL     OW 3701   1.859   4.258   2.360  0.5112 -0.4025  1.0795
  918SOL    HW2 3702   1.912   4.338   2.363 -0.2969  0.2953 -1.7885
  918SOL    HW3 3703   1.905   4.200   2.300 -1.4595 -0.1402 -0.7256
  918SOL    MW4 3704   1.872   4.261   2.352  0.1446 -0.2758  0.4629
  919SOL     OW 3705   2.058   1.428   1.290  0.7994  0.3506 -0.2998
  919SOL    HW2 3706   2.071   1.454   1.198  0.9331 -0.3792 -0.4839
  919SOL    HW3 3707   2.005   1.349   1.285  0.7888  0.3235  0.2589
  919SOL    MW4 3708   2.053   1.421   1.277  0.8156  0.2507 -0.2504
  920SOL     OW 3709   4.020   0.754   2.710 -0.1835  0.1338 -0.2118
  920SOL    HW2 3710   4.033   0.696   2.785 -2.3061  0.5173  0.4834
  920SOL    HW3 3711   4.031   0.842   2.747  0.6150  0.2639 -0.7500
  920SOL    MW4 3712   4.023   0.758   2.725 -0.3582  0.2016 -0.1911
  921SOL     OW 3713   4.365   4.271   0.825  0.4911 -0.4206  0.8798
  921SOL    HW2 3714   4.331   4.198   0.877  0.6013 -2.2323 -1.4745
  921SOL    HW3 3715   4.293   4.295   0.767  0.8128  0.6375  0.9083
  921SOL    MW4 3716   4.351   4.264   0.824  0.5481 -0.5200  0.5729
  922SOL     OW 3717   3.610   0.519   3.624 -0.4597 -0.7665  0.3481
  922SOL    HW2 3718   3.636   0.453   3.688  0.4153  1.8835  2.8369
  922SOL    HW3 3719   3.693   0.549   3.586 -0.6960  0.2855  0.6657
  922SOL    MW4 3720   3.624   0.514   3.628 -0.3754 -0.2780  0.7183
  923SOL     OW 3721   3.834   0.097   2.200 -0.0646  0.0335  0.0182
  923SOL    HW2 3722   3.767   0.039   2.238  0.0787  0.7827  1.4120
  923SOL    HW3 3723   3.874   0.141   2.275  1.9178 -0.3047 -0.8136
  923SOL    MW4 3724   3.830   0.095   2.215  0.2159  0.0877  0.0923
  924SOL     OW 3725   1.306   3.945   2.616 -0.3250 -0.1296  0.5133
  924SOL    HW2 3726   1.376   3.886   2.589 -1.5869 -1.1688 -0.5752
  924SOL    HW3 3727   1.284   3.918   2.705  0.6390  0.2005  0.8570
  924SOL    MW4 3728   1.312   3.934   2.624 -0.3643 -0.2231  0.4150
  925SOL     OW 3729   2.900   0.327   3.192 -0.3216  0.2051  0.1640
  925SOL    HW2 3730   2.968   0.309   3.127 -0.4041 -2.2805  0.7106
  925SOL    HW3 3731   2.947   0.328   3.276 -0.8966 -1.3342  0.5225
  925SOL    MW4 3732   2.915   0.325   3.195 -0.4084 -0.3259  0.2834
  926SOL     OW 3733   3.686   4.028   2.113  0.4489 -0.8671  0.2597
  926SOL    HW2 3734   3.706   4.104   2.058  0.5081 -1.2551 -0.2542
  926SOL    HW3 3735   3.771   3.988   2.131  0.5845  0.0122  1.7512
  926SOL    MW4 3736   3.700   4.033   2.108  0.4746 -0.8023  0.3887
  927SOL     OW 3737   3.829   4.162   1.651 -0.2502 -0.4024 -0.0895
  927SOL    HW2 3738   3.743   4.183   1.616 -0.4504 -0.6298  0.2731
  927SOL    HW3 3739   3.884   4.236   1.624 -0.5469 -0.2765 -0.3513
  927SOL    MW4 3740   3.825   4.175   1.643 -0.3158 -0.4158 -0.0762
  928SOL     OW 3741   0.116   1.238   4.204 -0.2265 -0.1007  0.3742
  928SOL    HW2 3742   0.095   1.325   4.238  2.0434  0.1626  1.2043
  928SOL    HW3 3743   0.207   1.223   4.232 -0.2285 -2.2725 -0.7075
  928SOL    MW4 3744   0.125   1.248   4.212  0.0728 -0.3525  0.3410
  929SOL     OW 3745   4.412   4.390   4.047  0.2845  0.0586  0.5225
  929SOL    HW2 3746   4.503   4.420   4.041  0.3912 -0.0801  1.3517
  929SOL    HW3 3747   4.381   4.426   4.130  0.7162 -2.9286  2.0264
  929SOL    MW4 3748   4.420   4.399   4.057  0.3556 -0.3538  0.8303
  930SOL     OW 3749   0.856   4.040   2.892  0.3685 -0.0494  0.0458
  930SOL    HW2 3750   0.777   4.092   2.905 -0.4531 -1.6551  1.7020
  930SOL    HW3 3751   0.866   4.035   2.797  0.5571  3.2192 -0.1552
  930SOL    MW4 3752   0.847   4.046   2.881  0.2850  0.1700  0.2378
  931SOL     OW 3753   1.921   1.107   2.819 -0.4692  0.8302  0.8004
  931SOL    HW2 3754   2.004   1.082   2.860 -0.4822  0.3860  0.5592
  931SOL    HW3 3755   1.940   1.192   2.778  0.0266  0.4802  0.2822
  931SOL    MW4 3756   1.935   1.115   2.819 -0.4055  0.7254  0.7002
  932SOL     OW 3757   0.175   4.110   1.844  0.1258  0.4313 -0.6490
  932SOL    HW2 3758   0.252   4.055   1.833  0.5855  0.8903  0.2047
  932SOL    HW3 3759   0.126   4.070   1.916 -0.1693  0.4362 -0.8457
  932SOL    MW4 3760   0.179   4.098   1.852  0.1475  0.4925 -0.5623
  933SOL     OW 3761   1.280   0.628   0.643  0.1212 -0.2776  0.0163
  933SOL    HW2 3762   1.235   0.643   0.727  1.0707 -0.9472  0.6496
  933SOL    HW3 3763   1.372   0.648   0.661  0.4664 -1.2519 -0.6443
  933SOL    MW4 3764   1.286   0.632   0.657  0.2920 -0.4945  0.0127
  934SOL     OW 3765   0.643   0.540   2.658  0.4688 -0.1938  0.1344
  934SOL    HW2 3766   0.709   0.534   2.726  1.1623 -0.5934 -0.5645
  934SOL    HW3 3767   0.623   0.634   2.653  0.0866 -0.2152  1.1821
  934SOL    MW4 3768   0.649   0.552   2.666  0.5099 -0.2494  0.1805
  935SOL     OW 3769   2.523   1.155   0.396 -0.0238 -0.5258  0.1824
  935SOL    HW2 3770   2.583   1.082   0.380 -0.2075 -0.3199 -1.5545
  935SOL    HW3 3771   2.451   1.117   0.446  0.0743 -1.4535 -0.3669
  935SOL    MW4 3772   2.522   1.140   0.400 -0.0351 -0.6210 -0.1193
  936SOL     OW 3773   1.493   0.725   3.178 -0.2208 -0.6793 -0.0799
  936SOL    HW2 3774   1.537   0.690   3.100  1.0460  1.4069 -0.3456
  936SOL    HW3 3775   1.460   0.810   3.151 -1.2176 -0.6503  1.2022
  936SOL    MW4 3776   1.495   0.731   3.164 -0.1852 -0.4002  0.0542
  937SOL     OW 3777   3.889   0.418   4.179 -0.2378 -0.4746 -0.5300
  937SOL    HW2 3778   3.802   0.458   4.182 -0.4892 -1.1035  1.6181
  937SOL    HW3 3779   3.945   0.477   4.230  0.4346 -0.4934 -1.2235
  937SOL    MW4 3780   3.885   0.431   4.186 -0.1822 -0.5600 -0.3381
  938SOL     OW 3781   1.227   2.857   1.679  0.2646  0.0243  0.3220
  938SOL    HW2 3782   1.258   2.873   1.590 -1.2439 -1.6395 -0.5331
  938SOL    HW3 3783   1.301   2.814   1.722  0.3972 -0.7801 -0.6699
  938SOL    MW4 3784   1.241   2.853   1.673  0.0830 -0.3014  0.0783
  939SOL     OW 3785   3.496   0.068   0.424  0.4006  0.1816  0.5334
  939SOL    HW2 3786   3.442   0.035   0.495  0.5069 -1.1422  0.0236
  939SOL    HW3 3787   3.564   0.002   0.412  2.1937  1.8474  1.2073
  939SOL    MW4 3788   3.498   0.055   0.432  0.6512  0.2267  0.5551
  940SOL     OW 3789   2.967   1.382   3.541  0.4716  0.2510 -0.3603
  940SOL    HW2 3790   2.880   1.359   3.508  0.8144 -0.6269 -0.6684
  940SOL    HW3 3791   2.979   1.326   3.617  1.2359 -0.4739 -1.0013
  940SOL    MW4 3792   2.957   1.371   3.547  0.6177  0.0396 -0.4855
  941SOL     OW 3793   0.065   2.519   1.821 -0.4517 -0.4401  0.6140
  941SOL    HW2 3794   0.027   2.605   1.804 -1.1628 -1.0891 -1.1588
  941SOL    HW3 3795   0.157   2.529   1.797 -0.9070 -0.6403 -1.2670
  941SOL    MW4 3796   0.072   2.532   1.816 -0.6056 -0.5522  0.1319
  942SOL     OW 3797   2.859   3.702   1.628 -0.0833  0.4129  0.0348
  942SOL    HW2 3798   2.928   3.764   1.653  0.7290 -1.2588  2.1155
  942SOL    HW3 3799   2.906   3.626   1.594 -1.0003  0.1988 -0.7724
  942SOL    MW4 3800   2.875   3.700   1.627 -0.0971  0.1641  0.2028
  943SOL     OW 3801   0.958   3.146   3.903 -0.2844 -0.5008  0.4354
  943SOL    HW2 3802   0.866   3.127   3.919 -0.4224  0.2533  0.5520
  943SOL    HW3 3803   1.006   3.085   3.959 -0.7418  1.0165  2.5183
  943SOL    MW4 3804   0.952   3.136   3.912 -0.3630 -0.2011  0.7256
  944SOL     OW 3805   0.537   1.357   3.010  0.6007  0.4401 -0.9616
  944SOL    HW2 3806   0.498   1.415   3.076  0.3637 -0.6241 -0.1492
  944SOL    HW3 3807   0.590   1.415   2.956  0.5042  1.3969 -0.0564
  944SOL    MW4 3808   0.539   1.372   3.012  0.5567  0.4259 -0.7350
  945SOL     OW 3809   0.368   3.829   3.102 -0.2132  0.1277  0.4966
  945SOL    HW2 3810   0.423   3.907   3.109 -1.6813  1.1616  0.6906
  945SOL    HW3 3811   0.381   3.799   3.012 -0.7050  1.3985 -0.0046
  945SOL    MW4 3812   0.377   3.836   3.091 -0.4718  0.4318  0.4561
  946SOL     OW 3813   1.352   0.315   0.765  0.0439  0.2746 -0.7205
  946SOL    HW2 3814   1.358   0.219   0.760  0.5425  0.2801 -0.2176
  946SOL    HW3 3815   1.283   0.337   0.702 -1.0738 -0.5376  0.1811
  946SOL    MW4 3816   1.344   0.305   0.756 -0.0378  0.1681 -0.5352
  947SOL     OW 3817   3.015   1.606   3.853 -0.1172  0.0255 -0.6320
  947SOL    HW2 3818   3.011   1.606   3.757 -1.2291  0.6972 -0.5868
  947SOL    HW3 3819   2.939   1.656   3.880  0.4693  0.2533  0.6056
  947SOL    MW4 3820   3.005   1.612   3.844 -0.1865  0.1442 -0.4627
  948SOL     OW 3821   1.333   1.659   2.549  0.1066  0.1146 -0.2749
  948SOL    HW2 3822   1.386   1.737   2.536  1.6071 -0.9957 -0.9582
  948SOL    HW3 3823   1.258   1.671   2.491 -0.4122  1.6922  0.6968
  948SOL    MW4 3824   1.330   1.671   2.540  0.2361  0.1762 -0.2368
  949SOL     OW 3825   1.229   4.627   1.409  0.8551 -0.1703 -0.0695
  949SOL    HW2 3826   1.225   4.656   1.318  1.2163 -1.0630 -0.3713
  949SOL    HW3 3827   1.235   4.531   1.404 -0.6372 -0.3497  0.9194
  949SOL    MW4 3828   1.229   4.618   1.396  0.7059 -0.3117  0.0212
  950SOL     OW 3829   2.056   2.719   4.333 -0.5370 -0.3222  0.1191
  950SOL    HW2 3830   2.081   2.694   4.244 -0.6314  0.3045 -0.0935
  950SOL    HW3 3831   1.972   2.764   4.321 -0.4976 -0.1464  0.5079
  950SOL    MW4 3832   2.048   2.722   4.319 -0.5443 -0.2163  0.1423
  951SOL     OW 3833   3.467   1.571   4.308  0.6130  0.6045  0.6822
  951SOL    HW2 3834   3.451   1.664   4.327 -2.4897  0.4203 -0.7150
  951SOL    HW3 3835   3.470   1.566   4.212 -0.3561 -0.8865  0.7165
  951SOL    MW4 3836   3.466   1.582   4.298  0.0758  0.3835  0.5024
  952SOL     OW 3837   0.610   2.847   2.345  0.2758  0.0192  0.5543
  952SOL    HW2 3838   0.668   2.889   2.409  1.8788  0.0704 -0.8868
  952SOL    HW3 3839   0.575   2.770   2.391  2.0919 -0.4458  1.1983
  952SOL    MW4 3840   0.613   2.842   2.360  0.7269 -0.0354  0.4491
  953SOL     OW 3841   1.247   0.355   1.464 -0.5974  0.0410 -0.5159
  953SOL    HW2 3842   1.295   0.282   1.504 -1.6344 -1.1711 -1.4303
  953SOL    HW3 3843   1.235   0.418   1.536 -2.0146 -1.8762  0.9895
  953SOL    MW4 3844   1.252   0.354   1.479 -0.9212 -0.3719 -0.4379
  954SOL     OW 3845   3.276   0.796   4.264  0.2942 -0.7018 -0.7885
  954SOL    HW2 3846   3.214   0.822   4.196 -0.3233 -0.0298  0.0332
  954SOL    HW3 3847   3.342   0.866   4.264 -0.4750  0.0254  0.2831
  954SOL    MW4 3848   3.277   0.808   4.255  0.1113 -0.5172 -0.5387
  955SOL     OW 3849   0.345   2.513   2.885  0.5805  0.1381  0.0745
  955SOL    HW2 3850   0.358   2.462   2.805  0.5951 -0.8968  0.7117
  955SOL    HW3 3851   0.376   2.454   2.955  0.4106  0.9590  0.8458
  955SOL    MW4 3852   0.351   2.498   2.884  0.5600  0.1099  0.2603
  956SOL     OW 3853   1.054   3.817   1.231  0.0045 -0.2233 -0.5078
  956SOL    HW2 3854   1.093   3.754   1.171  0.4809 -0.7364  0.3369
  956SOL    HW3 3855   0.980   3.854   1.182 -0.5325 -1.7369 -0.8521
  956SOL    MW4 3856   1.049   3.814   1.216 -0.0035 -0.4907 -0.4418
  957SOL     OW 3857   2.068   4.626   3.600  0.7607 -0.0309 -0.5127
  957SOL    HW2 3858   2.071   4.600   3.693  0.2008 -0.7246 -0.6829
  957SOL    HW3 3859   2.037   4.716   3.602  1.3243  0.1587  0.0093
  957SOL    MW4 3860   2.065   4.635   3.613  0.7612 -0.0974 -0.4663
  958SOL     OW 3861   3.774   2.784   1.327 -0.0910  0.3657  0.0415
  958SOL    HW2 3862   3.714   2.822   1.391 -0.7829 -1.3236  0.4307
  958SOL    HW3 3863   3.746   2.819   1.243 -0.1744  1.3671  0.4818
  958SOL    MW4 3864   3.763   2.794   1.325 -0.1933  0.2749  0.1509
  959SOL     OW 3865   0.061   1.109   1.896 -0.0437 -0.0228 -0.6839
  959SOL    HW2 3866   0.032   1.080   1.983  2.7966  1.0183  0.6775
  959SOL    HW3 3867   0.048   1.032   1.840 -1.3083 -0.9176  0.8031
  959SOL    MW4 3868   0.056   1.095   1.900  0.1642 -0.0035 -0.3081
  960SOL     OW 3869   2.258   3.552   2.004 -0.5004 -0.2659  0.1584
  960SOL    HW2 3870   2.202   3.504   1.943 -1.6967 -0.6863  1.5640
  960SOL    HW3 3871   2.317   3.603   1.948 -2.2004  0.0758 -1.3410
  960SOL    MW4 3872   2.258   3.552   1.988 -0.8826 -0.2763  0.1460
  961SOL     OW 3873   2.176   1.470   1.013 -0.5023 -0.4889 -0.2651
  961SOL    HW2 3874   2.265   1.469   1.046 -0.9749 -1.1714  1.0108
  961SOL    HW3 3875   2.185   1.490   0.919  0.8504  1.3829  0.2360
  961SOL    MW4 3876   2.189   1.473   1.005 -0.3862 -0.3320 -0.0307
  962SOL     OW 3877   2.403   4.546   2.606 -0.1171  0.3487 -0.0154
  962SOL    HW2 3878   2.393   4.608   2.679 -0.8944 -0.4476  0.5758
  962SOL    HW3 3879   2.406   4.460   2.649 -0.2435 -0.0994 -0.9068
  962SOL    MW4 3880   2.402   4.543   2.622 -0.2363  0.1846 -0.0550
  963SOL     OW 3881   3.778   1.265   4.391  0.0631  0.4728 -0.0149
  963SOL    HW2 3882   3.790   1.360   4.383 -1.0065  0.5946 -0.2424
  963SOL    HW3 3883   3.780   1.248   4.485  0.3689  0.7048  0.0205
  963SOL    MW4 3884   3.780   1.275   4.402 -0.0377  0.5195 -0.0402
  964SOL     OW 3885   1.087   1.145   4.469 -0.2657 -0.1897 -0.1543
  964SOL    HW2 3886   1.067   1.217   4.409 -0.1565  0.9964  1.1991
  964SOL    HW3 3887   1.004   1.125   4.513  0.2447  0.9420  1.3936
  964SOL    MW4 3888   1.074   1.152   4.467 -0.1839  0.1161  0.2285
  965SOL     OW 3889   2.979   1.006   2.986 -0.1373  0.4308  0.4561
  965SOL    HW2 3890   2.999   1.072   3.052  0.0927  1.0932 -0.2676
  965SOL    HW3 3891   3.013   0.924   3.022  0.9221  0.9721  0.7048
  965SOL    MW4 3892   2.986   1.004   2.999  0.0328  0.5896  0.3934
  966SOL     OW 3893   3.594   0.609   1.685  0.2339  0.0225  0.1822
  966SOL    HW2 3894   3.519   0.667   1.697  0.0367 -0.1782 -0.0790
  966SOL    HW3 3895   3.670   0.665   1.696  0.0424  0.4081 -0.4310
  966SOL    MW4 3896   3.594   0.624   1.688  0.1826  0.0469  0.0668
  967SOL     OW 3897   1.486   4.617   1.092  0.2259 -0.2370 -0.3803
  967SOL    HW2 3898   1.511   4.537   1.138 -0.1579 -0.4478 -0.5473
  967SOL    HW3 3899   1.398   4.601   1.060  0.4630 -0.0576 -1.1286
  967SOL    MW4 3900   1.478   4.605   1.094  0.2066 -0.2412 -0.5011
  968SOL     OW 3901   2.405   3.793   4.328  0.1943  0.0200 -0.0477
  968SOL    HW2 3902   2.357   3.829   4.253  1.1742  2.3740  0.4245
  968SOL    HW3 3903   2.362   3.710   4.346  0.5234 -1.0833 -3.8431
  968SOL    MW4 3904   2.393   3.787   4.320  0.3670  0.1850 -0.4862
  969SOL     OW 3905   1.086   3.680   3.718 -0.0492 -0.0961 -0.0253
  969SOL    HW2 3906   1.065   3.638   3.634  0.8279 -0.0220 -0.2938
  969SOL    HW3 3907   1.097   3.773   3.697  1.9294 -0.3294 -0.1858
  969SOL    MW4 3908   1.085   3.687   3.704  0.3276 -0.1171 -0.0819
  970SOL     OW 3909   1.783   1.304   4.572 -0.0349 -0.4245  0.5259
  970SOL    HW2 3910   1.845   1.252   4.624 -0.0861 -0.4352  0.5775
  970SOL    HW3 3911   1.813   1.394   4.583 -0.2828 -0.3878  0.9000
  970SOL    MW4 3912   1.795   1.309   4.581 -0.0744 -0.4210  0.5820
  971SOL     OW 3913   0.398   1.023   1.617  0.1371 -0.1444  0.0409
  971SOL    HW2 3914   0.430   0.933   1.609  1.6563  0.4637 -0.8030
  971SOL    HW3 3915   0.477   1.077   1.619 -0.7569  1.1645  0.7982
  971SOL    MW4 3916   0.413   1.018   1.616  0.2196  0.1085  0.0294
  972SOL     OW 3917   0.221   2.910   0.390 -0.0433 -0.1081 -0.2957
  972SOL    HW2 3918   0.200   2.829   0.437  1.5342 -0.4820 -0.2049
  972SOL    HW3 3919   0.315   2.922   0.403 -0.3057  1.9315 -0.0242
  972SOL    MW4 3920   0.231   2.901   0.398  0.1302  0.1117 -0.2479
  973SOL     OW 3921   3.675   0.918   2.385  0.5257 -0.0658  0.1289
  973SOL    HW2 3922   3.686   0.823   2.385 -0.5236 -0.1999  0.3291
  973SOL    HW3 3923   3.751   0.952   2.337  0.0380 -1.1089 -1.4146
  973SOL    MW4 3924   3.686   0.910   2.379  0.3229 -0.2212 -0.0483
  974SOL     OW 3925   3.442   1.296   0.618 -0.7739 -0.1537  0.0507
  974SOL    HW2 3926   3.525   1.250   0.604 -1.1366 -0.3703 -1.4240
  974SOL    HW3 3927   3.447   1.326   0.709  0.0421 -1.9178  0.6007
  974SOL    MW4 3928   3.454   1.294   0.628 -0.7141 -0.4150 -0.0713
  975SOL     OW 3929   2.266   2.666   2.959  0.1178  0.2803 -0.0757
  975SOL    HW2 3930   2.224   2.707   2.884 -0.4274 -0.6581 -0.3050
  975SOL    HW3 3931   2.217   2.584   2.971  0.1371  0.4656  1.3541
  975SOL    MW4 3932   2.254   2.660   2.951  0.0484  0.1810  0.0827
  976SOL     OW 3933   2.677   3.331   3.416  0.1794  0.4929  0.3620
  976SOL    HW2 3934   2.719   3.393   3.475 -0.9556  1.6299 -0.0002
  976SOL    HW3 3935   2.706   3.356   3.328  2.2188 -1.4703  0.4228
  976SOL    MW4 3936   2.686   3.342   3.412  0.2987  0.3839  0.3223
  977SOL     OW 3937   2.402   3.293   0.763 -0.2458  0.1959  0.5568
  977SOL    HW2 3938   2.446   3.367   0.719 -2.6301  0.5117 -1.3903
  977SOL    HW3 3939   2.316   3.327   0.787 -0.9945 -1.6321  0.5539
  977SOL    MW4 3940   2.397   3.308   0.760 -0.6591 -0.0036  0.2996
  978SOL     OW 3941   0.364   0.511   2.757 -0.3026 -0.5657  0.1304
  978SOL    HW2 3942   0.453   0.523   2.725  0.0893  0.5180  1.5263
  978SOL    HW3 3943   0.346   0.418   2.746  0.7941 -0.6883 -0.6693
  978SOL    MW4 3944   0.373   0.500   2.752 -0.1062 -0.4389  0.2090
  979SOL     OW 3945   3.153   2.939   2.536 -0.1669 -0.3070  0.2167
  979SOL    HW2 3946   3.114   2.981   2.460  0.5673  0.3777  0.2138
  979SOL    HW3 3947   3.206   3.008   2.577  0.5293 -1.0496  0.5765
  979SOL    MW4 3948   3.155   2.954   2.532  0.0219 -0.3146  0.2638
  980SOL     OW 3949   0.780   4.018   2.249 -0.4531  0.2524 -0.3954
  980SOL    HW2 3950   0.802   3.963   2.174  1.2014 -0.1598  0.3812
  980SOL    HW3 3951   0.753   3.956   2.317  2.9086  0.2492  0.9950
  980SOL    MW4 3952   0.779   4.003   2.248  0.2087  0.1976 -0.1095
  981SOL     OW 3953   3.913   3.761   3.015  0.0356 -0.5945  0.3373
  981SOL    HW2 3954   3.915   3.730   2.924 -1.6865 -1.4371  0.5784
  981SOL    HW3 3955   3.855   3.699   3.060 -1.2062  1.3452  1.4407
  981SOL    MW4 3956   3.906   3.748   3.009 -0.3555 -0.4498  0.5147
  982SOL     OW 3957   1.169   0.687   0.213 -0.3607 -0.2827  0.0105
  982SOL    HW2 3958   1.154   0.710   0.305  1.2738  1.6438 -0.1628
  982SOL    HW3 3959   1.216   0.763   0.177  1.8543 -2.3454 -1.6024
  982SOL    MW4 3960   1.173   0.700   0.221  0.1472 -0.3007 -0.2252
  983SOL     OW 3961   1.759   3.364   1.809 -0.4103 -0.6373  0.1003
  983SOL    HW2 3962   1.691   3.331   1.867 -0.3568  0.6765  0.9487
  983SOL    HW3 3963   1.712   3.413   1.742 -0.4538 -1.9246 -0.8267
  983SOL    MW4 3964   1.744   3.366   1.808 -0.4090 -0.6338  0.0899
  984SOL     OW 3965   4.471   4.317   2.796  0.2506  0.4150 -0.5173
  984SOL    HW2 3966   4.492   4.390   2.853  0.1637  0.2797 -0.3114
  984SOL    HW3 3967   4.553   4.266   2.791 -0.0700 -0.1973  0.4124
  984SOL    MW4 3968   4.485   4.320   2.803  0.1968  0.3164 -0.3674
  985SOL     OW 3969   0.807   4.186   0.717 -0.1744 -0.1868  0.0008
  985SOL    HW2 3970   0.725   4.179   0.668  1.3578 -0.2604 -2.6639
  985SOL    HW3 3971   0.847   4.268   0.686 -0.1415  0.9004  2.7559
  985SOL    MW4 3972   0.802   4.196   0.706  0.0321 -0.0530  0.0128
  986SOL     OW 3973   1.201   0.860   3.383 -0.0092 -0.0846  0.2478
  986SOL    HW2 3974   1.207   0.925   3.312 -2.5771 -0.4300 -0.3133
  986SOL    HW3 3975   1.149   0.789   3.347 -1.4132 -0.2502  2.4751
  986SOL    MW4 3976   1.195   0.859   3.369 -0.5332 -0.1520  0.4676
  987SOL     OW 3977   4.452   0.591   2.122  0.1251 -0.0220  0.5877
  987SOL    HW2 3978   4.438   0.685   2.112  0.5675  0.1880  1.9018
  987SOL    HW3 3979   4.369   0.557   2.155 -0.3237 -0.2409 -0.7287
  987SOL    MW4 3980   4.439   0.599   2.125  0.1243 -0.0231  0.5874
  988SOL     OW 3981   2.661   3.433   1.731  0.1076  0.4036 -0.4610
  988SOL    HW2 3982   2.725   3.389   1.675  0.0946  1.0439 -0.9881
  988SOL    HW3 3983   2.632   3.366   1.792  0.0708 -0.3183 -1.2689
  988SOL    MW4 3984   2.666   3.418   1.732  0.1010  0.3928 -0.6371
  989SOL     OW 3985   1.223   3.215   4.595 -0.3504 -0.1420  0.0671
  989SOL    HW2 3986   1.203   3.289   4.539  1.7185 -0.3108 -0.9314
  989SOL    HW3 3987   1.229   3.252   4.683  0.6736  0.8827 -0.4266
  989SOL    MW4 3988   1.221   3.229   4.600  0.0577 -0.0291 -0.1298
  990SOL     OW 3989   2.564   3.590   1.171  0.8573 -0.7669 -0.0992
  990SOL    HW2 3990   2.632   3.533   1.135  0.8923 -0.8086  0.0332
  990SOL    HW3 3991   2.544   3.553   1.257  0.5898 -0.8181 -0.1813
  990SOL    MW4 3992   2.570   3.577   1.178  0.8267 -0.7792 -0.0925
  991SOL     OW 3993   2.612   3.007   3.738  0.1898 -0.2311 -0.5671
  991SOL    HW2 3994   2.623   2.915   3.714  0.9690 -0.3472  0.2225
  991SOL    HW3 3995   2.692   3.030   3.784 -0.7397  0.3370  0.8239
  991SOL    MW4 3996   2.624   2.998   3.741  0.1700 -0.1715 -0.2794
  992SOL     OW 3997   2.536   4.065   2.805 -0.0184  0.2956 -0.0760
  992SOL    HW2 3998   2.600   4.082   2.874 -0.4840  2.4072 -0.1208
  992SOL    HW3 3999   2.451   4.067   2.850 -0.1423 -1.1639 -0.2371
  992SOL    MW4 4000   2.533   4.068   2.820 -0.0962  0.3816 -0.1031
  993SOL     OW 4001   2.567   2.035   4.495 -0.7003  0.0124  0.3010
  993SOL    HW2 4002   2.492   1.977   4.498 -0.4695 -0.2815  0.4111
  993SOL    HW3 4003   2.643   1.978   4.506 -0.3449  0.0660 -1.7224
  993SOL    MW4 4004   2.567   2.020   4.497 -0.6230 -0.0193  0.0486
  994SOL     OW 4005   2.747   4.516   2.296 -0.4425  0.0603 -0.2200
  994SOL    HW2 4006   2.674   4.571   2.325 -1.2179 -1.4534  0.7792
  994SOL    HW3 4007   2.752   4.447   2.362 -0.2891 -1.7593 -2.0993
  994SOL    MW4 4008   2.738   4.514   2.309 -0.5246 -0.3795 -0.3361
  995SOL     OW 4009   1.348   1.851   0.426 -0.1592 -0.3898 -0.4264
  995SOL    HW2 4010   1.312   1.938   0.409  0.6556 -0.1906 -1.1878
  995SOL    HW3 4011   1.316   1.828   0.513 -0.9161  0.3953 -0.4892
  995SOL    MW4 4012   1.339   1.859   0.435 -0.1515 -0.2600 -0.5351
  996SOL     OW 4013   1.516   0.200   3.624 -0.3911 -0.4826 -0.0704
  996SOL    HW2 4014   1.483   0.222   3.711  4.1256 -2.1152  2.2610
  996SOL    HW3 4015   1.548   0.283   3.588 -0.9774 -0.0412  0.4219
  996SOL    MW4 4016   1.516   0.214   3.631  0.1275 -0.6397  0.3021
  997SOL     OW 4017   1.711   0.536   3.682  0.1209 -0.6117  0.2728
  997SOL    HW2 4018   1.650   0.575   3.745 -0.0760  0.9263 -0.8363
  997SOL    HW3 4019   1.758   0.469   3.732 -0.1539  0.4655  2.0169
  997SOL    MW4 4020   1.710   0.533   3.697  0.0587 -0.2667  0.3566
  998SOL     OW 4021   3.147   1.856   2.198  0.0454  0.0679  0.2585
  998SOL    HW2 4022   3.161   1.915   2.124  0.3008  0.1016  0.3344
  998SOL    HW3 4023   3.078   1.898   2.250  0.3692  0.4029  0.4221
  998SOL    MW4 4024   3.140   1.869   2.195  0.1218  0.1165  0.2901
  999SOL     OW 4025   2.226   2.277   2.032  0.1757 -0.7595  0.2324
  999SOL    HW2 4026   2.187   2.195   2.063  1.3366 -1.6289 -0.5467
  999SOL    HW3 4027   2.155   2.341   2.036 -1.5972 -2.4931 -1.9636
  999SOL    MW4 4028   2.212   2.274   2.037  0.0950 -1.1029 -0.1601
 1000SOL     OW 4029   1.491   1.842   3.353  0.0684 -0.5436 -0.5394
 1000SOL    HW2 4030   1.522   1.844   3.262 -0.8601 -0.7141 -0.8739
 1000SOL    HW3 4031   1.478   1.749   3.371 -1.6291 -0.4106 -0.9156
 1000SOL    MW4 4032   1.493   1.830   3.343 -0.2781 -0.5485 -0.6332
 1001SOL     OW 4033   4.145   1.372   1.605  0.2203 -0.1816 -0.4431
 1001SOL    HW2 4034   4.179   1.360   1.516 -1.4044 -0.3369 -1.0686
 1001SOL    HW3 4035   4.213   1.336   1.662  0.8694 -0.9365 -1.6747
 1001SOL    MW4 4036   4.158   1.366   1.601  0.0916 -0.3017 -0.6881
 1002SOL     OW 4037   2.782   3.388   3.147 -0.1865  0.6951  0.1449
 1002SOL    HW2 4038   2.876   3.391   3.130 -0.0441  2.0572  1.1381
 1002SOL    HW3 4039   2.756   3.480   3.158 -1.5688  0.3129  0.2011
 1002SOL    MW4 4040   2.791   3.401   3.146 -0.3501  0.8244  0.2834
 1003SOL     OW 4041   2.097   1.037   2.005 -0.3999 -0.4558 -0.3475
 1003SOL    HW2 4042   2.078   0.951   2.042  0.2293 -0.9219 -1.0943
 1003SOL    HW3 4043   2.136   1.086   2.077 -0.0635 -1.0461 -0.1257
 1003SOL    MW4 4044   2.100   1.033   2.019 -0.2725 -0.5952 -0.4167
 1004SOL     OW 4045   0.140   1.499   2.793  0.0491 -0.4136 -0.4935
 1004SOL    HW2 4046   0.156   1.486   2.700 -0.0365  0.3236 -0.6161
 1004SOL    HW3 4047   0.077   1.431   2.818  0.4590 -0.9268 -0.8590
 1004SOL    MW4 4048   0.134   1.488   2.784  0.0919 -0.3840 -0.5579
 1005SOL     OW 4049   2.887   3.869   4.145  0.4121  0.1787 -0.5768
 1005SOL    HW2 4050   2.797   3.883   4.174  0.2247 -0.4773 -0.8370
 1005SOL    HW3 4051   2.939   3.928   4.199  0.2735 -2.1132  2.1820
 1005SOL    MW4 4052   2.882   3.879   4.156  0.3691 -0.2102 -0.2472
 1006SOL     OW 4053   3.813   0.580   2.015 -0.4988 -0.0826  0.6515
 1006SOL    HW2 4054   3.787   0.529   1.939 -0.3024 -0.0879  0.5878
 1006SOL    HW3 4055   3.834   0.515   2.082 -1.1580 -0.0737  0.8756
 1006SOL    MW4 4056   3.812   0.565   2.014 -0.5599 -0.0821  0.6726
 1007SOL     OW 4057   2.347   1.778   0.757 -0.3471 -0.6260 -0.2999
 1007SOL    HW2 4058   2.306   1.695   0.732  0.6165 -1.4391  0.7911
 1007SOL    HW3 4059   2.289   1.813   0.825 -0.9030 -0.2530 -0.9518
 1007SOL    MW4 4060   2.334   1.772   0.763 -0.2933 -0.6840 -0.2420
 1008SOL     OW 4061   0.345   1.440   1.446  0.3088 -0.1333 -0.3742
 1008SOL    HW2 4062   0.267   1.452   1.499 -0.7348 -1.0164 -1.6591
 1008SOL    HW3 4063   0.341   1.348   1.418  1.3256  0.0578 -1.1976
 1008SOL    MW4 4064   0.334   1.429   1.449  0.3053 -0.2246 -0.6523
 1009SOL     OW 4065   2.263   2.196   1.556  0.5624  0.0231  0.0464
 1009SOL    HW2 4066   2.211   2.235   1.485 -0.4387  0.8321  1.2142
 1009SOL    HW3 4067   2.238   2.104   1.556 -0.1979  0.2237  0.0123
 1009SOL    MW4 4068   2.253   2.189   1.546  0.3300  0.1563  0.1960
 1010SOL     OW 4069   2.611   1.802   3.723  0.2152 -0.2598  0.0001
 1010SOL    HW2 4070   2.574   1.888   3.707  0.4476 -0.3570 -1.0984
 1010SOL    HW3 4071   2.669   1.814   3.798 -0.5732  0.2944  0.5296
 1010SOL    MW4 4072   2.614   1.815   3.731  0.1419 -0.1995 -0.0750
 1011SOL     OW 4073   2.759   3.385   1.078 -0.1980  0.3901  0.1952
 1011SOL    HW2 4074   2.791   3.414   1.164  0.2474  1.4268 -0.3171
 1011SOL    HW3 4075   2.832   3.399   1.019 -0.6711  0.1270 -0.4595
 1011SOL    MW4 4076   2.773   3.390   1.082 -0.2016  0.4922  0.0412
 1012SOL     OW 4077   2.883   0.425   1.795 -0.0227 -0.9200  0.1515
 1012SOL    HW2 4078   2.867   0.444   1.702  2.4093  2.0842  0.2717
 1012SOL    HW3 4079   2.843   0.498   1.842  1.0913 -1.0101  1.2750
 1012SOL    MW4 4080   2.876   0.437   1.789  0.4452 -0.5355  0.3156
 1013SOL     OW 4081   1.665   2.571   1.660 -0.5793  0.1406 -0.0383
 1013SOL    HW2 4082   1.645   2.568   1.566 -1.5312 -0.3218  0.1779
 1013SOL    HW3 4083   1.587   2.608   1.700 -0.2928  0.0496  0.6172
 1013SOL    MW4 4084   1.652   2.576   1.653 -0.6671  0.0676  0.0767
 1014SOL     OW 4085   4.014   1.834   2.315 -0.6067  0.0246  0.0201
 1014SOL    HW2 4086   4.058   1.749   2.306 -1.1420 -0.2618  0.0668
 1014SOL    HW3 4087   3.942   1.830   2.253 -0.3404  0.6390 -0.3265
 1014SOL    MW4 4088   4.010   1.822   2.306 -0.6422  0.0679 -0.0194
 1015SOL     OW 4089   3.883   3.713   2.746  0.2775 -0.2434 -0.3556
 1015SOL    HW2 4090   3.796   3.707   2.707  0.4262  0.1766 -0.7599
 1015SOL    HW3 4091   3.935   3.761   2.682  0.1746  1.6610  0.9402
 1015SOL    MW4 4092   3.879   3.718   2.733  0.2835  0.0633 -0.2380
 1016SOL     OW 4093   0.906   1.692   0.354  0.2165  0.2870  0.0903
 1016SOL    HW2 4094   0.967   1.630   0.313  0.2413 -1.7587  3.0793
 1016SOL    HW3 4095   0.822   1.673   0.312  0.5943 -0.5443 -0.3118
 1016SOL    MW4 4096   0.903   1.681   0.343  0.2696 -0.0926  0.4316
 1017SOL     OW 4097   0.647   4.525   1.016  0.1533  0.7247 -0.3088
 1017SOL    HW2 4098   0.704   4.560   0.947  0.4604 -0.1350 -0.5041
 1017SOL    HW3 4099   0.687   4.554   1.098  0.4816  0.7120 -0.4648
 1017SOL    MW4 4100   0.660   4.533   1.018  0.2371  0.6096 -0.3551
 1018SOL     OW 4101   0.598   2.236   3.026  0.0562 -0.4383  0.1529
 1018SOL    HW2 4102   0.670   2.284   3.066 -0.7237  0.9696 -0.0780
 1018SOL    HW3 4103   0.536   2.221   3.098  0.8642 -2.2295  0.4940
 1018SOL    MW4 4104   0.599   2.240   3.041  0.0599 -0.4889  0.1675
 1019SOL     OW 4105   0.895   2.017   3.196 -0.6137  0.2871  0.2969
 1019SOL    HW2 4106   0.909   1.969   3.114 -0.1694  0.4735  0.2606
 1019SOL    HW3 4107   0.800   2.020   3.206 -0.6423 -0.6808  0.3539
 1019SOL    MW4 4108   0.884   2.011   3.186 -0.5588  0.1840  0.2996
 1020SOL     OW 4109   2.842   1.491   1.317 -0.3378  0.4284  0.3521
 1020SOL    HW2 4110   2.753   1.522   1.300  0.1075  0.9111 -1.1803
 1020SOL    HW3 4111   2.871   1.543   1.393 -1.4928 -0.0361  1.1279
 1020SOL    MW4 4112   2.834   1.502   1.325 -0.4314  0.4308  0.2523
 1021SOL     OW 4113   0.021   4.354   2.090 -0.0488  0.4927  0.2876
 1021SOL    HW2 4114  -0.027   4.436   2.074 -2.0573 -0.2451  2.1960
 1021SOL    HW3 4115  -0.016   4.292   2.027  0.8679  0.8088 -0.5760
 1021SOL    MW4 4116   0.010   4.357   2.080 -0.1928  0.4371  0.4255
 1022SOL     OW 4117   3.687   3.684   1.522  0.1949 -0.1668 -0.4097
 1022SOL    HW2 4118   3.728   3.771   1.513  0.2646 -0.3745 -2.3456
 1022SOL    HW3 4119   3.761   3.624   1.525  0.1292 -0.2154  0.4244
 1022SOL    MW4 4120   3.703   3.688   1.521  0.1955 -0.2006 -0.5551
 1023SOL     OW 4121   2.375   2.768   4.002 -0.0948 -0.2301 -0.0829
 1023SOL    HW2 4122   2.345   2.853   3.968  0.0827 -0.0529  0.2002
 1023SOL    HW3 4123   2.470   2.769   3.990 -0.2875 -1.1344 -1.7445
 1023SOL    MW4 4124   2.383   2.780   3.996 -0.0968 -0.3260 -0.2648
 1024SOL     OW 4125   1.522   2.677   0.699 -0.7124  0.1235  0.3602
 1024SOL    HW2 4126   1.607   2.706   0.664 -1.9689  0.3422 -2.6189
 1024SOL    HW3 4127   1.521   2.583   0.685 -0.9622  0.1103  0.4676
 1024SOL    MW4 4128   1.533   2.668   0.693 -0.9111  0.1506 -0.0187
 1025SOL     OW 4129   3.634   4.344   2.899  0.2432 -0.2192 -0.4120
 1025SOL    HW2 4130   3.668   4.259   2.927 -0.3490 -0.3475 -0.0926
 1025SOL    HW3 4131   3.669   4.356   2.810  0.0668 -0.9374 -0.5777
 1025SOL    MW4 4132   3.643   4.334   2.891  0.1418 -0.3309 -0.3917
 1026SOL     OW 4133   3.145   1.618   3.257  0.1368 -0.2890  0.1515
 1026SOL    HW2 4134   3.202   1.627   3.181 -1.4624  0.1533 -1.0218
 1026SOL    HW3 4135   3.148   1.704   3.299 -0.2379 -0.0464 -0.3191
 1026SOL    MW4 4136   3.153   1.631   3.253 -0.1237 -0.1986 -0.0654
 1027SOL     OW 4137   2.204   3.447   1.126  0.1425  0.4739 -0.3985
 1027SOL    HW2 4138   2.274   3.394   1.165 -0.1971 -0.6948 -1.3582
 1027SOL    HW3 4139   2.231   3.537   1.142  1.2377  0.0231  0.3672
 1027SOL    MW4 4140   2.217   3.452   1.133  0.2422  0.2602 -0.4241
 1028SOL     OW 4141   0.770   0.028   3.889  0.2884  0.4619  0.4586
 1028SOL    HW2 4142   0.828  -0.035   3.931  1.8167  1.8734  0.5241
 1028SOL    HW3 4143   0.795   0.112   3.926 -0.2804  1.3751 -1.1676
 1028SOL    MW4 4144   0.781   0.031   3.899  0.4150  0.7686  0.2527
 1029SOL     OW 4145   1.122   3.961   4.129  0.5847 -0.3240  0.0328
 1029SOL    HW2 4146   1.202   3.913   4.154  1.0199  0.7335  0.7189
 1029SOL    HW3 4147   1.053   3.895   4.133  1.3401 -1.1323 -0.0206
 1029SOL    MW4 4148   1.124   3.946   4.133  0.7417 -0.2911  0.1163
 1030SOL     OW 4149   2.026   0.771   0.360 -0.3586  0.8113 -0.3765
 1030SOL    HW2 4150   2.039   0.780   0.266  1.3156  0.5596 -0.1939
 1030SOL    HW3 4151   2.077   0.693   0.383 -0.2306  1.2480  0.8299
 1030SOL    MW4 4152   2.035   0.762   0.351 -0.1208  0.8357 -0.1932
 1031SOL     OW 4153   1.528   2.420   3.223  0.4713  0.0053 -0.1355
 1031SOL    HW2 4154   1.562   2.452   3.139 -2.0474 -0.3718 -1.3523
 1031SOL    HW3 4155   1.592   2.353   3.250  1.1606 -0.0963 -1.9050
 1031SOL    MW4 4156   1.541   2.415   3.215  0.2299 -0.0579 -0.5295
 1032SOL     OW 4157   1.241   4.615   3.132 -0.5319  0.3641 -0.1480
 1032SOL    HW2 4158   1.270   4.530   3.098 -1.3285  0.0672 -0.1005
 1032SOL    HW3 4159   1.320   4.669   3.132  0.0496 -0.4775  0.1235
 1032SOL    MW4 4160   1.255   4.611   3.128 -0.5603  0.2139 -0.1059
 1033SOL     OW 4161   1.194   3.195   1.332  0.1866  0.2609 -0.1563
 1033SOL    HW2 4162   1.099   3.202   1.342  0.0741 -0.7484 -0.4744
 1033SOL    HW3 4163   1.217   3.265   1.271 -0.5867 -0.5967 -1.4457
 1033SOL    MW4 4164   1.185   3.205   1.326  0.0697  0.0146 -0.3684
 1034SOL     OW 4165   3.060   3.344   4.294  0.1221  0.0851 -0.3832
 1034SOL    HW2 4166   3.153   3.331   4.279  0.2041 -1.1161  1.0371
 1034SOL    HW3 4167   3.049   3.439   4.297  1.4816  0.2172  0.5345
 1034SOL    MW4 4168   3.071   3.355   4.292  0.3123 -0.0559 -0.0747
 1035SOL     OW 4169   0.232   0.425   3.857  0.2402  0.0749  0.0123
 1035SOL    HW2 4170   0.165   0.444   3.923  0.1609 -0.0515 -0.0305
 1035SOL    HW3 4171   0.214   0.486   3.786  1.1275  1.0874  0.6615
 1035SOL    MW4 4172   0.221   0.435   3.857  0.3468  0.1918  0.0923
 1036SOL     OW 4173   2.714   0.274   3.695  0.0733  0.2968 -0.1886
 1036SOL    HW2 4174   2.713   0.293   3.788  2.3505 -0.2286 -0.0143
 1036SOL    HW3 4175   2.677   0.186   3.687  2.1802 -0.6912  0.5329
 1036SOL    MW4 4176   2.709   0.265   3.706  0.6517  0.0971 -0.0704
 1037SOL     OW 4177   0.231   2.591   4.090 -0.2569  0.3596  0.0317
 1037SOL    HW2 4178   0.207   2.506   4.053 -0.1867 -0.2603  1.3632
 1037SOL    HW3 4179   0.317   2.609   4.054 -0.6373  0.2692 -0.9329
 1037SOL    MW4 4180   0.239   2.582   4.080 -0.2979  0.2659  0.0801
 1038SOL     OW 4181   1.601   1.177   0.968  0.0398 -0.4001 -0.0272
 1038SOL    HW2 4182   1.591   1.230   0.890 -3.5317 -2.2520 -0.9572
 1038SOL    HW3 4183   1.573   1.234   1.040  0.3530  0.3267 -0.4815
 1038SOL    MW4 4184   1.596   1.191   0.967 -0.3901 -0.5485 -0.2099
 1039SOL     OW 4185   2.021   2.924   1.259 -0.0979 -0.6464 -0.1219
 1039SOL    HW2 4186   2.113   2.938   1.235  0.0695 -0.0809  0.8039
 1039SOL    HW3 4187   2.018   2.944   1.353 -1.8137  2.5119 -0.7783
 1039SOL    MW4 4188   2.033   2.928   1.268 -0.3022 -0.1551 -0.0864
 1040SOL     OW 4189   4.412   4.494   2.529 -0.1616  0.6143  0.2463
 1040SOL    HW2 4190   4.483   4.553   2.504 -0.0174  0.8083  1.0706
 1040SOL    HW3 4191   4.444   4.450   2.608 -1.0286  0.8642  0.7495
 1040SOL    MW4 4192   4.426   4.496   2.536 -0.2569  0.6729  0.4215
 1041SOL     OW 4193   4.057   2.847   2.211  0.3174 -0.2514  0.6293
 1041SOL    HW2 4194   4.026   2.757   2.212 -0.4139 -0.0042  0.9245
 1041SOL    HW3 4195   4.009   2.888   2.140  0.0301  0.1145  1.0300
 1041SOL    MW4 4196   4.047   2.841   2.202  0.1830 -0.1705  0.7211
 1042SOL     OW 4197   1.478   1.853   2.029  0.0572 -0.1392 -0.2131
 1042SOL    HW2 4198   1.419   1.797   2.080  0.2016 -0.2212 -0.1380
 1042SOL    HW3 4199   1.557   1.801   2.016  0.2219  0.0755 -0.0749
 1042SOL    MW4 4200   1.480   1.839   2.034  0.0980 -0.1217 -0.1850
 1043SOL     OW 4201   2.648   4.443   3.573  0.3320  0.5048 -0.2342
 1043SOL    HW2 4202   2.601   4.360   3.577  0.5332  0.4052  0.0912
 1043SOL    HW3 4203   2.722   4.432   3.633  0.5068  0.8240 -0.3890
 1043SOL    MW4 4204   2.652   4.431   3.582  0.3816  0.5338 -0.2117
 1044SOL     OW 4205   1.193   2.831   2.025  0.0624  0.0322 -0.2816
 1044SOL    HW2 4206   1.124   2.856   2.086 -0.7758 -0.2297 -1.1016
 1044SOL    HW3 4207   1.192   2.901   1.959  1.4688  0.7150  0.3865
 1044SOL    MW4 4208   1.184   2.844   2.024  0.1374  0.0877 -0.3016
 1045SOL     OW 4209   2.036   4.389   2.639  0.3749 -0.6078 -0.3619
 1045SOL    HW2 4210   1.958   4.383   2.695 -0.6510 -0.7320 -1.7619
 1045SOL    HW3 4211   2.087   4.460   2.677 -0.6576 -0.2067  0.3114
 1045SOL    MW4 4212   2.032   4.397   2.652  0.1033 -0.5713 -0.4578
 1046SOL     OW 4213   2.330   1.873   2.404  0.2289  0.1113 -0.0618
 1046SOL    HW2 4214   2.405   1.845   2.457  0.7181  1.2603 -0.1394
 1046SOL    HW3 4215   2.290   1.791   2.374  0.1961 -0.5426  1.7144
 1046SOL    MW4 4216   2.335   1.858   2.407  0.2891  0.1766  0.1623
 1047SOL     OW 4217   1.510   3.534   1.983  0.2214  0.2562 -0.1823
 1047SOL    HW2 4218   1.540   3.531   1.892  2.3806 -1.2192  0.5208
 1047SOL    HW3 4219   1.591   3.547   2.033 -0.4652 -2.3796  1.7201
 1047SOL    MW4 4220   1.525   3.535   1.978  0.4157 -0.2862  0.1615
 1048SOL     OW 4221   2.924   2.697   4.293 -0.0892 -0.4754  0.4880
 1048SOL    HW2 4222   3.004   2.734   4.329  0.3917 -0.1352 -0.8699
 1048SOL    HW3 4223   2.853   2.741   4.340  0.4904  1.2288 -0.1987
 1048SOL    MW4 4224   2.925   2.708   4.304  0.0507 -0.2057  0.2182
 1049SOL     OW 4225   2.473   2.621   4.285  0.1352 -0.4444 -0.3882
 1049SOL    HW2 4226   2.537   2.679   4.245  1.8402 -1.9346  0.0760
 1049SOL    HW3 4227   2.406   2.679   4.322  0.9594  1.1150 -1.3198
 1049SOL    MW4 4228   2.472   2.636   4.284  0.4689 -0.4353 -0.4499
 1050SOL     OW 4229   2.297   2.114   2.571 -0.0815  0.2365  0.1376
 1050SOL    HW2 4230   2.379   2.158   2.550 -0.5254  1.4507  0.8729
 1050SOL    HW3 4231   2.293   2.040   2.511  1.6263  0.0740  0.2095
 1050SOL    MW4 4232   2.307   2.110   2.561  0.0853  0.3752  0.2441
 1051SOL     OW 4233   1.187   2.915   3.208  0.5361  0.6598  0.1086
 1051SOL    HW2 4234   1.162   2.997   3.253 -0.9926 -0.0358  0.5845
 1051SOL    HW3 4235   1.213   2.856   3.279  1.6474  0.7246 -0.2354
 1051SOL    MW4 4236   1.187   2.918   3.224  0.4810  0.5765  0.1260
 1052SOL     OW 4237   1.613   1.516   2.839 -0.1175 -0.0117 -0.0047
 1052SOL    HW2 4238   1.656   1.435   2.867 -0.4727  0.6546  2.5612
 1052SOL    HW3 4239   1.678   1.560   2.785  0.9453 -0.9033  0.5300
 1052SOL    MW4 4240   1.627   1.511   2.835 -0.0242 -0.0414  0.4044
 1053SOL     OW 4241   3.954   0.725   3.818 -0.0356 -0.1392  0.0413
 1053SOL    HW2 4242   3.972   0.709   3.726  0.5200  1.4020 -0.1310
 1053SOL    HW3 4243   3.951   0.638   3.858  0.8510 -0.7534 -1.2119
 1053SOL    MW4 4244   3.956   0.711   3.811  0.1547 -0.0169 -0.1468
 1054SOL     OW 4245   4.215   2.956   1.832  0.1292 -0.1675  0.0415
 1054SOL    HW2 4246   4.270   2.878   1.837  0.9015  0.2845 -1.1846
 1054SOL    HW3 4247   4.261   3.021   1.886  0.7105  0.1454 -0.8144
 1054SOL    MW4 4248   4.229   2.954   1.840  0.3078 -0.0666 -0.2332
 1055SOL     OW 4249   2.412   2.625   0.473  0.6434  0.4625 -0.2682
 1055SOL    HW2 4250   2.420   2.529   0.479 -1.0555  0.2724 -0.8493
 1055SOL    HW3 4251   2.478   2.651   0.409  1.6867 -0.2259  0.5101
 1055SOL    MW4 4252   2.421   2.616   0.466  0.5569  0.3466 -0.2422
 1056SOL     OW 4253   3.600   4.616   4.598 -0.0757  0.1783  0.1922
 1056SOL    HW2 4254   3.562   4.594   4.513  0.5439 -0.0671 -0.0203
 1056SOL    HW3 4255   3.532   4.667   4.642 -0.8289 -0.6400 -0.0086
 1056SOL    MW4 4256   3.586   4.620   4.593 -0.0933  0.0380  0.1377
 1057SOL     OW 4257   1.923   4.627   3.000  0.3003  0.3442  0.0693
 1057SOL    HW2 4258   1.907   4.717   2.972 -2.6244 -0.5641 -1.3761
 1057SOL    HW3 4259   1.993   4.596   2.942 -0.0462  1.0840 -0.7648
 1057SOL    MW4 4260   1.930   4.634   2.989 -0.1313  0.3219 -0.2315
 1058SOL     OW 4261   3.816   1.752   2.146  0.6167 -0.0263 -0.3118
 1058SOL    HW2 4262   3.728   1.786   2.130 -0.4524 -1.7802  1.5939
 1058SOL    HW3 4263   3.811   1.661   2.118  2.1779  0.1506 -1.2231
 1058SOL    MW4 4264   3.803   1.745   2.140  0.6816 -0.2344 -0.1806
 1059SOL     OW 4265   3.697   2.702   2.823 -0.1593 -0.0239 -0.2106
 1059SOL    HW2 4266   3.623   2.698   2.884  0.3477  0.0454  0.4196
 1059SOL    HW3 4267   3.765   2.750   2.871  1.1603 -2.1652  0.1411
 1059SOL    MW4 4268   3.696   2.708   2.837  0.0817 -0.2973 -0.0810
 1060SOL     OW 4269   1.351   1.507   3.629  0.6279 -0.1062 -0.1542
 1060SOL    HW2 4270   1.387   1.566   3.694  0.3324 -0.3060  0.1914
 1060SOL    HW3 4271   1.339   1.424   3.676 -1.3323  0.2642  0.0332
 1060SOL    MW4 4272   1.354   1.504   3.644  0.3303 -0.0837 -0.0839
 1061SOL     OW 4273   0.593   0.265   0.943 -0.9082 -0.0828  0.0103
 1061SOL    HW2 4274   0.539   0.278   1.020  0.1594  0.9069  0.6179
 1061SOL    HW3 4275   0.566   0.334   0.882 -0.4012  0.3751  0.2910
 1061SOL    MW4 4276   0.583   0.276   0.945 -0.7004  0.1082  0.1275
 1062SOL     OW 4277   0.633   4.333   1.379 -0.0502  0.5248 -0.0374
 1062SOL    HW2 4278   0.634   4.238   1.396  1.0773  0.6700  0.7728
 1062SOL    HW3 4279   0.659   4.372   1.463  3.7482  1.3516 -1.4704
 1062SOL    MW4 4280   0.637   4.325   1.393  0.5997  0.6530 -0.1196
 1063SOL     OW 4281   2.765   1.909   3.250  0.2125 -0.4827 -0.2382
 1063SOL    HW2 4282   2.700   1.980   3.247  0.2125 -0.4882 -0.3623
 1063SOL    HW3 4283   2.773   1.879   3.159  0.1318 -0.7160 -0.1677
 1063SOL    MW4 4284   2.758   1.915   3.238  0.2018 -0.5142 -0.2453
 1064SOL     OW 4285   2.076   3.668   2.936  0.1156  0.1158  0.3158
 1064SOL    HW2 4286   2.148   3.721   2.901  0.2415  0.2896  0.8267
 1064SOL    HW3 4287   2.049   3.613   2.863 -0.4784  1.3787 -0.4282
 1064SOL    MW4 4288   2.082   3.668   2.922  0.0538  0.3053  0.2851
 1065SOL     OW 4289   3.456   4.639   2.033 -0.1292  0.0069 -0.2632
 1065SOL    HW2 4290   3.499   4.647   2.119 -0.8426  1.4638 -0.0257
 1065SOL    HW3 4291   3.487   4.556   1.999 -1.8260 -1.8855  2.5473
 1065SOL    MW4 4292   3.466   4.629   2.040 -0.4472 -0.0506  0.1390
 1066SOL     OW 4293   4.453   0.098   1.495 -0.1873  0.1024 -0.2076
 1066SOL    HW2 4294   4.545   0.084   1.519 -0.4846 -0.0844  0.8734
 1066SOL    HW3 4295   4.437   0.035   1.424  0.0723 -1.0397  0.7238
 1066SOL    MW4 4296   4.463   0.088   1.489 -0.1923 -0.0729  0.0579
 1067SOL     OW 4297   0.812   0.825   3.299 -0.1846  0.1156 -0.2875
 1067SOL    HW2 4298   0.759   0.823   3.379 -1.0360  2.7739 -0.7462
 1067SOL    HW3 4299   0.755   0.791   3.231  0.2531 -1.3290  0.0460
 1067SOL    MW4 4300   0.798   0.820   3.301 -0.2392  0.2758 -0.3040
 1068SOL     OW 4301   0.124   0.239   2.794 -0.1954 -0.2739 -0.2167
 1068SOL    HW2 4302   0.207   0.227   2.748  0.8012  1.0897  1.1676
 1068SOL    HW3 4303   0.067   0.282   2.730  0.9623  0.9996 -0.4074
 1068SOL    MW4 4304   0.127   0.243   2.780  0.0889  0.0740 -0.0592
 1069SOL     OW 4305   1.794   3.587   1.331  0.2320 -0.6138  0.5775
 1069SOL    HW2 4306   1.738   3.522   1.372  0.3543 -1.6314 -0.8323
 1069SOL    HW3 4307   1.867   3.537   1.296 -0.4065  0.0527 -1.8103
 1069SOL    MW4 4308   1.796   3.572   1.332  0.1639 -0.6601  0.0765
 1070SOL     OW 4309   3.637   1.168   0.985  0.9276  0.0694  0.2169
 1070SOL    HW2 4310   3.601   1.245   0.942  1.2270 -0.5326 -1.1282
 1070SOL    HW3 4311   3.715   1.200   1.031  1.9959  0.2781 -1.6918
 1070SOL    MW4 4312   3.643   1.182   0.986  1.1081  0.0175 -0.2124
 1071SOL     OW 4313   2.657   2.093   0.847  0.3842 -0.1715  0.2432
 1071SOL    HW2 4314   2.660   2.186   0.825  0.2405 -0.2754 -0.2156
 1071SOL    HW3 4315   2.748   2.070   0.865  0.3350  0.2092  0.9845
 1071SOL    MW4 4316   2.669   2.102   0.847  0.3588 -0.1350  0.2804
 1072SOL     OW 4317   1.606   3.757   2.305 -0.4905  0.2718  0.3379
 1072SOL    HW2 4318   1.665   3.830   2.285  0.6565 -0.4965  0.8782
 1072SOL    HW3 4319   1.652   3.680   2.272 -0.6155 -0.4914  1.9099
 1072SOL    MW4 4320   1.620   3.757   2.298 -0.3557  0.0697  0.6166
 1073SOL     OW 4321   3.347   1.197   2.545 -0.2199 -0.2616 -0.0092
 1073SOL    HW2 4322   3.423   1.222   2.597  0.0034 -0.6846 -0.1307
 1073SOL    HW3 4323   3.272   1.230   2.595  0.0242 -0.1611  0.2908
 1073SOL    MW4 4324   3.347   1.204   2.559 -0.1582 -0.3041  0.0143
 1074SOL     OW 4325   2.804   3.158   2.200 -0.2129  0.3026  0.1092
 1074SOL    HW2 4326   2.825   3.250   2.182  2.1686  0.1302  1.8221
 1074SOL    HW3 4327   2.753   3.161   2.281  1.9099 -0.0254  1.4930
 1074SOL    MW4 4328   2.800   3.171   2.208  0.3814  0.2366  0.5178
 1075SOL     OW 4329   2.108   3.690   2.177 -0.1269  0.6055 -0.1410
 1075SOL    HW2 4330   2.175   3.668   2.112  0.3983  0.7875  0.3359
 1075SOL    HW3 4331   2.033   3.721   2.125 -0.3293 -0.8624 -0.7439
 1075SOL    MW4 4332   2.107   3.691   2.162 -0.0843  0.4358 -0.1576
 1076SOL     OW 4333   3.314   3.388   1.862 -0.1009  0.3640 -0.0564
 1076SOL    HW2 4334   3.350   3.452   1.923  2.6059 -0.6071 -0.5338
 1076SOL    HW3 4335   3.376   3.388   1.789 -0.7524 -1.8441 -0.6453
 1076SOL    MW4 4336   3.327   3.396   1.860  0.1702 -0.0554 -0.1971
 1077SOL     OW 4337   1.704   3.445   2.575 -0.0824  0.0180 -0.0156
 1077SOL    HW2 4338   1.623   3.483   2.609 -1.2678 -1.4036 -1.1642
 1077SOL    HW3 4339   1.726   3.376   2.638  0.3983  0.5956  0.4508
 1077SOL    MW4 4340   1.696   3.441   2.588 -0.1754 -0.0933 -0.1056
 1078SOL     OW 4341   3.242   4.592   1.766  0.8271  0.6377 -0.6347
 1078SOL    HW2 4342   3.307   4.653   1.732  0.5562  1.5125  0.3776
 1078SOL    HW3 4343   3.264   4.584   1.859 -0.4244  0.8192 -0.3207
 1078SOL    MW4 4344   3.254   4.599   1.774  0.6262  0.7770 -0.4597
 1079SOL     OW 4345   3.745   1.704   2.981  0.4401  0.2993  0.0538
 1079SOL    HW2 4346   3.728   1.653   3.060  1.1578 -0.5570 -0.3354
 1079SOL    HW3 4347   3.761   1.639   2.913 -0.8890  1.0106 -0.9753
 1079SOL    MW4 4348   3.745   1.689   2.982  0.3594  0.2802 -0.1333
 1080SOL     OW 4349   1.439   4.620   2.765  0.6226 -0.0815  0.4173
 1080SOL    HW2 4350   1.364   4.561   2.771  0.2407  0.3351 -0.2264
 1080SOL    HW3 4351   1.402   4.707   2.780  1.1116  0.0439  0.9240
 1080SOL    MW4 4352   1.424   4.624   2.768  0.6368 -0.0100  0.3993
 1081SOL     OW 4353   1.850   1.055   2.368 -0.2523 -0.3104  0.0869
 1081SOL    HW2 4354   1.791   1.124   2.399 -0.2122 -0.5823  0.7814
 1081SOL    HW3 4355   1.825   1.041   2.277 -1.8696 -1.0328  0.6163
 1081SOL    MW4 4356   1.839   1.062   2.360 -0.4604 -0.4416  0.2484
 1082SOL     OW 4357   0.525   4.348   1.980  0.9932 -0.5813 -0.2327
 1082SOL    HW2 4358   0.526   4.265   1.933 -0.5571  0.2977 -1.8855
 1082SOL    HW3 4359   0.434   4.357   2.010  1.3606  0.1205  0.7038
 1082SOL    MW4 4360   0.513   4.338   1.978  0.8371 -0.3727 -0.3272
 1083SOL     OW 4361   1.715   0.001   2.721  0.4334 -0.3756 -0.2843
 1083SOL    HW2 4362   1.764  -0.073   2.756  0.1420 -0.0567  0.8172
 1083SOL    HW3 4363   1.623  -0.024   2.731  0.3013  0.5822  1.1489
 1083SOL    MW4 4364   1.709  -0.012   2.727  0.3776 -0.2071  0.0501
 1084SOL     OW 4365   3.709   1.884   1.641  0.3586 -0.4720 -0.0280
 1084SOL    HW2 4366   3.652   1.825   1.592 -0.5722  0.3443  0.0528
 1084SOL    HW3 4367   3.738   1.833   1.716 -1.9403 -0.2382  1.0552
 1084SOL    MW4 4368   3.706   1.870   1.644 -0.0675 -0.3334  0.1256
 1085SOL     OW 4369   0.962   3.290   0.857 -0.2683 -0.3332 -0.1140
 1085SOL    HW2 4370   1.045   3.334   0.837 -0.9501 -0.1581 -2.7203
 1085SOL    HW3 4371   0.987   3.214   0.910  1.7329 -1.2269 -2.2785
 1085SOL    MW4 4372   0.976   3.286   0.862 -0.0942 -0.4280 -0.7434
 1086SOL     OW 4373   2.620   1.854   4.114 -0.2004  0.0034 -0.1712
 1086SOL    HW2 4374   2.529   1.864   4.143  0.1722  0.8688  0.7377
 1086SOL    HW3 4375   2.664   1.932   4.148  1.3905 -1.5703  1.4581
 1086SOL    MW4 4376   2.614   1.866   4.122  0.0586 -0.0901  0.1637
 1087SOL     OW 4377   2.234   4.196   2.538 -0.1928 -0.2762  0.3478
 1087SOL    HW2 4378   2.264   4.215   2.450  1.4630  0.8470  1.1356
 1087SOL    HW3 4379   2.171   4.265   2.557  0.1451  0.0214  0.3867
 1087SOL    MW4 4380   2.229   4.208   2.529  0.0703 -0.0887  0.4569
 1088SOL     OW 4381   0.650   0.099   0.620  0.0231 -0.1186  0.2990
 1088SOL    HW2 4382   0.572   0.062   0.661 -0.4409 -0.7720 -1.1411
 1088SOL    HW3 4383   0.646   0.192   0.639 -1.0129 -0.1793  0.3823
 1088SOL    MW4 4384   0.639   0.106   0.628 -0.1748 -0.2128  0.1200
 1089SOL     OW 4385   1.340   0.578   2.988 -0.3421  0.1858  0.1781
 1089SOL    HW2 4386   1.322   0.485   3.005 -0.1501  0.1386  0.1266
 1089SOL    HW3 4387   1.382   0.610   3.068  0.0868  0.0933 -0.0115
 1089SOL    MW4 4388   1.343   0.570   3.001 -0.2601  0.1674  0.1463
 1090SOL     OW 4389   3.882   2.017   4.067  0.6927 -0.0870  0.0900
 1090SOL    HW2 4390   3.819   1.989   4.001 -1.9309  2.3451  1.4547
 1090SOL    HW3 4391   3.967   1.992   4.031 -0.8505 -1.2910 -2.9068
 1090SOL    MW4 4392   3.885   2.010   4.054  0.1430  0.0750 -0.1253
 1091SOL     OW 4393   0.545   0.532   0.476  0.4235  0.1306  0.3666
 1091SOL    HW2 4394   0.538   0.526   0.571  1.3102  0.3614  0.4558
 1091SOL    HW3 4395   0.628   0.490   0.456  0.7062  0.9433 -0.2031
 1091SOL    MW4 4396   0.555   0.526   0.486  0.5778  0.2683  0.3032
 1092SOL     OW 4397   0.281   1.710   2.225  0.7580 -0.0560  0.2070
 1092SOL    HW2 4398   0.318   1.730   2.311  1.2723 -0.0226 -0.0225
 1092SOL    HW3 4399   0.300   1.617   2.212  0.4679 -0.1185  0.2361
 1092SOL    MW4 4400   0.288   1.700   2.235  0.7876 -0.0598  0.1805
 1093SOL     OW 4401   2.522   1.952   1.043 -0.2688 -0.7248  0.4581
 1093SOL    HW2 4402   2.538   1.859   1.025  0.3710 -0.8048  1.4000
 1093SOL    HW3 4403   2.561   1.998   0.969 -1.4136 -1.2452 -0.4858
 1093SOL    MW4 4404   2.529   1.946   1.031 -0.3355 -0.8040  0.4579
 1094SOL     OW 4405   0.145   0.267   1.186 -0.2633  0.0905 -0.9204
 1094SOL    HW2 4406   0.087   0.300   1.254  0.9433 -0.6901  0.5219
 1094SOL    HW3 4407   0.118   0.177   1.172 -0.6445  0.3115 -1.6394
 1094SOL    MW4 4408   0.134   0.260   1.193 -0.1544  0.0167 -0.8250
 1095SOL     OW 4409   3.495   0.250   1.185 -0.3311  0.0847 -0.1080
 1095SOL    HW2 4410   3.556   0.279   1.253  0.0564  0.8067 -0.7517
 1095SOL    HW3 4411   3.543   0.261   1.103 -2.0927  2.9667 -0.8561
 1095SOL    MW4 4412   3.509   0.255   1.183 -0.5124  0.5602 -0.2917
 1096SOL     OW 4413   0.636   2.015   3.312  0.2713  0.1843 -0.0978
 1096SOL    HW2 4414   0.680   2.080   3.367  0.5877  1.0236 -1.3226
 1096SOL    HW3 4415   0.554   2.058   3.287  0.7313  0.3668 -1.3684
 1096SOL    MW4 4416   0.631   2.030   3.316  0.3738  0.3191 -0.4270
 1097SOL     OW 4417   2.086   1.495   3.879 -0.1164 -0.4961  0.4276
 1097SOL    HW2 4418   2.033   1.470   3.954  0.5403 -0.1710  1.0102
 1097SOL    HW3 4419   2.160   1.542   3.917 -0.7515  1.3499 -0.5597
 1097SOL    MW4 4420   2.089   1.498   3.894 -0.1136 -0.2097  0.3742
 1098SOL     OW 4421   1.609   1.781   0.439 -0.1089 -0.5472 -0.0745
 1098SOL    HW2 4422   1.516   1.802   0.428 -0.1443  0.0526  1.2942
 1098SOL    HW3 4423   1.651   1.827   0.367 -0.7549  0.1560 -0.0185
 1098SOL    MW4 4424   1.602   1.790   0.428 -0.1988 -0.3753  0.1134
 1099SOL     OW 4425   4.241   4.173   4.049 -0.5240  0.0032  0.0296
 1099SOL    HW2 4426   4.285   4.112   3.990 -3.7265 -0.5888 -1.8739
 1099SOL    HW3 4427   4.290   4.254   4.042  1.0381 -1.0198 -0.9736
 1099SOL    MW4 4428   4.253   4.175   4.041 -0.7405 -0.2099 -0.3539
 1100SOL     OW 4429   2.246   2.507   2.628 -0.1218 -0.0182  0.4207
 1100SOL    HW2 4430   2.234   2.446   2.555  1.9208 -0.4609  0.4451
 1100SOL    HW3 4431   2.305   2.574   2.594  0.9100 -0.2693  1.6854
 1100SOL    MW4 4432   2.252   2.507   2.614  0.2838 -0.1097  0.5908
 1101SOL     OW 4433   3.709   0.263   0.478  0.8121  0.1816 -0.1689
 1101SOL    HW2 4434   3.703   0.297   0.567  1.1805  0.8109 -0.3834
 1101SOL    HW3 4435   3.644   0.192   0.475 -0.9497  1.7724 -0.1436
 1101SOL    MW4 4436   3.700   0.258   0.489  0.6282  0.4745 -0.1939
 1102SOL     OW 4437   2.375   2.410   2.235  0.2273  0.3685  0.0327
 1102SOL    HW2 4438   2.350   2.368   2.152  1.5051 -1.2007  0.4215
 1102SOL    HW3 4439   2.420   2.341   2.284 -1.8478  0.8032  2.6967
 1102SOL    MW4 4440   2.377   2.395   2.231  0.1221  0.2188  0.4355
 1103SOL     OW 4441   0.383   3.311   1.793  0.6673  0.0586  0.3234
 1103SOL    HW2 4442   0.338   3.287   1.873  0.2557 -1.4984 -0.3643
 1103SOL    HW3 4443   0.390   3.230   1.743  0.8039  1.0217 -1.2772
 1103SOL    MW4 4444   0.378   3.297   1.797  0.6310 -0.0198  0.0215
 1104SOL     OW 4445   2.000   3.432   3.299  0.0578 -0.2058 -0.0220
 1104SOL    HW2 4446   1.962   3.497   3.357  1.6599  0.2101  0.5830
 1104SOL    HW3 4447   2.070   3.478   3.253 -0.0416 -1.0015 -0.9978
 1104SOL    MW4 4448   2.004   3.446   3.300  0.2561 -0.2559 -0.0709
 1105SOL     OW 4449   0.129   2.922   2.004  0.1874  0.1289  0.3760
 1105SOL    HW2 4450   0.171   2.909   1.919  0.8118  1.1600  0.5242
 1105SOL    HW3 4451   0.043   2.958   1.983 -0.8455 -2.3893  0.0485
 1105SOL    MW4 4452   0.123   2.925   1.990  0.1335 -0.0673  0.3523
 1106SOL     OW 4453   1.423   0.832   2.314  0.5966 -0.1391 -0.0520
 1106SOL    HW2 4454   1.388   0.915   2.348  1.2307  0.7260 -1.4923
 1106SOL    HW3 4455   1.465   0.791   2.390 -0.5599  0.3974  0.8968
 1106SOL    MW4 4456   1.424   0.838   2.329  0.5276  0.0458 -0.1169
 1107SOL     OW 4457   3.675   2.609   1.674 -0.8039  0.0159 -0.0266
 1107SOL    HW2 4458   3.621   2.623   1.752  0.5751 -0.7175  1.0909
 1107SOL    HW3 4459   3.717   2.693   1.658  1.6229 -0.7253  2.1486
 1107SOL    MW4 4460   3.673   2.622   1.682 -0.3018 -0.1786  0.4078
 1108SOL     OW 4461   1.194   2.334   1.064  0.3748 -0.0856 -0.4575
 1108SOL    HW2 4462   1.137   2.357   1.138 -1.3090  0.3655 -1.8634
 1108SOL    HW3 4463   1.207   2.239   1.072 -0.5797 -0.1912 -0.1382
 1108SOL    MW4 4464   1.188   2.325   1.075  0.0267 -0.0400 -0.6008
 1109SOL     OW 4465   0.322   3.673   0.909 -0.4077 -0.1515 -0.3947
 1109SOL    HW2 4466   0.331   3.595   0.962  0.3908  0.4177  0.3191
 1109SOL    HW3 4467   0.411   3.709   0.903 -0.8843  1.0996 -0.0960
 1109SOL    MW4 4468   0.335   3.668   0.915 -0.3653  0.0887 -0.2611
 1110SOL     OW 4469   0.309   2.580   2.279 -0.4990  0.3218  0.0050
 1110SOL    HW2 4470   0.287   2.488   2.295  0.6675 -0.1729 -1.1211
 1110SOL    HW3 4471   0.382   2.598   2.338  0.2706  0.0734 -0.8650
 1110SOL    MW4 4472   0.316   2.570   2.289 -0.2435  0.2238 -0.2583
 1111SOL     OW 4473   0.235   4.541   4.303 -0.0453  0.1756  0.4444
 1111SOL    HW2 4474   0.226   4.488   4.224  2.2674 -0.0063  0.2531
 1111SOL    HW3 4475   0.157   4.522   4.354 -0.5645 -1.3256 -0.8583
 1111SOL    MW4 4476   0.224   4.531   4.300  0.1913 -0.0465  0.2473
 1112SOL     OW 4477   4.268   2.171   0.927 -0.2931  0.0181 -0.3009
 1112SOL    HW2 4478   4.275   2.077   0.916  0.3188  0.1051 -0.7116
 1112SOL    HW3 4479   4.350   2.205   0.890  0.6848  0.4976  2.2038
 1112SOL    MW4 4480   4.280   2.163   0.921 -0.0834  0.0928 -0.0246
 1113SOL     OW 4481   2.602   0.973   3.305 -0.1754  0.4976 -0.4196
 1113SOL    HW2 4482   2.593   1.041   3.239  0.2186  1.2516  0.2862
 1113SOL    HW3 4483   2.643   1.017   3.379  1.5874 -0.8773 -0.5395
 1113SOL    MW4 4484   2.607   0.988   3.306  0.1091  0.4156 -0.3423
 1114SOL     OW 4485   2.283   1.626   4.036  0.3325 -0.2195  0.4709
 1114SOL    HW2 4486   2.274   1.683   4.112 -1.3721  0.6684 -0.3839
 1114SOL    HW3 4487   2.281   1.537   4.073 -2.2672  0.1552  1.3391
 1114SOL    MW4 4488   2.282   1.622   4.051 -0.2354 -0.0529  0.4727
 1115SOL     OW 4489   3.143   3.825   4.476 -0.7595  0.2555 -0.0048
 1115SOL    HW2 4490   3.156   3.760   4.407 -0.7961  0.3220 -0.0744
 1115SOL    HW3 4491   3.056   3.806   4.510 -1.1778  0.9077 -0.7061
 1115SOL    MW4 4492   3.133   3.814   4.472 -0.8195  0.3503 -0.1065
 1116SOL     OW 4493   2.046   4.556   1.456  0.3833  0.4632 -0.1628
 1116SOL    HW2 4494   1.990   4.573   1.380 -1.1556  1.7508  1.2320
 1116SOL    HW3 4495   2.116   4.621   1.450  0.4541  0.3438 -0.6538
 1116SOL    MW4 4496   2.048   4.566   1.445  0.1896  0.6173 -0.0435
 1117SOL     OW 4497   0.689   0.694   3.082 -0.4865  0.0719 -0.4815
 1117SOL    HW2 4498   0.706   0.765   3.021  0.6352  0.8775  0.7213
 1117SOL    HW3 4499   0.594   0.688   3.088 -0.6064  2.4371  0.4656
 1117SOL    MW4 4500   0.679   0.703   3.075 -0.3543  0.4903 -0.1979
 1118SOL     OW 4501   1.783   2.196   4.360  0.2269 -0.4740 -0.1453
 1118SOL    HW2 4502   1.790   2.291   4.351  0.0727 -0.6093 -1.9424
 1118SOL    HW3 4503   1.870   2.168   4.389  0.3795  0.1842  0.0353
 1118SOL    MW4 4504   1.796   2.205   4.362  0.2267 -0.4050 -0.3585
 1119SOL     OW 4505   3.464   2.917   4.070  0.0289  0.1952  0.3756
 1119SOL    HW2 4506   3.382   2.876   4.043 -0.3679 -0.3610  2.3603
 1119SOL    HW3 4507   3.498   2.861   4.139  2.4252  0.0681 -0.8239
 1119SOL    MW4 4508   3.458   2.904   4.075  0.2927  0.1051  0.4792
 1120SOL     OW 4509   0.914   0.637   0.676  0.0588 -0.2311 -0.7207
 1120SOL    HW2 4510   0.962   0.641   0.759  1.4628  0.7891 -1.5413
 1120SOL    HW3 4511   0.833   0.684   0.694 -0.1011 -0.8965  0.3578
 1120SOL    MW4 4512   0.910   0.644   0.689  0.2230 -0.1843 -0.6867
 1121SOL     OW 4513   2.620   2.144   3.215 -0.2736  0.0216  0.4411
 1121SOL    HW2 4514   2.541   2.093   3.194  0.5410 -0.6552 -1.0791
 1121SOL    HW3 4515   2.631   2.203   3.141  1.5258 -0.9800 -0.1081
 1121SOL    MW4 4516   2.611   2.145   3.203  0.0713 -0.1999  0.1681
 1122SOL     OW 4517   0.387   2.322   0.603 -0.1924  0.3007  0.2439
 1122SOL    HW2 4518   0.347   2.398   0.560 -0.4856  0.0019 -0.0198
 1122SOL    HW3 4519   0.354   2.326   0.693 -0.0954  0.5671  0.2666
 1122SOL    MW4 4520   0.377   2.332   0.609 -0.2183  0.2964  0.2121
 1123SOL     OW 4521   2.110   2.049   0.933 -0.6842 -0.0571 -0.1450
 1123SOL    HW2 4522   2.185   2.071   0.989  0.6047 -0.0565 -1.8234
 1123SOL    HW3 4523   2.079   1.965   0.968 -0.3507  0.2943  1.0222
 1123SOL    MW4 4524   2.116   2.041   0.945 -0.4701 -0.0107 -0.2125
 1124SOL     OW 4525   0.814   2.429   3.135  1.2297 -0.5078  0.1861
 1124SOL    HW2 4526   0.866   2.401   3.211  1.8783 -0.8632 -0.3914
 1124SOL    HW3 4527   0.872   2.487   3.086  0.5824  0.2542  0.3036
 1124SOL    MW4 4528   0.828   2.433   3.139  1.2299 -0.4541  0.1254
 1125SOL     OW 4529   1.867   3.870   3.947  0.0039  0.1046 -0.6401
 1125SOL    HW2 4530   1.887   3.958   3.916 -0.7115  0.4784 -0.0790
 1125SOL    HW3 4531   1.948   3.821   3.936  0.2947  0.7331 -1.3157
 1125SOL    MW4 4532   1.880   3.876   3.942 -0.0521  0.2369 -0.6552
 1126SOL     OW 4533   0.638   3.610   4.203  0.0658  0.4391 -0.4196
 1126SOL    HW2 4534   0.580   3.686   4.196 -1.0740 -0.3269  0.4260
 1126SOL    HW3 4535   0.637   3.588   4.296  1.3579  0.1126 -0.4702
 1126SOL    MW4 4536   0.630   3.617   4.214  0.0859  0.2949 -0.3147
 1127SOL     OW 4537   0.807   4.619   0.815 -0.1217 -0.7948  0.3795
 1127SOL    HW2 4538   0.750   4.673   0.759 -1.2307 -1.3861  0.9203
 1127SOL    HW3 4539   0.857   4.566   0.753 -1.9013 -2.0145 -0.0705
 1127SOL    MW4 4540   0.806   4.620   0.799 -0.5028 -1.0337  0.3915
 1128SOL     OW 4541   3.220   2.722   4.300 -0.4058  0.3717 -0.2706
 1128SOL    HW2 4542   3.254   2.634   4.282 -0.8456  0.6683 -2.7893
 1128SOL    HW3 4543   3.297   2.772   4.327 -0.1877 -0.8218  1.3953
 1128SOL    MW4 4544   3.235   2.717   4.301 -0.4350  0.2534 -0.3831
 1129SOL     OW 4545   4.280   4.105   2.866  0.5818 -0.0516  0.0055
 1129SOL    HW2 4546   4.276   4.089   2.960 -0.0946  0.0955  0.0042
 1129SOL    HW3 4547   4.335   4.183   2.857  1.0835 -0.3780  0.2381
 1129SOL    MW4 4548   4.287   4.113   2.877  0.5587 -0.0752  0.0360
 1130SOL     OW 4549   0.286   2.194   4.282 -0.2911  0.4216  0.2219
 1130SOL    HW2 4550   0.363   2.249   4.296  1.6308 -2.6835  2.5928
 1130SOL    HW3 4551   0.218   2.233   4.336  0.1117  2.1735 -0.4957
 1130SOL    MW4 4552   0.287   2.206   4.291  0.0156  0.2430  0.4400
 1131SOL     OW 4553   2.629   1.589   3.336  0.3068  0.1889  0.6464
 1131SOL    HW2 4554   2.631   1.517   3.399  0.9917  0.5110  0.9988
 1131SOL    HW3 4555   2.663   1.664   3.384  1.3621  0.3073 -0.2646
 1131SOL    MW4 4556   2.634   1.590   3.351  0.5364  0.2470  0.5727
 1132SOL     OW 4557   4.135   3.510   2.027  0.1107 -0.2195 -0.2929
 1132SOL    HW2 4558   4.168   3.575   1.965 -0.5110 -0.5192 -0.9461
 1132SOL    HW3 4559   4.208   3.495   2.087  0.8763 -0.2608 -1.2164
 1132SOL    MW4 4560   4.149   3.517   2.027  0.1297 -0.2645 -0.5010
 1133SOL     OW 4561   3.560   1.851   2.082  0.0926 -0.8386 -0.0763
 1133SOL    HW2 4562   3.496   1.859   2.152  0.2121  0.5907 -0.1088
 1133SOL    HW3 4563   3.517   1.798   2.015 -1.6414  1.3399 -0.7504
 1133SOL    MW4 4564   3.546   1.845   2.082 -0.1204 -0.3626 -0.1695
 1134SOL     OW 4565   3.010   1.609   2.170 -0.2730 -0.3026 -0.1169
 1134SOL    HW2 4566   2.961   1.645   2.096 -0.9589 -0.0274  0.4694
 1134SOL    HW3 4567   3.065   1.681   2.199 -1.4704  0.2100  0.9050
 1134SOL    MW4 4568   3.011   1.623   2.164 -0.5215 -0.1986  0.0953
 1135SOL     OW 4569   0.820   1.604   0.629 -0.2309 -0.1596  0.4971
 1135SOL    HW2 4570   0.742   1.660   0.625  0.8106  1.4507  1.9270
 1135SOL    HW3 4571   0.866   1.621   0.547 -0.9862 -0.5201 -0.0038
 1135SOL    MW4 4572   0.816   1.613   0.618 -0.1931  0.0053  0.6197
 1136SOL     OW 4573   2.792   2.816   2.336  0.0757 -0.3018  0.0535
 1136SOL    HW2 4574   2.808   2.831   2.429  0.8115  0.6300 -0.2130
 1136SOL    HW3 4575   2.758   2.899   2.304 -2.3256 -1.3019 -0.0563
 1136SOL    MW4 4576   2.790   2.829   2.344 -0.1440 -0.3108  0.0039
 1137SOL     OW 4577   0.687   2.567   0.651 -0.0935 -0.8359 -0.1439
 1137SOL    HW2 4578   0.704   2.474   0.637  0.0750 -0.7291 -0.6335
 1137SOL    HW3 4579   0.687   2.577   0.746 -3.2061 -1.9400  0.0590
 1137SOL    MW4 4580   0.689   2.556   0.662 -0.4819 -0.9674 -0.1817
 1138SOL     OW 4581   3.448   1.717   1.878 -0.5534  0.3589  0.3787
 1138SOL    HW2 4582   3.425   1.625   1.865 -0.6247  0.5108 -0.5788
 1138SOL    HW3 4583   3.396   1.764   1.814 -0.2165  1.0360  0.5959
 1138SOL    MW4 4584   3.438   1.711   1.868 -0.5183  0.4683  0.2811
 1139SOL     OW 4585   2.847   1.456   2.347 -0.1866 -0.1769 -0.3097
 1139SOL    HW2 4586   2.933   1.477   2.313  0.1073  0.0477  0.5634
 1139SOL    HW3 4587   2.791   1.529   2.318  0.2302  0.4091  0.3600
 1139SOL    MW4 4588   2.851   1.469   2.339 -0.0928 -0.0699 -0.1061
 1140SOL     OW 4589   1.929   0.180   1.472 -0.0019  0.3977 -0.4722
 1140SOL    HW2 4590   1.894   0.260   1.512 -0.3855 -0.2963  0.6103
 1140SOL    HW3 4591   1.979   0.139   1.542 -0.0331 -0.4421 -0.9413
 1140SOL    MW4 4592   1.931   0.185   1.486 -0.0566  0.1953 -0.3913
 1141SOL     OW 4593   4.092   0.349   3.772  0.9126 -0.8134 -0.3475
 1141SOL    HW2 4594   4.103   0.269   3.823 -1.1221 -0.4884  0.6962
 1141SOL    HW3 4595   4.068   0.319   3.684 -0.6333 -1.3853  0.2395
 1141SOL    MW4 4596   4.090   0.335   3.767  0.4402 -0.8460 -0.1323
 1142SOL     OW 4597   3.057   3.088   1.386 -0.1310  0.1663 -0.1033
 1142SOL    HW2 4598   2.967   3.100   1.357  0.3353  0.9602 -1.2601
 1142SOL    HW3 4599   3.108   3.083   1.304  0.5307 -3.1504  0.4296
 1142SOL    MW4 4600   3.052   3.089   1.371  0.0179 -0.1665 -0.1856
 1143SOL     OW 4601   1.584   2.434   0.364  0.0838  0.0574 -0.4198
 1143SOL    HW2 4602   1.597   2.341   0.349  0.1176  0.3156 -2.0781
 1143SOL    HW3 4603   1.671   2.472   0.358  0.2720  0.0158  1.7261
 1143SOL    MW4 4604   1.597   2.427   0.361  0.1131  0.0860 -0.3555
 1144SOL     OW 4605   3.373   4.259   3.445  0.0929 -0.0158 -0.1858
 1144SOL    HW2 4606   3.355   4.256   3.539 -1.6727  0.1862 -0.5024
 1144SOL    HW3 4607   3.289   4.281   3.405  0.4728 -1.6840 -1.9454
 1144SOL    MW4 4608   3.360   4.262   3.452 -0.0899 -0.2092 -0.4597
 1145SOL     OW 4609   1.050   3.724   4.380  0.3308  0.0394  0.0259
 1145SOL    HW2 4610   1.011   3.740   4.294  1.3189 -0.2497 -0.4748
 1145SOL    HW3 4611   0.980   3.746   4.442 -0.5976 -0.3566 -0.8616
 1145SOL    MW4 4612   1.036   3.729   4.377  0.3387 -0.0510 -0.1573
 1146SOL     OW 4613   0.467   1.450   0.568  0.5359 -0.2002 -0.0125
 1146SOL    HW2 4614   0.451   1.497   0.650 -1.0098 -0.5187 -0.1107
 1146SOL    HW3 4615   0.561   1.431   0.569  1.2029  2.8995 -0.0042
 1146SOL    MW4 4616   0.477   1.454   0.579  0.4200  0.1667 -0.0244
 1147SOL     OW 4617   0.223   1.914   4.280  0.0748  0.1994  0.4448
 1147SOL    HW2 4618   0.270   1.997   4.267 -1.9012  1.1541 -0.9321
 1147SOL    HW3 4619   0.171   1.929   4.359  0.9291 -0.3232  1.1147
 1147SOL    MW4 4620   0.222   1.927   4.289 -0.0732  0.2564  0.3515
 1148SOL     OW 4621   4.400   3.264   3.232 -0.4561 -0.1510  0.3143
 1148SOL    HW2 4622   4.338   3.293   3.299  0.6421 -0.1707  1.3624
 1148SOL    HW3 4623   4.441   3.187   3.270  0.3508 -0.0223 -0.2958
 1148SOL    MW4 4624   4.397   3.257   3.246 -0.2047 -0.1366  0.3721
 1149SOL     OW 4625   3.123   2.022   3.880 -0.0500 -0.2509  0.5788
 1149SOL    HW2 4626   3.166   1.938   3.895 -1.5830 -1.2291 -0.3494
 1149SOL    HW3 4627   3.113   2.061   3.967  0.5826 -1.0771  1.0213
 1149SOL    MW4 4628   3.127   2.016   3.893 -0.1688 -0.4890  0.5147
 1150SOL     OW 4629   3.840   2.522   1.205  0.4859 -0.5811  0.1244
 1150SOL    HW2 4630   3.895   2.484   1.273  0.7963  0.6274  0.5640
 1150SOL    HW3 4631   3.816   2.608   1.238  1.0266  0.2168 -1.4721
 1150SOL    MW4 4632   3.844   2.528   1.218  0.5982 -0.3164 -0.0282
 1151SOL     OW 4633   2.406   0.790   3.278 -0.2967  0.0623 -0.4712
 1151SOL    HW2 4634   2.365   0.762   3.360  1.4536 -3.0501 -0.5962
 1151SOL    HW3 4635   2.473   0.853   3.306 -0.7003  0.1502  0.3405
 1151SOL    MW4 4636   2.410   0.795   3.293 -0.1190 -0.3368 -0.3806
 1152SOL     OW 4637   2.108   2.351   1.377 -0.5490 -0.1398 -0.0515
 1152SOL    HW2 4638   2.071   2.332   1.291 -1.2303  0.7486  0.0405
 1152SOL    HW3 4639   2.035   2.339   1.438 -0.3881  0.4419  0.2617
 1152SOL    MW4 4640   2.093   2.347   1.374 -0.6177  0.0542  0.0020
 1153SOL     OW 4641   4.300   2.649   2.689 -0.1962 -0.0428  0.6193
 1153SOL    HW2 4642   4.359   2.724   2.700 -0.3533  0.2714 -0.5599
 1153SOL    HW3 4643   4.353   2.583   2.644 -1.1278  0.7969 -1.8217
 1153SOL    MW4 4644   4.315   2.650   2.684 -0.3398  0.1094  0.1416
 1154SOL     OW 4645   3.040   2.356   1.256  0.3148 -0.4686  0.2109
 1154SOL    HW2 4646   3.052   2.273   1.209 -0.1020 -0.4527  0.0772
 1154SOL    HW3 4647   2.946   2.367   1.263  0.3810 -1.0328  2.0719
 1154SOL    MW4 4648   3.029   2.347   1.251  0.2686 -0.5409  0.4388
 1155SOL     OW 4649   0.050   2.248   0.528  0.0510  0.0992  0.1005
 1155SOL    HW2 4650   0.114   2.178   0.524  0.5613  0.3801  2.3688
 1155SOL    HW3 4651   0.089   2.320   0.479  1.1476  0.0117  0.8271
 1155SOL    MW4 4652   0.063   2.248   0.521  0.2630  0.1247  0.4956
 1156SOL     OW 4653   3.537   2.793   3.782 -0.1530  0.1762 -0.0349
 1156SOL    HW2 4654   3.494   2.848   3.848 -1.2056 -1.2901  0.5169
 1156SOL    HW3 4655   3.466   2.765   3.724  0.3066 -0.9447 -0.0691
 1156SOL    MW4 4656   3.522   2.797   3.783 -0.2312 -0.1651  0.0334
 1157SOL     OW 4657   0.034   0.918   2.976 -0.0517  0.1141 -0.2083
 1157SOL    HW2 4658   0.015   0.826   2.994 -0.8971  0.4353  0.6262
 1157SOL    HW3 4659   0.129   0.921   2.962 -0.0591 -0.9218 -0.4958
 1157SOL    MW4 4660   0.044   0.907   2.977 -0.1642  0.0198 -0.1362
 1158SOL     OW 4661   1.510   4.312   2.993 -0.3452  0.0407 -0.1568
 1158SOL    HW2 4662   1.537   4.286   2.904 -0.5161 -0.6342 -0.0142
 1158SOL    HW3 4663   1.578   4.373   3.021  0.4003 -0.7155 -0.2682
 1158SOL    MW4 4664   1.523   4.316   2.985 -0.2694 -0.1481 -0.1527
 1159SOL     OW 4665   1.353   3.562   2.975  0.6352 -0.1422 -0.5026
 1159SOL    HW2 4666   1.322   3.475   3.000  0.6688 -0.1198 -0.3810
 1159SOL    HW3 4667   1.375   3.554   2.882  1.1138 -0.4004 -0.3708
 1159SOL    MW4 4668   1.352   3.549   2.966  0.7028 -0.1733 -0.4692
 1160SOL     OW 4669   2.664   1.379   3.528  0.2889  0.3702  0.0785
 1160SOL    HW2 4670   2.649   1.285   3.522  2.7187 -0.1201  1.3393
 1160SOL    HW3 4671   2.610   1.407   3.602 -1.4831  0.2382 -1.1237
 1160SOL    MW4 4672   2.655   1.370   3.537  0.3757  0.2881  0.0862
 1161SOL     OW 4673   3.434   4.299   1.658  0.2572 -0.1642  0.4436
 1161SOL    HW2 4674   3.461   4.208   1.643 -0.9330 -0.4718  0.1153
 1161SOL    HW3 4675   3.344   4.303   1.624  0.6399  1.3817 -0.4146
 1161SOL    MW4 4676   3.425   4.288   1.652  0.1506 -0.0008  0.2871
 1162SOL     OW 4677   4.242   0.367   1.253  0.3834  0.3754  0.1474
 1162SOL    HW2 4678   4.214   0.284   1.214  0.5461  0.7212 -0.7282
 1162SOL    HW3 4679   4.333   0.351   1.280  0.0016 -0.1232  1.1538
 1162SOL    MW4 4680   4.251   0.354   1.251  0.3545  0.3553  0.1647
 1163SOL     OW 4681   0.636   1.424   2.375  0.0592  0.1987 -0.2781
 1163SOL    HW2 4682   0.701   1.411   2.444 -0.6425  0.6001  0.4664
 1163SOL    HW3 4683   0.615   1.518   2.379 -1.5204 -0.1622  0.3619
 1163SOL    MW4 4684   0.642   1.435   2.385 -0.2418  0.2040 -0.0954
 1164SOL     OW 4685   4.148   3.324   2.607  0.3518 -0.0749  0.1083
 1164SOL    HW2 4686   4.085   3.381   2.650  0.3875  0.1320 -0.1129
 1164SOL    HW3 4687   4.193   3.381   2.544 -0.4455 -0.6264 -0.9726
 1164SOL    MW4 4688   4.146   3.339   2.604  0.2513 -0.1204 -0.0635
 1165SOL     OW 4689   4.429   2.811   3.455 -0.2632 -0.0223 -0.4697
 1165SOL    HW2 4690   4.402   2.793   3.364 -1.2341 -0.3260 -0.1273
 1165SOL    HW3 4691   4.521   2.784   3.458 -1.0614 -2.9480 -0.5680
 1165SOL    MW4 4692   4.438   2.805   3.443 -0.4966 -0.4484 -0.4375
 1166SOL     OW 4693   1.628   4.138   3.171  0.2305 -0.3496  0.4470
 1166SOL    HW2 4694   1.655   4.198   3.240  1.0137 -0.7066  0.4605
 1166SOL    HW3 4695   1.571   4.190   3.115  0.1747  0.1495  0.9626
 1166SOL    MW4 4696   1.624   4.153   3.173  0.3264 -0.3309  0.5168
 1167SOL     OW 4697   4.137   1.088   1.795 -0.5679  0.2639 -0.2390
 1167SOL    HW2 4698   4.061   1.146   1.802 -0.1601  0.8732 -0.8759
 1167SOL    HW3 4699   4.213   1.146   1.804 -0.1680 -0.2544 -0.2389
 1167SOL    MW4 4700   4.137   1.103   1.797 -0.4613  0.2759 -0.3231
 1168SOL     OW 4701   1.627   3.979   3.550 -0.2326  0.2432 -0.2696
 1168SOL    HW2 4702   1.596   3.974   3.641 -0.3637  0.2708 -0.3138
 1168SOL    HW3 4703   1.697   4.045   3.553  1.1133 -1.1673  0.2063
 1168SOL    MW4 4704   1.632   3.987   3.563 -0.0723  0.0607 -0.2126
 1169SOL     OW 4705   2.720   3.114   3.098  0.2754 -0.0673 -0.5840
 1169SOL    HW2 4706   2.762   3.200   3.097  0.8526 -0.3152  0.7610
 1169SOL    HW3 4707   2.780   3.057   3.050 -0.7079  0.5340 -2.5614
 1169SOL    MW4 4708   2.733   3.117   3.092  0.2218 -0.0207 -0.6674
 1170SOL     OW 4709   0.341   1.667   4.325  0.5667  0.2060  0.4109
 1170SOL    HW2 4710   0.275   1.602   4.298 -0.3267  0.5428  1.7161
 1170SOL    HW3 4711   0.301   1.751   4.304  0.6140  0.4078  1.1293
 1170SOL    MW4 4712   0.327   1.669   4.318  0.4551  0.2771  0.6779
 1171SOL     OW 4713   4.481   1.506   2.114  0.3928 -0.3446  0.1488
 1171SOL    HW2 4714   4.570   1.480   2.134  0.5819  1.1042  1.2270
 1171SOL    HW3 4715   4.461   1.577   2.175 -1.6002 -0.8527  0.1401
 1171SOL    MW4 4716   4.490   1.512   2.124  0.1548 -0.2205  0.2899
 1172SOL     OW 4717   1.562   4.165   2.124 -0.7179 -0.8143 -0.0810
 1172SOL    HW2 4718   1.621   4.092   2.142 -0.2629 -0.1610  1.1282
 1172SOL    HW3 4719   1.571   4.223   2.201 -2.3278 -0.3239 -0.2447
 1172SOL    MW4 4720   1.571   4.163   2.137 -0.8703 -0.6634  0.0570
 1173SOL     OW 4721   1.926   4.310   2.004 -0.3300 -0.1143  0.3031
 1173SOL    HW2 4722   1.937   4.258   1.924 -3.1175 -1.1552  0.5662
 1173SOL    HW3 4723   1.981   4.265   2.069 -0.1380 -0.8048 -0.3323
 1173SOL    MW4 4724   1.935   4.297   2.002 -0.6724 -0.3428  0.2540
 1174SOL     OW 4725   2.899   0.202   4.308  0.2704 -0.3517 -0.1073
 1174SOL    HW2 4726   2.939   0.276   4.354 -0.6312 -1.2561  2.2244
 1174SOL    HW3 4727   2.966   0.134   4.310  0.4886 -0.1519 -0.7477
 1174SOL    MW4 4728   2.913   0.203   4.314  0.1803 -0.4446  0.1159
 1175SOL     OW 4729   4.303   0.586   1.672 -0.4074 -0.0357 -0.1101
 1175SOL    HW2 4730   4.297   0.602   1.578 -0.7897  2.2642  0.2620
 1175SOL    HW3 4731   4.212   0.582   1.702 -0.2891 -0.8976  0.1349
 1175SOL    MW4 4732   4.290   0.588   1.664 -0.4423  0.1540 -0.0287
 1176SOL     OW 4733   4.159   2.686   1.212  0.7796  0.6038 -0.2878
 1176SOL    HW2 4734   4.133   2.623   1.144  1.1321  1.6794 -1.4379
 1176SOL    HW3 4735   4.246   2.657   1.239  1.4850  1.3072 -1.7243
 1176SOL    MW4 4736   4.167   2.674   1.206  0.9191  0.8385 -0.6290
 1177SOL     OW 4737   2.457   0.278   1.500 -0.3835  0.1061 -0.0032
 1177SOL    HW2 4738   2.468   0.274   1.595  2.0759 -0.1973 -0.2732
 1177SOL    HW3 4739   2.546   0.286   1.466 -1.1025 -1.4027 -2.3560
 1177SOL    MW4 4740   2.470   0.278   1.508 -0.1539 -0.1330 -0.3492
 1178SOL     OW 4741   0.107   3.281   4.166 -0.1514 -0.2912  0.1231
 1178SOL    HW2 4742   0.168   3.336   4.116  0.6960  0.2111  1.6755
 1178SOL    HW3 4743   0.083   3.335   4.242  0.2228 -1.8290  1.3541
 1178SOL    MW4 4744   0.112   3.296   4.170  0.0097 -0.4278  0.4903
 1179SOL     OW 4745   3.530   1.221   4.248 -0.0213 -0.6366 -0.4216
 1179SOL    HW2 4746   3.610   1.248   4.293  0.7675 -1.0002 -1.6123
 1179SOL    HW3 4747   3.459   1.254   4.304  0.9485  0.3742  0.2166
 1179SOL    MW4 4748   3.531   1.229   4.262  0.2107 -0.5512 -0.4945
 1180SOL     OW 4749   0.035   2.132   3.322  0.1664  0.1129 -0.1372
 1180SOL    HW2 4750   0.018   2.217   3.362  0.5243  0.2491 -0.2685
 1180SOL    HW3 4751  -0.009   2.136   3.237 -1.8811 -0.7345  0.8441
 1180SOL    MW4 4752   0.027   2.144   3.316 -0.0565  0.0190 -0.0251
 1181SOL     OW 4753   2.979   3.657   0.573 -0.3938  0.8242 -0.5130
 1181SOL    HW2 4754   2.908   3.721   0.581 -0.1828  1.0196 -0.2379
 1181SOL    HW3 4755   2.934   3.576   0.548 -0.7835  0.8011  0.2444
 1181SOL    MW4 4756   2.963   3.655   0.571 -0.4174  0.8470 -0.3768
 1182SOL     OW 4757   1.520   4.190   1.855 -0.1272  0.3990 -0.0251
 1182SOL    HW2 4758   1.534   4.190   1.950 -0.7730 -1.1826  0.0866
 1182SOL    HW3 4759   1.425   4.182   1.845 -0.0233  0.1201 -0.8149
 1182SOL    MW4 4760   1.509   4.189   1.866 -0.1987  0.1535 -0.1145
 1183SOL     OW 4761   2.082   3.986   3.524  0.5744 -0.0146  0.4345
 1183SOL    HW2 4762   2.077   4.010   3.432 -2.6629  0.3084  0.6193
 1183SOL    HW3 4763   2.142   4.049   3.563  0.5401  0.9988 -1.1243
 1183SOL    MW4 4764   2.089   3.997   3.517  0.1427  0.1617  0.2532
 1184SOL     OW 4765   1.668   0.057   1.481 -0.8186 -0.2756  0.3410
 1184SOL    HW2 4766   1.662  -0.013   1.547 -0.1120 -1.8466 -1.2116
 1184SOL    HW3 4767   1.760   0.085   1.485 -0.6743 -0.6544 -0.2390
 1184SOL    MW4 4768   1.679   0.051   1.491 -0.7064 -0.5328  0.0596
 1185SOL     OW 4769   3.781   4.170   0.580 -0.6394 -0.2996 -0.3342
 1185SOL    HW2 4770   3.831   4.210   0.509 -0.6489 -0.4348 -0.4170
 1185SOL    HW3 4771   3.724   4.240   0.612 -0.1207 -0.0331  0.0145
 1185SOL    MW4 4772   3.780   4.184   0.575 -0.5722 -0.2823 -0.2991
 1186SOL     OW 4773   2.631   1.650   2.783  0.1752 -0.2188 -0.2881
 1186SOL    HW2 4774   2.705   1.628   2.726  0.4453  1.9369 -0.8322
 1186SOL    HW3 4775   2.669   1.708   2.849 -0.2719 -2.1592  1.7291
 1186SOL    MW4 4776   2.646   1.655   2.784  0.1518 -0.1904 -0.0937
 1187SOL     OW 4777   0.778   1.108   3.215 -0.4419  0.7460  0.2872
 1187SOL    HW2 4778   0.682   1.107   3.220 -0.4053 -1.4259  0.7367
 1187SOL    HW3 4779   0.805   1.020   3.240  1.5403  0.3843 -2.8347
 1187SOL    MW4 4780   0.769   1.097   3.219 -0.1755  0.4117 -0.0654
 1188SOL     OW 4781   3.377   0.201   0.770  0.3114  0.0412  0.0846
 1188SOL    HW2 4782   3.440   0.268   0.744  3.0082 -2.2269  0.5980
 1188SOL    HW3 4783   3.333   0.238   0.847  0.3556  2.0121 -0.8124
 1188SOL    MW4 4784   3.379   0.215   0.777  0.6730  0.0020  0.0340
 1189SOL     OW 4785   2.484   1.436   2.336  0.3477 -0.6514  0.1158
 1189SOL    HW2 4786   2.550   1.500   2.310  0.7918 -0.9010  0.6197
 1189SOL    HW3 4787   2.450   1.402   2.253 -1.2679  1.6049 -0.1757
 1189SOL    MW4 4788   2.488   1.440   2.321  0.1932 -0.3866  0.1438
 1190SOL     OW 4789   1.176   1.738   1.387  0.7538 -0.2849  0.0418
 1190SOL    HW2 4790   1.214   1.826   1.391 -0.8593  0.4096  0.2261
 1190SOL    HW3 4791   1.177   1.717   1.293  0.2879  0.3096 -0.0996
 1190SOL    MW4 4792   1.181   1.747   1.375  0.4795 -0.1148  0.0475
 1191SOL     OW 4793   2.356   2.231   4.529  0.7299 -0.5251 -0.1148
 1191SOL    HW2 4794   2.425   2.167   4.544  1.2404  0.1972  0.6385
 1191SOL    HW3 4795   2.393   2.314   4.558 -0.4040 -0.1047  0.1619
 1191SOL    MW4 4796   2.370   2.233   4.534  0.6477 -0.3743  0.0211
 1192SOL     OW 4797   0.901   1.926   0.516  0.2831  0.3245 -0.3130
 1192SOL    HW2 4798   0.902   2.010   0.471 -0.7112  0.8845  0.6828
 1192SOL    HW3 4799   0.905   1.861   0.446 -1.1124  1.1764 -1.2177
 1192SOL    MW4 4800   0.902   1.928   0.501 -0.0322  0.5107 -0.3010
 1193SOL     OW 4801   2.958   4.280   2.910  0.0165  0.0949  0.0476
 1193SOL    HW2 4802   2.872   4.241   2.925 -0.0212 -0.0023 -0.4403
 1193SOL    HW3 4803   2.956   4.361   2.960 -0.6319  0.4692 -0.5891
 1193SOL    MW4 4804   2.947   4.285   2.919 -0.0740  0.1314 -0.1008
 1194SOL     OW 4805   0.266   0.881   3.703 -0.1267 -0.4525  0.1991
 1194SOL    HW2 4806   0.297   0.922   3.622  0.2313  0.2225  0.6685
 1194SOL    HW3 4807   0.224   0.799   3.674 -0.0058 -0.2196 -0.6617
 1194SOL    MW4 4808   0.265   0.875   3.688 -0.0635 -0.3327  0.1475
 1195SOL     OW 4809   0.677   2.356   3.752 -0.0522  0.0735  0.5357
 1195SOL    HW2 4810   0.637   2.272   3.776  0.1223 -0.8599 -2.2865
 1195SOL    HW3 4811   0.607   2.420   3.763 -0.3331 -0.4893  2.2284
 1195SOL    MW4 4812   0.663   2.353   3.757 -0.0662 -0.1239  0.3867
 1196SOL     OW 4813   3.712   4.656   1.534  0.0123  0.2897  0.6976
 1196SOL    HW2 4814   3.748   4.692   1.615 -0.6545 -0.6457  1.4176
 1196SOL    HW3 4815   3.694   4.565   1.555 -1.9025  0.5103  0.0560
 1196SOL    MW4 4816   3.715   4.649   1.547 -0.3283  0.1954  0.7079
 1197SOL     OW 4817   2.375   2.723   2.464 -0.0798  0.3581 -0.2334
 1197SOL    HW2 4818   2.452   2.681   2.425 -1.0672 -1.3414 -0.3972
 1197SOL    HW3 4819   2.397   2.817   2.464  1.5409  0.0120 -1.2708
 1197SOL    MW4 4820   2.388   2.730   2.459  0.0038  0.0882 -0.3919
 1198SOL     OW 4821   4.287   2.057   4.386  0.3640  0.2335 -0.4165
 1198SOL    HW2 4822   4.299   2.113   4.309  0.9438  0.1345 -0.3979
 1198SOL    HW3 4823   4.266   1.971   4.350  1.6377 -0.0560 -0.4879
 1198SOL    MW4 4824   4.286   2.053   4.371  0.6085  0.1822 -0.4234
 1199SOL     OW 4825   2.170   3.188   3.717  0.1443  0.5726  0.4322
 1199SOL    HW2 4826   2.141   3.162   3.630  1.2228 -0.2343  0.3020
 1199SOL    HW3 4827   2.218   3.269   3.704 -0.2538  0.7992  0.3677
 1199SOL    MW4 4828   2.172   3.195   3.704  0.2341  0.4960  0.4065
 1200SOL     OW 4829   2.947   3.812   2.309  0.0682 -0.3129 -0.4121
 1200SOL    HW2 4830   3.034   3.853   2.305 -0.1082 -0.1158 -2.6849
 1200SOL    HW3 4831   2.912   3.840   2.394  2.1388 -0.2321  0.4403
 1200SOL    MW4 4832   2.954   3.821   2.320  0.3181 -0.2763 -0.5995
 1201SOL     OW 4833   2.258   3.919   3.157 -0.6903  0.2868 -0.1876
 1201SOL    HW2 4834   2.175   3.956   3.188 -0.5143  1.9787 -1.6658
 1201SOL    HW3 4835   2.324   3.982   3.185  0.0467 -0.7616  0.4592
 1201SOL    MW4 4836   2.256   3.932   3.165 -0.5698  0.3717 -0.2973
 1202SOL     OW 4837   4.413   2.551   0.913  0.0080  0.1270  0.0569
 1202SOL    HW2 4838   4.323   2.563   0.882 -1.0010 -3.9967  1.1822
 1202SOL    HW3 4839   4.405   2.539   1.007  1.9986  1.6456  0.4658
 1202SOL    MW4 4840   4.400   2.551   0.921  0.1375 -0.2167  0.2593
 1203SOL     OW 4841   3.648   1.518   2.054  0.0134  0.2713 -0.2650
 1203SOL    HW2 4842   3.578   1.487   1.996 -0.5875  1.1877 -0.0420
 1203SOL    HW3 4843   3.607   1.522   2.141  1.2164 -2.1631  0.4721
 1203SOL    MW4 4844   3.633   1.514   2.058  0.0929  0.0710 -0.1383
 1204SOL     OW 4845   2.328   4.571   3.278 -0.4514 -0.3706 -0.1762
 1204SOL    HW2 4846   2.332   4.625   3.357 -2.0113 -1.5122  0.7053
 1204SOL    HW3 4847   2.402   4.601   3.225 -0.6183  1.8391  0.7908
 1204SOL    MW4 4848   2.338   4.582   3.281 -0.6792 -0.2297  0.0677
 1205SOL     OW 4849   4.204   2.225   1.906  0.2256  0.1291 -0.1440
 1205SOL    HW2 4850   4.225   2.273   1.987  0.2534  0.6942 -0.4846
 1205SOL    HW3 4851   4.272   2.252   1.844 -0.4337  0.5433 -0.6921
 1205SOL    MW4 4852   4.216   2.235   1.909  0.1423  0.2583 -0.2613
 1206SOL     OW 4853   3.249   3.354   3.235 -0.8623 -0.3852 -0.3516
 1206SOL    HW2 4854   3.306   3.430   3.219 -1.5510  0.6202  1.7586
 1206SOL    HW3 4855   3.189   3.353   3.161 -0.6628  0.9888 -0.5445
 1206SOL    MW4 4856   3.248   3.364   3.223 -0.9268 -0.0713 -0.0986
 1207SOL     OW 4857   0.246   2.052   0.608 -0.4881 -0.1938  0.6031
 1207SOL    HW2 4858   0.316   2.117   0.601 -1.2835  0.5086 -1.3046
 1207SOL    HW3 4859   0.255   2.015   0.696  1.1759  1.1309  1.0034
 1207SOL    MW4 4860   0.256   2.056   0.618 -0.3735  0.0737  0.4042
 1208SOL     OW 4861   2.523   4.600   1.829 -0.0274 -0.0075 -0.1650
 1208SOL    HW2 4862   2.608   4.559   1.816 -0.5562 -0.5029 -2.1675
 1208SOL    HW3 4863   2.509   4.597   1.924  2.6606  1.0973  0.3146
 1208SOL    MW4 4864   2.532   4.594   1.840  0.2575  0.0729 -0.3659
 1209SOL     OW 4865   1.987   2.507   2.732  0.1324 -0.0729  0.6489
 1209SOL    HW2 4866   2.076   2.513   2.697  0.8931  0.6012  2.6638
 1209SOL    HW3 4867   1.947   2.436   2.682  1.5228  0.1727 -0.8627
 1209SOL    MW4 4868   1.993   2.499   2.720  0.4162  0.0484  0.7153
 1210SOL     OW 4869   0.053   2.038   4.484 -0.1221 -0.0361  0.1028
 1210SOL    HW2 4870  -0.034   2.005   4.462 -0.2042  0.6849 -0.6640
 1210SOL    HW3 4871   0.057   2.125   4.444  0.5700  0.3612  1.0074
 1210SOL    MW4 4872   0.042   2.045   4.476 -0.0416  0.1114  0.1210
 1211SOL     OW 4873   2.399   0.222   2.436  0.3587 -0.5501 -0.0283
 1211SOL    HW2 4874   2.430   0.271   2.359  0.7345 -0.0327  0.4495
 1211SOL    HW3 4875   2.450   0.141   2.435  0.0459 -0.7486 -0.5708
 1211SOL    MW4 4876   2.410   0.218   2.426  0.3670 -0.5080 -0.0368
 1212SOL     OW 4877   0.659   3.138   2.959 -0.0794 -0.2593  0.0971
 1212SOL    HW2 4878   0.564   3.134   2.957 -0.2259  2.0451  0.5681
 1212SOL    HW3 4879   0.685   3.082   3.033 -0.9796 -1.7070 -0.6630
 1212SOL    MW4 4880   0.650   3.130   2.968 -0.2175 -0.1463  0.0589
 1213SOL     OW 4881   1.953   1.046   4.674  0.4713 -0.0257 -0.2035
 1213SOL    HW2 4882   1.967   0.971   4.617 -0.0069 -1.4653  1.5178
 1213SOL    HW3 4883   1.934   1.008   4.760  0.5567  2.0674  0.7867
 1213SOL    MW4 4884   1.952   1.031   4.678  0.4195  0.0605  0.1543
 1214SOL     OW 4885   4.249   0.197   4.396 -0.2922 -0.0246 -0.0749
 1214SOL    HW2 4886   4.181   0.129   4.390 -0.3653  0.1547 -1.4269
 1214SOL    HW3 4887   4.325   0.151   4.432 -0.9027 -0.3991  0.7417
 1214SOL    MW4 4888   4.250   0.182   4.400 -0.3824 -0.0503 -0.1455
 1215SOL     OW 4889   1.676   4.520   3.109  0.4131  0.1709 -0.0173
 1215SOL    HW2 4890   1.612   4.590   3.114 -0.4073 -0.6020  0.4754
 1215SOL    HW3 4891   1.758   4.563   3.085 -0.0392  1.3085  0.4842
 1215SOL    MW4 4892   1.678   4.535   3.106  0.2452  0.2190  0.1139
 1216SOL     OW 4893   1.721   1.863   0.698  0.0873 -0.3713  0.1865
 1216SOL    HW2 4894   1.683   1.876   0.611  1.1113  0.8360 -0.0866
 1216SOL    HW3 4895   1.741   1.951   0.730  2.1631 -0.9441  0.5485
 1216SOL    MW4 4896   1.719   1.876   0.691  0.4963 -0.2876  0.1983
 1217SOL     OW 4897   0.561   2.120   1.328 -0.5312  0.3659 -0.3018
 1217SOL    HW2 4898   0.575   2.142   1.236  0.2428 -1.4108 -0.6237
 1217SOL    HW3 4899   0.467   2.099   1.333 -0.8565  1.7123 -0.3928
 1217SOL    MW4 4900   0.550   2.120   1.316 -0.4720  0.3091 -0.3563
 1218SOL     OW 4901   3.000   1.657   3.573 -0.1594  0.3252 -0.1076
 1218SOL    HW2 4902   2.991   1.562   3.563  2.6311 -0.0565  0.6037
 1218SOL    HW3 4903   2.915   1.692   3.548 -1.3525 -2.3990 -0.0141
 1218SOL    MW4 4904   2.988   1.649   3.568  0.0513 -0.0846 -0.0014
 1219SOL     OW 4905   0.264   1.679   1.135  0.3849 -0.4473  0.4662
 1219SOL    HW2 4906   0.353   1.703   1.109  0.4033  0.5014  1.3806
 1219SOL    HW3 4907   0.213   1.759   1.123  0.0869 -0.4099  1.9163
 1219SOL    MW4 4908   0.269   1.693   1.130  0.3480 -0.3172  0.7781
 1220SOL     OW 4909   3.058   3.191   1.043  0.8732  0.1542  0.1572
 1220SOL    HW2 4910   3.101   3.240   0.972 -0.2101 -1.3585 -1.5754
 1220SOL    HW3 4911   3.128   3.137   1.080  1.3925  0.7821  0.1120
 1220SOL    MW4 4912   3.073   3.190   1.038  0.7988  0.0374 -0.0774
 1221SOL     OW 4913   3.308   4.211   2.303  0.1530  0.3106  0.0527
 1221SOL    HW2 4914   3.226   4.254   2.329 -0.1172  0.3547 -0.8349
 1221SOL    HW3 4915   3.309   4.219   2.208  1.2207  0.3501  0.0645
 1221SOL    MW4 4916   3.297   4.218   2.294  0.2583  0.3217 -0.0629
 1222SOL     OW 4917   1.660   2.820   3.115  0.2472  0.1057 -0.1999
 1222SOL    HW2 4918   1.751   2.825   3.086  0.0384 -1.7656 -1.2375
 1222SOL    HW3 4919   1.651   2.893   3.176  2.1955  0.8494 -0.7425
 1222SOL    MW4 4920   1.671   2.830   3.119  0.4767 -0.0431 -0.4084
 1223SOL     OW 4921   4.358   0.464   3.778  0.2127 -0.0827  0.5832
 1223SOL    HW2 4922   4.277   0.415   3.789 -0.3524  0.6345 -0.3228
 1223SOL    HW3 4923   4.351   0.537   3.839 -0.9155  1.3475 -1.2203
 1223SOL    MW4 4924   4.347   0.467   3.787 -0.0107  0.2006  0.2257
 1224SOL     OW 4925   3.220   4.599   3.410 -0.0901 -0.5458  0.5392
 1224SOL    HW2 4926   3.225   4.664   3.340 -0.7118  0.0229  1.0153
 1224SOL    HW3 4927   3.263   4.640   3.485  0.0601 -0.9237  0.6625
 1224SOL    MW4 4928   3.226   4.613   3.411 -0.1523 -0.5206  0.6183
 1225SOL     OW 4929   1.443   1.452   4.477  0.0467 -0.0061  0.0018
 1225SOL    HW2 4930   1.442   1.404   4.394 -1.4561  1.1676 -0.7009
 1225SOL    HW3 4931   1.390   1.399   4.536 -0.9744  0.3753 -0.5467
 1225SOL    MW4 4932   1.436   1.439   4.474 -0.2863  0.1991 -0.1633
 1226SOL     OW 4933   2.362   4.013   1.534 -0.2182 -0.5584  0.1319
 1226SOL    HW2 4934   2.427   4.070   1.494 -0.3931 -0.1374  0.4465
 1226SOL    HW3 4935   2.277   4.052   1.511 -0.3061  0.0351  1.4047
 1226SOL    MW4 4936   2.359   4.025   1.526 -0.2529 -0.4245  0.3413
 1227SOL     OW 4937   3.331   3.881   0.856  0.5068 -0.2703 -0.2973
 1227SOL    HW2 4938   3.427   3.875   0.858  0.4643 -0.5095  1.1051
 1227SOL    HW3 4939   3.306   3.829   0.780  1.4312 -1.0165 -0.1023
 1227SOL    MW4 4940   3.341   3.873   0.846  0.6232 -0.4003 -0.0866
 1228SOL     OW 4941   2.514   2.803   4.607 -0.0512  0.5416 -0.4067
 1228SOL    HW2 4942   2.487   2.824   4.696 -0.9050 -1.3857 -0.1756
 1228SOL    HW3 4943   2.435   2.816   4.554 -0.1380 -0.3794 -0.5195
 1228SOL    MW4 4944   2.500   2.807   4.612 -0.1753  0.1658 -0.3911
 1229SOL     OW 4945   3.682   1.526   3.570  0.8270  0.4583 -0.4450
 1229SOL    HW2 4946   3.776   1.540   3.574  1.1512 -0.7958 -2.7832
 1229SOL    HW3 4947   3.658   1.502   3.659  3.1956 -1.9316 -0.3914
 1229SOL    MW4 4948   3.691   1.525   3.582  1.1823 -0.0225 -0.7464
 1230SOL     OW 4949   0.949   2.741   3.848 -0.2988  0.4994 -0.1473
 1230SOL    HW2 4950   0.916   2.654   3.872  0.7760  0.7020  2.1908
 1230SOL    HW3 4951   1.042   2.727   3.831 -0.2627  1.0771 -0.4070
 1230SOL    MW4 4952   0.957   2.727   3.849 -0.1523  0.6023  0.1269
 1231SOL     OW 4953   0.326   4.346   3.408  0.0613  0.0810 -0.0511
 1231SOL    HW2 4954   0.254   4.401   3.378 -0.2289  0.4263  1.2366
 1231SOL    HW3 4955   0.292   4.302   3.486  1.5028  0.8852  1.0518
 1231SOL    MW4 4956   0.312   4.348   3.414  0.2132  0.2327  0.2643
 1232SOL     OW 4957   0.924   1.804   1.929 -0.3488 -0.0483  0.0649
 1232SOL    HW2 4958   0.933   1.718   1.969  1.9600  1.0935  2.2079
 1232SOL    HW3 4959   1.001   1.813   1.873 -0.4532  0.6785  0.0285
 1232SOL    MW4 4960   0.935   1.794   1.927 -0.0580  0.1982  0.3428
 1233SOL     OW 4961   1.974   0.685   2.721 -0.1599 -0.5052  0.1501
 1233SOL    HW2 4962   1.959   0.600   2.680 -0.3093  0.5207 -1.9897
 1233SOL    HW3 4963   1.909   0.743   2.681  0.6123  0.8585  0.8218
 1233SOL    MW4 4964   1.963   0.681   2.710 -0.0778 -0.1899 -0.0436
 1234SOL     OW 4965   2.523   1.210   1.990  0.0476 -0.1600 -0.4220
 1234SOL    HW2 4966   2.592   1.269   2.021 -0.6673  0.5305 -0.1433
 1234SOL    HW3 4967   2.540   1.201   1.896  1.2871 -1.0164 -0.1229
 1234SOL    MW4 4968   2.535   1.217   1.982  0.1168 -0.1819 -0.3458
 1235SOL     OW 4969   0.501   1.806   1.536  0.5219  0.1053 -0.0126
 1235SOL    HW2 4970   0.541   1.720   1.524 -1.5338 -0.7942 -0.6200
 1235SOL    HW3 4971   0.424   1.804   1.481  0.7011  2.5382 -0.3846
 1235SOL    MW4 4972   0.496   1.794   1.527  0.2743  0.3076 -0.1418
 1236SOL     OW 4973   2.311   0.525   3.413  0.1962  0.1183 -0.5102
 1236SOL    HW2 4974   2.304   0.476   3.332 -1.2808 -0.7299  0.1092
 1236SOL    HW3 4975   2.396   0.500   3.449  0.0326 -0.9690 -0.8531
 1236SOL    MW4 4976   2.321   0.515   3.407 -0.0202 -0.1371 -0.4737
 1237SOL     OW 4977   4.201   2.960   3.073 -0.3134 -0.1776 -0.0662
 1237SOL    HW2 4978   4.155   2.902   3.012 -1.3788  0.3220  0.2530
 1237SOL    HW3 4979   4.261   3.010   3.018 -0.5007 -0.4869 -0.5557
 1237SOL    MW4 4980   4.203   2.959   3.058 -0.4787 -0.1525 -0.0886
 1238SOL     OW 4981   0.229   4.163   2.487  0.1525  0.8032  0.1841
 1238SOL    HW2 4982   0.145   4.201   2.461  0.1270  0.5351 -0.1409
 1238SOL    HW3 4983   0.226   4.074   2.451  0.6875  0.8853 -0.0606
 1238SOL    MW4 4984   0.217   4.156   2.479  0.2197  0.7787  0.1089
 1239SOL     OW 4985   4.211   0.095   1.129  0.3795 -0.0080 -0.1885
 1239SOL    HW2 4986   4.265   0.113   1.052  1.0391  0.4218  0.3652
 1239SOL    HW3 4987   4.248   0.016   1.167 -1.3454 -1.5221 -1.5567
 1239SOL    MW4 4988   4.223   0.087   1.124  0.2390 -0.1511 -0.2960
 1240SOL     OW 4989   1.300   1.415   2.869 -0.0141  0.2601 -0.3780
 1240SOL    HW2 4990   1.334   1.504   2.858  0.6510 -0.1704 -1.9939
 1240SOL    HW3 4991   1.245   1.401   2.792  0.3176 -0.9121 -0.4145
 1240SOL    MW4 4992   1.297   1.425   2.857  0.1175  0.0486 -0.5960
 1241SOL     OW 4993   1.182   0.266   2.028 -0.0201  0.0210 -0.1428
 1241SOL    HW2 4994   1.193   0.356   2.058 -1.0407  0.0940  0.0016
 1241SOL    HW3 4995   1.147   0.274   1.939 -0.2417 -0.2420 -0.0798
 1241SOL    MW4 4996   1.179   0.279   2.020 -0.1840 -0.0041 -0.1155
 1242SOL     OW 4997   2.109   3.492   1.553 -0.6982 -0.2913 -0.3235
 1242SOL    HW2 4998   2.171   3.564   1.561 -0.3680 -0.7027  0.8438
 1242SOL    HW3 4999   2.122   3.439   1.632 -0.7947 -1.7445 -1.2639
 1242SOL    MW4 5000   2.119   3.495   1.564 -0.6674 -0.5373 -0.2935
 1243SOL     OW 5001   1.932   4.651   2.090 -0.3001 -0.0803  0.4068
 1243SOL    HW2 5002   2.005   4.594   2.066  0.1619  0.3753  0.7174
 1243SOL    HW3 5003   1.860   4.591   2.109  0.2240 -0.5741  0.8837
 1243SOL    MW4 5004   1.932   4.636   2.089 -0.1700 -0.0853  0.5107
 1244SOL     OW 5005   4.466   0.831   1.713  0.3574  0.1696  0.1019
 1244SOL    HW2 5006   4.435   0.887   1.642  0.8509 -0.0755 -0.3048
 1244SOL    HW3 5007   4.414   0.751   1.705 -0.2322  0.5037  0.5815
 1244SOL    MW4 5008   4.455   0.828   1.703  0.3447  0.1814  0.1115
 1245SOL     OW 5009   3.627   2.127   1.707  0.1605 -0.4156 -0.4863
 1245SOL    HW2 5010   3.553   2.122   1.647 -1.3523 -1.2254  1.3563
 1245SOL    HW3 5011   3.673   2.044   1.694  0.7990  0.1348 -1.7152
 1245SOL    MW4 5012   3.623   2.115   1.697  0.0451 -0.4498 -0.4053
 1246SOL     OW 5013   2.070   4.164   2.193 -0.3034  0.1049  0.0995
 1246SOL    HW2 5014   2.095   4.072   2.202 -1.4545 -0.1472  0.8552
 1246SOL    HW3 5015   2.150   4.212   2.210  0.2131 -0.7569  0.1322
 1246SOL    MW4 5016   2.083   4.158   2.196 -0.3871 -0.0421  0.2035
 1247SOL     OW 5017   1.752   3.305   3.657  0.6193 -0.1763  0.5896
 1247SOL    HW2 5018   1.687   3.352   3.710  1.2419  0.0645  1.1541
 1247SOL    HW3 5019   1.809   3.374   3.624  0.8123 -0.4206  0.4147
 1247SOL    MW4 5020   1.751   3.321   3.660  0.7269 -0.1767  0.6410
 1248SOL     OW 5021   1.461   2.880   1.051  0.0092  0.2417  0.0242
 1248SOL    HW2 5022   1.502   2.955   1.095  1.9383 -0.2310 -0.9017
 1248SOL    HW3 5023   1.412   2.919   0.978  1.7077  0.5498 -0.9673
 1248SOL    MW4 5024   1.460   2.895   1.047  0.4879  0.2200 -0.2288
 1249SOL     OW 5025   2.266   0.829   0.956 -0.2281  0.5703 -0.5100
 1249SOL    HW2 5026   2.267   0.846   1.051 -2.9108 -1.4726 -0.0468
 1249SOL    HW3 5027   2.327   0.755   0.944 -0.2105  0.5524 -0.3130
 1249SOL    MW4 5028   2.274   0.821   0.967 -0.5797  0.2984 -0.4229
 1250SOL     OW 5029   3.838   3.230   4.360 -0.0021  0.1693  0.4346
 1250SOL    HW2 5030   3.871   3.240   4.449 -1.4468  0.0140  1.0132
 1250SOL    HW3 5031   3.903   3.177   4.315  0.9729  0.6557  1.2672
 1250SOL    MW4 5032   3.851   3.224   4.366 -0.0641  0.2130  0.6208
 1251SOL     OW 5033   1.603   1.043   1.769 -0.5965  0.0101 -0.1627
 1251SOL    HW2 5034   1.530   1.042   1.707 -1.1087 -0.5630  0.4383
 1251SOL    HW3 5035   1.571   1.093   1.844 -0.0826  0.4478 -0.2283
 1251SOL    MW4 5036   1.589   1.049   1.770 -0.5963 -0.0078 -0.0921
 1252SOL     OW 5037   2.098   3.729   3.939 -0.0751 -0.7535 -0.2124
 1252SOL    HW2 5038   2.100   3.719   3.843 -2.6425 -1.3789 -0.2407
 1252SOL    HW3 5039   2.085   3.640   3.971 -3.6865 -0.0751  0.4631
 1252SOL    MW4 5040   2.096   3.716   3.930 -0.8903 -0.7465 -0.1270
 1253SOL     OW 5041   0.240   1.444   2.529  0.4740  0.0415 -0.0688
 1253SOL    HW2 5042   0.246   1.538   2.515  2.0406 -0.0162  0.1144
 1253SOL    HW3 5043   0.326   1.419   2.563 -0.7963 -1.0276  2.4933
 1253SOL    MW4 5044   0.252   1.453   2.532  0.5131 -0.1072  0.2934
 1254SOL     OW 5045   1.453   4.505   3.388  0.2035 -0.0165  0.1736
 1254SOL    HW2 5046   1.400   4.583   3.399 -0.0417 -0.1716  0.1013
 1254SOL    HW3 5047   1.390   4.436   3.368  0.2235 -0.6217  2.1085
 1254SOL    MW4 5048   1.438   4.506   3.387  0.1738 -0.1168  0.4194
 1255SOL     OW 5049   2.483   1.591   3.836  0.3211 -0.3682  0.2431
 1255SOL    HW2 5050   2.507   1.673   3.792 -0.5161  0.0635  0.5728
 1255SOL    HW3 5051   2.421   1.618   3.904  0.9204 -1.1378  1.0981
 1255SOL    MW4 5052   2.478   1.606   3.839  0.2897 -0.4128  0.3994
 1256SOL     OW 5053   2.806   0.008   1.156  0.2593  0.1875  0.2973
 1256SOL    HW2 5054   2.833  -0.073   1.198  1.1536  1.5090  2.3047
 1256SOL    HW3 5055   2.878   0.069   1.172 -1.7838  2.3273  1.6107
 1256SOL    MW4 5056   2.819   0.005   1.163  0.1077  0.6441  0.7354
 1257SOL     OW 5057   3.373   4.607   0.654  0.4756  0.3697 -0.4235
 1257SOL    HW2 5058   3.365   4.699   0.681  0.1587  0.2721 -0.1757
 1257SOL    HW3 5059   3.463   4.584   0.675 -0.0706 -0.0331  1.6195
 1257SOL    MW4 5060   3.384   4.616   0.660  0.3617  0.3037 -0.1212
 1258SOL     OW 5061   4.243   1.297   2.655  0.2099  0.2636  0.1157
 1258SOL    HW2 5062   4.320   1.310   2.599  0.2265 -1.0198 -0.1757
 1258SOL    HW3 5063   4.278   1.291   2.744  0.3644  0.4256  0.0664
 1258SOL    MW4 5064   4.258   1.298   2.659  0.2325  0.1157  0.0708
 1259SOL     OW 5065   3.855   2.849   2.402  0.6048  0.4712  0.1464
 1259SOL    HW2 5066   3.902   2.819   2.479  0.8255  1.2442  0.3125
 1259SOL    HW3 5067   3.923   2.865   2.337  0.4832  0.6204  0.0557
 1259SOL    MW4 5068   3.870   2.847   2.403  0.6179  0.5929  0.1563
 1260SOL     OW 5069   3.403   2.377   2.845 -0.1889  0.1733  0.2184
 1260SOL    HW2 5070   3.361   2.452   2.804 -1.2230 -0.4819  0.0479
 1260SOL    HW3 5071   3.497   2.395   2.840 -0.4572  1.7043  0.6939
 1260SOL    MW4 5072   3.410   2.389   2.839 -0.3608  0.2889  0.2586
 1261SOL     OW 5073   2.316   2.312   2.821  0.1472 -0.1562 -0.0078
 1261SOL    HW2 5074   2.316   2.383   2.757  1.6619  0.7780  0.9875
 1261SOL    HW3 5075   2.384   2.252   2.789 -0.5684 -0.7553 -0.4112
 1261SOL    MW4 5076   2.325   2.313   2.808  0.2526 -0.1120  0.0703
 1262SOL     OW 5077   1.217   0.984   0.155 -0.2416 -0.4878  0.1714
 1262SOL    HW2 5078   1.130   1.007   0.187 -0.4966  0.9611 -1.4984
 1262SOL    HW3 5079   1.275   1.047   0.199 -0.1508 -0.7772  0.4725
 1262SOL    MW4 5080   1.213   0.995   0.165 -0.2632 -0.3348 -0.0092
 1263SOL     OW 5081   2.035   4.533   4.163 -0.1563  0.2645 -0.1858
 1263SOL    HW2 5082   2.062   4.548   4.073  2.2852 -0.2733  0.4253
 1263SOL    HW3 5083   2.015   4.620   4.198  1.0084  0.7165 -0.6163
 1263SOL    MW4 5084   2.036   4.546   4.156  0.3195  0.2532 -0.1620
 1264SOL     OW 5085   1.531   0.720   0.694 -0.1793  0.4803 -0.2655
 1264SOL    HW2 5086   1.592   0.718   0.620 -0.7638  2.1100 -0.8073
 1264SOL    HW3 5087   1.523   0.813   0.716 -1.8338  0.2138  0.3242
 1264SOL    MW4 5088   1.538   0.732   0.687 -0.4747  0.6601 -0.2592
 1265SOL     OW 5089   3.437   1.535   2.860 -0.5286 -0.2919  0.6204
 1265SOL    HW2 5090   3.363   1.586   2.893 -0.0670 -0.2740  1.6530
 1265SOL    HW3 5091   3.501   1.536   2.932  0.1452 -0.9695  0.0401
 1265SOL    MW4 5092   3.436   1.542   2.874 -0.3788 -0.3790  0.6800
 1266SOL     OW 5093   2.338   2.763   0.742  0.7161  0.5234  0.3006
 1266SOL    HW2 5094   2.365   2.854   0.751  2.0511  0.1683 -0.0566
 1266SOL    HW3 5095   2.391   2.728   0.670 -1.7569  0.2141 -1.4344
 1266SOL    MW4 5096   2.348   2.770   0.734  0.5659  0.4357  0.0246
 1267SOL     OW 5097   3.643   3.963   2.775  0.0912  0.2866  0.2227
 1267SOL    HW2 5098   3.680   3.997   2.693 -0.3455  0.5790  0.1456
 1267SOL    HW3 5099   3.713   3.974   2.839  0.2417  0.5669  0.0113
 1267SOL    MW4 5100   3.657   3.969   2.772  0.0534  0.3621  0.1846
 1268SOL     OW 5101   3.385   0.570   0.853  0.1335 -0.6480  0.4573
 1268SOL    HW2 5102   3.419   0.657   0.834 -1.3445 -0.1730 -0.1195
 1268SOL    HW3 5103   3.433   0.541   0.930  1.2634  0.3120  0.1246
 1268SOL    MW4 5104   3.396   0.578   0.861  0.0876 -0.4586  0.3373
 1269SOL     OW 5105   3.470   1.632   4.025  0.4531 -0.0282 -0.0986
 1269SOL    HW2 5106   3.544   1.693   4.031 -1.0519  1.8016  0.0409
 1269SOL    HW3 5107   3.395   1.686   4.002 -0.7745 -1.9524 -0.7501
 1269SOL    MW4 5108   3.470   1.647   4.023  0.0926 -0.0407 -0.1662
 1270SOL     OW 5109   2.276   4.273   1.136  0.0754  0.0890  0.5039
 1270SOL    HW2 5110   2.271   4.295   1.230  0.6852 -2.2433  1.1002
 1270SOL    HW3 5111   2.233   4.347   1.093 -0.8054  0.8943  2.6568
 1270SOL    MW4 5112   2.270   4.286   1.143  0.0397 -0.1125  0.8666
 1271SOL     OW 5113   0.885   4.256   2.186  0.0341  0.4617 -0.0430
 1271SOL    HW2 5114   0.833   4.176   2.193  1.1435 -0.1682  1.2733
 1271SOL    HW3 5115   0.820   4.326   2.177 -0.9322 -0.6185 -1.5637
 1271SOL    MW4 5116   0.870   4.255   2.186  0.0530  0.2361 -0.0700
 1272SOL     OW 5117   1.495   1.900   2.522 -0.6807  0.2925  0.0373
 1272SOL    HW2 5118   1.437   1.972   2.498 -2.4514 -1.1593 -0.1585
 1272SOL    HW3 5119   1.513   1.912   2.615  0.6185  2.0571 -0.4132
 1272SOL    MW4 5120   1.490   1.911   2.531 -0.7429  0.3338 -0.0479
 1273SOL     OW 5121   1.444   4.118   0.421  0.2055  0.4886 -0.2735
 1273SOL    HW2 5122   1.463   4.074   0.338 -0.6124 -1.1753  0.4005
 1273SOL    HW3 5123   1.527   4.116   0.469 -0.0340 -1.1489  0.1095
 1273SOL    MW4 5124   1.458   4.112   0.417  0.0660  0.0530 -0.1340
 1274SOL     OW 5125   1.234   1.201   1.754 -0.1394  0.4008 -0.5267
 1274SOL    HW2 5126   1.233   1.160   1.840  0.1819 -0.7296 -1.0500
 1274SOL    HW3 5127   1.144   1.193   1.723  0.0333 -0.4230 -0.8493
 1274SOL    MW4 5128   1.222   1.194   1.761 -0.0742  0.1430 -0.6383
 1275SOL     OW 5129   2.901   2.938   2.991 -0.2354 -0.3081  0.0194
 1275SOL    HW2 5130   2.970   2.997   2.961 -1.7899  1.8687  0.6328
 1275SOL    HW3 5131   2.922   2.921   3.083  1.2965 -2.3413 -0.6593
 1275SOL    MW4 5132   2.913   2.943   2.999 -0.2384 -0.2892  0.0108
 1276SOL     OW 5133   3.900   2.194   3.468  0.3969  0.2087  0.2821
 1276SOL    HW2 5134   3.855   2.131   3.411  2.2543 -1.9158  1.0717
 1276SOL    HW3 5135   3.861   2.181   3.554  0.6936  0.2025  0.4182
 1276SOL    MW4 5136   3.889   2.184   3.472  0.6811 -0.0724  0.4042
 1277SOL     OW 5137   0.371   4.114   3.880  0.5507  0.1331  0.0771
 1277SOL    HW2 5138   0.319   4.138   3.803 -1.4905 -0.1251  1.3198
 1277SOL    HW3 5139   0.407   4.028   3.860 -0.0140  0.0480 -0.5691
 1277SOL    MW4 5140   0.369   4.106   3.867  0.2069  0.0878  0.1558
 1278SOL     OW 5141   1.136   0.651   0.931 -0.3273  0.0749  0.5115
 1278SOL    HW2 5142   1.194   0.583   0.965 -0.6868  0.1047  1.2003
 1278SOL    HW3 5143   1.168   0.732   0.972 -0.5078  0.1727  0.4586
 1278SOL    MW4 5144   1.148   0.653   0.941 -0.3985  0.0917  0.5954
 1279SOL     OW 5145   0.760   4.607   3.625 -0.1424  0.8544 -0.2683
 1279SOL    HW2 5146   0.781   4.630   3.715  2.3557  2.3624 -1.1915
 1279SOL    HW3 5147   0.664   4.601   3.624 -0.0899 -1.6075  3.0039
 1279SOL    MW4 5148   0.750   4.609   3.637  0.1941  0.7285  0.0416
 1280SOL     OW 5149   3.539   1.175   2.083  0.0866 -0.1769 -0.7151
 1280SOL    HW2 5150   3.623   1.207   2.115  0.3890 -1.2339 -0.4338
 1280SOL    HW3 5151   3.492   1.148   2.162 -0.5775  0.5377 -0.8586
 1280SOL    MW4 5152   3.544   1.176   2.097  0.0389 -0.2221 -0.6969
 1281SOL     OW 5153   0.511   3.005   2.598  0.2635 -0.5329  0.5801
 1281SOL    HW2 5154   0.584   2.959   2.639  0.4534  0.3048  1.1969
 1281SOL    HW3 5155   0.543   3.095   2.586 -0.3369 -0.3911  0.0098
 1281SOL    MW4 5156   0.525   3.011   2.602  0.2093 -0.4037  0.5862
 1282SOL     OW 5157   2.128   3.939   2.582 -0.1002  0.1027  0.0577
 1282SOL    HW2 5158   2.142   4.027   2.617 -1.1231 -0.1725  1.1944
 1282SOL    HW3 5159   2.169   3.941   2.496  0.2457  1.5710  0.2393
 1282SOL    MW4 5160   2.135   3.951   2.575 -0.1895  0.2601  0.2316
 1283SOL     OW 5161   3.834   0.429   2.279 -0.5237 -0.6217  0.2212
 1283SOL    HW2 5162   3.869   0.375   2.350  0.3010 -1.7518 -1.0205
 1283SOL    HW3 5163   3.749   0.389   2.259 -0.7391 -0.3264  0.5444
 1283SOL    MW4 5164   3.827   0.416   2.286 -0.4433 -0.7319  0.1000
 1284SOL     OW 5165   1.447   4.067   1.451 -0.4080  0.4718 -0.1999
 1284SOL    HW2 5166   1.362   4.047   1.490  0.3404 -2.9730 -0.2017
 1284SOL    HW3 5167   1.510   4.061   1.523  0.1716  0.4447 -0.6972
 1284SOL    MW4 5168   1.444   4.064   1.466 -0.2328  0.0137 -0.2657
 1285SOL     OW 5169   4.287   2.449   4.073 -0.5858 -0.2816 -0.3071
 1285SOL    HW2 5170   4.279   2.486   4.161  1.7603 -1.6782  0.5322
 1285SOL    HW3 5171   4.321   2.361   4.087  1.2887  0.0205 -2.6751
 1285SOL    MW4 5172   4.291   2.442   4.086 -0.0289 -0.4260 -0.5088
 1286SOL     OW 5173   1.443   3.293   0.740  0.3065 -0.2971  0.7295
 1286SOL    HW2 5174   1.527   3.311   0.783  0.1517 -0.7145  1.1953
 1286SOL    HW3 5175   1.467   3.275   0.649  0.7602 -0.7872  0.9452
 1286SOL    MW4 5176   1.457   3.293   0.733  0.3460 -0.4168  0.8194
 1287SOL     OW 5177   2.891   3.956   3.485  0.0149 -0.1719 -0.2628
 1287SOL    HW2 5178   2.944   4.012   3.429 -0.3416  0.3877 -0.0450
 1287SOL    HW3 5179   2.896   3.996   3.572 -1.8134  0.6291 -0.5041
 1287SOL    MW4 5180   2.899   3.968   3.489 -0.2734  0.0076 -0.2659
 1288SOL     OW 5181   1.727   4.087   0.509  0.1794 -0.0382  0.3992
 1288SOL    HW2 5182   1.771   4.172   0.504 -0.4463  0.2414 -0.5286
 1288SOL    HW3 5183   1.732   4.062   0.601 -2.0793  2.3233  1.2203
 1288SOL    MW4 5184   1.734   4.095   0.520 -0.2012  0.3102  0.3851
 1289SOL     OW 5185   0.018   1.069   2.642  0.0193 -0.3579 -0.1662
 1289SOL    HW2 5186   0.097   1.059   2.694 -0.5191  1.4457  1.0540
 1289SOL    HW3 5187   0.013   1.162   2.623 -2.1387 -0.3419  0.3234
 1289SOL    MW4 5188   0.028   1.080   2.646 -0.3365 -0.1178  0.0594
 1290SOL     OW 5189   2.000   0.844   0.837  0.6563  0.2691 -0.2669
 1290SOL    HW2 5190   2.090   0.844   0.870  0.3384 -0.2096  0.6213
 1290SOL    HW3 5191   1.988   0.757   0.799  0.4961  0.2557 -0.1865
 1290SOL    MW4 5192   2.010   0.833   0.836  0.5932  0.2041 -0.1391
 1291SOL     OW 5193   0.144   3.829   1.535 -0.1465 -0.5377 -0.0274
 1291SOL    HW2 5194   0.116   3.776   1.461 -0.4637 -1.0522  0.4581
 1291SOL    HW3 5195   0.227   3.790   1.563  0.7743  0.6128 -1.0820
 1291SOL    MW4 5196   0.151   3.817   1.529 -0.0668 -0.4538 -0.1025
 1292SOL     OW 5197   3.999   3.487   1.261 -0.1146  0.2259  0.2066
 1292SOL    HW2 5198   4.034   3.428   1.194 -0.0294 -1.2454  1.5341
 1292SOL    HW3 5199   3.977   3.567   1.212  1.3078 -0.2809 -1.3314
 1292SOL    MW4 5200   4.001   3.490   1.245  0.0843 -0.0351  0.1788
 1293SOL     OW 5201   0.387   2.877   4.403  0.4159  0.7919  0.2250
 1293SOL    HW2 5202   0.424   2.879   4.315 -0.1261 -0.6297 -0.0513
 1293SOL    HW3 5203   0.415   2.959   4.443  0.9676  1.2841 -1.1482
 1293SOL    MW4 5204   0.395   2.888   4.397  0.4172  0.6692  0.0074
 1294SOL     OW 5205   0.746   1.258   3.448  0.2715 -0.0716  0.1088
 1294SOL    HW2 5206   0.745   1.204   3.370 -0.5009  0.8460 -0.5274
 1294SOL    HW3 5207   0.771   1.198   3.518  0.3449 -1.0413 -0.7334
 1294SOL    MW4 5208   0.749   1.243   3.447  0.1793 -0.0785 -0.0863
 1295SOL     OW 5209   0.547   3.628   1.141  0.3264 -0.2461 -0.0384
 1295SOL    HW2 5210   0.636   3.614   1.175 -0.1133 -2.3139  0.3193
 1295SOL    HW3 5211   0.550   3.593   1.052 -0.3850 -1.1821  0.3060
 1295SOL    MW4 5212   0.559   3.621   1.134  0.1745 -0.6424  0.0542
 1296SOL     OW 5213   1.863   4.124   4.231 -0.2914  0.3157 -0.3992
 1296SOL    HW2 5214   1.779   4.097   4.266 -0.5131 -0.4304 -1.4795
 1296SOL    HW3 5215   1.924   4.057   4.259 -0.4426 -0.2078 -1.2914
 1296SOL    MW4 5216   1.860   4.112   4.239 -0.3406  0.1482 -0.6594
 1297SOL     OW 5217   3.243   0.257   0.995 -0.3039  0.7675  0.0696
 1297SOL    HW2 5218   3.291   0.217   1.067 -1.8403 -0.1210  0.5994
 1297SOL    HW3 5219   3.242   0.351   1.017 -0.8785  0.4896  1.2729
 1297SOL    MW4 5220   3.249   0.264   1.007 -0.5824  0.6136  0.2983
 1298SOL     OW 5221   4.267   1.064   3.824  0.0671  0.3142  0.5894
 1298SOL    HW2 5222   4.353   1.085   3.788 -0.0218 -0.0850  0.1499
 1298SOL    HW3 5223   4.274   1.086   3.917  0.6679  0.2025  0.5690
 1298SOL    MW4 5224   4.279   1.070   3.832  0.1347  0.2468  0.5287
 1299SOL     OW 5225   1.784   0.656   4.521 -0.5199  0.3322  0.4830
 1299SOL    HW2 5226   1.710   0.713   4.504 -0.5189 -0.2793 -1.7693
 1299SOL    HW3 5227   1.861   0.710   4.505 -0.5113  0.0396 -0.4845
 1299SOL    MW4 5228   1.784   0.670   4.517 -0.5186  0.2129  0.0582
 1300SOL     OW 5229   0.598   2.633   2.733  0.6284 -0.4607 -0.1268
 1300SOL    HW2 5230   0.653   2.562   2.766 -1.0685 -1.1643  1.2855
 1300SOL    HW3 5231   0.562   2.673   2.812 -2.0824 -1.0125 -1.0444
 1300SOL    MW4 5232   0.601   2.629   2.748  0.0469 -0.6264 -0.0616
 1301SOL     OW 5233   2.762   2.874   3.427 -0.5857 -0.2325  0.3277
 1301SOL    HW2 5234   2.791   2.960   3.458 -0.0330  0.0057 -0.8456
 1301SOL    HW3 5235   2.678   2.890   3.386 -1.4112 -0.5815  1.8374
 1301SOL    MW4 5236   2.755   2.887   3.426 -0.6217 -0.2472  0.3721
 1302SOL     OW 5237   0.242   3.506   2.091 -0.0601 -0.2673 -0.6731
 1302SOL    HW2 5238   0.149   3.488   2.074  0.1530 -0.6509 -1.4530
 1302SOL    HW3 5239   0.257   3.469   2.178 -0.4217 -1.0038 -0.9192
 1302SOL    MW4 5240   0.232   3.499   2.100 -0.0797 -0.4151 -0.8085
 1303SOL     OW 5241   1.573   1.496   1.025 -0.1258 -0.5753 -0.1010
 1303SOL    HW2 5242   1.591   1.493   1.119 -0.2507  2.1587  0.0424
 1303SOL    HW3 5243   1.480   1.475   1.018 -0.3114  0.0345  0.4674
 1303SOL    MW4 5244   1.563   1.493   1.036 -0.1667 -0.1341 -0.0071
 1304SOL     OW 5245   3.231   2.268   0.649 -0.2013  0.1055  0.1664
 1304SOL    HW2 5246   3.245   2.327   0.722  0.5493 -1.8414  1.6600
 1304SOL    HW3 5247   3.318   2.253   0.613 -0.5644  1.0395 -1.1473
 1304SOL    MW4 5248   3.244   2.273   0.654 -0.1502 -0.0281  0.1902
 1305SOL     OW 5249   3.133   0.227   1.959 -0.0412 -0.4237 -0.2364
 1305SOL    HW2 5250   3.057   0.270   1.997 -0.3992 -1.8893  0.7533
 1305SOL    HW3 5251   3.203   0.291   1.965 -0.7904  0.3458  0.3528
 1305SOL    MW4 5252   3.132   0.241   1.965 -0.1873 -0.5156 -0.0281
 1306SOL     OW 5253   3.130   2.548   3.931  0.1354  0.0539 -0.0445
 1306SOL    HW2 5254   3.041   2.560   3.897  0.2872  0.0108 -0.4617
 1306SOL    HW3 5255   3.119   2.485   4.003 -0.3473  1.0242  0.7409
 1306SOL    MW4 5256   3.117   2.541   3.936  0.0918  0.1763  0.0041
 1307SOL     OW 5257   1.792   0.946   1.213 -0.4315  0.1323 -0.4910
 1307SOL    HW2 5258   1.811   0.983   1.127 -0.0417 -0.4319 -0.6485
 1307SOL    HW3 5259   1.698   0.928   1.211 -0.3614 -0.1818 -0.9141
 1307SOL    MW4 5260   1.782   0.949   1.202 -0.3708  0.0164 -0.5676
 1308SOL     OW 5261   1.676   0.802   3.370 -0.0241  1.0319 -0.2025
 1308SOL    HW2 5262   1.620   0.767   3.301  0.2548 -0.1317  0.1562
 1308SOL    HW3 5263   1.669   0.897   3.360  1.3182  0.8978 -2.8988
 1308SOL    MW4 5264   1.667   0.810   3.359  0.1898  0.8607 -0.5109
 1309SOL     OW 5265   3.994   2.700   2.609  0.0138 -0.8743 -0.0459
 1309SOL    HW2 5266   4.008   2.642   2.683 -1.3346  0.1344  1.0372
 1309SOL    HW3 5267   4.079   2.741   2.593  0.2666 -0.9731  1.0412
 1309SOL    MW4 5268   4.007   2.698   2.616 -0.1308 -0.7542  0.2404
 1310SOL     OW 5269   2.920   1.246   2.114 -0.1667  0.1974 -0.0542
 1310SOL    HW2 5270   2.955   1.164   2.080 -0.2932  1.0207 -2.2565
 1310SOL    HW3 5271   2.987   1.311   2.094 -0.7284  0.8928  0.3036
 1310SOL    MW4 5272   2.933   1.244   2.107 -0.2575  0.3978 -0.2976
 1311SOL     OW 5273   3.349   2.176   3.751  0.1880  0.3798  0.1312
 1311SOL    HW2 5274   3.262   2.145   3.774  0.3236 -1.0592 -1.2300
 1311SOL    HW3 5275   3.337   2.269   3.733 -1.2475  0.0191 -0.8656
 1311SOL    MW4 5276   3.336   2.184   3.752  0.0165  0.1423 -0.1799
 1312SOL     OW 5277   3.187   2.457   2.456  0.5759  0.6427 -0.6308
 1312SOL    HW2 5278   3.181   2.540   2.409 -1.2497  1.5707  1.1609
 1312SOL    HW3 5279   3.266   2.466   2.510 -0.1293  1.6029  0.2592
 1312SOL    MW4 5280   3.197   2.469   2.457  0.2420  0.8918 -0.2770
 1313SOL     OW 5281   2.768   2.189   2.009  0.3159 -0.2532 -0.4369
 1313SOL    HW2 5282   2.725   2.256   1.955 -0.0748  0.3840  0.6503
 1313SOL    HW3 5283   2.705   2.171   2.079  1.7770  0.6429  1.1420
 1313SOL    MW4 5284   2.754   2.196   2.011  0.4572 -0.0509 -0.0852
 1314SOL     OW 5285   2.082   1.177   0.958  0.3330  0.6599  0.2674
 1314SOL    HW2 5286   2.078   1.272   0.970 -1.4151  0.7308 -0.7264
 1314SOL    HW3 5287   1.991   1.149   0.956  0.8263 -0.9839  0.0972
 1314SOL    MW4 5288   2.069   1.186   0.959  0.1675  0.4524  0.1138
 1315SOL     OW 5289   2.328   1.543   2.530 -0.0558  0.0674  0.0280
 1315SOL    HW2 5290   2.369   1.526   2.445 -0.7532 -2.1462  0.0905
 1315SOL    HW3 5291   2.385   1.497   2.593  0.4817  1.7280  0.7655
 1315SOL    MW4 5292   2.341   1.534   2.528 -0.0769 -0.0055  0.1336
 1316SOL     OW 5293   2.699   0.952   2.946 -0.2807  0.2645  0.5972
 1316SOL    HW2 5294   2.708   0.857   2.943  0.9156  0.4208 -2.8625
 1316SOL    HW3 5295   2.789   0.985   2.949 -0.6769  1.3211  1.4729
 1316SOL    MW4 5296   2.712   0.944   2.946 -0.1751  0.4245  0.2563
 1317SOL     OW 5297   1.629   4.307   3.917 -0.3289  0.1028  0.4247
 1317SOL    HW2 5298   1.574   4.236   3.952  1.1652 -0.4097  1.7760
 1317SOL    HW3 5299   1.673   4.343   3.994  1.8781 -0.0359 -0.7425
 1317SOL    MW4 5300   1.627   4.303   3.932  0.1594  0.0169  0.4490
 1318SOL     OW 5301   3.552   0.569   1.406  0.1913  0.2928  0.5755
 1318SOL    HW2 5302   3.458   0.563   1.390  0.3029  0.5261 -0.1918
 1318SOL    HW3 5303   3.560   0.574   1.502 -0.5799  0.4170  0.6372
 1318SOL    MW4 5304   3.541   0.569   1.417  0.1043  0.3400  0.4824
 1319SOL     OW 5305   3.066   2.814   2.064  0.5612  0.1846 -0.1612
 1319SOL    HW2 5306   2.984   2.784   2.024 -0.0679 -0.4256  1.5444
 1319SOL    HW3 5307   3.083   2.751   2.134  1.8155  1.0542  0.3329
 1319SOL    MW4 5308   3.058   2.802   2.068  0.6437  0.2189  0.1290
 1320SOL     OW 5309   2.353   2.127   3.795 -0.1424  0.3646 -0.0951
 1320SOL    HW2 5310   2.344   2.074   3.875  0.9425 -0.1320 -0.2865
 1320SOL    HW3 5311   2.335   2.216   3.823 -1.4809 -0.0232  0.3427
 1320SOL    MW4 5312   2.349   2.132   3.809 -0.1759  0.2479 -0.0626
 1321SOL     OW 5313   0.902   1.511   1.736  0.1753 -0.1419  0.2689
 1321SOL    HW2 5314   0.867   1.598   1.714 -0.8816 -0.8485 -0.9322
 1321SOL    HW3 5315   0.825   1.459   1.757  0.7183 -1.0833 -0.0507
 1321SOL    MW4 5316   0.887   1.516   1.736  0.1075 -0.3594  0.0683
 1322SOL     OW 5317   2.928   2.222   0.569  0.2194 -0.0644 -0.2221
 1322SOL    HW2 5318   3.013   2.265   0.555  0.3244  0.0904  0.8526
 1322SOL    HW3 5319   2.924   2.206   0.664 -0.8970 -0.1904 -0.2810
 1322SOL    MW4 5320   2.939   2.225   0.580  0.0859 -0.0606 -0.0881
 1323SOL     OW 5321   0.116   4.136   0.721  0.2579  0.1646 -0.1019
 1323SOL    HW2 5322   0.080   4.048   0.709 -0.1690  0.5930 -2.0816
 1323SOL    HW3 5323   0.039   4.192   0.732  0.4944  0.4388  0.1656
 1323SOL    MW4 5324   0.101   4.131   0.721  0.2328  0.2573 -0.3278
 1324SOL     OW 5325   3.115   0.039   2.381 -0.1731 -0.0542 -0.0795
 1324SOL    HW2 5326   3.123   0.122   2.426 -0.6307 -0.6416  1.0935
 1324SOL    HW3 5327   3.142   0.058   2.291 -1.2391  1.5863 -0.0733
 1324SOL    MW4 5328   3.120   0.052   2.375 -0.3741  0.0847  0.0761
 1325SOL     OW 5329   1.675   1.878   4.208 -0.9120 -0.1864 -0.3461
 1325SOL    HW2 5330   1.641   1.954   4.255  1.1702  0.2771  0.4781
 1325SOL    HW3 5331   1.658   1.804   4.266  0.7942  0.2539  0.7580
 1325SOL    MW4 5332   1.668   1.879   4.222 -0.4122 -0.0672 -0.0917
 1326SOL     OW 5333   0.997   0.856   2.918 -0.0017 -0.3507 -0.0996
 1326SOL    HW2 5334   0.974   0.798   2.846  0.2371 -0.4001 -0.1364
 1326SOL    HW3 5335   0.915   0.871   2.965 -0.2606  0.1057 -0.6954
 1326SOL    MW4 5336   0.983   0.851   2.915 -0.0043 -0.2970 -0.1831
 1327SOL     OW 5337   4.148   2.608   1.827  0.2116  0.3878  0.7177
 1327SOL    HW2 5338   4.159   2.549   1.902  0.9383  0.2591  0.5171
 1327SOL    HW3 5339   4.061   2.647   1.839 -0.3505 -0.8568  0.7609
 1327SOL    MW4 5340   4.138   2.605   1.838  0.2333  0.2066  0.6969
 1328SOL     OW 5341   2.097   2.608   0.691 -0.0554 -0.1756  0.2255
 1328SOL    HW2 5342   2.149   2.527   0.688  1.2863  0.7156 -1.6252
 1328SOL    HW3 5343   2.158   2.674   0.724 -0.3344  0.6607 -0.9203
 1328SOL    MW4 5344   2.112   2.606   0.695  0.0848  0.0523 -0.1699
 1329SOL     OW 5345   1.624   0.097   2.213 -0.4242 -0.5638  0.2332
 1329SOL    HW2 5346   1.585   0.095   2.126 -0.3019 -0.6526  0.1816
 1329SOL    HW3 5347   1.601   0.183   2.247 -0.0757 -0.3511 -0.0666
 1329SOL    MW4 5348   1.616   0.108   2.206 -0.3620 -0.5475  0.1868
 1330SOL     OW 5349   2.209   0.773   3.494  0.0524 -0.1283  0.0631
 1330SOL    HW2 5350   2.128   0.792   3.447  0.5867  0.6642 -0.5469
 1330SOL    HW3 5351   2.217   0.678   3.489 -1.8021 -0.4006  1.7400
 1330SOL    MW4 5352   2.199   0.763   3.487 -0.1218 -0.0596  0.2038
 1331SOL     OW 5353   2.407   2.568   1.294 -0.2533 -0.0658  0.1721
 1331SOL    HW2 5354   2.354   2.633   1.340  0.9259  0.2934  1.0391
 1331SOL    HW3 5355   2.457   2.618   1.230 -1.6325 -0.5239 -1.2890
 1331SOL    MW4 5356   2.406   2.583   1.292 -0.2796 -0.0788  0.0937
 1332SOL     OW 5357   4.434   4.022   1.648 -0.0658 -0.0392  0.3538
 1332SOL    HW2 5358   4.502   3.968   1.608 -0.5685  0.4549 -1.2200
 1332SOL    HW3 5359   4.482   4.092   1.692  0.4791 -0.0164 -0.2604
 1332SOL    MW4 5360   4.449   4.024   1.649 -0.0602  0.0290  0.0651
 1333SOL     OW 5361   0.659   1.356   0.269 -0.0868  0.1947 -0.1854
 1333SOL    HW2 5362   0.564   1.345   0.283  0.1230 -0.1155  1.0594
 1333SOL    HW3 5363   0.685   1.275   0.225 -0.5126  0.5784 -1.1699
 1333SOL    MW4 5364   0.650   1.344   0.265 -0.1153  0.2044 -0.1511
 1334SOL     OW 5365   0.338   3.212   1.314 -0.1153  0.5465 -0.2452
 1334SOL    HW2 5366   0.305   3.201   1.225 -1.5773  0.4554  0.2961
 1334SOL    HW3 5367   0.261   3.236   1.366  0.2710 -1.6543  1.4221
 1334SOL    MW4 5368   0.324   3.214   1.309 -0.2572  0.2441  0.0462
 1335SOL     OW 5369   2.691   3.671   3.130  0.1675 -0.6723  0.0679
 1335SOL    HW2 5370   2.667   3.691   3.039 -1.4672  1.5783  0.9441
 1335SOL    HW3 5371   2.764   3.730   3.148 -0.6045  0.1145  0.7046
 1335SOL    MW4 5372   2.697   3.681   3.120 -0.1500 -0.2716  0.2675
 1336SOL     OW 5373   1.061   2.034   1.556 -0.0786 -0.4443  0.3432
 1336SOL    HW2 5374   1.137   2.025   1.499  1.0743 -1.1043  1.9509
 1336SOL    HW3 5375   1.069   1.962   1.619  0.0530  1.7090  2.8867
 1336SOL    MW4 5376   1.072   2.023   1.557  0.0909 -0.2473  0.8909
 1337SOL     OW 5377   3.217   3.007   1.177  0.1571 -0.4273  0.6874
 1337SOL    HW2 5378   3.311   3.025   1.183  0.0165  0.8371 -0.5993
 1337SOL    HW3 5379   3.211   2.926   1.127  0.5623 -0.6795  1.0389
 1337SOL    MW4 5380   3.229   2.999   1.171  0.1920 -0.2938  0.5640
 1338SOL     OW 5381   1.901   1.878   3.818 -0.1122  0.2513  0.1542
 1338SOL    HW2 5382   1.905   1.950   3.755  2.2370  1.2239  1.3344
 1338SOL    HW3 5383   1.936   1.802   3.770  0.0176  0.5583 -0.2422
 1338SOL    MW4 5384   1.906   1.877   3.803  0.2149  0.4201  0.2576
 1339SOL     OW 5385   2.923   0.575   3.062  0.2290  0.0087  0.1395
 1339SOL    HW2 5386   2.919   0.489   3.103  0.4655 -0.6807 -1.2719
 1339SOL    HW3 5387   2.953   0.633   3.133  0.1383 -1.0630  1.0805
 1339SOL    MW4 5388   2.927   0.571   3.077  0.2482 -0.2237  0.0774
 1340SOL     OW 5389   2.838   4.371   3.360 -0.0443 -0.2293 -0.4251
 1340SOL    HW2 5390   2.758   4.385   3.411 -0.3473 -1.0296 -0.6630
 1340SOL    HW3 5391   2.809   4.320   3.284  1.0010 -2.3164  0.5121
 1340SOL    MW4 5392   2.824   4.366   3.357  0.0536 -0.6103 -0.3328
 1341SOL     OW 5393   2.667   1.638   2.245  0.1827 -0.7691  0.2488
 1341SOL    HW2 5394   2.615   1.686   2.181  0.4740  0.1736  0.7033
 1341SOL    HW3 5395   2.695   1.705   2.308 -0.4236 -1.7262  1.5736
 1341SOL    MW4 5396   2.663   1.653   2.245  0.1412 -0.7710  0.4836
 1342SOL     OW 5397   4.039   1.378   3.024 -0.3046 -0.2841  0.4265
 1342SOL    HW2 5398   4.098   1.314   3.064 -1.8898 -1.8047  0.4150
 1342SOL    HW3 5399   3.981   1.325   2.969 -0.6426  1.3508 -0.8312
 1342SOL    MW4 5400   4.039   1.362   3.022 -0.5583 -0.2690  0.2590
 1343SOL     OW 5401   1.344   2.091   0.863  0.2720  0.0733  0.3534
 1343SOL    HW2 5402   1.338   2.129   0.775  0.4736  0.3810  0.4703
 1343SOL    HW3 5403   1.428   2.123   0.897  0.2279 -0.1041  0.6286
 1343SOL    MW4 5404   1.355   2.100   0.856  0.2928  0.0905  0.4051
 1344SOL     OW 5405   4.054   1.640   1.555 -0.5956 -0.2113 -0.4664
 1344SOL    HW2 5406   4.081   1.698   1.626 -2.4912 -0.2531  0.3130
 1344SOL    HW3 5407   4.105   1.560   1.570 -1.1774 -0.3201  1.0211
 1344SOL    MW4 5408   4.064   1.637   1.567 -0.9225 -0.2311 -0.1673
 1345SOL     OW 5409   1.014   4.566   3.288  0.1821 -0.4874  0.4373
 1345SOL    HW2 5410   1.096   4.592   3.246 -0.6561  1.3936 -0.0936
 1345SOL    HW3 5411   0.977   4.499   3.230  0.3289  0.1613 -0.4072
 1345SOL    MW4 5412   1.020   4.560   3.275  0.0909 -0.1536  0.2558
 1346SOL     OW 5413   2.168   1.778   0.971  0.1898  0.2313  0.0759
 1346SOL    HW2 5414   2.192   1.782   1.064  1.2305 -1.9424 -0.0794
 1346SOL    HW3 5415   2.083   1.735   0.970 -0.2117  1.0184  0.0739
 1346SOL    MW4 5416   2.160   1.773   0.983  0.2741  0.0484  0.0551
 1347SOL     OW 5417   1.724   2.761   2.382  0.4798 -0.0796 -0.0164
 1347SOL    HW2 5418   1.781   2.831   2.412 -2.4732  1.8318  1.3200
 1347SOL    HW3 5419   1.739   2.757   2.287  0.7583  2.3373 -0.1091
 1347SOL    MW4 5420   1.733   2.770   2.373  0.1269  0.4915  0.1477
 1348SOL     OW 5421   3.180   0.526   1.093 -0.2474  0.2389 -0.1932
 1348SOL    HW2 5422   3.187   0.523   1.188  1.9213 -0.4149 -0.3423
 1348SOL    HW3 5423   3.164   0.618   1.072 -0.2307  0.4645  0.7802
 1348SOL    MW4 5424   3.179   0.537   1.103  0.0409  0.1824 -0.0844
 1349SOL     OW 5425   0.525   4.565   1.777 -0.2326 -0.0539  0.0564
 1349SOL    HW2 5426   0.601   4.551   1.721 -1.2826 -2.1424 -0.9415
 1349SOL    HW3 5427   0.537   4.503   1.849  0.3401  1.5252  1.3348
 1349SOL    MW4 5428   0.537   4.555   1.779 -0.2956 -0.1211  0.0934
 1350SOL     OW 5429   0.771   4.024   4.083 -0.2548  0.4513 -0.2472
 1350SOL    HW2 5430   0.799   4.111   4.112 -0.9583  0.5196  0.2620
 1350SOL    HW3 5431   0.801   4.017   3.993  0.4047  0.9514 -0.0679
 1350SOL    MW4 5432   0.778   4.034   4.075 -0.2606  0.5263 -0.1563
 1351SOL     OW 5433   0.105   2.761   0.905  0.1152 -0.3709 -0.0904
 1351SOL    HW2 5434   0.050   2.682   0.909  0.4123 -0.5885 -0.3373
 1351SOL    HW3 5435   0.061   2.817   0.841  1.0195 -1.1891 -1.4588
 1351SOL    MW4 5436   0.092   2.758   0.897  0.2737 -0.5076 -0.3035
 1352SOL     OW 5437   1.380   4.202   2.538  0.0185  0.8863  0.2369
 1352SOL    HW2 5438   1.298   4.250   2.535  0.1381  1.1970  1.6807
 1352SOL    HW3 5439   1.358   4.118   2.578  0.1479  0.4233 -0.6445
 1352SOL    MW4 5440   1.366   4.197   2.543  0.0514  0.8662  0.3111
 1353SOL     OW 5441   0.749   1.928   2.767 -0.2246  0.0751  0.2069
 1353SOL    HW2 5442   0.795   1.991   2.712 -0.5518 -0.7054 -0.9903
 1353SOL    HW3 5443   0.661   1.964   2.778 -0.1150  0.3012  0.3313
 1353SOL    MW4 5444   0.743   1.941   2.761 -0.2533  0.0020  0.0654
 1354SOL     OW 5445   3.325   3.622   2.639 -0.3178  0.4493  0.4310
 1354SOL    HW2 5446   3.364   3.538   2.617 -0.4212  0.4406  0.2763
 1354SOL    HW3 5447   3.318   3.667   2.555  0.9280  1.1221  0.6669
 1354SOL    MW4 5448   3.329   3.617   2.625 -0.1671  0.5369  0.4417
 1355SOL     OW 5449   1.264   3.854   3.474 -0.7115  0.0853 -0.1145
 1355SOL    HW2 5450   1.331   3.910   3.433  1.4727 -1.0457  1.7929
 1355SOL    HW3 5451   1.220   3.912   3.536 -0.8342  0.5770 -0.6543
 1355SOL    MW4 5452   1.267   3.869   3.477 -0.4395  0.0010  0.0659
 1356SOL     OW 5453   3.037   1.180   1.004  0.3396  0.2774 -0.1072
 1356SOL    HW2 5454   2.946   1.205   0.990 -0.1582 -1.5789 -0.4280
 1356SOL    HW3 5455   3.078   1.189   0.918  0.2830  0.4758 -0.1129
 1356SOL    MW4 5456   3.030   1.184   0.991  0.2665  0.0586 -0.1503
 1357SOL     OW 5457   3.172   2.807   4.027  0.0871 -0.0659 -0.2659
 1357SOL    HW2 5458   3.149   2.805   4.120  1.2734  1.5543  0.0762
 1357SOL    HW3 5459   3.142   2.722   3.994 -1.6967 -0.0696  1.2621
 1357SOL    MW4 5460   3.165   2.795   4.035  0.0082  0.1474 -0.0192
 1358SOL     OW 5461   2.182   2.690   3.362  0.0211  0.1864  0.4444
 1358SOL    HW2 5462   2.191   2.730   3.276  0.4443  1.1527  0.9294
 1358SOL    HW3 5463   2.225   2.605   3.355  0.0761  0.2789 -0.2877
 1358SOL    MW4 5464   2.189   2.684   3.350  0.0842  0.3261  0.4118
 1359SOL     OW 5465   2.152   1.422   4.647 -0.1907 -0.4027  0.3074
 1359SOL    HW2 5466   2.154   1.330   4.618  1.2322  0.3034 -1.8764
 1359SOL    HW3 5467   2.233   1.433   4.696  0.0962 -0.0317 -0.2593
 1359SOL    MW4 5468   2.163   1.411   4.649  0.0349 -0.2606 -0.0555
 1360SOL     OW 5469   1.217   4.283   0.492 -0.5443  0.0679  0.1180
 1360SOL    HW2 5470   1.282   4.225   0.452 -1.3472 -0.0882 -0.9743
 1360SOL    HW3 5471   1.210   4.356   0.431 -0.8023  0.4799  0.6377
 1360SOL    MW4 5472   1.225   4.285   0.479 -0.6843  0.1017  0.0424
 1361SOL     OW 5473   1.424   0.545   3.385 -0.2485 -0.4974  0.0946
 1361SOL    HW2 5474   1.393   0.598   3.459 -0.2391  0.1472 -0.3630
 1361SOL    HW3 5475   1.434   0.607   3.313 -0.1517 -1.1065 -0.4237
 1361SOL    MW4 5476   1.421   0.560   3.385 -0.2345 -0.4927 -0.0342
 1362SOL     OW 5477   2.926   0.404   0.388 -0.4958  0.4706  0.5170
 1362SOL    HW2 5478   2.887   0.363   0.465 -0.8917 -1.4895 -0.7089
 1362SOL    HW3 5479   2.975   0.334   0.345 -0.6935  1.4103 -1.2841
 1362SOL    MW4 5480   2.928   0.390   0.392 -0.5741  0.3360  0.1176
 1363SOL     OW 5481   4.173   1.389   1.309  0.0655 -0.0430 -0.8569
 1363SOL    HW2 5482   4.081   1.363   1.318 -0.1181  0.6953 -0.5507
 1363SOL    HW3 5483   4.212   1.320   1.255 -0.0274 -1.8601  1.2952
 1363SOL    MW4 5484   4.166   1.376   1.303  0.0290 -0.1854 -0.5326
 1364SOL     OW 5485   0.264   3.640   4.219  0.2540 -0.2522 -0.4274
 1364SOL    HW2 5486   0.289   3.576   4.285  3.2212  0.5470 -0.7275
 1364SOL    HW3 5487   0.187   3.683   4.256  0.3119 -1.5836  1.3211
 1364SOL    MW4 5488   0.257   3.637   4.233  0.6531 -0.3224 -0.2363
 1365SOL     OW 5489   3.392   1.204   3.278  0.2440  0.1645 -0.5679
 1365SOL    HW2 5490   3.323   1.265   3.301 -0.5091 -0.4381 -1.1904
 1365SOL    HW3 5491   3.472   1.243   3.314 -0.5509  0.3950  0.9960
 1365SOL    MW4 5492   3.394   1.217   3.286  0.0397  0.1154 -0.4437
 1366SOL     OW 5493   1.961   4.591   1.203 -0.0376 -0.3800 -0.2107
 1366SOL    HW2 5494   1.945   4.507   1.159  0.0282  0.6485 -2.2985
 1366SOL    HW3 5495   1.916   4.655   1.147  1.3090  1.1556  0.4362
 1366SOL    MW4 5496   1.953   4.588   1.190  0.1487 -0.0417 -0.4008
 1367SOL     OW 5497   1.645   3.503   0.874  0.2223  0.0550  0.4458
 1367SOL    HW2 5498   1.707   3.511   0.802 -0.7553 -0.1560 -0.4373
 1367SOL    HW3 5499   1.566   3.547   0.843 -0.6486 -1.1717  0.8689
 1367SOL    MW4 5500   1.643   3.510   0.861 -0.0216 -0.1347  0.3851
 1368SOL     OW 5501   4.467   3.856   2.572  0.5678  0.1799  0.5123
 1368SOL    HW2 5502   4.386   3.812   2.596  0.1924  1.2980  1.3389
 1368SOL    HW3 5503   4.505   3.884   2.656  1.4120  0.3443  0.0846
 1368SOL    MW4 5504   4.462   3.854   2.586  0.6297  0.3491  0.5650
 1369SOL     OW 5505   0.301   2.070   1.392  0.1697 -0.1648  0.0864
 1369SOL    HW2 5506   0.280   1.977   1.396  1.5601 -0.4361  1.4861
 1369SOL    HW3 5507   0.258   2.108   1.468 -0.5378  0.3831 -0.5753
 1369SOL    MW4 5508   0.292   2.063   1.402  0.2598 -0.1283  0.1838
 1370SOL     OW 5509   1.537   2.653   4.342  0.1959 -0.0281  0.6346
 1370SOL    HW2 5510   1.629   2.626   4.342 -0.1480 -1.2159  0.4848
 1370SOL    HW3 5511   1.540   2.745   4.368  1.5612  0.3948 -0.8941
 1370SOL    MW4 5512   1.550   2.662   4.346  0.3307 -0.1290  0.4132
 1371SOL     OW 5513   0.964   3.468   1.431  0.3169 -0.1696 -0.4262
 1371SOL    HW2 5514   0.949   3.442   1.521 -0.1967 -0.4808 -0.6007
 1371SOL    HW3 5515   1.060   3.476   1.423  0.5196 -2.3584 -0.4732
 1371SOL    MW4 5516   0.975   3.466   1.442  0.2759 -0.4995 -0.4554
 1372SOL     OW 5517   1.431   2.573   2.327 -0.0405 -0.2237 -0.2838
 1372SOL    HW2 5518   1.435   2.633   2.253  0.1098  1.5440  1.1068
 1372SOL    HW3 5519   1.518   2.533   2.332  0.0547 -0.0816 -0.8355
 1372SOL    MW4 5520   1.443   2.576   2.318 -0.0081  0.0283 -0.1731
 1373SOL     OW 5521   3.158   0.511   2.197 -0.0933 -0.1518 -0.0277
 1373SOL    HW2 5522   3.120   0.593   2.230 -0.7328 -0.9638  1.2968
 1373SOL    HW3 5523   3.083   0.457   2.173  0.2844 -0.8226  0.2804
 1373SOL    MW4 5524   3.143   0.515   2.198 -0.1279 -0.3475  0.1877
 1374SOL     OW 5525   0.712   2.175   0.810  0.0769  0.1151 -0.2480
 1374SOL    HW2 5526   0.653   2.100   0.799 -2.0354  1.4638  1.4947
 1374SOL    HW3 5527   0.689   2.212   0.895 -0.0814  3.7400 -1.7649
 1374SOL    MW4 5528   0.701   2.170   0.820 -0.2227  0.7713 -0.2182
 1375SOL     OW 5529   1.884   4.359   1.588 -0.5209  0.1891  0.2542
 1375SOL    HW2 5530   1.828   4.320   1.521 -0.6099 -0.2490  0.5767
 1375SOL    HW3 5531   1.931   4.429   1.543 -0.8807  0.1664 -0.1653
 1375SOL    MW4 5532   1.883   4.363   1.574 -0.5801  0.1283  0.2414
 1376SOL     OW 5533   2.938   1.107   2.622 -0.2057 -0.2676 -0.1611
 1376SOL    HW2 5534   2.988   1.027   2.609 -1.0560 -1.1801  2.0118
 1376SOL    HW3 5535   2.880   1.111   2.546 -0.0783 -1.6599 -0.3479
 1376SOL    MW4 5536   2.937   1.097   2.610 -0.3011 -0.5717  0.1010
 1377SOL     OW 5537   3.267   2.446   3.713 -0.2507 -0.4090  0.1869
 1377SOL    HW2 5538   3.208   2.475   3.782 -0.2649 -0.3857  0.1650
 1377SOL    HW3 5539   3.296   2.526   3.670 -2.1137 -0.5552 -1.3991
 1377SOL    MW4 5540   3.263   2.460   3.716 -0.4983 -0.4252 -0.0252
 1378SOL     OW 5541   2.588   1.121   2.692  0.2170  0.4699 -0.1205
 1378SOL    HW2 5542   2.568   1.171   2.613  1.8538  0.4644 -0.5690
 1378SOL    HW3 5543   2.669   1.161   2.725  0.7423 -0.9273  0.3247
 1378SOL    MW4 5544   2.596   1.133   2.686  0.5022  0.2849 -0.1210
 1379SOL     OW 5545   0.395   2.437   3.144  0.3231  0.0214 -0.4391
 1379SOL    HW2 5546   0.385   2.354   3.190  1.0369  0.1829  0.0216
 1379SOL    HW3 5547   0.470   2.479   3.187 -0.1053  0.9517 -0.5890
 1379SOL    MW4 5548   0.404   2.432   3.156  0.3608  0.1654 -0.3981
 1380SOL     OW 5549   0.820   1.029   4.516 -0.1794 -0.2560  0.0426
 1380SOL    HW2 5550   0.757   1.097   4.491 -0.4825 -0.9758 -1.1986
 1380SOL    HW3 5551   0.772   0.947   4.504  0.4541 -0.7326  0.7240
 1380SOL    MW4 5552   0.805   1.027   4.511 -0.1358 -0.4138 -0.0313
 1381SOL     OW 5553   0.701   1.886   1.218 -0.5708  0.0956  0.4401
 1381SOL    HW2 5554   0.770   1.848   1.272 -0.4951 -0.0240  0.2622
 1381SOL    HW3 5555   0.636   1.920   1.280  0.5511  1.9221  0.6530
 1381SOL    MW4 5556   0.701   1.886   1.233 -0.4128  0.3208  0.4447
 1382SOL     OW 5557   3.145   1.686   4.630 -0.3416 -0.3692 -0.1754
 1382SOL    HW2 5558   3.155   1.600   4.589 -0.8206 -0.6546  0.2957
 1382SOL    HW3 5559   3.061   1.681   4.676  0.1416 -0.0318  0.7745
 1382SOL    MW4 5560   3.135   1.674   4.631 -0.3411 -0.3623  0.0121
 1383SOL     OW 5561   3.574   0.009   2.290 -0.1936 -0.1323  0.2350
 1383SOL    HW2 5562   3.562  -0.078   2.328 -1.1820  0.4179  1.1891
 1383SOL    HW3 5563   3.529   0.068   2.350  0.9501  1.1084 -0.1034
 1383SOL    MW4 5564   3.567   0.005   2.303 -0.1731  0.1040  0.3162
 1384SOL     OW 5565   1.125   2.523   4.450 -0.3148  0.2004  0.0442
 1384SOL    HW2 5566   1.052   2.496   4.506 -1.5348 -1.9497 -2.4832
 1384SOL    HW3 5567   1.115   2.618   4.441 -2.5564 -0.0138  0.0629
 1384SOL    MW4 5568   1.114   2.532   4.456 -0.7715 -0.1115 -0.2868
 1385SOL     OW 5569   4.179   0.832   3.280 -0.2558 -0.0837 -0.2485
 1385SOL    HW2 5570   4.157   0.853   3.189  1.4674  0.2530 -0.5986
 1385SOL    HW3 5571   4.273   0.815   3.279  0.0346  1.2381  1.7292
 1385SOL    MW4 5572   4.188   0.832   3.268  0.0099  0.1352 -0.0337
 1386SOL     OW 5573   3.390   3.778   2.414 -0.0547  0.7235  0.2264
 1386SOL    HW2 5574   3.418   3.855   2.463  1.9612 -0.6547  1.3106
 1386SOL    HW3 5575   3.446   3.776   2.337 -1.3454  1.3449 -0.7407
 1386SOL    MW4 5576   3.401   3.788   2.411  0.0410  0.6237  0.2419
 1387SOL     OW 5577   1.090   1.499   2.410 -0.3423  0.0133  0.6767
 1387SOL    HW2 5578   1.097   1.466   2.320 -0.4139 -1.4986  1.2146
 1387SOL    HW3 5579   1.032   1.575   2.402  0.3646  0.4374 -0.6844
 1387SOL    MW4 5580   1.083   1.505   2.397 -0.2585 -0.1302  0.5681
 1388SOL     OW 5581   3.725   4.401   0.920 -0.4525 -0.1081 -0.2346
 1388SOL    HW2 5582   3.712   4.306   0.921 -1.1462 -0.0535 -2.4846
 1388SOL    HW3 5583   3.817   4.412   0.946 -0.4960 -1.3723  0.4869
 1388SOL    MW4 5584   3.736   4.390   0.924 -0.5498 -0.2677 -0.4362
 1389SOL     OW 5585   3.986   2.217   3.095 -0.3815 -0.2382 -0.0550
 1389SOL    HW2 5586   3.903   2.169   3.093 -0.0163 -0.9314  1.1346
 1389SOL    HW3 5587   4.039   2.176   3.026 -0.4419 -0.8558  0.2649
 1389SOL    MW4 5588   3.982   2.206   3.085 -0.3412 -0.4111  0.1441
 1390SOL     OW 5589   4.019   3.821   2.525  0.2347  0.3969 -0.1176
 1390SOL    HW2 5590   3.979   3.769   2.455  1.3748 -1.3757  0.5203
 1390SOL    HW3 5591   3.993   3.911   2.505  1.1885  0.0451 -3.2936
 1390SOL    MW4 5592   4.010   3.826   2.513  0.5110  0.1166 -0.4525
 1391SOL     OW 5593   3.821   2.181   2.724  0.3579 -0.1324 -0.1665
 1391SOL    HW2 5594   3.910   2.167   2.757 -0.1026 -0.8090  0.8186
 1391SOL    HW3 5595   3.788   2.255   2.775  0.3835  0.1868 -0.6060
 1391SOL    MW4 5596   3.828   2.189   2.735  0.3005 -0.1796 -0.0945
 1392SOL     OW 5597   1.506   0.351   2.242  0.2362 -0.6594 -0.4151
 1392SOL    HW2 5598   1.442   0.399   2.188 -0.8888 -0.2998  1.2034
 1392SOL    HW3 5599   1.591   0.377   2.207 -0.3858  1.8908 -0.1019
 1392SOL    MW4 5600   1.509   0.361   2.230  0.0057 -0.2755 -0.1602
 1393SOL     OW 5601   0.918   2.198   0.452 -0.1534 -0.4390  0.6282
 1393SOL    HW2 5602   0.947   2.183   0.542  1.7870  0.8765  0.2379
 1393SOL    HW3 5603   0.842   2.255   0.461  0.0385 -0.2975  1.4434
 1393SOL    MW4 5604   0.912   2.203   0.465  0.1279 -0.2468  0.6842
 1394SOL     OW 5605   0.484   1.728   1.831  0.1107 -0.3781  0.3392
 1394SOL    HW2 5606   0.467   1.748   1.738 -2.5988 -2.2878  0.3829
 1394SOL    HW3 5607   0.503   1.814   1.870  0.5227  0.5595 -1.8231
 1394SOL    MW4 5608   0.484   1.742   1.824 -0.1924 -0.5064  0.0597
 1395SOL     OW 5609   2.209   4.307   1.691  0.0386  0.5003 -0.1296
 1395SOL    HW2 5610   2.253   4.299   1.776  0.1327  0.2167 -0.2028
 1395SOL    HW3 5611   2.130   4.253   1.701  0.1247  0.3504 -0.2739
 1395SOL    MW4 5612   2.204   4.299   1.704  0.0624  0.4431 -0.1583
 1396SOL     OW 5613   0.914   0.672   1.083  0.1224 -0.2309 -0.3715
 1396SOL    HW2 5614   0.984   0.651   1.020 -0.8006  0.2839 -1.5966
 1396SOL    HW3 5615   0.867   0.589   1.093  0.3610 -0.3526 -0.2384
 1396SOL    MW4 5616   0.917   0.658   1.076  0.0321 -0.1791 -0.5156
 1397SOL     OW 5617   1.453   4.633   2.461  0.0562  0.0879  0.0512
 1397SOL    HW2 5618   1.470   4.631   2.555 -1.2301  2.1682  0.3599
 1397SOL    HW3 5619   1.360   4.617   2.452 -0.2263  1.9133 -0.6933
 1397SOL    MW4 5620   1.443   4.631   2.472 -0.1508  0.6032 -0.0063
 1398SOL     OW 5621   3.679   1.968   2.609  0.0938 -0.5149 -0.4213
 1398SOL    HW2 5622   3.730   2.036   2.654 -1.1284 -0.4131  0.8583
 1398SOL    HW3 5623   3.614   2.017   2.558 -0.5392 -0.6816  0.2000
 1398SOL    MW4 5624   3.677   1.983   2.608 -0.1510 -0.5235 -0.1705
 1399SOL     OW 5625   3.940   2.409   4.324 -0.0162 -0.0452 -0.2402
 1399SOL    HW2 5626   3.968   2.334   4.376 -0.0660 -0.1155 -0.3156
 1399SOL    HW3 5627   4.021   2.459   4.309  0.1468 -0.4806 -0.8269
 1399SOL    MW4 5628   3.955   2.406   4.329 -0.0013 -0.1119 -0.3275
 1400SOL     OW 5629   4.371   3.543   3.934  0.1596  0.3450 -0.3454
 1400SOL    HW2 5630   4.291   3.581   3.899  0.1832  1.5844  0.9375
 1400SOL    HW3 5631   4.342   3.463   3.979 -0.6497  1.9467  2.0162
 1400SOL    MW4 5632   4.357   3.537   3.935  0.0559  0.7198  0.1355
 1401SOL     OW 5633   0.121   0.971   3.300  0.0581 -0.0319 -0.6222
 1401SOL    HW2 5634   0.074   0.889   3.285  1.7321 -1.0032 -0.6610
 1401SOL    HW3 5635   0.182   0.977   3.227  0.4737  0.8766 -0.2095
 1401SOL    MW4 5636   0.123   0.961   3.288  0.3338 -0.0402 -0.5729
 1402SOL     OW 5637   0.380   0.738   4.327 -0.1592  0.3335 -0.3539
 1402SOL    HW2 5638   0.376   0.657   4.276  1.8399  0.7368 -1.1829
 1402SOL    HW3 5639   0.399   0.806   4.263 -0.0409  1.2054  0.5913
 1402SOL    MW4 5640   0.382   0.736   4.312  0.1202  0.5017 -0.3386
 1403SOL     OW 5641   3.390   1.753   0.820 -0.3653  0.1232  0.5446
 1403SOL    HW2 5642   3.341   1.679   0.785  0.5945  0.0071 -0.5568
 1403SOL    HW3 5643   3.339   1.830   0.793  0.9310  0.1107 -2.1042
 1403SOL    MW4 5644   3.377   1.753   0.812 -0.0676  0.1062  0.0498
 1404SOL     OW 5645   4.348   2.148   3.088  0.0168  0.6293  0.1294
 1404SOL    HW2 5646   4.367   2.087   3.017  2.5645  0.9054  0.5128
 1404SOL    HW3 5647   4.328   2.231   3.043  1.1777  0.6898 -0.3023
 1404SOL    MW4 5648   4.348   2.151   3.072  0.5061  0.6737  0.1231
 1405SOL     OW 5649   3.210   2.430   0.904  0.0580  0.0824  0.4635
 1405SOL    HW2 5650   3.224   2.351   0.957  1.6826 -0.1863 -0.3303
 1405SOL    HW3 5651   3.116   2.433   0.890 -0.0088 -1.7784  0.4193
 1405SOL    MW4 5652   3.200   2.420   0.909  0.2635 -0.1986  0.3530
 1406SOL     OW 5653   1.839   3.851   0.415  0.2223 -0.1416  0.3501
 1406SOL    HW2 5654   1.800   3.935   0.438 -0.3991 -0.4266  0.3457
 1406SOL    HW3 5655   1.767   3.789   0.420  0.5262 -0.5569 -0.3477
 1406SOL    MW4 5656   1.825   3.854   0.419  0.1804 -0.2340  0.2575
 1407SOL     OW 5657   0.346   1.265   3.399  0.1705 -0.1717  0.1347
 1407SOL    HW2 5658   0.343   1.177   3.438  1.0246 -0.3546 -0.1877
 1407SOL    HW3 5659   0.400   1.316   3.460  0.9417 -0.2771 -0.4522
 1407SOL    MW4 5660   0.353   1.260   3.412  0.3849 -0.2097  0.0147
 1408SOL     OW 5661   2.984   4.226   1.689  0.1254 -0.0794  0.6478
 1408SOL    HW2 5662   2.996   4.241   1.783  1.3043 -0.0884  0.5025
 1408SOL    HW3 5663   2.893   4.251   1.673  0.3785  1.4703  1.4990
 1408SOL    MW4 5664   2.974   4.231   1.699  0.3143  0.1239  0.7410
 1409SOL     OW 5665   0.852   0.810   4.273 -0.1891  0.1190 -0.8358
 1409SOL    HW2 5666   0.873   0.716   4.279 -0.5499  0.1451  0.9874
 1409SOL    HW3 5667   0.773   0.821   4.326 -0.7766  1.2732 -1.9300
 1409SOL    MW4 5668   0.844   0.799   4.281 -0.3142  0.2747 -0.7396
 1410SOL     OW 5669   0.122   1.919   1.066  0.1694 -0.2086  0.4823
 1410SOL    HW2 5670   0.063   1.922   0.991 -0.6004 -0.4457  1.0668
 1410SOL    HW3 5671   0.111   2.004   1.109 -0.7660 -0.7616  1.3518
 1410SOL    MW4 5672   0.113   1.930   1.062 -0.0556 -0.3128  0.6742
 1411SOL     OW 5673   1.662   2.441   2.314  0.2310 -0.1065 -0.0504
 1411SOL    HW2 5674   1.652   2.355   2.352  0.2801 -0.1524 -0.1400
 1411SOL    HW3 5675   1.740   2.477   2.356  0.4133 -0.2441 -0.2679
 1411SOL    MW4 5676   1.671   2.435   2.324  0.2615 -0.1307 -0.0909
 1412SOL     OW 5677   3.235   0.450   4.053  0.1390 -0.1278  0.9745
 1412SOL    HW2 5678   3.287   0.392   3.997  0.5139  0.0659  1.1205
 1412SOL    HW3 5679   3.224   0.529   4.001 -0.9779 -0.5891  0.4891
 1412SOL    MW4 5680   3.240   0.453   4.039  0.0411 -0.1631  0.9298
 1413SOL     OW 5681   1.750   0.799   1.719  0.7265  0.7054  0.0247
 1413SOL    HW2 5682   1.786   0.753   1.795  2.2388  0.0635 -1.0391
 1413SOL    HW3 5683   1.706   0.876   1.756 -0.3727 -0.6925  1.6924
 1413SOL    MW4 5684   1.749   0.803   1.734  0.7810  0.4362  0.1044
 1414SOL     OW 5685   0.605   4.143   2.905 -0.0196  0.0973  0.3506
 1414SOL    HW2 5686   0.530   4.148   2.846  0.2010 -0.7913 -0.0070
 1414SOL    HW3 5687   0.567   4.129   2.992 -0.2950  0.3434  0.2700
 1414SOL    MW4 5688   0.590   4.142   2.909 -0.0269  0.0125  0.2928
 1415SOL     OW 5689   1.482   4.080   3.996  0.0174 -0.3574 -0.4729
 1415SOL    HW2 5690   1.387   4.078   3.980 -0.2377 -0.5618  0.9476
 1415SOL    HW3 5691   1.519   4.017   3.934 -0.9534 -1.4032 -0.0151
 1415SOL    MW4 5692   1.474   4.072   3.986 -0.1443 -0.5223 -0.2251
 1416SOL     OW 5693   0.967   0.400   3.789 -0.2276  0.1763  0.1892
 1416SOL    HW2 5694   0.929   0.486   3.775  0.4778  0.4867  0.1668
 1416SOL    HW3 5695   1.056   0.407   3.754 -0.2781 -0.6567 -0.1211
 1416SOL    MW4 5696   0.974   0.412   3.783 -0.1412  0.1073  0.1453
 1417SOL     OW 5697   3.881   1.161   3.704 -0.3649  0.3548  0.3895
 1417SOL    HW2 5698   3.807   1.101   3.713 -0.7528  1.2163  3.4590
 1417SOL    HW3 5699   3.954   1.105   3.677 -1.1193 -1.2462  1.5518
 1417SOL    MW4 5700   3.881   1.145   3.702 -0.5156  0.2572  0.9478
 1418SOL     OW 5701   2.722   2.352   3.946 -0.0211  0.1544  0.2041
 1418SOL    HW2 5702   2.724   2.256   3.940 -0.7423  0.1102  0.6443
 1418SOL    HW3 5703   2.779   2.372   4.020  0.3630  0.0839 -0.0708
 1418SOL    MW4 5704   2.730   2.342   3.955 -0.0656  0.1392  0.2259
 1419SOL     OW 5705   3.058   1.972   3.584 -0.1890 -0.5550 -0.0498
 1419SOL    HW2 5706   3.091   1.932   3.504 -0.6072  0.9536 -0.9831
 1419SOL    HW3 5707   3.049   1.898   3.645  0.2681 -1.6870 -1.3220
 1419SOL    MW4 5708   3.061   1.957   3.582 -0.1839 -0.5053 -0.3408
 1420SOL     OW 5709   2.769   1.790   3.004  0.3652  0.5204 -0.2300
 1420SOL    HW2 5710   2.801   1.705   3.032  2.6512  1.4231 -0.0015
 1420SOL    HW3 5711   2.838   1.825   2.949 -0.2134  2.5252  0.2648
 1420SOL    MW4 5712   2.782   1.784   3.001  0.5904  0.9040 -0.1345
 1421SOL     OW 5713   0.276   3.246   3.437 -0.6255 -0.1818  0.2326
 1421SOL    HW2 5714   0.213   3.214   3.502  0.2520  0.2733  1.3321
 1421SOL    HW3 5715   0.321   3.168   3.406 -3.2087 -0.7663 -2.1733
 1421SOL    MW4 5716   0.274   3.232   3.442 -0.8505 -0.1989  0.0602
 1422SOL     OW 5717   2.544   3.458   1.418  0.0871  0.3954  0.1605
 1422SOL    HW2 5718   2.519   3.511   1.493  0.1221 -0.3299  0.6909
 1422SOL    HW3 5719   2.621   3.409   1.447 -0.1257 -0.1772 -0.2160
 1422SOL    MW4 5720   2.551   3.459   1.431  0.0636  0.2241  0.1808
 1423SOL     OW 5721   2.146   3.945   0.988  0.4063  0.3007  1.0610
 1423SOL    HW2 5722   2.104   4.014   0.937 -3.1184 -0.8992  2.1826
 1423SOL    HW3 5723   2.155   3.872   0.926 -1.6290 -0.3168  1.4435
 1423SOL    MW4 5724   2.141   3.945   0.973 -0.3273  0.0609  1.2595
 1424SOL     OW 5725   3.328   3.998   3.305  0.6541  0.1286  0.2172
 1424SOL    HW2 5726   3.367   4.013   3.219 -2.0057  2.6177 -0.6569
 1424SOL    HW3 5727   3.373   4.060   3.363  1.3260 -0.4208  0.2942
 1424SOL    MW4 5728   3.339   4.008   3.301  0.3918  0.3845  0.1120
 1425SOL     OW 5729   2.355   3.689   0.449  0.5559  0.1731  0.4807
 1425SOL    HW2 5730   2.408   3.768   0.465 -0.2746  1.0052 -0.7787
 1425SOL    HW3 5731   2.268   3.722   0.427  0.5673 -1.0323 -1.5141
 1425SOL    MW4 5732   2.351   3.704   0.448  0.4478  0.1238  0.0513
 1426SOL     OW 5733   3.860   0.856   2.033  0.1754  0.2514 -0.2280
 1426SOL    HW2 5734   3.845   0.762   2.042 -1.6713  0.5579  0.2102
 1426SOL    HW3 5735   3.777   0.889   1.997  1.8148  1.3023 -3.1965
 1426SOL    MW4 5736   3.847   0.848   2.029  0.1480  0.4305 -0.5619
 1427SOL     OW 5737   2.379   3.291   1.273 -0.2709  0.3320 -0.6413
 1427SOL    HW2 5738   2.431   3.273   1.195  2.4156 -0.6514  1.3253
 1427SOL    HW3 5739   2.433   3.351   1.325 -0.6470 -1.4622  1.8947
 1427SOL    MW4 5740   2.393   3.297   1.270  0.0339 -0.0345 -0.0472
 1428SOL     OW 5741   1.084   0.054   3.623 -0.4243 -0.0146 -0.0528
 1428SOL    HW2 5742   1.163   0.081   3.575 -0.5110  1.1383  0.4456
 1428SOL    HW3 5743   1.071  -0.038   3.598  1.2636 -0.3143  0.1268
 1428SOL    MW4 5744   1.093   0.045   3.613 -0.2130  0.0980  0.0366
 1429SOL     OW 5745   2.149   1.356   2.984  0.1700  0.0511  0.0487
 1429SOL    HW2 5746   2.216   1.290   2.998  0.6186  0.6500  0.7732
 1429SOL    HW3 5747   2.197   1.438   2.972 -0.4017  0.3645 -0.1338
 1429SOL    MW4 5748   2.164   1.358   2.984  0.1538  0.1715  0.1202
 1430SOL     OW 5749   1.791   2.492   4.316 -0.3409 -0.6862 -0.4931
 1430SOL    HW2 5750   1.793   2.486   4.221 -0.9178 -0.9553 -0.4897
 1430SOL    HW3 5751   1.877   2.526   4.340 -0.3607 -0.1857 -1.1367
 1430SOL    MW4 5752   1.803   2.495   4.307 -0.4196 -0.6557 -0.5776
 1431SOL     OW 5753   3.890   2.574   3.863  0.3901  0.0472 -0.3416
 1431SOL    HW2 5754   3.915   2.662   3.894  0.2393  0.4983 -1.4762
 1431SOL    HW3 5755   3.968   2.520   3.877  0.2669  0.2064  0.9783
 1431SOL    MW4 5756   3.904   2.579   3.869  0.3540  0.1277 -0.3172
 1432SOL     OW 5757   2.249   3.915   4.085 -0.1192 -0.7834  0.2646
 1432SOL    HW2 5758   2.224   4.005   4.064  1.2522 -0.7138 -1.1894
 1432SOL    HW3 5759   2.195   3.861   4.027 -1.3831 -0.9435  1.5686
 1432SOL    MW4 5760   2.239   3.920   4.075 -0.1050 -0.7953  0.2448
 1433SOL     OW 5761   3.394   1.255   3.006  0.3240 -0.6363  0.0061
 1433SOL    HW2 5762   3.373   1.224   3.095  1.7820 -0.6910  0.3451
 1433SOL    HW3 5763   3.440   1.338   3.020 -1.3481  0.4424 -0.8013
 1433SOL    MW4 5764   3.397   1.262   3.020  0.2957 -0.5012 -0.0557
 1434SOL     OW 5765   1.338   3.822   4.267 -0.3875  0.1124  0.2266
 1434SOL    HW2 5766   1.353   3.745   4.213 -1.4699  1.9252 -2.7927
 1434SOL    HW3 5767   1.268   3.797   4.327  0.6620 -1.8729  0.6463
 1434SOL    MW4 5768   1.331   3.809   4.268 -0.3918  0.0896 -0.1164
 1435SOL     OW 5769   1.352   0.312   3.828  0.1180 -0.1056 -0.0958
 1435SOL    HW2 5770   1.369   0.359   3.909  0.0841  0.9741 -0.7042
 1435SOL    HW3 5771   1.291   0.242   3.852 -0.7627  0.8944  0.5973
 1435SOL    MW4 5772   1.346   0.309   3.842 -0.0027  0.1688 -0.0846
 1436SOL     OW 5773   3.974   1.123   4.254  0.7852  0.0286 -0.2091
 1436SOL    HW2 5774   3.935   1.146   4.170  0.5172  2.5360  0.5470
 1436SOL    HW3 5775   3.912   1.154   4.319  2.2631  0.6466  0.9480
 1436SOL    MW4 5776   3.961   1.130   4.251  0.9448  0.4409  0.0433
 1437SOL     OW 5777   1.296   0.852   1.050  0.1429 -0.5287  0.7737
 1437SOL    HW2 5778   1.384   0.843   1.085 -0.4978 -2.7464  1.9129
 1437SOL    HW3 5779   1.241   0.866   1.127 -0.6766 -0.5154  0.1938
 1437SOL    MW4 5780   1.300   0.853   1.065 -0.0497 -0.8196  0.8475
 1438SOL     OW 5781   4.216   1.548   3.547 -0.0688  0.4709  0.2914
 1438SOL    HW2 5782   4.297   1.542   3.598  0.1209  2.3751  0.2664
 1438SOL    HW3 5783   4.185   1.458   3.540  0.7531 -0.0144  2.4042
 1438SOL    MW4 5784   4.223   1.535   3.553  0.0646  0.6581  0.5669
 1439SOL     OW 5785   3.578   1.940   0.695  0.0854  0.0836  0.5103
 1439SOL    HW2 5786   3.517   1.874   0.728  0.2842 -0.1382  0.4359
 1439SOL    HW3 5787   3.632   1.892   0.632  0.0208  0.3937  0.2214
 1439SOL    MW4 5788   3.577   1.925   0.691  0.1031  0.0952  0.4623
 1440SOL     OW 5789   3.964   2.153   1.771  0.0393 -0.1000  0.2734
 1440SOL    HW2 5790   4.038   2.189   1.821 -0.0184 -1.0877  1.0974
 1440SOL    HW3 5791   3.905   2.227   1.759 -0.0896  0.0963  1.9695
 1440SOL    MW4 5792   3.966   2.167   1.776  0.0147 -0.2044  0.6059
 1441SOL     OW 5793   0.505   2.943   0.501  0.0819 -0.6793  1.0228
 1441SOL    HW2 5794   0.594   2.966   0.525  0.4254 -2.0283  1.0905
 1441SOL    HW3 5795   0.500   2.848   0.513 -0.7374 -0.9253 -0.9572
 1441SOL    MW4 5796   0.516   2.934   0.505  0.0191 -0.8897  0.7705
 1442SOL     OW 5797   1.042   0.401   3.424 -0.3697 -0.5769 -0.3433
 1442SOL    HW2 5798   1.093   0.413   3.504 -0.0788 -0.1267 -0.5997
 1442SOL    HW3 5799   0.979   0.332   3.446 -2.6768  1.9889  1.4263
 1442SOL    MW4 5800   1.040   0.393   3.437 -0.6357 -0.1789 -0.1437
 1443SOL     OW 5801   1.799   4.402   2.792  0.5238 -0.6073  0.7107
 1443SOL    HW2 5802   1.810   4.360   2.877 -1.0126 -3.0968 -0.2841
 1443SOL    HW3 5803   1.717   4.368   2.758 -0.7223  3.1048 -0.2639
 1443SOL    MW4 5804   1.790   4.392   2.799  0.1567 -0.4460  0.4508
 1444SOL     OW 5805   2.567   2.992   1.264  0.1804  0.8350  0.9815
 1444SOL    HW2 5806   2.471   2.994   1.254  0.2307  0.7602  0.4750
 1444SOL    HW3 5807   2.582   2.928   1.333 -0.0505 -0.5073 -0.1784
 1444SOL    MW4 5808   2.556   2.984   1.272  0.1566  0.6480  0.7617
 1445SOL     OW 5809   2.544   1.139   4.295 -0.1721  0.3245  0.4885
 1445SOL    HW2 5810   2.497   1.089   4.362 -1.8074 -0.1608 -0.9729
 1445SOL    HW3 5811   2.635   1.111   4.304 -0.7104 -1.2941  1.1447
 1445SOL    MW4 5812   2.549   1.129   4.305 -0.4589  0.0469  0.3822
 1446SOL     OW 5813   1.414   4.506   2.138  0.3941 -0.2094  0.2476
 1446SOL    HW2 5814   1.434   4.504   2.045  0.0825 -1.7065  0.1987
 1446SOL    HW3 5815   1.320   4.520   2.142  0.3098 -0.7963  0.3244
 1446SOL    MW4 5816   1.404   4.508   2.127  0.3418 -0.4844  0.2513
 1447SOL     OW 5817   3.952   0.591   0.446  0.3253  0.3819  0.0645
 1447SOL    HW2 5818   4.040   0.628   0.434  0.0644  0.7053 -0.8617
 1447SOL    HW3 5819   3.897   0.641   0.386 -0.5102  0.2312  0.7104
 1447SOL    MW4 5820   3.957   0.603   0.436  0.1806  0.4047  0.0275
 1448SOL     OW 5821   1.885   3.539   3.535  0.4153 -0.0948 -0.1481
 1448SOL    HW2 5822   1.841   3.619   3.505  0.7406  0.0169 -0.3242
 1448SOL    HW3 5823   1.961   3.570   3.584  0.2205 -0.2870  0.2888
 1448SOL    MW4 5824   1.889   3.554   3.538  0.4326 -0.1054 -0.1137
 1449SOL     OW 5825   4.343   2.422   2.955 -0.1903 -0.1633 -0.3542
 1449SOL    HW2 5826   4.298   2.395   2.874 -0.8973  1.0143 -0.3600
 1449SOL    HW3 5827   4.428   2.455   2.925 -0.7090  0.8793 -0.6765
 1449SOL    MW4 5828   4.348   2.423   2.940 -0.3520  0.1296 -0.3975
 1450SOL     OW 5829   2.200   2.889   2.785  0.0776  0.7574  0.2568
 1450SOL    HW2 5830   2.292   2.915   2.780  0.5997 -1.2103 -0.8153
 1450SOL    HW3 5831   2.153   2.971   2.803  1.8160  2.1684 -1.3768
 1450SOL    MW4 5832   2.206   2.904   2.787  0.3758  0.6839 -0.1002
 1451SOL     OW 5833   2.114   3.884   0.482  0.1484 -0.1667 -0.3206
 1451SOL    HW2 5834   2.025   3.870   0.448 -0.3536  1.9003  0.0820
 1451SOL    HW3 5835   2.131   3.977   0.466  1.0224  0.1901  2.4686
 1451SOL    MW4 5836   2.105   3.895   0.475  0.1975  0.1531  0.1005
 1452SOL     OW 5837   4.420   0.385   2.657  0.3515  0.4623  0.5390
 1452SOL    HW2 5838   4.398   0.478   2.667  0.7012  0.4835  1.1402
 1452SOL    HW3 5839   4.461   0.379   2.571 -0.7747  0.6525 -0.0202
 1452SOL    MW4 5840   4.423   0.397   2.647  0.2491  0.4902  0.5446
 1453SOL     OW 5841   1.961   0.245   3.616  0.0150  0.0433  0.5570
 1453SOL    HW2 5842   2.039   0.284   3.575  0.8932 -0.8071  1.3992
 1453SOL    HW3 5843   1.916   0.201   3.543  0.5325  0.2153  0.1271
 1453SOL    MW4 5844   1.965   0.244   3.601  0.1991 -0.0462  0.6114
 1454SOL     OW 5845   4.276   0.906   2.801 -0.3429  0.1520 -0.1119
 1454SOL    HW2 5846   4.235   0.909   2.887 -0.4212 -0.9649 -0.1108
 1454SOL    HW3 5847   4.370   0.913   2.819 -0.3333 -0.5052  0.0903
 1454SOL    MW4 5848   4.283   0.908   2.814 -0.3520 -0.0821 -0.0851
 1455SOL     OW 5849   2.416   2.747   1.671 -0.1395  0.4663 -0.6667
 1455SOL    HW2 5850   2.502   2.759   1.632  1.5893  0.1337  2.8835
 1455SOL    HW3 5851   2.387   2.836   1.694 -0.3078  0.4771 -0.9126
 1455SOL    MW4 5852   2.423   2.760   1.669  0.0664  0.4238 -0.2307
 1456SOL     OW 5853   3.940   3.628   0.920 -0.1194  0.0764  0.5945
 1456SOL    HW2 5854   3.941   3.672   1.005 -0.4526 -1.0556  1.1995
 1456SOL    HW3 5855   4.029   3.594   0.910  0.3633  1.5707 -0.2427
 1456SOL    MW4 5856   3.951   3.629   0.930 -0.0996  0.1242  0.5639
 1457SOL     OW 5857   1.810   4.136   2.605 -0.1278 -0.1559  0.0459
 1457SOL    HW2 5858   1.839   4.173   2.522  0.7378 -1.5888 -0.3216
 1457SOL    HW3 5859   1.871   4.170   2.670 -1.4055  1.7684  0.2903
 1457SOL    MW4 5860   1.822   4.145   2.603 -0.1822 -0.0910  0.0297
 1458SOL     OW 5861   3.052   2.677   0.586 -0.3393 -0.1268  0.7081
 1458SOL    HW2 5862   3.146   2.659   0.586 -0.4573 -0.7866 -0.1870
 1458SOL    HW3 5863   3.039   2.739   0.657  0.6312 -0.7738  1.4536
 1458SOL    MW4 5864   3.062   2.683   0.595 -0.2268 -0.2992  0.6884
 1459SOL     OW 5865   0.581   4.290   3.968 -0.4331  0.0842 -0.3559
 1459SOL    HW2 5866   0.545   4.203   3.948  0.0979  0.0051 -0.9889
 1459SOL    HW3 5867   0.579   4.295   4.063  2.1548 -1.7816 -0.1352
 1459SOL    MW4 5868   0.576   4.279   3.978 -0.0216 -0.1724 -0.4103
 1460SOL     OW 5869   1.524   4.499   3.749 -0.4927 -0.0238  0.0535
 1460SOL    HW2 5870   1.571   4.432   3.798 -1.4289 -0.1834  0.7534
 1460SOL    HW3 5871   1.591   4.542   3.696  0.4582 -0.1447  1.1450
 1460SOL    MW4 5872   1.539   4.496   3.749 -0.4907 -0.0608  0.2898
 1461SOL     OW 5873   0.731   2.376   2.811  0.0693  0.1601  0.2102
 1461SOL    HW2 5874   0.813   2.369   2.859  0.4094  0.6737 -0.2928
 1461SOL    HW3 5875   0.666   2.335   2.868  0.3175  1.5222  1.4843
 1461SOL    MW4 5876   0.733   2.370   2.825  0.1469  0.4076  0.3119
 1462SOL     OW 5877   1.126   0.584   2.537  0.1268 -0.3360  0.0307
 1462SOL    HW2 5878   1.134   0.490   2.524  1.3000 -0.3214  0.6178
 1462SOL    HW3 5879   1.200   0.608   2.593 -0.7785  0.7648  0.7912
 1462SOL    MW4 5880   1.137   0.575   2.542  0.1621 -0.1888  0.2085
 1463SOL     OW 5881   0.483   4.019   3.534 -0.1500 -0.0577 -0.5591
 1463SOL    HW2 5882   0.556   3.980   3.583  0.9364  0.2192 -1.9122
 1463SOL    HW3 5883   0.493   4.113   3.547 -1.2463 -0.0804  0.5780
 1463SOL    MW4 5884   0.494   4.026   3.542 -0.1513 -0.0242 -0.5876
 1464SOL     OW 5885   2.200   3.926   2.303  0.3728 -0.0252 -0.4481
 1464SOL    HW2 5886   2.174   3.842   2.264 -0.5646 -0.6633  1.4931
 1464SOL    HW3 5887   2.295   3.922   2.309  0.3789 -0.6682 -0.9671
 1464SOL    MW4 5888   2.209   3.915   2.299  0.2500 -0.1942 -0.2605
 1465SOL     OW 5889   4.058   0.232   0.779 -0.1846 -0.2425  0.1896
 1465SOL    HW2 5890   4.091   0.305   0.831  2.0041 -1.0612  0.0253
 1465SOL    HW3 5891   4.033   0.271   0.696 -1.3410  0.6873  0.9584
 1465SOL    MW4 5892   4.059   0.247   0.775 -0.0484 -0.2279  0.2694
 1466SOL     OW 5893   3.984   3.536   2.340  0.0727 -0.6070  0.1641
 1466SOL    HW2 5894   3.984   3.442   2.323 -1.5865 -0.4001 -1.1645
 1466SOL    HW3 5895   3.891   3.559   2.345  0.4461  1.0609 -0.2362
 1466SOL    MW4 5896   3.971   3.527   2.338 -0.0969 -0.3596 -0.0640
 1467SOL     OW 5897   0.066   3.616   1.824  0.2857  0.0347  0.3215
 1467SOL    HW2 5898   0.041   3.542   1.880  1.2665 -1.2976 -0.9599
 1467SOL    HW3 5899   0.135   3.661   1.873 -0.0041 -0.1474  0.9057
 1467SOL    MW4 5900   0.072   3.612   1.838  0.3768 -0.1651  0.2295
 1468SOL     OW 5901   1.863   3.269   0.566 -0.2084 -0.2576 -0.4642
 1468SOL    HW2 5902   1.955   3.274   0.540 -0.2552  0.1228 -0.5646
 1468SOL    HW3 5903   1.853   3.340   0.630 -0.3879 -0.4168 -0.3130
 1468SOL    MW4 5904   1.874   3.279   0.571 -0.2382 -0.2284 -0.4575
 1469SOL     OW 5905   4.032   4.328   3.973 -0.1391  0.2787 -0.1698
 1469SOL    HW2 5906   3.979   4.369   4.041  0.4060  2.4531 -1.0343
 1469SOL    HW3 5907   4.095   4.274   4.021 -1.4106 -0.2626  0.9381
 1469SOL    MW4 5908   4.033   4.326   3.988 -0.2350  0.4942 -0.1377
 1470SOL     OW 5909   3.063   3.308   3.051 -0.3441  0.1141 -0.3091
 1470SOL    HW2 5910   3.071   3.378   2.987  2.5869 -0.0867 -0.2323
 1470SOL    HW3 5911   3.078   3.228   3.002 -0.4836 -0.2123  0.1751
 1470SOL    MW4 5912   3.066   3.307   3.036  0.0242  0.0446 -0.2351
 1471SOL     OW 5913   3.661   3.947   4.064  0.4034  0.3080 -0.0602
 1471SOL    HW2 5914   3.703   3.862   4.080  0.9972  0.3593 -1.2147
 1471SOL    HW3 5915   3.681   3.966   3.972 -0.9552  1.0192 -0.2228
 1471SOL    MW4 5916   3.669   3.938   4.054  0.3025  0.4086 -0.2340
 1472SOL     OW 5917   2.208   1.128   1.195 -0.5055 -0.1666 -0.0256
 1472SOL    HW2 5918   2.164   1.135   1.110  0.3776  0.0799 -0.4758
 1472SOL    HW3 5919   2.137   1.122   1.258 -1.1723 -0.7517 -0.8165
 1472SOL    MW4 5920   2.193   1.128   1.192 -0.4770 -0.2112 -0.1894
 1473SOL     OW 5921   3.780   2.361   1.781  0.0199  0.0030 -0.0890
 1473SOL    HW2 5922   3.707   2.300   1.774  0.2128 -0.3914  1.2009
 1473SOL    HW3 5923   3.752   2.438   1.731 -1.2859 -0.1344  0.4019
 1473SOL    MW4 5924   3.767   2.363   1.773 -0.1269 -0.0672  0.1460
 1474SOL     OW 5925   1.028   3.554   0.550 -0.3373 -0.6556 -0.4316
 1474SOL    HW2 5926   1.064   3.642   0.550 -0.3314 -0.6081  2.5215
 1474SOL    HW3 5927   0.933   3.567   0.548 -0.3275 -0.6653 -2.0428
 1474SOL    MW4 5928   1.020   3.567   0.550 -0.3352 -0.6506 -0.2545
 1475SOL     OW 5929   2.631   0.691   0.960 -0.2562  0.1788  0.0448
 1475SOL    HW2 5930   2.620   0.768   1.017 -0.5774 -0.0276  0.2632
 1475SOL    HW3 5931   2.657   0.621   1.019 -0.3292  0.0279 -0.1016
 1475SOL    MW4 5932   2.633   0.692   0.975 -0.3082  0.1317  0.0543
 1476SOL     OW 5933   0.189   2.855   1.141 -0.3267  0.1921 -0.1120
 1476SOL    HW2 5934   0.204   2.945   1.113 -0.8114  0.1290 -0.5709
 1476SOL    HW3 5935   0.164   2.808   1.061 -0.8843 -0.1671  0.2666
 1476SOL    MW4 5936   0.188   2.860   1.127 -0.4642  0.1364 -0.1226
 1477SOL     OW 5937   4.446   1.168   3.084 -0.3018 -0.2562  0.0595
 1477SOL    HW2 5938   4.498   1.198   3.159  1.0936 -0.0748 -0.9713
 1477SOL    HW3 5939   4.488   1.086   3.057 -0.6163 -0.1661 -0.7057
 1477SOL    MW4 5940   4.459   1.161   3.091 -0.1592 -0.2204 -0.1774
 1478SOL     OW 5941   3.046   1.279   3.792 -0.6878 -0.6527  0.4978
 1478SOL    HW2 5942   3.017   1.294   3.882 -0.8796 -0.9533  0.4870
 1478SOL    HW3 5943   3.015   1.191   3.771 -0.1605 -0.7996  0.3269
 1478SOL    MW4 5944   3.038   1.269   3.801 -0.6435 -0.7117  0.4738
 1479SOL     OW 5945   2.987   2.903   3.244  0.0590 -0.0518 -0.3303
 1479SOL    HW2 5946   2.925   2.889   3.315 -0.1582  0.1567 -0.4786
 1479SOL    HW3 5947   3.037   2.821   3.239 -0.8486 -0.5819 -0.8535
 1479SOL    MW4 5948   2.985   2.890   3.253 -0.0894 -0.0942 -0.4189
 1480SOL     OW 5949   1.761   2.623   3.754  0.4406 -0.4017  0.2602
 1480SOL    HW2 5950   1.750   2.667   3.838 -0.9186 -1.7126  0.7793
 1480SOL    HW3 5951   1.672   2.613   3.720  0.8951 -0.8964 -0.8218
 1480SOL    MW4 5952   1.748   2.628   3.760  0.3212 -0.6399  0.1859
 1481SOL     OW 5953   2.930   2.141   3.233 -0.0875  0.1012 -0.3508
 1481SOL    HW2 5954   2.932   2.171   3.324  2.3860  0.0984 -0.3785
 1481SOL    HW3 5955   2.887   2.056   3.237 -1.0509  0.6243  0.6577
 1481SOL    MW4 5956   2.925   2.134   3.246  0.1118  0.1699 -0.2214
 1482SOL     OW 5957   0.923   3.187   1.316  0.1363 -0.2489  0.3087
 1482SOL    HW2 5958   0.869   3.117   1.353  0.4247 -0.1274  0.9721
 1482SOL    HW3 5959   0.894   3.266   1.362  0.2680 -0.0430  0.0364
 1482SOL    MW4 5960   0.912   3.189   1.327  0.1917 -0.2057  0.3603
 1483SOL     OW 5961   0.858   1.881   3.900  0.5362 -0.6044  0.0438
 1483SOL    HW2 5962   0.930   1.826   3.931  0.0994 -1.3201 -0.1739
 1483SOL    HW3 5963   0.900   1.960   3.867  1.1042 -0.4319  1.1735
 1483SOL    MW4 5964   0.873   1.884   3.899  0.5535 -0.6761  0.1642
 1484SOL     OW 5965   0.074   0.679   2.490  0.0134 -0.0365  0.3049
 1484SOL    HW2 5966  -0.006   0.671   2.543 -0.2535 -0.4488 -0.1551
 1484SOL    HW3 5967   0.064   0.763   2.445  0.2409  0.3159  0.9066
 1484SOL    MW4 5968   0.062   0.689   2.491  0.0082 -0.0444  0.3236
 1485SOL     OW 5969   0.569   1.928   2.273  0.3669 -0.0197  0.1285
 1485SOL    HW2 5970   0.499   1.956   2.333 -1.5558 -1.3520 -1.4341
 1485SOL    HW3 5971   0.541   1.961   2.187  0.9742 -1.7624 -0.7510
 1485SOL    MW4 5972   0.556   1.936   2.270  0.1933 -0.4254 -0.1937
 1486SOL     OW 5973   1.843   0.337   1.854  0.5531  0.2376  0.2405
 1486SOL    HW2 5974   1.846   0.369   1.763  2.4858  0.0588  0.2235
 1486SOL    HW3 5975   1.855   0.243   1.847  0.1658  0.1517  0.6675
 1486SOL    MW4 5976   1.845   0.329   1.841  0.7570  0.2027  0.2946
 1487SOL     OW 5977   0.101   1.739   3.612 -0.1423  0.3008  0.0931
 1487SOL    HW2 5978   0.074   1.655   3.574 -1.7617 -0.0159  1.8421
 1487SOL    HW3 5979   0.052   1.804   3.562 -0.7020  0.0249  0.2685
 1487SOL    MW4 5980   0.091   1.736   3.600 -0.4298  0.2226  0.3470
 1488SOL     OW 5981   4.274   3.821   3.592 -0.3854  0.6667  0.1013
 1488SOL    HW2 5982   4.367   3.838   3.605 -0.2481  0.3305 -0.4544
 1488SOL    HW3 5983   4.259   3.737   3.636 -0.0276 -0.2196 -1.4411
 1488SOL    MW4 5984   4.284   3.812   3.600 -0.3201  0.5054 -0.1755
 1489SOL     OW 5985   4.470   4.147   3.262  0.0525 -0.3309 -0.3133
 1489SOL    HW2 5986   4.522   4.068   3.273 -0.9988 -1.3777 -2.6467
 1489SOL    HW3 5987   4.521   4.201   3.201  0.1955  0.2761  0.3356
 1489SOL    MW4 5988   4.484   4.144   3.255 -0.0673 -0.3889 -0.5355
 1490SOL     OW 5989   0.019   1.512   0.907  0.5902  0.0332 -0.0763
 1490SOL    HW2 5990  -0.068   1.548   0.921  0.2714 -0.8016  0.0833
 1490SOL    HW3 5991   0.046   1.479   0.993  1.5728  1.3767  0.1668
 1490SOL    MW4 5992   0.011   1.512   0.920  0.6778  0.1003 -0.0231
 1491SOL     OW 5993   0.312   0.458   3.063 -0.4265 -0.3725  0.5249
 1491SOL    HW2 5994   0.342   0.485   2.976  0.9833  2.1672  1.7339
 1491SOL    HW3 5995   0.378   0.395   3.091 -0.0792 -0.0995  0.3363
 1491SOL    MW4 5996   0.325   0.454   3.055 -0.1947 -0.0014  0.6596
 1492SOL     OW 5997   2.022   2.012   4.023 -0.3126 -0.0869 -0.0358
 1492SOL    HW2 5998   1.952   2.074   4.045 -0.7941 -0.8445  0.6195
 1492SOL    HW3 5999   1.993   1.970   3.942  0.0466  0.5859 -0.5171
 1492SOL    MW4 6000   2.009   2.015   4.015 -0.3288 -0.0981 -0.0128
 1493SOL     OW 6001   2.382   0.586   0.913 -0.4347  0.0378 -0.0382
 1493SOL    HW2 6002   2.363   0.545   0.997  0.6463 -1.3209 -0.4363
 1493SOL    HW3 6003   2.473   0.614   0.920 -0.9792  1.8644  0.0058
 1493SOL    MW4 6004   2.391   0.585   0.925 -0.3639  0.0995 -0.0849
 1494SOL     OW 6005   0.295   4.451   2.690  0.0527 -0.0609 -0.3091
 1494SOL    HW2 6006   0.255   4.500   2.761  0.0941 -0.4966  0.0184
 1494SOL    HW3 6007   0.322   4.518   2.626 -0.0013  0.3277  0.0743
 1494SOL    MW4 6008   0.293   4.466   2.691  0.0510 -0.0671 -0.2153
 1495SOL     OW 6009   0.347   1.107   1.866 -0.2850 -0.2703 -0.2643
 1495SOL    HW2 6010   0.254   1.099   1.888 -0.1125  0.0102  0.5852
 1495SOL    HW3 6011   0.356   1.059   1.783 -0.9849 -1.2061  0.1903
 1495SOL    MW4 6012   0.336   1.100   1.858 -0.3546 -0.3568 -0.0923
 1496SOL     OW 6013   4.386   3.080   2.018 -0.0911 -0.3965  0.6637
 1496SOL    HW2 6014   4.349   3.160   2.056  0.1814 -0.2017  0.5178
 1496SOL    HW3 6015   4.341   3.009   2.065 -1.1092 -0.1662  0.0567
 1496SOL    MW4 6016   4.375   3.081   2.030 -0.1895 -0.3404  0.5644
 1497SOL     OW 6017   2.216   0.312   3.556  0.1946 -0.0407 -0.3121
 1497SOL    HW2 6018   2.204   0.352   3.642  0.4771  1.8236 -1.1287
 1497SOL    HW3 6019   2.261   0.378   3.504  1.8685 -1.9110 -1.3066
 1497SOL    MW4 6020   2.220   0.326   3.561  0.4527 -0.0415 -0.5511
 1498SOL     OW 6021   2.089   2.802   1.770  0.7197 -0.9251 -0.4389
 1498SOL    HW2 6022   2.153   2.738   1.739  0.1059 -0.9742 -1.6527
 1498SOL    HW3 6023   2.006   2.772   1.733 -0.3839 -1.9878  2.7098
 1498SOL    MW4 6024   2.086   2.790   1.761  0.4931 -1.0718 -0.1836
 1499SOL     OW 6025   0.920   0.537   4.275  0.3058 -0.0243 -0.0106
 1499SOL    HW2 6026   0.846   0.499   4.227 -0.4258 -1.9523  2.5221
 1499SOL    HW3 6027   0.938   0.475   4.345  2.9001  1.5297  0.7823
 1499SOL    MW4 6028   0.912   0.524   4.278  0.5515 -0.0736  0.4282
 1500SOL     OW 6029   0.088   2.406   3.651 -0.2595  0.0444 -0.4251
 1500SOL    HW2 6030   0.065   2.490   3.692  0.0888 -1.0136  2.0273
 1500SOL    HW3 6031   0.050   2.411   3.563 -0.6152  2.5882 -0.1718
 1500SOL    MW4 6032   0.080   2.418   3.645 -0.2605  0.2404 -0.0682
 1501SOL     OW 6033   0.035   2.724   0.492  0.3590  0.0155 -0.0360
 1501SOL    HW2 6034  -0.001   2.760   0.411 -0.9375  0.8852  0.9083
 1501SOL    HW3 6035   0.022   2.793   0.557  0.2789 -1.1453  1.1923
 1501SOL    MW4 6036   0.029   2.738   0.490  0.1773 -0.0229  0.2507
 1502SOL     OW 6037   0.883   0.670   3.727 -0.4878 -0.2847 -0.2831
 1502SOL    HW2 6038   0.835   0.691   3.807  0.6476  1.0006  0.0923
 1502SOL    HW3 6039   0.830   0.708   3.657 -0.3345  0.6045  0.0719
 1502SOL    MW4 6040   0.870   0.678   3.729 -0.3177  0.0022 -0.1867
 1503SOL     OW 6041   0.203   4.142   2.855  0.1161 -0.5757  0.3567
 1503SOL    HW2 6042   0.290   4.139   2.815  0.2109 -0.3139  0.5333
 1503SOL    HW3 6043   0.162   4.060   2.831 -0.3569  0.1708 -1.4356
 1503SOL    MW4 6044   0.209   4.131   2.847  0.0662 -0.4427  0.1435
 1504SOL     OW 6045   2.130   4.585   3.885  0.3676  0.1836 -0.2382
 1504SOL    HW2 6046   2.171   4.498   3.884  1.0679  0.4744  1.2586
 1504SOL    HW3 6047   2.202   4.646   3.870 -0.0472  0.5351 -0.8203
 1504SOL    MW4 6048   2.145   4.581   3.883  0.4053  0.2683 -0.1175
 1505SOL     OW 6049   1.083   2.832   2.543  0.0000  0.0000 -0.7043
 1505SOL    HW2 6050   1.106   2.825   2.635  0.0000  0.0000 -0.7051
 1505SOL    HW3 6051   1.159   2.795   2.497  0.0000  0.0000 -0.7076
 1505SOL    MW4 6052   1.096   2.826   2.549  0.0000  0.0000 -0.7049
 1506SOL     OW 6053   1.148   3.096   2.477  0.0000  0.0000  0.0638
 1506SOL    HW2 6054   1.122   3.007   2.500  0.0000  0.0000  0.0601
 1506SOL    HW3 6055   1.136   3.101   2.382  0.0000  0.0000  0.0642
 1506SOL    MW4 6056   1.143   3.085   2.468  0.0000  0.0000  0.0634
 1507SOL     OW 6057   0.919   3.208   2.621  0.0000  0.0000 -0.4324
 1507SOL    HW2 6058   0.903   3.287   2.569  0.0000  0.0000 -0.4279
 1507SOL    HW3 6059   1.006   3.179   2.594  0.0000  0.0000 -0.4343
 1507SOL    MW4 6060   0.928   3.215   2.611  0.0000  0.0000 -0.4321
 1508SOL     OW 6061   0.887   3.462   2.484  0.0000  0.0000 -0.1712
 1508SOL    HW2 6062   0.961   3.509   2.524  0.0000  0.0000 -0.1654
 1508SOL    HW3 6063   0.810   3.512   2.511  0.0000  0.0000 -0.2050
 1508SOL    MW4 6064   0.887   3.475   2.493  0.0000  0.0000 -0.1749
 1509SOL     OW 6065   1.102   3.599   2.572  0.0000  0.0000  0.5678
 1509SOL    HW2 6066   1.101   3.626   2.664  0.0000  0.0000  0.5678
 1509SOL    HW3 6067   1.100   3.681   2.523  0.0000  0.0000  0.5675
 1509SOL    MW4 6068   1.102   3.613   2.578  0.0000  0.0000  0.5678
 1510SOL     OW 6069   1.098   3.851   2.465  0.0000  0.0000 -0.2739
 1510SOL    HW2 6070   1.178   3.889   2.503  0.0000  0.0000 -0.2652
 1510SOL    HW3 6071   1.110   3.859   2.371  0.0000  0.0000 -0.2724
 1510SOL    MW4 6072   1.110   3.857   2.458  0.0000  0.0000 -0.2725
 1511SOL     OW 6073   0.893   4.008   2.598  0.0000  0.0000 -0.0375
 1511SOL    HW2 6074   0.957   3.963   2.543  0.0000  0.0000 -0.0383
 1511SOL    HW3 6075   0.809   3.969   2.572  0.0000  0.0000  0.0058
 1511SOL    MW4 6076   0.890   3.997   2.587  0.0000  0.0000 -0.0319
 1512SOL     OW 6077   0.888   4.266   2.454  0.0000  0.0000  0.0400
 1512SOL    HW2 6078   0.892   4.173   2.479  0.0000  0.0000  0.0463
 1512SOL    HW3 6079   0.884   4.265   2.359  0.0000  0.0000  0.0401
 1512SOL    MW4 6080   0.888   4.254   2.445  0.0000  0.0000  0.0408
 1513SOL     OW 6081   1.144   4.351   2.523  0.0000  0.0000  0.0608
 1513SOL    HW2 6082   1.137   4.378   2.614  0.0000  0.0000  0.0619
 1513SOL    HW3 6083   1.055   4.327   2.498  0.0000  0.0000  0.0618
 1513SOL    MW4 6084   1.131   4.351   2.532  0.0000  0.0000  0.0611
 1514SOL     OW 6085   1.989   3.511   2.727 -0.0803 -0.4675 -0.3940
 1514SOL    HW2 6086   1.980   3.562   2.646 -0.0585 -2.0874 -1.4315
 1514SOL    HW3 6087   1.903   3.471   2.738  0.5810 -2.0378 -0.8433
 1514SOL    MW4 6088   1.976   3.513   2.718  0.0098 -0.8884 -0.5902
 1515SOL     OW 6089   3.632   4.302   3.689 -0.6948  0.2778  0.5980
 1515SOL    HW2 6090   3.725   4.299   3.667 -0.5014 -0.7174  1.5112
 1515SOL    HW3 6091   3.630   4.324   3.782 -1.4218  1.7746  0.2485
 1515SOL    MW4 6092   3.644   4.305   3.699 -0.7652  0.3440  0.6724
 1516SOL     OW 6093   3.691   0.976   0.784 -0.3809  0.7988 -0.7824
 1516SOL    HW2 6094   3.777   0.942   0.806 -1.0510 -1.8803 -2.1720
 1516SOL    HW3 6095   3.664   1.026   0.862  1.1212 -0.8435  0.8217
 1516SOL    MW4 6096   3.699   0.978   0.797 -0.2711  0.2287 -0.7541
 1517SOL     OW 6097   3.204   2.351   4.489  0.0859  0.4386 -0.1104
 1517SOL    HW2 6098   3.280   2.298   4.511  0.6471  1.4720  0.4950
 1517SOL    HW3 6099   3.140   2.289   4.454  1.1166 -0.4678 -0.4040
 1517SOL    MW4 6100   3.206   2.336   4.487  0.2959  0.4554 -0.0692
 1518SOL     OW 6101   1.110   3.988   3.661 -0.1073  0.7954  0.2170
 1518SOL    HW2 6102   1.158   4.019   3.738 -0.6555 -0.2110  0.9702
 1518SOL    HW3 6103   1.080   4.068   3.618  0.5282  1.3770  0.8433
 1518SOL    MW4 6104   1.112   4.003   3.665 -0.0958  0.7394  0.3990
 1519SOL     OW 6105   3.021   0.926   4.729  0.4629 -0.0227 -0.2576
 1519SOL    HW2 6106   3.080   0.872   4.780  1.8428  1.6436 -0.0212
 1519SOL    HW3 6107   3.049   0.915   4.639 -0.3770 -1.0289 -0.4074
 1519SOL    MW4 6108   3.032   0.918   4.724  0.5341  0.0644 -0.2462
 1520SOL     OW 6109   0.467   1.267   2.223 -0.3303 -0.1570 -0.1235
 1520SOL    HW2 6110   0.525   1.327   2.269  0.0711 -0.3717 -0.3480
 1520SOL    HW3 6111   0.412   1.229   2.292 -0.2971  0.1510  0.0704
 1520SOL    MW4 6112   0.468   1.270   2.238 -0.2730 -0.1447 -0.1275
 1521SOL     OW 6113   3.476   0.056   1.411 -0.2476 -0.7278 -0.4403
 1521SOL    HW2 6114   3.428   0.097   1.483 -0.2191 -0.1045 -0.7755
 1521SOL    HW3 6115   3.559   0.028   1.450 -0.1819 -0.2787 -0.2526
 1521SOL    MW4 6116   3.481   0.058   1.425 -0.2351 -0.5863 -0.4597
 1522SOL     OW 6117   1.439   3.806   0.577  0.4886 -0.5183  0.3035
 1522SOL    HW2 6118   1.419   3.896   0.604 -1.3526 -0.9659  0.4519
 1522SOL    HW3 6119   1.445   3.757   0.659 -1.0003 -1.0362  0.1066
 1522SOL    MW4 6120   1.437   3.812   0.591  0.0492 -0.6457  0.2971
 1523SOL     OW 6121   0.366   3.275   2.740 -0.4578  0.0066  0.8473
 1523SOL    HW2 6122   0.374   3.229   2.824 -0.2817 -0.9972  0.2972
 1523SOL    HW3 6123   0.454   3.275   2.704 -0.8110 -0.9976 -0.0581
 1523SOL    MW4 6124   0.378   3.269   2.746 -0.4811 -0.2584  0.6552
 1524SOL     OW 6125   3.317   2.484   3.097  0.3974 -0.7116 -0.3666
 1524SOL    HW2 6126   3.327   2.417   3.164 -0.2329 -2.9450 -2.4362
 1524SOL    HW3 6127   3.352   2.444   3.017  1.3036  1.9403 -1.3700
 1524SOL    MW4 6128   3.323   2.470   3.095  0.4338 -0.6564 -0.7720
 1525SOL     OW 6129   0.204   1.723   1.950 -0.4450 -0.3600  0.1667
 1525SOL    HW2 6130   0.297   1.731   1.928  0.1342 -0.7491  2.3471
 1525SOL    HW3 6131   0.200   1.734   2.045 -2.6065 -0.6028  0.1450
 1525SOL    MW4 6132   0.216   1.725   1.960 -0.6537 -0.4433  0.4515
 1526SOL     OW 6133   1.458   1.290   3.051 -0.8307  0.1392  0.1987
 1526SOL    HW2 6134   1.407   1.339   2.988 -0.5664 -0.8098 -0.7700
 1526SOL    HW3 6135   1.549   1.307   3.027 -0.7302 -0.2709  0.2759
 1526SOL    MW4 6136   1.464   1.299   3.040 -0.7826 -0.0401  0.0811
 1527SOL     OW 6137   0.982   2.161   1.801  0.0469 -0.1428  0.1044
 1527SOL    HW2 6138   0.992   2.256   1.797  0.2032 -0.1712 -0.1782
 1527SOL    HW3 6139   1.018   2.129   1.718  0.4192 -0.4871  0.3948
 1527SOL    MW4 6140   0.988   2.169   1.790  0.1166 -0.1920  0.1054
 1528SOL     OW 6141   3.006   4.657   0.346 -0.5477  0.4012  0.1152
 1528SOL    HW2 6142   2.912   4.668   0.359 -0.3014 -0.1197  2.4636
 1528SOL    HW3 6143   3.034   4.600   0.417  1.3160 -0.6528 -1.4079
 1528SOL    MW4 6144   2.997   4.651   0.357 -0.2693  0.1934  0.2241
 1529SOL     OW 6145   3.895   2.300   4.059 -0.1928 -0.0677 -0.0705
 1529SOL    HW2 6146   3.884   2.206   4.066  0.2511 -0.2199 -1.2909
 1529SOL    HW3 6147   3.906   2.330   4.149 -1.5162 -1.0235  0.4298
 1529SOL    MW4 6148   3.895   2.292   4.072 -0.3088 -0.2139 -0.1655
 1530SOL     OW 6149   3.606   3.618   1.835  0.1922 -0.2428 -0.2567
 1530SOL    HW2 6150   3.581   3.710   1.843 -0.1054 -0.3998  0.6765
 1530SOL    HW3 6151   3.697   3.621   1.804 -0.4355  0.3360 -2.1093
 1530SOL    MW4 6152   3.615   3.631   1.832  0.0701 -0.1871 -0.3780
 1531SOL     OW 6153   2.115   1.734   2.589  0.1380 -0.5390 -0.1728
 1531SOL    HW2 6154   2.181   1.682   2.544  1.2012  0.6566 -0.0151
 1531SOL    HW3 6155   2.060   1.769   2.518  0.0677 -0.9779 -0.3414
 1531SOL    MW4 6156   2.116   1.732   2.574  0.2690 -0.4391 -0.1743
 1532SOL     OW 6157   3.560   3.524   2.997 -0.0965  0.6173  0.0977
 1532SOL    HW2 6158   3.636   3.551   3.049 -0.4111  0.2473  0.7553
 1532SOL    HW3 6159   3.596   3.466   2.931  0.3947  1.5729 -0.4924
 1532SOL    MW4 6160   3.575   3.520   2.995 -0.0732  0.6945  0.1066
 1533SOL     OW 6161   1.409   4.282   0.738  0.5496 -0.4987  0.1759
 1533SOL    HW2 6162   1.369   4.298   0.652 -0.2888  1.1725  0.8498
 1533SOL    HW3 6163   1.502   4.272   0.720  0.6742  1.9781 -0.7095
 1533SOL    MW4 6164   1.416   4.283   0.724  0.4554  0.0486  0.1480
 1534SOL     OW 6165   0.917   2.109   3.761 -0.0785 -0.3736 -0.0500
 1534SOL    HW2 6166   0.963   2.160   3.828  0.1412 -0.4879 -0.1118
 1534SOL    HW3 6167   0.987   2.076   3.704 -0.1417 -1.4668  0.4905
 1534SOL    MW4 6168   0.932   2.111   3.762 -0.0578 -0.5329  0.0131
 1535SOL     OW 6169   1.781   3.992   0.773 -0.5539  0.1382 -0.3344
 1535SOL    HW2 6170   1.733   3.980   0.855  0.7693  1.4168  0.6497
 1535SOL    HW3 6171   1.837   3.914   0.766 -0.6814  0.0217 -0.0391
 1535SOL    MW4 6172   1.782   3.980   0.783 -0.3961  0.2915 -0.1656
 1536SOL     OW 6173   3.618   3.833   0.867 -0.1412  0.0619  0.2696
 1536SOL    HW2 6174   3.599   3.775   0.940  0.0073  0.1672  0.3918
 1536SOL    HW3 6175   3.646   3.774   0.796 -1.2930 -0.1327 -0.0421
 1536SOL    MW4 6176   3.619   3.818   0.867 -0.2736  0.0501  0.2446
 1537SOL     OW 6177   0.322   1.320   1.015  0.0209  0.2491  0.3462
 1537SOL    HW2 6178   0.265   1.269   0.957 -0.4648  1.2798 -0.0854
 1537SOL    HW3 6179   0.263   1.357   1.080  0.4604 -0.2413  1.0359
 1537SOL    MW4 6180   0.307   1.318   1.016  0.0148  0.3204  0.3802
 1538SOL     OW 6181   1.876   0.424   1.596 -0.1998 -0.3662 -0.3129
 1538SOL    HW2 6182   1.962   0.462   1.576  0.1760  0.1424  2.0938
 1538SOL    HW3 6183   1.814   0.489   1.563  0.3583  0.0113 -0.6440
 1538SOL    MW4 6184   1.879   0.438   1.589 -0.0766 -0.2493 -0.0391
 1539SOL     OW 6185   3.010   0.806   1.760  0.0494  0.3075 -0.7337
 1539SOL    HW2 6186   2.982   0.791   1.670  0.2824 -0.7837 -0.6273
 1539SOL    HW3 6187   2.938   0.855   1.799 -0.4715 -0.0411 -1.2516
 1539SOL    MW4 6188   2.997   0.811   1.754  0.0114  0.1176 -0.7880
 1540SOL     OW 6189   3.604   4.191   2.325 -0.3025 -0.0055 -0.0516
 1540SOL    HW2 6190   3.614   4.120   2.262 -1.1142 -0.6053  0.4803
 1540SOL    HW3 6191   3.509   4.204   2.331 -0.1817  0.7932  0.2287
 1540SOL    MW4 6192   3.593   4.184   2.317 -0.3936  0.0207  0.0555
 1541SOL     OW 6193   0.674   2.544   1.993 -0.3814 -0.2045 -0.3060
 1541SOL    HW2 6194   0.671   2.460   2.040  0.1637 -0.8471 -1.4208
 1541SOL    HW3 6195   0.728   2.600   2.048  1.3240 -1.3548 -0.7885
 1541SOL    MW4 6196   0.681   2.540   2.007 -0.0844 -0.4411 -0.5168
 1542SOL     OW 6197   0.114   1.538   4.229 -0.2135 -0.4045  0.0534
 1542SOL    HW2 6198   0.040   1.598   4.226 -0.3423 -0.5551  0.2464
 1542SOL    HW3 6199   0.146   1.536   4.139 -0.5715 -0.4980 -0.0733
 1542SOL    MW4 6200   0.109   1.545   4.217 -0.2777 -0.4367  0.0621
 1543SOL     OW 6201   2.365   3.376   3.664 -0.1256 -1.0352  0.5812
 1543SOL    HW2 6202   2.348   3.443   3.597 -1.2542 -0.4558  1.4353
 1543SOL    HW3 6203   2.416   3.309   3.618  1.6096  0.7145 -0.1196
 1543SOL    MW4 6204   2.369   3.376   3.649 -0.0456 -0.7279  0.6014
 1544SOL     OW 6205   2.534   1.976   0.626  0.1304 -0.4949  0.6347
 1544SOL    HW2 6206   2.495   1.889   0.635 -0.7035 -0.1495  0.4467
 1544SOL    HW3 6207   2.554   2.004   0.715  1.5441 -1.3827  0.6142
 1544SOL    MW4 6208   2.531   1.968   0.639  0.2069 -0.5665  0.6072
 1545SOL     OW 6209   3.052   3.805   2.933  0.4622 -0.0135 -0.1096
 1545SOL    HW2 6210   2.968   3.810   2.889  0.7413  0.7011 -0.5704
 1545SOL    HW3 6211   3.111   3.858   2.879  1.4449 -1.3094 -0.3440
 1545SOL    MW4 6212   3.049   3.813   2.920  0.6287 -0.0902 -0.2013
 1546SOL     OW 6213   2.657   0.050   4.223 -0.1226  0.2479 -0.1573
 1546SOL    HW2 6214   2.726   0.097   4.270 -1.3635  0.8381  1.1230
 1546SOL    HW3 6215   2.656  -0.037   4.264  0.1781  0.0768 -0.5079
 1546SOL    MW4 6216   2.666   0.045   4.235 -0.2467  0.3032 -0.0346
 1547SOL     OW 6217   0.581   3.759   2.040  0.6554  0.0875  0.2770
 1547SOL    HW2 6218   0.568   3.674   1.997 -0.1902  0.1202  0.4501
 1547SOL    HW3 6219   0.520   3.758   2.114  0.1862  1.0868 -0.0812
 1547SOL    MW4 6220   0.571   3.748   2.044  0.4819  0.2236  0.2526
 1548SOL     OW 6221   4.336   0.221   2.265 -0.0700  0.1189  0.0446
 1548SOL    HW2 6222   4.297   0.308   2.253  1.7069  0.7135 -1.6140
 1548SOL    HW3 6223   4.285   0.182   2.337 -3.0259  1.2717 -1.3196
 1548SOL    MW4 6224   4.324   0.227   2.273 -0.2256  0.3495 -0.3542
 1549SOL     OW 6225   2.653   1.291   0.599  0.0342  0.1745 -0.2534
 1549SOL    HW2 6226   2.638   1.386   0.602  0.9257  0.3334 -0.4064
 1549SOL    HW3 6227   2.605   1.261   0.522  0.4290  0.6397 -0.6839
 1549SOL    MW4 6228   2.645   1.300   0.589  0.2039  0.2569 -0.3304
 1550SOL     OW 6229   4.435   3.991   3.983 -0.0372  0.1135  0.1398
 1550SOL    HW2 6230   4.408   3.906   4.019 -0.9998  0.4898  0.3052
 1550SOL    HW3 6231   4.521   4.007   4.022 -0.8147  0.2413  1.8269
 1550SOL    MW4 6232   4.443   3.982   3.993 -0.2668  0.1800  0.3842
 1551SOL     OW 6233   1.006   0.320   0.914 -0.3183 -0.1854 -0.2565
 1551SOL    HW2 6234   0.935   0.366   0.958 -1.2050 -1.1812 -0.6118
 1551SOL    HW3 6235   1.085   0.346   0.961 -1.0423  0.1292  0.7955
 1551SOL    MW4 6236   1.007   0.330   0.926 -0.5308 -0.2753 -0.1646
 1552SOL     OW 6237   1.680   2.241   3.741  0.1850 -0.1136  0.0238
 1552SOL    HW2 6238   1.610   2.176   3.740  0.7585 -0.7419 -2.6515
 1552SOL    HW3 6239   1.663   2.295   3.663  2.0544  0.3989 -0.0416
 1552SOL    MW4 6240   1.669   2.240   3.730  0.5073 -0.1289 -0.3378
 1553SOL     OW 6241   1.653   0.201   4.019  0.1173  0.1123  0.0109
 1553SOL    HW2 6242   1.713   0.200   4.093  0.4563  1.9927 -0.2228
 1553SOL    HW3 6243   1.575   0.244   4.051 -0.6287 -1.1555 -0.0687
 1553SOL    MW4 6244   1.651   0.207   4.033  0.0636  0.1931 -0.0305
 1554SOL     OW 6245   1.903   2.557   0.884  0.0444 -0.1850 -0.4707
 1554SOL    HW2 6246   1.959   2.603   0.821 -0.9945  0.1567 -1.1420
 1554SOL    HW3 6247   1.831   2.618   0.901 -1.9315 -1.9941 -2.1955
 1554SOL    MW4 6248   1.901   2.571   0.878 -0.3534 -0.3786 -0.7869
 1555SOL     OW 6249   4.126   3.547   4.420 -0.4025 -0.4338  0.5323
 1555SOL    HW2 6250   4.179   3.481   4.377 -0.7567 -0.1782 -0.3032
 1555SOL    HW3 6251   4.167   3.560   4.505  0.0806 -1.2111  0.4126
 1555SOL    MW4 6252   4.138   3.540   4.426 -0.3855 -0.5027  0.4063
 1556SOL     OW 6253   0.029   0.393   3.014 -0.0926 -0.1099 -0.0251
 1556SOL    HW2 6254   0.116   0.426   3.038 -0.1587  0.8115 -0.9931
 1556SOL    HW3 6255   0.045   0.327   2.947 -0.0174 -1.4413  1.2838
 1556SOL    MW4 6256   0.042   0.389   3.008 -0.0914 -0.1640  0.0198
 1557SOL     OW 6257   0.038   0.487   4.383 -0.6025 -0.1372 -0.4216
 1557SOL    HW2 6258  -0.058   0.488   4.389 -0.6638 -1.0624 -1.0538
 1557SOL    HW3 6259   0.063   0.579   4.390 -1.5554  0.1349 -0.4544
 1557SOL    MW4 6260   0.028   0.499   4.384 -0.7363 -0.2234 -0.5093
 1558SOL     OW 6261   0.626   1.750   3.311 -0.1029 -0.3806  0.0026
 1558SOL    HW2 6262   0.639   1.844   3.320  1.4324 -0.7373  1.7572
 1558SOL    HW3 6263   0.666   1.728   3.226  1.6622  0.1816  0.6797
 1558SOL    MW4 6264   0.633   1.759   3.301  0.3326 -0.3535  0.3234
 1559SOL     OW 6265   1.607   1.873   3.093  0.3726 -0.0938  0.4167
 1559SOL    HW2 6266   1.638   1.783   3.090  0.0021 -0.3360  3.0101
 1559SOL    HW3 6267   1.687   1.926   3.095  0.5905 -0.3288 -1.3602
 1559SOL    MW4 6268   1.622   1.868   3.093  0.3524 -0.1568  0.5244
 1560SOL     OW 6269   2.013   3.901   4.291  0.2906  0.4314  0.1374
 1560SOL    HW2 6270   1.986   3.810   4.282 -2.5448  1.3577 -1.0906
 1560SOL    HW3 6271   2.090   3.909   4.234 -0.0727 -0.9238 -0.5514
 1560SOL    MW4 6272   2.020   3.890   4.283 -0.1314  0.3748 -0.1155
 1561SOL     OW 6273   2.154   1.050   1.582  0.0808 -0.1960  0.1912
 1561SOL    HW2 6274   2.071   1.090   1.609  1.1091  2.2958 -0.2302
 1561SOL    HW3 6275   2.128   0.986   1.515 -1.4678  0.8000 -0.1965
 1561SOL    MW4 6276   2.140   1.047   1.576  0.0122  0.2642  0.0844
 1562SOL     OW 6277   3.099   4.666   4.245 -0.3569 -0.0812  0.4943
 1562SOL    HW2 6278   3.087   4.701   4.156  0.0102  2.4451  1.3954
 1562SOL    HW3 6279   3.183   4.621   4.241 -0.8920 -0.9819 -0.7431
 1562SOL    MW4 6280   3.109   4.665   4.233 -0.3790  0.1333  0.4500
 1563SOL     OW 6281   0.866   4.096   1.842 -0.2165 -0.5174 -0.2043
 1563SOL    HW2 6282   0.894   4.043   1.916 -0.1233 -0.5631 -0.2720
 1563SOL    HW3 6283   0.833   4.032   1.778  1.5418 -0.6503 -1.0183
 1563SOL    MW4 6284   0.865   4.080   1.843  0.0278 -0.5409 -0.3206
 1564SOL     OW 6285   0.724   1.684   3.061  0.3067  0.3415  0.2612
 1564SOL    HW2 6286   0.765   1.617   3.117  0.4953  0.9178  0.8193
 1564SOL    HW3 6287   0.798   1.730   3.022  0.2061  1.2073  1.0582
 1564SOL    MW4 6288   0.739   1.681   3.064  0.3183  0.5317  0.4400
 1565SOL     OW 6289   4.154   1.960   4.002  0.4238  0.1481  0.2323
 1565SOL    HW2 6290   4.193   2.038   3.964  0.4742 -0.1181 -0.2739
 1565SOL    HW3 6291   4.162   1.894   3.933  1.2051 -0.5517  0.9950
 1565SOL    MW4 6292   4.160   1.961   3.988  0.5335  0.0207  0.2662
 1566SOL     OW 6293   0.437   2.674   0.549 -0.4464  0.1725  0.3187
 1566SOL    HW2 6294   0.421   2.731   0.624 -2.3280  0.5801 -0.3518
 1566SOL    HW3 6295   0.518   2.628   0.570  0.6985  2.5142  1.2243
 1566SOL    MW4 6296   0.445   2.676   0.562 -0.5436  0.5352  0.3498
 1567SOL     OW 6297   3.248   0.398   1.600 -0.0558 -0.4396  0.6531
 1567SOL    HW2 6298   3.223   0.451   1.675 -1.1349  0.5405 -0.3782
 1567SOL    HW3 6299   3.169   0.349   1.576 -0.7386  1.7919 -1.8927
 1567SOL    MW4 6300   3.234   0.398   1.607 -0.2883 -0.0159  0.1811
 1568SOL     OW 6301   1.541   0.870   3.617  0.6750 -0.0490  0.5430
 1568SOL    HW2 6302   1.568   0.960   3.629  0.2090  0.1999 -0.2447
 1568SOL    HW3 6303   1.586   0.841   3.537 -0.6322  0.0853 -0.2591
 1568SOL    MW4 6304   1.550   0.878   3.608  0.4411  0.0015  0.3332
 1569SOL     OW 6305   0.344   3.444   4.401 -0.5958  0.4076  0.3362
 1569SOL    HW2 6306   0.411   3.439   4.469 -0.7698  1.1162  0.5584
 1569SOL    HW3 6307   0.348   3.358   4.358  0.6946  0.5742  0.1116
 1569SOL    MW4 6308   0.353   3.432   4.405 -0.4485  0.5230  0.3359
 1570SOL     OW 6309   2.917   1.300   0.549 -0.0737  0.3650  0.0210
 1570SOL    HW2 6310   2.825   1.292   0.574 -0.0176  1.0203  0.4490
 1570SOL    HW3 6311   2.966   1.265   0.624  0.0174 -0.2047 -0.3054
 1570SOL    MW4 6312   2.912   1.294   0.562 -0.0543  0.3763  0.0344
 1571SOL     OW 6313   3.972   2.486   2.785  0.7263  0.1678 -0.3749
 1571SOL    HW2 6314   3.998   2.527   2.868  0.9091  0.8801 -0.7774
 1571SOL    HW3 6315   3.879   2.467   2.796  0.6617  0.6072 -0.1422
 1571SOL    MW4 6316   3.963   2.489   2.798  0.7419  0.3197 -0.3973
 1572SOL     OW 6317   0.773   2.727   1.516  0.0904 -0.3187  0.1101
 1572SOL    HW2 6318   0.733   2.702   1.599 -0.7637 -1.5379 -0.6546
 1572SOL    HW3 6319   0.725   2.677   1.450  0.1499  1.3145 -1.2065
 1572SOL    MW4 6320   0.761   2.717   1.518 -0.0144 -0.2641 -0.1645
 1573SOL     OW 6321   1.337   2.744   0.512  0.3184 -0.5728  0.1518
 1573SOL    HW2 6322   1.361   2.704   0.428  1.0436 -1.4210  0.7484
 1573SOL    HW3 6323   1.408   2.719   0.571 -0.0366  0.2675  0.9493
 1573SOL    MW4 6324   1.350   2.736   0.509  0.3672 -0.5739  0.3358
 1574SOL     OW 6325   3.802   0.930   0.379 -0.4461  0.2859  0.2855
 1574SOL    HW2 6326   3.810   0.865   0.309 -0.0125 -1.0243  1.5018
 1574SOL    HW3 6327   3.732   0.896   0.435 -0.4467  1.0540  0.7607
 1574SOL    MW4 6328   3.794   0.917   0.377 -0.3890  0.2144  0.5087
 1575SOL     OW 6329   1.584   2.516   2.704  0.6424  0.1737 -0.3097
 1575SOL    HW2 6330   1.581   2.592   2.645  0.1092 -0.6568 -1.3629
 1575SOL    HW3 6331   1.608   2.553   2.789 -0.4265  1.6483 -0.6236
 1575SOL    MW4 6332   1.586   2.531   2.707  0.4310  0.2587 -0.4901
 1576SOL     OW 6333   2.891   3.313   4.025 -0.6444  0.3746  0.1934
 1576SOL    HW2 6334   2.890   3.274   4.112  0.7746  0.2623  0.1866
 1576SOL    HW3 6335   2.879   3.239   3.966  0.7908  0.0868  0.2273
 1576SOL    MW4 6336   2.890   3.298   4.029 -0.2678  0.3218  0.1970
 1577SOL     OW 6337   3.099   2.636   3.198 -0.0806  0.0004 -0.4173
 1577SOL    HW2 6338   3.017   2.589   3.215 -0.8157  0.6683 -1.9819
 1577SOL    HW3 6339   3.160   2.568   3.170 -0.2439 -0.4389  0.2911
 1577SOL    MW4 6340   3.096   2.621   3.196 -0.1991  0.0306 -0.5302
 1578SOL     OW 6341   2.068   2.230   4.453 -0.4204 -0.0679  0.1911
 1578SOL    HW2 6342   2.060   2.281   4.373 -0.2566 -0.4798 -0.0920
 1578SOL    HW3 6343   2.153   2.256   4.490 -0.0192 -0.6434 -0.3154
 1578SOL    MW4 6344   2.078   2.240   4.447 -0.3459 -0.1982  0.0869
 1579SOL     OW 6345   1.842   3.030   3.380  0.5082 -0.1118  0.1582
 1579SOL    HW2 6346   1.902   3.095   3.417  0.0106 -1.2938  3.1771
 1579SOL    HW3 6347   1.819   2.973   3.454 -2.5275 -1.0756 -1.4379
 1579SOL    MW4 6348   1.847   3.031   3.394  0.0420 -0.3949  0.3459
 1580SOL     OW 6349   2.553   0.232   2.945  0.0589 -0.1242 -0.2820
 1580SOL    HW2 6350   2.525   0.250   3.035 -0.3951  0.6144 -0.5738
 1580SOL    HW3 6351   2.540   0.314   2.898 -0.7301 -0.8057 -1.2921
 1580SOL    MW4 6352   2.548   0.245   2.951 -0.1051 -0.1167 -0.4538
 1581SOL     OW 6353   3.751   1.728   1.870  0.1301 -0.8951 -0.4967
 1581SOL    HW2 6354   3.790   1.783   1.937  0.5857 -1.6293 -0.1459
 1581SOL    HW3 6355   3.661   1.715   1.899  0.2160 -0.8917 -0.2207
 1581SOL    MW4 6356   3.744   1.733   1.883  0.2016 -0.9915 -0.4140
 1582SOL     OW 6357   3.664   4.118   3.097  0.1436  0.3468 -0.4332
 1582SOL    HW2 6358   3.585   4.075   3.065 -0.4874  0.3042  1.1448
 1582SOL    HW3 6359   3.633   4.192   3.149  1.1500  0.6372 -0.2195
 1582SOL    MW4 6360   3.650   4.122   3.099  0.1931  0.3795 -0.1968
 1583SOL     OW 6361   3.088   0.793   1.070 -0.2332 -0.2148  0.2341
 1583SOL    HW2 6362   3.054   0.821   0.985  1.3951 -1.2738 -0.7887
 1583SOL    HW3 6363   3.172   0.838   1.079 -0.6239  0.3014  1.5395
 1583SOL    MW4 6364   3.094   0.803   1.060 -0.0699 -0.2864  0.2714
 1584SOL     OW 6365   1.646   0.636   2.965 -0.7487  0.1982  0.5398
 1584SOL    HW2 6366   1.619   0.691   2.891  0.9638 -1.4211 -1.3390
 1584SOL    HW3 6367   1.735   0.664   2.985 -0.4931 -0.7288  0.6961
 1584SOL    MW4 6368   1.654   0.647   2.958 -0.4890 -0.1378  0.3126
 1585SOL     OW 6369   0.430   1.836   3.489  0.0068 -0.1312 -0.4309
 1585SOL    HW2 6370   0.380   1.755   3.497 -1.9930  1.0904 -0.3497
 1585SOL    HW3 6371   0.504   1.814   3.432  0.2752 -2.3647  0.7507
 1585SOL    MW4 6372   0.433   1.823   3.483 -0.2217 -0.2647 -0.2643
 1586SOL     OW 6373   3.655   0.321   1.412  0.1207 -0.0480 -0.1170
 1586SOL    HW2 6374   3.607   0.268   1.476  1.0924 -0.0110  0.6624
 1586SOL    HW3 6375   3.604   0.401   1.403 -0.8821 -0.7332 -0.6212
 1586SOL    MW4 6376   3.642   0.324   1.419  0.1166 -0.1335 -0.0807
 1587SOL     OW 6377   4.293   1.598   0.604  0.0390  0.4489  0.3798
 1587SOL    HW2 6378   4.385   1.600   0.578 -0.0949  0.2725 -0.1085
 1587SOL    HW3 6379   4.274   1.688   0.632 -0.0242  0.8277 -0.8618
 1587SOL    MW4 6380   4.303   1.610   0.604  0.0130  0.4756  0.1516
 1588SOL     OW 6381   3.686   4.552   3.365  0.0459  0.1150  0.1103
 1588SOL    HW2 6382   3.681   4.600   3.282  0.2989  0.6529  0.4023
 1588SOL    HW3 6383   3.661   4.463   3.343 -1.5422  0.6315 -0.2368
 1588SOL    MW4 6384   3.682   4.547   3.352 -0.1303  0.2541  0.1030
 1589SOL     OW 6385   2.103   2.369   3.464 -0.2787 -0.0923  0.2715
 1589SOL    HW2 6386   2.045   2.427   3.513 -2.5931 -0.7391 -1.6040
 1589SOL    HW3 6387   2.130   2.303   3.528 -1.3593  0.4097  1.2626
 1589SOL    MW4 6388   2.099   2.368   3.479 -0.7266 -0.1114  0.1548
 1590SOL     OW 6389   0.496   2.011   2.812 -0.1829 -0.9701  0.1826
 1590SOL    HW2 6390   0.470   2.049   2.728  0.5590 -0.6156  0.1124
 1590SOL    HW3 6391   0.502   2.085   2.871  0.7016 -1.0473  0.1911
 1590SOL    MW4 6392   0.493   2.026   2.809  0.0317 -0.9335  0.1745
 1591SOL     OW 6393   1.484   0.447   2.635  0.2857  0.4582  0.0258
 1591SOL    HW2 6394   1.445   0.376   2.584  0.6678 -0.7455  1.3796
 1591SOL    HW3 6395   1.539   0.493   2.573 -0.5939  0.0663 -1.0660
 1591SOL    MW4 6396   1.486   0.444   2.620  0.2200  0.2477  0.0604
 1592SOL     OW 6397   0.141   0.127   4.213 -0.7238 -0.0555  0.4326
 1592SOL    HW2 6398   0.050   0.120   4.185 -0.7760  0.2601  0.5190
 1592SOL    HW3 6399   0.165   0.038   4.240 -1.2256 -0.0016  1.0713
 1592SOL    MW4 6400   0.133   0.114   4.213 -0.7969 -0.0067  0.5283
 1593SOL     OW 6401   0.753   3.514   3.165 -0.0312  0.3514 -0.3220
 1593SOL    HW2 6402   0.747   3.470   3.081  1.4046 -1.9315  0.7236
 1593SOL    HW3 6403   0.664   3.547   3.181 -1.0884 -1.9275 -1.2885
 1593SOL    MW4 6404   0.740   3.512   3.156  0.0188 -0.2505 -0.3116
 1594SOL     OW 6405   0.135   1.861   1.731 -0.0455  0.2347  0.0705
 1594SOL    HW2 6406   0.154   1.808   1.809  1.1181 -0.8300 -0.9321
 1594SOL    HW3 6407   0.108   1.798   1.665  1.0513  0.9198 -1.0488
 1594SOL    MW4 6408   0.134   1.846   1.733  0.2528  0.1847 -0.2095
 1595SOL     OW 6409   3.224   2.028   2.009 -0.1295 -0.1953 -0.3104
 1595SOL    HW2 6410   3.316   2.051   1.998 -0.2756  1.2819  1.2850
 1595SOL    HW3 6411   3.179   2.112   2.019 -1.4864 -0.9460  0.1255
 1595SOL    MW4 6412   3.230   2.042   2.009 -0.3278 -0.0994 -0.0424
 1596SOL     OW 6413   1.211   3.367   0.448  0.4032 -0.0890  0.2535
 1596SOL    HW2 6414   1.178   3.278   0.458  0.5851 -0.1618  0.2178
 1596SOL    HW3 6415   1.136   3.423   0.466  0.0531 -0.2602 -0.6284
 1596SOL    MW4 6416   1.197   3.363   0.452  0.3810 -0.1211  0.1324
 1597SOL     OW 6417   2.097   3.292   4.329  0.2365 -0.1817  0.1918
 1597SOL    HW2 6418   2.165   3.359   4.344  1.3774 -0.6316 -2.7472
 1597SOL    HW3 6419   2.145   3.214   4.304 -1.1216 -2.1132  3.2713
 1597SOL    MW4 6420   2.112   3.291   4.328  0.2078 -0.4959  0.2103
 1598SOL     OW 6421   4.152   2.605   4.343  0.3703  0.0735  0.2608
 1598SOL    HW2 6422   4.080   2.658   4.310  1.4946  0.8611 -0.9666
 1598SOL    HW3 6423   4.228   2.663   4.342  1.2436 -1.0272  0.6195
 1598SOL    MW4 6424   4.152   2.619   4.339  0.6339  0.0322  0.1462
 1599SOL     OW 6425   4.134   0.597   2.949  0.0073  0.1478 -0.1584
 1599SOL    HW2 6426   4.084   0.618   3.027 -1.0501  0.1231 -0.8203
 1599SOL    HW3 6427   4.104   0.510   2.924  0.9391 -0.1885 -0.1287
 1599SOL    MW4 6428   4.124   0.588   2.956 -0.0093  0.1002 -0.2418
 1600SOL     OW 6429   1.018   3.823   1.523 -0.2739 -0.3054 -0.3115
 1600SOL    HW2 6430   1.064   3.755   1.573 -0.9507 -0.5249  0.0143
 1600SOL    HW3 6431   1.016   3.788   1.434 -3.2547 -2.1212  0.4086
 1600SOL    MW4 6432   1.024   3.809   1.518 -0.7565 -0.5739 -0.1735
 1601SOL     OW 6433   1.035   4.279   1.508  0.3976 -0.8863  0.2905
 1601SOL    HW2 6434   1.006   4.304   1.596 -1.7976 -0.9041 -0.3771
 1601SOL    HW3 6435   1.070   4.191   1.518  0.5450 -0.7254  1.2238
 1601SOL    MW4 6436   1.036   4.271   1.520  0.1274 -0.8674  0.3256
 1602SOL     OW 6437   1.098   2.285   2.425 -0.3004  0.1125  0.1392
 1602SOL    HW2 6438   1.170   2.231   2.458 -0.7282  0.0745  1.0471
 1602SOL    HW3 6439   1.107   2.368   2.472 -0.2628  0.4559 -0.4800
 1602SOL    MW4 6440   1.109   2.289   2.436 -0.3519  0.1528  0.1773
 1603SOL     OW 6441   2.424   1.694   1.359 -0.6787  0.1639  0.0670
 1603SOL    HW2 6442   2.466   1.754   1.420 -1.2176  1.4546 -0.8136
 1603SOL    HW3 6443   2.493   1.668   1.299  0.2423 -2.3356  2.0956
 1603SOL    MW4 6444   2.438   1.698   1.360 -0.6283  0.0044  0.2184
 1604SOL     OW 6445   0.455   0.699   2.276 -1.4525 -0.2223  0.3152
 1604SOL    HW2 6446   0.487   0.613   2.248 -1.4337 -0.1245  0.0281
 1604SOL    HW3 6447   0.375   0.680   2.325 -0.7573 -0.4935  1.3655
 1604SOL    MW4 6448   0.449   0.685   2.279 -1.3583 -0.2452  0.4159
 1605SOL     OW 6449   3.329   0.922   1.077  0.1524  0.0243  0.0606
 1605SOL    HW2 6450   3.373   0.905   0.994  1.4939  1.9116  0.3584
 1605SOL    HW3 6451   3.379   0.871   1.141 -0.5140 -0.9495 -0.1830
 1605SOL    MW4 6452   3.341   0.913   1.075  0.2414  0.1448  0.0678
 1606SOL     OW 6453   3.139   0.747   0.574 -0.2053 -0.4333  0.1664
 1606SOL    HW2 6454   3.051   0.747   0.536 -0.3654 -0.4584  0.5346
 1606SOL    HW3 6455   3.172   0.659   0.558 -0.8017 -0.8741  1.3004
 1606SOL    MW4 6456   3.132   0.736   0.566 -0.3051 -0.4948  0.3646
 1607SOL     OW 6457   3.733   0.448   2.764  0.0552 -0.4174  0.3035
 1607SOL    HW2 6458   3.725   0.500   2.844 -1.5707 -1.7575  1.0472
 1607SOL    HW3 6459   3.693   0.502   2.695 -1.2225 -0.4675  0.9851
 1607SOL    MW4 6460   3.726   0.462   2.765 -0.3279 -0.6008  0.4915
 1608SOL     OW 6461   2.694   0.321   1.372  0.0599 -0.4569  0.5565
 1608SOL    HW2 6462   2.758   0.381   1.411 -0.6169 -1.4570  3.2765
 1608SOL    HW3 6463   2.723   0.234   1.399 -1.1066 -1.0945 -0.2139
 1608SOL    MW4 6464   2.706   0.318   1.381 -0.1833 -0.6730  0.8137
 1609SOL     OW 6465   3.269   1.011   1.416 -0.1523 -0.4861 -0.2604
 1609SOL    HW2 6466   3.193   1.056   1.379 -0.0005 -0.2746 -0.3159
 1609SOL    HW3 6467   3.334   1.013   1.346  0.4343  0.6532  0.2941
 1609SOL    MW4 6468   3.267   1.017   1.402 -0.0549 -0.3078 -0.1945
 1610SOL     OW 6469   1.903   3.624   2.472 -0.0394  0.0050 -0.3183
 1610SOL    HW2 6470   1.820   3.590   2.504  0.6137  0.1655  1.6290
 1610SOL    HW3 6471   1.892   3.719   2.472  1.0682  0.1846  2.7213
 1610SOL    MW4 6472   1.891   3.632   2.476  0.1929  0.0499  0.3397
 1611SOL     OW 6473   3.380   3.355   2.543  0.3675 -0.3882 -0.1340
 1611SOL    HW2 6474   3.327   3.381   2.467  0.2365 -2.5261 -0.7866
 1611SOL    HW3 6475   3.470   3.377   2.518  0.1255  0.6623 -0.1316
 1611SOL    MW4 6476   3.385   3.361   2.530  0.3183 -0.5317 -0.2198
 1612SOL     OW 6477   1.850   2.530   0.421  0.1815 -0.0591 -0.3051
 1612SOL    HW2 6478   1.928   2.582   0.403 -0.0425  0.4144  0.0590
 1612SOL    HW3 6479   1.883   2.441   0.434  0.8400  0.3896  1.2655
 1612SOL    MW4 6480   1.865   2.525   0.421  0.2388  0.0625 -0.0498
 1613SOL     OW 6481   2.233   0.298   0.549  0.1089 -0.0531  0.5810
 1613SOL    HW2 6482   2.227   0.323   0.641 -0.1698 -1.2416  0.8942
 1613SOL    HW3 6483   2.143   0.275   0.525 -0.0397  1.4219 -0.3358
 1613SOL    MW4 6484   2.220   0.299   0.558  0.0525 -0.0153  0.5013
 1614SOL     OW 6485   4.468   1.792   3.860  0.4229 -0.1289  0.0604
 1614SOL    HW2 6486   4.517   1.783   3.779  0.5318 -0.9380  0.2124
 1614SOL    HW3 6487   4.376   1.787   3.833  0.4690 -0.8856  0.0464
 1614SOL    MW4 6488   4.462   1.790   3.846  0.4433 -0.3355  0.0786
 1615SOL     OW 6489   0.807   3.614   1.259 -0.2203 -0.1802  0.1417
 1615SOL    HW2 6490   0.846   3.567   1.185 -1.5544 -1.2404  0.0987
 1615SOL    HW3 6491   0.862   3.591   1.333  0.5795  0.1568 -0.3342
 1615SOL    MW4 6492   0.819   3.605   1.259 -0.2908 -0.2756  0.0733
 1616SOL     OW 6493   2.519   3.923   2.267 -0.2582  0.6460  0.0228
 1616SOL    HW2 6494   2.567   3.843   2.246 -2.2114 -0.5888  0.1804
 1616SOL    HW3 6495   2.527   3.931   2.362  0.0684  0.7221 -0.0113
 1616SOL    MW4 6496   2.526   3.914   2.277 -0.4728  0.4931  0.0391
 1617SOL     OW 6497   4.025   3.058   3.255  0.4487 -0.1446  0.3434
 1617SOL    HW2 6498   4.087   3.013   3.196 -0.5736 -1.2569  0.1031
 1617SOL    HW3 6499   4.064   3.049   3.342  0.0120 -1.9786  0.3736
 1617SOL    MW4 6500   4.039   3.051   3.259  0.2562 -0.5334  0.3157
 1618SOL     OW 6501   3.134   1.413   4.047  0.1606 -0.1512  0.0220
 1618SOL    HW2 6502   3.217   1.368   4.034  0.3755 -0.1563  1.4063
 1618SOL    HW3 6503   3.130   1.476   3.974  1.0472 -0.6119 -0.4383
 1618SOL    MW4 6504   3.144   1.415   4.035  0.3059 -0.2127  0.1439
 1619SOL     OW 6505   2.529   3.474   3.891  0.1168  0.0229 -0.1631
 1619SOL    HW2 6506   2.625   3.474   3.888  0.0897  0.3807 -1.5658
 1619SOL    HW3 6507   2.503   3.432   3.809 -0.9262  0.7939 -0.2325
 1619SOL    MW4 6508   2.539   3.469   3.880 -0.0244  0.1718 -0.3573
 1620SOL     OW 6509   0.901   0.262   3.102 -0.3905 -0.2252  0.0984
 1620SOL    HW2 6510   0.902   0.201   3.175  0.0941  0.5511  0.7541
 1620SOL    HW3 6511   0.824   0.238   3.051 -1.5081  0.1000  1.6051
 1620SOL    MW4 6512   0.891   0.251   3.105 -0.4740 -0.0798  0.3837
 1621SOL     OW 6513   3.088   0.890   4.065  0.8415 -0.2993 -0.2436
 1621SOL    HW2 6514   3.009   0.845   4.096  1.2025 -1.9092 -1.5978
 1621SOL    HW3 6515   3.096   0.966   4.123 -1.0985 -0.6947  0.5959
 1621SOL    MW4 6516   3.079   0.894   4.077  0.6332 -0.5639 -0.3115
 1622SOL     OW 6517   1.622   3.521   4.078  0.6571 -0.2371 -0.7382
 1622SOL    HW2 6518   1.668   3.438   4.092  0.4782  0.0237  1.6053
 1622SOL    HW3 6519   1.681   3.587   4.115  0.1195  0.5253 -1.2366
 1622SOL    MW4 6520   1.636   3.519   4.085  0.5626 -0.1021 -0.4947
 1623SOL     OW 6521   4.093   2.119   2.842  0.0774  0.3345 -0.0191
 1623SOL    HW2 6522   4.122   2.194   2.790 -1.1568 -1.0998 -2.8951
 1623SOL    HW3 6523   4.173   2.068   2.857  0.6335  1.3368  0.5371
 1623SOL    MW4 6524   4.107   2.122   2.837 -0.0120  0.2775 -0.3252
 1624SOL     OW 6525   1.658   3.269   2.369 -0.2004  0.1670 -0.0822
 1624SOL    HW2 6526   1.565   3.248   2.370  0.1721 -1.5653  1.1482
 1624SOL    HW3 6527   1.666   3.347   2.424 -0.6095 -1.2635  2.0943
 1624SOL    MW4 6528   1.647   3.276   2.377 -0.2052 -0.2503  0.3673
 1625SOL     OW 6529   4.287   4.049   0.971 -0.5923  0.2715  0.2943
 1625SOL    HW2 6530   4.320   4.046   1.061 -3.2113  1.4596  1.3772
 1625SOL    HW3 6531   4.298   3.960   0.938  3.6612  0.6485  0.5139
 1625SOL    MW4 6532   4.293   4.037   0.979 -0.3767  0.4780  0.4662
 1626SOL     OW 6533   1.914   1.571   2.070 -0.2074 -0.3782  0.0958
 1626SOL    HW2 6534   1.848   1.513   2.030  0.1090  0.3184 -1.4613
 1626SOL    HW3 6535   1.905   1.555   2.164 -2.0644 -0.8752 -0.1413
 1626SOL    MW4 6536   1.904   1.561   2.077 -0.4107 -0.3518 -0.1409
 1627SOL     OW 6537   2.906   3.502   1.274  0.2722 -0.0630  0.3004
 1627SOL    HW2 6538   2.995   3.491   1.240 -0.6310 -1.3262 -1.7346
 1627SOL    HW3 6539   2.886   3.595   1.260  0.8547 -0.0260 -0.2873
 1627SOL    MW4 6540   2.915   3.513   1.268  0.2299 -0.2248 -0.0456
 1628SOL     OW 6541   2.761   1.013   4.682  0.0169 -0.3014  0.7956
 1628SOL    HW2 6542   2.850   0.987   4.705  0.9703  0.6226 -1.6636
 1628SOL    HW3 6543   2.726   0.938   4.635  0.0273 -0.0879  0.4484
 1628SOL    MW4 6544   2.768   1.000   4.679  0.1440 -0.1513  0.4253
 1629SOL     OW 6545   1.241   2.537   3.061 -0.6751 -0.0674 -0.0631
 1629SOL    HW2 6546   1.255   2.487   2.981 -1.3530 -0.9437  0.3456
 1629SOL    HW3 6547   1.285   2.620   3.046 -1.2052 -0.0403 -1.5233
 1629SOL    MW4 6548   1.249   2.541   3.049 -0.8345 -0.1795 -0.2019
 1630SOL     OW 6549   3.702   4.028   3.349 -0.3930  0.1981  0.1500
 1630SOL    HW2 6550   3.696   4.053   3.257 -3.3468 -0.6917  0.0264
 1630SOL    HW3 6551   3.735   3.938   3.347 -2.6097 -0.6450 -0.2247
 1630SOL    MW4 6552   3.705   4.020   3.337 -1.0752 -0.0306  0.0843
 1631SOL     OW 6553   1.308   4.382   4.231  0.3277  0.1576 -0.4985
 1631SOL    HW2 6554   1.401   4.404   4.238  0.2725  0.3205 -0.3087
 1631SOL    HW3 6555   1.270   4.405   4.315  0.5984 -2.2575  0.3331
 1631SOL    MW4 6556   1.315   4.388   4.243  0.3561 -0.1396 -0.3638
 1632SOL     OW 6557   3.898   3.029   0.704 -0.1091 -0.0596  0.1838
 1632SOL    HW2 6558   3.844   3.060   0.777  0.3068  0.2304  0.3664
 1632SOL    HW3 6559   3.954   3.103   0.682 -1.5716  0.5470 -1.7252
 1632SOL    MW4 6560   3.898   3.043   0.711 -0.2472  0.0587 -0.0440
 1633SOL     OW 6561   3.106   0.280   3.025 -0.5357 -0.3536 -0.0355
 1633SOL    HW2 6562   3.133   0.208   3.082 -1.4935 -1.2249 -0.6569
 1633SOL    HW3 6563   3.082   0.237   2.943 -0.9231  0.7030 -0.4809
 1633SOL    MW4 6564   3.106   0.265   3.022 -0.7132 -0.3292 -0.1762
 1634SOL     OW 6565   4.121   4.174   2.065  0.4630 -0.0573  0.1091
 1634SOL    HW2 6566   4.143   4.095   2.114 -0.6385  0.7024  1.8969
 1634SOL    HW3 6567   4.077   4.143   1.986 -0.8990 -1.2270  1.2947
 1634SOL    MW4 6568   4.118   4.160   2.061  0.1380 -0.1114  0.5014
 1635SOL     OW 6569   1.885   1.144   1.597 -0.2514  0.2373  0.0815
 1635SOL    HW2 6570   1.840   1.078   1.648  1.3278 -0.9390 -0.0019
 1635SOL    HW3 6571   1.901   1.216   1.658 -0.0094 -0.3944  0.7685
 1635SOL    MW4 6572   1.881   1.145   1.612 -0.0111 -0.0013  0.1611
 1636SOL     OW 6573   3.307   2.255   2.285  0.4320  0.5762 -0.0002
 1636SOL    HW2 6574   3.302   2.305   2.204 -1.7881  0.7750  0.2283
 1636SOL    HW3 6575   3.267   2.312   2.351  0.8602 -0.1843  0.9268
 1636SOL    MW4 6576   3.301   2.269   2.283  0.1956  0.5021  0.1522
 1637SOL     OW 6577   1.087   1.869   3.361 -0.0628  0.3605 -0.2426
 1637SOL    HW2 6578   1.106   1.922   3.439  0.0527  2.0455 -1.3928
 1637SOL    HW3 6579   1.030   1.924   3.308  0.0940 -0.6605 -1.4929
 1637SOL    MW4 6580   1.082   1.884   3.364 -0.0268  0.4481 -0.5593
 1638SOL     OW 6581   0.430   0.057   3.659  0.4839 -0.2646  0.7212
 1638SOL    HW2 6582   0.350   0.050   3.710 -0.2223 -1.4541 -0.5087
 1638SOL    HW3 6583   0.438  -0.028   3.615  1.0707  0.7217 -1.1414
 1638SOL    MW4 6584   0.421   0.045   3.660  0.4681 -0.2914  0.3132
 1639SOL     OW 6585   0.423   4.214   2.704 -0.4260  0.2206  0.3607
 1639SOL    HW2 6586   0.383   4.300   2.701 -0.6147  0.1302  0.3134
 1639SOL    HW3 6587   0.370   4.160   2.645  1.2618  0.7449 -1.7347
 1639SOL    MW4 6588   0.411   4.218   2.696 -0.2282  0.2778  0.0780
 1640SOL     OW 6589   0.290   0.724   4.017 -0.1405  0.2741 -0.2008
 1640SOL    HW2 6590   0.286   0.640   4.063 -1.8904  1.3907  1.7714
 1640SOL    HW3 6591   0.367   0.768   4.053  0.7010 -0.4253 -1.1396
 1640SOL    MW4 6592   0.300   0.719   4.028 -0.2604  0.3292 -0.0645
 1641SOL     OW 6593   0.172   1.425   0.357  0.4100  0.0999 -0.9813
 1641SOL    HW2 6594   0.100   1.362   0.361 -1.1116  1.6707 -2.3535
 1641SOL    HW3 6595   0.147   1.494   0.419  1.2910  0.1157 -0.6329
 1641SOL    MW4 6596   0.159   1.426   0.365  0.3255  0.3092 -1.1163
 1642SOL     OW 6597   3.971   1.872   1.124 -0.3283  0.1085  0.6615
 1642SOL    HW2 6598   4.039   1.847   1.186 -0.7500  1.2214  1.5955
 1642SOL    HW3 6599   3.889   1.840   1.163 -0.3896 -1.0047 -0.3337
 1642SOL    MW4 6600   3.969   1.865   1.137 -0.3920  0.1085  0.6534
 1643SOL     OW 6601   3.513   3.508   3.723 -0.1421 -0.2320 -0.1278
 1643SOL    HW2 6602   3.469   3.439   3.674  1.1564 -1.5422  0.5146
 1643SOL    HW3 6603   3.605   3.501   3.699  0.0776  0.9951  0.2914
 1643SOL    MW4 6604   3.519   3.498   3.714  0.0582 -0.2430  0.0123
 1644SOL     OW 6605   2.504   4.531   1.036 -0.5588  0.2699 -0.4638
 1644SOL    HW2 6606   2.412   4.512   1.015 -0.1972  0.3711 -2.1577
 1644SOL    HW3 6607   2.501   4.614   1.083 -1.2904  0.4393 -0.8049
 1644SOL    MW4 6608   2.491   4.539   1.040 -0.6076  0.3056 -0.7323
 1645SOL     OW 6609   3.444   2.513   1.150  0.0873 -0.6184 -0.6086
 1645SOL    HW2 6610   3.461   2.501   1.244 -1.3683  1.2344 -0.0772
 1645SOL    HW3 6611   3.352   2.541   1.146  0.7010  1.2236 -2.4234
 1645SOL    MW4 6612   3.434   2.515   1.162 -0.0238 -0.1309 -0.7780
 1646SOL     OW 6613   0.996   0.332   4.479  0.0875  0.2121 -0.3070
 1646SOL    HW2 6614   1.049   0.396   4.528  0.4460  0.9347 -1.6076
 1646SOL    HW3 6615   1.054   0.256   4.469  0.0749  0.1298  0.2409
 1646SOL    MW4 6616   1.011   0.331   4.484  0.1331  0.2965 -0.4063
 1647SOL     OW 6617   3.939   4.156   1.305 -0.1317  0.2893 -0.2147
 1647SOL    HW2 6618   4.007   4.180   1.368 -0.3986 -0.9792  0.5859
 1647SOL    HW3 6619   3.979   4.171   1.220  0.7486  0.6525  0.2540
 1647SOL    MW4 6620   3.953   4.161   1.302 -0.0508  0.1699 -0.0473
 1648SOL     OW 6621   1.190   3.451   0.772  0.3082 -0.3002  0.0707
 1648SOL    HW2 6622   1.153   3.469   0.686 -0.8870  0.3189  0.7064
 1648SOL    HW3 6623   1.257   3.385   0.756 -1.9260 -2.3710 -0.9258
 1648SOL    MW4 6624   1.194   3.445   0.759 -0.1443 -0.4917  0.0231
 1649SOL     OW 6625   1.945   3.840   2.021  0.0199  0.4652 -0.3823
 1649SOL    HW2 6626   1.893   3.796   1.954  0.5556 -0.6672 -0.0571
 1649SOL    HW3 6627   2.025   3.868   1.976  0.0507  0.3616 -0.3914
 1649SOL    MW4 6628   1.949   3.838   2.006  0.0946  0.3021 -0.3406
 1650SOL     OW 6629   3.106   3.759   1.336  0.3499  0.2543  0.0994
 1650SOL    HW2 6630   3.057   3.678   1.349  0.6280  0.0467 -0.1276
 1650SOL    HW3 6631   3.080   3.789   1.249 -1.3345  1.5207  1.0180
 1650SOL    MW4 6632   3.096   3.752   1.326  0.1644  0.3940  0.1907
 1651SOL     OW 6633   1.550   0.175   1.254 -0.1692  0.1841  0.6618
 1651SOL    HW2 6634   1.591   0.141   1.334  1.0579  0.2491  0.0830
 1651SOL    HW3 6635   1.523   0.097   1.206  0.6041  0.0777  0.3815
 1651SOL    MW4 6636   1.552   0.160   1.258  0.0947  0.1787  0.5485
 1652SOL     OW 6637   1.067   3.099   1.033 -0.2346  0.5424 -0.4546
 1652SOL    HW2 6638   1.143   3.087   0.976 -0.3768  0.3522 -0.6037
 1652SOL    HW3 6639   1.099   3.157   1.102  0.9878 -2.0274  1.2508
 1652SOL    MW4 6640   1.082   3.105   1.034 -0.0921  0.1782 -0.2493
 1653SOL     OW 6641   3.088   3.817   1.063 -0.2014 -0.2261  0.1619
 1653SOL    HW2 6642   3.167   3.871   1.062 -0.6078  0.3674  0.2262
 1653SOL    HW3 6643   3.112   3.740   1.011  0.7273 -0.4967  0.9600
 1653SOL    MW4 6644   3.102   3.814   1.056 -0.1325 -0.1835  0.2757
 1654SOL     OW 6645   3.878   1.089   2.619  0.0239 -0.7037 -0.1209
 1654SOL    HW2 6646   3.823   1.013   2.599 -0.9377  0.1204 -0.6298
 1654SOL    HW3 6647   3.967   1.055   2.616 -0.3684 -1.6935 -0.9015
 1654SOL    MW4 6648   3.882   1.074   2.616 -0.1547 -0.7256 -0.2910
 1655SOL     OW 6649   1.910   4.194   0.929 -0.5007  0.3142  0.3104
 1655SOL    HW2 6650   1.998   4.203   0.893 -0.6625 -0.4798 -0.2960
 1655SOL    HW3 6651   1.871   4.123   0.879 -0.9904 -0.3165  1.5667
 1655SOL    MW4 6652   1.916   4.186   0.917 -0.5867  0.1262  0.3961
 1656SOL     OW 6653   3.793   4.375   2.213  0.7279 -0.3219  0.1193
 1656SOL    HW2 6654   3.874   4.353   2.260  1.6497 -2.0072 -2.1821
 1656SOL    HW3 6655   3.728   4.314   2.249  0.8644 -0.0733  0.7999
 1656SOL    MW4 6656   3.795   4.364   2.224  0.8675 -0.5114 -0.0946
 1657SOL     OW 6657   0.965   3.515   3.530  0.2061  0.1731  0.6515
 1657SOL    HW2 6658   1.000   3.504   3.441  0.4523  1.3168  0.5983
 1657SOL    HW3 6659   0.984   3.432   3.573  1.3452  0.1040  0.0555
 1657SOL    MW4 6660   0.972   3.503   3.524  0.3889  0.3149  0.5659
 1658SOL     OW 6661   3.993   4.527   2.982 -0.1801 -0.4849  0.2907
 1658SOL    HW2 6662   4.012   4.483   2.898 -0.5751 -0.5157  0.2175
 1658SOL    HW3 6663   4.075   4.571   3.004  0.3186 -1.4856  0.5031
 1658SOL    MW4 6664   4.007   4.527   2.974 -0.1664 -0.6210  0.3091
 1659SOL     OW 6665   3.899   1.231   3.374 -0.2538  0.0497  0.2104
 1659SOL    HW2 6666   3.873   1.279   3.295  2.2101 -1.7164 -1.7165
 1659SOL    HW3 6667   3.946   1.296   3.427 -0.4546  0.7965 -0.5115
 1659SOL    MW4 6668   3.901   1.246   3.371  0.0448 -0.0848 -0.1391
 1660SOL     OW 6669   0.764   2.208   4.439  0.1917  0.3908  0.0320
 1660SOL    HW2 6670   0.822   2.134   4.418  0.0331  0.2235  0.1821
 1660SOL    HW3 6671   0.680   2.184   4.399  0.3801  0.8949 -0.6809
 1660SOL    MW4 6672   0.760   2.195   4.431  0.1957  0.4353 -0.0422
 1661SOL     OW 6673   1.583   1.342   4.006 -0.0352 -0.0064 -0.2039
 1661SOL    HW2 6674   1.660   1.288   3.987 -0.6350 -0.6332 -0.8686
 1661SOL    HW3 6675   1.609   1.431   3.981  0.6815 -0.1156  0.1500
 1661SOL    MW4 6676   1.597   1.347   4.000 -0.0198 -0.1035 -0.2449
 1662SOL     OW 6677   1.362   2.813   3.027 -0.0918 -0.0689 -0.1922
 1662SOL    HW2 6678   1.439   2.832   3.082 -0.6038  0.0033  0.5109
 1662SOL    HW3 6679   1.288   2.843   3.080 -0.5697  0.3463 -1.0837
 1662SOL    MW4 6680   1.362   2.820   3.041 -0.2224 -0.0046 -0.2170
 1663SOL     OW 6681   0.299   3.435   3.034 -0.1754  0.3347 -0.5565
 1663SOL    HW2 6682   0.240   3.425   3.110  0.1207  0.7612 -0.2684
 1663SOL    HW3 6683   0.240   3.456   2.961 -0.3885  0.7249 -0.2762
 1663SOL    MW4 6684   0.283   3.437   3.035 -0.1644  0.4424 -0.4815
 1664SOL     OW 6685   1.486   0.077   3.109 -0.0857  0.6601  0.6562
 1664SOL    HW2 6686   1.474   0.105   3.018 -1.0962 -0.0046  0.5841
 1664SOL    HW3 6687   1.553   0.137   3.143  0.9706  0.3304 -0.7850
 1664SOL    MW4 6688   1.493   0.089   3.102 -0.0796  0.5289  0.4566
 1665SOL     OW 6689   0.543   4.303   4.227 -0.2314 -0.7589 -0.4336
 1665SOL    HW2 6690   0.636   4.284   4.237 -0.3637 -1.0538  0.2525
 1665SOL    HW3 6691   0.536   4.398   4.235  0.0761 -0.6752 -1.0643
 1665SOL    MW4 6692   0.555   4.313   4.229 -0.2083 -0.7868 -0.4263
 1666SOL     OW 6693   3.449   0.652   2.999  0.1599 -0.6265  0.0307
 1666SOL    HW2 6694   3.443   0.748   2.999 -0.4769 -0.6461  1.9163
 1666SOL    HW3 6695   3.418   0.626   2.912 -0.2616  0.8428 -0.2693
 1666SOL    MW4 6696   3.444   0.661   2.988  0.0203 -0.4353  0.2399
 1667SOL     OW 6697   1.710   0.190   0.538  0.0709 -0.1591 -0.2970
 1667SOL    HW2 6698   1.729   0.196   0.632 -0.2175 -1.4539 -0.1454
 1667SOL    HW3 6699   1.638   0.251   0.523  0.3799  0.3374  0.2548
 1667SOL    MW4 6700   1.703   0.199   0.548  0.0736 -0.2644 -0.2042
 1668SOL     OW 6701   0.477   1.282   2.631  0.1670  0.1438  0.1547
 1668SOL    HW2 6702   0.475   1.221   2.705 -0.1623  0.3113  0.2874
 1668SOL    HW3 6703   0.570   1.292   2.611  0.3410  1.0456  1.3450
 1668SOL    MW4 6704   0.489   1.275   2.638  0.1465  0.2848  0.3292
 1669SOL     OW 6705   3.606   2.092   0.983 -0.4354 -0.0646 -0.0570
 1669SOL    HW2 6706   3.640   2.177   1.010  1.8778 -0.7436 -0.7681
 1669SOL    HW3 6707   3.656   2.070   0.905 -0.9771 -2.1240  0.1629
 1669SOL    MW4 6708   3.617   2.100   0.976 -0.2017 -0.4259 -0.1218
 1670SOL     OW 6709   2.025   3.037   2.216  0.2977  0.2523 -0.2332
 1670SOL    HW2 6710   2.001   3.062   2.127 -0.6702 -0.6782 -0.2401
 1670SOL    HW3 6711   2.039   2.943   2.212 -1.1236 -0.0174  0.8864
 1670SOL    MW4 6712   2.024   3.028   2.204 -0.0175  0.0940 -0.0864
 1671SOL     OW 6713   0.293   2.275   0.862 -1.3997 -0.0788 -0.1266
 1671SOL    HW2 6714   0.332   2.341   0.919  0.4541 -0.0434 -1.4020
 1671SOL    HW3 6715   0.199   2.287   0.872 -1.1224  3.5354 -1.2132
 1671SOL    MW4 6716   0.286   2.285   0.871 -1.1185  0.4027 -0.4382
 1672SOL     OW 6717   1.701   3.794   2.765 -0.0004  0.2179 -0.1889
 1672SOL    HW2 6718   1.719   3.703   2.789  0.9613 -0.2021 -2.3452
 1672SOL    HW3 6719   1.780   3.841   2.790  0.6270 -0.0583 -1.5698
 1672SOL    MW4 6720   1.714   3.788   2.771  0.2093  0.1261 -0.6556
 1673SOL     OW 6721   4.341   4.587   1.300 -0.3442 -0.1337 -0.5409
 1673SOL    HW2 6722   4.387   4.503   1.300 -1.2808 -0.6411 -0.6741
 1673SOL    HW3 6723   4.282   4.582   1.376  0.8643  1.0947  0.5244
 1673SOL    MW4 6724   4.340   4.576   1.310 -0.3083 -0.0386 -0.4180
 1674SOL     OW 6725   1.614   1.142   3.720  0.4198 -0.0788  0.1536
 1674SOL    HW2 6726   1.538   1.191   3.751  1.5359  1.5680  0.3177
 1674SOL    HW3 6727   1.648   1.100   3.799 -0.1870 -0.6602  0.1139
 1674SOL    MW4 6728   1.609   1.143   3.735  0.4870  0.0617  0.1700
 1675SOL     OW 6729   0.810   0.455   2.437  0.8791 -0.0580  0.1622
 1675SOL    HW2 6730   0.814   0.363   2.464  0.2494 -0.3147 -0.5910
 1675SOL    HW3 6731   0.755   0.497   2.503  0.5597 -0.3735  0.0986
 1675SOL    MW4 6732   0.803   0.448   2.449  0.7538 -0.1335  0.0545
 1676SOL     OW 6733   2.465   4.278   2.659  0.4452  0.2186 -0.5195
 1676SOL    HW2 6734   2.496   4.202   2.708  1.1543  0.6938 -0.2186
 1676SOL    HW3 6735   2.389   4.247   2.611  0.7302 -0.6773 -0.3902
 1676SOL    MW4 6736   2.460   4.264   2.659  0.5764  0.1631 -0.4627
 1677SOL     OW 6737   2.655   0.663   4.048 -0.0837  0.2204  0.1623
 1677SOL    HW2 6738   2.599   0.708   4.112 -1.5156  0.4125 -1.2229
 1677SOL    HW3 6739   2.613   0.678   3.964  1.4906 -0.5266 -0.7767
 1677SOL    MW4 6740   2.642   0.671   4.046 -0.0649  0.1472 -0.1444
 1678SOL     OW 6741   2.868   3.991   1.371  0.0183 -0.1490  0.2713
 1678SOL    HW2 6742   2.933   4.059   1.355 -0.1537 -0.2289 -0.7849
 1678SOL    HW3 6743   2.786   4.039   1.385  0.5497  0.0308  3.0514
 1678SOL    MW4 6744   2.865   4.007   1.371  0.0657 -0.1358  0.4988
 1679SOL     OW 6745   0.750   3.141   2.364  0.0609  0.0360  0.0621
 1679SOL    HW2 6746   0.805   3.085   2.419 -1.9813  0.0756  2.2232
 1679SOL    HW3 6747   0.808   3.211   2.335  1.5106 -0.7299  1.0867
 1679SOL    MW4 6748   0.765   3.143   2.367 -0.0173 -0.0598  0.4824
 1680SOL     OW 6749   0.732   0.879   1.768 -0.3627  0.1177 -0.0609
 1680SOL    HW2 6750   0.749   0.795   1.726 -1.4754  0.8418 -2.0296
 1680SOL    HW3 6751   0.671   0.859   1.838  0.4370 -0.9146  0.3467
 1680SOL    MW4 6752   0.726   0.865   1.771 -0.4040  0.0770 -0.2668
 1681SOL     OW 6753   3.343   2.154   0.966 -0.6419 -0.2042  0.0378
 1681SOL    HW2 6754   3.439   2.156   0.955 -0.7859  1.1251 -1.1038
 1681SOL    HW3 6755   3.313   2.095   0.897 -0.7537  0.4458 -0.4703
 1681SOL    MW4 6756   3.352   2.147   0.955 -0.6757  0.0570 -0.1798
 1682SOL     OW 6757   0.289   2.888   2.738 -0.5911  0.3316  0.5494
 1682SOL    HW2 6758   0.254   2.811   2.692 -0.2631  0.7615 -0.4368
 1682SOL    HW3 6759   0.361   2.918   2.683 -0.5068  1.1548  1.1023
 1682SOL    MW4 6760   0.294   2.881   2.725 -0.5367  0.4969  0.4922
 1683SOL     OW 6761   0.226   2.540   4.353 -0.2737 -0.4422 -0.2033
 1683SOL    HW2 6762   0.244   2.538   4.260 -0.2794 -1.6602 -0.1871
 1683SOL    HW3 6763   0.312   2.537   4.395 -0.3227 -1.1487 -0.1584
 1683SOL    MW4 6764   0.239   2.539   4.346 -0.2809 -0.6961 -0.1952
 1684SOL     OW 6765   0.531   2.918   2.083 -0.0749  0.0576 -0.1426
 1684SOL    HW2 6766   0.495   2.832   2.064 -0.8922  0.5576 -0.9053
 1684SOL    HW3 6767   0.583   2.906   2.163 -0.5391 -1.0342 -0.0064
 1684SOL    MW4 6768   0.533   2.905   2.091 -0.2440 -0.0205 -0.2253
 1685SOL     OW 6769   0.158   0.588   3.644 -0.4947 -0.1675 -0.5944
 1685SOL    HW2 6770   0.158   0.549   3.556  0.1184 -0.7066 -0.3621
 1685SOL    HW3 6771   0.067   0.581   3.673 -0.6209 -0.3517 -1.0263
 1685SOL    MW4 6772   0.146   0.582   3.636 -0.4304 -0.2629 -0.6207
 1686SOL     OW 6773   4.202   2.329   2.706  0.7534 -0.8483 -0.0188
 1686SOL    HW2 6774   4.244   2.369   2.630  1.0194 -1.4230 -0.1733
 1686SOL    HW3 6775   4.128   2.386   2.725  0.3497 -1.0245 -1.0517
 1686SOL    MW4 6776   4.198   2.342   2.699  0.7352 -0.9474 -0.1755
 1687SOL     OW 6777   0.561   3.458   0.914  0.0462 -0.2217  0.1951
 1687SOL    HW2 6778   0.568   3.440   0.821  0.8955  1.2293 -0.0340
 1687SOL    HW3 6779   0.489   3.403   0.944  0.4370 -1.4842 -1.1020
 1687SOL    MW4 6780   0.553   3.448   0.906  0.2098 -0.1968 -0.0063
 1688SOL     OW 6781   3.937   3.098   2.842 -0.0953  0.0198  0.0758
 1688SOL    HW2 6782   3.962   3.160   2.910 -0.7148 -0.5756  0.8504
 1688SOL    HW3 6783   3.841   3.102   2.840 -0.0471  1.3629 -2.0093
 1688SOL    MW4 6784   3.928   3.107   2.851 -0.1707  0.1185 -0.0971
 1689SOL     OW 6785   1.779   3.045   2.978  0.4980  0.8249  0.2703
 1689SOL    HW2 6786   1.858   3.070   3.027  0.3494 -1.8416  2.0090
 1689SOL    HW3 6787   1.708   3.055   3.041  0.0959 -1.1887  0.1820
 1689SOL    MW4 6788   1.780   3.050   2.993  0.4253  0.2074  0.4880
 1690SOL     OW 6789   2.660   0.941   1.626  0.5878  0.1838  0.5855
 1690SOL    HW2 6790   2.741   0.988   1.611  0.4341  0.2244 -0.0985
 1690SOL    HW3 6791   2.598   1.009   1.654  0.2416  0.4679 -0.8396
 1690SOL    MW4 6792   2.662   0.956   1.628  0.5219  0.2266  0.3072
 1691SOL     OW 6793   0.097   1.319   3.271  0.2078  0.1391 -0.2080
 1691SOL    HW2 6794   0.192   1.306   3.279  0.4810  1.9814 -0.2631
 1691SOL    HW3 6795   0.071   1.362   3.352 -0.5768 -0.3312 -0.2073
 1691SOL    MW4 6796   0.106   1.323   3.283  0.1403  0.3201 -0.2152
 1692SOL     OW 6797   1.991   0.214   2.912 -0.5008 -0.1210  0.4419
 1692SOL    HW2 6798   2.019   0.286   2.967  0.8124 -1.0696  1.0446
 1692SOL    HW3 6799   1.921   0.250   2.858 -0.6099  1.2869  1.5090
 1692SOL    MW4 6800   1.985   0.228   2.912 -0.3419 -0.0604  0.6622
 1693SOL     OW 6801   3.885   4.538   1.176 -0.3339  0.1297 -0.4034
 1693SOL    HW2 6802   3.808   4.580   1.137 -1.6699 -0.9038  1.0013
 1693SOL    HW3 6803   3.924   4.606   1.231 -2.3269 -0.3173  1.6505
 1693SOL    MW4 6804   3.880   4.552   1.178 -0.7731 -0.0657  0.0529
 1694SOL     OW 6805   4.208   1.221   3.458 -0.5745 -0.5183  0.0949
 1694SOL    HW2 6806   4.154   1.160   3.509 -2.2024  0.3722 -0.5265
 1694SOL    HW3 6807   4.297   1.185   3.463 -1.1415 -1.7571  1.5244
 1694SOL    MW4 6808   4.213   1.208   3.465 -0.8641 -0.5642  0.2015
 1695SOL     OW 6809   2.687   3.023   4.143  0.9841  0.0169 -0.4227
 1695SOL    HW2 6810   2.606   3.075   4.148  1.2421  0.3577  0.1812
 1695SOL    HW3 6811   2.757   3.086   4.159  1.2365 -0.7623  1.6873
 1695SOL    MW4 6812   2.685   3.038   4.145  1.0514 -0.0409 -0.0646
 1696SOL     OW 6813   4.067   4.303   2.293 -0.5848 -0.1806 -0.6731
 1696SOL    HW2 6814   4.129   4.371   2.321  1.4949 -2.5905  0.7552
 1696SOL    HW3 6815   4.104   4.269   2.211 -1.0159 -0.3929 -0.7810
 1696SOL    MW4 6816   4.080   4.307   2.286 -0.3673 -0.5266 -0.4989
 1697SOL     OW 6817   3.753   0.015   0.691 -0.1703 -0.1944 -0.4644
 1697SOL    HW2 6818   3.696   0.007   0.767  0.8343  2.8409  0.6903
 1697SOL    HW3 6819   3.838  -0.017   0.721  0.6128  2.4005  0.2319
 1697SOL    MW4 6820   3.757   0.010   0.705  0.0656  0.5484 -0.2202
 1698SOL     OW 6821   1.080   1.550   3.653 -0.4999  0.5401  0.1197
 1698SOL    HW2 6822   1.163   1.527   3.611 -0.6649  0.4489 -0.1597
 1698SOL    HW3 6823   1.024   1.576   3.580 -0.8560  0.1775  0.2673
 1698SOL    MW4 6824   1.084   1.551   3.638 -0.5686  0.4802  0.1023
 1699SOL     OW 6825   3.743   4.250   1.961 -0.1533  0.0348  0.1844
 1699SOL    HW2 6826   3.793   4.302   1.898 -0.4583  1.7450  1.3240
 1699SOL    HW3 6827   3.755   4.295   2.044 -1.2578 -1.1582  1.0096
 1699SOL    MW4 6828   3.751   4.263   1.963 -0.3393  0.1030  0.4436
 1700SOL     OW 6829   4.356   3.603   1.221  0.0262 -0.0769 -0.2636
 1700SOL    HW2 6830   4.343   3.520   1.266 -1.3871  0.8284  1.0208
 1700SOL    HW3 6831   4.445   3.628   1.243 -0.4016 -0.0023  1.4545
 1700SOL    MW4 6832   4.366   3.595   1.230 -0.2167  0.0524  0.1325
 1701SOL     OW 6833   1.989   4.579   0.598  0.0627  0.2166  0.3034
 1701SOL    HW2 6834   2.082   4.574   0.618 -0.1877  0.4269  1.5181
 1701SOL    HW3 6835   1.946   4.591   0.682 -0.9172  2.0006 -0.4211
 1701SOL    MW4 6836   1.996   4.580   0.612 -0.0996  0.4797  0.3681
 1702SOL     OW 6837   1.199   2.554   4.050  0.1622  0.4354 -0.2654
 1702SOL    HW2 6838   1.275   2.611   4.054 -0.1887  0.8357  0.8219
 1702SOL    HW3 6839   1.126   2.608   4.082 -0.1447 -0.6581  0.9338
 1702SOL    MW4 6840   1.199   2.569   4.054  0.0754  0.3439  0.0363
 1703SOL     OW 6841   4.169   2.965   0.800  0.2112 -0.4940  0.4918
 1703SOL    HW2 6842   4.113   2.924   0.866  0.1856 -0.0234  0.7677
 1703SOL    HW3 6843   4.128   3.050   0.784  0.9417 -0.0735  0.8254
 1703SOL    MW4 6844   4.156   2.971   0.807  0.3042 -0.3764  0.5722
 1704SOL     OW 6845   3.548   1.897   2.871  0.2154 -0.2180  0.3762
 1704SOL    HW2 6846   3.569   1.924   2.781  0.0408  1.1336  0.7359
 1704SOL    HW3 6847   3.617   1.835   2.894  0.4965 -0.2613 -0.5375
 1704SOL    MW4 6848   3.560   1.892   2.862  0.2295 -0.0453  0.3031
 1705SOL     OW 6849   1.770   2.914   3.626 -0.3100  0.4313 -0.0259
 1705SOL    HW2 6850   1.674   2.912   3.632 -0.3198 -0.3333 -0.3505
 1705SOL    HW3 6851   1.797   2.825   3.650  0.2398  0.2749 -1.1959
 1705SOL    MW4 6852   1.761   2.902   3.630 -0.2387  0.3098 -0.2231
 1706SOL     OW 6853   3.933   2.357   1.403 -0.0796  0.4475  0.0282
 1706SOL    HW2 6854   3.949   2.265   1.426 -1.8431 -0.0991 -0.8260
 1706SOL    HW3 6855   3.985   2.407   1.466  1.5872 -1.1383 -0.0407
 1706SOL    MW4 6856   3.942   2.351   1.414 -0.0924  0.1662 -0.0936
 1707SOL     OW 6857   3.608   0.726   0.524  0.5803  0.1840  0.3853
 1707SOL    HW2 6858   3.523   0.768   0.513  0.5827  0.2181  0.4972
 1707SOL    HW3 6859   3.604   0.650   0.466  0.5875  0.3537  0.1626
 1707SOL    MW4 6860   3.596   0.721   0.515  0.5816  0.2109  0.3707
 1708SOL     OW 6861   1.602   2.206   0.967  0.6379 -0.2588 -0.2134
 1708SOL    HW2 6862   1.656   2.236   0.893  0.6017  0.9101  0.2180
 1708SOL    HW3 6863   1.665   2.191   1.037  0.6159 -0.8554 -0.3237
 1708SOL    MW4 6864   1.618   2.208   0.966  0.6302 -0.1833 -0.1711
 1709SOL     OW 6865   2.526   1.691   0.957  0.1553  0.0744  0.6549
 1709SOL    HW2 6866   2.601   1.701   0.900 -0.9385 -1.8036 -1.2062
 1709SOL    HW3 6867   2.451   1.716   0.903 -0.8728 -1.5621  1.2721
 1709SOL    MW4 6868   2.526   1.695   0.942 -0.1246 -0.3893  0.4908
 1710SOL     OW 6869   4.288   3.497   0.636 -0.1900  0.0090 -0.3878
 1710SOL    HW2 6870   4.382   3.479   0.636 -0.0119  0.8903 -0.2202
 1710SOL    HW3 6871   4.266   3.510   0.544 -0.1273 -0.1228 -0.4207
 1710SOL    MW4 6872   4.297   3.497   0.624 -0.1582  0.1079 -0.3700
 1711SOL     OW 6873   1.550   1.310   0.729  0.0610  0.0274  1.0363
 1711SOL    HW2 6874   1.471   1.364   0.729  0.5247  0.7663 -0.8202
 1711SOL    HW3 6875   1.551   1.269   0.643  1.4519 -0.3424  1.2088
 1711SOL    MW4 6876   1.540   1.312   0.718  0.3057  0.0761  0.8141
 1712SOL     OW 6877   0.606   1.219   4.430 -0.0564  0.3563 -0.7179
 1712SOL    HW2 6878   0.591   1.302   4.475 -0.7295 -0.7879  1.2298
 1712SOL    HW3 6879   0.655   1.243   4.352  0.7220  2.4621  0.3713
 1712SOL    MW4 6880   0.611   1.233   4.426 -0.0425  0.4831 -0.3172
 1713SOL     OW 6881   3.647   3.402   2.532  0.5913  0.1163 -0.0211
 1713SOL    HW2 6882   3.648   3.462   2.458  1.8403  0.4510  0.2441
 1713SOL    HW3 6883   3.694   3.325   2.501 -1.0109 -0.7352 -0.3604
 1713SOL    MW4 6884   3.653   3.400   2.518  0.5447  0.0481 -0.0308
 1714SOL     OW 6885   0.135   3.423   3.262  0.3534  0.2703  0.3867
 1714SOL    HW2 6886   0.190   3.367   3.317  2.1317 -0.5251 -2.0918
 1714SOL    HW3 6887   0.056   3.371   3.247 -0.1609  0.5113  2.1868
 1714SOL    MW4 6888   0.132   3.409   3.267  0.5202  0.1972  0.2972
 1715SOL     OW 6889   3.624   3.255   4.171 -0.3180  0.2126 -0.1332
 1715SOL    HW2 6890   3.694   3.233   4.233 -0.9076 -0.7534  0.1932
 1715SOL    HW3 6891   3.609   3.175   4.122  0.5837  1.1555 -1.9752
 1715SOL    MW4 6892   3.631   3.242   4.173 -0.2768  0.2096 -0.3332
 1716SOL     OW 6893   3.992   4.123   0.760  0.0595 -0.3293  0.2421
 1716SOL    HW2 6894   4.030   4.203   0.723 -0.5166  0.1365  0.6484
 1716SOL    HW3 6895   3.902   4.122   0.727  0.1461 -0.9586  0.0146
 1716SOL    MW4 6896   3.985   4.133   0.751 -0.0051 -0.3508  0.2657
 1717SOL     OW 6897   4.263   2.790   3.678 -0.0931 -0.1077  0.2660
 1717SOL    HW2 6898   4.211   2.709   3.672 -0.8390  0.3557  0.3565
 1717SOL    HW3 6899   4.320   2.787   3.602  0.3406 -1.0314  0.6088
 1717SOL    MW4 6900   4.263   2.779   3.667 -0.1343 -0.1685  0.3232
 1718SOL     OW 6901   4.081   1.348   2.230  0.4902  0.2195 -0.2818
 1718SOL    HW2 6902   4.109   1.423   2.283 -0.4270  0.1144  0.3559
 1718SOL    HW3 6903   4.053   1.386   2.147 -2.3492  0.8636  0.9322
 1718SOL    MW4 6904   4.081   1.363   2.226 -0.0054  0.2906 -0.0375
 1719SOL     OW 6905   0.435   0.961   4.141 -0.3040  0.4060 -0.3892
 1719SOL    HW2 6906   0.417   1.047   4.178  1.2922  0.5177  0.1392
 1719SOL    HW3 6907   0.481   0.979   4.059  0.6086  0.0498  0.0372
 1719SOL    MW4 6908   0.439   0.974   4.135  0.0270  0.3738 -0.2632
 1720SOL     OW 6909   3.165   2.663   1.657 -0.3452  0.0244 -0.2299
 1720SOL    HW2 6910   3.126   2.711   1.584  0.3557  0.5422 -0.2636
 1720SOL    HW3 6911   3.251   2.637   1.625  0.0682  0.4867  0.5172
 1720SOL    MW4 6912   3.171   2.666   1.643 -0.1982  0.1537 -0.1357
 1721SOL     OW 6913   3.801   1.519   1.501 -0.5594  0.4322 -0.5125
 1721SOL    HW2 6914   3.888   1.559   1.503 -0.2835 -0.1712 -0.3363
 1721SOL    HW3 6915   3.743   1.588   1.470 -0.0810  0.9649 -0.2220
 1721SOL    MW4 6916   3.805   1.533   1.497 -0.4599  0.4229 -0.4510
 1722SOL     OW 6917   0.227   3.006   3.810 -0.8510 -0.4610  0.2315
 1722SOL    HW2 6918   0.240   2.912   3.800  0.7800 -0.0766 -1.3303
 1722SOL    HW3 6919   0.315   3.044   3.807 -1.5399  1.1845  0.1029
 1722SOL    MW4 6920   0.240   2.999   3.808 -0.7267 -0.1932  0.0085
 1723SOL     OW 6921   0.093   3.139   3.604 -0.8366  0.2347  0.7059
 1723SOL    HW2 6922   0.051   3.201   3.664 -0.7321 -0.2745  1.2995
 1723SOL    HW3 6923   0.135   3.075   3.660  2.7323  1.9921  0.2081
 1723SOL    MW4 6924   0.093   3.139   3.619 -0.3520  0.3994  0.7185
 1724SOL     OW 6925   2.539   0.518   3.564 -0.4816  0.0252 -0.3636
 1724SOL    HW2 6926   2.595   0.445   3.593 -1.3527 -0.8406 -0.8181
 1724SOL    HW3 6927   2.485   0.539   3.640 -1.0625 -0.6124 -0.5932
 1724SOL    MW4 6928   2.539   0.511   3.578 -0.6731 -0.1731 -0.4538
 1725SOL     OW 6929   3.662   1.494   1.232 -0.3424  0.3049 -0.0362
 1725SOL    HW2 6930   3.663   1.440   1.311  0.5850  0.4428  0.0528
 1725SOL    HW3 6931   3.572   1.524   1.225 -0.7429 -0.7831  0.2397
 1725SOL    MW4 6932   3.651   1.491   1.242 -0.2729  0.1795  0.0120
 1726SOL     OW 6933   2.751   3.049   1.582  0.8303  0.0788 -0.7016
 1726SOL    HW2 6934   2.708   3.128   1.550  2.0753  0.6001 -1.1161
 1726SOL    HW3 6935   2.837   3.079   1.613  1.0089 -0.9825 -0.1315
 1726SOL    MW4 6936   2.757   3.063   1.582  1.0181  0.0075 -0.6811
 1727SOL     OW 6937   2.833   4.575   3.960 -0.0753 -0.0215 -0.1123
 1727SOL    HW2 6938   2.739   4.559   3.971  0.0653 -0.0831  1.0488
 1727SOL    HW3 6939   2.856   4.529   3.879 -0.8743 -0.6847  0.0313
 1727SOL    MW4 6940   2.823   4.567   3.950 -0.1622 -0.1171  0.0598
 1728SOL     OW 6941   2.000   1.400   2.760  0.4677 -0.5078 -0.2445
 1728SOL    HW2 6942   2.039   1.384   2.846  1.2023  1.8475 -0.1035
 1728SOL    HW3 6943   2.066   1.368   2.698  0.2952 -1.4358  0.0325
 1728SOL    MW4 6944   2.014   1.393   2.763  0.5419 -0.3195 -0.1894
 1729SOL     OW 6945   4.489   1.224   0.431  0.3673  0.2365 -0.0181
 1729SOL    HW2 6946   4.560   1.160   0.437  0.4275  0.1886 -1.1399
 1729SOL    HW3 6947   4.499   1.279   0.509  0.0747 -1.3632  1.1840
 1729SOL    MW4 6948   4.500   1.223   0.442  0.3367  0.0191 -0.0075
 1730SOL     OW 6949   3.138   0.554   1.813 -0.0514 -0.0980  0.3960
 1730SOL    HW2 6950   3.057   0.504   1.809  0.5865 -1.0278 -1.3765
 1730SOL    HW3 6951   3.111   0.645   1.800 -1.0696 -0.0793  2.3933
 1730SOL    MW4 6952   3.124   0.560   1.811 -0.1015 -0.2182  0.4257
 1731SOL     OW 6953   1.096   1.480   0.192 -0.4048  0.0015  0.1519
 1731SOL    HW2 6954   1.179   1.511   0.228 -0.3936  0.4703 -0.2673
 1731SOL    HW3 6955   1.091   1.521   0.105 -1.1751  0.1470  0.2677
 1731SOL    MW4 6956   1.106   1.490   0.185 -0.5050  0.0825  0.1119
 1732SOL     OW 6957   3.584   3.585   4.399  0.3912  0.0837 -0.0436
 1732SOL    HW2 6958   3.665   3.630   4.377 -0.7634  1.9574 -0.6150
 1732SOL    HW3 6959   3.582   3.583   4.495 -0.3279  2.8272  0.0436
 1732SOL    MW4 6960   3.594   3.591   4.409  0.1440  0.6929 -0.1075
 1733SOL     OW 6961   1.844   1.251   4.292  0.6825 -0.5449  0.3627
 1733SOL    HW2 6962   1.798   1.170   4.311 -0.3036 -0.0405  0.1649
 1733SOL    HW3 6963   1.836   1.303   4.371 -0.5454  0.2166 -0.2518
 1733SOL    MW4 6964   1.837   1.247   4.305  0.3904 -0.3779  0.2555
 1734SOL     OW 6965   3.031   3.458   1.583 -0.0504 -0.9067  0.1401
 1734SOL    HW2 6966   3.041   3.471   1.678  1.0029  2.1262 -0.3046
 1734SOL    HW3 6967   3.116   3.424   1.555 -0.0937 -1.0368  0.1658
 1734SOL    MW4 6968   3.044   3.456   1.592  0.0828 -0.5237  0.0848
 1735SOL     OW 6969   2.884   3.482   0.852  0.0653  0.1043 -0.1164
 1735SOL    HW2 6970   2.883   3.485   0.756 -0.8634  1.7656 -0.0710
 1735SOL    HW3 6971   2.839   3.562   0.879 -0.4921 -0.7920  1.7049
 1735SOL    MW4 6972   2.878   3.493   0.843 -0.1308  0.2052  0.1299
 1736SOL     OW 6973   4.090   3.253   1.922  0.3972  0.4879  0.3837
 1736SOL    HW2 6974   4.170   3.242   1.871 -0.0600  0.2329 -0.2871
 1736SOL    HW3 6975   4.093   3.344   1.952  0.2075  0.9287 -0.9028
 1736SOL    MW4 6976   4.101   3.264   1.920  0.3118  0.5124  0.1254
 1737SOL     OW 6977   3.471   1.458   1.624  0.0141 -0.2577 -0.1093
 1737SOL    HW2 6978   3.501   1.387   1.567  0.2574  0.0467 -0.3619
 1737SOL    HW3 6979   3.486   1.425   1.713  3.0735  0.6951 -0.2191
 1737SOL    MW4 6980   3.477   1.444   1.628  0.4499 -0.0918 -0.1571
 1738SOL     OW 6981   3.646   3.153   3.760 -0.1435  0.0761 -0.0984
 1738SOL    HW2 6982   3.663   3.180   3.670 -0.0185  0.3781  0.0177
 1738SOL    HW3 6983   3.551   3.159   3.769 -0.1751 -0.1434 -0.2695
 1738SOL    MW4 6984   3.636   3.157   3.749 -0.1311  0.0870 -0.1057
 1739SOL     OW 6985   3.878   1.234   2.856 -0.0665  0.2707  0.1657
 1739SOL    HW2 6986   3.812   1.191   2.910 -0.8614 -0.1407 -1.0943
 1739SOL    HW3 6987   3.873   1.189   2.772 -0.9700  2.8318 -1.2283
 1739SOL    MW4 6988   3.868   1.223   2.852 -0.2906  0.5543 -0.1845
 1740SOL     OW 6989   2.543   0.221   0.829 -0.1515 -0.0222  0.3235
 1740SOL    HW2 6990   2.500   0.257   0.907  1.0104  1.4693  0.2856
 1740SOL    HW3 6991   2.626   0.186   0.861  0.0060 -0.0581 -0.1162
 1740SOL    MW4 6992   2.548   0.221   0.843  0.0226  0.1699  0.2605
 1741SOL     OW 6993   0.401   0.608   1.813  0.1487  0.4171 -0.4353
 1741SOL    HW2 6994   0.325   0.585   1.867  1.1699  1.9856  1.7357
 1741SOL    HW3 6995   0.461   0.534   1.825  0.3801  0.7618  0.6424
 1741SOL    MW4 6996   0.399   0.595   1.822  0.3140  0.6695 -0.0067
 1742SOL     OW 6997   2.459   0.611   0.463 -0.0565 -0.3734  0.2336
 1742SOL    HW2 6998   2.522   0.587   0.396  0.8642 -0.2876  1.0603
 1742SOL    HW3 6999   2.473   0.549   0.534 -0.2698  0.2109  0.8001
 1742SOL    MW4 7000   2.469   0.600   0.463  0.0368 -0.2850  0.4174
 1743SOL     OW 7001   1.848   3.033   2.430  0.4718 -0.7308  0.2327
 1743SOL    HW2 7002   1.916   3.030   2.362 -0.0284 -0.8573 -0.2626
 1743SOL    HW3 7003   1.787   3.100   2.400  0.9803  0.1988  1.2503
 1743SOL    MW4 7004   1.849   3.041   2.417  0.4729 -0.6248  0.3016
 1744SOL     OW 7005   3.780   1.992   3.308  0.2700  0.1608  0.5457
 1744SOL    HW2 7006   3.810   1.901   3.311  0.5497  0.2821  2.0277
 1744SOL    HW3 7007   3.756   2.006   3.217 -0.1268 -1.5155  0.3656
 1744SOL    MW4 7008   3.781   1.982   3.296  0.2545 -0.0444  0.7174
 1745SOL     OW 7009   3.057   2.242   2.018 -0.2106 -0.2987 -0.1512
 1745SOL    HW2 7010   3.074   2.327   2.059  0.2872 -0.1402 -0.6879
 1745SOL    HW3 7011   2.962   2.231   2.025 -0.3204  0.4666 -0.4041
 1745SOL    MW4 7012   3.046   2.251   2.024 -0.1594 -0.1768 -0.2554
 1746SOL     OW 7013   0.369   0.121   3.339  0.4041  0.2304 -0.5217
 1746SOL    HW2 7014   0.388   0.098   3.430  0.5088 -0.5619 -0.7407
 1746SOL    HW3 7015   0.309   0.053   3.310 -0.6156  1.1888 -0.6671
 1746SOL    MW4 7016   0.364   0.109   3.347  0.2834  0.2523 -0.5698
 1747SOL     OW 7017   3.116   2.966   3.815 -0.2153 -0.1742  0.0754
 1747SOL    HW2 7018   3.203   2.999   3.793 -0.5695  1.5898  1.2233
 1747SOL    HW3 7019   3.127   2.924   3.900 -0.6580  0.8735  0.6595
 1747SOL    MW4 7020   3.129   2.965   3.823 -0.3205  0.1968  0.3039
 1748SOL     OW 7021   2.540   2.595   2.927 -0.0587  0.2645 -0.6315
 1748SOL    HW2 7022   2.591   2.663   2.882 -0.6710  0.3966 -1.1342
 1748SOL    HW3 7023   2.449   2.616   2.907 -0.2748 -0.4480 -0.4275
 1748SOL    MW4 7024   2.535   2.607   2.918 -0.1680  0.1879 -0.6709
 1749SOL     OW 7025   0.583   4.135   0.564 -0.0144  0.5281 -0.4415
 1749SOL    HW2 7026   0.567   4.042   0.547  0.7237  0.2010  0.6248
 1749SOL    HW3 7027   0.573   4.177   0.478  0.5685 -0.6616 -1.1110
 1749SOL    MW4 7028   0.580   4.128   0.550  0.1599  0.3280 -0.3891
 1750SOL     OW 7029   3.531   2.119   2.396 -0.1743 -0.2456  0.4803
 1750SOL    HW2 7030   3.450   2.158   2.362  0.1440 -0.5229 -0.6021
 1750SOL    HW3 7031   3.589   2.112   2.320  1.1413  0.6021  1.3736
 1750SOL    MW4 7032   3.528   2.124   2.382  0.0413 -0.1703  0.4553
 1751SOL     OW 7033   1.980   1.237   1.878  0.6257 -0.4320  0.7027
 1751SOL    HW2 7034   2.048   1.299   1.902  1.0596 -1.0620  1.1309
 1751SOL    HW3 7035   2.006   1.155   1.920 -0.5529 -0.6060  1.1247
 1751SOL    MW4 7036   1.992   1.234   1.887  0.5275 -0.5381  0.8149
 1752SOL     OW 7037   1.261   3.135   2.205 -0.2319  0.0208 -0.5443
 1752SOL    HW2 7038   1.264   3.223   2.168 -0.8142 -0.4235 -1.6790
 1752SOL    HW3 7039   1.196   3.089   2.152 -0.9986 -0.6748  0.9600
 1752SOL    MW4 7040   1.253   3.141   2.193 -0.4099 -0.1296 -0.4955
 1753SOL     OW 7041   2.299   3.578   3.462  0.0245  0.1671 -0.4387
 1753SOL    HW2 7042   2.306   3.620   3.377  1.5799  0.7707 -0.0189
 1753SOL    HW3 7043   2.205   3.579   3.481 -0.1644  1.5654 -1.3783
 1753SOL    MW4 7044   2.287   3.584   3.454  0.2048  0.4312 -0.5073
 1754SOL     OW 7045   3.704   1.503   2.472 -0.5421  0.0945  0.1997
 1754SOL    HW2 7046   3.771   1.438   2.448  0.5438  1.1502  0.3108
 1754SOL    HW3 7047   3.754   1.578   2.505 -1.7960  0.8297  0.4705
 1754SOL    MW4 7048   3.719   1.504   2.473 -0.5642  0.3307  0.2501
 1755SOL     OW 7049   4.171   3.968   1.515  0.3141 -0.2493 -0.1851
 1755SOL    HW2 7050   4.248   3.972   1.572  0.1223 -1.9402  0.2133
 1755SOL    HW3 7051   4.180   4.044   1.458  2.5056 -0.6477 -0.4099
 1755SOL    MW4 7052   4.183   3.979   1.515  0.5779 -0.5250 -0.1622
 1756SOL     OW 7053   3.099   4.534   0.602  0.0506  0.2473  0.2353
 1756SOL    HW2 7054   3.192   4.531   0.580  0.0696  0.8967  0.2181
 1756SOL    HW3 7055   3.095   4.578   0.687 -0.1238 -1.1305  0.9558
 1756SOL    MW4 7056   3.111   4.540   0.610  0.0301  0.1512  0.3281
 1757SOL     OW 7057   3.788   0.678   0.218 -0.0151  0.5037  0.5004
 1757SOL    HW2 7058   3.705   0.633   0.227  0.2046 -0.1072 -0.3903
 1757SOL    HW3 7059   3.833   0.632   0.147  0.2266  2.0975 -0.4186
 1757SOL    MW4 7060   3.783   0.666   0.210  0.0458  0.6334  0.2616
 1758SOL     OW 7061   1.476   2.654   3.740 -0.4289 -0.4800 -0.0971
 1758SOL    HW2 7062   1.387   2.622   3.757 -0.3587 -1.2245 -1.1178
 1758SOL    HW3 7063   1.467   2.706   3.660 -0.0971  0.1307  0.2589
 1758SOL    MW4 7064   1.463   2.657   3.731 -0.3759 -0.4976 -0.1848
 1759SOL     OW 7065   2.858   1.738   1.957  0.6212  0.2634  0.0759
 1759SOL    HW2 7066   2.826   1.685   1.884 -1.4972  2.1542 -0.4218
 1759SOL    HW3 7067   2.936   1.782   1.923 -0.3244  1.0902 -1.0467
 1759SOL    MW4 7068   2.864   1.736   1.943  0.2169  0.6220 -0.1379
 1760SOL     OW 7069   0.586   3.352   1.315  0.6368 -0.4105 -0.6216
 1760SOL    HW2 7070   0.640   3.328   1.239 -0.5136 -0.5671 -1.4029
 1760SOL    HW3 7071   0.509   3.296   1.309  0.4326 -0.2735  0.5522
 1760SOL    MW4 7072   0.583   3.342   1.304  0.4581 -0.4131 -0.5698
 1761SOL     OW 7073   1.678   0.419   3.426  0.6042  0.7949 -0.0643
 1761SOL    HW2 7074   1.696   0.461   3.511 -0.8743  1.4406 -0.0671
 1761SOL    HW3 7075   1.600   0.463   3.393 -0.6957 -1.6135 -0.2997
 1761SOL    MW4 7076   1.670   0.430   3.433  0.2377  0.5623 -0.0957
 1762SOL     OW 7077   1.527   1.766   0.870  0.4665  1.1146 -0.3133
 1762SOL    HW2 7078   1.599   1.793   0.813  0.4344  0.3693 -0.7153
 1762SOL    HW3 7079   1.556   1.682   0.907 -0.3664  0.5915 -0.8170
 1762SOL    MW4 7080   1.540   1.758   0.867  0.3524  0.9473 -0.4328
 1763SOL     OW 7081   0.045   0.530   3.371  0.7636 -0.9208  0.1926
 1763SOL    HW2 7082  -0.017   0.502   3.304  0.2184  0.2652  0.2032
 1763SOL    HW3 7083   0.119   0.469   3.361  0.4942 -1.0514 -1.1735
 1763SOL    MW4 7084   0.047   0.518   3.361  0.6561 -0.7815  0.0138
 1764SOL     OW 7085   1.061   3.295   3.668  0.0759  0.3576 -0.1984
 1764SOL    HW2 7086   1.045   3.233   3.739  2.2095  0.6938  0.6018
 1764SOL    HW3 7087   1.156   3.306   3.666 -0.1915  2.9179 -0.9253
 1764SOL    MW4 7088   1.072   3.288   3.677  0.3222  0.7398 -0.1887
 1765SOL     OW 7089   0.741   2.939   0.642 -0.0829  0.4914 -0.5464
 1765SOL    HW2 7090   0.735   2.957   0.736  1.2520 -1.5155 -0.0518
 1765SOL    HW3 7091   0.811   2.874   0.634 -2.4251 -1.9455 -2.5462
 1765SOL    MW4 7092   0.750   2.933   0.654 -0.2158 -0.0949 -0.7450
 1766SOL     OW 7093   1.817   2.200   1.149  0.1391 -0.4689 -0.0511
 1766SOL    HW2 7094   1.846   2.113   1.124 -0.8118 -0.1067 -2.5653
 1766SOL    HW3 7095   1.883   2.259   1.113  0.0427 -0.0658  0.4202
 1766SOL    MW4 7096   1.830   2.196   1.141  0.0009 -0.3680 -0.3206
 1767SOL     OW 7097   4.458   0.057   4.503 -0.3777 -0.1029  0.4248
 1767SOL    HW2 7098   4.478  -0.036   4.490 -0.6197 -0.1315  0.2457
 1767SOL    HW3 7099   4.527   0.089   4.560 -0.0476 -0.2919  0.1302
 1767SOL    MW4 7100   4.469   0.049   4.509 -0.3661 -0.1316  0.3623
 1768SOL     OW 7101   0.175   0.707   1.530  0.0530 -0.0996 -0.4295
 1768SOL    HW2 7102   0.120   0.748   1.598  1.1078 -1.1779  1.0933
 1768SOL    HW3 7103   0.159   0.613   1.539  0.3574 -0.2710 -1.5596
 1768SOL    MW4 7104   0.165   0.700   1.540  0.2323 -0.2645 -0.3777
 1769SOL     OW 7105   1.567   2.243   2.660  0.0374  0.2505 -0.2094
 1769SOL    HW2 7106   1.489   2.217   2.708 -0.7578  1.5904 -0.7246
 1769SOL    HW3 7107   1.573   2.338   2.674  1.2851  0.2367 -0.5844
 1769SOL    MW4 7108   1.557   2.252   2.668  0.0971  0.4254 -0.3269
 1770SOL     OW 7109   4.020   3.841   0.717  0.2296 -0.2973  0.3477
 1770SOL    HW2 7110   4.018   3.925   0.763  0.4965 -0.6503  1.0125
 1770SOL    HW3 7111   3.977   3.780   0.777 -0.1838 -0.5868 -0.2349
 1770SOL    MW4 7112   4.014   3.844   0.731  0.2103 -0.3821  0.3585
 1771SOL     OW 7113   3.767   1.658   4.042 -0.2006 -0.0778  0.0047
 1771SOL    HW2 7114   3.763   1.724   3.972  0.4089  0.7107  0.6984
 1771SOL    HW3 7115   3.812   1.702   4.113 -0.9496 -0.8299  0.9597
 1771SOL    MW4 7116   3.772   1.673   4.042 -0.2190 -0.0730  0.2223
 1772SOL     OW 7117   2.669   0.666   3.009  0.0937  0.1319  0.1059
 1772SOL    HW2 7118   2.599   0.637   3.067 -1.4922 -0.6423 -2.1075
 1772SOL    HW3 7119   2.746   0.617   3.038 -0.8641 -0.8773  0.9922
 1772SOL    MW4 7120   2.670   0.655   3.020 -0.2419 -0.1034 -0.0692
 1773SOL     OW 7121   3.940   0.961   3.380 -0.4144  0.1952  0.5295
 1773SOL    HW2 7122   3.953   1.056   3.387  0.6742  0.0825  0.1293
 1773SOL    HW3 7123   4.023   0.928   3.345 -0.0474 -1.1535  2.6125
 1773SOL    MW4 7124   3.953   0.970   3.376 -0.2223  0.0024  0.7515
 1774SOL     OW 7125   0.732   3.400   2.919  0.2222 -0.0379 -0.5027
 1774SOL    HW2 7126   0.822   3.377   2.896 -0.4271 -1.0285 -2.1017
 1774SOL    HW3 7127   0.690   3.317   2.940 -0.4874  0.3634 -0.3029
 1774SOL    MW4 7128   0.738   3.386   2.919  0.0429 -0.1156 -0.6873
 1775SOL     OW 7129   0.478   2.566   3.739 -0.5620  0.1619 -0.1432
 1775SOL    HW2 7130   0.539   2.619   3.688  0.2821  0.2107  0.8860
 1775SOL    HW3 7131   0.393   2.607   3.725 -0.5785 -0.6717 -2.6121
 1775SOL    MW4 7132   0.475   2.578   3.730 -0.4528  0.0583 -0.3331
 1776SOL     OW 7133   1.341   2.206   3.255 -0.2643 -0.1402 -0.4024
 1776SOL    HW2 7134   1.384   2.292   3.259 -1.7983  0.6089  0.5213
 1776SOL    HW3 7135   1.366   2.162   3.336 -0.6391  0.0188 -0.1966
 1776SOL    MW4 7136   1.350   2.212   3.266 -0.5162 -0.0204 -0.2534
 1777SOL     OW 7137   4.118   0.678   2.429 -0.0372  0.4527 -0.4563
 1777SOL    HW2 7138   4.085   0.694   2.518  0.3656 -0.6828 -0.0918
 1777SOL    HW3 7139   4.135   0.765   2.394  2.0774  0.8573  1.4571
 1777SOL    MW4 7140   4.116   0.692   2.436  0.2949  0.3563 -0.1557
 1778SOL     OW 7141   1.634   4.043   1.643 -0.2856 -0.3816  0.0931
 1778SOL    HW2 7142   1.623   4.109   1.712 -0.0345 -2.0372  1.7299
 1778SOL    HW3 7143   1.728   4.035   1.632 -0.3035 -0.8078  0.2354
 1778SOL    MW4 7144   1.645   4.051   1.651 -0.2548 -0.6563  0.3279
 1779SOL     OW 7145   0.402   3.755   2.832 -0.1513  0.1465 -0.3724
 1779SOL    HW2 7146   0.356   3.672   2.823 -1.0309  0.7041 -1.0611
 1779SOL    HW3 7147   0.494   3.730   2.841 -0.4559 -0.9161 -0.1374
 1779SOL    MW4 7148   0.408   3.740   2.832 -0.3075  0.0799 -0.4323
 1780SOL     OW 7149   2.888   0.529   3.826  0.3151 -0.1037  0.1000
 1780SOL    HW2 7150   2.939   0.608   3.804 -0.7316  0.7696  0.7654
 1780SOL    HW3 7151   2.934   0.492   3.902 -0.2240  0.8732  0.9138
 1780SOL    MW4 7152   2.901   0.535   3.833  0.1059  0.1404  0.2952
 1781SOL     OW 7153   3.997   1.541   3.866  0.0970  0.0821  0.0077
 1781SOL    HW2 7154   3.940   1.562   3.940  0.0763  0.0703 -0.0048
 1781SOL    HW3 7155   4.069   1.491   3.904 -0.2424 -0.4741 -0.0685
 1781SOL    MW4 7156   3.999   1.537   3.881  0.0495  0.0071 -0.0040
 1782SOL     OW 7157   2.773   1.806   0.851 -0.0892 -0.3093  0.3452
 1782SOL    HW2 7158   2.842   1.836   0.792  0.3567 -0.6893  0.6756
 1782SOL    HW3 7159   2.807   1.822   0.939 -1.3657  1.6953  0.5221
 1782SOL    MW4 7160   2.786   1.812   0.855 -0.1988 -0.0950  0.4121
 1783SOL     OW 7161   3.079   1.141   0.733 -0.0912  0.4058  0.0487
 1783SOL    HW2 7162   3.067   1.048   0.752 -0.0223  0.4069  0.0989
 1783SOL    HW3 7163   3.139   1.143   0.658 -0.1679  0.4074 -0.0123
 1783SOL    MW4 7164   3.085   1.129   0.726 -0.0923  0.4062  0.0473
 1784SOL     OW 7165   3.539   1.469   3.802  0.0627 -0.1887 -0.2612
 1784SOL    HW2 7166   3.527   1.504   3.891  0.0703  1.1214 -0.7552
 1784SOL    HW3 7167   3.459   1.418   3.786 -0.2961  0.2148  0.2043
 1784SOL    MW4 7168   3.527   1.467   3.812  0.0163  0.0374 -0.2650
 1785SOL     OW 7169   3.035   2.657   2.290  0.4184 -0.1747  0.0759
 1785SOL    HW2 7170   3.001   2.571   2.268  1.0688 -0.3009 -0.4445
 1785SOL    HW3 7171   2.958   2.714   2.292 -0.0118 -0.7603  0.4201
 1785SOL    MW4 7172   3.020   2.653   2.287  0.4475 -0.2686  0.0526
 1786SOL     OW 7173   2.442   4.367   4.095 -0.0119 -0.0429  0.6003
 1786SOL    HW2 7174   2.493   4.440   4.061  0.4972 -1.2822 -1.3697
 1786SOL    HW3 7175   2.507   4.297   4.108 -0.4801 -0.1653  2.5310
 1786SOL    MW4 7176   2.458   4.367   4.093 -0.0065 -0.2225  0.5951
 1787SOL     OW 7177   0.621   4.660   2.341 -0.0424 -0.1582 -0.8850
 1787SOL    HW2 7178   0.586   4.722   2.277  0.7203 -0.6046 -1.7414
 1787SOL    HW3 7179   0.646   4.583   2.290 -0.0236 -0.7697  0.0341
 1787SOL    MW4 7180   0.620   4.658   2.326  0.0607 -0.2978 -0.8768
 1788SOL     OW 7181   0.710   3.006   0.923 -0.2739  0.0891 -0.0773
 1788SOL    HW2 7182   0.708   2.943   0.995 -0.1732 -0.6277 -0.6966
 1788SOL    HW3 7183   0.736   3.089   0.965 -1.0761 -0.1169  0.8486
 1788SOL    MW4 7184   0.713   3.009   0.938 -0.3664 -0.0326 -0.0368
 1789SOL     OW 7185   3.773   2.203   3.727  0.1222  0.3536  0.4890
 1789SOL    HW2 7186   3.753   2.296   3.719  0.1067  0.3176  0.1001
 1789SOL    HW3 7187   3.728   2.175   3.806  1.3252  0.9990  1.4219
 1789SOL    MW4 7188   3.765   2.211   3.736  0.2789  0.4340  0.5608
 1790SOL     OW 7189   0.545   1.016   3.892 -0.0900  0.4565 -0.1720
 1790SOL    HW2 7190   0.630   1.056   3.875  0.3144 -0.7973 -1.2109
 1790SOL    HW3 7191   0.553   0.926   3.860 -1.5317  0.0510  0.5045
 1790SOL    MW4 7192   0.557   1.009   3.886 -0.2268  0.2376 -0.2198
 1791SOL     OW 7193   3.411   0.164   1.649  0.1664  0.2900  0.3281
 1791SOL    HW2 7194   3.440   0.174   1.740 -1.0630 -0.6948  0.8456
 1791SOL    HW3 7195   3.354   0.239   1.635  0.7691  0.7256  0.2014
 1791SOL    MW4 7196   3.407   0.175   1.659  0.0837  0.2175  0.3796
 1792SOL     OW 7197   0.059   3.041   3.332  0.2131 -0.5174  0.3564
 1792SOL    HW2 7198   0.017   2.960   3.360  0.5898 -0.5621  0.7911
 1792SOL    HW3 7199   0.111   3.069   3.407 -0.7247  0.6799  0.5800
 1792SOL    MW4 7200   0.060   3.034   3.346  0.1391 -0.3654  0.4432
 1793SOL     OW 7201   2.522   0.845   3.863 -0.1215  0.0003 -0.1472
 1793SOL    HW2 7202   2.583   0.839   3.790 -1.1405  0.4144 -1.0562
 1793SOL    HW3 7203   2.438   0.867   3.822 -0.6848  0.3399  1.1589
 1793SOL    MW4 7204   2.519   0.847   3.848 -0.3303  0.0997 -0.0948
 1794SOL     OW 7205   4.162   4.062   3.665 -0.1496  0.1519 -0.1649
 1794SOL    HW2 7206   4.224   4.124   3.626  1.4337 -0.8008  0.8101
 1794SOL    HW3 7207   4.200   3.976   3.648 -0.8696 -0.4072  1.0408
 1794SOL    MW4 7208   4.175   4.059   3.658 -0.0357 -0.0476  0.1228
 1795SOL     OW 7209   2.892   2.813   2.618 -0.5000  0.0081  0.1947
 1795SOL    HW2 7210   2.978   2.853   2.628 -0.5819  0.3727 -0.5364
 1795SOL    HW3 7211   2.910   2.719   2.614 -0.2818 -0.0279  1.6010
 1795SOL    MW4 7212   2.906   2.806   2.619 -0.4820  0.0515  0.2838
 1796SOL     OW 7213   0.106   0.010   2.424  0.0507 -0.2755  0.5042
 1796SOL    HW2 7214   0.199  -0.002   2.440  0.2193  0.6221  0.2208
 1796SOL    HW3 7215   0.092   0.104   2.430 -1.0110 -0.4762  1.4264
 1796SOL    MW4 7216   0.117   0.021   2.427 -0.0671 -0.1835  0.5885
 1797SOL     OW 7217   2.697   2.292   4.402 -0.1608 -0.7199  0.3208
 1797SOL    HW2 7218   2.671   2.360   4.465  0.0683 -1.0440  0.7742
 1797SOL    HW3 7219   2.653   2.213   4.434 -0.5516 -0.7504 -0.2962
 1797SOL    MW4 7220   2.688   2.291   4.415 -0.1821 -0.7667  0.2992
 1798SOL     OW 7221   0.980   2.764   4.132  0.3355  0.3229 -0.1690
 1798SOL    HW2 7222   0.920   2.712   4.078 -2.1628  2.6054  0.3087
 1798SOL    HW3 7223   1.008   2.836   4.076 -0.7331  1.6146  0.9184
 1798SOL    MW4 7224   0.976   2.767   4.118 -0.1351  0.7945  0.0375
 1799SOL     OW 7225   4.028   2.109   1.503 -0.1041  0.1152  0.1614
 1799SOL    HW2 7226   3.972   2.035   1.478 -0.5897  0.6204 -0.2525
 1799SOL    HW3 7227   4.006   2.125   1.595 -1.6036  1.1324 -0.3383
 1799SOL    MW4 7228   4.018   2.101   1.512 -0.3660  0.3161  0.0409
 1800SOL     OW 7229   4.207   2.977   3.867 -0.7055 -0.2622 -0.3005
 1800SOL    HW2 7230   4.294   2.987   3.907 -0.6258  1.1595 -0.7946
 1800SOL    HW3 7231   4.225   2.950   3.777 -0.6927  1.7848 -0.9389
 1800SOL    MW4 7232   4.221   2.975   3.861 -0.6933  0.1955 -0.4499
 1801SOL     OW 7233   3.053   1.935   1.791  0.6355 -0.0979 -0.2651
 1801SOL    HW2 7234   3.134   1.908   1.748 -0.0080 -0.2845 -1.3671
 1801SOL    HW3 7235   3.082   1.973   1.874  1.7886 -0.9987 -0.2367
 1801SOL    MW4 7236   3.068   1.936   1.797  0.7027 -0.2414 -0.4067
 1802SOL     OW 7237   2.928   0.702   2.647  0.0064  0.0718  1.2653
 1802SOL    HW2 7238   2.842   0.739   2.665  0.0104  0.4881  0.4328
 1802SOL    HW3 7239   2.986   0.778   2.642  0.5846 -0.2451  2.6301
 1802SOL    MW4 7240   2.925   0.717   2.649  0.0832  0.0849  1.3355
 1803SOL     OW 7241   0.568   1.186   0.995 -0.5308  0.0275  0.4919
 1803SOL    HW2 7242   0.606   1.151   0.914  0.9484 -1.1816  1.6759
 1803SOL    HW3 7243   0.481   1.217   0.969 -0.1499 -0.4851 -1.5153
 1803SOL    MW4 7244   0.561   1.186   0.981 -0.2854 -0.1996  0.3833
 1804SOL     OW 7245   4.016   2.903   1.068  0.2887 -0.2354  0.2838
 1804SOL    HW2 7246   4.071   2.847   1.123  0.5673 -0.9063 -0.6490
 1804SOL    HW3 7247   3.992   2.976   1.124  0.5888 -0.8881  1.2826
 1804SOL    MW4 7248   4.020   2.905   1.083  0.3650 -0.4100  0.2925
 1805SOL     OW 7249   2.895   0.711   2.224 -0.3467  0.0849 -0.2621
 1805SOL    HW2 7250   2.849   0.774   2.279 -0.4216  0.8353 -1.1793
 1805SOL    HW3 7251   2.977   0.753   2.201 -0.9769  0.4113 -1.9815
 1805SOL    MW4 7252   2.900   0.725   2.228 -0.4397  0.2269 -0.6100
 1806SOL     OW 7253   0.750   1.406   2.121 -0.6677 -0.6252  0.2618
 1806SOL    HW2 7254   0.761   1.311   2.113 -1.1682 -0.8364  1.9014
 1806SOL    HW3 7255   0.698   1.418   2.201  0.9724  1.1268  1.1043
 1806SOL    MW4 7256   0.744   1.395   2.131 -0.5174 -0.4219  0.5893
 1807SOL     OW 7257   3.346   1.452   1.128  0.0273  0.1231 -0.0290
 1807SOL    HW2 7258   3.296   1.377   1.160  0.6228 -0.0723  0.4643
 1807SOL    HW3 7259   3.280   1.512   1.092 -0.4361 -0.6675 -0.4856
 1807SOL    MW4 7260   3.331   1.450   1.128  0.0447 -0.0070 -0.0241
 1808SOL     OW 7261   4.488   1.326   0.707  0.0434 -0.1741  0.0412
 1808SOL    HW2 7262   4.507   1.381   0.784  1.7908 -0.6479 -0.0217
 1808SOL    HW3 7263   4.396   1.303   0.716  0.0181  0.4611  1.5687
 1808SOL    MW4 7264   4.479   1.330   0.719  0.2706 -0.1528  0.2344
 1809SOL     OW 7265   3.111   0.244   0.269  0.0941 -0.0701 -0.2830
 1809SOL    HW2 7266   3.091   0.249   0.175 -1.1018 -0.9513 -0.0917
 1809SOL    HW3 7267   3.102   0.151   0.291  2.9520 -0.2847  0.1792
 1809SOL    MW4 7268   3.107   0.232   0.259  0.3134 -0.2147 -0.1968
 1810SOL     OW 7269   3.793   2.902   3.212  0.5130  0.1089 -0.0811
 1810SOL    HW2 7270   3.862   2.957   3.249  0.8185  0.6642 -1.4456
 1810SOL    HW3 7271   3.821   2.886   3.122 -1.0796  0.2258 -0.6073
 1810SOL    MW4 7272   3.806   2.907   3.205  0.3432  0.1976 -0.3306
 1811SOL     OW 7273   3.983   0.647   1.479 -0.5750 -0.8863  0.2281
 1811SOL    HW2 7274   3.935   0.573   1.442  0.0730 -0.4150 -1.6108
 1811SOL    HW3 7275   4.075   0.628   1.462 -0.2910 -0.3739  1.1071
 1811SOL    MW4 7276   3.989   0.635   1.472 -0.4520 -0.7565  0.1014
 1812SOL     OW 7277   3.504   4.396   1.924  0.0108  0.1394  0.2525
 1812SOL    HW2 7278   3.472   4.387   1.834  1.1060  0.4788 -0.1887
 1812SOL    HW3 7279   3.583   4.341   1.927  0.4684  0.8136  0.7513
 1812SOL    MW4 7280   3.510   4.387   1.912  0.2157  0.2731  0.2601
 1813SOL     OW 7281   4.385   4.042   1.235  0.1157  0.4469 -0.0372
 1813SOL    HW2 7282   4.475   4.035   1.265  0.3263  1.4927 -0.4117
 1813SOL    HW3 7283   4.349   3.953   1.245  0.8391  0.2831  1.1832
 1813SOL    MW4 7284   4.392   4.029   1.241  0.2389  0.5633  0.0744
 1814SOL     OW 7285   3.869   1.337   1.076 -0.1915  0.0474 -0.3784
 1814SOL    HW2 7286   3.803   1.404   1.096 -0.2558 -0.1166 -0.0336
 1814SOL    HW3 7287   3.893   1.302   1.162  1.7527  1.4450 -0.3255
 1814SOL    MW4 7288   3.863   1.341   1.090  0.0565  0.2101 -0.3259
 1815SOL     OW 7289   4.393   3.758   4.112 -0.0742 -0.1703 -0.7031
 1815SOL    HW2 7290   4.305   3.761   4.151  0.5284  0.1641  0.6432
 1815SOL    HW3 7291   4.386   3.692   4.043 -0.9524 -1.3529  0.4913
 1815SOL    MW4 7292   4.380   3.750   4.108 -0.1106 -0.2822 -0.3679
 1816SOL     OW 7293   3.269   4.379   4.210  0.1122  0.1614 -0.0836
 1816SOL    HW2 7294   3.288   4.285   4.216 -1.3821 -0.0216  3.0571
 1816SOL    HW3 7295   3.177   4.383   4.181 -0.0381  0.6204  0.4445
 1816SOL    MW4 7296   3.259   4.367   4.207 -0.1048  0.1978  0.4004
 1817SOL     OW 7297   1.319   0.498   2.108 -0.3201  0.3582 -0.1563
 1817SOL    HW2 7298   1.261   0.552   2.162 -0.8117 -0.1931 -0.1306
 1817SOL    HW3 7299   1.343   0.555   2.034 -2.1738  0.0686 -1.0045
 1817SOL    MW4 7300   1.315   0.513   2.105 -0.6295  0.2472 -0.2648
 1818SOL     OW 7301   1.245   2.027   1.348  0.6041  0.0511  0.2065
 1818SOL    HW2 7302   1.235   2.035   1.253 -0.0028 -0.8283  0.1826
 1818SOL    HW3 7303   1.298   2.102   1.373 -1.2159  1.6246 -0.5040
 1818SOL    MW4 7304   1.251   2.038   1.339  0.2839  0.1427  0.1096
 1819SOL     OW 7305   2.090   2.378   4.231 -0.2577  0.1920 -0.0166
 1819SOL    HW2 7306   2.168   2.328   4.207 -0.0565  0.7726 -0.5842
 1819SOL    HW3 7307   2.097   2.459   4.180 -0.5534  0.8171  0.9304
 1819SOL    MW4 7308   2.101   2.382   4.221 -0.2701  0.3511  0.0335
 1820SOL     OW 7309   3.540   2.949   2.710  0.1787  0.7312 -0.6650
 1820SOL    HW2 7310   3.542   2.929   2.616  2.5483 -0.0121 -0.4955
 1820SOL    HW3 7311   3.560   2.865   2.752 -0.3070  1.1842  0.4860
 1820SOL    MW4 7312   3.543   2.935   2.703  0.4273  0.6929 -0.4908
 1821SOL     OW 7313   1.153   1.403   2.157  0.5829  0.2093  0.0423
 1821SOL    HW2 7314   1.244   1.403   2.128  0.3146 -0.6683 -0.8194
 1821SOL    HW3 7315   1.104   1.442   2.084  0.4675  2.2430  1.1824
 1821SOL    MW4 7316   1.158   1.408   2.143  0.5323  0.3618  0.0791
 1822SOL     OW 7317   2.842   0.045   3.285  0.1724  0.3340  0.3940
 1822SOL    HW2 7318   2.878   0.038   3.374  0.2313  1.0591  0.4300
 1822SOL    HW3 7319   2.844   0.139   3.266 -1.0799  0.3179  0.1371
 1822SOL    MW4 7320   2.847   0.057   3.294  0.0150  0.4275  0.3649
 1823SOL     OW 7321   2.649   3.907   1.936  0.4691  0.4439  0.5605
 1823SOL    HW2 7322   2.737   3.870   1.941  0.7476  1.0442  0.2249
 1823SOL    HW3 7323   2.647   3.950   1.851 -0.3388 -0.0379  0.3407
 1823SOL    MW4 7324   2.661   3.908   1.926  0.3993  0.4595  0.4872
 1824SOL     OW 7325   0.610   3.571   1.483 -0.0148  0.2118  0.2228
 1824SOL    HW2 7326   0.611   3.490   1.432 -1.3590  0.5657 -0.3931
 1824SOL    HW3 7327   0.667   3.631   1.436 -1.9107  0.8139 -1.3725
 1824SOL    MW4 7328   0.618   3.568   1.470 -0.4423  0.3379 -0.0690
 1825SOL     OW 7329   0.098   2.747   3.022  0.7893  0.5940  0.4975
 1825SOL    HW2 7330   0.010   2.739   3.059  1.4651 -0.2659  1.9412
 1825SOL    HW3 7331   0.099   2.685   2.949  0.3136  0.3556  0.6926
 1825SOL    MW4 7332   0.087   2.738   3.017  0.8157  0.4491  0.7137
 1826SOL     OW 7333   0.969   4.628   0.435 -0.6275  0.1843 -0.4332
 1826SOL    HW2 7334   0.881   4.627   0.399 -0.7322  1.5285 -0.2423
 1826SOL    HW3 7335   0.974   4.710   0.484 -0.0149 -0.9366  1.4209
 1826SOL    MW4 7336   0.958   4.639   0.437 -0.5605  0.2138 -0.1634
 1827SOL     OW 7337   2.403   3.683   2.558 -0.5738  0.2823 -0.0699
 1827SOL    HW2 7338   2.457   3.623   2.507  0.6733 -0.9088  2.5252
 1827SOL    HW3 7339   2.331   3.628   2.589 -1.5564  1.0974 -0.8962
 1827SOL    MW4 7340   2.401   3.668   2.555 -0.5389  0.2327  0.1635
 1828SOL     OW 7341   4.224   2.458   2.048  0.4798  0.2520  0.0931
 1828SOL    HW2 7342   4.306   2.422   2.081 -0.0983 -1.3685 -0.1793
 1828SOL    HW3 7343   4.177   2.488   2.126  0.0949 -1.4800  0.5542
 1828SOL    MW4 7344   4.229   2.457   2.062  0.3528 -0.1903  0.1180
 1829SOL     OW 7345   3.924   1.868   0.684 -0.0847 -0.5877  0.9532
 1829SOL    HW2 7346   3.886   1.832   0.603  1.4836 -0.2723  0.0652
 1829SOL    HW3 7347   3.918   1.796   0.747 -1.6656 -0.7178  0.6934
 1829SOL    MW4 7348   3.918   1.854   0.682 -0.0863 -0.5632  0.8018
 1830SOL     OW 7349   0.118   1.445   1.160  0.3333  0.2851  0.2868
 1830SOL    HW2 7350   0.053   1.494   1.212  0.1181  2.3100 -1.7862
 1830SOL    HW3 7351   0.189   1.507   1.145  1.2488 -0.8649 -0.2225
 1830SOL    MW4 7352   0.119   1.460   1.165  0.4257  0.4005 -0.0539
 1831SOL     OW 7353   3.514   0.212   1.911  0.1712 -0.0620  0.1237
 1831SOL    HW2 7354   3.439   0.268   1.930  0.7339  0.6942  0.1853
 1831SOL    HW3 7355   3.493   0.128   1.951 -1.2450 -0.2958 -1.0521
 1831SOL    MW4 7356   3.501   0.209   1.918  0.0586  0.0069 -0.0233
 1832SOL     OW 7357   3.035   0.532   2.821  0.3886  0.0077 -0.4804
 1832SOL    HW2 7358   3.006   0.603   2.764 -1.2698 -0.2431  0.0268
 1832SOL    HW3 7359   2.996   0.552   2.906  0.4250 -1.1677 -0.1735
 1832SOL    MW4 7360   3.026   0.544   2.825  0.1746 -0.1805 -0.3730
 1833SOL     OW 7361   1.062   0.090   2.911 -0.2834 -0.3013  0.1404
 1833SOL    HW2 7362   0.998   0.121   2.974 -0.8481  0.8516 -0.9932
 1833SOL    HW3 7363   1.135   0.059   2.965 -0.4479  1.3472  1.3502
 1833SOL    MW4 7364   1.063   0.090   2.926 -0.3796  0.0683  0.1505
 1834SOL     OW 7365   0.551   1.661   3.749 -0.0149  0.3658  0.1070
 1834SOL    HW2 7366   0.472   1.694   3.792 -0.8263  0.0379 -1.0778
 1834SOL    HW3 7367   0.604   1.739   3.732  0.3490  0.4848  1.7328
 1834SOL    MW4 7368   0.548   1.676   3.752 -0.0739  0.3382  0.1652
 1835SOL     OW 7369   2.983   1.590   2.834  0.1291 -0.3504  0.0136
 1835SOL    HW2 7370   2.956   1.564   2.746 -1.0557  0.6279  0.0819
 1835SOL    HW3 7371   3.012   1.508   2.875 -1.2426 -1.1655 -0.5944
 1835SOL    MW4 7372   2.983   1.575   2.828 -0.2082 -0.3289 -0.0576
 1836SOL     OW 7373   3.264   4.015   1.144 -0.2296  0.0052  0.2682
 1836SOL    HW2 7374   3.332   3.977   1.201 -1.3402  1.3525  2.5464
 1836SOL    HW3 7375   3.313   4.065   1.079  1.0296 -0.6655  0.6727
 1836SOL    MW4 7376   3.279   4.017   1.143 -0.2100  0.0945  0.6221
 1837SOL     OW 7377   4.007   4.011   1.846  0.0326 -0.0223 -0.4922
 1837SOL    HW2 7378   3.938   4.033   1.784  1.0258 -0.4209 -1.7397
 1837SOL    HW3 7379   3.964   3.956   1.911 -0.9486  0.1959 -0.9518
 1837SOL    MW4 7380   3.992   4.007   1.847  0.0342 -0.0461 -0.7175
 1838SOL     OW 7381   0.703   3.348   3.428  0.2425  0.3986  0.5798
 1838SOL    HW2 7382   0.712   3.389   3.342 -1.2261  0.0032  0.2222
 1838SOL    HW3 7383   0.726   3.256   3.413 -1.3634  0.0237  0.2877
 1838SOL    MW4 7384   0.707   3.341   3.415 -0.1631  0.2969  0.4941
 1839SOL     OW 7385   0.726   3.659   3.435  0.5124 -0.0442  0.0912
 1839SOL    HW2 7386   0.775   3.583   3.466  0.6063 -0.6418 -1.4896
 1839SOL    HW3 7387   0.634   3.637   3.450  0.5663 -0.2315  0.1436
 1839SOL    MW4 7388   0.720   3.646   3.441  0.5319 -0.1478 -0.1105
 1840SOL     OW 7389   3.707   3.397   2.798 -0.1228 -0.1637 -0.5596
 1840SOL    HW2 7390   3.701   3.305   2.822 -0.7537 -0.2616 -1.0633
 1840SOL    HW3 7391   3.684   3.399   2.705  1.2761  0.3347 -0.8977
 1840SOL    MW4 7392   3.703   3.385   2.789 -0.0215 -0.1109 -0.6707
 1841SOL     OW 7393   2.245   3.084   2.406 -0.0041  0.1308 -0.7738
 1841SOL    HW2 7394   2.244   3.178   2.390 -2.3192  0.0873 -0.9851
 1841SOL    HW3 7395   2.176   3.049   2.350 -0.1117 -1.5089  0.3385
 1841SOL    MW4 7396   2.236   3.092   2.397 -0.3237 -0.0913 -0.6549
 1842SOL     OW 7397   4.490   1.243   1.553  0.2706  0.3803 -0.0864
 1842SOL    HW2 7398   4.444   1.163   1.579 -1.6707  1.1121 -1.2162
 1842SOL    HW3 7399   4.529   1.222   1.468  0.6275  0.3189  0.0894
 1842SOL    MW4 7400   4.489   1.230   1.545  0.0615  0.4687 -0.2122
 1843SOL     OW 7401   0.631   4.436   2.931  0.2001  0.0311  0.2199
 1843SOL    HW2 7402   0.616   4.343   2.910  1.7479 -0.5447  1.6305
 1843SOL    HW3 7403   0.672   4.472   2.852  0.7311 -0.7777  0.1201
 1843SOL    MW4 7404   0.634   4.428   2.918  0.4744 -0.1516  0.3928
 1844SOL     OW 7405   0.650   1.139   0.706  0.3323  0.2835  0.3629
 1844SOL    HW2 7406   0.681   1.055   0.673  0.9181  0.9340 -0.7885
 1844SOL    HW3 7407   0.704   1.204   0.660 -1.3046  1.3542 -0.1052
 1844SOL    MW4 7408   0.662   1.137   0.695  0.1936  0.5106  0.1492
 1845SOL     OW 7409   3.990   4.111   2.474 -0.1081  0.2486  0.1179
 1845SOL    HW2 7410   4.023   4.167   2.404 -1.4532  0.1129 -0.6306
 1845SOL    HW3 7411   4.036   4.141   2.553 -0.1882  1.8244 -0.4230
 1845SOL    MW4 7412   4.001   4.122   2.475 -0.2961  0.4386 -0.0523
 1846SOL     OW 7413   2.884   2.555   3.788  0.0095 -0.1681 -0.2457
 1846SOL    HW2 7414   2.847   2.475   3.826  0.7002 -0.4387 -0.1345
 1846SOL    HW3 7415   2.808   2.610   3.768 -0.4134 -0.3835  0.7298
 1846SOL    MW4 7416   2.869   2.552   3.790  0.0449 -0.2323 -0.1023
 1847SOL     OW 7417   4.240   3.655   3.356 -0.2422 -0.0689 -0.1625
 1847SOL    HW2 7418   4.218   3.721   3.290  0.0009 -0.0960 -0.2696
 1847SOL    HW3 7419   4.231   3.699   3.440 -1.6271 -0.3218 -0.1579
 1847SOL    MW4 7420   4.236   3.669   3.358 -0.3929 -0.1058 -0.1760
 1848SOL     OW 7421   1.156   2.052   1.999 -0.0556 -0.4855 -0.2668
 1848SOL    HW2 7422   1.098   2.086   1.931 -0.3539 -0.9187 -0.2312
 1848SOL    HW3 7423   1.223   2.119   2.009 -1.6931  0.9949  1.1572
 1848SOL    MW4 7424   1.157   2.065   1.991 -0.3110 -0.3473 -0.0742
 1849SOL     OW 7425   1.786   1.443   0.676 -0.5191  0.4024 -0.8269
 1849SOL    HW2 7426   1.835   1.381   0.622  1.7343  0.1076  1.4406
 1849SOL    HW3 7427   1.700   1.404   0.686  1.0775 -2.7984  1.1861
 1849SOL    MW4 7428   1.781   1.430   0.670 -0.0112 -0.0588 -0.2622
 1850SOL     OW 7429   4.364   2.435   1.537 -0.5357  0.2908  0.0485
 1850SOL    HW2 7430   4.269   2.450   1.531 -0.3692  0.5340 -2.6697
 1850SOL    HW3 7431   4.380   2.360   1.480  0.8783  0.1113  0.6681
 1850SOL    MW4 7432   4.354   2.427   1.529 -0.3272  0.2992 -0.2284
 1851SOL     OW 7433   0.648   1.354   1.762 -0.3244  0.0300 -0.1975
 1851SOL    HW2 7434   0.599   1.390   1.688 -0.6264  0.2015  0.0850
 1851SOL    HW3 7435   0.603   1.387   1.839  0.1294  0.0414  0.0650
 1851SOL    MW4 7436   0.636   1.363   1.762 -0.3044  0.0541 -0.1256
 1852SOL     OW 7437   2.332   2.702   2.134 -0.0523  0.7787 -0.4180
 1852SOL    HW2 7438   2.366   2.635   2.193 -0.8755 -0.3921 -1.2553
 1852SOL    HW3 7439   2.327   2.659   2.049 -1.3773  1.6392 -0.7997
 1852SOL    MW4 7440   2.336   2.687   2.131 -0.3357  0.7377 -0.5788
 1853SOL     OW 7441   3.389   1.061   1.672 -0.1208 -0.0123  0.4124
 1853SOL    HW2 7442   3.386   0.968   1.694 -0.9027  0.1463  0.9812
 1853SOL    HW3 7443   3.369   1.064   1.578  1.5878 -0.5520  0.0238
 1853SOL    MW4 7444   3.386   1.049   1.663  0.0015 -0.0626  0.4362
 1854SOL     OW 7445   3.713   0.082   3.172  0.0530 -0.7336 -0.0852
 1854SOL    HW2 7446   3.632   0.133   3.165  1.2162  1.1717 -0.1106
 1854SOL    HW3 7447   3.722   0.040   3.086 -0.7394 -0.7032 -0.1885
 1854SOL    MW4 7448   3.704   0.083   3.160  0.1019 -0.4782 -0.1022
 1855SOL     OW 7449   2.868   1.554   3.151  0.0759  0.4287  0.1928
 1855SOL    HW2 7450   2.945   1.565   3.208  0.8451 -0.3441 -0.6879
 1855SOL    HW3 7451   2.793   1.563   3.211  0.8820 -1.6514  1.5894
 1855SOL    MW4 7452   2.868   1.557   3.167  0.2837  0.0523  0.2609
 1856SOL     OW 7453   1.082   1.227   0.330  0.0555  0.1012 -0.1935
 1856SOL    HW2 7454   1.011   1.166   0.351 -0.6011  0.5899 -0.9768
 1856SOL    HW3 7455   1.045   1.285   0.263  0.9803  0.7715 -0.1305
 1856SOL    MW4 7456   1.067   1.226   0.324  0.0909  0.2541 -0.2885
 1857SOL     OW 7457   1.617   1.298   1.551  0.0184  0.5891  0.5112
 1857SOL    HW2 7458   1.696   1.263   1.591  0.5375  0.9327 -0.1859
 1857SOL    HW3 7459   1.572   1.345   1.621 -1.3274 -2.4563  1.7754
 1857SOL    MW4 7460   1.621   1.300   1.565 -0.0906  0.2327  0.5860
 1858SOL     OW 7461   0.511   1.797   4.124 -0.0755  0.4003 -0.3169
 1858SOL    HW2 7462   0.458   1.794   4.044  0.2945  0.4016 -0.5642
 1858SOL    HW3 7463   0.457   1.754   4.190  0.0553 -0.5587 -0.8256
 1858SOL    MW4 7464   0.497   1.791   4.122 -0.0095  0.2739 -0.4166
 1859SOL     OW 7465   2.804   1.224   4.007  0.1031  0.5167 -0.3335
 1859SOL    HW2 7466   2.738   1.255   3.945  0.2071  2.1465  0.3498
 1859SOL    HW3 7467   2.795   1.281   4.083  1.1403 -0.3592  0.4783
 1859SOL    MW4 7468   2.794   1.235   4.009  0.2536  0.6162 -0.1362
 1860SOL     OW 7469   0.491   1.968   1.989 -0.2343 -0.7489  0.2891
 1860SOL    HW2 7470   0.459   1.972   1.898 -2.0639  0.1520  0.9520
 1860SOL    HW3 7471   0.584   1.992   1.982 -0.2625 -1.0372 -1.3882
 1860SOL    MW4 7472   0.499   1.972   1.976 -0.4794 -0.6681  0.1553
 1861SOL     OW 7473   0.293   1.637   2.970 -0.1024  0.3823 -0.4931
 1861SOL    HW2 7474   0.225   1.697   3.003 -0.3160  0.2147 -0.6262
 1861SOL    HW3 7475   0.245   1.576   2.914 -0.1061 -0.7121  0.6613
 1861SOL    MW4 7476   0.277   1.637   2.967 -0.1310  0.2158 -0.3584
 1862SOL     OW 7477   4.228   1.028   4.130  0.2866  0.0864 -0.3204
 1862SOL    HW2 7478   4.309   1.036   4.179 -0.1555 -0.1894  0.4628
 1862SOL    HW3 7479   4.161   1.068   4.186 -0.0462  0.7313 -1.1587
 1862SOL    MW4 7480   4.230   1.034   4.143  0.1844  0.1351 -0.3277
 1863SOL     OW 7481   0.753   1.693   2.607 -0.0707 -0.1412  0.3325
 1863SOL    HW2 7482   0.703   1.646   2.674 -0.4324  0.5018  0.5097
 1863SOL    HW3 7483   0.775   1.776   2.648 -0.3287  0.2705 -0.3685
 1863SOL    MW4 7484   0.749   1.698   2.622 -0.1524 -0.0020  0.2634
 1864SOL     OW 7485   3.899   1.026   2.245 -0.4334 -0.0895  0.0286
 1864SOL    HW2 7486   3.862   1.109   2.215 -2.1100 -0.4064  1.1495
 1864SOL    HW3 7487   3.882   0.965   2.173 -0.1935  0.2753 -0.3392
 1864SOL    MW4 7488   3.892   1.029   2.232 -0.6229 -0.0832  0.1280
 1865SOL     OW 7489   1.883   2.274   2.612 -0.3607 -0.5945  0.3197
 1865SOL    HW2 7490   1.951   2.226   2.659  0.6048 -1.2021 -1.6728
 1865SOL    HW3 7491   1.802   2.226   2.632  0.1985 -1.4765  0.4661
 1865SOL    MW4 7492   1.881   2.262   2.621 -0.1595 -0.7910  0.0761
 1866SOL     OW 7493   0.527   0.444   0.757  0.1513  0.2619 -0.1730
 1866SOL    HW2 7494   0.554   0.533   0.779  1.5163 -0.2665  0.2897
 1866SOL    HW3 7495   0.434   0.441   0.779  0.2873  1.3375  0.5508
 1866SOL    MW4 7496   0.518   0.455   0.763  0.3493  0.3341 -0.0165
 1867SOL     OW 7497   2.398   0.156   4.177  0.0977  0.1605 -0.1635
 1867SOL    HW2 7498   2.348   0.076   4.195 -0.5328  1.1037  2.5983
 1867SOL    HW3 7499   2.489   0.131   4.189  0.0351 -0.6301 -1.3146
 1867SOL    MW4 7500   2.403   0.142   4.181  0.0063  0.1806  0.0490
 1868SOL     OW 7501   3.304   1.338   3.680  0.7376 -0.2708 -0.1200
 1868SOL    HW2 7502   3.218   1.316   3.715  1.4747 -1.4347  1.0031
 1868SOL    HW3 7503   3.288   1.413   3.623 -0.9669 -0.2748  0.3200
 1868SOL    MW4 7504   3.291   1.345   3.677  0.6099 -0.4249  0.0862
 1869SOL     OW 7505   4.377   0.852   3.636 -0.0867 -0.3882 -0.2195
 1869SOL    HW2 7506   4.375   0.804   3.719  0.3420  0.4660  0.2863
 1869SOL    HW3 7507   4.335   0.793   3.574  1.2236 -1.7885  0.1967
 1869SOL    MW4 7508   4.371   0.838   3.639  0.1427 -0.4603 -0.0978
 1870SOL     OW 7509   1.494   2.113   4.076 -0.1964 -0.4168 -0.2986
 1870SOL    HW2 7510   1.420   2.053   4.079 -0.3972 -0.1667 -0.2925
 1870SOL    HW3 7511   1.459   2.196   4.107 -0.0684 -0.1325 -0.9122
 1870SOL    MW4 7512   1.480   2.116   4.081 -0.2060 -0.3463 -0.3787
 1871SOL     OW 7513   3.886   4.328   0.389  0.1544  0.2314  0.1411
 1871SOL    HW2 7514   3.816   4.392   0.392  1.4123  1.6083  0.4514
 1871SOL    HW3 7515   3.967   4.378   0.401  1.4840 -0.8848 -3.2480
 1871SOL    MW4 7516   3.888   4.343   0.391  0.4958  0.2658 -0.2651
 1872SOL     OW 7517   0.175   0.014   3.824 -0.0957 -0.0544 -0.4565
 1872SOL    HW2 7518   0.103   0.071   3.799 -1.7050 -1.9605 -0.2336
 1872SOL    HW3 7519   0.219   0.061   3.896 -0.9641  1.2012 -0.7302
 1872SOL    MW4 7520   0.172   0.028   3.830 -0.4226 -0.1402 -0.4632
 1873SOL     OW 7521   2.958   3.528   2.353 -0.2516  0.2191  0.0268
 1873SOL    HW2 7522   2.917   3.533   2.439  0.4799  0.1147  0.3812
 1873SOL    HW3 7523   2.963   3.620   2.324 -1.1778  0.1888 -0.2280
 1873SOL    MW4 7524   2.953   3.541   2.360 -0.2773  0.2013  0.0399
 1874SOL     OW 7525   2.194   2.709   3.634  0.4217  0.4991 -0.0282
 1874SOL    HW2 7526   2.284   2.683   3.652  0.4267  0.5290 -0.0084
 1874SOL    HW3 7527   2.194   2.730   3.540  0.2395 -0.2914 -0.2069
 1874SOL    MW4 7528   2.206   2.708   3.624  0.3983  0.3987 -0.0492
 1875SOL     OW 7529   0.141   3.917   3.247  0.1895  0.2071 -0.1092
 1875SOL    HW2 7530   0.091   3.836   3.256 -1.2830  1.0334 -0.6642
 1875SOL    HW3 7531   0.210   3.896   3.184  0.9133 -1.1104  1.1074
 1875SOL    MW4 7532   0.143   3.904   3.240  0.0907  0.1423 -0.0219
 1876SOL     OW 7533   0.689   0.446   4.170 -0.1274  0.1217  0.4983
 1876SOL    HW2 7534   0.716   0.381   4.106  1.4801 -0.4082  1.6825
 1876SOL    HW3 7535   0.641   0.396   4.236 -1.3194  0.5792 -0.0168
 1876SOL    MW4 7536   0.686   0.431   4.170 -0.0726  0.1121  0.5866
 1877SOL     OW 7537   3.167   3.426   1.178 -0.0519  0.1425 -0.6913
 1877SOL    HW2 7538   3.205   3.486   1.114 -1.6604  0.6788 -1.1872
 1877SOL    HW3 7539   3.133   3.354   1.125 -0.9286  0.3352 -0.3971
 1877SOL    MW4 7540   3.167   3.425   1.162 -0.3798  0.2387 -0.7180
 1878SOL     OW 7541   3.307   3.560   4.347  0.4390  0.0362 -0.1783
 1878SOL    HW2 7542   3.403   3.558   4.353  0.5270  0.1464 -1.4299
 1878SOL    HW3 7543   3.282   3.469   4.335  0.5299  0.1723 -1.5863
 1878SOL    MW4 7544   3.316   3.548   4.346  0.4626  0.0687 -0.5292
 1879SOL     OW 7545   4.296   3.322   4.362  0.3970 -0.0606 -0.5662
 1879SOL    HW2 7546   4.295   3.235   4.401 -0.0825 -0.8464 -2.3010
 1879SOL    HW3 7547   4.375   3.364   4.399 -0.5474 -0.4053  1.9699
 1879SOL    MW4 7548   4.307   3.316   4.372  0.2091 -0.2097 -0.4605
 1880SOL     OW 7549   2.759   1.869   1.357 -0.4417  0.1554 -0.0288
 1880SOL    HW2 7550   2.745   1.962   1.338 -0.3646 -0.0858 -1.3104
 1880SOL    HW3 7551   2.832   1.868   1.419  1.5552  0.8179 -2.2648
 1880SOL    MW4 7552   2.767   1.881   1.363 -0.1680  0.2110 -0.4929
 1881SOL     OW 7553   2.042   2.050   2.119  0.1393  0.2715 -0.0725
 1881SOL    HW2 7554   1.965   2.067   2.064  0.0432 -1.7883 -0.6102
 1881SOL    HW3 7555   2.014   2.076   2.207 -1.0580 -0.1243 -0.3181
 1881SOL    MW4 7556   2.028   2.056   2.123 -0.0314 -0.0525 -0.1759
 1882SOL     OW 7557   0.738   1.830   3.648 -0.1193  0.5716 -0.5250
 1882SOL    HW2 7558   0.700   1.918   3.640 -1.3398  0.3405  1.9678
 1882SOL    HW3 7559   0.790   1.834   3.728  0.6292 -0.6967 -0.9395
 1882SOL    MW4 7560   0.740   1.842   3.658 -0.1816  0.3738 -0.2508
 1883SOL     OW 7561   2.265   3.843   2.829 -0.6431 -0.0422  0.4847
 1883SOL    HW2 7562   2.271   3.925   2.878 -0.2243 -0.4619  1.1499
 1883SOL    HW3 7563   2.237   3.869   2.741  1.3640  1.0285  0.1200
 1883SOL    MW4 7564   2.262   3.857   2.824 -0.3230  0.0437  0.5244
 1884SOL     OW 7565   3.766   3.168   1.450 -0.2867  0.3588 -0.2921
 1884SOL    HW2 7566   3.740   3.260   1.444 -1.1195  0.1095 -0.6538
 1884SOL    HW3 7567   3.683   3.120   1.449  0.0847 -0.3469  0.9879
 1884SOL    MW4 7568   3.752   3.173   1.449 -0.3475  0.2328 -0.1709
 1885SOL     OW 7569   3.942   0.875   0.859 -0.8361  0.0017  0.0328
 1885SOL    HW2 7570   4.026   0.919   0.851 -1.7257  1.5308 -1.3571
 1885SOL    HW3 7571   3.953   0.791   0.814 -0.4380  0.7911 -1.3787
 1885SOL    MW4 7572   3.954   0.870   0.852 -0.9010  0.3076 -0.3368
 1886SOL     OW 7573   0.691   2.285   0.555  0.2774  0.2699  0.1494
 1886SOL    HW2 7574   0.703   2.233   0.634 -0.7247 -2.6275 -1.5413
 1886SOL    HW3 7575   0.596   2.298   0.548  0.1645 -1.2567 -1.6156
 1886SOL    MW4 7576   0.680   2.280   0.565  0.1303 -0.3138 -0.3065
 1887SOL     OW 7577   3.846   3.763   3.618  0.0124  0.0230  0.1117
 1887SOL    HW2 7578   3.939   3.776   3.639  0.2823 -0.2979 -0.8664
 1887SOL    HW3 7579   3.800   3.823   3.677  0.8497  0.3817  0.4200
 1887SOL    MW4 7580   3.852   3.772   3.629  0.1584  0.0280  0.0233
 1888SOL     OW 7581   1.013   1.369   4.306 -0.0570  0.1582  0.3600
 1888SOL    HW2 7582   1.024   1.464   4.313 -2.2367  0.5586 -1.1671
 1888SOL    HW3 7583   0.922   1.357   4.280  0.8986 -2.2081 -2.1381
 1888SOL    MW4 7584   1.002   1.380   4.303 -0.2185 -0.1012 -0.1711
 1889SOL     OW 7585   3.831   1.449   3.212 -0.7374 -0.0817  0.1702
 1889SOL    HW2 7586   3.897   1.432   3.144 -0.3871 -1.6422  0.8819
 1889SOL    HW3 7587   3.855   1.535   3.246  0.0859 -0.0077 -0.5466
 1889SOL    MW4 7588   3.843   1.458   3.207 -0.5826 -0.2778  0.1695
 1890SOL     OW 7589   4.202   1.747   3.817 -0.1320 -0.5613  0.1963
 1890SOL    HW2 7590   4.186   1.803   3.741 -0.0090 -0.8572 -0.0485
 1890SOL    HW3 7591   4.142   1.673   3.806 -1.0042  0.0044  1.0265
 1890SOL    MW4 7592   4.192   1.744   3.806 -0.2308 -0.5257  0.2735
 1891SOL     OW 7593   2.303   1.471   1.443  0.0669  0.3886  0.0023
 1891SOL    HW2 7594   2.222   1.472   1.392  0.1265 -1.0402 -0.1369
 1891SOL    HW3 7595   2.346   1.555   1.423 -1.7176  1.4905  0.6598
 1891SOL    MW4 7596   2.298   1.483   1.434 -0.1607  0.3455  0.0707
 1892SOL     OW 7597   0.263   3.137   1.065  0.1228  0.1609 -0.3030
 1892SOL    HW2 7598   0.324   3.117   0.994 -1.2429 -1.8059 -0.9409
 1892SOL    HW3 7599   0.194   3.189   1.024 -0.7617 -1.1313 -0.4766
 1892SOL    MW4 7600   0.262   3.141   1.050 -0.1741 -0.2691 -0.4101
 1893SOL     OW 7601   3.719   1.725   0.567  0.3989  0.0799 -0.1328
 1893SOL    HW2 7602   3.660   1.681   0.507  0.7821 -0.2570 -0.2689
 1893SOL    HW3 7603   3.696   1.691   0.653 -0.7253  1.1988  0.0293
 1893SOL    MW4 7604   3.709   1.715   0.570  0.3011  0.1831 -0.1293
 1894SOL     OW 7605   4.076   2.488   1.029  0.4989 -0.1840 -0.0931
 1894SOL    HW2 7606   4.094   2.410   1.081  0.5474 -0.1393 -0.0434
 1894SOL    HW3 7607   3.985   2.510   1.050 -0.2688 -1.5424 -1.8127
 1894SOL    MW4 7608   4.066   2.480   1.039  0.4040 -0.3573 -0.3134
 1895SOL     OW 7609   4.329   3.401   2.992 -0.4668  0.5392 -0.3183
 1895SOL    HW2 7610   4.381   3.354   3.057 -1.9511  2.5910  2.4596
 1895SOL    HW3 7611   4.368   3.378   2.908  1.3475 -2.3855  1.2704
 1895SOL    MW4 7612   4.341   3.392   2.990 -0.4232  0.4240  0.2578
 1896SOL     OW 7613   4.460   3.403   3.709  0.1167  0.2207  0.0846
 1896SOL    HW2 7614   4.446   3.446   3.794  0.4114 -0.6456  0.5818
 1896SOL    HW3 7615   4.522   3.460   3.663 -0.2447  0.8292  0.3509
 1896SOL    MW4 7616   4.466   3.416   3.714  0.1079  0.1867  0.1854
 1897SOL     OW 7617   0.050   2.322   4.360  0.3777 -0.4008 -0.1649
 1897SOL    HW2 7618   0.086   2.410   4.350  0.5858 -0.6801 -2.0962
 1897SOL    HW3 7619  -0.026   2.333   4.417  1.7651  0.6540  1.5149
 1897SOL    MW4 7620   0.045   2.335   4.366  0.5882 -0.2985 -0.1981
 1898SOL     OW 7621   1.986   4.238   1.184  0.4321 -0.2034 -0.6072
 1898SOL    HW2 7622   1.944   4.212   1.102  1.6241 -0.1626 -1.2504
 1898SOL    HW3 7623   2.080   4.231   1.165  0.7202  0.8134  0.4284
 1898SOL    MW4 7624   1.993   4.234   1.171  0.6274 -0.0639 -0.5554
 1899SOL     OW 7625   1.113   1.734   4.011 -0.2432 -0.6790  0.1495
 1899SOL    HW2 7626   1.140   1.759   3.922 -1.5105 -0.8038 -0.2803
 1899SOL    HW3 7627   1.155   1.649   4.026  1.7510  0.3433  0.5195
 1899SOL    MW4 7628   1.122   1.726   4.001 -0.1473 -0.5606  0.1416
 1900SOL     OW 7629   0.796   1.141   2.071  0.1914 -0.2306 -0.4874
 1900SOL    HW2 7630   0.832   1.082   2.137 -1.1645 -0.3389  0.1823
 1900SOL    HW3 7631   0.702   1.122   2.071 -0.2556  1.8504 -0.3537
 1900SOL    MW4 7632   0.788   1.130   2.080 -0.0465  0.0297 -0.3814
 1901SOL     OW 7633   3.883   1.213   1.831 -0.4041 -0.1262 -0.5139
 1901SOL    HW2 7634   3.874   1.304   1.803  0.5984  0.0475 -0.3018
 1901SOL    HW3 7635   3.817   1.165   1.780 -2.1151  0.9695  0.6191
 1901SOL    MW4 7636   3.873   1.219   1.820 -0.4976  0.0413 -0.3364
 1902SOL     OW 7637   2.167   1.709   1.781 -0.4251 -1.2096 -0.0639
 1902SOL    HW2 7638   2.160   1.759   1.863  0.3049  0.5395 -1.0542
 1902SOL    HW3 7639   2.174   1.618   1.810  0.1447 -0.5877  1.8405
 1902SOL    MW4 7640   2.167   1.704   1.796 -0.2536 -0.8968  0.0567
 1903SOL     OW 7641   1.925   2.120   2.352  0.1007  0.0123 -0.0425
 1903SOL    HW2 7642   1.968   2.196   2.392 -0.3449  0.2195  0.0510
 1903SOL    HW3 7643   1.831   2.139   2.361  0.0013 -0.0158 -1.0589
 1903SOL    MW4 7644   1.918   2.133   2.359  0.0288  0.0359 -0.1642
 1904SOL     OW 7645   1.738   1.396   1.972 -0.3947 -0.2450  0.1507
 1904SOL    HW2 7646   1.796   1.325   1.947  1.0726  0.1586  2.2838
 1904SOL    HW3 7647   1.684   1.359   2.042 -0.9528  0.1569 -0.0644
 1904SOL    MW4 7648   1.738   1.382   1.978 -0.2747 -0.1387  0.4038
 1905SOL     OW 7649   3.130   3.076   2.913 -0.1424 -0.2507  0.5746
 1905SOL    HW2 7650   3.174   3.100   2.831  0.7164 -0.3078  1.0078
 1905SOL    HW3 7651   3.198   3.031   2.964 -0.6300 -0.0816  1.3796
 1905SOL    MW4 7652   3.145   3.073   2.909 -0.0934 -0.2359  0.7379
 1906SOL     OW 7653   1.424   1.888   4.370 -0.3292 -0.2661  0.2819
 1906SOL    HW2 7654   1.499   1.830   4.381  0.2473  0.4725  0.2837
 1906SOL    HW3 7655   1.461   1.976   4.375 -1.0294  0.1031 -0.8591
 1906SOL    MW4 7656   1.439   1.892   4.373 -0.3455 -0.1200  0.1316
 1907SOL     OW 7657   2.607   4.376   3.152 -0.2116 -0.2985  0.0305
 1907SOL    HW2 7658   2.564   4.393   3.068 -0.3133 -1.2051 -0.0966
 1907SOL    HW3 7659   2.605   4.461   3.197  1.4114  0.6533 -1.5963
 1907SOL    MW4 7660   2.601   4.390   3.147 -0.0109 -0.2925 -0.2009
 1908SOL     OW 7661   0.422   4.275   2.321  0.1224 -0.5961  0.1650
 1908SOL    HW2 7662   0.368   4.235   2.389 -0.0707 -0.3409  0.1642
 1908SOL    HW3 7663   0.496   4.314   2.368 -0.5425  0.4748  0.3433
 1908SOL    MW4 7664   0.425   4.275   2.336  0.0092 -0.4212  0.1884
 1909SOL     OW 7665   3.340   1.870   2.594  0.5539  0.4615  0.6467
 1909SOL    HW2 7666   3.393   1.791   2.603 -1.4784 -0.7310  2.8445
 1909SOL    HW3 7667   3.390   1.938   2.639  0.3458 -0.6145  2.5628
 1909SOL    MW4 7668   3.354   1.869   2.601  0.2583  0.1622  1.1895
 1910SOL     OW 7669   0.019   4.516   2.986  0.1177 -0.4752  0.1515
 1910SOL    HW2 7670   0.059   4.452   3.045 -0.4785 -1.7154 -0.7741
 1910SOL    HW3 7671   0.092   4.569   2.956  0.6968 -1.0850  0.4747
 1910SOL    MW4 7672   0.034   4.514   2.990  0.1154 -0.7193  0.0720
 1911SOL     OW 7673   1.624   0.834   2.732  0.2364 -0.3361 -0.2689
 1911SOL    HW2 7674   1.551   0.888   2.763  0.3805 -1.2813  1.7779
 1911SOL    HW3 7675   1.691   0.898   2.707 -0.1195  0.4653  0.8009
 1911SOL    MW4 7676   1.623   0.850   2.732  0.2084 -0.3551  0.1423
 1912SOL     OW 7677   0.215   0.536   2.286 -0.4258  0.1640  0.2327
 1912SOL    HW2 7678   0.168   0.573   2.361 -1.4191  0.9786 -0.7680
 1912SOL    HW3 7679   0.155   0.549   2.213  0.3188 -1.1030 -0.6040
 1912SOL    MW4 7680   0.201   0.542   2.287 -0.4586  0.1043 -0.0097
 1913SOL     OW 7681   2.330   0.567   4.304  0.4904  0.1612  0.7342
 1913SOL    HW2 7682   2.252   0.621   4.315 -0.1121 -0.9202  1.8372
 1913SOL    HW3 7683   2.296   0.479   4.289  1.4959 -0.5584  2.5107
 1913SOL    MW4 7684   2.315   0.562   4.303  0.5436 -0.0764  1.1141
 1914SOL     OW 7685   1.610   3.907   3.822 -0.4042  0.2106 -0.3072
 1914SOL    HW2 7686   1.693   3.866   3.849 -0.6149  0.5616  0.9055
 1914SOL    HW3 7687   1.550   3.834   3.809  0.0454 -0.0373 -1.0452
 1914SOL    MW4 7688   1.613   3.892   3.824 -0.3727  0.2242 -0.2446
 1915SOL     OW 7689   2.266   3.434   2.669  0.5134 -0.2634 -0.0472
 1915SOL    HW2 7690   2.173   3.449   2.688  0.5864  0.8882 -0.5582
 1915SOL    HW3 7691   2.267   3.403   2.578  0.5172 -1.6843  0.4240
 1915SOL    MW4 7692   2.254   3.432   2.659  0.5235 -0.2990 -0.0525
 1916SOL     OW 7693   1.301   1.073   4.136 -0.4558 -0.1812  0.6866
 1916SOL    HW2 7694   1.240   1.043   4.204 -0.8391 -0.2267  0.3310
 1916SOL    HW3 7695   1.244   1.114   4.071  0.0658  1.3756  1.1943
 1916SOL    MW4 7696   1.285   1.075   4.136 -0.4376  0.0182  0.7067
 1917SOL     OW 7697   2.835   1.141   2.365 -0.2079  0.2727 -0.1336
 1917SOL    HW2 7698   2.741   1.153   2.379 -0.0592  1.3964 -0.0532
 1917SOL    HW3 7699   2.857   1.202   2.295  0.5965  0.5560  0.3609
 1917SOL    MW4 7700   2.826   1.150   2.358 -0.0821  0.4583 -0.0578
 1918SOL     OW 7701   2.543   2.162   2.756  0.1245  0.2831  0.1118
 1918SOL    HW2 7702   2.636   2.179   2.744 -0.0354  0.6396 -0.6869
 1918SOL    HW3 7703   2.536   2.066   2.756  0.5570  0.2567  0.7211
 1918SOL    MW4 7704   2.554   2.151   2.754  0.1604  0.3267  0.0868
 1919SOL     OW 7705   1.602   3.914   1.902  0.8985 -0.1707  0.3776
 1919SOL    HW2 7706   1.549   3.888   1.977  0.2971 -0.6428 -0.2083
 1919SOL    HW3 7707   1.570   4.002   1.880  1.1755  0.0262  0.7654
 1919SOL    MW4 7708   1.590   3.922   1.909  0.8557 -0.2070  0.3515
 1920SOL     OW 7709   1.926   1.449   4.099 -0.1724  0.4383 -0.2258
 1920SOL    HW2 7710   1.905   1.359   4.126 -1.9912  1.2519  1.1617
 1920SOL    HW3 7711   1.853   1.474   4.042  1.0335  0.5576 -1.7228
 1920SOL    MW4 7712   1.913   1.440   4.095 -0.2533  0.5614 -0.2403
 1921SOL     OW 7713   3.522   2.771   4.379 -0.3153  0.6148  0.0231
 1921SOL    HW2 7714   3.589   2.703   4.392 -0.5319  0.6012  1.0988
 1921SOL    HW3 7715   3.525   2.823   4.459 -0.1065  1.9312 -0.8357
 1921SOL    MW4 7716   3.531   2.769   4.391 -0.3163  0.7867  0.0517
 1922SOL     OW 7717   3.740   3.671   4.113  0.0274  0.4388  0.1808
 1922SOL    HW2 7718   3.767   3.621   4.190  0.2253 -0.4719 -0.4814
 1922SOL    HW3 7719   3.686   3.611   4.062 -1.3650  1.5167  0.3352
 1922SOL    MW4 7720   3.737   3.657   4.116 -0.1302  0.4608  0.1138
 1923SOL     OW 7721   0.952   2.166   2.195  0.1529 -0.0125  0.0432
 1923SOL    HW2 7722   0.997   2.210   2.266  1.1371  1.0164 -1.1909
 1923SOL    HW3 7723   1.020   2.147   2.130 -0.7525 -0.7221 -0.7298
 1923SOL    MW4 7724   0.967   2.169   2.196  0.1633  0.0296 -0.2216
 1924SOL     OW 7725   2.616   4.516   0.801  0.4422 -0.3412  0.7231
 1924SOL    HW2 7726   2.570   4.514   0.885 -1.6735  0.0476 -0.4128
 1924SOL    HW3 7727   2.659   4.602   0.799 -0.6673  0.2209  0.8000
 1924SOL    MW4 7728   2.616   4.527   0.812  0.0167 -0.2157  0.5834
 1925SOL     OW 7729   0.222   1.525   3.967  0.3809 -0.5261 -0.2384
 1925SOL    HW2 7730   0.292   1.460   3.954  1.7651  1.1510 -1.3717
 1925SOL    HW3 7731   0.156   1.501   3.902  0.3621 -1.4792  0.1132
 1925SOL    MW4 7732   0.223   1.513   3.957  0.5611 -0.4306 -0.3416
 1926SOL     OW 7733   0.554   2.374   2.347  0.4467 -0.2581 -0.5175
 1926SOL    HW2 7734   0.624   2.364   2.283  0.2861  2.5800 -1.1955
 1926SOL    HW3 7735   0.485   2.315   2.316  0.5201  0.7897 -2.7737
 1926SOL    MW4 7736   0.554   2.365   2.335  0.4352  0.2546 -0.9046
 1927SOL     OW 7737   2.987   0.983   3.758 -0.0263 -0.3733  0.3353
 1927SOL    HW2 7738   3.004   0.996   3.851  0.6967  0.6317  0.0696
 1927SOL    HW3 7739   3.065   0.938   3.725  0.3294  0.5106 -0.0521
 1927SOL    MW4 7740   2.999   0.979   3.766  0.1160 -0.1241  0.2491
 1928SOL     OW 7741   1.407   3.625   1.228  0.1288 -0.1868  0.2437
 1928SOL    HW2 7742   1.451   3.558   1.177  0.2700 -0.1641  0.3342
 1928SOL    HW3 7743   1.392   3.696   1.166  2.3665  0.7909  0.7507
 1928SOL    MW4 7744   1.411   3.626   1.213  0.4426 -0.0548  0.3226
 1929SOL     OW 7745   1.085   0.755   0.473 -0.3417 -0.0319  0.2315
 1929SOL    HW2 7746   1.018   0.713   0.527  0.8321 -0.4132  1.4095
 1929SOL    HW3 7747   1.162   0.759   0.529  0.1762  1.8312 -0.5605
 1929SOL    MW4 7748   1.086   0.750   0.487 -0.1185  0.1636  0.2825
 1930SOL     OW 7749   0.879   3.482   1.029  0.4469  0.2382 -0.1663
 1930SOL    HW2 7750   0.924   3.424   0.967 -0.9381 -0.9820 -0.0543
 1930SOL    HW3 7751   0.827   3.540   0.973  0.2606  0.0388 -0.2007
 1930SOL    MW4 7752   0.878   3.482   1.013  0.2396  0.0509 -0.1561
 1931SOL     OW 7753   1.350   0.089   3.433  0.1193  0.2671  0.3216
 1931SOL    HW2 7754   1.310   0.144   3.366 -0.3270  0.2866  0.5999
 1931SOL    HW3 7755   1.403   0.149   3.485  1.2257  0.0937 -0.5829
 1931SOL    MW4 7756   1.351   0.104   3.431  0.2064  0.2468  0.2389
 1932SOL     OW 7757   1.372   0.215   2.850  0.7014  0.1268 -0.3584
 1932SOL    HW2 7758   1.300   0.271   2.878 -0.5542 -0.8106 -1.6591
 1932SOL    HW3 7759   1.448   0.273   2.846 -0.0022  1.1530  0.8685
 1932SOL    MW4 7760   1.372   0.230   2.853  0.4430  0.1385 -0.3682
 1933SOL     OW 7761   2.532   3.486   0.580 -0.2936  0.4014  0.0445
 1933SOL    HW2 7762   2.493   3.508   0.495  2.4238 -0.1195 -1.4259
 1933SOL    HW3 7763   2.507   3.558   0.638  0.3664  2.3662 -2.0393
 1933SOL    MW4 7764   2.524   3.499   0.576  0.1520  0.5919 -0.4244
 1934SOL     OW 7765   1.115   3.434   4.439  0.1512  0.1885  0.0828
 1934SOL    HW2 7766   1.032   3.398   4.407  0.2881  0.6273 -0.7962
 1934SOL    HW3 7767   1.106   3.528   4.428  1.3203  0.1501 -1.4010
 1934SOL    MW4 7768   1.103   3.442   4.433  0.3236  0.2413 -0.2289
 1935SOL     OW 7769   2.109   4.064   1.419 -0.0668  0.2689 -0.2571
 1935SOL    HW2 7770   2.086   4.133   1.356  3.0462  0.7183 -0.9501
 1935SOL    HW3 7771   2.103   3.983   1.369 -2.5930  0.0964  0.2562
 1935SOL    MW4 7772   2.105   4.063   1.404  0.0107  0.3055 -0.2808
 1936SOL     OW 7773   1.856   2.262   0.480  0.0282 -0.8440  0.3119
 1936SOL    HW2 7774   1.797   2.207   0.429 -0.4319 -1.4161  1.4542
 1936SOL    HW3 7775   1.943   2.227   0.461  0.0131  0.0590 -1.4435
 1936SOL    MW4 7776   1.860   2.250   0.471 -0.0345 -0.8003  0.2310
 1937SOL     OW 7777   3.016   1.489   4.290  0.1697  0.5152  0.4187
 1937SOL    HW2 7778   3.081   1.458   4.226  1.1477  0.7791  1.2589
 1937SOL    HW3 7779   2.932   1.466   4.252  0.7819 -0.4131 -0.4030
 1937SOL    MW4 7780   3.014   1.482   4.276  0.3795  0.4275  0.4211
 1938SOL     OW 7781   4.379   4.660   3.223  0.1581 -0.1994 -0.1034
 1938SOL    HW2 7782   4.325   4.585   3.247  1.0658 -0.7245  0.3712
 1938SOL    HW3 7783   4.358   4.678   3.132 -1.6604  0.3472  0.4042
 1938SOL    MW4 7784   4.369   4.652   3.214  0.0380 -0.1966  0.0262
 1939SOL     OW 7785   0.195   3.703   3.810  0.4872  0.0056  0.0883
 1939SOL    HW2 7786   0.186   3.642   3.736 -3.6358  0.8183 -0.1864
 1939SOL    HW3 7787   0.126   3.768   3.796  0.6239  1.0737  3.8324
 1939SOL    MW4 7788   0.185   3.703   3.798 -0.0387  0.2537  0.5461
 1940SOL     OW 7789   1.198   0.683   2.293  0.3235  0.0038 -0.4010
 1940SOL    HW2 7790   1.189   0.644   2.379  0.3359 -0.0501 -0.4242
 1940SOL    HW3 7791   1.281   0.731   2.297  0.3564 -0.0529 -0.4043
 1940SOL    MW4 7792   1.208   0.684   2.305  0.3295 -0.0108 -0.4045
 1941SOL     OW 7793   0.611   3.897   1.185 -0.0139  0.1847  0.0533
 1941SOL    HW2 7794   0.529   3.947   1.176 -0.6988 -0.1449  3.5772
 1941SOL    HW3 7795   0.586   3.807   1.166  0.0805  0.4430 -1.2958
 1941SOL    MW4 7796   0.597   3.892   1.181 -0.0918  0.1753  0.3402
 1942SOL     OW 7797   0.513   0.790   3.751  0.4091 -0.1157  0.2127
 1942SOL    HW2 7798   0.423   0.823   3.750  0.6734  0.6828  1.7164
 1942SOL    HW3 7799   0.505   0.700   3.784  0.1881  0.0302  0.5576
 1942SOL    MW4 7800   0.500   0.782   3.756  0.4148  0.0089  0.4566
 1943SOL     OW 7801   0.097   3.298   1.450  0.1045 -0.3025 -0.2495
 1943SOL    HW2 7802   0.073   3.231   1.515  0.5180 -0.4586 -0.2543
 1943SOL    HW3 7803   0.144   3.364   1.501 -1.3899  0.5972 -0.0245
 1943SOL    MW4 7804   0.100   3.298   1.465 -0.0381 -0.2044 -0.2204
 1944SOL     OW 7805   3.475   0.240   3.110 -0.3233 -0.1048  0.0106
 1944SOL    HW2 7806   3.484   0.323   3.156 -1.1208 -0.4061  0.7356
 1944SOL    HW3 7807   3.479   0.263   3.017  0.2645  0.6387  0.2165
 1944SOL    MW4 7808   3.476   0.254   3.104 -0.3510 -0.0464  0.1334
 1945SOL     OW 7809   3.169   1.642   1.000  0.2892  0.2666 -0.0700
 1945SOL    HW2 7810   3.177   1.598   0.915  1.9652 -0.2515  0.3449
 1945SOL    HW3 7811   3.085   1.611   1.035 -0.7632  1.0634 -1.8509
 1945SOL    MW4 7812   3.159   1.632   0.994  0.3715  0.3034 -0.2502
 1946SOL     OW 7813   3.452   0.214   2.436 -0.0121 -0.0808  0.1946
 1946SOL    HW2 7814   3.416   0.301   2.453 -1.0267 -0.6447  1.0242
 1946SOL    HW3 7815   3.475   0.181   2.523  1.6222 -0.1220 -0.2349
 1946SOL    MW4 7816   3.450   0.221   2.450  0.0696 -0.1607  0.2474
 1947SOL     OW 7817   1.267   2.777   1.217 -0.1522  0.1096 -0.2724
 1947SOL    HW2 7818   1.327   2.802   1.147  1.2970 -0.7030  0.6632
 1947SOL    HW3 7819   1.304   2.697   1.253 -1.1419  0.2609  1.1185
 1947SOL    MW4 7820   1.280   2.770   1.212 -0.0916  0.0223  0.0346
 1948SOL     OW 7821   1.221   3.675   1.664  0.1904 -0.6488  0.1269
 1948SOL    HW2 7822   1.301   3.727   1.669 -1.3368  1.7241  0.8834
 1948SOL    HW3 7823   1.223   3.636   1.576  1.6769  0.1976 -0.2341
 1948SOL    MW4 7824   1.231   3.677   1.653  0.1850 -0.2241  0.1791
 1949SOL     OW 7825   2.011   4.147   2.859  0.2984 -0.2528 -0.3144
 1949SOL    HW2 7826   1.959   4.199   2.921 -0.1723 -0.4037 -0.5872
 1949SOL    HW3 7827   1.987   4.056   2.877 -0.3032 -0.2585 -1.1487
 1949SOL    MW4 7828   2.001   4.142   2.870  0.1569 -0.2735 -0.4604
 1950SOL     OW 7829   2.186   1.426   3.249  0.3447 -0.6974  0.3841
 1950SOL    HW2 7830   2.246   1.495   3.223 -2.1963  1.4978  0.0893
 1950SOL    HW3 7831   2.153   1.390   3.166 -1.8086  0.9498  0.4650
 1950SOL    MW4 7832   2.189   1.430   3.234 -0.2747 -0.1905  0.3559
 1951SOL     OW 7833   1.194   4.491   0.337 -0.3820  0.2693 -0.2932
 1951SOL    HW2 7834   1.114   4.541   0.354 -0.7605 -0.2697 -0.4641
 1951SOL    HW3 7835   1.265   4.552   0.355 -0.8190  0.5388  0.5561
 1951SOL    MW4 7836   1.193   4.506   0.342 -0.4896  0.2338 -0.2037
 1952SOL     OW 7837   1.241   0.476   4.437  0.5512  0.0213  0.1692
 1952SOL    HW2 7838   1.310   0.411   4.426 -0.4127 -1.2493  1.4150
 1952SOL    HW3 7839   1.201   0.484   4.351  2.6868  1.3013 -0.7521
 1952SOL    MW4 7840   1.245   0.469   4.424  0.7058  0.0226  0.2120
 1953SOL     OW 7841   3.687   2.586   2.347  0.2971 -0.3675  0.0489
 1953SOL    HW2 7842   3.695   2.585   2.252 -2.5723  1.7991 -0.2888
 1953SOL    HW3 7843   3.755   2.647   2.376 -0.7184  1.2833 -0.9093
 1953SOL    MW4 7844   3.697   2.594   2.338 -0.2155  0.1362 -0.1221
 1954SOL     OW 7845   0.960   3.384   4.045  0.0247 -0.1517  0.2158
 1954SOL    HW2 7846   0.907   3.450   3.999 -0.4986 -0.5024  0.3140
 1954SOL    HW3 7847   0.965   3.311   3.984  0.3656 -0.1397  0.2258
 1954SOL    MW4 7848   0.954   3.383   4.031  0.0006 -0.1964  0.2301
 1955SOL     OW 7849   2.636   1.725   0.400 -0.1158 -0.2971 -0.7340
 1955SOL    HW2 7850   2.576   1.792   0.368 -1.2197 -1.1357 -0.4343
 1955SOL    HW3 7851   2.709   1.774   0.437 -2.5903  0.8460  2.8382
 1955SOL    MW4 7852   2.638   1.740   0.401 -0.5879 -0.2569 -0.2232
 1956SOL     OW 7853   3.348   0.906   3.262 -0.0894 -0.0001  0.4409
 1956SOL    HW2 7854   3.342   1.001   3.277  2.2958  0.5494 -1.7536
 1956SOL    HW3 7855   3.259   0.880   3.240 -0.7861  1.7565  1.1002
 1956SOL    MW4 7856   3.335   0.915   3.261  0.1333  0.3042  0.2383
 1957SOL     OW 7857   1.458   0.936   3.954  0.0434  0.5020  0.9680
 1957SOL    HW2 7858   1.426   0.977   4.034 -0.1668  0.5383  0.8678
 1957SOL    HW3 7859   1.396   0.965   3.887  1.3504  2.0931  0.4167
 1957SOL    MW4 7860   1.446   0.945   3.956  0.1881  0.7167  0.8820
 1958SOL     OW 7861   3.328   4.024   1.476 -0.2121 -0.5810 -0.2572
 1958SOL    HW2 7862   3.253   4.062   1.431 -0.4144  1.0999  1.4488
 1958SOL    HW3 7863   3.290   3.976   1.549  0.3456  0.0317  0.4438
 1958SOL    MW4 7864   3.313   4.023   1.480 -0.1652 -0.2783  0.0604
 1959SOL     OW 7865   2.423   0.572   3.799 -0.3772 -0.1533 -0.5378
 1959SOL    HW2 7866   2.466   0.654   3.823  0.3183 -0.0236 -2.1369
 1959SOL    HW3 7867   2.462   0.507   3.858 -1.2773  0.7245  1.0560
 1959SOL    MW4 7868   2.434   0.574   3.810 -0.4042 -0.0204 -0.5385
 1960SOL     OW 7869   4.344   3.769   1.816  0.0199 -0.1678  0.0007
 1960SOL    HW2 7870   4.422   3.714   1.815 -0.1409 -0.3932 -0.7399
 1960SOL    HW3 7871   4.371   3.850   1.772 -0.1043 -0.1678 -0.0769
 1960SOL    MW4 7872   4.358   3.773   1.810 -0.0177 -0.1976 -0.1073
 1961SOL     OW 7873   0.541   4.575   4.254 -0.1060 -0.4056 -0.4923
 1961SOL    HW2 7874   0.459   4.599   4.298 -0.6548 -0.1924 -1.6282
 1961SOL    HW3 7875   0.529   4.602   4.164  1.1692 -0.5147 -0.7017
 1961SOL    MW4 7876   0.528   4.581   4.248 -0.0101 -0.3918 -0.6698
 1962SOL     OW 7877   4.275   4.292   1.647  0.5004  0.2629  0.2321
 1962SOL    HW2 7878   4.180   4.299   1.655  0.4422  0.5142 -0.6277
 1962SOL    HW3 7879   4.307   4.380   1.664  0.4614  0.5247 -0.9721
 1962SOL    MW4 7880   4.267   4.305   1.650  0.4876  0.3306 -0.0402
 1963SOL     OW 7881   1.294   3.059   0.879 -0.5239  0.1351 -0.0831
 1963SOL    HW2 7882   1.344   3.129   0.838 -0.8138  0.7128  0.5422
 1963SOL    HW3 7883   1.269   3.002   0.807 -0.5486  0.8364 -0.6310
 1963SOL    MW4 7884   1.298   3.061   0.864 -0.5654  0.3038 -0.0729
 1964SOL     OW 7885   1.724   1.301   2.982 -0.2469  0.1041 -0.5787
 1964SOL    HW2 7886   1.762   1.222   2.942 -1.3068 -0.1701 -1.0488
 1964SOL    HW3 7887   1.751   1.296   3.073  1.1392  0.0883 -0.9740
 1964SOL    MW4 7888   1.733   1.290   2.989 -0.2039  0.0659 -0.6929
 1965SOL     OW 7889   3.113   1.143   4.180  0.1895 -0.6040  0.1123
 1965SOL    HW2 7890   3.160   1.206   4.234 -0.3276 -0.5466  0.5015
 1965SOL    HW3 7891   3.052   1.196   4.128  0.1880 -0.7262 -0.0123
 1965SOL    MW4 7892   3.111   1.158   4.180  0.1211 -0.6125  0.1472
 1966SOL     OW 7893   2.043   0.134   4.223  0.0120  0.2345  0.1905
 1966SOL    HW2 7894   2.100   0.188   4.278 -0.0804  1.7148 -1.1614
 1966SOL    HW3 7895   1.954   0.161   4.245 -0.1996 -1.5851  1.7809
 1966SOL    MW4 7896   2.039   0.144   4.233 -0.0281  0.1897  0.2220
 1967SOL     OW 7897   0.589   0.705   0.759 -0.0827  1.1555 -0.1548
 1967SOL    HW2 7898   0.604   0.760   0.836 -0.9605  1.3344 -0.1047
 1967SOL    HW3 7899   0.496   0.716   0.740  0.0349  0.7588 -0.9729
 1967SOL    MW4 7900   0.579   0.714   0.767 -0.1830  1.1267 -0.2561
 1968SOL     OW 7901   2.812   3.239   4.283 -0.0779  0.2119 -0.2482
 1968SOL    HW2 7902   2.905   3.258   4.298 -0.1897  0.1355  0.5340
 1968SOL    HW3 7903   2.776   3.321   4.249  0.3690  0.1116 -0.9784
 1968SOL    MW4 7904   2.820   3.253   4.280 -0.0337  0.1886 -0.2413
 1969SOL     OW 7905   0.232   2.716   1.509  0.2772 -0.0884 -0.0717
 1969SOL    HW2 7906   0.260   2.625   1.502  0.0157  0.0251 -3.1826
 1969SOL    HW3 7907   0.143   2.716   1.475  0.7874  1.5641 -1.4321
 1969SOL    MW4 7908   0.224   2.704   1.504  0.3100  0.1446 -0.6616
 1970SOL     OW 7909   2.007   3.861   1.242 -0.0002  0.0370  0.0354
 1970SOL    HW2 7910   1.916   3.889   1.251 -0.8028 -2.0874 -1.1500
 1970SOL    HW3 7911   2.035   3.897   1.158  0.4768  1.1685  0.6540
 1970SOL    MW4 7912   1.999   3.870   1.232 -0.0432 -0.0940 -0.0394
 1971SOL     OW 7913   3.536   4.338   3.245  0.1999 -0.2398  0.3432
 1971SOL    HW2 7914   3.477   4.311   3.315  0.8410  0.5749  1.2029
 1971SOL    HW3 7915   3.479   4.379   3.180 -0.1832  0.4669  1.1280
 1971SOL    MW4 7916   3.521   4.339   3.245  0.2340 -0.0390  0.5601
 1972SOL     OW 7917   1.687   1.730   2.461 -0.2121 -0.0313  0.3776
 1972SOL    HW2 7918   1.714   1.690   2.544  0.0016  0.7387  0.6757
 1972SOL    HW3 7919   1.632   1.803   2.486 -0.1929  0.1711 -0.1654
 1972SOL    MW4 7920   1.684   1.734   2.475 -0.1813  0.0970  0.3453
 1973SOL     OW 7921   2.802   4.276   1.112  0.1454 -0.1642 -0.3904
 1973SOL    HW2 7922   2.814   4.326   1.031  0.3781 -0.3303 -0.4586
 1973SOL    HW3 7923   2.836   4.189   1.092  0.5311 -0.1022 -0.0002
 1973SOL    MW4 7924   2.808   4.271   1.098  0.2270 -0.1779 -0.3479
 1974SOL     OW 7925   4.239   3.656   2.913 -0.2704 -0.4083 -0.2344
 1974SOL    HW2 7926   4.254   3.570   2.952 -0.9791  0.1148  1.2156
 1974SOL    HW3 7927   4.217   3.713   2.987  1.9516  1.4562 -0.9374
 1974SOL    MW4 7928   4.238   3.652   2.928 -0.0707 -0.0933 -0.1358
 1975SOL     OW 7929   1.716   4.537   1.691 -0.4741 -0.0442  0.6076
 1975SOL    HW2 7930   1.765   4.464   1.653 -0.2449  0.6713 -0.4805
 1975SOL    HW3 7931   1.782   4.593   1.731 -0.4084  0.7676 -0.6030
 1975SOL    MW4 7932   1.731   4.535   1.691 -0.4352  0.1573  0.3043
 1976SOL     OW 7933   1.041   0.217   4.127  0.0742  0.1875 -0.2237
 1976SOL    HW2 7934   1.076   0.306   4.122  0.1855  0.1561  0.0015
 1976SOL    HW3 7935   1.094   0.167   4.065 -2.0043  0.9369 -2.7020
 1976SOL    MW4 7936   1.053   0.222   4.118 -0.1853  0.2822 -0.5210
 1977SOL     OW 7937   3.779   3.964   1.183  0.4824 -0.7112 -0.3684
 1977SOL    HW2 7938   3.687   3.958   1.206 -0.0236  0.2995 -2.0253
 1977SOL    HW3 7939   3.818   4.017   1.253 -0.8162  1.4422 -1.2116
 1977SOL    MW4 7940   3.772   3.970   1.195  0.2443 -0.2937 -0.6982
 1978SOL     OW 7941   2.972   3.416   1.867  0.1305 -0.2517 -0.5979
 1978SOL    HW2 7942   2.968   3.326   1.834  1.8927 -0.3398 -0.6266
 1978SOL    HW3 7943   2.941   3.410   1.957 -0.1257 -0.8242 -0.7214
 1978SOL    MW4 7944   2.967   3.403   1.875  0.3292 -0.3389 -0.6180
 1979SOL     OW 7945   3.808   3.182   2.446 -0.0197 -0.1321  0.6754
 1979SOL    HW2 7946   3.730   3.131   2.424  0.6596 -2.0949  2.5809
 1979SOL    HW3 7947   3.871   3.117   2.477  1.5445  1.6794  1.4213
 1979SOL    MW4 7948   3.806   3.166   2.447  0.2763 -0.1521  1.0252
 1980SOL     OW 7949   1.194   4.054   1.559 -0.1638 -0.2553  0.1595
 1980SOL    HW2 7950   1.151   3.972   1.535 -0.3192 -0.0961 -0.1008
 1980SOL    HW3 7951   1.215   4.044   1.652 -1.5967  0.0476  0.5149
 1980SOL    MW4 7952   1.191   4.042   1.568 -0.3733 -0.1943  0.1720
 1981SOL     OW 7953   3.186   4.373   1.586 -0.1967 -0.4984 -0.0838
 1981SOL    HW2 7954   3.202   4.442   1.650 -2.0178  0.0921 -0.2447
 1981SOL    HW3 7955   3.116   4.320   1.624  1.7785 -2.8513  0.4694
 1981SOL    MW4 7956   3.179   4.375   1.599 -0.1763 -0.7309 -0.0320
 1982SOL     OW 7957   3.735   1.773   1.224  0.0583 -0.0439  0.0631
 1982SOL    HW2 7958   3.662   1.796   1.166 -0.2905  1.3552  1.0444
 1982SOL    HW3 7959   3.738   1.678   1.222  0.0109 -0.0255 -2.2215
 1982SOL    MW4 7960   3.726   1.764   1.216  0.0060  0.1431 -0.1089
 1983SOL     OW 7961   0.899   3.790   4.147 -0.1059 -0.2208  0.0422
 1983SOL    HW2 7962   0.829   3.725   4.148 -0.6521  0.3338 -0.9980
 1983SOL    HW3 7963   0.853   3.874   4.153  0.5491  0.0924  0.6880
 1983SOL    MW4 7964   0.884   3.793   4.148 -0.0915 -0.1063 -0.0098
 1984SOL     OW 7965   2.276   4.208   3.621  0.0285 -0.2157  0.4482
 1984SOL    HW2 7966   2.262   4.248   3.707  0.1895  0.4885  0.1569
 1984SOL    HW3 7967   2.372   4.204   3.612  0.0134 -0.6330  0.4571
 1984SOL    MW4 7968   2.287   4.213   3.631  0.0478 -0.1778  0.4110
 1985SOL     OW 7969   1.344   0.744   4.388 -0.1939 -0.7343 -0.4170
 1985SOL    HW2 7970   1.309   0.659   4.413 -0.1744 -0.7752 -0.5277
 1985SOL    HW3 7971   1.267   0.797   4.368 -0.2769 -0.2747  1.0719
 1985SOL    MW4 7972   1.329   0.740   4.389 -0.2023 -0.6790 -0.2352
 1986SOL     OW 7973   0.789   2.363   2.527 -0.0282 -0.5784 -0.7974
 1986SOL    HW2 7974   0.703   2.337   2.493 -0.3354  0.4656 -0.8200
 1986SOL    HW3 7975   0.777   2.367   2.622 -0.9130  2.7971 -1.0121
 1986SOL    MW4 7976   0.776   2.360   2.535 -0.1855  0.0047 -0.8287
 1987SOL     OW 7977   3.290   3.130   2.698 -0.0554 -0.0864 -0.0093
 1987SOL    HW2 7978   3.373   3.083   2.706 -0.6391 -0.9437  1.1876
 1987SOL    HW3 7979   3.313   3.210   2.651  1.4915 -0.1951  0.5206
 1987SOL    MW4 7980   3.304   3.134   2.693  0.0717 -0.2139  0.2186
 1988SOL     OW 7981   0.681   4.613   3.259  0.1244  0.2139  0.3200
 1988SOL    HW2 7982   0.730   4.540   3.220  2.0879  0.6906  1.7685
 1988SOL    HW3 7983   0.749   4.670   3.295 -1.4072  2.4887 -0.3108
 1988SOL    MW4 7984   0.697   4.611   3.259  0.1814  0.5770  0.4279
 1989SOL     OW 7985   4.278   1.663   1.047 -0.0636  0.0939  0.6034
 1989SOL    HW2 7986   4.231   1.593   1.001 -1.2481  2.1754 -1.4902
 1989SOL    HW3 7987   4.219   1.689   1.117 -1.1249  1.2089 -0.6691
 1989SOL    MW4 7988   4.264   1.657   1.050 -0.3599  0.5156  0.1593
 1990SOL     OW 7989   1.301   2.543   0.310 -0.3681 -0.0216 -0.1617
 1990SOL    HW2 7990   1.384   2.499   0.326  0.4204  0.7952 -1.8563
 1990SOL    HW3 7991   1.241   2.474   0.283  0.1896 -0.3945 -0.4319
 1990SOL    MW4 7992   1.304   2.528   0.309 -0.1905  0.0369 -0.4210
 1991SOL     OW 7993   2.650   0.118   2.104 -0.2976  0.2020  0.8295
 1991SOL    HW2 7994   2.713   0.121   2.176  0.2862 -0.1827  0.3365
 1991SOL    HW3 7995   2.603   0.201   2.110  0.3125  0.5292  1.1470
 1991SOL    MW4 7996   2.652   0.130   2.114 -0.1401  0.1944  0.8064
 1992SOL     OW 7997   4.454   4.272   2.371  0.1143 -0.3097  0.0950
 1992SOL    HW2 7998   4.441   4.354   2.420 -1.8899 -0.7319  0.3141
 1992SOL    HW3 7999   4.477   4.301   2.282 -1.8395  0.5241 -0.1600
 1992SOL    MW4 8000   4.455   4.287   2.366 -0.4079 -0.2553  0.0903
 1993SOL     OW 8001   4.037   3.167   3.968 -0.2617  0.2623  0.6835
 1993SOL    HW2 8002   4.069   3.095   3.914  0.4647  0.8371  0.3284
 1993SOL    HW3 8003   4.117   3.212   3.997 -0.7261  1.3892  0.2428
 1993SOL    MW4 8004   4.052   3.164   3.964 -0.2271  0.4868  0.5785
 1994SOL     OW 8005   3.501   4.492   2.498 -0.0920  0.3707  0.2668
 1994SOL    HW2 8006   3.583   4.443   2.504 -0.1973  0.0418 -0.8764
 1994SOL    HW3 8007   3.510   4.562   2.562  0.7315 -0.1777  0.7556
 1994SOL    MW4 8008   3.513   4.494   2.507  0.0028  0.2550  0.1805
 1995SOL     OW 8009   2.361   1.813   4.221  0.3564 -0.2039  0.2389
 1995SOL    HW2 8010   2.352   1.826   4.316  0.2445 -0.5847  0.2831
 1995SOL    HW3 8011   2.338   1.897   4.182  0.3732 -0.0555  0.5498
 1995SOL    MW4 8012   2.357   1.825   4.229  0.3438 -0.2346  0.2857
 1996SOL     OW 8013   2.464   1.917   0.332 -0.7614  0.6630 -0.1103
 1996SOL    HW2 8014   2.484   1.944   0.421  0.1977 -2.7204  0.7682
 1996SOL    HW3 8015   2.529   1.961   0.278  0.5734  0.3541  1.2242
 1996SOL    MW4 8016   2.475   1.926   0.336 -0.4588  0.1758  0.1817
 1997SOL     OW 8017   2.792   3.529   3.577 -0.1883 -0.3741 -0.0211
 1997SOL    HW2 8018   2.857   3.580   3.529 -0.6997 -0.8729 -1.2657
 1997SOL    HW3 8019   2.821   3.533   3.668  0.6817  0.7639 -0.3292
 1997SOL    MW4 8020   2.804   3.536   3.583 -0.1410 -0.2898 -0.2260
 1998SOL     OW 8021   2.830   0.964   1.892  0.0696  0.0982 -0.4212
 1998SOL    HW2 8022   2.831   1.036   1.830  0.7419 -0.0953 -0.6400
 1998SOL    HW3 8023   2.739   0.958   1.921  0.1718  1.6017  0.2602
 1998SOL    MW4 8024   2.818   0.973   1.888  0.1718  0.2710 -0.3602
 1999SOL     OW 8025   1.173   4.416   0.808 -0.1139  0.6042  0.2447
 1999SOL    HW2 8026   1.256   4.372   0.789 -0.1505 -0.1281  1.6801
 1999SOL    HW3 8027   1.159   4.401   0.901 -2.0445  0.4237 -0.0553
 1999SOL    MW4 8028   1.182   4.409   0.818 -0.3734  0.4837  0.3945
 2000SOL     OW 8029   0.131   4.367   1.758 -0.2465  0.0985 -0.3745
 2000SOL    HW2 8030   0.134   4.337   1.667  1.2429  0.1354 -0.3465
 2000SOL    HW3 8031   0.147   4.288   1.810 -1.1602  0.0663 -0.1327
 2000SOL    MW4 8032   0.134   4.353   1.753 -0.1706  0.0991 -0.3389
 2001SOL     OW 8033   0.652   0.697   1.408  0.0106 -0.5909 -0.0680
 2001SOL    HW2 8034   0.628   0.607   1.386 -0.2885 -0.5260 -0.0042
 2001SOL    HW3 8035   0.582   0.728   1.465  0.4244 -0.5159  0.3988
 2001SOL    MW4 8036   0.639   0.689   1.412  0.0257 -0.5725  0.0020
 2002SOL     OW 8037   3.891   2.764   1.889 -0.0701 -0.2896 -0.4018
 2002SOL    HW2 8038   3.831   2.712   1.942  0.6127  0.2298  0.9035
 2002SOL    HW3 8039   3.838   2.796   1.816 -1.4383  0.3152  0.8338
 2002SOL    MW4 8040   3.876   2.762   1.886 -0.1605 -0.1413 -0.0666
 2003SOL     OW 8041   1.848   1.042   0.973 -0.0772 -0.0992 -0.2099
 2003SOL    HW2 8042   1.768   1.080   0.936  0.0190  0.3787  0.0702
 2003SOL    HW3 8043   1.878   0.979   0.907  0.4492  1.2081 -1.2423
 2003SOL    MW4 8044   1.841   1.038   0.960  0.0049  0.1364 -0.3092
 2004SOL     OW 8045   3.469   4.533   4.346  0.3927 -0.3611  0.6206
 2004SOL    HW2 8046   3.428   4.616   4.372  1.4983  0.7950 -1.1793
 2004SOL    HW3 8047   3.396   4.474   4.329 -0.4334  0.4462  1.3230
 2004SOL    MW4 8048   3.454   4.536   4.347  0.4296 -0.1021  0.4758
 2005SOL     OW 8049   2.373   0.048   3.843 -0.4297 -0.2095 -0.6908
 2005SOL    HW2 8050   2.436   0.036   3.771  0.8061 -1.6519  0.5949
 2005SOL    HW3 8051   2.376   0.141   3.862  1.8920 -0.3565 -0.1771
 2005SOL    MW4 8052   2.382   0.058   3.836  0.0397 -0.4192 -0.4534
 2006SOL     OW 8053   1.877   0.064   1.822 -0.2386  0.3901 -0.3630
 2006SOL    HW2 8054   1.959   0.059   1.773 -1.1204  0.3958 -1.8848
 2006SOL    HW3 8055   1.901   0.045   1.913  1.5716  1.2224 -0.6540
 2006SOL    MW4 8056   1.891   0.061   1.828 -0.1161  0.5006 -0.6022
 2007SOL     OW 8057   4.207   4.474   3.304 -0.4457 -0.1047  0.1747
 2007SOL    HW2 8058   4.153   4.521   3.368 -0.5835 -1.2511  0.9214
 2007SOL    HW3 8059   4.146   4.415   3.260 -0.0354 -0.5085  0.1449
 2007SOL    MW4 8060   4.191   4.472   3.307 -0.4098 -0.3093  0.2693
 2008SOL     OW 8061   2.703   0.832   3.663 -0.0932 -0.5107  0.3883
 2008SOL    HW2 8062   2.697   0.788   3.578 -1.0436  0.2209  0.0628
 2008SOL    HW3 8063   2.797   0.836   3.682  0.0614 -1.7058 -0.0819
 2008SOL    MW4 8064   2.714   0.827   3.654 -0.1982 -0.5719  0.2833
 2009SOL     OW 8065   1.704   4.474   2.100  0.0352 -0.0370  0.0121
 2009SOL    HW2 8066   1.640   4.468   2.029 -1.1588 -1.0609  1.1418
 2009SOL    HW3 8067   1.758   4.395   2.091  0.5244  0.3409 -0.3632
 2009SOL    MW4 8068   1.703   4.462   2.090 -0.0578 -0.1222  0.1116
 2010SOL     OW 8069   1.300   3.489   2.415  0.2377 -0.2260  0.3210
 2010SOL    HW2 8070   1.225   3.527   2.461  0.6276 -0.1017  0.8752
 2010SOL    HW3 8071   1.297   3.396   2.437 -1.2717 -0.7104 -1.8229
 2010SOL    MW4 8072   1.290   3.482   2.424  0.0900 -0.2735  0.1113
 2011SOL     OW 8073   4.140   1.606   2.923  0.2283  0.4721  0.7241
 2011SOL    HW2 8074   4.085   1.680   2.949 -0.6718 -0.2140  0.8097
 2011SOL    HW3 8075   4.098   1.530   2.964  0.4570 -0.2429 -0.3608
 2011SOL    MW4 8076   4.127   1.606   2.932  0.1397  0.2873  0.5923
 2012SOL     OW 8077   4.029   0.005   4.331 -0.4895 -0.5101 -0.0183
 2012SOL    HW2 8078   3.968  -0.037   4.391 -0.2156 -0.1818  0.5033
 2012SOL    HW3 8079   3.974   0.048   4.266 -0.7973 -0.6495  0.1491
 2012SOL    MW4 8080   4.014   0.005   4.331 -0.4940 -0.4852  0.0726
 2013SOL     OW 8081   0.783   1.170   3.862  0.4991  0.2309 -0.6786
 2013SOL    HW2 8082   0.835   1.250   3.856 -0.5239  0.9074 -0.6626
 2013SOL    HW3 8083   0.817   1.125   3.940  0.5719  1.0095 -0.2594
 2013SOL    MW4 8084   0.795   1.175   3.872  0.3737  0.4229 -0.6212
 2014SOL     OW 8085   2.883   4.459   3.719 -0.5816 -0.3411  0.7291
 2014SOL    HW2 8086   2.923   4.510   3.648 -1.3017 -0.6191  0.1182
 2014SOL    HW3 8087   2.949   4.393   3.741 -0.2232 -0.0455  0.5529
 2014SOL    MW4 8088   2.897   4.457   3.713 -0.6294 -0.3388  0.6252
 2015SOL     OW 8089   3.455   3.539   2.047  0.0493  0.0171  0.1240
 2015SOL    HW2 8090   3.497   3.461   2.084 -0.9776 -0.7837 -0.3652
 2015SOL    HW3 8091   3.512   3.566   1.975  1.0005  0.3912  1.0050
 2015SOL    MW4 8092   3.468   3.532   2.043  0.0393 -0.0392  0.1757
 2016SOL     OW 8093   0.249   4.622   1.776  0.6711 -0.4010 -0.0170
 2016SOL    HW2 8094   0.339   4.599   1.795  0.9706  0.4247 -0.4154
 2016SOL    HW3 8095   0.203   4.538   1.771  1.2964 -0.7962  0.7286
 2016SOL    MW4 8096   0.255   4.608   1.778  0.7931 -0.3442  0.0288
 2017SOL     OW 8097   0.405   3.185   0.600  0.0691  0.0497 -0.0164
 2017SOL    HW2 8098   0.450   3.111   0.558  0.0108 -0.4768  0.8190
 2017SOL    HW3 8099   0.422   3.172   0.694 -1.7339 -0.0946  0.3120
 2017SOL    MW4 8100   0.413   3.173   0.607 -0.1764 -0.0388  0.1371
 2018SOL     OW 8101   0.465   1.331   3.991 -0.1268  0.9295 -0.0120
 2018SOL    HW2 8102   0.450   1.264   3.923 -0.7879 -0.5778  1.5755
 2018SOL    HW3 8103   0.543   1.377   3.962  0.8308 -1.0848 -0.7335
 2018SOL    MW4 8104   0.473   1.328   3.978 -0.0877  0.4649  0.1023
 2019SOL     OW 8105   3.713   0.386   1.822  0.0430 -0.1063  0.3306
 2019SOL    HW2 8106   3.684   0.464   1.774  1.3710 -0.3342 -0.8659
 2019SOL    HW3 8107   3.632   0.342   1.847 -0.7227  1.5491  0.8550
 2019SOL    MW4 8108   3.698   0.391   1.819  0.1172  0.0820  0.2419
 2020SOL     OW 8109   2.362   1.448   0.447 -0.1132 -0.2841  0.2762
 2020SOL    HW2 8110   2.281   1.401   0.469 -0.2579  0.2811  0.9575
 2020SOL    HW3 8111   2.390   1.409   0.365 -0.0821 -1.7672  0.9709
 2020SOL    MW4 8112   2.355   1.437   0.439 -0.1282 -0.4052  0.4577
 2021SOL     OW 8113   4.080   0.583   3.228  0.3501  0.0233 -0.1216
 2021SOL    HW2 8114   4.111   0.669   3.257 -1.3006  0.9648 -1.0492
 2021SOL    HW3 8115   3.986   0.586   3.244  0.4443 -2.0944  0.9592
 2021SOL    MW4 8116   4.072   0.595   3.234  0.1447 -0.1319 -0.1014
 2022SOL     OW 8117   2.952   2.632   3.488  0.1442  0.0674  0.2359
 2022SOL    HW2 8118   2.900   2.587   3.420 -0.0653 -0.4195  0.7177
 2022SOL    HW3 8119   2.919   2.597   3.570  1.3732 -0.3791  0.5466
 2022SOL    MW4 8120   2.941   2.621   3.490  0.2787 -0.0558  0.3405
 2023SOL     OW 8121   2.117   0.754   4.254  0.1304  0.0274  0.0181
 2023SOL    HW2 8122   2.051   0.714   4.198 -0.1267  0.8577 -0.2747
 2023SOL    HW3 8123   2.166   0.812   4.196  1.4912 -1.0093  0.1017
 2023SOL    MW4 8124   2.115   0.756   4.239  0.2760  0.0002 -0.0095
 2024SOL     OW 8125   0.731   3.236   1.098 -0.3859  0.2869  0.3682
 2024SOL    HW2 8126   0.746   3.321   1.057 -0.2504  0.3695  0.5864
 2024SOL    HW3 8127   0.808   3.223   1.154 -0.9629  0.5539  1.2324
 2024SOL    MW4 8128   0.743   3.245   1.100 -0.4442  0.3330  0.5110
 2025SOL     OW 8129   3.581   1.281   2.694 -0.1492  0.1408  0.0901
 2025SOL    HW2 8130   3.540   1.350   2.747 -0.6246  0.7012 -0.9900
 2025SOL    HW3 8131   3.644   1.328   2.639 -2.3081  0.1010 -2.5150
 2025SOL    MW4 8132   3.584   1.297   2.694 -0.4968  0.2095 -0.3961
 2026SOL     OW 8133   3.749   2.882   1.664 -0.3661  0.1997  0.5024
 2026SOL    HW2 8134   3.688   2.953   1.687 -1.6289 -0.2420 -1.3825
 2026SOL    HW3 8135   3.821   2.926   1.618 -1.1838  0.2741 -0.7290
 2026SOL    MW4 8136   3.751   2.898   1.661 -0.6406  0.1512  0.0913
 2027SOL     OW 8137   0.961   0.279   2.703  0.1325 -0.5840  0.5241
 2027SOL    HW2 8138   0.911   0.344   2.751  0.9093  1.0099 -0.7823
 2027SOL    HW3 8139   0.999   0.222   2.770 -1.2096 -0.1784  1.6325
 2027SOL    MW4 8140   0.959   0.280   2.718  0.0579 -0.3202  0.4980
 2028SOL     OW 8141   1.540   3.478   1.698 -0.4340 -0.2952  0.3217
 2028SOL    HW2 8142   1.530   3.439   1.611  0.5779 -0.5894  0.3299
 2028SOL    HW3 8143   1.530   3.572   1.684  0.3586 -0.2920 -0.2121
 2028SOL    MW4 8144   1.537   3.485   1.685 -0.1959 -0.3336  0.2523
 2029SOL     OW 8145   3.019   4.229   3.840  0.6020 -0.5404 -0.4352
 2029SOL    HW2 8146   3.098   4.245   3.790  0.9165 -0.1234  0.1931
 2029SOL    HW3 8147   3.028   4.284   3.918 -1.2979  1.2027 -1.3910
 2029SOL    MW4 8148   3.030   4.238   3.844  0.3928 -0.2554 -0.4784
 2030SOL     OW 8149   0.158   0.430   1.623 -0.1644  0.2258 -0.0337
 2030SOL    HW2 8150   0.249   0.406   1.604 -0.1059  0.0244  0.4968
 2030SOL    HW3 8151   0.157   0.448   1.717 -0.8242 -0.4262  0.0857
 2030SOL    MW4 8152   0.170   0.429   1.632 -0.2438  0.1132  0.0520
 2031SOL     OW 8153   1.182   3.846   2.194  0.0996 -0.1689 -0.0021
 2031SOL    HW2 8154   1.126   3.773   2.167  1.4505 -0.6279 -1.7196
 2031SOL    HW3 8155   1.264   3.831   2.146  1.0309  1.4788  1.0444
 2031SOL    MW4 8156   1.185   3.834   2.184  0.4007 -0.0121 -0.0906
 2032SOL     OW 8157   1.567   0.390   1.849 -0.4027 -0.0647  0.0043
 2032SOL    HW2 8158   1.660   0.386   1.873 -0.5263 -0.5048  0.4119
 2032SOL    HW3 8159   1.567   0.385   1.754  0.0940  1.6735 -0.1074
 2032SOL    MW4 8160   1.579   0.389   1.840 -0.3534  0.1066  0.0434
 2033SOL     OW 8161   3.175   1.400   2.088 -0.1462  0.0261 -0.8552
 2033SOL    HW2 8162   3.131   1.484   2.102  0.2797  0.1330 -0.1049
 2033SOL    HW3 8163   3.216   1.381   2.172 -1.9182 -1.9201 -0.3646
 2033SOL    MW4 8164   3.174   1.408   2.101 -0.3238 -0.2166 -0.6914
 2034SOL     OW 8165   1.588   0.865   4.451  0.5840  0.2734 -0.4901
 2034SOL    HW2 8166   1.567   0.946   4.497  2.0584  0.5165 -0.2175
 2034SOL    HW3 8167   1.507   0.813   4.455  0.0675  1.1387  0.5576
 2034SOL    MW4 8168   1.574   0.868   4.457  0.7104  0.4197 -0.3159
 2035SOL     OW 8169   3.059   4.314   2.355 -0.4269 -0.1330  0.0709
 2035SOL    HW2 8170   3.022   4.355   2.277 -0.5783  0.3899  0.4129
 2035SOL    HW3 8171   3.073   4.387   2.416 -1.8563 -0.7442  1.1571
 2035SOL    MW4 8172   3.056   4.329   2.353 -0.6355 -0.1447  0.2593
 2036SOL     OW 8173   3.442   3.137   1.201 -0.3073  0.6136  0.4893
 2036SOL    HW2 8174   3.453   3.227   1.232 -0.0158  0.7020  0.1392
 2036SOL    HW3 8175   3.448   3.143   1.105  1.4502  0.0080  0.5295
 2036SOL    MW4 8176   3.444   3.149   1.192 -0.0370  0.5453  0.4484
 2037SOL     OW 8177   1.397   1.019   1.599 -0.0006  0.7350  0.2455
 2037SOL    HW2 8178   1.356   1.090   1.647 -1.1646  0.4058 -0.2494
 2037SOL    HW3 8179   1.377   1.038   1.507  0.5265  0.2957  0.0378
 2037SOL    MW4 8180   1.389   1.031   1.593 -0.0846  0.6336  0.1528
 2038SOL     OW 8181   2.830   2.594   1.147 -0.6076  0.7183 -0.1790
 2038SOL    HW2 8182   2.749   2.632   1.112 -1.3596  0.2708  1.0764
 2038SOL    HW3 8183   2.849   2.645   1.225  1.1486  1.7940 -1.2698
 2038SOL    MW4 8184   2.822   2.606   1.153 -0.4751  0.8012 -0.1573
 2039SOL     OW 8185   0.226   3.634   0.649  0.3557  0.4249  0.7895
 2039SOL    HW2 8186   0.272   3.636   0.733 -1.6948  0.9294  1.9408
 2039SOL    HW3 8187   0.174   3.553   0.652  1.6765 -0.5197 -0.8011
 2039SOL    MW4 8188   0.225   3.624   0.661  0.2594  0.3669  0.7315
 2040SOL     OW 8189   1.072   2.799   4.383 -0.1883  0.2766 -0.4854
 2040SOL    HW2 8190   1.048   2.797   4.290  2.1540 -0.4226 -1.0961
 2040SOL    HW3 8191   1.156   2.845   4.385  1.2406 -2.3070  0.9270
 2040SOL    MW4 8192   1.080   2.805   4.371  0.3093 -0.1565 -0.3796
 2041SOL     OW 8193   3.390   0.539   4.278 -0.3160  0.2485  0.5403
 2041SOL    HW2 8194   3.342   0.622   4.280  0.2090  0.5770 -0.2289
 2041SOL    HW3 8195   3.346   0.488   4.211 -1.5675 -0.6873  2.0235
 2041SOL    MW4 8196   3.378   0.543   4.270 -0.4119  0.1684  0.6345
 2042SOL     OW 8197   1.535   1.520   0.455  0.2847 -0.1427 -0.1299
 2042SOL    HW2 8198   1.576   1.606   0.447 -1.0747  0.6456  1.1783
 2042SOL    HW3 8199   1.473   1.529   0.527 -1.0210 -1.7754 -1.0115
 2042SOL    MW4 8200   1.533   1.532   0.464 -0.0670 -0.2541 -0.0736
 2043SOL     OW 8201   1.657   2.145   2.411  0.3845 -0.2456  0.0735
 2043SOL    HW2 8202   1.591   2.115   2.348  2.0841 -1.8613 -0.9487
 2043SOL    HW3 8203   1.609   2.151   2.494 -1.4581  0.2427 -0.9850
 2043SOL    MW4 8204   1.642   2.142   2.414  0.3656 -0.3944 -0.2010
 2044SOL     OW 8205   2.473   2.438   4.075 -0.0869  0.2372 -0.2365
 2044SOL    HW2 8206   2.557   2.419   4.034 -0.3906  1.7650 -1.5991
 2044SOL    HW3 8207   2.492   2.506   4.140  0.1066 -0.9957  1.0067
 2044SOL    MW4 8208   2.486   2.445   4.078 -0.1014  0.2761 -0.2523
 2045SOL     OW 8209   0.885   2.078   1.087  0.0328  0.0803 -0.3483
 2045SOL    HW2 8210   0.853   1.990   1.066 -0.5486  0.1494  0.2157
 2045SOL    HW3 8211   0.812   2.136   1.066 -0.4587  0.1790  1.5497
 2045SOL    MW4 8212   0.871   2.074   1.081 -0.1088  0.1024 -0.0235
 2046SOL     OW 8213   1.735   1.231   2.574  0.3453  0.2677 -0.2842
 2046SOL    HW2 8214   1.646   1.251   2.601  1.4965  1.4831  2.8568
 2046SOL    HW3 8215   1.781   1.315   2.578  1.8353 -0.4824 -1.0997
 2046SOL    MW4 8216   1.730   1.244   2.578  0.6937  0.3291  0.0226
 2047SOL     OW 8217   4.443   3.135   2.388  0.3259  0.0233  0.5210
 2047SOL    HW2 8218   4.521   3.152   2.439  0.9954 -0.9597 -0.1569
 2047SOL    HW3 8219   4.467   3.063   2.329 -1.3420 -0.8956  0.9147
 2047SOL    MW4 8220   4.456   3.127   2.387  0.1941 -0.2277  0.4835
 2048SOL     OW 8221   0.605   1.800   0.577 -0.1237  0.6279 -0.0290
 2048SOL    HW2 8222   0.540   1.777   0.510  0.0180  0.4629 -0.1110
 2048SOL    HW3 8223   0.664   1.862   0.533 -0.1975  0.7406  0.0308
 2048SOL    MW4 8224   0.604   1.805   0.562 -0.1147  0.6210 -0.0319
 2049SOL     OW 8225   2.925   2.214   3.503  0.2263  0.5202  0.6145
 2049SOL    HW2 8226   2.971   2.146   3.552  1.6632  0.8361 -0.2507
 2049SOL    HW3 8227   2.992   2.279   3.484 -0.4341  0.7066 -1.2104
 2049SOL    MW4 8228   2.940   2.214   3.507  0.3288  0.5865  0.2596
 2050SOL     OW 8229   3.909   0.216   2.444 -0.1285 -0.0837  0.3888
 2050SOL    HW2 8230   3.868   0.200   2.529  1.2957  2.0786  1.5254
 2050SOL    HW3 8231   4.000   0.186   2.455  0.2248  0.7653 -0.1844
 2050SOL    MW4 8232   3.916   0.210   2.456  0.1060  0.3136  0.4631
 2051SOL     OW 8233   1.768   1.965   3.403  0.3874  0.5159  0.0443
 2051SOL    HW2 8234   1.696   1.906   3.379  0.4208  0.3030  0.4491
 2051SOL    HW3 8235   1.847   1.922   3.368  0.0372  2.1122 -2.7766
 2051SOL    MW4 8236   1.769   1.951   3.395  0.3456  0.6984 -0.2745
 2052SOL     OW 8237   2.485   1.832   2.631 -0.0270  0.1441 -0.1050
 2052SOL    HW2 8238   2.403   1.844   2.679 -0.6157 -1.1775 -0.7446
 2052SOL    HW3 8239   2.531   1.764   2.679 -0.2326 -0.5686 -0.9045
 2052SOL    MW4 8240   2.480   1.825   2.644 -0.1318 -0.1243 -0.2949
 2053SOL     OW 8241   2.965   0.384   4.082 -0.1661 -0.1885 -0.3158
 2053SOL    HW2 8242   2.947   0.367   4.175 -0.9646 -1.4427 -0.6841
 2053SOL    HW3 8243   3.060   0.383   4.075 -0.0774  0.8084  0.6511
 2053SOL    MW4 8244   2.975   0.381   4.093 -0.2597 -0.2225 -0.2368
 2054SOL     OW 8245   3.966   3.281   2.219  0.0961  0.3362  0.4916
 2054SOL    HW2 8246   3.910   3.254   2.146  0.3631  0.0895  0.3811
 2054SOL    HW3 8247   3.922   3.246   2.297  0.5827 -0.6383  0.3281
 2054SOL    MW4 8248   3.953   3.273   2.219  0.1955  0.1751  0.4554
 2055SOL     OW 8249   0.651   2.256   1.072 -0.8673 -0.3383 -0.2324
 2055SOL    HW2 8250   0.564   2.295   1.059 -0.2796  0.7809 -0.8926
 2055SOL    HW3 8251   0.702   2.325   1.114 -0.2171 -0.8974 -0.0973
 2055SOL    MW4 8252   0.646   2.271   1.076 -0.7039 -0.2644 -0.3017
 2056SOL     OW 8253   3.175   3.984   2.768  0.1533 -0.3501 -0.0490
 2056SOL    HW2 8254   3.250   3.971   2.710  0.4426 -0.5459  0.3722
 2056SOL    HW3 8255   3.198   4.060   2.820 -0.4413  0.3062 -0.7262
 2056SOL    MW4 8256   3.188   3.992   2.767  0.1130 -0.2894 -0.0827
 2057SOL     OW 8257   0.252   3.516   2.755 -0.1170 -0.1610  0.5950
 2057SOL    HW2 8258   0.297   3.440   2.719  0.2545  1.0810 -1.6521
 2057SOL    HW3 8259   0.167   3.517   2.712 -0.0745  0.7338  0.5138
 2057SOL    MW4 8260   0.247   3.506   2.745 -0.0623  0.1210  0.2878
 2058SOL     OW 8261   1.429   1.278   3.321  0.0158 -0.0114 -0.1651
 2058SOL    HW2 8262   1.454   1.361   3.360  0.4715  0.5044 -1.5137
 2058SOL    HW3 8263   1.444   1.290   3.227 -1.0571 -1.1999 -0.5126
 2058SOL    MW4 8264   1.434   1.290   3.314 -0.0657 -0.1002 -0.3889
 2059SOL     OW 8265   1.803   3.929   3.168 -0.2313  0.2681  0.0170
 2059SOL    HW2 8266   1.734   3.995   3.159  0.3974  0.7612 -1.3053
 2059SOL    HW3 8267   1.757   3.850   3.197 -1.0616  1.1427  1.1052
 2059SOL    MW4 8268   1.788   3.927   3.170 -0.2579  0.4485 -0.0138
 2060SOL     OW 8269   2.574   2.519   4.531  0.2180 -0.2253  0.1677
 2060SOL    HW2 8270   2.575   2.593   4.593  1.5936 -1.2603  1.4036
 2060SOL    HW3 8271   2.531   2.554   4.453  0.3122  1.7146  0.9580
 2060SOL    MW4 8272   2.568   2.534   4.529  0.4119 -0.1059  0.4350
 2061SOL     OW 8273   3.483   1.382   0.891  0.0213  0.2349  0.5939
 2061SOL    HW2 8274   3.545   1.445   0.855 -0.2220  0.3565  0.3857
 2061SOL    HW3 8275   3.456   1.419   0.975  0.5513 -0.0238  0.8824
 2061SOL    MW4 8276   3.488   1.395   0.897  0.0591  0.2168  0.6045
 2062SOL     OW 8277   1.946   1.842   2.378  0.1781  0.7132  0.6068
 2062SOL    HW2 8278   1.934   1.937   2.382  0.4893  0.7143  1.7418
 2062SOL    HW3 8279   1.862   1.806   2.404  0.2026  0.6851  0.6471
 2062SOL    MW4 8280   1.934   1.850   2.382  0.2224  0.7096  0.7619
 2063SOL     OW 8281   2.626   0.843   0.450  0.0240 -0.4345  0.4123
 2063SOL    HW2 8282   2.557   0.778   0.458  0.2746 -0.7456  0.0454
 2063SOL    HW3 8283   2.654   0.860   0.540  0.0122 -0.8893  0.5027
 2063SOL    MW4 8284   2.620   0.837   0.463  0.0555 -0.5356  0.3758
 2064SOL     OW 8285   4.393   2.229   1.335 -0.4444  0.0724  0.6145
 2064SOL    HW2 8286   4.352   2.148   1.367 -0.3654 -1.1426 -2.2288
 2064SOL    HW3 8287   4.330   2.263   1.271  0.8216  0.7647 -0.2655
 2064SOL    MW4 8288   4.379   2.223   1.331 -0.2669  0.0034  0.1233
 2065SOL     OW 8289   3.536   3.015   1.439 -0.5480  0.1418 -0.0362
 2065SOL    HW2 8290   3.458   3.029   1.493 -0.8982 -0.4024 -0.4004
 2065SOL    HW3 8291   3.515   3.054   1.355  0.5794  2.3652  0.6777
 2065SOL    MW4 8292   3.523   3.022   1.435 -0.4455  0.3634  0.0100
 2066SOL     OW 8293   4.320   3.258   1.751 -0.1012  0.6027 -0.0123
 2066SOL    HW2 8294   4.385   3.211   1.699  1.2623  2.2093  0.1846
 2066SOL    HW3 8295   4.295   3.332   1.695 -1.2034  0.4148  0.2272
 2066SOL    MW4 8296   4.326   3.262   1.737 -0.0667  0.7899  0.0453
 2067SOL     OW 8297   0.931   0.701   2.698 -0.2931 -0.4676 -0.1912
 2067SOL    HW2 8298   0.990   0.663   2.634  0.3079  1.0515 -0.5683
 2067SOL    HW3 8299   0.905   0.627   2.754  1.5721 -1.2548 -0.3204
 2067SOL    MW4 8300   0.936   0.686   2.697  0.0323 -0.3710 -0.2580
 2068SOL     OW 8301   4.085   3.688   1.687 -0.0498 -0.1486  0.1120
 2068SOL    HW2 8302   4.162   3.718   1.735  0.7284 -0.7202 -0.7605
 2068SOL    HW3 8303   4.047   3.767   1.651  0.0634  0.1518  0.6508
 2068SOL    MW4 8304   4.090   3.702   1.688  0.0678 -0.1844  0.0680
 2069SOL     OW 8305   3.204   1.044   2.831  0.2111  0.2145 -0.2340
 2069SOL    HW2 8306   3.219   1.138   2.821 -0.8825  0.4116 -0.0801
 2069SOL    HW3 8307   3.117   1.037   2.872  1.0229 -0.8151  1.3725
 2069SOL    MW4 8308   3.194   1.055   2.835  0.1739  0.1046 -0.0018
 2070SOL     OW 8309   4.283   2.504   3.249  0.2829  0.5862  0.0479
 2070SOL    HW2 8310   4.195   2.475   3.270  0.2325  1.1854  0.7165
 2070SOL    HW3 8311   4.302   2.466   3.164 -0.7488  0.7211 -0.2508
 2070SOL    MW4 8312   4.274   2.495   3.241  0.1402  0.6831  0.0967
 2071SOL     OW 8313   2.788   3.334   1.504 -0.2021  0.7820  0.3421
 2071SOL    HW2 8314   2.805   3.280   1.427 -1.8612  1.2098 -0.3468
 2071SOL    HW3 8315   2.874   3.360   1.535  0.5267 -0.3813 -0.6599
 2071SOL    MW4 8316   2.801   3.330   1.498 -0.3248  0.6849  0.1190
 2072SOL     OW 8317   1.698   2.758   4.013 -0.1577  0.1179 -0.2293
 2072SOL    HW2 8318   1.696   2.851   3.993 -0.3216 -0.0935 -1.2264
 2072SOL    HW3 8319   1.606   2.734   4.024 -0.2027 -0.1943 -1.2645
 2072SOL    MW4 8320   1.686   2.767   4.012 -0.1853  0.0488 -0.4974
 2073SOL     OW 8321   0.808   1.481   3.283 -0.0109  0.0995  0.1449
 2073SOL    HW2 8322   0.794   1.410   3.346  0.1998  0.6931  0.8591
 2073SOL    HW3 8323   0.833   1.556   3.336  1.1815  0.3352 -0.7239
 2073SOL    MW4 8324   0.809   1.481   3.298  0.1742  0.2089  0.1245
 2074SOL     OW 8325   1.941   1.864   4.248 -0.4355 -0.3143 -0.2684
 2074SOL    HW2 8326   1.845   1.863   4.247 -0.4723  0.9426  0.1503
 2074SOL    HW3 8327   1.965   1.907   4.166 -0.3796  3.1199  1.4424
 2074SOL    MW4 8328   1.931   1.870   4.237 -0.4330  0.3046  0.0126
 2075SOL     OW 8329   1.768   3.738   3.402 -0.6899  0.3775 -0.1841
 2075SOL    HW2 8330   1.731   3.809   3.455 -1.4194 -0.3821  0.3352
 2075SOL    HW3 8331   1.696   3.712   3.344 -1.6183 -2.3494  2.0893
 2075SOL    MW4 8332   1.753   3.744   3.402 -0.9086 -0.0825  0.1843
 2076SOL     OW 8333   1.115   4.045   3.031  0.2048 -0.1874 -0.3697
 2076SOL    HW2 8334   1.102   4.033   3.125  2.3358  1.7473  0.2127
 2076SOL    HW3 8335   1.027   4.065   2.997 -0.2849  0.9918  1.5101
 2076SOL    MW4 8336   1.101   4.046   3.039  0.4213  0.2235 -0.0449
 2077SOL     OW 8337   3.274   3.177   2.207  0.5012  0.1505  0.0343
 2077SOL    HW2 8338   3.212   3.119   2.251  1.0604  0.1472  0.8247
 2077SOL    HW3 8339   3.255   3.167   2.113 -0.8946  0.3870  0.2885
 2077SOL    MW4 8340   3.264   3.168   2.200  0.3908  0.1813  0.1721
 2078SOL     OW 8341   0.251   3.387   2.336  0.1852 -0.3180  0.1891
 2078SOL    HW2 8342   0.176   3.399   2.395  0.4308 -0.6801  0.5795
 2078SOL    HW3 8343   0.281   3.298   2.353  1.7059  0.3650  1.2281
 2078SOL    MW4 8344   0.245   3.377   2.346  0.4183 -0.2756  0.3777
 2079SOL     OW 8345   4.097   1.014   3.617 -0.0039  0.0192 -0.2108
 2079SOL    HW2 8346   4.061   0.928   3.594 -1.2157  0.7303 -1.0343
 2079SOL    HW3 8347   4.147   0.998   3.697 -1.3829 -1.1855  0.4326
 2079SOL    MW4 8348   4.099   1.000   3.625 -0.3457 -0.0459 -0.2345
 2080SOL     OW 8349   1.334   3.291   3.671 -0.0553  0.4676 -0.2193
 2080SOL    HW2 8350   1.393   3.330   3.735 -0.4108  0.0226  0.3794
 2080SOL    HW3 8351   1.373   3.205   3.652 -1.0539 -0.2484  0.9365
 2080SOL    MW4 8352   1.347   3.285   3.677 -0.2340  0.3144  0.0122
 2081SOL     OW 8353   0.371   3.191   4.236  1.0311 -0.1875 -0.0068
 2081SOL    HW2 8354   0.426   3.245   4.180  1.0914 -1.0780 -0.8243
 2081SOL    HW3 8355   0.282   3.210   4.209  1.0578 -0.5813 -0.3700
 2081SOL    MW4 8356   0.367   3.200   4.225  1.0426 -0.3569 -0.1626
 2082SOL     OW 8357   2.714   4.504   1.507 -0.1421  0.1230  0.2135
 2082SOL    HW2 8358   2.772   4.485   1.434 -0.1752 -0.9524  0.4624
 2082SOL    HW3 8359   2.627   4.511   1.466 -0.1858 -0.6390  0.1628
 2082SOL    MW4 8360   2.710   4.503   1.492 -0.1523 -0.1194  0.2397
 2083SOL     OW 8361   1.063   0.840   3.874 -0.3246  0.0873 -0.0932
 2083SOL    HW2 8362   1.013   0.783   3.815  1.9121 -0.9778 -1.0276
 2083SOL    HW3 8363   1.120   0.780   3.923  0.4453  1.3094  0.5304
 2083SOL    MW4 8364   1.064   0.824   3.873  0.0721  0.1080 -0.1342
 2084SOL     OW 8365   0.526   4.517   3.487  0.0802  0.0358  0.5426
 2084SOL    HW2 8366   0.459   4.456   3.456 -0.9184  0.8528  1.0851
 2084SOL    HW3 8367   0.566   4.551   3.407  0.2594 -0.9046  0.2271
 2084SOL    MW4 8368   0.522   4.513   3.472 -0.0279  0.0195  0.5725
 2085SOL     OW 8369   4.173   0.194   3.269  0.8406  0.0737 -0.2080
 2085SOL    HW2 8370   4.231   0.126   3.236 -0.5746 -0.3080 -1.9667
 2085SOL    HW3 8371   4.224   0.275   3.262  2.0310 -0.5963  0.6275
 2085SOL    MW4 8372   4.187   0.196   3.264  0.8109 -0.0650 -0.3298
 2086SOL     OW 8373   2.613   2.821   1.492 -0.1812  0.3248 -0.0880
 2086SOL    HW2 8374   2.647   2.905   1.523  0.3288  0.4935 -1.0808
 2086SOL    HW3 8375   2.691   2.766   1.481 -0.6032 -0.6775  1.6732
 2086SOL    MW4 8376   2.628   2.824   1.495 -0.1696  0.2148  0.0133
 2087SOL     OW 8377   1.985   0.393   0.879 -0.6044 -0.4217  0.1152
 2087SOL    HW2 8378   1.982   0.412   0.973 -0.9322  0.4300 -0.0552
 2087SOL    HW3 8379   1.894   0.379   0.855 -0.4808 -1.0019 -0.0023
 2087SOL    MW4 8380   1.973   0.394   0.889 -0.6313 -0.3858  0.0772
 2088SOL     OW 8381   3.768   3.466   3.592  0.3834 -0.0290 -0.0843
 2088SOL    HW2 8382   3.847   3.417   3.615  1.0880  0.9046 -0.4427
 2088SOL    HW3 8383   3.802   3.549   3.558 -0.7144 -0.1233 -1.4462
 2088SOL    MW4 8384   3.783   3.470   3.590  0.3315  0.0818 -0.3113
 2089SOL     OW 8385   3.625   4.627   1.130 -0.4195 -0.2283 -0.2758
 2089SOL    HW2 8386   3.572   4.547   1.133  0.1419 -0.6709 -1.7314
 2089SOL    HW3 8387   3.578   4.689   1.186 -1.8639 -0.9870 -0.6133
 2089SOL    MW4 8388   3.612   4.625   1.138 -0.5360 -0.3868 -0.5124
 2090SOL     OW 8389   1.898   2.420   1.776  0.1046 -0.4768 -0.1679
 2090SOL    HW2 8390   1.924   2.456   1.861  2.0006  0.5314 -1.1671
 2090SOL    HW3 8391   1.851   2.491   1.733 -1.0012 -1.0411  0.0668
 2090SOL    MW4 8392   1.895   2.434   1.782  0.2089 -0.4182 -0.2687
 2091SOL     OW 8393   3.182   0.498   0.502  0.2046 -0.6266 -0.0346
 2091SOL    HW2 8394   3.247   0.438   0.466  0.4214 -2.0600  2.5827
 2091SOL    HW3 8395   3.098   0.460   0.477  0.3470  0.0446 -1.5707
 2091SOL    MW4 8396   3.179   0.485   0.494  0.2520 -0.7271  0.1081
 2092SOL     OW 8397   1.028   3.024   3.611 -0.5991  0.1576  0.5855
 2092SOL    HW2 8398   1.017   2.995   3.701  2.7775  0.8626  1.2844
 2092SOL    HW3 8399   1.057   3.115   3.618 -0.0788  0.1568 -1.1910
 2092SOL    MW4 8400   1.030   3.032   3.624 -0.0850  0.2505  0.4433
 2093SOL     OW 8401   3.252   4.262   3.700  0.0665  0.0970  0.0122
 2093SOL    HW2 8402   3.257   4.170   3.725 -2.0308  0.0503  0.4311
 2093SOL    HW3 8403   3.287   4.309   3.775  0.0291 -0.3133  0.2910
 2093SOL    MW4 8404   3.257   4.256   3.713 -0.2151  0.0367  0.1043
 2094SOL     OW 8405   1.923   4.333   0.526 -0.2043 -0.3558 -0.1382
 2094SOL    HW2 8406   1.886   4.319   0.613  0.3037 -0.7678  0.0153
 2094SOL    HW3 8407   1.942   4.427   0.523 -1.3224 -0.1267 -0.2492
 2094SOL    MW4 8408   1.921   4.344   0.537 -0.2848 -0.3799 -0.1326
 2095SOL     OW 8409   0.026   3.672   3.313 -0.1303  0.3507  0.0901
 2095SOL    HW2 8410   0.054   3.583   3.292  0.2259  0.5954 -0.4524
 2095SOL    HW3 8411  -0.070   3.667   3.313 -0.1420  0.3069 -1.4054
 2095SOL    MW4 8412   0.017   3.660   3.310 -0.0848  0.3772 -0.1788
 2096SOL     OW 8413   3.045   2.116   1.454 -0.1968  0.0094 -0.0507
 2096SOL    HW2 8414   3.018   2.035   1.498 -1.0846  0.8117  0.9075
 2096SOL    HW3 8415   3.007   2.186   1.507  1.6489  1.1104 -0.1399
 2096SOL    MW4 8416   3.036   2.114   1.467 -0.0704  0.2606  0.0639
 2097SOL     OW 8417   2.492   3.887   0.576 -0.1860  0.0827  0.0351
 2097SOL    HW2 8418   2.458   3.825   0.640 -0.0929  0.8034  0.7784
 2097SOL    HW3 8419   2.584   3.861   0.565  0.1557  0.7733  1.1773
 2097SOL    MW4 8420   2.500   3.875   0.583 -0.1286  0.2689  0.2839
 2098SOL     OW 8421   3.114   0.901   2.618  0.4652  0.3788 -0.1229
 2098SOL    HW2 8422   3.161   0.943   2.690  1.6296  0.1520 -0.7253
 2098SOL    HW3 8423   3.176   0.904   2.545 -0.4015 -0.1067 -0.8882
 2098SOL    MW4 8424   3.129   0.907   2.618  0.5045  0.2848 -0.3033
 2099SOL     OW 8425   2.439   3.028   0.682  0.6721 -0.0880 -0.1041
 2099SOL    HW2 8426   2.412   3.119   0.688 -0.8980 -0.5443  0.1238
 2099SOL    HW3 8427   2.384   2.991   0.613  0.0643 -1.2668  0.9878
 2099SOL    MW4 8428   2.428   3.035   0.674  0.3847 -0.3037  0.0700
 2100SOL     OW 8429   3.303   3.946   1.948  0.0406  0.1231  0.2338
 2100SOL    HW2 8430   3.333   4.036   1.960 -1.6985  0.6816  0.5667
 2100SOL    HW3 8431   3.242   3.931   2.020 -1.6005 -0.4596 -1.2440
 2100SOL    MW4 8432   3.299   3.956   1.959 -0.4054  0.1199  0.0827
 2101SOL     OW 8433   1.017   2.658   0.339 -0.0024 -0.3853  0.1080
 2101SOL    HW2 8434   1.106   2.625   0.326  0.2437 -0.2940  1.4492
 2101SOL    HW3 8435   1.018   2.746   0.301  1.2055  0.5892  2.2621
 2101SOL    MW4 8436   1.029   2.665   0.333  0.1894 -0.2447  0.5691
 2102SOL     OW 8437   3.712   0.638   2.979  0.0114  0.6524  0.1241
 2102SOL    HW2 8438   3.746   0.723   2.953 -0.6331  0.4098 -1.5483
 2102SOL    HW3 8439   3.618   0.652   2.992  0.2350  0.6636  1.9306
 2102SOL    MW4 8440   3.704   0.651   2.978 -0.0441  0.6218  0.1418
 2103SOL     OW 8441   4.478   1.931   4.108 -0.1267 -0.0725 -0.3286
 2103SOL    HW2 8442   4.490   1.909   4.016 -1.6724 -2.0847 -0.0885
 2103SOL    HW3 8443   4.564   1.915   4.148 -0.3687 -2.7065 -0.7730
 2103SOL    MW4 8444   4.491   1.926   4.101 -0.3626 -0.6855 -0.3556
 2104SOL     OW 8445   0.206   0.016   2.159  0.0105  0.3403 -0.9605
 2104SOL    HW2 8446   0.261  -0.063   2.154 -1.3019 -0.6340 -0.3213
 2104SOL    HW3 8447   0.133  -0.009   2.215  0.4951  2.5945  0.7268
 2104SOL    MW4 8448   0.204   0.002   2.166 -0.0987  0.5092 -0.6536
 2105SOL     OW 8449   1.922   2.019   1.679 -0.5871  0.0834  0.1365
 2105SOL    HW2 8450   2.008   2.002   1.641 -0.5666  0.2036  0.1285
 2105SOL    HW3 8451   1.867   1.946   1.650 -0.7229  0.4774 -0.6002
 2105SOL    MW4 8452   1.926   2.008   1.670 -0.6023  0.1513  0.0382
 2106SOL     OW 8453   2.313   2.159   0.282  0.3424 -0.3547  0.0634
 2106SOL    HW2 8454   2.227   2.140   0.320 -0.4487  0.8146 -1.1062
 2106SOL    HW3 8455   2.356   2.073   0.277 -0.5385 -0.8808  1.1460
 2106SOL    MW4 8456   2.308   2.145   0.286  0.1218 -0.2698  0.0519
 2107SOL     OW 8457   1.242   1.047   2.019 -0.2452  0.0940  0.4642
 2107SOL    HW2 8458   1.178   0.990   1.977 -0.3017  0.1602  0.4604
 2107SOL    HW3 8459   1.197   1.080   2.097  0.0423 -0.4410  0.8598
 2107SOL    MW4 8460   1.228   1.044   2.024 -0.2147  0.0321  0.5159
 2108SOL     OW 8461   0.763   3.643   0.570 -0.2342 -0.4896  0.0644
 2108SOL    HW2 8462   0.727   3.716   0.520  0.8104 -0.8329 -1.2079
 2108SOL    HW3 8463   0.690   3.582   0.579 -0.5421 -0.2328 -0.6664
 2108SOL    MW4 8464   0.749   3.645   0.564 -0.1370 -0.5010 -0.1999
 2109SOL     OW 8465   0.069   1.463   3.504 -0.3172  0.1612 -0.0572
 2109SOL    HW2 8466   0.159   1.497   3.501  1.3840 -3.9775  0.4017
 2109SOL    HW3 8467   0.054   1.444   3.597 -1.0708 -0.6075 -0.3333
 2109SOL    MW4 8468   0.079   1.465   3.516 -0.1922 -0.4862 -0.0331
 2110SOL     OW 8469   1.688   4.602   3.528 -0.0744 -0.1223 -0.3321
 2110SOL    HW2 8470   1.647   4.687   3.547  0.6317  0.0535  0.4246
 2110SOL    HW3 8471   1.634   4.565   3.457 -0.1748  1.1137 -0.9209
 2110SOL    MW4 8472   1.675   4.608   3.521  0.0055  0.0640 -0.3100
 2111SOL     OW 8473   2.931   1.058   3.402  0.3765 -1.1001 -0.2066
 2111SOL    HW2 8474   2.958   1.089   3.316  0.8860 -2.2695 -0.4743
 2111SOL    HW3 8475   2.964   0.968   3.407 -1.2806 -1.6923  0.4661
 2111SOL    MW4 8476   2.939   1.050   3.391  0.2251 -1.3325 -0.1532
 2112SOL     OW 8477   0.901   2.153   1.358  0.1261 -0.2571  0.0509
 2112SOL    HW2 8478   0.889   2.105   1.276  1.8248 -1.2279  0.3489
 2112SOL    HW3 8479   0.969   2.104   1.404  0.8700  1.6361  0.9983
 2112SOL    MW4 8480   0.908   2.140   1.353  0.4484 -0.1354  0.2152
 2113SOL     OW 8481   2.070   2.118   2.766 -0.3470 -0.0137  0.4145
 2113SOL    HW2 8482   2.149   2.128   2.714 -1.7703  1.7294 -1.4999
 2113SOL    HW3 8483   2.099   2.130   2.856  1.6428  0.0948 -0.2134
 2113SOL    MW4 8484   2.084   2.121   2.771 -0.2723  0.2306  0.0791
 2114SOL     OW 8485   2.420   4.041   2.015  0.8672  0.1604  0.0578
 2114SOL    HW2 8486   2.504   4.017   1.976  1.0316  0.2076  0.3904
 2114SOL    HW3 8487   2.429   4.022   2.108  0.5406  0.2482  0.1092
 2114SOL    MW4 8488   2.432   4.036   2.022  0.8458  0.1782  0.1084
 2115SOL     OW 8489   1.320   1.605   0.268 -0.1674  0.0057 -0.0242
 2115SOL    HW2 8490   1.302   1.688   0.313 -1.7220  0.4092 -1.3379
 2115SOL    HW3 8491   1.392   1.566   0.318 -0.4411  1.4207  1.5305
 2115SOL    MW4 8492   1.327   1.611   0.281 -0.4086  0.2456  0.0076
 2116SOL     OW 8493   3.570   2.450   3.381 -0.8859  0.2351  0.1385
 2116SOL    HW2 8494   3.555   2.544   3.373  0.0272  0.4340  0.6859
 2116SOL    HW3 8495   3.592   2.437   3.474  2.0759 -0.0457 -0.5522
 2116SOL    MW4 8496   3.571   2.461   3.392 -0.3746  0.2243  0.1196
 2117SOL     OW 8497   0.065   2.864   2.278 -0.2780 -0.3519  0.0626
 2117SOL    HW2 8498   0.148   2.884   2.322 -0.2852  0.2172 -0.1739
 2117SOL    HW3 8499   0.084   2.879   2.185 -0.8097  0.3519  0.0664
 2117SOL    MW4 8500   0.079   2.869   2.272 -0.3491 -0.1840  0.0319
 2118SOL     OW 8501   2.528   3.933   2.557 -0.0120 -0.2706 -0.1806
 2118SOL    HW2 8502   2.482   3.853   2.582 -3.1431  1.1024 -1.4030
 2118SOL    HW3 8503   2.556   3.972   2.640 -2.9163 -0.0728  0.7434
 2118SOL    MW4 8504   2.526   3.928   2.571 -0.8083 -0.0633 -0.2200
 2119SOL     OW 8505   2.985   0.205   3.715  0.4529 -0.0030  0.1777
 2119SOL    HW2 8506   2.891   0.221   3.709  0.4445 -0.8525 -2.1374
 2119SOL    HW3 8507   3.026   0.287   3.686  0.4162 -0.3867 -0.9732
 2119SOL    MW4 8508   2.978   0.218   3.711  0.4469 -0.1657 -0.2796
 2120SOL     OW 8509   4.349   1.891   0.886 -0.1098  0.0789 -0.6384
 2120SOL    HW2 8510   4.310   1.865   0.803 -0.0898 -0.5267 -0.4635
 2120SOL    HW3 8511   4.327   1.820   0.947 -0.2059  0.5585 -0.1042
 2120SOL    MW4 8512   4.341   1.878   0.883 -0.1198  0.0623 -0.5448
 2121SOL     OW 8513   0.007   2.407   3.397 -0.7528  0.2549 -0.4254
 2121SOL    HW2 8514  -0.073   2.432   3.352 -0.8949  0.0190 -0.3043
 2121SOL    HW3 8515   0.077   2.448   3.346 -0.8331 -0.9637 -1.5282
 2121SOL    MW4 8516   0.006   2.416   3.384 -0.7822  0.0630 -0.5549
 2122SOL     OW 8517   3.493   0.963   4.161 -0.1502 -0.8900 -0.1734
 2122SOL    HW2 8518   3.576   0.940   4.119 -0.1393 -0.4905 -0.3726
 2122SOL    HW3 8519   3.505   1.052   4.192 -0.5778 -0.7527 -0.3934
 2122SOL    MW4 8520   3.506   0.972   4.159 -0.2052 -0.8192 -0.2287
 2123SOL     OW 8521   1.502   3.075   3.622 -0.2263  0.3630 -0.8951
 2123SOL    HW2 8522   1.495   2.991   3.576  0.6258  0.8078 -1.8629
 2123SOL    HW3 8523   1.568   3.123   3.573 -0.9961  1.7551 -0.5773
 2123SOL    MW4 8524   1.510   3.070   3.609 -0.2154  0.6054 -0.9809
 2124SOL     OW 8525   1.610   1.910   2.781 -0.0131  0.4448  0.0859
 2124SOL    HW2 8526   1.568   1.899   2.866 -0.0869 -0.8310 -0.1076
 2124SOL    HW3 8527   1.703   1.921   2.802  0.2442 -1.8851  0.2268
 2124SOL    MW4 8528   1.617   1.910   2.795  0.0111 -0.0309  0.0789
 2125SOL     OW 8529   2.765   4.469   1.859 -0.1223 -0.1413  0.5355
 2125SOL    HW2 8530   2.834   4.534   1.846 -0.5517  0.1125 -0.5350
 2125SOL    HW3 8531   2.786   4.429   1.943  0.4295  1.0366  0.9724
 2125SOL    MW4 8532   2.777   4.472   1.868 -0.1062  0.0476  0.4519
 2126SOL     OW 8533   0.154   3.026   3.047  0.1780  0.2557 -0.0945
 2126SOL    HW2 8534   0.150   2.931   3.030  0.2623 -0.0068  1.2655
 2126SOL    HW3 8535   0.131   3.034   3.139  1.5368  1.4311  0.1640
 2126SOL    MW4 8536   0.151   3.014   3.057  0.3684  0.3762  0.1190
 2127SOL     OW 8537   3.947   0.884   1.359  0.3489  0.3409  0.2560
 2127SOL    HW2 8538   3.962   0.797   1.395 -0.5747  0.2502  0.4442
 2127SOL    HW3 8539   4.034   0.916   1.334  0.8695 -0.0265  1.5616
 2127SOL    MW4 8540   3.960   0.877   1.361  0.2957  0.2804  0.4531
 2128SOL     OW 8541   3.789   1.857   3.809  0.4924  0.7341 -0.5572
 2128SOL    HW2 8542   3.815   1.808   3.731 -1.2429 -0.4431 -0.4196
 2128SOL    HW3 8543   3.726   1.921   3.778 -1.7808 -1.0818  0.1174
 2128SOL    MW4 8544   3.784   1.859   3.795 -0.0365  0.3392 -0.4501
 2129SOL     OW 8545   1.409   1.450   2.036 -0.2013 -0.1780  0.0673
 2129SOL    HW2 8546   1.433   1.459   1.944  0.5190  1.3779  0.3812
 2129SOL    HW3 8547   1.486   1.480   2.084 -0.9224 -0.0441  1.1580
 2129SOL    MW4 8548   1.422   1.455   2.030 -0.2014  0.0450  0.2527
 2130SOL     OW 8549   3.508   0.065   2.665 -0.2391  0.3649  0.0121
 2130SOL    HW2 8550   3.473   0.092   2.749 -0.0946  0.3718  0.0706
 2130SOL    HW3 8551   3.603   0.078   2.673  0.0004 -1.5869  0.5621
 2130SOL    MW4 8552   3.516   0.070   2.677 -0.1885  0.1083  0.0924
 2131SOL     OW 8553   0.350   1.785   3.910  0.2412 -0.0101 -0.0418
 2131SOL    HW2 8554   0.312   1.869   3.884  0.5443  0.1615  0.0634
 2131SOL    HW3 8555   0.277   1.723   3.908  0.3551 -0.1055 -1.7739
 2131SOL    MW4 8556   0.336   1.788   3.906  0.2962 -0.0000 -0.2565
 2132SOL     OW 8557   0.256   1.003   2.775  0.4354 -0.1359 -0.1076
 2132SOL    HW2 8558   0.325   1.041   2.831 -0.8138  0.8907  0.7884
 2132SOL    HW3 8559   0.279   0.911   2.768  1.0714 -0.1273  1.4721
 2132SOL    MW4 8560   0.268   0.996   2.782  0.3545  0.0007  0.2190
 2133SOL     OW 8561   0.039   0.359   0.943  0.0209  0.1067 -0.1624
 2133SOL    HW2 8562  -0.012   0.279   0.927  1.2435 -0.8339  0.5253
 2133SOL    HW3 8563   0.080   0.344   1.028  1.9298  0.5585 -0.9635
 2133SOL    MW4 8564   0.038   0.346   0.952  0.4341  0.0422 -0.1774
 2134SOL     OW 8565   2.508   3.475   2.804 -0.5998 -0.2143 -0.2804
 2134SOL    HW2 8566   2.423   3.465   2.761  0.2499 -2.1702 -1.5827
 2134SOL    HW3 8567   2.572   3.445   2.739  1.0177  0.2960  1.0234
 2134SOL    MW4 8568   2.505   3.470   2.790 -0.2743 -0.4050 -0.2802
 2135SOL     OW 8569   1.277   3.289   1.814  0.1858 -0.1501 -0.5363
 2135SOL    HW2 8570   1.371   3.282   1.830  0.3720  1.6012 -0.8116
 2135SOL    HW3 8571   1.242   3.205   1.844  1.4710  0.2138  2.1139
 2135SOL    MW4 8572   1.285   3.277   1.820  0.3799  0.1290 -0.2230
 2136SOL     OW 8573   3.750   3.561   3.192  0.4456  0.3583 -0.7481
 2136SOL    HW2 8574   3.752   3.621   3.267 -1.0401 -0.2385 -0.2205
 2136SOL    HW3 8575   3.790   3.481   3.225 -0.7429 -0.1008 -0.4137
 2136SOL    MW4 8576   3.756   3.559   3.206  0.0928  0.2190 -0.6344
 2137SOL     OW 8577   2.401   3.191   2.070  0.1428 -0.1666  0.1029
 2137SOL    HW2 8578   2.466   3.189   1.999  0.6528 -0.1402  0.5656
 2137SOL    HW3 8579   2.418   3.111   2.120  0.1335  0.0837  0.5075
 2137SOL    MW4 8580   2.412   3.180   2.067  0.2089 -0.1301  0.2173
 2138SOL     OW 8581   4.151   3.634   3.800 -0.1722  0.0155  0.4412
 2138SOL    HW2 8582   4.108   3.658   3.882  1.0603 -0.8354  1.3631
 2138SOL    HW3 8583   4.107   3.554   3.772 -0.2997  0.0661  0.4958
 2138SOL    MW4 8584   4.140   3.627   3.807 -0.0264 -0.0900  0.5700
 2139SOL     OW 8585   0.372   4.071   4.267 -0.1835 -0.8741  0.0228
 2139SOL    HW2 8586   0.435   4.005   4.239  1.4221  1.2622 -1.5306
 2139SOL    HW3 8587   0.423   4.150   4.279 -2.0655  0.1082  1.9747
 2139SOL    MW4 8588   0.387   4.072   4.265 -0.2200 -0.4627  0.0754
 2140SOL     OW 8589   4.323   3.367   1.356 -0.2653  0.6209 -0.7730
 2140SOL    HW2 8590   4.410   3.345   1.390 -0.3026 -0.4829 -1.3582
 2140SOL    HW3 8591   4.266   3.297   1.390 -0.8130  1.0205 -0.8632
 2140SOL    MW4 8592   4.327   3.355   1.365 -0.3425  0.5280 -0.8621
 2141SOL     OW 8593   3.757   3.952   3.805  0.1027  0.0705 -0.1585
 2141SOL    HW2 8594   3.834   4.002   3.832  1.0472 -1.4992  0.1715
 2141SOL    HW3 8595   3.709   4.011   3.747  1.7791  0.9511 -0.6935
 2141SOL    MW4 8596   3.761   3.966   3.801  0.4485 -0.0204 -0.1855
 2142SOL     OW 8597   1.727   1.528   3.361 -0.0765  0.0401  0.0704
 2142SOL    HW2 8598   1.633   1.540   3.357 -0.1311 -0.6180 -0.7748
 2142SOL    HW3 8599   1.748   1.531   3.455 -0.9488  0.0683  0.2648
 2142SOL    MW4 8600   1.718   1.530   3.373 -0.1988 -0.0430 -0.0155
 2143SOL     OW 8601   1.592   0.355   2.935 -0.1320 -0.2962 -0.0151
 2143SOL    HW2 8602   1.646   0.336   3.012 -1.4247 -0.9471  0.7511
 2143SOL    HW3 8603   1.587   0.451   2.932  1.2814 -0.2257 -0.2549
 2143SOL    MW4 8604   1.598   0.365   2.945 -0.1161 -0.3728  0.0543
 2144SOL     OW 8605   1.332   4.017   0.745 -0.0352 -0.3822 -0.4138
 2144SOL    HW2 8606   1.378   4.098   0.771  2.0976 -2.5200  2.8549
 2144SOL    HW3 8607   1.255   4.014   0.801 -0.7800 -0.0238 -1.4069
 2144SOL    MW4 8608   1.328   4.027   0.756  0.1479 -0.6169 -0.1136
 2145SOL     OW 8609   1.735   3.294   4.185  0.0124 -0.0851 -0.1101
 2145SOL    HW2 8610   1.734   3.310   4.279  1.7718  0.1886 -0.1243
 2145SOL    HW3 8611   1.684   3.214   4.174  0.3834 -0.5134  1.1561
 2145SOL    MW4 8612   1.728   3.286   4.196  0.2935 -0.1055  0.0551
 2146SOL     OW 8613   0.370   0.008   1.297  0.1646  0.6298  0.3177
 2146SOL    HW2 8614   0.318   0.031   1.375 -0.4880 -0.5483  0.2465
 2146SOL    HW3 8615   0.308   0.015   1.224  0.4675  0.5806  0.0556
 2146SOL    MW4 8616   0.355   0.012   1.298  0.1185  0.4679  0.2737
 2147SOL     OW 8617   2.609   4.013   1.696  0.3391  0.1070  0.3704
 2147SOL    HW2 8618   2.519   4.012   1.664  0.5673  1.5019 -0.3570
 2147SOL    HW3 8619   2.643   4.098   1.669  2.5478 -1.2286 -1.2656
 2147SOL    MW4 8620   2.602   4.024   1.688  0.6606  0.1148  0.0586
 2148SOL     OW 8621   2.603   1.548   1.201  0.0762  0.0437 -0.0894
 2148SOL    HW2 8622   2.587   1.578   1.112  0.1607  0.6354  0.0922
 2148SOL    HW3 8623   2.550   1.469   1.210 -0.2226  0.1937 -0.5380
 2148SOL    MW4 8624   2.594   1.541   1.190  0.0479  0.1415 -0.1246
 2149SOL     OW 8625   2.848   3.934   3.139  0.1881 -0.2601 -0.0723
 2149SOL    HW2 8626   2.906   3.905   3.069  0.6961  2.8015 -0.9605
 2149SOL    HW3 8627   2.905   3.975   3.203 -0.7250  0.5996  0.2055
 2149SOL    MW4 8628   2.863   3.936   3.138  0.1347  0.2573 -0.1528
 2150SOL     OW 8629   2.339   4.295   1.951  0.2890  0.1593  0.1846
 2150SOL    HW2 8630   2.364   4.204   1.970  0.1392  0.2579  0.8500
 2150SOL    HW3 8631   2.416   4.346   1.972  0.0730  0.2846  0.6785
 2150SOL    MW4 8632   2.352   4.289   1.956  0.2407  0.1888  0.3375
 2151SOL     OW 8633   0.158   2.197   1.596 -0.2429 -0.0987 -0.2780
 2151SOL    HW2 8634   0.230   2.221   1.655 -0.5056  0.1850 -0.0731
 2151SOL    HW3 8635   0.079   2.206   1.649 -0.4825  0.1602 -0.6774
 2151SOL    MW4 8636   0.157   2.201   1.611 -0.3092 -0.0271 -0.3036
 2152SOL     OW 8637   3.875   1.313   2.410 -0.5455  0.2596 -0.2948
 2152SOL    HW2 8638   3.938   1.295   2.339 -1.7947 -1.2754 -1.0401
 2152SOL    HW3 8639   3.864   1.229   2.454 -0.7610  0.9261  0.9508
 2152SOL    MW4 8640   3.882   1.300   2.406 -0.7388  0.1450 -0.2288
 2153SOL     OW 8641   2.859   2.099   3.824 -0.1578 -0.5127  0.0063
 2153SOL    HW2 8642   2.798   2.104   3.750 -0.5634  0.2350  0.3876
 2153SOL    HW3 8643   2.943   2.074   3.784 -0.5366 -0.7992 -0.6126
 2153SOL    MW4 8644   2.862   2.096   3.809 -0.2613 -0.4519 -0.0251
 2154SOL     OW 8645   0.260   2.307   4.014  0.0231 -0.6591  0.1377
 2154SOL    HW2 8646   0.196   2.270   3.953  0.7138 -1.4459 -0.1265
 2154SOL    HW3 8647   0.264   2.244   4.086 -0.9073  0.3484  1.0789
 2154SOL    MW4 8648   0.252   2.294   4.016 -0.0085 -0.6300  0.2270
 2155SOL     OW 8649   1.890   1.698   0.931  0.3872  0.2112  0.1277
 2155SOL    HW2 8650   1.877   1.710   0.837 -2.1667  1.6555  0.6348
 2155SOL    HW3 8651   1.880   1.604   0.945 -2.5376  0.3634 -0.6085
 2155SOL    MW4 8652   1.887   1.687   0.920 -0.3357  0.4219  0.0975
 2156SOL     OW 8653   0.805   0.427   0.518 -0.0185  0.3326 -0.0926
 2156SOL    HW2 8654   0.859   0.355   0.549 -2.1736 -1.0312  0.6128
 2156SOL    HW3 8655   0.842   0.505   0.560  1.8670 -0.4297 -0.2757
 2156SOL    MW4 8656   0.817   0.428   0.527 -0.0541  0.0521 -0.0237
 2157SOL     OW 8657   1.770   3.746   4.179  0.0168  0.6409  0.5683
 2157SOL    HW2 8658   1.715   3.815   4.215  1.1052  0.6901  2.1726
 2157SOL    HW3 8659   1.817   3.789   4.107 -0.8690  0.9920  0.1852
 2157SOL    MW4 8660   1.769   3.761   4.174  0.0435  0.6937  0.7294
 2158SOL     OW 8661   1.530   2.960   2.424 -0.1333  0.1802  0.3726
 2158SOL    HW2 8662   1.594   2.890   2.413 -0.2596  0.0790  0.2889
 2158SOL    HW3 8663   1.446   2.915   2.433 -0.0963  0.2769  1.2600
 2158SOL    MW4 8664   1.528   2.945   2.424 -0.1451  0.1796  0.4787
 2159SOL     OW 8665   2.045   0.723   2.318  0.4170  0.4483  0.3057
 2159SOL    HW2 8666   2.102   0.648   2.334  1.3445  0.8274 -1.1658
 2159SOL    HW3 8667   2.093   0.797   2.355  0.5774  0.6651 -0.3337
 2159SOL    MW4 8668   2.059   0.723   2.325  0.5606  0.5270  0.0272
 2160SOL     OW 8669   3.895   3.895   1.578 -0.1460  0.6048 -0.3577
 2160SOL    HW2 8670   3.856   3.977   1.607 -0.8160  0.7237 -1.5453
 2160SOL    HW3 8671   3.986   3.917   1.559 -0.0134  0.7920  0.4906
 2160SOL    MW4 8672   3.902   3.909   1.579 -0.2169  0.6452 -0.4025
 2161SOL     OW 8673   3.532   3.635   1.039  0.1490 -0.3423 -0.2489
 2161SOL    HW2 8674   3.477   3.666   1.110  0.4205  1.0681 -0.6365
 2161SOL    HW3 8675   3.600   3.583   1.082  0.6999  1.0537  0.6077
 2161SOL    MW4 8676   3.534   3.632   1.054  0.2575  0.0279 -0.1870
 2162SOL     OW 8677   0.217   2.773   3.456  0.6575 -0.2538  0.1068
 2162SOL    HW2 8678   0.234   2.711   3.385 -1.6162  0.5716 -1.2238
 2162SOL    HW3 8679   0.278   2.845   3.439  0.6276 -0.3894 -0.6215
 2162SOL    MW4 8680   0.227   2.774   3.444  0.3536 -0.1628 -0.1649
 2163SOL     OW 8681   3.992   1.840   2.951  0.2476  0.3281 -0.0185
 2163SOL    HW2 8682   3.999   1.892   2.872 -0.9655  0.1746 -0.2406
 2163SOL    HW3 8683   3.898   1.822   2.960  0.4202 -0.0597  1.1839
 2163SOL    MW4 8684   3.980   1.845   2.942  0.1103  0.2567  0.1108
 2164SOL     OW 8685   2.018   2.447   1.107 -0.1733 -0.2482 -0.3614
 2164SOL    HW2 8686   1.991   2.479   1.021 -0.8565 -1.1888 -0.4951
 2164SOL    HW3 8687   2.112   2.429   1.097 -0.3310 -0.7321 -1.0316
 2164SOL    MW4 8688   2.027   2.449   1.094 -0.2843 -0.4361 -0.4675
 2165SOL     OW 8689   2.999   3.605   4.213 -0.1376  0.0098 -0.6599
 2165SOL    HW2 8690   2.955   3.690   4.206 -1.4050 -0.6999 -1.3812
 2165SOL    HW3 8691   3.026   3.585   4.123  0.8016 -0.0247 -0.3738
 2165SOL    MW4 8692   2.996   3.614   4.200 -0.1809 -0.0884 -0.7173
 2166SOL     OW 8693   0.510   3.096   3.797 -0.0930 -0.2873 -0.2085
 2166SOL    HW2 8694   0.512   3.165   3.730 -1.4788  0.2480  0.2840
 2166SOL    HW3 8695   0.576   3.123   3.860 -2.1367  1.7773  1.1002
 2166SOL    MW4 8696   0.519   3.109   3.796 -0.5455  0.0557  0.0292
 2167SOL     OW 8697   0.722   3.507   4.436  0.0938 -0.9197  0.5621
 2167SOL    HW2 8698   0.778   3.447   4.388  0.9477 -1.2763  1.9759
 2167SOL    HW3 8699   0.686   3.455   4.508 -1.8086 -0.6103 -0.1235
 2167SOL    MW4 8700   0.724   3.492   4.439 -0.0445 -0.9259  0.6582
 2168SOL     OW 8701   3.592   3.489   3.991 -0.0625  0.0832 -0.0893
 2168SOL    HW2 8702   3.629   3.406   4.022  0.3074 -0.5717 -2.1725
 2168SOL    HW3 8703   3.582   3.476   3.897  0.2503  2.5186 -0.4718
 2168SOL    MW4 8704   3.596   3.476   3.983  0.0275  0.3181 -0.4146
 2169SOL     OW 8705   0.529   4.067   2.170 -0.3733  0.5431  0.0866
 2169SOL    HW2 8706   0.487   4.139   2.218 -0.2144  0.6983 -0.0057
 2169SOL    HW3 8707   0.617   4.062   2.206 -0.2730  0.6205 -0.1438
 2169SOL    MW4 8708   0.535   4.076   2.181 -0.3391  0.5738  0.0440
 2170SOL     OW 8709   3.925   0.817   4.216 -0.3240 -0.0693  0.0877
 2170SOL    HW2 8710   3.996   0.813   4.152 -1.5581 -0.5592 -1.2747
 2170SOL    HW3 8711   3.940   0.898   4.264 -0.7146  1.5319 -2.4166
 2170SOL    MW4 8712   3.936   0.827   4.214 -0.5383  0.0773 -0.4224
 2171SOL     OW 8713   2.979   4.652   3.533  0.0382 -0.1084 -0.4993
 2171SOL    HW2 8714   2.999   4.725   3.591 -1.2599  0.9840 -1.3878
 2171SOL    HW3 8715   3.057   4.642   3.478  0.8993 -0.5314  0.7806
 2171SOL    MW4 8716   2.992   4.660   3.534 -0.0194 -0.0201 -0.4476
 2172SOL     OW 8717   3.525   2.731   3.392  0.1579 -0.2271  0.1646
 2172SOL    HW2 8718   3.594   2.770   3.445 -0.9683 -0.3377  1.7514
 2172SOL    HW3 8719   3.467   2.804   3.371  0.9744 -0.0430 -1.5673
 2172SOL    MW4 8720   3.526   2.746   3.396  0.1171 -0.2174  0.1454
 2173SOL     OW 8721   0.650   2.665   1.743 -0.3147 -0.3535 -0.1522
 2173SOL    HW2 8722   0.560   2.640   1.722 -0.7248  0.0261  1.1099
 2173SOL    HW3 8723   0.670   2.617   1.824 -0.3463  1.6941  1.0857
 2173SOL    MW4 8724   0.641   2.655   1.751 -0.3730 -0.0333  0.1776
 2174SOL     OW 8725   1.485   3.780   1.675 -0.1724  0.5153  0.1867
 2174SOL    HW2 8726   1.511   3.793   1.583  0.8785  0.0673  0.4090
 2174SOL    HW3 8727   1.533   3.847   1.723 -0.0692  0.2115  0.5078
 2174SOL    MW4 8728   1.495   3.790   1.669 -0.0201  0.4161  0.2584
 2175SOL     OW 8729   2.580   3.178   1.860  0.2216 -0.0646 -0.6326
 2175SOL    HW2 8730   2.518   3.124   1.811  0.1498  0.1844 -0.8175
 2175SOL    HW3 8731   2.651   3.117   1.883 -0.3689 -0.4793  0.0835
 2175SOL    MW4 8732   2.581   3.163   1.856  0.1342 -0.0865 -0.5625
 2176SOL     OW 8733   0.050   3.441   4.413 -0.3628  0.0697 -0.1731
 2176SOL    HW2 8734   0.140   3.431   4.444 -0.3833  0.0671 -0.1151
 2176SOL    HW3 8735   0.036   3.536   4.410 -0.5240  0.0605  0.2894
 2176SOL    MW4 8736   0.060   3.452   4.416 -0.3868  0.0682 -0.1044
 2177SOL     OW 8737   3.604   0.515   0.347  0.1308  0.6011 -0.1643
 2177SOL    HW2 8738   3.655   0.449   0.394  0.8291 -0.0834 -1.8616
 2177SOL    HW3 8739   3.520   0.473   0.330  0.4250  0.3018 -0.8755
 2177SOL    MW4 8740   3.599   0.501   0.351  0.2618  0.4713 -0.4820
 2178SOL     OW 8741   0.472   3.591   3.162 -0.0118 -0.0752  0.1014
 2178SOL    HW2 8742   0.446   3.680   3.137  0.2546 -0.2115 -0.6588
 2178SOL    HW3 8743   0.429   3.534   3.097  0.1572 -0.4717  0.3352
 2178SOL    MW4 8744   0.463   3.595   3.150  0.0456 -0.1455  0.0320
 2179SOL     OW 8745   2.420   4.621   2.096 -0.0383  0.4051 -0.4224
 2179SOL    HW2 8746   2.497   4.663   2.135 -0.4511  2.0875 -1.4001
 2179SOL    HW3 8747   2.357   4.614   2.168  0.3661  0.6061 -0.0468
 2179SOL    MW4 8748   2.422   4.625   2.111 -0.0394  0.6536 -0.5019
 2180SOL     OW 8749   0.006   0.444   0.526  0.1716  0.3179 -0.4655
 2180SOL    HW2 8750  -0.045   0.389   0.585  0.6388  0.3316 -0.0432
 2180SOL    HW3 8751   0.019   0.390   0.448  0.5057 -0.1136 -0.1098
 2180SOL    MW4 8752   0.001   0.430   0.523  0.2773  0.2628 -0.3629
 2181SOL     OW 8753   2.645   2.365   1.844  0.2817 -0.1291  0.4905
 2181SOL    HW2 8754   2.670   2.438   1.787  0.4513 -0.1734  0.5079
 2181SOL    HW3 8755   2.554   2.348   1.822 -0.1649  0.9578  1.4259
 2181SOL    MW4 8756   2.637   2.372   1.834  0.2452  0.0085  0.6162
 2182SOL     OW 8757   4.331   1.699   3.302 -0.7490  0.2402  0.1066
 2182SOL    HW2 8758   4.252   1.728   3.256 -0.5871  1.0708  0.3351
 2182SOL    HW3 8759   4.299   1.645   3.374 -1.0299 -0.6459 -0.6692
 2182SOL    MW4 8760   4.316   1.696   3.305 -0.7647  0.2329  0.0344
 2183SOL     OW 8761   3.419   3.129   0.903 -0.3197  0.9475 -0.2758
 2183SOL    HW2 8762   3.405   3.060   0.839 -0.7705  1.3179 -0.5833
 2183SOL    HW3 8763   3.345   3.189   0.890 -0.8074  0.6470  1.0957
 2183SOL    MW4 8764   3.407   3.128   0.893 -0.4435  0.9568 -0.1355
 2184SOL     OW 8765   3.864   0.150   1.715 -0.3396  0.5731  0.1009
 2184SOL    HW2 8766   3.875   0.094   1.793 -1.1303  1.7938  1.1117
 2184SOL    HW3 8767   3.808   0.221   1.745  0.3653  1.7248 -1.2675
 2184SOL    MW4 8768   3.858   0.152   1.730 -0.3509  0.8861  0.0537
 2185SOL     OW 8769   1.838   3.565   0.661 -0.6173  0.2778  0.5522
 2185SOL    HW2 8770   1.927   3.558   0.628 -0.6219  1.2406  0.3125
 2185SOL    HW3 8771   1.788   3.603   0.588 -1.1563  0.0491  0.7931
 2185SOL    MW4 8772   1.843   3.570   0.647 -0.6890  0.3746  0.5524
 2186SOL     OW 8773   3.415   2.169   4.578 -0.1642 -0.1391  0.0943
 2186SOL    HW2 8774   3.343   2.106   4.572 -0.5124  0.0542  1.8517
 2186SOL    HW3 8775   3.462   2.144   4.658  0.8047  0.6888 -0.2056
 2186SOL    MW4 8776   3.412   2.158   4.588 -0.0823 -0.0044  0.2866
 2187SOL     OW 8777   1.452   4.006   3.349  0.2772 -0.1253 -0.2330
 2187SOL    HW2 8778   1.504   4.046   3.280  0.8848  0.4268  0.5423
 2187SOL    HW3 8779   1.509   4.005   3.425 -0.3815 -0.7475  0.2607
 2187SOL    MW4 8780   1.466   4.011   3.350  0.2705 -0.1346 -0.0656
 2188SOL     OW 8781   3.402   4.432   3.023 -0.1170  0.6272 -0.0568
 2188SOL    HW2 8782   3.348   4.355   3.010  0.9078 -0.5063  2.1087
 2188SOL    HW3 8783   3.480   4.416   2.971  0.6236 -0.3980  1.3186
 2188SOL    MW4 8784   3.405   4.420   3.015  0.1159  0.3424  0.4103
 2189SOL     OW 8785   4.475   2.909   0.694 -0.0869 -0.1560  0.2810
 2189SOL    HW2 8786   4.496   2.999   0.669 -0.4933 -0.3510 -0.7860
 2189SOL    HW3 8787   4.385   2.913   0.727  0.6169  0.1875  2.2202
 2189SOL    MW4 8788   4.466   2.921   0.695 -0.0477 -0.1364  0.3961
 2190SOL     OW 8789   3.856   2.120   0.778 -0.1125  0.3138 -0.0112
 2190SOL    HW2 8790   3.929   2.175   0.748 -0.9451  0.7029 -1.3971
 2190SOL    HW3 8791   3.878   2.032   0.748 -0.6486  0.5953 -1.2471
 2190SOL    MW4 8792   3.869   2.116   0.770 -0.2931  0.4023 -0.3571
 2191SOL     OW 8793   4.165   2.576   0.780 -0.4327 -0.1234  0.5388
 2191SOL    HW2 8794   4.094   2.630   0.746 -0.9149 -0.8230  0.4264
 2191SOL    HW3 8795   4.132   2.542   0.864  0.5529  1.1858  1.4755
 2191SOL    MW4 8796   4.152   2.578   0.787 -0.3663 -0.0429  0.6476
 2192SOL     OW 8797   1.804   3.233   2.753  0.2881 -0.3556 -0.6757
 2192SOL    HW2 8798   1.813   3.188   2.837 -0.1731  0.8119  0.0133
 2192SOL    HW3 8799   1.888   3.220   2.710  0.3481 -1.4019 -0.2513
 2192SOL    MW4 8800   1.816   3.225   2.758  0.2352 -0.3396 -0.5288
 2193SOL     OW 8801   1.343   2.256   2.027  0.3066  0.1137  0.0590
 2193SOL    HW2 8802   1.289   2.306   2.089  0.6164  0.0900  0.3497
 2193SOL    HW3 8803   1.326   2.297   1.942  0.9217  1.0233  0.3648
 2193SOL    MW4 8804   1.334   2.268   2.024  0.4286  0.2306  0.1377
 2194SOL     OW 8805   3.615   1.006   2.778  0.9105 -0.3071  0.3887
 2194SOL    HW2 8806   3.589   1.093   2.746  0.7301 -0.8387 -0.9426
 2194SOL    HW3 8807   3.553   0.986   2.848  1.4178  0.9565  1.2098
 2194SOL    MW4 8808   3.603   1.015   2.783  0.9536 -0.2105  0.3214
 2195SOL     OW 8809   1.515   4.630   4.004  0.0232 -0.6979 -0.4766
 2195SOL    HW2 8810   1.511   4.596   3.914 -0.5903 -1.0459 -0.3136
 2195SOL    HW3 8811   1.569   4.709   3.996  0.1468 -0.8387 -1.1187
 2195SOL    MW4 8812   1.522   4.636   3.991 -0.0415 -0.7624 -0.5398
 2196SOL     OW 8813   2.942   0.383   1.055 -0.3324 -0.0140 -0.4002
 2196SOL    HW2 8814   3.022   0.435   1.065  0.3273 -1.1397  0.3667
 2196SOL    HW3 8815   2.956   0.335   0.973  0.4494 -1.3167  0.4720
 2196SOL    MW4 8816   2.954   0.383   1.046 -0.1422 -0.3344 -0.1839
 2197SOL     OW 8817   0.994   2.585   3.473 -0.1076 -0.2579 -0.1730
 2197SOL    HW2 8818   0.917   2.529   3.482 -0.0855 -0.2009  0.3868
 2197SOL    HW3 8819   1.043   2.547   3.400  0.1881 -1.2963  0.5663
 2197SOL    MW4 8820   0.990   2.573   3.464 -0.0657 -0.3874 -0.0016
 2198SOL     OW 8821   3.339   2.138   2.721 -0.2809  0.8321 -0.0010
 2198SOL    HW2 8822   3.354   2.229   2.747 -1.0540  0.7913  0.5900
 2198SOL    HW3 8823   3.311   2.094   2.801  3.3052 -0.7080  0.5174
 2198SOL    MW4 8824   3.337   2.145   2.735  0.0903  0.6235  0.1454
 2199SOL     OW 8825   1.890   2.641   3.284  0.0848  0.8547 -0.1601
 2199SOL    HW2 8826   1.976   2.651   3.325 -0.0936 -0.9373  0.7452
 2199SOL    HW3 8827   1.904   2.658   3.191  1.3451  0.9496  0.0449
 2199SOL    MW4 8828   1.903   2.644   3.277  0.2275  0.6308 -0.0136
 2200SOL     OW 8829   3.312   4.307   0.765  0.0083 -0.2201 -0.1129
 2200SOL    HW2 8830   3.299   4.380   0.826  1.7354 -0.6790  0.8298
 2200SOL    HW3 8831   3.250   4.240   0.794  0.9113 -0.4833  1.2008
 2200SOL    MW4 8832   3.302   4.308   0.777  0.3553 -0.3153  0.1848
 2201SOL     OW 8833   0.599   2.552   3.262  0.4811 -0.1719 -0.2814
 2201SOL    HW2 8834   0.576   2.645   3.262  0.2716 -0.2069  1.2039
 2201SOL    HW3 8835   0.667   2.543   3.195  1.6383  1.3333  0.6735
 2201SOL    MW4 8836   0.605   2.563   3.253  0.6061  0.0221  0.0405
 2202SOL     OW 8837   2.296   2.799   1.432  0.3928 -0.3250 -0.0257
 2202SOL    HW2 8838   2.293   2.894   1.420  0.7231 -0.5552 -2.1597
 2202SOL    HW3 8839   2.356   2.786   1.505  3.0963  0.9833 -1.9391
 2202SOL    MW4 8840   2.304   2.810   1.440  0.7931 -0.1828 -0.5597
 2203SOL     OW 8841   2.757   4.112   2.226  0.4724  0.1623 -0.3375
 2203SOL    HW2 8842   2.681   4.054   2.231  0.8101 -0.3029 -0.6314
 2203SOL    HW3 8843   2.757   4.159   2.309  1.0587 -1.3150  0.5101
 2203SOL    MW4 8844   2.747   4.111   2.237  0.5943 -0.0940 -0.2645
 2204SOL     OW 8845   2.362   0.549   1.474 -1.0532  0.1166  0.5462
 2204SOL    HW2 8846   2.396   0.460   1.470 -0.0827  0.3527  2.8003
 2204SOL    HW3 8847   2.347   0.573   1.382 -0.7173 -2.1172 -0.1187
 2204SOL    MW4 8848   2.365   0.540   1.461 -0.8809 -0.1470  0.7559
 2205SOL     OW 8849   0.511   1.411   3.574 -0.1499 -0.0205 -0.0909
 2205SOL    HW2 8850   0.595   1.396   3.531  0.0088  1.3287 -0.2873
 2205SOL    HW3 8851   0.528   1.485   3.633 -1.0293 -0.1713  0.3536
 2205SOL    MW4 8852   0.524   1.419   3.576 -0.2449  0.1376 -0.0582
 2206SOL     OW 8853   1.708   2.940   1.938  0.3522 -0.5816 -0.4867
 2206SOL    HW2 8854   1.729   2.856   1.980 -0.9109 -0.4669  0.4127
 2206SOL    HW3 8855   1.653   2.985   2.002  2.2719  1.5936 -0.2923
 2206SOL    MW4 8856   1.704   2.934   1.952  0.4388 -0.2795 -0.3424
 2207SOL     OW 8857   1.741   3.575   2.118 -0.0793  0.0484 -0.0105
 2207SOL    HW2 8858   1.778   3.609   2.036 -2.3822  1.8005 -0.3828
 2207SOL    HW3 8859   1.767   3.483   2.120  1.1897  0.3363 -2.0146
 2207SOL    MW4 8860   1.750   3.568   2.107 -0.2157  0.3176 -0.3240
 2208SOL     OW 8861   1.284   1.434   1.019 -0.6694 -0.5150  0.0187
 2208SOL    HW2 8862   1.241   1.518   1.034 -1.5890 -1.0568  0.4604
 2208SOL    HW3 8863   1.224   1.386   0.962  0.5561 -0.3069 -1.4757
 2208SOL    MW4 8864   1.270   1.439   1.014 -0.6290 -0.5590 -0.1202
 2209SOL     OW 8865   3.375   0.290   3.850 -0.1627 -0.2658 -0.7056
 2209SOL    HW2 8866   3.351   0.201   3.876  0.0812 -0.1543 -0.0949
 2209SOL    HW3 8867   3.471   0.290   3.848 -0.1001  0.4569  1.0148
 2209SOL    MW4 8868   3.384   0.278   3.853 -0.1222 -0.1557 -0.3980
 2210SOL     OW 8869   4.403   4.524   1.733  0.8173 -0.1242 -0.3540
 2210SOL    HW2 8870   4.424   4.601   1.680  1.6806 -2.3226 -3.3437
 2210SOL    HW3 8871   4.485   4.475   1.738  0.1320 -1.1637  0.9805
 2210SOL    MW4 8872   4.416   4.528   1.727  0.8408 -0.5514 -0.5724
 2211SOL     OW 8873   0.828   0.027   2.069 -0.1287 -0.0505 -0.3966
 2211SOL    HW2 8874   0.898   0.013   2.005  0.0996 -0.5801 -0.0373
 2211SOL    HW3 8875   0.859   0.101   2.122  0.5542 -0.8118  0.2923
 2211SOL    MW4 8876   0.842   0.035   2.068 -0.0085 -0.2208 -0.2583
 2212SOL     OW 8877   4.018   1.298   0.832  0.6531  0.2010 -0.0378
 2212SOL    HW2 8878   3.964   1.295   0.911  2.0990 -0.4514  0.9405
 2212SOL    HW3 8879   3.955   1.301   0.760 -0.6783  0.3481  1.1212
 2212SOL    MW4 8880   4.003   1.298   0.833  0.6682  0.1343  0.2442
 2213SOL     OW 8881   3.318   0.018   3.878  0.1683  0.5178 -0.5009
 2213SOL    HW2 8882   3.230   0.040   3.909  0.1654 -0.3655  0.1604
 2213SOL    HW3 8883   3.316   0.035   3.784 -0.2701  1.8825 -0.2470
 2213SOL    MW4 8884   3.306   0.023   3.870  0.1101  0.5813 -0.3802
 2214SOL     OW 8885   1.632   2.147   0.352 -0.7658 -0.3602 -0.0680
 2214SOL    HW2 8886   1.538   2.128   0.362 -0.6851 -0.1896  1.1762
 2214SOL    HW3 8887   1.670   2.064   0.323 -1.1689 -0.6949  0.3342
 2214SOL    MW4 8888   1.624   2.133   0.350 -0.8083 -0.3818  0.1492
 2215SOL     OW 8889   3.383   3.944   4.399 -0.2998 -0.0629 -0.2701
 2215SOL    HW2 8890   3.448   3.920   4.465 -0.3627  0.1879 -0.1201
 2215SOL    HW3 8891   3.299   3.920   4.438 -0.6584  3.4229  1.2459
 2215SOL    MW4 8892   3.381   3.938   4.413 -0.3554  0.4301 -0.0503
 2216SOL     OW 8893   3.239   0.109   3.203  0.3856  0.1174  0.4510
 2216SOL    HW2 8894   3.242   0.052   3.126  0.9799 -0.5007  0.9252
 2216SOL    HW3 8895   3.327   0.146   3.209 -0.3527  2.1566 -0.6274
 2216SOL    MW4 8896   3.251   0.106   3.193  0.3666  0.3049  0.3713
 2217SOL     OW 8897   0.978   3.151   2.130 -0.1389 -0.2334 -0.7855
 2217SOL    HW2 8898   0.984   3.239   2.166  2.1286 -0.8970  0.5776
 2217SOL    HW3 8899   0.949   3.164   2.040 -1.6281  1.7664 -0.0488
 2217SOL    MW4 8900   0.975   3.164   2.123 -0.0362 -0.0571 -0.5085
 2218SOL     OW 8901   4.040   0.323   2.892  0.1065 -0.6606 -0.2789
 2218SOL    HW2 8902   3.962   0.330   2.836  0.1941 -0.2512 -0.3498
 2218SOL    HW3 8903   4.005   0.302   2.979 -0.0945 -0.3071 -0.2746
 2218SOL    MW4 8904   4.025   0.321   2.896  0.0915 -0.5599 -0.2877
 2219SOL     OW 8905   2.348   1.943   2.115 -0.0713 -0.3464  0.2205
 2219SOL    HW2 8906   2.275   1.906   2.066  0.0657 -0.5861  0.1999
 2219SOL    HW3 8907   2.335   1.912   2.204  0.6534 -1.3504 -0.0144
 2219SOL    MW4 8908   2.337   1.934   2.120  0.0424 -0.5105  0.1868
 2220SOL     OW 8909   0.396   3.806   2.244 -0.2171 -0.2521  0.0620
 2220SOL    HW2 8910   0.436   3.889   2.219  1.5140 -1.4631 -1.3152
 2220SOL    HW3 8911   0.306   3.829   2.268  0.4442  2.1069  0.4290
 2220SOL    MW4 8912   0.389   3.820   2.244  0.0985 -0.1006 -0.0713
 2221SOL     OW 8913   2.160   0.915   2.524 -0.6468  0.1157 -0.3610
 2221SOL    HW2 8914   2.067   0.905   2.548 -0.3623  0.0515  0.7265
 2221SOL    HW3 8915   2.204   0.932   2.607  0.3173  0.1810 -0.8879
 2221SOL    MW4 8916   2.153   0.916   2.538 -0.4820  0.1159 -0.2870
 2222SOL     OW 8917   1.035   2.383   1.292  0.4796 -0.0833 -0.4072
 2222SOL    HW2 8918   1.001   2.295   1.307 -0.0027  0.5999  2.8594
 2222SOL    HW3 8919   1.098   2.397   1.362 -0.5748  2.7346  0.0481
 2222SOL    MW4 8920   1.039   2.373   1.303  0.2768  0.3787  0.0838
 2223SOL     OW 8921   3.128   2.715   2.894 -0.4835 -0.1885 -0.3424
 2223SOL    HW2 8922   3.055   2.776   2.891 -0.1126  0.2990  0.3163
 2223SOL    HW3 8923   3.139   2.695   2.987  1.0192  0.7449 -0.3000
 2223SOL    MW4 8924   3.120   2.721   2.906 -0.2363 -0.0010 -0.2499
 2224SOL     OW 8925   4.260   3.261   2.204  0.0242  0.1558  0.4043
 2224SOL    HW2 8926   4.287   3.225   2.289  0.9552 -0.0068  0.0415
 2224SOL    HW3 8927   4.165   3.250   2.203  0.1806 -1.3034  0.7643
 2224SOL    MW4 8928   4.251   3.255   2.215  0.1677 -0.0582  0.4040
 2225SOL     OW 8929   2.159   2.314   2.408  0.5692 -0.4558  0.3753
 2225SOL    HW2 8930   2.190   2.234   2.448 -0.1649 -0.7032  0.4542
 2225SOL    HW3 8931   2.209   2.321   2.327  1.2699 -0.5246  0.8037
 2225SOL    MW4 8932   2.169   2.305   2.402  0.5648 -0.4975  0.4422
 2226SOL     OW 8933   0.908   1.683   2.344  0.5315  0.0937  0.2718
 2226SOL    HW2 8934   0.843   1.694   2.413  0.3518 -1.1042  0.3066
 2226SOL    HW3 8935   0.903   1.764   2.293 -0.6237  0.2278  0.5753
 2226SOL    MW4 8936   0.899   1.695   2.347  0.3554 -0.0467  0.3164
 2227SOL     OW 8937   0.166   0.177   1.951 -0.2800  0.1230  0.5946
 2227SOL    HW2 8938   0.182   0.134   2.035  0.4516 -1.1445 -0.1811
 2227SOL    HW3 8939   0.204   0.118   1.886  0.9470  2.0721 -0.4812
 2227SOL    MW4 8940   0.173   0.163   1.954 -0.0216  0.2129  0.3503
 2228SOL     OW 8941   0.814   0.266   3.993  0.2055 -0.7822 -0.7096
 2228SOL    HW2 8942   0.844   0.311   3.913 -0.7010  1.5706  0.2180
 2228SOL    HW3 8943   0.894   0.254   4.045  0.4188  0.1910 -0.7875
 2228SOL    MW4 8944   0.829   0.271   3.989  0.1140 -0.3433 -0.5975
 2229SOL     OW 8945   3.116   2.853   3.548 -0.3141  0.2806 -0.1100
 2229SOL    HW2 8946   3.047   2.790   3.525 -1.3466  1.0449  0.8262
 2229SOL    HW3 8947   3.105   2.867   3.641  0.6096  1.0458 -0.1134
 2229SOL    MW4 8948   3.105   2.846   3.557 -0.3285  0.4824  0.0130
 2230SOL     OW 8949   2.292   4.575   4.238  0.9946 -0.1764 -0.3726
 2230SOL    HW2 8950   2.345   4.504   4.199 -0.3940 -1.2021 -0.4214
 2230SOL    HW3 8951   2.202   4.548   4.223  0.4497  0.8130  1.0904
 2230SOL    MW4 8952   2.287   4.562   4.231  0.7395 -0.1812 -0.1860
 2231SOL     OW 8953   2.466   0.278   1.782 -0.2045 -0.0894 -0.4704
 2231SOL    HW2 8954   2.552   0.236   1.793 -0.2080  0.1056  0.3618
 2231SOL    HW3 8955   2.406   0.221   1.830 -0.5454 -0.2347 -1.0674
 2231SOL    MW4 8956   2.470   0.265   1.790 -0.2499 -0.0829 -0.4394
 2232SOL     OW 8957   0.561   4.098   1.884  0.2390 -0.6538 -0.1205
 2232SOL    HW2 8958   0.551   4.091   1.979  1.1453 -1.1576 -0.0638
 2232SOL    HW3 8959   0.654   4.110   1.870  0.1835 -1.1778 -0.9848
 2232SOL    MW4 8960   0.572   4.099   1.895  0.3513 -0.7894 -0.2270
 2233SOL     OW 8961   2.386   0.093   0.643 -1.0512 -0.1903  1.1646
 2233SOL    HW2 8962   2.331   0.162   0.605  1.1090  0.3872 -1.0899
 2233SOL    HW3 8963   2.424   0.133   0.721  0.1967  1.2362 -0.1306
 2233SOL    MW4 8964   2.383   0.107   0.648 -0.6016  0.0741  0.6963
 2234SOL     OW 8965   0.879   0.994   4.057  0.0554 -0.0165  0.6490
 2234SOL    HW2 8966   0.897   0.969   4.148  1.0798 -2.1529 -0.0884
 2234SOL    HW3 8967   0.953   0.958   4.008 -1.1903 -0.1119 -1.2036
 2234SOL    MW4 8968   0.891   0.986   4.062  0.0262 -0.3110  0.3073
 2235SOL     OW 8969   0.423   0.323   1.571  0.5170  0.2272  0.1248
 2235SOL    HW2 8970   0.470   0.369   1.501 -0.7935 -1.1205 -1.6752
 2235SOL    HW3 8971   0.479   0.333   1.648  3.0876 -0.1801 -1.6275
 2235SOL    MW4 8972   0.437   0.331   1.572  0.6832 -0.0043 -0.3439
 2236SOL     OW 8973   1.757   0.991   2.116  0.2208 -0.5786  0.1041
 2236SOL    HW2 8974   1.831   0.969   2.059 -1.4681 -1.3750 -1.8592
 2236SOL    HW3 8975   1.699   0.915   2.110 -0.3736 -0.3221  2.2814
 2236SOL    MW4 8976   1.759   0.978   2.107 -0.0805 -0.6498  0.1323
 2237SOL     OW 8977   3.678   3.676   0.644  0.3974 -0.5266  0.5938
 2237SOL    HW2 8978   3.610   3.641   0.586 -0.6882 -0.4716  1.7896
 2237SOL    HW3 8979   3.710   3.754   0.599  1.0427 -1.6320 -0.8998
 2237SOL    MW4 8980   3.673   3.682   0.631  0.3393 -0.6652  0.5545
 2238SOL     OW 8981   2.122   2.666   0.432 -0.7279  0.4605  0.0652
 2238SOL    HW2 8982   2.215   2.648   0.425 -0.3638  2.8994 -1.7918
 2238SOL    HW3 8983   2.103   2.656   0.526  1.5611  0.7976  0.5874
 2238SOL    MW4 8984   2.131   2.662   0.444 -0.3778  0.8268 -0.1109
 2239SOL     OW 8985   3.831   3.458   1.464 -0.5207  0.2622  0.3015
 2239SOL    HW2 8986   3.860   3.399   1.533 -0.3768  1.8052  1.5762
 2239SOL    HW3 8987   3.904   3.461   1.403  0.5360  1.1624  1.5805
 2239SOL    MW4 8988   3.844   3.451   1.465 -0.3623  0.5845  0.6385
 2240SOL     OW 8989   3.679   2.363   0.743 -0.6896 -0.1202 -0.3025
 2240SOL    HW2 8990   3.740   2.291   0.729  1.0596  1.4494 -1.0188
 2240SOL    HW3 8991   3.673   2.370   0.839  1.0680  0.3303 -0.1942
 2240SOL    MW4 8992   3.687   2.354   0.754 -0.2270  0.1463 -0.3827
 2241SOL     OW 8993   0.516   1.127   3.209 -0.5433 -0.0441 -0.3027
 2241SOL    HW2 8994   0.451   1.168   3.266  0.1736  0.2173  0.3397
 2241SOL    HW3 8995   0.534   1.192   3.141  0.2689  0.5412  0.4667
 2241SOL    MW4 8996   0.510   1.141   3.208 -0.3416  0.0676 -0.1164
 2242SOL     OW 8997   1.572   3.238   0.493 -0.3281 -0.4814 -0.1362
 2242SOL    HW2 8998   1.668   3.237   0.484 -0.2369 -0.0120  0.7887
 2242SOL    HW3 8999   1.546   3.322   0.454 -0.4180 -0.8410 -0.8656
 2242SOL    MW4 9000   1.581   3.249   0.486 -0.3279 -0.4669 -0.1104
 2243SOL     OW 9001   3.654   3.140   2.871 -0.2335 -0.4742  0.2344
 2243SOL    HW2 9002   3.601   3.071   2.830  0.1634 -0.5107 -0.2167
 2243SOL    HW3 9003   3.644   3.124   2.965 -2.7515  0.8016  0.2173
 2243SOL    MW4 9004   3.645   3.128   2.878 -0.5134 -0.3107  0.1727
 2244SOL     OW 9005   3.095   3.129   3.360 -0.7847  0.0094  0.5047
 2244SOL    HW2 9006   3.064   3.071   3.291  0.2865 -0.1370  0.1292
 2244SOL    HW3 9007   3.146   3.196   3.315  1.5241 -1.1623  1.2773
 2244SOL    MW4 9008   3.098   3.130   3.345 -0.3387 -0.1645  0.5571
 2245SOL     OW 9009   3.085   0.806   3.407  0.2047  0.3520 -0.9057
 2245SOL    HW2 9010   3.037   0.737   3.453 -0.5109 -0.2591 -2.5499
 2245SOL    HW3 9011   3.129   0.855   3.477 -0.8181 -0.5964  0.4243
 2245SOL    MW4 9012   3.084   0.803   3.423 -0.0247  0.1462 -0.9471
 2246SOL     OW 9013   2.668   0.824   2.652 -0.0074  0.0758 -0.2224
 2246SOL    HW2 9014   2.578   0.793   2.660  0.5928 -1.2908  1.5660
 2246SOL    HW3 9015   2.671   0.903   2.707  0.1416 -0.5105  0.6327
 2246SOL    MW4 9016   2.657   0.830   2.661  0.0914 -0.1819  0.1264
 2247SOL     OW 9017   3.727   0.970   3.207  0.2405 -0.2537  0.4255
 2247SOL    HW2 9018   3.666   0.904   3.240  1.6602 -1.7378  0.1926
 2247SOL    HW3 9019   3.804   0.962   3.264  1.0438  0.1067 -0.5906
 2247SOL    MW4 9020   3.729   0.960   3.219  0.5338 -0.4020  0.2607
 2248SOL     OW 9021   1.266   0.324   3.306  0.4698 -0.5964  0.1717
 2248SOL    HW2 9022   1.332   0.391   3.324  0.8986 -0.8742 -0.3595
 2248SOL    HW3 9023   1.185   0.360   3.343 -0.0949  1.8123 -3.1910
 2248SOL    MW4 9024   1.264   0.338   3.313  0.4519 -0.3152 -0.3420
 2249SOL     OW 9025   2.003   2.874   0.902 -0.3086  0.4584 -0.4982
 2249SOL    HW2 9026   1.981   2.873   0.809  0.5244 -1.9974 -0.7053
 2249SOL    HW3 9027   1.925   2.842   0.946  0.0702 -0.5889 -0.5672
 2249SOL    MW4 9028   1.990   2.870   0.895 -0.1487 -0.0038 -0.5346
 2250SOL     OW 9029   3.695   3.204   3.502  0.3249 -0.0481  0.6113
 2250SOL    HW2 9030   3.623   3.182   3.442 -0.2384  1.5509  0.6634
 2250SOL    HW3 9031   3.693   3.300   3.506  1.8402 -0.0477  1.3889
 2250SOL    MW4 9032   3.685   3.214   3.495  0.4505  0.1629  0.7208
 2251SOL     OW 9033   2.565   4.591   4.002 -0.1110  0.4652  0.8632
 2251SOL    HW2 9034   2.597   4.651   4.070  1.4652  0.2897  0.2974
 2251SOL    HW3 9035   2.493   4.638   3.960  0.9811  1.8894  0.5539
 2251SOL    MW4 9036   2.559   4.605   4.005  0.2411  0.6300  0.7478
 2252SOL     OW 9037   3.420   3.630   1.525  0.0853  0.4414  0.6655
 2252SOL    HW2 9038   3.361   3.692   1.567 -0.4315 -0.0373  0.6399
 2252SOL    HW3 9039   3.508   3.661   1.550 -0.0201  2.8618 -1.6363
 2252SOL    MW4 9040   3.424   3.643   1.534  0.0032  0.6976  0.3584
 2253SOL     OW 9041   1.205   1.810   2.978  0.2693 -0.4306 -0.4653
 2253SOL    HW2 9042   1.270   1.760   2.928  1.9144 -0.1081  1.2875
 2253SOL    HW3 9043   1.248   1.893   2.996 -0.5154 -0.3216  0.9774
 2253SOL    MW4 9044   1.219   1.814   2.974  0.3828 -0.3737 -0.0437
 2254SOL     OW 9045   4.358   1.286   2.232 -0.1000  0.0141 -0.1353
 2254SOL    HW2 9046   4.406   1.354   2.185 -0.7868 -0.8242 -2.0901
 2254SOL    HW3 9047   4.266   1.303   2.211 -0.4559 -0.1378  1.2518
 2254SOL    MW4 9048   4.352   1.297   2.223 -0.2375 -0.1165 -0.2102
 2255SOL     OW 9049   4.223   0.480   4.350 -0.2066  0.1609 -0.2967
 2255SOL    HW2 9050   4.146   0.525   4.385  0.8095  1.4182  0.3578
 2255SOL    HW3 9051   4.217   0.392   4.387 -1.2526  0.2983 -0.1236
 2255SOL    MW4 9052   4.212   0.474   4.360 -0.2106  0.3449 -0.1875
 2256SOL     OW 9053   0.539   0.245   4.317  0.2426 -0.0285  0.1740
 2256SOL    HW2 9054   0.449   0.266   4.340  0.3534  0.7499 -0.0901
 2256SOL    HW3 9055   0.533   0.163   4.267 -0.2923 -0.1063  0.3733
 2256SOL    MW4 9056   0.527   0.237   4.313  0.1867  0.0639  0.1655
 2257SOL     OW 9057   4.046   1.884   2.661  0.3992 -0.1822 -0.2801
 2257SOL    HW2 9058   4.038   1.963   2.608 -0.6768  0.4726  0.8469
 2257SOL    HW3 9059   3.999   1.817   2.611 -0.9353  0.5231  0.0031
 2257SOL    MW4 9060   4.039   1.886   2.647  0.0811 -0.0028 -0.0940
 2258SOL     OW 9061   0.334   2.421   3.530  0.0109 -0.1221  0.2332
 2258SOL    HW2 9062   0.247   2.441   3.564 -0.1816  0.4321 -0.5801
 2258SOL    HW3 9063   0.391   2.427   3.607 -0.8781 -1.9644  1.0615
 2258SOL    MW4 9064   0.330   2.425   3.545 -0.1318 -0.2921  0.2352
 2259SOL     OW 9065   3.848   4.024   2.928  0.0860 -0.2116  0.4622
 2259SOL    HW2 9066   3.875   3.937   2.959  0.5849 -0.3391 -0.3002
 2259SOL    HW3 9067   3.801   4.062   3.002  0.3759 -0.9008  1.0165
 2259SOL    MW4 9068   3.845   4.017   2.942  0.1901 -0.3194  0.4348
 2260SOL     OW 9069   0.939   1.382   3.815  0.4733  0.4961 -0.3714
 2260SOL    HW2 9070   0.862   1.436   3.828  0.9531  1.2793 -0.7741
 2260SOL    HW3 9071   0.993   1.431   3.754  0.6758 -0.6754 -1.1446
 2260SOL    MW4 9072   0.936   1.395   3.809  0.5633  0.4449 -0.5266
 2261SOL     OW 9073   4.385   3.327   2.751  0.4550  0.3392 -0.6886
 2261SOL    HW2 9074   4.302   3.331   2.704 -1.6560  2.6282  2.9981
 2261SOL    HW3 9075   4.391   3.236   2.782 -0.9016  0.2936 -0.5515
 2261SOL    MW4 9076   4.375   3.315   2.749 -0.0025  0.6352 -0.1841
 2262SOL     OW 9077   1.445   0.154   1.966  0.4881 -0.2861 -0.1041
 2262SOL    HW2 9078   1.382   0.208   2.014  1.0906 -1.1953  1.7449
 2262SOL    HW3 9079   1.494   0.217   1.912  0.1811  0.8301  0.9039
 2262SOL    MW4 9080   1.443   0.170   1.965  0.5271 -0.2588  0.2728
 2263SOL     OW 9081   2.766   0.959   4.035  0.6012  0.1214  0.3168
 2263SOL    HW2 9082   2.683   0.930   3.997  0.8489  0.6042 -0.6080
 2263SOL    HW3 9083   2.769   1.053   4.017  0.9485  0.2702  1.1202
 2263SOL    MW4 9084   2.756   0.968   4.028  0.6797  0.2047  0.3007
 2264SOL     OW 9085   0.293   2.447   1.476  0.1666  0.9317 -0.0604
 2264SOL    HW2 9086   0.246   2.374   1.516 -0.7607  1.0180 -0.9565
 2264SOL    HW3 9087   0.385   2.422   1.482 -0.0850  0.0676  0.3831
 2264SOL    MW4 9088   0.299   2.434   1.482  0.0111  0.8291 -0.1201
 2265SOL     OW 9089   1.449   1.429   2.460 -0.0175  0.5189  0.2499
 2265SOL    HW2 9090   1.460   1.400   2.550  1.5041 -0.0587 -0.1048
 2265SOL    HW3 9091   1.391   1.506   2.466 -0.8933 -0.2178  1.5771
 2265SOL    MW4 9092   1.442   1.435   2.472  0.0677  0.3455  0.3782
 2266SOL     OW 9093   2.012   0.774   2.029 -0.6749  0.2876 -0.7026
 2266SOL    HW2 9094   2.028   0.746   2.118  1.9072  2.0045 -0.5587
 2266SOL    HW3 9095   2.041   0.701   1.975 -1.8298 -0.5764 -0.1758
 2266SOL    MW4 9096   2.018   0.761   2.033 -0.4866  0.4001 -0.6141
 2267SOL     OW 9097   3.577   3.753   2.213  0.4725 -0.1295 -0.1040
 2267SOL    HW2 9098   3.537   3.690   2.153 -2.5636 -0.4820  2.1658
 2267SOL    HW3 9099   3.610   3.822   2.156 -0.1513 -1.6190 -2.3389
 2267SOL    MW4 9100   3.576   3.754   2.198 -0.0104 -0.3725 -0.0994
 2268SOL     OW 9101   1.954   0.865   3.416  0.0386 -0.4924  0.2814
 2268SOL    HW2 9102   1.871   0.828   3.386  0.2593 -0.0107 -0.9540
 2268SOL    HW3 9103   1.955   0.849   3.510 -2.0754  0.6413  0.5355
 2268SOL    MW4 9104   1.943   0.858   3.425 -0.2112 -0.2792  0.1520
 2269SOL     OW 9105   1.939   0.598   4.091 -0.1743 -0.1957  0.1956
 2269SOL    HW2 9106   1.967   0.515   4.053  2.6050  1.4553 -1.4950
 2269SOL    HW3 9107   1.924   0.656   4.016 -1.4505  1.0437  1.3659
 2269SOL    MW4 9108   1.940   0.595   4.076  0.0240  0.1857  0.1270
 2270SOL     OW 9109   0.126   3.822   1.053 -0.3250  0.0729 -1.1616
 2270SOL    HW2 9110   0.163   3.910   1.047  1.2033 -0.3993  0.7282
 2270SOL    HW3 9111   0.186   3.768   1.001 -1.3130  0.1438 -2.3969
 2270SOL    MW4 9112   0.139   3.826   1.045 -0.2537  0.0200 -1.0753
 2271SOL     OW 9113   3.169   3.572   0.893  0.3954 -0.2737 -0.1434
 2271SOL    HW2 9114   3.198   3.622   0.817  0.9278 -0.2009  0.1002
 2271SOL    HW3 9115   3.075   3.559   0.880 -0.1600  2.4903  0.7581
 2271SOL    MW4 9116   3.160   3.577   0.881  0.3923  0.1006  0.0077
 2272SOL     OW 9117   0.635   0.500   2.221  0.2418 -0.2263  0.4868
 2272SOL    HW2 9118   0.691   0.486   2.297 -0.3291  0.1791  0.9840
 2272SOL    HW3 9119   0.685   0.561   2.166  0.1404  0.4203  1.1018
 2272SOL    MW4 9120   0.649   0.506   2.224  0.1531 -0.0875  0.6336
 2273SOL     OW 9121   1.443   2.443   1.075  0.5724 -0.2270  0.5501
 2273SOL    HW2 9122   1.361   2.393   1.079 -0.2282  1.1330  1.5828
 2273SOL    HW3 9123   1.493   2.401   1.005 -2.2500  0.7560 -2.2118
 2273SOL    MW4 9124   1.439   2.431   1.066  0.0944  0.0821  0.3219
 2274SOL     OW 9125   1.178   2.457   3.326  0.6529 -0.1912 -0.0291
 2274SOL    HW2 9126   1.132   2.376   3.305  0.0774  0.1457 -0.0655
 2274SOL    HW3 9127   1.209   2.489   3.242  0.5579 -0.1789 -0.0597
 2274SOL    MW4 9128   1.176   2.450   3.312  0.5644 -0.1451 -0.0380
 2275SOL     OW 9129   3.558   4.650   0.859 -0.0983 -0.4657 -0.3466
 2275SOL    HW2 9130   3.535   4.743   0.867  1.4162  0.0116 -1.3332
 2275SOL    HW3 9131   3.577   4.622   0.948  2.2587  0.9425 -0.3615
 2275SOL    MW4 9132   3.557   4.658   0.872  0.4125 -0.2169 -0.4787
 2276SOL     OW 9133   2.475   2.960   2.807 -0.4823  0.3693  0.4745
 2276SOL    HW2 9134   2.485   3.048   2.844  1.3324 -0.6241  2.4242
 2276SOL    HW3 9135   2.560   2.918   2.820 -2.1197 -2.6463  2.2516
 2276SOL    MW4 9136   2.487   2.966   2.814 -0.4589 -0.1596  0.9662
 2277SOL     OW 9137   2.830   1.836   3.902 -0.3611 -0.1310 -0.0350
 2277SOL    HW2 9138   2.799   1.838   3.993  2.4015 -0.1956  0.9602
 2277SOL    HW3 9139   2.847   1.927   3.881 -1.3957 -0.0731 -0.6567
 2277SOL    MW4 9140   2.828   1.848   3.911 -0.1331 -0.1319  0.0143
 2278SOL     OW 9141   0.818   2.929   2.515 -0.5497  0.5887 -0.0585
 2278SOL    HW2 9142   0.830   2.940   2.610 -1.8009 -2.2172  0.4812
 2278SOL    HW3 9143   0.895   2.881   2.486 -0.8643  0.1759 -0.2086
 2278SOL    MW4 9144   0.830   2.924   2.524 -0.7563  0.1641 -0.0071
 2279SOL     OW 9145   2.623   3.970   3.415  0.2676 -0.6429 -0.1192
 2279SOL    HW2 9146   2.588   3.888   3.449 -0.6470 -0.3775 -0.3866
 2279SOL    HW3 9147   2.718   3.962   3.423  0.1602 -1.5435  0.2607
 2279SOL    MW4 9148   2.631   3.958   3.421  0.1327 -0.7267 -0.1043
 2280SOL     OW 9149   2.586   4.303   2.108 -0.1383  0.4071  0.4706
 2280SOL    HW2 9150   2.648   4.231   2.124  0.2065  0.4786 -0.4718
 2280SOL    HW3 9151   2.618   4.375   2.162 -0.0710  0.0744  0.8763
 2280SOL    MW4 9152   2.598   4.303   2.117 -0.0839  0.3726  0.3998
 2281SOL     OW 9153   4.209   0.990   1.288  0.2536  0.2191  0.2397
 2281SOL    HW2 9154   4.229   1.065   1.232  3.3850 -0.4313  0.4126
 2281SOL    HW3 9155   4.256   0.917   1.248 -1.4401 -1.3217  0.9853
 2281SOL    MW4 9156   4.218   0.990   1.275  0.4433 -0.0700  0.3609
 2282SOL     OW 9157   0.377   4.643   2.501  0.0598 -0.1519  0.4636
 2282SOL    HW2 9158   0.390   4.726   2.548  1.1690 -0.4313  0.6694
 2282SOL    HW3 9159   0.449   4.640   2.438 -0.8873 -0.2267 -0.6192
 2282SOL    MW4 9160   0.388   4.654   2.499  0.0812 -0.1986  0.3479
 2283SOL     OW 9161   4.133   3.929   2.205 -0.6375 -0.0585  0.0472
 2283SOL    HW2 9162   4.193   3.863   2.170 -1.7074 -1.8103  1.4659
 2283SOL    HW3 9163   4.173   3.958   2.287  0.1902  1.6286 -0.9116
 2283SOL    MW4 9164   4.146   3.924   2.211 -0.6695 -0.0671  0.1079
 2284SOL     OW 9165   2.190   2.014   3.310 -0.0709 -0.2505 -0.7585
 2284SOL    HW2 9166   2.209   2.046   3.398 -1.0377 -0.9247 -0.2878
 2284SOL    HW3 9167   2.111   1.960   3.321  0.6806 -1.5816 -1.7762
 2284SOL    MW4 9168   2.182   2.011   3.323 -0.0993 -0.5150 -0.8306
 2285SOL     OW 9169   2.935   4.505   3.083  0.2396  0.1938 -0.0379
 2285SOL    HW2 9170   2.901   4.535   3.168 -0.9540 -0.4228 -0.2940
 2285SOL    HW3 9171   3.020   4.549   3.075 -0.5087  1.8090  0.5803
 2285SOL    MW4 9172   2.942   4.515   3.093 -0.0166  0.3256  0.0099
 2286SOL     OW 9173   2.937   1.573   0.587  0.0920 -0.0743  0.1117
 2286SOL    HW2 9174   2.939   1.491   0.538  1.9861 -0.0985  0.2040
 2286SOL    HW3 9175   2.889   1.551   0.667  1.9316 -1.5412  0.8662
 2286SOL    MW4 9176   2.931   1.559   0.591  0.5846 -0.2710  0.2234
 2287SOL     OW 9177   0.826   4.297   3.822  0.2104 -0.2301 -0.0877
 2287SOL    HW2 9178   0.843   4.203   3.815  0.6692 -0.2944  1.7026
 2287SOL    HW3 9179   0.745   4.304   3.871 -0.6322  0.2946 -1.5106
 2287SOL    MW4 9180   0.818   4.286   3.827  0.1598 -0.1694 -0.0392
 2288SOL     OW 9181   3.185   4.595   2.982 -0.1926  0.2627  0.5369
 2288SOL    HW2 9182   3.205   4.634   2.897  0.9695  1.9531  1.5378
 2288SOL    HW3 9183   3.261   4.541   3.002 -1.2413 -1.5466 -0.2690
 2288SOL    MW4 9184   3.198   4.593   2.974 -0.1776  0.2470  0.5626
 2289SOL     OW 9185   1.882   1.676   1.757 -0.2755  0.1616 -0.3989
 2289SOL    HW2 9186   1.974   1.703   1.760  0.2038 -1.3472 -1.1924
 2289SOL    HW3 9187   1.843   1.731   1.689  0.6966 -1.0993 -2.0043
 2289SOL    MW4 9188   1.889   1.687   1.748 -0.0840 -0.2038 -0.7154
 2290SOL     OW 9189   3.218   3.421   2.321  0.4184 -0.4143 -0.2571
 2290SOL    HW2 9190   3.126   3.439   2.339  0.9609  0.2704  1.9027
 2290SOL    HW3 9191   3.217   3.338   2.273 -1.3669  0.0430 -1.0552
 2290SOL    MW4 9192   3.205   3.413   2.317  0.2544 -0.2637 -0.0775
 2291SOL     OW 9193   0.681   2.839   1.136 -0.1326  0.0061 -0.5086
 2291SOL    HW2 9194   0.774   2.820   1.146 -0.2311 -0.7024 -0.9524
 2291SOL    HW3 9195   0.660   2.895   1.211  0.9932  1.4512 -1.2396
 2291SOL    MW4 9196   0.691   2.844   1.147  0.0029  0.1033 -0.6636
 2292SOL     OW 9197   0.831   0.242   3.604 -0.6275  0.2198 -0.3937
 2292SOL    HW2 9198   0.871   0.161   3.636  2.8699  1.6468 -0.9207
 2292SOL    HW3 9199   0.859   0.309   3.666 -1.3670  1.4538 -1.3690
 2292SOL    MW4 9200   0.840   0.240   3.616 -0.2636  0.5709 -0.5919
 2293SOL     OW 9201   0.302   1.186   1.412  0.1998 -0.0232 -0.3202
 2293SOL    HW2 9202   0.304   1.124   1.484 -0.2009  0.6668  0.2991
 2293SOL    HW3 9203   0.372   1.158   1.353  0.3067 -0.7903  0.1709
 2293SOL    MW4 9204   0.311   1.174   1.413  0.1611 -0.0334 -0.1737
 2294SOL     OW 9205   3.862   4.512   4.474 -0.0095  0.1249 -0.1904
 2294SOL    HW2 9206   3.897   4.425   4.493 -0.5009 -0.2664 -1.0531
 2294SOL    HW3 9207   3.793   4.525   4.540  1.9975  1.0751  1.7867
 2294SOL    MW4 9208   3.857   4.502   4.485  0.1904  0.1986 -0.0434
 2295SOL     OW 9209   3.562   3.430   0.842 -0.1115  0.4520  0.2118
 2295SOL    HW2 9210   3.656   3.434   0.823  0.0466 -0.1665  0.8547
 2295SOL    HW3 9211   3.544   3.509   0.892  0.1482  0.3538  0.4587
 2295SOL    MW4 9212   3.572   3.441   0.846 -0.0564  0.3575  0.3292
 2296SOL     OW 9213   3.353   3.310   4.257 -0.0725 -0.4044  0.0386
 2296SOL    HW2 9214   3.320   3.277   4.174 -0.0201  0.0907 -0.1788
 2296SOL    HW3 9215   3.447   3.324   4.243 -0.3713  1.2707 -0.3348
 2296SOL    MW4 9216   3.361   3.307   4.244 -0.1050 -0.1181 -0.0393
 2297SOL     OW 9217   1.045   1.905   0.773 -0.1030 -0.5420  0.0890
 2297SOL    HW2 9218   1.006   1.883   0.688 -0.3198  0.9305 -0.2053
 2297SOL    HW3 9219   1.065   1.999   0.767 -0.7879 -0.2478  1.9192
 2297SOL    MW4 9220   1.042   1.915   0.761 -0.2220 -0.3089  0.2916
 2298SOL     OW 9221   2.863   2.681   1.404 -0.1227 -0.6247 -0.0533
 2298SOL    HW2 9222   2.930   2.747   1.387 -1.2688  0.8462  0.9446
 2298SOL    HW3 9223   2.902   2.622   1.468  0.6479 -0.4691 -0.3835
 2298SOL    MW4 9224   2.877   2.682   1.410 -0.1722 -0.4101  0.0348
 2299SOL     OW 9225   1.361   3.682   3.796  0.5909 -0.1987 -0.1892
 2299SOL    HW2 9226   1.271   3.661   3.773  0.4371 -0.2422  0.4527
 2299SOL    HW3 9227   1.373   3.648   3.885  0.8070  1.0346  0.2676
 2299SOL    MW4 9228   1.351   3.675   3.805  0.5991 -0.0417 -0.0443
 2300SOL     OW 9229   0.368   2.318   1.791 -0.5156 -0.7709  0.6480
 2300SOL    HW2 9230   0.332   2.259   1.858  0.7351 -0.3491  1.7088
 2300SOL    HW3 9231   0.461   2.295   1.786  0.1985  1.7605  1.7656
 2300SOL    MW4 9232   0.375   2.307   1.799 -0.2563 -0.3812  0.9354
 2301SOL     OW 9233   3.524   1.533   0.415  0.8927  0.5248  0.3161
 2301SOL    HW2 9234   3.453   1.579   0.371  0.8807  0.5511  0.3630
 2301SOL    HW3 9235   3.480   1.469   0.472  0.9346 -0.9504 -1.2542
 2301SOL    MW4 9236   3.509   1.531   0.417  0.8966  0.3336  0.1151
 2302SOL     OW 9237   0.018   3.866   0.647  0.3702  0.3529 -0.3756
 2302SOL    HW2 9238   0.081   3.797   0.628  0.8841  0.6950  0.0726
 2302SOL    HW3 9239  -0.056   3.848   0.589 -0.2619 -1.6243  1.0285
 2302SOL    MW4 9240   0.017   3.855   0.637  0.3546  0.1371 -0.1312
 2303SOL     OW 9241   1.421   0.420   1.249  0.1457  0.0821  0.4190
 2303SOL    HW2 9242   1.365   0.408   1.326  0.2969 -0.6141  0.4251
 2303SOL    HW3 9243   1.471   0.339   1.244 -0.9956 -0.5420 -1.3502
 2303SOL    MW4 9244   1.420   0.408   1.259  0.0151 -0.0921  0.1864
 2304SOL     OW 9245   1.672   1.832   3.940  0.1385 -0.4282  0.0085
 2304SOL    HW2 9246   1.677   1.863   4.030  0.5992  0.1258 -0.2098
 2304SOL    HW3 9247   1.754   1.860   3.900 -0.1888 -0.4324 -0.6628
 2304SOL    MW4 9248   1.683   1.840   3.947  0.1561 -0.3557 -0.1089
 2305SOL     OW 9249   1.574   2.407   3.531  0.0800 -0.0719  0.4218
 2305SOL    HW2 9250   1.601   2.345   3.463 -0.1487 -0.0654  0.3259
 2305SOL    HW3 9251   1.594   2.493   3.494  1.5775 -0.1262  1.0579
 2305SOL    MW4 9252   1.581   2.410   3.517  0.2474 -0.0782  0.4930
 2306SOL     OW 9253   2.933   1.582   1.561  0.1309 -0.4964 -0.0908
 2306SOL    HW2 9254   3.015   1.535   1.578  0.6591  0.6209  0.4592
 2306SOL    HW3 9255   2.877   1.560   1.635 -0.5888 -2.3594 -1.1323
 2306SOL    MW4 9256   2.937   1.573   1.573  0.1057 -0.5948 -0.1557
 2307SOL     OW 9257   4.353   3.793   2.085  0.1199 -0.0195 -0.2247
 2307SOL    HW2 9258   4.389   3.706   2.103  3.2466  0.7397 -2.3722
 2307SOL    HW3 9259   4.331   3.792   1.992 -1.1621  1.0497  0.0431
 2307SOL    MW4 9260   4.355   3.781   2.076  0.3633  0.2217 -0.4727
 2308SOL     OW 9261   4.386   2.742   1.867  0.0493  0.1646  0.1003
 2308SOL    HW2 9262   4.310   2.690   1.842 -0.4676  1.2757 -0.6510
 2308SOL    HW3 9263   4.376   2.756   1.961 -0.6969  0.3382 -0.0013
 2308SOL    MW4 9264   4.375   2.737   1.876 -0.1173  0.3341 -0.0122
 2309SOL     OW 9265   1.149   0.470   4.155  0.2071  0.0809 -0.3800
 2309SOL    HW2 9266   1.067   0.519   4.165 -0.2513 -0.4111 -1.5801
 2309SOL    HW3 9267   1.198   0.520   4.090  0.5736  0.0051 -0.1589
 2309SOL    MW4 9268   1.144   0.483   4.148  0.1950  0.0060 -0.5092
 2310SOL     OW 9269   3.414   1.061   3.902 -0.3840 -0.2115 -0.2706
 2310SOL    HW2 9270   3.426   1.013   3.983 -0.0139  0.7266  0.2429
 2310SOL    HW3 9271   3.501   1.066   3.863 -0.4405 -0.0817 -0.3833
 2310SOL    MW4 9272   3.427   1.056   3.907 -0.3426 -0.0706 -0.2177
 2311SOL     OW 9273   4.340   0.661   2.639 -0.4402  0.0560  0.4317
 2311SOL    HW2 9274   4.306   0.733   2.693  0.0998  1.2120 -0.7673
 2311SOL    HW3 9275   4.274   0.649   2.571 -0.1135 -0.0308  0.1331
 2311SOL    MW4 9276   4.327   0.669   2.637 -0.3258  0.1970  0.2341
 2312SOL     OW 9277   4.146   4.472   0.405 -0.1548  0.2105  0.3307
 2312SOL    HW2 9278   4.141   4.567   0.418 -1.9933  0.4759 -1.9413
 2312SOL    HW3 9279   4.227   4.458   0.356  0.0001  0.6366  0.4648
 2312SOL    MW4 9280   4.156   4.483   0.400 -0.3769  0.3018  0.0486
 2313SOL     OW 9281   1.318   4.251   3.406 -0.0823  0.0086 -0.0030
 2313SOL    HW2 9282   1.368   4.175   3.375 -1.9953 -1.2508 -0.0543
 2313SOL    HW3 9283   1.229   4.218   3.418 -0.9214  2.2297  0.0721
 2313SOL    MW4 9284   1.313   4.237   3.403 -0.4454  0.1354  0.0001
 2314SOL     OW 9285   2.447   0.660   1.749  0.0275  0.0506  0.0295
 2314SOL    HW2 9286   2.398   0.585   1.716 -1.0961  0.9313 -0.3189
 2314SOL    HW3 9287   2.386   0.733   1.746  0.7069  0.7240  1.5789
 2314SOL    MW4 9288   2.433   0.659   1.744 -0.0311  0.2556  0.1879
 2315SOL     OW 9289   0.937   4.434   0.642  0.0516  0.0560 -0.3014
 2315SOL    HW2 9290   0.968   4.478   0.563 -0.2486 -1.2528 -1.1626
 2315SOL    HW3 9291   1.016   4.418   0.694  0.5577 -1.1582 -1.4125
 2315SOL    MW4 9292   0.952   4.437   0.638  0.0787 -0.2769 -0.5616
 2316SOL     OW 9293   2.855   4.424   0.886  0.1614  0.1053  0.3095
 2316SOL    HW2 9294   2.892   4.367   0.819 -0.1057  0.1155  0.1521
 2316SOL    HW3 9295   2.769   4.448   0.852 -0.2873 -0.4996  0.9932
 2316SOL    MW4 9296   2.849   4.420   0.873  0.0670  0.0269  0.3790
 2317SOL     OW 9297   1.008   2.847   1.167 -0.7603  0.4538 -0.2667
 2317SOL    HW2 9298   1.087   2.812   1.208 -0.8548 -0.8269 -1.1503
 2317SOL    HW3 9299   1.030   2.937   1.144  0.1034  0.4173  0.3876
 2317SOL    MW4 9300   1.021   2.854   1.170 -0.6588  0.2800 -0.2969
 2318SOL     OW 9301   0.619   0.842   4.421  0.0261  0.0272  0.1304
 2318SOL    HW2 9302   0.582   0.930   4.416 -0.0027 -0.0715 -1.8038
 2318SOL    HW3 9303   0.544   0.784   4.410  0.3492 -0.2023 -0.9360
 2318SOL    MW4 9304   0.604   0.846   4.419  0.0650 -0.0161 -0.2655
 2319SOL     OW 9305   3.047   2.096   1.183 -0.0005  0.2784 -0.1807
 2319SOL    HW2 9306   3.131   2.052   1.174 -1.4437 -2.6655  0.3718
 2319SOL    HW3 9307   3.032   2.100   1.278 -1.7951 -1.8174 -0.3536
 2319SOL    MW4 9308   3.056   2.091   1.195 -0.4277 -0.3865 -0.1307
 2320SOL     OW 9309   0.344   2.600   1.788  0.2499 -0.1674  0.1817
 2320SOL    HW2 9310   0.374   2.641   1.869  1.6575  1.2663 -1.0438
 2320SOL    HW3 9311   0.366   2.508   1.798  1.9097  0.2819  0.7426
 2320SOL    MW4 9312   0.351   2.593   1.800  0.6546  0.0810  0.0940
 2321SOL     OW 9313   2.714   4.159   3.003 -0.1567  0.0666  0.0442
 2321SOL    HW2 9314   2.756   4.082   3.042  0.3550  0.3019 -0.0429
 2321SOL    HW3 9315   2.678   4.208   3.077 -1.7491 -0.9872  0.0089
 2321SOL    MW4 9316   2.715   4.155   3.018 -0.2993 -0.0414  0.0281
 2322SOL     OW 9317   2.789   1.501   0.807 -0.0361 -0.2714 -0.0003
 2322SOL    HW2 9318   2.802   1.560   0.881 -0.0236  0.1793 -0.3540
 2322SOL    HW3 9319   2.708   1.532   0.766 -1.0143 -1.6368  0.8646
 2322SOL    MW4 9320   2.780   1.513   0.811 -0.1635 -0.3921  0.0671
 2323SOL     OW 9321   3.376   0.751   2.001  0.0956 -0.0423 -0.4717
 2323SOL    HW2 9322   3.295   0.770   2.048  0.2067  0.7134 -0.5655
 2323SOL    HW3 9323   3.433   0.711   2.066  0.5755  1.8368  0.3027
 2323SOL    MW4 9324   3.373   0.749   2.016  0.1735  0.3053 -0.3819
 2324SOL     OW 9325   1.067   0.797   1.537 -0.2019  0.2298 -0.0786
 2324SOL    HW2 9326   1.056   0.885   1.575 -0.3177  0.1368  0.1064
 2324SOL    HW3 9327   1.078   0.813   1.444  1.7054  0.5679  0.1954
 2324SOL    MW4 9328   1.067   0.811   1.530  0.0345  0.2621 -0.0180
 2325SOL     OW 9329   1.746   1.775   1.991 -0.8783  0.2846  0.4039
 2325SOL    HW2 9330   1.800   1.724   2.051 -0.6979  0.6190  0.5189
 2325SOL    HW3 9331   1.769   1.740   1.904  0.3181  1.1679  0.3521
 2325SOL    MW4 9332   1.756   1.763   1.987 -0.6967  0.4452  0.4122
 2326SOL     OW 9333   1.915   3.750   0.839  0.0611 -0.1114  0.1438
 2326SOL    HW2 9334   1.870   3.730   0.921  1.1941 -0.7237  0.6381
 2326SOL    HW3 9335   1.881   3.685   0.777  1.0641 -1.2945  0.8059
 2326SOL    MW4 9336   1.904   3.738   0.842  0.3429 -0.3483  0.2964
 2327SOL     OW 9337   2.557   2.667   1.078 -0.0335 -0.0386 -0.1677
 2327SOL    HW2 9338   2.544   2.761   1.091 -0.2655 -0.3601  2.0323
 2327SOL    HW3 9339   2.503   2.646   1.002 -0.4445  1.4964 -0.3165
 2327SOL    MW4 9340   2.548   2.677   1.069 -0.1184  0.1215  0.1029
 2328SOL     OW 9341   4.413   2.865   1.156 -0.0393  0.3900 -0.0737
 2328SOL    HW2 9342   4.508   2.874   1.163  0.0885 -0.6696 -0.4030
 2328SOL    HW3 9343   4.400   2.787   1.102 -1.0922  1.1888 -1.0032
 2328SOL    MW4 9344   4.424   2.856   1.150 -0.1614  0.3556 -0.2398
 2329SOL     OW 9345   0.927   3.073   4.309  0.3668  0.0721 -0.1763
 2329SOL    HW2 9346   0.986   3.027   4.370 -0.0917  1.8245  1.6254
 2329SOL    HW3 9347   0.844   3.026   4.316  0.3025  0.2904  0.6133
 2329SOL    MW4 9348   0.924   3.061   4.318  0.2978  0.3321  0.1656
 2330SOL     OW 9349   4.007   2.991   1.629 -0.0438  0.1976 -0.2584
 2330SOL    HW2 9350   4.079   2.981   1.692  0.8520  0.5659 -1.2206
 2330SOL    HW3 9351   4.012   2.913   1.574  0.1864  0.6727 -0.9083
 2330SOL    MW4 9352   4.017   2.979   1.630  0.1048  0.3089 -0.4711
 2331SOL     OW 9353   2.193   3.149   1.874  0.0671  0.3078 -0.0943
 2331SOL    HW2 9354   2.103   3.130   1.902 -0.1405  0.4731 -0.6500
 2331SOL    HW3 9355   2.239   3.168   1.956 -0.6525  1.2501  0.1103
 2331SOL    MW4 9356   2.187   3.149   1.889 -0.0552  0.4540 -0.1406
 2332SOL     OW 9357   0.718   4.549   2.711 -0.1603 -0.6429 -0.5440
 2332SOL    HW2 9358   0.684   4.484   2.650  0.6278  0.1121 -1.8172
 2332SOL    HW3 9359   0.806   4.570   2.678 -0.9162  2.0705 -0.9912
 2332SOL    MW4 9360   0.725   4.543   2.698 -0.1561 -0.1853 -0.7710
 2333SOL     OW 9361   3.565   4.570   3.619  0.2650  0.0685  0.0769
 2333SOL    HW2 9362   3.569   4.485   3.662 -0.6918 -0.1581 -0.2935
 2333SOL    HW3 9363   3.578   4.552   3.526 -1.1445  0.1979 -0.1506
 2333SOL    MW4 9364   3.568   4.557   3.612 -0.0472  0.0557 -0.0020
 2334SOL     OW 9365   1.296   4.345   3.689 -0.5189  0.1410  0.2097
 2334SOL    HW2 9366   1.312   4.343   3.594  0.8360 -0.3445  0.4428
 2334SOL    HW3 9367   1.360   4.408   3.722  0.4778 -1.3045  1.0703
 2334SOL    MW4 9368   1.307   4.353   3.681 -0.2087 -0.1138  0.3540
 2335SOL     OW 9369   2.876   0.887   1.257  0.3143  0.0447 -0.2061
 2335SOL    HW2 9370   2.806   0.904   1.193  0.6797  0.2663 -0.5538
 2335SOL    HW3 9371   2.952   0.868   1.203  0.1225 -1.8612  0.1745
 2335SOL    MW4 9372   2.876   0.887   1.241  0.3372 -0.1775 -0.2017
 2336SOL     OW 9373   3.037   1.180   3.173 -0.6425 -0.2395  0.4975
 2336SOL    HW2 9374   3.097   1.248   3.203 -1.5415  0.3077  1.0444
 2336SOL    HW3 9375   2.964   1.227   3.134 -0.1882 -0.9236 -1.2322
 2336SOL    MW4 9376   3.035   1.195   3.172 -0.7011 -0.2576  0.3415
 2337SOL     OW 9377   0.289   0.392   3.381 -0.0431  0.0305  0.0066
 2337SOL    HW2 9378   0.365   0.427   3.429 -0.5730  0.7979  0.3074
 2337SOL    HW3 9379   0.307   0.298   3.373  1.0077  0.2216 -0.0563
 2337SOL    MW4 9380   0.302   0.384   3.387  0.0256  0.1569  0.0380
 2338SOL     OW 9381   2.751   4.516   2.889  0.4845 -0.3011 -0.3903
 2338SOL    HW2 9382   2.811   4.513   2.963  1.0050 -2.6554 -0.8675
 2338SOL    HW3 9383   2.664   4.506   2.928  0.7398 -1.3212 -0.0677
 2338SOL    MW4 9384   2.747   4.514   2.904  0.5869 -0.7463 -0.4107
 2339SOL     OW 9385   1.359   3.401   3.397  0.0481 -0.0392  0.7174
 2339SOL    HW2 9386   1.371   3.495   3.393  0.9857 -0.1523  0.6002
 2339SOL    HW3 9387   1.342   3.383   3.490 -2.0831  0.4449  0.4402
 2339SOL    MW4 9388   1.358   3.411   3.409 -0.1093  0.0097  0.6653
 2340SOL     OW 9389   1.633   1.842   1.304 -0.3665  0.3863 -0.2248
 2340SOL    HW2 9390   1.625   1.748   1.290  0.5292  0.0334  1.4827
 2340SOL    HW3 9391   1.554   1.879   1.264 -0.0024 -0.9191 -2.2424
 2340SOL    MW4 9392   1.622   1.834   1.297 -0.2003  0.1675 -0.2657
 2341SOL     OW 9393   1.598   0.014   0.836 -0.3432  0.0755  0.1857
 2341SOL    HW2 9394   1.512   0.020   0.796 -0.7240  1.0171  1.1301
 2341SOL    HW3 9395   1.581  -0.006   0.928  0.3547  2.3338  0.8285
 2341SOL    MW4 9396   1.585   0.012   0.842 -0.3014  0.4977  0.3951
 2342SOL     OW 9397   1.268   0.657   3.975 -0.4464  0.0578 -0.1287
 2342SOL    HW2 9398   1.334   0.699   4.031  0.5513 -0.2591 -1.0463
 2342SOL    HW3 9399   1.314   0.641   3.892 -1.7895  0.1552 -0.9003
 2342SOL    MW4 9400   1.283   0.660   3.972 -0.4920  0.0289 -0.3516
 2343SOL     OW 9401   1.873   3.681   1.592 -0.2983 -0.0344  0.0218
 2343SOL    HW2 9402   1.944   3.621   1.615 -0.7940 -0.6600 -0.0365
 2343SOL    HW3 9403   1.845   3.651   1.505 -0.2707  0.5518 -0.1903
 2343SOL    MW4 9404   1.878   3.669   1.583 -0.3600 -0.0396 -0.0139
 2344SOL     OW 9405   2.216   4.500   0.971  0.0420 -0.7697  0.0217
 2344SOL    HW2 9406   2.206   4.593   0.989  0.1818 -0.6458 -0.5484
 2344SOL    HW3 9407   2.211   4.493   0.876  0.7643 -1.2561  0.0151
 2344SOL    MW4 9408   2.214   4.511   0.961  0.1557 -0.8175 -0.0544
 2345SOL     OW 9409   3.488   0.466   3.285  0.0411 -0.1955 -0.5851
 2345SOL    HW2 9410   3.451   0.415   3.358  1.0641 -0.4309 -0.2224
 2345SOL    HW3 9411   3.412   0.503   3.241 -0.7479 -2.3956 -1.1231
 2345SOL    MW4 9412   3.473   0.464   3.289  0.0719 -0.5168 -0.6082
 2346SOL     OW 9413   2.304   2.071   1.138  0.2583  0.0467  0.2070
 2346SOL    HW2 9414   2.269   1.993   1.181 -1.1318 -0.4806 -1.7886
 2346SOL    HW3 9415   2.387   2.043   1.100 -0.5170 -0.6339 -1.0050
 2346SOL    MW4 9416   2.310   2.057   1.139 -0.0274 -0.1126 -0.2162
 2347SOL     OW 9417   3.451   2.349   1.900 -0.1072 -0.1270  0.4390
 2347SOL    HW2 9418   3.404   2.322   1.822 -0.3022 -1.0485  0.8641
 2347SOL    HW3 9419   3.492   2.268   1.933  0.8805  0.4554  0.6730
 2347SOL    MW4 9420   3.451   2.335   1.894 -0.0026 -0.1718  0.5260
 2348SOL     OW 9421   2.493   1.430   4.392  0.0858 -0.2098  0.3711
 2348SOL    HW2 9422   2.489   1.338   4.365  0.1565  0.0273 -0.4586
 2348SOL    HW3 9423   2.402   1.459   4.392  0.0082 -0.4348  1.1962
 2348SOL    MW4 9424   2.481   1.422   4.388  0.0849 -0.2082  0.3705
 2349SOL     OW 9425   2.570   0.457   0.679 -0.1974  0.7592 -0.1995
 2349SOL    HW2 9426   2.636   0.514   0.718  1.3659 -0.4691 -1.0233
 2349SOL    HW3 9427   2.564   0.382   0.738 -0.2708  0.4872 -0.5504
 2349SOL    MW4 9428   2.578   0.455   0.692 -0.0008  0.5613 -0.3545
 2350SOL     OW 9429   2.245   2.940   0.491  0.0333 -0.4158  0.4572
 2350SOL    HW2 9430   2.172   2.977   0.541 -0.3399  0.4743 -0.7199
 2350SOL    HW3 9431   2.214   2.854   0.464 -0.5168 -0.1095  0.1068
 2350SOL    MW4 9432   2.231   2.934   0.494 -0.0885 -0.2580  0.2556
 2351SOL     OW 9433   0.629   3.266   2.594  0.2158 -0.1836 -1.1565
 2351SOL    HW2 9434   0.713   3.254   2.639 -0.3049  0.2717 -0.0441
 2351SOL    HW3 9435   0.644   3.232   2.506  0.9140 -2.1389 -0.3160
 2351SOL    MW4 9436   0.642   3.260   2.588  0.2392 -0.3815 -0.8989
 2352SOL     OW 9437   3.171   1.347   3.348  0.0943 -0.2567  0.4032
 2352SOL    HW2 9438   3.161   1.438   3.320  0.0033 -0.0381  1.1483
 2352SOL    HW3 9439   3.109   1.337   3.420 -1.3445 -1.4684 -0.9813
 2352SOL    MW4 9440   3.162   1.358   3.354 -0.1075 -0.3878  0.3188
 2353SOL     OW 9441   1.161   4.567   2.162  0.4467 -0.1497 -0.2371
 2353SOL    HW2 9442   1.151   4.640   2.101 -1.4189 -0.2314 -0.0488
 2353SOL    HW3 9443   1.135   4.490   2.111 -0.8651 -0.2494  0.5521
 2353SOL    MW4 9444   1.156   4.566   2.147  0.0275 -0.1737 -0.1081
 2354SOL     OW 9445   4.377   4.194   1.894 -0.2995  0.0663 -0.0397
 2354SOL    HW2 9446   4.299   4.163   1.940  0.1883 -0.1947  0.6310
 2354SOL    HW3 9447   4.347   4.214   1.806 -0.8662 -1.2271 -0.1506
 2354SOL    MW4 9448   4.363   4.192   1.889 -0.3099 -0.1387  0.0342
 2355SOL     OW 9449   3.549   2.731   0.985 -0.4907 -0.1624  0.3880
 2355SOL    HW2 9450   3.601   2.670   0.932 -1.4836  0.1026 -0.9243
 2355SOL    HW3 9451   3.511   2.677   1.054  0.7852 -0.5252  0.8296
 2355SOL    MW4 9452   3.551   2.716   0.987 -0.4534 -0.1753  0.2731
 2356SOL     OW 9453   2.868   3.081   0.862  0.2447  0.4153  0.5373
 2356SOL    HW2 9454   2.903   3.133   0.934 -0.3747  2.2902 -0.4810
 2356SOL    HW3 9455   2.780   3.055   0.891  0.4427  0.1790  0.9291
 2356SOL    MW4 9456   2.861   3.085   0.875  0.1891  0.6315  0.4546
 2357SOL     OW 9457   1.326   2.162   2.799 -0.2394 -0.8423 -0.3230
 2357SOL    HW2 9458   1.265   2.106   2.751 -0.0695 -0.3374 -1.1528
 2357SOL    HW3 9459   1.336   2.121   2.884 -0.7752 -1.6049 -0.6282
 2357SOL    MW4 9460   1.320   2.150   2.804 -0.2877 -0.8763 -0.4728
 2358SOL     OW 9461   3.867   3.526   4.326 -0.1356  0.1601  0.3100
 2358SOL    HW2 9462   3.962   3.532   4.341  0.1787 -0.3537 -1.3450
 2358SOL    HW3 9463   3.850   3.433   4.320 -0.6163  0.2750 -0.1352
 2358SOL    MW4 9464   3.877   3.515   4.327 -0.1575  0.1075  0.0329
 2359SOL     OW 9465   2.905   0.768   1.509  0.5539 -0.2641  0.1248
 2359SOL    HW2 9466   2.877   0.824   1.437 -0.1053 -0.2741  0.3670
 2359SOL    HW3 9467   2.824   0.733   1.546  0.8459  0.1517  1.2004
 2359SOL    MW4 9468   2.891   0.770   1.505  0.5054 -0.2105  0.2987
 2360SOL     OW 9469   0.644   4.055   1.427 -0.2181 -0.3918 -0.0802
 2360SOL    HW2 9470   0.557   4.047   1.466 -0.6645 -0.7390 -1.1197
 2360SOL    HW3 9471   0.641   3.996   1.351  0.2402  1.1424 -1.3077
 2360SOL    MW4 9472   0.632   4.046   1.422 -0.2165 -0.2352 -0.3793
 2361SOL     OW 9473   0.125   2.756   2.554 -0.2561  0.6633 -0.2345
 2361SOL    HW2 9474   0.098   2.670   2.587  0.2705  0.1937 -1.0114
 2361SOL    HW3 9475   0.047   2.811   2.564 -0.2269  0.4257  1.4034
 2361SOL    MW4 9476   0.111   2.752   2.559 -0.1828  0.5700 -0.1209
 2362SOL     OW 9477   2.803   3.443   0.577  0.5721 -0.2519  0.4054
 2362SOL    HW2 9478   2.707   3.447   0.574  0.6057  0.0156 -0.6143
 2362SOL    HW3 9479   2.823   3.351   0.565  0.3996 -0.5494  2.3128
 2362SOL    MW4 9480   2.793   3.432   0.575  0.5538 -0.2558  0.5225
 2363SOL     OW 9481   2.972   2.820   0.837  0.2159  0.0826  0.1773
 2363SOL    HW2 9482   2.937   2.908   0.846  0.0862  0.0708 -0.2312
 2363SOL    HW3 9483   3.041   2.815   0.904  0.0995  0.4292  0.3233
 2363SOL    MW4 9484   2.977   2.831   0.847  0.1834  0.1268  0.1427
 2364SOL     OW 9485   3.926   0.132   1.002  0.3507 -0.1196 -0.1660
 2364SOL    HW2 9486   3.955   0.184   0.927  0.9402 -1.0140 -0.5671
 2364SOL    HW3 9487   4.007   0.106   1.046  0.0223  0.0818  0.5665
 2364SOL    MW4 9488   3.941   0.136   0.998  0.3851 -0.2111 -0.1223
 2365SOL     OW 9489   2.879   1.116   1.641 -0.0694 -0.0691  0.1216
 2365SOL    HW2 9490   2.861   1.196   1.591 -1.1316 -0.4606 -0.1325
 2365SOL    HW3 9491   2.962   1.134   1.686 -1.6171  2.2378  2.2022
 2365SOL    MW4 9492   2.887   1.129   1.641 -0.4138  0.1836  0.3625
 2366SOL     OW 9493   0.688   1.502   3.922  0.4072 -0.1268  0.4430
 2366SOL    HW2 9494   0.681   1.540   4.010  2.2645 -0.0157  0.5624
 2366SOL    HW3 9495   0.656   1.571   3.864 -0.8248 -0.1980  1.0218
 2366SOL    MW4 9496   0.683   1.516   3.926  0.4897 -0.1215  0.5352
 2367SOL     OW 9497   3.071   0.300   2.488 -0.5204 -0.1039  0.1905
 2367SOL    HW2 9498   3.030   0.273   2.570 -0.4350 -0.1616  0.2146
 2367SOL    HW3 9499   3.012   0.366   2.452 -1.3558 -1.2133 -0.4767
 2367SOL    MW4 9500   3.058   0.305   2.494 -0.6194 -0.2579  0.1057
 2368SOL     OW 9501   1.997   1.834   3.299 -0.3865 -0.0503  0.1677
 2368SOL    HW2 9502   1.983   1.813   3.206  0.2981  0.7746 -0.1258
 2368SOL    HW3 9503   2.041   1.757   3.334  1.4966  0.5803 -0.7487
 2368SOL    MW4 9504   2.001   1.821   3.291 -0.0477  0.1417  0.0081
 2369SOL     OW 9505   3.149   1.200   1.723 -0.4027 -0.5879  0.7616
 2369SOL    HW2 9506   3.163   1.283   1.677  0.5030 -0.0250  2.0080
 2369SOL    HW3 9507   3.236   1.160   1.726 -0.3176 -0.3385  2.4666
 2369SOL    MW4 9508   3.163   1.206   1.717 -0.2720 -0.4807  1.1510
 2370SOL     OW 9509   1.177   1.469   1.693 -0.6121 -0.0964 -0.1548
 2370SOL    HW2 9510   1.216   1.426   1.769  1.7710 -1.0641 -1.8683
 2370SOL    HW3 9511   1.087   1.488   1.720  0.6637  1.2942  3.5854
 2370SOL    MW4 9512   1.170   1.466   1.707 -0.1293 -0.0406  0.1126
 2371SOL     OW 9513   3.479   2.984   2.183  0.4497  0.3750 -0.3378
 2371SOL    HW2 9514   3.409   3.049   2.194 -1.1713 -1.5120  0.8939
 2371SOL    HW3 9515   3.543   3.027   2.128  0.3882  3.8060  2.1068
 2371SOL    MW4 9516   3.478   2.998   2.177  0.2277  0.5787  0.1472
 2372SOL     OW 9517   3.937   2.780   4.255  0.2344 -0.0932 -0.0119
 2372SOL    HW2 9518   3.949   2.789   4.161  0.4090  0.8229  0.0910
 2372SOL    HW3 9519   3.865   2.718   4.265 -0.7053  0.8592 -0.7714
 2372SOL    MW4 9520   3.929   2.773   4.244  0.1335  0.1533 -0.0986
 2373SOL     OW 9521   1.448   1.023   2.820  0.3872  0.2625  0.4995
 2373SOL    HW2 9522   1.365   0.996   2.781  0.8498 -0.1324 -0.2114
 2373SOL    HW3 9523   1.430   1.025   2.914  0.1080 -1.7740  0.5141
 2373SOL    MW4 9524   1.435   1.019   2.828  0.4114 -0.0583  0.4076
 2374SOL     OW 9525   2.814   3.513   3.854 -0.0422  0.1923  0.4986
 2374SOL    HW2 9526   2.863   3.592   3.878  0.3691  0.5720 -1.5312
 2374SOL    HW3 9527   2.850   3.445   3.912  1.8563  0.7914  0.0627
 2374SOL    MW4 9528   2.826   3.515   3.865  0.2625  0.3214  0.1733
 2375SOL     OW 9529   2.836   1.306   3.048  0.6262  0.1347  0.1220
 2375SOL    HW2 9530   2.751   1.288   3.090 -0.4097 -0.3851 -2.1358
 2375SOL    HW3 9531   2.855   1.397   3.071 -0.1750  0.0190  1.2827
 2375SOL    MW4 9532   2.827   1.316   3.057  0.3838  0.0509 -0.0227
 2376SOL     OW 9533   0.957   0.212   0.611  0.1726 -0.2722  0.0919
 2376SOL    HW2 9534   1.039   0.256   0.588 -0.5469  0.7899 -0.5140
 2376SOL    HW3 9535   0.940   0.239   0.702  0.6802 -0.7941  0.3434
 2376SOL    MW4 9536   0.965   0.221   0.620  0.1446 -0.2009  0.0452
 2377SOL     OW 9537   4.099   2.385   3.898 -0.0329 -0.0683  0.0391
 2377SOL    HW2 9538   4.018   2.347   3.931  1.1314 -2.3493  0.3827
 2377SOL    HW3 9539   4.151   2.402   3.977 -0.6271  2.5578 -0.0844
 2377SOL    MW4 9540   4.095   2.382   3.913  0.0423 -0.0228  0.0682
 2378SOL     OW 9541   0.745   1.351   0.545 -0.3810 -0.2620  0.2920
 2378SOL    HW2 9542   0.722   1.358   0.453 -0.8523 -0.6265  0.3809
 2378SOL    HW3 9543   0.786   1.435   0.566  0.0948 -0.3278 -0.3498
 2378SOL    MW4 9544   0.748   1.363   0.536 -0.3804 -0.3187  0.2191
 2379SOL     OW 9545   1.098   4.328   3.872 -0.0425 -0.1888 -0.2865
 2379SOL    HW2 9546   1.006   4.338   3.845  0.0604 -0.1509 -0.6163
 2379SOL    HW3 9547   1.148   4.334   3.791  0.4439  2.2309  0.1504
 2379SOL    MW4 9548   1.092   4.330   3.858  0.0353  0.1354 -0.2724
 2380SOL     OW 9549   0.547   3.513   1.930  0.2434 -0.8786  0.4407
 2380SOL    HW2 9550   0.498   3.438   1.895  0.5623 -1.1280  0.5335
 2380SOL    HW3 9551   0.605   3.539   1.858  0.0536 -0.6462  0.3684
 2380SOL    MW4 9552   0.548   3.506   1.916  0.2604 -0.8808  0.4434
 2381SOL     OW 9553   2.010   1.154   3.436  0.2666  0.6875 -0.2822
 2381SOL    HW2 9554   2.103   1.174   3.424  0.5785 -0.8706 -0.6340
 2381SOL    HW3 9555   2.007   1.058   3.441 -1.1933  0.7793  0.8651
 2381SOL    MW4 9556   2.022   1.144   3.435  0.1152  0.4941 -0.1772
 2382SOL     OW 9557   0.802   0.762   0.211  0.3404  0.4073  0.2838
 2382SOL    HW2 9558   0.854   0.687   0.238  1.0657  0.4809 -0.8734
 2382SOL    HW3 9559   0.825   0.775   0.119 -1.6039  0.5387 -0.1995
 2382SOL    MW4 9560   0.812   0.754   0.202  0.1795  0.4343  0.0674
 2383SOL     OW 9561   2.305   1.281   1.659  0.1835 -0.1722 -0.1420
 2383SOL    HW2 9562   2.307   1.347   1.590  1.3621 -0.8198 -0.7228
 2383SOL    HW3 9563   2.271   1.202   1.617  0.7554 -0.5238  0.0453
 2383SOL    MW4 9564   2.301   1.279   1.645  0.4145 -0.3040 -0.1939
 2384SOL     OW 9565   1.691   0.248   3.199  0.0485  0.0338  0.0149
 2384SOL    HW2 9566   1.738   0.181   3.249  1.3654  0.3685 -0.7597
 2384SOL    HW3 9567   1.715   0.331   3.241 -0.5973  0.1280  0.2006
 2384SOL    MW4 9568   1.701   0.250   3.211  0.1370  0.0904 -0.0628
 2385SOL     OW 9569   1.224   3.403   4.179  0.2592  0.0634  0.2213
 2385SOL    HW2 9570   1.195   3.409   4.270  0.6453  3.1334  0.2145
 2385SOL    HW3 9571   1.143   3.407   4.128  0.1955  0.9589  0.3832
 2385SOL    MW4 9572   1.209   3.405   4.185  0.3018  0.5866  0.2418
 2386SOL     OW 9573   3.146   2.075   4.164  0.3416 -0.1619  0.4161
 2386SOL    HW2 9574   3.242   2.071   4.166  0.3280 -0.4502  0.4849
 2386SOL    HW3 9575   3.118   2.015   4.233  0.1370  0.7862  1.1758
 2386SOL    MW4 9576   3.155   2.067   4.174  0.3128 -0.0749  0.5254
 2387SOL     OW 9577   1.606   3.714   3.137 -0.3015 -0.1634 -0.3789
 2387SOL    HW2 9578   1.581   3.788   3.082 -1.5204 -0.5949 -0.4015
 2387SOL    HW3 9579   1.647   3.652   3.077  0.6705  0.4444 -0.3704
 2387SOL    MW4 9580   1.608   3.716   3.122 -0.3341 -0.1401 -0.3807
 2388SOL     OW 9581   2.375   2.310   1.793 -0.1691 -0.3014 -0.3863
 2388SOL    HW2 9582   2.331   2.260   1.862 -0.4100  0.3554 -0.0657
 2388SOL    HW3 9583   2.325   2.289   1.714 -0.2869 -0.5492 -0.2478
 2388SOL    MW4 9584   2.363   2.300   1.792 -0.2164 -0.2475 -0.3257
 2389SOL     OW 9585   0.877   3.709   4.576 -0.2248  0.6373 -0.3075
 2389SOL    HW2 9586   0.808   3.761   4.617 -0.5258  0.4083 -0.5198
 2389SOL    HW3 9587   0.830   3.645   4.523  0.0933 -1.1170  1.4689
 2389SOL    MW4 9588   0.862   3.707   4.575 -0.2225  0.3756 -0.1011
 2390SOL     OW 9589   3.464   0.532   1.098 -0.3259 -0.0715 -0.1205
 2390SOL    HW2 9590   3.480   0.446   1.138 -0.2461  0.5218  1.1278
 2390SOL    HW3 9591   3.369   0.543   1.100 -0.3970 -0.4644 -1.0009
 2390SOL    MW4 9592   3.454   0.522   1.103 -0.3247 -0.0451 -0.0719
 2391SOL     OW 9593   0.920   2.716   0.601 -0.2710 -0.1157 -0.2000
 2391SOL    HW2 9594   0.939   2.690   0.510  2.1231 -2.0036  0.7722
 2391SOL    HW3 9595   0.842   2.666   0.624  0.6728 -1.7065 -0.3753
 2391SOL    MW4 9596   0.912   2.706   0.592  0.1694 -0.5746 -0.0949
 2392SOL     OW 9597   1.559   1.676   1.655 -0.1414  0.1292  0.0568
 2392SOL    HW2 9598   1.501   1.739   1.697 -1.1890  0.7026 -2.1743
 2392SOL    HW3 9599   1.503   1.630   1.593  1.6669  0.3159 -1.7559
 2392SOL    MW4 9600   1.544   1.678   1.652 -0.0410  0.2295 -0.4767
 2393SOL     OW 9601   3.240   0.507   3.122 -0.0691  0.5076 -0.2751
 2393SOL    HW2 9602   3.301   0.556   3.067  0.9581 -1.4927 -0.9855
 2393SOL    HW3 9603   3.215   0.431   3.068  1.1078 -1.6101  2.0412
 2393SOL    MW4 9604   3.245   0.503   3.107  0.2217 -0.0357 -0.0632
 2394SOL     OW 9605   2.220   2.367   0.663 -0.3354 -0.1050  0.0409
 2394SOL    HW2 9606   2.288   2.361   0.596  0.2585  0.9105  0.5427
 2394SOL    HW3 9607   2.195   2.276   0.679  1.3057 -0.5385  0.2504
 2394SOL    MW4 9608   2.226   2.354   0.656 -0.0405 -0.0282  0.1347
 2395SOL     OW 9609   0.146   4.001   1.308  0.3073  0.0966  0.3738
 2395SOL    HW2 9610   0.233   4.018   1.272 -0.4190 -0.8772 -1.8863
 2395SOL    HW3 9611   0.163   3.962   1.394  2.1272 -1.2386 -0.5608
 2395SOL    MW4 9612   0.159   3.999   1.315  0.4516 -0.2081 -0.0477
 2396SOL     OW 9613   4.123   3.330   1.046  0.0630  0.3553  0.2204
 2396SOL    HW2 9614   4.149   3.412   1.004  1.6281 -1.0812 -1.6648
 2396SOL    HW3 9615   4.204   3.294   1.081 -0.2080 -1.5588 -1.0612
 2396SOL    MW4 9616   4.137   3.336   1.045  0.2337 -0.0868 -0.1974
 2397SOL     OW 9617   1.797   3.358   3.136 -1.0621  0.2723 -0.2958
 2397SOL    HW2 9618   1.733   3.336   3.203 -0.7266  1.0928  0.3014
 2397SOL    HW3 9619   1.876   3.380   3.185 -0.5018 -0.1542 -1.0055
 2397SOL    MW4 9620   1.799   3.358   3.151 -0.9439  0.3243 -0.3106
 2398SOL     OW 9621   0.540   3.360   4.603  0.6004 -0.5596 -0.1874
 2398SOL    HW2 9622   0.545   3.346   4.698  1.7109 -0.9103 -0.2875
 2398SOL    HW3 9623   0.560   3.275   4.565  1.3139 -0.1537 -0.7439
 2398SOL    MW4 9624   0.543   3.347   4.611  0.8410 -0.5523 -0.2740
 2399SOL     OW 9625   3.751   2.152   2.206 -0.0044  0.1913  0.1053
 2399SOL    HW2 9626   3.810   2.179   2.276 -2.2493 -0.1399  2.2299
 2399SOL    HW3 9627   3.798   2.083   2.160  1.8111  0.9070  0.8568
 2399SOL    MW4 9628   3.765   2.146   2.209 -0.0611  0.2420  0.4848
 2400SOL     OW 9629   0.294   3.443   1.053  0.3000 -0.5365 -0.1318
 2400SOL    HW2 9630   0.204   3.466   1.034 -0.0064 -1.4268  0.1989
 2400SOL    HW3 9631   0.309   3.476   1.142  0.3634 -0.2150 -0.2617
 2400SOL    MW4 9632   0.284   3.450   1.063  0.2679 -0.6115 -0.1053
 2401SOL     OW 9633   1.613   3.328   3.351  0.0579  0.4504  0.1685
 2401SOL    HW2 9634   1.526   3.360   3.374 -0.7666 -2.0521  0.6455
 2401SOL    HW3 9635   1.657   3.316   3.435  0.0832 -0.3954  0.0367
 2401SOL    MW4 9636   1.607   3.331   3.365 -0.0475  0.0086  0.2140
 2402SOL     OW 9637   2.932   3.791   1.938  0.0286  0.0053  0.1075
 2402SOL    HW2 9638   2.959   3.875   1.976  0.3929  0.7058 -1.6622
 2402SOL    HW3 9639   3.013   3.739   1.938 -0.0704 -0.1610  0.6644
 2402SOL    MW4 9640   2.947   3.796   1.943  0.0636  0.0757 -0.0525
 2403SOL     OW 9641   3.333   3.721   3.633 -0.1192 -0.2264  0.7907
 2403SOL    HW2 9642   3.390   3.660   3.679  1.8091  0.4420 -0.6476
 2403SOL    HW3 9643   3.334   3.800   3.688  0.9627  0.0416  0.4032
 2403SOL    MW4 9644   3.340   3.724   3.646  0.2779 -0.1028  0.5498
 2404SOL     OW 9645   1.535   2.414   0.634  0.3360  0.2314 -0.0095
 2404SOL    HW2 9646   1.616   2.382   0.674 -0.0587 -0.9614 -0.1435
 2404SOL    HW3 9647   1.556   2.424   0.541  0.4851  0.4048  0.0450
 2404SOL    MW4 9648   1.548   2.411   0.627  0.3036  0.0969 -0.0200
 2405SOL     OW 9649   3.496   2.088   1.954  0.0680  0.1856  0.7764
 2405SOL    HW2 9650   3.543   2.100   1.872 -0.2718 -0.9827  0.4034
 2405SOL    HW3 9651   3.535   2.009   1.993 -0.4611  0.1542  1.2486
 2405SOL    MW4 9652   3.507   2.079   1.949 -0.0466  0.0273  0.7895
 2406SOL     OW 9653   3.172   1.432   1.561 -0.1205  0.1756  0.2071
 2406SOL    HW2 9654   3.267   1.449   1.561 -0.3470  1.5062  1.0063
 2406SOL    HW3 9655   3.150   1.420   1.469  0.6886  0.7670 -0.0731
 2406SOL    MW4 9656   3.182   1.433   1.549 -0.0436  0.4292  0.2756
 2407SOL     OW 9657   1.912   1.552   4.593 -0.6106 -0.1836  0.4291
 2407SOL    HW2 9658   1.997   1.521   4.623 -0.6564 -1.3599 -0.6006
 2407SOL    HW3 9659   1.920   1.557   4.497 -1.5640  0.0601  0.3523
 2407SOL    MW4 9660   1.924   1.548   4.584 -0.7425 -0.3066  0.2831
 2408SOL     OW 9661   0.931   2.445   1.783  0.4901 -0.0079 -0.5030
 2408SOL    HW2 9662   0.953   2.508   1.715  1.3069  0.4920  0.2152
 2408SOL    HW3 9663   0.942   2.493   1.865  1.4199 -1.1762  0.0707
 2408SOL    MW4 9664   0.935   2.460   1.785  0.7206 -0.0961 -0.3326
 2409SOL     OW 9665   0.852   1.150   2.808  0.5061  0.1086  0.0087
 2409SOL    HW2 9666   0.922   1.129   2.745  0.2780  2.2386 -0.9700
 2409SOL    HW3 9667   0.898   1.156   2.892  1.0048 -1.5133 -0.1150
 2409SOL    MW4 9668   0.868   1.148   2.811  0.5418  0.1756 -0.1367
 2410SOL     OW 9669   2.277   2.985   1.144 -0.4707 -0.0422 -0.1618
 2410SOL    HW2 9670   2.223   3.045   1.091  1.5580 -0.2555 -2.5443
 2410SOL    HW3 9671   2.278   2.904   1.094  1.0915 -0.4134  0.4527
 2410SOL    MW4 9672   2.270   2.982   1.130  0.0031 -0.1193 -0.3951
 2411SOL     OW 9673   2.332   1.096   0.864  0.4819 -0.1100  0.7285
 2411SOL    HW2 9674   2.336   1.003   0.887  0.0836 -0.0123  1.2309
 2411SOL    HW3 9675   2.246   1.124   0.896  0.0094  0.1035 -0.6849
 2411SOL    MW4 9676   2.321   1.088   0.872  0.3670 -0.0689  0.6083
 2412SOL     OW 9677   4.136   2.726   2.906 -0.0647  0.0033 -0.1838
 2412SOL    HW2 9678   4.196   2.700   2.836 -1.0350 -0.0235 -1.0183
 2412SOL    HW3 9679   4.143   2.657   2.971  0.4736 -0.2255 -0.4830
 2412SOL    MW4 9680   4.144   2.714   2.906 -0.1217 -0.0304 -0.3334
 2413SOL     OW 9681   3.277   2.347   1.383 -0.1914  0.0562 -0.0964
 2413SOL    HW2 9682   3.187   2.363   1.355  0.2570  2.7496 -0.0987
 2413SOL    HW3 9683   3.307   2.275   1.328 -1.9333 -0.0383 -0.9465
 2413SOL    MW4 9684   3.269   2.339   1.372 -0.3620  0.3991 -0.2089
 2414SOL     OW 9685   3.744   2.594   4.305  0.5572 -0.4861 -0.4676
 2414SOL    HW2 9686   3.683   2.554   4.244  0.0041 -0.3595 -0.0040
 2414SOL    HW3 9687   3.810   2.526   4.321  0.5669 -0.6063 -0.9989
 2414SOL    MW4 9688   3.745   2.579   4.299  0.4855 -0.4853 -0.4765
 2415SOL     OW 9689   1.521   0.883   1.215  0.0670  0.0217  0.1206
 2415SOL    HW2 9690   1.523   0.806   1.272 -4.0216 -0.5050 -0.3014
 2415SOL    HW3 9691   1.506   0.957   1.275  1.0645  0.1259  0.2419
 2415SOL    MW4 9692   1.519   0.883   1.231 -0.3408 -0.0340  0.0809
 2416SOL     OW 9693   1.737   0.654   1.483  0.0737 -0.4163  0.0393
 2416SOL    HW2 9694   1.735   0.710   1.560  0.7312 -1.7966  1.0833
 2416SOL    HW3 9695   1.646   0.654   1.451 -0.2806 -0.1131  1.0185
 2416SOL    MW4 9696   1.724   0.661   1.489  0.1137 -0.5584  0.3063
 2417SOL     OW 9697   4.057   3.289   0.680 -0.2816  0.4603 -0.0458
 2417SOL    HW2 9698   4.120   3.356   0.654 -1.0915  1.1010 -0.3846
 2417SOL    HW3 9699   3.976   3.337   0.698 -1.7100 -0.6588 -2.9717
 2417SOL    MW4 9700   4.054   3.304   0.679 -0.5769  0.3972 -0.4766
 2418SOL     OW 9701   1.322   2.621   0.891  0.0663 -0.1553 -0.0028
 2418SOL    HW2 9702   1.359   2.565   0.959  0.2827 -0.0376 -0.0219
 2418SOL    HW3 9703   1.397   2.649   0.839  0.0374  0.6848  0.4038
 2418SOL    MW4 9704   1.337   2.617   0.893  0.0910 -0.0289  0.0483
 2419SOL     OW 9705   4.477   4.345   1.327  0.1645 -0.0645  0.1214
 2419SOL    HW2 9706   4.405   4.284   1.310  1.1024 -1.1769  0.0790
 2419SOL    HW3 9707   4.538   4.332   1.255  0.1117  1.3566 -0.2067
 2419SOL    MW4 9708   4.475   4.336   1.315  0.2813 -0.0238  0.0726
 2420SOL     OW 9709   1.339   1.146   0.352 -0.0728  0.1184 -0.5102
 2420SOL    HW2 9710   1.260   1.195   0.328 -0.1348  0.5463  0.5497
 2420SOL    HW3 9711   1.316   1.100   0.432  1.0778  1.0668  0.3890
 2420SOL    MW4 9712   1.326   1.146   0.359  0.0708  0.3000 -0.2517
 2421SOL     OW 9713   3.679   0.645   0.783  0.1464 -0.2205 -0.4532
 2421SOL    HW2 9714   3.660   0.711   0.849 -0.5583 -0.1235 -0.7520
 2421SOL    HW3 9715   3.667   0.689   0.699 -1.9726 -1.1420 -0.6834
 2421SOL    MW4 9716   3.675   0.659   0.781 -0.2261 -0.3293 -0.5230
 2422SOL     OW 9717   0.515   2.677   1.003 -0.4344  0.1342 -0.4236
 2422SOL    HW2 9718   0.542   2.745   1.064 -0.4228 -0.3667  0.1392
 2422SOL    HW3 9719   0.597   2.638   0.973 -0.5025 -1.2131  1.0849
 2422SOL    MW4 9720   0.529   2.681   1.007 -0.4418 -0.1096 -0.1504
 2423SOL     OW 9721   0.843   3.925   1.013  0.4213  0.1785  0.0894
 2423SOL    HW2 9722   0.762   3.937   1.063  1.1106 -0.0073  1.2817
 2423SOL    HW3 9723   0.824   3.853   0.953 -0.4520  0.4537  0.0334
 2423SOL    MW4 9724   0.830   3.917   1.012  0.3970  0.1903  0.2393
 2424SOL     OW 9725   0.563   3.785   0.801 -0.0495  0.1653  0.4153
 2424SOL    HW2 9726   0.571   3.878   0.822 -1.8397  0.2763  0.6692
 2424SOL    HW3 9727   0.644   3.745   0.834 -0.6344  1.1290  3.0817
 2424SOL    MW4 9728   0.575   3.792   0.808 -0.3629  0.3071  0.8006
 2425SOL     OW 9729   1.532   3.129   1.435 -0.0347  0.3827  0.0289
 2425SOL    HW2 9730   1.444   3.092   1.441 -0.3749  1.3682  1.1698
 2425SOL    HW3 9731   1.587   3.067   1.483 -0.4297  0.7680  0.9950
 2425SOL    MW4 9732   1.528   3.116   1.442 -0.1317  0.5635  0.3069
 2426SOL     OW 9733   2.485   3.166   3.537 -0.0661 -0.1503  0.4367
 2426SOL    HW2 9734   2.555   3.220   3.501 -1.1461  1.2322  0.3893
 2426SOL    HW3 9735   2.528   3.112   3.603  0.6724  2.1699  1.8959
 2426SOL    MW4 9736   2.499   3.166   3.541 -0.1111  0.3382  0.6230
 2427SOL     OW 9737   3.315   2.737   2.484  0.1110 -0.2770  0.3735
 2427SOL    HW2 9738   3.248   2.803   2.503 -0.9008 -0.9806 -0.6791
 2427SOL    HW3 9739   3.332   2.746   2.390  1.0246 -0.5434  0.5066
 2427SOL    MW4 9740   3.308   2.747   2.474  0.0981 -0.4050  0.2522
 2428SOL     OW 9741   4.193   3.379   3.369  0.3826 -0.2449  0.5256
 2428SOL    HW2 9742   4.116   3.362   3.316  0.0179 -0.1465  1.0197
 2428SOL    HW3 9743   4.209   3.473   3.360 -0.1478 -0.0807  1.2079
 2428SOL    MW4 9744   4.185   3.389   3.361  0.2645 -0.2103  0.6808
 2429SOL     OW 9745   2.759   1.776   3.499 -0.4322  0.5673  0.2455
 2429SOL    HW2 9746   2.760   1.850   3.438 -1.4026 -0.2903 -0.8396
 2429SOL    HW3 9747   2.714   1.809   3.576  1.0811  1.7685  0.6498
 2429SOL    MW4 9748   2.753   1.790   3.501 -0.3606  0.6126  0.1557
 2430SOL     OW 9749   1.529   3.805   1.405  0.2031  0.6440  0.2720
 2430SOL    HW2 9750   1.478   3.883   1.380  1.6380  0.8700 -1.9936
 2430SOL    HW3 9751   1.506   3.739   1.340 -0.4856 -0.6429  1.7935
 2430SOL    MW4 9752   1.519   3.807   1.393  0.3015  0.5040  0.1738
 2431SOL     OW 9753   4.393   1.370   2.889  0.1625 -0.0782 -0.0370
 2431SOL    HW2 9754   4.358   1.427   2.957  0.9126  0.7674 -0.3370
 2431SOL    HW3 9755   4.421   1.291   2.935  1.1605  0.7044  0.7154
 2431SOL    MW4 9756   4.392   1.367   2.904  0.3932  0.1366  0.0227
 2432SOL     OW 9757   3.921   2.138   1.089 -0.4565  0.3941 -0.0098
 2432SOL    HW2 9758   3.891   2.115   1.001  0.7469 -0.0216 -0.3364
 2432SOL    HW3 9759   3.942   2.054   1.130 -1.9508  0.5212  1.0338
 2432SOL    MW4 9760   3.920   2.124   1.083 -0.4948  0.3560  0.0848
 2433SOL     OW 9761   1.831   0.320   3.830  0.0089 -0.4665 -0.2762
 2433SOL    HW2 9762   1.757   0.265   3.855 -0.9266  0.1945 -1.4862
 2433SOL    HW3 9763   1.867   0.277   3.753  0.7485 -0.6604  0.1785
 2433SOL    MW4 9764   1.826   0.307   3.823 -0.0170 -0.4049 -0.3759
 2434SOL     OW 9765   2.571   1.554   0.608  0.3439 -0.4836 -0.2530
 2434SOL    HW2 9766   2.591   1.623   0.545  1.7454  0.2218  0.9401
 2434SOL    HW3 9767   2.486   1.520   0.580  0.6028  0.3151 -2.0747
 2434SOL    MW4 9768   2.563   1.558   0.596  0.5629 -0.2851 -0.3359
 2435SOL     OW 9769   2.556   0.802   1.399 -0.0927  0.2681 -0.3116
 2435SOL    HW2 9770   2.521   0.716   1.421 -0.5643  0.8487  1.2131
 2435SOL    HW3 9771   2.589   0.837   1.481  0.5198  1.3635 -1.0067
 2435SOL    MW4 9772   2.556   0.795   1.412 -0.0741  0.4892 -0.2022
 2436SOL     OW 9773   2.048   2.428   3.904  0.3891  0.2894 -0.2698
 2436SOL    HW2 9774   1.963   2.419   3.946  0.6819  2.4090  0.8783
 2436SOL    HW3 9775   2.028   2.445   3.812 -0.4948  2.0250  0.2232
 2436SOL    MW4 9776   2.034   2.429   3.897  0.3111  0.7980 -0.0533
 2437SOL     OW 9777   0.430   3.168   2.178  0.1496 -0.4885  0.1476
 2437SOL    HW2 9778   0.485   3.096   2.146  0.9032  0.1810 -0.0880
 2437SOL    HW3 9779   0.483   3.247   2.163 -1.1208  0.2347 -0.6321
 2437SOL    MW4 9780   0.445   3.169   2.172  0.0814 -0.3048  0.0136
 2438SOL     OW 9781   1.807   1.270   3.250  0.0618 -1.0028 -0.0767
 2438SOL    HW2 9782   1.799   1.351   3.299 -1.4469  0.2247 -2.2620
 2438SOL    HW3 9783   1.893   1.235   3.274  0.5719  1.0562  1.1476
 2438SOL    MW4 9784   1.817   1.276   3.260 -0.0700 -0.5692 -0.2035
 2439SOL     OW 9785   3.908   3.289   1.683  0.0798 -0.5298 -0.0715
 2439SOL    HW2 9786   3.968   3.290   1.759 -0.4662  0.8471  0.3645
 2439SOL    HW3 9787   3.894   3.196   1.665 -0.2325 -0.8830  1.8764
 2439SOL    MW4 9788   3.914   3.277   1.691 -0.0334 -0.3947  0.2430
 2440SOL     OW 9789   1.353   1.099   2.384  0.2085 -0.3461  0.4018
 2440SOL    HW2 9790   1.369   1.184   2.425  0.4739  0.3713 -1.1401
 2440SOL    HW3 9791   1.263   1.106   2.350  0.5567 -0.3468 -0.5178
 2440SOL    MW4 9792   1.343   1.111   2.385  0.2895 -0.2516  0.0770
 2441SOL     OW 9793   2.097   3.515   0.621 -0.0088 -0.0991 -0.2293
 2441SOL    HW2 9794   2.171   3.574   0.609 -0.4227  0.3730 -0.4759
 2441SOL    HW3 9795   2.112   3.474   0.706  0.0944  0.6226  0.1027
 2441SOL    MW4 9796   2.109   3.517   0.630 -0.0498  0.0584 -0.2180
 2442SOL     OW 9797   0.007   0.220   3.712  0.3206  0.4446 -0.0966
 2442SOL    HW2 9798  -0.016   0.311   3.725 -2.1892 -0.3769  1.4088
 2442SOL    HW3 9799  -0.046   0.192   3.637  0.7366  0.0745 -0.2611
 2442SOL    MW4 9800  -0.003   0.228   3.704  0.0444  0.2874  0.0803
 2443SOL     OW 9801   3.858   0.520   3.505 -0.0915 -0.1294  0.0140
 2443SOL    HW2 9802   3.820   0.510   3.418  1.4792  0.3788 -0.7352
 2443SOL    HW3 9803   3.930   0.457   3.508 -0.3629 -0.4099  1.0870
 2443SOL    MW4 9804   3.862   0.510   3.494  0.0799 -0.0993  0.0567
 2444SOL     OW 9805   2.965   4.451   2.142  0.1052 -0.3189  0.0498
 2444SOL    HW2 9806   2.885   4.476   2.188 -0.1378 -0.4124 -0.3244
 2444SOL    HW3 9807   3.020   4.529   2.144  0.4834 -0.6006  1.3318
 2444SOL    MW4 9808   2.962   4.464   2.148  0.1230 -0.3684  0.1696
 2445SOL     OW 9809   1.551   2.946   4.359 -0.3244 -0.1383 -0.0646
 2445SOL    HW2 9810   1.546   2.998   4.280  1.5744 -0.1121 -0.1900
 2445SOL    HW3 9811   1.642   2.955   4.388 -0.6798 -1.1489  1.4214
 2445SOL    MW4 9812   1.563   2.954   4.353 -0.1208 -0.2682  0.1149
 2446SOL     OW 9813   3.299   1.350   4.373 -0.2861  0.7961 -0.1619
 2446SOL    HW2 9814   3.224   1.376   4.427 -1.1684  0.5475 -1.2517
 2446SOL    HW3 9815   3.355   1.427   4.371 -0.4830  0.9672  0.7051
 2446SOL    MW4 9816   3.296   1.363   4.380 -0.4285  0.7859 -0.1913
 2447SOL     OW 9817   1.841   2.083   0.807  0.0307 -0.8169  0.2711
 2447SOL    HW2 9818   1.837   2.172   0.773 -0.7333 -0.2727  1.7494
 2447SOL    HW3 9819   1.914   2.084   0.869 -0.0459 -1.1820  0.3704
 2447SOL    MW4 9820   1.850   2.095   0.811 -0.0802 -0.7932  0.4792
 2448SOL     OW 9821   3.686   4.530   0.463  0.6110  0.5123 -0.0242
 2448SOL    HW2 9822   3.626   4.476   0.513 -0.8543  1.3728 -0.8259
 2448SOL    HW3 9823   3.732   4.582   0.529  0.7718 -0.4336  0.6204
 2448SOL    MW4 9824   3.684   4.530   0.478  0.4389  0.5011 -0.0450
 2449SOL     OW 9825   1.109   3.747   0.800  0.1362  0.0065  0.2022
 2449SOL    HW2 9826   1.088   3.835   0.830 -0.3796 -0.3510  0.9132
 2449SOL    HW3 9827   1.123   3.756   0.706 -0.3401  0.7735  0.2052
 2449SOL    MW4 9828   1.108   3.760   0.792  0.0053  0.0605  0.2964
 2450SOL     OW 9829   3.012   0.871   0.805 -0.2349 -0.0995  0.4377
 2450SOL    HW2 9830   2.926   0.877   0.762  0.9832  2.4663 -1.8221
 2450SOL    HW3 9831   3.067   0.824   0.742  0.7197  0.7782  0.5933
 2450SOL    MW4 9832   3.008   0.866   0.791  0.0518  0.3548  0.1601
 2451SOL     OW 9833   4.131   1.571   2.383  0.0315  0.1873 -0.3655
 2451SOL    HW2 9834   4.128   1.548   2.476 -0.8836 -1.7831 -0.8575
 2451SOL    HW3 9835   4.219   1.604   2.369 -0.1438  1.4998  1.4171
 2451SOL    MW4 9836   4.142   1.572   2.394 -0.1123  0.1005 -0.1952
 2452SOL     OW 9837   3.258   0.862   2.393  0.3800 -0.1333 -0.0267
 2452SOL    HW2 9838   3.304   0.939   2.361  0.6809  0.1505  1.0643
 2452SOL    HW3 9839   3.325   0.794   2.399  0.4573 -0.0134  0.5602
 2452SOL    MW4 9840   3.273   0.863   2.390  0.4299 -0.0800  0.1947
 2453SOL     OW 9841   1.578   1.516   1.308 -0.2705  0.2979 -0.3383
 2453SOL    HW2 9842   1.502   1.525   1.365 -0.3904  1.3427 -0.6528
 2453SOL    HW3 9843   1.650   1.491   1.367 -0.1753  2.3252  0.4202
 2453SOL    MW4 9844   1.578   1.514   1.323 -0.2737  0.7033 -0.2797
 2454SOL     OW 9845   1.255   1.021   0.587 -0.0003 -0.0581  0.0162
 2454SOL    HW2 9846   1.318   1.006   0.658  0.9204 -0.6628 -0.9026
 2454SOL    HW3 9847   1.170   1.015   0.629  0.5348  0.0382  1.1561
 2454SOL    MW4 9848   1.252   1.019   0.602  0.1917 -0.1252  0.0454
 2455SOL     OW 9849   3.991   0.298   0.500  0.1493 -0.6050  0.0522
 2455SOL    HW2 9850   3.899   0.274   0.485 -0.3798  0.6431  1.2675
 2455SOL    HW3 9851   3.995   0.391   0.478  1.0335 -0.5620  0.4078
 2455SOL    MW4 9852   3.979   0.307   0.495  0.1961 -0.4346  0.2595
 2456SOL     OW 9853   1.008   0.988   0.699 -0.0167  0.1541 -0.1090
 2456SOL    HW2 9854   0.987   1.003   0.791 -1.1103 -2.2408  0.0502
 2456SOL    HW3 9855   0.931   0.944   0.664  0.9476 -0.1587 -1.8522
 2456SOL    MW4 9856   0.995   0.984   0.707 -0.0338 -0.2031 -0.3180
 2457SOL     OW 9857   1.105   0.303   2.454  0.2344  0.1144 -0.4445
 2457SOL    HW2 9858   1.055   0.275   2.530 -1.8162 -1.8304 -2.4316
 2457SOL    HW3 9859   1.195   0.278   2.474 -0.3902 -0.9920  1.0400
 2457SOL    MW4 9860   1.110   0.296   2.467 -0.1186 -0.2882 -0.5108
 2458SOL     OW 9861   3.097   3.595   3.971  0.0172  0.9619  0.5493
 2458SOL    HW2 9862   3.183   3.614   4.009  0.9617 -0.8375 -0.6161
 2458SOL    HW3 9863   3.114   3.528   3.905 -2.1075  1.4834 -0.5855
 2458SOL    MW4 9864   3.111   3.589   3.967 -0.1385  0.7933  0.2458
 2459SOL     OW 9865   2.933   1.906   2.370  0.1601 -0.1277 -0.0984
 2459SOL    HW2 9866   2.989   1.881   2.443 -1.7396  0.4998  1.6253
 2459SOL    HW3 9867   2.940   2.002   2.366 -0.2224 -0.1055 -0.3192
 2459SOL    MW4 9868   2.941   1.916   2.379 -0.1410 -0.0420  0.0999
 2460SOL     OW 9869   2.183   3.919   1.892  0.1283  0.0779 -0.2227
 2460SOL    HW2 9870   2.223   3.860   1.827 -0.3449  1.4262 -1.7637
 2460SOL    HW3 9871   2.256   3.950   1.945  0.8965  1.0264 -1.8022
 2460SOL    MW4 9872   2.197   3.915   1.890  0.1672  0.3809 -0.6344
 2461SOL     OW 9873   3.403   3.889   3.968  0.0203  0.1522  0.1137
 2461SOL    HW2 9874   3.489   3.919   3.996 -0.2154 -0.2940  1.3574
 2461SOL    HW3 9875   3.396   3.800   4.003 -0.4224 -0.2835 -1.0830
 2461SOL    MW4 9876   3.413   3.881   3.977 -0.0692  0.0359  0.1199
 2462SOL     OW 9877   4.236   3.260   3.618 -0.5542  0.5368  0.5001
 2462SOL    HW2 9878   4.217   3.300   3.534 -1.2274  0.0690  0.4283
 2462SOL    HW3 9879   4.308   3.312   3.654 -1.9182  2.2953  0.7626
 2462SOL    MW4 9880   4.243   3.272   3.612 -0.8230  0.7071  0.5253
 2463SOL     OW 9881   3.019   0.335   3.440  0.2933  0.3219  0.0711
 2463SOL    HW2 9882   3.081   0.311   3.509 -0.0583 -1.8877 -0.3612
 2463SOL    HW3 9883   2.984   0.420   3.468  1.2710  0.1632  1.8383
 2463SOL    MW4 9884   3.023   0.343   3.453  0.3759  0.0094  0.2473
 2464SOL     OW 9885   1.449   3.460   0.364 -0.6973  0.2143  0.1665
 2464SOL    HW2 9886   1.426   3.495   0.278 -0.8959 -1.1367 -0.3554
 2464SOL    HW3 9887   1.365   3.440   0.406 -0.5929  0.3930  0.4595
 2464SOL    MW4 9888   1.435   3.462   0.358 -0.7097  0.0596  0.1363
 2465SOL     OW 9889   3.160   3.637   1.883  0.4037 -0.1034 -0.0958
 2465SOL    HW2 9890   3.189   3.660   1.971  0.2518  0.2427 -0.1364
 2465SOL    HW3 9891   3.133   3.546   1.889  1.7535 -0.5198 -0.1126
 2465SOL    MW4 9892   3.160   3.628   1.895  0.5618 -0.1127 -0.1034
 2466SOL     OW 9893   1.491   0.664   1.382  0.4442  0.0779 -0.1178
 2466SOL    HW2 9894   1.424   0.668   1.450 -0.3410  0.4435 -0.8988
 2466SOL    HW3 9895   1.478   0.580   1.339 -0.0308  0.4943 -0.7900
 2466SOL    MW4 9896   1.481   0.654   1.385  0.2780  0.1811 -0.3095
 2467SOL     OW 9897   1.459   1.692   3.844  0.2791  0.1908 -0.2286
 2467SOL    HW2 9898   1.431   1.645   3.923 -1.1329 -0.1282 -0.9102
 2467SOL    HW3 9899   1.533   1.745   3.873 -0.0504 -0.1386  1.2500
 2467SOL    MW4 9900   1.465   1.692   3.858  0.0494  0.1052 -0.1234
 2468SOL     OW 9901   3.847   4.647   1.941  0.1711  0.3351 -0.0219
 2468SOL    HW2 9902   3.878   4.556   1.944 -0.2458  0.1874 -0.0005
 2468SOL    HW3 9903   3.846   4.675   2.032  1.3132  0.7178 -0.1278
 2468SOL    MW4 9904   3.851   4.638   1.953  0.2668  0.3661 -0.0331
 2469SOL     OW 9905   2.075   0.024   3.215 -0.3615  0.0523 -0.4655
 2469SOL    HW2 9906   2.154  -0.029   3.220  0.4112  1.1930 -0.2841
 2469SOL    HW3 9907   2.021  -0.019   3.148 -0.7036 -2.1637  1.1867
 2469SOL    MW4 9908   2.078   0.012   3.207 -0.3047 -0.0896 -0.2236
 2470SOL     OW 9909   2.948   2.535   2.601 -0.2249  0.1872 -0.0958
 2470SOL    HW2 9910   2.980   2.501   2.684  0.4379  0.4645 -0.2344
 2470SOL    HW3 9911   3.011   2.504   2.535 -1.4892 -1.1659 -0.6881
 2470SOL    MW4 9912   2.960   2.527   2.603 -0.3042  0.0453 -0.1922
 2471SOL     OW 9913   1.984   0.611   0.677  0.3706  0.6639 -0.1006
 2471SOL    HW2 9914   2.043   0.565   0.618  0.0759 -0.2465  0.3062
 2471SOL    HW3 9915   1.985   0.559   0.758 -0.0163  1.3311  0.3411
 2471SOL    MW4 9916   1.992   0.598   0.680  0.2807  0.6318  0.0114
 2472SOL     OW 9917   1.369   2.028   3.043 -0.1184  0.2573  0.4531
 2472SOL    HW2 9918   1.465   2.023   3.051  0.2527  0.7693 -2.9591
 2472SOL    HW3 9919   1.345   2.101   3.098  1.3447 -0.4864  2.1383
 2472SOL    MW4 9920   1.379   2.037   3.051  0.1236  0.2267  0.2252
 2473SOL     OW 9921   0.869   3.410   2.223 -0.0744 -0.3751  0.3745
 2473SOL    HW2 9922   0.880   3.421   2.317 -0.8201 -0.6541  0.4989
 2473SOL    HW3 9923   0.774   3.410   2.210  0.0234 -0.3106 -0.3807
 2473SOL    MW4 9924   0.858   3.412   2.233 -0.1599 -0.4034  0.2913
 2474SOL     OW 9925   4.157   2.121   3.287 -0.0716 -0.3608 -0.1192
 2474SOL    HW2 9926   4.227   2.128   3.222  1.0461  1.9249  1.3099
 2474SOL    HW3 9927   4.080   2.157   3.242  0.9010  2.0616  0.0805
 2474SOL    MW4 9928   4.156   2.127   3.272  0.2042  0.2604  0.0957
 2475SOL     OW 9929   1.250   3.366   1.129 -0.0644  0.0409 -0.0356
 2475SOL    HW2 9930   1.215   3.455   1.123 -0.9867 -0.4077 -1.7350
 2475SOL    HW3 9931   1.343   3.376   1.110  0.0260  0.7528  0.7206
 2475SOL    MW4 9932   1.257   3.379   1.126 -0.1741  0.0756 -0.1601
 2476SOL     OW 9933   1.773   3.690   1.862  0.2420  0.1810  0.6049
 2476SOL    HW2 9934   1.805   3.684   1.772  0.3187  0.4697  0.6130
 2476SOL    HW3 9935   1.712   3.763   1.861 -0.7750 -0.6591  0.4886
 2476SOL    MW4 9936   1.769   3.698   1.850  0.1180  0.1083  0.5907
 2477SOL     OW 9937   4.315   2.933   1.420  0.1409  0.0636 -0.6313
 2477SOL    HW2 9938   4.257   3.009   1.406 -0.1393 -0.0519 -0.1325
 2477SOL    HW3 9939   4.353   2.916   1.334 -2.4585 -1.3934 -1.5506
 2477SOL    MW4 9940   4.312   2.941   1.407 -0.2390 -0.1438 -0.6868
 2478SOL     OW 9941   0.386   4.057   1.565 -0.5743 -0.1202 -0.3355
 2478SOL    HW2 9942   0.314   4.120   1.570  0.1694  0.6052  1.3359
 2478SOL    HW3 9943   0.372   3.998   1.639  0.0095 -0.5729 -0.5776
 2478SOL    MW4 9944   0.375   4.057   1.575 -0.3991 -0.0842 -0.1469
 2479SOL     OW 9945   1.738   1.550   3.918  0.4198 -0.1123 -0.3649
 2479SOL    HW2 9946   1.741   1.537   3.823 -3.0296  1.4168 -0.7616
 2479SOL    HW3 9947   1.736   1.645   3.929  0.1014 -0.2866  1.2188
 2479SOL    MW4 9948   1.738   1.561   3.907 -0.0773  0.0664 -0.2083
 2480SOL     OW 9949   2.739   0.170   1.838  0.5052  0.5354  0.2741
 2480SOL    HW2 9950   2.709   0.141   1.924 -1.6355  1.2852 -0.1997
 2480SOL    HW3 9951   2.766   0.261   1.852 -0.5053  0.8790  0.0101
 2480SOL    MW4 9952   2.739   0.179   1.851  0.0894  0.6797  0.1767
 2481SOL     OW 9953   1.095   4.209   4.219 -0.6434  0.1966  0.0202
 2481SOL    HW2 9954   1.109   4.117   4.196 -0.1728  0.2376  0.1225
 2481SOL    HW3 9955   1.180   4.250   4.204 -1.3990  1.0510 -2.0326
 2481SOL    MW4 9956   1.108   4.202   4.214 -0.6810  0.3147 -0.2372
 2482SOL     OW 9957   0.921   1.851   2.969 -0.7233  0.2335 -0.2700
 2482SOL    HW2 9958   1.008   1.849   2.929  0.0451  1.2568  1.2927
 2482SOL    HW3 9959   0.863   1.885   2.900  0.4673  1.4087 -0.7220
 2482SOL    MW4 9960   0.925   1.855   2.955 -0.4648  0.5236 -0.1235
 2483SOL     OW 9961   2.085   0.534   1.895  0.2769 -0.6835 -0.3247
 2483SOL    HW2 9962   2.003   0.485   1.888 -1.3976  2.0757 -0.5442
 2483SOL    HW3 9963   2.113   0.548   1.805  0.3082 -0.4599 -0.2789
 2483SOL    MW4 9964   2.078   0.529   1.882  0.0601 -0.2900 -0.3476
 2484SOL     OW 9965   1.920   2.266   1.559  0.0327  0.2601 -0.8668
 2484SOL    HW2 9966   1.923   2.336   1.624 -1.3765  1.8876 -2.4954
 2484SOL    HW3 9967   1.921   2.185   1.611 -0.5770  1.5107  1.1495
 2484SOL    MW4 9968   1.920   2.264   1.574 -0.2337  0.6398 -0.8156
 2485SOL     OW 9969   3.320   2.307   3.303  0.1517  0.0929 -0.1030
 2485SOL    HW2 9970   3.406   2.321   3.342  0.9584  0.0455 -1.8186
 2485SOL    HW3 9971   3.259   2.345   3.365  1.5926  2.4523 -0.0666
 2485SOL    MW4 9972   3.323   2.314   3.316  0.4483  0.3979 -0.3245
 2486SOL     OW 9973   1.801   4.441   0.941 -0.2783  0.1373 -1.0270
 2486SOL    HW2 9974   1.848   4.358   0.942 -0.9082 -0.2645 -2.5836
 2486SOL    HW3 9975   1.867   4.506   0.918  0.6315  0.3809  2.0593
 2486SOL    MW4 9976   1.816   4.438   0.938 -0.2413  0.1164 -0.8252
 2487SOL     OW 9977   3.270   0.050   1.187  0.3372 -0.4156 -0.6697
 2487SOL    HW2 9978   3.225  -0.017   1.239  0.6482  0.9616  1.4468
 2487SOL    HW3 9979   3.347   0.072   1.239  1.1066  0.4166 -2.1399
 2487SOL    MW4 9980   3.274   0.044   1.201  0.4798 -0.1241 -0.5844
 2488SOL     OW 9981   0.634   2.574   1.345 -0.2272  0.0670 -0.2830
 2488SOL    HW2 9982   0.607   2.487   1.375 -2.2367  0.7025 -0.2038
 2488SOL    HW3 9983   0.554   2.616   1.314  1.0608  1.1330 -2.3227
 2488SOL    MW4 9984   0.620   2.568   1.345 -0.3224  0.2915 -0.5417
 2489SOL     OW 9985   4.023   4.164   1.045  0.2428 -0.1458 -0.0729
 2489SOL    HW2 9986   4.111   4.134   1.024  0.4119  1.3069 -1.4954
 2489SOL    HW3 9987   3.969   4.136   0.971 -0.4478 -0.7273  0.6279
 2489SOL    MW4 9988   4.027   4.156   1.032  0.1740 -0.0308 -0.1681
 2490SOL     OW 9989   4.387   1.687   2.333 -0.6413 -0.1564 -0.3564
 2490SOL    HW2 9990   4.412   1.658   2.421 -0.1518  0.0433 -0.4246
 2490SOL    HW3 9991   4.352   1.775   2.345  1.4843  0.7587 -0.6254
 2490SOL    MW4 9992   4.386   1.695   2.346 -0.2963 -0.0094 -0.4009
 2491SOL     OW 9993   3.035   4.637   0.863  0.1967  0.8524  0.1458
 2491SOL    HW2 9994   2.964   4.578   0.890  1.0396  0.5476  1.7642
 2491SOL    HW3 9995   3.115   4.588   0.881  0.8259  0.8186 -2.5918
 2491SOL    MW4 9996   3.036   4.623   0.869  0.3910  0.8077 -0.0019
 2492SOL     OW 9997   3.640   0.776   1.029 -0.5042 -0.0433  0.3062
 2492SOL    HW2 9998   3.729   0.783   1.065 -0.3787  1.3892 -0.2693
 2492SOL    HW3 9999   3.607   0.693   1.064  0.8977 -0.3739  0.8808
 2492SOL    MW410000   3.648   0.766   1.039 -0.3027  0.1021  0.3061
 2493SOL     OW10001   1.897   1.415   1.668 -0.1308 -0.2672  0.1075
 2493SOL    HW210002   1.964   1.378   1.726  0.9897  1.4474 -0.0542
 2493SOL    HW310003   1.883   1.503   1.702  0.3290  0.6566 -2.0695
 2493SOL    MW410004   1.904   1.422   1.680  0.0777  0.0809 -0.2010
 2494SOL     OW10005   3.872   1.715   3.318 -0.8638  0.1061 -0.0614
 2494SOL    HW210006   3.944   1.748   3.266 -1.8468  4.3088  1.0580
 2494SOL    HW310007   3.908   1.707   3.407 -1.1713  0.1109  0.0653
 2494SOL    MW410008   3.886   1.718   3.323 -1.0341  0.6612  0.1030
 2495SOL     OW10009   3.198   3.302   0.840 -0.0949  0.1108 -0.0380
 2495SOL    HW210010   3.202   3.398   0.841  1.6475  0.0610  1.1065
 2495SOL    HW310011   3.174   3.280   0.750 -1.7256  1.6479  0.0104
 2495SOL    MW410012   3.196   3.312   0.828 -0.0802  0.3070  0.1194
 2496SOL     OW10013   0.142   1.461   1.650 -0.0760  0.1012  0.1811
 2496SOL    HW210014   0.192   1.439   1.729  0.1444  1.5736  0.4583
 2496SOL    HW310015   0.105   1.377   1.621 -0.2590 -0.4298  1.9165
 2496SOL    MW410016   0.143   1.447   1.657 -0.0711  0.2254  0.4467
 2497SOL     OW10017   1.668   2.562   1.373  0.0506  0.4049 -0.1585
 2497SOL    HW210018   1.688   2.469   1.366  0.7581  0.5768 -0.5143
 2497SOL    HW310019   1.731   2.604   1.314  0.0409  1.1468  0.3555
 2497SOL    MW410020   1.679   2.555   1.364  0.1426  0.5255 -0.1377
 2498SOL     OW10021   3.568   0.749   3.330  0.1979 -0.0402 -0.4376
 2498SOL    HW210022   3.572   0.654   3.316 -0.2968 -0.2369  0.7463
 2498SOL    HW310023   3.477   0.772   3.311  0.0397  0.0201  0.3980
 2498SOL    MW410024   3.557   0.739   3.326  0.1117 -0.0582 -0.1712
 2499SOL     OW10025   0.463   4.652   3.025  0.1789  0.1082 -0.2367
 2499SOL    HW210026   0.501   4.583   2.971  0.4466  0.9836 -1.1593
 2499SOL    HW310027   0.531   4.672   3.090  0.2480 -0.2113 -0.2092
 2499SOL    MW410028   0.477   4.645   3.027  0.2233  0.1816 -0.3548
 2500SOL     OW10029   1.062   4.189   3.478 -0.2637  0.3100  0.3643
 2500SOL    HW210030   0.996   4.176   3.409 -0.5540  0.9994  0.5119
 2500SOL    HW310031   1.051   4.280   3.506 -0.3596 -0.0465  1.5335
 2500SOL    MW410032   1.052   4.199   3.473 -0.3147  0.3539  0.5380
 2501SOL     OW10033   1.296   2.081   2.446 -0.3460 -0.4665 -0.0007
 2501SOL    HW210034   1.236   2.007   2.451 -0.1193 -0.6967 -0.6834
 2501SOL    HW310035   1.333   2.076   2.358 -0.0108  0.2083  0.1019
 2501SOL    MW410036   1.293   2.070   2.435 -0.2718 -0.4078 -0.0772
 2502SOL     OW10037   3.932   0.059   1.365  0.1406 -0.5139 -0.8137
 2502SOL    HW210038   3.929   0.150   1.338  2.4113 -0.4043 -0.8169
 2502SOL    HW310039   3.851   0.045   1.413 -1.0167  1.0195 -2.2565
 2502SOL    MW410040   3.921   0.069   1.368  0.2875 -0.2971 -1.0045
 2503SOL     OW10041   0.734   2.059   1.566  0.1587  0.1265  0.5416
 2503SOL    HW210042   0.655   2.049   1.513  0.7078 -0.0691 -0.2370
 2503SOL    HW310043   0.797   2.102   1.509  0.6784  0.1190  1.1023
 2503SOL    MW410044   0.732   2.063   1.552  0.2997  0.0997  0.5128
 2504SOL     OW10045   2.905   2.357   3.040 -0.5304  0.0868 -0.9390
 2504SOL    HW210046   2.820   2.353   2.996 -1.6792  0.2671  1.1769
 2504SOL    HW310047   2.912   2.272   3.084 -0.1730  0.5443 -0.1130
 2504SOL    MW410048   2.895   2.345   3.040 -0.6348  0.1709 -0.5509
 2505SOL     OW10049   1.129   1.286   0.608  0.4973  0.3265 -0.2421
 2505SOL    HW210050   1.120   1.321   0.520  2.0953  0.2591 -0.4555
 2505SOL    HW310051   1.175   1.203   0.596 -2.9205 -1.7241  0.2875
 2505SOL    MW410052   1.134   1.280   0.595  0.2572  0.0470 -0.2003
 2506SOL     OW10053   2.216   1.831   1.237 -0.4249  0.1470 -0.4058
 2506SOL    HW210054   2.286   1.794   1.291 -0.1340  1.0430 -0.1690
 2506SOL    HW310055   2.141   1.837   1.297 -0.3808  0.2389 -0.3599
 2506SOL    MW410056   2.215   1.827   1.252 -0.3807  0.2774 -0.3685
 2507SOL     OW10057   0.533   1.051   2.056  0.4025  0.4039  0.2728
 2507SOL    HW210058   0.518   1.118   2.123 -0.9729  0.6664 -0.2760
 2507SOL    HW310059   0.482   1.081   1.981  1.8114  0.0279 -0.8497
 2507SOL    MW410060   0.524   1.064   2.055  0.4069  0.3889  0.0523
 2508SOL     OW10061   3.303   0.539   2.767  0.5223 -0.3491  0.0242
 2508SOL    HW210062   3.209   0.540   2.782  0.6609 -2.3906  1.1922
 2508SOL    HW310063   3.314   0.511   2.677 -0.0086  1.2955 -0.5707
 2508SOL    MW410064   3.292   0.536   2.757  0.4706 -0.4015  0.0998
 2509SOL     OW10065   1.931   0.688   3.032 -0.1282 -0.0119  0.5045
 2509SOL    HW210066   1.915   0.698   2.938 -0.6714  0.0666  0.6060
 2509SOL    HW310067   1.962   0.774   3.060 -0.4084  0.0967  0.4850
 2509SOL    MW410068   1.933   0.701   3.023 -0.2369  0.0128  0.5153
 2510SOL     OW10069   0.221   2.897   1.747 -0.2579 -0.2027  0.0560
 2510SOL    HW210070   0.305   2.941   1.737 -0.4269 -0.1228 -1.0690
 2510SOL    HW310071   0.230   2.816   1.698 -0.7146 -0.3518  0.2146
 2510SOL    MW410072   0.233   2.892   1.739 -0.3405 -0.2118 -0.0715
 2511SOL     OW10073   3.225   1.664   2.991 -0.1202  0.0084  0.3204
 2511SOL    HW210074   3.138   1.650   2.955 -0.4764  0.6145  0.9330
 2511SOL    HW310075   3.244   1.756   2.974  0.2846 -0.0556  0.4223
 2511SOL    MW410076   3.216   1.675   2.984 -0.1138  0.0800  0.4147
 2512SOL     OW10077   1.466   2.803   2.763 -0.1395  0.0072  0.2198
 2512SOL    HW210078   1.431   2.798   2.852  0.3205 -2.0053  0.3101
 2512SOL    HW310079   1.560   2.817   2.775  0.1515 -1.6650  0.1141
 2512SOL    MW410080   1.474   2.804   2.777 -0.0404 -0.4789  0.2178
 2513SOL     OW10081   0.882   1.763   1.386 -0.3636 -0.0856  0.0772
 2513SOL    HW210082   0.867   1.794   1.475  0.2943  1.0196 -0.1964
 2513SOL    HW310083   0.975   1.776   1.370 -0.5958  0.3328 -1.0005
 2513SOL    MW410084   0.892   1.769   1.396 -0.3074  0.1154 -0.1011
 2514SOL     OW10085   0.887   3.622   3.912 -0.0918  0.5005 -0.4257
 2514SOL    HW210086   0.935   3.636   3.831 -0.4497  0.9352 -0.5656
 2514SOL    HW310087   0.934   3.673   3.978 -0.2041  0.6978 -0.5015
 2514SOL    MW410088   0.899   3.630   3.910 -0.1538  0.5839 -0.4541
 2515SOL     OW10089   1.608   3.932   1.008 -0.0064  0.7383 -0.4193
 2515SOL    HW210090   1.637   3.862   1.067  0.2252  0.1179 -1.2720
 2515SOL    HW310091   1.582   4.003   1.067 -1.0477 -0.3709  0.4761
 2515SOL    MW410092   1.609   3.932   1.024 -0.1132  0.5101 -0.4137
 2516SOL     OW10093   1.947   3.236   3.873  0.2102 -0.0133 -0.3556
 2516SOL    HW210094   2.013   3.211   3.807 -0.9070 -1.9422 -0.7851
 2516SOL    HW310095   1.871   3.263   3.822 -0.4846 -1.0259  0.1292
 2516SOL    MW410096   1.946   3.236   3.857 -0.0289 -0.4014 -0.3483
 2517SOL     OW10097   3.602   3.063   3.132  0.7505 -0.2853  0.0751
 2517SOL    HW210098   3.667   3.003   3.168  0.2732 -0.9564 -0.1666
 2517SOL    HW310099   3.586   3.127   3.201  1.7635 -0.0451  0.0884
 2517SOL    MW410100   3.608   3.064   3.146  0.8212 -0.3421  0.0449
 2518SOL     OW10101   3.452   0.937   2.973  0.1006 -0.0792  0.2375
 2518SOL    HW210102   3.439   0.959   3.065  1.0239  1.3012  0.0452
 2518SOL    HW310103   3.377   0.977   2.929  1.2121  1.8321  0.0268
 2518SOL    MW410104   3.440   0.945   2.979  0.3691  0.3551  0.1843
 2519SOL     OW10105   3.609   0.931   1.961  0.1203 -0.2051 -0.4245
 2519SOL    HW210106   3.532   0.876   1.975  0.9611 -1.4058 -0.4727
 2519SOL    HW310107   3.582   1.018   1.992 -1.3198 -0.5528 -0.6409
 2519SOL    MW410108   3.595   0.935   1.967  0.0412 -0.4093 -0.4594
 2520SOL     OW10109   0.997   0.257   1.505 -0.2757 -0.0014  0.7937
 2520SOL    HW210110   1.079   0.284   1.465  0.9496 -0.0920  3.1818
 2520SOL    HW310111   1.008   0.276   1.598 -2.6866 -0.6846  1.2560
 2520SOL    MW410112   1.009   0.263   1.512 -0.4322 -0.1035  1.1698
 2521SOL     OW10113   2.326   1.551   2.964 -0.4304  0.8155 -0.2583
 2521SOL    HW210114   2.373   1.497   2.899 -0.3615  1.1971 -0.5270
 2521SOL    HW310115   2.293   1.625   2.914 -0.4799  1.0525  0.1264
 2521SOL    MW410116   2.328   1.554   2.949 -0.4279  0.8971 -0.2430
 2522SOL     OW10117   0.276   4.424   2.125 -0.1252  0.0018  0.0790
 2522SOL    HW210118   0.188   4.390   2.107 -0.3281  0.5478  0.0451
 2522SOL    HW310119   0.308   4.368   2.196 -0.2294 -0.6420 -0.3683
 2522SOL    MW410120   0.269   4.412   2.132 -0.1657 -0.0111  0.0155
 2523SOL     OW10121   0.005   3.363   1.964  0.3963 -0.1413  0.6142
 2523SOL    HW210122   0.069   3.292   1.976  1.4940  0.6265 -0.6446
 2523SOL    HW310123  -0.060   3.327   1.903  0.7923 -0.1642  0.2082
 2523SOL    MW410124   0.004   3.348   1.958  0.5934 -0.0430  0.3946
 2524SOL     OW10125   2.262   0.391   2.061  0.2784  0.0997  0.6167
 2524SOL    HW210126   2.204   0.432   1.998  0.5010  0.9074  0.9309
 2524SOL    HW310127   2.254   0.297   2.043 -1.3215  0.1708  0.8225
 2524SOL    MW410128   2.253   0.384   2.051  0.0967  0.2157  0.6853
 2525SOL     OW10129   4.353   0.275   0.668  0.0590  0.2090 -0.0424
 2525SOL    HW210130   4.304   0.218   0.609  1.3487 -0.1685 -0.7798
 2525SOL    HW310131   4.294   0.348   0.687 -1.1331 -0.7280 -0.1246
 2525SOL    MW410132   4.339   0.277   0.663  0.0718  0.0356 -0.1505
 2526SOL     OW10133   1.281   2.391   3.591 -0.1359  0.8689 -0.3708
 2526SOL    HW210134   1.376   2.389   3.575  0.2721  0.9816  1.8698
 2526SOL    HW310135   1.243   2.403   3.504  1.8798  0.4131 -1.3674
 2526SOL    MW410136   1.289   2.392   3.577  0.1838  0.8236 -0.2066
 2527SOL     OW10137   1.829   2.867   4.254  0.6447  0.2968  0.1108
 2527SOL    HW210138   1.780   2.829   4.181 -1.6489  0.5014  1.4828
 2527SOL    HW310139   1.887   2.930   4.214 -1.7510  1.5954 -1.4339
 2527SOL    MW410140   1.830   2.870   4.239  0.0260  0.4952  0.0880
 2528SOL     OW10141   1.444   2.815   3.526 -0.0561  0.1474  0.1928
 2528SOL    HW210142   1.350   2.801   3.513 -0.0756  0.6653 -0.2158
 2528SOL    HW310143   1.486   2.757   3.463 -0.0999 -0.0616  0.3542
 2528SOL    MW410144   1.437   2.805   3.516 -0.0644  0.1882  0.1602
 2529SOL     OW10145   0.274   2.280   2.272  0.1549  0.4272 -0.2714
 2529SOL    HW210146   0.191   2.310   2.309  0.2099 -0.0780  0.2620
 2529SOL    HW310147   0.249   2.224   2.198  0.0630  2.7087 -2.0095
 2529SOL    MW410148   0.260   2.276   2.267  0.1501  0.6616 -0.4303
 2530SOL     OW10149   2.161   3.765   0.736 -0.0489  0.2377 -0.3539
 2530SOL    HW210150   2.073   3.746   0.768  0.6119 -1.3569  0.5317
 2530SOL    HW310151   2.147   3.811   0.653 -1.7105 -2.2160 -1.4899
 2530SOL    MW410152   2.148   3.769   0.729 -0.1809 -0.2964 -0.3869
 2531SOL     OW10153   3.617   0.360   0.723  0.0996  0.4080 -0.0813
 2531SOL    HW210154   3.614   0.455   0.724 -1.3548  0.4040 -1.1930
 2531SOL    HW310155   3.657   0.335   0.806  1.2269  2.0079 -0.1408
 2531SOL    MW410156   3.622   0.369   0.734  0.0565  0.6186 -0.2359
 2532SOL     OW10157   2.209   0.783   2.819 -0.3570 -0.1814  0.1388
 2532SOL    HW210158   2.289   0.767   2.769  0.1070 -0.1610  0.8760
 2532SOL    HW310159   2.140   0.739   2.769 -0.0752  0.7553 -1.0898
 2532SOL    MW410160   2.210   0.775   2.806 -0.2586 -0.0551  0.0740
 2533SOL     OW10161   1.883   0.865   3.906 -0.1688 -0.2747  0.0407
 2533SOL    HW210162   1.969   0.904   3.886 -0.0100 -0.4558  0.3726
 2533SOL    HW310163   1.868   0.804   3.834 -0.9447  1.2323 -1.1209
 2533SOL    MW410164   1.893   0.862   3.894 -0.2502 -0.0998 -0.0688
 2534SOL     OW10165   3.214   3.231   4.044  0.0308  0.2563 -0.6966
 2534SOL    HW210166   3.154   3.272   3.981 -1.7294  0.4268  1.0206
 2534SOL    HW310167   3.157   3.177   4.099  1.2360  1.5600  1.9203
 2534SOL    MW410168   3.198   3.229   4.043 -0.0424  0.4508 -0.1247
 2535SOL     OW10169   2.994   1.929   2.814 -0.1160  0.3736  0.1066
 2535SOL    HW210170   2.982   1.870   2.740  1.0091  3.2678 -2.5257
 2535SOL    HW310171   3.084   1.912   2.844  0.3010  0.8951 -0.8175
 2535SOL    MW410172   3.005   1.919   2.808  0.0875  0.8242 -0.3626
 2536SOL     OW10173   4.262   0.014   2.968  0.7324 -0.3969  0.0036
 2536SOL    HW210174   4.345  -0.029   2.944  0.8802  0.5646 -1.2550
 2536SOL    HW310175   4.249   0.080   2.900 -0.7072 -0.0510  0.6051
 2536SOL    MW410176   4.272   0.017   2.956  0.5620 -0.2244 -0.0831
 2537SOL     OW10177   2.562   1.198   2.423  0.1743  0.1246  0.2398
 2537SOL    HW210178   2.485   1.145   2.403  0.1396  0.0014  0.6999
 2537SOL    HW310179   2.529   1.288   2.425  0.2003  0.1495 -0.3712
 2537SOL    MW410180   2.547   1.203   2.421  0.1732  0.1116  0.2199
 2538SOL     OW10181   1.235   4.050   1.124 -0.7991 -0.2818 -0.1531
 2538SOL    HW210182   1.181   4.108   1.070  0.0693 -1.7588 -2.7108
 2538SOL    HW310183   1.173   3.991   1.166 -1.3411 -1.0865 -2.0048
 2538SOL    MW410184   1.220   4.050   1.122 -0.7561 -0.5828 -0.7349
 2539SOL     OW10185   3.404   1.822   2.314  0.0142  0.1644 -0.2605
 2539SOL    HW210186   3.311   1.838   2.300 -0.0110  1.7788  1.4510
 2539SOL    HW310187   3.419   1.846   2.406  1.5578 -2.7971  0.3300
 2539SOL    MW410188   3.394   1.827   2.324  0.2145 -0.0134  0.0432
 2540SOL     OW10189   1.556   1.104   4.599  0.0158 -0.6664  0.7601
 2540SOL    HW210190   1.477   1.157   4.595 -0.2845 -1.1229  0.6290
 2540SOL    HW310191   1.628   1.168   4.599 -0.3530 -0.2477  1.0648
 2540SOL    MW410192   1.555   1.120   4.598 -0.0725 -0.6714  0.7830
 2541SOL     OW10193   2.744   0.860   2.382 -0.4580  0.7567  0.1723
 2541SOL    HW210194   2.732   0.853   2.477  1.6424  0.4129  0.4355
 2541SOL    HW310195   2.782   0.947   2.369  0.5515  0.2668 -0.2063
 2541SOL    MW410196   2.747   0.871   2.393 -0.0477  0.6467  0.1571
 2542SOL     OW10197   1.005   3.637   2.109  0.2667 -0.7127 -0.0131
 2542SOL    HW210198   1.040   3.594   2.031 -1.3743 -0.8393 -0.6935
 2542SOL    HW310199   0.949   3.571   2.149 -2.7935  0.9456 -1.4075
 2542SOL    MW410200   1.002   3.622   2.104 -0.3536 -0.5106 -0.2869
 2543SOL     OW10201   3.201   1.558   0.714  0.2026  0.0151  0.6202
 2543SOL    HW210202   3.109   1.554   0.689  0.3160 -1.7383  0.4149
 2543SOL    HW310203   3.244   1.496   0.655  1.4825  0.6666  0.8612
 2543SOL    MW410204   3.195   1.550   0.703  0.3864 -0.1303  0.6249
 2544SOL     OW10205   2.579   0.033   3.663  0.2772  0.0443  0.7661
 2544SOL    HW210206   2.596  -0.061   3.652  1.8768  0.5310 -1.1675
 2544SOL    HW310207   2.505   0.050   3.605  0.3959  0.1083  0.6348
 2544SOL    MW410208   2.571   0.023   3.654  0.5039  0.1169  0.4937
 2545SOL     OW10209   3.135   1.381   2.942 -0.0291 -0.1829  0.0817
 2545SOL    HW210210   3.138   1.373   2.846 -0.4740  0.4098  0.0141
 2545SOL    HW310211   3.226   1.367   2.969 -0.2654 -2.3993 -0.2472
 2545SOL    MW410212   3.147   1.378   2.933 -0.1190 -0.3972  0.0294
 2546SOL     OW10213   1.595   0.676   2.503 -0.2146  0.6107 -0.1714
 2546SOL    HW210214   1.624   0.716   2.585 -0.1030  0.8282 -0.3126
 2546SOL    HW310215   1.676   0.662   2.454 -0.4288  2.3459 -1.0712
 2546SOL    MW410216   1.610   0.680   2.507 -0.2281  0.8683 -0.3087
 2547SOL     OW10217   1.086   1.358   2.679 -0.0161 -0.2739  0.2625
 2547SOL    HW210218   1.099   1.404   2.596 -2.1794  0.1243  0.1042
 2547SOL    HW310219   1.047   1.274   2.655  1.4132 -1.0764  0.7313
 2547SOL    MW410220   1.082   1.353   2.665 -0.1129 -0.3273  0.3034
 2548SOL     OW10221   3.062   2.121   2.636  0.0550 -0.1554 -0.6481
 2548SOL    HW210222   3.033   2.070   2.712  1.4851 -1.1940 -0.7799
 2548SOL    HW310223   3.151   2.148   2.657 -0.3105  1.4070 -1.0466
 2548SOL    MW410224   3.070   2.118   2.648  0.1954 -0.0863 -0.7181
 2549SOL     OW10225   3.799   1.285   2.101 -0.3320  0.0789  0.0950
 2549SOL    HW210226   3.780   1.378   2.090 -1.7084 -0.3125 -0.9684
 2549SOL    HW310227   3.833   1.257   2.016 -0.5128 -0.5265  0.2195
 2549SOL    MW410228   3.801   1.293   2.088 -0.5374 -0.0526 -0.0289
 2550SOL     OW10229   2.907   0.700   0.461 -0.2225 -0.0912  0.2947
 2550SOL    HW210230   2.885   0.616   0.421  0.0954  0.5318 -1.2239
 2550SOL    HW310231   2.833   0.757   0.440 -1.0423 -0.3271  2.4271
 2550SOL    MW410232   2.895   0.696   0.453 -0.2887 -0.0401  0.3757
 2551SOL     OW10233   1.854   4.136   3.860  0.1771  0.2366 -0.1952
 2551SOL    HW210234   1.829   4.145   3.768  0.4768  0.1896 -0.2808
 2551SOL    HW310235   1.783   4.179   3.908  0.1825  0.5538 -0.4654
 2551SOL    MW410236   1.841   4.143   3.854  0.2174  0.2722 -0.2421
 2552SOL     OW10237   3.279   4.528   0.932 -0.1206  0.3011 -0.3458
 2552SOL    HW210238   3.356   4.564   0.888 -0.1050  0.7607  0.0629
 2552SOL    HW310239   3.272   4.577   1.013 -1.3878  0.9186 -0.8065
 2552SOL    MW410240   3.288   4.539   0.937 -0.2857  0.4432 -0.3527
 2553SOL     OW10241   4.155   4.370   0.671  0.1461 -0.5863 -0.2061
 2553SOL    HW210242   4.128   4.445   0.725 -1.9573 -1.5527  0.1450
 2553SOL    HW310243   4.149   4.402   0.581  1.0811  0.2236  0.0067
 2553SOL    MW410244   4.151   4.384   0.666 -0.0080 -0.6070 -0.1317
 2554SOL     OW10245   1.573   3.116   1.169  0.0617  0.6552  0.3604
 2554SOL    HW210246   1.551   3.109   1.262  1.4463 -1.0860  0.5746
 2554SOL    HW310247   1.668   3.116   1.166  0.0317  0.7504 -1.0670
 2554SOL    MW410248   1.582   3.115   1.181  0.2404  0.4380  0.2003
 2555SOL     OW10249   1.781   2.346   0.728 -0.6649 -0.4053  0.0767
 2555SOL    HW210250   1.813   2.358   0.638 -0.9210 -0.1952  0.0114
 2555SOL    HW310251   1.818   2.420   0.776  0.2942 -1.0635  0.3734
 2555SOL    MW410252   1.790   2.358   0.722 -0.5722 -0.4644  0.1072
 2556SOL     OW10253   1.092   0.829   1.255  0.3451  0.2772 -0.0292
 2556SOL    HW210254   1.050   0.915   1.264 -0.3686  0.0157 -0.8335
 2556SOL    HW310255   1.023   0.772   1.222 -0.1237 -1.3774  3.5219
 2556SOL    MW410256   1.077   0.833   1.252  0.1891  0.0244  0.3332
 2557SOL     OW10257   0.264   1.798   1.397 -0.0038  0.3193  0.5433
 2557SOL    HW210258   0.180   1.773   1.436 -0.1703  1.4364  0.9141
 2557SOL    HW310259   0.264   1.756   1.311 -1.0748  0.5330  0.4303
 2557SOL    MW410260   0.253   1.789   1.391 -0.1671  0.4948  0.5773
 2558SOL     OW10261   2.014   2.835   3.863 -0.7943 -0.5058  0.2084
 2558SOL    HW210262   2.065   2.799   3.790  0.7057 -0.6120  1.2865
 2558SOL    HW310263   2.034   2.777   3.936 -2.0528 -0.2128  0.8000
 2558SOL    MW410264   2.023   2.823   3.863 -0.7624 -0.4812  0.4287
 2559SOL     OW10265   2.108   1.795   2.057 -0.6376 -0.1859 -0.7921
 2559SOL    HW210266   2.072   1.874   2.097  0.2972  0.9342 -2.1442
 2559SOL    HW310267   2.032   1.737   2.046 -1.4322  0.7734 -0.4036
 2559SOL    MW410268   2.093   1.798   2.061 -0.6191  0.0884 -0.9193
 2560SOL     OW10269   1.107   1.131   2.238 -0.2511 -0.7724  0.0693
 2560SOL    HW210270   1.025   1.097   2.274  1.1342 -2.9055  1.3247
 2560SOL    HW310271   1.087   1.222   2.214 -2.3742 -0.5773  2.3589
 2560SOL    MW410272   1.094   1.139   2.240 -0.3484 -1.0281  0.5370
 2561SOL     OW10273   2.090   4.167   4.029 -0.0251 -0.0361  0.2795
 2561SOL    HW210274   2.037   4.193   4.104  1.1921  0.0521  1.1338
 2561SOL    HW310275   2.028   4.154   3.958 -1.0579  1.2140  0.9435
 2561SOL    MW410276   2.075   4.169   4.029 -0.0008  0.1405  0.4798
 2562SOL     OW10277   3.731   4.628   2.926 -0.6198 -0.0204  0.7335
 2562SOL    HW210278   3.812   4.585   2.954 -0.2560  0.8589  1.0472
 2562SOL    HW310279   3.665   4.558   2.925 -0.2592 -0.3910  2.2063
 2562SOL    MW410280   3.733   4.613   2.930 -0.5242  0.0467  0.9692
 2563SOL     OW10281   0.369   4.264   0.726  0.0879 -0.0477  0.4836
 2563SOL    HW210282   0.288   4.218   0.705  1.3957 -2.0293 -0.3027
 2563SOL    HW310283   0.438   4.201   0.709  1.8193  1.6164  1.1521
 2563SOL    MW410284   0.367   4.250   0.721  0.4889 -0.0896  0.4680
 2564SOL     OW10285   2.785   2.128   1.637  0.3291  0.9323  0.0766
 2564SOL    HW210286   2.765   2.058   1.700  1.4603 -0.4440 -1.0426
 2564SOL    HW310287   2.701   2.148   1.596  0.2473 -0.9367 -0.7281
 2564SOL    MW410288   2.772   2.121   1.640  0.4676  0.5042 -0.1772
 2565SOL     OW10289   4.465   4.461   4.395  0.0179 -0.4939 -0.5850
 2565SOL    HW210290   4.491   4.369   4.401  0.6298 -0.2635  0.3904
 2565SOL    HW310291   4.371   4.459   4.379 -0.4360 -1.2531  1.9960
 2565SOL    MW410292   4.456   4.448   4.393  0.0388 -0.5637 -0.1158
 2566SOL     OW10293   1.792   2.739   2.114 -0.3911 -0.1761 -0.1197
 2566SOL    HW210294   1.887   2.729   2.118 -0.3587 -0.5373 -1.4935
 2566SOL    HW310295   1.760   2.655   2.078 -1.1355  0.3029 -0.5973
 2566SOL    MW410296   1.800   2.726   2.110 -0.4851 -0.1606 -0.3640
 2567SOL     OW10297   2.593   2.474   1.504 -0.1968 -0.0067  0.6099
 2567SOL    HW210298   2.584   2.381   1.525  1.3398 -0.1123  0.8765
 2567SOL    HW310299   2.527   2.490   1.436  1.5263 -2.0288 -1.6476
 2567SOL    MW410300   2.583   2.464   1.497  0.2333 -0.2874  0.3473
 2568SOL     OW10301   0.995   0.028   1.827 -0.5071 -0.5509  0.2191
 2568SOL    HW210302   1.084  -0.007   1.834 -0.3338  0.0209  0.9346
 2568SOL    HW310303   0.976   0.026   1.733 -0.1481 -1.6856  0.1632
 2568SOL    MW410304   1.004   0.023   1.816 -0.4368 -0.6251  0.3061
 2569SOL     OW10305   1.763   3.678   1.063 -0.3669 -0.3715 -0.1272
 2569SOL    HW210306   1.759   3.647   1.153 -0.8396  0.5844  0.1839
 2569SOL    HW310307   1.716   3.611   1.013 -0.2839 -0.7972  0.3611
 2569SOL    MW410308   1.756   3.665   1.068 -0.4183 -0.3015 -0.0217
 2570SOL     OW10309   3.417   3.990   3.040  0.1288 -0.0100  0.4290
 2570SOL    HW210310   3.409   3.900   3.008  0.4442 -0.0473  0.4490
 2570SOL    HW310311   3.360   4.041   2.983  2.6759  0.3444 -1.9429
 2570SOL    MW410312   3.409   3.984   3.028  0.5065  0.0319  0.1187
 2571SOL     OW10313   2.036   3.014   3.158  0.0848  0.1018  0.2528
 2571SOL    HW210314   2.077   3.100   3.150  1.2414 -0.4861 -0.4322
 2571SOL    HW310315   1.976   3.021   3.232  0.4257  1.3928  0.4038
 2571SOL    MW410316   2.034   3.026   3.166  0.2824  0.1946  0.1823
 2572SOL     OW10317   2.374   1.662   3.229 -0.2837  0.0302  0.4977
 2572SOL    HW210318   2.369   1.634   3.138 -1.3935  1.4975  0.0884
 2572SOL    HW310319   2.465   1.643   3.255  0.0027 -0.5053 -0.8716
 2572SOL    MW410320   2.386   1.656   3.221 -0.3924  0.1531  0.2631
 2573SOL     OW10321   1.162   1.000   3.120  0.4654  0.0728  0.3883
 2573SOL    HW210322   1.124   0.940   3.057  2.0504  0.1427 -0.6728
 2573SOL    HW310323   1.113   1.081   3.109 -0.5623 -0.5069  0.6419
 2573SOL    MW410324   1.151   1.003   3.110  0.5390  0.0055  0.2818
 2574SOL     OW10325   0.527   2.342   4.299  0.1684 -0.3187 -0.1043
 2574SOL    HW210326   0.532   2.418   4.357 -1.0883 -0.3794  0.1108
 2574SOL    HW310327   0.574   2.367   4.221  0.7906  0.2405  0.4504
 2574SOL    MW410328   0.534   2.355   4.297  0.0847 -0.2529 -0.0027
 2575SOL     OW10329   0.780   1.486   1.347  0.2085  0.0247  0.3811
 2575SOL    HW210330   0.784   1.453   1.257  0.2967 -0.2635  0.4939
 2575SOL    HW310331   0.818   1.574   1.341  1.2871 -0.4467  0.3604
 2575SOL    MW410332   0.785   1.493   1.334  0.3625 -0.0755  0.3933
 2576SOL     OW10333   3.836   4.205   4.197  0.0984 -0.1344  0.2752
 2576SOL    HW210334   3.782   4.126   4.193  1.3027 -0.8724 -2.7057
 2576SOL    HW310335   3.773   4.277   4.201 -1.1037 -1.0821 -0.9681
 2576SOL    MW410336   3.821   4.204   4.197  0.0987 -0.3568 -0.2821
 2577SOL     OW10337   2.534   0.371   2.155  0.1130 -0.0297 -0.2175
 2577SOL    HW210338   2.446   0.379   2.117  0.1111  1.9897  0.1644
 2577SOL    HW310339   2.577   0.453   2.132  1.4868 -0.5046  0.6525
 2577SOL    MW410340   2.528   0.383   2.147  0.2940  0.1741 -0.0523
 2578SOL     OW10341   0.427   2.664   2.039  0.3159 -0.3381 -0.6694
 2578SOL    HW210342   0.370   2.624   2.105  1.2967 -0.1331  0.3135
 2578SOL    HW310343   0.508   2.613   2.044  1.1762  1.0671 -0.1936
 2578SOL    MW410344   0.430   2.652   2.048  0.5588 -0.1257 -0.4770
 2579SOL     OW10345   0.664   3.894   2.487 -0.2643 -0.0489  0.1066
 2579SOL    HW210346   0.682   3.807   2.523  0.4435  1.0658  2.5271
 2579SOL    HW310347   0.569   3.904   2.494 -0.4571 -0.9846 -1.0524
 2579SOL    MW410348   0.654   3.884   2.492 -0.1964 -0.0253  0.2730
 2580SOL     OW10349   4.430   1.898   3.465 -0.2658 -0.3279 -0.3432
 2580SOL    HW210350   4.396   1.840   3.396 -1.4790  0.6718 -0.6007
 2580SOL    HW310351   4.466   1.973   3.418  0.1686 -0.2776  0.0583
 2580SOL    MW410352   4.431   1.900   3.450 -0.3686 -0.1894 -0.3242
 2581SOL     OW10353   0.431   1.684   0.377  0.0151  0.1439 -0.5655
 2581SOL    HW210354   0.415   1.596   0.412  0.4671 -0.3162 -1.5109
 2581SOL    HW310355   0.351   1.733   0.397 -0.0804 -0.3687  0.3151
 2581SOL    MW410356   0.418   1.679   0.384  0.0622  0.0156 -0.5740
 2582SOL     OW10357   4.141   4.531   2.485  0.4520 -0.1575 -0.5962
 2582SOL    HW210358   4.230   4.548   2.516 -0.2212  1.6185  0.4740
 2582SOL    HW310359   4.139   4.568   2.397  0.5284  0.6297 -0.2763
 2582SOL    MW410360   4.153   4.538   2.478  0.3733  0.1807 -0.4128
 2583SOL     OW10361   3.083   1.408   4.544  0.1689  0.1653 -0.1887
 2583SOL    HW210362   3.045   1.436   4.461 -0.9485  0.4975  0.4330
 2583SOL    HW310363   3.023   1.341   4.576  0.4117  0.2863  0.5199
 2583SOL    MW410364   3.070   1.403   4.537  0.0535  0.2251 -0.0132
 2584SOL     OW10365   3.428   1.384   1.921  0.4943  0.2429 -0.3935
 2584SOL    HW210366   3.337   1.380   1.950 -0.1290 -0.0713 -2.3466
 2584SOL    HW310367   3.469   1.307   1.960 -0.3588 -0.2632 -0.4754
 2584SOL    MW410368   3.421   1.374   1.930  0.2995  0.1347 -0.6620
 2585SOL     OW10369   3.579   2.178   3.938  1.0742  0.1509  0.4755
 2585SOL    HW210370   3.505   2.208   3.886  0.7170 -1.3781  0.0907
 2585SOL    HW310371   3.603   2.254   3.991  0.0003  1.0218 -0.2628
 2585SOL    MW410372   3.573   2.192   3.938  0.8854  0.0640  0.3273
 2586SOL     OW10373   2.965   3.693   3.443  0.1709 -0.4869  0.2628
 2586SOL    HW210374   2.935   3.783   3.450 -0.5361 -0.7217  0.3995
 2586SOL    HW310375   3.027   3.693   3.370 -1.9491 -0.4066 -1.6361
 2586SOL    MW410376   2.969   3.705   3.434 -0.2021 -0.5073  0.0303
 2587SOL     OW10377   0.480   3.335   3.606 -0.0004 -0.2527  0.2478
 2587SOL    HW210378   0.418   3.298   3.542  0.2312 -0.6539  0.2524
 2587SOL    HW310379   0.555   3.362   3.553 -0.1664  0.1981  0.2468
 2587SOL    MW410380   0.481   3.333   3.590  0.0082 -0.2462  0.2483
 2588SOL     OW10381   4.476   1.688   2.610 -0.0629 -0.0474 -0.3202
 2588SOL    HW210382   4.479   1.656   2.700 -0.5722  2.7185  0.7552
 2588SOL    HW310383   4.395   1.740   2.607  0.5719  0.8593 -2.0181
 2588SOL    MW410384   4.466   1.691   2.622 -0.0464  0.4371 -0.4024
 2589SOL     OW10385   3.641   1.008   3.729 -0.1584 -0.2284  0.0314
 2589SOL    HW210386   3.556   1.024   3.688 -0.3652 -0.8314  0.2163
 2589SOL    HW310387   3.685   0.948   3.669  0.3077  0.4322 -0.2828
 2589SOL    MW410388   3.635   1.002   3.716 -0.1242 -0.2208  0.0143
 2590SOL     OW10389   0.165   3.151   2.546 -0.4144 -0.4132  0.7923
 2590SOL    HW210390   0.216   3.088   2.495  0.1001  0.9661 -0.4444
 2590SOL    HW310391   0.229   3.196   2.601 -0.0730  1.8945 -1.3552
 2590SOL    MW410392   0.180   3.149   2.546 -0.3015  0.0732  0.3458
 2591SOL     OW10393   1.968   2.950   0.636  0.3015  0.3839 -0.4465
 2591SOL    HW210394   1.901   2.882   0.633  1.1030 -0.4490  0.1214
 2591SOL    HW310395   1.920   3.032   0.622 -1.0084 -0.0805  1.1297
 2591SOL    MW410396   1.953   2.952   0.634  0.2345  0.2127 -0.1636
 2592SOL     OW10397   3.526   3.371   1.674 -0.1198 -1.0087  0.1209
 2592SOL    HW210398   3.562   3.454   1.704  0.4046 -1.2624  0.1965
 2592SOL    HW310399   3.550   3.367   1.581 -0.3577 -0.9621  0.0574
 2592SOL    MW410400   3.534   3.381   1.665 -0.0820 -1.0360  0.1225
 2593SOL     OW10401   4.248   0.612   1.395  0.1356  0.3550 -0.0173
 2593SOL    HW210402   4.275   0.660   1.316 -2.0935  2.2707  0.3517
 2593SOL    HW310403   4.234   0.523   1.364  0.0108  0.9138 -1.6432
 2593SOL    MW410404   4.250   0.607   1.380 -0.1749  0.6815 -0.1831
 2594SOL     OW10405   3.739   0.958   4.036 -0.1625  0.3111  0.0704
 2594SOL    HW210406   3.793   1.032   4.005 -0.4284  0.2110 -0.6376
 2594SOL    HW310407   3.798   0.908   4.093  0.4904  0.2239 -0.6686
 2594SOL    MW410408   3.754   0.961   4.039 -0.1115  0.2864 -0.1205
 2595SOL     OW10409   1.056   0.289   1.783  0.1864  0.5909 -0.0431
 2595SOL    HW210410   0.997   0.338   1.840 -0.7571  0.8268 -1.2109
 2595SOL    HW310411   1.029   0.197   1.792  0.5195  0.5411  0.4527
 2595SOL    MW410412   1.045   0.283   1.792  0.1058  0.6155 -0.1318
 2596SOL     OW10413   3.718   4.086   2.548 -0.4485  0.0279 -0.3072
 2596SOL    HW210414   3.808   4.068   2.523 -0.6473 -0.9819 -0.3056
 2596SOL    HW310415   3.680   4.129   2.471  0.1819  0.9837 -0.1021
 2596SOL    MW410416   3.725   4.090   2.535 -0.3915  0.0208 -0.2799
 2597SOL     OW10417   4.407   4.598   2.064 -0.2450  0.0474  0.8743
 2597SOL    HW210418   4.354   4.589   1.985  0.4438 -3.1250  0.6949
 2597SOL    HW310419   4.471   4.666   2.043 -1.6673  1.0437 -0.3500
 2597SOL    MW410420   4.408   4.605   2.051 -0.3417 -0.2397  0.6891
 2598SOL     OW10421   2.824   3.760   1.240 -0.4638 -0.1413 -0.2521
 2598SOL    HW210422   2.730   3.754   1.223 -0.8635  1.2399  1.3393
 2598SOL    HW310423   2.833   3.832   1.302  1.5342 -0.9866  0.5124
 2598SOL    MW410424   2.813   3.768   1.246 -0.2529 -0.0706  0.0587
 2599SOL     OW10425   0.340   3.523   1.310  0.1869  0.1929 -0.2663
 2599SOL    HW210426   0.360   3.440   1.353 -2.0218 -1.0539 -1.5437
 2599SOL    HW310427   0.424   3.552   1.274  0.5346 -2.9532 -2.2012
 2599SOL    MW410428   0.354   3.516   1.311 -0.0586 -0.3867 -0.6901
 2600SOL     OW10429   1.163   3.698   3.121  0.2502 -0.0672 -0.2866
 2600SOL    HW210430   1.111   3.696   3.040 -0.2357 -0.1098  0.0231
 2600SOL    HW310431   1.249   3.666   3.095 -0.2576 -1.2574 -0.5297
 2600SOL    MW410432   1.167   3.694   3.107  0.1191 -0.2298 -0.2778
 2601SOL     OW10433   2.443   0.547   2.429 -0.3142  0.0198  0.0379
 2601SOL    HW210434   2.470   0.603   2.356  1.8678  1.4385  1.8465
 2601SOL    HW310435   2.357   0.514   2.403 -0.0017  1.2178 -2.7491
 2601SOL    MW410436   2.435   0.550   2.416  0.0149  0.3651 -0.0912
 2602SOL     OW10437   1.879   3.903   2.453 -0.7495  0.0765 -0.4066
 2602SOL    HW210438   1.826   3.960   2.510  0.8256 -0.4930  1.6704
 2602SOL    HW310439   1.969   3.919   2.480 -0.0329 -0.9176 -2.1293
 2602SOL    MW410440   1.884   3.913   2.464 -0.4471 -0.1298 -0.3599
 2603SOL     OW10441   4.408   1.564   1.293 -0.4670 -0.1123  0.0677
 2603SOL    HW210442   4.351   1.488   1.304 -0.8303 -0.0151 -1.0295
 2603SOL    HW310443   4.368   1.614   1.222  0.8991  0.0320 -0.6312
 2603SOL    MW410444   4.395   1.560   1.285 -0.3347 -0.0804 -0.1692
 2604SOL     OW10445   0.141   0.821   1.291  0.1118  0.4788  0.4675
 2604SOL    HW210446   0.192   0.765   1.232  0.0397  0.3513  0.5280
 2604SOL    HW310447   0.150   0.780   1.377 -0.9245 -0.1034  0.3032
 2604SOL    MW410448   0.149   0.809   1.295 -0.0344  0.3852  0.4538
 2605SOL     OW10449   0.214   4.413   4.054  0.1959  0.4470  0.1771
 2605SOL    HW210450   0.206   4.318   4.054 -0.3416  0.4905  0.1183
 2605SOL    HW310451   0.274   4.433   3.982 -0.9103  0.2573 -0.8018
 2605SOL    MW410452   0.221   4.403   4.045 -0.0209  0.4277  0.0402
 2606SOL     OW10453   3.697   1.551   0.791  0.2020 -0.2450  0.0117
 2606SOL    HW210454   3.738   1.490   0.729  0.1951 -1.5610  1.2822
 2606SOL    HW310455   3.771   1.599   0.830  0.1635  1.1223 -1.5252
 2606SOL    MW410456   3.712   1.549   0.788  0.1960 -0.2382 -0.0235
 2607SOL     OW10457   1.215   1.760   2.107  0.2720  0.4053  0.1343
 2607SOL    HW210458   1.176   1.837   2.065  0.1929  0.7278  0.7947
 2607SOL    HW310459   1.165   1.686   2.071 -0.3939  0.7486  0.3431
 2607SOL    MW410460   1.203   1.760   2.097  0.1737  0.4931  0.2490
 2608SOL     OW10461   1.543   2.427   3.896 -0.3211  0.0870 -0.7845
 2608SOL    HW210462   1.534   2.503   3.839 -0.5951  0.8568  0.2708
 2608SOL    HW310463   1.587   2.361   3.842  0.6780  1.2834 -1.4435
 2608SOL    MW410464   1.548   2.428   3.881 -0.2254  0.3464 -0.7322
 2609SOL     OW10465   1.077   3.642   2.846 -0.7458  0.3829 -0.0727
 2609SOL    HW210466   1.060   3.547   2.848 -1.0039  0.3957 -1.4725
 2609SOL    HW310467   0.991   3.682   2.855 -0.6476  0.4888  0.4060
 2609SOL    MW410468   1.064   3.634   2.848 -0.7669  0.3986 -0.1942
 2610SOL     OW10469   3.443   1.059   2.317 -0.5140  0.3383  0.0784
 2610SOL    HW210470   3.522   1.010   2.341 -0.8927 -1.0609 -1.4553
 2610SOL    HW310471   3.414   1.098   2.399  0.0739 -1.6112  1.2608
 2610SOL    MW410472   3.450   1.058   2.331 -0.4864 -0.1035  0.0320
 2611SOL     OW10473   0.450   1.522   0.855  0.1213  0.2245 -0.2604
 2611SOL    HW210474   0.492   1.592   0.905 -0.7086  0.8335 -0.3946
 2611SOL    HW310475   0.404   1.470   0.921 -3.1014  2.5071 -0.5712
 2611SOL    MW410476   0.449   1.525   0.870 -0.4134  0.6060 -0.3191
 2612SOL     OW10477   0.841   0.993   2.321  0.8099  0.2548  0.0048
 2612SOL    HW210478   0.881   0.906   2.328  0.5103  0.0699 -0.5451
 2612SOL    HW310479   0.751   0.981   2.349  0.2921  0.0223 -1.6911
 2612SOL    MW410480   0.835   0.980   2.325  0.7021  0.1997 -0.2915
 2613SOL     OW10481   1.129   3.806   0.525  0.2822 -0.0462  0.1822
 2613SOL    HW210482   1.223   3.807   0.507  0.2918 -0.1719  0.2238
 2613SOL    HW310483   1.108   3.896   0.548  0.6399 -0.2876  1.4600
 2613SOL    MW410484   1.139   3.818   0.525  0.3307 -0.0946  0.3563
 2614SOL     OW10485   1.856   4.145   3.575  0.4458 -0.3866  0.0012
 2614SOL    HW210486   1.931   4.087   3.560  0.8821  0.2904 -0.4401
 2614SOL    HW310487   1.889   4.233   3.556 -0.8592 -0.2336 -1.6238
 2614SOL    MW410488   1.870   4.149   3.571  0.3312 -0.2771 -0.2714
 2615SOL     OW10489   1.012   1.075   2.602  0.0135  0.2349 -0.4585
 2615SOL    HW210490   0.970   1.021   2.535  0.5758  1.4894 -1.8589
 2615SOL    HW310491   1.090   1.026   2.628  1.3761  1.0392 -2.8570
 2615SOL    MW410492   1.017   1.062   2.597  0.2675  0.5066 -0.9597
 2616SOL     OW10493   3.474   0.335   2.853 -0.3460  0.2689  0.1380
 2616SOL    HW210494   3.556   0.378   2.827  0.2514 -0.1545  1.2496
 2616SOL    HW310495   3.405   0.397   2.830  0.2045  0.2019 -1.7466
 2616SOL    MW410496   3.476   0.349   2.847 -0.1945  0.2042  0.0360
 2617SOL     OW10497   2.053   3.468   4.002  0.0824 -0.2890 -0.4730
 2617SOL    HW210498   2.008   3.394   3.962 -0.3849  0.8912 -2.1781
 2617SOL    HW310499   2.001   3.488   4.081  0.4536 -2.0047  0.2262
 2617SOL    MW410500   2.040   3.461   4.007  0.0697 -0.3596 -0.6057
 2618SOL     OW10501   3.406   1.837   4.328 -0.2015 -0.1364  0.2333
 2618SOL    HW210502   3.315   1.813   4.315 -0.2014  0.3786 -0.7747
 2618SOL    HW310503   3.424   1.901   4.259  0.5935  0.6268  1.1278
 2618SOL    MW410504   3.397   1.843   4.318 -0.0966  0.0323  0.2183
 2619SOL     OW10505   3.430   3.171   3.342 -0.2235  0.1462  0.0596
 2619SOL    HW210506   3.385   3.086   3.348 -0.9294  0.5734  0.9009
 2619SOL    HW310507   3.369   3.227   3.294  0.0796  0.2813 -0.1667
 2619SOL    MW410508   3.416   3.167   3.337 -0.2767  0.2204  0.1408
 2620SOL     OW10509   0.238   2.959   4.078  0.0422  0.3465 -0.1770
 2620SOL    HW210510   0.226   2.984   3.986  0.9799 -0.8901 -0.6609
 2620SOL    HW310511   0.172   2.891   4.092  0.2939  0.1145 -0.1163
 2620SOL    MW410512   0.228   2.953   4.068  0.1991  0.1527 -0.2328
 2621SOL     OW10513   0.521   0.310   3.129  0.3346  0.2777 -0.0475
 2621SOL    HW210514   0.495   0.236   3.183  1.3333 -0.2127 -0.2260
 2621SOL    HW310515   0.588   0.355   3.180  1.3439 -0.2332 -0.8896
 2621SOL    MW410516   0.527   0.307   3.142  0.5995  0.1456 -0.1821
 2622SOL     OW10517   1.270   3.845   2.866  0.2543 -0.1248 -0.3186
 2622SOL    HW210518   1.226   3.908   2.923 -1.6579 -0.3783 -1.4796
 2622SOL    HW310519   1.224   3.763   2.882  1.2135 -0.7102 -0.5555
 2622SOL    MW410520   1.258   3.843   2.876  0.1286 -0.2355 -0.5031
 2623SOL     OW10521   2.904   1.610   1.058 -0.2296 -0.4093  0.5011
 2623SOL    HW210522   2.888   1.698   1.091 -1.9400 -0.4611 -0.1116
 2623SOL    HW310523   2.881   1.552   1.131 -0.5332 -0.3925  0.4206
 2623SOL    MW410524   2.899   1.614   1.072 -0.4953 -0.4139  0.4096
 2624SOL     OW10525   3.553   0.595   2.125  0.4530  0.3114  0.1997
 2624SOL    HW210526   3.552   0.501   2.141  2.4491  0.3950  1.0112
 2624SOL    HW310527   3.641   0.613   2.090 -0.2933  1.7004 -1.0220
 2624SOL    MW410528   3.565   0.585   2.122  0.6179  0.5057  0.1456
 2625SOL     OW10529   0.081   2.533   2.848  0.1641  0.0406  0.3230
 2625SOL    HW210530   0.084   2.528   2.753 -1.1629 -0.5940  0.3097
 2625SOL    HW310531   0.172   2.520   2.876  1.0594  2.9587 -0.9675
 2625SOL    MW410532   0.093   2.531   2.839  0.1071  0.3419  0.1510
 2626SOL     OW10533   2.302   1.082   0.584 -0.0757  0.0244 -0.0879
 2626SOL    HW210534   2.217   1.038   0.574 -0.8179  1.2088  0.8906
 2626SOL    HW310535   2.314   1.088   0.679  0.4904  1.0536 -0.2247
 2626SOL    MW410536   2.292   1.077   0.595 -0.0990  0.3164  0.0231
 2627SOL     OW10537   1.125   1.806   1.712  0.1537  0.5289 -0.2837
 2627SOL    HW210538   1.132   1.758   1.630  1.6946 -0.1057  0.2022
 2627SOL    HW310539   1.216   1.822   1.738 -0.3290  1.6855  0.7322
 2627SOL    MW410540   1.138   1.802   1.705  0.2933  0.5978 -0.0855
 2628SOL     OW10541   2.714   1.415   2.027  0.6538  0.1349 -0.3959
 2628SOL    HW210542   2.782   1.353   2.051 -0.4293 -1.0629 -0.3498
 2628SOL    HW310543   2.705   1.472   2.104  0.0568 -1.1133  0.4753
 2628SOL    MW410544   2.722   1.414   2.040  0.4322 -0.1878 -0.2749
 2629SOL     OW10545   1.724   3.015   3.899 -0.2039  0.4985  0.0748
 2629SOL    HW210546   1.802   3.064   3.926 -0.7530  1.4212  0.0261
 2629SOL    HW310547   1.729   3.013   3.804  0.7934 -1.1870  0.1448
 2629SOL    MW410548   1.735   3.021   3.890 -0.1448  0.3978  0.0776
 2630SOL     OW10549   3.946   3.115   1.254 -0.4061 -0.2954 -0.0389
 2630SOL    HW210550   3.923   3.176   1.184 -1.3656 -0.3274  0.2423
 2630SOL    HW310551   3.879   3.129   1.321  0.7910  0.0807  1.0905
 2630SOL    MW410552   3.934   3.125   1.253 -0.3747 -0.2500  0.1472
 2631SOL     OW10553   2.531   3.242   1.042  0.0485 -0.2397 -0.9401
 2631SOL    HW210554   2.489   3.260   0.958 -0.3151  0.9944 -0.5066
 2631SOL    HW310555   2.610   3.295   1.041  0.1745 -0.4179 -0.6119
 2631SOL    MW410556   2.536   3.251   1.031  0.0172 -0.1004 -0.8396
 2632SOL     OW10557   1.510   2.172   4.433 -0.0494  0.2118 -0.0922
 2632SOL    HW210558   1.478   2.262   4.443 -0.2839  0.0481  0.6444
 2632SOL    HW310559   1.605   2.182   4.421 -0.2223  0.6265 -1.2415
 2632SOL    MW410560   1.518   2.186   4.433 -0.1032  0.2449 -0.1466
 2633SOL     OW10561   1.176   1.830   2.396 -0.2580 -0.2946 -0.0558
 2633SOL    HW210562   1.193   1.807   2.304  1.1567  0.5810 -0.0247
 2633SOL    HW310563   1.081   1.819   2.406 -0.1770 -2.2278 -1.1033
 2633SOL    MW410564   1.166   1.826   2.385 -0.0607 -0.4341 -0.1899
 2634SOL     OW10565   1.003   1.093   1.236  0.1204  0.1173 -0.4493
 2634SOL    HW210566   0.919   1.130   1.263 -0.3064 -1.6942  0.7963
 2634SOL    HW310567   1.067   1.161   1.256 -0.5295 -0.0949  2.6293
 2634SOL    MW410568   1.000   1.107   1.242 -0.0217 -0.1497  0.1212
 2635SOL     OW10569   1.065   3.896   3.280  0.6231  0.4667  0.4170
 2635SOL    HW210570   1.101   3.832   3.219  0.9287  0.2721  0.8002
 2635SOL    HW310571   1.116   3.884   3.360  1.1276  1.6587  0.2715
 2635SOL    MW410572   1.076   3.886   3.283  0.7300  0.5983  0.4483
 2636SOL     OW10573   4.157   1.789   1.789  0.1485 -0.3780 -0.7320
 2636SOL    HW210574   4.226   1.846   1.755  0.3362 -0.3471 -0.3015
 2636SOL    HW310575   4.202   1.709   1.816 -0.1122 -0.7303 -1.3261
 2636SOL    MW410576   4.172   1.786   1.788  0.1388 -0.4204 -0.7536
 2637SOL     OW10577   2.980   3.157   1.782 -0.2192 -0.6093  0.4910
 2637SOL    HW210578   2.928   3.096   1.835 -0.9736 -0.4724 -0.0777
 2637SOL    HW310579   3.069   3.146   1.814 -0.5181 -1.2150  1.1466
 2637SOL    MW410580   2.985   3.147   1.793 -0.3582 -0.6711  0.5025
 2638SOL     OW10581   0.155   0.875   0.902  0.1253 -0.8590 -0.2538
 2638SOL    HW210582   0.164   0.970   0.896 -0.8869 -0.7750 -0.5180
 2638SOL    HW310583   0.073   0.856   0.857 -0.2428 -1.7487  0.7785
 2638SOL    MW410584   0.145   0.885   0.895 -0.0568 -0.9653 -0.1525
 2639SOL     OW10585   2.588   0.003   3.199  0.1004 -0.1289  0.5267
 2639SOL    HW210586   2.555   0.092   3.209  0.1734 -0.1191  0.6909
 2639SOL    HW310587   2.681   0.009   3.222  0.3080 -0.0827 -0.3088
 2639SOL    MW410588   2.596   0.015   3.204  0.1374 -0.1215  0.4382
 2640SOL     OW10589   3.657   0.071   4.028  0.1280 -0.2071  0.1202
 2640SOL    HW210590   3.630  -0.018   4.009 -1.4200  0.1046  0.8185
 2640SOL    HW310591   3.670   0.111   3.942 -1.0903 -0.5199 -0.2112
 2640SOL    MW410592   3.655   0.065   4.014 -0.2370 -0.2072  0.1686
 2641SOL     OW10593   0.267   3.854   3.484  0.0883 -0.0593  0.1041
 2641SOL    HW210594   0.323   3.930   3.502 -2.2619  1.3268  2.0547
 2641SOL    HW310595   0.218   3.879   3.406  1.6338 -0.9659 -1.1731
 2641SOL    MW410596   0.268   3.867   3.476 -0.0179  0.0039  0.1930
 2642SOL     OW10597   2.238   4.337   1.392 -0.0081  0.2448 -0.3245
 2642SOL    HW210598   2.178   4.410   1.380 -2.5130 -1.7114 -0.1388
 2642SOL    HW310599   2.220   4.305   1.481  2.4333  0.5705  0.3368
 2642SOL    MW410600   2.228   4.342   1.403 -0.0165  0.0297 -0.2128
 2643SOL     OW10601   3.508   1.639   3.382  0.2577  0.2632  0.0323
 2643SOL    HW210602   3.515   1.734   3.386 -0.9122  0.4402 -1.7640
 2643SOL    HW310603   3.579   1.608   3.439  1.5476  2.1818 -0.4641
 2643SOL    MW410604   3.518   1.647   3.390  0.2735  0.5397 -0.2702
 2644SOL     OW10605   3.785   1.508   2.794  0.2866  0.3657  0.2620
 2644SOL    HW210606   3.862   1.531   2.741  0.2136 -1.1824 -0.5281
 2644SOL    HW310607   3.787   1.413   2.800  0.2955  0.4919  3.0888
 2644SOL    MW410608   3.795   1.499   2.788  0.2782  0.1781  0.5307
 2645SOL     OW10609   2.418   1.934   3.183  0.0255  0.2044 -0.2222
 2645SOL    HW210610   2.338   1.960   3.227 -1.2118 -1.6947 -1.2351
 2645SOL    HW310611   2.416   1.838   3.185  1.9359  0.1225 -0.8551
 2645SOL    MW410612   2.407   1.924   3.189  0.1143 -0.0570 -0.4394
 2646SOL     OW10613   2.150   3.360   0.855 -0.2824 -0.0301  0.0251
 2646SOL    HW210614   2.120   3.275   0.888  1.6271 -1.9038 -2.7494
 2646SOL    HW310615   2.192   3.402   0.930 -0.3022 -2.0214  1.1885
 2646SOL    MW410616   2.152   3.354   0.869 -0.0331 -0.5400 -0.1875
 2647SOL     OW10617   1.176   2.902   0.674 -0.1612 -0.3714  0.1066
 2647SOL    HW210618   1.238   2.870   0.607  0.5127  0.6865  0.2042
 2647SOL    HW310619   1.113   2.831   0.684  0.4584 -1.0623 -0.7426
 2647SOL    MW410620   1.176   2.888   0.666  0.0095 -0.3230  0.0074
 2648SOL     OW10621   3.356   0.129   4.358 -0.4064  0.0488  0.2571
 2648SOL    HW210622   3.397   0.168   4.281 -1.2760 -0.1619 -0.3300
 2648SOL    HW310623   3.263   0.121   4.333 -0.7705  0.3906  1.4923
 2648SOL    MW410624   3.349   0.133   4.344 -0.5691  0.0661  0.3426
 2649SOL     OW10625   1.417   1.324   4.232  0.0645 -0.1956 -0.2144
 2649SOL    HW210626   1.377   1.243   4.199 -1.3828  0.6005 -0.4638
 2649SOL    HW310627   1.492   1.339   4.174 -0.4205 -0.6700 -0.9812
 2649SOL    MW410628   1.421   1.315   4.220 -0.1904 -0.1532 -0.3485
 2650SOL     OW10629   2.041   0.975   0.556 -0.0028 -0.0090 -0.5251
 2650SOL    HW210630   2.020   0.942   0.643  0.6951 -0.6389 -0.5948
 2650SOL    HW310631   2.032   0.899   0.498  0.5327  0.1745 -0.8514
 2650SOL    MW410632   2.037   0.960   0.560  0.1599 -0.0679 -0.5773
 2651SOL     OW10633   4.166   1.509   0.853 -0.5415  0.2954  0.3853
 2651SOL    HW210634   4.121   1.427   0.832 -1.8776  0.8572  1.0199
 2651SOL    HW310635   4.210   1.533   0.772  0.3854 -1.3742  0.3681
 2651SOL    MW410636   4.166   1.502   0.840 -0.5955  0.1492  0.4668
 2652SOL     OW10637   3.674   1.173   3.036  0.1026 -0.9404 -0.3823
 2652SOL    HW210638   3.688   1.095   3.090 -0.6948 -0.5414  0.3837
 2652SOL    HW310639   3.580   1.178   3.023  0.1254  0.0851 -0.1781
 2652SOL    MW410640   3.664   1.163   3.041  0.0004 -0.7525 -0.2543
 2653SOL     OW10641   0.151   3.893   2.368  0.1126 -0.2325  0.2838
 2653SOL    HW210642   0.081   3.854   2.420  0.4609  0.4290  1.2669
 2653SOL    HW310643   0.106   3.942   2.299 -0.4714  1.9061  2.1315
 2653SOL    MW410644   0.136   3.894   2.366  0.0815  0.1369  0.6572
 2654SOL     OW10645   1.896   3.960   1.568  0.3494  0.0670  0.3572
 2654SOL    HW210646   1.891   3.865   1.560 -0.6935  0.2273 -1.1162
 2654SOL    HW310647   1.966   3.986   1.508  0.2837  0.2862  0.3751
 2654SOL    MW410648   1.905   3.951   1.559  0.2032  0.1171  0.1652
 2655SOL     OW10649   1.478   2.064   3.767  0.2364 -0.0377  0.4983
 2655SOL    HW210650   1.517   2.006   3.833  0.4573  0.5271  0.8793
 2655SOL    HW310651   1.403   2.104   3.812 -0.0308 -0.1824  0.1767
 2655SOL    MW410652   1.474   2.062   3.782  0.2303  0.0177  0.5061
 2656SOL     OW10653   2.207   1.284   2.593 -0.2651  0.2184  0.3505
 2656SOL    HW210654   2.244   1.371   2.577 -0.3407 -0.1048 -1.7902
 2656SOL    HW310655   2.135   1.278   2.531 -0.5382 -1.2096  0.7986
 2656SOL    MW410656   2.202   1.295   2.583 -0.3111 -0.0126  0.1272
 2657SOL     OW10657   1.379   2.055   3.483 -0.4775 -0.4414 -0.2040
 2657SOL    HW210658   1.426   1.986   3.436 -2.3551 -1.8315 -0.1476
 2657SOL    HW310659   1.419   2.056   3.570  0.5439 -0.4468 -0.6677
 2657SOL    MW410660   1.390   2.046   3.488 -0.5904 -0.6255 -0.2578
 2658SOL     OW10661   2.240   0.312   4.334  0.3487  0.4237  0.0442
 2658SOL    HW210662   2.285   0.307   4.418  1.1208  1.2619 -0.3042
 2658SOL    HW310663   2.299   0.270   4.272 -1.1887 -2.1620  0.2777
 2658SOL    MW410664   2.254   0.306   4.337  0.2477  0.1931  0.0291
 2659SOL     OW10665   2.919   3.541   2.657 -0.7001 -0.5095 -0.1722
 2659SOL    HW210666   2.880   3.616   2.702 -0.5133  0.8227 -2.2264
 2659SOL    HW310667   2.997   3.520   2.709 -0.5002  0.9913  0.1416
 2659SOL    MW410668   2.924   3.548   2.670 -0.6491 -0.1357 -0.4018
 2660SOL     OW10669   3.843   1.745   2.529  0.1297  0.0397 -0.4000
 2660SOL    HW210670   3.887   1.777   2.451 -0.1181  0.9374 -0.1848
 2660SOL    HW310671   3.794   1.821   2.561  0.8352 -0.0938  1.0550
 2660SOL    MW410672   3.842   1.759   2.523  0.1901  0.1405 -0.1797
 2661SOL     OW10673   3.604   0.499   4.110 -0.1202  0.0939 -0.2765
 2661SOL    HW210674   3.588   0.566   4.043  0.9666  1.3525  0.7097
 2661SOL    HW310675   3.552   0.528   4.185  0.8735  0.2092  0.3789
 2661SOL    MW410676   3.595   0.512   4.111  0.1543  0.2752 -0.0599
 2662SOL     OW10677   3.421   2.706   2.209  0.2288  0.1925  0.0163
 2662SOL    HW210678   3.489   2.673   2.268  0.4557  1.5737  0.5531
 2662SOL    HW310679   3.443   2.798   2.197 -2.2021  0.9777  1.1301
 2662SOL    MW410680   3.433   2.714   2.215 -0.0620  0.4783  0.2341
 2663SOL     OW10681   0.374   0.437   1.103  0.1499  0.1894  0.2971
 2663SOL    HW210682   0.305   0.373   1.122 -0.2256  0.7999  1.0374
 2663SOL    HW310683   0.326   0.515   1.076  0.6157  0.0806 -0.8717
 2663SOL    MW410684   0.359   0.439   1.102  0.1618  0.2556  0.2406
 2664SOL     OW10685   1.333   0.659   2.715  0.4018 -0.6838  0.7781
 2664SOL    HW210686   1.391   0.592   2.679  0.5751 -0.2459  0.2249
 2664SOL    HW310687   1.319   0.633   2.806 -0.3046 -1.9992  0.3109
 2664SOL    MW410688   1.339   0.647   2.722  0.3314 -0.7996  0.6435
 2665SOL     OW10689   3.328   4.326   2.638 -0.2257 -0.1707  0.3958
 2665SOL    HW210690   3.248   4.377   2.636 -0.7053 -0.9375 -1.6114
 2665SOL    HW310691   3.385   4.368   2.574 -0.7786 -2.3337 -1.5888
 2665SOL    MW410692   3.325   4.338   2.629 -0.3619 -0.5572 -0.1309
 2666SOL     OW10693   3.615   3.708   2.678 -0.0585 -0.3220  0.2924
 2666SOL    HW210694   3.527   3.695   2.640 -0.0828 -1.5420  0.7751
 2666SOL    HW310695   3.604   3.782   2.738 -0.7526 -0.4812  0.3642
 2666SOL    MW410696   3.602   3.716   2.681 -0.1533 -0.5040  0.3656
 2667SOL     OW10697   2.757   1.803   4.489  0.0023  0.1139  0.2072
 2667SOL    HW210698   2.708   1.736   4.441  0.2642  0.3526 -0.3874
 2667SOL    HW310699   2.783   1.759   4.570 -0.2611 -0.3506  0.0432
 2667SOL    MW410700   2.754   1.788   4.494  0.0021  0.0841  0.1071
 2668SOL     OW10701   3.007   2.258   1.727  0.4323  0.1470  0.0582
 2668SOL    HW210702   3.001   2.274   1.821 -0.0224  1.7765 -0.2427
 2668SOL    HW310703   2.929   2.206   1.706  1.2659 -1.4502  0.8136
 2668SOL    MW410704   2.996   2.253   1.736  0.4823  0.1512  0.1182
 2669SOL     OW10705   2.627   0.901   1.147 -0.1764  0.3581  0.0251
 2669SOL    HW210706   2.625   0.867   1.237 -0.4136 -0.9651 -0.4770
 2669SOL    HW310707   2.622   0.996   1.158 -1.0173  0.1768  1.3962
 2669SOL    MW410708   2.626   0.909   1.160 -0.3186  0.1596  0.1397
 2670SOL     OW10709   2.118   2.650   4.068 -0.4791  0.3753  0.1664
 2670SOL    HW210710   2.090   2.592   3.996 -2.1876  0.8844  0.3885
 2670SOL    HW310711   2.207   2.674   4.046 -0.0117 -1.6828 -0.3699
 2670SOL    MW410712   2.126   2.645   4.055 -0.6428  0.1709  0.1249
 2671SOL     OW10713   1.347   0.026   0.474 -0.0777 -0.2590 -0.4000
 2671SOL    HW210714   1.360   0.114   0.439 -2.3496 -0.0610 -0.8147
 2671SOL    HW310715   1.424  -0.023   0.445  1.7263  1.8339  0.7371
 2671SOL    MW410716   1.359   0.031   0.465 -0.1394  0.0432 -0.3047
 2672SOL     OW10717   2.297   2.862   3.146 -0.1129  0.3415  0.3359
 2672SOL    HW210718   2.282   2.806   3.070  0.4739 -0.9894  1.1770
 2672SOL    HW310719   2.219   2.918   3.150 -0.2266  0.3028 -1.1356
 2672SOL    MW410720   2.284   2.862   3.137 -0.0505  0.1608  0.2527
 2673SOL     OW10721   2.496   0.300   3.961 -0.0102 -0.0990 -0.1861
 2673SOL    HW210722   2.590   0.285   3.971 -0.2956 -2.1572 -0.4220
 2673SOL    HW310723   2.456   0.244   4.027 -1.1228 -0.0842 -0.8362
 2673SOL    MW410724   2.503   0.291   3.971 -0.1946 -0.3686 -0.3030
 2674SOL     OW10725   4.047   4.517   3.518  0.6396 -0.1486 -0.4286
 2674SOL    HW210726   4.076   4.524   3.609  1.1787  0.5168 -0.6515
 2674SOL    HW310727   3.996   4.436   3.516  0.9455 -0.3705  0.3779
 2674SOL    MW410728   4.044   4.508   3.530  0.7511 -0.0901 -0.3516
 2675SOL     OW10729   2.190   2.129   3.568  0.1575 -0.0958  0.4624
 2675SOL    HW210730   2.250   2.119   3.642 -1.0548 -0.4743  1.4214
 2675SOL    HW310731   2.103   2.118   3.606 -0.4468 -1.2656 -1.1805
 2675SOL    MW410732   2.186   2.126   3.583 -0.0822 -0.3001  0.3722
 2676SOL     OW10733   2.178   1.427   1.853 -0.1593 -0.6004 -0.1226
 2676SOL    HW210734   2.222   1.369   1.791 -1.4136 -1.1031 -0.5531
 2676SOL    HW310735   2.238   1.431   1.928  0.9591 -0.6807 -0.9997
 2676SOL    MW410736   2.192   1.420   1.855 -0.1772 -0.6774 -0.2951
 2677SOL     OW10737   1.186   4.611   2.446 -0.1360 -0.1864  0.3295
 2677SOL    HW210738   1.172   4.523   2.484 -0.7317  0.0643  0.7119
 2677SOL    HW310739   1.160   4.602   2.355  1.4980 -0.8471 -0.0858
 2677SOL    MW410740   1.180   4.598   2.439  0.0010 -0.2405  0.3252
 2678SOL     OW10741   2.316   0.946   3.687  0.0126 -0.2081  0.2133
 2678SOL    HW210742   2.272   0.915   3.607 -0.4210  1.8747 -0.3798
 2678SOL    HW310743   2.356   1.029   3.661  1.2387 -0.3128  1.7490
 2678SOL    MW410744   2.316   0.953   3.673  0.1172  0.0528  0.3377
 2679SOL     OW10745   1.303   3.123   4.167  0.1125  0.4103 -0.6497
 2679SOL    HW210746   1.287   3.084   4.253  0.8690 -0.7569 -1.0260
 2679SOL    HW310747   1.283   3.216   4.179 -0.2556  0.1772  0.6594
 2679SOL    MW410748   1.298   3.130   4.180  0.1638  0.2255 -0.5266
 2680SOL     OW10749   3.849   2.370   2.057 -0.0372 -0.2390  0.5410
 2680SOL    HW210750   3.834   2.370   1.963 -0.4309 -0.3377  0.6041
 2680SOL    HW310751   3.814   2.286   2.087 -0.7538  0.1896  0.9115
 2680SOL    MW410752   3.842   2.359   2.049 -0.1837 -0.1955  0.5982
 2681SOL     OW10753   4.160   0.946   2.320 -0.9901  0.4531  0.1331
 2681SOL    HW210754   4.185   0.992   2.400 -0.2479  2.0592 -0.9899
 2681SOL    HW310755   4.080   0.990   2.291 -0.7538  0.4749 -0.4887
 2681SOL    MW410756   4.153   0.958   2.327 -0.8610  0.6679 -0.0971
 2682SOL     OW10757   3.731   0.864   3.518  0.0564 -0.2040  0.3018
 2682SOL    HW210758   3.803   0.900   3.465 -0.6997  0.8746 -0.0125
 2682SOL    HW310759   3.677   0.816   3.455  0.4263 -0.9029  0.5151
 2682SOL    MW410760   3.734   0.863   3.503  0.0055 -0.1539  0.2885
 2683SOL     OW10761   0.834   0.495   2.851  0.6164  0.1915  0.3500
 2683SOL    HW210762   0.785   0.419   2.881 -0.8397  0.3441 -1.5118
 2683SOL    HW310763   0.895   0.515   2.922 -1.1033 -0.8306  2.1436
 2683SOL    MW410764   0.836   0.488   2.864  0.1974  0.0768  0.3410
 2684SOL     OW10765   2.796   2.227   2.714 -0.2441 -0.1917  0.0605
 2684SOL    HW210766   2.761   2.267   2.634  0.1134 -1.9843 -0.9947
 2684SOL    HW310767   2.879   2.188   2.688  0.1551 -0.2968  1.4464
 2684SOL    MW410768   2.802   2.227   2.700 -0.1443 -0.4421  0.1042
 2685SOL     OW10769   2.390   2.437   0.881  0.1542  0.1686 -0.5402
 2685SOL    HW210770   2.327   2.397   0.820 -0.5611  2.9600 -1.6941
 2685SOL    HW310771   2.352   2.420   0.967 -1.4221  0.4865 -1.1375
 2685SOL    MW410772   2.376   2.429   0.884 -0.1481  0.5788 -0.7713
 2686SOL     OW10773   0.526   0.838   1.189  0.1381  0.0542 -0.1318
 2686SOL    HW210774   0.572   0.791   1.259  0.1644  0.2244 -0.0332
 2686SOL    HW310775   0.518   0.928   1.223  0.9472  0.3574 -0.7219
 2686SOL    MW410776   0.531   0.844   1.203  0.2483  0.1167 -0.1967
 2687SOL     OW10777   0.153   3.577   3.568 -0.0742 -0.2172  0.4062
 2687SOL    HW210778   0.238   3.556   3.529 -0.9035 -0.7170 -1.2159
 2687SOL    HW310779   0.113   3.637   3.505 -2.0580 -2.2134 -0.2867
 2687SOL    MW410780   0.159   3.582   3.555 -0.4454 -0.5465  0.1008
 2688SOL     OW10781   1.321   0.708   3.620  0.0970 -0.6531 -0.7914
 2688SOL    HW210782   1.394   0.766   3.640 -0.3980 -0.2335 -0.2054
 2688SOL    HW310783   1.261   0.763   3.568 -0.1901 -0.7533 -0.5641
 2688SOL    MW410784   1.322   0.723   3.616 -0.0062 -0.6110 -0.6841
 2689SOL     OW10785   2.756   1.535   1.772  0.0356  0.1759  0.1293
 2689SOL    HW210786   2.668   1.570   1.758  0.0128 -0.2534 -0.8352
 2689SOL    HW310787   2.750   1.484   1.852 -0.2913  1.1628  0.7449
 2689SOL    MW410788   2.744   1.533   1.781 -0.0105  0.2495  0.0832
 2690SOL     OW10789   0.485   2.164   3.888  0.4817 -0.1351 -0.2340
 2690SOL    HW210790   0.518   2.154   3.978  1.9913 -2.3303 -0.9994
 2690SOL    HW310791   0.415   2.229   3.896  0.1847 -0.7201  2.6303
 2690SOL    MW410792   0.481   2.171   3.901  0.6417 -0.5019  0.0429
 2691SOL     OW10793   2.626   2.099   1.274 -0.1875 -0.2804  0.0041
 2691SOL    HW210794   2.668   2.181   1.246  0.0256 -0.1881  0.5790
 2691SOL    HW310795   2.594   2.060   1.193  0.1479  0.1319 -0.3339
 2691SOL    MW410796   2.628   2.105   1.259 -0.1152 -0.2138  0.0354
 2692SOL     OW10797   4.342   1.276   1.833  0.0940 -0.2793 -0.4688
 2692SOL    HW210798   4.426   1.233   1.844  0.4408 -0.0621 -2.1820
 2692SOL    HW310799   4.362   1.369   1.829 -0.3758 -0.1300  0.5158
 2692SOL    MW410800   4.355   1.283   1.834  0.0778 -0.2309 -0.5649
 2693SOL     OW10801   4.463   1.301   3.959  0.3543 -0.3168  0.4992
 2693SOL    HW210802   4.509   1.288   4.042  1.7301 -0.2990 -0.2389
 2693SOL    HW310803   4.509   1.244   3.897 -1.0751 -0.8341 -0.1104
 2693SOL    MW410804   4.475   1.292   3.962  0.3473 -0.3827  0.3214
 2694SOL     OW10805   1.607   1.686   4.410 -0.4593  0.0007  0.4250
 2694SOL    HW210806   1.668   1.716   4.478  1.4979 -1.5786 -0.5762
 2694SOL    HW310807   1.583   1.597   4.438  2.4604 -1.7101 -2.2659
 2694SOL    MW410808   1.612   1.678   4.423  0.1842 -0.4334 -0.0621
 2695SOL     OW10809   3.968   3.457   2.761 -0.2930 -0.3015 -0.2046
 2695SOL    HW210810   3.953   3.550   2.744 -0.2089 -0.0178  1.2042
 2695SOL    HW310811   3.880   3.420   2.770 -0.3152 -0.0020  0.9845
 2695SOL    MW410812   3.955   3.465   2.760 -0.2849 -0.2246  0.1381
 2696SOL     OW10813   3.928   4.194   3.714 -0.2568  0.4389 -0.4350
 2696SOL    HW210814   3.957   4.246   3.789  0.3296  0.9842 -1.0386
 2696SOL    HW310815   4.004   4.141   3.690 -1.2540 -1.7213  1.0192
 2696SOL    MW410816   3.942   4.194   3.721 -0.3110  0.2258 -0.3228
 2697SOL     OW10817   1.638   1.081   3.377 -0.1418  0.0202 -0.1680
 2697SOL    HW210818   1.697   1.144   3.336  0.6227 -0.3423  0.3535
 2697SOL    HW310819   1.553   1.126   3.382  0.2450  0.7724 -0.3649
 2697SOL    MW410820   1.634   1.095   3.373  0.0101  0.0716 -0.1252
 2698SOL     OW10821   2.545   4.184   3.591 -0.0712  0.0084  0.4886
 2698SOL    HW210822   2.572   4.156   3.679 -2.1623 -0.3549  1.0583
 2698SOL    HW310823   2.588   4.123   3.532 -1.6749 -2.1884  1.5059
 2698SOL    MW410824   2.554   4.172   3.595 -0.5587 -0.3294  0.6980
 2699SOL     OW10825   1.397   1.292   3.820  0.4996 -0.5157  0.1319
 2699SOL    HW210826   1.324   1.239   3.853 -0.4632  0.6010 -0.1723
 2699SOL    HW310827   1.441   1.322   3.899  2.0686 -3.0992  0.3102
 2699SOL    MW410828   1.393   1.289   3.835  0.5796 -0.7093  0.1153
 2700SOL     OW10829   2.705   0.737   3.396  0.2689  0.2235  0.5838
 2700SOL    HW210830   2.674   0.815   3.350  0.1264 -0.4110 -0.4035
 2700SOL    HW310831   2.627   0.681   3.402  0.6604 -0.3735  0.1702
 2700SOL    MW410832   2.691   0.740   3.391  0.3018  0.0610  0.3989
 2701SOL     OW10833   3.554   1.975   3.707  0.5866  0.2970  1.0522
 2701SOL    HW210834   3.498   1.900   3.728  0.2881 -0.1135 -1.0903
 2701SOL    HW310835   3.493   2.049   3.699  0.6742  0.4089  1.4173
 2701SOL    MW410836   3.538   1.975   3.709  0.5587  0.2576  0.8177
 2702SOL     OW10837   4.253   0.206   2.779  0.1496 -0.4902 -0.0042
 2702SOL    HW210838   4.313   0.275   2.749  1.2063 -0.7027  1.5434
 2702SOL    HW310839   4.187   0.253   2.830 -0.5174 -0.3564 -0.9798
 2702SOL    MW410840   4.252   0.222   2.782  0.2010 -0.5006  0.0713
 2703SOL     OW10841   3.071   4.272   1.937  0.4891  0.3034 -0.2623
 2703SOL    HW210842   3.050   4.183   1.965 -1.9138  0.1088 -2.4885
 2703SOL    HW310843   3.029   4.328   2.002 -0.5226 -0.1964 -0.4626
 2703SOL    MW410844   3.062   4.267   1.949  0.0386  0.2118 -0.5824
 2704SOL     OW10845   0.450   3.053   1.710  0.4805  0.3820  0.1208
 2704SOL    HW210846   0.539   3.042   1.745  1.0987  1.3026 -1.1024
 2704SOL    HW310847   0.459   3.036   1.616 -1.0422 -1.4829  0.2789
 2704SOL    MW410848   0.463   3.050   1.702  0.3612  0.2574 -0.0197
 2705SOL     OW10849   2.837   1.236   4.539 -0.7570 -0.0530  0.1544
 2705SOL    HW210850   2.826   1.200   4.451  0.5077  0.0939 -0.0779
 2705SOL    HW310851   2.812   1.165   4.598  1.1619 -1.1691 -0.3115
 2705SOL    MW410852   2.833   1.222   4.535 -0.3370 -0.1808  0.0623
 2706SOL     OW10853   2.012   1.672   3.685  0.3005  0.1891  0.0738
 2706SOL    HW210854   2.071   1.655   3.612  0.1070 -0.2831  0.0251
 2706SOL    HW310855   2.037   1.607   3.751  1.0753  1.1896  0.7818
 2706SOL    MW410856   2.023   1.661   3.684  0.3772  0.2588  0.1608
 2707SOL     OW10857   2.275   0.923   1.810  0.2818 -0.3586  0.5036
 2707SOL    HW210858   2.226   0.980   1.869  1.0592 -0.5783  1.3698
 2707SOL    HW310859   2.251   0.953   1.722 -2.2590 -1.1711  0.8688
 2707SOL    MW410860   2.265   0.934   1.806  0.0491 -0.4948  0.6661
 2708SOL     OW10861   3.839   1.943   1.405 -0.8204  0.3908 -0.6346
 2708SOL    HW210862   3.804   1.870   1.354  1.6681 -0.7485 -0.7939
 2708SOL    HW310863   3.805   1.929   1.494  0.6959 -1.7617 -0.3445
 2708SOL    MW410864   3.830   1.931   1.410 -0.2920 -0.0435 -0.6174
 2709SOL     OW10865   1.433   0.982   3.091  0.2991  0.1366  0.4622
 2709SOL    HW210866   1.478   1.063   3.115 -0.3548  1.1916 -1.6835
 2709SOL    HW310867   1.340   1.001   3.105  0.0595  0.1577 -1.0467
 2709SOL    MW410868   1.427   0.995   3.096  0.1812  0.2786 -0.0200
 2710SOL     OW10869   2.192   0.342   2.735  0.0374 -0.2712  0.3066
 2710SOL    HW210870   2.191   0.316   2.643 -0.3985 -0.6801  0.4256
 2710SOL    HW310871   2.134   0.279   2.779  0.0529  0.0663  0.8187
 2710SOL    MW410872   2.184   0.331   2.729 -0.0181 -0.2806  0.3899
 2711SOL     OW10873   4.177   0.503   0.684  0.5299  0.0285 -0.0229
 2711SOL    HW210874   4.090   0.534   0.709  0.2527  0.4148 -1.4325
 2711SOL    HW310875   4.197   0.549   0.603  1.8749 -0.3853  0.0593
 2711SOL    MW410876   4.168   0.513   0.677  0.6708  0.0249 -0.1981
 2712SOL     OW10877   0.289   4.488   0.878 -0.7215 -0.0501 -0.7474
 2712SOL    HW210878   0.294   4.423   0.808  1.3732 -1.8275  0.9941
 2712SOL    HW310879   0.355   4.553   0.856  0.1687 -0.7835 -0.2707
 2712SOL    MW410880   0.298   4.488   0.866 -0.3277 -0.3813 -0.4547
 2713SOL     OW10881   2.485   4.416   2.916 -0.0511 -0.2011 -0.0720
 2713SOL    HW210882   2.399   4.384   2.943  0.4875 -0.2333  1.6180
 2713SOL    HW310883   2.499   4.376   2.830 -1.3599 -0.8464 -0.0030
 2713SOL    MW410884   2.475   4.407   2.908 -0.1527 -0.2905  0.1601
 2714SOL     OW10885   3.033   2.160   2.334 -0.1801 -0.4328 -0.3351
 2714SOL    HW210886   3.056   2.183   2.424  1.0469 -0.1719 -0.7065
 2714SOL    HW310887   3.117   2.156   2.288 -0.8503  0.1007 -1.6234
 2714SOL    MW410888   3.047   2.163   2.340 -0.1067 -0.3280 -0.5541
 2715SOL     OW10889   3.275   2.761   1.904  0.1422  0.1869  0.3615
 2715SOL    HW210890   3.240   2.691   1.848 -0.1684 -0.1923  1.0299
 2715SOL    HW310891   3.205   2.779   1.966  0.9861 -0.3370  1.4917
 2715SOL    MW410892   3.261   2.754   1.904  0.2126  0.0678  0.5988
 2716SOL     OW10893   2.231   2.750   1.015 -0.5717 -0.3203 -0.5681
 2716SOL    HW210894   2.252   2.716   0.928 -1.1033  0.5898 -1.0565
 2716SOL    HW310895   2.149   2.798   1.003  0.1298  1.0765  0.1180
 2716SOL    MW410896   2.223   2.752   1.002 -0.5493 -0.0159 -0.5420
 2717SOL     OW10897   2.692   3.018   0.583  0.2827 -0.1919 -0.4140
 2717SOL    HW210898   2.703   2.936   0.631  0.9530 -0.4804 -1.0618
 2717SOL    HW310899   2.600   3.042   0.598 -0.3870 -1.9153 -1.5518
 2717SOL    MW410900   2.681   3.010   0.591  0.2828 -0.4574 -0.6496
 2718SOL     OW10901   3.431   2.066   4.159 -0.0517 -0.4097  0.1851
 2718SOL    HW210902   3.478   2.124   4.219 -2.1482  0.6993  0.8273
 2718SOL    HW310903   3.469   2.085   4.073  1.2489 -0.1666  0.8036
 2718SOL    MW410904   3.442   2.076   4.156 -0.1567 -0.2313  0.3515
 2719SOL     OW10905   3.800   3.903   0.536  0.3056  0.2466  0.2497
 2719SOL    HW210906   3.885   3.891   0.577  0.5386  0.8667 -0.0480
 2719SOL    HW310907   3.781   3.996   0.546 -0.5038  0.0431  0.6393
 2719SOL    MW410908   3.809   3.913   0.542  0.2295  0.3016  0.2618
 2720SOL     OW10909   2.337   2.234   4.218  0.3791  0.2454  0.1379
 2720SOL    HW210910   2.353   2.240   4.312 -0.5673  2.4345  0.1950
 2720SOL    HW310911   2.392   2.302   4.180  0.6228 -0.5146 -0.8848
 2720SOL    MW410912   2.346   2.243   4.225  0.2864  0.4340  0.0105
 2721SOL     OW10913   1.614   3.070   3.223 -0.4044  0.1315 -0.3059
 2721SOL    HW210914   1.700   3.064   3.265 -0.4124  0.9367 -0.1507
 2721SOL    HW310915   1.577   3.151   3.257  0.3339  1.7845 -3.1884
 2721SOL    MW410916   1.621   3.080   3.233 -0.3080  0.4559 -0.6657
 2722SOL     OW10917   3.725   2.066   3.051  0.3788 -0.2559  0.5467
 2722SOL    HW210918   3.673   2.026   2.981  1.7314 -0.1123 -0.5439
 2722SOL    HW310919   3.675   2.144   3.075  0.8182  0.6965 -1.5356
 2722SOL    MW410920   3.711   2.071   3.045  0.6152 -0.1113  0.1281
 2723SOL     OW10921   2.606   3.516   2.420  0.2551 -0.1497 -0.7960
 2723SOL    HW210922   2.556   3.467   2.355 -0.1714  0.5786 -1.0155
 2723SOL    HW310923   2.638   3.593   2.374  1.9541 -0.8094 -0.7763
 2723SOL    MW410924   2.604   3.520   2.406  0.4230 -0.1406 -0.8224
 2724SOL     OW10925   3.436   1.107   3.573 -0.2801 -0.5304 -0.3902
 2724SOL    HW210926   3.405   1.182   3.624 -0.7891 -0.1939 -1.1890
 2724SOL    HW310927   3.475   1.146   3.494  0.9709 -1.0192 -0.0233
 2724SOL    MW410928   3.437   1.122   3.569 -0.1822 -0.5505 -0.4472
 2725SOL     OW10929   3.671   1.150   0.570  0.5075  0.1363  0.0812
 2725SOL    HW210930   3.687   1.085   0.639  1.3908 -1.5453 -1.6367
 2725SOL    HW310931   3.698   1.105   0.489  0.3372  2.3694 -1.2482
 2725SOL    MW410932   3.677   1.135   0.568  0.6016  0.2091 -0.3208
 2726SOL     OW10933   2.817   3.772   2.789  0.8124  0.1431 -0.1764
 2726SOL    HW210934   2.724   3.759   2.804  0.2874  1.0834 -2.4484
 2726SOL    HW310935   2.822   3.830   2.713  3.2448  0.3157  0.0554
 2726SOL    MW410936   2.806   3.778   2.781  1.0641  0.2899 -0.4456
 2727SOL     OW10937   1.825   1.602   2.678  0.2866 -0.3154 -0.3738
 2727SOL    HW210938   1.863   1.685   2.707  0.6825 -0.1354 -1.3825
 2727SOL    HW310939   1.883   1.535   2.714  1.3883 -0.0570 -1.6013
 2727SOL    MW410940   1.838   1.604   2.687  0.4842 -0.2576 -0.6688
 2728SOL     OW10941   2.412   3.677   0.793 -0.4348 -0.5754  0.0841
 2728SOL    HW210942   2.322   3.699   0.772 -0.8931 -1.5396  0.9616
 2728SOL    HW310943   2.423   3.705   0.884  0.8218  1.5122 -0.6702
 2728SOL    MW410944   2.402   3.683   0.803 -0.3295 -0.4272  0.1003
 2729SOL     OW10945   3.526   1.913   3.435  0.0598  0.2623 -0.9353
 2729SOL    HW210946   3.527   1.949   3.524 -0.7857 -0.4198 -0.6481
 2729SOL    HW310947   3.606   1.947   3.395  0.3837  0.6787  0.0438
 2729SOL    MW410948   3.536   1.922   3.441 -0.0090  0.2272 -0.7683
 2730SOL     OW10949   4.000   3.723   4.027  0.2551  0.0726 -0.1047
 2730SOL    HW210950   3.912   3.690   4.046  0.4076 -0.6431 -0.6693
 2730SOL    HW310951   3.984   3.808   3.984 -0.1603 -0.1347 -0.3678
 2730SOL    MW410952   3.986   3.730   4.024  0.2204 -0.0491 -0.2139
 2731SOL     OW10953   3.813   3.458   0.749  0.5443  0.4577 -0.0612
 2731SOL    HW210954   3.770   3.524   0.694 -0.1892  1.4239  1.6291
 2731SOL    HW310955   3.835   3.505   0.829  0.9245 -1.1157  0.7680
 2731SOL    MW410956   3.810   3.473   0.752  0.4977  0.3776  0.2712
 2732SOL     OW10957   3.045   0.082   3.963 -0.3904 -0.0182 -0.2272
 2732SOL    HW210958   3.025   0.136   3.887 -0.8528 -0.5944 -0.5181
 2732SOL    HW310959   2.965   0.032   3.980 -0.4220  0.3778  0.8685
 2732SOL    MW410960   3.032   0.082   3.955 -0.4556 -0.0420 -0.1210
 2733SOL     OW10961   0.222   1.683   0.778 -0.3581 -0.3063  0.7914
 2733SOL    HW210962   0.145   1.656   0.827 -0.4983 -0.0142  0.7260
 2733SOL    HW310963   0.294   1.635   0.819 -0.6620 -1.0606  0.4536
 2733SOL    MW410964   0.222   1.673   0.790 -0.4167 -0.3673  0.7382
 2734SOL     OW10965   2.706   4.272   1.661 -0.2822  0.0067 -0.0110
 2734SOL    HW210966   2.730   4.322   1.739 -2.5305  0.7088  0.2766
 2734SOL    HW310967   2.700   4.337   1.591 -0.7297 -0.2352 -0.2017
 2734SOL    MW410968   2.708   4.287   1.662 -0.6379  0.0674  0.0018
 2735SOL     OW10969   0.896   3.342   4.313  0.7139 -0.4062  0.4745
 2735SOL    HW210970   0.900   3.247   4.325 -1.8636 -0.5218  0.9168
 2735SOL    HW310971   0.906   3.355   4.219  1.4691 -1.1034  0.4567
 2735SOL    MW410972   0.898   3.331   4.302  0.4735 -0.5134  0.5305
 2736SOL     OW10973   3.755   0.079   3.759  0.2029 -0.0037 -0.0424
 2736SOL    HW210974   3.813   0.084   3.684  0.2453 -0.9349 -0.0826
 2736SOL    HW310975   3.701   0.002   3.743  1.3120 -1.1783  1.6433
 2736SOL    MW410976   3.755   0.069   3.747  0.3548 -0.2815  0.1747
 2737SOL     OW10977   2.791   3.701   0.976 -0.0111 -0.0793 -0.0433
 2737SOL    HW210978   2.723   3.760   0.944  0.5260  1.0985  0.9472
 2737SOL    HW310979   2.822   3.741   1.057  1.3862 -0.9479 -0.1245
 2737SOL    MW410980   2.786   3.714   0.982  0.2442 -0.0385  0.0767
 2738SOL     OW10981   0.663   1.643   0.247  0.6567 -0.5446 -0.6412
 2738SOL    HW210982   0.579   1.660   0.290 -0.0748 -0.7227 -1.9533
 2738SOL    HW310983   0.663   1.548   0.233  0.5070 -0.3897 -1.7553
 2738SOL    MW410984   0.652   1.632   0.251  0.5404 -0.5477 -0.9613
 2739SOL     OW10985   1.634   2.548   2.988 -0.5262  0.1204 -0.2988
 2739SOL    HW210986   1.724   2.521   3.003 -0.2229  0.1787 -1.9775
 2739SOL    HW310987   1.633   2.642   3.010  0.3110  0.5952 -2.1705
 2739SOL    MW410988   1.645   2.557   2.993 -0.3757  0.1908 -0.7672
 2740SOL     OW10989   0.122   2.803   4.456 -0.1193 -0.3958  0.0081
 2740SOL    HW210990   0.154   2.715   4.438  0.6406 -0.2403  0.5435
 2740SOL    HW310991   0.194   2.861   4.427 -0.7426  0.0582 -0.6430
 2740SOL    MW410992   0.136   2.799   4.450 -0.1013 -0.3154 -0.0071
 2741SOL     OW10993   4.393   0.651   2.986  0.2258 -0.4434 -0.2745
 2741SOL    HW210994   4.306   0.635   2.951 -0.2139 -0.5437  0.8488
 2741SOL    HW310995   4.433   0.564   2.990 -0.1456 -0.5808  0.5584
 2741SOL    MW410996   4.387   0.637   2.982  0.1188 -0.4748 -0.0164
 2742SOL     OW10997   0.709   3.858   3.642 -0.0905  0.4819  0.7692
 2742SOL    HW210998   0.755   3.806   3.576 -1.4070  0.1520  0.0759
 2742SOL    HW310999   0.663   3.793   3.696  0.7613  0.7645  1.8484
 2742SOL    MW411000   0.709   3.843   3.641 -0.1518  0.4756  0.8201
 2743SOL     OW11001   3.989   1.719   3.560 -0.2874 -0.0598  0.1044
 2743SOL    HW211002   4.052   1.791   3.561  0.6001 -0.8274  0.9798
 2743SOL    HW311003   4.043   1.640   3.566 -1.3084 -0.7453  0.4042
 2743SOL    MW411004   4.004   1.718   3.561 -0.3050 -0.2515  0.2594
 2744SOL     OW11005   1.939   1.161   1.324 -0.3906 -0.3737 -0.4669
 2744SOL    HW211006   1.923   1.156   1.419  0.6177 -2.3990 -0.3836
 2744SOL    HW311007   1.891   1.087   1.288  0.9412 -0.8233 -1.3106
 2744SOL    MW411008   1.930   1.151   1.332 -0.0819 -0.7002 -0.5672
 2745SOL     OW11009   2.898   3.134   3.804 -0.2648 -0.4049  0.1019
 2745SOL    HW211010   2.893   3.141   3.708  0.2715 -0.2083  0.0852
 2745SOL    HW311011   2.965   3.067   3.819 -2.3446 -2.4744  0.3122
 2745SOL    MW411012   2.906   3.126   3.793 -0.4685 -0.6520  0.1275
 2746SOL     OW11013   2.074   3.139   0.988  0.4572  0.0502 -0.0340
 2746SOL    HW211014   2.040   3.059   0.947  0.0655 -0.1466  0.6725
 2746SOL    HW311015   2.014   3.157   1.060  0.8752  0.6623  0.1678
 2746SOL    MW411016   2.061   3.131   0.992  0.4607  0.1050  0.0858
 2747SOL     OW11017   0.418   3.841   3.857  0.1038  0.4334 -0.4134
 2747SOL    HW211018   0.481   3.773   3.833  1.0146  0.9119  0.5536
 2747SOL    HW311019   0.333   3.801   3.842  0.6366 -0.8526 -0.0730
 2747SOL    MW411020   0.415   3.827   3.852  0.2942  0.3269 -0.2409
 2748SOL     OW11021   4.299   4.262   3.483  0.4597  0.1227  0.1560
 2748SOL    HW211022   4.279   4.335   3.424  0.3075 -0.1391 -0.1208
 2748SOL    HW311023   4.355   4.204   3.431 -0.2994 -0.4921  0.0019
 2748SOL    MW411024   4.304   4.264   3.468  0.3395  0.0070  0.0992
 2749SOL     OW11025   2.585   0.003   2.444 -0.2574 -0.2896  0.2708
 2749SOL    HW211026   2.548  -0.049   2.515  1.1571 -0.5364  0.8310
 2749SOL    HW311027   2.650   0.058   2.486 -1.4671  1.6806 -0.3827
 2749SOL    MW411028   2.588   0.003   2.459 -0.2304 -0.0622  0.2585
 2750SOL     OW11029   3.619   3.115   1.770  0.0537  0.3730  0.0015
 2750SOL    HW211030   3.592   3.193   1.722  0.1957  1.7696  2.1381
 2750SOL    HW311031   3.540   3.060   1.773 -0.1149  0.5310 -1.2953
 2750SOL    MW411032   3.605   3.118   1.764  0.0502  0.5781  0.1123
 2751SOL     OW11033   1.968   1.765   3.048  0.1543  0.5447 -0.7792
 2751SOL    HW211034   1.894   1.704   3.053  0.4376  0.1132 -1.6930
 2751SOL    HW311035   1.972   1.790   2.955  0.6432  1.1969 -0.5829
 2751SOL    MW411036   1.959   1.760   3.036  0.2562  0.5738 -0.8738
 2752SOL     OW11037   3.334   3.996   3.737  0.8804 -0.5128  0.0452
 2752SOL    HW211038   3.414   4.028   3.696  1.9298 -2.2716  0.6753
 2752SOL    HW311039   3.362   3.962   3.822 -0.8804  0.8191  1.1867
 2752SOL    MW411040   3.348   3.995   3.743  0.7866 -0.5691  0.2789
 2753SOL     OW11041   1.359   3.815   1.032  0.4543 -0.1786 -0.1768
 2753SOL    HW211042   1.447   3.844   1.006  0.3971 -0.2109 -0.4011
 2753SOL    HW311043   1.312   3.896   1.051  0.7732 -0.1927  0.7122
 2753SOL    MW411044   1.365   3.830   1.031  0.4889 -0.1847 -0.0891
 2754SOL     OW11045   3.691   3.453   1.166 -0.3309 -0.0397  0.4540
 2754SOL    HW211046   3.727   3.392   1.101  0.9941  0.5276  0.6525
 2754SOL    HW311047   3.757   3.458   1.234 -0.8147  0.9694  0.8556
 2754SOL    MW411048   3.704   3.445   1.166 -0.2199  0.1683  0.5332
 2755SOL     OW11049   2.595   4.104   1.383  0.0379  0.3700  0.1416
 2755SOL    HW211050   2.560   4.174   1.327 -0.9724  0.2494  0.5936
 2755SOL    HW311051   2.598   4.027   1.327 -0.6197  0.3375  0.1458
 2755SOL    MW411052   2.590   4.103   1.368 -0.1821  0.3498  0.2018
 2756SOL     OW11053   0.053   1.689   1.516 -0.2359  0.2333 -0.6566
 2756SOL    HW211054   0.030   1.645   1.434 -0.1891  0.1045 -0.5993
 2756SOL    HW311055   0.092   1.621   1.570 -0.7662  0.1934 -0.3176
 2756SOL    MW411056   0.055   1.675   1.512 -0.2997  0.2111 -0.6043
 2757SOL     OW11057   0.388   3.165   2.981 -0.2663 -0.1968  0.6918
 2757SOL    HW211058   0.361   3.247   3.021 -0.9701 -0.0206 -0.1157
 2757SOL    HW311059   0.309   3.110   2.983 -0.9794  0.5998 -2.3812
 2757SOL    MW411060   0.374   3.169   2.986 -0.4532 -0.0685  0.1798
 2758SOL     OW11061   0.822   3.198   0.610 -0.0552 -0.0805  0.1377
 2758SOL    HW211062   0.879   3.222   0.684  1.0861  0.2095 -0.8278
 2758SOL    HW311063   0.794   3.108   0.630  2.0828 -0.8484 -0.1892
 2758SOL    MW411064   0.826   3.189   0.623  0.3775 -0.1436 -0.0328
 2759SOL     OW11065   3.999   3.376   3.729 -0.5296 -0.4119 -0.0275
 2759SOL    HW211066   3.961   3.342   3.810 -1.3881 -1.8872 -1.0229
 2759SOL    HW311067   4.076   3.321   3.713 -0.1774  0.0818 -0.0482
 2759SOL    MW411068   4.004   3.364   3.737 -0.5964 -0.5414 -0.1615
 2760SOL     OW11069   0.006   3.530   0.985  0.1067  0.2342 -0.1260
 2760SOL    HW211070  -0.058   3.531   1.057  0.6250 -1.4212  0.3800
 2760SOL    HW311071  -0.017   3.606   0.932 -1.6060  0.2924  0.6530
 2760SOL    MW411072  -0.006   3.540   0.988 -0.0509  0.0235  0.0435
 2761SOL     OW11073   1.963   3.569   4.245 -0.0575 -0.5844  0.0129
 2761SOL    HW211074   1.922   3.500   4.297 -2.3831  0.5107 -0.3226
 2761SOL    HW311075   1.890   3.622   4.213  1.5865  1.0346 -1.1514
 2761SOL    MW411076   1.948   3.567   4.248 -0.1474 -0.2263 -0.1850
 2762SOL     OW11077   2.458   0.273   3.223 -0.6179 -0.0390  0.4168
 2762SOL    HW211078   2.363   0.263   3.218 -0.6814 -0.4801  2.1494
 2762SOL    HW311079   2.472   0.368   3.226 -0.9272  0.0607 -0.8575
 2762SOL    MW411080   2.447   0.284   3.223 -0.6671 -0.0840  0.4773
 2763SOL     OW11081   3.300   1.836   1.639 -0.3642 -0.1521  0.0301
 2763SOL    HW211082   3.302   1.784   1.559  1.3803 -0.4669  0.2596
 2763SOL    HW311083   3.345   1.918   1.616 -0.9221  0.2499  0.3528
 2763SOL    MW411084   3.306   1.840   1.625 -0.2076 -0.1406  0.1030
 2764SOL     OW11085   2.640   1.418   4.631 -0.2332 -0.1251  0.3662
 2764SOL    HW211086   2.581   1.429   4.557 -0.2581  1.2977  0.5899
 2764SOL    HW311087   2.706   1.356   4.599  0.2098  1.0673 -1.1330
 2764SOL    MW411088   2.641   1.411   4.617 -0.1780  0.2200  0.1979
 2765SOL     OW11089   3.128   2.405   3.471 -0.4175  0.2775 -0.1680
 2765SOL    HW211090   3.177   2.422   3.551 -0.4157 -0.9537  0.0995
 2765SOL    HW311091   3.067   2.479   3.463 -0.2119  0.5508  0.8033
 2765SOL    MW411092   3.126   2.417   3.480 -0.3901  0.1511 -0.0045
 2766SOL     OW11093   0.398   4.369   3.146 -0.4268  0.2560  0.5331
 2766SOL    HW211094   0.373   4.344   3.235 -0.8513 -0.6173  0.1725
 2766SOL    HW311095   0.404   4.464   3.149 -2.4319  0.3994  1.0088
 2766SOL    MW411096   0.396   4.378   3.158 -0.7474  0.1597  0.5483
 2767SOL     OW11097   2.762   2.358   1.283 -0.1718 -0.8541  0.0458
 2767SOL    HW211098   2.760   2.428   1.217  0.2462 -0.3486  0.5634
 2767SOL    HW311099   2.728   2.399   1.362 -2.4212 -1.9720 -0.3020
 2767SOL    MW411100   2.757   2.373   1.285 -0.4134 -0.9349  0.0682
 2768SOL     OW11101   1.925   1.685   0.648  0.2454 -0.0958  0.1060
 2768SOL    HW211102   1.858   1.754   0.655 -0.1288 -0.5553  1.1949
 2768SOL    HW311103   1.875   1.604   0.639  0.6321 -0.4931  1.3972
 2768SOL    MW411104   1.910   1.684   0.648  0.2471 -0.2088  0.4200
 2769SOL     OW11105   0.140   3.986   4.432  0.1135 -0.5994  0.2015
 2769SOL    HW211106   0.082   4.059   4.408  0.0308 -0.0996  1.9031
 2769SOL    HW311107   0.228   4.018   4.410 -0.1307 -0.9640 -1.4069
 2769SOL    MW411108   0.144   4.000   4.426  0.0704 -0.5815  0.2138
 2770SOL     OW11109   0.413   4.454   3.814 -0.0806  0.6789 -0.4088
 2770SOL    HW211110   0.470   4.382   3.842 -0.5214  0.3448 -0.3820
 2770SOL    HW311111   0.449   4.531   3.859  0.2380  0.4354 -0.2465
 2770SOL    MW411112   0.425   4.455   3.824 -0.0967  0.6027 -0.3838
 2771SOL     OW11113   3.397   3.492   0.614 -0.0779  0.1560  0.4549
 2771SOL    HW211114   3.450   3.453   0.684 -0.4808 -1.5423 -0.1397
 2771SOL    HW311115   3.344   3.419   0.582  0.7441  0.6951 -2.2406
 2771SOL    MW411116   3.397   3.477   0.619 -0.0226  0.0031  0.0208
 2772SOL     OW11117   2.452   4.548   1.403  0.0063  0.3178 -0.2527
 2772SOL    HW211118   2.412   4.515   1.484  0.6489  0.4250  0.1145
 2772SOL    HW311119   2.456   4.472   1.345 -1.0893  0.3969 -0.4361
 2772SOL    MW411120   2.447   4.533   1.406 -0.0535  0.3424 -0.2285
 2773SOL     OW11121   0.019   3.711   2.989 -0.0202 -0.1056 -0.0353
 2773SOL    HW211122   0.039   3.678   3.076 -0.9691  2.0675  1.0630
 2773SOL    HW311123  -0.063   3.669   2.965  0.2985 -0.7890  0.0738
 2773SOL    MW411124   0.011   3.701   2.997 -0.1033  0.0909  0.1240
 2774SOL     OW11125   0.558   0.786   1.971 -0.4069  0.2800 -0.3057
 2774SOL    HW211126   0.495   0.734   1.921  0.2409 -0.7005 -0.1069
 2774SOL    HW311127   0.503   0.846   2.022 -1.3649 -2.2270  1.7707
 2774SOL    MW411128   0.542   0.787   1.971 -0.4478 -0.1801 -0.0055
 2775SOL     OW11129   0.506   2.599   4.405 -0.5102  0.0393  0.4436
 2775SOL    HW211130   0.598   2.624   4.410 -0.2672 -0.6241 -0.4911
 2775SOL    HW311131   0.461   2.679   4.376 -0.3692  0.6293  1.8303
 2775SOL    MW411132   0.513   2.613   4.402 -0.4595  0.0296  0.5032
 2776SOL     OW11133   3.239   3.797   1.660 -0.2193 -0.2025 -0.0552
 2776SOL    HW211134   3.229   3.741   1.737  1.5138  1.2957  1.3198
 2776SOL    HW311135   3.153   3.837   1.648 -0.4380 -0.2648  1.2537
 2776SOL    MW411136   3.226   3.795   1.669 -0.0195 -0.0131  0.2989
 2777SOL     OW11137   3.095   4.139   1.332  0.1495  0.0078 -0.0749
 2777SOL    HW211138   3.127   4.094   1.254  1.6409 -1.1402  1.1648
 2777SOL    HW311139   3.130   4.228   1.325  1.4927 -0.5148  0.0108
 2777SOL    MW411140   3.104   4.145   1.321  0.5235 -0.2126  0.0999
 2778SOL     OW11141   1.873   2.696   1.201 -0.2647  0.0753  0.2115
 2778SOL    HW211142   1.919   2.775   1.229 -0.8024  0.7029 -0.6488
 2778SOL    HW311143   1.940   2.628   1.198  0.1176  0.3999  1.3566
 2778SOL    MW411144   1.888   2.697   1.204 -0.2852  0.2009  0.2491
 2779SOL     OW11145   0.970   2.603   2.993  0.0165 -0.3820 -0.1143
 2779SOL    HW211146   1.062   2.583   3.010  0.2123  1.5451  1.2092
 2779SOL    HW311147   0.967   2.631   2.902  0.5239 -1.6488 -0.5245
 2779SOL    MW411148   0.981   2.604   2.983  0.1093 -0.2949  0.0062
 2780SOL     OW11149   4.053   2.460   2.476 -0.0528 -0.0352  0.2050
 2780SOL    HW211150   4.148   2.448   2.480 -0.0017  0.1728 -0.4435
 2780SOL    HW311151   4.036   2.533   2.536 -0.0295 -1.3078  1.8267
 2780SOL    MW411152   4.063   2.468   2.485 -0.0430 -0.1757  0.3334
 2781SOL     OW11153   2.624   1.118   0.820 -0.3080 -0.4001 -0.3154
 2781SOL    HW211154   2.636   1.168   0.739  1.4642 -0.8056 -0.3336
 2781SOL    HW311155   2.531   1.124   0.839 -0.6692  0.0808 -2.1543
 2781SOL    MW411156   2.613   1.125   0.811 -0.1219 -0.3901 -0.5604
 2782SOL     OW11157   2.278   2.340   1.121 -0.4906  0.3370 -0.0812
 2782SOL    HW211158   2.300   2.380   1.206 -0.1797  1.2529 -0.5866
 2782SOL    HW311159   2.283   2.246   1.138 -0.3786  0.5072  0.9106
 2782SOL    MW411160   2.282   2.333   1.135 -0.4348  0.4803 -0.0170
 2783SOL     OW11161   2.761   0.088   0.884  0.0290  0.8632 -0.2444
 2783SOL    HW211162   2.847   0.090   0.841  0.0217 -1.9475 -0.4990
 2783SOL    HW311163   2.778   0.054   0.972 -0.4575  3.1076  0.7433
 2783SOL    MW411164   2.775   0.084   0.890 -0.0361  0.7885 -0.1476
 2784SOL     OW11165   4.440   2.564   1.181  0.0924  0.1564 -0.2201
 2784SOL    HW211166   4.439   2.606   1.267 -0.2993 -0.7447  0.2283
 2784SOL    HW311167   4.522   2.516   1.179  0.1224  0.2144 -0.3667
 2784SOL    MW411168   4.451   2.563   1.192  0.0447  0.0452 -0.1803
 2785SOL     OW11169   3.351   2.676   0.773 -0.2598  0.5095  0.5381
 2785SOL    HW211170   3.339   2.581   0.781  1.4737  0.1271 -1.1278
 2785SOL    HW311171   3.405   2.700   0.848 -0.9009  0.2327  1.0947
 2785SOL    MW411172   3.356   2.667   0.784 -0.1157  0.4225  0.3917
 2786SOL     OW11173   2.921   2.433   0.907 -0.1014 -0.1646  0.4617
 2786SOL    HW211174   2.895   2.484   0.983  1.3006 -0.9060  1.4505
 2786SOL    HW311175   2.844   2.434   0.850 -1.7998 -1.1376  2.6853
 2786SOL    MW411176   2.907   2.440   0.909 -0.1405 -0.3908  0.8855
 2787SOL     OW11177   0.406   2.730   1.293 -0.2299 -0.3886 -0.3102
 2787SOL    HW211178   0.361   2.709   1.374  0.6411 -2.6538 -0.3692
 2787SOL    HW311179   0.338   2.769   1.237 -0.7834  1.3868  1.5313
 2787SOL    MW411180   0.391   2.732   1.296 -0.1880 -0.4532 -0.0750
 2788SOL     OW11181   2.192   0.489   2.332 -0.3370 -0.4764  0.5763
 2788SOL    HW211182   2.167   0.413   2.384  0.9262 -1.1433  0.2347
 2788SOL    HW311183   2.208   0.454   2.244  0.1345  0.1916  0.3893
 2788SOL    MW411184   2.191   0.475   2.327 -0.1081 -0.4762  0.5066
 2789SOL     OW11185   0.650   3.650   2.850  0.6388 -0.0201 -0.2380
 2789SOL    HW211186   0.658   3.559   2.878  0.1173 -0.0832 -0.3012
 2789SOL    HW311187   0.722   3.695   2.895 -0.1042 -0.1387  1.0874
 2789SOL    MW411188   0.661   3.644   2.860  0.4720 -0.0441 -0.0714
 2790SOL     OW11189   1.454   0.367   4.114 -0.6578 -0.2486  0.3116
 2790SOL    HW211190   1.409   0.317   4.182 -3.0324  0.5407 -0.6144
 2790SOL    HW311191   1.463   0.455   4.151  3.0936 -1.1550  1.7520
 2790SOL    MW411192   1.449   0.372   4.128 -0.4762 -0.2641  0.3795
 2791SOL     OW11193   4.477   1.325   2.529  0.3133  0.2486  0.0498
 2791SOL    HW211194   4.462   1.290   2.441  0.8282 -1.1736  0.5072
 2791SOL    HW311195   4.560   1.371   2.523  1.1663 -1.2332  0.1622
 2791SOL    MW411196   4.486   1.326   2.517  0.4938 -0.1346  0.1250
 2792SOL     OW11197   4.024   2.769   1.463 -0.2521 -0.3700  0.0652
 2792SOL    HW211198   4.078   2.761   1.385  0.4612  0.7547  0.4281
 2792SOL    HW311199   3.936   2.788   1.430  0.2315  1.0467 -0.4630
 2792SOL    MW411200   4.020   2.771   1.449 -0.0942 -0.0347  0.0434
 2793SOL     OW11201   2.787   1.277   2.774 -0.4445 -0.6875  0.3139
 2793SOL    HW211202   2.854   1.213   2.750  0.2104  0.2219 -0.2918
 2793SOL    HW311203   2.801   1.293   2.867  0.2915 -0.3570  0.1420
 2793SOL    MW411204   2.797   1.271   2.783 -0.2610 -0.5239  0.2113
 2794SOL     OW11205   0.352   0.305   2.355 -0.4508 -0.1988 -0.8673
 2794SOL    HW211206   0.397   0.284   2.272  1.3698  0.2954 -0.0404
 2794SOL    HW311207   0.312   0.391   2.339  2.6213  1.4309 -0.2514
 2794SOL    MW411208   0.353   0.314   2.342  0.1947  0.0814 -0.6769
 2795SOL     OW11209   2.758   0.589   1.993 -0.1559  0.0354  0.3336
 2795SOL    HW211210   2.694   0.626   1.931  2.1918  1.7824 -1.0952
 2795SOL    HW311211   2.775   0.659   2.055 -0.8284 -0.9942  1.7128
 2795SOL    MW411212   2.752   0.603   1.993  0.0651  0.1300  0.3271
 2796SOL     OW11213   0.916   0.734   2.327  0.2122 -0.5730 -0.0691
 2796SOL    HW211214   0.879   0.671   2.388 -2.0576 -0.6366 -1.4324
 2796SOL    HW311215   1.009   0.711   2.320  0.4875 -0.5857  3.2450
 2796SOL    MW411216   0.924   0.723   2.334 -0.0509 -0.5830  0.1883
 2797SOL     OW11217   2.838   1.506   2.611 -0.1564  0.1584 -0.1087
 2797SOL    HW211218   2.810   1.426   2.657  0.3727 -0.3730 -0.7043
 2797SOL    HW311219   2.846   1.479   2.520  0.5308  0.7640 -0.2286
 2797SOL    MW411220   2.835   1.492   2.605  0.0040  0.1682 -0.2031
 2798SOL     OW11221   1.205   1.789   3.753 -0.1167 -0.0855 -0.1247
 2798SOL    HW211222   1.288   1.759   3.788 -1.1237 -1.0717  1.4774
 2798SOL    HW311223   1.170   1.714   3.705 -0.8001 -0.1811  0.5148
 2798SOL    MW411224   1.211   1.775   3.751 -0.3397 -0.2282  0.1711
 2799SOL     OW11225   2.126   0.147   1.685 -0.0145 -0.0204  0.0076
 2799SOL    HW211226   2.172   0.231   1.675  0.3138 -0.4504 -2.1539
 2799SOL    HW311227   2.194   0.081   1.673 -0.5081 -0.6179  0.5012
 2799SOL    MW411228   2.141   0.150   1.682 -0.0363 -0.1559 -0.2125
 2800SOL     OW11229   0.757   2.049   1.954 -0.1786  0.4374  0.2132
 2800SOL    HW211230   0.804   1.966   1.955  0.3412  0.7372  1.5772
 2800SOL    HW311231   0.817   2.112   1.914  0.0987  0.5393  0.7881
 2800SOL    MW411232   0.771   2.047   1.949 -0.0734  0.4904  0.4690
 2801SOL     OW11233   3.275   1.932   4.567 -0.3093  0.0953  0.4307
 2801SOL    HW211234   3.339   1.903   4.501  1.4786 -1.1086  2.6211
 2801SOL    HW311235   3.239   1.851   4.603 -1.0799  0.7375  1.1146
 2801SOL    MW411236   3.279   1.918   4.563 -0.1751  0.0212  0.8099
 2802SOL     OW11237   1.255   0.420   1.015 -0.1590  0.3036 -0.5318
 2802SOL    HW211238   1.292   0.422   1.103 -0.5361  0.1693 -0.3698
 2802SOL    HW311239   1.323   0.380   0.961  0.2256  0.7381 -0.3734
 2802SOL    MW411240   1.269   0.415   1.019 -0.1580  0.3432 -0.4895
 2803SOL     OW11241   2.647   4.141   3.850 -0.5241 -0.2117  0.2028
 2803SOL    HW211242   2.603   4.060   3.875 -0.0743 -1.1184 -1.8772
 2803SOL    HW311243   2.729   4.113   3.809 -0.5384  1.2879 -0.8979
 2803SOL    MW411244   2.652   4.127   3.848 -0.4666 -0.1335 -0.2169
 2804SOL     OW11245   2.821   2.065   4.142  0.0310 -0.4147  0.3628
 2804SOL    HW211246   2.853   2.086   4.055  1.0035 -1.1143  0.5365
 2804SOL    HW311247   2.899   2.037   4.190 -0.6808 -1.1658  1.1035
 2804SOL    MW411248   2.835   2.064   4.137  0.0654 -0.6061  0.4834
 2805SOL     OW11249   3.338   4.201   2.024 -0.0456 -0.2125 -0.1809
 2805SOL    HW211250   3.262   4.231   1.975 -1.1730 -0.4114  1.4091
 2805SOL    HW311251   3.408   4.261   2.000 -1.0773  0.8512 -0.5669
 2805SOL    MW411252   3.337   4.213   2.015 -0.3305 -0.0984 -0.0221
 2806SOL     OW11253   2.690   1.307   1.456  0.5875 -0.3020  0.2774
 2806SOL    HW211254   2.689   1.239   1.389  0.3907 -0.8359  0.8125
 2806SOL    HW311255   2.740   1.379   1.418 -1.5126  0.3356 -1.3395
 2806SOL    MW411256   2.697   1.307   1.442  0.2845 -0.2883  0.1347
 2807SOL     OW11257   0.573   4.016   3.216  0.1666 -0.3409  0.4658
 2807SOL    HW211258   0.524   4.011   3.297 -0.3766 -0.4562  0.1343
 2807SOL    HW311259   0.647   3.957   3.228 -0.5748 -1.2904  0.4243
 2807SOL    MW411260   0.576   4.007   3.228 -0.0029 -0.4814  0.4166
 2808SOL     OW11261   4.161   1.045   2.587  0.1882  0.2039  0.3890
 2808SOL    HW211262   4.169   1.139   2.607 -0.5761  0.1074  1.1565
 2808SOL    HW311263   4.205   1.001   2.660  0.3374 -0.0449  0.1507
 2808SOL    MW411264   4.168   1.052   2.600  0.1070  0.1584  0.4588
 2809SOL     OW11265   3.824   0.524   3.218 -0.2399 -0.1988 -0.3419
 2809SOL    HW211266   3.850   0.437   3.187  0.7255  0.2149 -0.7112
 2809SOL    HW311267   3.776   0.563   3.145  1.1363  0.3737 -0.9683
 2809SOL    MW411268   3.821   0.518   3.204  0.0691 -0.0687 -0.4733
 2810SOL     OW11269   0.877   2.472   3.907  0.5393  0.0356 -0.0424
 2810SOL    HW211270   0.830   2.436   3.831  1.7555 -0.1661 -0.7063
 2810SOL    HW311271   0.931   2.400   3.938  0.9945  0.5001  0.2410
 2810SOL    MW411272   0.878   2.458   3.901  0.7598  0.0703 -0.0926
 2811SOL     OW11273   4.101   1.407   0.495 -0.4317 -0.3371 -0.0727
 2811SOL    HW211274   4.165   1.453   0.550  1.7371 -1.5043 -1.5247
 2811SOL    HW311275   4.093   1.460   0.416 -0.6375 -0.6148 -0.2408
 2811SOL    MW411276   4.109   1.420   0.492 -0.1727 -0.5277 -0.2865
 2812SOL     OW11277   1.927   2.766   3.039 -0.1915  0.2277  0.3567
 2812SOL    HW211278   1.974   2.848   3.055 -1.4133  1.0854 -0.3234
 2812SOL    HW311279   1.959   2.736   2.955 -0.7986  0.7748 -0.0737
 2812SOL    MW411280   1.937   2.773   3.030 -0.4328  0.4131  0.2102
 2813SOL     OW11281   3.697   2.433   2.808  0.3376 -0.3036  0.6913
 2813SOL    HW211282   3.699   2.529   2.809  1.1773 -0.2898 -0.7350
 2813SOL    HW311283   3.692   2.410   2.716 -0.6233 -1.6316  1.0647
 2813SOL    MW411284   3.697   2.443   2.796  0.3216 -0.4770  0.5524
 2814SOL     OW11285   2.665   1.895   2.374 -0.2640 -0.1575  0.0646
 2814SOL    HW211286   2.606   1.919   2.446 -0.9589  2.2416 -1.2375
 2814SOL    HW311287   2.752   1.894   2.413 -0.8439 -0.8312  1.3572
 2814SOL    MW411288   2.669   1.898   2.389 -0.4322  0.0701  0.0633
 2815SOL     OW11289   2.303   4.578   1.655  0.0854  0.0466 -0.1163
 2815SOL    HW211290   2.375   4.603   1.713 -0.3893  2.4964 -0.5226
 2815SOL    HW311291   2.268   4.498   1.694  3.6406 -1.7795 -0.4885
 2815SOL    MW411292   2.308   4.571   1.668  0.4919  0.1289 -0.2190
 2816SOL     OW11293   2.651   2.724   4.076  0.0958  0.1959 -0.2602
 2816SOL    HW211294   2.687   2.811   4.096 -1.4087  0.5242  1.1720
 2816SOL    HW311295   2.728   2.668   4.069  1.0002  1.2799  0.6561
 2816SOL    MW411296   2.666   2.728   4.078  0.0166  0.3823  0.0496
 2817SOL     OW11297   4.374   1.983   1.722  0.3618  0.6364 -0.1777
 2817SOL    HW211298   4.464   1.954   1.733  0.0313 -0.1474  0.5336
 2817SOL    HW311299   4.369   2.067   1.768  0.8915  1.0026 -0.7866
 2817SOL    MW411300   4.385   1.991   1.729  0.3881  0.5813 -0.1642
 2818SOL     OW11301   2.805   3.147   1.291 -0.2285  0.3322 -0.7718
 2818SOL    HW211302   2.815   3.180   1.202  1.1613  0.3901 -0.6127
 2818SOL    HW311303   2.727   3.093   1.288  0.2199 -0.2610 -2.2046
 2818SOL    MW411304   2.796   3.144   1.279  0.0140  0.2616 -0.9399
 2819SOL     OW11305   1.715   2.487   2.049  0.4861  0.9765 -0.1670
 2819SOL    HW211306   1.675   2.425   1.987  0.7823  1.1609 -0.5458
 2819SOL    HW311307   1.685   2.457   2.135  0.2073  0.6157 -0.3856
 2819SOL    MW411308   1.706   2.475   2.052  0.4884  0.9533 -0.2458
 2820SOL     OW11309   0.384   3.905   2.557  0.1355  0.3083 -0.2944
 2820SOL    HW211310   0.373   3.844   2.630 -1.0643  2.2063  1.1486
 2820SOL    HW311311   0.329   3.868   2.487 -0.2066 -0.4961  0.3916
 2820SOL    MW411312   0.375   3.892   2.557 -0.0680  0.4526 -0.0135
 2821SOL     OW11313   3.309   2.472   4.259  0.2463 -0.0444 -0.1809
 2821SOL    HW211314   3.246   2.441   4.193 -0.2954  0.4637  0.0998
 2821SOL    HW311315   3.290   2.420   4.337  1.5464 -1.3502 -0.7167
 2821SOL    MW411316   3.298   2.461   4.260  0.3463 -0.1497 -0.2146
 2822SOL     OW11317   0.523   1.727   1.025 -0.0935  0.1104 -0.2182
 2822SOL    HW211318   0.543   1.778   0.946 -0.9811  1.1255  0.1882
 2822SOL    HW311319   0.596   1.745   1.084 -0.0872  0.4133 -0.3157
 2822SOL    MW411320   0.535   1.736   1.022 -0.2097  0.2843 -0.1774
 2823SOL     OW11321   0.597   3.406   2.184  0.6433 -0.2827 -0.4377
 2823SOL    HW211322   0.574   3.449   2.102  1.3828 -0.6976 -0.8708
 2823SOL    HW311323   0.557   3.461   2.252  0.0320  0.0614 -1.0710
 2823SOL    MW411324   0.589   3.419   2.182  0.6602 -0.2920 -0.5784
 2824SOL     OW11325   3.185   0.427   3.701 -0.5549  0.0994  0.0734
 2824SOL    HW211326   3.250   0.385   3.758 -0.6864  0.5958  0.5874
 2824SOL    HW311327   3.159   0.506   3.748 -2.3054 -0.6383  0.3530
 2824SOL    MW411328   3.190   0.432   3.714 -0.8032  0.0676  0.1781
 2825SOL     OW11329   1.791   0.643   1.970  0.1251  0.2410 -0.0864
 2825SOL    HW211330   1.711   0.670   2.014  0.6758  1.6943  0.0652
 2825SOL    HW311331   1.858   0.703   2.003  0.7794  0.6188 -2.0306
 2825SOL    MW411332   1.789   0.654   1.980  0.2841  0.4826 -0.3229
 2826SOL     OW11333   1.774   0.960   4.274  0.3107 -0.1402 -0.1570
 2826SOL    HW211334   1.701   0.927   4.325  1.8729 -1.7905  1.0668
 2826SOL    HW311335   1.745   0.952   4.183 -2.6192  3.1365  0.3821
 2826SOL    MW411336   1.761   0.955   4.268  0.1302  0.0744  0.0756
 2827SOL     OW11337   2.681   4.454   4.356  0.1811 -0.1505  0.2836
 2827SOL    HW211338   2.740   4.382   4.330  0.1608  0.4114 -1.3814
 2827SOL    HW311339   2.607   4.410   4.398  0.8075 -1.0117  0.5007
 2827SOL    MW411340   2.679   4.438   4.358  0.2611 -0.1900  0.0925
 2828SOL     OW11341   2.753   0.222   3.966  0.4270  0.1119  0.3413
 2828SOL    HW211342   2.828   0.245   4.020  1.1305 -1.4968  0.0743
 2828SOL    HW311343   2.766   0.130   3.944 -1.2353  0.0159 -0.3389
 2828SOL    MW411344   2.765   0.213   3.970  0.3005 -0.1130  0.2163
 2829SOL     OW11345   4.035   3.070   2.575 -0.1958  0.1676 -0.1344
 2829SOL    HW211346   4.070   3.158   2.560 -0.1627 -0.1819 -2.2850
 2829SOL    HW311347   4.000   3.073   2.664  1.2372  1.8716  0.3951
 2829SOL    MW411348   4.035   3.082   2.585 -0.0024  0.3463 -0.3483
 2830SOL     OW11349   2.941   4.056   1.007  0.2054  0.4180 -0.2833
 2830SOL    HW211350   2.969   3.977   1.054 -0.1563 -0.1431 -1.0079
 2830SOL    HW311351   3.011   4.072   0.943  0.2526  0.6621 -0.1738
 2830SOL    MW411352   2.954   4.048   1.005  0.1639  0.3761 -0.3645
 2831SOL     OW11353   2.502   2.250   2.433 -0.7446  0.2541 -0.5296
 2831SOL    HW211354   2.580   2.289   2.472 -0.6348  0.4738 -0.9620
 2831SOL    HW311355   2.536   2.198   2.360 -0.9502 -0.1226 -0.3599
 2831SOL    MW411356   2.517   2.248   2.428 -0.7572  0.2334 -0.5643
 2832SOL     OW11357   0.253   0.318   4.379  0.2780  0.0168 -0.0505
 2832SOL    HW211358   0.190   0.259   4.337  1.2803  0.0769 -1.6580
 2832SOL    HW311359   0.202   0.396   4.401 -0.4177 -0.3067 -0.4884
 2832SOL    MW411360   0.238   0.320   4.377  0.3184 -0.0179 -0.3204
 2833SOL     OW11361   3.717   2.922   1.073  0.0764  0.3821 -0.0319
 2833SOL    HW211362   3.657   2.863   1.027 -0.0011  0.0421  0.5041
 2833SOL    HW311363   3.804   2.891   1.048  0.0433 -0.6034  1.0575
 2833SOL    MW411364   3.721   2.910   1.064  0.0618  0.2072  0.1826
 2834SOL     OW11365   1.432   3.653   3.363  0.5305  0.0389  0.5901
 2834SOL    HW211366   1.378   3.726   3.392  1.6146  0.1532  2.3688
 2834SOL    HW311367   1.475   3.685   3.283  0.8764  1.3070  1.2709
 2834SOL    MW411368   1.431   3.667   3.356  0.7192  0.2213  0.9146
 2835SOL     OW11369   2.257   4.575   2.334  0.2063  0.3246  0.1110
 2835SOL    HW211370   2.288   4.592   2.423 -0.0479  0.3671  0.1923
 2835SOL    HW311371   2.166   4.550   2.344  0.0438  0.7845 -0.1755
 2835SOL    MW411372   2.249   4.574   2.347  0.1513  0.3909  0.0840
 2836SOL     OW11373   1.306   1.552   4.067  0.2472 -0.5426  0.1641
 2836SOL    HW211374   1.306   1.580   4.159 -2.8710 -2.1978  0.7453
 2836SOL    HW311375   1.324   1.458   4.070  0.4576 -0.5479 -0.9585
 2836SOL    MW411376   1.308   1.543   4.079 -0.1364 -0.7617  0.0926
 2837SOL     OW11377   3.507   1.558   2.295  0.2464  0.3533  0.1746
 2837SOL    HW211378   3.574   1.531   2.358  1.8402  1.1914 -1.1192
 2837SOL    HW311379   3.502   1.653   2.303  0.4053  0.4612 -0.8939
 2837SOL    MW411380   3.515   1.567   2.304  0.4777  0.4781 -0.1371
 2838SOL     OW11381   2.270   1.705   0.360 -0.2857 -0.4528  0.0551
 2838SOL    HW211382   2.310   1.631   0.406 -1.7649 -0.0555  2.0403
 2838SOL    HW311383   2.338   1.772   0.357  0.3673 -1.1066  0.1241
 2838SOL    MW411384   2.284   1.704   0.366 -0.3947 -0.4867  0.3261
 2839SOL     OW11385   1.811   2.402   4.056 -0.1312 -0.8162 -0.8472
 2839SOL    HW211386   1.755   2.410   3.979 -0.7332 -0.6334 -0.3956
 2839SOL    HW311387   1.808   2.309   4.080 -0.2323 -0.8080 -0.8299
 2839SOL    MW411388   1.803   2.391   4.049 -0.2239 -0.7910 -0.7853
 2840SOL     OW11389   0.480   0.018   0.848  0.0368 -0.1382  0.1247
 2840SOL    HW211390   0.528  -0.044   0.902  1.5244  0.4317 -0.5249
 2840SOL    HW311391   0.508   0.104   0.880  0.6134  0.2024 -1.2601
 2840SOL    MW411392   0.490   0.021   0.859  0.3092 -0.0181 -0.1437
 2841SOL     OW11393   2.675   4.436   0.542 -0.0358  0.0511 -0.1830
 2841SOL    HW211394   2.650   4.449   0.634 -0.6050 -1.3054 -0.1314
 2841SOL    HW311395   2.675   4.524   0.504 -1.1622  0.4791  0.7859
 2841SOL    MW411396   2.672   4.449   0.549 -0.2595 -0.0714 -0.0483
 2842SOL     OW11397   1.181   0.366   0.575  0.2184 -0.1848  0.4043
 2842SOL    HW211398   1.198   0.459   0.589  1.6224 -0.2802 -0.5360
 2842SOL    HW311399   1.245   0.340   0.509  0.2903 -1.9850  1.1613
 2842SOL    MW411400   1.192   0.375   0.568  0.4131 -0.4349  0.3801
 2843SOL     OW11401   0.239   0.741   2.691 -0.2593 -0.4182  0.0726
 2843SOL    HW211402   0.251   0.655   2.731 -2.4811 -0.9080 -0.2446
 2843SOL    HW311403   0.184   0.725   2.615 -0.7386  1.2818  0.0382
 2843SOL    MW411404   0.233   0.727   2.686 -0.6157 -0.2585  0.0262
 2844SOL     OW11405   0.573   1.919   0.820 -0.3942  0.9413  0.1672
 2844SOL    HW211406   0.583   1.873   0.737 -0.6218  0.2262  0.5358
 2844SOL    HW311407   0.481   1.943   0.824 -0.9429 -1.2748  1.3815
 2844SOL    MW411408   0.562   1.916   0.810 -0.4966  0.5545  0.3761
 2845SOL     OW11409   0.973   1.789   1.006 -0.1484 -0.3017 -0.0114
 2845SOL    HW211410   0.994   1.842   0.929 -0.5167  0.1969  0.2252
 2845SOL    HW311411   0.954   1.702   0.971  1.2442 -0.4885 -0.3239
 2845SOL    MW411412   0.973   1.785   0.992 -0.0132 -0.2606 -0.0214
 2846SOL     OW11413   1.455   0.639   1.867  0.5540  0.2362 -0.0050
 2846SOL    HW211414   1.444   0.670   1.777  1.5546 -1.0045 -0.5703
 2846SOL    HW311415   1.497   0.554   1.858 -1.7089 -1.1085  1.5407
 2846SOL    MW411416   1.459   0.632   1.854  0.3875 -0.1049  0.1244
 2847SOL     OW11417   1.518   4.488   1.886  0.1662  0.2121  0.1296
 2847SOL    HW211418   1.526   4.393   1.875 -1.6124  0.2964 -2.2639
 2847SOL    HW311419   1.586   4.525   1.831  1.1820  0.3345  1.4495
 2847SOL    MW411420   1.528   4.480   1.877  0.0656  0.2394 -0.0121
 2848SOL     OW11421   1.816   0.598   2.354 -0.3013 -0.2413 -0.1632
 2848SOL    HW211422   1.846   0.536   2.420 -0.4350  0.7736  0.8509
 2848SOL    HW311423   1.890   0.655   2.338 -0.9197  0.7975  0.6230
 2848SOL    MW411424   1.829   0.597   2.360 -0.4005  0.0297  0.0744
 2849SOL     OW11425   3.039   3.004   2.272  0.2532 -0.5688 -0.1729
 2849SOL    HW211426   3.042   2.951   2.192 -0.0769  0.4660 -0.8829
 2849SOL    HW311427   2.960   3.058   2.262  0.0632 -0.6175  0.9799
 2849SOL    MW411428   3.029   3.004   2.260  0.1846 -0.4387 -0.1145
 2850SOL     OW11429   0.739   2.503   3.492  0.0070  0.2899  0.1058
 2850SOL    HW211430   0.714   2.423   3.538 -0.6814 -0.0046 -0.7582
 2850SOL    HW311431   0.673   2.512   3.423  1.2709  0.5027 -1.0770
 2850SOL    MW411432   0.727   2.494   3.489  0.0829  0.2791 -0.1642
 2851SOL     OW11433   2.416   3.678   3.231 -0.2498 -0.1516  0.1376
 2851SOL    HW211434   2.508   3.680   3.205  0.1088  1.4589  1.4364
 2851SOL    HW311435   2.378   3.756   3.191 -0.7374 -0.1081  0.6849
 2851SOL    MW411436   2.424   3.688   3.222 -0.2668  0.0666  0.3811
 2852SOL     OW11437   4.058   0.517   1.782 -0.1935  0.5983  0.2897
 2852SOL    HW211438   3.983   0.576   1.789 -2.2424 -1.8549 -0.0490
 2852SOL    HW311439   4.068   0.482   1.870  1.5162  2.0089  0.6723
 2852SOL    MW411440   4.049   0.520   1.794 -0.2382  0.4607  0.2955
 2853SOL     OW11441   2.200   0.117   0.990  0.1937  0.0800 -0.1434
 2853SOL    HW211442   2.161   0.160   1.066  0.8168  0.2955  0.0638
 2853SOL    HW311443   2.247   0.187   0.944 -0.2719 -0.0277 -0.7877
 2853SOL    MW411444   2.201   0.132   0.994  0.2145  0.0942 -0.2011
 2854SOL     OW11445   0.283   0.760   0.426  0.1703  0.1884 -0.1984
 2854SOL    HW211446   0.314   0.737   0.513  0.4230 -0.1832 -0.3869
 2854SOL    HW311447   0.361   0.753   0.370  0.2930  1.6714 -0.2256
 2854SOL    MW411448   0.297   0.756   0.430  0.2198  0.3350 -0.2269
 2855SOL     OW11449   3.397   2.557   1.555  0.1005 -0.0580  0.6862
 2855SOL    HW211450   3.379   2.494   1.485 -2.2359  1.9991 -0.6087
 2855SOL    HW311451   3.493   2.558   1.562  0.2406 -2.3766 -0.5058
 2855SOL    MW411452   3.408   2.548   1.547 -0.1893 -0.0925  0.3581
 2856SOL     OW11453   4.023   3.330   2.997 -0.6130 -0.0807  0.1457
 2856SOL    HW211454   4.116   3.347   3.012  0.2019 -1.8311 -2.5367
 2856SOL    HW311455   4.002   3.379   2.917 -1.4161 -1.4599 -0.5107
 2856SOL    MW411456   4.032   3.339   2.989 -0.6115 -0.4936 -0.2948
 2857SOL     OW11457   2.374   1.001   2.353  0.0319  0.0809  0.1802
 2857SOL    HW211458   2.321   0.977   2.429 -0.2201 -2.3878 -0.7169
 2857SOL    HW311459   2.404   0.917   2.318  1.5484  1.2718 -1.4435
 2857SOL    MW411460   2.371   0.986   2.358  0.1987 -0.0877 -0.1524
 2858SOL     OW11461   3.910   0.145   4.133  0.1601 -0.1536  0.5478
 2858SOL    HW211462   3.825   0.115   4.099 -0.0616  0.3435  0.6504
 2858SOL    HW311463   3.895   0.238   4.153  1.0058  0.1837 -0.3446
 2858SOL    MW411464   3.897   0.154   4.131  0.2424 -0.0435  0.4436
 2859SOL     OW11465   0.792   2.704   2.192 -0.1904 -0.2243 -0.7453
 2859SOL    HW211466   0.724   2.744   2.246  0.0612  0.8829 -1.2264
 2859SOL    HW311467   0.850   2.662   2.256 -0.7284 -0.2383 -0.2571
 2859SOL    MW411468   0.791   2.704   2.208 -0.2282 -0.0801 -0.7444
 2860SOL     OW11469   0.539   0.442   1.344 -0.0574 -0.4394  0.4230
 2860SOL    HW211470   0.486   0.451   1.265  0.7799  1.3108  0.0257
 2860SOL    HW311471   0.600   0.371   1.325  0.1706  0.0044 -0.5453
 2860SOL    MW411472   0.540   0.434   1.331  0.0831 -0.1500  0.2428
 2861SOL     OW11473   2.266   1.348   4.120  0.5690  0.8459 -0.6337
 2861SOL    HW211474   2.328   1.288   4.077 -1.0698  0.3297 -2.3714
 2861SOL    HW311475   2.193   1.292   4.145 -0.6271  1.9793 -1.5635
 2861SOL    MW411476   2.265   1.333   4.117  0.1949  0.9273 -0.9856
 2862SOL     OW11477   1.607   0.351   1.578 -0.4065 -0.0154 -0.4958
 2862SOL    HW211478   1.565   0.266   1.564 -1.1108  0.3792 -0.7589
 2862SOL    HW311479   1.700   0.335   1.559 -0.7181 -0.4500 -1.6968
 2862SOL    MW411480   1.614   0.338   1.573 -0.5406 -0.0207 -0.6890
 2863SOL     OW11481   0.824   0.652   1.617 -0.4180 -0.3972 -0.5167
 2863SOL    HW211482   0.910   0.689   1.598 -0.8027  0.7421 -0.1306
 2863SOL    HW311483   0.774   0.664   1.537 -0.4495 -0.3539 -0.4906
 2863SOL    MW411484   0.829   0.659   1.604 -0.4729 -0.2412 -0.4623
 2864SOL     OW11485   2.132   0.598   1.621 -0.0980  0.1532  0.5493
 2864SOL    HW211486   2.113   0.688   1.596  1.7815  0.9947  1.9827
 2864SOL    HW311487   2.201   0.570   1.561 -1.1861 -0.6018 -0.3696
 2864SOL    MW411488   2.139   0.606   1.610  0.0064  0.1646  0.6172
 2865SOL     OW11489   0.074   1.101   1.282 -0.9141  0.5742 -0.7134
 2865SOL    HW211490   0.156   1.142   1.309 -1.4393  2.1177 -1.3712
 2865SOL    HW311491   0.095   1.009   1.268  0.9464  1.1881 -2.0021
 2865SOL    MW411492   0.087   1.095   1.284 -0.7380  0.8588 -0.9703
 2866SOL     OW11493   1.782   0.276   2.738 -0.2072  0.7032 -0.7224
 2866SOL    HW211494   1.762   0.182   2.741  0.5476  0.5888  1.1045
 2866SOL    HW311495   1.711   0.317   2.786  0.5016  0.8876  0.1714
 2866SOL    MW411496   1.770   0.269   2.745 -0.0141  0.7124 -0.3634
 2867SOL     OW11497   1.023   1.712   2.684 -0.0811  0.2838 -0.1285
 2867SOL    HW211498   0.943   1.677   2.646  0.7098 -0.8485 -0.7910
 2867SOL    HW311499   1.027   1.675   2.772 -1.8513  2.8098  1.0620
 2867SOL    MW411500   1.013   1.702   2.690 -0.2103  0.4677 -0.0589
 2868SOL     OW11501   2.094   0.238   1.224 -0.4407 -0.0530  0.6675
 2868SOL    HW211502   2.148   0.178   1.275  0.2338  1.3677  1.6484
 2868SOL    HW311503   2.005   0.206   1.235 -0.2444 -0.0390  2.3340
 2868SOL    MW411504   2.090   0.225   1.232 -0.3258  0.1363  1.0168
 2869SOL     OW11505   2.867   4.271   4.262 -0.2732 -0.1270 -0.1577
 2869SOL    HW211506   2.913   4.191   4.285 -1.2336 -0.0512  2.1775
 2869SOL    HW311507   2.795   4.243   4.205  0.7296 -0.6272 -1.1863
 2869SOL    MW411508   2.863   4.257   4.257 -0.2676 -0.1830  0.0147
 2870SOL     OW11509   1.571   0.427   0.491 -0.1389  0.9327  0.3657
 2870SOL    HW211510   1.568   0.446   0.585 -0.2774  0.9287  0.3621
 2870SOL    HW311511   1.629   0.494   0.455 -0.5659  1.3042  0.3653
 2870SOL    MW411512   1.579   0.439   0.499 -0.2135  0.9812  0.3652
 2871SOL     OW11513   0.922   3.420   1.704 -0.6912 -0.0989 -0.0272
 2871SOL    HW211514   0.998   3.449   1.754 -0.0611 -2.1000  0.2136
 2871SOL    HW311515   0.864   3.496   1.703  0.7546  1.0504  0.8584
 2871SOL    MW411516   0.924   3.434   1.711 -0.4173 -0.2113  0.1214
 2872SOL     OW11517   1.780   0.395   2.160  0.1482  0.3127  0.0446
 2872SOL    HW211518   1.801   0.466   2.221  1.9841 -0.0199 -0.1770
 2872SOL    HW311519   1.787   0.435   2.074 -0.7547  0.3538 -0.0082
 2872SOL    MW411520   1.784   0.410   2.157  0.2713  0.2742  0.0084
 2873SOL     OW11521   0.624   3.644   3.830 -0.1732 -0.1182 -0.1269
 2873SOL    HW211522   0.597   3.553   3.835  0.9330 -0.4731 -0.5297
 2873SOL    HW311523   0.712   3.645   3.868  0.5415  0.4716 -1.7630
 2873SOL    MW411524   0.633   3.632   3.836  0.0671 -0.0872 -0.3959
 2874SOL     OW11525   0.548   3.362   4.126 -0.0748 -0.4384  0.2426
 2874SOL    HW211526   0.528   3.380   4.034 -0.6457  0.4825  0.5453
 2874SOL    HW311527   0.600   3.436   4.155  2.2014 -1.8963  0.0064
 2874SOL    MW411528   0.552   3.374   4.117  0.1502 -0.5093  0.2514
 2875SOL     OW11529   3.206   1.856   3.378 -0.3925 -0.1153 -0.3748
 2875SOL    HW211530   3.294   1.875   3.410 -0.4667 -0.0144 -0.2310
 2875SOL    HW311531   3.184   1.931   3.323 -0.7022  0.2433  0.2271
 2875SOL    MW411532   3.215   1.868   3.375 -0.4432 -0.0547 -0.2764
 2876SOL     OW11533   0.121   4.666   1.128 -0.0375 -0.7079 -0.0665
 2876SOL    HW211534   0.060   4.638   1.196 -1.4650  0.5426 -0.8099
 2876SOL    HW311535   0.096   4.615   1.051  0.7538 -1.1947 -0.0054
 2876SOL    MW411536   0.110   4.655   1.127 -0.1215 -0.6072 -0.1565
 2877SOL     OW11537   0.494   2.920   4.141 -0.1056 -0.1436 -0.0263
 2877SOL    HW211538   0.496   2.834   4.099 -1.6024 -0.6069  0.7958
 2877SOL    HW311539   0.405   2.953   4.124  0.2093  0.9071  0.3058
 2877SOL    MW411540   0.482   2.913   4.134 -0.2615 -0.0661  0.1260
 2878SOL     OW11541   2.553   2.917   3.243 -0.2092 -0.1409  0.1189
 2878SOL    HW211542   2.464   2.911   3.210 -0.6384 -0.0963  1.2508
 2878SOL    HW311543   2.586   3.001   3.210 -0.4199 -0.3803 -0.6938
 2878SOL    MW411544   2.546   2.927   3.234 -0.2936 -0.1666  0.1610
 2879SOL     OW11545   1.311   2.435   2.815  0.1811 -0.2926  0.7207
 2879SOL    HW211546   1.297   2.342   2.801  0.0497 -0.5064  2.2347
 2879SOL    HW311547   1.406   2.447   2.810  0.1064 -0.2657 -0.8638
 2879SOL    MW411548   1.322   2.424   2.813  0.1539 -0.3173  0.7114
 2880SOL     OW11549   1.176   0.106   3.905 -0.3338  0.0433 -0.3712
 2880SOL    HW211550   1.157   0.086   3.813  2.6879  1.1502 -1.3147
 2880SOL    HW311551   1.212   0.025   3.941  0.6635  0.2468 -0.8640
 2880SOL    MW411552   1.179   0.093   3.897  0.1965  0.2162 -0.5607
 2881SOL     OW11553   0.103   0.766   4.334 -0.0019 -0.1316 -0.0370
 2881SOL    HW211554   0.194   0.779   4.308  0.1512  0.2598  0.6778
 2881SOL    HW311555   0.057   0.845   4.305  0.2026  0.3820  1.0095
 2881SOL    MW411556   0.109   0.778   4.327  0.0453 -0.0122  0.1954
 2882NA      NA11557   0.096   2.631   2.321 -0.5004 -0.3000  0.0331
 2883NA      NA11558   1.588   4.552   2.293 -0.2049 -0.5972 -0.2123
   4.49070   4.66690  10.00000
