Gromacs Runs On Most of All Computer Systems in water
11584
    1RU5    O5'    1   2.712   2.136   4.525 -0.4207 -0.0973  0.8713
    1RU5    H5T    2   2.626   2.093   4.526 -0.1483 -0.6762 -0.4010
    1RU5    C5'    3   2.718   2.231   4.419  0.2145  0.0182 -0.2902
    1RU5   H5'1    4   2.690   2.182   4.326 -0.6451 -0.9000  0.4407
    1RU5   H5'2    5   2.816   2.279   4.416 -0.0391  0.7502  1.7681
    1RU5    C4'    6   2.619   2.347   4.433 -0.5751  0.4446  0.1231
    1RU5    H4'    7   2.630   2.419   4.351  1.0007 -0.5568 -0.5599
    1RU5    O4'    8   2.484   2.300   4.432  0.6762  0.1457 -0.0864
    1RU5    C1'    9   2.404   2.406   4.472 -0.0644  0.0034  0.2896
    1RU5    H1'   10   2.387   2.472   4.387  0.6479  0.0579  0.1848
    1RU5     N1   11   2.275   2.362   4.534 -0.6206 -0.4195 -0.3624
    1RU5     C6   12   2.262   2.227   4.546  0.1007 -0.3948  0.0772
    1RU5     H6   13   2.350   2.171   4.570  0.3200 -0.9409 -1.8739
    1RU5     C5   14   2.136   2.175   4.551  0.1292 -0.4156 -0.0524
    1RU5     H5   15   2.130   2.068   4.565  0.0059 -0.4755 -0.5446
    1RU5     C4   16   2.016   2.250   4.555  0.6190  0.0649 -0.0611
    1RU5     O4   17   1.899   2.213   4.560 -0.5888  0.2563 -0.1318
    1RU5     N3   18   2.041   2.385   4.547 -0.2149  0.5077 -0.0462
    1RU5     H3   19   1.961   2.446   4.537 -1.5679 -1.4433 -1.5309
    1RU5     C2   20   2.165   2.450   4.539  0.2214 -0.0249  0.0931
    1RU5     O2   21   2.169   2.571   4.532  0.2146  0.0945 -0.3701
    1RU5    C3'   22   2.628   2.423   4.565  0.1177  0.1054 -0.8173
    1RU5    H3'   23   2.636   2.352   4.648 -1.3138 -0.0496 -0.7988
    1RU5    C2'   24   2.481   2.487   4.578  0.0509  0.1655 -0.0011
    1RU5   H2'1   25   2.437   2.464   4.675  1.2728  0.5968  0.6610
    1RU5    O2'   26   2.478   2.622   4.548 -0.0606 -0.3492  0.1275
    1RU5   HO'2   27   2.492   2.672   4.629  1.9726  2.2257 -1.6850
    1RU5    O3'   28   2.738   2.509   4.561 -0.2411  0.2223 -0.0362
    2RG3      P   29   2.789   2.588   4.698 -0.1224  0.2569 -0.0284
    2RG3    O1P   30   2.913   2.665   4.663 -0.6296 -0.2841 -0.3559
    2RG3    O2P   31   2.802   2.481   4.799  0.1824 -0.1611 -0.2273
    2RG3    O5'   32   2.680   2.691   4.749  0.4019  0.5180 -0.2006
    2RG3    C5'   33   2.673   2.830   4.707  0.4216  0.2146  0.6104
    2RG3   H5'1   34   2.658   2.838   4.599 -0.9121  1.0115  0.8401
    2RG3   H5'2   35   2.768   2.878   4.729  1.1421 -0.8089 -0.2389
    2RG3    C4'   36   2.551   2.896   4.786 -0.0547 -0.5699 -0.5662
    2RG3    H4'   37   2.545   2.999   4.753 -0.4201 -0.5523 -0.4503
    2RG3    O4'   38   2.431   2.832   4.754  0.3200  0.0725 -0.0024
    2RG3    C1'   39   2.358   2.801   4.868 -0.2772 -0.4179 -0.2750
    2RG3    H1'   40   2.258   2.841   4.853 -0.4203 -1.1386 -1.3026
    2RG3     N9   41   2.348   2.654   4.888 -0.0207  0.2183 -0.4051
    2RG3     C8   42   2.445   2.564   4.923  0.0444 -0.6394  0.3174
    2RG3     H8   43   2.549   2.586   4.942  0.1241  0.3022 -1.1565
    2RG3     N7   44   2.408   2.440   4.928 -0.1440 -0.0637  0.5499
    2RG3     C5   45   2.274   2.453   4.901  0.1068  0.4557 -0.0749
    2RG3     C6   46   2.174   2.349   4.897 -0.2123  0.3560 -0.4523
    2RG3     O6   47   2.188   2.230   4.907  0.2622 -0.1404  0.2542
    2RG3     N1   48   2.047   2.391   4.870  0.6403  0.3120 -0.2475
    2RG3     H1   49   1.969   2.328   4.867  0.8837 -0.0436  0.6432
    2RG3     C2   50   2.020   2.521   4.849  0.5065 -0.6368 -1.0065
    2RG3     N2   51   1.898   2.554   4.832  0.3014  0.7882  0.1780
    2RG3    H21   52   1.832   2.479   4.815  1.8605 -0.4313 -0.5967
    2RG3    H22   53   1.891   2.647   4.793  0.7075  0.7985  0.1270
    2RG3     N3   54   2.110   2.623   4.854  0.2912 -0.2768 -0.4241
    2RG3     C4   55   2.235   2.581   4.880  1.0500  0.3047  0.4826
    2RG3    C3'   56   2.571   2.885   4.939  0.6484 -0.3639  0.4868
    2RG3    H3'   57   2.619   2.793   4.971 -1.7639 -1.6498  0.5389
    2RG3    C2'   58   2.426   2.868   4.983 -0.0033 -0.5776  0.0696
    2RG3   H2'1   59   2.421   2.812   5.076  0.6974 -1.2494 -0.2890
    2RG3    O2'   60   2.373   3.002   5.001  0.3319  0.2013  0.1803
    2RG3   HO'2   61   2.447   3.059   5.024  0.6077  0.1889 -0.6249
    2RG3    O3'   62   2.633   3.005   4.993  0.2754  0.1368 -0.5441
    2RG3    H3T   63   2.728   2.990   4.995  0.3544  0.4001 -1.8012
    5SOL     OW   64   2.899   3.406   0.443  0.4044  0.3412 -0.2857
    5SOL    HW2   65   2.922   3.496   0.464 -1.1683  0.7573 -0.3017
    5SOL    HW3   66   2.984   3.361   0.434  1.1774  1.4255  1.3267
    5SOL    MW4   67   2.914   3.412   0.444  0.2990  0.5393 -0.0751
    6SOL     OW   68   3.137   4.038   0.706 -0.1439  0.0381 -0.5348
    6SOL    HW2   69   3.219   3.992   0.722  0.7076  1.8346  0.3928
    6SOL    HW3   70   3.071   3.986   0.752  0.3363 -1.8227 -1.9015
    6SOL    MW4   71   3.139   4.025   0.714  0.0319  0.0296 -0.5928
    7SOL     OW   72   1.566   2.350   0.801  0.2628 -0.1500  0.1466
    7SOL    HW2   73   1.579   2.270   0.751  0.0859 -0.8688  1.2279
    7SOL    HW3   74   1.475   2.374   0.785  0.3964  0.0003 -0.4038
    7SOL    MW4   75   1.556   2.343   0.792  0.2570 -0.2253  0.2166
    8SOL     OW   76   1.286   3.916   0.515  0.2448  0.4009 -0.0793
    8SOL    HW2   77   1.357   3.980   0.512 -1.0046  1.7783 -1.1984
    8SOL    HW3   78   1.271   3.901   0.609  0.1035  2.2791  0.2127
    8SOL    MW4   79   1.294   3.923   0.527  0.0613  0.8304 -0.1884
    9SOL     OW   80   4.293   2.293   0.364 -0.2297  0.3127  0.3082
    9SOL    HW2   81   4.332   2.258   0.283  0.0346 -0.0545  0.5924
    9SOL    HW3   82   4.367   2.333   0.410 -0.0197 -1.1460  1.2569
    9SOL    MW4   83   4.308   2.294   0.359 -0.1678  0.0715  0.4709
   10SOL     OW   84   1.561   4.571   0.915  0.2381  0.2338 -0.1356
   10SOL    HW2   85   1.577   4.603   1.004  0.3167 -0.8184  0.2284
   10SOL    HW3   86   1.513   4.642   0.873  0.9603  1.1040  0.4779
   10SOL    MW4   87   1.557   4.585   0.921  0.3437  0.2098 -0.0066
   11SOL     OW   88   4.441   0.798   0.507 -0.0459 -0.3380 -0.1298
   11SOL    HW2   89   4.465   0.839   0.590 -1.4987  1.0104 -0.3548
   11SOL    HW3   90   4.411   0.711   0.531 -0.0461 -0.1038  0.7248
   11SOL    MW4   91   4.440   0.792   0.521 -0.2379 -0.1292 -0.0467
   12SOL     OW   92   0.129   2.686   0.389 -0.2129 -0.2033  0.2071
   12SOL    HW2   93   0.048   2.713   0.346 -0.1161 -0.3971 -0.0943
   12SOL    HW3   94   0.174   2.768   0.407 -0.0251 -0.1447 -0.5061
   12SOL    MW4   95   0.124   2.701   0.386 -0.1753 -0.2213  0.0733
   13SOL     OW   96   3.424   3.085   0.785 -0.4195 -0.0053  0.1419
   13SOL    HW2   97   3.414   2.992   0.763 -0.5831  0.2995 -1.0939
   13SOL    HW3   98   3.423   3.087   0.881  1.0003 -1.4342  0.2090
   13SOL    MW4   99   3.423   3.073   0.795 -0.2539 -0.1538 -0.0122
   14SOL     OW  100   0.215   2.021   0.798 -0.4646 -0.3624  0.1481
   14SOL    HW2  101   0.135   1.991   0.842 -1.3753  2.1563  0.3043
   14SOL    HW3  102   0.214   2.116   0.810  1.6074 -0.1130 -1.4659
   14SOL    MW4  103   0.204   2.030   0.806 -0.3113  0.0026 -0.0443
   15SOL     OW  104   4.471   3.279   0.435  0.1899  0.1178  0.1884
   15SOL    HW2  105   4.401   3.226   0.398 -0.9479  1.2329  0.7342
   15SOL    HW3  106   4.482   3.246   0.524 -1.8760  2.0693  1.2075
   15SOL    MW4  107   4.463   3.267   0.442 -0.2327  0.5224  0.3949
   16SOL     OW  108   0.583   0.773   0.518 -0.4584 -0.1383 -0.5156
   16SOL    HW2  109   0.489   0.758   0.507 -0.6885  0.7852  0.1495
   16SOL    HW3  110   0.591   0.820   0.601  0.5892 -0.1593 -0.5912
   16SOL    MW4  111   0.572   0.777   0.527 -0.3505 -0.0192 -0.4379
   17SOL     OW  112   3.112   2.479   0.789 -0.5502  0.0839  0.0588
   17SOL    HW2  113   3.191   2.427   0.801 -0.7809 -0.7955 -1.9496
   17SOL    HW3  114   3.041   2.421   0.815 -0.6171  0.4193  0.6211
   17SOL    MW4  115   3.113   2.465   0.794 -0.5896  0.0124 -0.1320
   18SOL     OW  116   4.450   1.923   0.885  0.1174 -0.1658  0.0349
   18SOL    HW2  117   4.402   1.970   0.817  0.5416 -1.0043 -0.8708
   18SOL    HW3  118   4.455   1.833   0.852 -1.3893 -1.0315  2.1218
   18SOL    MW4  119   4.444   1.917   0.871 -0.0253 -0.3906  0.1907
   19SOL     OW  120   3.344   2.221   0.446 -0.1803 -0.1195  0.5154
   19SOL    HW2  121   3.426   2.270   0.439 -0.6679  0.7914  1.0745
   19SOL    HW3  122   3.370   2.129   0.438  0.9754  0.1252  1.3489
   19SOL    MW4  123   3.358   2.215   0.444 -0.0918  0.0331  0.6991
   20SOL     OW  124   2.056   2.846   0.705  0.3604  0.2348  0.0115
   20SOL    HW2  125   2.130   2.786   0.712  0.5287  0.4040 -0.3029
   20SOL    HW3  126   2.048   2.863   0.611 -1.4885 -1.5651 -0.2112
   20SOL    MW4  127   2.064   2.840   0.694  0.1385  0.0196 -0.0594
   21SOL     OW  128   0.489   0.156   0.489  0.2464 -0.0946  0.2006
   21SOL    HW2  129   0.516   0.070   0.456 -0.2406 -0.2957  0.3217
   21SOL    HW3  130   0.403   0.170   0.450  1.1414  1.2144 -1.3867
   21SOL    MW4  131   0.482   0.146   0.479  0.3003  0.0516  0.0071
   22SOL     OW  132   1.797   3.231   0.654  0.1665 -0.2878  0.0359
   22SOL    HW2  133   1.868   3.180   0.692  0.6272 -0.1569 -0.6487
   22SOL    HW3  134   1.717   3.190   0.688  0.5074 -1.8177 -0.9715
   22SOL    MW4  135   1.795   3.219   0.663  0.2724 -0.4723 -0.1873
   23SOL     OW  136   3.868   3.141   0.853 -0.7621  0.1744 -0.3878
   23SOL    HW2  137   3.797   3.178   0.801 -1.6667 -0.3997  0.4442
   23SOL    HW3  138   3.946   3.187   0.822 -1.5350  1.0447 -1.0644
   23SOL    MW4  139   3.869   3.152   0.842 -0.9835  0.2131 -0.3672
   24SOL     OW  140   1.379   0.303   0.474 -0.3554  0.2412  0.5951
   24SOL    HW2  141   1.420   0.318   0.388 -0.9617 -0.1404  0.2411
   24SOL    HW3  142   1.289   0.333   0.463 -0.0405  1.5865  1.5318
   24SOL    MW4  143   1.373   0.309   0.461 -0.3939  0.3683  0.6720
   25SOL     OW  144   3.584   1.695   0.776 -0.1180  0.0159 -0.4711
   25SOL    HW2  145   3.516   1.632   0.800  0.4340 -0.4598 -0.1460
   25SOL    HW3  146   3.579   1.700   0.681 -1.4321  0.9140 -0.3645
   25SOL    MW4  147   3.574   1.687   0.767 -0.2186  0.0718 -0.4141
   26SOL     OW  148   0.386   3.442   0.396  0.4395 -0.2317 -0.2953
   26SOL    HW2  149   0.361   3.349   0.395 -0.5810  0.0088  0.9115
   26SOL    HW3  150   0.481   3.441   0.398  0.4343 -1.2826  0.4596
   26SOL    MW4  151   0.395   3.429   0.396  0.3042 -0.3388 -0.0365
   27SOL     OW  152   3.978   2.838   0.522  0.2810  0.0140 -0.3491
   27SOL    HW2  153   3.929   2.857   0.602 -0.1247 -0.1197 -0.5634
   27SOL    HW3  154   3.965   2.744   0.507  0.2195  0.0693 -0.6580
   27SOL    MW4  155   3.970   2.828   0.530  0.2196  0.0038 -0.4182
   28SOL     OW  156   2.861   3.075   0.447 -0.0889  0.0154 -0.0130
   28SOL    HW2  157   2.951   3.102   0.431 -0.1734 -0.1121 -0.7220
   28SOL    HW3  158   2.860   2.981   0.428 -1.0812  0.6120 -3.0925
   28SOL    MW4  159   2.872   3.066   0.443 -0.2310  0.0772 -0.5128
   29SOL     OW  160   3.005   3.654   0.821  0.2958  0.1906  0.3064
   29SOL    HW2  161   2.976   3.744   0.835 -1.0117 -0.3895  1.3955
   29SOL    HW3  162   3.032   3.652   0.729  2.0989  2.1553  0.7456
   29SOL    MW4  163   3.005   3.665   0.810  0.3610  0.3734  0.5081
   30SOL     OW  164   0.927   4.002   0.760  0.1517  0.4499  0.0811
   30SOL    HW2  165   0.959   4.007   0.670  0.5184 -0.4921  0.1503
   30SOL    HW3  166   0.986   3.940   0.803 -1.0088 -0.3598  0.5386
   30SOL    MW4  167   0.939   3.994   0.754  0.0469  0.2189  0.1506
   31SOL     OW  168   3.106   0.199   0.443  0.0977  0.1886 -0.1120
   31SOL    HW2  169   3.116   0.166   0.532 -0.3787  0.6381  0.1121
   31SOL    HW3  170   3.194   0.229   0.418 -0.0942  1.5787  0.8224
   31SOL    MW4  171   3.119   0.198   0.451  0.0095  0.4313  0.0409
   32SOL     OW  172   3.942   0.825   0.447 -0.1903  0.4223 -0.0283
   32SOL    HW2  173   4.033   0.848   0.461  0.1661 -0.9000 -0.1535
   32SOL    HW3  174   3.939   0.730   0.454 -1.3623  0.3582 -1.1676
   32SOL    MW4  175   3.953   0.816   0.450 -0.2978  0.2394 -0.1951
   33SOL     OW  176   0.015   1.732   0.510 -0.5529 -0.7058  0.2795
   33SOL    HW2  177   0.057   1.817   0.494 -0.8374 -0.7809 -0.8911
   33SOL    HW3  178  -0.073   1.742   0.474  0.0688 -2.1608 -1.7332
   33SOL    MW4  179   0.009   1.745   0.503 -0.5088 -0.9077 -0.1405
   34SOL     OW  180   0.266   0.763   0.848  0.0953 -0.3650 -0.2805
   34SOL    HW2  181   0.261   0.667   0.839 -1.3642 -0.3547  0.3390
   34SOL    HW3  182   0.254   0.779   0.941  0.2447  0.4420 -0.3953
   34SOL    MW4  183   0.264   0.752   0.859 -0.0775 -0.2572 -0.2139
   35SOL     OW  184   2.337   1.789   0.463  0.2336 -0.0322 -0.9078
   35SOL    HW2  185   2.244   1.811   0.455 -0.3589 -2.0063  0.2355
   35SOL    HW3  186   2.344   1.747   0.549  2.0086 -0.8061 -1.4130
   35SOL    MW4  187   2.325   1.787   0.474  0.3901 -0.3948 -0.8236
   36SOL     OW  188   3.412   1.265   0.500  0.0445  0.1591 -0.6692
   36SOL    HW2  189   3.336   1.300   0.454  0.0800 -0.4420 -1.1948
   36SOL    HW3  190   3.479   1.333   0.490 -0.7596  1.1666  0.7419
   36SOL    MW4  191   3.411   1.278   0.492 -0.0570  0.2127 -0.5524
   37SOL     OW  192   2.646   0.112   0.723  0.3556  0.2124  0.5902
   37SOL    HW2  193   2.730   0.065   0.724 -0.1903 -0.8182 -0.7181
   37SOL    HW3  194   2.663   0.191   0.774  2.0325 -0.1456  0.6356
   37SOL    MW4  195   2.660   0.116   0.730  0.5047  0.0292  0.4236
   38SOL     OW  196   2.400   4.431   0.474 -0.3906 -0.3874 -0.3260
   38SOL    HW2  197   2.308   4.408   0.488  0.0367 -1.5078  0.7600
   38SOL    HW3  198   2.442   4.411   0.558  0.5117  1.8668 -0.2053
   38SOL    MW4  199   2.394   4.425   0.487 -0.2155 -0.2375 -0.1668
   39SOL     OW  200   0.867   1.743   0.499  0.1579 -0.0637 -0.4137
   39SOL    HW2  201   0.872   1.711   0.589  1.0000  1.6032  0.1428
   39SOL    HW3  202   0.787   1.796   0.497  1.2955  1.6779 -0.0611
   39SOL    MW4  203   0.857   1.746   0.511  0.4191  0.3861 -0.2937
   40SOL     OW  204   4.240   2.920   0.494  0.1262  0.0587 -0.1657
   40SOL    HW2  205   4.245   2.995   0.435  0.6261  0.6497  0.6213
   40SOL    HW3  206   4.146   2.899   0.499  0.0357  0.3015 -0.7882
   40SOL    MW4  207   4.228   2.927   0.486  0.1798  0.1686 -0.1440
   41SOL     OW  208   0.955   2.803   0.440 -0.0459 -0.0939  0.1062
   41SOL    HW2  209   0.861   2.813   0.456 -0.0691 -2.5581  1.8364
   41SOL    HW3  210   0.994   2.806   0.528  1.3680 -0.2038 -0.5068
   41SOL    MW4  211   0.948   2.805   0.454  0.1376 -0.4334  0.2536
   42SOL     OW  212   2.874   2.340   0.208 -0.0957  0.0195  0.2258
   42SOL    HW2  213   2.948   2.281   0.197  1.5234  1.8816  0.8151
   42SOL    HW3  214   2.820   2.298   0.275  1.2867 -0.5821  0.9958
   42SOL    MW4  215   2.877   2.327   0.215  0.3004  0.1857  0.4051
   43SOL     OW  216   4.343   3.130   0.849  0.3353  0.3331 -0.2679
   43SOL    HW2  217   4.416   3.157   0.794 -0.2221  0.0491 -1.1626
   43SOL    HW3  218   4.319   3.043   0.815 -0.1111  0.2230  0.3247
   43SOL    MW4  219   4.349   3.122   0.837  0.2031  0.2811 -0.3077
   44SOL     OW  220   0.440   2.622   0.807 -0.0842 -0.2177  0.3055
   44SOL    HW2  221   0.420   2.546   0.752  0.4890  0.7548 -1.2702
   44SOL    HW3  222   0.363   2.679   0.798  0.0484 -0.0194  0.4355
   44SOL    MW4  223   0.427   2.619   0.798  0.0089 -0.0629  0.1147
   45SOL     OW  224   3.961   4.345   0.432 -0.1329 -0.3169 -0.2639
   45SOL    HW2  225   3.915   4.265   0.404 -1.2212 -0.1152  0.9134
   45SOL    HW3  226   3.924   4.365   0.518  1.2464  0.5942  0.1323
   45SOL    MW4  227   3.950   4.337   0.440 -0.0944 -0.1707 -0.0563
   46SOL     OW  228   2.692   4.039   0.704  0.0460 -0.0435  0.5439
   46SOL    HW2  229   2.655   3.991   0.778 -1.4971 -0.3936 -0.4310
   46SOL    HW3  230   2.709   4.127   0.739 -1.2194 -0.0344  1.1694
   46SOL    MW4  231   2.690   4.044   0.718 -0.3242 -0.0887  0.4978
   47SOL     OW  232   2.415   0.733   0.805 -0.3902 -0.0951 -0.1561
   47SOL    HW2  233   2.427   0.640   0.785 -0.9245 -0.0573 -0.6735
   47SOL    HW3  234   2.503   0.771   0.798 -0.6203  0.0248 -3.0329
   47SOL    MW4  235   2.428   0.726   0.801 -0.4914 -0.0743 -0.6040
   48SOL     OW  236   1.606   4.366   0.731  0.4623 -0.2089  0.2888
   48SOL    HW2  237   1.603   4.435   0.798  0.3506 -0.0977  0.1688
   48SOL    HW3  238   1.609   4.413   0.648  1.4379 -0.3404  0.2432
   48SOL    MW4  239   1.606   4.382   0.729  0.5763 -0.2108  0.2670
   49SOL     OW  240   1.047   0.750   0.860 -0.2826 -0.4316 -0.3663
   49SOL    HW2  241   1.072   0.671   0.812  3.3986  0.7010 -0.4324
   49SOL    HW3  242   1.070   0.731   0.951  0.9223  0.6269 -0.4278
   49SOL    MW4  243   1.053   0.737   0.866  0.3620 -0.1425 -0.3831
   50SOL     OW  244   1.506   0.428   0.262 -0.1238 -0.5239  0.1045
   50SOL    HW2  245   1.466   0.470   0.186 -0.1252 -0.5016  0.1177
   50SOL    HW3  246   1.515   0.498   0.327 -0.4969 -0.6287  0.2723
   50SOL    MW4  247   1.502   0.443   0.261 -0.1731 -0.5347  0.1284
   51SOL     OW  248   0.697   4.372   0.804  0.5129 -0.0405  0.0083
   51SOL    HW2  249   0.699   4.462   0.837  3.0388 -0.6880  1.8137
   51SOL    HW3  250   0.706   4.381   0.709  0.8104  1.6028  0.1768
   51SOL    MW4  251   0.699   4.385   0.796  0.8854  0.0906  0.2688
   52SOL     OW  252   4.173   1.420   0.429  0.2990 -0.1513  0.1754
   52SOL    HW2  253   4.212   1.442   0.344 -0.2630 -0.5389 -0.1866
   52SOL    HW3  254   4.234   1.357   0.468  0.4358 -0.1552 -0.0410
   52SOL    MW4  255   4.186   1.415   0.423  0.2432 -0.2031  0.0991
   53SOL     OW  256   3.356   3.312   0.363 -0.1317 -0.5145  0.4870
   53SOL    HW2  257   3.435   3.271   0.398 -0.9136 -1.3060  1.3775
   53SOL    HW3  258   3.365   3.405   0.383  0.7826 -0.5313  0.1622
   53SOL    MW4  259   3.368   3.319   0.370 -0.1142 -0.6211  0.5616
   54SOL     OW  260   1.346   3.189   0.710 -0.2529 -0.2525 -0.7072
   54SOL    HW2  261   1.426   3.161   0.754 -1.5474 -0.6267  1.4437
   54SOL    HW3  262   1.372   3.198   0.618  1.7487 -2.3660 -0.3983
   54SOL    MW4  263   1.360   3.186   0.703 -0.1596 -0.5805 -0.3827
   55SOL     OW  264   1.286   2.429   0.762 -0.3933  0.3780  0.2783
   55SOL    HW2  265   1.261   2.435   0.670 -0.8508 -0.8903  0.3138
   55SOL    HW3  266   1.209   2.395   0.806  0.4375 -0.8360  0.8332
   55SOL    MW4  267   1.273   2.425   0.755 -0.3440  0.0505  0.3562
   56SOL     OW  268   1.822   1.052   0.454  0.0802 -0.1425  0.1803
   56SOL    HW2  269   1.897   1.090   0.499  0.0355  0.0784  0.0657
   56SOL    HW3  270   1.840   0.958   0.453 -0.1536 -0.2094  1.1164
   56SOL    MW4  271   1.834   1.045   0.460  0.0435 -0.1223  0.2887
   57SOL     OW  272   3.590   2.452   0.737 -0.2985 -0.1621  0.7621
   57SOL    HW2  273   3.505   2.421   0.769  0.3983 -0.5352  2.3424
   57SOL    HW3  274   3.602   2.537   0.780 -0.3403  0.3853 -0.2920
   57SOL    MW4  275   3.580   2.459   0.747 -0.2122 -0.1390  0.8315
   58SOL     OW  276   1.683   0.345   0.463 -0.4312 -0.2895  0.2902
   58SOL    HW2  277   1.653   0.374   0.377  0.1958  0.8148  0.4394
   58SOL    HW3  278   1.607   0.356   0.519 -0.2872  0.8058  0.2825
   58SOL    MW4  279   1.669   0.350   0.459 -0.3295  0.0007  0.3089
   59SOL     OW  280   4.072   1.693   0.785  0.0386  0.1844 -0.5398
   59SOL    HW2  281   3.993   1.660   0.827 -0.3478  0.4514 -1.0504
   59SOL    HW3  282   4.140   1.630   0.808 -0.3765 -0.1721 -0.2935
   59SOL    MW4  283   4.071   1.681   0.793 -0.0672  0.1726 -0.5746
   60SOL     OW  284   0.040   0.887   0.759 -0.2809 -0.2850 -0.0494
   60SOL    HW2  285   0.024   0.969   0.804 -0.6641  0.5081 -1.5849
   60SOL    HW3  286   0.124   0.856   0.793 -0.5644  0.2789  1.1808
   60SOL    MW4  287   0.049   0.894   0.769 -0.3688 -0.1059 -0.0896
   61SOL     OW  288   2.422   0.259   0.370  0.1394 -0.0414 -0.0930
   61SOL    HW2  289   2.428   0.354   0.376  0.9418 -0.0689 -0.2932
   61SOL    HW3  290   2.511   0.229   0.389  0.4162 -0.6258 -2.1603
   61SOL    MW4  291   2.435   0.268   0.373  0.2818 -0.1222 -0.3922
   62SOL     OW  292   1.268   3.005   0.284  0.0351 -0.1498 -0.4432
   62SOL    HW2  293   1.185   3.019   0.328 -0.2406 -1.0579 -0.6550
   62SOL    HW3  294   1.263   3.059   0.205  0.3094  1.0476  0.3597
   62SOL    MW4  295   1.257   3.014   0.279  0.0349 -0.1116 -0.3652
   63SOL     OW  296   4.293   2.881   0.771  0.1100  0.0052  0.0388
   63SOL    HW2  297   4.287   2.897   0.677  0.1870  2.5707  0.4363
   63SOL    HW3  298   4.372   2.828   0.782  0.5503  0.3908 -1.2606
   63SOL    MW4  299   4.303   2.876   0.760  0.1783  0.3946 -0.0802
   64SOL     OW  300   0.748   3.553   0.151  0.0190 -0.1094  0.1867
   64SOL    HW2  301   0.738   3.642   0.185  1.5336 -0.1615  0.8325
   64SOL    HW3  302   0.719   3.558   0.060 -0.9409  0.7903  0.5314
   64SOL    MW4  303   0.743   3.566   0.144  0.0922  0.0021  0.3174
   65SOL     OW  304   0.318   0.758   0.479 -0.0746  0.3410 -0.5585
   65SOL    HW2  305   0.270   0.821   0.425  0.7072  0.9984 -0.5151
   65SOL    HW3  306   0.260   0.684   0.488 -0.8820  0.9250 -0.9080
   65SOL    MW4  307   0.304   0.757   0.473 -0.0780  0.5047 -0.5989
   66SOL     OW  308   2.518   3.616   0.698  0.1477 -0.1557  0.7622
   66SOL    HW2  309   2.605   3.599   0.735  0.1865  1.6051  1.5267
   66SOL    HW3  310   2.459   3.563   0.752  0.5130  0.3242  1.6601
   66SOL    MW4  311   2.522   3.606   0.710  0.2010  0.1400  0.9816
   67SOL     OW  312   3.988   3.729   0.477  0.1952 -0.2447  0.5040
   67SOL    HW2  313   4.048   3.654   0.475  1.4121  0.6170  2.7589
   67SOL    HW3  314   3.928   3.708   0.549  0.8231  1.1360  1.4397
   67SOL    MW4  315   3.988   3.716   0.486  0.4382  0.0513  0.9250
   68SOL     OW  316   1.323   1.524   0.572  0.0849 -0.1585  0.0963
   68SOL    HW2  317   1.266   1.515   0.648 -0.3503  0.3619 -0.1597
   68SOL    HW3  318   1.264   1.549   0.501  0.4849 -0.6554 -0.4176
   68SOL    MW4  319   1.308   1.526   0.573  0.0802 -0.1553 -0.0052
   69SOL     OW  320   0.738   2.135   0.322  0.3203 -0.1817 -0.1792
   69SOL    HW2  321   0.796   2.195   0.368  1.0575 -0.3439 -0.8866
   69SOL    HW3  322   0.716   2.069   0.387  0.6299  0.0832  0.1986
   69SOL    MW4  323   0.743   2.134   0.337  0.4584 -0.1681 -0.2227
   70SOL     OW  324   0.962   4.242   0.417 -0.0660  0.1765 -0.0494
   70SOL    HW2  325   0.995   4.162   0.457  0.0092  0.8919  1.3631
   70SOL    HW3  326   1.032   4.306   0.431 -0.5188  0.7333 -0.3263
   70SOL    MW4  327   0.976   4.240   0.424 -0.1158  0.3448  0.1004
   71SOL     OW  328   2.949   0.732   0.853  0.2767 -0.3326  0.1426
   71SOL    HW2  329   2.859   0.766   0.851  0.1348 -0.7361 -0.3869
   71SOL    HW3  330   2.964   0.708   0.944 -0.7132 -1.7780 -0.0666
   71SOL    MW4  331   2.939   0.734   0.865  0.1273 -0.5766  0.0451
   72SOL     OW  332   2.926   1.769   0.361 -0.1970  0.2467 -0.2075
   72SOL    HW2  333   2.914   1.857   0.397  0.8838  0.7014 -0.9257
   72SOL    HW3  334   2.840   1.728   0.369 -0.4971  1.0745  0.9206
   72SOL    MW4  335   2.913   1.775   0.366 -0.0939  0.4159 -0.1535
   73SOL     OW  336   2.920   1.508   0.763 -0.4747 -0.2082 -0.1008
   73SOL    HW2  337   3.012   1.532   0.751 -0.3151 -1.3255 -1.2028
   73SOL    HW3  338   2.919   1.412   0.763 -1.6207 -0.2123  0.0328
   73SOL    MW4  339   2.932   1.499   0.762 -0.6049 -0.3562 -0.2286
   74SOL     OW  340   3.581   2.378   0.450 -0.0035  0.4221  0.7846
   74SOL    HW2  341   3.563   2.391   0.543  0.6980  0.3817  0.9327
   74SOL    HW3  342   3.535   2.449   0.406  0.4380  1.0070  1.2454
   74SOL    MW4  343   3.573   2.389   0.457  0.1473  0.4940  0.8649
   75SOL     OW  344   1.093   3.079   0.783 -0.5200 -0.1691 -0.0239
   75SOL    HW2  345   1.089   2.988   0.753 -0.8189 -0.2837  0.3625
   75SOL    HW3  346   1.181   3.108   0.758 -0.2795 -0.6874  0.2036
   75SOL    MW4  347   1.104   3.071   0.775 -0.5279 -0.2527  0.0572
   76SOL     OW  348   1.128   0.431   0.470  0.0454 -0.6531 -0.1412
   76SOL    HW2  349   1.105   0.521   0.448 -0.6130 -1.0361 -1.0580
   76SOL    HW3  350   1.052   0.379   0.441  0.5280 -1.5232  0.1393
   76SOL    MW4  351   1.115   0.436   0.463  0.0222 -0.8184 -0.2252
   77SOL     OW  352   1.391   2.740   0.317  0.0189  0.1910  0.2743
   77SOL    HW2  353   1.361   2.829   0.299 -0.4616 -0.1631 -0.7067
   77SOL    HW3  354   1.483   2.740   0.290 -0.5177 -0.1527 -1.6403
   77SOL    MW4  355   1.399   2.752   0.311 -0.1153  0.0989 -0.1077
   78SOL     OW  356   3.856   0.549   0.457 -0.8844 -0.0960  0.3049
   78SOL    HW2  357   3.889   0.476   0.404  0.9945  0.7884  0.2193
   78SOL    HW3  358   3.795   0.595   0.399  0.7473  0.5474 -0.9328
   78SOL    MW4  359   3.852   0.545   0.442 -0.4213  0.1055  0.1303
   79SOL     OW  360   4.110   1.967   0.896  0.3166  0.3124 -0.0496
   79SOL    HW2  361   4.098   1.878   0.862  0.6243 -0.5205  1.9913
   79SOL    HW3  362   4.029   2.013   0.872 -1.1157 -1.3541  1.4515
   79SOL    MW4  363   4.098   1.962   0.888  0.1683 -0.0174  0.4178
   80SOL     OW  364   1.493   4.089   0.509 -0.2869  0.2772 -0.1987
   80SOL    HW2  365   1.567   4.030   0.495 -0.1237 -0.5870  3.7409
   80SOL    HW3  366   1.524   4.150   0.575 -3.5318 -1.0315  2.6442
   80SOL    MW4  367   1.507   4.089   0.516 -0.6934 -0.0091  0.6962
   81SOL     OW  368   1.755   0.855   0.774 -0.2759 -0.2243 -0.3790
   81SOL    HW2  369   1.774   0.848   0.680  1.4839 -2.3342  0.1027
   81SOL    HW3  370   1.781   0.944   0.797  0.8306 -0.2372 -1.5564
   81SOL    MW4  371   1.761   0.866   0.765  0.1023 -0.5044 -0.4708
   82SOL     OW  372   3.008   4.395   0.502 -0.3843  0.2048 -0.7206
   82SOL    HW2  373   2.944   4.326   0.484  0.4272 -0.3568 -1.5168
   82SOL    HW3  374   2.970   4.474   0.464 -1.2342  0.1624  0.0302
   82SOL    MW4  375   2.994   4.396   0.494 -0.3893  0.1254 -0.7266
   83SOL     OW  376   1.761   1.127   0.865  0.2675  0.3698 -0.6022
   83SOL    HW2  377   1.840   1.179   0.849 -0.3198  1.4795 -0.0217
   83SOL    HW3  378   1.692   1.173   0.817 -0.2001 -0.0610 -0.3487
   83SOL    MW4  379   1.762   1.140   0.857  0.1284  0.4594 -0.4922
   84SOL     OW  380   2.463   2.865   0.424  0.2583 -0.5501  0.3318
   84SOL    HW2  381   2.541   2.814   0.402  0.0231 -0.7423 -0.0601
   84SOL    HW3  382   2.393   2.828   0.369  0.2560  0.6784 -0.5123
   84SOL    MW4  383   2.464   2.854   0.414  0.2270 -0.4134  0.1687
   85SOL     OW  384   0.920   0.263   0.366 -0.5229 -0.3417  0.0230
   85SOL    HW2  385   0.827   0.285   0.365 -0.8653 -1.7979 -0.4827
   85SOL    HW3  386   0.923   0.168   0.376  0.9118 -0.3238 -0.0655
   85SOL    MW4  387   0.908   0.253   0.367 -0.3787 -0.5315 -0.0554
   86SOL     OW  388   2.714   2.536   0.127  0.1005 -0.4878 -0.2815
   86SOL    HW2  389   2.733   2.556   0.036 -0.2141  0.3988 -0.1638
   86SOL    HW3  390   2.762   2.456   0.146  1.1197 -0.0191 -0.8905
   86SOL    MW4  391   2.723   2.528   0.118  0.1934 -0.3092 -0.3463
   87SOL     OW  392   0.739   3.569   0.797  0.1372 -0.2155 -0.3077
   87SOL    HW2  393   0.747   3.583   0.703 -0.9096  0.8827 -0.2417
   87SOL    HW3  394   0.822   3.529   0.823  0.3411 -0.7197 -1.7277
   87SOL    MW4  395   0.751   3.566   0.788  0.0260 -0.1369 -0.4864
   88SOL     OW  396   2.044   2.045   0.725  0.3294 -0.4219 -0.1607
   88SOL    HW2  397   2.049   2.058   0.630 -0.6639  0.4783 -0.1028
   88SOL    HW3  398   2.051   2.134   0.761 -0.5725 -0.6321  0.5473
   88SOL    MW4  399   2.045   2.058   0.717  0.0794 -0.3307 -0.0596
   89SOL     OW  400   2.948   2.798   0.428  0.5868 -0.0403  0.0237
   89SOL    HW2  401   2.962   2.711   0.391 -2.1403 -0.2211 -0.6271
   89SOL    HW3  402   2.946   2.784   0.522 -2.0693 -1.0524 -0.1507
   89SOL    MW4  403   2.950   2.785   0.435 -0.1233 -0.1976 -0.0851
   90SOL     OW  404   0.542   3.794   0.482 -0.0156  0.0794 -0.3279
   90SOL    HW2  405   0.451   3.767   0.491  0.2322  0.0679  2.7271
   90SOL    HW3  406   0.540   3.889   0.485  0.2329  0.0442  2.2413
   90SOL    MW4  407   0.530   3.803   0.483  0.0499  0.0734  0.4141
   91SOL     OW  408   1.526   0.478   0.726 -0.2834 -0.2073 -0.0314
   91SOL    HW2  409   1.453   0.430   0.766 -1.0393  0.6751 -0.3465
   91SOL    HW3  410   1.531   0.559   0.776 -0.9888  0.7403 -1.4677
   91SOL    MW4  411   1.517   0.482   0.738 -0.4764  0.0342 -0.2625
   92SOL     OW  412   1.837   2.714   0.832  0.0768  0.8918  0.0613
   92SOL    HW2  413   1.826   2.630   0.788  0.4577  1.0433 -0.3315
   92SOL    HW3  414   1.915   2.752   0.792 -0.2622  1.5641  0.0259
   92SOL    MW4  415   1.846   2.708   0.821  0.0823  1.0006  0.0048
   93SOL     OW  416   0.765   3.170   0.456  0.2722  0.1122 -0.2016
   93SOL    HW2  417   0.789   3.195   0.545 -0.1822  0.6800 -0.2283
   93SOL    HW3  418   0.724   3.084   0.465  0.0656  0.2467  0.1692
   93SOL    MW4  419   0.763   3.162   0.469  0.1850  0.2046 -0.1562
   94SOL     OW  420   0.659   3.071   0.832  0.1337 -0.5756 -0.5103
   94SOL    HW2  421   0.574   3.108   0.808  0.5408  0.1971 -0.7870
   94SOL    HW3  422   0.651   2.978   0.811 -1.0239 -0.7191  0.5481
   94SOL    MW4  423   0.647   3.063   0.826  0.0346 -0.4926 -0.4072
   95SOL     OW  424   1.062   2.320   0.861  0.4948  0.0019  0.0793
   95SOL    HW2  425   1.071   2.233   0.822  0.7345  0.4340 -0.8382
   95SOL    HW3  426   1.078   2.306   0.954  1.0618 -0.8499 -0.1383
   95SOL    MW4  427   1.065   2.307   0.868  0.6013 -0.0534 -0.0705
   96SOL     OW  428   1.147   3.326   0.377  0.1981 -0.1708  0.2640
   96SOL    HW2  429   1.108   3.267   0.441  1.1084 -0.7239  0.3077
   96SOL    HW3  430   1.084   3.398   0.370 -0.4504 -0.6665  0.9241
   96SOL    MW4  431   1.133   3.328   0.384  0.2326 -0.3092  0.3569
   97SOL     OW  432   2.678   1.631   0.702 -0.0785 -0.3451  0.1169
   97SOL    HW2  433   2.692   1.714   0.749 -0.4846 -1.2557  1.9004
   97SOL    HW3  434   2.761   1.585   0.710 -0.4257 -0.8719  0.7090
   97SOL    MW4  435   2.691   1.636   0.709 -0.1779 -0.5348  0.4303
   98SOL     OW  436   1.895   0.492   0.544 -0.2305 -0.1281 -0.4554
   98SOL    HW2  437   1.823   0.441   0.507  0.2022 -0.7508 -0.4432
   98SOL    HW3  438   1.970   0.471   0.489 -0.0263  0.4173 -0.3873
   98SOL    MW4  439   1.895   0.483   0.532 -0.1465 -0.1383 -0.4449
   99SOL     OW  440   1.472   2.680   0.573 -0.1273 -0.2707 -0.0154
   99SOL    HW2  441   1.406   2.691   0.641 -1.4187 -1.6890 -1.0034
   99SOL    HW3  442   1.426   2.699   0.491  1.2135  0.6836 -0.5731
   99SOL    MW4  443   1.457   2.684   0.571 -0.1208 -0.3321 -0.2194
  100SOL     OW  444   0.636   2.794   0.741  0.0333 -0.4422  0.1572
  100SOL    HW2  445   0.715   2.762   0.784  0.2571 -0.7569 -0.4749
  100SOL    HW3  446   0.567   2.735   0.771 -0.0657  0.1351  1.1011
  100SOL    MW4  447   0.637   2.782   0.751  0.0498 -0.4072  0.1984
  101SOL     OW  448   0.283   3.664   0.505  0.2809  0.1560  0.8151
  101SOL    HW2  449   0.268   3.636   0.595 -0.1200 -2.2395  0.0254
  101SOL    HW3  450   0.311   3.585   0.459 -2.0551  0.7486 -1.7645
  101SOL    MW4  451   0.285   3.650   0.511 -0.0802 -0.0820  0.3706
  102SOL     OW  452   2.874   1.110   0.510  0.1543  0.2943 -0.1871
  102SOL    HW2  453   2.946   1.051   0.485 -0.3802 -0.2363 -0.4830
  102SOL    HW3  454   2.900   1.195   0.474  1.4061  0.4690  1.0825
  102SOL    MW4  455   2.887   1.113   0.502  0.2491  0.2475 -0.0586
  103SOL     OW  456   0.754   3.623   0.537  0.2505  0.3366 -0.2562
  103SOL    HW2  457   0.730   3.544   0.489  0.1579 -0.3037  0.8299
  103SOL    HW3  458   0.672   3.672   0.545  0.0847  0.0182  0.0235
  103SOL    MW4  459   0.740   3.619   0.531  0.2164  0.2103 -0.0759
  104SOL     OW  460   3.118   3.215   0.435  0.2406 -0.4236 -0.4119
  104SOL    HW2  461   3.149   3.205   0.525 -0.5643 -1.3643 -0.2312
  104SOL    HW3  462   3.190   3.260   0.390  0.0852  1.2703  1.0026
  104SOL    MW4  463   3.132   3.220   0.441  0.1140 -0.3242 -0.2015
  105SOL     OW  464   2.997   2.557   0.323  0.2398  0.4894  0.1356
  105SOL    HW2  465   3.069   2.534   0.381 -0.0119  0.8420  0.5882
  105SOL    HW3  466   2.953   2.474   0.306  0.7770  0.2625 -0.1821
  105SOL    MW4  467   3.001   2.543   0.328  0.2773  0.5059  0.1535
  106SOL     OW  468   2.290   2.256   0.378  0.0434  0.1115 -0.1468
  106SOL    HW2  469   2.351   2.195   0.420 -1.4075 -0.5699  1.0186
  106SOL    HW3  470   2.306   2.246   0.285 -0.3485 -2.2603  0.0059
  106SOL    MW4  471   2.300   2.247   0.372 -0.1998 -0.2913  0.0271
  107SOL     OW  472   3.633   1.457   0.489  0.0730 -0.6558 -0.1826
  107SOL    HW2  473   3.667   1.464   0.400  0.5882  3.9167  0.2121
  107SOL    HW3  474   3.699   1.407   0.537  1.3541 -0.4058 -1.6687
  107SOL    MW4  475   3.646   1.452   0.484  0.3099 -0.0197 -0.3266
  108SOL     OW  476   4.144   2.800   0.206 -0.0303  0.1398  0.2221
  108SOL    HW2  477   4.113   2.710   0.194 -1.6990  0.6059  0.8399
  108SOL    HW3  478   4.222   2.791   0.261  0.5094 -1.0180 -0.7069
  108SOL    MW4  479   4.150   2.787   0.212 -0.1793  0.0486  0.1810
  109SOL     OW  480   2.151   0.412   0.417  0.3363 -0.3710 -0.5613
  109SOL    HW2  481   2.234   0.460   0.424  1.0999 -1.5753 -1.0894
  109SOL    HW3  482   2.174   0.333   0.368 -0.8833 -1.2760  0.3085
  109SOL    MW4  483   2.165   0.408   0.412  0.2763 -0.6493 -0.5162
  110SOL     OW  484   3.819   1.820   0.407  0.5527 -0.0477 -0.6603
  110SOL    HW2  485   3.886   1.753   0.416  0.0295 -0.6585 -1.2760
  110SOL    HW3  486   3.852   1.894   0.458  0.0190 -1.6101  2.0559
  110SOL    MW4  487   3.832   1.821   0.415  0.4132 -0.3345 -0.3832
  111SOL     OW  488   2.547   3.133   0.396  0.0027  0.4012 -0.3788
  111SOL    HW2  489   2.520   3.041   0.397  1.5988 -0.1060 -0.7629
  111SOL    HW3  490   2.466   3.182   0.383 -0.7142 -1.0327 -1.5270
  111SOL    MW4  491   2.533   3.127   0.394  0.1187  0.1450 -0.5810
  112SOL     OW  492   4.160   3.523   0.461  0.1431 -0.2208 -0.0253
  112SOL    HW2  493   4.237   3.527   0.404 -0.4621  0.5846 -0.8060
  112SOL    HW3  494   4.138   3.430   0.465  1.1589 -0.4626  0.2156
  112SOL    MW4  495   4.167   3.511   0.454  0.1974 -0.1466 -0.0965
  113SOL     OW  496   0.655   1.904   0.475 -0.0624 -0.3884  0.0021
  113SOL    HW2  497   0.569   1.869   0.453  0.5208 -1.2055 -1.0438
  113SOL    HW3  498   0.642   1.950   0.558 -1.1512 -1.9101  0.6990
  113SOL    MW4  499   0.642   1.905   0.483 -0.1290 -0.6970 -0.0439
  114SOL     OW  500   1.339   3.964   0.815  0.5133  0.3779 -0.5168
  114SOL    HW2  501   1.264   3.923   0.858 -0.2565  0.4281 -1.8184
  114SOL    HW3  502   1.415   3.928   0.861 -0.2457 -0.7566 -0.1361
  114SOL    MW4  503   1.339   3.954   0.827  0.3116  0.2346 -0.6383
  115SOL     OW  504   0.648   2.058   0.705  0.1704 -1.1137  0.1322
  115SOL    HW2  505   0.577   2.027   0.761 -0.7702 -0.6311 -0.7860
  115SOL    HW3  506   0.728   2.032   0.751 -0.5958 -1.2209  1.4155
  115SOL    MW4  507   0.649   2.050   0.718 -0.0548 -1.0643  0.1804
  116SOL     OW  508   3.281   3.595   0.448 -0.0811  0.0949 -0.1747
  116SOL    HW2  509   3.348   3.651   0.409  0.2114  0.2271  0.5186
  116SOL    HW3  510   3.314   3.575   0.535 -0.8703  0.0396  0.1154
  116SOL    MW4  511   3.294   3.600   0.454 -0.1469  0.1051 -0.0449
  117SOL     OW  512   1.068   2.824   0.692  0.1820 -0.0086  0.0677
  117SOL    HW2  513   1.004   2.795   0.756 -0.8148 -0.2018 -1.0091
  117SOL    HW3  514   1.149   2.780   0.718 -0.3496 -0.5472  0.8437
  117SOL    MW4  515   1.071   2.814   0.704 -0.0198 -0.1051  0.0281
  118SOL     OW  516   1.571   3.584   0.725 -0.3541  0.1246  0.0600
  118SOL    HW2  517   1.660   3.558   0.749  0.2688  1.5611 -0.6923
  118SOL    HW3  518   1.551   3.657   0.783 -0.7693  0.2946 -0.2985
  118SOL    MW4  519   1.580   3.590   0.736 -0.3268  0.3366 -0.0865
  119SOL     OW  520   3.218   1.425   0.370  0.5026  0.2093  0.3642
  119SOL    HW2  521   3.125   1.409   0.358  0.5705 -0.3826  0.6101
  119SOL    HW3  522   3.225   1.519   0.388  0.0968  0.5245 -1.0798
  119SOL    MW4  523   3.207   1.435   0.371  0.4582  0.1729  0.2061
  120SOL     OW  524   1.293   3.322   0.138 -0.5640 -0.2334  0.3872
  120SOL    HW2  525   1.258   3.386   0.077  0.4387 -0.0833 -0.0399
  120SOL    HW3  526   1.231   3.321   0.211 -1.7711 -0.4385 -0.6442
  120SOL    MW4  527   1.280   3.331   0.140 -0.5908 -0.2403  0.1948
  121SOL     OW  528   2.479   4.397   0.750 -0.1778  0.2148  0.0922
  121SOL    HW2  529   2.567   4.366   0.769  0.3336  1.3664 -0.3562
  121SOL    HW3  530   2.469   4.475   0.805 -0.4042  0.8885 -0.9041
  121SOL    MW4  531   2.489   4.403   0.760 -0.1400  0.4559 -0.0983
  122SOL     OW  532   2.457   0.463   0.736 -0.8340  0.0244 -0.0249
  122SOL    HW2  533   2.380   0.422   0.776 -0.7232 -0.2337 -0.0769
  122SOL    HW3  534   2.531   0.411   0.768 -0.6229  0.6391  0.5175
  122SOL    MW4  535   2.457   0.451   0.746 -0.7915  0.0714  0.0398
  123SOL     OW  536   4.429   3.557   0.336  0.1284 -0.4674  0.4547
  123SOL    HW2  537   4.454   3.471   0.371 -0.6434 -0.8851 -0.0024
  123SOL    HW3  538   4.493   3.575   0.268 -1.0935 -1.7623 -1.0611
  123SOL    MW4  539   4.441   3.548   0.332 -0.1349 -0.6933  0.1944
  124SOL     OW  540   1.152   4.660   0.923 -0.0193 -0.2256 -0.2442
  124SOL    HW2  541   1.187   4.585   0.874  1.5082  0.5611 -0.3949
  124SOL    HW3  542   1.065   4.675   0.885  0.2956 -0.9454 -1.2729
  124SOL    MW4  543   1.145   4.652   0.912  0.2238 -0.2170 -0.3998
  125SOL     OW  544   1.710   3.903   0.495  0.0035 -0.0818 -0.1282
  125SOL    HW2  545   1.687   3.814   0.471  0.3743  0.3700 -2.1948
  125SOL    HW3  546   1.806   3.907   0.486  0.2171  0.0079  1.8086
  125SOL    MW4  547   1.720   3.892   0.491  0.0805 -0.0103 -0.1453
  126SOL     OW  548   2.460   1.513   0.836  0.1522  0.1489 -0.2874
  126SOL    HW2  549   2.475   1.427   0.798 -2.8326  0.6345 -2.7383
  126SOL    HW3  550   2.537   1.564   0.813  1.6690 -1.6370  0.6710
  126SOL    MW4  551   2.472   1.509   0.828 -0.0412 -0.0226 -0.4842
  127SOL     OW  552   2.701   0.175   0.449  0.0845  0.0997  0.5659
  127SOL    HW2  553   2.670   0.182   0.539 -0.1811  2.0012  0.3450
  127SOL    HW3  554   2.778   0.231   0.445  0.1419 -0.0321 -0.3740
  127SOL    MW4  555   2.707   0.183   0.460  0.0570  0.3332  0.4127
  128SOL     OW  556   4.249   3.133   0.335 -0.3644  0.1386  0.0519
  128SOL    HW2  557   4.181   3.181   0.381  0.0823  0.5820  0.2509
  128SOL    HW3  558   4.220   3.130   0.244 -0.7389  0.1642  0.1729
  128SOL    MW4  559   4.237   3.139   0.329 -0.3552  0.2003  0.0941
  129SOL     OW  560   0.899   1.664   0.752  0.0008 -0.4196  0.6816
  129SOL    HW2  561   0.818   1.620   0.776 -0.5671 -0.1832 -0.7543
  129SOL    HW3  562   0.879   1.757   0.759  0.5054 -0.3607  1.4478
  129SOL    MW4  563   0.886   1.670   0.756 -0.0075 -0.3805  0.5932
  130SOL     OW  564   0.508   4.007   0.732  0.3351  0.3280  0.6132
  130SOL    HW2  565   0.573   3.949   0.772  0.3221  0.7465  1.2609
  130SOL    HW3  566   0.520   4.090   0.777  1.7992  1.4703 -1.8020
  130SOL    MW4  567   0.518   4.010   0.744  0.5266  0.5341  0.3800
  131SOL     OW  568   3.329   0.874   0.276  0.2377 -0.5256  0.2228
  131SOL    HW2  569   3.258   0.910   0.330 -0.2375  0.2458 -0.8965
  131SOL    HW3  570   3.407   0.922   0.304 -0.3572  1.2751 -1.1189
  131SOL    MW4  571   3.330   0.885   0.287  0.0968 -0.1863 -0.1019
  132SOL     OW  572   1.157   4.441   0.480 -0.2673 -0.2102 -0.3772
  132SOL    HW2  573   1.248   4.426   0.453  0.4065  0.6837  1.3050
  132SOL    HW3  574   1.162   4.452   0.575 -1.7958  2.3177 -0.5468
  132SOL    MW4  575   1.170   4.441   0.489 -0.3798  0.2403 -0.1776
  133SOL     OW  576   0.316   4.256   0.470  0.0881  0.2259  0.2036
  133SOL    HW2  577   0.242   4.196   0.459  0.9435 -0.6827 -0.7793
  133SOL    HW3  578   0.292   4.311   0.544 -0.6503 -1.4290  1.2085
  133SOL    MW4  579   0.303   4.255   0.478  0.1035 -0.1121  0.2065
  134SOL     OW  580   2.273   2.455   0.743  0.0018 -0.0631 -0.2848
  134SOL    HW2  581   2.196   2.403   0.766  1.0983 -1.5433  0.1422
  134SOL    HW3  582   2.259   2.481   0.652 -1.2125  0.0985 -0.0597
  134SOL    MW4  583   2.261   2.452   0.734 -0.0138 -0.2370 -0.1988
  135SOL     OW  584   1.022   3.063   0.420 -0.2237  0.5078 -0.7014
  135SOL    HW2  585   1.000   2.970   0.416 -1.0800  0.7436 -1.8869
  135SOL    HW3  586   0.938   3.108   0.417  0.1348  1.3051  0.8701
  135SOL    MW4  587   1.008   3.057   0.419 -0.2894  0.6442 -0.6505
  136SOL     OW  588   1.283   0.857   0.769 -0.3076 -0.1921  0.1890
  136SOL    HW2  589   1.207   0.817   0.812 -0.3886 -0.0900  0.1417
  136SOL    HW3  590   1.279   0.824   0.679 -0.1326 -0.4136  0.2629
  136SOL    MW4  591   1.272   0.847   0.763 -0.2953 -0.2079  0.1925
  137SOL     OW  592   3.371   1.931   0.495 -0.3525 -0.4080  0.1093
  137SOL    HW2  593   3.395   1.972   0.579  1.4643  0.1857 -0.6675
  137SOL    HW3  594   3.432   1.858   0.486 -1.7099 -1.5641  0.1202
  137SOL    MW4  595   3.382   1.927   0.505 -0.2918 -0.4823  0.0082
  138SOL     OW  596   2.021   4.639   0.846 -0.3997  0.2009 -0.2665
  138SOL    HW2  597   2.022   4.548   0.817 -2.0606  0.3728 -0.9320
  138SOL    HW3  598   2.090   4.681   0.795 -1.1396 -0.2129 -1.6387
  138SOL    MW4  599   2.030   4.633   0.835 -0.7164  0.1688 -0.5353
  139SOL     OW  600   1.977   1.279   0.783 -0.3496 -0.1225  0.3591
  139SOL    HW2  601   1.968   1.265   0.689 -1.9182  0.4718  0.4065
  139SOL    HW3  602   2.061   1.238   0.806  0.7199  0.9507 -1.5318
  139SOL    MW4  603   1.987   1.272   0.774 -0.4153  0.0976  0.1159
  140SOL     OW  604   0.268   3.600   0.773  0.7561 -0.5628 -0.2040
  140SOL    HW2  605   0.353   3.562   0.792  1.7864  1.5110 -0.4986
  140SOL    HW3  606   0.272   3.688   0.810 -0.8735 -0.0619 -1.1543
  140SOL    MW4  607   0.279   3.607   0.780  0.6770 -0.2229 -0.3682
  141SOL     OW  608   1.792   3.948   0.791 -0.4838 -0.1958  0.2684
  141SOL    HW2  609   1.785   3.928   0.698  2.0442 -0.5088  0.1127
  141SOL    HW3  610   1.798   4.043   0.795 -2.4614 -0.0548  0.2705
  141SOL    MW4  611   1.792   3.958   0.779 -0.4112 -0.2186  0.2481
  142SOL     OW  612   1.103   2.123   0.473 -0.4440  0.4015 -0.1304
  142SOL    HW2  613   1.071   2.061   0.408  1.1959  1.1547 -1.6778
  142SOL    HW3  614   1.039   2.195   0.471  0.2891  1.0101 -1.8221
  142SOL    MW4  615   1.090   2.125   0.464 -0.1309  0.5813 -0.5577
  143SOL     OW  616   3.783   1.050   0.486 -0.3733 -0.2782  0.2858
  143SOL    HW2  617   3.846   0.982   0.461  0.4685  0.2802  0.8730
  143SOL    HW3  618   3.700   1.020   0.449 -0.0607 -1.7375  0.7301
  143SOL    MW4  619   3.780   1.037   0.477 -0.2210 -0.3971  0.4219
  144SOL     OW  620   3.428   0.403   0.471 -0.0871  0.3341 -0.3803
  144SOL    HW2  621   3.395   0.473   0.415  0.6893  0.3591 -0.8144
  144SOL    HW3  622   3.392   0.422   0.558 -0.6428  0.7441 -0.7022
  144SOL    MW4  623   3.419   0.415   0.475 -0.0577  0.3915 -0.4800
  145SOL     OW  624   4.220   0.964   0.522 -0.2572 -0.0488  0.1443
  145SOL    HW2  625   4.184   0.957   0.610  1.1164  0.3393  0.7556
  145SOL    HW3  626   4.262   0.879   0.506 -0.5172 -0.1247 -0.1495
  145SOL    MW4  627   4.221   0.952   0.532 -0.1101 -0.0076  0.1862
  146SOL     OW  628   1.414   3.198   0.449  0.0539 -0.1393 -0.2455
  146SOL    HW2  629   1.394   3.285   0.416  0.8228 -0.2317 -0.9792
  146SOL    HW3  630   1.376   3.138   0.384  0.8664 -0.3288 -0.5551
  146SOL    MW4  631   1.407   3.201   0.436  0.2626 -0.1764 -0.3832
  147SOL     OW  632   0.953   4.656   0.473 -0.6275 -0.3864  0.2008
  147SOL    HW2  633   1.025   4.593   0.468 -0.2328 -0.1371  2.1065
  147SOL    HW3  634   0.932   4.661   0.566 -2.0849  0.7081 -0.1604
  147SOL    MW4  635   0.960   4.648   0.485 -0.7677 -0.2092  0.4046
  148SOL     OW  636   4.332   1.224   0.539  0.0159  0.0015  0.1072
  148SOL    HW2  637   4.294   1.138   0.520 -1.3366  1.1117 -2.6276
  148SOL    HW3  638   4.308   1.243   0.629 -2.0042 -1.3594 -0.1195
  148SOL    MW4  639   4.323   1.215   0.548 -0.4292 -0.0315 -0.2836
  149SOL     OW  640   2.108   3.383   0.391 -0.2851  0.1682 -0.3882
  149SOL    HW2  641   2.118   3.477   0.399 -0.5089  0.1121  0.6531
  149SOL    HW3  642   2.014   3.367   0.407 -0.3727 -0.1673 -1.1941
  149SOL    MW4  643   2.097   3.393   0.395 -0.3264  0.1168 -0.3571
  150SOL     OW  644   0.656   0.349   0.359 -0.0329 -0.3186  0.0568
  150SOL    HW2  645   0.598   0.422   0.338  0.8871  0.6578  0.8367
  150SOL    HW3  646   0.598   0.282   0.395 -0.8479  0.1464 -0.3668
  150SOL    MW4  647   0.641   0.350   0.361 -0.0191 -0.1285  0.1038
  151SOL     OW  648   2.253   3.160   0.428  0.2088  0.3125 -0.5318
  151SOL    HW2  649   2.192   3.088   0.439 -0.3504  0.6053 -1.5836
  151SOL    HW3  650   2.197   3.236   0.410  0.8210  0.8453 -0.1932
  151SOL    MW4  651   2.238   3.161   0.427  0.2158  0.4215 -0.6259
  152SOL     OW  652   2.801   4.155   0.460 -0.4942  0.0509  0.4564
  152SOL    HW2  653   2.725   4.183   0.409 -1.1113 -0.1128  1.2597
  152SOL    HW3  654   2.765   4.092   0.523  0.3595 -0.2409  0.6617
  152SOL    MW4  655   2.786   4.150   0.462 -0.4630 -0.0091  0.5895
  153SOL     OW  656   0.555   4.102   0.484  0.1827  0.5389 -0.3094
  153SOL    HW2  657   0.545   4.067   0.573  1.2856  0.3319 -0.2695
  153SOL    HW3  658   0.467   4.132   0.461 -0.6257 -1.5472 -0.0556
  153SOL    MW4  659   0.542   4.102   0.493  0.2216  0.2365 -0.2706
  154SOL     OW  660   3.376   3.886   0.792  0.1242 -0.0210 -0.2572
  154SOL    HW2  661   3.376   3.878   0.887 -0.6479 -0.8917 -0.3287
  154SOL    HW3  662   3.459   3.929   0.771 -0.7996  2.4743  0.9989
  154SOL    MW4  663   3.387   3.891   0.802 -0.0994  0.1934 -0.1010
  155SOL     OW  664   3.875   1.333   0.550 -0.0822  0.5631 -0.3611
  155SOL    HW2  665   3.963   1.348   0.514  1.1137 -0.8208  1.8677
  155SOL    HW3  666   3.855   1.242   0.526  0.1891  0.0496  1.3051
  155SOL    MW4  667   3.884   1.323   0.542  0.1113  0.3127  0.1528
  156SOL     OW  668   2.936   2.037   0.461 -0.0660 -0.2259  0.0238
  156SOL    HW2  669   2.873   2.109   0.464 -0.4537 -0.6033  1.1932
  156SOL    HW3  670   3.006   2.069   0.404 -1.8389 -0.2438 -2.2367
  156SOL    MW4  671   2.937   2.051   0.454 -0.3510 -0.2780 -0.1201
  157SOL     OW  672   0.484   2.784   0.342  0.2397  0.1980  0.5159
  157SOL    HW2  673   0.455   2.696   0.365 -0.1471  0.3621  0.6512
  157SOL    HW3  674   0.534   2.772   0.261 -0.4970 -0.0415  0.0920
  157SOL    MW4  675   0.487   2.771   0.334  0.0915  0.1881  0.4778
  158SOL     OW  676   0.767   0.556   0.518  0.1171 -0.3469 -0.4658
  158SOL    HW2  677   0.697   0.621   0.509  1.5231  0.8776 -2.9426
  158SOL    HW3  678   0.733   0.478   0.475 -0.0554 -0.0147 -0.9372
  158SOL    MW4  679   0.754   0.554   0.511  0.2798 -0.1415 -0.8547
  159SOL     OW  680   2.906   2.302   0.835 -0.1857 -0.5563  0.2072
  159SOL    HW2  681   2.836   2.352   0.794  1.1676  1.5642  0.4124
  159SOL    HW3  682   2.896   2.318   0.929 -0.4631 -1.6509  0.3725
  159SOL    MW4  683   2.895   2.310   0.842 -0.0439 -0.4208  0.2561
  160SOL     OW  684   1.596   1.885   0.490 -0.3984 -0.4359  0.1445
  160SOL    HW2  685   1.611   1.968   0.535 -0.3486 -0.3252 -0.0777
  160SOL    HW3  686   1.537   1.907   0.418 -0.3024 -0.5751  0.0236
  160SOL    MW4  687   1.590   1.899   0.486 -0.3792 -0.4396  0.0992
  161SOL     OW  688   0.787   4.052   0.314  0.5373  0.0910  0.3535
  161SOL    HW2  689   0.710   4.078   0.365  0.1675  0.3977 -0.3413
  161SOL    HW3  690   0.845   4.127   0.317 -0.1919  0.7272 -1.0084
  161SOL    MW4  691   0.784   4.065   0.321  0.3923  0.2151  0.0821
  162SOL     OW  692   0.043   0.101   0.694 -0.5621  0.0321 -0.2064
  162SOL    HW2  693  -0.028   0.039   0.710 -0.7023  0.2113 -0.1233
  162SOL    HW3  694   0.019   0.178   0.747  0.3457 -0.3925  0.8249
  162SOL    MW4  695   0.030   0.103   0.704 -0.4608 -0.0003 -0.0594
  163SOL     OW  696   1.048   1.237   0.767 -0.1439 -0.2237 -0.0397
  163SOL    HW2  697   1.134   1.196   0.757  0.2488  0.5100  0.3132
  163SOL    HW3  698   1.012   1.240   0.678  1.0222  1.2566 -0.4831
  163SOL    MW4  699   1.055   1.232   0.754  0.0615  0.0684 -0.0517
  164SOL     OW  700   3.205   2.925   0.365 -0.0444 -0.3443 -0.0316
  164SOL    HW2  701   3.195   3.020   0.376 -1.5275 -0.6074  1.0515
  164SOL    HW3  702   3.116   2.891   0.366  0.4564 -1.7288 -0.7740
  164SOL    MW4  703   3.192   2.933   0.366 -0.1740 -0.5617  0.0133
  165SOL     OW  704   2.732   0.876   0.503 -0.0509 -0.4118 -0.2218
  165SOL    HW2  705   2.794   0.821   0.456 -0.6122 -0.0230 -1.4193
  165SOL    HW3  706   2.763   0.965   0.490 -0.2243 -0.2995  0.1183
  165SOL    MW4  707   2.744   0.880   0.495 -0.1478 -0.3456 -0.3349
  166SOL     OW  708   0.123   4.634   0.289 -0.2273 -0.0568  0.4326
  166SOL    HW2  709   0.051   4.572   0.303 -0.3265 -0.1738 -0.5104
  166SOL    HW3  710   0.201   4.578   0.280 -0.4470 -0.1153 -1.2721
  166SOL    MW4  711   0.124   4.618   0.289 -0.2694 -0.0801  0.0832
  167SOL     OW  712   3.514   1.012   0.449 -0.3763  0.4097 -0.0960
  167SOL    HW2  713   3.522   0.973   0.536  0.4532  1.3816  0.2805
  167SOL    HW3  714   3.472   1.097   0.464  0.1977  0.7893 -0.5717
  167SOL    MW4  715   3.510   1.018   0.462 -0.1915  0.5879 -0.1090
  168SOL     OW  716   0.832   1.146   0.898 -0.4231 -0.2542 -0.1611
  168SOL    HW2  717   0.756   1.182   0.852 -1.2561 -0.0014  1.3814
  168SOL    HW3  718   0.906   1.197   0.864 -0.9713 -0.2873 -1.4430
  168SOL    MW4  719   0.832   1.158   0.887 -0.6053 -0.2252 -0.1268
  169SOL     OW  720   0.062   3.222   0.690 -0.1879  0.6485 -0.2481
  169SOL    HW2  721   0.127   3.164   0.730 -1.1885  0.0911  0.5827
  169SOL    HW3  722   0.058   3.297   0.749 -0.6082  0.4865 -0.0688
  169SOL    MW4  723   0.070   3.224   0.703 -0.3754  0.5536 -0.1149
  170SOL     OW  724   4.040   3.998   0.424 -0.3071  0.1979 -0.3482
  170SOL    HW2  725   4.019   3.906   0.435  0.0166 -0.0443 -1.6926
  170SOL    HW3  726   3.965   4.035   0.377 -0.2588  0.5368 -0.1627
  170SOL    MW4  727   4.027   3.991   0.419 -0.2575  0.2108 -0.5011
  171SOL     OW  728   2.055   2.117   0.447  0.0687  0.1975 -0.4412
  171SOL    HW2  729   1.975   2.169   0.455 -0.4422 -0.5151 -0.8519
  171SOL    HW3  730   2.122   2.180   0.421 -0.5810  0.6199 -1.1047
  171SOL    MW4  731   2.054   2.132   0.445 -0.0844  0.1588 -0.5829
  172SOL     OW  732   0.706   2.886   0.493 -0.5586 -0.4806 -0.4135
  172SOL    HW2  733   0.692   2.848   0.580  0.4961 -0.9203 -0.4220
  172SOL    HW3  734   0.634   2.853   0.440 -0.9697 -0.5553  0.1940
  172SOL    MW4  735   0.695   2.877   0.498 -0.4737 -0.5486 -0.3344
  173SOL     OW  736   0.987   1.312   0.499  0.0692  0.5707 -0.1158
  173SOL    HW2  737   1.012   1.393   0.454  1.2751  0.1171 -0.2985
  173SOL    HW3  738   0.898   1.295   0.470  0.3127  1.0747 -1.1840
  173SOL    MW4  739   0.979   1.321   0.489  0.2604  0.5773 -0.2808
  174SOL     OW  740   1.449   1.740   0.690  0.3265  0.0864  0.2966
  174SOL    HW2  741   1.507   1.782   0.627 -1.0116 -0.2685 -1.1931
  174SOL    HW3  742   1.395   1.682   0.638 -0.7224 -0.3188  1.8007
  174SOL    MW4  743   1.450   1.738   0.675  0.0116 -0.0139  0.2984
  175SOL     OW  744   1.616   3.003   0.132 -0.0650  0.0120  0.5110
  175SOL    HW2  745   1.625   3.055   0.212 -0.3170 -0.1249  0.6274
  175SOL    HW3  746   1.687   3.033   0.076  0.8811 -0.7637  1.2699
  175SOL    MW4  747   1.626   3.014   0.135  0.0266 -0.1085  0.6265
  176SOL     OW  748   3.339   0.603   0.277  0.0209  0.3196 -0.3062
  176SOL    HW2  749   3.319   0.696   0.285  0.1393  0.3326 -0.1584
  176SOL    HW3  750   3.382   0.594   0.192 -0.2287  0.3578 -0.4365
  176SOL    MW4  751   3.342   0.614   0.267  0.0038  0.3263 -0.3039
  177SOL     OW  752   0.288   3.198   0.486 -0.3924 -0.2012  0.2346
  177SOL    HW2  753   0.273   3.107   0.462 -1.1414  0.0021 -0.0837
  177SOL    HW3  754   0.201   3.235   0.498 -0.1491  0.8596 -1.1250
  177SOL    MW4  755   0.275   3.191   0.484 -0.4592 -0.0343  0.0133
  178SOL     OW  756   2.267   1.027   0.381  0.3171 -0.1781 -0.0704
  178SOL    HW2  757   2.327   0.964   0.421  0.2115 -0.1624  0.1126
  178SOL    HW3  758   2.244   0.987   0.297  0.2040 -0.4164  0.0705
  178SOL    MW4  759   2.272   1.013   0.375  0.2882 -0.2075 -0.0277
  179SOL     OW  760   2.039   2.296   0.809 -0.3127  0.5251 -0.0147
  179SOL    HW2  761   2.030   2.290   0.904 -1.7307 -0.0717 -0.1786
  179SOL    HW3  762   1.955   2.333   0.780 -0.6984 -1.2755 -1.2277
  179SOL    MW4  763   2.027   2.300   0.818 -0.5510  0.2091 -0.1964
  180SOL     OW  764   2.564   4.230   0.363  0.2182 -0.1920 -0.2580
  180SOL    HW2  765   2.577   4.238   0.269  1.3073  0.2629 -0.0841
  180SOL    HW3  766   2.515   4.309   0.388 -0.2364 -0.4088 -0.4798
  180SOL    MW4  767   2.559   4.242   0.354  0.3018 -0.1602 -0.2643
  181SOL     OW  768   1.637   3.609   0.460  0.3041 -0.1156 -0.8286
  181SOL    HW2  769   1.617   3.607   0.554 -0.1238  0.6278 -0.9000
  181SOL    HW3  770   1.559   3.572   0.418 -0.1807  1.0790 -0.9909
  181SOL    MW4  771   1.624   3.604   0.467  0.1836  0.1402 -0.8595
  182SOL     OW  772   2.655   1.659   0.439 -0.5335  0.5261 -0.3190
  182SOL    HW2  773   2.567   1.691   0.420 -1.1104 -0.1455  1.0982
  182SOL    HW3  774   2.660   1.661   0.535  0.7415 -0.1102 -0.3693
  182SOL    MW4  775   2.644   1.663   0.449 -0.4416  0.3535 -0.1387
  183SOL     OW  776   1.116   2.080   0.745  0.0019  0.0861 -0.2543
  183SOL    HW2  777   1.105   2.092   0.650  0.4717 -1.1581 -0.4824
  183SOL    HW3  778   1.209   2.058   0.755 -0.2974 -0.9053  0.3705
  183SOL    MW4  779   1.127   2.079   0.734  0.0243 -0.2086 -0.2020
  184SOL     OW  780   4.290   2.317   0.845 -0.1370  0.2640 -0.1050
  184SOL    HW2  781   4.368   2.354   0.803 -0.1329  0.1164 -0.2263
  184SOL    HW3  782   4.285   2.227   0.812 -0.1179  0.1377  0.2340
  184SOL    MW4  783   4.300   2.310   0.835 -0.1345  0.2277 -0.0763
  185SOL     OW  784   1.960   0.450   0.824 -0.1984 -0.5267 -0.4159
  185SOL    HW2  785   1.883   0.397   0.843 -1.8983  2.0141 -0.0106
  185SOL    HW3  786   1.947   0.481   0.734 -0.2942  0.9437  0.0935
  185SOL    MW4  787   1.948   0.447   0.814 -0.4355  0.0026 -0.2953
  186SOL     OW  788   1.572   1.505   0.792  0.0284 -0.3327  0.3607
  186SOL    HW2  789   1.571   1.523   0.886 -0.3232 -0.4371  0.3750
  186SOL    HW3  790   1.509   1.567   0.754  1.0959  0.5821  0.0370
  186SOL    MW4  791   1.564   1.516   0.799  0.1229 -0.2258  0.3200
  187SOL     OW  792   1.812   2.927   0.442  0.5354  0.3679  0.4183
  187SOL    HW2  793   1.757   2.902   0.517 -0.1473  2.5138  0.6569
  187SOL    HW3  794   1.779   3.012   0.415  1.8098  0.3223 -1.3542
  187SOL    MW4  795   1.800   2.935   0.449  0.6133  0.6452  0.2159
  188SOL     OW  796   4.355   2.706   0.365 -0.0794  0.2820 -0.3237
  188SOL    HW2  797   4.284   2.642   0.355  0.0555 -0.0172  0.5376
  188SOL    HW3  798   4.319   2.772   0.424  1.0019 -0.8729  1.6852
  188SOL    MW4  799   4.341   2.707   0.372  0.0806  0.0901  0.0550
  189SOL     OW  800   3.423   2.068   0.759  0.0146  0.0611  0.0844
  189SOL    HW2  801   3.360   2.013   0.806  0.1810  0.2352  0.5222
  189SOL    HW3  802   3.507   2.050   0.803  0.1756  0.2146 -0.1583
  189SOL    MW4  803   3.426   2.058   0.771  0.0577  0.1044  0.1101
  190SOL     OW  804   3.631   3.247   0.746 -0.2485 -0.5885  0.6200
  190SOL    HW2  805   3.558   3.185   0.750 -0.1845 -0.6493  0.8366
  190SOL    HW3  806   3.637   3.271   0.654 -1.5234  0.5638  0.8218
  190SOL    MW4  807   3.622   3.242   0.735 -0.4084 -0.4444  0.6752
  191SOL     OW  808   2.400   1.282   0.459  0.4230 -0.0008 -0.2793
  191SOL    HW2  809   2.374   1.202   0.413  0.1906 -0.6537  0.9626
  191SOL    HW3  810   2.319   1.332   0.467 -0.0561 -1.0665  1.7008
  191SOL    MW4  811   2.386   1.278   0.454  0.3290 -0.2276  0.1458
  192SOL     OW  812   2.672   0.846   0.763  0.1964  0.2991 -0.2030
  192SOL    HW2  813   2.669   0.937   0.792  0.3831  0.2157  0.0725
  192SOL    HW3  814   2.695   0.851   0.670 -0.4045  0.5626 -0.3367
  192SOL    MW4  815   2.675   0.858   0.754  0.1419  0.3229 -0.1843
  193SOL     OW  816   3.806   4.149   0.318  0.1051  0.3270 -0.2003
  193SOL    HW2  817   3.756   4.218   0.276  0.3173  0.4382 -0.2668
  193SOL    HW3  818   3.741   4.101   0.371  0.1764  1.2980  0.7808
  193SOL    MW4  819   3.791   4.152   0.320  0.1423  0.4697 -0.0797
  194SOL     OW  820   0.018   2.442   0.745  0.7812 -0.4964  0.3310
  194SOL    HW2  821   0.081   2.381   0.783 -0.1624 -1.7657 -0.1095
  194SOL    HW3  822   0.016   2.420   0.652 -0.7615 -0.8937  0.4442
  194SOL    MW4  823   0.026   2.431   0.738  0.4530 -0.7162  0.2878
  195SOL     OW  824   1.811   3.395   0.430 -0.2303  0.2268 -0.2375
  195SOL    HW2  825   1.803   3.347   0.512 -0.0414 -0.4899 -0.6376
  195SOL    HW3  826   1.745   3.465   0.436 -1.5397 -0.9863 -0.2866
  195SOL    MW4  827   1.801   3.398   0.442 -0.3781 -0.0277 -0.2968
  196SOL     OW  828   2.137   4.355   0.495  0.3001 -0.3544 -0.0696
  196SOL    HW2  829   2.110   4.367   0.586  0.5249  1.3231 -0.2051
  196SOL    HW3  830   2.081   4.415   0.446  1.3657  0.0102 -0.8414
  196SOL    MW4  831   2.126   4.364   0.501  0.4706 -0.0854 -0.1893
  197SOL     OW  832   2.292   2.721   0.795 -0.0681 -0.6300 -0.0572
  197SOL    HW2  833   2.273   2.734   0.888  0.0079 -0.9133 -0.0010
  197SOL    HW3  834   2.296   2.626   0.784 -1.3389 -0.6400 -0.6047
  197SOL    MW4  835   2.290   2.710   0.806 -0.2258 -0.6688 -0.1221
  198SOL     OW  836   0.718   1.212   0.464  0.4014  0.0389 -0.2438
  198SOL    HW2  837   0.757   1.126   0.454  2.5027  0.9300 -0.0250
  198SOL    HW3  838   0.630   1.204   0.426  1.2319 -1.6914 -1.8471
  198SOL    MW4  839   0.711   1.200   0.458  0.7882 -0.0718 -0.4265
  199SOL     OW  840   2.691   0.341   0.867 -0.1498  0.5384 -0.2159
  199SOL    HW2  841   2.776   0.378   0.843  0.3789 -0.9841 -0.7137
  199SOL    HW3  842   2.693   0.336   0.962 -0.8790  3.3025 -0.0028
  199SOL    MW4  843   2.702   0.346   0.876 -0.1764  0.7023 -0.2534
  200SOL     OW  844   2.273   3.997   0.794 -0.0578  0.4482  0.2068
  200SOL    HW2  845   2.247   4.016   0.704  0.6143 -0.0832 -0.1086
  200SOL    HW3  846   2.204   3.940   0.827 -0.1256  0.3556 -0.0915
  200SOL    MW4  847   2.261   3.992   0.786  0.0217  0.3660  0.1258
  201SOL     OW  848   0.936   0.052   0.759 -0.0359  0.2465 -0.1849
  201SOL    HW2  849   0.868   0.020   0.818  0.3180 -1.0758 -0.4657
  201SOL    HW3  850   0.949   0.143   0.784  0.6760 -0.5015  2.3704
  201SOL    MW4  851   0.929   0.060   0.770  0.1047 -0.0266  0.1152
  202SOL     OW  852   2.270   1.910   0.808  0.0766  0.0493 -0.2341
  202SOL    HW2  853   2.258   1.820   0.777  0.3825  0.5158 -1.7248
  202SOL    HW3  854   2.197   1.958   0.769 -0.5681  0.2945  1.2447
  202SOL    MW4  855   2.258   1.904   0.799  0.0319  0.1432 -0.2357
  203SOL     OW  856   0.213   1.312   0.811 -0.0506  0.4281 -0.0604
  203SOL    HW2  857   0.237   1.328   0.719 -0.0330 -1.7731 -0.4786
  203SOL    HW3  858   0.293   1.276   0.850 -1.0515 -1.9527 -0.1118
  203SOL    MW4  859   0.227   1.309   0.804 -0.1804 -0.1764 -0.1224
  204SOL     OW  860   1.007   0.690   0.439  0.3145  0.0316  0.3585
  204SOL    HW2  861   0.931   0.636   0.463 -0.0193 -0.2422 -1.2611
  204SOL    HW3  862   0.969   0.768   0.401  0.8511  0.1414  0.0531
  204SOL    MW4  863   0.992   0.693   0.437  0.3411  0.0099  0.1045
  205SOL     OW  864   4.089   0.884   0.779  0.4711  0.0514  0.4084
  205SOL    HW2  865   4.009   0.834   0.793  0.2005  0.4918  0.4668
  205SOL    HW3  866   4.077   0.964   0.830  0.6926  0.3850 -0.0544
  205SOL    MW4  867   4.077   0.888   0.787  0.4644  0.1535  0.3551
  206SOL     OW  868   1.353   3.438   0.836  0.3340 -0.2839 -0.0183
  206SOL    HW2  869   1.359   3.346   0.810  0.1897 -0.0374 -0.9612
  206SOL    HW3  870   1.423   3.481   0.787 -0.0499  0.2222 -0.1295
  206SOL    MW4  871   1.363   3.432   0.826  0.2643 -0.1845 -0.1574
  207SOL     OW  872   0.102   1.540   0.334  0.1412 -0.0219 -0.1423
  207SOL    HW2  873   0.080   1.604   0.402  0.7912  1.4547 -1.3131
  207SOL    HW3  874   0.196   1.550   0.321  0.0104 -0.2536 -1.3231
  207SOL    MW4  875   0.111   1.550   0.342  0.2097  0.1423 -0.4526
  208SOL     OW  876   2.282   0.015   0.422  0.5287 -0.1881 -0.3929
  208SOL    HW2  877   2.342   0.083   0.393  0.5349 -0.1489 -0.2874
  208SOL    HW3  878   2.336  -0.064   0.429  0.7079  0.0037  0.3666
  208SOL    MW4  879   2.297   0.013   0.419  0.5531 -0.1577 -0.2788
  209SOL     OW  880   3.570   0.168   0.426 -0.1565  0.2838  0.1638
  209SOL    HW2  881   3.530   0.254   0.433  0.7588  0.7319  0.0456
  209SOL    HW3  882   3.664   0.187   0.413  0.2183 -0.7480  1.3122
  209SOL    MW4  883   3.577   0.182   0.425  0.0138  0.2068  0.2997
  210SOL     OW  884   3.865   3.067   0.421 -0.1981  0.1303 -0.5295
  210SOL    HW2  885   3.914   3.070   0.338  0.8899 -0.5844  0.0749
  210SOL    HW3  886   3.880   2.979   0.455  0.3205  0.7941  1.0031
  210SOL    MW4  887   3.873   3.056   0.414  0.0138  0.1237 -0.2476
  211SOL     OW  888   3.361   1.262   0.772 -0.8833 -0.3522  0.3835
  211SOL    HW2  889   3.369   1.265   0.677  1.2029 -1.6243  0.5005
  211SOL    HW3  890   3.361   1.354   0.799  0.5603 -0.0242 -0.7035
  211SOL    MW4  891   3.362   1.275   0.763 -0.4177 -0.4767  0.2555
  212SOL     OW  892   2.167   4.070   0.539 -0.1993  0.0908 -0.4665
  212SOL    HW2  893   2.258   4.051   0.516 -0.2764  0.5626 -1.1572
  212SOL    HW3  894   2.153   4.161   0.513 -0.9274 -0.0374 -0.5460
  212SOL    MW4  895   2.177   4.079   0.533 -0.3057  0.1369 -0.5681
  213SOL     OW  896   4.270   1.788   0.357  0.0865  0.3876  0.0629
  213SOL    HW2  897   4.282   1.719   0.292  2.1001  0.3915  0.3961
  213SOL    HW3  898   4.192   1.761   0.406 -0.0688 -0.8333 -0.8264
  213SOL    MW4  899   4.262   1.775   0.355  0.3314  0.2270 -0.0104
  214SOL     OW  900   2.936   0.451   0.781  0.2180 -0.8253  0.4027
  214SOL    HW2  901   2.947   0.545   0.796 -0.7096 -0.4896 -0.9176
  214SOL    HW3  902   3.025   0.415   0.785  0.5598  0.0732  1.0703
  214SOL    MW4  903   2.949   0.459   0.784  0.1404 -0.6625  0.3166
  215SOL     OW  904   0.672   1.523   0.378  0.0792  0.5502  0.1393
  215SOL    HW2  905   0.751   1.573   0.396  0.2958 -0.0734  0.9590
  215SOL    HW3  906   0.676   1.449   0.438 -0.8333  0.1930 -0.2234
  215SOL    MW4  907   0.683   1.520   0.389 -0.0127  0.4207  0.1996
  216SOL     OW  908   4.136   2.522   0.315  0.1446  0.1592  0.4661
  216SOL    HW2  909   4.078   2.521   0.391 -1.5472 -2.4782 -0.7738
  216SOL    HW3  910   4.178   2.436   0.316 -0.3233 -0.1414 -1.8608
  216SOL    MW4  911   4.134   2.510   0.325 -0.1407 -0.2284 -0.0045
  217SOL     OW  912   0.397   1.806   0.495  0.3599 -0.2734  0.2403
  217SOL    HW2  913   0.397   1.726   0.443 -1.6628 -1.0997  1.4491
  217SOL    HW3  914   0.412   1.776   0.585  1.5969  0.9107  0.4433
  217SOL    MW4  915   0.399   1.792   0.500  0.2562 -0.2261  0.4266
  218SOL     OW  916   3.883   2.074   0.788  0.0199 -0.3632  0.0444
  218SOL    HW2  917   3.909   2.089   0.697  1.8917 -1.6045  0.3355
  218SOL    HW3  918   3.857   2.160   0.820  1.0723  0.4247 -1.1474
  218SOL    MW4  919   3.883   2.087   0.780  0.4058 -0.4230 -0.0744
  219SOL     OW  920   2.287   4.246   0.886 -0.1241  0.1204 -0.2498
  219SOL    HW2  921   2.290   4.158   0.849  0.8703  0.1367 -0.2166
  219SOL    HW3  922   2.351   4.296   0.835 -0.4881  0.7538 -0.0939
  219SOL    MW4  923   2.296   4.241   0.875 -0.0405  0.2065 -0.2249
  220SOL     OW  924   1.252   2.505   0.257 -0.1834  0.3394  0.2575
  220SOL    HW2  925   1.257   2.500   0.161  1.3066 -2.1088  0.4402
  220SOL    HW3  926   1.307   2.580   0.280 -0.7430  1.0884 -0.8056
  220SOL    MW4  927   1.260   2.514   0.247 -0.0607  0.1152  0.1414
  221SOL     OW  928   3.635   4.269   0.841 -0.2151  0.0268 -0.2263
  221SOL    HW2  929   3.557   4.293   0.790 -0.2847 -0.0568 -0.1590
  221SOL    HW3  930   3.707   4.314   0.797 -0.2966  0.0738 -0.3110
  221SOL    MW4  931   3.634   4.278   0.828 -0.2351  0.0219 -0.2285
  222SOL     OW  932   1.578   4.538   0.500  0.1393  0.1288  0.1398
  222SOL    HW2  933   1.661   4.583   0.484 -0.2180  0.5994 -0.4155
  222SOL    HW3  934   1.516   4.608   0.521 -0.2287 -0.1733  0.0807
  222SOL    MW4  935   1.581   4.553   0.500  0.0435  0.1507  0.0587
  223SOL     OW  936   4.425   0.530   0.524 -0.4934 -0.2522 -0.0620
  223SOL    HW2  937   4.368   0.503   0.596  1.9620 -1.1874  1.6194
  223SOL    HW3  938   4.424   0.457   0.463  0.2217 -1.0012  0.8054
  223SOL    MW4  939   4.418   0.517   0.526 -0.0749 -0.4745  0.2743
  224SOL     OW  940   2.143   3.664   0.492 -0.0843 -0.3759  0.2428
  224SOL    HW2  941   2.086   3.739   0.475  0.7450  0.2850  0.3652
  224SOL    HW3  942   2.231   3.696   0.474  0.4573 -0.7808  2.0454
  224SOL    MW4  943   2.147   3.678   0.487  0.0966 -0.3424  0.4967
  225SOL     OW  944   3.145   1.113   0.841  0.3846 -0.0771 -0.5996
  225SOL    HW2  945   3.216   1.172   0.815  0.9919 -0.8575 -0.7274
  225SOL    HW3  946   3.148   1.113   0.937 -0.4584  1.1122 -0.5656
  225SOL    MW4  947   3.155   1.121   0.850  0.3536 -0.0231 -0.6120
  226SOL     OW  948   3.543   4.559   0.380  0.0396 -0.1680 -0.7641
  226SOL    HW2  949   3.527   4.653   0.371  0.0357 -0.1471 -0.5337
  226SOL    HW3  950   3.463   4.524   0.419  0.1173 -0.2393 -0.6698
  226SOL    MW4  951   3.531   4.567   0.384  0.0491 -0.1750 -0.7213
  227SOL     OW  952   0.500   0.596   0.295 -0.2849 -0.5714  0.0344
  227SOL    HW2  953   0.409   0.603   0.322 -0.3826 -0.4791 -0.3244
  227SOL    HW3  954   0.535   0.685   0.302 -0.2880 -0.5621 -0.0695
  227SOL    MW4  955   0.493   0.609   0.299 -0.2982 -0.5580 -0.0267
  228SOL     OW  956   0.392   2.383   0.638 -0.0487 -0.0251  0.0801
  228SOL    HW2  957   0.477   2.340   0.632  0.6232  1.4525 -1.5778
  228SOL    HW3  958   0.335   2.330   0.583  0.0804 -0.3789  0.2855
  228SOL    MW4  959   0.396   2.371   0.630  0.0570  0.1235 -0.1115
  229SOL     OW  960   1.776   0.055   0.762 -0.3796  0.2951  0.0764
  229SOL    HW2  961   1.861   0.020   0.788  0.1627  1.3802 -0.2342
  229SOL    HW3  962   1.713  -0.002   0.805  0.4925 -1.0939 -0.4555
  229SOL    MW4  963   1.779   0.043   0.771 -0.1930  0.2550 -0.0347
  230SOL     OW  964   0.248   2.818   0.724  0.1077 -0.4110 -0.1299
  230SOL    HW2  965   0.166   2.776   0.751 -0.8955  1.0356 -0.8903
  230SOL    HW3  966   0.245   2.904   0.765  1.9924 -0.9053  1.1306
  230SOL    MW4  967   0.237   2.823   0.733  0.2240 -0.2854 -0.0640
  231SOL     OW  968   0.808   2.427   0.894  0.2757  0.3015  0.3653
  231SOL    HW2  969   0.898   2.396   0.880 -0.3539 -1.4398 -0.0670
  231SOL    HW3  970   0.773   2.367   0.959 -0.8549  0.3909 -0.1501
  231SOL    MW4  971   0.815   2.415   0.900  0.0435  0.0839  0.2403
  232SOL     OW  972   1.275   0.778   0.490 -0.4114 -0.0915 -0.0289
  232SOL    HW2  973   1.283   0.869   0.462 -1.7223 -0.4473 -1.5794
  232SOL    HW3  974   1.186   0.753   0.465 -0.7875 -1.1752  2.2484
  232SOL    MW4  975   1.264   0.787   0.483 -0.6338 -0.2813  0.0670
  233SOL     OW  976   3.576   3.996   0.462 -0.5047  0.0825  0.8691
  233SOL    HW2  977   3.575   4.012   0.556 -1.4975 -0.1212  0.9010
  233SOL    HW3  978   3.523   4.066   0.425  0.1630  0.3554  0.4300
  233SOL    MW4  979   3.569   4.007   0.469 -0.5476  0.0916  0.8154
  234SOL     OW  980   3.929   4.437   0.135 -0.3507  0.1158 -0.1938
  234SOL    HW2  981   3.958   4.393   0.215 -0.5106 -0.4856 -0.4567
  234SOL    HW3  982   3.964   4.525   0.141 -2.1675  0.7696  1.5737
  234SOL    MW4  983   3.937   4.443   0.147 -0.6113  0.1230  0.0048
  235SOL     OW  984   3.122   1.870   0.167  0.1315  0.7330  0.1963
  235SOL    HW2  985   3.200   1.820   0.146  0.0558  1.1012 -0.9642
  235SOL    HW3  986   3.069   1.811   0.222  0.6834  0.0730  0.0184
  235SOL    MW4  987   3.125   1.856   0.172  0.1943  0.6945  0.0197
  236SOL     OW  988   1.315   1.135   0.800  0.0142 -0.1705  0.4992
  236SOL    HW2  989   1.312   1.044   0.769  1.0809 -0.0117 -0.0716
  236SOL    HW3  990   1.404   1.164   0.783 -0.4856  1.1925  0.1331
  236SOL    MW4  991   1.326   1.127   0.794  0.0889  0.0304  0.3756
  237SOL     OW  992   3.839   2.294   0.394 -0.6627  0.2085 -0.2087
  237SOL    HW2  993   3.750   2.329   0.409 -0.7835  0.5153 -1.6188
  237SOL    HW3  994   3.858   2.315   0.303  0.8822  0.1601  0.0882
  237SOL    MW4  995   3.830   2.302   0.384 -0.4749  0.2425 -0.3555
  238SOL     OW  996   1.439   1.276   0.449 -0.0129 -0.5288  0.1079
  238SOL    HW2  997   1.407   1.360   0.481 -2.0259 -0.4893 -1.8798
  238SOL    HW3  998   1.528   1.293   0.420 -0.7363  1.1484 -1.1682
  238SOL    MW4  999   1.446   1.289   0.450 -0.3740 -0.3022 -0.3227
  239SOL     OW 1000   1.554   1.233   0.707  0.4186  0.2343 -0.1909
  239SOL    HW2 1001   1.561   1.325   0.731  0.0167  0.4368 -0.8491
  239SOL    HW3 1002   1.536   1.234   0.613 -1.2733 -0.4803  0.1094
  239SOL    MW4 1003   1.553   1.245   0.697  0.1423  0.1667 -0.2381
  240SOL     OW 1004   0.650   3.428   0.378 -0.0291 -0.3129 -0.3933
  240SOL    HW2 1005   0.667   3.334   0.383 -0.1190 -0.2803  0.7005
  240SOL    HW3 1006   0.682   3.454   0.292 -2.2549 -1.7827 -1.7215
  240SOL    MW4 1007   0.657   3.419   0.367 -0.3346 -0.5026 -0.4242
  241SOL     OW 1008   0.055   3.981   0.719  0.2059  0.1029  0.0376
  241SOL    HW2 1009   0.063   4.009   0.628 -0.1226 -2.3038 -0.7676
  241SOL    HW3 1010   0.143   3.950   0.742  0.6725  2.1147  1.0522
  241SOL    MW4 1011   0.068   3.981   0.710  0.2241  0.0513  0.0652
  242SOL     OW 1012   4.304   1.553   0.196 -0.2327  0.2922  0.6979
  242SOL    HW2 1013   4.392   1.516   0.211 -0.1777  0.2399  0.2442
  242SOL    HW3 1014   4.292   1.549   0.102 -1.4040 -1.2701  0.8916
  242SOL    MW4 1015   4.314   1.547   0.186 -0.3800  0.0793  0.6636
  243SOL     OW 1016   0.027   2.428   0.461  0.0500 -0.2497 -0.1791
  243SOL    HW2 1017   0.050   2.512   0.420  1.2132 -0.3120  0.3316
  243SOL    HW3 1018   0.108   2.377   0.458 -0.8700 -1.6865 -1.2473
  243SOL    MW4 1019   0.041   2.433   0.455  0.0821 -0.4478 -0.2527
  244SOL     OW 1020   0.946   2.542   0.339 -0.2015  0.4696  0.0738
  244SOL    HW2 1021   1.021   2.534   0.280  0.4102 -0.1396  0.9294
  244SOL    HW3 1022   0.958   2.626   0.382  0.4206  0.0292  0.7819
  244SOL    MW4 1023   0.957   2.552   0.337 -0.0387  0.3312  0.2801
  245SOL     OW 1024   0.496   0.122   0.778  0.4041 -0.2143  0.1578
  245SOL    HW2 1025   0.408   0.088   0.796  0.8944 -1.4019  0.3294
  245SOL    HW3 1026   0.494   0.144   0.684 -0.2431  0.3002  0.2849
  245SOL    MW4 1027   0.484   0.121   0.768  0.3834 -0.3031  0.1973
  246SOL     OW 1028   0.252   4.650   0.842 -0.2703 -0.7103 -0.3521
  246SOL    HW2 1029   0.185   4.689   0.786 -0.8674 -1.2526 -0.0211
  246SOL    HW3 1030   0.256   4.558   0.815  0.4827 -0.6350 -0.5099
  246SOL    MW4 1031   0.244   4.643   0.831 -0.2497 -0.7715 -0.3293
  247SOL     OW 1032   0.003   0.357   0.829  0.0941  0.2580 -0.6274
  247SOL    HW2 1033   0.081   0.411   0.820 -0.7021  1.7721  1.1359
  247SOL    HW3 1034  -0.011   0.352   0.924 -0.7884 -1.7059 -0.8327
  247SOL    MW4 1035   0.011   0.363   0.841 -0.1268  0.1986 -0.4218
  248SOL     OW 1036   0.453   1.098   0.508  0.1913 -0.2953  0.3353
  248SOL    HW2 1037   0.375   1.052   0.475 -0.0964  0.5316 -0.1583
  248SOL    HW3 1038   0.462   1.068   0.599 -1.4141  0.4773  0.7855
  248SOL    MW4 1039   0.444   1.088   0.516 -0.0585 -0.0843  0.3295
  249SOL     OW 1040   0.250   0.490   0.796  0.2359 -0.0561 -0.1872
  249SOL    HW2 1041   0.333   0.443   0.808  0.4408  0.6425  1.2669
  249SOL    HW3 1042   0.245   0.505   0.702  1.8620  0.0371 -0.2870
  249SOL    MW4 1043   0.261   0.486   0.785  0.4775  0.0483 -0.0085
  250SOL     OW 1044   4.039   1.122   0.907  0.5704 -0.0908  0.0428
  250SOL    HW2 1045   3.984   1.197   0.885  0.0313 -0.5963 -0.3637
  250SOL    HW3 1046   4.044   1.123   1.002 -2.1430 -1.4021  0.2724
  250SOL    MW4 1047   4.032   1.132   0.916  0.1416 -0.3306  0.0194
  251SOL     OW 1048   0.375   2.538   0.391  0.3875 -0.7537 -0.0597
  251SOL    HW2 1049   0.289   2.575   0.411 -1.0159 -3.0644 -1.5481
  251SOL    HW3 1050   0.404   2.500   0.475 -0.0144  0.0757  0.4619
  251SOL    MW4 1051   0.367   2.538   0.405  0.1493 -0.9491 -0.1873
  252SOL     OW 1052   4.245   1.248   0.789 -0.0019  0.1300 -0.3099
  252SOL    HW2 1053   4.178   1.211   0.847 -0.7032 -0.6676 -1.6042
  252SOL    HW3 1054   4.324   1.199   0.812 -0.3665 -0.4709 -0.3004
  252SOL    MW4 1055   4.246   1.236   0.800 -0.1426 -0.0546 -0.4794
  253SOL     OW 1056   3.962   2.541   0.523 -0.0721  0.2382 -0.3419
  253SOL    HW2 1057   3.985   2.522   0.614 -0.6904 -1.7811 -0.5797
  253SOL    HW3 1058   3.890   2.481   0.504 -1.7780  2.5351 -1.3292
  253SOL    MW4 1059   3.955   2.531   0.532 -0.3788  0.2747 -0.5035
  254SOL     OW 1060   0.468   1.937   0.901 -0.1015 -0.3349  0.1223
  254SOL    HW2 1061   0.462   1.922   0.996 -2.4816  0.3683  0.1259
  254SOL    HW3 1062   0.377   1.954   0.874  0.4280 -1.4391 -2.4514
  254SOL    MW4 1063   0.455   1.937   0.910 -0.3456 -0.3878 -0.2168
  255SOL     OW 1064   1.425   1.922   0.266  0.4535  0.2403  0.2649
  255SOL    HW2 1065   1.420   2.016   0.281  0.1200  0.3282 -0.3729
  255SOL    HW3 1066   1.466   1.914   0.180 -0.9613 -0.1549 -0.3916
  255SOL    MW4 1067   1.430   1.933   0.257  0.2228  0.1998  0.0942
  256SOL     OW 1068   2.392   0.540   0.482 -0.2237 -0.0539  0.0568
  256SOL    HW2 1069   2.425   0.629   0.479  0.0581 -0.2046 -2.0006
  256SOL    HW3 1070   2.425   0.505   0.564  1.4155  1.0802 -0.1003
  256SOL    MW4 1071   2.401   0.547   0.492  0.0298  0.0758 -0.2353
  257SOL     OW 1072   0.210   2.286   0.844 -0.0146  0.2311 -0.4699
  257SOL    HW2 1073   0.229   2.284   0.937  1.0699  0.0007 -0.6933
  257SOL    HW3 1074   0.285   2.331   0.805  0.6796 -1.7104 -1.4816
  257SOL    MW4 1075   0.222   2.291   0.851  0.2201 -0.0553 -0.6329
  258SOL     OW 1076   4.279   2.059   0.713  0.5765 -0.0492  0.0446
  258SOL    HW2 1077   4.245   2.052   0.624  2.6406  1.1380 -0.8856
  258SOL    HW3 1078   4.212   2.019   0.768 -0.9008 -0.4617 -2.0019
  258SOL    MW4 1079   4.266   2.053   0.709  0.6537  0.0532 -0.3482
  259SOL     OW 1080   0.028   2.717   0.830  0.0255 -0.0443 -0.0053
  259SOL    HW2 1081   0.041   2.723   0.925  1.3276  1.1028 -0.2308
  259SOL    HW3 1082   0.012   2.624   0.814  2.6199 -0.7308  1.0413
  259SOL    MW4 1083   0.028   2.706   0.840  0.5396  0.0162  0.1031
  260SOL     OW 1084   4.048   3.249   0.479  0.1878  0.0774 -0.5611
  260SOL    HW2 1085   3.978   3.186   0.461  0.3666 -0.1155 -0.5804
  260SOL    HW3 1086   4.056   3.251   0.574  0.1137  0.1470 -0.5560
  260SOL    MW4 1087   4.040   3.241   0.489  0.2012  0.0610 -0.5629
  261SOL     OW 1088   0.232   3.061   0.840 -0.0873 -0.2370  0.1213
  261SOL    HW2 1089   0.236   3.066   0.935 -1.1362  0.9169  0.1254
  261SOL    HW3 1090   0.301   3.119   0.810 -0.3239  0.0844  0.1894
  261SOL    MW4 1091   0.241   3.070   0.848 -0.2569 -0.0422  0.1308
  262SOL     OW 1092   3.643   1.955   0.884 -0.1199 -0.0396  0.2666
  262SOL    HW2 1093   3.620   1.873   0.841 -1.1600  0.4982 -0.2092
  262SOL    HW3 1094   3.734   1.970   0.859  0.0501 -0.9847  0.2739
  262SOL    MW4 1095   3.652   1.946   0.875 -0.2346 -0.0933  0.2048
  263SOL     OW 1096   0.054   3.457   0.826  0.3533 -0.1353  0.1471
  263SOL    HW2 1097  -0.012   3.510   0.782 -0.6056 -0.2191  1.4503
  263SOL    HW3 1098   0.137   3.500   0.805 -0.0860 -0.1792 -1.7051
  263SOL    MW4 1099   0.057   3.470   0.818  0.1689 -0.1523  0.0747
  264SOL     OW 1100   3.612   1.162   0.855 -0.0389 -0.0669  0.0904
  264SOL    HW2 1101   3.533   1.203   0.819  0.7331  0.3143 -1.2286
  264SOL    HW3 1102   3.599   1.161   0.950 -0.7346  1.8829  0.0322
  264SOL    MW4 1103   3.600   1.167   0.863 -0.0288  0.2406 -0.0913
  265SOL     OW 1104   3.642   3.508   0.831 -0.4742 -0.2687 -0.2113
  265SOL    HW2 1105   3.551   3.532   0.815 -0.4843 -0.8268 -0.9717
  265SOL    HW3 1106   3.647   3.415   0.811  0.6885  0.1491 -2.0209
  265SOL    MW4 1107   3.631   3.499   0.827 -0.3223 -0.2868 -0.5504
  266SOL     OW 1108   0.274   3.877   0.847 -0.4275  0.1760 -0.0398
  266SOL    HW2 1109   0.283   3.884   0.942 -1.3051 -0.5916  0.1028
  266SOL    HW3 1110   0.353   3.920   0.812 -0.9419  2.0154  0.9854
  266SOL    MW4 1111   0.285   3.884   0.855 -0.6112  0.3176  0.1143
  267SOL     OW 1112   0.010   4.239   0.827  0.1970  0.3749 -0.2217
  267SOL    HW2 1113   0.029   4.147   0.807  0.1929  0.4870 -0.7410
  267SOL    HW3 1114   0.037   4.249   0.918 -0.1829 -0.2498 -0.0336
  267SOL    MW4 1115   0.016   4.228   0.836  0.1463  0.3076 -0.2654
  268SOL     OW 1116   0.695   3.803   0.247 -0.5743 -0.4194  0.3604
  268SOL    HW2 1117   0.727   3.889   0.273  1.1914 -0.4980 -1.4093
  268SOL    HW3 1118   0.642   3.773   0.321 -0.9254  2.0206  1.1365
  268SOL    MW4 1119   0.692   3.810   0.260 -0.3876 -0.1078  0.2293
  269SOL     OW 1120   0.701   4.633   0.894 -0.4624  0.0611 -0.0318
  269SOL    HW2 1121   0.671   4.633   0.985  0.4843  2.6333  0.3135
  269SOL    HW3 1122   0.641   4.693   0.849  0.0296  0.0067 -0.7765
  269SOL    MW4 1123   0.689   4.641   0.900 -0.2727  0.3929 -0.0845
  270SOL     OW 1124   1.413   3.470   0.378 -0.0930 -0.7191 -0.1119
  270SOL    HW2 1125   1.393   3.455   0.286  0.9689  1.2188 -0.7031
  270SOL    HW3 1126   1.341   3.525   0.410  1.1379  1.2882 -0.6719
  270SOL    MW4 1127   1.401   3.476   0.370  0.2096 -0.1986 -0.2637
  271SOL     OW 1128   0.488   0.374   0.878 -0.1401 -0.1546 -0.3958
  271SOL    HW2 1129   0.495   0.283   0.850  0.6181  0.1167 -1.1400
  271SOL    HW3 1130   0.571   0.413   0.850 -0.5076  0.7832 -0.1801
  271SOL    MW4 1131   0.500   0.367   0.870 -0.0886  0.0049 -0.4655
  272SOL     OW 1132   2.082   2.947   0.445  0.1798 -0.1090 -0.2139
  272SOL    HW2 1133   2.127   2.881   0.393 -0.0193 -0.3931 -0.0345
  272SOL    HW3 1134   1.989   2.925   0.434  0.0748  0.6307 -0.7973
  272SOL    MW4 1135   2.075   2.935   0.437  0.1397 -0.0489 -0.2673
  273SOL     OW 1136   0.665   0.786   0.857 -0.4655 -0.4685 -0.3951
  273SOL    HW2 1137   0.675   0.691   0.855 -1.7704 -0.6135 -0.7097
  273SOL    HW3 1138   0.739   0.819   0.806  0.6478 -1.2531  0.6876
  273SOL    MW4 1139   0.676   0.778   0.850 -0.4908 -0.5912 -0.2937
  274SOL     OW 1140   4.480   1.136   0.870 -0.1333  0.3293 -0.5006
  274SOL    HW2 1141   4.543   1.197   0.832  0.3125 -0.3709 -0.9008
  274SOL    HW3 1142   4.494   1.143   0.965  1.6614 -0.9624 -0.6310
  274SOL    MW4 1143   4.490   1.145   0.877  0.1623  0.0666 -0.5706
  275SOL     OW 1144   0.476   0.918   0.759  0.1720  0.5078  0.4288
  275SOL    HW2 1145   0.541   0.865   0.805  0.3462 -1.0225 -1.5408
  275SOL    HW3 1146   0.393   0.873   0.775 -0.0671  1.1247  0.9470
  275SOL    MW4 1147   0.474   0.905   0.767  0.1634  0.3873  0.2373
  276SOL     OW 1148   2.012   1.547   0.849 -0.6291 -0.2385  0.3538
  276SOL    HW2 1149   2.092   1.575   0.806 -1.1390 -0.7138 -0.9216
  276SOL    HW3 1150   1.996   1.459   0.815 -0.7916 -0.8149  1.8654
  276SOL    MW4 1151   2.020   1.539   0.839 -0.7176 -0.3773  0.3850
  277SOL     OW 1152   0.443   1.690   0.744  0.4183 -0.0793 -0.0133
  277SOL    HW2 1153   0.357   1.658   0.770 -0.1177 -0.3988 -2.0730
  277SOL    HW3 1154   0.456   1.769   0.797 -1.5742  0.5164 -0.3547
  277SOL    MW4 1155   0.434   1.696   0.754  0.0847 -0.0429 -0.3301
  278SOL     OW 1156   0.221   1.569   0.900 -0.1382 -0.0600 -0.2659
  278SOL    HW2 1157   0.137   1.609   0.876  0.1185  0.0297 -1.0275
  278SOL    HW3 1158   0.220   1.483   0.860 -0.4362 -0.6016  0.8782
  278SOL    MW4 1159   0.210   1.563   0.892 -0.1436 -0.1197 -0.2154
  279SOL     OW 1160   0.201   0.497   0.521 -0.2196 -0.0167 -0.5208
  279SOL    HW2 1161   0.106   0.513   0.520 -0.4758 -1.4675 -0.8518
  279SOL    HW3 1162   0.209   0.402   0.514  1.2713  0.0967 -0.4862
  279SOL    MW4 1163   0.189   0.487   0.520 -0.0567 -0.1931 -0.5600
  280SOL     OW 1164   1.161   4.434   0.753 -0.2260  0.0338  0.5375
  280SOL    HW2 1165   1.221   4.366   0.785  0.0697  0.6050  1.1935
  280SOL    HW3 1166   1.074   4.405   0.781 -0.2192 -0.5812 -0.0536
  280SOL    MW4 1167   1.158   4.421   0.761 -0.1861  0.0281  0.5461
  281SOL     OW 1168   0.680   2.322   0.674  0.1153 -0.0605 -0.4298
  281SOL    HW2 1169   0.715   2.367   0.751 -0.1221  0.8085 -0.8219
  281SOL    HW3 1170   0.662   2.233   0.704  1.3613 -0.1252  0.1358
  281SOL    MW4 1171   0.682   2.316   0.688  0.2483  0.0455 -0.4069
  282SOL     OW 1172   0.877   2.698   0.849  0.1563 -0.2153 -0.3797
  282SOL    HW2 1173   0.891   2.723   0.940 -0.9952 -0.0218 -0.2458
  282SOL    HW3 1174   0.877   2.603   0.850  0.5875 -0.2167 -0.2539
  282SOL    MW4 1175   0.879   2.689   0.861  0.0612 -0.1900 -0.3455
  283SOL     OW 1176   0.284   2.914   0.472 -0.0442 -0.0070  0.1778
  283SOL    HW2 1177   0.286   2.868   0.556  1.1743  1.0612  0.7500
  283SOL    HW3 1178   0.370   2.896   0.434 -0.4702 -0.2029 -0.6867
  283SOL    MW4 1179   0.295   2.905   0.478  0.0604  0.1082  0.1393
  284SOL     OW 1180   2.909   0.020   0.837  0.1582  0.3259  1.0467
  284SOL    HW2 1181   2.987   0.048   0.789  0.2417 -0.5224  0.6589
  284SOL    HW3 1182   2.914  -0.076   0.834 -0.6185  0.2746  1.4873
  284SOL    MW4 1183   2.920   0.011   0.830  0.0668  0.2079  1.0538
  285SOL     OW 1184   1.361   4.251   0.813  0.2519 -0.2119  0.1098
  285SOL    HW2 1185   1.443   4.286   0.777  1.1922 -1.6208  0.8391
  285SOL    HW3 1186   1.360   4.159   0.786 -0.0907 -0.7327  1.8228
  285SOL    MW4 1187   1.372   4.244   0.805  0.3308 -0.4663  0.4320
  286SOL     OW 1188   0.496   3.466   0.853 -0.0656  0.1965 -0.1677
  286SOL    HW2 1189   0.495   3.456   0.948  0.2908 -1.2170 -0.3030
  286SOL    HW3 1190   0.584   3.498   0.832 -0.1942  0.6587 -0.0220
  286SOL    MW4 1191   0.507   3.469   0.862 -0.0355  0.0710 -0.1664
  287SOL     OW 1192   0.795   0.940   0.446  0.1425 -0.1347 -0.2265
  287SOL    HW2 1193   0.821   0.925   0.537 -0.5691  1.5260  0.2800
  287SOL    HW3 1194   0.714   0.891   0.435 -0.9226  1.3560  0.7073
  287SOL    MW4 1195   0.788   0.932   0.456 -0.0920  0.2811 -0.0365
  288SOL     OW 1196   2.918   0.689   0.410 -0.1913  0.7999 -0.0523
  288SOL    HW2 1197   2.923   0.660   0.318 -1.1546  1.1456 -0.2196
  288SOL    HW3 1198   2.922   0.608   0.460  2.4913  0.7380 -0.3015
  288SOL    MW4 1199   2.919   0.674   0.404  0.0355  0.8374 -0.1073
  289SOL     OW 1200   4.296   3.859   0.789 -0.2196 -0.2379 -0.0720
  289SOL    HW2 1201   4.283   3.850   0.884 -0.2366 -1.5301 -0.1879
  289SOL    HW3 1202   4.378   3.908   0.781 -1.1094  1.4089  0.6075
  289SOL    MW4 1203   4.305   3.865   0.801 -0.3390 -0.1910  0.0024
  290SOL     OW 1204   0.716   0.518   0.802 -0.2269  0.2018 -0.0776
  290SOL    HW2 1205   0.746   0.534   0.712 -0.0309  1.5336  0.2083
  290SOL    HW3 1206   0.786   0.466   0.842 -0.0494  0.0868 -0.5355
  290SOL    MW4 1207   0.729   0.514   0.795 -0.1777  0.3623 -0.1003
  291SOL     OW 1208   0.443   4.254   0.853  0.0825 -0.0658 -0.3163
  291SOL    HW2 1209   0.437   4.239   0.947 -1.5068  1.1086 -0.2073
  291SOL    HW3 1210   0.522   4.307   0.842  1.1933 -1.5855  0.1549
  291SOL    MW4 1211   0.453   4.259   0.864  0.0194 -0.1121 -0.2398
  292SOL     OW 1212   3.839   0.485   0.728 -0.0961  0.0824 -0.3760
  292SOL    HW2 1213   3.835   0.577   0.751  0.1594 -0.3042  1.2970
  292SOL    HW3 1214   3.841   0.484   0.632  0.0853  1.8074 -0.4062
  292SOL    MW4 1215   3.839   0.497   0.718 -0.0386  0.2590 -0.1593
  293SOL     OW 1216   3.244   4.010   0.251  0.2095  0.1103 -0.1752
  293SOL    HW2 1217   3.308   3.944   0.226  0.8510 -0.2827  2.3969
  293SOL    HW3 1218   3.184   3.965   0.310 -1.9664  0.6948 -1.8663
  293SOL    MW4 1219   3.245   3.996   0.255  0.0072  0.1352 -0.0589
  294SOL     OW 1220   4.305   0.751   0.869 -0.2306 -0.1536  0.3172
  294SOL    HW2 1221   4.231   0.805   0.841 -0.4673 -0.6488 -0.0109
  294SOL    HW3 1222   4.382   0.803   0.848 -0.4532 -0.0184 -0.1693
  294SOL    MW4 1223   4.306   0.765   0.862 -0.2913 -0.2010  0.2098
  295SOL     OW 1224   0.919   0.308   0.875 -0.1777 -0.3570  0.4628
  295SOL    HW2 1225   0.924   0.312   0.970  2.1784 -1.5302  0.4425
  295SOL    HW3 1226   0.996   0.356   0.845 -0.5319 -0.5753 -0.8218
  295SOL    MW4 1227   0.930   0.315   0.883  0.0864 -0.5406  0.2906
  296SOL     OW 1228   0.676   1.527   0.805 -0.1507 -0.3992 -0.3923
  296SOL    HW2 1229   0.605   1.581   0.771  1.3340  0.4610 -2.2396
  296SOL    HW3 1230   0.652   1.511   0.896 -0.5236  3.6786  0.3526
  296SOL    MW4 1231   0.664   1.532   0.812 -0.0041  0.2522 -0.5378
  297SOL     OW 1232   1.093   0.479   0.738 -0.0180  0.2813  0.4479
  297SOL    HW2 1233   1.090   0.470   0.643  0.9818  1.5988  0.2802
  297SOL    HW3 1234   1.184   0.462   0.761 -0.2785 -0.1466  1.1919
  297SOL    MW4 1235   1.105   0.475   0.729  0.0796  0.3987  0.5239
  298SOL     OW 1236   0.468   2.263   0.274 -0.2369  0.0586 -0.0241
  298SOL    HW2 1237   0.558   2.237   0.294 -0.3676 -0.6290 -0.3394
  298SOL    HW3 1238   0.471   2.359   0.272  0.6043  0.0220 -0.5812
  298SOL    MW4 1239   0.480   2.272   0.277 -0.1432 -0.0370 -0.1392
  299SOL     OW 1240   0.863   0.931   0.726 -0.2248  0.0191 -0.1679
  299SOL    HW2 1241   0.863   1.005   0.786 -1.1545  0.5641 -0.8412
  299SOL    HW3 1242   0.935   0.875   0.757  1.3613  1.8482 -0.4629
  299SOL    MW4 1243   0.873   0.933   0.738 -0.1382  0.3323 -0.2956
  300SOL     OW 1244   1.797   1.696   0.786 -0.1982  0.3247  0.3449
  300SOL    HW2 1245   1.721   1.643   0.812 -0.2916 -0.3419 -1.2114
  300SOL    HW3 1246   1.872   1.640   0.803 -0.4009 -1.0529 -2.9312
  300SOL    MW4 1247   1.797   1.682   0.792 -0.2372  0.0550 -0.2927
  301SOL     OW 1248   1.138   1.503   0.786 -0.1133 -0.0418 -0.0956
  301SOL    HW2 1249   1.065   1.564   0.776  0.0055 -0.0072 -0.8131
  301SOL    HW3 1250   1.098   1.417   0.781 -0.1207 -0.0229 -0.3594
  301SOL    MW4 1251   1.123   1.500   0.784 -0.0987 -0.0347 -0.2251
  302SOL     OW 1252   0.438   1.176   0.892 -0.4119 -0.0553  0.3841
  302SOL    HW2 1253   0.454   1.083   0.878 -0.3452 -0.0105  0.1476
  302SOL    HW3 1254   0.492   1.220   0.826 -1.2761  0.1004 -0.2362
  302SOL    MW4 1255   0.447   1.170   0.881 -0.5171 -0.0287  0.2711
  303SOL     OW 1256   2.182   1.487   0.503  0.1724  0.0041  0.4913
  303SOL    HW2 1257   2.092   1.459   0.489  0.2730 -0.1271  0.1157
  303SOL    HW3 1258   2.200   1.547   0.431  0.3671  0.0774  0.6005
  303SOL    MW4 1259   2.173   1.491   0.492  0.2112 -0.0036  0.4562
  304SOL     OW 1260   4.060   1.679   0.497  0.2373  0.2737  0.2391
  304SOL    HW2 1261   4.097   1.592   0.477 -0.2258  0.2171 -0.3607
  304SOL    HW3 1262   4.051   1.679   0.592  0.2840 -0.3259  0.2468
  304SOL    MW4 1263   4.064   1.667   0.507  0.1822  0.1872  0.1610
  305SOL     OW 1264   1.016   3.983   0.492  0.0086  0.0576  0.1198
  305SOL    HW2 1265   0.962   3.948   0.422 -0.3626  0.6309  0.1183
  305SOL    HW3 1266   1.106   3.959   0.467 -0.0874  0.5237 -0.7161
  305SOL    MW4 1267   1.021   3.976   0.479 -0.0530  0.1948  0.0093
  306SOL     OW 1268   3.817   4.622   0.419  0.3352 -0.4906 -0.1645
  306SOL    HW2 1269   3.863   4.538   0.419  1.1064 -0.0711  1.3488
  306SOL    HW3 1270   3.725   4.598   0.409  0.5576 -1.5106  0.1131
  306SOL    MW4 1271   3.811   4.608   0.417  0.4663 -0.5703  0.0718
  307SOL     OW 1272   1.287   2.708   0.789  0.2948 -0.1452  0.2938
  307SOL    HW2 1273   1.288   2.718   0.884  0.8300  0.4220  0.2298
  307SOL    HW3 1274   1.293   2.614   0.775  2.1944 -0.1183  0.7918
  307SOL    MW4 1275   1.288   2.697   0.800  0.6161 -0.0668  0.3510
  308SOL     OW 1276   3.335   2.727   0.488  0.2351  0.8829 -0.0077
  308SOL    HW2 1277   3.287   2.802   0.452 -1.1007  0.8498  1.6200
  308SOL    HW3 1278   3.272   2.654   0.484  1.1922  0.0811 -0.6719
  308SOL    MW4 1279   3.320   2.727   0.483  0.1853  0.7727  0.1194
  309SOL     OW 1280   4.192   2.042   0.452 -0.0930  0.5108 -0.3509
  309SOL    HW2 1281   4.239   2.121   0.426 -1.8287  1.5051 -0.5613
  309SOL    HW3 1282   4.242   1.970   0.414  1.2717  1.5368 -0.5111
  309SOL    MW4 1283   4.205   2.043   0.443 -0.1421  0.7772 -0.3998
  310SOL     OW 1284   0.711   3.843   0.859  0.1211  0.0355 -0.1846
  310SOL    HW2 1285   0.799   3.878   0.844  0.0893 -0.4685 -1.5945
  310SOL    HW3 1286   0.723   3.748   0.857 -0.2915 -0.0376  0.6544
  310SOL    MW4 1287   0.724   3.835   0.857  0.0625 -0.0405 -0.2599
  311SOL     OW 1288   0.171   0.192   0.454  0.2017 -0.0577 -0.1187
  311SOL    HW2 1289   0.153   0.109   0.410 -0.7830 -0.1936  0.5239
  311SOL    HW3 1290   0.143   0.178   0.544 -0.4639  1.1442 -0.1305
  311SOL    MW4 1291   0.165   0.180   0.460 -0.0161  0.0830 -0.0355
  312SOL     OW 1292   1.660   2.849   0.648 -0.0252 -0.0330  0.0540
  312SOL    HW2 1293   1.708   2.803   0.717  0.1602 -1.4625 -1.0045
  312SOL    HW3 1294   1.600   2.783   0.613 -0.6027  0.8772 -0.6888
  312SOL    MW4 1295   1.658   2.834   0.652 -0.0769 -0.1013 -0.1836
  313SOL     OW 1296   1.382   0.087   0.808 -0.6061  0.1415  0.3063
  313SOL    HW2 1297   1.296   0.062   0.842 -1.1994  0.4376 -0.9523
  313SOL    HW3 1298   1.376   0.073   0.714  1.1261 -0.9873  0.3459
  313SOL    MW4 1299   1.370   0.082   0.800 -0.4559  0.0316  0.1454
  314SOL     OW 1300   0.964   3.405   0.874 -0.1875 -0.0234  0.3192
  314SOL    HW2 1301   0.920   3.343   0.816 -0.4240  0.6823 -0.2671
  314SOL    HW3 1302   1.021   3.455   0.817  0.3644 -0.0233  0.8656
  314SOL    MW4 1303   0.965   3.404   0.859 -0.1460  0.0696  0.3138
  315SOL     OW 1304   0.934   4.262   0.849  0.3671 -0.5055 -0.4475
  315SOL    HW2 1305   0.843   4.291   0.844  0.0577 -0.9791  1.9901
  315SOL    HW3 1306   0.934   4.177   0.805 -0.6291 -1.0592  0.5981
  315SOL    MW4 1307   0.922   4.255   0.843  0.1948 -0.6413  0.0120
  316SOL     OW 1308   1.800   2.266   0.492  0.0513 -0.4708  0.3415
  316SOL    HW2 1309   1.750   2.338   0.454 -0.4310 -0.5143  0.8766
  316SOL    HW3 1310   1.735   2.213   0.537  0.6097 -0.3732  1.2846
  316SOL    MW4 1311   1.785   2.269   0.493  0.0615 -0.4637  0.5365
  317SOL     OW 1312   1.728   0.291   0.877 -0.4294  0.2500 -0.4641
  317SOL    HW2 1313   1.738   0.202   0.841 -1.4532  0.2526 -0.7565
  317SOL    HW3 1314   1.663   0.332   0.821 -1.0526  0.7014  0.5763
  317SOL    MW4 1315   1.721   0.284   0.865 -0.6467  0.3099 -0.3654
  318SOL     OW 1316   3.473   2.582   0.300  0.2523 -0.1716 -0.2359
  318SOL    HW2 1317   3.427   2.644   0.356  0.3197 -0.4466  0.1187
  318SOL    HW3 1318   3.513   2.637   0.232 -2.1443 -0.0818 -1.6568
  318SOL    MW4 1319   3.472   2.597   0.298 -0.0548 -0.1962 -0.3766
  319SOL     OW 1320   0.725   4.318   0.530 -0.0501  0.1199  0.1541
  319SOL    HW2 1321   0.809   4.300   0.486 -0.7654  0.2550 -1.2918
  319SOL    HW3 1322   0.669   4.244   0.505 -0.2192 -0.2255  1.5196
  319SOL    MW4 1323   0.729   4.306   0.521 -0.1668  0.0920  0.1435
  320SOL     OW 1324   0.864   3.206   0.716  0.4725 -0.1854  0.3262
  320SOL    HW2 1325   0.800   3.163   0.774  0.8057 -0.5969  0.3867
  320SOL    HW3 1326   0.943   3.152   0.723  1.4580  1.3897  1.7444
  320SOL    MW4 1327   0.866   3.193   0.725  0.6465 -0.0319  0.5213
  321SOL     OW 1328   3.377   0.493   0.731 -0.2577  0.4575  0.0321
  321SOL    HW2 1329   3.464   0.470   0.765  0.6499 -0.0016 -2.4927
  321SOL    HW3 1330   3.369   0.587   0.746 -0.1708  0.1741  2.0528
  321SOL    MW4 1331   3.387   0.502   0.737 -0.1264  0.3595 -0.0345
  322SOL     OW 1332   1.778   0.742   0.500  0.4272 -0.6886 -0.4604
  322SOL    HW2 1333   1.692   0.712   0.470  0.4321  0.6698 -1.8727
  322SOL    HW3 1334   1.834   0.665   0.493 -0.3698 -1.2468 -0.7527
  322SOL    MW4 1335   1.774   0.728   0.495  0.3227 -0.5831 -0.6853
  323SOL     OW 1336   2.449   1.235   0.738  0.1354  0.0938 -0.2083
  323SOL    HW2 1337   2.441   1.239   0.643  0.1932  0.7891 -0.1832
  323SOL    HW3 1338   2.363   1.206   0.769  0.6459 -1.9378 -0.5861
  323SOL    MW4 1339   2.437   1.232   0.730  0.2103 -0.0825 -0.2549
  324SOL     OW 1340   1.809   0.065   0.488 -0.0055 -0.0091  0.0067
  324SOL    HW2 1341   1.803   0.066   0.584  1.6021 -0.2522  0.1226
  324SOL    HW3 1342   1.791   0.155   0.462 -0.5886  0.0282  0.5210
  324SOL    MW4 1343   1.806   0.077   0.497  0.1297 -0.0362  0.0899
  325SOL     OW 1344   4.185   4.562   0.416  0.1685  0.6210  0.2142
  325SOL    HW2 1345   4.266   4.534   0.372 -0.3106  0.0992 -0.3428
  325SOL    HW3 1346   4.143   4.480   0.443 -0.0845  0.8985  0.6596
  325SOL    MW4 1347   4.190   4.547   0.414  0.0725  0.5884  0.1995
  326SOL     OW 1348   0.401   1.545   0.384 -0.0650 -0.3545 -0.5102
  326SOL    HW2 1349   0.497   1.540   0.385 -0.0624 -0.2868 -0.2947
  326SOL    HW3 1350   0.374   1.478   0.446 -0.1920 -1.1088 -1.3840
  326SOL    MW4 1351   0.410   1.536   0.392 -0.0814 -0.4451 -0.5971
  327SOL     OW 1352   0.863   1.946   0.816 -0.4062  0.3115  0.2278
  327SOL    HW2 1353   0.854   1.941   0.912  0.3445 -0.3152  0.2717
  327SOL    HW3 1354   0.948   1.987   0.802 -1.1468  1.7287 -0.1782
  327SOL    MW4 1355   0.873   1.951   0.827 -0.4050  0.4158  0.1799
  328SOL     OW 1356   0.896   2.316   0.478 -0.1536 -0.6918  0.4014
  328SOL    HW2 1357   0.824   2.332   0.538 -0.9981 -0.3570 -0.6742
  328SOL    HW3 1358   0.902   2.396   0.426  0.2919 -1.1307 -0.2344
  328SOL    MW4 1359   0.887   2.329   0.479 -0.2063 -0.7052  0.1756
  329SOL     OW 1360   3.870   4.374   0.696 -0.3829  0.2740  0.5178
  329SOL    HW2 1361   3.935   4.335   0.754  0.0654  0.6478  0.2717
  329SOL    HW3 1362   3.869   4.467   0.719 -0.0529  0.4622 -0.2053
  329SOL    MW4 1363   3.878   4.381   0.707 -0.2801  0.3481  0.3899
  330SOL     OW 1364   0.976   3.553   0.328  0.7281  0.7377 -0.1726
  330SOL    HW2 1365   0.930   3.543   0.245  1.2725  1.2188 -0.5329
  330SOL    HW3 1366   0.910   3.588   0.388 -0.2677 -1.6544  0.1975
  330SOL    MW4 1367   0.962   3.556   0.325  0.6686  0.4857 -0.1713
  331SOL     OW 1368   0.245   2.248   0.448  0.5476 -0.0682  0.3750
  331SOL    HW2 1369   0.307   2.246   0.375 -2.6530  0.9085 -2.4842
  331SOL    HW3 1370   0.232   2.156   0.472  1.6044 -0.4005 -0.3039
  331SOL    MW4 1371   0.251   2.236   0.442  0.2648  0.0169 -0.0918
  332SOL     OW 1372   1.796   2.479   0.706  0.1851 -0.1044 -0.2071
  332SOL    HW2 1373   1.804   2.436   0.621 -0.4265  0.8471 -0.7608
  332SOL    HW3 1374   1.709   2.455   0.737  0.2924 -0.2088  0.0129
  332SOL    MW4 1375   1.785   2.471   0.699  0.1186  0.0076 -0.2511
  333SOL     OW 1376   1.577   3.082   0.806 -0.3983 -0.1623  0.5156
  333SOL    HW2 1377   1.577   2.992   0.773  0.6524 -0.2983  0.8702
  333SOL    HW3 1378   1.594   3.074   0.899 -1.5795  0.3335  0.7826
  333SOL    MW4 1379   1.579   3.069   0.814 -0.4154 -0.1147  0.5976
  334SOL     OW 1380   3.114   2.149   0.279  0.3190 -0.3814 -0.1686
  334SOL    HW2 1381   3.126   2.063   0.239  0.0780 -0.8830  0.8055
  334SOL    HW3 1382   3.202   2.173   0.310  0.9740  1.0334 -2.9508
  334SOL    MW4 1383   3.127   2.140   0.278  0.3736 -0.2608 -0.4072
  335SOL     OW 1384   1.812   3.477   0.800 -0.1462  0.2089 -0.4166
  335SOL    HW2 1385   1.897   3.515   0.778 -0.7597  1.0656 -1.3869
  335SOL    HW3 1386   1.809   3.394   0.752  0.2891  0.0003 -0.0845
  335SOL    MW4 1387   1.822   3.471   0.791 -0.1696  0.2944 -0.5008
  336SOL     OW 1388   2.453   0.814   0.524  0.7138  0.1475 -0.4518
  336SOL    HW2 1389   2.547   0.830   0.523  0.5647  1.1783  1.1267
  336SOL    HW3 1390   2.429   0.811   0.617 -1.0837  1.5282 -0.8322
  336SOL    MW4 1391   2.462   0.815   0.536  0.4573  0.4657 -0.2937
  337SOL     OW 1392   1.096   3.818   0.887  0.1850 -0.2565  0.0209
  337SOL    HW2 1393   1.120   3.730   0.858 -0.7459 -0.4588 -0.1431
  337SOL    HW3 1394   1.101   3.813   0.982  1.1478 -0.1911 -0.0197
  337SOL    MW4 1395   1.100   3.806   0.896  0.1893 -0.2747 -0.0061
  338SOL     OW 1396   2.453   4.029   0.524  0.6223  0.0447  0.4914
  338SOL    HW2 1397   2.474   4.100   0.462  1.4713 -0.8782 -0.2935
  338SOL    HW3 1398   2.535   4.013   0.570  0.1549  0.2788  1.4102
  338SOL    MW4 1399   2.466   4.036   0.522  0.6726 -0.0463  0.5090
  339SOL     OW 1400   1.367   0.043   0.529 -0.5723  0.5054  0.6313
  339SOL    HW2 1401   1.284   0.021   0.486 -0.7155  0.9565  0.6678
  339SOL    HW3 1402   1.383   0.135   0.504  0.8475 -0.1230 -0.8955
  339SOL    MW4 1403   1.358   0.052   0.520 -0.4038  0.4821  0.4347
  340SOL     OW 1404   0.950   1.944   0.318  0.4251 -0.1951 -0.1643
  340SOL    HW2 1405   0.920   1.882   0.383  2.4830 -0.3148  0.7254
  340SOL    HW3 1406   0.879   2.008   0.310 -0.0022 -0.3791  1.9260
  340SOL    MW4 1407   0.937   1.944   0.325  0.6403 -0.2352  0.2289
  341SOL     OW 1408   2.074   4.373   0.775 -0.0501  0.3506 -0.0738
  341SOL    HW2 1409   2.151   4.332   0.815  0.4072  0.5733 -0.7067
  341SOL    HW3 1410   2.005   4.309   0.785  0.3191 -0.0138  0.1590
  341SOL    MW4 1411   2.075   4.359   0.781  0.0589  0.3319 -0.1266
  342SOL     OW 1412   2.253   1.632   0.721  0.1802 -0.9145  0.0534
  342SOL    HW2 1413   2.317   1.581   0.770 -0.1837 -1.7205 -0.3007
  342SOL    HW3 1414   2.231   1.577   0.646 -1.1113 -0.7500  0.3061
  342SOL    MW4 1415   2.259   1.618   0.717 -0.0384 -0.9991  0.0400
  343SOL     OW 1416   0.629   1.271   0.726  0.0965  0.0407  0.1769
  343SOL    HW2 1417   0.653   1.360   0.751 -1.0243  0.6281 -0.8236
  343SOL    HW3 1418   0.662   1.261   0.637 -1.7195  0.2235 -0.5280
  343SOL    MW4 1419   0.636   1.281   0.718 -0.2910  0.1422 -0.0482
  344SOL     OW 1420   1.323   0.354   0.844 -0.0764  0.0783 -0.2197
  344SOL    HW2 1421   1.340   0.265   0.811 -3.1202 -1.0993  1.1602
  344SOL    HW3 1422   1.347   0.349   0.937 -0.5805  0.5934 -0.0616
  344SOL    MW4 1423   1.328   0.341   0.852 -0.5445 -0.0091 -0.0168
  345SOL     OW 1424   4.004   3.044   0.176 -0.0330 -0.1922 -0.3449
  345SOL    HW2 1425   3.996   3.064   0.083 -0.5227 -0.6577 -0.4050
  345SOL    HW3 1426   4.042   2.956   0.178 -0.7918 -0.5185 -0.1148
  345SOL    MW4 1427   4.008   3.035   0.164 -0.1979 -0.2966 -0.3225
  346SOL     OW 1428   3.314   4.397   0.502 -0.0538  0.5388 -0.1699
  346SOL    HW2 1429   3.346   4.330   0.441 -0.4058 -1.7163  2.0349
  346SOL    HW3 1430   3.220   4.404   0.483 -0.3233 -0.7398  0.5722
  346SOL    MW4 1431   3.306   4.389   0.492 -0.1359  0.0725  0.2189
  347SOL     OW 1432   1.891   1.461   0.490 -0.1747  0.1485  0.0301
  347SOL    HW2 1433   1.819   1.410   0.453 -0.5648  1.5299 -1.1645
  347SOL    HW3 1434   1.859   1.551   0.491  1.7127  0.8813 -1.0471
  347SOL    MW4 1435   1.877   1.467   0.485  0.0229  0.4275 -0.2696
  348SOL     OW 1436   1.721   1.300   0.354 -0.3820 -0.0162  0.3232
  348SOL    HW2 1437   1.767   1.317   0.273 -0.5664 -0.6991  0.0686
  348SOL    HW3 1438   1.758   1.217   0.386  0.5159  0.8398  1.5321
  348SOL    MW4 1439   1.732   1.291   0.348 -0.2878  0.0068  0.4491
  349SOL     OW 1440   0.431   3.214   0.730  0.1523  0.7452  0.0634
  349SOL    HW2 1441   0.434   3.305   0.757  1.8240  0.4885  0.8092
  349SOL    HW3 1442   0.393   3.216   0.642  0.6551  2.2040 -0.1262
  349SOL    MW4 1443   0.427   3.226   0.722  0.4392  0.9036  0.1368
  350SOL     OW 1444   1.388   2.016   0.803 -0.1897 -0.3886 -0.2478
  350SOL    HW2 1445   1.387   1.928   0.765 -0.4701 -0.4382 -0.1256
  350SOL    HW3 1446   1.400   2.001   0.897 -0.9109 -0.3273 -0.1426
  350SOL    MW4 1447   1.390   2.002   0.811 -0.3219 -0.3870 -0.2178
  351SOL     OW 1448   1.799   1.960   0.843  0.0922 -0.3309 -0.3817
  351SOL    HW2 1449   1.783   1.867   0.828  0.0983 -0.2987 -0.5890
  351SOL    HW3 1450   1.885   1.976   0.804  0.4575 -0.4158  0.3705
  351SOL    MW4 1451   1.808   1.950   0.836  0.1411 -0.3378 -0.3098
  352SOL     OW 1452   4.439   0.158   0.141 -0.4205 -0.3183 -0.5381
  352SOL    HW2 1453   4.494   0.087   0.173 -0.3902  0.2841  0.8148
  352SOL    HW3 1454   4.494   0.205   0.079  0.1927 -0.4043 -0.0627
  352SOL    MW4 1455   4.454   0.155   0.137 -0.3357 -0.2501 -0.2969
  353SOL     OW 1456   1.611   2.100   0.651 -0.0890  0.0122 -0.2801
  353SOL    HW2 1457   1.663   2.063   0.722 -1.1543  1.6832  1.4144
  353SOL    HW3 1458   1.520   2.084   0.676 -0.4543 -0.2770 -1.7675
  353SOL    MW4 1459   1.606   2.093   0.663 -0.2776  0.1943 -0.2527
  354SOL     OW 1460   0.096   3.809   0.376  0.4422 -0.0757 -0.4420
  354SOL    HW2 1461   0.018   3.758   0.397  0.5643  1.0213  2.9764
  354SOL    HW3 1462   0.167   3.763   0.419  1.3483  0.1563 -1.6710
  354SOL    MW4 1463   0.095   3.796   0.384  0.5778  0.0997 -0.1531
  355SOL     OW 1464   1.977   3.872   0.437 -0.0761 -0.2821 -0.3205
  355SOL    HW2 1465   1.952   3.859   0.345  1.5395 -0.3885 -0.7670
  355SOL    HW3 1466   2.036   3.947   0.435  1.0716 -1.1419  0.4169
  355SOL    MW4 1467   1.982   3.880   0.424  0.2885 -0.4096 -0.2821
  356SOL     OW 1468   1.251   1.053   0.396  0.4375  0.0706 -0.6294
  356SOL    HW2 1469   1.162   1.088   0.391  0.1743 -0.6280 -0.8659
  356SOL    HW3 1470   1.307   1.131   0.401 -0.2410  0.4986  0.6090
  356SOL    MW4 1471   1.247   1.068   0.396  0.3133  0.0349 -0.4973
  357SOL     OW 1472   2.019   3.135   0.828  0.1002 -0.3843  0.2325
  357SOL    HW2 1473   2.100   3.175   0.797 -0.6003  0.6337 -0.2897
  357SOL    HW3 1474   2.029   3.042   0.807  1.0092 -0.2271 -0.0666
  357SOL    MW4 1475   2.031   3.128   0.821  0.1276 -0.2294  0.1242
  358SOL     OW 1476   1.672   3.158   0.341  0.2875  0.4423 -0.3354
  358SOL    HW2 1477   1.726   3.237   0.342  0.6640  0.1984  1.9206
  358SOL    HW3 1478   1.590   3.184   0.382  0.5926 -0.4289  0.8672
  358SOL    MW4 1479   1.669   3.172   0.346  0.3775  0.2952  0.1209
  359SOL     OW 1480   3.027   3.667   0.520 -0.6114 -0.0360  0.1822
  359SOL    HW2 1481   3.113   3.635   0.494 -0.5382 -0.5676  1.0556
  359SOL    HW3 1482   3.030   3.761   0.501  0.2038 -0.0299  0.3108
  359SOL    MW4 1483   3.039   3.675   0.514 -0.4940 -0.1054  0.3145
  360SOL     OW 1484   2.433   3.707   0.440  0.3216 -0.2161  0.0093
  360SOL    HW2 1485   2.459   3.698   0.532  1.9957  0.9651 -0.3335
  360SOL    HW3 1486   2.446   3.799   0.420 -0.3741 -0.3894 -1.3298
  360SOL    MW4 1487   2.438   3.718   0.450  0.4508 -0.0830 -0.2126
  361SOL     OW 1488   2.062   3.837   0.878 -0.3624  0.0235  0.3961
  361SOL    HW2 1489   2.052   3.860   0.970 -0.3128  1.8544 -0.0356
  361SOL    HW3 1490   1.983   3.872   0.836  0.7734  1.3786 -0.6409
  361SOL    MW4 1491   2.050   3.845   0.885 -0.2058  0.4439  0.2024
  362SOL     OW 1492   2.063   3.585   0.761 -0.2957  0.1602  0.2480
  362SOL    HW2 1493   2.071   3.665   0.813 -0.2420  0.3064  0.0145
  362SOL    HW3 1494   2.092   3.610   0.674  0.1433 -0.2237  0.2803
  362SOL    MW4 1495   2.068   3.599   0.757 -0.2306  0.1285  0.2214
  363SOL     OW 1496   1.846   4.229   0.831  0.6152 -0.1980  0.8087
  363SOL    HW2 1497   1.856   4.233   0.926  1.8184 -2.3869  0.7890
  363SOL    HW3 1498   1.766   4.279   0.814  0.8143  0.8951  2.8775
  363SOL    MW4 1499   1.836   4.236   0.842  0.8001 -0.3428  1.0790
  364SOL     OW 1500   2.027   4.576   0.356 -0.2471  0.5353 -0.4587
  364SOL    HW2 1501   2.111   4.621   0.363 -0.6427  1.7829 -2.9644
  364SOL    HW3 1502   1.964   4.639   0.391 -0.4234  0.7225 -1.0886
  364SOL    MW4 1503   2.030   4.591   0.361 -0.3226  0.7248 -0.8724
  365SOL     OW 1504   2.439   4.651   0.867 -0.1043 -0.0221 -0.1144
  365SOL    HW2 1505   2.450   4.641   0.962  0.6462 -0.2620 -0.2228
  365SOL    HW3 1506   2.515   4.702   0.839 -0.6875  0.6561 -0.4905
  365SOL    MW4 1507   2.450   4.657   0.876 -0.0823  0.0362 -0.1783
  366SOL     OW 1508   2.159   0.898   0.738 -0.3615  0.6983  0.1913
  366SOL    HW2 1509   2.100   0.836   0.781  1.9414 -0.2648  2.0952
  366SOL    HW3 1510   2.246   0.860   0.749  0.7698  2.7021 -1.4202
  366SOL    MW4 1511   2.163   0.885   0.745  0.0918  0.8356  0.2299
  367SOL     OW 1512   1.973   0.711   0.878  0.0373 -0.5849 -0.2088
  367SOL    HW2 1513   1.962   0.617   0.864  1.3401 -0.8434  0.4427
  367SOL    HW3 1514   1.888   0.749   0.856 -1.0581 -2.1197  1.3039
  367SOL    MW4 1515   1.960   0.704   0.873  0.0646 -0.8215  0.0767
  368SOL     OW 1516   0.088   1.248   0.412 -0.4691 -0.5271 -0.2386
  368SOL    HW2 1517   0.069   1.332   0.369 -0.3463 -0.1258  0.4808
  368SOL    HW3 1518   0.007   1.227   0.459 -0.0718 -0.1741  0.6135
  368SOL    MW4 1519   0.075   1.256   0.412 -0.4005 -0.4277 -0.0312
  369SOL     OW 1520   2.566   3.448   0.417 -0.0689 -0.1823 -0.0471
  369SOL    HW2 1521   2.614   3.481   0.341  0.6217  0.3946  0.6302
  369SOL    HW3 1522   2.518   3.525   0.449 -0.8379 -0.5695 -0.2547
  369SOL    MW4 1523   2.566   3.463   0.411 -0.0792 -0.1576  0.0148
  370SOL     OW 1524   2.489   2.029   0.482  0.6132 -0.1243 -0.0245
  370SOL    HW2 1525   2.486   2.041   0.577  2.1125  1.2176 -0.1265
  370SOL    HW3 1526   2.452   1.942   0.467  1.5506 -0.8743  1.9050
  370SOL    MW4 1527   2.484   2.019   0.492  0.9348 -0.0460  0.2167
  371SOL     OW 1528   2.203   1.140   0.850  0.0742 -0.2310 -0.0899
  371SOL    HW2 1529   2.210   1.128   0.945  1.1574 -0.2359 -0.1645
  371SOL    HW3 1530   2.198   1.051   0.815 -1.3376 -0.2092  0.0255
  371SOL    MW4 1531   2.203   1.127   0.858  0.0308 -0.2289 -0.0846
  372SOL     OW 1532   2.325   2.514   0.475 -0.0692  0.3436 -0.0246
  372SOL    HW2 1533   2.303   2.430   0.434  0.0463 -0.5699  1.7353
  372SOL    HW3 1534   2.417   2.505   0.499 -0.3537  0.5485  1.1678
  372SOL    MW4 1535   2.334   2.502   0.473 -0.0913  0.2503  0.3649
  373SOL     OW 1536   2.695   2.205   0.380 -0.5190  0.0093 -0.6867
  373SOL    HW2 1537   2.617   2.149   0.383 -0.3285 -0.1446  1.7337
  373SOL    HW3 1538   2.662   2.293   0.400 -0.3573  0.3131 -1.6812
  373SOL    MW4 1539   2.680   2.209   0.383 -0.4725  0.0291 -0.4986
  374SOL     OW 1540   2.479   2.061   0.767  0.2729  0.4210 -0.2113
  374SOL    HW2 1541   2.412   1.998   0.793 -0.0934  1.6203  1.8548
  374SOL    HW3 1542   2.562   2.017   0.783  0.0151  0.2821  0.7272
  374SOL    MW4 1543   2.481   2.047   0.772  0.1905  0.5608  0.1851
  375SOL     OW 1544   2.684   2.713   0.370 -0.3821  0.2644  0.2331
  375SOL    HW2 1545   2.687   2.666   0.287  0.7676 -0.0366  0.4480
  375SOL    HW3 1546   2.768   2.758   0.375 -1.1559  1.7015  0.4055
  375SOL    MW4 1547   2.695   2.713   0.360 -0.3326  0.4141  0.2842
  376SOL     OW 1548   2.241   2.748   0.316 -0.2914 -0.3420 -0.3007
  376SOL    HW2 1549   2.261   2.667   0.364  0.2054 -0.2264 -0.3196
  376SOL    HW3 1550   2.281   2.736   0.230 -1.2440 -0.5786 -0.7176
  376SOL    MW4 1551   2.249   2.736   0.311 -0.3517 -0.3579 -0.3582
  377SOL     OW 1552   2.474   2.325   0.876  0.6701 -0.4733 -0.3413
  377SOL    HW2 1553   2.479   2.238   0.837 -0.8143 -0.0724 -1.4651
  377SOL    HW3 1554   2.401   2.367   0.831  2.4191  1.9449 -0.9958
  377SOL    MW4 1555   2.465   2.319   0.865  0.7050 -0.1011 -0.5760
  378SOL     OW 1556   2.677   1.401   0.401 -0.1933  0.1919 -0.2272
  378SOL    HW2 1557   2.594   1.353   0.410  0.5000 -0.9448  0.2308
  378SOL    HW3 1558   2.653   1.493   0.409 -1.1001 -0.2291  2.1712
  378SOL    MW4 1559   2.663   1.406   0.403 -0.2217 -0.0135  0.1497
  379SOL     OW 1560   2.499   2.850   0.682  0.2922  0.0484  0.2925
  379SOL    HW2 1561   2.485   2.852   0.588 -0.1144  0.9409  0.3704
  379SOL    HW3 1562   2.418   2.813   0.718  0.7377 -0.9870  0.2363
  379SOL    MW4 1563   2.487   2.845   0.675  0.2973  0.0296  0.2954
  380SOL     OW 1564   2.700   2.695   0.799 -0.3724  0.0341  0.3988
  380SOL    HW2 1565   2.701   2.703   0.895 -1.0506  0.2172  0.3914
  380SOL    HW3 1566   2.622   2.744   0.772 -0.5764 -0.6257 -0.1982
  380SOL    MW4 1567   2.690   2.703   0.808 -0.4888 -0.0286  0.3190
  381SOL     OW 1568   2.537   3.090   0.811  0.5154  0.1353 -0.2679
  381SOL    HW2 1569   2.539   3.084   0.907  1.7401 -1.2046 -0.3665
  381SOL    HW3 1570   2.518   3.001   0.782 -0.7291  0.6951 -1.2720
  381SOL    MW4 1571   2.535   3.078   0.820  0.5126  0.0322 -0.4134
  382SOL     OW 1572   2.276   3.197   0.742 -0.0159  0.1223 -0.0907
  382SOL    HW2 1573   2.361   3.165   0.773  0.2919 -0.4247 -1.4507
  382SOL    HW3 1574   2.288   3.208   0.647 -1.4978 -0.0682 -0.3068
  382SOL    MW4 1575   2.289   3.194   0.733 -0.1707  0.0250 -0.2987
  383SOL     OW 1576   2.302   3.461   0.806  0.0261 -0.1284  0.0264
  383SOL    HW2 1577   2.289   3.371   0.776  0.6782 -0.1349 -0.2328
  383SOL    HW3 1578   2.215   3.500   0.802 -0.4653 -1.0690  1.1764
  383SOL    MW4 1579   2.289   3.455   0.802  0.0472 -0.2532  0.1439
  384SOL     OW 1580   3.420   4.201   0.322  0.2970  0.2501  0.1364
  384SOL    HW2 1581   3.349   4.145   0.290  0.8511 -0.5745  0.3626
  384SOL    HW3 1582   3.462   4.234   0.242  0.0177  0.2958  0.0065
  384SOL    MW4 1583   3.416   4.198   0.307  0.3333  0.1473  0.1491
  385SOL     OW 1584   1.357   2.172   0.382  0.2968 -0.0811  0.5907
  385SOL    HW2 1585   1.272   2.146   0.418  0.5460 -0.6584  0.7661
  385SOL    HW3 1586   1.348   2.265   0.365 -0.3805 -0.1425  0.5965
  385SOL    MW4 1587   1.344   2.181   0.384  0.2404 -0.1652  0.6146
  386SOL     OW 1588   1.636   2.502   0.431 -0.2456 -0.4197 -0.1511
  386SOL    HW2 1589   1.661   2.570   0.368 -1.3053 -0.4475 -0.6039
  386SOL    HW3 1590   1.570   2.543   0.486 -0.5327 -0.9266 -0.1127
  386SOL    MW4 1591   1.631   2.516   0.430 -0.4233 -0.4902 -0.2058
  387SOL     OW 1592   2.523   3.871   0.860 -0.3944  0.4491  0.0476
  387SOL    HW2 1593   2.523   3.786   0.817  1.4917  1.1794 -1.4872
  387SOL    HW3 1594   2.443   3.913   0.831 -0.3316 -0.0222 -0.8186
  387SOL    MW4 1595   2.513   3.865   0.851 -0.1371  0.4830 -0.2692
  388SOL     OW 1596   4.069   2.475   0.782  0.0903  0.2011 -0.2825
  388SOL    HW2 1597   4.145   2.421   0.802 -0.1135  0.0897  0.2160
  388SOL    HW3 1598   3.995   2.427   0.819  0.0795  1.4989  1.4544
  388SOL    MW4 1599   4.069   2.462   0.790  0.0620  0.3579  0.0125
  389SOL     OW 1600   0.308   1.325   0.557  0.0783 -0.4529 -0.0650
  389SOL    HW2 1601   0.225   1.302   0.515 -0.0426  0.2670 -0.2255
  389SOL    HW3 1602   0.365   1.250   0.540 -0.3625 -0.7007 -0.4523
  389SOL    MW4 1603   0.304   1.312   0.549  0.0042 -0.3906 -0.1374
  390SOL     OW 1604   1.204   3.638   0.468 -0.3919  0.5068 -0.1285
  390SOL    HW2 1605   1.132   3.609   0.411 -1.3341  0.3971  1.1071
  390SOL    HW3 1606   1.215   3.731   0.448 -1.0251  0.5747 -0.1510
  390SOL    MW4 1607   1.196   3.647   0.458 -0.5999  0.5014  0.0315
  391SOL     OW 1608   2.223   0.357   0.858  0.5764 -0.7420  0.1746
  391SOL    HW2 1609   2.145   0.412   0.849  0.6005 -0.7369 -0.0088
  391SOL    HW3 1610   2.201   0.277   0.809  0.9847 -0.4241 -0.5381
  391SOL    MW4 1611   2.210   0.354   0.850  0.6337 -0.6994  0.0564
  392SOL     OW 1612   4.000   0.056   0.210 -0.1297 -0.0182  0.3703
  392SOL    HW2 1613   4.070   0.059   0.274 -0.9029 -0.0041  1.2270
  392SOL    HW3 1614   3.920   0.046   0.262 -0.7604 -0.0628 -0.5875
  392SOL    MW4 1615   3.998   0.055   0.225 -0.3145 -0.0222  0.3570
  393SOL     OW 1616   3.143   0.867   0.721 -0.4694  0.2197 -0.0484
  393SOL    HW2 1617   3.079   0.808   0.760 -0.9743  0.9701  0.2654
  393SOL    HW3 1618   3.141   0.945   0.776 -0.8018  1.0721 -1.2483
  393SOL    MW4 1619   3.134   0.870   0.733 -0.5798  0.4311 -0.1653
  394SOL     OW 1620   3.376   1.528   0.845 -0.1091  0.2877 -0.1900
  394SOL    HW2 1621   3.375   1.547   0.939 -1.0886 -1.7190  0.2334
  394SOL    HW3 1622   3.309   1.585   0.808 -1.5267 -0.7544  0.7349
  394SOL    MW4 1623   3.367   1.538   0.853 -0.4256 -0.1147 -0.0122
  395SOL     OW 1624   1.411   4.353   0.384  0.2245  0.4129  0.8033
  395SOL    HW2 1625   1.485   4.408   0.409  0.5889 -0.3079  1.3350
  395SOL    HW3 1626   1.437   4.264   0.411 -1.0220  0.2293  1.4466
  395SOL    MW4 1627   1.424   4.348   0.391  0.1080  0.2937  0.9583
  396SOL     OW 1628   1.689   2.738   0.269  0.5420  0.1880 -0.8612
  396SOL    HW2 1629   1.733   2.791   0.336 -1.5000  0.4617  0.2861
  396SOL    HW3 1630   1.680   2.797   0.194 -0.9831  1.2447  0.1265
  396SOL    MW4 1631   1.694   2.753   0.268  0.0714  0.3636 -0.5795
  397SOL     OW 1632   3.081   0.928   0.453  0.0925 -0.1477 -0.2249
  397SOL    HW2 1633   3.030   0.851   0.432  1.3190 -0.6119 -1.5869
  397SOL    HW3 1634   3.095   0.923   0.548 -1.3005 -0.6583 -0.0437
  397SOL    MW4 1635   3.076   0.917   0.463  0.0706 -0.2763 -0.3807
  398SOL     OW 1636   2.945   1.375   0.440 -0.2579 -0.0138  0.2682
  398SOL    HW2 1637   2.851   1.384   0.421 -0.6146 -0.6456  1.6560
  398SOL    HW3 1638   2.963   1.445   0.503  0.1582 -0.0106  0.1420
  398SOL    MW4 1639   2.935   1.386   0.446 -0.2499 -0.0967  0.4347
  399SOL     OW 1640   2.705   1.896   0.826 -0.0963  0.6049  0.4806
  399SOL    HW2 1641   2.791   1.936   0.810  0.5689 -0.8781  0.2675
  399SOL    HW3 1642   2.702   1.884   0.921 -0.0407  0.5918  0.4806
  399SOL    MW4 1643   2.716   1.900   0.836 -0.0012  0.4076  0.4525
  400SOL     OW 1644   1.184   1.765   0.256  0.0465  0.1312  0.5702
  400SOL    HW2 1645   1.112   1.828   0.241 -0.0491 -0.1788 -0.3355
  400SOL    HW3 1646   1.260   1.820   0.276 -0.2948  0.4930  0.8776
  400SOL    MW4 1647   1.184   1.781   0.256 -0.0111  0.1379  0.4912
  401SOL     OW 1648   2.222   0.100   0.711 -0.3204 -0.2109 -0.0945
  401SOL    HW2 1649   2.250   0.120   0.621 -0.3070  0.8921  0.1528
  401SOL    HW3 1650   2.297   0.053   0.749 -0.2641 -0.5466 -0.6127
  401SOL    MW4 1651   2.236   0.097   0.704 -0.3111 -0.1097 -0.1302
  402SOL     OW 1652   2.689   2.433   0.725  0.4448 -0.2075  0.2478
  402SOL    HW2 1653   2.709   2.524   0.748 -1.0173  0.0865  0.3757
  402SOL    HW3 1654   2.620   2.407   0.786 -1.0546 -0.5368 -1.5614
  402SOL    MW4 1655   2.683   2.441   0.736  0.0541 -0.2124  0.0260
  403SOL     OW 1656   2.926   2.827   0.696 -0.6748  0.1741  0.2000
  403SOL    HW2 1657   2.850   2.779   0.730 -0.7723  0.0230 -0.2318
  403SOL    HW3 1658   2.999   2.800   0.752 -0.4923 -1.3645 -0.7605
  403SOL    MW4 1659   2.926   2.817   0.708 -0.6635 -0.0486  0.0163
  404SOL     OW 1660   1.532   0.733   0.853 -0.1365  0.3126  0.3328
  404SOL    HW2 1661   1.455   0.764   0.807 -0.1432 -2.0681 -1.3811
  404SOL    HW3 1662   1.604   0.785   0.818 -0.7763  1.5868  0.9158
  404SOL    MW4 1663   1.532   0.744   0.842 -0.2218  0.1667  0.1836
  405SOL     OW 1664   2.932   3.090   0.813 -0.3366 -0.2871 -0.0590
  405SOL    HW2 1665   2.867   3.146   0.771  2.4137  1.1883 -2.5154
  405SOL    HW3 1666   2.947   3.019   0.751  0.8267 -0.2830  0.1905
  405SOL    MW4 1667   2.926   3.088   0.799  0.1798 -0.0920 -0.3502
  406SOL     OW 1668   2.729   3.263   0.715 -0.5080  0.4628  0.5412
  406SOL    HW2 1669   2.715   3.347   0.758 -0.2150  0.4624  0.6376
  406SOL    HW3 1670   2.658   3.207   0.748 -0.0507  0.3418  1.3418
  406SOL    MW4 1671   2.718   3.266   0.725 -0.4089  0.4468  0.6595
  407SOL     OW 1672   2.733   3.532   0.843 -0.3993  0.3411  0.2740
  407SOL    HW2 1673   2.714   3.530   0.937  0.9598 -0.7709  0.5380
  407SOL    HW3 1674   2.825   3.558   0.837  0.2397 -1.9905 -0.6105
  407SOL    MW4 1675   2.742   3.535   0.854 -0.1357 -0.1135  0.1922
  408SOL     OW 1676   3.527   3.731   0.383  0.3172  0.1097  0.2915
  408SOL    HW2 1677   3.550   3.819   0.411  0.3172 -0.4427  2.1058
  408SOL    HW3 1678   3.608   3.681   0.388  0.3547  0.0406 -0.8956
  408SOL    MW4 1679   3.541   3.736   0.387  0.3221  0.0277  0.3743
  409SOL     OW 1680   2.927   3.914   0.819 -0.2298  0.2363 -0.2113
  409SOL    HW2 1681   2.841   3.945   0.791 -1.4892 -3.0200 -0.0813
  409SOL    HW3 1682   2.924   3.921   0.915 -0.3576  0.1487 -0.2079
  409SOL    MW4 1683   2.915   3.919   0.828 -0.4129 -0.2048 -0.1938
  410SOL     OW 1684   2.922   4.649   0.395  0.2075  0.1815  0.3219
  410SOL    HW2 1685   2.838   4.693   0.395  0.5402  0.8334 -0.8628
  410SOL    HW3 1686   2.987   4.719   0.390  0.7503 -0.3882 -1.0555
  410SOL    MW4 1687   2.920   4.664   0.394  0.3231  0.1926 -0.0162
  411SOL     OW 1688   2.723   4.296   0.825  0.0895 -0.0897 -0.1292
  411SOL    HW2 1689   2.716   4.301   0.920 -0.2815  0.8256 -0.1961
  411SOL    HW3 1690   2.810   4.332   0.805  0.6354 -1.3402 -0.0655
  411SOL    MW4 1691   2.734   4.302   0.835  0.1125 -0.1340 -0.1296
  412SOL     OW 1692   1.140   3.570   0.739  0.1001 -0.0707 -0.2644
  412SOL    HW2 1693   1.159   3.591   0.648 -0.5250 -0.4133 -0.4769
  412SOL    HW3 1694   1.218   3.525   0.771 -0.3593 -1.5230 -1.1402
  412SOL    MW4 1695   1.153   3.567   0.731 -0.0429 -0.3073 -0.4081
  413SOL     OW 1696   3.381   4.644   0.818  0.2711  0.1607  0.4388
  413SOL    HW2 1697   3.377   4.664   0.911  0.7533 -0.7278  0.6506
  413SOL    HW3 1698   3.455   4.694   0.785  1.1011 -0.7814  0.8519
  413SOL    MW4 1699   3.390   4.653   0.826  0.4439 -0.0806  0.5213
  414SOL     OW 1700   2.663   1.119   0.873 -0.1447  0.1738 -0.0942
  414SOL    HW2 1701   2.734   1.172   0.837  0.3115  1.9192  3.1928
  414SOL    HW3 1702   2.583   1.161   0.840  0.2659  0.2809 -0.9866
  414SOL    MW4 1703   2.662   1.132   0.864 -0.0305  0.4183  0.2218
  415SOL     OW 1704   3.188   2.473   0.511  0.2382  0.1475 -0.3685
  415SOL    HW2 1705   3.229   2.392   0.482 -0.2792 -0.4264  0.4664
  415SOL    HW3 1706   3.165   2.456   0.603 -4.4093 -0.6052 -1.5389
  415SOL    MW4 1707   3.190   2.460   0.519 -0.4432 -0.0279 -0.4128
  416SOL     OW 1708   3.145   0.089   0.715  0.1215  0.2423 -0.0921
  416SOL    HW2 1709   3.157   0.174   0.758  0.4710  0.8033 -1.2781
  416SOL    HW3 1710   3.220   0.037   0.743  0.1949  0.5041  0.1985
  416SOL    MW4 1711   3.156   0.093   0.725  0.1774  0.3509 -0.2103
  417SOL     OW 1712   3.378   0.760   0.834  0.2445  0.1566  0.0907
  417SOL    HW2 1713   3.453   0.807   0.798 -0.3450  0.6562 -0.5185
  417SOL    HW3 1714   3.303   0.798   0.788 -0.4275  0.0643  1.1105
  417SOL    MW4 1715   3.378   0.771   0.823  0.0780  0.2104  0.1450
  418SOL     OW 1716   2.593   2.446   0.472 -0.2529 -0.3280  0.0903
  418SOL    HW2 1717   2.626   2.437   0.561 -1.1421 -1.7340  0.2996
  418SOL    HW3 1718   2.630   2.528   0.440 -1.4575  1.1547  2.4138
  418SOL    MW4 1719   2.602   2.456   0.479 -0.5291 -0.3178  0.4245
  419SOL     OW 1720   3.198   1.710   0.441  0.0481 -0.1641  0.5138
  419SOL    HW2 1721   3.246   1.791   0.458 -0.3380  0.2554 -0.3645
  419SOL    HW3 1722   3.107   1.737   0.437  0.0524 -0.3656 -1.3786
  419SOL    MW4 1723   3.193   1.725   0.442 -0.0021 -0.1354  0.1482
  420SOL     OW 1724   3.166   1.665   0.720  0.0225  0.3053 -0.0444
  420SOL    HW2 1725   3.176   1.753   0.757 -2.2492  0.9783 -0.9753
  420SOL    HW3 1726   3.178   1.677   0.626 -0.0858 -0.4062 -0.1484
  420SOL    MW4 1727   3.169   1.678   0.712 -0.2913  0.3004 -0.1809
  421SOL     OW 1728   2.912   1.230   0.760  0.1697  0.2739 -0.0681
  421SOL    HW2 1729   2.988   1.188   0.800 -0.5915 -0.5388  0.5592
  421SOL    HW3 1730   2.910   1.196   0.671  0.4174  0.1249 -0.0170
  421SOL    MW4 1731   2.922   1.220   0.753  0.1020  0.1471  0.0215
  422SOL     OW 1732   4.266   4.181   0.434 -0.1429  0.2173  0.2445
  422SOL    HW2 1733   4.191   4.123   0.445  0.1109 -0.0119  0.7667
  422SOL    HW3 1734   4.262   4.240   0.510  0.4541 -0.0751  0.5020
  422SOL    MW4 1735   4.256   4.181   0.446 -0.0305  0.1488  0.3473
  423SOL     OW 1736   3.180   1.903   0.866  0.1646  0.7588 -0.4988
  423SOL    HW2 1737   3.101   1.937   0.826 -0.1393  0.3977 -0.2069
  423SOL    HW3 1738   3.159   1.897   0.959  0.1670 -0.3650 -0.5717
  423SOL    MW4 1739   3.167   1.907   0.873  0.1249  0.5628 -0.4699
  424SOL     OW 1740   0.151   0.969   0.379  0.2747 -0.0344 -0.0034
  424SOL    HW2 1741   0.138   1.064   0.374  1.0894  0.0878  0.1601
  424SOL    HW3 1742   0.064   0.934   0.397 -0.0299  0.6846 -0.0558
  424SOL    MW4 1743   0.138   0.977   0.381  0.3420  0.0766  0.0113
  425SOL     OW 1744   2.954   2.024   0.770  0.5971  0.1082 -0.2426
  425SOL    HW2 1745   2.961   2.014   0.675  3.8315 -0.3933 -0.0244
  425SOL    HW3 1746   2.939   2.118   0.783 -0.8395  0.0284 -1.2646
  425SOL    MW4 1747   2.953   2.035   0.759  0.8345  0.0317 -0.3487
  426SOL     OW 1748   3.643   4.364   0.192 -0.1151  0.2003 -0.1935
  426SOL    HW2 1749   3.722   4.389   0.145 -0.8107 -0.6250 -1.8386
  426SOL    HW3 1750   3.608   4.447   0.225 -0.5952  1.0538 -2.7237
  426SOL    MW4 1751   3.649   4.378   0.190 -0.2704  0.2041 -0.7444
  427SOL     OW 1752   3.378   2.805   0.740  0.1011  0.1894 -0.0407
  427SOL    HW2 1753   3.379   2.769   0.651 -1.6077  0.5999 -0.2546
  427SOL    HW3 1754   3.455   2.767   0.783 -0.9080 -2.6782 -0.6553
  427SOL    MW4 1755   3.388   2.795   0.734 -0.2573 -0.1347 -0.1500
  428SOL     OW 1756   3.731   3.546   0.434 -0.1389  0.1102 -0.5031
  428SOL    HW2 1757   3.817   3.554   0.393 -0.0072 -0.9791 -0.4717
  428SOL    HW3 1758   3.741   3.585   0.520  0.1758  0.4836 -0.7112
  428SOL    MW4 1759   3.743   3.552   0.440 -0.0803  0.0157 -0.5264
  429SOL     OW 1760   3.146   2.732   0.869  0.0642 -0.1841 -0.0917
  429SOL    HW2 1761   3.221   2.757   0.816 -0.8868 -0.1366 -1.4737
  429SOL    HW3 1762   3.124   2.644   0.838 -0.3525 -0.2552  0.4017
  429SOL    MW4 1763   3.153   2.723   0.858 -0.1161 -0.1872 -0.2089
  430SOL     OW 1764   3.170   3.214   0.751 -0.4216  0.1376 -0.1249
  430SOL    HW2 1765   3.251   3.169   0.776 -0.5844  0.7909  1.6231
  430SOL    HW3 1766   3.101   3.167   0.796 -0.8690  0.4980 -0.4328
  430SOL    MW4 1767   3.172   3.202   0.760 -0.5021  0.2716  0.0651
  431SOL     OW 1768   3.220   3.482   0.875 -0.6963 -0.0204 -0.1566
  431SOL    HW2 1769   3.202   3.401   0.828 -1.3124 -0.0021  0.0304
  431SOL    HW3 1770   3.143   3.537   0.856  0.2321  0.9370 -1.1950
  431SOL    MW4 1771   3.207   3.479   0.866 -0.6552  0.1082 -0.2689
  432SOL     OW 1772   3.403   3.612   0.721 -0.2978 -0.2426 -0.1535
  432SOL    HW2 1773   3.395   3.705   0.742 -0.6637 -0.3266  0.0890
  432SOL    HW3 1774   3.340   3.569   0.780  1.1540 -0.8252  1.0178
  432SOL    MW4 1775   3.393   3.618   0.732 -0.1545 -0.3302  0.0330
  433SOL     OW 1776   3.647   4.007   0.740  0.1994  0.1460  0.1278
  433SOL    HW2 1777   3.723   3.955   0.767 -0.1821  0.0743  1.0750
  433SOL    HW3 1778   3.650   4.084   0.796  0.8577  1.2463 -1.3878
  433SOL    MW4 1779   3.658   4.010   0.751  0.2360  0.2818  0.0528
  434SOL     OW 1780   3.202   4.258   0.874 -0.2829  0.0005 -0.0412
  434SOL    HW2 1781   3.171   4.188   0.815 -0.6657 -0.0684  0.2453
  434SOL    HW3 1782   3.274   4.299   0.825  0.3830 -1.0253  0.0625
  434SOL    MW4 1783   3.208   4.254   0.859 -0.2458 -0.1440  0.0104
  435SOL     OW 1784   2.975   4.418   0.779 -0.1487  0.4055 -0.3119
  435SOL    HW2 1785   3.055   4.384   0.819 -0.7829  0.7961  1.3368
  435SOL    HW3 1786   2.994   4.421   0.686  0.7980 -2.0778 -0.2305
  435SOL    MW4 1787   2.988   4.414   0.772 -0.1075  0.1292 -0.0836
  436SOL     OW 1788   3.402   4.379   0.738  0.0330  0.7462  0.3162
  436SOL    HW2 1789   3.367   4.389   0.649  0.6840  0.1358 -0.0099
  436SOL    HW3 1790   3.409   4.469   0.771 -2.0192  0.8665  0.4619
  436SOL    MW4 1791   3.399   4.392   0.730 -0.1521  0.6809  0.2923
  437SOL     OW 1792   3.841   4.643   0.799 -0.0788  0.2149 -0.2223
  437SOL    HW2 1793   3.915   4.687   0.755  0.4523 -2.7111 -2.3797
  437SOL    HW3 1794   3.764   4.692   0.770  0.7297  1.4332 -0.3737
  437SOL    MW4 1795   3.841   4.655   0.789  0.0978 -0.0105 -0.5270
  438SOL     OW 1796   3.603   0.106   0.710 -0.2441 -0.3391 -0.1035
  438SOL    HW2 1797   3.609   0.195   0.746 -0.6177 -0.6715  0.7850
  438SOL    HW3 1798   3.584   0.119   0.618 -0.5170  0.5037  0.0692
  438SOL    MW4 1799   3.602   0.119   0.703 -0.3295 -0.2718  0.0365
  439SOL     OW 1800   3.181   0.339   0.845  0.0582 -0.1580  0.0583
  439SOL    HW2 1801   3.258   0.386   0.813  0.6199 -0.7346  0.5405
  439SOL    HW3 1802   3.168   0.372   0.934  0.3021 -0.7289  0.3058
  439SOL    MW4 1803   3.190   0.349   0.852  0.1643 -0.3094  0.1547
  440SOL     OW 1804   0.390   4.491   0.314  0.2434  0.2669  0.1679
  440SOL    HW2 1805   0.363   4.403   0.342 -1.1810  0.3057 -1.0429
  440SOL    HW3 1806   0.484   4.494   0.334  0.2313 -1.3923  0.5903
  440SOL    MW4 1807   0.399   4.480   0.320  0.0539  0.0529  0.0639
  441SOL     OW 1808   4.255   0.503   0.749 -0.0670 -0.2421  0.7937
  441SOL    HW2 1809   4.262   0.589   0.790  1.2298  0.4219 -0.7487
  441SOL    HW3 1810   4.328   0.453   0.785 -0.6227 -0.5914  1.4393
  441SOL    MW4 1811   4.266   0.508   0.759  0.0310 -0.2006  0.6754
  442SOL     OW 1812   3.847   0.767   0.807  0.0460  0.1134  0.0060
  442SOL    HW2 1813   3.835   0.762   0.902 -0.6822  0.5207 -0.0591
  442SOL    HW3 1814   3.779   0.827   0.778 -0.8650 -1.3735 -0.9813
  442SOL    MW4 1815   3.836   0.774   0.816 -0.1705 -0.0290 -0.1329
  443SOL     OW 1816   3.630   0.926   0.712 -0.4404 -0.0881  0.0557
  443SOL    HW2 1817   3.618   1.002   0.768 -0.7533 -0.3415  0.3392
  443SOL    HW3 1818   3.682   0.957   0.638 -1.1922  0.5716 -0.2013
  443SOL    MW4 1819   3.635   0.940   0.710 -0.5810 -0.0346  0.0591
  444SOL     OW 1820   3.038   3.946   0.454  0.1118  0.0705 -0.0714
  444SOL    HW2 1821   2.972   4.009   0.427  0.0351 -0.2756 -0.7048
  444SOL    HW3 1822   3.077   3.983   0.533 -0.3924  0.5845 -0.0694
  444SOL    MW4 1823   3.035   3.959   0.461  0.0350  0.0925 -0.1547
  445SOL     OW 1824   3.826   1.589   0.904  0.0452  0.1304  0.0166
  445SOL    HW2 1825   3.835   1.498   0.875 -0.1561  0.7051 -1.9138
  445SOL    HW3 1826   3.735   1.611   0.886  0.1077  0.7443  0.4304
  445SOL    MW4 1827   3.815   1.580   0.898  0.0269  0.2872 -0.1835
  446SOL     OW 1828   3.635   3.279   0.458 -0.2563 -0.0747 -0.2167
  446SOL    HW2 1829   3.639   3.374   0.450 -0.1866 -0.0775 -0.2166
  446SOL    HW3 1830   3.723   3.250   0.437 -0.0495 -0.0778  0.6760
  446SOL    MW4 1831   3.647   3.288   0.454 -0.2196 -0.0756 -0.0989
  447SOL     OW 1832   4.433   4.435   0.358 -0.1114  0.4842  0.5215
  447SOL    HW2 1833   4.387   4.365   0.311  0.5341  1.0694 -1.0184
  447SOL    HW3 1834   4.438   4.404   0.448 -1.3674 -0.6756  0.2126
  447SOL    MW4 1835   4.428   4.422   0.364 -0.1926  0.4082  0.2776
  448SOL     OW 1836   3.829   2.345   0.852  0.2290 -0.1831 -0.0534
  448SOL    HW2 1837   3.812   2.344   0.946 -0.0217 -0.4922 -0.1016
  448SOL    HW3 1838   3.743   2.360   0.812  0.6149  1.8971 -0.1630
  448SOL    MW4 1839   3.815   2.347   0.859  0.2470  0.0508 -0.0743
  449SOL     OW 1840   3.347   2.350   0.827  1.0906 -0.1285 -0.3149
  449SOL    HW2 1841   3.364   2.342   0.921 -1.1452 -0.9418  0.0637
  449SOL    HW3 1842   3.354   2.261   0.793  1.0681  0.0374 -0.7546
  449SOL    MW4 1843   3.350   2.337   0.835  0.7927 -0.2141 -0.3229
  450SOL     OW 1844   3.926   2.067   0.518 -0.2856 -0.0638  0.3350
  450SOL    HW2 1845   3.891   2.139   0.465 -0.1697 -0.5204 -0.3761
  450SOL    HW3 1846   4.019   2.063   0.494 -0.5457 -1.2061 -0.5074
  450SOL    MW4 1847   3.934   2.076   0.508 -0.3045 -0.2749  0.1301
  451SOL     OW 1848   3.617   2.704   0.838 -0.1983 -0.1046 -0.1398
  451SOL    HW2 1849   3.612   2.710   0.933  0.6392 -0.1957 -0.0850
  451SOL    HW3 1850   3.696   2.754   0.815 -0.9411  0.7479 -0.8735
  451SOL    MW4 1851   3.627   2.711   0.847 -0.1857 -0.0045 -0.2294
  452SOL     OW 1852   1.814   1.729   0.510  0.3748  0.2930  0.3588
  452SOL    HW2 1853   1.746   1.794   0.489 -0.6769 -1.2405 -1.0357
  452SOL    HW3 1854   1.800   1.710   0.603 -0.6852  0.4980  0.2542
  452SOL    MW4 1855   1.803   1.735   0.520  0.0962  0.1178  0.1611
  453SOL     OW 1856   4.053   2.732   0.863 -0.0561  0.1065  0.0253
  453SOL    HW2 1857   4.129   2.778   0.828 -0.9337  1.3523 -0.2938
  453SOL    HW3 1858   4.065   2.641   0.837  0.5996  0.5647 -1.2803
  453SOL    MW4 1859   4.065   2.726   0.855 -0.0849  0.3316 -0.1891
  454SOL     OW 1860   2.928   0.409   0.513  0.4742 -0.0410  0.1666
  454SOL    HW2 1861   2.912   0.388   0.604  1.1944  0.2193  0.3537
  454SOL    HW3 1862   2.995   0.347   0.484 -0.4539 -0.7645 -0.4603
  454SOL    MW4 1863   2.935   0.398   0.521  0.4468 -0.1022  0.1086
  455SOL     OW 1864   3.842   3.605   0.690 -0.4252  0.0385 -0.0915
  455SOL    HW2 1865   3.915   3.579   0.746 -0.0850 -0.3705 -0.7158
  455SOL    HW3 1866   3.764   3.577   0.738 -0.2140  1.1277  0.9126
  455SOL    MW4 1867   3.841   3.598   0.704 -0.3524  0.1283 -0.0414
  456SOL     OW 1868   1.520   0.633   0.470  0.0438  0.0522  0.1260
  456SOL    HW2 1869   1.434   0.675   0.466 -0.4748 -1.1781 -2.1297
  456SOL    HW3 1870   1.522   0.593   0.557 -1.4439  0.5366  0.4026
  456SOL    MW4 1871   1.509   0.633   0.481 -0.2209 -0.0462 -0.1351
  457SOL     OW 1872   3.853   3.864   0.851 -0.3079 -0.2721  0.0543
  457SOL    HW2 1873   3.856   3.780   0.805  0.3788 -0.2722  0.1081
  457SOL    HW3 1874   3.928   3.913   0.819 -0.2282  0.0061  0.6510
  457SOL    MW4 1875   3.863   3.859   0.841 -0.2069 -0.2353  0.1401
  458SOL     OW 1876   4.399   0.259   0.386 -0.5816 -0.6632  0.0004
  458SOL    HW2 1877   4.489   0.242   0.415 -0.3317  0.8281  0.1721
  458SOL    HW3 1878   4.395   0.222   0.298  0.5644  0.2601 -0.4561
  458SOL    MW4 1879   4.411   0.252   0.378 -0.3977 -0.3446 -0.0372
  459SOL     OW 1880   4.066   4.254   0.869  0.1867 -0.4438  0.4287
  459SOL    HW2 1881   4.050   4.172   0.823  0.2206 -1.3037  1.9256
  459SOL    HW3 1882   4.133   4.299   0.816 -0.9274 -0.6803 -1.2018
  459SOL    MW4 1883   4.073   4.249   0.856  0.0439 -0.5889  0.4111
  460SOL     OW 1884   4.072   0.121   0.697  0.5764  0.2322  0.0626
  460SOL    HW2 1885   4.062   0.204   0.744 -1.8302  0.5196 -0.8977
  460SOL    HW3 1886   4.072   0.146   0.605 -0.2405 -0.8527 -0.2304
  460SOL    MW4 1887   4.071   0.135   0.691  0.1512  0.1269 -0.1028
  461SOL     OW 1888   4.295   4.613   0.768  0.3566  0.1624  0.0347
  461SOL    HW2 1889   4.303   4.601   0.863 -0.2320 -1.1951 -0.0817
  461SOL    HW3 1890   4.224   4.676   0.758  1.0502  1.0392  0.5217
  461SOL    MW4 1891   4.287   4.620   0.779  0.3710  0.0987  0.0836
  462SOL     OW 1892   4.047   0.346   0.855 -0.0603  0.2949  0.0760
  462SOL    HW2 1893   4.120   0.398   0.822 -0.8299  2.0447  1.0871
  462SOL    HW3 1894   3.969   0.395   0.829 -0.8758 -1.3854 -0.7046
  462SOL    MW4 1895   4.046   0.359   0.847 -0.2694  0.3041  0.1065
  463SOL     OW 1896   4.133   0.168   0.441 -0.2998  0.3156 -0.8485
  463SOL    HW2 1897   4.222   0.200   0.425  0.5347 -0.8448  1.3099
  463SOL    HW3 1898   4.142   0.073   0.446 -1.9463  0.0593 -2.1942
  463SOL    MW4 1899   4.146   0.160   0.440 -0.4072  0.1287 -0.7413
  464SOL     OW 1900   3.598   0.355   0.815 -0.2255 -0.2510  0.1593
  464SOL    HW2 1901   3.675   0.409   0.796  0.6265 -1.8981 -1.2657
  464SOL    HW3 1902   3.600   0.342   0.909 -0.0631  1.6271  0.4321
  464SOL    MW4 1903   3.609   0.360   0.825 -0.0918 -0.2205  0.0073
  465SOL     OW 1904   3.941   0.328   0.311  0.2393  0.2304 -0.2366
  465SOL    HW2 1905   3.941   0.283   0.227 -0.5250 -0.9642  0.3781
  465SOL    HW3 1906   4.009   0.284   0.362 -0.1197  0.1428  0.1742
  465SOL    MW4 1907   3.950   0.316   0.307  0.0911  0.0612 -0.1013
  466SOL     OW 1908   2.058   1.101   0.557 -0.5725 -0.2911  0.3227
  466SOL    HW2 1909   2.076   1.024   0.610 -1.2044 -0.0627  0.8821
  466SOL    HW3 1910   2.126   1.101   0.489  0.1955 -0.6219  1.0879
  466SOL    MW4 1911   2.069   1.091   0.555 -0.5546 -0.3046  0.4975
  467SOL     OW 1912   2.062   1.824   0.418  0.0684  0.4682 -0.1555
  467SOL    HW2 1913   1.980   1.795   0.457  0.0149  0.6715 -0.1133
  467SOL    HW3 1914   2.057   1.920   0.419 -0.7217  0.4794 -2.3184
  467SOL    MW4 1915   2.051   1.833   0.423 -0.0429  0.4965 -0.4354
  468SOL     OW 1916   3.848   1.314   0.833  0.7008  0.3386  0.1557
  468SOL    HW2 1917   3.853   1.308   0.737  0.1512  0.3612  0.1248
  468SOL    HW3 1918   3.765   1.272   0.855  0.3682  1.2047  0.5486
  468SOL    MW4 1919   3.838   1.308   0.823  0.5844  0.4560  0.2034
  469SOL     OW 1920   4.264   1.508   0.858 -0.2756 -0.5228 -0.4105
  469SOL    HW2 1921   4.267   1.503   0.954 -0.9186  1.0241 -0.2970
  469SOL    HW3 1922   4.268   1.417   0.829 -0.2903 -1.0139  1.0944
  469SOL    MW4 1923   4.265   1.495   0.867 -0.3624 -0.3835 -0.1969
  470SOL     OW 1924   1.175   2.420   0.519  0.0456  0.0482  0.0864
  470SOL    HW2 1925   1.205   2.458   0.437  0.2665 -0.6195 -0.1392
  470SOL    HW3 1926   1.082   2.403   0.505  0.5544 -2.1339 -0.8103
  470SOL    MW4 1927   1.166   2.423   0.507  0.1419 -0.3278 -0.0617
  471SOL     OW 1928   0.181   1.963   0.518  0.3614  0.2376 -0.3652
  471SOL    HW2 1929   0.172   1.969   0.613 -1.5449  0.0771 -0.5182
  471SOL    HW3 1930   0.270   1.930   0.505  0.8167  0.7222  1.3405
  471SOL    MW4 1931   0.191   1.959   0.529  0.1700  0.2803 -0.1603
  472SOL     OW 1932   3.569   1.726   0.494  0.1322  0.3210  0.0194
  472SOL    HW2 1933   3.581   1.631   0.493  1.4840  0.4695  0.9754
  472SOL    HW3 1934   3.648   1.761   0.453  0.4275  1.1011  1.2171
  472SOL    MW4 1935   3.581   1.718   0.488  0.3498  0.4435  0.3036
  473SOL     OW 1936   0.001   1.660   0.785  0.5337  0.1394 -0.1865
  473SOL    HW2 1937   0.001   1.686   0.693  1.8448 -0.3349 -0.3375
  473SOL    HW3 1938  -0.083   1.616   0.797 -0.0104  0.9489 -0.9316
  473SOL    MW4 1939  -0.010   1.657   0.774  0.6351  0.1836 -0.3047
  474SOL     OW 1940   1.555   3.823   0.901  0.0843  0.0540  0.0965
  474SOL    HW2 1941   1.638   3.856   0.865 -0.0816  1.4082  0.9096
  474SOL    HW3 1942   1.562   3.839   0.995 -0.7969 -0.5208  0.2654
  474SOL    MW4 1943   1.567   3.829   0.908 -0.0536  0.1566  0.2260
  475SOL     OW 1944   3.844   2.871   0.750  0.1288 -0.3750  0.5321
  475SOL    HW2 1945   3.912   2.835   0.806  0.2986  0.5947  0.9554
  475SOL    HW3 1946   3.832   2.961   0.780 -0.0374  0.0454 -0.7429
  475SOL    MW4 1947   3.851   2.878   0.761  0.1292 -0.1915  0.4197
  476SOL     OW 1948   1.073   1.566   0.410 -0.0839 -0.0963 -0.2562
  476SOL    HW2 1949   1.003   1.621   0.445  0.7648  1.0005 -0.2741
  476SOL    HW3 1950   1.095   1.605   0.326 -0.7526 -1.5689 -1.1455
  476SOL    MW4 1951   1.066   1.578   0.404 -0.0601 -0.1459 -0.3759
  477SOL     OW 1952   4.103   3.260   0.742 -0.0283  0.4105 -0.1703
  477SOL    HW2 1953   4.182   3.219   0.777  0.1837 -0.0145 -1.1361
  477SOL    HW3 1954   4.100   3.347   0.783  0.9485  0.4351 -0.1585
  477SOL    MW4 1955   4.113   3.266   0.752  0.1287  0.3579 -0.2962
  478SOL     OW 1956   4.072   3.522   0.831  0.0732 -0.0235 -0.3916
  478SOL    HW2 1957   4.064   3.508   0.926 -0.9167 -3.1175 -0.8738
  478SOL    HW3 1958   4.160   3.558   0.819  0.4495 -0.2106  1.6340
  478SOL    MW4 1959   4.082   3.525   0.842 -0.0081 -0.4561 -0.1880
  479SOL     OW 1960   0.081   4.070   0.464 -0.0953 -0.0538 -0.1863
  479SOL    HW2 1961   0.087   3.984   0.421 -0.3247 -0.0990 -0.1297
  479SOL    HW3 1962  -0.007   4.100   0.443  0.0090  0.1993 -0.2622
  479SOL    MW4 1963   0.070   4.062   0.455 -0.1118 -0.0262 -0.1889
  480SOL     OW 1964   4.314   3.594   0.730 -0.3995  0.1291  0.2243
  480SOL    HW2 1965   4.276   3.577   0.644 -1.0173  0.6776  0.3919
  480SOL    HW3 1966   4.328   3.689   0.732  3.6210 -0.3066 -0.9582
  480SOL    MW4 1967   4.311   3.604   0.719  0.0496  0.1440  0.0904
  481SOL     OW 1968   0.643   4.578   0.428 -0.0496 -0.2551  0.1792
  481SOL    HW2 1969   0.648   4.493   0.472  0.1903 -1.1755 -1.5694
  481SOL    HW3 1970   0.733   4.600   0.407  0.0137  1.0384  1.6954
  481SOL    MW4 1971   0.655   4.570   0.431 -0.0095 -0.2060  0.1486
  482SOL     OW 1972   4.054   3.998   0.715  0.0529  0.1628 -0.0988
  482SOL    HW2 1973   4.045   4.015   0.621 -1.8622 -1.1081 -0.1791
  482SOL    HW3 1974   4.140   3.958   0.723  0.5831  1.0371 -1.1939
  482SOL    MW4 1975   4.064   3.995   0.703 -0.1297  0.1106 -0.2539
  483SOL     OW 1976   4.266   4.329   0.685 -0.2186 -0.1623  0.0102
  483SOL    HW2 1977   4.269   4.423   0.702  0.1800  0.2268 -2.0820
  483SOL    HW3 1978   4.343   4.294   0.731 -0.0648  0.6030  0.3400
  483SOL    MW4 1979   4.277   4.336   0.693 -0.1459 -0.0100 -0.2223
  484SOL     OW 1980   0.223   4.391   0.740 -0.2433 -0.2845 -0.2577
  484SOL    HW2 1981   0.300   4.349   0.779 -1.1976 -0.8557  1.0280
  484SOL    HW3 1982   0.148   4.345   0.777 -1.2742  1.4939 -0.0648
  484SOL    MW4 1983   0.223   4.379   0.750 -0.5052 -0.1254 -0.0626
  485SOL     OW 1984   0.242   4.636   1.150 -0.5379  0.3422 -0.0182
  485SOL    HW2 1985   0.300   4.707   1.177 -1.2324  1.1312 -0.5590
  485SOL    HW3 1986   0.250   4.634   1.055 -0.3100 -0.4902  0.0186
  485SOL    MW4 1987   0.251   4.645   1.141 -0.5995  0.3362 -0.0848
  486SOL     OW 1988   4.477   0.080   1.218 -0.3548  0.2108  0.1142
  486SOL    HW2 1989   4.414   0.040   1.159 -0.0890  0.3929 -0.2977
  486SOL    HW3 1990   4.562   0.048   1.187 -0.2894 -0.5464  1.0597
  486SOL    MW4 1991   4.480   0.070   1.206 -0.3111  0.1349  0.1847
  487SOL     OW 1992   4.451   0.358   1.108 -0.5142 -0.1793 -0.4417
  487SOL    HW2 1993   4.388   0.407   1.161  1.2428 -0.6953  2.2596
  487SOL    HW3 1994   4.445   0.269   1.143 -0.2591 -0.8396 -2.0616
  487SOL    MW4 1995   4.442   0.352   1.120 -0.2489 -0.3345 -0.2991
  488SOL     OW 1996   0.193   0.518   1.202  0.0253  0.5352 -0.2099
  488SOL    HW2 1997   0.180   0.608   1.172  0.4169  1.0445  1.1185
  488SOL    HW3 1998   0.110   0.474   1.180 -0.4260  1.3903 -0.2493
  488SOL    MW4 1999   0.180   0.524   1.195  0.0174  0.7153 -0.0399
  489SOL     OW 2000   0.213   0.795   1.123 -0.1578 -0.1193 -0.1308
  489SOL    HW2 2001   0.284   0.838   1.170  0.0752 -0.1062 -0.4972
  489SOL    HW3 2002   0.134   0.841   1.152  0.0869  0.5426 -0.5007
  489SOL    MW4 2003   0.212   0.807   1.133 -0.0948 -0.0302 -0.2279
  490SOL     OW 2004   4.490   0.886   1.261  0.0118 -0.4302 -0.0956
  490SOL    HW2 2005   4.476   0.888   1.356  0.3541 -0.9196 -0.0334
  490SOL    HW3 2006   4.414   0.838   1.228  0.0884 -0.5955 -0.0327
  490SOL    MW4 2007   4.478   0.880   1.269  0.0670 -0.5166 -0.0790
  491SOL     OW 2008   0.032   1.138   1.162  0.4154 -0.3382 -0.0663
  491SOL    HW2 2009  -0.040   1.193   1.194  0.5710 -0.0252 -0.2480
  491SOL    HW3 2010   0.022   1.056   1.210  0.7463  0.1806  0.9225
  491SOL    MW4 2011   0.021   1.135   1.173  0.4797 -0.2285  0.0403
  492SOL     OW 2012   0.226   1.296   1.277  0.0603  0.6485  0.2598
  492SOL    HW2 2013   0.310   1.270   1.240 -0.1881 -1.2082  0.9680
  492SOL    HW3 2014   0.162   1.243   1.231 -0.6488  1.3877  0.3847
  492SOL    MW4 2015   0.229   1.286   1.266 -0.0660  0.5010  0.3698
  493SOL     OW 2016   0.212   1.552   1.184 -0.2105  0.0241 -0.1649
  493SOL    HW2 2017   0.211   1.461   1.214 -1.8106  0.1894  0.3412
  493SOL    HW3 2018   0.207   1.547   1.089  0.5697 -0.4318 -0.1813
  493SOL    MW4 2019   0.211   1.540   1.175 -0.3187 -0.0143 -0.1004
  494SOL     OW 2020   4.476   1.676   1.256 -0.4707  0.0042 -0.0033
  494SOL    HW2 2021   4.481   1.765   1.220 -1.5603 -0.7630 -2.1487
  494SOL    HW3 2022   4.558   1.635   1.230  0.2391  0.5102  1.3962
  494SOL    MW4 2023   4.488   1.682   1.248 -0.5208 -0.0303 -0.1017
  495SOL     OW 2024   4.451   1.933   1.166 -0.3417  0.2630  0.4488
  495SOL    HW2 2025   4.371   1.971   1.202 -0.7234  0.0140 -0.1304
  495SOL    HW3 2026   4.442   1.942   1.071 -0.0653 -0.5278  0.3405
  495SOL    MW4 2027   4.439   1.939   1.158 -0.3552  0.1258  0.3581
  496SOL     OW 2028   0.198   2.036   1.246  0.3896  0.0813 -0.5810
  496SOL    HW2 2029   0.193   2.122   1.206 -0.4058 -0.3740 -1.4722
  496SOL    HW3 2030   0.118   1.992   1.219  0.1308 -0.4599  0.9904
  496SOL    MW4 2031   0.187   2.041   1.237  0.2505 -0.0503 -0.4913
  497SOL     OW 2032   0.218   2.282   1.112 -0.2108  0.1027  0.6958
  497SOL    HW2 2033   0.300   2.314   1.151  0.9537 -0.0826 -1.5358
  497SOL    HW3 2034   0.149   2.329   1.160  1.2129  0.7197  2.1919
  497SOL    MW4 2035   0.220   2.293   1.124  0.1307  0.1595  0.5987
  498SOL     OW 2036   0.017   2.434   1.228  0.2616  0.3365 -0.0059
  498SOL    HW2 2037   0.015   2.440   1.323  0.0533  0.3513 -0.0102
  498SOL    HW3 2038  -0.064   2.388   1.205  0.6629 -0.3179 -0.1308
  498SOL    MW4 2039   0.006   2.429   1.237  0.2871  0.2520 -0.0229
  499SOL     OW 2040   0.023   2.709   1.131 -0.1319 -0.1959 -0.0024
  499SOL    HW2 2041  -0.052   2.760   1.163  0.5779  0.7478  0.1547
  499SOL    HW3 2042   0.008   2.621   1.167 -1.6015 -0.2392 -0.6642
  499SOL    MW4 2043   0.011   2.704   1.140 -0.2323 -0.0770 -0.0690
  500SOL     OW 2044   0.276   2.793   1.207 -0.0874 -0.1433 -0.2288
  500SOL    HW2 2045   0.266   2.788   1.302 -1.2427  1.7482 -0.2296
  500SOL    HW3 2046   0.189   2.774   1.173  0.1502 -0.0619 -0.8862
  500SOL    MW4 2047   0.263   2.789   1.215 -0.2085  0.1171 -0.3158
  501SOL     OW 2048   0.262   3.053   1.121  0.6031 -0.3279  0.0395
  501SOL    HW2 2049   0.330   3.106   1.164  0.2318  0.1936 -0.0210
  501SOL    HW3 2050   0.269   2.967   1.163  0.4776  0.0798  0.8942
  501SOL    MW4 2051   0.272   3.048   1.132  0.5376 -0.2053  0.1442
  502SOL     OW 2052   0.071   3.235   1.227  0.0845  0.0219 -0.2516
  502SOL    HW2 2053  -0.005   3.180   1.210 -0.0230  0.0471  0.1574
  502SOL    HW3 2054   0.143   3.193   1.178 -0.1992  0.0246 -0.6745
  502SOL    MW4 2055   0.071   3.222   1.218  0.0328  0.0255 -0.2533
  503SOL     OW 2056   0.007   3.486   1.104 -0.1053 -0.5032  0.0256
  503SOL    HW2 2057   0.030   3.397   1.132  0.8641 -0.2265  0.1143
  503SOL    HW3 2058   0.018   3.484   1.009  2.4354  0.2314  0.2711
  503SOL    MW4 2059   0.011   3.474   1.095  0.3578 -0.3698  0.0696
  504SOL     OW 2060   0.236   3.598   1.213 -0.0013 -0.0144  0.7528
  504SOL    HW2 2061   0.227   3.595   1.308  0.7500 -0.2553  0.8203
  504SOL    HW3 2062   0.150   3.572   1.179 -0.2526  0.0268  1.3640
  504SOL    MW4 2063   0.224   3.594   1.221  0.0647 -0.0405  0.8423
  505SOL     OW 2064   0.267   3.851   1.126  0.6558 -0.1272  0.2185
  505SOL    HW2 2065   0.185   3.900   1.139 -0.0057 -0.9437 -0.8304
  505SOL    HW3 2066   0.254   3.770   1.175  0.3632 -0.7747 -0.9217
  505SOL    MW4 2067   0.254   3.847   1.134  0.5299 -0.3202 -0.0703
  506SOL     OW 2068   0.035   3.996   1.189 -0.0924  0.3674 -0.0362
  506SOL    HW2 2069   0.022   4.010   1.283 -0.0309 -1.4289  0.2572
  506SOL    HW3 2070  -0.045   3.950   1.160  0.0455  0.5869 -0.7832
  506SOL    MW4 2071   0.023   3.991   1.197 -0.0662  0.1593 -0.0958
  507SOL     OW 2072   0.064   4.271   1.092 -0.0605  0.1580 -0.0189
  507SOL    HW2 2073   0.128   4.318   1.145  0.1759 -0.3954  0.1820
  507SOL    HW3 2074   0.060   4.183   1.129 -0.3737 -0.0403 -0.5063
  507SOL    MW4 2075   0.072   4.266   1.104 -0.0706  0.0591 -0.0567
  508SOL     OW 2076   0.255   4.392   1.258  0.0343 -0.0088 -0.0166
  508SOL    HW2 2077   0.288   4.378   1.347  0.3853 -0.5585 -0.2339
  508SOL    HW3 2078   0.255   4.487   1.247  1.4622 -0.0043  0.0120
  508SOL    MW4 2079   0.259   4.402   1.269  0.2690 -0.0806 -0.0415
  509SOL     OW 2080   0.626   0.014   1.154  0.0344 -0.1111 -0.2473
  509SOL    HW2 2081   0.706   0.061   1.177  0.8452 -1.7687  0.3670
  509SOL    HW3 2082   0.639  -0.075   1.187 -0.9179 -1.1550 -2.5891
  509SOL    MW4 2083   0.638   0.009   1.162  0.0158 -0.4678 -0.4752
  510SOL     OW 2084   0.401   0.163   1.251 -0.1744  0.5466 -0.7490
  510SOL    HW2 2085   0.408   0.256   1.231  0.6572  0.9319  1.2163
  510SOL    HW3 2086   0.482   0.125   1.218  1.3912  1.2515  2.1530
  510SOL    MW4 2087   0.413   0.170   1.244  0.1419  0.6904 -0.1068
  511SOL     OW 2088   0.471   0.426   1.155  0.4576 -0.4451 -0.1980
  511SOL    HW2 2089   0.386   0.470   1.157  0.6397 -0.1601  1.2483
  511SOL    HW3 2090   0.476   0.390   1.066 -1.0670 -0.2663 -0.3822
  511SOL    MW4 2091   0.460   0.427   1.143  0.2805 -0.3839 -0.0315
  512SOL     OW 2092   0.691   0.539   1.261  0.2974  0.3774 -0.5223
  512SOL    HW2 2093   0.695   0.625   1.220 -0.3261  0.8364  0.3663
  512SOL    HW3 2094   0.610   0.500   1.227  0.3757  0.2914 -0.6135
  512SOL    MW4 2095   0.681   0.545   1.251  0.2254  0.4266 -0.4171
  513SOL     OW 2096   0.693   0.788   1.130 -0.1764 -0.1860  0.0085
  513SOL    HW2 2097   0.621   0.848   1.152 -0.5126 -0.1893 -1.0862
  513SOL    HW3 2098   0.689   0.779   1.035  1.3050 -0.1493 -0.0625
  513SOL    MW4 2099   0.683   0.795   1.121 -0.0253 -0.1816 -0.1454
  514SOL     OW 2100   0.462   0.921   1.215  0.2734 -0.3773  0.3374
  514SOL    HW2 2101   0.460   0.903   1.309 -0.5449  0.4748  0.4990
  514SOL    HW3 2102   0.458   1.017   1.209 -0.3949 -0.4550 -0.5788
  514SOL    MW4 2103   0.461   0.932   1.227  0.0773 -0.2751  0.2379
  515SOL     OW 2104   0.462   1.192   1.161 -0.1010  0.0055  0.3668
  515SOL    HW2 2105   0.542   1.225   1.203  0.7092 -0.8512 -0.4762
  515SOL    HW3 2106   0.478   1.202   1.068 -0.4568 -1.3303  0.1523
  515SOL    MW4 2107   0.475   1.198   1.154 -0.0410 -0.2838  0.2273
  516SOL     OW 2108   0.684   1.302   1.295  0.4024  0.3306 -0.0744
  516SOL    HW2 2109   0.751   1.248   1.254 -0.3465 -0.9008  0.3098
  516SOL    HW3 2110   0.682   1.382   1.242  1.5674  0.0287 -0.5919
  516SOL    MW4 2111   0.693   1.306   1.283  0.4573  0.1284 -0.0919
  517SOL     OW 2112   0.664   1.505   1.107  0.3592 -0.0264 -0.2895
  517SOL    HW2 2113   0.738   1.564   1.126 -0.8230  0.6142  2.5608
  517SOL    HW3 2114   0.587   1.554   1.136 -0.8590 -2.0733 -0.0112
  517SOL    MW4 2115   0.664   1.519   1.113  0.0425 -0.2118  0.1231
  518SOL     OW 2116   0.472   1.661   1.233  0.2217 -0.3919  0.1843
  518SOL    HW2 2117   0.459   1.674   1.327 -0.2692  0.2695  0.0313
  518SOL    HW3 2118   0.389   1.623   1.203 -0.4601  1.4834 -0.3615
  518SOL    MW4 2119   0.459   1.658   1.242  0.0670 -0.0572  0.0921
  519SOL     OW 2120   0.446   1.916   1.162 -0.2709  0.0171  0.0774
  519SOL    HW2 2121   0.434   1.824   1.188 -2.3800 -0.0531 -1.0004
  519SOL    HW3 2122   0.360   1.956   1.175  0.3458  1.5699 -0.5128
  519SOL    MW4 2123   0.433   1.909   1.167 -0.4678  0.2126 -0.1426
  520SOL     OW 2124   0.692   2.034   1.228 -0.0679 -0.2409 -0.2773
  520SOL    HW2 2125   0.696   2.043   1.323 -0.1989 -2.4359 -0.0180
  520SOL    HW3 2126   0.611   1.984   1.213 -0.8940  1.4422 -1.6785
  520SOL    MW4 2127   0.682   2.028   1.238 -0.1943 -0.3085 -0.4280
  521SOL     OW 2128   0.651   2.294   1.130  0.1461 -0.2236  0.1579
  521SOL    HW2 2129   0.572   2.325   1.174  0.6365  0.9174  0.2540
  521SOL    HW3 2130   0.670   2.210   1.171 -0.0963  0.2616  1.2944
  521SOL    MW4 2131   0.643   2.287   1.141  0.1789 -0.0091  0.3204
  522SOL     OW 2132   0.429   2.415   1.251 -0.1074 -0.1736  0.1616
  522SOL    HW2 2133   0.437   2.422   1.346  0.0536  0.1856  0.1218
  522SOL    HW3 2134   0.445   2.503   1.219  1.6804 -0.6617 -0.3311
  522SOL    MW4 2135   0.432   2.427   1.260  0.1497 -0.1905  0.0913
  523SOL     OW 2136   0.494   2.653   1.117  0.2062  0.9874  0.0778
  523SOL    HW2 2137   0.412   2.700   1.135 -0.3725  0.1075 -0.2658
  523SOL    HW3 2138   0.486   2.625   1.026  0.7002  0.5121  0.1839
  523SOL    MW4 2139   0.482   2.656   1.108  0.1950  0.8085  0.0464
  524SOL     OW 2140   0.655   2.841   1.243  0.1310  0.3017 -0.0798
  524SOL    HW2 2141   0.638   2.919   1.190 -2.2027 -0.0144  0.1361
  524SOL    HW3 2142   0.606   2.771   1.199  1.5851 -0.8928  0.1493
  524SOL    MW4 2143   0.646   2.842   1.230  0.0150  0.1023 -0.0211
  525SOL     OW 2144   0.657   3.078   1.120  0.0040 -0.0112  0.1629
  525SOL    HW2 2145   0.745   3.110   1.140  0.5996 -0.1930 -2.0568
  525SOL    HW3 2146   0.651   3.083   1.025 -2.0108 -1.0062  0.2206
  525SOL    MW4 2147   0.668   3.083   1.111 -0.1832 -0.1667 -0.1223
  526SOL     OW 2148   0.448   3.194   1.261 -0.2031 -0.1321 -0.5888
  526SOL    HW2 2149   0.458   3.282   1.224  0.9600  0.3241  0.7691
  526SOL    HW3 2150   0.525   3.146   1.230 -0.0833 -0.2393 -0.1270
  526SOL    MW4 2151   0.460   3.199   1.252 -0.0338 -0.0863 -0.3488
  527SOL     OW 2152   0.468   3.459   1.141  0.2557 -0.1831  0.1967
  527SOL    HW2 2153   0.537   3.526   1.145  1.0309 -0.9523 -0.1131
  527SOL    HW3 2154   0.387   3.507   1.161  0.9468  0.6195  1.1319
  527SOL    MW4 2155   0.467   3.474   1.144  0.4492 -0.1786  0.2792
  528SOL     OW 2156   0.695   3.598   1.188 -0.2005 -0.4239 -0.0953
  528SOL    HW2 2157   0.708   3.593   1.283 -0.0152 -0.2380 -0.1116
  528SOL    HW3 2158   0.689   3.691   1.169  0.8450 -0.4107 -0.4099
  528SOL    MW4 2159   0.696   3.609   1.198 -0.0381 -0.3977 -0.1391
  529SOL     OW 2160   0.665   3.872   1.150 -0.1179  0.3030  0.1956
  529SOL    HW2 2161   0.600   3.923   1.198 -1.5653 -1.1594 -0.1486
  529SOL    HW3 2162   0.640   3.882   1.058  1.1584  1.0785 -0.0798
  529SOL    MW4 2163   0.653   3.880   1.144 -0.1405  0.2122  0.1137
  530SOL     OW 2164   0.450   4.000   1.274 -0.4316  0.1221 -0.0444
  530SOL    HW2 2165   0.442   4.081   1.224 -1.9285 -0.0047 -0.0228
  530SOL    HW3 2166   0.399   3.936   1.225  1.9845 -1.2429 -0.8963
  530SOL    MW4 2167   0.442   4.002   1.261 -0.3103 -0.0749 -0.1539
  531SOL     OW 2168   0.471   4.254   1.139 -0.2420 -0.0332  0.3480
  531SOL    HW2 2169   0.545   4.310   1.164 -0.3356 -0.4432  1.5724
  531SOL    HW3 2170   0.395   4.299   1.175 -0.7131  0.8520 -1.6702
  531SOL    MW4 2171   0.471   4.267   1.147 -0.3165  0.0300  0.2434
  532SOL     OW 2172   0.670   4.397   1.226 -1.0841  0.5449  0.0672
  532SOL    HW2 2173   0.684   4.379   1.319 -2.3825 -0.7904  0.0169
  532SOL    HW3 2174   0.750   4.365   1.184 -0.1517  1.8641  0.7762
  532SOL    MW4 2175   0.682   4.390   1.233 -1.1324  0.5431  0.1543
  533SOL     OW 2176   1.118   4.641   1.198  0.1950 -0.5515  0.1847
  533SOL    HW2 2177   1.135   4.548   1.215  2.1922 -0.4558 -1.1602
  533SOL    HW3 2178   1.126   4.650   1.103  0.4053  1.0583  0.3477
  533SOL    MW4 2179   1.121   4.630   1.188  0.4863 -0.3262  0.0286
  534SOL     OW 2180   0.880   0.112   1.247 -0.1171 -0.3426 -0.4397
  534SOL    HW2 2181   0.867   0.106   1.342  0.4816 -0.6246 -0.3746
  534SOL    HW3 2182   0.960   0.062   1.231  0.5240  0.8368 -0.9304
  534SOL    MW4 2183   0.889   0.104   1.258  0.0465 -0.2242 -0.4958
  535SOL     OW 2184   0.881   0.353   1.147 -0.3995  0.1410 -0.0536
  535SOL    HW2 2185   0.870   0.268   1.189  0.2273 -0.1437 -0.4552
  535SOL    HW3 2186   0.812   0.408   1.185  0.4949  0.0551  1.7430
  535SOL    MW4 2187   0.870   0.349   1.157 -0.1987  0.0921  0.1305
  536SOL     OW 2188   1.105   0.479   1.204  0.4606 -0.0610  0.1024
  536SOL    HW2 2189   1.105   0.479   1.300  0.4122  2.1798  0.1124
  536SOL    HW3 2190   1.022   0.437   1.180 -0.3717  1.0233  1.0565
  536SOL    MW4 2191   1.094   0.473   1.213  0.3442  0.3777  0.2295
  537SOL     OW 2192   1.084   0.725   1.128 -0.3768 -0.2257 -0.3119
  537SOL    HW2 2193   1.027   0.767   1.192  2.6004 -0.1225  2.4072
  537SOL    HW3 2194   1.086   0.633   1.155  0.9386 -0.1665 -0.1978
  537SOL    MW4 2195   1.077   0.719   1.140  0.1895 -0.2043  0.0618
  538SOL     OW 2196   0.918   0.894   1.275 -0.4043  0.2041 -0.2229
  538SOL    HW2 2197   0.918   0.983   1.240 -3.8249  1.4496  2.5528
  538SOL    HW3 2198   0.849   0.849   1.227 -1.0446  0.1338  0.7420
  538SOL    MW4 2199   0.909   0.900   1.264 -0.9401  0.3591  0.2706
  539SOL     OW 2200   0.884   1.154   1.180  0.2918  0.7109  0.1678
  539SOL    HW2 2201   0.947   1.223   1.198  1.0521 -0.0209  0.3374
  539SOL    HW3 2202   0.862   1.163   1.087 -0.7204  2.0867  0.5252
  539SOL    MW4 2203   0.889   1.164   1.170  0.2586  0.7958  0.2375
  540SOL     OW 2204   1.110   1.321   1.217 -0.5049  0.0689 -0.1917
  540SOL    HW2 2205   1.134   1.330   1.310 -1.6343 -1.7466  0.2992
  540SOL    HW3 2206   1.179   1.266   1.180 -0.9250 -0.5541 -0.0518
  540SOL    MW4 2207   1.122   1.315   1.225 -0.7094 -0.2531 -0.1085
  541SOL     OW 2208   1.126   1.569   1.093  0.0819  0.0830  0.3139
  541SOL    HW2 2209   1.113   1.483   1.135 -0.7747  0.1478  0.2034
  541SOL    HW3 2210   1.125   1.550   0.999  0.9777  0.0704  0.3096
  541SOL    MW4 2211   1.124   1.555   1.086  0.0870  0.0900  0.2987
  542SOL     OW 2212   0.884   1.653   1.194 -0.2304  0.5569  0.1409
  542SOL    HW2 2213   0.878   1.748   1.185 -0.9491  0.4777 -0.1811
  542SOL    HW3 2214   0.957   1.628   1.137 -0.6886  0.7976 -0.5503
  542SOL    MW4 2215   0.893   1.662   1.186 -0.3857  0.5780  0.0073
  543SOL     OW 2216   0.893   1.922   1.097 -0.0425  0.4757  0.3165
  543SOL    HW2 2217   0.975   1.951   1.136  0.1380  0.0161  0.2814
  543SOL    HW3 2218   0.825   1.971   1.144  0.2565  0.9029  0.2976
  543SOL    MW4 2219   0.895   1.932   1.109  0.0207  0.4715  0.3095
  544SOL     OW 2220   1.151   2.035   1.189  0.3736  0.2151 -0.5778
  544SOL    HW2 2221   1.129   2.024   1.281  0.8401 -0.2882 -0.5265
  544SOL    HW3 2222   1.129   2.127   1.170  1.9188  0.8226  0.4914
  544SOL    MW4 2223   1.145   2.046   1.198  0.6391  0.2291 -0.4300
  545SOL     OW 2224   1.089   2.306   1.137 -0.4730 -0.5396  0.3503
  545SOL    HW2 2225   1.173   2.345   1.161 -0.7071  0.2627 -0.1205
  545SOL    HW3 2226   1.024   2.363   1.176 -0.8036 -1.2714  0.8771
  545SOL    MW4 2227   1.092   2.319   1.145 -0.5475 -0.5302  0.3576
  546SOL     OW 2228   0.857   2.456   1.223  0.1810  0.2269 -0.0321
  546SOL    HW2 2229   0.861   2.447   1.318  0.5483  0.0540 -0.0627
  546SOL    HW3 2230   0.780   2.404   1.197 -0.0567  0.4648  0.1900
  546SOL    MW4 2231   0.847   2.448   1.232  0.1981  0.2353 -0.0069
  547SOL     OW 2232   0.869   2.722   1.117 -0.0701  0.4470 -0.1015
  547SOL    HW2 2233   0.870   2.637   1.159 -1.8239  0.2168 -0.4671
  547SOL    HW3 2234   0.789   2.765   1.150 -0.3345  1.0964 -1.5099
  547SOL    MW4 2235   0.858   2.717   1.127 -0.3364  0.5021 -0.3356
  548SOL     OW 2236   1.115   2.842   1.202  0.1339 -0.5676 -0.2098
  548SOL    HW2 2237   1.110   2.818   1.295 -1.4745  0.1013 -0.1035
  548SOL    HW3 2238   1.033   2.812   1.165  0.1095  0.5373 -1.0836
  548SOL    MW4 2239   1.104   2.835   1.209 -0.0815 -0.3335 -0.3111
  549SOL     OW 2240   1.130   3.096   1.056 -0.2673 -0.8766 -0.1920
  549SOL    HW2 2241   1.150   3.009   1.091 -2.0163 -1.4795 -0.6809
  549SOL    HW3 2242   1.120   3.082   0.962  2.5895  0.4245 -0.7417
  549SOL    MW4 2243   1.132   3.082   1.048 -0.1212 -0.7846 -0.3290
  550SOL     OW 2244   0.890   3.169   1.208  0.2983 -0.1191 -0.1247
  550SOL    HW2 2245   0.913   3.254   1.171 -0.7432 -0.2612 -1.1642
  550SOL    HW3 2246   0.965   3.113   1.189  0.1952  0.0790 -1.1646
  550SOL    MW4 2247   0.903   3.172   1.201  0.1473 -0.1118 -0.3991
  551SOL     OW 2248   0.948   3.435   1.140  0.7702  0.1759  0.0079
  551SOL    HW2 2249   0.863   3.478   1.144  0.0607 -1.0585 -1.2335
  551SOL    HW3 2250   0.963   3.419   1.047  1.4507 -1.3637  0.3602
  551SOL    MW4 2251   0.939   3.438   1.128  0.7664 -0.1900 -0.1093
  552SOL     OW 2252   1.143   3.566   1.266  0.6042 -0.0503  0.1422
  552SOL    HW2 2253   1.218   3.538   1.214  0.9657  1.8287 -0.3712
  552SOL    HW3 2254   1.068   3.522   1.224  1.1125 -0.0034 -0.8442
  552SOL    MW4 2255   1.143   3.556   1.253  0.7190  0.2038 -0.0556
  553SOL     OW 2256   1.125   3.844   1.164 -0.3671  0.3313 -0.3084
  553SOL    HW2 2257   1.051   3.888   1.205 -0.2473  0.1900  0.0686
  553SOL    HW3 2258   1.126   3.757   1.204 -0.2164  0.2071 -0.5770
  553SOL    MW4 2259   1.115   3.838   1.175 -0.3314  0.2961 -0.2941
  554SOL     OW 2260   0.899   3.986   1.226 -0.0365 -0.0144  0.2933
  554SOL    HW2 2261   0.899   3.982   1.321 -0.4875 -1.0977  0.2501
  554SOL    HW3 2262   0.824   3.934   1.199  0.0137  0.3864 -0.6524
  554SOL    MW4 2263   0.889   3.979   1.235 -0.0893 -0.1042  0.1627
  555SOL     OW 2264   0.900   4.255   1.133  0.4011  0.4491  0.1326
  555SOL    HW2 2265   0.890   4.165   1.165  2.1011  0.6555  1.3069
  555SOL    HW3 2266   0.935   4.246   1.045  0.4619 -0.0346  0.2080
  555SOL    MW4 2267   0.903   4.242   1.125  0.6334  0.4129  0.2975
  556SOL     OW 2268   1.139   4.367   1.232 -0.1352  0.1786  0.3819
  556SOL    HW2 2269   1.145   4.368   1.328  1.3119 -0.4316  0.3206
  556SOL    HW3 2270   1.057   4.322   1.213 -0.9050  1.1516  1.3350
  556SOL    MW4 2271   1.129   4.361   1.242 -0.0459  0.2270  0.4995
  557SOL     OW 2272   1.555   4.631   1.222 -0.2920  0.2375  0.0238
  557SOL    HW2 2273   1.630   4.677   1.260  0.0914  0.6828 -1.2691
  557SOL    HW3 2274   1.568   4.540   1.247  0.2253  0.4427  0.5254
  557SOL    MW4 2275   1.567   4.625   1.231 -0.1731  0.3233 -0.0805
  558SOL     OW 2276   1.337   0.122   1.285  0.0737 -0.2332  0.0736
  558SOL    HW2 2277   1.418   0.072   1.271  0.3198 -0.2372  1.4500
  558SOL    HW3 2278   1.267   0.063   1.258  0.4793 -0.5734 -0.2434
  558SOL    MW4 2279   1.339   0.108   1.279  0.1597 -0.2786  0.2134
  559SOL     OW 2280   1.355   0.359   1.120  0.0080  0.4103  0.2629
  559SOL    HW2 2281   1.330   0.279   1.165 -0.9925 -0.1532 -1.2646
  559SOL    HW3 2282   1.278   0.415   1.127  0.3088  0.8193  0.3439
  559SOL    MW4 2283   1.342   0.356   1.127 -0.0843  0.3899  0.0721
  560SOL     OW 2284   1.536   0.543   1.239 -0.1062  0.3122 -0.0162
  560SOL    HW2 2285   1.502   0.630   1.219  0.1449  0.4360  0.1011
  560SOL    HW3 2286   1.468   0.483   1.207  0.3951  0.4947 -1.4517
  560SOL    MW4 2287   1.522   0.546   1.232 -0.0069  0.3526 -0.1901
  561SOL     OW 2288   1.541   0.797   1.116  0.1474  0.4803 -0.0475
  561SOL    HW2 2289   1.625   0.839   1.132  0.5433  0.3252 -1.6988
  561SOL    HW3 2290   1.542   0.774   1.024 -1.0523 -0.9858  0.2821
  561SOL    MW4 2291   1.552   0.800   1.106  0.0414  0.2664 -0.2217
  562SOL     OW 2292   1.305   0.908   1.192 -0.4105  0.1420 -0.3208
  562SOL    HW2 2293   1.382   0.857   1.165 -0.3937 -0.1930  0.3547
  562SOL    HW3 2294   1.231   0.848   1.178 -0.4839  0.2444 -0.3734
  562SOL    MW4 2295   1.305   0.893   1.187 -0.4181  0.1113 -0.2385
  563SOL     OW 2296   1.290   1.151   1.075  0.1216  0.0946 -0.1416
  563SOL    HW2 2297   1.291   1.060   1.103 -5.8286 -0.2582 -0.4678
  563SOL    HW3 2298   1.303   1.147   0.980 -0.4240 -0.4040 -0.1926
  563SOL    MW4 2299   1.292   1.139   1.066 -0.7354 -0.0176 -0.1913
  564SOL     OW 2300   1.521   1.281   1.191 -0.1523 -0.5456 -0.0749
  564SOL    HW2 2301   1.593   1.225   1.161 -0.1726 -0.6769  0.1190
  564SOL    HW3 2302   1.443   1.243   1.150  0.0416  0.3194 -1.2539
  564SOL    MW4 2303   1.520   1.269   1.182 -0.1295 -0.4489 -0.2049
  565SOL     OW 2304   1.567   1.546   1.077 -0.2371 -0.3648 -0.0139
  565SOL    HW2 2305   1.656   1.568   1.105 -0.2401 -0.1139 -0.1915
  565SOL    HW3 2306   1.550   1.461   1.116 -0.6866  0.5086  1.7238
  565SOL    MW4 2307   1.577   1.538   1.086 -0.2970 -0.2164  0.1920
  566SOL     OW 2308   1.347   1.689   1.199  0.3119 -0.0035  0.2476
  566SOL    HW2 2309   1.425   1.639   1.178 -0.6205 -0.2527 -2.9655
  566SOL    HW3 2310   1.275   1.636   1.165 -1.0189  1.4659  0.7013
  566SOL    MW4 2311   1.347   1.676   1.191  0.0134  0.1574 -0.1165
  567SOL     OW 2312   1.387   1.934   1.068 -0.0699 -0.2128 -0.0592
  567SOL    HW2 2313   1.301   1.965   1.093 -0.7371 -1.6564 -0.4999
  567SOL    HW3 2314   1.384   1.839   1.084  1.1114 -0.4163 -0.9386
  567SOL    MW4 2315   1.376   1.925   1.073 -0.0019 -0.4301 -0.2333
  568SOL     OW 2316   1.565   2.046   1.232  0.2175 -0.2210  0.4359
  568SOL    HW2 2317   1.582   2.133   1.196  0.4916 -0.1212  0.8066
  568SOL    HW3 2318   1.495   2.011   1.177  0.4055  0.0623  0.0108
  568SOL    MW4 2319   1.558   2.053   1.220  0.2785 -0.1705  0.4288
  569SOL     OW 2320   1.607   2.299   1.084 -0.0469 -0.1875  0.7278
  569SOL    HW2 2321   1.535   2.348   1.124 -0.8510 -1.4339  0.8593
  569SOL    HW3 2322   1.586   2.300   0.990 -0.3145 -0.6734  0.7821
  569SOL    MW4 2323   1.594   2.306   1.077 -0.1884 -0.4163  0.7522
  570SOL     OW 2324   1.357   2.415   1.169 -0.4058 -0.4584 -0.0900
  570SOL    HW2 2325   1.366   2.433   1.263  1.4427  0.1263 -0.3509
  570SOL    HW3 2326   1.351   2.501   1.128  1.3434 -0.6031 -0.7105
  570SOL    MW4 2327   1.357   2.429   1.176  0.0688 -0.4003 -0.2064
  571SOL     OW 2328   1.320   2.674   1.074  0.3009 -0.4701  0.2573
  571SOL    HW2 2329   1.400   2.727   1.078  0.4748 -0.7465  0.5114
  571SOL    HW3 2330   1.257   2.722   1.128  0.3900 -0.4080  0.3075
  571SOL    MW4 2331   1.322   2.688   1.081  0.3357 -0.4983  0.2974
  572SOL     OW 2332   1.560   2.846   1.180 -0.2860  0.1055 -0.1416
  572SOL    HW2 2333   1.642   2.803   1.156 -0.2507  0.0938 -0.0019
  572SOL    HW3 2334   1.575   2.939   1.164 -0.3061  0.0847 -0.2857
  572SOL    MW4 2335   1.573   2.852   1.175 -0.2840  0.1016 -0.1421
  573SOL     OW 2336   1.602   3.093   1.069 -0.4581  0.1864  0.0760
  573SOL    HW2 2337   1.670   3.153   1.100  0.1253 -0.0683 -0.6979
  573SOL    HW3 2338   1.522   3.125   1.110  0.0351  0.8271  0.5547
  573SOL    MW4 2339   1.601   3.105   1.078 -0.3159  0.2375  0.0372
  574SOL     OW 2340   1.369   3.198   1.193  0.4883 -0.2257  0.2428
  574SOL    HW2 2341   1.361   3.181   1.286  1.7233  0.0032  0.4063
  574SOL    HW3 2342   1.291   3.158   1.154 -0.7502  0.9464  1.5150
  574SOL    MW4 2343   1.358   3.190   1.200  0.4878 -0.0410  0.4323
  575SOL     OW 2344   1.366   3.460   1.111 -0.0278 -0.5416 -0.2234
  575SOL    HW2 2345   1.367   3.370   1.142 -2.7800 -0.2014  0.9768
  575SOL    HW3 2346   1.354   3.454   1.017 -0.1778 -1.4174 -0.1459
  575SOL    MW4 2347   1.365   3.447   1.103 -0.4108 -0.6123 -0.0547
  576SOL     OW 2348   1.573   3.601   1.213 -0.4305  0.5433 -0.0576
  576SOL    HW2 2349   1.641   3.562   1.158 -1.0835 -0.9517  0.1545
  576SOL    HW3 2350   1.492   3.564   1.180 -0.9596  0.7437  0.9945
  576SOL    MW4 2351   1.571   3.591   1.201 -0.5865  0.3724  0.1091
  577SOL     OW 2352   1.612   3.875   1.182 -0.1543 -0.0080  0.2536
  577SOL    HW2 2353   1.536   3.919   1.219  0.1487  0.0534  0.8126
  577SOL    HW3 2354   1.593   3.782   1.192 -0.9500 -0.0164 -1.2471
  577SOL    MW4 2355   1.600   3.868   1.189 -0.2193 -0.0010  0.1293
  578SOL     OW 2356   1.347   3.988   1.249  0.2571  0.2776 -0.2812
  578SOL    HW2 2357   1.346   4.072   1.204 -0.2080  0.4958  0.1379
  578SOL    HW3 2358   1.269   3.942   1.217  1.0942 -0.4448 -1.3470
  578SOL    MW4 2359   1.337   3.993   1.239  0.3061  0.2110 -0.3667
  579SOL     OW 2360   1.347   4.229   1.113 -0.1405  0.1136  0.3680
  579SOL    HW2 2361   1.267   4.274   1.139  0.0412  0.1597  0.8586
  579SOL    HW3 2362   1.338   4.215   1.019 -0.7572  0.0467  0.4371
  579SOL    MW4 2363   1.335   4.233   1.104 -0.1979  0.1106  0.4418
  580SOL     OW 2364   1.568   4.340   1.217 -0.1277  0.3514  0.0393
  580SOL    HW2 2365   1.551   4.331   1.311 -0.4608 -0.9781 -0.1463
  580SOL    HW3 2366   1.488   4.310   1.175 -0.1213  1.3092 -0.6718
  580SOL    MW4 2367   1.555   4.335   1.224 -0.1708  0.3023 -0.0792
  581SOL     OW 2368   1.998   0.013   1.122  0.4430 -0.3670 -0.0367
  581SOL    HW2 2369   2.007  -0.076   1.156  0.8135 -0.0824  0.6219
  581SOL    HW3 2370   2.014   0.004   1.028  2.0465 -0.7665  0.2541
  581SOL    MW4 2371   2.001  -0.000   1.114  0.7036 -0.3819  0.0886
  582SOL     OW 2372   1.790   0.138   1.256 -0.4833  0.3146 -0.0184
  582SOL    HW2 2373   1.783   0.226   1.220 -1.1380  0.0724 -0.4983
  582SOL    HW3 2374   1.858   0.096   1.203  0.3489  0.7608  0.6908
  582SOL    MW4 2375   1.798   0.144   1.244 -0.4599  0.3415  0.0118
  583SOL     OW 2376   1.792   0.388   1.139 -0.3910 -0.1503 -0.1808
  583SOL    HW2 2377   1.726   0.445   1.179  0.6556  1.1416 -0.2714
  583SOL    HW3 2378   1.757   0.369   1.052  0.2802  2.2263 -1.0242
  583SOL    MW4 2379   1.778   0.393   1.133 -0.1643  0.3337 -0.3040
  584SOL     OW 2380   2.042   0.484   1.224 -0.1396  0.2252 -0.2506
  584SOL    HW2 2381   2.044   0.491   1.320  0.0313  0.6834 -0.2837
  584SOL    HW3 2382   1.955   0.449   1.204 -0.5980  1.1949  0.0088
  584SOL    MW4 2383   2.031   0.480   1.234 -0.1774  0.4136 -0.2207
  585SOL     OW 2384   2.024   0.748   1.150  0.2498 -0.1352 -0.0769
  585SOL    HW2 2385   2.018   0.656   1.175 -1.0811 -0.2035 -0.6197
  585SOL    HW3 2386   2.020   0.748   1.055 -0.2686  0.5141 -0.0596
  585SOL    MW4 2387   2.022   0.736   1.141  0.0060 -0.0585 -0.1463
  586SOL     OW 2388   1.796   0.892   1.203  0.1816  0.1562  0.2330
  586SOL    HW2 2389   1.784   0.904   1.297 -1.0555 -0.0294  0.1001
  586SOL    HW3 2390   1.869   0.830   1.197  0.5384  0.4762  1.0556
  586SOL    MW4 2391   1.804   0.886   1.215  0.0656  0.1740  0.3239
  587SOL     OW 2392   1.773   1.161   1.138 -0.3430 -0.2349  0.3738
  587SOL    HW2 2393   1.769   1.153   1.043 -2.6483  1.2052  0.3243
  587SOL    HW3 2394   1.784   1.071   1.169  1.9368 -0.5779 -1.2771
  587SOL    MW4 2395   1.774   1.148   1.130 -0.3462 -0.0901  0.1494
  588SOL     OW 2396   2.020   1.272   1.217  0.2608 -0.1380 -0.5560
  588SOL    HW2 2397   2.072   1.202   1.178  0.4385 -0.8384  0.8977
  588SOL    HW3 2398   1.929   1.248   1.200  0.2719 -1.4347  1.0822
  588SOL    MW4 2399   2.015   1.260   1.210  0.2859 -0.4015 -0.1482
  589SOL     OW 2400   2.072   1.516   1.113 -0.5205 -0.3611  0.1387
  589SOL    HW2 2401   2.061   1.428   1.149  0.5786 -0.6313 -0.1690
  589SOL    HW3 2402   2.057   1.506   1.020  1.2508 -0.5462 -0.1406
  589SOL    MW4 2403   2.069   1.503   1.106 -0.1416 -0.4212  0.0613
  590SOL     OW 2404   1.829   1.649   1.168 -0.0074  0.0128  0.4811
  590SOL    HW2 2405   1.826   1.743   1.148  0.0314 -0.1100 -0.0940
  590SOL    HW3 2406   1.916   1.621   1.140 -0.8493 -0.6826 -1.5131
  590SOL    MW4 2407   1.840   1.658   1.162 -0.1132 -0.0951  0.1421
  591SOL     OW 2408   1.796   1.941   1.120 -0.0935  0.2072  0.4412
  591SOL    HW2 2409   1.713   1.962   1.163 -1.0758 -2.1263 -0.2240
  591SOL    HW3 2410   1.781   1.959   1.027  0.6407  1.2152  0.5132
  591SOL    MW4 2411   1.783   1.946   1.113 -0.1262  0.0323  0.3630
  592SOL     OW 2412   2.025   2.067   1.218  0.2049  0.4592  0.1575
  592SOL    HW2 2413   2.010   2.071   1.313  3.2288 -2.4000  0.8574
  592SOL    HW3 2414   1.961   2.004   1.186  0.6887 -0.3087  0.6861
  592SOL    MW4 2415   2.014   2.059   1.226  0.6678 -0.0196  0.3196
  593SOL     OW 2416   2.012   2.315   1.077  0.5271 -0.1232 -0.4248
  593SOL    HW2 2417   2.083   2.366   1.116 -1.0385  1.0773  0.8790
  593SOL    HW3 2418   2.010   2.235   1.129  1.9668 -0.9023 -1.5036
  593SOL    MW4 2419   2.021   2.311   1.089  0.5100 -0.0675 -0.3952
  594SOL     OW 2420   1.800   2.434   1.204  0.1187  0.0318  0.2757
  594SOL    HW2 2421   1.883   2.405   1.167  0.1186  0.9256 -0.4797
  594SOL    HW3 2422   1.734   2.395   1.147  0.0912  0.6937 -0.1644
  594SOL    MW4 2423   1.802   2.425   1.191  0.1150  0.2372  0.1180
  595SOL     OW 2424   1.784   2.700   1.113  0.1780  0.0280 -0.1447
  595SOL    HW2 2425   1.783   2.610   1.144 -0.9957 -0.5265 -1.6954
  595SOL    HW3 2426   1.810   2.693   1.021 -0.5321  1.2063 -0.4475
  595SOL    MW4 2427   1.787   2.687   1.105 -0.0705  0.1104 -0.3891
  596SOL     OW 2428   2.025   2.848   1.183 -0.1949 -0.5089 -0.4849
  596SOL    HW2 2429   2.050   2.940   1.168  0.7068 -0.6877 -0.1110
  596SOL    HW3 2430   1.940   2.839   1.141 -0.3645  0.5509 -0.3812
  596SOL    MW4 2431   2.017   2.859   1.176 -0.0982 -0.3927 -0.4219
  597SOL     OW 2432   2.045   3.120   1.106 -0.0520 -0.8057 -0.3268
  597SOL    HW2 2433   1.968   3.168   1.136  0.7274 -0.1239  0.5880
  597SOL    HW3 2434   2.033   3.113   1.011 -0.4236  0.7259 -0.3996
  597SOL    MW4 2435   2.033   3.125   1.097  0.0017 -0.5138 -0.2158
  598SOL     OW 2436   1.807   3.227   1.202 -0.4166  0.1261  0.1413
  598SOL    HW2 2437   1.805   3.234   1.297 -1.4310  0.1223  0.1247
  598SOL    HW3 2438   1.806   3.318   1.171 -2.0541  0.1173  0.1133
  598SOL    MW4 2439   1.807   3.240   1.210 -0.7665  0.1245  0.1353
  599SOL     OW 2440   1.793   3.481   1.083  0.1508  0.0574  0.0485
  599SOL    HW2 2441   1.866   3.534   1.117 -0.2146  1.0633 -0.6981
  599SOL    HW3 2442   1.813   3.470   0.990 -0.9250  0.7990 -0.2767
  599SOL    MW4 2443   1.805   3.487   1.075 -0.0392  0.2878 -0.0929
  600SOL     OW 2444   2.033   3.601   1.202 -0.2645  0.0394  0.5238
  600SOL    HW2 2445   2.038   3.584   1.296 -0.2818  0.6854  0.6468
  600SOL    HW3 2446   2.110   3.560   1.165  0.2053  0.5388  0.9403
  600SOL    MW4 2447   2.044   3.593   1.210 -0.2046  0.1900  0.5949
  601SOL     OW 2448   2.039   3.864   1.137 -0.6272 -0.0245  0.4274
  601SOL    HW2 2449   1.971   3.908   1.189 -0.0222 -0.7556  1.8679
  601SOL    HW3 2450   2.038   3.774   1.168 -1.1564 -0.8129 -1.8004
  601SOL    MW4 2451   2.030   3.858   1.148 -0.6173 -0.2248  0.3235
  602SOL     OW 2452   1.848   4.016   1.282  0.5944  0.3485 -0.0841
  602SOL    HW2 2453   1.838   4.010   1.377 -0.3967  2.0394 -0.0612
  602SOL    HW3 2454   1.771   3.972   1.247  0.5932  0.3577 -0.0932
  602SOL    MW4 2455   1.836   4.010   1.290  0.4635  0.5727 -0.0823
  603SOL     OW 2456   1.834   4.247   1.121  0.3100 -0.3953 -0.3633
  603SOL    HW2 2457   1.830   4.163   1.167  0.7590  0.3631  1.0940
  603SOL    HW3 2458   1.748   4.287   1.136  0.8499  0.3545  0.8168
  603SOL    MW4 2459   1.822   4.241   1.129  0.4404 -0.1965 -0.0153
  604SOL     OW 2460   2.018   4.422   1.214 -0.0718  0.0995 -0.0042
  604SOL    HW2 2461   2.013   4.415   1.310  0.1470 -0.5792 -0.0387
  604SOL    HW3 2462   1.958   4.355   1.182 -0.1272  0.3115 -0.3438
  604SOL    MW4 2463   2.010   4.413   1.223 -0.0505  0.0381 -0.0536
  605SOL     OW 2464   2.434   4.624   1.145 -0.1132 -0.0542  0.3276
  605SOL    HW2 2465   2.514   4.671   1.171 -0.4097  1.5230 -1.5142
  605SOL    HW3 2466   2.365   4.662   1.199 -0.0443  0.3881  0.1069
  605SOL    MW4 2467   2.436   4.635   1.155 -0.1431  0.2122  0.0554
  606SOL     OW 2468   2.221   0.094   1.268 -0.3711 -0.0263  0.2356
  606SOL    HW2 2469   2.231   0.180   1.226 -1.0495  0.0762  0.2820
  606SOL    HW3 2470   2.148   0.053   1.221 -0.9590 -0.0174  1.1346
  606SOL    MW4 2471   2.213   0.100   1.256 -0.5383 -0.0116  0.3604
  607SOL     OW 2472   2.261   0.320   1.136  0.0988 -0.0593  0.2629
  607SOL    HW2 2473   2.190   0.369   1.178  0.6212 -0.0957  1.2043
  607SOL    HW3 2474   2.236   0.315   1.044 -1.0171  0.1065  0.5551
  607SOL    MW4 2475   2.248   0.326   1.129  0.0207 -0.0422  0.4257
  608SOL     OW 2476   2.479   0.499   1.211 -0.6240  0.1188  0.3542
  608SOL    HW2 2477   2.470   0.500   1.306 -0.7891  2.2345  0.3268
  608SOL    HW3 2478   2.405   0.448   1.181 -1.5681  0.9341  1.2680
  608SOL    MW4 2479   2.468   0.492   1.220 -0.7701  0.5055  0.4711
  609SOL     OW 2480   2.489   0.756   1.095  0.3369  0.2696 -0.1787
  609SOL    HW2 2481   2.482   0.664   1.123 -0.8314  0.5076  0.3521
  609SOL    HW3 2482   2.462   0.755   1.003 -0.0594  0.1346 -0.0643
  609SOL    MW4 2483   2.485   0.743   1.087  0.1307  0.2831 -0.0936
  610SOL     OW 2484   2.280   0.871   1.231 -0.1884  0.0192  0.0306
  610SOL    HW2 2485   2.355   0.837   1.183 -0.3332 -0.6715  0.2868
  610SOL    HW3 2486   2.206   0.820   1.198 -0.5272  0.6192 -0.1415
  610SOL    MW4 2487   2.280   0.860   1.220 -0.2520  0.0072  0.0417
  611SOL     OW 2488   2.227   1.125   1.125 -0.3427  0.0142 -0.4616
  611SOL    HW2 2489   2.297   1.175   1.167 -1.6757  2.3925 -1.0124
  611SOL    HW3 2490   2.235   1.037   1.162  0.2998  1.3253  2.6507
  611SOL    MW4 2491   2.237   1.120   1.136 -0.4342  0.5009 -0.1236
  612SOL     OW 2492   2.460   1.261   1.225 -0.2140 -0.2248 -0.2850
  612SOL    HW2 2493   2.532   1.204   1.196  0.7724  0.5493  0.6165
  612SOL    HW3 2494   2.472   1.342   1.175 -0.5780 -0.1581 -0.2663
  612SOL    MW4 2495   2.471   1.264   1.214 -0.1318 -0.1140 -0.1636
  613SOL     OW 2496   2.508   1.514   1.122  0.3404 -0.1247 -0.4614
  613SOL    HW2 2497   2.441   1.576   1.150  0.4559 -0.5243  0.7761
  613SOL    HW3 2498   2.501   1.511   1.027 -0.5429  0.7890 -0.4333
  613SOL    MW4 2499   2.498   1.522   1.113  0.2394 -0.0569 -0.2943
  614SOL     OW 2500   2.288   1.691   1.203 -0.2224 -0.0200  0.1119
  614SOL    HW2 2501   2.283   1.785   1.186 -1.3333  0.2792  1.9218
  614SOL    HW3 2502   2.211   1.654   1.161 -1.4315  0.3323  1.9234
  614SOL    MW4 2503   2.277   1.698   1.195 -0.5283  0.0659  0.5898
  615SOL     OW 2504   2.263   1.939   1.117 -0.0528  0.0779  0.3076
  615SOL    HW2 2505   2.189   1.990   1.150  0.2161  0.8039 -0.1926
  615SOL    HW3 2506   2.252   1.941   1.022  0.6557  0.2463  0.2300
  615SOL    MW4 2507   2.251   1.946   1.109  0.0763  0.1961  0.2314
  616SOL     OW 2508   2.483   2.062   1.202  0.1656 -0.8238 -0.3220
  616SOL    HW2 2509   2.565   2.021   1.173  0.4454 -0.1519 -0.4976
  616SOL    HW3 2510   2.415   2.014   1.155  0.4184 -1.7161  0.2039
  616SOL    MW4 2511   2.485   2.050   1.192  0.2360 -0.8528 -0.2757
  617SOL     OW 2512   2.497   2.344   1.150  0.3955 -0.6475  0.3853
  617SOL    HW2 2513   2.492   2.253   1.179 -2.5611 -0.4354  0.6879
  617SOL    HW3 2514   2.484   2.340   1.056 -0.1570 -0.4997  0.4559
  617SOL    MW4 2515   2.495   2.332   1.142 -0.0675 -0.6001  0.4344
  618SOL     OW 2516   2.226   2.459   1.192  0.1773  0.2158  0.1190
  618SOL    HW2 2517   2.229   2.448   1.287  0.8676  2.1222  0.3354
  618SOL    HW3 2518   2.310   2.426   1.161  0.0192 -0.2531  0.1954
  618SOL    MW4 2519   2.237   2.453   1.201  0.2477  0.4053  0.1577
  619SOL     OW 2520   2.234   2.711   1.075  0.3956  0.1062  0.3416
  619SOL    HW2 2521   2.215   2.629   1.120 -1.9567 -0.1793 -1.1202
  619SOL    HW3 2522   2.165   2.771   1.102  0.2844  0.6337 -1.0392
  619SOL    MW4 2523   2.223   2.708   1.084  0.0706  0.1383 -0.0333
  620SOL     OW 2524   2.456   2.802   1.201 -0.3268 -0.2649  0.0427
  620SOL    HW2 2525   2.440   2.805   1.296 -0.3363 -0.0478  0.0336
  620SOL    HW3 2526   2.376   2.762   1.165 -0.2592 -0.4887  0.1426
  620SOL    MW4 2527   2.443   2.797   1.209 -0.3192 -0.2661  0.0547
  621SOL     OW 2528   2.489   3.070   1.100  0.0502  0.3780  0.0552
  621SOL    HW2 2529   2.411   3.108   1.141  1.4132  1.4871  1.6360
  621SOL    HW3 2530   2.485   2.977   1.125 -0.7505  0.4222  0.1263
  621SOL    MW4 2531   2.478   3.063   1.109  0.1242  0.5302  0.2732
  622SOL     OW 2532   2.285   3.233   1.193 -0.3277  0.1846 -0.0473
  622SOL    HW2 2533   2.290   3.325   1.166  0.6760 -0.2407 -1.3651
  622SOL    HW3 2534   2.200   3.204   1.160 -0.3034  0.4247 -0.3271
  622SOL    MW4 2535   2.274   3.241   1.185 -0.1922  0.1602 -0.2580
  623SOL     OW 2536   2.261   3.493   1.095  0.3752  0.1922 -0.6328
  623SOL    HW2 2537   2.340   3.531   1.134  0.9116 -1.4413 -0.1001
  623SOL    HW3 2538   2.284   3.476   1.004  1.0327 -1.3121 -0.2060
  623SOL    MW4 2539   2.274   3.496   1.088  0.5326 -0.2217 -0.5063
  624SOL     OW 2540   2.469   3.646   1.202 -0.3595  0.1055 -0.3551
  624SOL    HW2 2541   2.469   3.643   1.297 -0.5252 -0.8068 -0.3849
  624SOL    HW3 2542   2.515   3.728   1.181  1.0369 -0.4352  0.4904
  624SOL    MW4 2543   2.475   3.657   1.212 -0.1972 -0.0861 -0.2474
  625SOL     OW 2544   2.544   3.909   1.139 -0.0389 -0.2050 -0.1079
  625SOL    HW2 2545   2.458   3.929   1.175  0.1974  0.7030 -0.0443
  625SOL    HW3 2546   2.529   3.900   1.045 -0.3789 -1.0600  0.0206
  625SOL    MW4 2547   2.531   3.910   1.131 -0.0525 -0.1984 -0.0825
  626SOL     OW 2548   2.273   3.977   1.215 -0.4178 -0.5304  0.3855
  626SOL    HW2 2549   2.267   4.072   1.203  0.8342 -0.7971 -2.9521
  626SOL    HW3 2550   2.186   3.945   1.189 -0.7179 -0.3495  1.1471
  626SOL    MW4 2551   2.261   3.986   1.210 -0.2923 -0.5414  0.0455
  627SOL     OW 2552   2.254   4.242   1.158  0.3967 -0.2050 -0.2570
  627SOL    HW2 2553   2.182   4.300   1.181  0.9080  0.8398 -1.2640
  627SOL    HW3 2554   2.254   4.239   1.062  0.6503 -1.5162 -0.2281
  627SOL    MW4 2555   2.244   4.249   1.148  0.4976 -0.2398 -0.3860
  628SOL     OW 2556   2.507   4.351   1.247 -0.9719 -0.1020 -0.2610
  628SOL    HW2 2557   2.424   4.310   1.223 -0.4835 -0.0700 -2.1161
  628SOL    HW3 2558   2.499   4.441   1.215 -1.2328  0.6932  1.9328
  628SOL    MW4 2559   2.495   4.358   1.239 -0.9415  0.0067 -0.2164
  629SOL     OW 2560   2.890   4.666   1.110 -0.0596 -0.1357 -0.1977
  629SOL    HW2 2561   2.897   4.576   1.140  1.3693 -0.2422 -0.8125
  629SOL    HW3 2562   2.901   4.660   1.015 -0.7839  0.5971 -0.3352
  629SOL    MW4 2563   2.892   4.653   1.101  0.0334 -0.0534 -0.2970
  630SOL     OW 2564   2.661   0.081   1.265  0.4987  0.2399 -0.0252
  630SOL    HW2 2565   2.665   0.075   1.361 -1.3308 -2.0748 -0.0599
  630SOL    HW3 2566   2.752   0.072   1.237  1.0136  0.5422  1.4573
  630SOL    MW4 2567   2.674   0.079   1.274  0.3250 -0.0256  0.1658
  631SOL     OW 2568   2.701   0.340   1.156  0.4602  0.5099 -0.4327
  631SOL    HW2 2569   2.680   0.256   1.197 -0.6681  1.2900  0.6009
  631SOL    HW3 2570   2.628   0.397   1.180  0.2606  1.2520 -2.7462
  631SOL    MW4 2571   2.689   0.336   1.165  0.2854  0.7107 -0.6014
  632SOL     OW 2572   2.929   0.461   1.252  0.2976  0.2632  0.1608
  632SOL    HW2 2573   2.921   0.551   1.221 -1.1358  0.7363  1.8422
  632SOL    HW3 2574   2.853   0.416   1.215  0.3257  0.0484  0.3648
  632SOL    MW4 2575   2.918   0.467   1.243  0.1123  0.2973  0.4095
  633SOL     OW 2576   2.947   0.714   1.136  0.0285  0.3015  0.4731
  633SOL    HW2 2577   3.027   0.756   1.168  1.0678 -0.8489 -0.5688
  633SOL    HW3 2578   2.878   0.778   1.155  1.2573  1.5591  0.8582
  633SOL    MW4 2579   2.948   0.728   1.143  0.3278  0.3157  0.3864
  634SOL     OW 2580   2.714   0.852   1.211 -0.0271 -0.1748  0.1283
  634SOL    HW2 2581   2.704   0.946   1.193  1.8984 -0.2290 -1.4187
  634SOL    HW3 2582   2.636   0.812   1.172 -0.0563  0.6421 -0.6791
  634SOL    MW4 2583   2.702   0.859   1.203  0.2229 -0.0741 -0.1824
  635SOL     OW 2584   2.670   1.111   1.146 -0.2251 -0.4072  0.0067
  635SOL    HW2 2585   2.678   1.124   1.052  0.2116 -1.5351 -0.1181
  635SOL    HW3 2586   2.739   1.166   1.184 -0.0650 -0.3557 -0.3600
  635SOL    MW4 2587   2.680   1.120   1.139 -0.1464 -0.5491 -0.0582
  636SOL     OW 2588   2.916   1.265   1.210 -0.3002 -0.5047 -0.2696
  636SOL    HW2 2589   2.908   1.279   1.305 -0.3775 -0.8177 -0.2264
  636SOL    HW3 2590   2.919   1.352   1.173  1.6023 -0.3731  0.1646
  636SOL    MW4 2591   2.915   1.278   1.218 -0.0596 -0.5287 -0.2066
  637SOL     OW 2592   2.937   1.508   1.049 -0.5691 -0.1450  0.1570
  637SOL    HW2 2593   3.003   1.568   1.083 -0.7777  0.7806 -1.0460
  637SOL    HW3 2594   2.945   1.513   0.954 -0.1113 -2.5845  0.0218
  637SOL    MW4 2595   2.947   1.516   1.041 -0.5362 -0.3446 -0.0196
  638SOL     OW 2596   2.744   1.649   1.201  0.3002 -0.0899  0.0647
  638SOL    HW2 2597   2.803   1.601   1.142 -0.5110  0.8531 -1.5618
  638SOL    HW3 2598   2.659   1.608   1.187 -0.0684  0.7143 -0.0906
  638SOL    MW4 2599   2.741   1.637   1.191  0.1447  0.1407 -0.1704
  639SOL     OW 2600   2.718   1.903   1.113  0.0605  0.2626 -0.0723
  639SOL    HW2 2601   2.793   1.956   1.140  0.5797  0.1242 -1.1901
  639SOL    HW3 2602   2.729   1.821   1.161  0.1757  0.5551  0.3988
  639SOL    MW4 2603   2.730   1.899   1.123  0.1442  0.2830 -0.1576
  640SOL     OW 2604   2.919   2.076   1.188 -0.1272  0.1915  0.3568
  640SOL    HW2 2605   2.926   2.067   1.283  1.0873  1.4979  0.4138
  640SOL    HW3 2606   2.939   2.168   1.171 -0.1770 -0.0608 -1.1837
  640SOL    MW4 2607   2.922   2.087   1.198  0.0265  0.3307  0.1609
  641SOL     OW 2608   2.963   2.336   1.117  0.4308 -0.0547  0.4866
  641SOL    HW2 2609   3.042   2.383   1.145  0.3289  0.8337 -0.6609
  641SOL    HW3 2610   2.892   2.376   1.167  0.4095  0.7030 -0.1384
  641SOL    MW4 2611   2.964   2.347   1.127  0.4148  0.1626  0.2527
  642SOL     OW 2612   2.737   2.445   1.236 -0.2100 -0.2584  0.1897
  642SOL    HW2 2613   2.710   2.454   1.327 -0.2225 -0.8168  0.2436
  642SOL    HW3 2614   2.664   2.401   1.193 -0.0325 -0.3707  0.0001
  642SOL    MW4 2615   2.724   2.440   1.242 -0.1881 -0.3471  0.1719
  643SOL     OW 2616   2.692   2.678   1.095 -0.0251 -0.3558 -0.0304
  643SOL    HW2 2617   2.720   2.596   1.134  0.0978  0.4317  1.5789
  643SOL    HW3 2618   2.601   2.689   1.123 -0.3205 -0.3650 -0.9659
  643SOL    MW4 2619   2.684   2.669   1.103 -0.0477 -0.2532  0.0585
  644SOL     OW 2620   2.903   2.827   1.203  0.0718  0.4467 -0.3420
  644SOL    HW2 2621   2.887   2.840   1.296  0.8167 -0.7657 -0.0514
  644SOL    HW3 2622   2.827   2.779   1.172  0.1079  0.3322 -0.2499
  644SOL    MW4 2623   2.891   2.823   1.211  0.1750  0.2716 -0.2915
  645SOL     OW 2624   2.921   3.087   1.094  0.2891 -0.3795  0.0801
  645SOL    HW2 2625   2.915   3.003   1.139  1.5272 -2.0592 -2.7258
  645SOL    HW3 2626   2.937   3.063   1.002  2.6345  2.9368 -0.4454
  645SOL    MW4 2627   2.923   3.073   1.087  0.7620 -0.1638 -0.3595
  646SOL     OW 2628   2.723   3.228   1.184  0.1463  0.0680 -0.2038
  646SOL    HW2 2629   2.798   3.182   1.148  0.2116  0.4894 -0.6174
  646SOL    HW3 2630   2.647   3.183   1.147  0.1722 -1.1093  1.1583
  646SOL    MW4 2631   2.722   3.216   1.174  0.1583 -0.0317 -0.0786
  647SOL     OW 2632   2.702   3.483   1.104  0.2739  0.1887  0.0055
  647SOL    HW2 2633   2.690   3.391   1.126  0.4043 -0.1714 -1.4007
  647SOL    HW3 2634   2.634   3.529   1.154  2.0168 -0.3328  2.9695
  647SOL    MW4 2635   2.692   3.477   1.113  0.5207  0.0722  0.2110
  648SOL     OW 2636   2.935   3.602   1.203  0.3970  0.2116  0.1320
  648SOL    HW2 2637   3.013   3.549   1.190 -0.7349 -1.4061 -0.2667
  648SOL    HW3 2638   2.864   3.549   1.167 -1.0594  1.1074  1.6176
  648SOL    MW4 2639   2.936   3.588   1.196  0.0556  0.1163  0.2754
  649SOL     OW 2640   2.966   3.883   1.104  0.1496 -0.0828 -0.3065
  649SOL    HW2 2641   3.049   3.907   1.146  0.5812 -0.9916 -0.6313
  649SOL    HW3 2642   2.943   3.800   1.144 -0.6015  0.1632 -0.2304
  649SOL    MW4 2643   2.974   3.875   1.115  0.1075 -0.1702 -0.3394
  650SOL     OW 2644   2.784   4.018   1.249  0.3373  0.4960 -0.0309
  650SOL    HW2 2645   2.858   3.980   1.201  0.0329  0.4235 -0.4370
  650SOL    HW3 2646   2.707   3.974   1.214  0.2168 -0.4507  1.3877
  650SOL    MW4 2647   2.784   4.007   1.238  0.2811  0.3614  0.1028
  651SOL     OW 2648   2.729   4.263   1.107  0.1538 -0.0417  0.3027
  651SOL    HW2 2649   2.751   4.184   1.157 -0.4429 -0.4280 -0.0277
  651SOL    HW3 2650   2.649   4.296   1.149  1.8413  1.8600  2.0659
  651SOL    MW4 2651   2.721   4.257   1.119  0.2975  0.1583  0.4917
  652SOL     OW 2652   2.939   4.412   1.192 -0.2748  0.2010 -0.6387
  652SOL    HW2 2653   3.020   4.361   1.195 -1.0120 -0.9585  0.0949
  652SOL    HW3 2654   2.876   4.355   1.146 -0.9497  0.6891 -0.3328
  652SOL    MW4 2655   2.941   4.398   1.186 -0.4611  0.1121 -0.5015
  653SOL     OW 2656   3.390   0.005   1.091  0.5120  0.0847 -0.0549
  653SOL    HW2 2657   3.468   0.047   1.125  0.3740  1.8446 -1.8209
  653SOL    HW3 2658   3.317   0.051   1.133  0.3793 -1.9344  2.0345
  653SOL    MW4 2659   3.390   0.016   1.101  0.4766  0.0505 -0.0122
  654SOL     OW 2660   3.139   0.104   1.178  0.0343 -0.0762 -0.5006
  654SOL    HW2 2661   3.131   0.114   1.273  1.6824  2.6250 -0.6044
  654SOL    HW3 2662   3.052   0.075   1.150 -0.9598  0.7415  1.6360
  654SOL    MW4 2663   3.126   0.102   1.187  0.1204  0.3880 -0.2323
  655SOL     OW 2664   3.148   0.371   1.112 -0.1426  0.4800 -0.3710
  655SOL    HW2 2665   3.136   0.276   1.116  1.1766  0.3825  3.6340
  655SOL    HW3 2666   3.074   0.407   1.160  0.2194  1.3823 -0.4672
  655SOL    MW4 2667   3.137   0.363   1.119  0.0792  0.5862  0.1448
  656SOL     OW 2668   3.401   0.470   1.216  0.3229 -0.1987 -0.1727
  656SOL    HW2 2669   3.407   0.556   1.175  0.4031 -0.8993 -1.6701
  656SOL    HW3 2670   3.314   0.438   1.193  0.4626 -0.7045 -0.0174
  656SOL    MW4 2671   3.391   0.477   1.207  0.3519 -0.3579 -0.3498
  657SOL     OW 2672   3.405   0.736   1.110 -0.2209 -0.0746  0.2264
  657SOL    HW2 2673   3.321   0.771   1.138 -0.9606 -0.8155 -1.0346
  657SOL    HW3 2674   3.403   0.741   1.014  0.7643 -1.0145  0.1411
  657SOL    MW4 2675   3.394   0.741   1.101 -0.1886 -0.2963  0.0489
  658SOL     OW 2676   3.178   0.861   1.208 -0.2210 -0.4130  0.0510
  658SOL    HW2 2677   3.174   0.871   1.303 -0.9386 -0.3875  0.0178
  658SOL    HW3 2678   3.180   0.950   1.174  1.6042 -0.4205  0.1037
  658SOL    MW4 2679   3.178   0.874   1.216 -0.0749 -0.4106  0.0538
  659SOL     OW 2680   3.158   1.128   1.144 -0.3747  0.1037  0.2270
  659SOL    HW2 2681   3.235   1.177   1.172  0.9657 -1.4494 -0.6172
  659SOL    HW3 2682   3.084   1.179   1.175  0.9932  1.8680  0.6689
  659SOL    MW4 2683   3.159   1.141   1.152 -0.0174  0.1315  0.1739
  660SOL     OW 2684   3.367   1.284   1.219 -0.0934 -0.3220 -0.1882
  660SOL    HW2 2685   3.355   1.290   1.313 -1.5560  1.6297 -0.4748
  660SOL    HW3 2686   3.373   1.375   1.189  0.5631 -0.9175 -1.9551
  660SOL    MW4 2687   3.367   1.297   1.227 -0.1996 -0.1432 -0.4592
  661SOL     OW 2688   3.395   1.570   1.123 -0.1555  0.3356  0.3546
  661SOL    HW2 2689   3.464   1.591   1.185  0.0537  0.7144 -0.0059
  661SOL    HW3 2690   3.321   1.625   1.150  0.1815  1.0632 -0.1915
  661SOL    MW4 2691   3.394   1.580   1.135 -0.0837  0.4817  0.2351
  662SOL     OW 2692   3.128   1.652   1.191 -0.2176 -0.4535 -0.5774
  662SOL    HW2 2693   3.142   1.636   1.284 -0.3091 -1.4939 -0.7277
  662SOL    HW3 2694   3.129   1.747   1.182 -1.4631 -0.3003  0.6792
  662SOL    MW4 2695   3.130   1.662   1.202 -0.3941 -0.5705 -0.4315
  663SOL     OW 2696   3.137   1.924   1.123  0.1903 -0.0640 -0.3020
  663SOL    HW2 2697   3.201   1.985   1.158  0.4173 -0.0547 -0.7282
  663SOL    HW3 2698   3.055   1.974   1.120  0.4128  0.2689 -0.8037
  663SOL    MW4 2699   3.135   1.938   1.127  0.2499 -0.0190 -0.4246
  664SOL     OW 2700   3.363   2.066   1.215 -0.5234  0.4428  0.4036
  664SOL    HW2 2701   3.437   2.012   1.188  0.2480  1.3486  0.6718
  664SOL    HW3 2702   3.378   2.151   1.173 -2.2422  0.1847 -0.8276
  664SOL    MW4 2703   3.375   2.070   1.206 -0.6487  0.5283  0.2766
  665SOL     OW 2704   3.381   2.326   1.095 -0.2137 -0.5593  0.5361
  665SOL    HW2 2705   3.451   2.370   1.143  0.5794 -0.2374 -0.8657
  665SOL    HW3 2706   3.303   2.377   1.114  0.6335  1.2970 -0.7804
  665SOL    MW4 2707   3.380   2.339   1.104  0.0026 -0.2718  0.1774
  666SOL     OW 2708   3.176   2.470   1.199 -0.3440  0.2020 -0.1831
  666SOL    HW2 2709   3.188   2.467   1.294 -0.5638 -1.2902 -0.1918
  666SOL    HW3 2710   3.161   2.563   1.180  0.6589  0.6533  1.1144
  666SOL    MW4 2711   3.176   2.482   1.209 -0.2408  0.0648 -0.0131
  667SOL     OW 2712   3.153   2.733   1.146 -0.0685 -0.5254 -0.0135
  667SOL    HW2 2713   3.072   2.777   1.172 -0.0175 -0.6246  0.3168
  667SOL    HW3 2714   3.147   2.726   1.051 -0.5742 -0.7626  0.0313
  667SOL    MW4 2715   3.141   2.738   1.137 -0.1285 -0.5696  0.0360
  668SOL     OW 2716   3.392   2.864   1.215  0.4421 -0.2193 -0.2112
  668SOL    HW2 2717   3.400   2.935   1.151 -0.7443 -0.7130 -0.9208
  668SOL    HW3 2718   3.310   2.820   1.192  0.4174 -0.9062  1.1490
  668SOL    MW4 2719   3.382   2.868   1.203  0.2823 -0.3750 -0.1254
  669SOL     OW 2720   3.404   3.093   1.069 -0.1988  0.4182 -0.0102
  669SOL    HW2 2721   3.469   3.138   1.123  1.0885 -0.8402 -0.4733
  669SOL    HW3 2722   3.320   3.120   1.106  0.5898  1.5263  1.0435
  669SOL    MW4 2723   3.402   3.103   1.081  0.0751  0.3984  0.0676
  670SOL     OW 2724   3.190   3.203   1.194 -0.3254  0.5318  0.2417
  670SOL    HW2 2725   3.196   3.294   1.166 -0.5562  1.3862  2.7945
  670SOL    HW3 2726   3.102   3.175   1.168 -0.1598  0.9526 -0.7734
  670SOL    MW4 2727   3.179   3.211   1.187 -0.3340  0.7000  0.4447
  671SOL     OW 2728   3.184   3.484   1.145  0.2613 -0.2180 -0.1802
  671SOL    HW2 2729   3.255   3.540   1.176 -1.0675  1.7922 -0.6356
  671SOL    HW3 2730   3.204   3.469   1.053  0.5815 -0.4309 -0.0771
  671SOL    MW4 2731   3.196   3.490   1.137  0.1283  0.0193 -0.2267
  672SOL     OW 2732   3.413   3.645   1.203 -0.0994  0.3705  0.1894
  672SOL    HW2 2733   3.426   3.646   1.298 -0.0939  2.3053  0.1827
  672SOL    HW3 2734   3.484   3.590   1.170  0.1386  0.0131  1.2733
  672SOL    MW4 2735   3.424   3.638   1.212 -0.0675  0.5786  0.3314
  673SOL     OW 2736   3.423   3.883   1.074  0.6263 -0.1017  0.0477
  673SOL    HW2 2737   3.429   3.800   1.121 -0.4961  0.3360  0.9973
  673SOL    HW3 2738   3.354   3.932   1.120 -1.1553 -0.0225 -2.5867
  673SOL    MW4 2739   3.415   3.879   1.086  0.2429 -0.0336 -0.1746
  674SOL     OW 2740   3.199   3.996   1.225 -0.0830  0.3722 -0.1649
  674SOL    HW2 2741   3.180   3.989   1.318 -0.4835  0.8390 -0.2111
  674SOL    HW3 2742   3.200   4.090   1.207 -0.0372  0.2870 -0.6399
  674SOL    MW4 2743   3.197   4.008   1.235 -0.1299  0.4225 -0.2337
  675SOL     OW 2744   3.171   4.277   1.162 -0.0059 -0.5176 -0.1795
  675SOL    HW2 2745   3.242   4.340   1.176  0.8067 -1.2483 -0.9296
  675SOL    HW3 2746   3.166   4.267   1.067 -0.9012 -0.7163 -0.1184
  675SOL    MW4 2747   3.179   4.284   1.151 -0.0169 -0.6399 -0.2704
  676SOL     OW 2748   3.386   4.421   1.220  0.1855  0.0092 -0.1974
  676SOL    HW2 2749   3.454   4.361   1.190 -1.1285 -1.5473 -0.1547
  676SOL    HW3 2750   3.389   4.494   1.159  1.8056 -0.0989 -0.2676
  676SOL    MW4 2751   3.395   4.422   1.208  0.2260 -0.2103 -0.2010
  677SOL     OW 2752   3.855   4.650   1.083  0.2573 -0.6845  0.2338
  677SOL    HW2 2753   3.859   4.556   1.102  1.6672 -0.9459 -1.2626
  677SOL    HW3 2754   3.843   4.655   0.989 -1.3397  0.6476  0.4853
  677SOL    MW4 2755   3.854   4.638   1.073  0.2325 -0.5431  0.0695
  678SOL     OW 2756   3.621   0.094   1.201 -0.0883 -0.3473  0.1357
  678SOL    HW2 2757   3.625   0.186   1.173 -0.6191  0.0737  1.4018
  678SOL    HW3 2758   3.686   0.050   1.148  2.3227  1.3136  1.6097
  678SOL    MW4 2759   3.630   0.100   1.190  0.1600 -0.0726  0.4973
  679SOL     OW 2760   3.605   0.351   1.094 -0.2388 -0.7397 -0.3837
  679SOL    HW2 2761   3.667   0.403   1.144  0.3001 -1.5337 -0.2138
  679SOL    HW3 2762   3.519   0.380   1.124  0.0551  0.1676 -0.4198
  679SOL    MW4 2763   3.602   0.362   1.104 -0.1287 -0.7247 -0.3661
  680SOL     OW 2764   3.803   0.510   1.215  0.3755 -0.0830 -0.1722
  680SOL    HW2 2765   3.893   0.480   1.201  0.8903  1.4722 -0.2178
  680SOL    HW3 2766   3.798   0.595   1.172 -0.6957  0.5038  1.0531
  680SOL    MW4 2767   3.814   0.517   1.208  0.3018  0.1996 -0.0167
  681SOL     OW 2768   3.810   0.749   1.083  0.2362  0.1297  0.2712
  681SOL    HW2 2769   3.880   0.804   1.119  0.3035 -0.8154  1.5973
  681SOL    HW3 2770   3.729   0.790   1.113  0.1333  1.8456 -2.1449
  681SOL    MW4 2771   3.809   0.762   1.092  0.2313  0.2314  0.1274
  682SOL     OW 2772   3.610   0.892   1.218 -0.4241 -0.6660 -0.2768
  682SOL    HW2 2773   3.590   0.966   1.161  0.2384  0.4921  0.9445
  682SOL    HW3 2774   3.538   0.830   1.204 -2.3363  1.3209  0.5333
  682SOL    MW4 2775   3.598   0.893   1.209 -0.5887 -0.2511 -0.0088
  683SOL     OW 2776   3.593   1.182   1.119 -0.1240 -0.3667 -0.5684
  683SOL    HW2 2777   3.661   1.210   1.180  0.0448 -0.8983 -0.5184
  683SOL    HW3 2778   3.512   1.216   1.157 -0.1107 -1.3604  0.3539
  683SOL    MW4 2779   3.591   1.190   1.132 -0.1001 -0.5678 -0.4400
  684SOL     OW 2780   3.804   1.265   1.257 -0.0977  0.4316  0.1954
  684SOL    HW2 2781   3.805   1.273   1.353 -1.9510  1.5414  0.1406
  684SOL    HW3 2782   3.800   1.355   1.226  1.1963  0.1054 -0.9698
  684SOL    MW4 2783   3.803   1.278   1.266 -0.1714  0.5349  0.0343
  685SOL     OW 2784   3.805   1.525   1.160  0.4827 -0.1885  0.1716
  685SOL    HW2 2785   3.881   1.567   1.201 -0.4788  1.9088 -0.1254
  685SOL    HW3 2786   3.819   1.537   1.066  1.0378 -2.0821 -0.0135
  685SOL    MW4 2787   3.817   1.532   1.153  0.4292 -0.1615  0.1081
  686SOL     OW 2788   3.602   1.683   1.261 -0.1056  0.1361 -0.2202
  686SOL    HW2 2789   3.612   1.767   1.217  1.4883  0.5050  0.8117
  686SOL    HW3 2790   3.676   1.631   1.231  0.1178 -0.1543  0.8199
  686SOL    MW4 2791   3.613   1.687   1.251  0.1345  0.1465  0.0532
  687SOL     OW 2792   3.598   1.945   1.154 -0.4834  0.2047 -0.0621
  687SOL    HW2 2793   3.674   1.988   1.194 -1.1123  1.5223 -0.2597
  687SOL    HW3 2794   3.617   1.948   1.060 -0.7177  0.4134 -0.1021
  687SOL    MW4 2795   3.611   1.951   1.147 -0.5972  0.4061 -0.0936
  688SOL     OW 2796   3.818   2.070   1.258 -0.5993 -0.2584  0.3136
  688SOL    HW2 2797   3.833   2.079   1.352  1.4785  0.1626 -0.0216
  688SOL    HW3 2798   3.897   2.027   1.225 -0.8138  0.5804 -1.3890
  688SOL    MW4 2799   3.831   2.066   1.266 -0.3533 -0.0923  0.0447
  689SOL     OW 2800   3.832   2.321   1.137  0.0745  0.3282  0.2692
  689SOL    HW2 2801   3.913   2.361   1.166  0.1727  0.4429 -0.1596
  689SOL    HW3 2802   3.823   2.242   1.191  0.0756  0.7220  0.8461
  689SOL    MW4 2803   3.841   2.316   1.148  0.0880  0.3951  0.2887
  690SOL     OW 2804   3.601   2.447   1.201  0.1831 -0.0719 -0.6215
  690SOL    HW2 2805   3.604   2.445   1.297  0.8280  2.0032 -0.5642
  690SOL    HW3 2806   3.679   2.399   1.174  0.8833  0.7165 -0.0558
  690SOL    MW4 2807   3.612   2.440   1.210  0.3607  0.3059 -0.5393
  691SOL     OW 2808   3.596   2.712   1.108  0.9658  0.1866  0.3150
  691SOL    HW2 2809   3.588   2.625   1.149  1.1563 -0.7718 -1.6253
  691SOL    HW3 2810   3.524   2.762   1.146  0.8831 -0.7885  1.5086
  691SOL    MW4 2811   3.585   2.707   1.119  0.9801 -0.0687  0.2166
  692SOL     OW 2812   3.833   2.825   1.204  0.2360 -0.6132 -0.1188
  692SOL    HW2 2813   3.828   2.817   1.299  1.0617  1.0014  0.0770
  692SOL    HW3 2814   3.748   2.795   1.173 -0.3102 -0.4583  1.1811
  692SOL    MW4 2815   3.821   2.820   1.213  0.2730 -0.3798  0.0787
  693SOL     OW 2816   3.863   3.113   1.129 -0.0765 -0.2766  0.4448
  693SOL    HW2 2817   3.872   3.018   1.140  2.6959 -0.4092 -2.0508
  693SOL    HW3 2818   3.847   3.124   1.035 -1.4586  1.6835  0.8844
  693SOL    MW4 2819   3.862   3.102   1.118  0.1068 -0.0355  0.1736
  694SOL     OW 2820   3.612   3.217   1.214 -0.1193  0.1777  0.3390
  694SOL    HW2 2821   3.604   3.304   1.174  1.6960  0.6548  0.9706
  694SOL    HW3 2822   3.698   3.185   1.187  0.2533 -0.3738  2.0930
  694SOL    MW4 2823   3.622   3.225   1.206  0.1695  0.1681  0.6537
  695SOL     OW 2824   3.612   3.480   1.110  0.0480 -0.5113 -0.2600
  695SOL    HW2 2825   3.684   3.538   1.135 -0.9800  1.0518 -0.8529
  695SOL    HW3 2826   3.610   3.484   1.014  0.2662 -1.9096 -0.3345
  695SOL    MW4 2827   3.621   3.488   1.100 -0.0589 -0.4895 -0.3482
  696SOL     OW 2828   3.830   3.608   1.225  0.0394 -0.4244 -0.3184
  696SOL    HW2 2829   3.798   3.606   1.315 -1.6825  0.4032 -0.8873
  696SOL    HW3 2830   3.835   3.701   1.203 -1.0041 -0.6445 -1.5684
  696SOL    MW4 2831   3.827   3.620   1.234 -0.3254 -0.3443 -0.5586
  697SOL     OW 2832   3.903   3.885   1.121 -0.0701 -0.5506 -0.1393
  697SOL    HW2 2833   3.823   3.930   1.144 -0.9155 -1.3768 -1.3525
  697SOL    HW3 2834   3.907   3.891   1.025  0.3388 -2.0873 -0.2453
  697SOL    MW4 2835   3.893   3.892   1.111 -0.1278 -0.8621 -0.3133
  698SOL     OW 2836   3.656   3.986   1.203  0.5693  0.2394 -0.1711
  698SOL    HW2 2837   3.628   3.979   1.294  0.1843  1.7734 -0.1592
  698SOL    HW3 2838   3.595   3.932   1.154  0.5739 -0.3219  0.4484
  698SOL    MW4 2839   3.644   3.978   1.209  0.5190  0.3679 -0.0876
  699SOL     OW 2840   3.597   4.260   1.130  0.1139  0.1529  0.6676
  699SOL    HW2 2841   3.593   4.165   1.145 -1.6033 -0.0083 -0.5981
  699SOL    HW3 2842   3.622   4.268   1.038 -1.3182  0.8785  0.3225
  699SOL    MW4 2843   3.600   4.248   1.120 -0.3016  0.2275  0.4551
  700SOL     OW 2844   3.847   4.374   1.206 -0.1429 -0.1168  0.2053
  700SOL    HW2 2845   3.849   4.381   1.301 -1.1565 -0.5276  0.2625
  700SOL    HW3 2846   3.759   4.343   1.186 -0.1936  0.7101 -0.9109
  700SOL    MW4 2847   3.836   4.371   1.216 -0.2832 -0.0625  0.0656
  701SOL     OW 2848   4.316   4.625   1.042 -0.1492 -0.3999 -0.0489
  701SOL    HW2 2849   4.325   4.540   1.085  1.4584  0.4562  1.3672
  701SOL    HW3 2850   4.231   4.658   1.071 -0.9863 -1.6888 -0.9632
  701SOL    MW4 2851   4.306   4.618   1.051 -0.0472 -0.4568  0.0172
  702SOL     OW 2852   4.083   0.108   1.159 -0.3790  0.1935 -0.0841
  702SOL    HW2 2853   4.077   0.096   1.254  2.3430  0.3614  0.1456
  702SOL    HW3 2854   4.016   0.049   1.124 -0.2243 -1.2249  1.8607
  702SOL    MW4 2855   4.073   0.098   1.167  0.0005  0.0285  0.2028
  703SOL     OW 2856   4.050   0.405   1.151  0.1496  0.0749  0.3129
  703SOL    HW2 2857   4.042   0.310   1.156 -0.3583  0.0860 -0.2932
  703SOL    HW3 2858   4.064   0.423   1.058 -1.6279  0.7308  0.1542
  703SOL    MW4 2859   4.051   0.395   1.140 -0.1521  0.1629  0.2121
  704SOL     OW 2860   4.275   0.512   1.245 -0.1544 -0.5567 -0.0407
  704SOL    HW2 2861   4.284   0.490   1.338  1.5673 -0.9368 -0.2759
  704SOL    HW3 2862   4.198   0.463   1.216 -0.8221 -0.2674  1.2342
  704SOL    MW4 2863   4.266   0.502   1.253 -0.0153 -0.5687  0.0966
  705SOL     OW 2864   4.269   0.764   1.145 -0.3071 -0.3781 -0.0585
  705SOL    HW2 2865   4.262   0.678   1.187 -0.5762 -1.0701 -1.5057
  705SOL    HW3 2866   4.287   0.744   1.053 -0.9391  1.1024 -0.5067
  705SOL    MW4 2867   4.270   0.750   1.139 -0.4263 -0.2741 -0.3086
  706SOL     OW 2868   4.022   0.894   1.226  0.2181  0.1862  0.0049
  706SOL    HW2 2869   4.020   0.886   1.321  0.7656 -1.3750 -0.1059
  706SOL    HW3 2870   4.105   0.854   1.200 -1.0416 -1.6519 -1.3245
  706SOL    MW4 2871   4.033   0.888   1.235  0.1240 -0.2623 -0.1851
  707SOL     OW 2872   4.029   1.149   1.174  0.4059  0.0199 -0.1496
  707SOL    HW2 2873   4.021   1.056   1.195 -0.2543  0.1506  0.1655
  707SOL    HW3 2874   3.950   1.189   1.209  0.8419  0.7564  0.0049
  707SOL    MW4 2875   4.018   1.142   1.181  0.3762  0.1342 -0.0876
  708SOL     OW 2876   4.300   1.279   1.251  0.2149 -0.1425  0.2767
  708SOL    HW2 2877   4.317   1.282   1.345  0.1389  0.8349  0.2669
  708SOL    HW3 2878   4.215   1.236   1.243 -0.2624  0.7023  0.7276
  708SOL    MW4 2879   4.291   1.274   1.262  0.1416  0.0978  0.3349
  709SOL     OW 2880   4.280   1.522   1.141  0.3710 -0.9714 -0.0946
  709SOL    HW2 2881   4.286   1.436   1.182  1.2626 -0.5529  0.6577
  709SOL    HW3 2882   4.349   1.573   1.182  0.0573  0.0102 -0.7781
  709SOL    MW4 2883   4.290   1.517   1.152  0.4473 -0.7867 -0.0856
  710SOL     OW 2884   4.049   1.653   1.238 -0.1489  0.5321 -0.1150
  710SOL    HW2 2885   4.052   1.674   1.331  0.2467 -1.2561  0.2906
  710SOL    HW3 2886   4.134   1.612   1.219 -0.8326 -0.5646 -0.8952
  710SOL    MW4 2887   4.061   1.651   1.247 -0.1869  0.1515 -0.1645
  711SOL     OW 2888   4.032   1.918   1.171  0.3934  0.0299 -0.1246
  711SOL    HW2 2889   4.034   1.824   1.187 -0.4171  0.2670  1.4338
  711SOL    HW3 2890   4.053   1.926   1.078 -0.0331 -1.7242 -0.4069
  711SOL    MW4 2891   4.035   1.906   1.161  0.2308 -0.1701  0.0437
  712SOL     OW 2892   4.250   2.074   1.285 -0.8513  0.2262 -0.4552
  712SOL    HW2 2893   4.261   2.142   1.219 -0.6409  0.3063 -0.3366
  712SOL    HW3 2894   4.182   2.016   1.249 -0.1931 -0.1526 -1.0801
  712SOL    MW4 2895   4.242   2.075   1.272 -0.7367  0.1867 -0.5220
  713SOL     OW 2896   4.278   2.297   1.122  0.1757 -0.1510  0.2822
  713SOL    HW2 2897   4.200   2.348   1.146 -0.2059 -0.4449 -0.3233
  713SOL    HW3 2898   4.289   2.313   1.029 -0.3372 -1.7124 -0.0523
  713SOL    MW4 2899   4.269   2.306   1.113  0.0577 -0.3958  0.1581
  714SOL     OW 2900   4.065   2.429   1.224 -0.8722 -0.2243 -0.5834
  714SOL    HW2 2901   4.086   2.422   1.317  1.3039 -1.2754 -1.1084
  714SOL    HW3 2902   4.060   2.523   1.207  0.4863  0.0053  0.2362
  714SOL    MW4 2903   4.067   2.441   1.234 -0.4058 -0.3326 -0.5447
  715SOL     OW 2904   4.065   2.700   1.152 -0.1880  0.0120  0.6513
  715SOL    HW2 2905   3.987   2.742   1.188 -0.1937  0.8003 -0.2734
  715SOL    HW3 2906   4.045   2.685   1.060 -0.1581 -1.9908  0.9330
  715SOL    MW4 2907   4.052   2.703   1.145 -0.1855 -0.1483  0.5664
  716SOL     OW 2908   4.301   2.841   1.236  0.0065  0.1460  0.1301
  716SOL    HW2 2909   4.303   2.931   1.203  1.7482  0.4487  0.9867
  716SOL    HW3 2910   4.220   2.804   1.200 -1.2866  2.3726  0.6458
  716SOL    MW4 2911   4.291   2.848   1.227  0.0658  0.4797  0.3111
  717SOL     OW 2912   4.332   3.096   1.129 -0.3865 -0.3596  0.3742
  717SOL    HW2 2913   4.257   3.143   1.166  1.1089  1.6308  0.9888
  717SOL    HW3 2914   4.331   3.119   1.037 -0.0557  0.3438  0.5429
  717SOL    MW4 2915   4.322   3.106   1.122 -0.1454 -0.0043  0.4776
  718SOL     OW 2916   4.095   3.211   1.221 -0.0834  0.3279  0.2832
  718SOL    HW2 2917   4.087   3.208   1.317  1.6431 -0.4054  0.4233
  718SOL    HW3 2918   4.014   3.172   1.189 -0.1880 -0.4811  1.4904
  718SOL    MW4 2919   4.083   3.205   1.230  0.1307  0.1242  0.4610
  719SOL     OW 2920   4.069   3.466   1.118 -0.2503  0.5023 -0.2925
  719SOL    HW2 2921   4.073   3.384   1.167  1.6497  0.6397 -0.1775
  719SOL    HW3 2922   3.986   3.505   1.143 -1.1644 -1.3588 -0.3152
  719SOL    MW4 2923   4.059   3.460   1.127 -0.1202  0.2749 -0.2804
  720SOL     OW 2924   4.267   3.601   1.229 -0.4249  0.0798  0.2123
  720SOL    HW2 2925   4.192   3.553   1.194 -0.8862  0.9035  0.0552
  720SOL    HW3 2926   4.343   3.558   1.190 -0.9574  1.7900 -2.9163
  720SOL    MW4 2927   4.267   3.589   1.219 -0.5560  0.4141 -0.2211
  721SOL     OW 2928   4.304   3.845   1.079 -0.1361 -0.1198 -0.3599
  721SOL    HW2 2929   4.235   3.896   1.121 -0.8518 -0.4746 -1.0697
  721SOL    HW3 2930   4.308   3.764   1.128 -0.6118 -0.3220 -0.6501
  721SOL    MW4 2931   4.296   3.841   1.091 -0.2937 -0.1934 -0.4919
  722SOL     OW 2932   4.104   4.030   1.232 -0.0676 -0.0163  0.3735
  722SOL    HW2 2933   4.085   4.121   1.208 -0.3907 -0.1125  0.2616
  722SOL    HW3 2934   4.029   3.981   1.198 -0.8252 -0.0732  2.0983
  722SOL    MW4 2935   4.091   4.036   1.224 -0.2103 -0.0362  0.5863
  723SOL     OW 2936   4.078   4.290   1.139 -0.2040  0.0385 -0.2577
  723SOL    HW2 2937   3.990   4.325   1.156 -0.7521 -1.1022 -0.7309
  723SOL    HW3 2938   4.075   4.262   1.048  0.3374 -0.9067  0.0087
  723SOL    MW4 2939   4.066   4.291   1.130 -0.2046 -0.2365 -0.2850
  724SOL     OW 2940   4.336   4.384   1.193 -0.2912 -0.3382  0.4003
  724SOL    HW2 2941   4.264   4.326   1.169  0.1009 -0.5538 -0.2551
  724SOL    HW3 2942   4.413   4.348   1.149 -0.6276  2.4782 -2.7161
  724SOL    MW4 2943   4.337   4.372   1.184 -0.2837  0.0048 -0.0974
  725SOL     OW 2944   0.234   4.651   1.623 -0.4468  0.2951  0.3164
  725SOL    HW2 2945   0.319   4.691   1.603  0.6934 -1.5722  1.3816
  725SOL    HW3 2946   0.170   4.710   1.581  1.4035  1.1732 -1.3721
  725SOL    MW4 2947   0.237   4.664   1.615 -0.0523  0.1650  0.2342
  726SOL     OW 2948   0.027   0.120   1.489  0.3970 -0.5126 -0.3734
  726SOL    HW2 2949  -0.058   0.100   1.527  0.1816  0.5103 -0.3047
  726SOL    HW3 2950   0.019   0.096   1.397  0.3100 -1.2257 -0.1768
  726SOL    MW4 2951   0.015   0.115   1.482  0.3571 -0.4717 -0.3383
  727SOL     OW 2952   0.072   0.355   1.627  0.2099  0.1526 -0.4382
  727SOL    HW2 2953   0.046   0.339   1.717  0.7383  0.7268 -0.1819
  727SOL    HW3 2954   0.068   0.268   1.585  0.0551 -0.1275  0.1573
  727SOL    MW4 2955   0.068   0.341   1.633  0.2592  0.1914 -0.3259
  728SOL     OW 2956   0.266   0.500   1.483 -0.6216  0.4122  0.2882
  728SOL    HW2 2957   0.209   0.433   1.522 -0.0197  0.3634  1.0988
  728SOL    HW3 2958   0.244   0.499   1.390 -0.7704 -0.7658  0.3310
  728SOL    MW4 2959   0.256   0.491   1.476 -0.5618  0.2503  0.4009
  729SOL     OW 2960   0.213   0.733   1.618  0.9991 -0.1856 -0.3572
  729SOL    HW2 2961   0.276   0.794   1.580  0.2032 -0.3995 -2.0577
  729SOL    HW3 2962   0.235   0.648   1.579 -0.0914 -0.3371 -0.6544
  729SOL    MW4 2963   0.224   0.730   1.608  0.7502 -0.2339 -0.6207
  730SOL     OW 2964   4.477   0.897   1.544 -0.2798  0.2021 -0.0196
  730SOL    HW2 2965   4.498   0.981   1.585 -2.1932  1.0201 -0.6601
  730SOL    HW3 2966   4.544   0.836   1.577  1.0954  1.9576  0.4660
  730SOL    MW4 2967   4.489   0.900   1.554 -0.3510  0.5416 -0.0402
  731SOL     OW 2968   0.027   1.139   1.673  0.3297 -0.3546 -0.4126
  731SOL    HW2 2969   0.043   1.129   1.767 -0.3327  1.0743 -0.1434
  731SOL    HW3 2970   0.097   1.197   1.643  0.8500 -1.2246 -0.9130
  731SOL    MW4 2971   0.039   1.145   1.682  0.3109 -0.2810 -0.4431
  732SOL     OW 2972   0.235   1.277   1.552 -0.0493 -0.6145 -0.1826
  732SOL    HW2 2973   0.243   1.368   1.580  0.4468 -0.8379  0.4251
  732SOL    HW3 2974   0.238   1.281   1.456 -1.0552  0.0960 -0.1865
  732SOL    MW4 2975   0.236   1.290   1.543 -0.1166 -0.5504 -0.1030
  733SOL     OW 2976   0.229   1.551   1.611 -0.9614 -0.2089  0.2728
  733SOL    HW2 2977   0.227   1.541   1.706 -1.0202  0.6947  0.3730
  733SOL    HW3 2978   0.141   1.581   1.588 -1.1777 -1.1655 -0.1545
  733SOL    MW4 2979   0.217   1.554   1.621 -0.9977 -0.2158  0.2296
  734SOL     OW 2980   4.477   1.664   1.522 -0.2886 -0.0523  0.1880
  734SOL    HW2 2981   4.496   1.752   1.555  1.5228 -0.6081  0.7168
  734SOL    HW3 2982   4.485   1.672   1.427  3.4070 -0.3611  0.3944
  734SOL    MW4 2983   4.481   1.677   1.514  0.4379 -0.1663  0.2849
  735SOL     OW 2984   0.034   1.903   1.625  0.1503  0.0846  0.2836
  735SOL    HW2 2985   0.012   1.896   1.718 -0.1415  0.2587  0.2302
  735SOL    HW3 2986  -0.041   1.949   1.587 -0.5258 -1.4918 -0.3427
  735SOL    MW4 2987   0.021   1.908   1.632  0.0226 -0.1004  0.1940
  736SOL     OW 2988   0.255   2.042   1.525 -0.1929  0.3643 -0.1003
  736SOL    HW2 2989   0.171   2.006   1.555 -0.6168  1.0690 -0.4390
  736SOL    HW3 2990   0.247   2.044   1.430  0.3136  0.1935 -0.1477
  736SOL    MW4 2991   0.243   2.037   1.517 -0.1820  0.4346 -0.1512
  737SOL     OW 2992   0.222   2.315   1.608 -0.2052  0.0735  0.1500
  737SOL    HW2 2993   0.237   2.310   1.703  0.2909  0.8900  0.1198
  737SOL    HW3 2994   0.250   2.230   1.575 -0.2800 -0.1781  0.7232
  737SOL    MW4 2995   0.228   2.303   1.616 -0.1496  0.1481  0.2216
  738SOL     OW 2996   0.026   2.459   1.500 -0.1203  0.4491 -0.6087
  738SOL    HW2 2997  -0.053   2.419   1.536  0.6127 -0.0693  0.4414
  738SOL    HW3 2998   0.098   2.410   1.539  0.7376  1.3646 -1.0191
  738SOL    MW4 2999   0.025   2.448   1.510  0.0896  0.5012 -0.5243
  739SOL     OW 3000   0.021   2.714   1.621 -0.0160 -0.3470  0.3056
  739SOL    HW2 3001  -0.054   2.753   1.577  1.2022  0.4468 -1.0838
  739SOL    HW3 3002   0.024   2.625   1.588 -0.8138 -0.6429  0.9871
  739SOL    MW4 3003   0.011   2.708   1.611  0.0394 -0.2816  0.2121
  740SOL     OW 3004   0.229   2.835   1.494 -0.6997 -0.7521 -0.2697
  740SOL    HW2 3005   0.301   2.789   1.537 -0.0876 -0.3973 -0.9219
  740SOL    HW3 3006   0.150   2.793   1.529 -0.1605 -1.8043 -0.3001
  740SOL    MW4 3007   0.228   2.823   1.505 -0.5478 -0.8442 -0.3598
  741SOL     OW 3008   0.236   3.088   1.613  0.2315 -0.3931 -0.0898
  741SOL    HW2 3009   0.160   3.130   1.573  2.3248  1.1679 -2.5407
  741SOL    HW3 3010   0.245   3.005   1.565 -0.1048 -0.7528  0.4536
  741SOL    MW4 3011   0.227   3.082   1.601  0.4634 -0.2348 -0.3414
  742SOL     OW 3012   0.037   3.219   1.496  0.0097 -0.1953 -0.3667
  742SOL    HW2 3013   0.020   3.305   1.536  2.5017  0.2686 -0.1886
  742SOL    HW3 3014   0.063   3.240   1.406  0.3613 -0.7815 -0.4028
  742SOL    MW4 3015   0.039   3.233   1.489  0.3853 -0.2115 -0.3480
  743SOL     OW 3016   0.011   3.459   1.617  0.2888  0.3567 -0.8026
  743SOL    HW2 3017  -0.008   3.467   1.710 -1.1004  0.7464 -1.1094
  743SOL    HW3 3018  -0.066   3.494   1.573  1.0172  0.3844 -2.1064
  743SOL    MW4 3019  -0.001   3.465   1.623  0.2012  0.4117 -1.0151
  744SOL     OW 3020   0.220   3.601   1.483 -0.0345 -0.0265  0.3742
  744SOL    HW2 3021   0.205   3.693   1.505 -0.4499  0.3862 -1.5576
  744SOL    HW3 3022   0.154   3.554   1.533  0.3949  0.6719  1.6428
  744SOL    MW4 3023   0.210   3.607   1.493 -0.0326  0.1202  0.2867
  745SOL     OW 3024   0.455   3.989   1.541 -0.1541  0.5802  0.3044
  745SOL    HW2 3025   0.540   3.953   1.567 -0.7034  0.5392  2.1308
  745SOL    HW3 3026   0.461   3.999   1.446  1.5306 -0.3534  0.2914
  745SOL    MW4 3027   0.467   3.986   1.532 -0.0043  0.4516  0.5436
  746SOL     OW 3028   4.475   4.017   1.479  0.0619 -0.2566  0.5866
  746SOL    HW2 3029   4.491   4.106   1.511 -1.5375 -0.4136  1.8647
  746SOL    HW3 3030   4.555   3.970   1.500  0.5113  0.6158  0.8776
  746SOL    MW4 3031   4.487   4.023   1.486 -0.0896 -0.1631  0.7937
  747SOL     OW 3032   0.032   4.265   1.576  0.1826  0.3314  0.1563
  747SOL    HW2 3033   0.028   4.251   1.671 -0.0757  0.9901  0.2453
  747SOL    HW3 3034  -0.042   4.322   1.558 -0.5100 -0.7973 -0.6268
  747SOL    MW4 3035   0.022   4.270   1.586  0.0572  0.2694  0.0645
  748SOL     OW 3036   0.267   4.394   1.533 -0.6036  0.2012 -0.5847
  748SOL    HW2 3037   0.179   4.358   1.544  0.0702 -0.9690  1.0773
  748SOL    HW3 3038   0.258   4.487   1.553 -1.3976  0.0252 -0.1353
  748SOL    MW4 3039   0.254   4.402   1.537 -0.6195  0.0234 -0.3060
  749SOL     OW 3040   0.653   4.613   1.635  0.3840  0.6230  0.5013
  749SOL    HW2 3041   0.738   4.648   1.608  0.6848  0.5855  1.3947
  749SOL    HW3 3042   0.589   4.663   1.584  0.9599  0.3034 -0.5603
  749SOL    MW4 3043   0.656   4.624   1.625  0.4997  0.5755  0.4791
  750SOL     OW 3044   0.467   0.102   1.508  0.2139 -0.1462 -0.1438
  750SOL    HW2 3045   0.460   0.189   1.547 -0.4032 -0.0722 -0.4218
  750SOL    HW3 3046   0.419   0.108   1.425 -0.5383 -0.9732  0.2223
  750SOL    MW4 3047   0.459   0.114   1.502  0.0333 -0.2455 -0.1323
  751SOL     OW 3048   0.480   0.375   1.600  0.3496  0.5055 -0.2221
  751SOL    HW2 3049   0.559   0.417   1.565  0.5171  0.0091 -0.4404
  751SOL    HW3 3050   0.408   0.418   1.553  0.5229  0.5081 -0.4865
  751SOL    MW4 3051   0.481   0.386   1.589  0.3946  0.4404 -0.2855
  752SOL     OW 3052   0.708   0.503   1.537  0.0017 -0.3717  0.6178
  752SOL    HW2 3053   0.716   0.595   1.563 -0.3816 -0.1506 -0.0535
  752SOL    HW3 3054   0.701   0.505   1.442 -1.8403 -0.9729  0.7283
  752SOL    MW4 3055   0.708   0.516   1.528 -0.2919 -0.4219  0.5438
  753SOL     OW 3056   0.705   0.763   1.590 -0.0390 -0.1813 -0.2192
  753SOL    HW2 3057   0.688   0.765   1.684  1.1745 -0.5423  0.0181
  753SOL    HW3 3058   0.776   0.826   1.577  0.4041 -0.7863 -0.7667
  753SOL    MW4 3059   0.712   0.772   1.600  0.1796 -0.3088 -0.2601
  754SOL     OW 3060   0.477   0.881   1.504 -0.5884  0.2744 -0.2796
  754SOL    HW2 3061   0.489   0.956   1.562 -0.8106  1.3227 -1.5583
  754SOL    HW3 3062   0.547   0.821   1.527 -1.6411 -0.0553  2.1835
  754SOL    MW4 3063   0.488   0.883   1.515 -0.7566  0.3693 -0.1234
  755SOL     OW 3064   0.459   1.129   1.655 -0.1061 -0.0724 -0.0042
  755SOL    HW2 3065   0.523   1.199   1.643 -0.6904  1.0804  3.0399
  755SOL    HW3 3066   0.384   1.154   1.602  0.6596  0.3082 -0.9106
  755SOL    MW4 3067   0.458   1.141   1.647 -0.0822  0.1301  0.2779
  756SOL     OW 3068   0.655   1.323   1.575  0.6289 -0.1042 -0.1903
  756SOL    HW2 3069   0.660   1.416   1.599  1.5801 -0.2559  0.2385
  756SOL    HW3 3070   0.667   1.322   1.480  3.3462  0.0350  0.0939
  756SOL    MW4 3071   0.657   1.336   1.566  1.1129 -0.1057 -0.0963
  757SOL     OW 3072   0.694   1.591   1.661  0.0745  0.3049  0.3358
  757SOL    HW2 3073   0.764   1.616   1.602  1.6792 -1.4804  1.4303
  757SOL    HW3 3074   0.615   1.628   1.622  1.3824  0.9048 -1.8015
  757SOL    MW4 3075   0.693   1.600   1.648  0.4588  0.1485  0.1981
  758SOL     OW 3076   0.472   1.686   1.533 -0.8195  0.0230  0.0811
  758SOL    HW2 3077   0.460   1.773   1.571 -1.2375  0.6308 -1.4390
  758SOL    HW3 3078   0.397   1.635   1.566 -0.0545 -0.0541  1.7502
  758SOL    MW4 3079   0.460   1.691   1.543 -0.7737  0.0931  0.1006
  759SOL     OW 3080   0.483   1.947   1.625 -0.2511 -0.2327  0.0247
  759SOL    HW2 3081   0.466   1.925   1.717  0.5642  1.5087  0.5999
  759SOL    HW3 3082   0.398   1.975   1.591  0.0170  1.9429  1.0641
  759SOL    MW4 3083   0.469   1.948   1.633 -0.1082  0.2842  0.2377
  760SOL     OW 3084   0.685   2.054   1.498 -0.3316  0.1721  0.4532
  760SOL    HW2 3085   0.769   2.018   1.527  0.3567 -0.1023 -1.8073
  760SOL    HW3 3086   0.620   1.997   1.539  0.5498  0.6130  2.5446
  760SOL    MW4 3087   0.688   2.042   1.508 -0.1245  0.1941  0.4307
  761SOL     OW 3088   0.674   2.317   1.592 -0.5042  0.2460  0.0816
  761SOL    HW2 3089   0.595   2.366   1.567  0.0444  0.5945 -1.0195
  761SOL    HW3 3090   0.657   2.227   1.563 -0.7110  0.2047  0.3288
  761SOL    MW4 3091   0.661   2.312   1.585 -0.4591  0.2863 -0.0310
  762SOL     OW 3092   0.449   2.454   1.520 -0.0060 -0.1239  0.5192
  762SOL    HW2 3093   0.447   2.549   1.530  1.4708 -0.1160  0.8183
  762SOL    HW3 3094   0.360   2.426   1.540 -0.7301  1.2990 -0.6563
  762SOL    MW4 3095   0.437   2.463   1.524  0.0933  0.0651  0.4035
  763SOL     OW 3096   0.460   2.719   1.598 -0.0050 -0.0233  0.5992
  763SOL    HW2 3097   0.458   2.717   1.694 -1.0262  0.9522  0.6155
  763SOL    HW3 3098   0.540   2.766   1.576 -0.1613  0.4417  1.0012
  763SOL    MW4 3099   0.470   2.725   1.608 -0.1604  0.1664  0.6543
  764SOL     OW 3100   0.689   2.844   1.525  0.2758  0.0537  0.3950
  764SOL    HW2 3101   0.685   2.929   1.570 -0.5402 -0.2146  0.8498
  764SOL    HW3 3102   0.676   2.865   1.433 -0.6331  0.3573  0.5868
  764SOL    MW4 3103   0.687   2.858   1.519  0.0483  0.0582  0.4802
  765SOL     OW 3104   0.697   3.104   1.616  0.3560 -0.2234  0.0898
  765SOL    HW2 3105   0.764   3.139   1.558  1.4606  0.1551  1.5893
  765SOL    HW3 3106   0.618   3.152   1.593  0.6437 -0.4686 -1.4844
  765SOL    MW4 3107   0.695   3.115   1.605  0.5397 -0.2058  0.0800
  766SOL     OW 3108   0.460   3.253   1.535  0.2776 -0.0829  0.1372
  766SOL    HW2 3109   0.387   3.203   1.572  0.3656 -0.8068 -0.6667
  766SOL    HW3 3110   0.458   3.233   1.441  1.7638 -0.4410  0.1722
  766SOL    MW4 3111   0.450   3.244   1.528  0.4853 -0.2255  0.0358
  767SOL     OW 3112   0.469   3.543   1.597 -0.3255 -0.2342 -0.2661
  767SOL    HW2 3113   0.471   3.448   1.587 -0.6457 -0.3522  0.8189
  767SOL    HW3 3114   0.383   3.569   1.563  0.0999 -0.2379 -1.3605
  767SOL    MW4 3115   0.458   3.534   1.591 -0.3116 -0.2503 -0.2673
  768SOL     OW 3116   0.695   3.637   1.465  0.0130 -0.4440 -0.5919
  768SOL    HW2 3117   0.763   3.593   1.515 -0.1634  0.4550  0.4553
  768SOL    HW3 3118   0.613   3.614   1.509 -0.1523  0.2760 -0.5112
  768SOL    MW4 3119   0.693   3.628   1.477 -0.0321 -0.2303 -0.4431
  769SOL     OW 3120   0.721   3.878   1.599 -0.1633 -0.2991  0.2171
  769SOL    HW2 3121   0.804   3.916   1.571 -0.9398  1.1201 -0.1962
  769SOL    HW3 3122   0.714   3.796   1.550  0.2678  0.3360 -0.9247
  769SOL    MW4 3123   0.731   3.872   1.589 -0.2089 -0.0279  0.0118
  770SOL     OW 3124   0.193   3.865   1.548  0.2825 -0.1392  0.0419
  770SOL    HW2 3125   0.180   3.885   1.641 -0.6283  0.6224 -0.2372
  770SOL    HW3 3126   0.278   3.903   1.527 -0.3765  1.4503  0.1105
  770SOL    MW4 3127   0.202   3.873   1.557  0.0754  0.1707  0.0142
  771SOL     OW 3128   0.461   4.245   1.647  0.1795 -0.0325 -0.3342
  771SOL    HW2 3129   0.453   4.156   1.612  0.7793  0.1062 -0.8230
  771SOL    HW3 3130   0.388   4.293   1.607 -1.5706 -0.8780  1.7489
  771SOL    MW4 3131   0.450   4.240   1.637  0.0277 -0.1259 -0.1239
  772SOL     OW 3132   0.667   4.374   1.502  0.0179 -0.2648 -0.0626
  772SOL    HW2 3133   0.591   4.332   1.542  0.1147  0.7839  1.2695
  772SOL    HW3 3134   0.668   4.462   1.540  0.4289  0.5791 -2.0106
  772SOL    MW4 3135   0.657   4.380   1.513  0.0850 -0.0153 -0.1439
  773SOL     OW 3136   1.158   4.629   1.604  0.2750  0.3507 -0.0165
  773SOL    HW2 3137   1.155   4.624   1.699 -0.5078  1.7997  0.0471
  773SOL    HW3 3138   1.243   4.667   1.584  1.1770 -1.5946  0.0090
  773SOL    MW4 3139   1.169   4.633   1.614  0.2906  0.2851 -0.0048
  774SOL     OW 3140   0.904   0.055   1.541 -0.0745  0.0869  0.4420
  774SOL    HW2 3141   0.919   0.149   1.549  1.4528 -0.2722  2.2171
  774SOL    HW3 3142   0.988   0.015   1.565 -0.4020 -1.7168 -1.2279
  774SOL    MW4 3143   0.917   0.062   1.545  0.0837 -0.1984  0.4559
  775SOL     OW 3144   0.913   0.324   1.590  0.2427  0.6899  0.0725
  775SOL    HW2 3145   0.927   0.320   1.685  1.2699  0.4669 -0.0878
  775SOL    HW3 3146   0.844   0.389   1.579 -0.1971  0.3956  1.0074
  775SOL    MW4 3147   0.905   0.332   1.601  0.3201  0.6217  0.1746
  776SOL     OW 3148   1.113   0.477   1.482  0.1107 -0.2425  0.5071
  776SOL    HW2 3149   1.113   0.558   1.533  0.6272  0.8051 -1.0725
  776SOL    HW3 3150   1.039   0.427   1.515 -0.2411  0.8990  1.4932
  776SOL    MW4 3151   1.104   0.481   1.493  0.1324  0.0463  0.4288
  777SOL     OW 3152   1.123   0.739   1.582 -0.0456 -0.3523  0.9788
  777SOL    HW2 3153   1.145   0.752   1.675 -0.5823  1.5255  0.8698
  777SOL    HW3 3154   1.173   0.806   1.536 -1.5667  0.2328  0.1543
  777SOL    MW4 3155   1.133   0.750   1.588 -0.3171 -0.0274  0.8557
  778SOL     OW 3156   0.906   0.935   1.546  0.5190  0.0544 -0.0355
  778SOL    HW2 3157   0.968   0.873   1.586 -0.6167 -0.3694  1.0891
  778SOL    HW3 3158   0.910   0.915   1.453  1.2028 -0.7762  0.1634
  778SOL    MW4 3159   0.915   0.924   1.539  0.4594 -0.1112  0.1391
  779SOL     OW 3160   0.901   1.195   1.620 -0.0754 -0.3282 -0.2628
  779SOL    HW2 3161   0.902   1.104   1.590 -2.7167 -0.0277 -1.3726
  779SOL    HW3 3162   0.813   1.227   1.600  0.8801  2.5808 -0.1645
  779SOL    MW4 3163   0.890   1.187   1.614 -0.2978  0.0954 -0.3965
  780SOL     OW 3164   1.133   1.304   1.505 -0.4243  0.1446 -0.1412
  780SOL    HW2 3165   1.198   1.249   1.549  0.8393  1.1897 -0.6549
  780SOL    HW3 3166   1.049   1.267   1.531  0.3456 -0.5869  1.4020
  780SOL    MW4 3167   1.130   1.292   1.514 -0.1562  0.1860 -0.0052
  781SOL     OW 3168   1.108   1.570   1.607  0.4763  0.0026 -0.5812
  781SOL    HW2 3169   1.189   1.595   1.562 -0.0673  0.8889 -1.0986
  781SOL    HW3 3170   1.109   1.475   1.608  0.3852 -0.0467 -2.7154
  781SOL    MW4 3171   1.119   1.561   1.601  0.3926  0.1130 -0.9310
  782SOL     OW 3172   0.883   1.653   1.478 -0.1338  0.1029 -0.2682
  782SOL    HW2 3173   0.967   1.621   1.510  0.2035  0.9180 -0.3434
  782SOL    HW3 3174   0.882   1.629   1.385 -0.7018 -1.3949  0.1061
  782SOL    MW4 3175   0.894   1.645   1.470 -0.1643  0.0128 -0.2286
  783SOL     OW 3176   0.905   1.916   1.577  0.1366 -0.1981 -0.3331
  783SOL    HW2 3177   0.987   1.950   1.543  0.8452 -1.6299 -0.0903
  783SOL    HW3 3178   0.903   1.825   1.548 -0.2229 -0.8603  1.7006
  783SOL    MW4 3179   0.915   1.909   1.568  0.1827 -0.4743 -0.0327
  784SOL     OW 3180   1.125   2.040   1.479  0.0011 -0.5717  0.1027
  784SOL    HW2 3181   1.207   2.001   1.511  0.0613 -1.3782 -1.0172
  784SOL    HW3 3182   1.122   2.126   1.520  0.3229 -1.3891  1.9124
  784SOL    MW4 3183   1.135   2.046   1.489  0.0516 -0.7861  0.1937
  785SOL     OW 3184   1.110   2.305   1.612  0.0612  0.3620 -0.1239
  785SOL    HW2 3185   1.178   2.353   1.565 -0.0218  0.7643  0.1638
  785SOL    HW3 3186   1.030   2.353   1.594 -0.2257 -0.3726 -0.8339
  785SOL    MW4 3187   1.109   2.318   1.604  0.0124  0.3181 -0.1795
  786SOL     OW 3188   0.888   2.428   1.487  0.2439 -0.2089 -0.5311
  786SOL    HW2 3189   0.898   2.514   1.529  1.2792 -0.6234  0.0926
  786SOL    HW3 3190   0.814   2.388   1.532 -0.6553  0.6167 -1.2693
  786SOL    MW4 3191   0.880   2.434   1.499  0.2618 -0.1550 -0.5461
  787SOL     OW 3192   0.925   2.697   1.574  0.1083  0.0107 -0.1411
  787SOL    HW2 3193   0.919   2.680   1.668  0.1664  0.4358 -0.0574
  787SOL    HW3 3194   0.847   2.750   1.555  0.7513  0.9986 -0.0856
  787SOL    MW4 3195   0.914   2.702   1.584  0.2008  0.1969 -0.1227
  788SOL     OW 3196   1.139   2.820   1.484  0.2176 -0.1596  0.1408
  788SOL    HW2 3197   1.144   2.904   1.531  1.2532 -0.4708  0.6050
  788SOL    HW3 3198   1.064   2.775   1.524 -1.0659  1.0130 -0.9032
  788SOL    MW4 3199   1.130   2.825   1.496  0.1848 -0.0460  0.0643
  789SOL     OW 3200   1.142   3.088   1.576  0.2170 -0.0361 -0.0035
  789SOL    HW2 3201   1.152   3.090   1.671  1.0069  1.1606 -0.1003
  789SOL    HW3 3202   1.219   3.134   1.543  0.3171 -1.0742 -1.2537
  789SOL    MW4 3203   1.153   3.095   1.584  0.3344 -0.0150 -0.1812
  790SOL     OW 3204   0.913   3.237   1.477 -0.0239  0.0111  0.6574
  790SOL    HW2 3205   0.991   3.189   1.506 -1.0407 -1.4689  0.9919
  790SOL    HW3 3206   0.910   3.221   1.382  1.3159  1.9362  0.2513
  790SOL    MW4 3207   0.923   3.228   1.468  0.0186  0.0701  0.6478
  791SOL     OW 3208   0.883   3.498   1.594 -0.2460  0.2093 -0.3909
  791SOL    HW2 3209   0.968   3.542   1.584 -0.0048 -0.0095  0.6596
  791SOL    HW3 3210   0.894   3.415   1.548  0.2716 -0.0252  0.1420
  791SOL    MW4 3211   0.896   3.493   1.587 -0.1459  0.1497 -0.1819
  792SOL     OW 3212   1.122   3.592   1.524  0.0968 -0.2850  0.1101
  792SOL    HW2 3213   1.189   3.535   1.562  0.8583  0.7277  0.3193
  792SOL    HW3 3214   1.127   3.577   1.430 -0.9360 -1.8760  0.2841
  792SOL    MW4 3215   1.131   3.583   1.517  0.0609 -0.3612  0.1607
  793SOL     OW 3216   1.130   3.859   1.642 -0.0126 -0.5642 -0.4038
  793SOL    HW2 3217   1.204   3.912   1.611 -1.2207  0.5574 -1.4016
  793SOL    HW3 3218   1.148   3.772   1.608 -0.1981  0.1676 -2.4350
  793SOL    MW4 3219   1.142   3.855   1.633 -0.1965 -0.3197 -0.8034
  794SOL     OW 3220   0.937   4.006   1.509  0.2076  0.0843  0.0669
  794SOL    HW2 3221   0.931   4.093   1.548  0.8745  0.7514 -1.2728
  794SOL    HW3 3222   1.003   3.960   1.562  1.2014  1.0238 -0.3377
  794SOL    MW4 3223   0.945   4.011   1.521  0.4267  0.2966 -0.1633
  795SOL     OW 3224   0.892   4.262   1.612  0.6808 -0.2329 -0.0939
  795SOL    HW2 3225   0.893   4.253   1.708 -0.2352  0.5274 -0.0138
  795SOL    HW3 3226   0.809   4.306   1.593  0.7664 -0.5828 -1.2576
  795SOL    MW4 3227   0.881   4.267   1.622  0.5712 -0.1793 -0.2367
  796SOL     OW 3228   1.137   4.369   1.509  0.1036  0.1591 -0.0812
  796SOL    HW2 3229   1.051   4.336   1.536  0.4992  0.1510  1.2096
  796SOL    HW3 3230   1.136   4.461   1.536 -0.2688  0.7218 -1.9344
  796SOL    MW4 3231   1.125   4.377   1.516  0.1066  0.2322 -0.1553
  797SOL     OW 3232   1.616   4.649   1.649 -0.0065 -0.0223 -0.0976
  797SOL    HW2 3233   1.607   4.633   1.743 -2.6704  0.6711 -0.1903
  797SOL    HW3 3234   1.533   4.688   1.623  0.5696 -0.4774 -2.8188
  797SOL    MW4 3235   1.604   4.652   1.658 -0.2820  0.0091 -0.4690
  798SOL     OW 3236   1.384   0.110   1.548  0.3132  0.2862  0.5784
  798SOL    HW2 3237   1.380   0.200   1.581  2.7885  0.2603  1.0899
  798SOL    HW3 3238   1.377   0.119   1.453 -0.0544  0.9730  0.6701
  798SOL    MW4 3239   1.383   0.123   1.539  0.5913  0.3734  0.6580
  799SOL     OW 3240   1.335   0.381   1.633  0.2820 -0.0534  0.4905
  799SOL    HW2 3241   1.409   0.432   1.601 -0.0446  1.2029  1.6674
  799SOL    HW3 3242   1.263   0.403   1.575  0.7739 -1.1100 -0.5249
  799SOL    MW4 3243   1.335   0.391   1.621  0.3036 -0.0271  0.5119
  800SOL     OW 3244   1.547   0.530   1.538 -0.4787 -0.2546  0.0075
  800SOL    HW2 3245   1.629   0.489   1.563  0.0006  0.1325 -0.8871
  800SOL    HW3 3246   1.547   0.527   1.442 -1.9552 -1.1420  0.0162
  800SOL    MW4 3247   1.558   0.524   1.528 -0.6102 -0.3206 -0.1093
  801SOL     OW 3248   1.561   0.799   1.579 -0.6866 -0.5947  0.2694
  801SOL    HW2 3249   1.559   0.795   1.675 -1.5930  0.9631  0.3294
  801SOL    HW3 3250   1.559   0.708   1.551 -1.9910 -1.0261  1.7115
  801SOL    MW4 3251   1.561   0.787   1.588 -0.9784 -0.4461  0.4675
  802SOL     OW 3252   1.320   0.943   1.471  0.3147  0.1130 -0.0403
  802SOL    HW2 3253   1.404   0.901   1.493 -0.0369  0.4042  1.9799
  802SOL    HW3 3254   1.324   0.957   1.376  2.4532 -0.0994 -0.0028
  802SOL    MW4 3255   1.332   0.939   1.461  0.5505  0.1234  0.2313
  803SOL     OW 3256   1.337   1.170   1.623 -0.4330 -0.4358  0.5644
  803SOL    HW2 3257   1.331   1.164   1.718 -0.6546 -2.1632  0.4413
  803SOL    HW3 3258   1.339   1.080   1.593 -1.1907  0.0925 -1.1316
  803SOL    MW4 3259   1.336   1.158   1.632 -0.5621 -0.5940  0.3244
  804SOL     OW 3260   1.550   1.301   1.475 -0.2576  0.0000 -0.1495
  804SOL    HW2 3261   1.476   1.259   1.520  0.1126 -1.5197 -0.9374
  804SOL    HW3 3262   1.527   1.296   1.382  1.3427 -1.4598 -0.4732
  804SOL    MW4 3263   1.537   1.295   1.468  0.0024 -0.3932 -0.2961
  805SOL     OW 3264   1.578   1.559   1.566  0.0320  0.0647 -0.4432
  805SOL    HW2 3265   1.569   1.557   1.661  2.8186 -0.0221 -0.1376
  805SOL    HW3 3266   1.558   1.470   1.537 -1.4977  0.2637 -0.0352
  805SOL    MW4 3267   1.575   1.547   1.574  0.1978  0.0794 -0.3492
  806SOL     OW 3268   1.347   1.683   1.481 -0.2422 -0.0341 -0.7476
  806SOL    HW2 3269   1.426   1.633   1.499 -0.5284 -0.2513 -0.0755
  806SOL    HW3 3270   1.351   1.703   1.387  1.0113  0.6641 -0.5503
  806SOL    MW4 3271   1.358   1.679   1.471 -0.1147  0.0294 -0.6330
  807SOL     OW 3272   1.365   1.947   1.597  0.8274 -0.0030  0.0680
  807SOL    HW2 3273   1.371   1.932   1.691 -1.7826 -0.7633  0.1597
  807SOL    HW3 3274   1.363   1.860   1.558  0.5186  0.2785 -0.5634
  807SOL    MW4 3275   1.365   1.934   1.604  0.4426 -0.0662 -0.0031
  808SOL     OW 3276   1.601   2.034   1.513  0.0409 -0.4320 -0.3608
  808SOL    HW2 3277   1.513   2.007   1.541 -0.5812 -0.4181 -2.1708
  808SOL    HW3 3278   1.593   2.044   1.418  2.1789 -1.0703 -0.6390
  808SOL    MW4 3279   1.588   2.032   1.504  0.2409 -0.5143 -0.6363
  809SOL     OW 3280   1.534   2.307   1.616  0.1801 -0.5389 -0.5946
  809SOL    HW2 3281   1.607   2.356   1.578 -0.0271 -0.2088 -0.5723
  809SOL    HW3 3282   1.552   2.216   1.594  0.5654 -0.4509 -0.6446
  809SOL    MW4 3283   1.546   2.301   1.608  0.2036 -0.4835 -0.5982
  810SOL     OW 3284   1.335   2.426   1.478  0.6399  0.1646 -0.4538
  810SOL    HW2 3285   1.334   2.500   1.538 -0.3672  0.1484 -0.4351
  810SOL    HW3 3286   1.408   2.372   1.507  0.2822  0.2581  0.6493
  810SOL    MW4 3287   1.344   2.428   1.490  0.4599  0.1748 -0.3058
  811SOL     OW 3288   1.348   2.669   1.604  0.3909 -0.1921  0.5571
  811SOL    HW2 3289   1.421   2.715   1.563  0.3971 -0.5969  0.1148
  811SOL    HW3 3290   1.271   2.723   1.582  0.5044  0.0339  0.7121
  811SOL    MW4 3291   1.347   2.682   1.595  0.4069 -0.2158  0.5193
  812SOL     OW 3292   1.577   2.804   1.499 -0.3172 -0.2118 -0.0875
  812SOL    HW2 3293   1.646   2.752   1.540 -2.0791 -1.8756  0.8525
  812SOL    HW3 3294   1.601   2.807   1.406  0.8902 -0.9480  0.1931
  812SOL    MW4 3295   1.590   2.797   1.492 -0.3903 -0.5283  0.0736
  813SOL     OW 3296   1.564   3.055   1.627  0.2636 -0.2000  0.3258
  813SOL    HW2 3297   1.643   3.101   1.599 -0.2606 -0.4535 -1.6321
  813SOL    HW3 3298   1.571   2.969   1.586 -0.8242 -0.3688  0.4839
  813SOL    MW4 3299   1.575   3.050   1.618  0.0509 -0.2558  0.0882
  814SOL     OW 3300   1.373   3.207   1.484  0.0511 -0.5110 -0.1307
  814SOL    HW2 3301   1.385   3.295   1.521 -0.9845 -0.4313  0.0263
  814SOL    HW3 3302   1.436   3.153   1.532 -0.4341 -0.1698  0.9205
  814SOL    MW4 3303   1.383   3.212   1.495 -0.1494 -0.4556  0.0287
  815SOL     OW 3304   1.393   3.458   1.604 -0.1779  0.1106 -0.0363
  815SOL    HW2 3305   1.392   3.483   1.696 -2.0903  1.5680 -0.4228
  815SOL    HW3 3306   1.462   3.513   1.565 -0.5192  0.7224  0.2121
  815SOL    MW4 3307   1.402   3.469   1.611 -0.4753  0.3836 -0.0544
  816SOL     OW 3308   1.610   3.599   1.492  0.0644  0.1587  0.1152
  816SOL    HW2 3309   1.607   3.689   1.523 -0.8160  0.3940 -0.6429
  816SOL    HW3 3310   1.618   3.606   1.397  0.2022 -0.5550  0.0716
  816SOL    MW4 3311   1.611   3.612   1.484 -0.0336  0.0958  0.0094
  817SOL     OW 3312   1.585   3.845   1.633  0.4154  0.3740 -0.1684
  817SOL    HW2 3313   1.594   3.847   1.728  1.6788  0.7249 -0.2836
  817SOL    HW3 3314   1.496   3.877   1.616  0.5026  1.1700  0.8378
  817SOL    MW4 3315   1.574   3.849   1.643  0.5935  0.5255 -0.0508
  818SOL     OW 3316   1.353   3.972   1.525  0.3936 -0.1214 -0.1775
  818SOL    HW2 3317   1.380   4.063   1.536  0.2803  0.1304 -1.8308
  818SOL    HW3 3318   1.337   3.963   1.431 -0.1405 -1.6980  0.0487
  818SOL    MW4 3319   1.354   3.983   1.514  0.3082 -0.2961 -0.3659
  819SOL     OW 3320   1.365   4.245   1.605  0.8555  0.0963 -0.3371
  819SOL    HW2 3321   1.430   4.306   1.570  1.4274 -0.9804 -1.1722
  819SOL    HW3 3322   1.281   4.282   1.578  1.1205  1.2885  0.4123
  819SOL    MW4 3323   1.363   4.258   1.597  0.9660  0.1116 -0.3483
  820SOL     OW 3324   1.571   4.410   1.494 -0.2328  0.2431  0.3594
  820SOL    HW2 3325   1.637   4.351   1.530 -0.3602  0.3988  0.8474
  820SOL    HW3 3326   1.599   4.498   1.521 -0.1595  0.3911 -0.1824
  820SOL    MW4 3327   1.583   4.414   1.502 -0.2400  0.2832  0.3521
  821SOL     OW 3328   2.039   4.634   1.624  0.4445 -0.3038  0.3426
  821SOL    HW2 3329   2.031   4.641   1.719  2.1355  0.5056  0.4313
  821SOL    HW3 3330   1.976   4.698   1.590  0.0505 -0.3815  0.9088
  821SOL    MW4 3331   2.029   4.643   1.632  0.6156 -0.2074  0.4289
  822SOL     OW 3332   1.827   0.123   1.525  0.0472 -0.2943 -0.0525
  822SOL    HW2 3333   1.757   0.075   1.569 -0.9644  0.3248 -0.9820
  822SOL    HW3 3334   1.803   0.124   1.433  0.5487  1.1391 -0.1918
  822SOL    MW4 3335   1.815   0.117   1.519 -0.0200 -0.0235 -0.1935
  823SOL     OW 3336   1.789   0.395   1.601 -0.1859 -0.3201  0.0875
  823SOL    HW2 3337   1.869   0.439   1.571 -0.0876 -0.9882 -0.6490
  823SOL    HW3 3338   1.796   0.307   1.566 -0.9959 -0.5438  0.4838
  823SOL    MW4 3339   1.800   0.389   1.592 -0.2798 -0.4377  0.0426
  824SOL     OW 3340   2.043   0.498   1.508 -0.6397  0.3671 -0.4197
  824SOL    HW2 3341   2.119   0.457   1.550 -0.5249 -0.0650 -1.0339
  824SOL    HW3 3342   2.044   0.588   1.539  2.0067  1.2672 -2.8731
  824SOL    MW4 3343   2.054   0.505   1.518 -0.2754  0.4289 -0.8243
  825SOL     OW 3344   2.024   0.746   1.613  0.0717 -0.5524 -0.3537
  825SOL    HW2 3345   2.097   0.786   1.566  1.3472 -1.2676  0.9739
  825SOL    HW3 3346   1.947   0.799   1.589  1.1196  0.5792 -1.2709
  825SOL    MW4 3347   2.023   0.758   1.604  0.3781 -0.4976 -0.2996
  826SOL     OW 3348   1.793   0.903   1.480 -0.3923 -0.6563 -0.4092
  826SOL    HW2 3349   1.797   0.983   1.533 -0.7779 -1.5659  1.0012
  826SOL    HW3 3350   1.709   0.864   1.502  0.1786 -1.9086 -0.4384
  826SOL    MW4 3351   1.783   0.909   1.490 -0.3679 -0.9415 -0.2270
  827SOL     OW 3352   1.791   1.166   1.592  0.4097  0.5078  0.0677
  827SOL    HW2 3353   1.866   1.202   1.545 -1.0197  0.4797 -2.3373
  827SOL    HW3 3354   1.715   1.211   1.554 -0.9009 -0.4821  1.4434
  827SOL    MW4 3355   1.791   1.177   1.580  0.0482  0.3735 -0.0682
  828SOL     OW 3356   2.018   1.265   1.490  0.3657 -0.0878  0.1670
  828SOL    HW2 3357   2.033   1.357   1.514  0.0251  0.0315 -0.0852
  828SOL    HW3 3358   2.030   1.263   1.396  0.6037 -0.3504  0.2024
  828SOL    MW4 3359   2.022   1.277   1.481  0.3519 -0.1067  0.1384
  829SOL     OW 3360   2.036   1.521   1.588 -0.0754  0.0885  0.0226
  829SOL    HW2 3361   2.118   1.557   1.552  0.8046 -2.2525 -0.3711
  829SOL    HW3 3362   1.967   1.567   1.539  1.0232  0.5586 -1.1433
  829SOL    MW4 3363   2.038   1.532   1.577  0.1860 -0.1583 -0.1832
  830SOL     OW 3364   1.832   1.628   1.450  0.5739  0.9953 -0.4101
  830SOL    HW2 3365   1.748   1.594   1.480  0.1516  1.5131 -0.9937
  830SOL    HW3 3366   1.829   1.617   1.355  1.3221  0.6737 -0.4040
  830SOL    MW4 3367   1.821   1.622   1.441  0.6169  1.0213 -0.4863
  831SOL     OW 3368   1.810   1.862   1.597  0.3390  0.0842 -0.0705
  831SOL    HW2 3369   1.813   1.797   1.528 -2.4201 -2.0247  1.6607
  831SOL    HW3 3370   1.738   1.920   1.572 -0.5689 -0.5953  0.9074
  831SOL    MW4 3371   1.801   1.861   1.585 -0.1448 -0.2836  0.2869
  832SOL     OW 3372   2.007   2.037   1.495  0.1660  0.3413  0.0846
  832SOL    HW2 3373   2.094   2.002   1.512  0.1435  1.0249  1.6746
  832SOL    HW3 3374   1.947   1.976   1.539 -0.0220  0.9981  0.7528
  832SOL    MW4 3375   2.010   2.025   1.503  0.1383  0.5181  0.3827
  833SOL     OW 3376   2.006   2.315   1.589  0.0009 -0.0545  0.0036
  833SOL    HW2 3377   2.016   2.318   1.684 -1.5394 -1.6871  0.2493
  833SOL    HW3 3378   2.002   2.222   1.567 -2.2835  0.2886 -1.3227
  833SOL    MW4 3379   2.006   2.303   1.598 -0.5040 -0.2246 -0.1390
  834SOL     OW 3380   1.750   2.412   1.482  0.5254 -0.6701  0.0271
  834SOL    HW2 3381   1.837   2.386   1.510  1.3468  1.8313 -0.0748
  834SOL    HW3 3382   1.758   2.426   1.388 -0.2380 -1.3621 -0.1462
  834SOL    MW4 3383   1.762   2.411   1.474  0.5331 -0.4315 -0.0093
  835SOL     OW 3384   1.791   2.662   1.599  0.4443  0.1874  0.3752
  835SOL    HW2 3385   1.866   2.705   1.559  0.0046  0.4946 -0.1322
  835SOL    HW3 3386   1.780   2.581   1.550 -0.2337  0.6714 -0.2847
  835SOL    MW4 3387   1.799   2.657   1.587  0.2968  0.2916  0.2213
  836SOL     OW 3388   1.992   2.798   1.470 -0.1660 -0.5057 -0.4245
  836SOL    HW2 3389   2.000   2.882   1.515  2.2602 -0.7936 -0.2823
  836SOL    HW3 3390   1.980   2.821   1.378  1.0834 -0.0073 -0.4684
  836SOL    MW4 3391   1.991   2.812   1.464  0.3189 -0.4780 -0.4115
  837SOL     OW 3392   2.034   3.059   1.577 -1.1304  0.0921 -0.3569
  837SOL    HW2 3393   2.037   3.064   1.672 -1.1015 -0.9272 -0.3015
  837SOL    HW3 3394   2.117   3.097   1.548 -0.8500 -0.2096  0.0521
  837SOL    MW4 3395   2.046   3.064   1.586 -1.0896 -0.0823 -0.2955
  838SOL     OW 3396   1.790   3.181   1.501 -0.3213 -0.1805 -0.3122
  838SOL    HW2 3397   1.820   3.262   1.542 -0.8561 -0.2811  0.2937
  838SOL    HW3 3398   1.865   3.122   1.505 -0.2008 -0.0018  0.0363
  838SOL    MW4 3399   1.804   3.184   1.507 -0.3761 -0.1705 -0.1863
  839SOL     OW 3400   1.837   3.457   1.598 -0.0986  0.3262 -0.1042
  839SOL    HW2 3401   1.824   3.452   1.693 -0.6982 -0.5526 -0.2232
  839SOL    HW3 3402   1.763   3.509   1.566  1.1121  2.2255  0.1030
  839SOL    MW4 3403   1.825   3.463   1.606 -0.0179  0.4609 -0.0925
  840SOL     OW 3404   2.058   3.563   1.493  0.0087 -0.4328 -0.0205
  840SOL    HW2 3405   2.128   3.503   1.517  0.0347 -0.7573 -0.8804
  840SOL    HW3 3406   1.982   3.534   1.542  0.9881  1.2195  2.5946
  840SOL    MW4 3407   2.058   3.551   1.503  0.1416 -0.2577  0.2111
  841SOL     OW 3408   2.054   3.821   1.622 -0.0660  0.0064 -0.4947
  841SOL    HW2 3409   2.113   3.880   1.575  0.6840 -0.3787 -0.0420
  841SOL    HW3 3410   2.059   3.739   1.573  0.6714 -0.3765  0.2177
  841SOL    MW4 3411   2.062   3.818   1.609  0.1302 -0.0949 -0.3409
  842SOL     OW 3412   1.831   3.993   1.567  0.1220  0.0594  0.0184
  842SOL    HW2 3413   1.895   3.930   1.600  1.4980  0.6997 -1.3713
  842SOL    HW3 3414   1.746   3.950   1.580  0.7614 -0.5582  2.4219
  842SOL    MW4 3415   1.828   3.979   1.573  0.3879  0.0625  0.1522
  843SOL     OW 3416   1.759   4.254   1.617  0.2378 -0.0888 -0.0211
  843SOL    HW2 3417   1.825   4.308   1.573 -0.2029  0.2306 -0.2818
  843SOL    HW3 3418   1.793   4.164   1.608 -0.5568 -0.1956 -2.2869
  843SOL    MW4 3419   1.772   4.249   1.610  0.0747 -0.0610 -0.3545
  844SOL     OW 3420   1.971   4.399   1.486 -0.1731 -0.0618  0.1088
  844SOL    HW2 3421   2.055   4.353   1.491 -0.3339 -0.4155 -0.3186
  844SOL    HW3 3422   1.986   4.483   1.528  0.1558 -0.4696  0.8205
  844SOL    MW4 3423   1.984   4.404   1.492 -0.1510 -0.1626  0.1463
  845SOL     OW 3424   2.476   4.627   1.619 -0.4250  0.1258  0.2700
  845SOL    HW2 3425   2.450   4.611   1.709 -2.6749 -1.8990 -0.6921
  845SOL    HW3 3426   2.409   4.685   1.584 -0.5253 -0.5169 -0.6155
  845SOL    MW4 3427   2.464   4.633   1.626 -0.7348 -0.2270  0.0262
  846SOL     OW 3428   2.266   0.107   1.537  0.2775 -0.1087 -0.1023
  846SOL    HW2 3429   2.190   0.064   1.575  2.4824 -2.0619  2.3373
  846SOL    HW3 3430   2.257   0.093   1.443 -2.0588 -0.8524  0.2113
  846SOL    MW4 3431   2.255   0.099   1.530  0.2604 -0.4645  0.2611
  847SOL     OW 3432   2.258   0.374   1.608  0.2086  0.3707 -0.0832
  847SOL    HW2 3433   2.238   0.370   1.702 -0.1622 -0.6874 -0.2031
  847SOL    HW3 3434   2.255   0.283   1.579 -0.1982  0.7487 -1.2353
  847SOL    MW4 3435   2.255   0.362   1.617  0.1061  0.2809 -0.2509
  848SOL     OW 3436   2.462   0.513   1.484 -0.4567  0.3568 -0.5115
  848SOL    HW2 3437   2.546   0.478   1.515 -0.3974  1.3971  0.5470
  848SOL    HW3 3438   2.396   0.464   1.533 -0.3351  3.0184  2.4727
  848SOL    MW4 3439   2.464   0.502   1.494 -0.4330  0.8452  0.0218
  849SOL     OW 3440   2.467   0.765   1.625 -0.4109  0.3610 -0.1773
  849SOL    HW2 3441   2.386   0.816   1.616 -0.2175  0.4187 -1.6918
  849SOL    HW3 3442   2.452   0.687   1.571 -0.3204 -0.7184  1.3441
  849SOL    MW4 3443   2.454   0.761   1.617 -0.3734  0.2262 -0.1764
  850SOL     OW 3444   2.243   0.887   1.509 -0.0502  0.3809 -0.4229
  850SOL    HW2 3445   2.236   0.978   1.536 -1.8488  0.5737 -1.4298
  850SOL    HW3 3446   2.258   0.890   1.415 -1.6543 -0.3438 -0.7361
  850SOL    MW4 3447   2.244   0.899   1.500 -0.4992  0.3107 -0.5972
  851SOL     OW 3448   2.248   1.150   1.584  0.0231 -0.3208  0.1890
  851SOL    HW2 3449   2.259   1.161   1.679  2.6715  4.0100 -0.4315
  851SOL    HW3 3450   2.161   1.186   1.565  0.3804  0.9098  0.7869
  851SOL    MW4 3451   2.238   1.156   1.594  0.4196  0.4131  0.1862
  852SOL     OW 3452   2.487   1.262   1.516 -0.0516  0.0434  0.1577
  852SOL    HW2 3453   2.405   1.229   1.553  0.1987  1.3349  1.9355
  852SOL    HW3 3454   2.471   1.264   1.422 -1.2359 -1.8978  0.2853
  852SOL    MW4 3455   2.474   1.258   1.509 -0.1750 -0.0423  0.4091
  853SOL     OW 3456   2.510   1.540   1.575  0.6034 -0.0387  0.2832
  853SOL    HW2 3457   2.602   1.561   1.560  0.5954 -0.9660 -1.2036
  853SOL    HW3 3458   2.507   1.444   1.568 -0.4889  0.0010  0.2158
  853SOL    MW4 3459   2.522   1.530   1.572  0.4580 -0.1558  0.0781
  854SOL     OW 3460   2.272   1.650   1.480  0.6104 -0.3078 -0.3901
  854SOL    HW2 3461   2.359   1.616   1.504  0.9090  0.4486 -0.3849
  854SOL    HW3 3462   2.268   1.637   1.385  1.2533  0.8273 -0.5823
  854SOL    MW4 3463   2.283   1.644   1.471  0.7346 -0.0582 -0.4148
  855SOL     OW 3464   2.247   1.919   1.576  0.1133  0.4547  0.1882
  855SOL    HW2 3465   2.250   1.925   1.672  1.5269 -0.3119  0.1946
  855SOL    HW3 3466   2.240   1.825   1.558 -1.6955  0.6762 -0.4432
  855SOL    MW4 3467   2.246   1.907   1.586  0.0610  0.3829  0.1056
  856SOL     OW 3468   2.486   2.012   1.476  0.0858 -0.6061 -0.3469
  856SOL    HW2 3469   2.403   1.969   1.500 -0.5194  0.9224  0.3322
  856SOL    HW3 3470   2.478   2.026   1.381 -1.6079  1.9126  0.1049
  856SOL    MW4 3471   2.474   2.008   1.466 -0.2177 -0.0722 -0.1976
  857SOL     OW 3472   2.478   2.303   1.584 -0.1679 -0.4734  0.2660
  857SOL    HW2 3473   2.478   2.289   1.679  0.8673 -0.2075  0.3125
  857SOL    HW3 3474   2.490   2.215   1.547  1.0267 -0.3821  0.4249
  857SOL    MW4 3475   2.480   2.290   1.592  0.1261 -0.4263  0.2931
  858SOL     OW 3476   2.243   2.421   1.492 -0.0182  0.0799  0.1098
  858SOL    HW2 3477   2.320   2.386   1.536 -0.1428 -1.0681 -0.5842
  858SOL    HW3 3478   2.171   2.367   1.524 -0.2991  0.1090 -0.4753
  858SOL    MW4 3479   2.244   2.409   1.502 -0.0718 -0.0677 -0.0589
  859SOL     OW 3480   2.232   2.676   1.571 -0.6858  0.1798  0.4027
  859SOL    HW2 3481   2.227   2.588   1.535 -1.0283  0.5904 -0.5848
  859SOL    HW3 3482   2.156   2.721   1.534 -0.5136  0.8875  0.8956
  859SOL    MW4 3483   2.221   2.671   1.561 -0.7083  0.3273  0.3374
  860SOL     OW 3484   2.456   2.804   1.471 -0.0123  0.2640 -0.3450
  860SOL    HW2 3485   2.450   2.894   1.502  0.4027  0.3134 -0.3957
  860SOL    HW3 3486   2.381   2.759   1.510 -0.8230  0.8801 -1.1843
  860SOL    MW4 3487   2.445   2.810   1.480 -0.0641  0.3519 -0.4623
  861SOL     OW 3488   2.498   3.069   1.548  0.0046  0.5894 -0.4802
  861SOL    HW2 3489   2.552   3.129   1.497 -0.6457  1.3290 -0.3157
  861SOL    HW3 3490   2.409   3.100   1.534 -0.4061 -0.8507 -1.0380
  861SOL    MW4 3491   2.494   3.081   1.540 -0.1357  0.4971 -0.5322
  862SOL     OW 3492   2.248   3.169   1.465 -0.2467  0.0212 -0.0452
  862SOL    HW2 3493   2.278   3.254   1.498 -1.2286  0.6132 -0.6442
  862SOL    HW3 3494   2.244   3.180   1.370 -0.5647 -0.6359 -0.1121
  862SOL    MW4 3495   2.252   3.182   1.457 -0.4179  0.0126 -0.1330
  863SOL     OW 3496   2.290   3.431   1.584 -0.3975 -0.0270  0.0451
  863SOL    HW2 3497   2.285   3.436   1.680  1.7686 -0.5605  0.2100
  863SOL    HW3 3498   2.341   3.508   1.558 -0.5250 -0.1671 -0.6287
  863SOL    MW4 3499   2.296   3.441   1.593 -0.1287 -0.1156 -0.0221
  864SOL     OW 3500   2.450   3.627   1.473 -0.1094 -0.2771  0.0712
  864SOL    HW2 3501   2.531   3.593   1.510 -0.5374 -1.5981 -0.1998
  864SOL    HW3 3502   2.434   3.708   1.522  0.8985 -0.4708  0.7356
  864SOL    MW4 3503   2.458   3.634   1.484 -0.0329 -0.4771  0.1231
  865SOL     OW 3504   2.460   3.876   1.575 -0.0446 -0.0761  0.1206
  865SOL    HW2 3505   2.454   3.897   1.668 -0.0993 -0.4032  0.1907
  865SOL    HW3 3506   2.540   3.920   1.545 -1.0015  1.5679 -0.0860
  865SOL    MW4 3507   2.470   3.885   1.583 -0.1781  0.0975  0.1026
  866SOL     OW 3508   2.216   3.996   1.487  0.7059 -0.2765  0.5824
  866SOL    HW2 3509   2.294   3.973   1.537  0.3536 -0.6458  0.9600
  866SOL    HW3 3510   2.229   3.956   1.401  1.7499  1.1507  0.0543
  866SOL    MW4 3511   2.228   3.988   1.482  0.7973 -0.1371  0.5625
  867SOL     OW 3512   2.219   4.260   1.550 -0.4193 -0.3532 -0.1506
  867SOL    HW2 3513   2.308   4.290   1.529 -0.7870  0.1955 -0.9753
  867SOL    HW3 3514   2.220   4.166   1.532 -0.5034 -0.0309 -1.9206
  867SOL    MW4 3515   2.231   4.252   1.545 -0.4787 -0.2379 -0.4929
  868SOL     OW 3516   2.483   4.345   1.521 -0.6282 -0.1637  0.0412
  868SOL    HW2 3517   2.479   4.438   1.543 -1.5621 -0.0724 -0.4867
  868SOL    HW3 3518   2.508   4.344   1.429  2.2363 -0.5168  0.7739
  868SOL    MW4 3519   2.486   4.357   1.512 -0.3736 -0.1979  0.0684
  869SOL     OW 3520   2.953   4.662   1.593 -0.0022 -0.4026 -0.0972
  869SOL    HW2 3521   2.946   4.655   1.688  2.0317  0.4072  0.1414
  869SOL    HW3 3522   2.874   4.708   1.566  0.0439  0.5304  1.3429
  869SOL    MW4 3523   2.941   4.667   1.602  0.2725 -0.1727  0.1243
  870SOL     OW 3524   2.702   0.111   1.537 -0.0624  0.1474 -0.0846
  870SOL    HW2 3525   2.688   0.206   1.541  0.6389  0.2610 -0.2901
  870SOL    HW3 3526   2.625   0.074   1.580 -0.4901  0.8015 -0.2742
  870SOL    MW4 3527   2.690   0.119   1.543 -0.0265  0.2487 -0.1369
  871SOL     OW 3528   2.674   0.399   1.591 -0.0700  0.0691  0.5032
  871SOL    HW2 3529   2.674   0.401   1.687  0.2672 -0.9253  0.5236
  871SOL    HW3 3530   2.756   0.444   1.567 -0.6891  1.3075  0.6468
  871SOL    MW4 3531   2.685   0.405   1.601 -0.1070  0.1013  0.5250
  872SOL     OW 3532   2.932   0.473   1.527 -0.1052  0.1605  0.0534
  872SOL    HW2 3533   2.926   0.568   1.535 -0.5458  0.1176  0.2194
  872SOL    HW3 3534   2.939   0.458   1.433 -1.0141  0.3022 -0.0413
  872SOL    MW4 3535   2.932   0.484   1.516 -0.2835  0.1735  0.0627
  873SOL     OW 3536   2.918   0.738   1.598  0.3789 -0.3041 -0.0561
  873SOL    HW2 3537   2.916   0.747   1.694  1.0746 -1.1818  0.0498
  873SOL    HW3 3538   2.837   0.779   1.568 -0.1571 -0.6004  0.9652
  873SOL    MW4 3539   2.907   0.745   1.607  0.3996 -0.4590  0.0926
  874SOL     OW 3540   2.695   0.871   1.484 -0.0702 -0.5012 -0.0398
  874SOL    HW2 3541   2.614   0.840   1.525 -0.8447  2.4520  0.7740
  874SOL    HW3 3542   2.680   0.857   1.390 -1.2846 -0.5682  0.1490
  874SOL    MW4 3543   2.682   0.865   1.477 -0.3326 -0.1204  0.0925
  875SOL     OW 3544   2.724   1.114   1.617  0.8488 -0.1566 -0.5423
  875SOL    HW2 3545   2.726   1.027   1.578  0.2107 -0.7884  0.8049
  875SOL    HW3 3546   2.641   1.151   1.589 -0.3838 -1.2665  1.5866
  875SOL    MW4 3547   2.714   1.108   1.608  0.6020 -0.3864 -0.0837
  876SOL     OW 3548   2.924   1.265   1.501 -0.5963  0.3115 -0.2030
  876SOL    HW2 3549   2.995   1.204   1.522 -1.5931 -1.4837 -1.9857
  876SOL    HW3 3550   2.845   1.223   1.534 -0.9098  2.2113  1.5783
  876SOL    MW4 3551   2.923   1.252   1.508 -0.7691  0.3253 -0.2031
  877SOL     OW 3552   2.995   1.525   1.597 -0.0506 -0.1473  0.0742
  877SOL    HW2 3553   2.919   1.574   1.566 -0.9327 -0.8400  1.1362
  877SOL    HW3 3554   2.987   1.439   1.555 -0.9369 -0.8939  1.7331
  877SOL    MW4 3555   2.984   1.520   1.587 -0.2842 -0.3372  0.4333
  878SOL     OW 3556   2.763   1.617   1.484 -0.0772  0.0842 -0.1254
  878SOL    HW2 3557   2.757   1.707   1.516  1.6000  0.1104  0.1499
  878SOL    HW3 3558   2.766   1.626   1.389  0.8541  0.3816 -0.0758
  878SOL    MW4 3559   2.763   1.630   1.475  0.2668  0.1268 -0.0826
  879SOL     OW 3560   2.727   1.879   1.588  0.3601  0.4122  0.5547
  879SOL    HW2 3561   2.720   1.886   1.683  1.5543 -1.1596  0.7992
  879SOL    HW3 3562   2.656   1.932   1.554 -0.8398  0.0107  2.3559
  879SOL    MW4 3563   2.717   1.887   1.596  0.3593  0.1519  0.8246
  880SOL     OW 3564   2.949   2.040   1.458  0.2793  0.1637 -0.7807
  880SOL    HW2 3565   2.965   2.115   1.516  0.8041  0.5861 -1.4695
  880SOL    HW3 3566   2.873   1.997   1.496  0.9894  0.0806  0.5966
  880SOL    MW4 3567   2.941   2.044   1.471  0.4423  0.2081 -0.6897
  881SOL     OW 3568   2.967   2.322   1.539  0.2632  0.5507 -0.3371
  881SOL    HW2 3569   2.951   2.331   1.633  0.1784  0.3575 -0.3331
  881SOL    HW3 3570   2.886   2.352   1.498  0.0084 -0.1147 -0.3258
  881SOL    MW4 3571   2.954   2.328   1.546  0.2184  0.4373 -0.3351
  882SOL     OW 3572   2.706   2.440   1.512  0.1589  0.4520  0.2605
  882SOL    HW2 3573   2.715   2.530   1.544  0.1880  0.8463 -0.8206
  882SOL    HW3 3574   2.619   2.413   1.541 -0.5120  1.4223 -0.8276
  882SOL    MW4 3575   2.696   2.448   1.520  0.0741  0.6323 -0.0259
  883SOL     OW 3576   2.699   2.694   1.590  0.0138 -0.1961  0.3027
  883SOL    HW2 3577   2.758   2.759   1.554 -1.2784  0.6103 -0.4162
  883SOL    HW3 3578   2.613   2.718   1.556 -0.8203 -1.0124  1.7475
  883SOL    MW4 3579   2.695   2.706   1.581 -0.2670 -0.1974  0.3984
  884SOL     OW 3580   2.893   2.861   1.491  0.1984  0.2115 -0.0637
  884SOL    HW2 3581   2.960   2.824   1.549 -1.1364 -0.6062  0.9730
  884SOL    HW3 3582   2.896   2.955   1.508 -0.1980 -0.0197  1.3591
  884SOL    MW4 3583   2.902   2.868   1.501 -0.0296  0.0730  0.2608
  885SOL     OW 3584   2.929   3.126   1.589 -0.8773 -0.1763 -0.3664
  885SOL    HW2 3585   2.947   3.122   1.683 -0.6765 -1.3942 -0.4466
  885SOL    HW3 3586   3.012   3.152   1.549 -0.7975 -0.2617 -0.2551
  885SOL    MW4 3587   2.942   3.129   1.596 -0.8404 -0.3483 -0.3624
  886SOL     OW 3588   2.697   3.251   1.456 -0.0721 -0.1699  0.4475
  886SOL    HW2 3589   2.776   3.216   1.496 -0.0726 -0.8067 -0.1119
  886SOL    HW3 3590   2.708   3.235   1.362 -0.6790  0.1071  0.3270
  886SOL    MW4 3591   2.709   3.244   1.449 -0.1523 -0.2172  0.3577
  887SOL     OW 3592   2.686   3.508   1.578 -0.6135  0.4757  0.6308
  887SOL    HW2 3593   2.674   3.497   1.673 -1.8498 -0.4353  0.3674
  887SOL    HW3 3594   2.683   3.419   1.543 -0.3568  0.8306 -0.3028
  887SOL    MW4 3595   2.684   3.495   1.586 -0.7427  0.4025  0.4729
  888SOL     OW 3596   2.942   3.615   1.486 -0.1806  0.0018  0.1010
  888SOL    HW2 3597   2.858   3.579   1.513  0.2691 -2.2040 -1.3021
  888SOL    HW3 3598   2.943   3.605   1.391  1.2723  0.8949 -0.0010
  888SOL    MW4 3599   2.931   3.609   1.477  0.0706 -0.1714 -0.0976
  889SOL     OW 3600   2.961   3.878   1.626 -0.0242  0.3592  0.1555
  889SOL    HW2 3601   2.878   3.919   1.603 -0.8278 -0.7837  0.9802
  889SOL    HW3 3602   2.957   3.790   1.588 -0.0547 -0.4204  1.9135
  889SOL    MW4 3603   2.950   3.872   1.618 -0.1342  0.1056  0.4963
  890SOL     OW 3604   2.705   3.983   1.517 -0.1511 -0.1515  0.3549
  890SOL    HW2 3605   2.730   4.069   1.551 -0.1354 -0.0774  0.1629
  890SOL    HW3 3606   2.733   3.985   1.425  0.6915 -0.7153  0.5925
  890SOL    MW4 3607   2.712   3.995   1.509 -0.0379 -0.2160  0.3608
  891SOL     OW 3608   2.733   4.259   1.597  0.4146  0.1206  0.2096
  891SOL    HW2 3609   2.798   4.322   1.567 -0.3010  2.0877  2.6050
  891SOL    HW3 3610   2.649   4.297   1.571  0.0611 -0.9809 -0.3064
  891SOL    MW4 3611   2.730   4.272   1.589  0.2737  0.2346  0.4575
  892SOL     OW 3612   2.936   4.394   1.477 -0.1976 -0.3530  0.0278
  892SOL    HW2 3613   2.972   4.481   1.495  1.0367 -1.0558  1.0616
  892SOL    HW3 3614   2.922   4.392   1.383 -1.1999  1.3259  0.1268
  892SOL    MW4 3615   2.939   4.405   1.467 -0.1669 -0.2246  0.1773
  893SOL     OW 3616   3.407   4.657   1.580  0.5994  0.3393 -0.4581
  893SOL    HW2 3617   3.490   4.669   1.533 -0.3139  0.6248 -2.0438
  893SOL    HW3 3618   3.382   4.566   1.562  1.0076 -0.0144  0.7544
  893SOL    MW4 3619   3.415   4.647   1.571  0.5329  0.3303 -0.5075
  894SOL     OW 3620   3.173   0.135   1.484  0.7292 -0.1993  0.1414
  894SOL    HW2 3621   3.255   0.095   1.513  1.0740  1.3451  1.3739
  894SOL    HW3 3622   3.105   0.081   1.524  1.1233 -2.0192 -1.6171
  894SOL    MW4 3623   3.175   0.123   1.493  0.8266 -0.2356  0.0720
  895SOL     OW 3624   3.177   0.381   1.603  0.0890  0.0737 -0.8293
  895SOL    HW2 3625   3.162   0.299   1.557 -0.0744  0.3376 -1.2456
  895SOL    HW3 3626   3.096   0.430   1.592  0.1964  0.3036 -0.6031
  895SOL    MW4 3627   3.165   0.377   1.595  0.0815  0.1389 -0.8544
  896SOL     OW 3628   3.408   0.498   1.501  0.6219  0.1948 -0.2314
  896SOL    HW2 3629   3.334   0.451   1.537  1.2299 -1.5491 -1.2172
  896SOL    HW3 3630   3.399   0.489   1.406  1.2519  1.2778 -0.4092
  896SOL    MW4 3631   3.397   0.491   1.493  0.7849  0.1076 -0.3850
  897SOL     OW 3632   3.378   0.762   1.569 -0.1918 -0.1198 -0.0759
  897SOL    HW2 3633   3.382   0.762   1.665  2.1230 -0.2649 -0.1355
  897SOL    HW3 3634   3.397   0.671   1.545  1.4103  0.3577 -0.6986
  897SOL    MW4 3635   3.381   0.750   1.579  0.3250 -0.0759 -0.1659
  898SOL     OW 3636   3.147   0.851   1.483 -0.0739  0.3620 -0.0834
  898SOL    HW2 3637   3.221   0.797   1.509 -0.0737  0.4803  0.1678
  898SOL    HW3 3638   3.071   0.809   1.525 -0.0850  0.5054  0.0411
  898SOL    MW4 3639   3.147   0.838   1.492 -0.0753  0.3965 -0.0339
  899SOL     OW 3640   3.144   1.114   1.558 -0.4493 -0.2722  0.0400
  899SOL    HW2 3641   3.140   1.113   1.654  1.9391 -0.6089  0.1606
  899SOL    HW3 3642   3.136   1.022   1.533 -1.1441 -0.1771 -0.0952
  899SOL    MW4 3643   3.143   1.102   1.568 -0.2258 -0.3041  0.0380
  900SOL     OW 3644   3.398   1.284   1.518  0.1493  0.0903  0.2850
  900SOL    HW2 3645   3.322   1.232   1.543 -0.6305  1.7506  1.4420
  900SOL    HW3 3646   3.470   1.246   1.568  0.1497 -1.5899 -0.9366
  900SOL    MW4 3647   3.398   1.272   1.528  0.0465  0.0877  0.2763
  901SOL     OW 3648   3.413   1.523   1.629 -0.0719  0.2310  0.2399
  901SOL    HW2 3649   3.402   1.516   1.724 -2.5527 -0.1391 -0.0428
  901SOL    HW3 3650   3.408   1.433   1.597  1.4750  0.2861 -0.1809
  901SOL    MW4 3651   3.411   1.510   1.637 -0.1953  0.1895  0.1471
  902SOL     OW 3652   3.215   1.640   1.472  0.7691  0.0035  0.3777
  902SOL    HW2 3653   3.288   1.633   1.533  0.7295 -1.5042  0.2816
  902SOL    HW3 3654   3.142   1.597   1.516 -0.3066  2.2386  0.8165
  902SOL    MW4 3655   3.215   1.633   1.486  0.6218  0.0995  0.4228
  903SOL     OW 3656   3.164   1.904   1.552 -0.1351 -0.1101  0.1587
  903SOL    HW2 3657   3.184   1.824   1.504  0.7670 -0.1583  0.6195
  903SOL    HW3 3658   3.095   1.946   1.500  1.1093  0.0331 -1.3919
  903SOL    MW4 3659   3.157   1.899   1.539  0.1481 -0.0976  0.0149
  904SOL     OW 3660   3.382   2.068   1.486 -0.1598  0.0503 -0.1676
  904SOL    HW2 3661   3.320   1.997   1.501 -1.2266  1.3715  1.8784
  904SOL    HW3 3662   3.384   2.078   1.391 -1.6105 -1.3013 -0.3560
  904SOL    MW4 3663   3.374   2.060   1.475 -0.4921  0.0465  0.0775
  905SOL     OW 3664   3.414   2.316   1.593 -0.5389 -0.5243  0.2659
  905SOL    HW2 3665   3.498   2.349   1.561 -1.3655  1.1781 -0.2525
  905SOL    HW3 3666   3.402   2.232   1.548 -0.2497  0.3863 -1.5974
  905SOL    MW4 3667   3.423   2.310   1.583 -0.6101 -0.1795 -0.0483
  906SOL     OW 3668   3.196   2.471   1.478  0.1941  0.2184 -0.1869
  906SOL    HW2 3669   3.271   2.423   1.513  1.5279 -0.3555 -3.5778
  906SOL    HW3 3670   3.121   2.417   1.500  1.2118 -1.2122 -0.1184
  906SOL    MW4 3671   3.196   2.458   1.485  0.5043 -0.0463 -0.6253
  907SOL     OW 3672   3.114   2.713   1.599 -0.3231 -0.3537 -0.0632
  907SOL    HW2 3673   3.194   2.766   1.598 -1.1533  0.9453  0.3373
  907SOL    HW3 3674   3.137   2.633   1.551  0.6540  0.8448 -1.6550
  907SOL    MW4 3675   3.127   2.710   1.592 -0.3037 -0.0243 -0.2204
  908SOL     OW 3676   3.366   2.838   1.503 -0.1043 -0.3222 -0.2050
  908SOL    HW2 3677   3.383   2.927   1.532 -1.1554 -0.3779  0.6065
  908SOL    HW3 3678   3.366   2.843   1.408  1.3659  0.2507 -0.1814
  908SOL    MW4 3679   3.368   2.850   1.494 -0.0489 -0.2539 -0.0947
  909SOL     OW 3680   3.387   3.094   1.595  0.5076  0.3792 -0.0528
  909SOL    HW2 3681   3.357   3.105   1.686  0.0684 -1.1620 -0.0031
  909SOL    HW3 3682   3.461   3.154   1.588 -0.5171  1.7911  0.8046
  909SOL    MW4 3683   3.393   3.104   1.606  0.3145  0.3624  0.0669
  910SOL     OW 3684   3.162   3.218   1.493  0.6920  0.1553 -0.3284
  910SOL    HW2 3685   3.244   3.185   1.531  1.0325  0.9259 -0.3828
  910SOL    HW3 3686   3.178   3.221   1.399  0.9147  1.1269 -0.2708
  910SOL    MW4 3687   3.175   3.214   1.486  0.7665  0.3853 -0.3279
  911SOL     OW 3688   3.150   3.484   1.608 -0.1707  0.0291  0.5255
  911SOL    HW2 3689   3.155   3.392   1.579  0.6163  0.4697 -0.7653
  911SOL    HW3 3690   3.070   3.517   1.567 -0.5292 -0.1174  1.1050
  911SOL    MW4 3691   3.140   3.476   1.599 -0.1142  0.0677  0.4315
  912SOL     OW 3692   3.365   3.621   1.489  0.0272  0.3167  0.5863
  912SOL    HW2 3693   3.437   3.568   1.524 -0.2015 -0.2979  0.1260
  912SOL    HW3 3694   3.286   3.580   1.522 -0.2021 -0.4270 -0.8588
  912SOL    MW4 3695   3.364   3.609   1.498 -0.0334  0.1376  0.3350
  913SOL     OW 3696   3.369   3.876   1.616 -0.2882  0.3101  0.2954
  913SOL    HW2 3697   3.301   3.915   1.561  0.8594  2.1509  0.1385
  913SOL    HW3 3698   3.376   3.786   1.585 -0.5910  0.9396 -1.6971
  913SOL    MW4 3699   3.361   3.869   1.604 -0.1767  0.6361  0.0118
  914SOL     OW 3700   3.157   3.993   1.485 -0.0614 -0.3253 -0.0370
  914SOL    HW2 3701   3.151   4.087   1.504 -0.3386 -0.1415 -0.9968
  914SOL    HW3 3702   3.092   3.953   1.543 -0.1941  0.1184  0.1244
  914SOL    MW4 3703   3.148   4.000   1.495 -0.1154 -0.2422 -0.1423
  915SOL     OW 3704   3.138   4.252   1.579 -0.0857 -0.5243 -0.0106
  915SOL    HW2 3705   3.145   4.252   1.674  0.4604  0.8271 -0.0336
  915SOL    HW3 3706   3.055   4.296   1.561 -0.8927 -2.0725 -0.1323
  915SOL    MW4 3707   3.128   4.258   1.589 -0.1202 -0.5503 -0.0298
  916SOL     OW 3708   3.358   4.395   1.513 -0.5795 -0.0897 -0.2197
  916SOL    HW2 3709   3.275   4.349   1.528 -1.3208  1.3578  0.1870
  916SOL    HW3 3710   3.354   4.423   1.422 -0.4332 -0.2206 -0.2665
  916SOL    MW4 3711   3.347   4.393   1.503 -0.6578  0.0844 -0.1723
  917SOL     OW 3712   3.890   4.652   1.568 -0.0400 -0.2179 -0.0271
  917SOL    HW2 3713   3.886   4.680   1.659 -0.8751 -0.1531 -0.0821
  917SOL    HW3 3714   3.957   4.708   1.529 -0.1986  0.2548  0.3718
  917SOL    MW4 3715   3.898   4.663   1.575 -0.1712 -0.1469  0.0182
  918SOL     OW 3716   3.657   0.110   1.461  0.3149 -0.7419 -0.2281
  918SOL    HW2 3717   3.746   0.083   1.483  1.0118  0.8335 -1.0339
  918SOL    HW3 3718   3.653   0.106   1.365  0.0856  0.8656 -0.3021
  918SOL    MW4 3719   3.668   0.106   1.451  0.3765 -0.3219 -0.3442
  919SOL     OW 3720   3.619   0.356   1.601 -0.2387 -0.1678 -0.7311
  919SOL    HW2 3721   3.627   0.271   1.556  0.5148  0.1168 -1.1470
  919SOL    HW3 3722   3.553   0.403   1.551 -0.2727 -0.3079 -0.8184
  919SOL    MW4 3723   3.612   0.351   1.588 -0.1438 -0.1488 -0.7975
  920SOL     OW 3724   3.815   0.522   1.491 -0.3754  0.3409  0.2944
  920SOL    HW2 3725   3.756   0.456   1.528 -0.2825 -0.2152 -0.5417
  920SOL    HW3 3726   3.809   0.510   1.397 -0.4874  1.6548  0.1200
  920SOL    MW4 3727   3.806   0.512   1.484 -0.3781  0.4410  0.1609
  921SOL     OW 3728   3.806   0.796   1.616 -0.3656 -0.6833 -0.2614
  921SOL    HW2 3729   3.724   0.834   1.584 -0.1409 -0.0529 -0.1127
  921SOL    HW3 3730   3.806   0.707   1.583 -0.6672 -0.3892 -1.0659
  921SOL    MW4 3731   3.795   0.789   1.608 -0.3755 -0.5613 -0.3479
  922SOL     OW 3732   3.583   0.915   1.495  0.0898 -0.1467  0.0380
  922SOL    HW2 3733   3.513   0.855   1.521  0.8035 -0.7904  0.4907
  922SOL    HW3 3734   3.595   0.900   1.401 -1.5073  1.1557 -0.4039
  922SOL    MW4 3735   3.576   0.905   1.486 -0.0269 -0.0598  0.0395
  923SOL     OW 3736   3.600   1.156   1.634  0.0809 -0.0035  0.0609
  923SOL    HW2 3737   3.683   1.193   1.602  1.0634 -1.5198  0.8130
  923SOL    HW3 3738   3.596   1.070   1.594 -0.5371 -0.4198  1.0150
  923SOL    MW4 3739   3.611   1.150   1.624  0.1290 -0.2586  0.2860
  924SOL     OW 3740   3.813   1.276   1.529  0.0701  0.2992 -0.4576
  924SOL    HW2 3741   3.899   1.237   1.544  0.8021  1.4016 -1.7684
  924SOL    HW3 3742   3.824   1.368   1.552 -0.6108  0.5661 -1.1972
  924SOL    MW4 3743   3.826   1.283   1.534  0.0768  0.4798 -0.7282
  925SOL     OW 3744   3.836   1.541   1.596  0.0739  0.0962 -0.2779
  925SOL    HW2 3745   3.853   1.562   1.688  0.3513 -0.5853 -0.1641
  925SOL    HW3 3746   3.762   1.596   1.571 -0.0700  0.2050  0.3903
  925SOL    MW4 3747   3.829   1.551   1.605  0.0916  0.0209 -0.1748
  926SOL     OW 3748   3.609   1.690   1.542 -0.0965  0.0691 -0.3452
  926SOL    HW2 3749   3.539   1.634   1.576 -1.4161  1.6848 -0.3564
  926SOL    HW3 3750   3.603   1.678   1.447  0.0949 -0.3213 -0.3099
  926SOL    MW4 3751   3.599   1.681   1.534 -0.2453  0.2308 -0.3420
  927SOL     OW 3752   3.616   1.949   1.595  0.2230 -0.0791  0.2186
  927SOL    HW2 3753   3.614   1.856   1.573  1.4016 -0.0077 -0.2314
  927SOL    HW3 3754   3.534   1.983   1.559 -0.9023 -1.1917  1.6297
  927SOL    MW4 3755   3.605   1.941   1.587  0.2301 -0.2165  0.3453
  928SOL     OW 3756   3.854   2.063   1.531 -0.5544 -0.1711  0.1762
  928SOL    HW2 3757   3.855   2.152   1.564 -0.0795  0.6688 -2.0125
  928SOL    HW3 3758   3.767   2.030   1.554 -1.2667  1.3521 -0.2536
  928SOL    MW4 3759   3.842   2.070   1.538 -0.5858  0.1407 -0.1692
  929SOL     OW 3760   3.857   2.326   1.634  0.0782 -0.4303 -0.7967
  929SOL    HW2 3761   3.858   2.354   1.725 -1.1206 -2.3884 -0.1497
  929SOL    HW3 3762   3.938   2.363   1.597 -0.0203  1.3994  0.7129
  929SOL    MW4 3763   3.868   2.335   1.641 -0.0930 -0.4473 -0.5122
  930SOL     OW 3764   3.642   2.428   1.477  0.3201  0.0343 -0.1882
  930SOL    HW2 3765   3.622   2.504   1.531 -1.4129 -0.8500  0.4920
  930SOL    HW3 3766   3.710   2.381   1.525  0.3393  0.4034  0.1451
  930SOL    MW4 3767   3.648   2.432   1.491  0.0942 -0.0336 -0.0545
  931SOL     OW 3768   3.601   2.698   1.575 -0.3047  0.1277 -0.3127
  931SOL    HW2 3769   3.603   2.686   1.670 -1.4075 -0.4939 -0.3544
  931SOL    HW3 3770   3.516   2.740   1.558  0.2939  1.0987 -0.9294
  931SOL    MW4 3771   3.590   2.702   1.585 -0.3712  0.1736 -0.3995
  932SOL     OW 3772   3.823   2.834   1.482  0.0782  0.2254  0.0435
  932SOL    HW2 3773   3.889   2.779   1.524 -1.7766 -2.2314 -0.1818
  932SOL    HW3 3774   3.739   2.794   1.506 -1.2312  1.8488 -1.6932
  932SOL    MW4 3775   3.820   2.822   1.491 -0.3390  0.1156 -0.2153
  933SOL     OW 3776   3.806   3.079   1.605  0.2614  0.2602  0.1537
  933SOL    HW2 3777   3.874   3.126   1.556  0.3182  0.4178  0.3814
  933SOL    HW3 3778   3.815   2.988   1.578  0.6648  0.2573  0.3016
  933SOL    MW4 3779   3.816   3.073   1.595  0.3221  0.2806  0.2033
  934SOL     OW 3780   3.625   3.240   1.493  0.3345 -0.1534  0.0390
  934SOL    HW2 3781   3.685   3.171   1.521  0.3606 -0.6337 -1.1655
  934SOL    HW3 3782   3.630   3.239   1.397 -1.3440  0.0185 -0.0742
  934SOL    MW4 3783   3.633   3.230   1.484  0.1166 -0.1941 -0.1348
  935SOL     OW 3784   3.590   3.477   1.622  0.1760 -0.7912 -0.3600
  935SOL    HW2 3785   3.666   3.523   1.587  0.8099 -1.6863 -0.1933
  935SOL    HW3 3786   3.594   3.390   1.582 -2.1009 -0.1032 -2.1997
  935SOL    MW4 3787   3.600   3.471   1.612 -0.0408 -0.8187 -0.5808
  936SOL     OW 3788   3.793   3.635   1.508 -0.0797  0.3239 -0.1160
  936SOL    HW2 3789   3.875   3.587   1.517 -0.1195  0.3134  0.2032
  936SOL    HW3 3790   3.817   3.726   1.526  0.3529  0.7096 -2.5330
  936SOL    MW4 3791   3.807   3.641   1.512 -0.0277  0.3731 -0.3927
  937SOL     OW 3792   3.812   3.915   1.597  0.3399 -0.0870 -0.2038
  937SOL    HW2 3793   3.888   3.961   1.561  0.5024  0.9052  1.3506
  937SOL    HW3 3794   3.736   3.961   1.560  0.5053  0.1342 -0.2679
  937SOL    MW4 3795   3.812   3.927   1.587  0.3834  0.0732 -0.0073
  938SOL     OW 3796   3.583   3.995   1.469 -0.4516 -0.2483  0.0515
  938SOL    HW2 3797   3.582   4.082   1.509  1.1882 -1.1211  2.0925
  938SOL    HW3 3798   3.512   3.948   1.513 -2.0116  0.3602 -1.7919
  938SOL    MW4 3799   3.574   4.001   1.480 -0.4411 -0.2828  0.0775
  939SOL     OW 3800   3.601   4.252   1.587  0.1984  0.0306 -0.5642
  939SOL    HW2 3801   3.610   4.232   1.680 -0.8056 -1.6089 -0.7840
  939SOL    HW3 3802   3.516   4.295   1.579  0.2713  0.1479 -0.7181
  939SOL    MW4 3803   3.591   4.255   1.598  0.0758 -0.1693 -0.6135
  940SOL     OW 3804   3.844   4.383   1.493  0.2449 -0.2914 -0.0354
  940SOL    HW2 3805   3.759   4.346   1.519 -0.0939  0.6685  0.2455
  940SOL    HW3 3806   3.839   4.474   1.521  0.5418  0.3282 -1.9508
  940SOL    MW4 3807   3.832   4.390   1.501  0.2394 -0.0830 -0.2511
  941SOL     OW 3808   4.277   0.016   1.575  0.1823 -0.2996 -0.0147
  941SOL    HW2 3809   4.264   0.004   1.669  0.3486  0.3825  0.1008
  941SOL    HW3 3810   4.285  -0.072   1.540  2.6723 -0.5091  0.9912
  941SOL    MW4 3811   4.276   0.003   1.583  0.5326 -0.2372  0.1332
  942SOL     OW 3812   4.078   0.132   1.441  0.4158 -0.2848  0.2148
  942SOL    HW2 3813   4.076   0.219   1.479  2.6196  0.7450 -1.8162
  942SOL    HW3 3814   4.155   0.090   1.480  0.2654 -0.7484  0.0274
  942SOL    MW4 3815   4.088   0.138   1.451  0.6871 -0.2101 -0.0780
  943SOL     OW 3816   4.057   0.380   1.582  0.1071  0.4245  0.6208
  943SOL    HW2 3817   4.048   0.356   1.674 -1.5474  0.3115  0.4442
  943SOL    HW3 3818   3.979   0.432   1.563  0.0031 -0.2820 -0.9474
  943SOL    MW4 3819   4.046   0.384   1.591 -0.1245  0.3164  0.3906
  944SOL     OW 3820   4.311   0.509   1.528  0.3424  0.2493 -0.3017
  944SOL    HW2 3821   4.239   0.453   1.558  1.1979 -0.2928  0.7382
  944SOL    HW3 3822   4.388   0.477   1.574  0.7220  2.7548  0.8844
  944SOL    MW4 3823   4.312   0.497   1.538  0.5054  0.5084 -0.0080
  945SOL     OW 3824   4.252   0.751   1.617 -0.2977  0.0955 -0.5379
  945SOL    HW2 3825   4.256   0.670   1.567  1.1092  0.2837 -0.7364
  945SOL    HW3 3826   4.325   0.804   1.585  0.1866  0.5215  1.1834
  945SOL    MW4 3827   4.262   0.747   1.606 -0.0477  0.1765 -0.3368
  946SOL     OW 3828   4.039   0.901   1.506  0.0164  0.3892  0.1746
  946SOL    HW2 3829   4.111   0.844   1.532  0.3336  0.5105 -0.4253
  946SOL    HW3 3830   3.961   0.862   1.547  0.4963  0.5548  1.2452
  946SOL    MW4 3831   4.038   0.888   1.515  0.1216  0.4271  0.2367
  947SOL     OW 3832   4.051   1.172   1.596  0.1809 -0.5623 -0.2428
  947SOL    HW2 3833   4.051   1.180   1.691 -1.4809  0.6434 -0.3277
  947SOL    HW3 3834   4.056   1.077   1.580  2.4240 -0.6902  0.9905
  947SOL    MW4 3835   4.051   1.160   1.606  0.2580 -0.4202 -0.0913
  948SOL     OW 3836   4.309   1.253   1.537 -0.3846 -0.3631  0.4588
  948SOL    HW2 3837   4.227   1.208   1.559 -0.1751 -0.4749  1.0305
  948SOL    HW3 3838   4.377   1.199   1.577 -0.0529 -0.1127  0.2349
  948SOL    MW4 3839   4.307   1.240   1.545 -0.3133 -0.3449  0.5047
  949SOL     OW 3840   4.268   1.504   1.626 -0.2448 -0.2523  0.2484
  949SOL    HW2 3841   4.290   1.417   1.595  0.4982  0.8142 -2.3885
  949SOL    HW3 3842   4.340   1.559   1.595 -1.2869  1.5022  0.8631
  949SOL    MW4 3843   4.281   1.500   1.618 -0.2842  0.1199 -0.0184
  950SOL     OW 3844   4.065   1.680   1.525  0.4522  0.4121 -0.2234
  950SOL    HW2 3845   4.135   1.619   1.546  0.1010 -0.6117 -1.9368
  950SOL    HW3 3846   3.984   1.632   1.541  0.1431  1.0619  0.2211
  950SOL    MW4 3847   4.063   1.666   1.530  0.3657  0.3628 -0.3908
  951SOL     OW 3848   4.064   1.941   1.672  0.2711  0.3451  0.4057
  951SOL    HW2 3849   4.063   1.849   1.645  0.1103  0.4660 -0.0031
  951SOL    HW3 3850   4.006   1.985   1.610 -0.4669  0.5482  1.2213
  951SOL    MW4 3851   4.056   1.935   1.660  0.1526  0.3877  0.4593
  952SOL     OW 3852   4.310   2.061   1.571 -0.1115  0.1292 -0.2129
  952SOL    HW2 3853   4.232   2.022   1.611  0.7454 -1.1906  0.2129
  952SOL    HW3 3854   4.291   2.062   1.477 -0.8270  0.2409 -0.0672
  952SOL    MW4 3855   4.298   2.056   1.564 -0.0930 -0.0300 -0.1376
  953SOL     OW 3856   4.307   2.322   1.622  0.2982  0.4634  0.7557
  953SOL    HW2 3857   4.290   2.330   1.716 -1.0365 -2.6260  0.8258
  953SOL    HW3 3858   4.323   2.228   1.608  0.6585  0.8928 -2.0877
  953SOL    MW4 3859   4.307   2.311   1.633  0.1693  0.1123  0.3898
  954SOL     OW 3860   4.069   2.439   1.519 -0.0215 -0.1758 -0.4661
  954SOL    HW2 3861   4.056   2.533   1.535  0.2946  0.0826 -1.6655
  954SOL    HW3 3862   4.146   2.417   1.571 -0.3455  0.1351  0.1558
  954SOL    MW4 3863   4.077   2.449   1.528 -0.0224 -0.1009 -0.5420
  955SOL     OW 3864   4.054   2.745   1.606 -0.2993  0.0624  0.4937
  955SOL    HW2 3865   4.053   2.760   1.701 -0.4175  1.6170  0.2659
  955SOL    HW3 3866   4.127   2.797   1.574  0.6469 -1.6135 -0.1044
  955SOL    MW4 3867   4.063   2.754   1.614 -0.1903  0.0465  0.3848
  956SOL     OW 3868   4.297   2.859   1.499  0.2434 -0.2539  0.2415
  956SOL    HW2 3869   4.280   2.952   1.513  0.3584 -0.1114 -0.5706
  956SOL    HW3 3870   4.294   2.847   1.404  0.6470 -0.9962  0.3136
  956SOL    MW4 3871   4.295   2.870   1.489  0.3119 -0.3331  0.1439
  957SOL     OW 3872   4.272   3.133   1.578  0.2796  0.0633 -0.1732
  957SOL    HW2 3873   4.275   3.135   1.673  0.1164  0.3912 -0.1722
  957SOL    HW3 3874   4.361   3.156   1.551 -0.0528  1.5082 -0.1041
  957SOL    MW4 3875   4.285   3.136   1.587  0.2141  0.2973 -0.1639
  958SOL     OW 3876   4.027   3.222   1.498 -0.1494 -0.1115  0.0288
  958SOL    HW2 3877   4.014   3.314   1.522 -0.6582 -0.2239  0.2020
  958SOL    HW3 3878   4.106   3.196   1.545  0.5475  0.5107 -0.7993
  958SOL    MW4 3879   4.035   3.231   1.507 -0.1245 -0.0441 -0.0576
  959SOL     OW 3880   4.016   3.486   1.595  0.1905  0.0631  0.0548
  959SOL    HW2 3881   4.021   3.485   1.690  0.8870 -1.0850  0.0101
  959SOL    HW3 3882   4.107   3.496   1.567  0.2067 -1.5252 -0.5084
  959SOL    MW4 3883   4.029   3.487   1.604  0.2851 -0.2980 -0.0255
  960SOL     OW 3884   4.285   3.576   1.508  0.3455 -0.1256 -0.6585
  960SOL    HW2 3885   4.283   3.669   1.529  0.0177 -0.0976 -0.8059
  960SOL    HW3 3886   4.279   3.573   1.412  1.0408 -0.2750 -0.6960
  960SOL    MW4 3887   4.284   3.588   1.498  0.3943 -0.1419 -0.6828
  961SOL     OW 3888   4.274   3.847   1.578 -0.4810  0.7214  0.1832
  961SOL    HW2 3889   4.200   3.897   1.544 -0.1122  1.3468  0.2838
  961SOL    HW3 3890   4.348   3.906   1.570 -0.0686  0.2496  0.4741
  961SOL    MW4 3891   4.274   3.861   1.572 -0.3781  0.7417  0.2348
  962SOL     OW 3892   4.063   4.006   1.496  0.0442 -0.0379 -0.3722
  962SOL    HW2 3893   4.088   4.087   1.541  0.1718 -0.5441  0.4796
  962SOL    HW3 3894   4.082   4.022   1.404 -0.9293  1.2935 -0.3505
  962SOL    MW4 3895   4.069   4.019   1.490 -0.0677  0.0710 -0.2569
  963SOL     OW 3896   4.086   4.275   1.619  0.0727  0.6620  0.2392
  963SOL    HW2 3897   4.083   4.285   1.714 -0.4002  0.0383  0.2883
  963SOL    HW3 3898   4.001   4.306   1.588 -0.0929  0.0761  0.0960
  963SOL    MW4 3899   4.075   4.281   1.627 -0.0119  0.5021  0.2267
  964SOL     OW 3900   4.305   4.395   1.461  0.5908 -0.6009 -0.1258
  964SOL    HW2 3901   4.228   4.347   1.490 -0.1530 -0.4945 -1.8887
  964SOL    HW3 3902   4.309   4.379   1.366  1.9354  0.5173 -0.2682
  964SOL    MW4 3903   4.296   4.387   1.452  0.6700 -0.4387 -0.3772
  965SOL     OW 3904   0.197   4.658   1.907  0.4090 -0.2915 -0.4310
  965SOL    HW2 3905   0.277   4.706   1.928 -0.4722  0.8341  0.4097
  965SOL    HW3 3906   0.190   4.663   1.811  0.9033  0.3251 -0.4351
  965SOL    MW4 3907   0.207   4.665   1.897  0.3579 -0.0615 -0.3206
  966SOL     OW 3908   4.489   0.148   2.023 -0.1129 -0.0319  0.1574
  966SOL    HW2 3909   4.494   0.235   1.985  1.5587  0.2970  1.0517
  966SOL    HW3 3910   4.563   0.101   1.985  0.4658 -0.2710  1.5341
  966SOL    MW4 3911   4.500   0.153   2.013  0.1841 -0.0201  0.4570
  967SOL     OW 3912   0.021   0.386   1.900 -0.1558  0.6013  0.2004
  967SOL    HW2 3913  -0.057   0.429   1.933  0.2299  2.1520 -0.8503
  967SOL    HW3 3914   0.093   0.424   1.952  0.1790  1.2227 -0.6976
  967SOL    MW4 3915   0.020   0.397   1.912 -0.0607  0.8878 -0.0566
  968SOL     OW 3916   0.247   0.496   2.024 -0.5353  0.3291  0.3403
  968SOL    HW2 3917   0.315   0.447   1.979  0.8663  0.3732  2.3568
  968SOL    HW3 3918   0.242   0.579   1.977  0.6140  0.2249  0.0257
  968SOL    MW4 3919   0.255   0.500   2.012 -0.1988  0.3212  0.5651
  969SOL     OW 3920   0.228   0.748   1.891  0.5872 -0.2803  0.0575
  969SOL    HW2 3921   0.319   0.779   1.888  0.1275  1.1656  0.4379
  969SOL    HW3 3922   0.208   0.724   1.800  0.8727  0.8921 -0.3327
  969SOL    MW4 3923   0.237   0.749   1.878  0.5642  0.0650  0.0563
  970SOL     OW 3924   0.000   0.850   2.035  0.1881  0.2065  0.5401
  970SOL    HW2 3925  -0.064   0.819   1.972  0.2611  0.0803  0.5271
  970SOL    HW3 3926   0.080   0.803   2.012  0.3900  0.6591  0.3027
  970SOL    MW4 3927   0.002   0.840   2.024  0.2241  0.2496  0.5069
  971SOL     OW 3928   0.062   1.133   1.952 -0.2824  0.8354 -0.5845
  971SOL    HW2 3929  -0.023   1.170   1.974 -0.1542  1.1637 -0.6327
  971SOL    HW3 3930   0.058   1.042   1.980 -0.8969  0.6669 -1.2168
  971SOL    MW4 3931   0.051   1.126   1.958 -0.3466  0.8565 -0.6744
  972SOL     OW 3932   0.276   1.290   2.020 -0.2825  0.6260 -0.0604
  972SOL    HW2 3933   0.261   1.372   1.973 -1.7410  0.1724 -0.4069
  972SOL    HW3 3934   0.198   1.237   2.001  0.6095 -0.8091  0.2201
  972SOL    MW4 3935   0.264   1.293   2.011 -0.3572  0.3768 -0.0694
  973SOL     OW 3936   0.218   1.530   1.891 -0.3117  0.1140  0.6138
  973SOL    HW2 3937   0.292   1.583   1.922 -0.5311  1.0335 -0.4084
  973SOL    HW3 3938   0.143   1.562   1.940 -0.5240  1.0775 -0.3009
  973SOL    MW4 3939   0.218   1.541   1.901 -0.3686  0.3624  0.3583
  974SOL     OW 3940   0.007   1.664   2.010 -0.1342  0.5993 -0.6158
  974SOL    HW2 3941  -0.005   1.646   2.103 -0.8405  0.2601 -0.7642
  974SOL    HW3 3942  -0.065   1.617   1.967 -0.2206  1.3131 -1.2702
  974SOL    MW4 3943  -0.004   1.655   2.016 -0.2388  0.6486 -0.7217
  975SOL     OW 3944   0.019   1.922   1.905  0.2790 -0.2115 -0.4401
  975SOL    HW2 3945  -0.063   1.963   1.933  0.9927  0.1922  1.0574
  975SOL    HW3 3946   0.018   1.836   1.947 -0.9705 -1.5688 -3.1563
  975SOL    MW4 3947   0.008   1.916   1.914  0.2083 -0.3374 -0.6009
  976SOL     OW 3948   0.229   2.069   2.008 -0.7368  0.0698  0.3821
  976SOL    HW2 3949   0.241   2.145   1.951 -0.4794  0.3214  0.7673
  976SOL    HW3 3950   0.155   2.022   1.970  0.7206 -0.8707 -1.3436
  976SOL    MW4 3951   0.221   2.073   1.995 -0.5105 -0.0210  0.2053
  977SOL     OW 3952   0.252   2.301   1.868 -0.4566 -0.2628  0.4561
  977SOL    HW2 3953   0.330   2.335   1.912 -1.1719  1.5455  0.3601
  977SOL    HW3 3954   0.179   2.339   1.916 -1.2769 -0.7025 -0.4292
  977SOL    MW4 3955   0.252   2.310   1.880 -0.6592 -0.0825  0.3266
  978SOL     OW 3956   0.035   2.435   1.965  0.3927  0.1370  0.4628
  978SOL    HW2 3957   0.028   2.434   2.061  0.9539  1.5142  0.5312
  978SOL    HW3 3958   0.035   2.528   1.943  2.1630 -0.1424 -0.7447
  978SOL    MW4 3959   0.034   2.447   1.975  0.7003  0.2818  0.3124
  979SOL     OW 3960   0.051   2.704   1.902 -0.1868  0.9714  0.1976
  979SOL    HW2 3961  -0.018   2.763   1.932 -0.0171  1.5201 -0.4982
  979SOL    HW3 3962   0.043   2.703   1.807 -0.4148 -0.4014  0.2109
  979SOL    MW4 3963   0.041   2.711   1.893 -0.1945  0.8628  0.1075
  980SOL     OW 3964   0.266   2.825   2.003  0.5114 -0.2601 -0.0673
  980SOL    HW2 3965   0.251   2.908   1.957  0.8985 -0.2417 -0.1574
  980SOL    HW3 3966   0.191   2.770   1.978 -0.5968  0.6142  1.2703
  980SOL    MW4 3967   0.254   2.829   1.993  0.4162 -0.1426  0.0974
  981SOL     OW 3968   0.265   3.067   1.871 -0.2247  0.5335  0.0170
  981SOL    HW2 3969   0.347   3.109   1.897  0.4801 -0.8443  0.0758
  981SOL    HW3 3970   0.258   3.086   1.777  0.1327  0.6931  0.0194
  981SOL    MW4 3971   0.275   3.075   1.862 -0.0845  0.3724  0.0250
  982SOL     OW 3972   0.051   3.210   2.010  0.6178  0.5784  0.2111
  982SOL    HW2 3973  -0.030   3.175   1.971  0.6442  0.4844  0.2421
  982SOL    HW3 3974   0.121   3.159   1.969  0.6248  0.2483  0.6401
  982SOL    MW4 3975   0.049   3.198   1.999  0.6222  0.5226  0.2717
  983SOL     OW 3976   4.464   3.459   1.906  0.1594 -0.4731  0.0717
  983SOL    HW2 3977   4.546   3.509   1.913  0.6373 -1.2703  0.2782
  983SOL    HW3 3978   4.485   3.374   1.945 -0.6770 -0.7991 -0.1851
  983SOL    MW4 3979   4.478   3.455   1.912  0.1121 -0.6211  0.0651
  984SOL     OW 3980   0.208   3.596   1.942 -0.4960 -0.1887 -0.2917
  984SOL    HW2 3981   0.219   3.618   2.035 -2.4749  0.2351 -0.1279
  984SOL    HW3 3982   0.285   3.544   1.920  0.1981  0.0551  1.4837
  984SOL    MW4 3983   0.220   3.592   1.952 -0.6655 -0.1009 -0.0359
  985SOL     OW 3984   0.220   3.857   1.820  0.2517 -0.5695 -0.1848
  985SOL    HW2 3985   0.300   3.902   1.845 -0.0631 -0.4622  0.6650
  985SOL    HW3 3986   0.220   3.776   1.871 -1.1796  0.3991  1.4119
  985SOL    MW4 3987   0.230   3.852   1.830  0.0214 -0.4272  0.1380
  986SOL     OW 3988   0.003   3.975   1.956  0.3803 -0.0557  0.3200
  986SOL    HW2 3989  -0.006   4.064   1.921 -0.4064 -0.0452  0.5408
  986SOL    HW3 3990   0.079   3.939   1.910 -0.0848  0.2718 -0.7281
  986SOL    MW4 3991   0.012   3.982   1.945  0.2146 -0.0110  0.2109
  987SOL     OW 3992   0.040   4.240   1.862  0.2587  0.2643  0.4784
  987SOL    HW2 3993  -0.032   4.294   1.895 -0.1340 -0.7419  1.3110
  987SOL    HW3 3994   0.119   4.286   1.887 -0.0790  0.7346  0.6857
  987SOL    MW4 3995   0.041   4.253   1.870  0.1624  0.1931  0.6156
  988SOL     OW 3996   0.239   4.379   1.983  0.2543 -0.3981 -0.1265
  988SOL    HW2 3997   0.236   4.392   2.078  0.5454 -1.7536  0.0745
  988SOL    HW3 3998   0.231   4.467   1.947  0.7260  0.1892  1.1675
  988SOL    MW4 3999   0.237   4.392   1.991  0.3549 -0.4997  0.0708
  989SOL     OW 4000   0.667   0.010   1.912 -0.2249  0.1564  0.3342
  989SOL    HW2 4001   0.667  -0.082   1.939 -1.4608  0.2354  0.6303
  989SOL    HW3 4002   0.660   0.007   1.817 -2.4508 -0.0408  0.4833
  989SOL    MW4 4003   0.666  -0.002   1.903 -0.6816  0.1411  0.3929
  990SOL     OW 4004   0.420   0.113   1.985  0.1061 -0.3009 -0.4473
  990SOL    HW2 4005   0.439   0.204   1.961 -0.0622  0.4573  2.0496
  990SOL    HW3 4006   0.497   0.064   1.958  0.3230  0.6448 -1.5553
  990SOL    MW4 4007   0.433   0.119   1.978  0.1125 -0.0761 -0.2642
  991SOL     OW 4008   0.468   0.382   1.895  0.1465 -0.5142 -0.5136
  991SOL    HW2 4009   0.556   0.415   1.912 -0.0306  0.7384 -1.9029
  991SOL    HW3 4010   0.465   0.368   1.800 -1.4361  0.3379 -0.6144
  991SOL    MW4 4011   0.479   0.384   1.885 -0.0857 -0.2365 -0.7102
  992SOL     OW 4012   0.720   0.504   1.981  0.1250 -0.2340  0.3151
  992SOL    HW2 4013   0.720   0.496   2.076  0.4226  1.4115  0.4637
  992SOL    HW3 4014   0.802   0.462   1.954 -0.3865 -1.5148  0.6845
  992SOL    MW4 4015   0.731   0.497   1.990  0.0969 -0.1859  0.3834
  993SOL     OW 4016   0.695   0.747   1.845  0.0479  0.0129  0.4923
  993SOL    HW2 4017   0.772   0.795   1.874  0.2836 -0.3111  0.3996
  993SOL    HW3 4018   0.698   0.664   1.894  1.5171 -1.3796 -1.8850
  993SOL    MW4 4019   0.705   0.743   1.855  0.2729 -0.2136  0.1664
  994SOL     OW 4020   0.508   0.835   2.015  0.6263 -0.2841 -0.2239
  994SOL    HW2 4021   0.498   0.928   1.991 -0.7716 -0.1417  0.8112
  994SOL    HW3 4022   0.584   0.805   1.966  2.0404  1.8226  0.5984
  994SOL    MW4 4023   0.516   0.844   2.006  0.6285  0.0126  0.0210
  995SOL     OW 4024   0.478   1.108   1.937  0.1418  0.3071  0.7834
  995SOL    HW2 4025   0.416   1.165   1.982  1.0756  0.6361  1.6848
  995SOL    HW3 4026   0.468   1.130   1.844 -0.1314  1.3072  1.0435
  995SOL    MW4 4027   0.468   1.119   1.931  0.2290  0.4823  0.9366
  996SOL     OW 4028   0.661   1.298   2.022  0.1621 -0.0160  0.0061
  996SOL    HW2 4029   0.672   1.291   2.116  1.2313  0.5690 -0.0762
  996SOL    HW3 4030   0.595   1.231   2.001  0.3057 -0.5044  1.0840
  996SOL    MW4 4031   0.654   1.288   2.031  0.3221 -0.0032  0.1376
  997SOL     OW 4032   0.679   1.569   1.941 -0.1189  0.3516  0.3403
  997SOL    HW2 4033   0.690   1.478   1.969  1.5709  0.7561  1.0655
  997SOL    HW3 4034   0.689   1.566   1.846  1.5134 -0.0173  0.5064
  997SOL    MW4 4035   0.682   1.557   1.932  0.3195  0.3564  0.4578
  998SOL     OW 4036   0.423   1.675   2.017  0.1499  0.1944 -0.1956
  998SOL    HW2 4037   0.425   1.690   2.112  0.3535 -0.7868 -0.0315
  998SOL    HW3 4038   0.512   1.649   1.995  0.1069  0.4473 -0.6555
  998SOL    MW4 4039   0.435   1.673   2.027  0.1711  0.0983 -0.2344
  999SOL     OW 4040   0.417   1.915   1.893  0.2276 -0.0163  0.3125
  999SOL    HW2 4041   0.406   1.827   1.929  0.2091 -0.0726  0.1697
  999SOL    HW3 4042   0.357   1.969   1.944  0.3739 -0.0507  0.5254
  999SOL    MW4 4043   0.408   1.910   1.905  0.2444 -0.0284  0.3215
 1000SOL     OW 4044   0.667   2.047   1.965  0.0636  0.5500  0.3947
 1000SOL    HW2 4045   0.656   2.037   2.060 -0.5114  2.6864  0.5717
 1000SOL    HW3 4046   0.585   2.013   1.928 -0.2581  0.9283  0.7475
 1000SOL    MW4 4047   0.655   2.041   1.973 -0.0547  0.8819  0.4646
 1001SOL     OW 4048   0.700   2.313   1.865 -0.2470 -0.2885  0.3940
 1001SOL    HW2 4049   0.713   2.223   1.894 -0.4640 -0.4389  0.0268
 1001SOL    HW3 4050   0.679   2.306   1.772  1.4120  0.2423 -0.0528
 1001SOL    MW4 4051   0.699   2.301   1.857 -0.0567 -0.2384  0.2866
 1002SOL     OW 4052   0.480   2.439   1.952 -0.0065  0.1729  0.2759
 1002SOL    HW2 4053   0.493   2.437   2.047 -0.2791  1.4633  0.3572
 1002SOL    HW3 4054   0.561   2.403   1.915  0.2371 -0.0094  0.9827
 1002SOL    MW4 4055   0.492   2.434   1.960 -0.0103  0.3190  0.3799
 1003SOL     OW 4056   0.482   2.705   1.875 -0.5038 -0.6232  0.0921
 1003SOL    HW2 4057   0.473   2.611   1.889 -1.3690 -0.7093 -0.9436
 1003SOL    HW3 4058   0.407   2.743   1.920  0.2987 -0.3584  1.2081
 1003SOL    MW4 4059   0.471   2.698   1.882 -0.5120 -0.5996  0.1029
 1004SOL     OW 4060   0.715   2.811   1.976 -0.1694  0.0452  0.2030
 1004SOL    HW2 4061   0.713   2.814   2.071 -0.9205  1.9970  0.1465
 1004SOL    HW3 4062   0.631   2.774   1.951 -1.1055  2.1119  0.2347
 1004SOL    MW4 4063   0.704   2.806   1.985 -0.3920  0.5753  0.1998
 1005SOL     OW 4064   0.722   3.081   1.883 -0.9061  0.1466  0.2359
 1005SOL    HW2 4065   0.708   2.988   1.902  1.6406 -0.3161  0.1258
 1005SOL    HW3 4066   0.705   3.088   1.789  1.4928 -0.8313 -0.3276
 1005SOL    MW4 4067   0.718   3.069   1.873 -0.2536 -0.0434  0.1470
 1006SOL     OW 4068   0.488   3.205   1.961  0.3134  0.0463 -0.2143
 1006SOL    HW2 4069   0.494   3.291   1.918 -0.4437 -0.9514 -2.3424
 1006SOL    HW3 4070   0.578   3.172   1.960  0.2134 -0.1814 -1.4566
 1006SOL    MW4 4071   0.501   3.212   1.955  0.2003 -0.1154 -0.6589
 1007SOL     OW 4072   0.450   3.467   1.876 -0.6563  0.0405 -0.0428
 1007SOL    HW2 4073   0.529   3.507   1.912 -1.7252  0.4381  1.9303
 1007SOL    HW3 4074   0.445   3.499   1.786  1.7808 -0.5328 -0.4168
 1007SOL    MW4 4075   0.460   3.477   1.869 -0.4758  0.0176  0.1682
 1008SOL     OW 4076   0.684   3.589   1.963  0.3588  0.4120 -0.6575
 1008SOL    HW2 4077   0.771   3.563   1.935  0.9254  1.9283 -0.3447
 1008SOL    HW3 4078   0.675   3.680   1.934 -0.5127  0.7763  0.6791
 1008SOL    MW4 4079   0.694   3.598   1.956  0.3186  0.6599 -0.4398
 1009SOL     OW 4080   0.678   3.843   1.881  0.2746 -0.0323  0.2960
 1009SOL    HW2 4081   0.735   3.899   1.932  0.2983 -0.4531  0.7268
 1009SOL    HW3 4082   0.690   3.872   1.790 -1.2203  2.0060  0.7307
 1009SOL    MW4 4083   0.687   3.854   1.876  0.0805  0.1812  0.4101
 1010SOL     OW 4084   0.441   3.949   1.959  0.0653 -0.2089 -0.2462
 1010SOL    HW2 4085   0.457   4.042   1.941 -0.1730  0.0191  0.6482
 1010SOL    HW3 4086   0.521   3.905   1.931  0.4177  0.3399 -0.1287
 1010SOL    MW4 4087   0.454   3.956   1.953  0.0803 -0.1063 -0.1127
 1011SOL     OW 4088   0.460   4.228   1.922  0.0958 -0.1501 -0.0979
 1011SOL    HW2 4089   0.393   4.292   1.949 -1.4212 -1.8029  0.1437
 1011SOL    HW3 4090   0.456   4.230   1.826 -1.4600 -1.4141 -0.0729
 1011SOL    MW4 4091   0.450   4.237   1.913 -0.3096 -0.5345 -0.0627
 1012SOL     OW 4092   0.676   4.403   1.978  0.3289  0.6282  0.2702
 1012SOL    HW2 4093   0.751   4.351   1.951  0.1556 -0.9680  2.6781
 1012SOL    HW3 4094   0.600   4.355   1.946  0.2589  0.9618 -0.0644
 1012SOL    MW4 4095   0.676   4.390   1.970  0.2968  0.4616  0.5437
 1013SOL     OW 4096   1.100   4.640   1.884  0.7214 -0.3143 -0.3457
 1013SOL    HW2 4097   1.174   4.689   1.921  0.9045 -0.2178 -0.8341
 1013SOL    HW3 4098   1.104   4.554   1.927  1.3178 -0.4234 -0.6021
 1013SOL    MW4 4099   1.111   4.635   1.894  0.8241 -0.3161 -0.4438
 1014SOL     OW 4100   0.908   0.156   2.001  0.2602  0.0374 -0.0678
 1014SOL    HW2 4101   0.974   0.093   1.973 -1.2595 -1.6741  0.1389
 1014SOL    HW3 4102   0.826   0.122   1.965 -0.5900  1.8816  0.0719
 1014SOL    MW4 4103   0.906   0.144   1.992 -0.0525  0.0549 -0.0222
 1015SOL     OW 4104   0.975   0.403   1.871  0.1596  0.0994 -0.3102
 1015SOL    HW2 4105   1.044   0.445   1.921 -0.7315  0.7701  0.3706
 1015SOL    HW3 4106   0.959   0.320   1.917  0.7920 -0.2512 -0.7136
 1015SOL    MW4 4107   0.982   0.397   1.883  0.1255  0.1417 -0.2736
 1016SOL     OW 4108   1.149   0.553   2.019 -0.0073 -0.3810 -0.0432
 1016SOL    HW2 4109   1.222   0.501   1.988  0.5607 -0.2220  1.0163
 1016SOL    HW3 4110   1.143   0.625   1.956  1.2683  0.0570  0.3193
 1016SOL    MW4 4111   1.158   0.556   2.007  0.2360 -0.3023  0.1445
 1017SOL     OW 4112   1.106   0.790   1.866  0.4128  0.4212  0.0060
 1017SOL    HW2 4113   1.181   0.832   1.910 -0.2662  0.4836  1.1288
 1017SOL    HW3 4114   1.030   0.837   1.901 -0.2486 -0.6984  0.0641
 1017SOL    MW4 4115   1.106   0.802   1.877  0.2359  0.2818  0.1619
 1018SOL     OW 4116   0.896   0.925   1.978 -0.1715  0.2086  0.2894
 1018SOL    HW2 4117   0.897   0.928   2.073 -2.4224  0.4959  0.3264
 1018SOL    HW3 4118   0.896   1.017   1.950 -1.9983  0.1707  0.0892
 1018SOL    MW4 4119   0.896   0.937   1.987 -0.7095  0.2415  0.2680
 1019SOL     OW 4120   0.884   1.187   1.907 -0.3785  0.4022  0.7328
 1019SOL    HW2 4121   0.805   1.224   1.946 -0.8057  0.3925 -0.1172
 1019SOL    HW3 4122   0.873   1.200   1.813  0.2346 -0.3688  0.5462
 1019SOL    MW4 4123   0.872   1.194   1.900 -0.3539  0.2991  0.5959
 1020SOL     OW 4124   1.121   1.304   2.008 -0.1040  0.0326  0.1482
 1020SOL    HW2 4125   1.124   1.396   1.983  1.2352 -0.6248 -2.2433
 1020SOL    HW3 4126   1.043   1.270   1.965  0.1909 -0.2711 -0.1491
 1020SOL    MW4 4127   1.111   1.312   1.999  0.1116 -0.0942 -0.2066
 1021SOL     OW 4128   1.154   1.564   1.885  0.1799 -0.4918 -0.2680
 1021SOL    HW2 4129   1.085   1.617   1.925 -0.2896 -2.2917  1.3706
 1021SOL    HW3 4130   1.131   1.560   1.792 -2.8052 -2.3083  0.4928
 1021SOL    MW4 4131   1.142   1.570   1.878 -0.2760 -0.9689  0.0485
 1022SOL     OW 4132   0.924   1.687   1.991 -0.2317  0.4561 -0.7296
 1022SOL    HW2 4133   0.923   1.776   1.957 -1.1076  0.4221 -0.7872
 1022SOL    HW3 4134   0.833   1.659   1.990  0.0505 -0.4910 -0.8547
 1022SOL    MW4 4135   0.912   1.695   1.986 -0.3101  0.3265 -0.7539
 1023SOL     OW 4136   0.925   1.945   1.862 -0.1291 -0.0450 -0.3905
 1023SOL    HW2 4137   0.851   1.996   1.895  0.5119 -0.3447  1.5920
 1023SOL    HW3 4138   0.904   1.928   1.770 -1.6351  1.4436 -0.3348
 1023SOL    MW4 4139   0.912   1.949   1.855 -0.2432  0.1119 -0.1216
 1024SOL     OW 4140   1.150   2.049   1.978 -0.1758 -0.1058 -0.3126
 1024SOL    HW2 4141   1.136   2.139   1.951 -0.0515  0.2257  0.6859
 1024SOL    HW3 4142   1.078   2.000   1.940 -0.0713  0.3613 -1.1129
 1024SOL    MW4 4143   1.139   2.054   1.970 -0.1457 -0.0002 -0.2865
 1025SOL     OW 4144   1.115   2.300   1.877 -0.6822  0.1052  0.2494
 1025SOL    HW2 4145   1.180   2.364   1.906  0.2104 -0.5460 -0.2828
 1025SOL    HW3 4146   1.128   2.294   1.783 -0.2579 -1.3984  0.3931
 1025SOL    MW4 4147   1.126   2.308   1.869 -0.5084 -0.1791  0.1982
 1026SOL     OW 4148   0.903   2.404   2.016  0.4140 -0.2955  0.2608
 1026SOL    HW2 4149   0.974   2.356   1.975  0.1859 -2.0126  1.8383
 1026SOL    HW3 4150   0.825   2.380   1.966  0.8004  1.0690 -1.0449
 1026SOL    MW4 4151   0.902   2.395   2.004  0.4349 -0.3419  0.2968
 1027SOL     OW 4152   0.924   2.659   1.859  0.2422 -0.0959  0.2872
 1027SOL    HW2 4153   0.920   2.576   1.906 -1.0437 -0.4975 -0.4911
 1027SOL    HW3 4154   0.850   2.709   1.892 -0.7999 -0.4611 -1.4139
 1027SOL    MW4 4155   0.914   2.655   1.869 -0.0649 -0.1969 -0.0399
 1028SOL     OW 4156   1.127   2.843   1.940 -0.0750 -0.4638  0.5078
 1028SOL    HW2 4157   1.116   2.852   2.035 -0.0127 -3.3432  0.8318
 1028SOL    HW3 4158   1.053   2.788   1.913 -1.4257  2.2233 -1.5104
 1028SOL    MW4 4159   1.116   2.837   1.949 -0.2450 -0.4895  0.2843
 1029SOL     OW 4160   1.165   3.102   1.867 -0.0422 -0.3116 -0.0844
 1029SOL    HW2 4161   1.076   3.135   1.881 -0.3440 -0.8763 -0.6357
 1029SOL    HW3 4162   1.158   3.007   1.878  0.6473 -0.2834  0.6160
 1029SOL    MW4 4163   1.152   3.094   1.870  0.0089 -0.3824 -0.0647
 1030SOL     OW 4164   0.947   3.226   1.933 -0.1086 -0.0448 -0.4909
 1030SOL    HW2 4165   0.955   3.230   2.028  0.5593  0.5979 -0.5704
 1030SOL    HW3 4166   0.867   3.175   1.918  0.9850 -2.0664  0.3867
 1030SOL    MW4 4167   0.937   3.220   1.944  0.1239 -0.2267 -0.3855
 1031SOL     OW 4168   0.915   3.484   1.869 -0.1212  0.0081 -0.4671
 1031SOL    HW2 4169   0.915   3.392   1.897  0.1843  0.6798  1.8295
 1031SOL    HW3 4170   0.914   3.480   1.773  0.3237 -2.3910 -0.4007
 1031SOL    MW4 4171   0.915   3.471   1.860 -0.0222 -0.2198 -0.1551
 1032SOL     OW 4172   1.142   3.603   1.987  0.2620 -0.2449  0.0176
 1032SOL    HW2 4173   1.139   3.616   2.082  0.0967 -0.1725  0.0035
 1032SOL    HW3 4174   1.059   3.562   1.965 -0.4654  1.3561 -0.3275
 1032SOL    MW4 4175   1.131   3.600   1.996  0.1442 -0.0241 -0.0297
 1033SOL     OW 4176   1.143   3.861   1.926  0.3073  0.0472 -0.1495
 1033SOL    HW2 4177   1.131   3.772   1.959 -1.1285  0.8972  1.7489
 1033SOL    HW3 4178   1.122   3.854   1.833 -0.7478 -1.4376  0.1626
 1033SOL    MW4 4179   1.138   3.848   1.918 -0.0213 -0.0367  0.1422
 1034SOL     OW 4180   0.905   3.971   1.993 -0.1327  0.4005  0.3070
 1034SOL    HW2 4181   0.922   3.986   2.086  0.2856 -2.2323  0.6971
 1034SOL    HW3 4182   0.988   3.940   1.958 -0.3692  1.0789 -0.9067
 1034SOL    MW4 4183   0.918   3.969   2.000 -0.1087  0.1426  0.1981
 1035SOL     OW 4184   0.907   4.239   1.897 -0.6495 -0.0012  0.2680
 1035SOL    HW2 4185   0.968   4.289   1.951 -0.7121 -0.1953  0.5223
 1035SOL    HW3 4186   0.905   4.152   1.938 -0.5156 -0.2218 -0.1860
 1035SOL    MW4 4187   0.915   4.234   1.910 -0.6402 -0.0558  0.2415
 1036SOL     OW 4188   1.129   4.382   2.009  0.2383 -0.2035 -0.2884
 1036SOL    HW2 4189   1.147   4.376   2.103 -1.3638 -1.9035 -0.0588
 1036SOL    HW3 4190   1.201   4.334   1.968  0.2376 -0.5817  0.1533
 1036SOL    MW4 4191   1.141   4.375   2.016  0.0268 -0.4778 -0.1996
 1037SOL     OW 4192   1.558   4.651   1.908 -0.0312  0.0012  0.1706
 1037SOL    HW2 4193   1.627   4.698   1.955  0.5264 -1.5181  0.9140
 1037SOL    HW3 4194   1.560   4.563   1.945 -2.1935 -0.1440 -0.0076
 1037SOL    MW4 4195   1.567   4.645   1.919 -0.2429 -0.2184  0.2452
 1038SOL     OW 4196   1.335   0.123   1.991  0.7589 -0.3087 -0.0129
 1038SOL    HW2 4197   1.351   0.141   2.084  1.1534  3.4875 -0.7488
 1038SOL    HW3 4198   1.411   0.072   1.964  0.8673 -1.0673  1.5974
 1038SOL    MW4 4199   1.347   0.118   2.000  0.8254  0.0920  0.1023
 1039SOL     OW 4200   1.331   0.384   1.923 -0.1571  0.0325  0.1554
 1039SOL    HW2 4201   1.338   0.291   1.949 -0.9230  0.5199  2.2285
 1039SOL    HW3 4202   1.328   0.382   1.828 -1.0173 -2.1517  0.1894
 1039SOL    MW4 4203   1.332   0.371   1.914 -0.3716 -0.1914  0.4333
 1040SOL     OW 4204   1.553   0.544   1.980  0.4322 -0.4577  0.2149
 1040SOL    HW2 4205   1.623   0.498   1.935  0.5539 -0.5210  0.4696
 1040SOL    HW3 4206   1.476   0.487   1.970  0.1913  0.0572 -0.8676
 1040SOL    MW4 4207   1.552   0.530   1.973  0.4166 -0.3982  0.1056
 1041SOL     OW 4208   1.546   0.808   1.869 -0.1959 -0.4276  0.0049
 1041SOL    HW2 4209   1.626   0.845   1.906  1.0791 -0.8401 -2.2628
 1041SOL    HW3 4210   1.544   0.718   1.902  0.9382 -0.7940 -0.8659
 1041SOL    MW4 4211   1.556   0.801   1.878  0.1220 -0.5304 -0.4092
 1042SOL     OW 4212   1.322   0.905   1.993 -0.0518 -0.3051  0.3010
 1042SOL    HW2 4213   1.326   0.888   2.087 -1.9784 -1.2560  0.2449
 1042SOL    HW3 4214   1.402   0.865   1.959  0.7901  0.2646  1.5516
 1042SOL    MW4 4215   1.333   0.897   2.001 -0.1948 -0.3554  0.4585
 1043SOL     OW 4216   1.347   1.193   1.903  0.0104 -0.0908  0.2902
 1043SOL    HW2 4217   1.331   1.101   1.924 -0.2474 -0.5033 -1.6287
 1043SOL    HW3 4218   1.268   1.239   1.930 -0.5794 -0.7088 -0.3733
 1043SOL    MW4 4219   1.335   1.187   1.909 -0.1012 -0.2267 -0.0504
 1044SOL     OW 4220   1.590   1.302   1.953  0.1166  0.6113  0.3878
 1044SOL    HW2 4221   1.576   1.391   1.921 -0.5627  0.5532  0.5110
 1044SOL    HW3 4222   1.508   1.256   1.933  0.0660  0.2959  1.2690
 1044SOL    MW4 4223   1.577   1.308   1.946  0.0203  0.5620  0.5202
 1045SOL     OW 4224   1.600   1.566   1.845 -0.3282 -0.1166 -0.1784
 1045SOL    HW2 4225   1.680   1.594   1.890  0.2722 -1.2159 -0.5471
 1045SOL    HW3 4226   1.529   1.606   1.895  0.3904 -0.2833  0.9979
 1045SOL    MW4 4227   1.601   1.575   1.858 -0.1540 -0.2836 -0.0719
 1046SOL     OW 4228   1.383   1.685   1.982 -0.4421  0.0713  0.0733
 1046SOL    HW2 4229   1.349   1.703   2.070 -0.8549 -0.6188  0.0587
 1046SOL    HW3 4230   1.309   1.647   1.935 -0.4919  1.3046 -0.8659
 1046SOL    MW4 4231   1.369   1.683   1.987 -0.5031  0.1429 -0.0525
 1047SOL     OW 4232   1.392   1.952   1.879  0.1048 -0.3873 -0.3660
 1047SOL    HW2 4233   1.395   1.862   1.914 -1.7304 -0.3274 -0.0112
 1047SOL    HW3 4234   1.308   1.986   1.909  0.3360  1.1037 -1.3859
 1047SOL    MW4 4235   1.381   1.944   1.888 -0.1068 -0.1827 -0.4538
 1048SOL     OW 4236   1.622   2.060   2.000  0.3953  0.2992  0.0254
 1048SOL    HW2 4237   1.612   2.152   1.973 -1.1119 -0.1061 -0.8799
 1048SOL    HW3 4238   1.550   2.015   1.955 -1.3059 -0.6524  3.5496
 1048SOL    MW4 4239   1.611   2.066   1.991 -0.0280  0.1204  0.3710
 1049SOL     OW 4240   1.560   2.315   1.887  0.1639  0.3022  0.7902
 1049SOL    HW2 4241   1.646   2.355   1.899  0.2292  0.2424  0.5238
 1049SOL    HW3 4242   1.549   2.311   1.792  0.5533 -1.1566  0.7996
 1049SOL    MW4 4243   1.570   2.320   1.876  0.2240  0.1018  0.7564
 1050SOL     OW 4244   1.333   2.438   1.997  0.0543 -0.1277 -0.8123
 1050SOL    HW2 4245   1.346   2.524   1.956 -0.9201  0.2665 -0.3070
 1050SOL    HW3 4246   1.411   2.388   1.973  1.5775  1.5519  0.5835
 1050SOL    MW4 4247   1.345   2.443   1.988  0.1267  0.1457 -0.5615
 1051SOL     OW 4248   1.356   2.686   1.882  0.4800 -0.1706  0.7247
 1051SOL    HW2 4249   1.283   2.746   1.892 -0.5912 -1.0902 -1.2553
 1051SOL    HW3 4250   1.371   2.681   1.787  2.4856 -0.7313  1.0332
 1051SOL    MW4 4251   1.349   2.693   1.871  0.6031 -0.3660  0.5043
 1052SOL     OW 4252   1.591   2.800   1.987  0.1318  0.0403  0.3005
 1052SOL    HW2 4253   1.668   2.763   1.944  0.4904  1.2773 -0.1581
 1052SOL    HW3 4254   1.518   2.744   1.959  0.6484 -0.2755 -0.4281
 1052SOL    MW4 4255   1.591   2.788   1.977  0.2474  0.1614  0.1438
 1053SOL     OW 4256   1.590   3.053   1.894 -0.7340 -0.0186  0.3773
 1053SOL    HW2 4257   1.589   2.961   1.920  1.1767  0.1598  1.1704
 1053SOL    HW3 4258   1.569   3.052   1.800 -0.2211 -1.2996  0.2686
 1053SOL    MW4 4259   1.587   3.041   1.885 -0.4144 -0.1638  0.4675
 1054SOL     OW 4260   1.382   3.230   1.990  0.7226  0.0819  0.3963
 1054SOL    HW2 4261   1.446   3.160   1.974  0.0541 -0.7040  1.0750
 1054SOL    HW3 4262   1.300   3.195   1.953  0.6435  0.9992 -0.3013
 1054SOL    MW4 4263   1.379   3.216   1.983  0.6239  0.0992  0.3937
 1055SOL     OW 4264   1.376   3.493   1.877 -0.5737  0.2588 -0.0540
 1055SOL    HW2 4265   1.374   3.402   1.907  0.0773  0.6041  1.0900
 1055SOL    HW3 4266   1.291   3.528   1.901 -0.2713  0.3661  0.9067
 1055SOL    MW4 4267   1.365   3.486   1.884 -0.4479  0.3185  0.2236
 1056SOL     OW 4268   1.619   3.589   2.009 -0.5360 -0.3332  0.0166
 1056SOL    HW2 4269   1.612   3.580   2.104 -0.2391  0.0168  0.0750
 1056SOL    HW3 4270   1.532   3.567   1.976 -0.9714  0.6803  0.4600
 1056SOL    MW4 4271   1.607   3.585   2.018 -0.5542 -0.1531  0.0830
 1057SOL     OW 4272   1.596   3.846   1.900  0.5695  0.4020  0.1685
 1057SOL    HW2 4273   1.666   3.898   1.940  0.5292 -0.2258  1.0407
 1057SOL    HW3 4274   1.611   3.757   1.931  1.4886 -0.4037 -2.4563
 1057SOL    MW4 4275   1.607   3.841   1.909  0.6856  0.2129 -0.0628
 1058SOL     OW 4276   1.388   4.000   1.978 -0.2546 -0.3785  0.5078
 1058SOL    HW2 4277   1.463   3.955   1.938 -0.1114  0.6934 -0.4428
 1058SOL    HW3 4278   1.316   3.938   1.969  0.0677 -0.6468 -0.3248
 1058SOL    MW4 4279   1.389   3.986   1.971 -0.1931 -0.2728  0.2725
 1059SOL     OW 4280   1.349   4.256   1.884 -0.1697  0.0374 -0.4566
 1059SOL    HW2 4281   1.358   4.165   1.913 -0.3702 -0.0223 -0.5802
 1059SOL    HW3 4282   1.352   4.251   1.789  2.5427  0.4390 -0.4399
 1059SOL    MW4 4283   1.350   4.243   1.875  0.1618  0.0820 -0.4708
 1060SOL     OW 4284   1.565   4.385   1.991  0.1537 -0.4412 -0.2125
 1060SOL    HW2 4285   1.558   4.394   2.086  0.3402 -1.0225 -0.1416
 1060SOL    HW3 4286   1.484   4.340   1.965 -0.3375  0.5563 -0.4487
 1060SOL    MW4 4287   1.553   4.380   2.000  0.1135 -0.3858 -0.2344
 1061SOL     OW 4288   1.953   4.661   1.897 -0.5508  0.3465 -0.3097
 1061SOL    HW2 4289   2.035   4.686   1.938 -0.7810  0.7633 -0.1033
 1061SOL    HW3 4290   1.954   4.565   1.898 -0.6470  0.3514  0.8515
 1061SOL    MW4 4291   1.964   4.651   1.902 -0.5938  0.4020 -0.1293
 1062SOL     OW 4292   1.751   0.147   1.997 -0.0014 -0.1843  0.4063
 1062SOL    HW2 4293   1.771   0.164   2.089  0.3555 -0.0355  0.3026
 1062SOL    HW3 4294   1.827   0.099   1.964 -0.2724 -0.5242  0.2725
 1062SOL    MW4 4295   1.764   0.143   2.004  0.0100 -0.2095  0.3748
 1063SOL     OW 4296   1.747   0.400   1.874 -0.5137 -0.0459  0.0012
 1063SOL    HW2 4297   1.747   0.308   1.901 -0.5414  0.0417  0.3075
 1063SOL    HW3 4298   1.761   0.398   1.780 -0.9857 -0.3880 -0.0619
 1063SOL    MW4 4299   1.749   0.387   1.865 -0.5797 -0.0795  0.0334
 1064SOL     OW 4300   1.979   0.485   2.002 -0.4449 -0.1778  0.1193
 1064SOL    HW2 4301   1.989   0.574   1.968  0.3016 -0.0581  0.6179
 1064SOL    HW3 4302   1.895   0.455   1.968 -1.2842  1.1701  0.9517
 1064SOL    MW4 4303   1.969   0.493   1.993 -0.4572  0.0159  0.2949
 1065SOL     OW 4304   2.010   0.728   1.902 -0.0641  0.1815 -0.2937
 1065SOL    HW2 4305   2.085   0.780   1.933  1.9906 -1.6980 -1.8835
 1065SOL    HW3 4306   2.020   0.727   1.807 -0.0154 -3.0369 -0.3235
 1065SOL    MW4 4307   2.021   0.735   1.894  0.2134 -0.4911 -0.5074
 1066SOL     OW 4308   1.788   0.913   1.952  0.0369  0.3431  0.0924
 1066SOL    HW2 4309   1.799   1.001   1.914 -0.8565  0.2613 -0.3768
 1066SOL    HW3 4310   1.865   0.865   1.924  0.6940  1.0819  0.6251
 1066SOL    MW4 4311   1.799   0.918   1.943  0.0058  0.4297  0.1009
 1067SOL     OW 4312   1.803   1.173   1.861  0.2264  0.4528 -0.1604
 1067SOL    HW2 4313   1.727   1.221   1.895 -0.1296  0.5717 -1.1014
 1067SOL    HW3 4314   1.794   1.179   1.766  0.4716 -1.0069 -0.2866
 1067SOL    MW4 4315   1.791   1.180   1.853  0.2117  0.2759 -0.3012
 1068SOL     OW 4316   2.053   1.260   1.964  0.4961 -0.0345  0.0873
 1068SOL    HW2 4317   2.118   1.208   1.916  0.2091  0.5686 -0.9790
 1068SOL    HW3 4318   1.971   1.243   1.917  0.2850  0.8821  0.1282
 1068SOL    MW4 4319   2.051   1.251   1.951  0.4303  0.1659 -0.0480
 1069SOL     OW 4320   2.075   1.528   1.868  0.1763  0.4774 -0.4599
 1069SOL    HW2 4321   2.070   1.438   1.898 -0.7464  0.2723 -1.1980
 1069SOL    HW3 4322   2.051   1.524   1.776 -2.8237  1.8470  0.1943
 1069SOL    MW4 4323   2.071   1.516   1.860 -0.3412  0.6311 -0.4710
 1070SOL     OW 4324   1.847   1.645   2.014 -0.3561 -0.5283 -0.1355
 1070SOL    HW2 4325   1.855   1.739   1.996  0.8218 -0.6641 -0.3316
 1070SOL    HW3 4326   1.912   1.604   1.957 -1.5529 -1.5589 -0.7859
 1070SOL    MW4 4327   1.857   1.652   2.004 -0.3586 -0.6821 -0.2470
 1071SOL     OW 4328   1.833   1.903   1.910  0.0836 -0.4669 -0.2748
 1071SOL    HW2 4329   1.765   1.961   1.943  0.0518 -0.7801  0.2252
 1071SOL    HW3 4330   1.804   1.878   1.822  0.9860  1.6977 -1.2118
 1071SOL    MW4 4331   1.820   1.907   1.903  0.1985 -0.2226 -0.3326
 1072SOL     OW 4332   2.058   2.057   1.982 -0.0683  0.1350 -0.1752
 1072SOL    HW2 4333   2.140   2.034   1.939  0.0816  0.7536 -0.2282
 1072SOL    HW3 4334   1.995   1.992   1.950  0.3028 -0.0850 -0.4611
 1072SOL    MW4 4335   2.060   2.045   1.972  0.0005  0.1876 -0.2201
 1073SOL     OW 4336   2.027   2.311   1.878 -0.5454  0.2029  0.0482
 1073SOL    HW2 4337   2.106   2.351   1.913 -2.0388  2.0261  1.4481
 1073SOL    HW3 4338   2.025   2.223   1.917  0.8481  0.0613 -0.1593
 1073SOL    MW4 4339   2.037   2.304   1.888 -0.5586  0.4249  0.2055
 1074SOL     OW 4340   1.791   2.446   1.970 -0.1567 -0.5569  0.1317
 1074SOL    HW2 4341   1.785   2.453   2.065  0.4209  1.3552  0.0394
 1074SOL    HW3 4342   1.870   2.394   1.955  0.1907 -0.1992  0.6851
 1074SOL    MW4 4343   1.801   2.440   1.981 -0.0347 -0.2577  0.1926
 1075SOL     OW 4344   1.835   2.708   1.879  0.0680  0.1930 -0.2720
 1075SOL    HW2 4345   1.825   2.613   1.889  3.2582 -0.1732  0.0418
 1075SOL    HW3 4346   1.822   2.723   1.785  3.4386 -1.1866 -1.0522
 1075SOL    MW4 4347   1.832   2.697   1.868  0.9336 -0.0372 -0.3335
 1076SOL     OW 4348   2.045   2.843   1.974  0.2208 -0.2069  0.1763
 1076SOL    HW2 4349   2.031   2.833   2.068  0.1513  0.1878  0.2097
 1076SOL    HW3 4350   1.964   2.814   1.934  0.7811 -1.8039  0.1570
 1076SOL    MW4 4351   2.033   2.838   1.981  0.2859 -0.3655  0.1781
 1077SOL     OW 4352   2.038   3.068   1.836  0.1103  0.1374 -0.0053
 1077SOL    HW2 4353   1.979   3.123   1.887  0.0149 -0.8685  0.9928
 1077SOL    HW3 4354   2.057   2.993   1.893  1.9254  0.1808 -0.4985
 1077SOL    MW4 4355   2.033   3.065   1.850  0.3374  0.0105  0.0613
 1078SOL     OW 4356   1.853   3.180   2.020  0.1935 -0.5237 -0.2805
 1078SOL    HW2 4357   1.841   3.184   2.115  1.0443  1.2329 -0.2148
 1078SOL    HW3 4358   1.768   3.150   1.987 -0.5610  0.1828  0.9512
 1078SOL    MW4 4359   1.840   3.177   2.029  0.2062 -0.1986 -0.1094
 1079SOL     OW 4360   1.827   3.432   1.888  0.3433 -0.4014 -0.1829
 1079SOL    HW2 4361   1.838   3.360   1.949  1.2388  0.4398  0.6733
 1079SOL    HW3 4362   1.749   3.478   1.918  0.5756 -0.1981  0.1078
 1079SOL    MW4 4363   1.818   3.429   1.900  0.4921 -0.2639 -0.0315
 1080SOL     OW 4364   2.016   3.584   2.011 -0.1059  0.0595 -0.3721
 1080SOL    HW2 4365   2.005   3.675   1.981 -0.4710  0.6320  1.4332
 1080SOL    HW3 4366   1.945   3.536   1.968 -0.0426  0.6664 -1.1654
 1080SOL    MW4 4367   2.005   3.590   2.001 -0.1457  0.2148 -0.2384
 1081SOL     OW 4368   2.019   3.846   1.899  0.1257 -0.1060 -0.3091
 1081SOL    HW2 4369   2.089   3.904   1.929  0.0046  0.1540 -0.5270
 1081SOL    HW3 4370   2.044   3.823   1.809  1.0850 -1.8006  0.3654
 1081SOL    MW4 4371   2.032   3.850   1.891  0.2363 -0.2954 -0.2489
 1082SOL     OW 4372   1.815   4.007   1.971 -0.2484  0.2942 -0.2787
 1082SOL    HW2 4373   1.839   4.093   1.936  2.1983 -0.5809 -0.8922
 1082SOL    HW3 4374   1.875   3.946   1.926 -2.9472 -1.9230 -1.0042
 1082SOL    MW4 4375   1.826   4.010   1.960 -0.2816 -0.1140 -0.4554
 1083SOL     OW 4376   1.800   4.279   1.885 -0.1006  0.2819 -0.1747
 1083SOL    HW2 4377   1.711   4.304   1.912 -0.2711 -1.1995  0.7280
 1083SOL    HW3 4378   1.794   4.271   1.790 -0.5638  1.5823 -0.2668
 1083SOL    MW4 4379   1.787   4.281   1.876 -0.1843  0.2580 -0.0678
 1084SOL     OW 4380   2.014   4.406   2.001  0.2050 -0.0476 -0.4042
 1084SOL    HW2 4381   2.084   4.371   1.946  1.0042  0.9639 -0.0545
 1084SOL    HW3 4382   1.933   4.374   1.961  0.7549  0.9035 -2.3434
 1084SOL    MW4 4383   2.012   4.397   1.988  0.3831  0.2112 -0.6138
 1085SOL     OW 4384   2.434   4.589   1.887  0.1808  0.1364  0.4911
 1085SOL    HW2 4385   2.509   4.641   1.918  0.7577 -0.4378  0.0864
 1085SOL    HW3 4386   2.448   4.502   1.924 -0.6453  0.2010  0.9557
 1085SOL    MW4 4387   2.446   4.585   1.896  0.1481  0.0691  0.4990
 1086SOL     OW 4388   2.209   0.089   1.966  0.3323  0.1257  0.4100
 1086SOL    HW2 4389   2.228   0.106   2.058  1.8764  0.8408 -0.0273
 1086SOL    HW3 4390   2.275   0.025   1.939 -0.0116  0.0436 -0.2432
 1086SOL    MW4 4391   2.220   0.083   1.974  0.4907  0.2092  0.2662
 1087SOL     OW 4392   2.198   0.351   1.889  0.1047  0.1397 -0.5232
 1087SOL    HW2 4393   2.221   0.265   1.925  2.8494  1.3928  0.9042
 1087SOL    HW3 4394   2.118   0.376   1.936  0.3064 -0.8516  0.3863
 1087SOL    MW4 4395   2.191   0.343   1.900  0.4935  0.1743 -0.2149
 1088SOL     OW 4396   2.434   0.505   1.975 -0.1622 -0.0620  0.1635
 1088SOL    HW2 4397   2.498   0.447   1.933  0.2170 -0.1721  0.8775
 1088SOL    HW3 4398   2.349   0.466   1.955  0.0606 -0.5479  0.1551
 1088SOL    MW4 4399   2.431   0.492   1.967 -0.0825 -0.1407  0.2567
 1089SOL     OW 4400   2.440   0.777   1.906 -0.0651 -0.3828  0.0552
 1089SOL    HW2 4401   2.434   0.686   1.934 -0.0963 -0.5245 -0.3985
 1089SOL    HW3 4402   2.456   0.771   1.812  0.4859  0.0716  0.1202
 1089SOL    MW4 4403   2.442   0.764   1.897  0.0033 -0.3415  0.0041
 1090SOL     OW 4404   2.224   0.915   2.001  0.1280  0.0110 -0.0590
 1090SOL    HW2 4405   2.222   0.919   2.097  1.4738 -0.8648  0.0094
 1090SOL    HW3 4406   2.307   0.872   1.980 -1.3385 -2.2096 -1.5476
 1090SOL    MW4 4407   2.234   0.910   2.011  0.1121 -0.3976 -0.2463
 1091SOL     OW 4408   2.285   1.140   1.855  0.2565  0.3879  0.7326
 1091SOL    HW2 4409   2.354   1.191   1.898 -0.0295 -0.2232  1.9379
 1091SOL    HW3 4410   2.263   1.072   1.918  0.2461 -0.8949 -0.6495
 1091SOL    MW4 4411   2.291   1.138   1.869  0.2170  0.1380  0.7094
 1092SOL     OW 4412   2.488   1.320   1.969 -0.3353 -0.4135 -0.4809
 1092SOL    HW2 4413   2.453   1.307   2.058 -1.0819  0.0250 -0.7043
 1092SOL    HW3 4414   2.491   1.415   1.959  1.3459 -0.4269 -0.3153
 1092SOL    MW4 4415   2.484   1.331   1.980 -0.2122 -0.3575 -0.4885
 1093SOL     OW 4416   2.510   1.572   1.850 -0.4604 -0.1777 -0.4751
 1093SOL    HW2 4417   2.430   1.620   1.871 -1.5436 -2.3342  0.5682
 1093SOL    HW3 4418   2.508   1.560   1.755 -0.7905  0.7657 -0.5882
 1093SOL    MW4 4419   2.500   1.577   1.840 -0.6468 -0.3378 -0.3525
 1094SOL     OW 4420   2.273   1.700   1.953  0.1250  0.3226 -0.1413
 1094SOL    HW2 4421   2.273   1.699   2.048  0.1446 -0.5847 -0.1505
 1094SOL    HW3 4422   2.201   1.642   1.928 -0.1006  0.8183 -0.6817
 1094SOL    MW4 4423   2.263   1.692   1.962  0.0980  0.2682 -0.2137
 1095SOL     OW 4424   2.296   1.963   1.863 -0.1863  0.2086  0.1410
 1095SOL    HW2 4425   2.374   1.995   1.907 -0.9736  0.4887  1.3493
 1095SOL    HW3 4426   2.278   1.879   1.906  0.7488 -0.9674 -1.6828
 1095SOL    MW4 4427   2.304   1.956   1.875 -0.1669  0.0906  0.0598
 1096SOL     OW 4428   2.554   2.047   1.993 -0.3458  0.4140 -0.0444
 1096SOL    HW2 4429   2.620   1.999   1.943 -0.3768 -0.1793  0.4732
 1096SOL    HW3 4430   2.558   2.136   1.959  1.1592  0.5256  0.4178
 1096SOL    MW4 4431   2.563   2.052   1.982 -0.1514  0.3505  0.0849
 1097SOL     OW 4432   2.475   2.305   1.865 -0.5909  0.0695 -0.0986
 1097SOL    HW2 4433   2.546   2.367   1.882 -0.4507  0.3007 -1.4885
 1097SOL    HW3 4434   2.397   2.347   1.903 -0.1818  0.3069  0.4791
 1097SOL    MW4 4435   2.474   2.319   1.872 -0.5186  0.1311 -0.2056
 1098SOL     OW 4436   2.260   2.445   1.994  0.0673  0.3857  0.8242
 1098SOL    HW2 4437   2.269   2.465   2.087  1.4751  0.2254  0.7286
 1098SOL    HW3 4438   2.253   2.531   1.952 -0.6165  0.4567  1.0711
 1098SOL    MW4 4439   2.260   2.459   2.001  0.1626  0.3738  0.8442
 1099SOL     OW 4440   2.266   2.691   1.870 -0.0345  0.3720 -0.1770
 1099SOL    HW2 4441   2.192   2.736   1.911 -0.6318 -1.5694  0.9748
 1099SOL    HW3 4442   2.245   2.690   1.777  0.1791  2.7493 -0.2833
 1099SOL    MW4 4443   2.254   2.697   1.863 -0.0849  0.4296 -0.0391
 1100SOL     OW 4444   2.477   2.822   1.988  0.1018  0.0396 -0.6359
 1100SOL    HW2 4445   2.482   2.903   1.936 -0.3978  0.4350 -0.0611
 1100SOL    HW3 4446   2.406   2.772   1.948 -0.3739  0.4050 -0.2404
 1100SOL    MW4 4447   2.469   2.826   1.976 -0.0269  0.1397 -0.5077
 1101SOL     OW 4448   2.512   3.057   1.843  0.1650  0.0287 -0.1924
 1101SOL    HW2 4449   2.428   3.102   1.854  0.7543  1.0555  0.1697
 1101SOL    HW3 4450   2.520   3.045   1.748 -0.0332  0.6366 -0.2893
 1101SOL    MW4 4451   2.502   3.061   1.832  0.2165  0.2444 -0.1574
 1102SOL     OW 4452   2.275   3.186   1.904 -0.1689 -0.1150 -0.4233
 1102SOL    HW2 4453   2.268   3.169   1.998 -0.4311  0.2304 -0.3829
 1102SOL    HW3 4454   2.191   3.157   1.868  0.1614 -0.8328 -0.6412
 1102SOL    MW4 4455   2.263   3.180   1.911 -0.1597 -0.1640 -0.4467
 1103SOL     OW 4456   2.217   3.461   1.859 -0.2145 -0.4162  0.2139
 1103SOL    HW2 4457   2.241   3.374   1.891 -0.6698 -0.6679 -0.1242
 1103SOL    HW3 4458   2.146   3.489   1.917  0.1422 -0.1401  0.5170
 1103SOL    MW4 4459   2.211   3.454   1.871 -0.2275 -0.4132  0.2092
 1104SOL     OW 4460   2.438   3.629   1.940 -0.0270 -0.2609 -0.1311
 1104SOL    HW2 4461   2.448   3.603   2.032  1.3815  0.1611 -0.1434
 1104SOL    HW3 4462   2.359   3.584   1.910  0.2526 -1.4783  0.9099
 1104SOL    MW4 4463   2.429   3.620   1.948  0.1957 -0.3657  0.0045
 1105SOL     OW 4464   2.429   3.888   1.850  0.7191  0.4802  0.4237
 1105SOL    HW2 4465   2.352   3.936   1.881  0.8095  0.8751  0.0435
 1105SOL    HW3 4466   2.428   3.806   1.900 -0.9525 -0.3009 -0.8382
 1105SOL    MW4 4467   2.419   3.883   1.861  0.5105  0.4294  0.2071
 1106SOL     OW 4468   2.205   4.013   1.993  0.0828 -0.1844 -0.1544
 1106SOL    HW2 4469   2.248   4.022   2.078 -1.7476  0.9452  0.6680
 1106SOL    HW3 4470   2.194   4.103   1.962 -2.4406 -0.4151  0.0247
 1106SOL    MW4 4471   2.209   4.026   2.000 -0.4916 -0.0658 -0.0224
 1107SOL     OW 4472   2.209   4.274   1.835 -0.1261 -0.2432  0.0409
 1107SOL    HW2 4473   2.298   4.285   1.870  0.1388 -0.2352 -0.6227
 1107SOL    HW3 4474   2.221   4.276   1.740 -0.9653  0.8056 -0.0491
 1107SOL    MW4 4475   2.223   4.276   1.827 -0.2017 -0.1035 -0.0585
 1108SOL     OW 4476   2.448   4.315   1.991  0.3792 -0.1775 -0.3159
 1108SOL    HW2 4477   2.453   4.345   2.081  0.1077  2.0153 -1.0016
 1108SOL    HW3 4478   2.539   4.299   1.966  0.4679 -0.5996  0.2864
 1108SOL    MW4 4479   2.461   4.317   2.000  0.3550  0.0558 -0.3268
 1109SOL     OW 4480   2.911   4.654   1.879 -0.3006  0.0254  0.3410
 1109SOL    HW2 4481   2.988   4.700   1.910  0.0571  0.0236 -0.5222
 1109SOL    HW3 4482   2.917   4.567   1.920  0.3558 -0.0991  0.0043
 1109SOL    MW4 4483   2.922   4.648   1.888 -0.1669  0.0081  0.1827
 1110SOL     OW 4484   2.666   0.075   1.981 -0.2952  0.2523 -0.0251
 1110SOL    HW2 4485   2.687   0.104   2.069  1.0828  0.3680 -0.3782
 1110SOL    HW3 4486   2.749   0.040   1.947 -1.5097 -2.6832 -0.1508
 1110SOL    MW4 4487   2.680   0.074   1.988 -0.2735 -0.1197 -0.0883
 1111SOL     OW 4488   2.652   0.354   1.863  0.4726 -0.0563 -0.6540
 1111SOL    HW2 4489   2.713   0.400   1.921  1.1938 -1.3259 -0.3828
 1111SOL    HW3 4490   2.659   0.263   1.889 -1.8231 -0.1974 -0.3856
 1111SOL    MW4 4491   2.661   0.348   1.874  0.2649 -0.2424 -0.5828
 1112SOL     OW 4492   2.883   0.489   1.997  0.1576 -0.6389  0.5195
 1112SOL    HW2 4493   2.960   0.448   1.955  0.6715  0.2800  0.5545
 1112SOL    HW3 4494   2.873   0.572   1.951 -0.2053 -0.3075  1.2083
 1112SOL    MW4 4495   2.892   0.494   1.985  0.1771 -0.4740  0.6150
 1113SOL     OW 4496   2.887   0.742   1.879 -0.2630 -0.0581 -0.2822
 1113SOL    HW2 4497   2.969   0.785   1.904  0.3345 -1.5638  0.4093
 1113SOL    HW3 4498   2.819   0.795   1.919  0.3346  1.3939 -1.1271
 1113SOL    MW4 4499   2.889   0.754   1.887 -0.1056 -0.0652 -0.3023
 1114SOL     OW 4500   2.690   0.895   1.984 -0.2729 -0.1504 -0.4719
 1114SOL    HW2 4501   2.695   0.978   1.938  1.1584  0.7355  1.2603
 1114SOL    HW3 4502   2.606   0.857   1.955  0.2642  0.6665 -3.2359
 1114SOL    MW4 4503   2.679   0.901   1.974 -0.0134  0.0743 -0.6080
 1115SOL     OW 4504   2.691   1.143   1.881  0.0592 -0.3646 -0.0076
 1115SOL    HW2 4505   2.616   1.198   1.901  0.0730 -1.0818  2.1963
 1115SOL    HW3 4506   2.698   1.145   1.786 -2.1290  0.5290 -0.1793
 1115SOL    MW4 4507   2.682   1.150   1.872 -0.2275 -0.3413  0.2605
 1116SOL     OW 4508   2.936   1.263   2.011  0.0232  0.1652 -0.2659
 1116SOL    HW2 4509   2.952   1.351   1.977 -1.6329  1.2910  1.7283
 1116SOL    HW3 4510   2.849   1.240   1.978  0.2855 -0.5858 -0.4589
 1116SOL    MW4 4511   2.927   1.271   2.002 -0.1609  0.2146 -0.0284
 1117SOL     OW 4512   2.965   1.502   1.882  0.2349  0.1430  0.4261
 1117SOL    HW2 4513   3.033   1.564   1.909  0.6858 -0.0015 -0.3847
 1117SOL    HW3 4514   2.979   1.489   1.789  0.4876 -1.6220  0.6921
 1117SOL    MW4 4515   2.976   1.509   1.874  0.3273 -0.1090  0.3543
 1118SOL     OW 4516   2.737   1.648   1.987  0.0339 -0.0561 -0.0155
 1118SOL    HW2 4517   2.807   1.586   1.967 -0.3329 -0.4179 -0.1684
 1118SOL    HW3 4518   2.661   1.616   1.939 -0.4572 -0.1199  0.8010
 1118SOL    MW4 4519   2.736   1.636   1.978 -0.0792 -0.1122  0.0720
 1119SOL     OW 4520   2.761   1.897   1.861  0.3610 -0.0754  0.1927
 1119SOL    HW2 4521   2.844   1.934   1.889  0.0841  0.1325  0.7419
 1119SOL    HW3 4522   2.757   1.811   1.903 -0.1807  0.3510  1.0300
 1119SOL    MW4 4523   2.771   1.890   1.870  0.2532  0.0083  0.3757
 1120SOL     OW 4524   2.974   2.073   1.924 -0.2105 -0.2793 -0.5415
 1120SOL    HW2 4525   2.975   2.085   2.019 -1.3527  0.2079 -0.5904
 1120SOL    HW3 4526   3.050   2.016   1.907 -0.2913 -0.7889  0.7106
 1120SOL    MW4 4527   2.984   2.067   1.934 -0.3717 -0.2823 -0.3828
 1121SOL     OW 4528   2.937   2.313   1.799  0.2267  0.6632 -0.0523
 1121SOL    HW2 4529   3.004   2.362   1.846  0.1885  0.8505 -0.1954
 1121SOL    HW3 4530   2.948   2.223   1.829  0.6216  0.6735 -0.1718
 1121SOL    MW4 4531   2.947   2.308   1.809  0.2737  0.6893 -0.0869
 1122SOL     OW 4532   2.700   2.430   1.914  0.1222 -0.2259 -0.1470
 1122SOL    HW2 4533   2.711   2.525   1.906 -0.1403 -0.2585 -1.0324
 1122SOL    HW3 4534   2.768   2.393   1.856 -0.9025 -0.5362 -1.1760
 1122SOL    MW4 4535   2.711   2.437   1.905 -0.0479 -0.2711 -0.3996
 1123SOL     OW 4536   2.709   2.704   1.904  0.2687  0.5439 -0.3837
 1123SOL    HW2 4537   2.636   2.745   1.951 -0.1378 -0.1898 -0.3676
 1123SOL    HW3 4538   2.683   2.707   1.812 -1.3492 -2.7878 -0.0819
 1123SOL    MW4 4539   2.696   2.710   1.898  0.0017  0.0076 -0.3418
 1124SOL     OW 4540   2.934   2.845   2.014 -0.4981  0.7524 -0.0908
 1124SOL    HW2 4541   2.947   2.932   1.976 -0.4919  0.4277 -0.8456
 1124SOL    HW3 4542   2.855   2.812   1.971  0.6879 -0.4735 -1.4339
 1124SOL    MW4 4543   2.926   2.852   2.003 -0.3407  0.5479 -0.3676
 1125SOL     OW 4544   2.945   3.104   1.886  0.2690 -0.1264  0.2091
 1125SOL    HW2 4545   3.014   3.162   1.917  0.9727 -1.2230  0.7262
 1125SOL    HW3 4546   2.864   3.143   1.918  0.7785  0.2458  1.0465
 1125SOL    MW4 4547   2.943   3.117   1.894  0.4292 -0.2220  0.3878
 1126SOL     OW 4548   2.714   3.220   1.985 -0.7739  0.4144  0.2015
 1126SOL    HW2 4549   2.691   3.300   1.938 -0.9311 -0.2344 -0.8380
 1126SOL    HW3 4550   2.648   3.156   1.958 -0.9976  0.0977  1.4824
 1126SOL    MW4 4551   2.703   3.222   1.975 -0.8240  0.2871  0.2332
 1127SOL     OW 4552   2.673   3.466   1.851 -0.2971 -0.1252 -0.2550
 1127SOL    HW2 4553   2.743   3.515   1.894 -0.1659 -1.0380  0.6103
 1127SOL    HW3 4554   2.594   3.517   1.868 -0.0960  0.0094  0.2911
 1127SOL    MW4 4555   2.672   3.479   1.859 -0.2530 -0.2279 -0.0689
 1128SOL     OW 4556   2.886   3.589   1.955 -0.3788 -0.0871  0.5419
 1128SOL    HW2 4557   2.887   3.600   2.050  1.3894  1.0014  0.4378
 1128SOL    HW3 4558   2.969   3.545   1.935 -0.4181  0.3045 -0.5459
 1128SOL    MW4 4559   2.897   3.585   1.965 -0.1504  0.1085  0.3847
 1129SOL     OW 4560   2.919   3.885   1.906 -0.3059  0.5287 -0.2931
 1129SOL    HW2 4561   2.918   3.791   1.928  0.0276  0.7791  0.8481
 1129SOL    HW3 4562   2.925   3.887   1.811 -1.1341 -0.6157 -0.3891
 1129SOL    MW4 4563   2.920   3.873   1.896 -0.3710  0.4108 -0.1551
 1130SOL     OW 4564   2.672   3.995   1.973  0.0669 -0.2364  0.1856
 1130SOL    HW2 4565   2.748   3.942   1.951  0.1353  0.3257 -0.9775
 1130SOL    HW3 4566   2.599   3.952   1.927 -0.0969 -0.0598  0.2775
 1130SOL    MW4 4567   2.672   3.982   1.964  0.0541 -0.1390  0.0442
 1131SOL     OW 4568   2.707   4.252   1.889  0.1155 -0.3970  0.4257
 1131SOL    HW2 4569   2.702   4.162   1.920 -0.8715 -0.6995 -0.5851
 1131SOL    HW3 4570   2.721   4.244   1.795 -0.6612  0.5006  0.2258
 1131SOL    MW4 4571   2.709   4.239   1.881 -0.1171 -0.3181  0.2660
 1132SOL     OW 4572   2.931   4.397   1.970 -0.2826 -0.0313 -0.0778
 1132SOL    HW2 4573   2.938   4.387   2.065 -0.2823  0.1041 -0.0633
 1132SOL    HW3 4574   2.860   4.339   1.945 -0.2730 -0.0788  0.0031
 1132SOL    MW4 4575   2.923   4.388   1.979 -0.2813 -0.0196 -0.0651
 1133SOL     OW 4576   3.446   4.656   1.857  0.1556  0.1320 -0.3385
 1133SOL    HW2 4577   3.428   4.566   1.884  0.5349  0.2865  0.4302
 1133SOL    HW3 4578   3.415   4.660   1.766  0.3077 -0.8259 -0.4395
 1133SOL    MW4 4579   3.440   4.645   1.848  0.2253  0.0262 -0.2503
 1134SOL     OW 4580   3.186   0.109   1.930 -0.1149 -0.1046  0.2854
 1134SOL    HW2 4581   3.175   0.107   2.025  1.5469  0.9804  0.5074
 1134SOL    HW3 4582   3.273   0.073   1.915 -0.7528 -1.1929 -0.9123
 1134SOL    MW4 4583   3.196   0.104   1.941  0.0203 -0.1050  0.1568
 1135SOL     OW 4584   3.120   0.381   1.877 -0.0072  0.1168  0.1205
 1135SOL    HW2 4585   3.123   0.285   1.882  1.2056  0.1672  0.4811
 1135SOL    HW3 4586   3.142   0.400   1.786  0.5352  0.0795  0.2418
 1135SOL    MW4 4587   3.123   0.371   1.866  0.2244  0.1185  0.1841
 1136SOL     OW 4588   3.365   0.501   1.984  0.5790  0.2455 -0.1227
 1136SOL    HW2 4589   3.440   0.447   1.960 -0.4519 -0.2262 -2.4649
 1136SOL    HW3 4590   3.289   0.448   1.962 -0.4505  1.0761  1.3691
 1136SOL    MW4 4591   3.365   0.487   1.978  0.3073  0.2928 -0.2348
 1137SOL     OW 4592   3.379   0.742   1.850 -0.1686 -0.3232  0.0775
 1137SOL    HW2 4593   3.301   0.785   1.886  0.0401 -0.7649  1.0531
 1137SOL    HW3 4594   3.379   0.655   1.889 -0.0369 -0.8822 -1.1290
 1137SOL    MW4 4595   3.368   0.736   1.860 -0.1237 -0.4551  0.0472
 1138SOL     OW 4596   3.134   0.857   1.929  0.1229 -0.0842 -0.6588
 1138SOL    HW2 4597   3.145   0.855   2.024 -2.4062 -0.3935 -0.3434
 1138SOL    HW3 4598   3.150   0.949   1.906  0.2173  0.1045  0.1250
 1138SOL    MW4 4599   3.138   0.869   1.939 -0.1986 -0.1000 -0.5138
 1139SOL     OW 4600   3.174   1.113   1.826  0.2098 -0.0530 -0.4182
 1139SOL    HW2 4601   3.255   1.138   1.871 -0.6485 -0.8410  1.6471
 1139SOL    HW3 4602   3.106   1.160   1.873 -0.6110  0.0479 -1.6936
 1139SOL    MW4 4603   3.176   1.122   1.838 -0.0117 -0.1436 -0.3138
 1140SOL     OW 4604   3.383   1.227   1.997 -0.0647 -0.0111 -0.0510
 1140SOL    HW2 4605   3.366   1.234   2.091 -1.2521 -0.6343 -0.2065
 1140SOL    HW3 4606   3.387   1.318   1.967  0.1925  0.1866  0.5826
 1140SOL    MW4 4607   3.381   1.240   2.005 -0.1876 -0.0674  0.0124
 1141SOL     OW 4608   3.396   1.492   1.900 -0.1276  0.3856  0.3102
 1141SOL    HW2 4609   3.469   1.550   1.922  0.8517 -0.2642 -1.0986
 1141SOL    HW3 4610   3.318   1.541   1.925  0.7208  1.8131  0.2548
 1141SOL    MW4 4611   3.395   1.506   1.906  0.1132  0.4882  0.1169
 1142SOL     OW 4612   3.168   1.654   1.964  0.1015  0.1141 -0.1914
 1142SOL    HW2 4613   3.150   1.669   2.057 -1.9008  0.2532 -0.5721
 1142SOL    HW3 4614   3.184   1.742   1.928 -0.7123  0.2423 -0.2662
 1142SOL    MW4 4615   3.167   1.668   1.971 -0.2701  0.1493 -0.2514
 1143SOL     OW 4616   3.186   1.906   1.851  0.1538 -0.0882  0.3191
 1143SOL    HW2 4617   3.260   1.961   1.877 -0.0541  0.3225  0.0423
 1143SOL    HW3 4618   3.188   1.907   1.756  1.7632 -2.7206  0.2501
 1143SOL    MW4 4619   3.196   1.913   1.842  0.3388 -0.3814  0.2736
 1144SOL     OW 4620   3.395   2.046   2.001  0.0743  0.0274  0.0267
 1144SOL    HW2 4621   3.471   1.994   1.974  0.0355 -0.1628  0.2828
 1144SOL    HW3 4622   3.406   2.130   1.956  0.3334 -0.0704 -0.0919
 1144SOL    MW4 4623   3.407   2.050   1.992  0.1032 -0.0107  0.0448
 1145SOL     OW 4624   3.416   2.304   1.875 -0.0355 -0.3005 -0.5225
 1145SOL    HW2 4625   3.332   2.330   1.912 -0.2535 -1.4924 -0.1471
 1145SOL    HW3 4626   3.408   2.324   1.781 -0.1711  0.9917 -0.2327
 1145SOL    MW4 4627   3.404   2.310   1.867 -0.0823 -0.2873 -0.4348
 1146SOL     OW 4628   3.173   2.418   1.957 -0.0689 -0.4643  0.2375
 1146SOL    HW2 4629   3.168   2.401   2.051  0.6939 -0.9910  0.1889
 1146SOL    HW3 4630   3.154   2.511   1.948 -0.2090 -0.4280  0.9132
 1146SOL    MW4 4631   3.170   2.428   1.968  0.0131 -0.5288  0.3202
 1147SOL     OW 4632   3.121   2.689   1.876  0.5529  0.0165 -0.1660
 1147SOL    HW2 4633   3.064   2.751   1.921  1.5567  1.0959 -0.3383
 1147SOL    HW3 4634   3.114   2.711   1.783  1.6119  0.4951 -0.1461
 1147SOL    MW4 4635   3.113   2.700   1.870  0.8252  0.2222 -0.1861
 1148SOL     OW 4636   3.357   2.840   1.946 -0.4069  0.2885 -0.3227
 1148SOL    HW2 4637   3.350   2.837   2.042 -0.0294 -1.8708 -0.3230
 1148SOL    HW3 4638   3.273   2.805   1.916 -0.1848  0.1482 -0.7727
 1148SOL    MW4 4639   3.345   2.835   1.955 -0.3278 -0.0150 -0.3823
 1149SOL     OW 4640   3.331   3.110   1.882 -0.0447  0.2678 -0.3035
 1149SOL    HW2 4641   3.413   3.151   1.910 -0.2152  0.2426  0.2402
 1149SOL    HW3 4642   3.338   3.020   1.913  0.2808 -0.0962 -1.4034
 1149SOL    MW4 4643   3.343   3.103   1.890 -0.0241  0.2165 -0.3769
 1150SOL     OW 4644   3.140   3.234   2.038  0.5046 -0.0017  0.3081
 1150SOL    HW2 4645   3.140   3.323   2.001 -0.6732 -0.3991 -0.7111
 1150SOL    HW3 4646   3.207   3.188   1.988 -0.2748 -0.2173 -0.5609
 1150SOL    MW4 4647   3.148   3.240   2.026  0.2460 -0.0825  0.0591
 1151SOL     OW 4648   3.143   3.475   1.878  0.2730  0.5201  0.0880
 1151SOL    HW2 4649   3.231   3.506   1.901  0.1291  0.0000  1.3859
 1151SOL    HW3 4650   3.140   3.482   1.782  0.8679  2.7939  0.1959
 1151SOL    MW4 4651   3.154   3.480   1.868  0.3324  0.7515  0.2735
 1152SOL     OW 4652   3.380   3.596   1.987 -0.1683  0.1843 -0.2973
 1152SOL    HW2 4653   3.465   3.562   1.961 -0.7205 -1.1548 -0.3747
 1152SOL    HW3 4654   3.381   3.687   1.957  0.9260 -0.0433 -0.9986
 1152SOL    MW4 4655   3.391   3.604   1.980 -0.0968 -0.0224 -0.3999
 1153SOL     OW 4656   3.384   3.874   1.891  0.1520 -0.0068  0.4999
 1153SOL    HW2 4657   3.308   3.916   1.930 -0.4664 -1.7321  1.1975
 1153SOL    HW3 4658   3.368   3.877   1.797 -0.3335  0.4277  0.5941
 1153SOL    MW4 4659   3.372   3.880   1.884  0.0064 -0.1769  0.6043
 1154SOL     OW 4660   3.161   4.001   1.984  0.1589 -0.1816 -0.2597
 1154SOL    HW2 4661   3.160   4.016   2.079  2.7328  0.6223 -0.3200
 1154SOL    HW3 4662   3.085   3.946   1.968 -2.0882  2.1658  1.8412
 1154SOL    MW4 4663   3.151   3.996   1.994  0.2019  0.2344  0.0095
 1155SOL     OW 4664   3.143   4.254   1.860  0.2820 -0.1919 -0.7146
 1155SOL    HW2 4665   3.144   4.168   1.901  1.4278 -0.0076 -0.3276
 1155SOL    HW3 4666   3.068   4.299   1.899  1.0005 -0.2316  0.7369
 1155SOL    MW4 4667   3.134   4.249   1.871  0.5279 -0.1731 -0.4719
 1156SOL     OW 4668   3.382   4.376   1.976  0.6682  0.1742 -0.1612
 1156SOL    HW2 4669   3.454   4.326   1.938 -0.1138 -2.2317  1.3794
 1156SOL    HW3 4670   3.303   4.332   1.944 -0.0699  1.5634 -0.2455
 1156SOL    MW4 4671   3.381   4.363   1.967  0.4680  0.0405  0.0311
 1157SOL     OW 4672   3.856   0.018   1.870  0.3970  0.3696 -0.3426
 1157SOL    HW2 4673   3.846  -0.072   1.900  0.7043  0.6431  0.6046
 1157SOL    HW3 4674   3.790   0.067   1.918  0.9335  0.8256 -0.0653
 1157SOL    MW4 4675   3.846   0.013   1.880  0.5083  0.4654 -0.1810
 1158SOL     OW 4676   3.654   0.143   2.006  0.0542  0.1203 -0.7045
 1158SOL    HW2 4677   3.632   0.130   2.098  0.5534  1.0568 -0.4401
 1158SOL    HW3 4678   3.589   0.092   1.958  0.3728 -1.1310  0.1927
 1158SOL    MW4 4679   3.642   0.135   2.011  0.1621  0.0788 -0.5512
 1159SOL     OW 4680   3.590   0.392   1.891  0.2855  0.0251  0.0153
 1159SOL    HW2 4681   3.623   0.310   1.927  1.5116  0.8765  0.8979
 1159SOL    HW3 4682   3.580   0.375   1.797 -1.4171 -1.7296  0.5018
 1159SOL    MW4 4683   3.593   0.379   1.883  0.2229 -0.0941  0.1960
 1160SOL     OW 4684   3.847   0.487   1.973  0.0016 -0.4486 -0.3135
 1160SOL    HW2 4685   3.852   0.575   1.936  1.3728  0.1725  1.2937
 1160SOL    HW3 4686   3.762   0.453   1.943 -0.4006  1.2808 -1.1998
 1160SOL    MW4 4687   3.836   0.494   1.964  0.1295 -0.1385 -0.2184
 1161SOL     OW 4688   3.852   0.748   1.888 -0.6336 -0.1529 -0.4340
 1161SOL    HW2 4689   3.767   0.763   1.929 -0.9152 -1.8972 -0.3706
 1161SOL    HW3 4690   3.837   0.765   1.795 -0.9567 -0.1253 -0.3765
 1161SOL    MW4 4691   3.839   0.752   1.881 -0.7136 -0.3794 -0.4181
 1162SOL     OW 4692   3.601   0.853   1.976  0.0627  0.4749  0.1401
 1162SOL    HW2 4693   3.610   0.945   1.952  2.3817 -0.2865 -2.1016
 1162SOL    HW3 4694   3.523   0.823   1.929  1.2414  0.4725 -1.8422
 1162SOL    MW4 4695   3.592   0.861   1.967  0.5243  0.3741 -0.4172
 1163SOL     OW 4696   3.623   1.127   1.910 -0.1197  0.0573  0.4777
 1163SOL    HW2 4697   3.543   1.168   1.944 -0.7678 -0.2175 -0.6932
 1163SOL    HW3 4698   3.613   1.131   1.815  2.2766  2.0010  0.2717
 1163SOL    MW4 4699   3.611   1.133   1.902  0.1109  0.2775  0.2960
 1164SOL     OW 4700   3.845   1.296   1.974 -0.0122 -0.3392  0.1472
 1164SOL    HW2 4701   3.858   1.286   2.068  0.7325  0.2990  0.1140
 1164SOL    HW3 4702   3.765   1.247   1.956 -0.4653  0.0036  1.2044
 1164SOL    MW4 4703   3.836   1.288   1.984  0.0262 -0.2098  0.2823
 1165SOL     OW 4704   3.864   1.565   1.864 -0.1128  0.6714  0.6562
 1165SOL    HW2 4705   3.947   1.606   1.889  0.6781  0.8279 -2.1160
 1165SOL    HW3 4706   3.863   1.482   1.911  1.0313  1.2158  1.6576
 1165SOL    MW4 4707   3.875   1.560   1.874  0.1423  0.7637  0.4226
 1166SOL     OW 4708   3.618   1.658   1.956  0.3428 -0.1075 -0.0837
 1166SOL    HW2 4709   3.614   1.750   1.933 -0.0739  0.3308  1.7018
 1166SOL    HW3 4710   3.700   1.627   1.917  0.0425  0.7803 -1.4642
 1166SOL    MW4 4711   3.628   1.666   1.948  0.2482  0.0675 -0.0302
 1167SOL     OW 4712   3.602   1.915   1.871  0.1118  0.0943 -0.4306
 1167SOL    HW2 4713   3.677   1.967   1.899 -1.5327  1.9740  0.7149
 1167SOL    HW3 4714   3.601   1.922   1.776  1.3729  0.0658 -0.4464
 1167SOL    MW4 4715   3.612   1.923   1.862  0.0610  0.3386 -0.2815
 1168SOL     OW 4716   3.790   2.083   1.979 -0.2346 -0.1674 -0.7648
 1168SOL    HW2 4717   3.875   2.040   1.974 -0.1665  0.0138 -1.2976
 1168SOL    HW3 4718   3.810   2.176   1.968 -0.4510 -0.0783 -0.3914
 1168SOL    MW4 4719   3.803   2.090   1.977 -0.2544 -0.1318 -0.7858
 1169SOL     OW 4720   3.850   2.366   1.927 -0.4393  0.2647 -0.0559
 1169SOL    HW2 4721   3.928   2.419   1.944 -0.5358  0.2778  0.3629
 1169SOL    HW3 4722   3.778   2.418   1.964 -0.7885  0.7546 -1.3783
 1169SOL    MW4 4723   3.851   2.380   1.934 -0.4981  0.3312 -0.1752
 1170SOL     OW 4724   3.607   2.461   2.008  0.0946 -0.0718  0.2449
 1170SOL    HW2 4725   3.603   2.533   1.945 -0.5337  0.5545  0.9946
 1170SOL    HW3 4726   3.542   2.398   1.977  0.4052 -0.1683 -0.2194
 1170SOL    MW4 4727   3.598   2.462   1.995  0.0525 -0.0019  0.2824
 1171SOL     OW 4728   3.609   2.702   1.852  0.3396  0.4965 -0.0636
 1171SOL    HW2 4729   3.679   2.757   1.888  0.6442  0.3601 -0.4399
 1171SOL    HW3 4730   3.529   2.735   1.892  0.4154  1.7728 -0.9174
 1171SOL    MW4 4731   3.608   2.713   1.862  0.3901  0.6466 -0.2258
 1172SOL     OW 4732   3.831   2.833   1.964  0.5633 -0.2160  0.2945
 1172SOL    HW2 4733   3.818   2.812   2.057  0.9414 -0.3250  0.3238
 1172SOL    HW3 4734   3.811   2.926   1.958 -1.2427 -0.5923  0.1390
 1172SOL    MW4 4735   3.827   2.842   1.976  0.3750 -0.2804  0.2780
 1173SOL     OW 4736   3.807   3.094   1.881 -0.2878 -0.2687 -0.1126
 1173SOL    HW2 4737   3.721   3.128   1.905 -0.2467 -1.2608  1.4975
 1173SOL    HW3 4738   3.801   3.077   1.787 -2.1370 -1.1648  0.1501
 1173SOL    MW4 4739   3.795   3.096   1.872 -0.5262 -0.5178  0.1343
 1174SOL     OW 4740   3.565   3.212   1.979  0.0798  0.6438 -0.1327
 1174SOL    HW2 4741   3.551   3.207   2.074  1.2840 -1.9816 -0.0695
 1174SOL    HW3 4742   3.577   3.306   1.962  1.4703  1.0109  2.5621
 1174SOL    MW4 4743   3.565   3.224   1.989  0.4222  0.3459  0.2311
 1175SOL     OW 4744   3.611   3.473   1.921 -0.4264  0.1069  0.1432
 1175SOL    HW2 4745   3.683   3.531   1.945 -0.1535 -0.1271 -0.0973
 1175SOL    HW3 4746   3.611   3.474   1.825  0.0071 -0.8069  0.1268
 1175SOL    MW4 4747   3.620   3.481   1.911 -0.3333 -0.0446  0.1092
 1176SOL     OW 4748   3.824   3.627   1.975  0.1729  0.0017  0.0414
 1176SOL    HW2 4749   3.893   3.568   1.945 -0.1084  0.0994 -0.8000
 1176SOL    HW3 4750   3.826   3.700   1.913 -1.4704 -0.5674 -0.6902
 1176SOL    MW4 4751   3.834   3.629   1.963 -0.0811 -0.0606 -0.1662
 1177SOL     OW 4752   3.839   3.875   1.863 -0.1492  0.5412  0.1959
 1177SOL    HW2 4753   3.765   3.906   1.916 -0.6034 -0.5712  0.2116
 1177SOL    HW3 4754   3.814   3.894   1.773 -1.6673 -2.3167 -0.0215
 1177SOL    MW4 4755   3.826   3.882   1.858 -0.4094  0.0169  0.1693
 1178SOL     OW 4756   3.619   3.988   2.000  0.0969 -0.0530 -0.1299
 1178SOL    HW2 4757   3.605   4.029   2.085 -0.5554 -1.6624  0.5535
 1178SOL    HW3 4758   3.533   3.953   1.976  0.5706 -0.7457 -0.8475
 1178SOL    MW4 4759   3.605   3.989   2.008  0.0732 -0.3564 -0.1347
 1179SOL     OW 4760   3.634   4.236   1.877  0.2707 -0.1765  0.6104
 1179SOL    HW2 4761   3.712   4.285   1.904  1.2129 -0.4718 -1.4881
 1179SOL    HW3 4762   3.643   4.151   1.920  1.8417 -0.6958 -0.6757
 1179SOL    MW4 4763   3.645   4.231   1.886  0.6022 -0.2842  0.1638
 1180SOL     OW 4764   3.835   4.410   1.958 -0.0258  0.7380 -0.2519
 1180SOL    HW2 4765   3.826   4.393   2.052 -0.2351  1.6528 -0.1021
 1180SOL    HW3 4766   3.926   4.389   1.939 -0.6524 -2.1122 -0.4208
 1180SOL    MW4 4767   3.846   4.405   1.968 -0.1359  0.4826 -0.2545
 1181SOL     OW 4768   4.299   4.662   1.872 -0.2935  0.0836  0.1848
 1181SOL    HW2 4769   4.221   4.700   1.913  0.2682  1.4720 -0.0022
 1181SOL    HW3 4770   4.373   4.707   1.915  0.3840 -0.7707 -0.0764
 1181SOL    MW4 4771   4.299   4.673   1.883 -0.1297  0.1550  0.1258
 1182SOL     OW 4772   4.079   0.111   1.984 -0.5270  0.2120 -0.1215
 1182SOL    HW2 4773   4.065   0.107   2.079  0.6983 -1.4531  0.0300
 1182SOL    HW3 4774   4.000   0.073   1.946 -0.3187 -0.6939  0.3243
 1182SOL    MW4 4775   4.067   0.105   1.992 -0.3386 -0.1272 -0.0428
 1183SOL     OW 4776   4.052   0.349   1.852  0.0788 -0.1771 -0.0059
 1183SOL    HW2 4777   4.059   0.274   1.911  1.7688  1.0019  1.3715
 1183SOL    HW3 4778   3.994   0.410   1.898  0.3530  0.2079 -0.1723
 1183SOL    MW4 4779   4.045   0.347   1.866  0.3376  0.0292  0.1540
 1184SOL     OW 4780   4.263   0.487   1.978 -0.3459  0.4648  0.0159
 1184SOL    HW2 4781   4.266   0.494   2.074 -2.9004  1.7711  0.0272
 1184SOL    HW3 4782   4.206   0.412   1.962  0.7773 -0.2970 -0.5128
 1184SOL    MW4 4783   4.256   0.478   1.989 -0.5350  0.5367 -0.0522
 1185SOL     OW 4784   4.284   0.752   1.887 -0.1437  0.3300  0.0577
 1185SOL    HW2 4785   4.288   0.665   1.925  2.2758  0.1864 -0.4802
 1185SOL    HW3 4786   4.274   0.737   1.793  1.5917  0.6089 -0.1808
 1185SOL    MW4 4787   4.283   0.739   1.879  0.4044  0.3479 -0.0447
 1186SOL     OW 4788   4.061   0.895   1.969 -0.5079  0.5132  0.3927
 1186SOL    HW2 4789   4.131   0.833   1.951 -0.6907  0.3463  0.2550
 1186SOL    HW3 4790   3.980   0.847   1.949 -0.6493  0.7983  0.2766
 1186SOL    MW4 4791   4.059   0.880   1.964 -0.5507  0.5288  0.3593
 1187SOL     OW 4792   4.063   1.152   1.861 -0.1165 -0.2975 -0.2126
 1187SOL    HW2 4793   4.057   1.063   1.894  1.0112 -0.5393 -0.6559
 1187SOL    HW3 4794   3.993   1.199   1.906 -1.1527 -1.5597 -0.4813
 1187SOL    MW4 4795   4.053   1.147   1.871 -0.1049 -0.4959 -0.3064
 1188SOL     OW 4796   4.300   1.228   1.993 -0.3755  0.4275  0.1255
 1188SOL    HW2 4797   4.272   1.260   2.078  0.2374  0.5726  0.2771
 1188SOL    HW3 4798   4.221   1.191   1.953 -0.5305 -0.1633  0.9863
 1188SOL    MW4 4799   4.286   1.228   1.999 -0.3152  0.3687  0.2590
 1189SOL     OW 4800   4.292   1.499   1.906  0.0098  0.2172  0.9011
 1189SOL    HW2 4801   4.283   1.411   1.942  0.2397  0.0696  0.6007
 1189SOL    HW3 4802   4.276   1.488   1.812 -0.2266  0.5384  0.9033
 1189SOL    MW4 4803   4.289   1.486   1.898  0.0095  0.2401  0.8619
 1190SOL     OW 4804   4.108   1.676   1.975  0.4743 -0.3133  0.0851
 1190SOL    HW2 4805   4.092   1.670   2.069  0.2396 -2.5589 -0.0914
 1190SOL    HW3 4806   4.189   1.626   1.961 -0.4259 -1.4331 -1.1548
 1190SOL    MW4 4807   4.117   1.669   1.985  0.3242 -0.7575 -0.1018
 1191SOL     OW 4808   4.028   1.938   1.955  0.0909  0.2675 -0.5736
 1191SOL    HW2 4809   4.057   1.849   1.972 -1.5170 -0.1850 -0.1057
 1191SOL    HW3 4810   4.050   1.954   1.863  0.3161 -0.6217 -0.6736
 1191SOL    MW4 4811   4.035   1.928   1.945 -0.0920  0.0905 -0.5249
 1192SOL     OW 4812   4.287   2.064   1.996 -0.6521  0.0134  0.3266
 1192SOL    HW2 4813   4.304   2.061   2.090 -0.3293 -1.6316  0.2450
 1192SOL    HW3 4814   4.197   2.032   1.987 -1.0238  1.0868  0.1404
 1192SOL    MW4 4815   4.278   2.059   2.007 -0.6580 -0.0622  0.2913
 1193SOL     OW 4816   4.277   2.347   1.895  0.4486 -0.1314 -0.5683
 1193SOL    HW2 4817   4.279   2.261   1.937  1.2176  0.1578 -0.0124
 1193SOL    HW3 4818   4.366   2.381   1.905  0.1168  0.7825 -0.6887
 1193SOL    MW4 4819   4.289   2.340   1.902  0.5064  0.0274 -0.5109
 1194SOL     OW 4820   4.077   2.497   2.014 -0.3612 -0.2679 -0.6401
 1194SOL    HW2 4821   4.079   2.483   2.109  0.4489  1.8752 -0.3172
 1194SOL    HW3 4822   4.151   2.446   1.981  1.8475  2.1013  0.3887
 1194SOL    MW4 4823   4.087   2.489   2.022  0.0372  0.3273 -0.4621
 1195SOL     OW 4824   4.085   2.736   1.870 -0.4391  0.2584  0.0779
 1195SOL    HW2 4825   4.098   2.659   1.925  2.0705  1.2836  0.9692
 1195SOL    HW3 4826   4.002   2.774   1.902 -1.7337 -2.0600 -0.4293
 1195SOL    MW4 4827   4.076   2.731   1.882 -0.2789  0.0880  0.1286
 1196SOL     OW 4828   4.327   2.861   1.974 -0.1033 -0.1599 -0.1514
 1196SOL    HW2 4829   4.312   2.860   2.068  0.6718 -1.7045 -0.0388
 1196SOL    HW3 4830   4.258   2.806   1.938 -1.0041  1.2238 -0.5992
 1196SOL    MW4 4831   4.316   2.854   1.981 -0.1202 -0.1812 -0.1955
 1197SOL     OW 4832   4.317   3.116   1.881 -0.1584  0.2160 -0.3403
 1197SOL    HW2 4833   4.244   3.167   1.917  0.5700  1.2532 -0.3017
 1197SOL    HW3 4834   4.298   3.025   1.905 -0.6816  0.6611  0.9771
 1197SOL    MW4 4835   4.305   3.111   1.889 -0.1316  0.4115 -0.1614
 1198SOL     OW 4836   4.061   3.214   1.970 -0.5244  0.0212  0.1498
 1198SOL    HW2 4837   4.039   3.224   2.063 -0.1843 -0.7927  0.3157
 1198SOL    HW3 4838   3.989   3.161   1.934 -0.4994  0.0833  0.0080
 1198SOL    MW4 4839   4.048   3.208   1.978 -0.4764 -0.0777  0.1529
 1199SOL     OW 4840   4.040   3.485   1.874  0.2995  0.3833 -0.5261
 1199SOL    HW2 4841   4.112   3.536   1.912  1.1181 -0.5190 -0.8674
 1199SOL    HW3 4842   4.045   3.400   1.917 -0.6248  0.3538 -0.4806
 1199SOL    MW4 4843   4.050   3.481   1.884  0.2856  0.2604 -0.5651
 1200SOL     OW 4844   4.253   3.605   2.004  0.2578 -0.0889 -0.4261
 1200SOL    HW2 4845   4.250   3.689   1.957  0.8058 -0.3413 -0.9224
 1200SOL    HW3 4846   4.326   3.558   1.964  0.1950 -0.6502  0.1136
 1200SOL    MW4 4847   4.262   3.610   1.992  0.3219 -0.1962 -0.4205
 1201SOL     OW 4848   4.256   3.871   1.868  0.0260  0.2883  0.4586
 1201SOL    HW2 4849   4.344   3.893   1.899  0.2701 -0.2640  0.1592
 1201SOL    HW3 4850   4.265   3.860   1.773 -0.2955 -0.1354  0.4775
 1201SOL    MW4 4851   4.268   3.873   1.860  0.0162  0.1593  0.4214
 1202SOL     OW 4852   4.055   4.022   1.977  0.1417 -0.0645  0.1802
 1202SOL    HW2 4853   4.131   3.965   1.962 -0.5612 -1.1223  0.5287
 1202SOL    HW3 4854   3.981   3.972   1.942 -0.5019  0.5966  0.5819
 1202SOL    MW4 4855   4.055   4.008   1.971 -0.0362 -0.1168  0.2793
 1203SOL     OW 4856   4.069   4.272   1.886 -0.3155 -0.1000 -0.0959
 1203SOL    HW2 4857   4.151   4.295   1.930 -0.1431  0.0331 -0.4920
 1203SOL    HW3 4858   4.062   4.177   1.898 -0.3389 -0.0449  0.3379
 1203SOL    MW4 4859   4.079   4.262   1.893 -0.2961 -0.0744 -0.0910
 1204SOL     OW 4860   4.310   4.380   1.947  0.4600  0.0559 -0.2842
 1204SOL    HW2 4861   4.305   4.375   2.042  0.9626  0.1268 -0.2553
 1204SOL    HW3 4862   4.296   4.472   1.927 -0.6113 -0.1145 -0.3367
 1204SOL    MW4 4863   4.307   4.391   1.957  0.3848  0.0429 -0.2873
 1205SOL     OW 4864   0.207   4.643   2.374 -0.2196 -0.0822 -0.1327
 1205SOL    HW2 4865   0.229   4.609   2.461  0.5952 -1.0122 -0.6927
 1205SOL    HW3 4866   0.279   4.701   2.351  0.5874 -1.4115 -1.0295
 1205SOL    MW4 4867   0.219   4.646   2.382 -0.0056 -0.3800 -0.3247
 1206SOL     OW 4868   4.471   0.125   2.299  0.2892 -0.0441 -0.0574
 1206SOL    HW2 4869   4.550   0.073   2.316 -0.9766 -1.9190  0.1905
 1206SOL    HW3 4870   4.470   0.134   2.204  1.3196  0.8321  0.0028
 1206SOL    MW4 4871   4.482   0.119   2.289  0.2580 -0.1758 -0.0165
 1207SOL     OW 4872   0.018   0.380   2.378  0.2463 -0.0228  0.3954
 1207SOL    HW2 4873   0.105   0.409   2.353 -0.7784  1.9362 -1.0960
 1207SOL    HW3 4874   0.020   0.285   2.369  1.4300  0.2100 -2.2879
 1207SOL    MW4 4875   0.029   0.371   2.373  0.2673  0.2664 -0.1554
 1208SOL     OW 4876   0.255   0.486   2.300 -0.5856 -0.0822  0.0701
 1208SOL    HW2 4877   0.341   0.453   2.329 -0.9411 -1.1334 -0.0398
 1208SOL    HW3 4878   0.263   0.492   2.205 -0.4085  0.4837  0.1196
 1208SOL    MW4 4879   0.268   0.482   2.292 -0.6091 -0.1462  0.0622
 1209SOL     OW 4880   0.263   0.766   2.363 -0.7282  0.2968 -0.2322
 1209SOL    HW2 4881   0.261   0.760   2.458 -0.9888 -1.1128 -0.3107
 1209SOL    HW3 4882   0.273   0.675   2.333 -0.1923  0.7666 -1.5356
 1209SOL    MW4 4883   0.264   0.753   2.371 -0.6919  0.1727 -0.4141
 1210SOL     OW 4884   0.026   0.923   2.292 -0.4076 -0.5147 -0.6795
 1210SOL    HW2 4885   0.110   0.894   2.327 -0.1668  1.1827  0.2165
 1210SOL    HW3 4886   0.022   0.886   2.204  1.2119 -0.7099 -0.6832
 1210SOL    MW4 4887   0.037   0.914   2.285 -0.1621 -0.3164 -0.5617
 1211SOL     OW 4888   4.480   1.188   2.351  0.1441  0.6241 -0.2821
 1211SOL    HW2 4889   4.481   1.172   2.445  1.5494  0.7224 -0.2679
 1211SOL    HW3 4890   4.484   1.101   2.311  3.3643  0.6799 -0.2170
 1211SOL    MW4 4891   4.480   1.174   2.358  0.7548  0.6444 -0.2716
 1212SOL     OW 4892   0.250   1.264   2.292 -0.2327  0.3310 -0.1241
 1212SOL    HW2 4893   0.159   1.236   2.303  0.5580 -2.9594 -1.2760
 1212SOL    HW3 4894   0.265   1.261   2.197  1.6399 -1.1727  0.1853
 1212SOL    MW4 4895   0.240   1.260   2.281  0.1187 -0.3015 -0.2353
 1213SOL     OW 4896   0.219   1.521   2.399 -0.1053  0.1973  0.3312
 1213SOL    HW2 4897   0.228   1.496   2.491 -0.3391 -1.0324  0.0358
 1213SOL    HW3 4898   0.233   1.439   2.351 -0.6150  0.7048 -0.6950
 1213SOL    MW4 4899   0.222   1.507   2.405 -0.2034  0.1020  0.1566
 1214SOL     OW 4900   0.010   1.660   2.276 -0.5896 -0.1275  0.1711
 1214SOL    HW2 4901   0.009   1.743   2.324 -1.3059 -0.6808  1.1388
 1214SOL    HW3 4902   0.079   1.609   2.319 -1.9949 -1.0504  1.3699
 1214SOL    MW4 4903   0.019   1.664   2.288 -0.8695 -0.3222  0.4570
 1215SOL     OW 4904   4.486   1.912   2.394 -0.4819 -0.1420 -0.3537
 1215SOL    HW2 4905   4.412   1.966   2.365  1.0914  0.9344 -2.4687
 1215SOL    HW3 4906   4.563   1.959   2.364  1.0787 -1.5645  1.3091
 1215SOL    MW4 4907   4.486   1.925   2.386 -0.0685 -0.1876 -0.4132
 1216SOL     OW 4908   0.207   2.064   2.282  0.1869  0.4232  0.5661
 1216SOL    HW2 4909   0.287   2.029   2.321  0.2997 -1.4370 -1.2772
 1216SOL    HW3 4910   0.224   2.067   2.188 -1.5002  1.1189  0.2585
 1216SOL    MW4 4911   0.220   2.060   2.275 -0.0208  0.2694  0.2823
 1217SOL     OW 4912   0.235   2.326   2.339 -0.3452 -0.4212 -0.1489
 1217SOL    HW2 4913   0.243   2.334   2.434  0.6704 -0.3933 -0.2352
 1217SOL    HW3 4914   0.219   2.233   2.323 -1.6651 -0.2494  0.1241
 1217SOL    MW4 4915   0.234   2.315   2.349 -0.3853 -0.3948 -0.1240
 1218SOL     OW 4916   0.007   2.439   2.245  0.6470  0.0221 -0.4192
 1218SOL    HW2 4917   0.013   2.526   2.284 -1.0036 -0.4763  0.9753
 1218SOL    HW3 4918   0.082   2.392   2.282 -0.0867 -0.0089  1.0429
 1218SOL    MW4 4919   0.018   2.444   2.255  0.3324 -0.0479 -0.0424
 1219SOL     OW 4920   0.018   2.707   2.352 -0.2231  0.3149 -0.4085
 1219SOL    HW2 4921   0.016   2.708   2.447  0.5015 -0.8584 -0.3704
 1219SOL    HW3 4922   0.094   2.761   2.329 -1.4393  2.0939 -0.3974
 1219SOL    MW4 4923   0.028   2.714   2.361 -0.2880  0.3948 -0.4022
 1220SOL     OW 4924   0.243   2.851   2.271  0.1968 -0.1788  0.1980
 1220SOL    HW2 4925   0.309   2.796   2.312 -1.5329 -1.5893  1.1689
 1220SOL    HW3 4926   0.267   2.854   2.179  1.0523 -1.4426  0.3743
 1220SOL    MW4 4927   0.255   2.844   2.264  0.0814 -0.5312  0.3490
 1221SOL     OW 4928   0.264   3.109   2.352  0.3602  0.2378 -0.1717
 1221SOL    HW2 4929   0.182   3.152   2.327  0.6177  0.5951 -0.4005
 1221SOL    HW3 4930   0.254   3.019   2.321 -0.9669 -0.3950  1.9958
 1221SOL    MW4 4931   0.252   3.103   2.345  0.2191  0.2015  0.0839
 1222SOL     OW 4932   0.030   3.224   2.278 -0.0696 -0.3216  0.1101
 1222SOL    HW2 4933   0.010   3.314   2.303 -0.9037 -0.5822  0.3935
 1222SOL    HW3 4934   0.047   3.228   2.184 -0.2178  0.1148  0.1023
 1222SOL    MW4 4935   0.030   3.236   2.269 -0.1992 -0.2985  0.1466
 1223SOL     OW 4936   0.018   3.502   2.359  0.2874  0.4643  0.4960
 1223SOL    HW2 4937   0.019   3.496   2.455 -0.1128 -1.1642  0.4156
 1223SOL    HW3 4938  -0.065   3.547   2.339  0.2492  0.5792  0.9050
 1223SOL    MW4 4939   0.007   3.507   2.369  0.2294  0.2649  0.5393
 1224SOL     OW 4940   0.234   3.607   2.228 -0.0242  0.3224 -0.1788
 1224SOL    HW2 4941   0.315   3.560   2.245 -0.7027 -0.8204 -0.0174
 1224SOL    HW3 4942   0.167   3.557   2.276 -0.6458  1.9034  0.6370
 1224SOL    MW4 4943   0.236   3.594   2.237 -0.1958  0.3805 -0.0498
 1225SOL     OW 4944   0.241   3.844   2.382  0.2573 -0.3021 -0.1958
 1225SOL    HW2 4945   0.171   3.870   2.321 -0.1800 -0.5578  0.1911
 1225SOL    HW3 4946   0.261   3.754   2.358 -0.5790 -0.7195  0.6509
 1225SOL    MW4 4947   0.234   3.835   2.370  0.0893 -0.3910 -0.0329
 1226SOL     OW 4948   0.025   3.956   2.228  0.1557  0.5000 -0.1530
 1226SOL    HW2 4949   0.021   4.046   2.259  0.5359  1.0898 -1.8132
 1226SOL    HW3 4950  -0.004   3.960   2.137 -1.3166 -1.2780  0.1954
 1226SOL    MW4 4951   0.020   3.968   2.220  0.0110  0.3433 -0.3259
 1227SOL     OW 4952   4.477   4.218   2.300  0.6826  0.3444 -0.6548
 1227SOL    HW2 4953   4.474   4.238   2.394 -0.9326  0.6970 -0.7750
 1227SOL    HW3 4954   4.562   4.252   2.272  1.5821 -0.5813  0.8484
 1227SOL    MW4 4955   4.488   4.225   2.309  0.5884  0.2689 -0.4725
 1228SOL     OW 4956   0.210   4.379   2.263 -0.7428 -0.1064 -0.0656
 1228SOL    HW2 4957   0.302   4.368   2.288 -0.9290 -1.1340  0.1987
 1228SOL    HW3 4958   0.189   4.468   2.291  0.3524  0.3686 -0.7195
 1228SOL    MW4 4959   0.220   4.389   2.270 -0.6229 -0.1788 -0.1168
 1229SOL     OW 4960   0.676   0.003   2.354  0.0867  0.0727  0.1416
 1229SOL    HW2 4961   0.694  -0.000   2.448 -0.1909 -0.0479  0.1896
 1229SOL    HW3 4962   0.738   0.068   2.321  0.6266 -0.3559  0.3044
 1229SOL    MW4 4963   0.687   0.011   2.362  0.1213  0.0002  0.1693
 1230SOL     OW 4964   0.425   0.111   2.299  0.0577 -0.6744  0.0054
 1230SOL    HW2 4965   0.505   0.070   2.332  0.7346  0.5506 -0.0838
 1230SOL    HW3 4966   0.439   0.117   2.205 -0.0049 -0.1841  0.0256
 1230SOL    MW4 4967   0.437   0.107   2.291  0.1388 -0.4481 -0.0036
 1231SOL     OW 4968   0.483   0.370   2.385 -0.4068  0.1393  0.0662
 1231SOL    HW2 4969   0.491   0.361   2.480  1.3420  0.3975 -0.0441
 1231SOL    HW3 4970   0.467   0.281   2.353  0.4006 -0.1554  0.4740
 1231SOL    MW4 4971   0.482   0.357   2.394 -0.0695  0.1345  0.1056
 1232SOL     OW 4972   0.698   0.492   2.257  0.0655  0.3911  0.3862
 1232SOL    HW2 4973   0.698   0.582   2.291 -1.5466  0.9851 -1.0668
 1232SOL    HW3 4974   0.626   0.449   2.303  0.2231  0.1319  0.3919
 1232SOL    MW4 4975   0.688   0.498   2.267 -0.1264  0.4353  0.1955
 1233SOL     OW 4976   0.728   0.757   2.364 -0.2173  0.0117 -0.8117
 1233SOL    HW2 4977   0.742   0.767   2.458  0.2267 -1.3461 -0.7112
 1233SOL    HW3 4978   0.643   0.797   2.348 -0.5025 -0.1446  0.2622
 1233SOL    MW4 4979   0.718   0.763   2.374 -0.1963 -0.1880 -0.6566
 1234SOL     OW 4980   0.491   0.899   2.299  0.3480  0.1573  0.0958
 1234SOL    HW2 4981   0.414   0.849   2.324  1.0740 -0.4586  1.1443
 1234SOL    HW3 4982   0.499   0.886   2.204 -0.8073  0.2020 -0.0081
 1234SOL    MW4 4983   0.482   0.891   2.290  0.2913  0.0820  0.2203
 1235SOL     OW 4984   0.495   1.152   2.384  0.2556 -0.2839 -0.0319
 1235SOL    HW2 4985   0.486   1.060   2.358  1.0963  0.0848 -1.6937
 1235SOL    HW3 4986   0.411   1.192   2.360  0.4804 -0.2708 -0.7936
 1235SOL    MW4 4987   0.483   1.145   2.377  0.3961 -0.2335 -0.3514
 1236SOL     OW 4988   0.712   1.299   2.285 -0.3411 -0.1847  0.0426
 1236SOL    HW2 4989   0.709   1.392   2.307  0.4520  0.0784 -0.9302
 1236SOL    HW3 4990   0.630   1.264   2.319 -1.3457  1.1725 -0.9306
 1236SOL    MW4 4991   0.701   1.307   2.292 -0.3690  0.0291 -0.2141
 1237SOL     OW 4992   0.686   1.573   2.351 -0.0630  0.0995 -0.0541
 1237SOL    HW2 4993   0.699   1.581   2.445 -0.5677 -0.1866  0.0373
 1237SOL    HW3 4994   0.765   1.612   2.313  0.6226 -0.7194  0.5014
 1237SOL    MW4 4995   0.698   1.579   2.358 -0.0390 -0.0463  0.0312
 1238SOL     OW 4996   0.444   1.674   2.309  0.0622  0.2308 -0.1851
 1238SOL    HW2 4997   0.533   1.639   2.322  0.5028  0.9782 -1.1282
 1238SOL    HW3 4998   0.388   1.615   2.360  1.0228 -0.6478 -0.1152
 1238SOL    MW4 4999   0.449   1.661   2.317  0.2470  0.2134 -0.3004
 1239SOL     OW 5000   0.431   1.946   2.401 -0.0769  0.2624 -0.1256
 1239SOL    HW2 5001   0.498   1.993   2.352  0.2014 -0.2803 -0.2612
 1239SOL    HW3 5002   0.438   1.855   2.371  1.0800 -0.3748  1.9752
 1239SOL    MW4 5003   0.441   1.940   2.391  0.1124  0.1068  0.1338
 1240SOL     OW 5004   0.660   2.060   2.296  0.1401  0.3501 -0.4894
 1240SOL    HW2 5005   0.739   2.018   2.329  0.3300  0.1074 -1.2336
 1240SOL    HW3 5006   0.671   2.152   2.317 -0.0037  0.1153  0.6181
 1240SOL    MW4 5007   0.672   2.066   2.303  0.1461  0.2871 -0.4416
 1241SOL     OW 5008   0.665   2.334   2.390  0.0327  0.3422  0.3741
 1241SOL    HW2 5009   0.664   2.314   2.483  1.2988  0.7891  0.4909
 1241SOL    HW3 5010   0.739   2.395   2.379 -0.6451  0.9779 -0.7736
 1241SOL    MW4 5011   0.675   2.340   2.400  0.1102  0.4849  0.2379
 1242SOL     OW 5012   0.462   2.447   2.243 -0.0233  0.4040  0.2798
 1242SOL    HW2 5013   0.533   2.406   2.292 -0.5808  0.4468  1.1313
 1242SOL    HW3 5014   0.382   2.409   2.280 -0.4243 -0.4999 -1.4402
 1242SOL    MW4 5015   0.460   2.437   2.254 -0.1498  0.2904  0.1652
 1243SOL     OW 5016   0.458   2.700   2.358 -0.4151 -0.6361  0.4713
 1243SOL    HW2 5017   0.453   2.685   2.452 -0.6965 -1.6448  0.2985
 1243SOL    HW3 5018   0.488   2.617   2.322 -1.6752 -0.7000 -0.4733
 1243SOL    MW4 5019   0.461   2.687   2.366 -0.6185 -0.7775  0.3238
 1244SOL     OW 5020   0.660   2.835   2.239  0.3789  0.2997 -0.5803
 1244SOL    HW2 5021   0.728   2.815   2.303  0.6539  1.0920 -0.6178
 1244SOL    HW3 5022   0.581   2.794   2.274  0.8312 -0.4493 -0.4347
 1244SOL    MW4 5023   0.659   2.827   2.252  0.4749  0.3054 -0.5658
 1245SOL     OW 5024   0.742   3.094   2.323 -0.8228 -0.7027  0.5863
 1245SOL    HW2 5025   0.667   3.149   2.302  0.6833  1.4295  0.5843
 1245SOL    HW3 5026   0.716   3.006   2.296 -2.9011  0.1814 -0.3907
 1245SOL    MW4 5027   0.729   3.090   2.317 -0.8984 -0.3049  0.4573
 1246SOL     OW 5028   0.500   3.211   2.243  0.2250 -0.0642 -0.3242
 1246SOL    HW2 5029   0.428   3.165   2.287 -1.0392  1.6498 -0.5616
 1246SOL    HW3 5030   0.471   3.219   2.153 -0.7277  3.4074  0.2245
 1246SOL    MW4 5031   0.487   3.206   2.237 -0.0675  0.6199 -0.2832
 1247SOL     OW 5032   0.449   3.474   2.325  0.1352  1.0427 -0.3894
 1247SOL    HW2 5033   0.532   3.518   2.302  0.2286  0.5170 -1.0773
 1247SOL    HW3 5034   0.467   3.381   2.312 -1.1594  1.0458 -2.5346
 1247SOL    MW4 5035   0.462   3.468   2.320 -0.0233  0.9737 -0.7634
 1248SOL     OW 5036   0.687   3.613   2.238  0.8281  0.0736 -0.0844
 1248SOL    HW2 5037   0.706   3.704   2.262  0.9430  0.0076  0.0790
 1248SOL    HW3 5038   0.689   3.613   2.142 -1.3594  0.6950 -0.1363
 1248SOL    MW4 5039   0.690   3.625   2.228  0.5546  0.1471 -0.0696
 1249SOL     OW 5040   0.686   3.869   2.341  0.4683 -0.1948 -0.0920
 1249SOL    HW2 5041   0.691   3.886   2.435  0.2361  0.4781 -0.1984
 1249SOL    HW3 5042   0.608   3.916   2.312  1.1783  0.5530 -0.8251
 1249SOL    MW4 5043   0.676   3.878   2.349  0.5314 -0.0072 -0.2027
 1250SOL     OW 5044   0.444   3.996   2.242 -0.0417 -0.2871  0.4539
 1250SOL    HW2 5045   0.369   3.944   2.273 -0.1481 -0.9617 -0.8820
 1250SOL    HW3 5046   0.435   3.995   2.146  1.1854  0.3759  0.3272
 1250SOL    MW4 5047   0.433   3.989   2.233  0.1062 -0.2885  0.2608
 1251SOL     OW 5048   0.461   4.243   2.348 -0.5024  0.3040  0.2840
 1251SOL    HW2 5049   0.543   4.281   2.315  0.0151  0.1278  1.3401
 1251SOL    HW3 5050   0.455   4.157   2.305  0.0370  0.1798  0.4528
 1251SOL    MW4 5051   0.471   4.237   2.338 -0.3630  0.2646  0.4456
 1252SOL     OW 5052   0.681   4.392   2.250  0.1622 -0.4335 -0.3705
 1252SOL    HW2 5053   0.671   4.478   2.291 -0.0376 -0.5441 -0.1911
 1252SOL    HW3 5054   0.672   4.409   2.156  1.5125 -0.0386 -0.4451
 1252SOL    MW4 5055   0.679   4.406   2.243  0.3140 -0.3953 -0.3567
 1253SOL     OW 5056   1.128   0.003   2.357 -0.6015 -0.1805 -0.0153
 1253SOL    HW2 5057   1.138  -0.011   2.451 -0.3295 -0.4698 -0.0855
 1253SOL    HW3 5058   1.041   0.041   2.347  0.0992  1.6149  0.5328
 1253SOL    MW4 5059   1.118   0.006   2.368 -0.4733  0.0181  0.0479
 1254SOL     OW 5060   0.891   0.151   2.284 -0.6313  0.2669  0.3687
 1254SOL    HW2 5061   0.894   0.238   2.326  1.3995 -0.1539  1.1753
 1254SOL    HW3 5062   0.889   0.170   2.190 -0.1582  1.1961  0.5374
 1254SOL    MW4 5063   0.891   0.165   2.277 -0.3009  0.3340  0.4978
 1255SOL     OW 5064   0.916   0.402   2.413  0.1466  0.3314  0.0672
 1255SOL    HW2 5065   0.993   0.435   2.369  1.0313 -0.2255  1.1687
 1255SOL    HW3 5066   0.842   0.437   2.363  1.1169 -0.2197 -1.7803
 1255SOL    MW4 5067   0.916   0.411   2.401  0.3914  0.1852 -0.0315
 1256SOL     OW 5068   1.121   0.518   2.291  0.7640  0.6397 -0.1570
 1256SOL    HW2 5069   1.191   0.457   2.315  0.4583 -0.2948 -1.6343
 1256SOL    HW3 5070   1.128   0.528   2.197 -1.2583  0.3204 -0.3772
 1256SOL    MW4 5071   1.131   0.511   2.282  0.4568  0.4743 -0.3810
 1257SOL     OW 5072   1.154   0.777   2.386  0.4426 -0.2123 -0.4091
 1257SOL    HW2 5073   1.072   0.825   2.375  1.7843  2.0007 -1.1010
 1257SOL    HW3 5074   1.142   0.697   2.333 -0.6417  0.8946 -1.8881
 1257SOL    MW4 5075   1.141   0.773   2.377  0.4765  0.2257 -0.6957
 1258SOL     OW 5076   0.917   0.913   2.269  0.0429  0.3278  0.4885
 1258SOL    HW2 5077   0.895   0.997   2.308  0.5199 -0.0144  1.5110
 1258SOL    HW3 5078   0.841   0.857   2.287 -0.1994  0.4880 -0.0353
 1258SOL    MW4 5079   0.904   0.917   2.276  0.0738  0.3038  0.5543
 1259SOL     OW 5080   0.915   1.154   2.414  0.0024  0.0971 -0.2330
 1259SOL    HW2 5081   0.991   1.208   2.390  0.0824  0.4818  0.8563
 1259SOL    HW3 5082   0.840   1.200   2.376 -0.0023  1.3616  1.2794
 1259SOL    MW4 5083   0.915   1.167   2.405  0.0123  0.3148  0.1101
 1260SOL     OW 5084   1.131   1.294   2.289 -0.4089  0.2696  0.0495
 1260SOL    HW2 5085   1.197   1.229   2.311 -2.2244 -1.6100  0.1373
 1260SOL    HW3 5086   1.128   1.294   2.193  0.9093  1.6470 -0.0221
 1260SOL    MW4 5087   1.139   1.286   2.279 -0.4746  0.2035  0.0515
 1261SOL     OW 5088   1.135   1.533   2.415 -0.4852  0.1939 -0.2166
 1261SOL    HW2 5089   1.070   1.586   2.370  0.8297  1.8894 -0.1714
 1261SOL    HW3 5090   1.139   1.452   2.366 -1.5321  0.6887 -1.1225
 1261SOL    MW4 5091   1.127   1.530   2.403 -0.4497  0.4828 -0.3300
 1262SOL     OW 5092   0.948   1.696   2.284  0.2347 -0.0088 -0.2853
 1262SOL    HW2 5093   0.940   1.785   2.318  0.6228  0.3838 -1.2037
 1262SOL    HW3 5094   0.959   1.707   2.190 -1.9197 -1.1148 -0.7188
 1262SOL    MW4 5095   0.948   1.709   2.276  0.0017 -0.1030 -0.4635
 1263SOL     OW 5096   0.906   1.939   2.377  0.2699 -0.5797 -0.2234
 1263SOL    HW2 5097   0.924   1.953   2.470  2.0629 -0.3505 -0.5838
 1263SOL    HW3 5098   0.963   2.001   2.331  0.6651 -1.8565 -1.5233
 1263SOL    MW4 5099   0.916   1.949   2.383  0.5586 -0.7181 -0.4423
 1264SOL     OW 5100   1.126   2.084   2.255  1.0580  0.4575  0.1938
 1264SOL    HW2 5101   1.195   2.033   2.298  2.4674  2.5899  0.5565
 1264SOL    HW3 5102   1.144   2.076   2.162 -0.7270 -2.4105  0.0449
 1264SOL    MW4 5103   1.138   2.076   2.249  1.0085  0.3605  0.2222
 1265SOL     OW 5104   1.111   2.324   2.380 -0.0121  0.5470 -0.0027
 1265SOL    HW2 5105   1.180   2.381   2.346  1.3716 -0.9395  0.2352
 1265SOL    HW3 5106   1.120   2.243   2.329 -0.9586 -0.0203  0.7100
 1265SOL    MW4 5107   1.121   2.321   2.369  0.0454  0.2759  0.1228
 1266SOL     OW 5108   0.897   2.474   2.287 -0.1868  0.2597  0.0539
 1266SOL    HW2 5109   0.977   2.429   2.314  0.6216  1.6966  0.1004
 1266SOL    HW3 5110   0.889   2.453   2.194  0.8828  1.0462 -0.2264
 1266SOL    MW4 5111   0.907   2.465   2.279  0.0610  0.5531  0.0231
 1267SOL     OW 5112   0.878   2.741   2.388  0.0943 -0.2396  0.1759
 1267SOL    HW2 5113   0.893   2.722   2.481  1.4374  0.0468  0.0351
 1267SOL    HW3 5114   0.902   2.661   2.343  0.3138 -0.0838  0.0132
 1267SOL    MW4 5115   0.883   2.728   2.394  0.3005 -0.1814  0.1357
 1268SOL     OW 5116   1.122   2.849   2.258 -0.4142  0.3008 -0.3386
 1268SOL    HW2 5117   1.189   2.795   2.302  0.7119  1.0095 -1.1519
 1268SOL    HW3 5118   1.039   2.819   2.295  0.2688 -1.3261 -0.0690
 1268SOL    MW4 5119   1.120   2.838   2.269 -0.1756  0.1798 -0.4103
 1269SOL     OW 5120   1.150   3.111   2.350  0.3212  0.3231 -0.0185
 1269SOL    HW2 5121   1.064   3.131   2.315  0.1741  2.4533  1.4915
 1269SOL    HW3 5122   1.163   3.018   2.330 -2.0923  0.1045 -0.6898
 1269SOL    MW4 5123   1.141   3.101   2.342 -0.0167  0.5753  0.0920
 1270SOL     OW 5124   0.940   3.217   2.210  0.4998  0.2830 -0.3255
 1270SOL    HW2 5125   0.926   3.306   2.241 -2.5558 -0.0839 -0.4829
 1270SOL    HW3 5126   0.867   3.167   2.247  2.2646 -2.2112 -0.0890
 1270SOL    MW4 5127   0.928   3.222   2.219  0.3294 -0.0944 -0.3152
 1271SOL     OW 5128   0.905   3.474   2.327 -0.0457 -0.0051  0.3160
 1271SOL    HW2 5129   0.902   3.470   2.423 -0.2554  0.7532  0.3375
 1271SOL    HW3 5130   0.820   3.509   2.301 -0.2856 -0.9317 -0.1925
 1271SOL    MW4 5131   0.893   3.478   2.336 -0.1050 -0.0269  0.2520
 1272SOL     OW 5132   1.117   3.641   2.252 -0.0606  0.1282  0.2312
 1272SOL    HW2 5133   1.192   3.603   2.298  0.8017  1.0507 -0.4128
 1272SOL    HW3 5134   1.044   3.582   2.274  0.4302  0.2688  2.3652
 1272SOL    MW4 5135   1.117   3.628   2.261  0.1180  0.2682  0.4277
 1273SOL     OW 5136   1.122   3.909   2.336 -0.3549 -0.0553 -0.3938
 1273SOL    HW2 5137   1.204   3.949   2.306  1.0343 -1.9645  0.7325
 1273SOL    HW3 5138   1.121   3.822   2.296  0.4487 -1.7858  3.0863
 1273SOL    MW4 5139   1.133   3.903   2.327 -0.0656 -0.5355  0.2139
 1274SOL     OW 5140   0.901   4.039   2.259 -0.3399 -0.4349 -0.0898
 1274SOL    HW2 5141   0.981   4.002   2.298 -0.0804  0.5864  0.3621
 1274SOL    HW3 5142   0.830   3.992   2.303 -0.0421  0.4098  1.3363
 1274SOL    MW4 5143   0.902   4.028   2.270 -0.2664 -0.1888  0.1578
 1275SOL     OW 5144   0.895   4.296   2.375  0.1216  0.1434 -0.2703
 1275SOL    HW2 5145   0.910   4.207   2.343 -0.2274  0.6513 -1.8570
 1275SOL    HW3 5146   0.819   4.327   2.327  0.2661  1.3272  0.2420
 1275SOL    MW4 5147   0.887   4.288   2.364  0.0947  0.3667 -0.4122
 1276SOL     OW 5148   1.154   4.378   2.293  0.9672 -0.2726  0.4018
 1276SOL    HW2 5149   1.078   4.345   2.339  0.6833 -0.9057 -0.4938
 1276SOL    HW3 5150   1.145   4.473   2.296 -0.2719 -0.3468 -0.3493
 1276SOL    MW4 5151   1.143   4.386   2.299  0.7660 -0.3653  0.1843
 1277SOL     OW 5152   1.556   4.651   2.369 -0.3214  0.1258  0.5417
 1277SOL    HW2 5153   1.626   4.695   2.322  0.8861 -0.9526  1.3085
 1277SOL    HW3 5154   1.477   4.701   2.347  0.4389  0.4589 -1.5064
 1277SOL    MW4 5155   1.555   4.663   2.360 -0.0618  0.0277  0.3724
 1278SOL     OW 5156   1.358   0.148   2.279  0.1895 -0.6603 -0.6185
 1278SOL    HW2 5157   1.342   0.236   2.313  0.7127 -0.8597  0.1522
 1278SOL    HW3 5158   1.283   0.097   2.310 -0.0086 -0.5305 -0.8878
 1278SOL    MW4 5159   1.346   0.153   2.288  0.2325 -0.6695 -0.5522
 1279SOL     OW 5160   1.340   0.391   2.382 -0.0982  0.5158  0.1351
 1279SOL    HW2 5161   1.350   0.375   2.476  0.5381 -0.7658 -0.1396
 1279SOL    HW3 5162   1.412   0.450   2.360  0.3048  0.0636  0.2614
 1279SOL    MW4 5163   1.351   0.397   2.392  0.0389  0.2871  0.1154
 1280SOL     OW 5164   1.551   0.546   2.285  0.3956  0.1766 -0.4132
 1280SOL    HW2 5165   1.617   0.486   2.319  0.4397  0.0369 -0.7395
 1280SOL    HW3 5166   1.568   0.550   2.190  0.8130  1.2203 -0.3045
 1280SOL    MW4 5167   1.562   0.539   2.277  0.4565  0.2959 -0.4420
 1281SOL     OW 5168   1.590   0.796   2.376  0.1675 -0.1217  0.5785
 1281SOL    HW2 5169   1.657   0.837   2.322 -1.2528  1.4732  0.0008
 1281SOL    HW3 5170   1.573   0.712   2.334  0.3481  0.3450 -0.4267
 1281SOL    MW4 5171   1.596   0.790   2.363  0.0038  0.1504  0.3700
 1282SOL     OW 5172   1.350   0.907   2.256  0.4045 -0.0788  0.1601
 1282SOL    HW2 5173   1.432   0.884   2.299 -0.3167  0.1778  1.7344
 1282SOL    HW3 5174   1.283   0.858   2.305 -0.4671  0.4192 -0.5097
 1282SOL    MW4 5175   1.352   0.898   2.268  0.1943  0.0207  0.2794
 1283SOL     OW 5176   1.363   1.170   2.315  0.4869 -0.2411  0.1871
 1283SOL    HW2 5177   1.372   1.155   2.409  0.9659  0.1177  0.1984
 1283SOL    HW3 5178   1.348   1.082   2.279  1.8987 -0.5965  0.4204
 1283SOL    MW4 5179   1.362   1.156   2.322  0.7364 -0.2407  0.2191
 1284SOL     OW 5180   1.592   1.299   2.220 -0.0843 -0.5454  0.2363
 1284SOL    HW2 5181   1.510   1.256   2.244  0.1269 -0.6262  0.8156
 1284SOL    HW3 5182   1.588   1.306   2.124 -1.4352  0.7883  0.3717
 1284SOL    MW4 5183   1.581   1.294   2.210 -0.2347 -0.3800  0.3307
 1285SOL     OW 5184   1.563   1.537   2.363 -0.2906  0.1669 -0.2026
 1285SOL    HW2 5185   1.639   1.591   2.343  0.7004 -0.5437  1.4811
 1285SOL    HW3 5186   1.573   1.460   2.307 -0.7454  0.9014 -1.2981
 1285SOL    MW4 5187   1.575   1.534   2.353 -0.2197  0.1701 -0.1247
 1286SOL     OW 5188   1.335   1.655   2.270  0.3389  0.0771 -0.2715
 1286SOL    HW2 5189   1.418   1.623   2.306 -0.3793 -1.6441 -0.0964
 1286SOL    HW3 5190   1.268   1.609   2.320 -0.6998  0.2570 -1.4887
 1286SOL    MW4 5191   1.337   1.645   2.281  0.1072 -0.1262 -0.4091
 1287SOL     OW 5192   1.326   1.908   2.374  0.1240  0.1501  0.6626
 1287SOL    HW2 5193   1.385   1.965   2.324 -1.8725  1.3628 -0.3797
 1287SOL    HW3 5194   1.329   1.824   2.328 -0.3653  0.7470 -0.4823
 1287SOL    MW4 5195   1.334   1.905   2.361 -0.2041  0.3889  0.3741
 1288SOL     OW 5196   1.525   2.051   2.261 -0.4642  0.1338  0.3550
 1288SOL    HW2 5197   1.608   2.022   2.298 -0.8842  1.1211  2.1281
 1288SOL    HW3 5198   1.542   2.061   2.167  1.1094 -0.7101  0.5372
 1288SOL    MW4 5199   1.538   2.048   2.253 -0.3120  0.1526  0.6130
 1289SOL     OW 5200   1.556   2.313   2.360 -0.2289 -0.5135  0.4485
 1289SOL    HW2 5201   1.557   2.304   2.455 -1.9994 -1.9663  0.3676
 1289SOL    HW3 5202   1.529   2.227   2.328 -1.6340  0.5060 -1.2617
 1289SOL    MW4 5203   1.552   2.300   2.368 -0.6478 -0.5708  0.2122
 1290SOL     OW 5204   1.328   2.460   2.276  0.2215 -0.2008 -0.6517
 1290SOL    HW2 5205   1.409   2.421   2.308  0.3464  0.1983 -0.4667
 1290SOL    HW3 5206   1.332   2.452   2.181  0.4926 -0.1564 -0.6429
 1290SOL    MW4 5207   1.339   2.454   2.268  0.2737 -0.1423 -0.6261
 1291SOL     OW 5208   1.332   2.717   2.404  0.4227  0.1341 -0.2140
 1291SOL    HW2 5209   1.416   2.744   2.367  0.9828  0.1731  1.0721
 1291SOL    HW3 5210   1.320   2.627   2.373  0.9633  0.1073 -0.3454
 1291SOL    MW4 5211   1.341   2.708   2.395  0.5679  0.1359 -0.0620
 1292SOL     OW 5212   1.565   2.810   2.294  0.4234 -0.2200  0.4326
 1292SOL    HW2 5213   1.568   2.904   2.312 -1.2274 -0.2884  1.1071
 1292SOL    HW3 5214   1.570   2.804   2.199  1.5085  0.4838  0.4243
 1292SOL    MW4 5215   1.566   2.822   2.284  0.3488 -0.1364  0.5205
 1293SOL     OW 5216   1.591   3.103   2.350 -0.4003  0.0039 -0.5281
 1293SOL    HW2 5217   1.594   3.105   2.446  1.4986 -1.7562 -0.5135
 1293SOL    HW3 5218   1.520   3.163   2.327 -0.1082  1.3556  1.9258
 1293SOL    MW4 5219   1.582   3.111   2.360 -0.1111 -0.0501 -0.2024
 1294SOL     OW 5220   1.363   3.265   2.261 -0.0161  0.0720 -1.1066
 1294SOL    HW2 5221   1.288   3.213   2.287 -1.1626  1.8611 -0.7454
 1294SOL    HW3 5222   1.362   3.264   2.165  0.6932 -1.5676 -1.1024
 1294SOL    MW4 5223   1.353   3.258   2.252 -0.0738  0.0918 -1.0583
 1295SOL     OW 5224   1.323   3.504   2.363  0.7245  0.4423 -0.0925
 1295SOL    HW2 5225   1.335   3.495   2.458  0.1645  1.0055  0.0356
 1295SOL    HW3 5226   1.322   3.414   2.331 -2.3479  0.0735  0.8607
 1295SOL    MW4 5227   1.325   3.491   2.371  0.2452  0.4678  0.0501
 1296SOL     OW 5228   1.589   3.602   2.294  0.3118 -0.1306 -0.0750
 1296SOL    HW2 5229   1.589   3.695   2.316 -0.2083 -0.1984  0.2240
 1296SOL    HW3 5230   1.499   3.573   2.310  0.1165 -0.3652 -1.5232
 1296SOL    MW4 5231   1.577   3.610   2.299  0.2173 -0.1707 -0.2267
 1297SOL     OW 5232   1.572   3.868   2.376 -0.2747 -0.0243  0.1109
 1297SOL    HW2 5233   1.553   3.895   2.466 -0.1488 -0.3839  0.2444
 1297SOL    HW3 5234   1.660   3.902   2.359 -0.1893 -0.1892  0.2175
 1297SOL    MW4 5235   1.581   3.876   2.386 -0.2468 -0.0935  0.1423
 1298SOL     OW 5236   1.371   4.009   2.250  0.5632 -0.1530 -0.1730
 1298SOL    HW2 5237   1.448   3.962   2.284  1.1509  0.7923 -0.1824
 1298SOL    HW3 5238   1.382   4.009   2.155  0.4386 -0.2096 -0.1878
 1298SOL    MW4 5239   1.383   4.003   2.242  0.6243 -0.0358 -0.1764
 1299SOL     OW 5240   1.375   4.246   2.392 -0.1196 -0.6662  0.0187
 1299SOL    HW2 5241   1.357   4.160   2.354 -0.3063 -0.7624  0.3159
 1299SOL    HW3 5242   1.293   4.295   2.382  0.6117  0.1816 -1.9894
 1299SOL    MW4 5243   1.362   4.241   2.386 -0.0478 -0.5670 -0.2069
 1300SOL     OW 5244   1.581   4.397   2.275 -0.0141 -0.2008  0.3118
 1300SOL    HW2 5245   1.504   4.349   2.306 -0.1684  0.4074  0.8889
 1300SOL    HW3 5246   1.578   4.480   2.323  0.1401  0.4677 -0.8297
 1300SOL    MW4 5247   1.570   4.401   2.286 -0.0141 -0.0324  0.2375
 1301SOL     OW 5248   2.003   0.004   2.342  0.2819 -0.0874 -0.1897
 1301SOL    HW2 5249   2.085   0.037   2.305 -0.2574 -0.7843 -2.1088
 1301SOL    HW3 5250   2.004  -0.090   2.324 -0.6436 -0.2071  0.3252
 1301SOL    MW4 5251   2.014  -0.004   2.335  0.0887 -0.1951 -0.3748
 1302SOL     OW 5252   1.762   0.145   2.269 -0.1478  0.2940  0.0399
 1302SOL    HW2 5253   1.763   0.226   2.320  0.4900  0.0869  0.3639
 1302SOL    HW3 5254   1.840   0.098   2.297 -0.2388 -0.2033 -0.5260
 1302SOL    MW4 5255   1.772   0.150   2.280 -0.0758  0.2010  0.0076
 1303SOL     OW 5256   1.774   0.403   2.383 -0.2160 -0.0581  0.0819
 1303SOL    HW2 5257   1.780   0.404   2.478  0.6241 -2.3830  0.0856
 1303SOL    HW3 5258   1.857   0.441   2.354  0.4216 -1.2490  0.2961
 1303SOL    MW4 5259   1.786   0.408   2.392 -0.0210 -0.5219  0.1109
 1304SOL     OW 5260   2.005   0.495   2.282 -0.2323  0.6620  0.3137
 1304SOL    HW2 5261   2.009   0.589   2.299  0.2720  0.5849  0.6320
 1304SOL    HW3 5262   1.984   0.489   2.188 -1.2799  1.0836  0.5200
 1304SOL    MW4 5263   2.003   0.507   2.272 -0.3040  0.7074  0.3831
 1305SOL     OW 5264   1.986   0.756   2.371  0.2283  0.1147  0.0072
 1305SOL    HW2 5265   2.067   0.794   2.336  0.6900 -0.5367  0.3563
 1305SOL    HW3 5266   1.916   0.806   2.329  0.7798 -0.2160 -1.3406
 1305SOL    MW4 5267   1.988   0.768   2.361  0.3620 -0.0148 -0.1245
 1306SOL     OW 5268   1.798   0.893   2.233  0.0930 -0.1355 -0.4451
 1306SOL    HW2 5269   1.785   0.982   2.265 -0.3387 -0.1986 -0.4501
 1306SOL    HW3 5270   1.803   0.902   2.138  1.5545  0.0752 -0.3580
 1306SOL    MW4 5271   1.797   0.906   2.225  0.2289 -0.1161 -0.4344
 1307SOL     OW 5272   1.792   1.161   2.340  0.1653 -0.1860 -0.0103
 1307SOL    HW2 5273   1.869   1.192   2.293  0.3362  0.4745  0.6807
 1307SOL    HW3 5274   1.723   1.224   2.317 -0.1201 -0.6724 -0.4886
 1307SOL    MW4 5275   1.793   1.174   2.331  0.1502 -0.1630  0.0176
 1308SOL     OW 5276   2.045   1.258   2.240 -0.5218  0.3963  0.1472
 1308SOL    HW2 5277   2.040   1.349   2.266  0.8128  0.5717 -0.1650
 1308SOL    HW3 5278   2.055   1.260   2.145 -0.9915 -0.0876  0.0833
 1308SOL    MW4 5279   2.046   1.270   2.231 -0.4077  0.3556  0.0975
 1309SOL     OW 5280   2.002   1.541   2.339 -0.1388  0.2990  0.2051
 1309SOL    HW2 5281   2.008   1.545   2.434  1.4161  0.6135  0.1091
 1309SOL    HW3 5282   1.921   1.587   2.318 -0.6957 -0.1123  1.3975
 1309SOL    MW4 5283   1.992   1.547   2.349 -0.0074  0.2862  0.3498
 1310SOL     OW 5284   1.781   1.688   2.287 -0.0261 -0.4692 -0.1462
 1310SOL    HW2 5285   1.796   1.779   2.312 -0.9320 -0.4696  0.4400
 1310SOL    HW3 5286   1.774   1.691   2.192 -1.1169  0.2542 -0.0597
 1310SOL    MW4 5287   1.782   1.701   2.278 -0.2896 -0.3737 -0.0577
 1311SOL     OW 5288   1.788   1.959   2.354 -0.4267  0.0191 -0.0929
 1311SOL    HW2 5289   1.791   1.942   2.448 -2.2316  0.7357  0.1218
 1311SOL    HW3 5290   1.863   2.016   2.337 -0.8772  1.0016  1.1672
 1311SOL    MW4 5291   1.798   1.964   2.364 -0.7242  0.2432  0.1013
 1312SOL     OW 5292   2.030   2.059   2.261  0.0341 -0.3438 -0.0464
 1312SOL    HW2 5293   2.106   2.010   2.292  1.1280  1.3585  0.0349
 1312SOL    HW3 5294   2.034   2.052   2.166  0.4945  0.0082 -0.0568
 1312SOL    MW4 5295   2.040   2.052   2.252  0.2391 -0.0727 -0.0372
 1313SOL     OW 5296   2.042   2.339   2.321 -0.5982 -0.6776  0.0021
 1313SOL    HW2 5297   2.123   2.385   2.297 -0.9014 -0.3954 -0.4634
 1313SOL    HW3 5298   2.057   2.249   2.292  0.0425 -0.9165  1.0218
 1313SOL    MW4 5299   2.055   2.333   2.314 -0.5538 -0.6721  0.0751
 1314SOL     OW 5300   1.797   2.448   2.250  0.6181  0.4435 -0.4378
 1314SOL    HW2 5301   1.877   2.404   2.278  0.5763  0.9396  0.4948
 1314SOL    HW3 5302   1.726   2.398   2.291  0.6670  2.8175  2.8070
 1314SOL    MW4 5303   1.798   2.436   2.259  0.6189  0.8221  0.1132
 1315SOL     OW 5304   1.804   2.685   2.376  0.0802  0.1263  0.4309
 1315SOL    HW2 5305   1.786   2.608   2.321 -1.2251  0.1500  0.7995
 1315SOL    HW3 5306   1.731   2.744   2.357  0.6612  0.9407  0.7523
 1315SOL    MW4 5307   1.792   2.682   2.366 -0.0154  0.2370  0.5219
 1316SOL     OW 5308   2.012   2.821   2.249 -0.1285 -0.1854  0.1499
 1316SOL    HW2 5309   2.086   2.763   2.266  0.0334  0.1792  0.7158
 1316SOL    HW3 5310   1.938   2.777   2.292 -0.3268 -0.7363 -0.7315
 1316SOL    MW4 5311   2.012   2.807   2.257 -0.1330 -0.2100  0.1080
 1317SOL     OW 5312   2.052   3.074   2.359  0.3159 -0.2104  0.0885
 1317SOL    HW2 5313   2.140   3.107   2.338  0.4691 -0.3182  0.5391
 1317SOL    HW3 5314   2.049   2.987   2.319  0.3290 -0.1081 -0.1327
 1317SOL    MW4 5315   2.064   3.067   2.351  0.3378 -0.2112  0.1187
 1318SOL     OW 5316   1.836   3.224   2.280 -0.1816 -0.2535 -0.0178
 1318SOL    HW2 5317   1.911   3.184   2.324 -0.3543  0.1185  0.6195
 1318SOL    HW3 5318   1.760   3.176   2.315 -0.3118 -0.0143  0.0300
 1318SOL    MW4 5319   1.836   3.212   2.290 -0.2216 -0.1729  0.0727
 1319SOL     OW 5320   1.815   3.499   2.386 -0.2956  0.2417 -0.1097
 1319SOL    HW2 5321   1.819   3.410   2.351  0.3323 -0.1411  0.9179
 1319SOL    HW3 5322   1.732   3.533   2.353 -0.4492 -0.6466 -0.6797
 1319SOL    MW4 5323   1.804   3.492   2.377 -0.2329  0.0741 -0.0494
 1320SOL     OW 5324   2.014   3.624   2.280  0.0997  1.2431 -0.5103
 1320SOL    HW2 5325   1.939   3.579   2.320  2.0123 -0.8391  0.8569
 1320SOL    HW3 5326   2.002   3.611   2.186 -0.5778 -0.2212 -0.2361
 1320SOL    MW4 5327   2.003   3.616   2.273  0.2625  0.7751 -0.2937
 1321SOL     OW 5328   2.046   3.899   2.328 -0.0589 -0.5825  0.4549
 1321SOL    HW2 5329   2.016   3.902   2.419  0.5800 -0.8383  0.6744
 1321SOL    HW3 5330   2.039   3.807   2.303 -0.1712 -0.5226  0.2664
 1321SOL    MW4 5331   2.041   3.888   2.337  0.0105 -0.6084  0.4590
 1322SOL     OW 5332   1.792   3.990   2.256 -0.0704 -0.3683  0.2156
 1322SOL    HW2 5333   1.886   3.971   2.264  0.2232  0.4355 -0.9848
 1322SOL    HW3 5334   1.779   4.000   2.161 -0.9882  1.3005  0.4960
 1322SOL    MW4 5335   1.803   3.989   2.244 -0.1527 -0.0422  0.0942
 1323SOL     OW 5336   1.805   4.233   2.357  0.1781  0.6421 -0.0920
 1323SOL    HW2 5337   1.794   4.147   2.317  0.3249  0.6323 -0.1129
 1323SOL    HW3 5338   1.729   4.284   2.327 -0.9228 -0.0601  1.4505
 1323SOL    MW4 5339   1.794   4.229   2.348  0.0522  0.5474  0.1090
 1324SOL     OW 5340   2.007   4.411   2.282 -0.0421 -0.1810 -0.5096
 1324SOL    HW2 5341   1.935   4.349   2.289 -0.9755  0.8960 -0.5838
 1324SOL    HW3 5342   2.024   4.418   2.188 -0.7661  0.6280 -0.5818
 1324SOL    MW4 5343   2.000   4.404   2.271 -0.2608  0.0672 -0.5291
 1325SOL     OW 5344   2.506   4.655   2.348 -1.0099  0.1422  0.3277
 1325SOL    HW2 5345   2.579   4.693   2.299 -0.0532 -0.4091  1.2739
 1325SOL    HW3 5346   2.511   4.561   2.329 -1.5186  0.1179  0.3234
 1325SOL    MW4 5347   2.516   4.647   2.339 -0.9506  0.0658  0.4520
 1326SOL     OW 5348   2.261   0.097   2.244  0.0775  0.1751 -0.2192
 1326SOL    HW2 5349   2.281   0.189   2.263 -0.0678 -0.0110  0.8727
 1326SOL    HW3 5350   2.329   0.048   2.289 -0.0989 -0.2700 -0.4401
 1326SOL    MW4 5351   2.272   0.103   2.253  0.0350  0.0918 -0.1042
 1327SOL     OW 5352   2.239   0.371   2.343 -0.5542 -0.2056 -0.3340
 1327SOL    HW2 5353   2.312   0.422   2.308 -0.1688 -0.5886 -0.0986
 1327SOL    HW3 5354   2.163   0.427   2.333 -0.2781  0.0675 -0.8904
 1327SOL    MW4 5355   2.239   0.385   2.337 -0.4668 -0.2201 -0.3765
 1328SOL     OW 5356   2.460   0.502   2.258  0.0410 -0.0029  0.2523
 1328SOL    HW2 5357   2.521   0.431   2.277 -1.1996 -1.3997 -0.8877
 1328SOL    HW3 5358   2.451   0.502   2.163 -0.8846  0.9001  0.3217
 1328SOL    MW4 5359   2.467   0.492   2.248 -0.2446 -0.0681  0.1113
 1329SOL     OW 5360   2.458   0.764   2.351  0.3614 -0.1543  0.3036
 1329SOL    HW2 5361   2.538   0.801   2.313  0.8496 -0.8166  0.6561
 1329SOL    HW3 5362   2.456   0.674   2.319 -0.0560 -0.2438  0.5743
 1329SOL    MW4 5363   2.468   0.757   2.342  0.3710 -0.2535  0.3858
 1330SOL     OW 5364   2.220   0.888   2.292  0.1646  0.0327 -0.0692
 1330SOL    HW2 5365   2.229   0.981   2.310  0.5046 -0.0404  0.1443
 1330SOL    HW3 5366   2.307   0.852   2.307  0.1378 -0.2501 -0.5589
 1330SOL    MW4 5367   2.233   0.896   2.296  0.2060 -0.0142 -0.1056
 1331SOL     OW 5368   2.260   1.154   2.369 -0.0330 -0.3429  0.0443
 1331SOL    HW2 5369   2.316   1.211   2.317 -0.5367 -0.2380 -0.3792
 1331SOL    HW3 5370   2.171   1.180   2.346 -0.2638 -0.1332  1.1242
 1331SOL    MW4 5371   2.255   1.165   2.359 -0.1299 -0.3015  0.1311
 1332SOL     OW 5372   2.445   1.322   2.248 -0.2966 -0.2362  0.3614
 1332SOL    HW2 5373   2.520   1.283   2.293 -1.4778 -0.8002  1.9087
 1332SOL    HW3 5374   2.438   1.411   2.284 -0.8287 -0.4487  0.7907
 1332SOL    MW4 5375   2.454   1.329   2.259 -0.5229 -0.3386  0.6223
 1333SOL     OW 5376   2.455   1.573   2.368  0.2160  0.2777 -0.4027
 1333SOL    HW2 5377   2.459   1.563   2.463  0.1667 -1.2390 -0.5537
 1333SOL    HW3 5378   2.545   1.594   2.342  0.9224 -2.4812 -0.3505
 1333SOL    MW4 5379   2.467   1.575   2.377  0.3023 -0.2863 -0.4158
 1334SOL     OW 5380   2.218   1.678   2.237 -0.4098  0.1552  0.1809
 1334SOL    HW2 5381   2.299   1.634   2.263  0.3404  0.5840 -1.3498
 1334SOL    HW3 5382   2.148   1.628   2.279  0.6037 -0.6615  0.9146
 1334SOL    MW4 5383   2.220   1.666   2.246 -0.1771  0.1041  0.0758
 1335SOL     OW 5384   2.231   1.914   2.361  0.3631 -0.2919  0.5026
 1335SOL    HW2 5385   2.310   1.951   2.322 -0.5895  0.3001 -0.8697
 1335SOL    HW3 5386   2.225   1.826   2.324  0.1195 -0.1630  0.2332
 1335SOL    MW4 5387   2.241   1.907   2.351  0.2053 -0.1969  0.2863
 1336SOL     OW 5388   2.476   2.037   2.262  0.0178  0.0724  0.2986
 1336SOL    HW2 5389   2.559   2.009   2.301  0.4114  0.9191  0.0785
 1336SOL    HW3 5390   2.496   2.049   2.169 -0.2047  0.8723  0.3577
 1336SOL    MW4 5391   2.490   2.035   2.255  0.0403  0.2897  0.2773
 1337SOL     OW 5392   2.496   2.297   2.345 -0.6306  0.4736 -0.4007
 1337SOL    HW2 5393   2.573   2.331   2.299  0.3604 -0.2027  0.7373
 1337SOL    HW3 5394   2.486   2.207   2.312 -2.0821  1.1561 -1.9451
 1337SOL    MW4 5395   2.505   2.290   2.335 -0.6912  0.4745 -0.4542
 1338SOL     OW 5396   2.268   2.467   2.266 -0.2754 -0.4957  0.6763
 1338SOL    HW2 5397   2.270   2.552   2.311  0.5370 -0.4589  0.5736
 1338SOL    HW3 5398   2.336   2.415   2.309  1.1569 -0.1444 -1.1133
 1338SOL    MW4 5399   2.277   2.472   2.278  0.0207 -0.4447  0.4268
 1339SOL     OW 5400   2.257   2.715   2.370 -0.1733  0.0601  0.0319
 1339SOL    HW2 5401   2.263   2.723   2.465 -0.7622  0.1205  0.0605
 1339SOL    HW3 5402   2.339   2.754   2.338  0.2336 -0.3646  0.5289
 1339SOL    MW4 5403   2.269   2.721   2.379 -0.1974  0.0119  0.1013
 1340SOL     OW 5404   2.489   2.839   2.262  0.6359  0.3769  0.0099
 1340SOL    HW2 5405   2.560   2.784   2.295  0.5711 -0.2528 -0.8922
 1340SOL    HW3 5406   2.495   2.832   2.167  0.1396  1.3117 -0.0961
 1340SOL    MW4 5407   2.499   2.831   2.254  0.5622  0.4168 -0.1233
 1341SOL     OW 5408   2.500   3.068   2.386  0.4780 -0.2653 -0.3815
 1341SOL    HW2 5409   2.567   3.114   2.335  0.4510 -1.6350 -1.6938
 1341SOL    HW3 5410   2.492   2.983   2.343 -1.1787 -0.5988  0.5507
 1341SOL    MW4 5411   2.507   3.063   2.373  0.2558 -0.4902 -0.4318
 1342SOL     OW 5412   2.305   3.195   2.210 -0.0463  0.1810 -0.0157
 1342SOL    HW2 5413   2.285   3.281   2.246  0.1392  0.9276 -1.6316
 1342SOL    HW3 5414   2.375   3.161   2.265 -0.5114  0.8163  0.9844
 1342SOL    MW4 5415   2.312   3.202   2.222 -0.0832  0.3633 -0.0970
 1343SOL     OW 5416   2.225   3.441   2.340  0.1755 -0.1914  0.1561
 1343SOL    HW2 5417   2.223   3.444   2.436  0.1134  0.3388  0.1346
 1343SOL    HW3 5418   2.154   3.499   2.312 -0.1953 -0.8058 -0.2060
 1343SOL    MW4 5419   2.215   3.449   2.349  0.1183 -0.2027  0.1056
 1344SOL     OW 5420   2.466   3.577   2.234 -0.3308 -0.0391  0.0188
 1344SOL    HW2 5421   2.472   3.661   2.280 -0.4453 -1.4840  2.7619
 1344SOL    HW3 5422   2.392   3.532   2.275  0.7422 -2.1341 -0.2817
 1344SOL    MW4 5423   2.457   3.582   2.245 -0.2041 -0.5059  0.3412
 1345SOL     OW 5424   2.492   3.824   2.338  0.3543 -0.1706 -0.1933
 1345SOL    HW2 5425   2.501   3.838   2.433  0.0501 -1.4191  0.0207
 1345SOL    HW3 5426   2.426   3.888   2.312 -0.5273 -0.7126  0.6673
 1345SOL    MW4 5427   2.485   3.834   2.347  0.1979 -0.4067 -0.0515
 1346SOL     OW 5428   2.285   4.013   2.272  0.3707 -0.2398  0.3667
 1346SOL    HW2 5429   2.281   4.092   2.325  0.0237  0.9060 -1.3039
 1346SOL    HW3 5430   2.203   3.968   2.290  0.2079  0.1917  0.7144
 1346SOL    MW4 5431   2.274   4.018   2.281  0.3033 -0.0324  0.1924
 1347SOL     OW 5432   2.232   4.266   2.373 -0.3513 -0.4692  0.2045
 1347SOL    HW2 5433   2.219   4.285   2.466  0.2021 -0.3387  0.2559
 1347SOL    HW3 5434   2.163   4.316   2.328 -0.4444 -0.3124  0.5228
 1347SOL    MW4 5435   2.221   4.275   2.379 -0.2906 -0.4311  0.2532
 1348SOL     OW 5436   2.468   4.371   2.264 -0.5808 -0.2246  0.2758
 1348SOL    HW2 5437   2.551   4.336   2.297 -0.6636  0.2589  1.0025
 1348SOL    HW3 5438   2.401   4.326   2.315 -0.7344  0.1269  0.3816
 1348SOL    MW4 5439   2.470   4.360   2.275 -0.6120 -0.1144  0.3855
 1349SOL     OW 5440   2.974   4.654   2.349 -0.0366 -0.4750  0.0220
 1349SOL    HW2 5441   3.045   4.689   2.295 -0.2709  1.8432  1.1651
 1349SOL    HW3 5442   2.971   4.561   2.326  2.0864 -0.2292 -1.4632
 1349SOL    MW4 5443   2.983   4.646   2.339  0.2124 -0.1369 -0.0234
 1350SOL     OW 5444   2.744   0.112   2.248  0.1810  0.4860  0.2279
 1350SOL    HW2 5445   2.745   0.191   2.302  0.9518 -0.2740  1.3533
 1350SOL    HW3 5446   2.822   0.064   2.276  0.3901 -0.0889 -1.3228
 1350SOL    MW4 5447   2.754   0.116   2.259  0.3104  0.3099  0.1719
 1351SOL     OW 5448   2.697   0.358   2.352 -0.2490  0.1157 -0.2387
 1351SOL    HW2 5449   2.682   0.374   2.445 -1.1735 -1.2430 -0.1365
 1351SOL    HW3 5450   2.774   0.410   2.331 -0.7515  1.4163  0.9918
 1351SOL    MW4 5451   2.705   0.367   2.361 -0.4373  0.1081 -0.0629
 1352SOL     OW 5452   2.929   0.486   2.266  0.1231 -0.2618  0.0684
 1352SOL    HW2 5453   2.916   0.576   2.298  1.8070 -0.0748  0.2633
 1352SOL    HW3 5454   2.905   0.490   2.174 -0.1455  0.3051  0.1605
 1352SOL    MW4 5455   2.924   0.499   2.258  0.3099 -0.1623  0.1063
 1353SOL     OW 5456   2.943   0.785   2.362  0.3562 -0.3222 -0.4185
 1353SOL    HW2 5457   2.928   0.769   2.455  0.5684  1.4624 -0.0585
 1353SOL    HW3 5458   2.871   0.843   2.335  0.8264 -0.0520 -1.1175
 1353SOL    MW4 5459   2.932   0.791   2.370  0.4461 -0.0511 -0.4628
 1354SOL     OW 5460   2.695   0.905   2.270  0.0774 -0.3191  0.2303
 1354SOL    HW2 5461   2.670   0.993   2.297 -1.1822 -0.9160  1.0359
 1354SOL    HW3 5462   2.695   0.908   2.174  0.4881  0.6728  0.2586
 1354SOL    MW4 5463   2.692   0.917   2.261 -0.0348 -0.2670  0.3405
 1355SOL     OW 5464   2.666   1.191   2.346  0.0390  0.0229 -0.5122
 1355SOL    HW2 5465   2.680   1.188   2.441  0.1454  1.3034 -0.4763
 1355SOL    HW3 5466   2.751   1.219   2.311  0.4289 -1.8074 -1.1172
 1355SOL    MW4 5467   2.679   1.194   2.354  0.1044 -0.0496 -0.5872
 1356SOL     OW 5468   2.919   1.293   2.282  0.0009 -0.3394 -0.3718
 1356SOL    HW2 5469   2.990   1.237   2.315  0.9102  0.1072 -1.5438
 1356SOL    HW3 5470   2.927   1.287   2.187  0.1294  1.8162 -0.5179
 1356SOL    MW4 5471   2.929   1.285   2.274  0.1378  0.0039 -0.5457
 1357SOL     OW 5472   2.933   1.560   2.346  0.1739  0.1647 -0.3247
 1357SOL    HW2 5473   2.938   1.558   2.442 -1.3645 -1.3422 -0.2501
 1357SOL    HW3 5474   2.946   1.469   2.320  1.4779  0.7114 -1.6080
 1357SOL    MW4 5475   2.935   1.548   2.356  0.1431  0.0381 -0.4840
 1358SOL     OW 5476   2.698   1.697   2.278 -0.2613 -0.1596  0.1341
 1358SOL    HW2 5477   2.770   1.643   2.311 -0.0648 -0.4404 -0.7524
 1358SOL    HW3 5478   2.707   1.694   2.183 -0.1648  1.5621  0.0854
 1358SOL    MW4 5479   2.708   1.689   2.270 -0.2222  0.0305  0.0110
 1359SOL     OW 5480   2.716   1.956   2.362 -0.2537  0.2480 -0.0897
 1359SOL    HW2 5481   2.718   1.954   2.458 -0.3559  0.5343 -0.0843
 1359SOL    HW3 5482   2.713   1.863   2.337 -0.2537  0.1730  0.1833
 1359SOL    MW4 5483   2.716   1.943   2.372 -0.2673  0.2759 -0.0529
 1360SOL     OW 5484   2.920   2.035   2.203  0.1429 -0.2277  0.0565
 1360SOL    HW2 5485   2.992   1.992   2.250  0.9324 -0.7128 -1.5245
 1360SOL    HW3 5486   2.842   2.014   2.253  0.9464 -0.7897  1.0956
 1360SOL    MW4 5487   2.919   2.027   2.216  0.3531 -0.3660 -0.0150
 1361SOL     OW 5488   2.920   2.302   2.324  0.4073 -0.0114  0.2698
 1361SOL    HW2 5489   2.910   2.294   2.419 -0.8051 -0.3109  0.1313
 1361SOL    HW3 5490   2.928   2.211   2.293  2.4629  0.1545  0.2344
 1361SOL    MW4 5491   2.920   2.289   2.332  0.5186 -0.0288  0.2468
 1362SOL     OW 5492   2.702   2.416   2.207 -0.1274  0.1891  0.0450
 1362SOL    HW2 5493   2.777   2.376   2.251 -0.5456 -1.7882 -0.9805
 1362SOL    HW3 5494   2.724   2.412   2.114 -1.2063  0.2017 -0.2182
 1362SOL    MW4 5495   2.715   2.410   2.201 -0.3252 -0.0701 -0.1254
 1363SOL     OW 5496   2.695   2.669   2.348 -0.3708 -0.0967  0.0833
 1363SOL    HW2 5497   2.777   2.707   2.316 -0.1717 -0.4389  0.1773
 1363SOL    HW3 5498   2.695   2.580   2.312 -1.0147  0.1215 -0.4545
 1363SOL    MW4 5499   2.706   2.662   2.339 -0.4294 -0.1132  0.0248
 1364SOL     OW 5500   2.943   2.802   2.286  0.0940  0.1067  0.0482
 1364SOL    HW2 5501   2.928   2.888   2.325  0.8849 -0.1817  0.9873
 1364SOL    HW3 5502   2.943   2.819   2.191  0.8264  1.2292  0.2452
 1364SOL    MW4 5503   2.941   2.816   2.278  0.2949  0.2170  0.1979
 1365SOL     OW 5504   2.901   3.085   2.369 -0.1559  0.0806 -0.4119
 1365SOL    HW2 5505   2.987   3.123   2.349 -0.1231  0.5050  0.4948
 1365SOL    HW3 5506   2.838   3.147   2.333 -0.0964  0.8145  0.7034
 1365SOL    MW4 5507   2.904   3.099   2.362 -0.1438  0.2332 -0.1450
 1366SOL     OW 5508   2.697   3.219   2.265 -0.0462  0.4264  0.1132
 1366SOL    HW2 5509   2.686   3.303   2.309 -1.5260 -0.4915  1.5777
 1366SOL    HW3 5510   2.700   3.240   2.172 -0.0423  2.1208  0.4904
 1366SOL    MW4 5511   2.696   3.233   2.258 -0.2408  0.5291  0.3562
 1367SOL     OW 5512   2.693   3.488   2.362  0.3352  0.0208 -0.4511
 1367SOL    HW2 5513   2.762   3.536   2.316 -0.6231  0.9637 -0.9337
 1367SOL    HW3 5514   2.612   3.520   2.323 -0.4475  0.0431  1.1547
 1367SOL    MW4 5515   2.692   3.498   2.351  0.1056  0.1483 -0.3028
 1368SOL     OW 5516   2.893   3.633   2.219  0.1641 -0.1930  0.1405
 1368SOL    HW2 5517   2.980   3.600   2.244  0.3874 -0.7418 -1.3536
 1368SOL    HW3 5518   2.892   3.722   2.253  1.9101  0.3480 -1.1220
 1368SOL    MW4 5519   2.905   3.640   2.227  0.4239 -0.1941 -0.2234
 1369SOL     OW 5520   2.894   3.882   2.325  0.5848 -0.2722 -0.3274
 1369SOL    HW2 5521   2.894   3.862   2.419  1.2563 -0.1484 -0.2968
 1369SOL    HW3 5522   2.815   3.934   2.311  1.3772  1.1928  0.4921
 1369SOL    MW4 5523   2.884   3.886   2.336  0.7780 -0.0625 -0.2151
 1370SOL     OW 5524   2.672   4.017   2.249  0.5681 -0.5363  0.2483
 1370SOL    HW2 5525   2.607   3.951   2.275 -1.1684  0.6146 -1.0641
 1370SOL    HW3 5526   2.669   4.017   2.153 -0.3904  2.3317  0.2423
 1370SOL    MW4 5527   2.663   4.008   2.240  0.2127 -0.0057  0.0744
 1371SOL     OW 5528   2.715   4.277   2.341  0.3953 -0.0307  0.0728
 1371SOL    HW2 5529   2.732   4.285   2.434 -1.6274 -0.6689  0.5277
 1371SOL    HW3 5530   2.720   4.183   2.323  1.0340  0.1087 -0.5182
 1371SOL    MW4 5531   2.718   4.266   2.351  0.2129 -0.0963  0.0546
 1372SOL     OW 5532   2.943   4.395   2.272  0.0655 -0.0166  0.2934
 1372SOL    HW2 5533   3.011   4.343   2.316 -0.3593  0.1725  1.1927
 1372SOL    HW3 5534   2.861   4.348   2.291 -0.2132  0.4956  0.3697
 1372SOL    MW4 5535   2.941   4.382   2.281 -0.0272  0.0763  0.4220
 1373SOL     OW 5536   3.385   4.657   2.352 -0.2534 -0.1653 -0.4111
 1373SOL    HW2 5537   3.367   4.652   2.445 -1.2931  0.2305 -0.5889
 1373SOL    HW3 5538   3.461   4.715   2.345  0.5194 -1.0813  0.2619
 1373SOL    MW4 5539   3.393   4.664   2.363 -0.2885 -0.2341 -0.3457
 1374SOL     OW 5540   3.181   0.111   2.218  0.3540  0.0752  0.4736
 1374SOL    HW2 5541   3.187   0.197   2.258  1.0318 -0.3505  1.2989
 1374SOL    HW3 5542   3.253   0.061   2.256 -0.8228 -1.2629  0.9854
 1374SOL    MW4 5543   3.191   0.116   2.228  0.2880 -0.1575  0.6504
 1375SOL     OW 5544   3.160   0.369   2.352  0.0011 -0.4224  0.2692
 1375SOL    HW2 5545   3.233   0.418   2.312 -0.3674  0.0143  0.1278
 1375SOL    HW3 5546   3.082   0.416   2.324 -0.3905 -1.4036 -0.3056
 1375SOL    MW4 5547   3.160   0.382   2.343 -0.0992 -0.4942  0.1748
 1376SOL     OW 5548   3.345   0.530   2.249  0.2737  0.5000 -0.5545
 1376SOL    HW2 5549   3.431   0.499   2.280 -1.1233 -1.5972  1.3241
 1376SOL    HW3 5550   3.349   0.520   2.154  1.8213 -0.3667 -0.4206
 1376SOL    MW4 5551   3.357   0.525   2.240  0.2933  0.1088 -0.2890
 1377SOL     OW 5552   3.348   0.795   2.371  0.1743  0.2684 -0.3840
 1377SOL    HW2 5553   3.432   0.837   2.353  0.3860 -0.4726 -1.1640
 1377SOL    HW3 5554   3.352   0.712   2.323 -0.5936 -0.2341  0.4008
 1377SOL    MW4 5555   3.360   0.790   2.362  0.1009  0.1044 -0.3834
 1378SOL     OW 5556   3.143   0.882   2.223 -0.0306 -0.3066  0.8210
 1378SOL    HW2 5557   3.214   0.862   2.283 -0.6564 -0.2099  1.6027
 1378SOL    HW3 5558   3.064   0.853   2.268 -0.5331  0.0003  0.1557
 1378SOL    MW4 5559   3.142   0.876   2.237 -0.1793 -0.2534  0.8359
 1379SOL     OW 5560   3.124   1.169   2.372  0.0703 -0.0366 -0.4049
 1379SOL    HW2 5561   3.199   1.219   2.342  0.3820 -0.6302 -0.6182
 1379SOL    HW3 5562   3.128   1.087   2.323 -0.2792 -0.3871  0.1404
 1379SOL    MW4 5563   3.134   1.165   2.362  0.0653 -0.1612 -0.3612
 1380SOL     OW 5564   3.371   1.272   2.269  0.4302  0.2729  0.1205
 1380SOL    HW2 5565   3.452   1.233   2.302 -0.2676  0.2015  1.7847
 1380SOL    HW3 5566   3.373   1.362   2.302  1.6905  1.5181 -3.1005
 1380SOL    MW4 5567   3.382   1.279   2.278  0.5047  0.4280 -0.0849
 1381SOL     OW 5568   3.369   1.540   2.347  0.1797  0.2491  0.0731
 1381SOL    HW2 5569   3.364   1.557   2.441 -0.4213  0.9116 -0.0720
 1381SOL    HW3 5570   3.292   1.584   2.311  0.4094 -0.0006 -0.7283
 1381SOL    MW4 5571   3.358   1.548   2.355  0.1307  0.3036 -0.0517
 1382SOL     OW 5572   3.156   1.680   2.248 -0.3354 -0.0665 -0.3046
 1382SOL    HW2 5573   3.160   1.768   2.285  1.5803 -1.2020  2.3562
 1382SOL    HW3 5574   3.081   1.640   2.290  0.8427 -0.8060  1.1314
 1382SOL    MW4 5575   3.147   1.687   2.259  0.0730 -0.3140  0.2358
 1383SOL     OW 5576   3.130   1.927   2.355  0.1043 -0.3592 -0.1860
 1383SOL    HW2 5577   3.129   1.932   2.451  0.2150  0.6534 -0.2345
 1383SOL    HW3 5578   3.210   1.974   2.330  0.9015 -1.9473 -0.7040
 1383SOL    MW4 5579   3.140   1.934   2.364  0.2239 -0.4351 -0.2608
 1384SOL     OW 5580   3.363   2.034   2.261 -0.0177  0.3375  0.0772
 1384SOL    HW2 5581   3.432   1.981   2.301 -0.2063  0.5191  0.6540
 1384SOL    HW3 5582   3.383   2.034   2.168  0.7803  0.4149  0.2456
 1384SOL    MW4 5583   3.375   2.027   2.254  0.0629  0.3719  0.1755
 1385SOL     OW 5584   3.364   2.290   2.359  0.0602 -0.1806  0.1990
 1385SOL    HW2 5585   3.291   2.335   2.316 -0.2530 -0.5019  0.3952
 1385SOL    HW3 5586   3.369   2.205   2.316 -0.7037 -0.7745  1.2667
 1385SOL    MW4 5587   3.355   2.285   2.348 -0.0823 -0.3014  0.3653
 1386SOL     OW 5588   3.157   2.400   2.233 -0.0387  0.3327 -0.0895
 1386SOL    HW2 5589   3.156   2.490   2.265 -0.8503  0.0145  0.8086
 1386SOL    HW3 5590   3.078   2.360   2.271  1.0980 -1.1770  0.7424
 1386SOL    MW4 5591   3.146   2.407   2.242  0.0041  0.0918  0.1390
 1387SOL     OW 5592   3.158   2.657   2.365 -0.6545 -0.4036 -0.3215
 1387SOL    HW2 5593   3.144   2.640   2.458 -0.9561  0.9203 -0.1157
 1387SOL    HW3 5594   3.084   2.711   2.338  1.5462  2.7685 -0.2993
 1387SOL    MW4 5595   3.147   2.662   2.374 -0.4039  0.1898 -0.2916
 1388SOL     OW 5596   3.324   2.828   2.237 -0.2466 -0.0494 -0.2930
 1388SOL    HW2 5597   3.335   2.913   2.280  0.6648 -0.0096 -0.5895
 1388SOL    HW3 5598   3.274   2.775   2.299 -1.3235  0.8848 -0.3433
 1388SOL    MW4 5599   3.319   2.832   2.251 -0.2685  0.0789 -0.3390
 1389SOL     OW 5600   3.351   3.059   2.369  0.2449  0.2521 -0.2174
 1389SOL    HW2 5601   3.413   3.117   2.325  0.7348  1.1422  1.6291
 1389SOL    HW3 5602   3.267   3.104   2.362  0.4642  0.7639  0.4398
 1389SOL    MW4 5603   3.348   3.072   2.362  0.3383  0.4370  0.1130
 1390SOL     OW 5604   3.131   3.207   2.313  0.4456 -0.0464 -0.7083
 1390SOL    HW2 5605   3.139   3.296   2.346 -2.0658 -0.0698  0.0348
 1390SOL    HW3 5606   3.131   3.217   2.218 -1.6444  0.9623 -0.6337
 1390SOL    MW4 5607   3.132   3.220   2.305 -0.1616  0.0837 -0.6003
 1391SOL     OW 5608   3.118   3.492   2.319 -0.1247  0.0412  0.0754
 1391SOL    HW2 5609   3.108   3.508   2.413 -0.4795 -0.3797  0.1071
 1391SOL    HW3 5610   3.192   3.548   2.293 -0.6490  0.9000  0.4118
 1391SOL    MW4 5611   3.126   3.502   2.328 -0.2408  0.0989  0.1237
 1392SOL     OW 5612   3.355   3.634   2.262 -0.3728  0.1441  0.6057
 1392SOL    HW2 5613   3.431   3.589   2.297 -0.0810  0.0098 -0.1847
 1392SOL    HW3 5614   3.363   3.624   2.167 -1.4596 -0.0200  0.5214
 1392SOL    MW4 5615   3.366   3.627   2.254 -0.4778  0.1047  0.4902
 1393SOL     OW 5616   3.321   3.874   2.391  0.3244  0.6153  0.3596
 1393SOL    HW2 5617   3.394   3.925   2.355  2.0138 -1.5831  0.5918
 1393SOL    HW3 5618   3.328   3.789   2.349 -1.2573 -0.0824  1.4736
 1393SOL    MW4 5619   3.332   3.870   2.381  0.3383  0.2332  0.5372
 1394SOL     OW 5620   3.128   4.022   2.248  0.5187 -0.3119  0.0991
 1394SOL    HW2 5621   3.194   3.975   2.297 -0.0611  0.0922  1.2859
 1394SOL    HW3 5622   3.047   3.972   2.261  0.4232 -0.3837 -0.7102
 1394SOL    MW4 5623   3.126   4.010   2.256  0.4296 -0.2675  0.1490
 1395SOL     OW 5624   3.163   4.253   2.390 -0.0952 -0.3955 -0.1064
 1395SOL    HW2 5625   3.232   4.299   2.343 -0.5681 -0.5320 -0.9445
 1395SOL    HW3 5626   3.157   4.168   2.346 -2.6531  0.6230 -1.8265
 1395SOL    MW4 5627   3.171   4.248   2.378 -0.4952 -0.2789 -0.4439
 1396SOL     OW 5628   3.389   4.392   2.270 -0.1350 -0.2536  0.0582
 1396SOL    HW2 5629   3.388   4.484   2.294  0.7246 -0.3926  0.6200
 1396SOL    HW3 5630   3.387   4.392   2.174  1.2972  0.3700  0.0210
 1396SOL    MW4 5631   3.388   4.404   2.261  0.1674 -0.1903  0.1276
 1397SOL     OW 5632   3.798   4.634   2.336  0.3617  0.3756 -0.3331
 1397SOL    HW2 5633   3.799   4.615   2.430 -1.0379 -0.1022 -0.4082
 1397SOL    HW3 5634   3.887   4.663   2.317  0.6345  0.5753  1.1631
 1397SOL    MW4 5635   3.810   4.635   2.346  0.2131  0.3386 -0.1459
 1398SOL     OW 5636   3.589   0.164   2.284  0.0104 -0.0871  0.0180
 1398SOL    HW2 5637   3.589   0.249   2.329 -0.3829 -0.7225  1.2703
 1398SOL    HW3 5638   3.673   0.125   2.308  0.5086  0.2533 -1.1655
 1398SOL    MW4 5639   3.600   0.170   2.293  0.0246 -0.1260  0.0272
 1399SOL     OW 5640   3.580   0.423   2.356  0.2029  0.0311 -0.6375
 1399SOL    HW2 5641   3.592   0.402   2.448  0.1052 -0.5844 -0.7655
 1399SOL    HW3 5642   3.664   0.462   2.329  0.8272 -1.3135 -0.7078
 1399SOL    MW4 5643   3.593   0.425   2.364  0.2725 -0.2275 -0.6635
 1400SOL     OW 5644   3.884   0.490   2.275 -0.1523 -0.0769  0.1773
 1400SOL    HW2 5645   3.852   0.579   2.291 -0.9241 -0.2291 -0.4568
 1400SOL    HW3 5646   3.871   0.477   2.181  0.4579 -0.6688  0.1719
 1400SOL    MW4 5647   3.878   0.500   2.265 -0.1736 -0.1751  0.0927
 1401SOL     OW 5648   3.832   0.754   2.345 -0.4389 -0.0187  0.1790
 1401SOL    HW2 5649   3.835   0.741   2.440  0.4475 -0.3281  0.1072
 1401SOL    HW3 5650   3.917   0.790   2.322 -1.4349  2.2224 -0.2004
 1401SOL    MW4 5651   3.843   0.757   2.354 -0.4532  0.2362  0.1194
 1402SOL     OW 5652   3.601   0.884   2.279 -0.2350  0.3756 -0.4481
 1402SOL    HW2 5653   3.689   0.848   2.292 -0.9491 -0.8747  1.0440
 1402SOL    HW3 5654   3.589   0.883   2.184  1.3989  0.6797 -0.6813
 1402SOL    MW4 5655   3.611   0.879   2.268 -0.1137  0.2508 -0.2820
 1403SOL     OW 5656   3.610   1.155   2.360  0.2433  0.0012 -0.1300
 1403SOL    HW2 5657   3.595   1.155   2.454  0.1899 -1.2602 -0.1268
 1403SOL    HW3 5658   3.596   1.064   2.334  0.7947  0.2374 -1.2701
 1403SOL    MW4 5659   3.606   1.143   2.369  0.3092 -0.1341 -0.2799
 1404SOL     OW 5660   3.848   1.284   2.260  0.0909  0.0896 -0.2032
 1404SOL    HW2 5661   3.837   1.377   2.279 -0.5278  0.0928 -0.5494
 1404SOL    HW3 5662   3.768   1.243   2.295 -0.3556 -0.1029 -1.4344
 1404SOL    MW4 5663   3.836   1.291   2.267 -0.0494  0.0646 -0.4110
 1405SOL     OW 5664   3.836   1.546   2.342  0.4050 -0.5121 -0.2508
 1405SOL    HW2 5665   3.823   1.524   2.434  0.7139 -0.1320 -0.1140
 1405SOL    HW3 5666   3.760   1.598   2.318 -0.2377 -1.5548 -0.5254
 1405SOL    MW4 5667   3.824   1.550   2.351  0.3607 -0.5994 -0.2689
 1406SOL     OW 5668   3.601   1.664   2.225 -0.0813 -0.2009  0.1084
 1406SOL    HW2 5669   3.529   1.603   2.240  0.0540 -0.5163 -0.4975
 1406SOL    HW3 5670   3.613   1.663   2.130 -1.3441  2.1966 -0.1074
 1406SOL    MW4 5671   3.593   1.656   2.214 -0.2301  0.0737  0.0000
 1407SOL     OW 5672   3.571   1.904   2.369 -0.2242  0.1527 -0.2113
 1407SOL    HW2 5673   3.643   1.951   2.327 -1.6454  0.7577 -2.0431
 1407SOL    HW3 5674   3.576   1.816   2.331 -0.0099 -0.0174  0.2096
 1407SOL    MW4 5675   3.581   1.898   2.358 -0.3834  0.2100 -0.3977
 1408SOL     OW 5676   3.773   2.069   2.251  0.0537 -0.0179  0.1433
 1408SOL    HW2 5677   3.856   2.026   2.270  0.1898 -0.2846 -1.0145
 1408SOL    HW3 5678   3.769   2.073   2.155 -0.0416  2.3670  0.2228
 1408SOL    MW4 5679   3.783   2.064   2.241  0.0589  0.2613  0.0010
 1409SOL     OW 5680   3.822   2.337   2.355 -0.3282  0.0571  0.6717
 1409SOL    HW2 5681   3.753   2.385   2.309 -1.3083  0.5514  2.5597
 1409SOL    HW3 5682   3.798   2.245   2.345 -1.2150  0.2187  1.1966
 1409SOL    MW4 5683   3.810   2.331   2.348 -0.5748  0.1435  0.9902
 1410SOL     OW 5684   3.579   2.455   2.299 -0.3224 -0.3403 -0.2752
 1410SOL    HW2 5685   3.502   2.400   2.315 -1.2307  0.6232 -1.2182
 1410SOL    HW3 5686   3.584   2.460   2.203  0.9628 -0.4481 -0.2201
 1410SOL    MW4 5687   3.569   2.448   2.288 -0.2725 -0.2275 -0.3922
 1411SOL     OW 5688   3.563   2.733   2.360  0.0954  0.0262 -0.1076
 1411SOL    HW2 5689   3.580   2.639   2.352  0.4497  0.2076 -1.6647
 1411SOL    HW3 5690   3.481   2.747   2.314  0.5029  0.6185 -0.6656
 1411SOL    MW4 5691   3.554   2.723   2.353  0.1960  0.1283 -0.3865
 1412SOL     OW 5692   3.802   2.835   2.256 -0.4507  0.1413 -0.1060
 1412SOL    HW2 5693   3.807   2.926   2.285  1.0482 -0.6618  2.3162
 1412SOL    HW3 5694   3.725   2.800   2.301  0.0342 -0.2659  0.4141
 1412SOL    MW4 5695   3.793   2.842   2.266 -0.1891 -0.0186  0.2823
 1413SOL     OW 5696   3.777   3.111   2.340  0.0117 -0.2556  0.5093
 1413SOL    HW2 5697   3.764   3.113   2.435  0.9305 -0.2010  0.6422
 1413SOL    HW3 5698   3.864   3.148   2.327 -0.4653  0.5630 -0.4300
 1413SOL    MW4 5699   3.787   3.116   2.351  0.0699 -0.1404  0.4032
 1414SOL     OW 5700   3.544   3.231   2.251 -0.1959  0.0679  0.4583
 1414SOL    HW2 5701   3.552   3.325   2.263 -0.9659  0.1265  0.5344
 1414SOL    HW3 5702   3.632   3.197   2.270  0.2303  0.8205 -0.1123
 1414SOL    MW4 5703   3.557   3.239   2.255 -0.2413  0.1748  0.3934
 1415SOL     OW 5704   3.573   3.493   2.329 -0.2904  0.0078  0.0602
 1415SOL    HW2 5705   3.594   3.482   2.422 -1.3126  0.2955  0.3351
 1415SOL    HW3 5706   3.646   3.543   2.293  0.1402 -0.1588  0.6984
 1415SOL    MW4 5707   3.585   3.498   2.336 -0.3686  0.0236  0.1807
 1416SOL     OW 5708   3.800   3.619   2.253 -0.0643  0.1664  0.1766
 1416SOL    HW2 5709   3.777   3.705   2.288  0.5398  0.1899  0.5296
 1416SOL    HW3 5710   3.815   3.634   2.160  0.2584  0.4838  0.2805
 1416SOL    MW4 5711   3.799   3.632   2.245  0.0579  0.2112  0.2367
 1417SOL     OW 5712   3.767   3.864   2.344  0.2638 -0.3438 -0.0215
 1417SOL    HW2 5713   3.766   3.865   2.440  0.9073 -0.9489 -0.0057
 1417SOL    HW3 5714   3.857   3.886   2.321 -0.2927  1.5149 -0.5204
 1417SOL    MW4 5715   3.779   3.867   2.354  0.2754 -0.1783 -0.0854
 1418SOL     OW 5716   3.550   4.013   2.282  0.3179  0.6994  0.2240
 1418SOL    HW2 5717   3.568   4.098   2.323  0.0310  1.4516 -1.1863
 1418SOL    HW3 5718   3.626   3.960   2.306  0.6745  1.4517  0.8256
 1418SOL    MW4 5719   3.562   4.018   2.291  0.3271  0.8979  0.1171
 1419SOL     OW 5720   3.592   4.263   2.397 -0.3011 -0.3231 -0.0882
 1419SOL    HW2 5721   3.666   4.303   2.353 -0.6070  0.5198  0.1547
 1419SOL    HW3 5722   3.515   4.301   2.354 -0.6114  1.1841  1.7465
 1419SOL    MW4 5723   3.591   4.273   2.386 -0.3822 -0.0134  0.1860
 1420SOL     OW 5724   3.799   4.372   2.244  0.0514  0.4027  0.2457
 1420SOL    HW2 5725   3.887   4.340   2.261  0.2825  0.7436 -0.2983
 1420SOL    HW3 5726   3.803   4.465   2.268 -1.0918 -0.3187  3.5878
 1420SOL    MW4 5727   3.811   4.380   2.249 -0.0689  0.3524  0.6151
 1421SOL     OW 5728   4.289   4.615   2.389 -0.0727 -0.4174  0.3492
 1421SOL    HW2 5729   4.294   4.625   2.484 -0.9687  1.6523  0.1900
 1421SOL    HW3 5730   4.345   4.684   2.354 -0.9756 -0.1856 -0.6657
 1421SOL    MW4 5731   4.297   4.625   2.397 -0.3104 -0.1135  0.1943
 1422SOL     OW 5732   4.069   0.080   2.270 -0.2848  0.1297 -0.2484
 1422SOL    HW2 5733   4.091   0.167   2.304 -0.3745  0.7584 -1.7596
 1422SOL    HW3 5734   4.137   0.023   2.304 -0.5917  0.6611  1.2972
 1422SOL    MW4 5735   4.081   0.084   2.279 -0.3376  0.2828 -0.2441
 1423SOL     OW 5736   4.124   0.348   2.347 -0.1131 -0.0518 -0.0690
 1423SOL    HW2 5737   4.200   0.399   2.318 -0.0802 -0.4087 -0.6179
 1423SOL    HW3 5738   4.049   0.403   2.327  0.0253  0.5393  0.9791
 1423SOL    MW4 5739   4.124   0.362   2.340 -0.0906 -0.0209 -0.0031
 1424SOL     OW 5740   4.305   0.534   2.257  0.4660 -0.1358 -0.0313
 1424SOL    HW2 5741   4.307   0.623   2.292  1.5407  0.1093 -0.6830
 1424SOL    HW3 5742   4.384   0.493   2.292 -0.6104 -1.2040  1.1901
 1424SOL    MW4 5743   4.316   0.541   2.266  0.4663 -0.2444  0.0436
 1425SOL     OW 5744   4.306   0.777   2.396 -0.2931 -0.2378  0.1511
 1425SOL    HW2 5745   4.236   0.832   2.362  0.6724  0.4103 -0.8396
 1425SOL    HW3 5746   4.386   0.823   2.372  0.4928 -1.3289  0.6363
 1425SOL    MW4 5747   4.307   0.790   2.388 -0.0620 -0.2962  0.0844
 1426SOL     OW 5748   4.057   0.887   2.267 -0.5235 -0.0298  0.3483
 1426SOL    HW2 5749   4.037   0.976   2.295 -0.3597  0.0849  0.1040
 1426SOL    HW3 5750   4.057   0.891   2.171 -0.8906 -0.3750  0.3319
 1426SOL    MW4 5751   4.054   0.899   2.258 -0.5498 -0.0603  0.3140
 1427SOL     OW 5752   4.058   1.137   2.371 -0.1898 -0.1598  0.4415
 1427SOL    HW2 5753   4.048   1.128   2.466 -1.5871 -0.8715  0.2427
 1427SOL    HW3 5754   3.975   1.174   2.341  0.4807  0.6593 -0.4318
 1427SOL    MW4 5755   4.046   1.141   2.379 -0.2861 -0.1456  0.3004
 1428SOL     OW 5756   4.262   1.326   2.246 -0.0596 -0.0530  0.0683
 1428SOL    HW2 5757   4.193   1.268   2.279  0.2681 -0.1611  0.5578
 1428SOL    HW3 5758   4.343   1.287   2.276  0.1663  0.6330  0.3609
 1428SOL    MW4 5759   4.263   1.314   2.255  0.0138  0.0234  0.1714
 1429SOL     OW 5760   4.253   1.571   2.381  0.1508 -0.1234 -0.1413
 1429SOL    HW2 5761   4.241   1.493   2.328  0.5523 -0.6927  0.5997
 1429SOL    HW3 5762   4.340   1.604   2.355 -0.3979  0.6126 -1.1207
 1429SOL    MW4 5763   4.263   1.565   2.370  0.1311 -0.1016 -0.1726
 1430SOL     OW 5764   4.061   1.691   2.243 -0.0876  0.1727 -0.2579
 1430SOL    HW2 5765   4.128   1.649   2.298 -1.3251 -0.3874  0.8608
 1430SOL    HW3 5766   3.980   1.647   2.267 -1.2772  2.5228  0.2144
 1430SOL    MW4 5767   4.059   1.680   2.254 -0.4072  0.4088 -0.0482
 1431SOL     OW 5768   4.026   1.953   2.326 -0.7574  0.1427  0.2400
 1431SOL    HW2 5769   4.019   1.945   2.421  0.3746  1.7494  0.4801
 1431SOL    HW3 5770   4.052   1.866   2.296  0.8716  0.1302  1.6199
 1431SOL    MW4 5771   4.028   1.940   2.334 -0.3929  0.3530  0.4537
 1432SOL     OW 5772   4.269   2.052   2.272 -0.0805  0.0606  0.1518
 1432SOL    HW2 5773   4.270   2.139   2.313  0.6487 -0.0672  0.4139
 1432SOL    HW3 5774   4.179   2.022   2.284 -0.5023  1.0355 -0.4870
 1432SOL    MW4 5775   4.257   2.060   2.279 -0.0401  0.1726  0.1020
 1433SOL     OW 5776   4.295   2.307   2.382  0.2217  0.3682 -0.5010
 1433SOL    HW2 5777   4.220   2.358   2.351  0.0096 -0.9234 -2.2243
 1433SOL    HW3 5778   4.368   2.340   2.330  0.5822  0.6459  0.1780
 1433SOL    MW4 5779   4.295   2.318   2.371  0.2413  0.2344 -0.6385
 1434SOL     OW 5780   4.076   2.451   2.278  0.2226 -0.2710  0.3626
 1434SOL    HW2 5781   4.071   2.543   2.305  0.4920  0.1290 -0.9039
 1434SOL    HW3 5782   3.992   2.414   2.304 -0.5228  0.7474 -0.5527
 1434SOL    MW4 5783   4.064   2.458   2.285  0.1602 -0.0842  0.0749
 1435SOL     OW 5784   4.037   2.724   2.345 -0.2831 -0.3040 -0.3236
 1435SOL    HW2 5785   4.036   2.721   2.441  0.5204  0.4912 -0.2875
 1435SOL    HW3 5786   3.954   2.766   2.322 -0.6069 -0.7596  0.0115
 1435SOL    MW4 5787   4.026   2.729   2.355 -0.2198 -0.2592 -0.2747
 1436SOL     OW 5788   4.298   2.832   2.245  0.1544  0.0145 -0.2865
 1436SOL    HW2 5789   4.219   2.799   2.286  1.0097 -1.0965  0.5196
 1436SOL    HW3 5790   4.369   2.796   2.298  1.1507  2.6859  0.2304
 1436SOL    MW4 5791   4.297   2.823   2.257  0.3986  0.2201 -0.1121
 1437SOL     OW 5792   4.282   3.108   2.346 -0.1337 -0.1584 -0.1210
 1437SOL    HW2 5793   4.286   3.016   2.321  1.0423 -0.2928  0.5396
 1437SOL    HW3 5794   4.366   3.144   2.318 -0.5136  0.6742 -0.1984
 1437SOL    MW4 5795   4.294   3.100   2.339 -0.0286 -0.0660 -0.0441
 1438SOL     OW 5796   4.056   3.219   2.240 -0.1157  0.3470 -0.1559
 1438SOL    HW2 5797   4.061   3.307   2.276  0.2206  0.4326 -0.4033
 1438SOL    HW3 5798   4.138   3.177   2.268  0.2818  0.5115 -1.0541
 1438SOL    MW4 5799   4.068   3.225   2.248 -0.0191  0.3803 -0.3068
 1439SOL     OW 5800   4.017   3.475   2.358  0.0165  0.2237  0.3022
 1439SOL    HW2 5801   4.089   3.519   2.313  0.5686 -1.9623 -1.0132
 1439SOL    HW3 5802   3.939   3.523   2.330  0.6199  0.4639 -1.0240
 1439SOL    MW4 5803   4.016   3.487   2.348  0.1693 -0.0329 -0.0463
 1440SOL     OW 5804   4.245   3.602   2.275 -0.1695 -0.3398  0.1455
 1440SOL    HW2 5805   4.230   3.692   2.301  1.3787  0.2019 -0.7593
 1440SOL    HW3 5806   4.250   3.605   2.180  0.9513 -1.2028  0.1679
 1440SOL    MW4 5807   4.244   3.614   2.266  0.1826 -0.3824  0.0288
 1441SOL     OW 5808   4.263   3.879   2.358 -0.0211  0.3202 -0.2103
 1441SOL    HW2 5809   4.268   3.876   2.454 -1.2173  1.6926 -0.0783
 1441SOL    HW3 5810   4.352   3.898   2.330  0.3635 -0.2124  0.6250
 1441SOL    MW4 5811   4.275   3.881   2.367 -0.1283  0.4311 -0.0825
 1442SOL     OW 5812   4.008   3.980   2.263  0.3431 -0.4228 -0.0106
 1442SOL    HW2 5813   4.086   3.947   2.307  1.4061  2.1553  0.1637
 1442SOL    HW3 5814   4.030   3.974   2.170  1.0009  0.7928  0.0507
 1442SOL    MW4 5815   4.021   3.975   2.256  0.5698  0.0775  0.0203
 1443SOL     OW 5816   4.037   4.262   2.332 -0.2794  0.3089  0.3048
 1443SOL    HW2 5817   4.120   4.286   2.292  0.4734  1.6017  2.6208
 1443SOL    HW3 5818   4.025   4.170   2.308  1.1647  0.4720 -1.1080
 1443SOL    MW4 5819   4.046   4.253   2.323  0.0110  0.5002  0.4239
 1444SOL     OW 5820   4.269   4.382   2.225  0.2053 -0.1880  0.0897
 1444SOL    HW2 5821   4.274   4.455   2.286  0.5956  0.5876 -0.8638
 1444SOL    HW3 5822   4.348   4.331   2.243 -0.8052 -1.2138  1.7822
 1444SOL    MW4 5823   4.280   4.385   2.235  0.1240 -0.2213  0.1872
 1445SOL     OW 5824   0.276   4.634   2.642  0.0520  0.7327  0.4148
 1445SOL    HW2 5825   0.268   4.546   2.680  0.5590 -0.6016 -2.4209
 1445SOL    HW3 5826   0.198   4.680   2.671  0.6325 -0.0837  3.3819
 1445SOL    MW4 5827   0.265   4.628   2.651  0.1954  0.4492  0.4323
 1446SOL     OW 5828   0.043   0.084   2.755 -0.5014  0.3783  0.0298
 1446SOL    HW2 5829   0.029   0.085   2.849 -2.2177 -0.6301 -0.2065
 1446SOL    HW3 5830   0.025   0.174   2.727  1.9421  1.1950  0.8940
 1446SOL    MW4 5831   0.039   0.096   2.763 -0.4054  0.3530  0.1125
 1447SOL     OW 5832   0.004   0.347   2.649  0.0837 -0.4316 -0.0660
 1447SOL    HW2 5833   0.084   0.387   2.686  0.7881 -2.0320  0.1809
 1447SOL    HW3 5834   0.005   0.374   2.558  0.5478  0.1334  0.0966
 1447SOL    MW4 5835   0.015   0.356   2.642  0.2379 -0.5682 -0.0122
 1448SOL     OW 5836   0.217   0.487   2.742 -0.2804 -0.7361  0.5885
 1448SOL    HW2 5837   0.230   0.496   2.836  0.3848 -0.4825  0.4726
 1448SOL    HW3 5838   0.302   0.460   2.708 -0.0151  0.9661 -0.1737
 1448SOL    MW4 5839   0.230   0.485   2.750 -0.1576 -0.4780  0.4728
 1449SOL     OW 5840   0.234   0.761   2.647  0.1007  0.5234  0.0591
 1449SOL    HW2 5841   0.318   0.775   2.691  1.0275  0.6325 -1.7229
 1449SOL    HW3 5842   0.210   0.671   2.670  0.4767  0.6313  0.9195
 1449SOL    MW4 5843   0.242   0.751   2.656  0.2726  0.5521 -0.0629
 1450SOL     OW 5844   0.008   0.906   2.765 -0.0323  0.0997  0.4014
 1450SOL    HW2 5845  -0.067   0.857   2.731 -0.6017  0.7300  0.7399
 1450SOL    HW3 5846   0.085   0.857   2.734 -0.5088  0.9687 -2.2801
 1450SOL    MW4 5847   0.009   0.893   2.757 -0.1703  0.2975  0.0925
 1451SOL     OW 5848   0.011   1.137   2.622  0.3641  0.3188 -0.4006
 1451SOL    HW2 5849   0.086   1.179   2.663  1.3992  0.0994 -2.0003
 1451SOL    HW3 5850   0.002   1.054   2.669  0.1727  1.0080  0.7953
 1451SOL    MW4 5851   0.020   1.131   2.634  0.4759  0.3809 -0.4537
 1452SOL     OW 5852   0.220   1.245   2.745  0.1807  0.0190  0.0961
 1452SOL    HW2 5853   0.293   1.196   2.707  0.6857 -0.0525  1.1258
 1452SOL    HW3 5854   0.243   1.337   2.733  1.1635  0.0120  1.7075
 1452SOL    MW4 5855   0.233   1.251   2.739  0.3770  0.0086  0.4447
 1453SOL     OW 5856   0.265   1.506   2.658  0.2930  0.0221  0.0122
 1453SOL    HW2 5857   0.340   1.561   2.680  0.0026  1.1620 -1.7198
 1453SOL    HW3 5858   0.189   1.560   2.677 -0.0591 -0.7175  0.6983
 1453SOL    MW4 5859   0.265   1.520   2.663  0.2082  0.0749 -0.1256
 1454SOL     OW 5860   0.026   1.663   2.727 -0.2875 -0.3722  0.0479
 1454SOL    HW2 5861   0.023   1.656   2.822  0.0099 -1.5154 -0.0180
 1454SOL    HW3 5862   0.002   1.754   2.708  0.8083  0.1770  1.2618
 1454SOL    MW4 5863   0.022   1.674   2.737 -0.1037 -0.4506  0.1996
 1455SOL     OW 5864   4.455   1.917   2.670 -0.0633  0.0716  0.0293
 1455SOL    HW2 5865   4.533   1.967   2.695 -1.0674  1.7513 -0.1464
 1455SOL    HW3 5866   4.466   1.902   2.576  0.2572 -0.0970  0.0900
 1455SOL    MW4 5867   4.467   1.921   2.661 -0.1535  0.2708  0.0143
 1456SOL     OW 5868   0.182   2.051   2.762 -0.5488 -0.1693  0.2894
 1456SOL    HW2 5869   0.262   2.001   2.742 -0.3226 -0.2081  1.2998
 1456SOL    HW3 5870   0.192   2.132   2.712 -0.0826 -0.3653  0.0614
 1456SOL    MW4 5871   0.194   2.055   2.752 -0.4574 -0.2003  0.3927
 1457SOL     OW 5872   0.258   2.290   2.620 -0.9063 -0.0104  0.1123
 1457SOL    HW2 5873   0.324   2.325   2.680 -0.8613 -1.4745  0.9390
 1457SOL    HW3 5874   0.186   2.353   2.625  0.7257  2.1007 -1.4803
 1457SOL    MW4 5875   0.257   2.303   2.629 -0.6850  0.0749  0.0110
 1458SOL     OW 5876   0.009   2.441   2.689 -0.0697 -0.0041  0.5609
 1458SOL    HW2 5877   0.018   2.446   2.784 -1.0348 -0.3598  0.6757
 1458SOL    HW3 5878  -0.064   2.380   2.675 -1.5070  1.8967 -0.3532
 1458SOL    MW4 5879   0.001   2.433   2.699 -0.3867  0.1998  0.4556
 1459SOL     OW 5880   0.026   2.710   2.630 -0.1014  0.0369  0.2610
 1459SOL    HW2 5881  -0.055   2.746   2.667  0.1323  0.2749  0.5514
 1459SOL    HW3 5882   0.023   2.617   2.652  0.6187  0.3938  1.9920
 1459SOL    MW4 5883   0.015   2.703   2.638  0.0243  0.1154  0.5274
 1460SOL     OW 5884   0.248   2.837   2.751  0.0303  0.0820 -0.2979
 1460SOL    HW2 5885   0.245   2.930   2.726  0.5694 -0.0793 -0.9685
 1460SOL    HW3 5886   0.171   2.798   2.710  0.5179 -0.0329 -1.1185
 1460SOL    MW4 5887   0.237   2.844   2.742  0.1658  0.0458 -0.4947
 1461SOL     OW 5888   0.251   3.095   2.652  0.3354 -0.0282 -0.3305
 1461SOL    HW2 5889   0.332   3.133   2.684 -1.0608  2.1108  0.7885
 1461SOL    HW3 5890   0.254   3.108   2.557  0.4500  1.7933 -0.0899
 1461SOL    MW4 5891   0.262   3.102   2.643  0.1664  0.4942 -0.1512
 1462SOL     OW 5892   0.009   3.216   2.749  0.1653  0.3501 -0.0073
 1462SOL    HW2 5893  -0.066   3.180   2.703  0.2560  1.1446 -0.7787
 1462SOL    HW3 5894   0.085   3.177   2.705  0.2250  0.2465  0.1884
 1462SOL    MW4 5895   0.009   3.206   2.737  0.1850  0.4411 -0.0832
 1463SOL     OW 5896   0.023   3.468   2.638 -0.2960 -0.0638 -0.3249
 1463SOL    HW2 5897   0.096   3.516   2.677 -0.5900  0.8725 -0.9084
 1463SOL    HW3 5898   0.026   3.382   2.680  1.0036  0.0362 -0.1752
 1463SOL    MW4 5899   0.033   3.463   2.648 -0.1633  0.0730 -0.3822
 1464SOL     OW 5900   0.226   3.602   2.731 -0.6812 -0.0369 -0.0459
 1464SOL    HW2 5901   0.234   3.604   2.826 -0.7490  0.2345 -0.0458
 1464SOL    HW3 5902   0.309   3.566   2.701 -0.5351  0.1806  0.0996
 1464SOL    MW4 5903   0.238   3.598   2.740 -0.6709  0.0277 -0.0265
 1465SOL     OW 5904   0.217   3.872   2.666 -0.0620  0.2326  0.2354
 1465SOL    HW2 5905   0.214   3.784   2.704 -3.8469  0.4264  0.6212
 1465SOL    HW3 5906   0.220   3.856   2.571 -1.5483 -0.3766  0.2643
 1465SOL    MW4 5907   0.217   3.858   2.658 -0.7575  0.1776  0.2904
 1466SOL     OW 5908   4.475   4.009   2.726 -0.1983  0.0818 -0.6522
 1466SOL    HW2 5909   4.481   4.096   2.687  1.7774  0.1480 -0.2536
 1466SOL    HW3 5910   4.555   3.965   2.698 -0.2771 -0.9573  0.7106
 1466SOL    MW4 5911   4.486   4.014   2.717  0.0520 -0.0467 -0.4199
 1467SOL     OW 5912   4.483   4.248   2.587  0.2609 -0.0425 -0.4704
 1467SOL    HW2 5913   4.411   4.292   2.633  0.0299 -0.5155 -0.3771
 1467SOL    HW3 5914   4.562   4.278   2.633  0.0495 -0.3224  0.0904
 1467SOL    MW4 5915   4.484   4.258   2.599  0.2027 -0.1416 -0.3839
 1468SOL     OW 5916   0.213   4.362   2.740 -0.1189  0.2801  0.3485
 1468SOL    HW2 5917   0.214   4.364   2.835  0.9149  0.7888  0.3392
 1468SOL    HW3 5918   0.297   4.324   2.716 -0.9550 -1.1709 -0.3475
 1468SOL    MW4 5919   0.224   4.357   2.749 -0.0928  0.1559  0.2556
 1469SOL     OW 5920   0.672   4.633   2.645  0.2255 -0.4457  0.7122
 1469SOL    HW2 5921   0.745   4.685   2.680 -0.2299 -0.7755  2.1845
 1469SOL    HW3 5922   0.594   4.684   2.667 -0.0435 -0.2989 -0.5017
 1469SOL    MW4 5923   0.672   4.647   2.652  0.1299 -0.4697  0.7463
 1470SOL     OW 5924   0.463   0.138   2.739 -0.2603  0.3675  0.0192
 1470SOL    HW2 5925   0.463   0.118   2.832  0.2584 -1.6736 -0.4011
 1470SOL    HW3 5926   0.396   0.080   2.702 -0.1717  0.8702 -0.9362
 1470SOL    MW4 5927   0.454   0.128   2.746 -0.1801  0.1645 -0.1621
 1471SOL     OW 5928   0.463   0.401   2.657 -0.0364  0.3535 -0.3437
 1471SOL    HW2 5929   0.540   0.443   2.694 -1.9064  2.3265  1.4617
 1471SOL    HW3 5930   0.464   0.312   2.692  1.0910  0.5622  0.1584
 1471SOL    MW4 5931   0.473   0.395   2.666 -0.1344  0.6413 -0.0391
 1472SOL     OW 5932   0.671   0.521   2.780 -0.1830 -0.0003  0.1161
 1472SOL    HW2 5933   0.673   0.514   2.875 -0.0920 -1.9273 -0.0111
 1472SOL    HW3 5934   0.749   0.475   2.750 -1.9927 -2.4976 -1.0177
 1472SOL    MW4 5935   0.681   0.514   2.788 -0.4097 -0.5840 -0.0501
 1473SOL     OW 5936   0.727   0.785   2.640 -0.0216 -0.4506 -0.2818
 1473SOL    HW2 5937   0.796   0.839   2.680 -1.3719  1.0187  0.1030
 1473SOL    HW3 5938   0.730   0.702   2.688  0.3778  0.2159  0.8452
 1473SOL    MW4 5939   0.737   0.781   2.651 -0.1470 -0.1688 -0.0823
 1474SOL     OW 5940   0.478   0.855   2.759  0.1188 -0.1022 -0.0892
 1474SOL    HW2 5941   0.462   0.946   2.735 -0.5117  0.2823  1.7127
 1474SOL    HW3 5942   0.562   0.834   2.719 -0.1677  0.9781 -1.2891
 1474SOL    MW4 5943   0.487   0.864   2.750 -0.0022  0.0911 -0.0100
 1475SOL     OW 5944   0.452   1.125   2.652 -0.0139  0.1399 -0.1466
 1475SOL    HW2 5945   0.519   1.179   2.693  0.4110 -1.0854  0.7996
 1475SOL    HW3 5946   0.465   1.138   2.558  1.1168  0.4179  0.0402
 1475SOL    MW4 5947   0.463   1.134   2.645  0.1914  0.0149  0.0029
 1476SOL     OW 5948   0.687   1.273   2.770 -0.1187  0.2057  0.3676
 1476SOL    HW2 5949   0.671   1.293   2.862  0.4811  1.9256  0.1265
 1476SOL    HW3 5950   0.772   1.229   2.770 -0.4139 -0.3815  0.6832
 1476SOL    MW4 5951   0.696   1.270   2.782 -0.0785  0.3551  0.3774
 1477SOL     OW 5952   0.703   1.523   2.640  0.0174 -0.1196  0.7183
 1477SOL    HW2 5953   0.620   1.553   2.679 -0.1780  0.0768  0.1508
 1477SOL    HW3 5954   0.715   1.435   2.675  0.4687  0.5099  2.2094
 1477SOL    MW4 5955   0.693   1.515   2.650  0.0511 -0.0106  0.8399
 1478SOL     OW 5956   0.471   1.667   2.727 -0.0814 -0.1122  0.2486
 1478SOL    HW2 5957   0.464   1.650   2.821  0.6276 -0.2653  0.2762
 1478SOL    HW3 5958   0.452   1.760   2.718  1.2761  0.2084  0.7034
 1478SOL    MW4 5959   0.467   1.677   2.738  0.1913 -0.0901  0.3121
 1479SOL     OW 5960   0.412   1.934   2.684 -0.2866 -0.4288 -0.7239
 1479SOL    HW2 5961   0.491   1.974   2.719 -0.6337 -0.8706  0.5755
 1479SOL    HW3 5962   0.411   1.959   2.591  0.5650  0.8441 -0.3871
 1479SOL    MW4 5963   0.422   1.942   2.676 -0.2200 -0.3191 -0.5081
 1480SOL     OW 5964   0.654   2.064   2.751  0.6463  0.0806  0.1364
 1480SOL    HW2 5965   0.664   2.060   2.846 -0.0038 -0.7604  0.1700
 1480SOL    HW3 5966   0.734   2.024   2.717  0.5785 -0.2318  0.3391
 1480SOL    MW4 5967   0.666   2.058   2.759  0.5516 -0.0715  0.1676
 1481SOL     OW 5968   0.679   2.309   2.660  0.3950 -0.1131 -0.0661
 1481SOL    HW2 5969   0.762   2.350   2.684  1.5795 -1.3207 -1.9666
 1481SOL    HW3 5970   0.689   2.218   2.688 -0.7644 -0.0027  0.7464
 1481SOL    MW4 5971   0.691   2.302   2.667  0.3983 -0.2580 -0.2093
 1482SOL     OW 5972   0.462   2.416   2.754 -0.1584  0.0624 -0.4561
 1482SOL    HW2 5973   0.464   2.505   2.718  0.7924  0.7480  1.2211
 1482SOL    HW3 5974   0.541   2.375   2.718  1.0796  0.9179  1.1907
 1482SOL    MW4 5975   0.473   2.423   2.745  0.1304  0.2658 -0.0176
 1483SOL     OW 5976   0.436   2.666   2.636  0.3142  0.2623  0.0412
 1483SOL    HW2 5977   0.511   2.725   2.645  0.2659  0.6826 -2.0015
 1483SOL    HW3 5978   0.364   2.711   2.680  0.6221  1.0733 -0.2766
 1483SOL    MW4 5979   0.436   2.679   2.643  0.3485  0.4249 -0.2701
 1484SOL     OW 5980   0.626   2.851   2.712  0.1653  0.1390 -0.1349
 1484SOL    HW2 5981   0.628   2.864   2.806  2.0131 -0.8943 -0.0162
 1484SOL    HW3 5982   0.641   2.938   2.675 -0.9325  0.6133  0.4939
 1484SOL    MW4 5983   0.628   2.864   2.719  0.2643  0.0653 -0.0362
 1485SOL     OW 5984   0.700   3.089   2.603  0.8522  0.3721  0.1623
 1485SOL    HW2 5985   0.774   3.128   2.649 -0.2778  2.6377  0.1065
 1485SOL    HW3 5986   0.724   3.094   2.510  1.0508  0.2154  0.2061
 1485SOL    MW4 5987   0.713   3.095   2.597  0.7294  0.6506  0.1609
 1486SOL     OW 5988   0.481   3.233   2.730 -0.1218  0.4016 -0.2911
 1486SOL    HW2 5989   0.480   3.241   2.825  1.3277  0.4965 -0.2638
 1486SOL    HW3 5990   0.567   3.194   2.710  0.5437  2.4592 -1.6935
 1486SOL    MW4 5991   0.493   3.229   2.740  0.1573  0.6857 -0.4723
 1487SOL     OW 5992   0.452   3.480   2.613  0.3185  0.3765  0.2016
 1487SOL    HW2 5993   0.474   3.393   2.644 -0.9954  0.0010  0.1246
 1487SOL    HW3 5994   0.441   3.470   2.518 -0.1138  0.5573  0.2307
 1487SOL    MW4 5995   0.454   3.468   2.604  0.0881  0.3507  0.1950
 1488SOL     OW 5996   0.670   3.619   2.685 -0.0359 -0.3121  0.1725
 1488SOL    HW2 5997   0.677   3.614   2.780  0.6920 -0.4667  0.1097
 1488SOL    HW3 5998   0.585   3.579   2.665 -0.1774 -0.3011  0.7524
 1488SOL    MW4 5999   0.659   3.613   2.695  0.0414 -0.3309  0.2408
 1489SOL     OW 6000   0.664   3.891   2.610  0.1402  0.6821  0.3887
 1489SOL    HW2 6001   0.580   3.927   2.639 -0.3808  0.6486 -1.0621
 1489SOL    HW3 6002   0.664   3.801   2.641 -1.7366 -0.2985 -2.2801
 1489SOL    MW4 6003   0.653   3.884   2.618 -0.1761  0.5484 -0.1550
 1490SOL     OW 6004   0.447   4.009   2.726 -0.5740 -0.1128 -0.1294
 1490SOL    HW2 6005   0.443   4.093   2.679  0.1311 -0.0141 -0.0211
 1490SOL    HW3 6006   0.369   3.961   2.697 -1.4523  0.9159  0.4506
 1490SOL    MW4 6007   0.436   4.014   2.716 -0.5969  0.0367 -0.0386
 1491SOL     OW 6008   0.450   4.264   2.623  0.2737  0.2445 -0.1811
 1491SOL    HW2 6009   0.534   4.304   2.648  0.7348  0.1366 -1.5262
 1491SOL    HW3 6010   0.452   4.262   2.528 -0.6688 -1.0335 -0.1878
 1491SOL    MW4 6011   0.462   4.269   2.614  0.2102  0.0620 -0.3598
 1492SOL     OW 6012   0.666   4.381   2.762  0.0931  0.5715 -0.2959
 1492SOL    HW2 6013   0.742   4.346   2.715 -0.1219  1.2689 -1.1811
 1492SOL    HW3 6014   0.668   4.475   2.744 -1.2102  0.5392 -0.6725
 1492SOL    MW4 6015   0.676   4.389   2.753 -0.1072  0.6590 -0.4625
 1493SOL     OW 6016   1.154   4.628   2.641  0.7454 -0.5499  0.4188
 1493SOL    HW2 6017   1.232   4.672   2.675 -0.0742 -0.5544  2.3247
 1493SOL    HW3 6018   1.157   4.540   2.678 -0.2977 -0.4802  0.6849
 1493SOL    MW4 6019   1.165   4.622   2.650  0.4996 -0.5412  0.7055
 1494SOL     OW 6020   0.904   0.106   2.755 -0.3425 -0.5446  0.2894
 1494SOL    HW2 6021   0.912   0.106   2.851 -1.6479 -2.2522  0.4298
 1494SOL    HW3 6022   0.979   0.054   2.725 -0.1688 -0.3608  0.4024
 1494SOL    MW4 6023   0.915   0.099   2.764 -0.4919 -0.7457  0.3226
 1495SOL     OW 6024   0.888   0.371   2.695  0.5853 -0.3411  0.0525
 1495SOL    HW2 6025   0.887   0.276   2.705  0.5500 -0.5135 -1.4774
 1495SOL    HW3 6026   0.890   0.386   2.601 -1.8169  1.1958  0.1874
 1495SOL    MW4 6027   0.888   0.361   2.684  0.2637 -0.1611 -0.1316
 1496SOL     OW 6028   1.136   0.486   2.766 -0.0499 -0.2217  0.2074
 1496SOL    HW2 6029   1.138   0.564   2.710  0.1318 -0.7329 -0.4979
 1496SOL    HW3 6030   1.051   0.445   2.749 -0.0403 -0.3204  0.3898
 1496SOL    MW4 6031   1.125   0.491   2.756 -0.0246 -0.3022  0.1385
 1497SOL     OW 6032   1.145   0.730   2.651 -0.0068  0.1070  0.5281
 1497SOL    HW2 6033   1.223   0.772   2.688  0.3408 -0.4867  0.4726
 1497SOL    HW3 6034   1.153   0.743   2.557  0.4857 -0.7391  0.4511
 1497SOL    MW4 6035   1.156   0.737   2.644  0.1041 -0.0829  0.5105
 1498SOL     OW 6036   0.934   0.899   2.765  0.2440  0.1325  0.2953
 1498SOL    HW2 6037   0.937   0.898   2.861  1.5767  1.0838  0.2811
 1498SOL    HW3 6038   1.012   0.849   2.739 -0.7666 -1.1699 -0.3104
 1498SOL    MW4 6039   0.945   0.892   2.774  0.2866  0.0861  0.2134
 1499SOL     OW 6040   0.938   1.155   2.693  0.1039 -0.4587  0.0598
 1499SOL    HW2 6041   0.953   1.061   2.704  1.8790 -0.1090  0.7814
 1499SOL    HW3 6042   0.917   1.165   2.600  1.6457 -1.3612 -0.4032
 1499SOL    MW4 6043   0.937   1.144   2.682  0.5415 -0.5316  0.0939
 1500SOL     OW 6044   1.188   1.233   2.730 -0.4277 -0.0220  0.3016
 1500SOL    HW2 6045   1.211   1.326   2.720  0.5943 -0.4205 -1.1369
 1500SOL    HW3 6046   1.094   1.230   2.711 -0.1701  0.4985 -1.1066
 1500SOL    MW4 6047   1.178   1.245   2.726 -0.2588 -0.0060 -0.0739
 1501SOL     OW 6048   1.133   1.505   2.683 -0.0044  0.5658 -0.4528
 1501SOL    HW2 6049   1.059   1.560   2.708 -0.2576  0.6360 -1.3495
 1501SOL    HW3 6050   1.133   1.507   2.587 -0.4083 -1.5064 -0.5122
 1501SOL    MW4 6051   1.123   1.513   2.674 -0.0912  0.3017 -0.5789
 1502SOL     OW 6052   0.916   1.673   2.744 -0.4918  0.2278 -0.4994
 1502SOL    HW2 6053   0.891   1.674   2.837 -0.0548 -0.6607 -0.3684
 1502SOL    HW3 6054   0.847   1.624   2.701 -0.6157  0.5096 -0.6209
 1502SOL    MW4 6055   0.904   1.667   2.751 -0.4505  0.1476 -0.4981
 1503SOL     OW 6056   0.916   1.950   2.669  0.3331  0.5320  0.2521
 1503SOL    HW2 6057   0.988   1.997   2.711  0.3292  0.6353  0.1445
 1503SOL    HW3 6058   0.928   1.859   2.695 -0.1244  0.7174  1.1291
 1503SOL    MW4 6059   0.927   1.944   2.678  0.2722  0.5701  0.3536
 1504SOL     OW 6060   1.136   2.080   2.782 -0.0220  0.0975  0.0650
 1504SOL    HW2 6061   1.212   2.032   2.747  1.0524  1.9530 -0.2055
 1504SOL    HW3 6062   1.144   2.168   2.744 -1.1681  0.9211  1.6871
 1504SOL    MW4 6063   1.147   2.085   2.772 -0.0314  0.4511  0.2432
 1505SOL     OW 6064   1.123   2.337   2.675  0.1974  0.6594 -0.4242
 1505SOL    HW2 6065   1.212   2.359   2.702  0.5663 -1.0286 -0.1694
 1505SOL    HW3 6066   1.129   2.324   2.580  0.5062 -0.6515 -0.2385
 1505SOL    MW4 6067   1.135   2.338   2.666  0.2868  0.2637 -0.3657
 1506SOL     OW 6068   0.891   2.431   2.769  0.1123 -0.1688 -0.1267
 1506SOL    HW2 6069   0.891   2.515   2.721 -0.3818  0.7312  1.4209
 1506SOL    HW3 6070   0.979   2.397   2.757  0.2247  0.4227 -1.0395
 1506SOL    MW4 6071   0.903   2.438   2.761  0.0620  0.0281 -0.0429
 1507SOL     OW 6072   0.862   2.690   2.657 -0.1014  0.0062 -0.0226
 1507SOL    HW2 6073   0.931   2.750   2.682  0.0793  0.3036 -1.2041
 1507SOL    HW3 6074   0.781   2.733   2.683  0.1030  0.1250  0.4133
 1507SOL    MW4 6075   0.860   2.703   2.664 -0.0505  0.0610 -0.1209
 1508SOL     OW 6076   1.074   2.844   2.725 -0.4379  0.3987 -0.0120
 1508SOL    HW2 6077   1.082   2.861   2.819 -1.3577 -0.1414  0.1719
 1508SOL    HW3 6078   1.154   2.798   2.701  0.9530  2.7101 -0.0046
 1508SOL    MW4 6079   1.086   2.840   2.734 -0.3757  0.6325  0.0131
 1509SOL     OW 6080   1.148   3.096   2.617  0.0000  0.0000  0.1577
 1509SOL    HW2 6081   1.122   3.007   2.640  0.0000  0.0000  0.1546
 1509SOL    HW3 6082   1.136   3.101   2.522  0.0000  0.0000  0.1579
 1509SOL    MW4 6083   1.143   3.085   2.607  0.0000  0.0000  0.1576
 1510SOL     OW 6084   0.919   3.208   2.716  0.0000  0.0000 -0.1965
 1510SOL    HW2 6085   0.903   3.287   2.664  0.0000  0.0000 -0.1866
 1510SOL    HW3 6086   1.006   3.179   2.688  0.0000  0.0000 -0.2153
 1510SOL    MW4 6087   0.928   3.215   2.706  0.0000  0.0000 -0.1979
 1511SOL     OW 6088   0.887   3.462   2.603  0.0000  0.0000 -0.3009
 1511SOL    HW2 6089   0.960   3.508   2.645  0.0000  0.0000 -0.2693
 1511SOL    HW3 6090   0.810   3.512   2.630  0.0000  0.0000 -0.3305
 1511SOL    MW4 6091   0.887   3.475   2.612  0.0000  0.0000 -0.3004
 1512SOL     OW 6092   1.102   3.599   2.697  0.0000  0.0000  0.2671
 1512SOL    HW2 6093   1.101   3.626   2.789  0.0000  0.0000  0.2675
 1512SOL    HW3 6094   1.100   3.681   2.648  0.0000  0.0000  0.2689
 1512SOL    MW4 6095   1.102   3.613   2.703  0.0000  0.0000  0.2673
 1513SOL     OW 6096   1.098   3.851   2.618  0.0000  0.0000 -0.1409
 1513SOL    HW2 6097   1.178   3.889   2.656  0.0000  0.0000 -0.1360
 1513SOL    HW3 6098   1.110   3.859   2.523  0.0000  0.0000 -0.1401
 1513SOL    MW4 6099   1.110   3.857   2.610  0.0000  0.0000 -0.1402
 1514SOL     OW 6100   0.893   4.008   2.712  0.0000  0.0000 -0.4568
 1514SOL    HW2 6101   0.957   3.963   2.657  0.0000  0.0000 -0.4633
 1514SOL    HW3 6102   0.809   3.969   2.686  0.0000  0.0000 -0.4332
 1514SOL    MW4 6103   0.890   3.997   2.702  0.0000  0.0000 -0.4547
 1515SOL     OW 6104   0.888   4.266   2.666  0.0000  0.0000  0.6323
 1515SOL    HW2 6105   0.892   4.174   2.691  0.0000  0.0000  0.6368
 1515SOL    HW3 6106   0.884   4.265   2.570  0.0000  0.0000  0.6320
 1515SOL    MW4 6107   0.888   4.254   2.656  0.0000  0.0000  0.6328
 1516SOL     OW 6108   1.144   4.351   2.760  0.0000  0.0000 -0.6735
 1516SOL    HW2 6109   1.137   4.378   2.852  0.0000  0.0000 -0.6749
 1516SOL    HW3 6110   1.055   4.327   2.735  0.0000  0.0000 -0.6710
 1516SOL    MW4 6111   1.131   4.351   2.769  0.0000  0.0000 -0.6733
 1517SOL     OW 6112   1.593   4.643   2.637  0.0000  0.0000 -0.6514
 1517SOL    HW2 6113   1.588   4.549   2.654  0.0000  0.0000 -0.6626
 1517SOL    HW3 6114   1.581   4.652   2.543  0.0000  0.0000 -0.6510
 1517SOL    MW4 6115   1.591   4.632   2.627  0.0000  0.0000 -0.6528
 1518SOL     OW 6116   1.368   0.101   2.752  0.3609 -0.0545 -0.0072
 1518SOL    HW2 6117   1.358   0.185   2.706  0.0637 -0.4934 -0.7505
 1518SOL    HW3 6118   1.448   0.064   2.715  0.3880 -0.1833  0.1840
 1518SOL    MW4 6119   1.377   0.107   2.741  0.3252 -0.1294 -0.0801
 1519SOL     OW 6120   1.358   0.365   2.654 -0.2484  0.4303 -0.5634
 1519SOL    HW2 6121   1.434   0.410   2.689 -0.9309  2.3463 -1.4702
 1519SOL    HW3 6122   1.283   0.407   2.695 -0.8529 -0.9923 -0.1799
 1519SOL    MW4 6123   1.358   0.376   2.664 -0.4182  0.4954 -0.6325
 1520SOL     OW 6124   1.572   0.497   2.751 -0.0480  0.1646 -0.2238
 1520SOL    HW2 6125   1.640   0.438   2.718 -0.5723 -0.6412  0.1310
 1520SOL    HW3 6126   1.592   0.581   2.711  1.3698  0.0143  0.1455
 1520SOL    MW4 6127   1.584   0.500   2.742  0.0699  0.0384 -0.1280
 1521SOL     OW 6128   1.621   0.751   2.668  1.3125  0.5419  0.0234
 1521SOL    HW2 6129   1.533   0.783   2.686  0.9286 -1.4231  1.8786
 1521SOL    HW3 6130   1.627   0.749   2.572 -0.6757  0.6647 -0.1136
 1521SOL    MW4 6131   1.610   0.755   2.658  0.9996  0.2989  0.2499
 1522SOL     OW 6132   1.383   0.860   2.723 -0.0111  0.3044  0.1933
 1522SOL    HW2 6133   1.375   0.893   2.813 -2.0699  0.3977 -0.0135
 1522SOL    HW3 6134   1.383   0.939   2.669  0.0988  0.1932  0.0330
 1522SOL    MW4 6135   1.382   0.875   2.728 -0.2682  0.3021  0.1447
 1523SOL     OW 6136   1.379   1.126   2.571 -0.4010 -0.2911  0.5469
 1523SOL    HW2 6137   1.445   1.171   2.624  0.8376 -1.1149 -0.2829
 1523SOL    HW3 6138   1.296   1.148   2.614  0.4978 -0.2001  2.2962
 1523SOL    MW4 6139   1.376   1.135   2.584 -0.1189 -0.3878  0.6680
 1524SOL     OW 6140   1.587   1.271   2.710 -0.2395 -0.2520 -0.2854
 1524SOL    HW2 6141   1.579   1.278   2.805 -0.7371 -2.1177 -0.1700
 1524SOL    HW3 6142   1.672   1.230   2.696 -0.4127 -0.5039 -0.6106
 1524SOL    MW4 6143   1.597   1.266   2.721 -0.3281 -0.5314 -0.3130
 1525SOL     OW 6144   1.576   1.540   2.646 -0.4834  0.5207 -0.0992
 1525SOL    HW2 6145   1.576   1.446   2.665 -1.0998  0.6555  0.5999
 1525SOL    HW3 6146   1.581   1.545   2.551  0.7886 -0.2013 -0.0909
 1525SOL    MW4 6147   1.577   1.528   2.636 -0.3970  0.4433 -0.0060
 1526SOL     OW 6148   1.356   1.668   2.749  0.6867  0.4183 -0.0295
 1526SOL    HW2 6149   1.430   1.618   2.715  1.3686  1.5297 -0.2118
 1526SOL    HW3 6150   1.280   1.613   2.730  1.3136 -0.0936 -1.1487
 1526SOL    MW4 6151   1.356   1.654   2.742  0.8594  0.4975 -0.2012
 1527SOL     OW 6152   1.334   1.933   2.652  0.5853  0.0277 -0.5815
 1527SOL    HW2 6153   1.327   1.847   2.694 -2.9830 -0.2781 -1.5807
 1527SOL    HW3 6154   1.342   1.913   2.558  1.4923  0.7625 -0.6615
 1527SOL    MW4 6155   1.334   1.919   2.645  0.2341  0.0844 -0.7238
 1528SOL     OW 6156   1.558   2.037   2.776 -0.1738 -0.5020 -0.0341
 1528SOL    HW2 6157   1.639   2.001   2.741  0.3066 -0.7003  1.2236
 1528SOL    HW3 6158   1.489   1.996   2.724  0.4877 -1.1629 -0.4031
 1528SOL    MW4 6159   1.559   2.027   2.765 -0.0231 -0.6154  0.0832
 1529SOL     OW 6160   1.564   2.303   2.649 -0.3362 -0.3395  0.2276
 1529SOL    HW2 6161   1.643   2.332   2.695 -1.3426  0.7451  1.3023
 1529SOL    HW3 6162   1.552   2.212   2.678  1.6695 -1.2287 -1.5697
 1529SOL    MW4 6163   1.573   2.295   2.659 -0.2044 -0.3135  0.1323
 1530SOL     OW 6164   1.352   2.455   2.767 -0.0155  0.7574  0.3195
 1530SOL    HW2 6165   1.367   2.548   2.749 -0.6024  0.8071  0.0958
 1530SOL    HW3 6166   1.430   2.412   2.732 -1.2669  0.8245 -2.6667
 1530SOL    MW4 6167   1.365   2.462   2.760 -0.2581  0.7730 -0.1040
 1531SOL     OW 6168   1.314   2.738   2.670  0.7240  0.3883 -0.5405
 1531SOL    HW2 6169   1.381   2.802   2.694  1.5315 -0.5423 -0.2526
 1531SOL    HW3 6170   1.325   2.727   2.576  1.5390 -0.3764 -0.3619
 1531SOL    MW4 6171   1.325   2.745   2.661  0.9382  0.1645 -0.4792
 1532SOL     OW 6172   1.559   2.855   2.762  0.0721 -0.3049  0.0503
 1532SOL    HW2 6173   1.547   2.866   2.857 -1.8796 -0.7141 -0.1257
 1532SOL    HW3 6174   1.627   2.789   2.754 -1.0037 -1.6098  1.2055
 1532SOL    MW4 6175   1.566   2.848   2.774 -0.3273 -0.5312  0.1793
 1533SOL     OW 6176   1.605   3.098   2.624  0.1879 -0.0362 -0.6145
 1533SOL    HW2 6177   1.672   3.147   2.671 -0.6289  0.7940 -0.3169
 1533SOL    HW3 6178   1.599   3.015   2.672  0.4685  0.1866 -0.1846
 1533SOL    MW4 6179   1.613   3.093   2.637  0.1172  0.1028 -0.5186
 1534SOL     OW 6180   1.381   3.234   2.728  0.3485  0.2030  0.0474
 1534SOL    HW2 6181   1.456   3.186   2.693 -0.4322 -0.5911 -0.5661
 1534SOL    HW3 6182   1.306   3.195   2.684 -0.6144 -0.3912  2.2099
 1534SOL    MW4 6183   1.381   3.223   2.717  0.1185  0.0200  0.2520
 1535SOL     OW 6184   1.360   3.508   2.633 -0.2938 -0.0489  0.2576
 1535SOL    HW2 6185   1.369   3.419   2.666  0.2888  0.2350  0.8861
 1535SOL    HW3 6186   1.281   3.542   2.675  0.2893  0.2149  1.1556
 1535SOL    MW4 6187   1.351   3.501   2.643 -0.1400  0.0234  0.4587
 1536SOL     OW 6188   1.566   3.643   2.729  0.1906 -0.1640 -0.1465
 1536SOL    HW2 6189   1.634   3.580   2.703 -0.0299  0.4438 -2.2797
 1536SOL    HW3 6190   1.485   3.604   2.698 -0.3578 -0.5043  1.6966
 1536SOL    MW4 6191   1.565   3.629   2.721  0.0892 -0.1285 -0.1848
 1537SOL     OW 6192   1.557   3.909   2.643  0.0608  0.1172  0.1922
 1537SOL    HW2 6193   1.478   3.933   2.692 -0.1336 -2.0057  0.9973
 1537SOL    HW3 6194   1.564   3.814   2.654  1.9053  0.0679 -1.1163
 1537SOL    MW4 6195   1.548   3.900   2.651  0.2786 -0.1695  0.1261
 1538SOL     OW 6196   1.297   3.997   2.744 -0.6814  0.4398 -0.4492
 1538SOL    HW2 6197   1.318   3.995   2.837  1.0530  1.2195 -0.8195
 1538SOL    HW3 6198   1.314   4.087   2.717 -1.6354  0.3380 -1.4250
 1538SOL    MW4 6199   1.302   4.008   2.753 -0.5785  0.5293 -0.6268
 1539SOL     OW 6200   1.386   4.238   2.659  0.1643 -0.1661 -0.0856
 1539SOL    HW2 6201   1.293   4.258   2.674  0.0618 -0.4859 -0.3060
 1539SOL    HW3 6202   1.397   4.248   2.564  0.8469  2.0024  0.1937
 1539SOL    MW4 6203   1.375   4.242   2.648  0.2410  0.0777 -0.0777
 1540SOL     OW 6204   1.587   4.386   2.742  0.0975 -0.1094  0.4405
 1540SOL    HW2 6205   1.576   4.406   2.835 -0.0178  1.1854  0.1649
 1540SOL    HW3 6206   1.520   4.321   2.723 -0.5397  0.3560  1.0537
 1540SOL    MW4 6207   1.577   4.380   2.752 -0.0017  0.1230  0.4849
 1541SOL     OW 6208   2.041   4.627   2.606  0.1685  0.1268  0.0138
 1541SOL    HW2 6209   2.115   4.684   2.630  0.0410  0.3986 -0.2297
 1541SOL    HW3 6210   2.027   4.645   2.513  1.4525 -1.8300 -0.5943
 1541SOL    MW4 6211   2.049   4.637   2.597  0.3211 -0.0954 -0.0989
 1542SOL     OW 6212   1.828   0.092   2.728  0.2248  0.1677  0.3843
 1542SOL    HW2 6213   1.906   0.052   2.691  0.2254 -0.1217  0.6943
 1542SOL    HW3 6214   1.755   0.041   2.693  0.2222 -0.0693  0.7373
 1542SOL    MW4 6215   1.829   0.080   2.719  0.2246  0.0983  0.4718
 1543SOL     OW 6216   1.800   0.380   2.649 -0.3232  0.1308 -0.0516
 1543SOL    HW2 6217   1.877   0.430   2.673 -0.2493  0.1572 -0.3396
 1543SOL    HW3 6218   1.823   0.289   2.667  0.4455 -0.0598 -1.8395
 1543SOL    MW4 6219   1.813   0.374   2.654 -0.2121  0.1091 -0.3254
 1544SOL     OW 6220   2.027   0.514   2.738  0.3567  0.0013  0.4170
 1544SOL    HW2 6221   2.104   0.462   2.718  0.3866  0.1487  0.1531
 1544SOL    HW3 6222   2.044   0.599   2.700  0.7190  0.5081  1.6796
 1544SOL    MW4 6223   2.039   0.518   2.730  0.4084  0.0876  0.5488
 1545SOL     OW 6224   2.036   0.763   2.641 -0.2171  0.3356  0.3754
 1545SOL    HW2 6225   1.974   0.814   2.693  0.3268  1.4211 -0.0254
 1545SOL    HW3 6226   1.995   0.757   2.554 -0.0093  0.6093  0.2564
 1545SOL    MW4 6227   2.022   0.769   2.636 -0.1178  0.5149  0.3066
 1546SOL     OW 6228   1.826   0.891   2.797 -0.1143 -0.2791  0.1194
 1546SOL    HW2 6229   1.820   0.960   2.731 -0.5012  0.0979  0.5394
 1546SOL    HW3 6230   1.758   0.828   2.772  0.2487 -0.5119 -0.2719
 1546SOL    MW4 6231   1.816   0.892   2.785 -0.1175 -0.2601  0.1230
 1547SOL     OW 6232   1.812   1.128   2.632  0.1742  0.0652  0.0016
 1547SOL    HW2 6233   1.885   1.187   2.651  0.4912 -0.4216  0.2881
 1547SOL    HW3 6234   1.804   1.130   2.536  0.8986 -0.2883 -0.0689
 1547SOL    MW4 6235   1.821   1.136   2.622  0.3117 -0.0458  0.0298
 1548SOL     OW 6236   2.014   1.302   2.710  0.2585  0.9872  0.2645
 1548SOL    HW2 6237   2.021   1.311   2.805 -1.7713  0.9366  0.4377
 1548SOL    HW3 6238   2.084   1.240   2.687  0.5023  0.6689  1.7737
 1548SOL    MW4 6239   2.024   1.295   2.720  0.0229  0.9385  0.4866
 1549SOL     OW 6240   1.999   1.558   2.623  0.3083  0.1319  0.2845
 1549SOL    HW2 6241   1.927   1.600   2.670  0.8794  0.3896  0.9347
 1549SOL    HW3 6242   2.003   1.470   2.659 -0.5619 -0.3352 -0.7224
 1549SOL    MW4 6243   1.990   1.552   2.634  0.2688  0.1043  0.2375
 1550SOL     OW 6244   1.802   1.683   2.768  0.1549 -0.2397  0.4726
 1550SOL    HW2 6245   1.784   1.679   2.861 -1.5883  0.8008  0.2037
 1550SOL    HW3 6246   1.729   1.636   2.727 -0.2638  1.2015 -0.4717
 1550SOL    MW4 6247   1.790   1.676   2.775 -0.1304  0.0877  0.3126
 1551SOL     OW 6248   1.782   1.936   2.668  0.1954  0.0250 -0.1439
 1551SOL    HW2 6249   1.858   1.979   2.707  1.6300 -1.5168 -1.1617
 1551SOL    HW3 6250   1.779   1.850   2.710 -0.3059 -0.3504 -0.9423
 1551SOL    MW4 6251   1.792   1.930   2.679  0.3185 -0.2279 -0.3834
 1552SOL     OW 6252   2.015   2.066   2.733  0.4851 -0.7534  0.0544
 1552SOL    HW2 6253   2.012   2.081   2.828  3.3988  1.6588 -0.1781
 1552SOL    HW3 6254   2.002   2.152   2.694  0.7270 -1.5041 -1.7308
 1552SOL    MW4 6255   2.013   2.079   2.741  0.9015 -0.5343 -0.2117
 1553SOL     OW 6256   2.007   2.331   2.609 -0.2384 -0.2228 -0.2837
 1553SOL    HW2 6257   2.081   2.383   2.638 -0.2570 -0.1309 -0.4009
 1553SOL    HW3 6258   2.008   2.338   2.513  0.0169 -0.7869 -0.3252
 1553SOL    MW4 6259   2.017   2.339   2.600 -0.2067 -0.2849 -0.3047
 1554SOL     OW 6260   1.789   2.419   2.752  0.1412 -0.3621 -0.0223
 1554SOL    HW2 6261   1.802   2.409   2.847  0.3954  0.8361  0.0755
 1554SOL    HW3 6262   1.872   2.391   2.714  0.5778  0.6247  0.1994
 1554SOL    MW4 6263   1.801   2.414   2.760  0.2323 -0.0739  0.0196
 1555SOL     OW 6264   1.761   2.674   2.676  0.1698  0.2496 -0.2086
 1555SOL    HW2 6265   1.761   2.583   2.705  0.4726  0.2962 -0.0655
 1555SOL    HW3 6266   1.766   2.669   2.580  0.8627  0.1322 -0.1616
 1555SOL    MW4 6267   1.761   2.661   2.667  0.3011  0.2401 -0.1836
 1556SOL     OW 6268   1.987   2.827   2.753 -0.2362  0.4800 -0.4255
 1556SOL    HW2 6269   2.055   2.769   2.721 -0.4221 -0.6366  1.1605
 1556SOL    HW3 6270   1.907   2.795   2.712 -0.3223 -0.3364  0.3619
 1556SOL    MW4 6271   1.985   2.815   2.743 -0.2722  0.2251 -0.1123
 1557SOL     OW 6272   2.013   3.078   2.629 -0.0140 -0.2435  0.3416
 1557SOL    HW2 6273   2.021   2.992   2.670  0.3202 -0.1631  0.4465
 1557SOL    HW3 6274   2.019   3.060   2.535 -0.1963 -0.3644  0.3542
 1557SOL    MW4 6275   2.015   3.064   2.622  0.0060 -0.2489  0.3572
 1558SOL     OW 6276   1.848   3.243   2.753  0.1173 -0.1577  0.5089
 1558SOL    HW2 6277   1.858   3.335   2.730  0.7444  0.2417  2.3226
 1558SOL    HW3 6278   1.922   3.200   2.710 -0.0871  0.1973 -0.2122
 1558SOL    MW4 6279   1.859   3.249   2.744  0.1731 -0.0582  0.6533
 1559SOL     OW 6280   1.793   3.498   2.662 -0.2696  0.0194 -0.4022
 1559SOL    HW2 6281   1.864   3.555   2.690 -1.4588  1.0460  0.5897
 1559SOL    HW3 6282   1.793   3.506   2.566 -0.5119  1.8431 -0.2857
 1559SOL    MW4 6283   1.802   3.507   2.653 -0.4585  0.3953 -0.2563
 1560SOL     OW 6284   2.000   3.648   2.736 -0.0795  0.0265 -0.5926
 1560SOL    HW2 6285   1.997   3.654   2.831  0.1575 -1.5973 -0.4758
 1560SOL    HW3 6286   2.086   3.611   2.716 -0.6882 -1.0216 -1.3531
 1560SOL    MW4 6287   2.011   3.644   2.746 -0.1285 -0.3259 -0.6773
 1561SOL     OW 6288   1.992   3.903   2.610  0.0487 -0.1745 -0.3287
 1561SOL    HW2 6289   1.924   3.942   2.665  0.0364 -0.5735 -0.0569
 1561SOL    HW3 6290   1.992   3.810   2.634  0.4644 -0.2374 -0.5616
 1561SOL    MW4 6291   1.983   3.896   2.620  0.1019 -0.2353 -0.3235
 1562SOL     OW 6292   1.786   4.029   2.763  0.0185  0.6908 -0.2074
 1562SOL    HW2 6293   1.776   4.123   2.742  0.5899  1.0541  1.1564
 1562SOL    HW3 6294   1.709   3.989   2.723 -0.9953  1.9485  0.4175
 1562SOL    MW4 6295   1.774   4.036   2.755 -0.0399  0.9046  0.0551
 1563SOL     OW 6296   1.826   4.287   2.645 -0.6895 -0.1487  0.4656
 1563SOL    HW2 6297   1.741   4.323   2.669 -1.2107 -0.9420 -0.1719
 1563SOL    HW3 6298   1.814   4.252   2.556 -0.1771 -1.8030  1.0263
 1563SOL    MW4 6299   1.813   4.287   2.636 -0.6906 -0.4716  0.4554
 1564SOL     OW 6300   2.028   4.399   2.783 -0.1791  0.3519  0.3808
 1564SOL    HW2 6301   1.948   4.365   2.742 -0.2552  2.0953 -1.0057
 1564SOL    HW3 6302   2.046   4.480   2.736  1.3591  0.9582  1.9513
 1564SOL    MW4 6303   2.020   4.405   2.771  0.0138  0.6623  0.4053
 1565SOL     OW 6304   2.487   4.666   2.643  0.1235  0.2345  0.2694
 1565SOL    HW2 6305   2.563   4.718   2.671  0.4855 -0.1058 -0.0681
 1565SOL    HW3 6306   2.499   4.656   2.549 -0.8254  0.9495  0.0711
 1565SOL    MW4 6307   2.499   4.672   2.634  0.0460  0.2837  0.1986
 1566SOL     OW 6308   2.246   0.120   2.723  0.5488  0.2487 -0.2469
 1566SOL    HW2 6309   2.256   0.129   2.818  1.1182 -0.0159 -0.2819
 1566SOL    HW3 6310   2.328   0.082   2.694  0.1467 -0.2125 -0.7751
 1566SOL    MW4 6311   2.258   0.116   2.732  0.5708  0.1530 -0.3214
 1567SOL     OW 6312   2.238   0.360   2.620 -0.0024 -0.0636 -0.1150
 1567SOL    HW2 6313   2.225   0.272   2.657  2.0229 -1.0138 -1.5416
 1567SOL    HW3 6314   2.240   0.346   2.526  2.0519  1.2694 -0.2903
 1567SOL    MW4 6315   2.236   0.346   2.613  0.5360 -0.0131 -0.3264
 1568SOL     OW 6316   2.442   0.514   2.758 -0.2148  0.4239  0.1834
 1568SOL    HW2 6317   2.448   0.596   2.709  0.2299 -0.9992 -2.2445
 1568SOL    HW3 6318   2.369   0.467   2.718  1.7773 -1.8772 -0.8855
 1568SOL    MW4 6319   2.433   0.519   2.746  0.1066 -0.0674 -0.2780
 1569SOL     OW 6320   2.508   0.758   2.635 -0.1999 -0.4658  0.0094
 1569SOL    HW2 6321   2.431   0.805   2.668  0.3965  1.2582 -0.9605
 1569SOL    HW3 6322   2.493   0.751   2.541  1.3125  0.8868 -0.3655
 1569SOL    MW4 6323   2.496   0.764   2.627  0.0784 -0.0599 -0.1681
 1570SOL     OW 6324   2.284   0.872   2.719  0.3060 -0.0329 -0.2077
 1570SOL    HW2 6325   2.273   0.875   2.814  1.2517 -0.5633 -0.0733
 1570SOL    HW3 6326   2.205   0.829   2.686  0.2433 -0.3708  0.3916
 1570SOL    MW4 6327   2.272   0.867   2.727  0.4225 -0.1475 -0.1109
 1571SOL     OW 6328   2.223   1.142   2.645 -0.0790  0.1353 -0.3669
 1571SOL    HW2 6329   2.240   1.051   2.666 -1.4897 -0.1409 -0.3692
 1571SOL    HW3 6330   2.224   1.145   2.549 -1.1949 -0.1186 -0.3924
 1571SOL    MW4 6331   2.226   1.131   2.635 -0.4125  0.0653 -0.3705
 1572SOL     OW 6332   2.450   1.273   2.732 -0.3620  0.2511 -0.4202
 1572SOL    HW2 6333   2.533   1.241   2.697  0.4674  0.5157  1.2419
 1572SOL    HW3 6334   2.384   1.215   2.694  0.7766 -1.2159 -0.2128
 1572SOL    MW4 6335   2.452   1.261   2.722 -0.1023  0.0924 -0.1733
 1573SOL     OW 6336   2.436   1.522   2.645 -0.4646 -0.3377  0.0831
 1573SOL    HW2 6337   2.369   1.568   2.696 -0.3669 -0.6180  0.4695
 1573SOL    HW3 6338   2.433   1.432   2.678 -0.5227 -0.5598 -0.5339
 1573SOL    MW4 6339   2.427   1.516   2.656 -0.4594 -0.4039  0.0527
 1574SOL     OW 6340   2.210   1.668   2.763 -0.3041 -0.0020  0.2203
 1574SOL    HW2 6341   2.210   1.753   2.718  0.8528 -0.5261 -0.7863
 1574SOL    HW3 6342   2.137   1.621   2.723  1.5217 -0.9494 -2.0788
 1574SOL    MW4 6343   2.200   1.673   2.752  0.0892 -0.1962 -0.2158
 1575SOL     OW 6344   2.241   1.918   2.649 -0.0358 -0.0306  0.3426
 1575SOL    HW2 6345   2.158   1.962   2.669  0.6533  0.9885  1.0087
 1575SOL    HW3 6346   2.237   1.902   2.554 -1.4835 -1.0464  0.5549
 1575SOL    MW4 6347   2.229   1.922   2.639 -0.1359 -0.0302  0.4585
 1576SOL     OW 6348   2.462   2.046   2.738  0.0231  0.4364  0.0441
 1576SOL    HW2 6349   2.474   2.130   2.694 -0.3474 -0.1958 -1.2953
 1576SOL    HW3 6350   2.374   2.018   2.715 -0.3670  0.3296  1.6262
 1576SOL    MW4 6351   2.452   2.053   2.729 -0.0770  0.3390  0.0761
 1577SOL     OW 6352   2.488   2.293   2.629 -0.2457  0.1929 -0.0644
 1577SOL    HW2 6353   2.559   2.352   2.653 -1.8456  1.7043  1.1166
 1577SOL    HW3 6354   2.497   2.282   2.534  1.7972  0.0127  0.1339
 1577SOL    MW4 6355   2.499   2.299   2.619 -0.1872  0.3686  0.1175
 1578SOL     OW 6356   2.256   2.420   2.728  0.0434  0.0786  0.1412
 1578SOL    HW2 6357   2.278   2.429   2.820  1.1438  0.5209 -0.1628
 1578SOL    HW3 6358   2.329   2.372   2.689 -0.9314 -1.0864 -0.2918
 1578SOL    MW4 6359   2.268   2.415   2.735  0.0601 -0.0162  0.0439
 1579SOL     OW 6360   2.220   2.696   2.645  0.5118  0.0837  0.2661
 1579SOL    HW2 6361   2.298   2.740   2.678  0.6193  0.0509  0.0525
 1579SOL    HW3 6362   2.225   2.607   2.679  0.2736  0.2451  0.7349
 1579SOL    MW4 6363   2.231   2.690   2.654  0.4947  0.1004  0.2999
 1580SOL     OW 6364   2.440   2.836   2.746 -1.0516 -0.5127  0.3557
 1580SOL    HW2 6365   2.508   2.798   2.690 -1.2183 -0.8711  0.3949
 1580SOL    HW3 6366   2.440   2.929   2.724  0.0318 -0.3571  0.9505
 1580SOL    MW4 6367   2.449   2.843   2.736 -0.9305 -0.5395  0.4394
 1581SOL     OW 6368   2.478   3.099   2.667  0.1518 -0.3506  0.0804
 1581SOL    HW2 6369   2.395   3.147   2.660  0.5454  0.3884  0.3930
 1581SOL    HW3 6370   2.497   3.071   2.578  0.0874  0.3662 -0.1589
 1581SOL    MW4 6371   2.469   3.102   2.655  0.1955 -0.1583  0.0901
 1582SOL     OW 6372   2.240   3.217   2.673 -1.0562  0.1710  0.1995
 1582SOL    HW2 6373   2.242   3.201   2.768 -0.4142  0.6824  0.2768
 1582SOL    HW3 6374   2.163   3.170   2.642  0.2906 -2.4068  0.5455
 1582SOL    MW4 6375   2.230   3.208   2.682 -0.7937 -0.1018  0.2551
 1583SOL     OW 6376   2.201   3.492   2.611 -0.3847  0.0108  0.2596
 1583SOL    HW2 6377   2.290   3.522   2.631 -0.3457 -0.4552  0.8141
 1583SOL    HW3 6378   2.199   3.402   2.643 -0.7364 -0.3175 -0.6936
 1583SOL    MW4 6379   2.212   3.484   2.618 -0.4261 -0.0942  0.2069
 1584SOL     OW 6380   2.461   3.609   2.682  0.1508  0.1083  0.1775
 1584SOL    HW2 6381   2.471   3.608   2.778  0.6146 -1.9615  0.1266
 1584SOL    HW3 6382   2.485   3.698   2.657 -0.6290  0.8763  2.0518
 1584SOL    MW4 6383   2.466   3.621   2.692  0.1092 -0.0637  0.4179
 1585SOL     OW 6384   2.494   3.882   2.608 -0.0445  0.0700  0.3074
 1585SOL    HW2 6385   2.572   3.926   2.643  0.2472 -1.8858  2.2242
 1585SOL    HW3 6386   2.421   3.938   2.634  0.5921  1.1011 -0.1148
 1585SOL    MW4 6387   2.495   3.895   2.616  0.0782 -0.0520  0.5047
 1586SOL     OW 6388   2.263   4.019   2.683 -0.3836  0.1678  0.6520
 1586SOL    HW2 6389   2.261   4.001   2.777 -1.0937  0.0978  0.6282
 1586SOL    HW3 6390   2.179   3.987   2.651 -0.0213 -0.0899 -0.0611
 1586SOL    MW4 6391   2.252   4.012   2.691 -0.4294  0.1240  0.5550
 1587SOL     OW 6392   2.258   4.295   2.650  0.6697 -0.2753 -0.1465
 1587SOL    HW2 6393   2.278   4.202   2.663 -0.1628 -0.6823 -1.7115
 1587SOL    HW3 6394   2.172   4.307   2.690  0.3223 -0.4179 -0.8402
 1587SOL    MW4 6395   2.249   4.284   2.657  0.5140 -0.3476 -0.4447
 1588SOL     OW 6396   2.479   4.428   2.767 -0.6994 -0.2106 -0.4979
 1588SOL    HW2 6397   2.403   4.390   2.724  0.5130 -0.2736 -2.6767
 1588SOL    HW3 6398   2.489   4.515   2.728 -0.1664  0.1359  0.3908
 1588SOL    MW4 6399   2.471   4.434   2.756 -0.4692 -0.1726 -0.6683
 1589SOL     OW 6400   2.947   0.005   2.616 -0.0292 -0.4324  0.0255
 1589SOL    HW2 6401   3.017   0.064   2.643 -1.4576  1.4663 -0.3003
 1589SOL    HW3 6402   2.948   0.008   2.520  0.9637 -2.2534 -0.0395
 1589SOL    MW4 6403   2.956   0.013   2.607 -0.0865 -0.4221 -0.0260
 1590SOL     OW 6404   2.719   0.145   2.715  0.1079  0.1548 -0.2241
 1590SOL    HW2 6405   2.718   0.125   2.809  0.2623  0.7468 -0.0981
 1590SOL    HW3 6406   2.791   0.091   2.680 -0.0805 -0.2199 -0.0405
 1590SOL    MW4 6407   2.729   0.135   2.723  0.1032  0.1835 -0.1831
 1591SOL     OW 6408   2.691   0.405   2.622  0.4618 -0.6149 -0.2054
 1591SOL    HW2 6409   2.697   0.317   2.659 -1.8490 -0.8436 -0.2800
 1591SOL    HW3 6410   2.603   0.435   2.646  0.8188  1.2522 -1.1193
 1591SOL    MW4 6411   2.680   0.397   2.630  0.2041 -0.3988 -0.3355
 1592SOL     OW 6412   2.948   0.488   2.695 -0.2859  0.1631 -0.0000
 1592SOL    HW2 6413   2.946   0.583   2.696  0.5534  0.1797  0.9260
 1592SOL    HW3 6414   2.868   0.462   2.650 -0.1465  1.3167 -0.9317
 1592SOL    MW4 6415   2.937   0.497   2.689 -0.1566  0.3175 -0.0010
 1593SOL     OW 6416   2.926   0.768   2.660  0.0636 -0.5083 -0.3453
 1593SOL    HW2 6417   3.005   0.814   2.685  0.8274 -2.0703  0.1780
 1593SOL    HW3 6418   2.854   0.827   2.684  1.0022  0.2962  0.5047
 1593SOL    MW4 6419   2.927   0.782   2.666  0.2880 -0.6082 -0.1640
 1594SOL     OW 6420   2.709   0.927   2.715 -0.2286 -0.2670 -0.2535
 1594SOL    HW2 6421   2.710   0.911   2.810  0.1488 -1.7949 -0.5048
 1594SOL    HW3 6422   2.642   0.868   2.681  0.1898 -0.3037 -1.0319
 1594SOL    MW4 6423   2.700   0.917   2.723 -0.1235 -0.4734 -0.3893
 1595SOL     OW 6424   2.691   1.189   2.622 -0.3932 -0.4305  0.4041
 1595SOL    HW2 6425   2.762   1.246   2.652  0.7430 -1.2024 -0.7737
 1595SOL    HW3 6426   2.711   1.103   2.659 -0.1332 -0.8983 -0.8071
 1595SOL    MW4 6427   2.703   1.185   2.631 -0.2091 -0.5941  0.0887
 1596SOL     OW 6428   2.924   1.310   2.732  0.1037  0.1225 -0.0418
 1596SOL    HW2 6429   2.912   1.308   2.826 -2.5764 -1.2235 -0.3546
 1596SOL    HW3 6430   2.987   1.240   2.714  1.9594  1.5267  0.8744
 1596SOL    MW4 6431   2.931   1.300   2.742 -0.0050  0.1303  0.0377
 1597SOL     OW 6432   2.934   1.566   2.626 -0.4335  0.3618 -0.3052
 1597SOL    HW2 6433   2.843   1.586   2.647 -0.6627 -0.2263 -0.7188
 1597SOL    HW3 6434   2.945   1.474   2.648  0.5783  0.8684  1.4436
 1597SOL    MW4 6435   2.924   1.557   2.631 -0.3302  0.3510 -0.1287
 1598SOL     OW 6436   2.680   1.649   2.711 -0.3456  0.1365  0.1998
 1598SOL    HW2 6437   2.696   1.635   2.804 -0.5647 -2.1410 -0.0642
 1598SOL    HW3 6438   2.596   1.606   2.695  0.4448 -0.8547 -1.3506
 1598SOL    MW4 6439   2.671   1.641   2.721 -0.2704 -0.2949 -0.0396
 1599SOL     OW 6440   2.715   1.922   2.633  0.4151 -0.0097 -0.3590
 1599SOL    HW2 6441   2.703   1.831   2.661  0.1070 -0.4339 -1.8571
 1599SOL    HW3 6442   2.629   1.962   2.648  0.5030  0.0015  0.1412
 1599SOL    MW4 6443   2.702   1.915   2.639  0.3862 -0.0644 -0.4907
 1600SOL     OW 6444   2.925   2.079   2.746 -0.0142 -0.4480  0.2886
 1600SOL    HW2 6445   2.907   2.160   2.698 -0.8389 -1.6439 -1.4741
 1600SOL    HW3 6446   2.851   2.022   2.726  0.9505 -1.9355  0.8599
 1600SOL    MW4 6447   2.913   2.083   2.737  0.0043 -0.8020  0.1311
 1601SOL     OW 6448   2.912   2.327   2.590  0.2887  0.0512 -0.7193
 1601SOL    HW2 6449   2.987   2.364   2.637 -0.0226 -0.0473 -0.1345
 1601SOL    HW3 6450   2.837   2.375   2.624 -0.0280 -0.5624 -0.5404
 1601SOL    MW4 6451   2.912   2.338   2.601  0.2060 -0.0424 -0.6185
 1602SOL     OW 6452   2.705   2.478   2.687  0.1197  0.3351  0.5830
 1602SOL    HW2 6453   2.700   2.477   2.782 -1.3443  0.6638  0.5212
 1602SOL    HW3 6454   2.692   2.570   2.663  2.3052  0.5556  0.1420
 1602SOL    MW4 6455   2.703   2.490   2.696  0.2151  0.4075  0.5169
 1603SOL     OW 6456   2.652   2.751   2.600 -0.1390 -0.0841 -0.4377
 1603SOL    HW2 6457   2.737   2.793   2.615 -0.5093  0.6938 -0.4547
 1603SOL    HW3 6458   2.656   2.719   2.510  0.7311 -1.4972  0.0894
 1603SOL    MW4 6459   2.663   2.753   2.590 -0.0727 -0.1681 -0.3705
 1604SOL     OW 6460   2.905   2.846   2.712  0.2894  0.2498 -0.2974
 1604SOL    HW2 6461   2.908   2.839   2.808  1.1137 -1.2428 -0.4127
 1604SOL    HW3 6462   2.906   2.940   2.695  1.9249  0.5168  1.1276
 1604SOL    MW4 6463   2.905   2.858   2.723  0.6139  0.0882 -0.1245
 1605SOL     OW 6464   2.945   3.115   2.651 -0.1665 -0.3392 -0.1148
 1605SOL    HW2 6465   2.863   3.159   2.675  0.3811  0.4083  0.4005
 1605SOL    HW3 6466   2.938   3.102   2.556 -1.1117 -0.7692  0.0035
 1605SOL    MW4 6467   2.933   3.119   2.641 -0.2191 -0.2971 -0.0315
 1606SOL     OW 6468   2.714   3.219   2.727 -0.0555  0.4396 -0.2772
 1606SOL    HW2 6469   2.699   3.313   2.719 -0.8874  0.2727 -0.6704
 1606SOL    HW3 6470   2.634   3.178   2.694  0.1988 -0.4040  0.1282
 1606SOL    MW4 6471   2.702   3.226   2.722 -0.1316  0.3061 -0.2756
 1607SOL     OW 6472   2.703   3.477   2.658  0.0950  0.0711 -0.7407
 1607SOL    HW2 6473   2.613   3.508   2.663 -0.6688 -1.9928 -1.0887
 1607SOL    HW3 6474   2.719   3.464   2.564  0.5750 -0.0710 -0.6417
 1607SOL    MW4 6475   2.693   3.479   2.646  0.0575 -0.2201 -0.7737
 1608SOL     OW 6476   2.915   3.628   2.757  0.2538  0.1648 -0.6130
 1608SOL    HW2 6477   2.926   3.622   2.852  0.9104 -1.5096 -0.7673
 1608SOL    HW3 6478   2.835   3.580   2.738  1.2160 -1.2908 -1.0949
 1608SOL    MW4 6479   2.906   3.621   2.767  0.4673 -0.2480 -0.6967
 1609SOL     OW 6480   2.884   3.847   2.604  0.3736  0.3278  0.1330
 1609SOL    HW2 6481   2.963   3.899   2.618  1.8223 -1.3787 -1.3824
 1609SOL    HW3 6482   2.900   3.765   2.650  0.3329 -0.7937 -1.7966
 1609SOL    MW4 6483   2.896   3.843   2.612  0.5593 -0.0453 -0.3214
 1610SOL     OW 6484   2.694   4.018   2.737  0.1819  0.5425  0.2256
 1610SOL    HW2 6485   2.723   4.105   2.707  0.7401  1.0373  2.1478
 1610SOL    HW3 6486   2.758   3.958   2.698  1.1773  1.2187  0.7929
 1610SOL    MW4 6487   2.707   4.021   2.728  0.3867  0.6967  0.5541
 1611SOL     OW 6488   2.704   4.289   2.646  0.0989  0.0540  0.2105
 1611SOL    HW2 6489   2.776   4.337   2.687  0.4341 -1.7775  1.8650
 1611SOL    HW3 6490   2.626   4.315   2.695  0.4416 -1.8381  1.8383
 1611SOL    MW4 6491   2.703   4.299   2.658  0.1884 -0.4368  0.6435
 1612SOL     OW 6492   2.922   4.410   2.734 -0.4752 -0.2409  0.0515
 1612SOL    HW2 6493   2.909   4.423   2.827  0.4009 -0.8636  0.2637
 1612SOL    HW3 6494   2.916   4.497   2.696 -0.5818  0.0429  0.7207
 1612SOL    MW4 6495   2.919   4.423   2.741 -0.3738 -0.2856  0.1676
 1613SOL     OW 6496   3.381   4.661   2.639 -0.3675  0.2029 -0.1369
 1613SOL    HW2 6497   3.373   4.572   2.673  1.0861  0.5440  1.1826
 1613SOL    HW3 6498   3.313   4.710   2.685 -0.3003  0.0464  0.1321
 1613SOL    MW4 6499   3.371   4.656   2.650 -0.1671  0.2270  0.0727
 1614SOL     OW 6500   3.177   0.135   2.765  0.2159 -0.2418  0.2150
 1614SOL    HW2 6501   3.168   0.153   2.858  0.6610 -0.0113  0.2142
 1614SOL    HW3 6502   3.161   0.219   2.721 -0.1216 -0.3762  0.0737
 1614SOL    MW4 6503   3.174   0.148   2.771  0.2301 -0.2291  0.1965
 1615SOL     OW 6504   3.195   0.373   2.627  0.1583 -0.0739 -0.3174
 1615SOL    HW2 6505   3.114   0.421   2.641 -0.2346 -0.8302  0.0069
 1615SOL    HW3 6506   3.205   0.368   2.532 -0.0135  0.2925 -0.3526
 1615SOL    MW4 6507   3.186   0.379   2.617  0.0837 -0.1253 -0.2792
 1616SOL     OW 6508   3.401   0.503   2.749 -0.0750  0.1991 -0.0616
 1616SOL    HW2 6509   3.389   0.591   2.712  0.2033  0.4152  0.3704
 1616SOL    HW3 6510   3.323   0.455   2.720  0.0455  0.4184 -0.7799
 1616SOL    MW4 6511   3.389   0.509   2.740 -0.0224  0.2565 -0.0992
 1617SOL     OW 6512   3.372   0.746   2.643  0.3837 -0.1311 -0.3186
 1617SOL    HW2 6513   3.442   0.798   2.682  1.0098 -0.8213 -0.5081
 1617SOL    HW3 6514   3.379   0.763   2.549 -0.2559  0.4772 -0.2535
 1617SOL    MW4 6515   3.382   0.755   2.635  0.3819 -0.1419 -0.3350
 1618SOL     OW 6516   3.154   0.887   2.732 -0.0776  0.3501  0.4915
 1618SOL    HW2 6517   3.168   0.869   2.825  0.3065 -0.7227  0.2299
 1618SOL    HW3 6518   3.229   0.847   2.688  0.1528  1.5529 -0.2169
 1618SOL    MW4 6519   3.165   0.879   2.739  0.0036  0.3673  0.3636
 1619SOL     OW 6520   3.134   1.150   2.653 -0.2194  0.4559 -0.1591
 1619SOL    HW2 6521   3.135   1.063   2.692  0.0601  0.1766 -0.7876
 1619SOL    HW3 6522   3.139   1.135   2.559  2.7008  1.1903 -0.1886
 1619SOL    MW4 6523   3.135   1.137   2.646  0.2027  0.5158 -0.2460
 1620SOL     OW 6524   3.358   1.299   2.701  0.2173 -0.0822 -0.1926
 1620SOL    HW2 6525   3.357   1.309   2.796  0.4578  1.3861 -0.3357
 1620SOL    HW3 6526   3.279   1.248   2.681 -0.0140 -0.0961  0.7616
 1620SOL    MW4 6527   3.347   1.294   2.711  0.2186  0.1098 -0.0856
 1621SOL     OW 6528   3.371   1.577   2.638  0.3016 -0.1431 -0.7551
 1621SOL    HW2 6529   3.293   1.617   2.677  1.3193  0.0016  1.1543
 1621SOL    HW3 6530   3.364   1.485   2.661  0.4244 -0.2231 -1.0390
 1621SOL    MW4 6531   3.360   1.570   2.646  0.4520 -0.1346 -0.5405
 1622SOL     OW 6532   3.151   1.685   2.749 -0.3320 -0.5129  0.1364
 1622SOL    HW2 6533   3.149   1.777   2.723  0.3480 -0.4440  0.3158
 1622SOL    HW3 6534   3.074   1.647   2.706  0.0160 -0.1111 -0.8736
 1622SOL    MW4 6535   3.140   1.692   2.740 -0.1962 -0.4507  0.0267
 1623SOL     OW 6536   3.126   1.931   2.642  0.0040 -0.3988 -0.3903
 1623SOL    HW2 6537   3.201   1.971   2.686  0.3579  0.2682 -1.6072
 1623SOL    HW3 6538   3.051   1.983   2.671  0.1790 -0.2316 -0.2356
 1623SOL    MW4 6539   3.126   1.943   2.652  0.0737 -0.2887 -0.5307
 1624SOL     OW 6540   3.376   2.072   2.731 -0.0411  0.5672  0.5675
 1624SOL    HW2 6541   3.391   2.077   2.826  0.6900  0.8693  0.4337
 1624SOL    HW3 6542   3.370   2.163   2.703  1.8076  0.5226 -0.0091
 1624SOL    MW4 6543   3.377   2.085   2.740  0.2992  0.6013  0.4737
 1625SOL     OW 6544   3.357   2.337   2.643  0.0359 -0.5743  0.4683
 1625SOL    HW2 6545   3.427   2.400   2.661 -0.9644  0.5080  0.6169
 1625SOL    HW3 6546   3.351   2.334   2.548  1.6572 -2.2225  0.3840
 1625SOL    MW4 6547   3.365   2.345   2.633  0.1175 -0.6487  0.4771
 1626SOL     OW 6548   3.121   2.426   2.752 -0.2880 -0.6912  0.0253
 1626SOL    HW2 6549   3.097   2.513   2.720 -0.4727 -0.4123  0.9092
 1626SOL    HW3 6550   3.192   2.399   2.694 -0.5334 -0.1459 -0.5464
 1626SOL    MW4 6551   3.127   2.434   2.740 -0.3448 -0.5822  0.0668
 1627SOL     OW 6552   3.089   2.657   2.632 -0.2191  0.4521  0.2781
 1627SOL    HW2 6553   3.161   2.708   2.670 -0.2171 -0.1609  1.0977
 1627SOL    HW3 6554   3.011   2.711   2.647 -0.1753  0.3503  0.8833
 1627SOL    MW4 6555   3.089   2.671   2.639 -0.2131  0.3579  0.4659
 1628SOL     OW 6556   3.334   2.785   2.742 -0.0666  0.5435  0.0510
 1628SOL    HW2 6557   3.346   2.788   2.837 -0.1355 -1.7433  0.1502
 1628SOL    HW3 6558   3.419   2.758   2.707 -0.1148  1.1167 -0.5246
 1628SOL    MW4 6559   3.347   2.782   2.750 -0.0818  0.3173 -0.0114
 1629SOL     OW 6560   3.356   3.055   2.659  0.2294 -0.0011 -0.2243
 1629SOL    HW2 6561   3.345   2.965   2.690  0.7643 -0.6867 -1.9783
 1629SOL    HW3 6562   3.350   3.049   2.564  0.3979  1.8040 -0.3707
 1629SOL    MW4 6563   3.354   3.043   2.651  0.3221  0.1464 -0.4749
 1630SOL     OW 6564   3.157   3.254   2.745 -0.1010  0.0867 -0.0606
 1630SOL    HW2 6565   3.232   3.198   2.723  0.3182  0.6492 -0.0686
 1630SOL    HW3 6566   3.081   3.205   2.714 -0.0680 -2.2001  3.1353
 1630SOL    MW4 6567   3.157   3.240   2.738 -0.0415 -0.1409  0.3603
 1631SOL     OW 6568   3.075   3.479   2.591  0.3247  0.0354  0.1371
 1631SOL    HW2 6569   3.109   3.404   2.640  0.2206  0.0113  0.1734
 1631SOL    HW3 6570   3.021   3.527   2.655 -2.0339 -1.4707 -0.6660
 1631SOL    MW4 6571   3.072   3.476   2.606  0.0000 -0.1669  0.0358
 1632SOL     OW 6572   3.337   3.591   2.724 -0.1548  0.5305 -0.1739
 1632SOL    HW2 6573   3.343   3.599   2.819  0.3407 -0.1877 -0.1426
 1632SOL    HW3 6574   3.258   3.539   2.709 -1.2284  2.1342 -0.2321
 1632SOL    MW4 6575   3.328   3.586   2.735 -0.2308  0.6471 -0.1774
 1633SOL     OW 6576   3.305   3.855   2.661  0.3356 -0.3921 -0.1025
 1633SOL    HW2 6577   3.308   3.760   2.672  1.2268 -0.3440  0.1544
 1633SOL    HW3 6578   3.312   3.868   2.567  2.8691 -0.5155  0.0357
 1633SOL    MW4 6579   3.306   3.844   2.650  0.7875 -0.4020 -0.0505
 1634SOL     OW 6580   3.093   4.006   2.716  0.4209  0.4492  0.1873
 1634SOL    HW2 6581   3.113   4.099   2.708 -1.3858  0.7661 -0.6995
 1634SOL    HW3 6582   3.177   3.962   2.702  0.9074  1.8474 -1.3930
 1634SOL    MW4 6583   3.107   4.013   2.713  0.2468  0.6752 -0.1383
 1635SOL     OW 6584   3.165   4.272   2.659 -0.0461 -0.2464 -0.3214
 1635SOL    HW2 6585   3.089   4.325   2.683 -0.4926 -1.2936  0.6399
 1635SOL    HW3 6586   3.163   4.270   2.563 -1.7094 -0.9299 -0.2996
 1635SOL    MW4 6587   3.154   4.279   2.649 -0.3242 -0.4749 -0.1917
 1636SOL     OW 6588   3.393   4.383   2.743 -0.2474  0.2984 -0.0608
 1636SOL    HW2 6589   3.378   4.392   2.837  1.3495 -2.2886  0.4838
 1636SOL    HW3 6590   3.321   4.328   2.713  0.3067 -0.4796  0.0177
 1636SOL    MW4 6591   3.381   4.377   2.752  0.0367 -0.1459  0.0215
 1637SOL     OW 6592   3.837   4.628   2.620  0.2571  0.3006  0.2229
 1637SOL    HW2 6593   3.824   4.543   2.664 -0.9992  0.1578 -0.3801
 1637SOL    HW3 6594   3.759   4.678   2.644  0.3590  0.8063 -0.5139
 1637SOL    MW4 6595   3.825   4.623   2.629  0.1047  0.3481  0.0460
 1638SOL     OW 6596   3.617   0.112   2.736 -0.4190  0.5501 -0.0369
 1638SOL    HW2 6597   3.615   0.197   2.693 -1.0567  0.5961  0.0869
 1638SOL    HW3 6598   3.531   0.073   2.719 -0.9812  0.8925  1.8370
 1638SOL    MW4 6599   3.606   0.118   2.728 -0.5774  0.6014  0.2265
 1639SOL     OW 6600   3.598   0.358   2.624  0.1622 -0.6729  0.6885
 1639SOL    HW2 6601   3.678   0.398   2.656 -0.4315 -0.2580  1.6835
 1639SOL    HW3 6602   3.527   0.410   2.662 -0.5987  1.5183 -3.4657
 1639SOL    MW4 6603   3.599   0.370   2.634 -0.0167 -0.3290  0.2716
 1640SOL     OW 6604   3.814   0.483   2.695  0.3725  0.1728  0.1811
 1640SOL    HW2 6605   3.816   0.471   2.790 -0.0316  1.4912  0.3682
 1640SOL    HW3 6606   3.883   0.425   2.662 -1.2528 -2.3020  1.0196
 1640SOL    MW4 6607   3.824   0.474   2.703  0.1049  0.0202  0.3164
 1641SOL     OW 6608   3.828   0.757   2.630 -0.2936  0.1483  0.1997
 1641SOL    HW2 6609   3.749   0.804   2.658 -1.2459 -0.8998 -0.6826
 1641SOL    HW3 6610   3.820   0.671   2.670  0.5390  0.1186  0.3144
 1641SOL    MW4 6611   3.817   0.752   2.639 -0.3095  0.0061  0.0982
 1642SOL     OW 6612   3.600   0.874   2.745 -0.1396 -0.1160  0.7206
 1642SOL    HW2 6613   3.610   0.890   2.839 -1.9053  0.9563  0.7501
 1642SOL    HW3 6614   3.617   0.959   2.705 -0.7533 -0.2401  0.1869
 1642SOL    MW4 6615   3.603   0.887   2.752 -0.4535  0.0091  0.6540
 1643SOL     OW 6616   3.577   1.146   2.650 -0.5419  0.5037  0.1063
 1643SOL    HW2 6617   3.645   1.190   2.701 -0.1682 -0.0220  0.0626
 1643SOL    HW3 6618   3.496   1.191   2.675 -0.4552 -0.1374  1.6137
 1643SOL    MW4 6619   3.575   1.158   2.660 -0.4814  0.3498  0.2992
 1644SOL     OW 6620   3.815   1.255   2.738 -0.2913  0.0837 -0.3454
 1644SOL    HW2 6621   3.901   1.219   2.716  0.4347  1.3882  0.2894
 1644SOL    HW3 6622   3.811   1.338   2.691 -0.5390  0.7901  0.9009
 1644SOL    MW4 6623   3.826   1.261   2.729 -0.2282  0.3490 -0.0973
 1645SOL     OW 6624   3.791   1.500   2.611  0.1213  0.6859  0.1491
 1645SOL    HW2 6625   3.877   1.524   2.646  0.6520 -1.7788  0.6546
 1645SOL    HW3 6626   3.730   1.560   2.654  1.1946  0.1185  2.5462
 1645SOL    MW4 6627   3.794   1.511   2.622  0.3331  0.2859  0.5322
 1646SOL     OW 6628   3.622   1.687   2.729 -0.5024  0.0771  0.8949
 1646SOL    HW2 6629   3.631   1.781   2.713 -1.2019 -0.0214 -0.1719
 1646SOL    HW3 6630   3.548   1.661   2.673 -1.6816 -0.7079  2.7800
 1646SOL    MW4 6631   3.613   1.696   2.719 -0.7501 -0.0393  1.0030
 1647SOL     OW 6632   3.612   1.944   2.643 -0.6737 -0.5797  0.0784
 1647SOL    HW2 6633   3.538   1.999   2.667 -0.0840  0.1450  0.2594
 1647SOL    HW3 6634   3.605   1.936   2.548  0.2870  1.3726 -0.1885
 1647SOL    MW4 6635   3.601   1.950   2.633 -0.4692 -0.2264  0.0672
 1648SOL     OW 6636   3.866   2.082   2.711  0.0735 -0.3636  0.2409
 1648SOL    HW2 6637   3.937   2.019   2.696  0.7205  0.5988 -0.8107
 1648SOL    HW3 6638   3.786   2.035   2.689  0.4558 -1.1630  0.5367
 1648SOL    MW4 6639   3.865   2.068   2.706  0.2091 -0.3421  0.1411
 1649SOL     OW 6640   3.801   2.346   2.636  0.4514 -0.5309  0.0033
 1649SOL    HW2 6641   3.825   2.254   2.649  3.4102  0.1487 -0.1951
 1649SOL    HW3 6642   3.809   2.359   2.541  0.9600  0.1739  0.1447
 1649SOL    MW4 6643   3.805   2.336   2.625  0.9089 -0.3483 -0.0043
 1650SOL     OW 6644   3.573   2.477   2.733  0.3976 -0.0570  0.1722
 1650SOL    HW2 6645   3.581   2.485   2.828  0.8747 -0.5211  0.1730
 1650SOL    HW3 6646   3.648   2.423   2.707 -0.5679 -1.1870 -0.2946
 1650SOL    MW4 6647   3.584   2.471   2.742  0.3331 -0.2673  0.1106
 1651SOL     OW 6648   3.584   2.739   2.647 -0.3933  0.3826 -0.3057
 1651SOL    HW2 6649   3.570   2.646   2.665 -1.6966  0.5618 -0.3068
 1651SOL    HW3 6650   3.588   2.745   2.551 -2.0362  0.5344 -0.3840
 1651SOL    MW4 6651   3.583   2.728   2.636 -0.7820  0.4261 -0.3161
 1652SOL     OW 6652   3.818   2.867   2.727  0.2614 -0.4967  0.0239
 1652SOL    HW2 6653   3.884   2.810   2.689  1.0016 -0.4517  1.1939
 1652SOL    HW3 6654   3.735   2.825   2.708  0.7174 -1.2158 -0.3719
 1652SOL    MW4 6655   3.816   2.854   2.720  0.4191 -0.5858  0.1261
 1653SOL     OW 6656   3.771   3.124   2.623  0.3366 -0.3073  0.2562
 1653SOL    HW2 6657   3.691   3.160   2.662  0.9022  0.4306  0.7505
 1653SOL    HW3 6658   3.779   3.037   2.662 -0.6433 -0.6895 -0.3844
 1653SOL    MW4 6659   3.761   3.117   2.634  0.2818 -0.2601  0.2370
 1654SOL     OW 6660   3.549   3.247   2.768  0.6364  0.2178 -0.1994
 1654SOL    HW2 6661   3.564   3.329   2.721  0.3028  1.5130  1.9330
 1654SOL    HW3 6662   3.489   3.198   2.711  1.1337  1.2593 -1.6661
 1654SOL    MW4 6663   3.543   3.251   2.754  0.6580  0.5260 -0.1118
 1655SOL     OW 6664   3.584   3.476   2.601 -0.1875 -0.2078  0.1239
 1655SOL    HW2 6665   3.656   3.514   2.652  0.1000 -0.3003 -0.2156
 1655SOL    HW3 6666   3.505   3.518   2.636 -0.0420 -0.6443  1.0011
 1655SOL    MW4 6667   3.583   3.486   2.613 -0.1302 -0.2775  0.1950
 1656SOL     OW 6668   3.807   3.615   2.745  0.0648  0.2576 -0.0300
 1656SOL    HW2 6669   3.883   3.568   2.710  0.4701  1.7791 -1.2172
 1656SOL    HW3 6670   3.788   3.682   2.680 -1.2677  0.9616  1.0703
 1656SOL    MW4 6671   3.815   3.618   2.732 -0.0577  0.5512 -0.0415
 1657SOL     OW 6672   3.762   3.854   2.617 -0.2290 -0.0990  0.0185
 1657SOL    HW2 6673   3.847   3.888   2.646 -0.5388  2.4718 -1.9508
 1657SOL    HW3 6674   3.698   3.896   2.674 -0.3392 -0.5980  0.2708
 1657SOL    MW4 6675   3.765   3.864   2.628 -0.2842  0.1743 -0.2081
 1658SOL     OW 6676   3.557   3.946   2.757  0.0032 -0.0598 -0.2285
 1658SOL    HW2 6677   3.568   4.034   2.723  0.2316 -0.5210 -1.3663
 1658SOL    HW3 6678   3.476   3.914   2.717 -0.6891  0.0372  1.0659
 1658SOL    MW4 6679   3.548   3.953   2.748 -0.0582 -0.1078 -0.2077
 1659SOL     OW 6680   3.591   4.206   2.666  0.2489 -0.5376  0.0517
 1659SOL    HW2 6681   3.532   4.270   2.705  0.8312 -0.3344  0.6122
 1659SOL    HW3 6682   3.595   4.231   2.574 -0.1526 -0.2485  0.1112
 1659SOL    MW4 6683   3.584   4.218   2.659  0.2728 -0.4725  0.1333
 1660SOL     OW 6684   3.803   4.385   2.748  0.3638  0.1707  0.1305
 1660SOL    HW2 6685   3.882   4.351   2.706  0.1409  1.0902 -1.0702
 1660SOL    HW3 6686   3.734   4.323   2.724  0.1128  1.0096 -1.4219
 1660SOL    MW4 6687   3.804   4.373   2.739  0.3014  0.4025 -0.2329
 1661SOL     OW 6688   4.304   4.627   2.658  0.0247 -0.1647  0.3425
 1661SOL    HW2 6689   4.234   4.683   2.694  0.7521  1.5700 -0.8666
 1661SOL    HW3 6690   4.385   4.674   2.679  0.6914 -1.1057 -0.1193
 1661SOL    MW4 6691   4.305   4.641   2.666  0.2089 -0.0596  0.1221
 1662SOL     OW 6692   4.070   0.065   2.751  0.0241  0.3016 -0.0364
 1662SOL    HW2 6693   4.051   0.086   2.842  0.3059 -0.6309  0.2398
 1662SOL    HW3 6694   3.986   0.043   2.712 -0.0340  0.2793  0.1038
 1662SOL    MW4 6695   4.057   0.065   2.758  0.0534  0.1756  0.0188
 1663SOL     OW 6696   4.066   0.328   2.625  0.1595 -0.1243  0.3702
 1663SOL    HW2 6697   4.058   0.242   2.666 -0.9493 -0.5739 -0.7708
 1663SOL    HW3 6698   4.085   0.309   2.533 -1.3753  0.8232 -0.1544
 1663SOL    MW4 6699   4.067   0.314   2.619 -0.1888 -0.0586  0.1502
 1664SOL     OW 6700   4.260   0.490   2.748 -0.2969  0.0970  0.2529
 1664SOL    HW2 6701   4.197   0.428   2.711 -0.5826  0.2201  0.5313
 1664SOL    HW3 6702   4.345   0.450   2.731 -0.3269  0.8651 -1.8776
 1664SOL    MW4 6703   4.263   0.477   2.741 -0.3386  0.2145  0.0086
 1665SOL     OW 6704   4.274   0.764   2.669 -0.2760  0.1554  0.0571
 1665SOL    HW2 6705   4.264   0.674   2.698  1.1220  0.0978  0.3947
 1665SOL    HW3 6706   4.295   0.756   2.575  1.0525  0.0649  0.3549
 1665SOL    MW4 6707   4.275   0.751   2.660  0.0839  0.1358  0.1409
 1666SOL     OW 6708   4.035   0.849   2.776  0.9966 -0.0232  0.1589
 1666SOL    HW2 6709   4.120   0.813   2.751  0.5363  0.0769 -1.6344
 1666SOL    HW3 6710   3.973   0.807   2.716  0.0720  1.5319  0.0063
 1666SOL    MW4 6711   4.038   0.838   2.764  0.8144  0.1952 -0.0978
 1667SOL     OW 6712   4.061   1.101   2.647 -0.2630 -0.3801 -0.0815
 1667SOL    HW2 6713   4.142   1.137   2.681  0.0213 -0.3290 -0.7914
 1667SOL    HW3 6714   4.052   1.017   2.691 -1.2707  0.8242  2.0652
 1667SOL    MW4 6715   4.071   1.095   2.657 -0.3591 -0.2145  0.1080
 1668SOL     OW 6716   4.267   1.234   2.752  0.5314 -0.0617  0.1710
 1668SOL    HW2 6717   4.247   1.318   2.711  0.1553 -0.3662 -0.2770
 1668SOL    HW3 6718   4.349   1.207   2.711 -0.7544 -1.2186 -1.7288
 1668SOL    MW4 6719   4.275   1.242   2.741  0.3123 -0.2546 -0.1385
 1669SOL     OW 6720   4.285   1.506   2.662 -0.0233 -0.1913  0.1262
 1669SOL    HW2 6721   4.359   1.558   2.694 -0.2505  0.4240 -0.3359
 1669SOL    HW3 6722   4.286   1.520   2.567 -0.2486 -0.8202  0.0285
 1669SOL    MW4 6723   4.295   1.514   2.654 -0.0830 -0.1930  0.0520
 1670SOL     OW 6724   4.035   1.592   2.726 -0.2135  0.3507  0.2094
 1670SOL    HW2 6725   4.037   1.618   2.818 -0.5582 -0.6087  0.4880
 1670SOL    HW3 6726   4.124   1.559   2.709 -0.2379  0.2537  0.2727
 1670SOL    MW4 6727   4.047   1.591   2.736 -0.2618  0.2114  0.2546
 1671SOL     OW 6728   4.060   1.887   2.642  0.4221  0.1921  0.0226
 1671SOL    HW2 6729   4.117   1.938   2.700 -0.2384  0.2660  0.6239
 1671SOL    HW3 6730   4.050   1.803   2.686 -0.0615  0.2374 -0.0016
 1671SOL    MW4 6731   4.066   1.883   2.656  0.2713  0.2078  0.0989
 1672SOL     OW 6732   4.253   2.050   2.770 -0.2522 -0.2011 -0.2711
 1672SOL    HW2 6733   4.258   2.141   2.742  0.3661 -0.0587  0.2973
 1672SOL    HW3 6734   4.323   2.006   2.722  0.7862  0.0368  1.0065
 1672SOL    MW4 6735   4.263   2.056   2.760 -0.0339 -0.1509 -0.0274
 1673SOL     OW 6736   4.262   2.308   2.669  0.5420 -0.2001  0.5416
 1673SOL    HW2 6737   4.181   2.358   2.684  0.5754 -0.0553  0.2490
 1673SOL    HW3 6738   4.267   2.298   2.574  0.3482 -1.0803  0.6197
 1673SOL    MW4 6739   4.252   2.313   2.658  0.5207 -0.2973  0.5133
 1674SOL     OW 6740   4.034   2.445   2.718  0.0329  0.0485 -0.4695
 1674SOL    HW2 6741   4.047   2.441   2.813  0.7090  2.9883 -0.3728
 1674SOL    HW3 6742   3.951   2.401   2.703  0.7325 -1.9640  1.2563
 1674SOL    MW4 6743   4.025   2.439   2.728  0.2146  0.1712 -0.2289
 1675SOL     OW 6744   4.022   2.695   2.619  0.6789  0.1736 -0.2739
 1675SOL    HW2 6745   4.101   2.731   2.659  1.3841  0.2482 -1.7043
 1675SOL    HW3 6746   4.018   2.604   2.649  1.0071  0.3362  0.2452
 1675SOL    MW4 6747   4.032   2.688   2.628  0.8154  0.2048 -0.3941
 1676SOL     OW 6748   4.253   2.809   2.717  0.0531  0.0728 -0.1620
 1676SOL    HW2 6749   4.246   2.823   2.812  0.4280 -1.7519  0.1400
 1676SOL    HW3 6750   4.246   2.897   2.680 -2.7064  0.5798  1.4128
 1676SOL    MW4 6751   4.251   2.822   2.725 -0.2613 -0.1011  0.0856
 1677SOL     OW 6752   4.266   3.087   2.627 -0.0616  0.5916 -0.0348
 1677SOL    HW2 6753   4.183   3.119   2.663  0.9595  2.8911  0.4034
 1677SOL    HW3 6754   4.258   3.100   2.533 -1.2893 -1.9089 -0.3054
 1677SOL    MW4 6755   4.254   3.093   2.620 -0.0892  0.5651 -0.0129
 1678SOL     OW 6756   4.014   3.231   2.679  0.6238  0.0684 -0.0404
 1678SOL    HW2 6757   4.019   3.321   2.647 -0.3980  0.9654  2.2034
 1678SOL    HW3 6758   3.927   3.201   2.653 -0.0109  0.6202  1.4469
 1678SOL    MW4 6759   4.003   3.239   2.671  0.4048  0.2594  0.4516
 1679SOL     OW 6760   4.032   3.513   2.622 -0.4193 -0.1305 -0.3296
 1679SOL    HW2 6761   4.124   3.518   2.647 -0.7062 -1.1300  0.9703
 1679SOL    HW3 6762   4.034   3.493   2.528  0.6866  0.1117 -0.3670
 1679SOL    MW4 6763   4.044   3.511   2.613 -0.3114 -0.2303 -0.1628
 1680SOL     OW 6764   4.283   3.583   2.737  0.1010  0.1639 -0.3830
 1680SOL    HW2 6765   4.288   3.600   2.831 -0.2446 -1.2393 -0.1071
 1680SOL    HW3 6766   4.367   3.543   2.716 -0.1900 -0.3878 -0.4925
 1680SOL    MW4 6767   4.294   3.580   2.747  0.0172 -0.0939 -0.3610
 1681SOL     OW 6768   4.250   3.880   2.638  0.1140  0.2105  0.2176
 1681SOL    HW2 6769   4.247   3.798   2.686  0.2099 -0.2833 -0.6079
 1681SOL    HW3 6770   4.317   3.932   2.683 -0.9780  0.4166  1.6322
 1681SOL    MW4 6771   4.258   3.876   2.650 -0.0167  0.1726  0.2956
 1682SOL     OW 6772   4.012   4.024   2.701  0.2688  0.3364 -0.5212
 1682SOL    HW2 6773   4.013   4.033   2.797 -1.0640 -1.1708 -0.3453
 1682SOL    HW3 6774   4.097   3.985   2.681  0.3538  0.1895  0.0988
 1682SOL    MW4 6775   4.024   4.020   2.711  0.1040  0.1192 -0.4165
 1683SOL     OW 6776   4.026   4.283   2.607 -0.0791  0.3656  0.4093
 1683SOL    HW2 6777   4.020   4.190   2.629  1.5152  0.3040  0.6270
 1683SOL    HW3 6778   4.031   4.284   2.511  0.9236  0.1574  0.4537
 1683SOL    MW4 6779   4.026   4.271   2.597  0.2637  0.3295  0.4439
 1684SOL     OW 6780   4.286   4.363   2.725  0.3155 -0.0273  0.0923
 1684SOL    HW2 6781   4.204   4.337   2.684 -0.3533  1.0600  0.7251
 1684SOL    HW3 6782   4.296   4.455   2.702  0.7491  0.1616  1.0166
 1684SOL    MW4 6783   4.277   4.372   2.717  0.2847  0.1407  0.2978
 1685SOL     OW 6784   0.249   4.646   3.117 -0.4593  0.0400  0.2211
 1685SOL    HW2 6785   0.232   4.639   3.211  0.4849  0.7317  0.4439
 1685SOL    HW3 6786   0.174   4.696   3.084 -1.6011 -1.5552  0.3423
 1685SOL    MW4 6787   0.237   4.652   3.125 -0.4854 -0.0787  0.2668
 1686SOL     OW 6788   4.487   0.128   3.032 -0.0403 -0.1087 -0.0277
 1686SOL    HW2 6789   4.420   0.082   3.082 -0.1364  0.1527  0.0836
 1686SOL    HW3 6790   4.497   0.212   3.076  0.6050 -0.2809  0.1628
 1686SOL    MW4 6791   4.480   0.133   3.044  0.0321 -0.0969  0.0119
 1687SOL     OW 6792   4.490   0.373   3.148 -0.2053  0.2831 -0.5119
 1687SOL    HW2 6793   4.476   0.378   3.243 -0.2919  0.2184 -0.5212
 1687SOL    HW3 6794   4.418   0.424   3.111  0.5161  1.3337 -0.4934
 1687SOL    MW4 6795   4.478   0.381   3.156 -0.1216  0.4131 -0.5105
 1688SOL     OW 6796   0.227   0.483   3.009  0.2416  0.1915 -0.0897
 1688SOL    HW2 6797   0.288   0.418   3.046  0.1055 -0.5662 -1.1819
 1688SOL    HW3 6798   0.143   0.463   3.051  0.5387  0.6548  0.7356
 1688SOL    MW4 6799   0.224   0.472   3.020  0.2628  0.1527 -0.1249
 1689SOL     OW 6800   0.227   0.731   3.141  0.1723 -0.3269  0.1440
 1689SOL    HW2 6801   0.235   0.735   3.236  0.3169 -1.0222  0.1652
 1689SOL    HW3 6802   0.245   0.639   3.120 -0.9204 -0.4052 -0.4575
 1689SOL    MW4 6803   0.230   0.719   3.151  0.0472 -0.4290  0.0675
 1690SOL     OW 6804   0.060   0.949   3.046 -0.3223 -0.0682 -0.3256
 1690SOL    HW2 6805   0.128   0.884   3.067 -1.0271 -1.1890 -1.4303
 1690SOL    HW3 6806   0.046   0.938   2.952 -0.8671  1.2988 -0.4018
 1690SOL    MW4 6807   0.067   0.939   3.037 -0.4872 -0.0357 -0.4814
 1691SOL     OW 6808   0.027   1.185   3.157 -0.1721 -0.5984 -0.0482
 1691SOL    HW2 6809  -0.054   1.201   3.108  0.3903 -0.2999 -0.9018
 1691SOL    HW3 6810   0.058   1.100   3.126  1.9017  1.0449 -2.6764
 1691SOL    MW4 6811   0.020   1.176   3.146  0.1755 -0.3421 -0.5078
 1692SOL     OW 6812   0.251   1.303   3.022  0.2811 -0.0134 -0.1424
 1692SOL    HW2 6813   0.174   1.265   3.063  1.8183 -3.2845 -0.1617
 1692SOL    HW3 6814   0.237   1.291   2.928  0.6725 -0.3497 -0.1599
 1692SOL    MW4 6815   0.239   1.297   3.015  0.5355 -0.4894 -0.1471
 1693SOL     OW 6816   0.228   1.554   3.140  0.6104  0.2019 -0.0436
 1693SOL    HW2 6817   0.148   1.581   3.096  0.6829 -0.4162 -0.5705
 1693SOL    HW3 6818   0.250   1.470   3.099  0.9993 -0.0936  0.7650
 1693SOL    MW4 6819   0.220   1.546   3.129  0.6713  0.0814 -0.0067
 1694SOL     OW 6820   0.009   1.650   3.007  0.1637  0.5135 -0.0770
 1694SOL    HW2 6821  -0.082   1.627   3.029  0.8625 -1.3865  0.9536
 1694SOL    HW3 6822   0.017   1.741   3.035 -1.1876  0.4389  0.6268
 1694SOL    MW4 6823  -0.002   1.659   3.014  0.0777  0.2530  0.1519
 1695SOL     OW 6824   4.490   1.905   3.110  0.1288  0.3753  0.2854
 1695SOL    HW2 6825   4.411   1.953   3.086  0.5849 -0.0813 -2.2344
 1695SOL    HW3 6826   4.562   1.965   3.092  0.5812 -0.5451 -1.0434
 1695SOL    MW4 6827   4.489   1.919   3.105  0.2484  0.1936 -0.2222
 1696SOL     OW 6828   0.229   2.056   3.038 -0.0789 -0.0569  0.0807
 1696SOL    HW2 6829   0.211   2.145   3.068 -0.6041 -0.0726 -0.1763
 1696SOL    HW3 6830   0.232   2.064   2.942 -0.5704 -0.3927  0.0360
 1696SOL    MW4 6831   0.227   2.069   3.029 -0.2131 -0.1035  0.0405
 1697SOL     OW 6832   0.226   2.330   3.090  0.3653  0.2218  0.6163
 1697SOL    HW2 6833   0.224   2.326   3.186  1.5471 -1.5286  0.5891
 1697SOL    HW3 6834   0.301   2.386   3.070 -0.0805  0.8608  0.7006
 1697SOL    MW4 6835   0.235   2.337   3.100  0.4624  0.0751  0.6239
 1698SOL     OW 6836   0.005   2.476   2.967 -0.2658  0.0330 -0.1492
 1698SOL    HW2 6837   0.006   2.563   3.008 -0.5782 -0.5768  1.1487
 1698SOL    HW3 6838   0.072   2.427   3.013  0.8498 -0.0193 -1.7905
 1698SOL    MW4 6839   0.014   2.481   2.978 -0.1598 -0.0544 -0.1945
 1699SOL     OW 6840   4.485   2.737   3.097 -0.2806  0.1214 -0.1947
 1699SOL    HW2 6841   4.481   2.727   3.192 -2.1933 -2.0615 -0.4616
 1699SOL    HW3 6842   4.568   2.781   3.080 -0.1636  0.9996  2.5190
 1699SOL    MW4 6843   4.495   2.742   3.107 -0.5183 -0.0505  0.1285
 1700SOL     OW 6844   0.248   2.852   3.027 -0.3505  0.2351  0.3042
 1700SOL    HW2 6845   0.324   2.798   3.049 -1.0746 -0.9709 -0.1465
 1700SOL    HW3 6846   0.250   2.859   2.932  0.0171  1.4381  0.3812
 1700SOL    MW4 6847   0.258   2.846   3.017 -0.3976  0.2344  0.2549
 1701SOL     OW 6848   0.229   3.122   3.123 -0.2845 -0.2269 -0.2197
 1701SOL    HW2 6849   0.143   3.151   3.090  0.8030  2.0873 -1.1543
 1701SOL    HW3 6850   0.247   3.042   3.074 -0.7526  0.6920 -1.9551
 1701SOL    MW4 6851   0.220   3.115   3.112 -0.2028  0.1998 -0.5720
 1702SOL     OW 6852   4.472   3.208   3.025 -0.0666 -0.0983  0.3283
 1702SOL    HW2 6853   4.390   3.165   3.050  0.4107 -0.2381  1.7131
 1702SOL    HW3 6854   4.471   3.210   2.929 -1.7040 -0.0564  0.3449
 1702SOL    MW4 6855   4.461   3.203   3.016 -0.2193 -0.1111  0.5131
 1703SOL     OW 6856   0.005   3.475   3.090  0.1804 -0.0683  0.0274
 1703SOL    HW2 6857  -0.073   3.523   3.062  0.3150 -0.5830 -1.2954
 1703SOL    HW3 6858  -0.008   3.387   3.055  0.6494 -0.5752  1.1145
 1703SOL    MW4 6859  -0.007   3.470   3.081  0.2599 -0.2031 -0.0036
 1704SOL     OW 6860   0.234   3.613   3.002 -0.2157  0.0675  0.4777
 1704SOL    HW2 6861   0.216   3.704   3.025 -0.3468 -0.4176  2.4644
 1704SOL    HW3 6862   0.164   3.564   3.046 -0.3143 -0.9744 -0.8071
 1704SOL    MW4 6863   0.222   3.618   3.011 -0.2460 -0.1340  0.5705
 1705SOL     OW 6864   0.233   3.884   3.097  0.2366 -0.4001  0.1897
 1705SOL    HW2 6865   0.236   3.873   3.192 -1.6317 -1.0215  0.2101
 1705SOL    HW3 6866   0.301   3.949   3.078  1.0724 -0.7548  1.8664
 1705SOL    MW4 6867   0.242   3.891   3.107  0.1004 -0.5291  0.4137
 1706SOL     OW 6868   0.005   4.009   3.006 -0.0747 -0.0671  0.0762
 1706SOL    HW2 6869   0.081   3.964   3.041  0.1876  0.4043  0.1135
 1706SOL    HW3 6870   0.017   4.006   2.911  0.2556  0.4702  0.1009
 1706SOL    MW4 6871   0.016   4.003   2.998  0.0033  0.0658  0.0846
 1707SOL     OW 6872   0.013   4.275   3.105  0.4620  0.1487  0.5625
 1707SOL    HW2 6873   0.030   4.257   3.197  0.6521 -2.1923  0.1099
 1707SOL    HW3 6874  -0.002   4.188   3.066  0.0903  1.1212 -1.5445
 1707SOL    MW4 6875   0.013   4.261   3.112  0.4380 -0.0324  0.2246
 1708SOL     OW 6876   0.254   4.379   3.016 -0.4351 -0.4636  0.0653
 1708SOL    HW2 6877   0.170   4.341   3.041 -1.9311  1.3992 -1.8864
 1708SOL    HW3 6878   0.254   4.466   3.056 -0.0007  0.0163 -0.9501
 1708SOL    MW4 6879   0.242   4.386   3.025 -0.5752 -0.1540 -0.3262
 1709SOL     OW 6880   0.695   4.651   3.157  0.4167 -0.2606 -0.1132
 1709SOL    HW2 6881   0.684   4.561   3.127  1.1064  0.0298 -1.2688
 1709SOL    HW3 6882   0.622   4.698   3.117  0.4302 -0.1773 -0.0402
 1709SOL    MW4 6883   0.684   4.645   3.148  0.5095 -0.2112 -0.2563
 1710SOL     OW 6884   0.489   0.093   3.013  0.1847  0.0920 -0.1731
 1710SOL    HW2 6885   0.479   0.186   3.031  0.9265  0.0468  0.5018
 1710SOL    HW3 6886   0.416   0.052   3.060  0.0600  0.2985 -0.1866
 1710SOL    MW4 6887   0.478   0.100   3.022  0.2661  0.1133 -0.0856
 1711SOL     OW 6888   0.439   0.351   3.132 -0.2309 -0.5788  0.1853
 1711SOL    HW2 6889   0.447   0.359   3.227 -0.6015 -0.2827  0.1945
 1711SOL    HW3 6890   0.510   0.404   3.096  0.5736 -1.5686  0.3108
 1711SOL    MW4 6891   0.449   0.359   3.140 -0.1736 -0.6703  0.2031
 1712SOL     OW 6892   0.662   0.506   3.055  0.0320 -0.5696  0.1136
 1712SOL    HW2 6893   0.740   0.455   3.076 -0.0607 -0.9440 -0.4161
 1712SOL    HW3 6894   0.679   0.593   3.090 -0.1381 -1.1674  1.7293
 1712SOL    MW4 6895   0.674   0.510   3.062 -0.0026 -0.6979  0.2568
 1713SOL     OW 6896   0.719   0.790   3.145 -0.1316  0.5662  0.4339
 1713SOL    HW2 6897   0.713   0.801   3.240  0.0849 -0.7950  0.6203
 1713SOL    HW3 6898   0.632   0.814   3.113 -0.5196  0.0550  1.0808
 1713SOL    MW4 6899   0.707   0.794   3.154 -0.1541  0.3191  0.5438
 1714SOL     OW 6900   0.465   0.833   3.045 -0.1408 -0.1510  0.1479
 1714SOL    HW2 6901   0.383   0.789   3.063  0.6849 -1.6037  0.4534
 1714SOL    HW3 6902   0.471   0.833   2.949 -1.2675  1.4321  0.0691
 1714SOL    MW4 6903   0.455   0.827   3.034 -0.1805 -0.1339  0.1779
 1715SOL     OW 6904   0.448   1.138   3.122  0.3063 -0.0661  0.0235
 1715SOL    HW2 6905   0.462   1.055   3.077  0.0943 -0.0874 -0.0056
 1715SOL    HW3 6906   0.371   1.176   3.079  0.6712  0.3542 -0.2610
 1715SOL    MW4 6907   0.439   1.132   3.111  0.3265 -0.0135 -0.0176
 1716SOL     OW 6908   0.653   1.326   3.051 -0.5307 -0.0222 -0.0650
 1716SOL    HW2 6909   0.729   1.271   3.073 -0.6194 -0.1935 -0.1869
 1716SOL    HW3 6910   0.578   1.280   3.087 -0.7840 -0.7909 -1.5462
 1716SOL    MW4 6911   0.653   1.313   3.058 -0.5758 -0.1464 -0.2766
 1717SOL     OW 6912   0.663   1.579   3.150  0.7605  0.0053  0.0047
 1717SOL    HW2 6913   0.668   1.577   3.246 -0.1776 -0.5727  0.0418
 1717SOL    HW3 6914   0.666   1.487   3.124 -1.6925 -0.0040 -0.3660
 1717SOL    MW4 6915   0.664   1.567   3.159  0.3131 -0.0721 -0.0393
 1718SOL     OW 6916   0.444   1.689   3.022 -0.1621  0.7382  0.0770
 1718SOL    HW2 6917   0.521   1.639   3.048 -0.2578 -0.8281 -2.4867
 1718SOL    HW3 6918   0.374   1.655   3.077  0.2093 -0.4412 -0.1737
 1718SOL    MW4 6919   0.445   1.678   3.033 -0.1257  0.3760 -0.2940
 1719SOL     OW 6920   0.465   1.949   3.153 -0.0211 -0.1345  0.0756
 1719SOL    HW2 6921   0.463   1.869   3.102 -0.8855 -0.4302  0.5576
 1719SOL    HW3 6922   0.393   2.002   3.119 -1.0709 -0.6391  1.4416
 1719SOL    MW4 6923   0.455   1.946   3.142 -0.2736 -0.2400  0.3195
 1720SOL     OW 6924   0.706   2.042   3.025 -0.1616 -0.0104 -0.0772
 1720SOL    HW2 6925   0.788   2.024   3.070  0.3490  0.7852 -0.6733
 1720SOL    HW3 6926   0.638   2.007   3.083  0.5718 -0.2639  0.6310
 1720SOL    MW4 6927   0.708   2.035   3.039  0.0025  0.0608 -0.0622
 1721SOL     OW 6928   0.677   2.296   3.137  0.0920  0.1505  0.4647
 1721SOL    HW2 6929   0.677   2.285   3.232  2.0647  0.9967  0.6028
 1721SOL    HW3 6930   0.681   2.207   3.102  0.1050 -0.1315  1.1952
 1721SOL    MW4 6931   0.678   2.283   3.145  0.3540  0.2248  0.5794
 1722SOL     OW 6932   0.455   2.477   3.031  0.1672 -0.1748  0.3330
 1722SOL    HW2 6933   0.504   2.406   3.072 -0.1563 -0.4198  0.3040
 1722SOL    HW3 6934   0.460   2.459   2.937  0.6644  0.2258  0.2828
 1722SOL    MW4 6935   0.462   2.465   3.024  0.1901 -0.1540  0.3223
 1723SOL     OW 6936   0.473   2.735   3.137  0.3106 -0.2173 -0.2401
 1723SOL    HW2 6937   0.538   2.796   3.103  0.8576 -0.8493 -0.3506
 1723SOL    HW3 6938   0.499   2.650   3.101 -0.6866 -0.4484 -0.4415
 1723SOL    MW4 6939   0.485   2.731   3.128  0.2512 -0.3312 -0.2811
 1724SOL     OW 6940   0.661   2.887   2.983 -0.3924  0.2358 -0.1252
 1724SOL    HW2 6941   0.741   2.849   3.019 -0.1909 -0.6513 -1.4477
 1724SOL    HW3 6942   0.660   2.976   3.016  1.3412  0.3756 -0.3641
 1724SOL    MW4 6943   0.672   2.894   2.992 -0.1371  0.1371 -0.3312
 1725SOL     OW 6944   0.661   3.135   3.099 -0.0553 -0.1595 -0.1170
 1725SOL    HW2 6945   0.666   3.122   3.194 -1.5830 -0.4236 -0.0615
 1725SOL    HW3 6946   0.584   3.191   3.087  0.4247  0.2837 -1.1688
 1725SOL    MW4 6947   0.651   3.141   3.110 -0.1935 -0.1359 -0.2484
 1726SOL     OW 6948   0.438   3.257   2.998 -0.3200  0.3227  0.1207
 1726SOL    HW2 6949   0.445   3.346   3.033 -0.0250  0.0385  0.8041
 1726SOL    HW3 6950   0.366   3.217   3.047  0.0113 -0.0401  0.3148
 1726SOL    MW4 6951   0.429   3.264   3.009 -0.2374  0.2375  0.2365
 1727SOL     OW 6952   0.467   3.513   3.108  0.8019 -0.5214  0.4113
 1727SOL    HW2 6953   0.453   3.517   3.202 -1.7788  0.5973  0.0093
 1727SOL    HW3 6954   0.388   3.552   3.070  0.7584 -3.1142 -2.2803
 1727SOL    MW4 6955   0.455   3.519   3.115  0.4557 -0.7160  0.0029
 1728SOL     OW 6956   0.662   3.638   2.956  0.0097  0.4188  0.5924
 1728SOL    HW2 6957   0.748   3.612   2.991  1.1039  0.9828 -1.5889
 1728SOL    HW3 6958   0.599   3.585   3.005  1.6233 -0.2043  2.0376
 1728SOL    MW4 6959   0.665   3.628   2.967  0.3670  0.4110  0.4950
 1729SOL     OW 6960   0.702   3.871   3.090  0.3593 -0.2095 -0.3615
 1729SOL    HW2 6961   0.727   3.863   3.183 -0.6701 -0.6024 -0.1176
 1729SOL    HW3 6962   0.664   3.786   3.068 -1.7485  0.7383 -0.4381
 1729SOL    MW4 6963   0.701   3.858   3.100 -0.0546 -0.1366 -0.3395
 1730SOL     OW 6964   0.478   4.015   3.017  0.0157 -0.0179  0.4944
 1730SOL    HW2 6965   0.552   3.958   3.035 -1.1901 -1.4861  0.9527
 1730SOL    HW3 6966   0.471   4.017   2.922  0.1267 -0.5795  0.4730
 1730SOL    MW4 6967   0.487   4.008   3.007 -0.1288 -0.2856  0.5519
 1731SOL     OW 6968   0.457   4.252   3.154  0.3913  0.3422 -0.5238
 1731SOL    HW2 6969   0.468   4.171   3.104  1.8263  0.1749  0.0411
 1731SOL    HW3 6970   0.379   4.293   3.117 -0.0984 -1.0944 -1.0989
 1731SOL    MW4 6971   0.448   4.247   3.143  0.5160  0.1307 -0.5252
 1732SOL     OW 6972   0.669   4.397   3.043  0.2558  0.3712 -0.4343
 1732SOL    HW2 6973   0.589   4.357   3.075  0.9476 -0.7853 -0.1197
 1732SOL    HW3 6974   0.658   4.398   2.948  0.1231 -0.3478 -0.4323
 1732SOL    MW4 6975   0.657   4.392   3.035  0.3296  0.1240 -0.3924
 1733SOL     OW 6976   1.124   0.002   3.156  0.4064 -0.0529 -0.0464
 1733SOL    HW2 6977   1.205   0.036   3.119 -0.4811  2.0094 -0.1457
 1733SOL    HW3 6978   1.055   0.042   3.104 -0.7671  0.3841  1.7890
 1733SOL    MW4 6979   1.125   0.012   3.145  0.1343  0.2768  0.1826
 1734SOL     OW 6980   0.893   0.115   3.027  0.3682  0.2133 -0.0733
 1734SOL    HW2 6981   0.896   0.201   3.070  1.0466  0.4787 -0.6271
 1734SOL    HW3 6982   0.833   0.063   3.080  0.3313  0.8830  0.5482
 1734SOL    MW4 6983   0.885   0.120   3.040  0.4529  0.3367 -0.0644
 1735SOL     OW 6984   0.901   0.364   3.132 -0.6804  0.0185 -0.2329
 1735SOL    HW2 6985   0.909   0.386   3.225 -0.8359 -1.4828  0.1483
 1735SOL    HW3 6986   0.971   0.414   3.090 -0.0163 -0.0096  0.8147
 1735SOL    MW4 6987   0.911   0.374   3.139 -0.6133 -0.1833 -0.0446
 1736SOL     OW 6988   1.108   0.518   3.029  0.0355  0.0007  0.0768
 1736SOL    HW2 6989   1.182   0.474   3.071  1.1353  2.2939  0.6056
 1736SOL    HW3 6990   1.127   0.512   2.936  0.6217  0.1140  0.1848
 1736SOL    MW4 6991   1.120   0.511   3.023  0.2580  0.3182  0.1609
 1737SOL     OW 6992   1.132   0.779   3.118  0.0244 -0.4307  0.1798
 1737SOL    HW2 6993   1.133   0.781   3.213 -0.8066 -1.2849  0.2186
 1737SOL    HW3 6994   1.113   0.688   3.096  0.2332 -0.2483 -0.8035
 1737SOL    MW4 6995   1.129   0.767   3.127 -0.0578 -0.5193  0.0553
 1738SOL     OW 6996   0.916   0.948   3.037  0.1806  0.7738  0.5508
 1738SOL    HW2 6997   0.993   0.903   3.074  0.3930  0.8276  0.1730
 1738SOL    HW3 6998   0.841   0.904   3.077  0.3640 -0.5546 -0.5547
 1738SOL    MW4 6999   0.917   0.936   3.047  0.2329  0.6056  0.3552
 1739SOL     OW 7000   0.903   1.205   3.103  0.2774  0.3722 -0.3350
 1739SOL    HW2 7001   0.983   1.248   3.073  0.5007  1.2622  1.4615
 1739SOL    HW3 7002   0.918   1.112   3.085  1.5384  0.5806 -0.4217
 1739SOL    MW4 7003   0.916   1.198   3.096  0.4732  0.5171 -0.1094
 1740SOL     OW 7004   1.139   1.318   3.000  0.0827 -0.1978  0.0242
 1740SOL    HW2 7005   1.213   1.279   3.047  0.2961 -0.1492 -0.2721
 1740SOL    HW3 7006   1.139   1.274   2.915 -0.8028 -0.8705  0.3634
 1740SOL    MW4 7007   1.149   1.307   2.995 -0.0058 -0.2803  0.0300
 1741SOL     OW 7008   1.108   1.554   3.175  0.0881 -0.2094  0.2505
 1741SOL    HW2 7009   1.178   1.608   3.138  0.3002 -1.1149 -0.6825
 1741SOL    HW3 7010   1.123   1.467   3.138 -2.2281 -0.1534 -0.8910
 1741SOL    MW4 7011   1.120   1.550   3.165 -0.1895 -0.3215 -0.0231
 1742SOL     OW 7012   0.880   1.689   3.034  0.2928 -0.3036  0.3405
 1742SOL    HW2 7013   0.953   1.631   3.056  0.6668 -0.2103 -0.5973
 1742SOL    HW3 7014   0.804   1.648   3.074  0.5743 -1.3802 -0.2056
 1742SOL    MW4 7015   0.880   1.676   3.042  0.3793 -0.4333  0.1450
 1743SOL     OW 7016   0.956   1.935   3.150  0.5736  0.1819  0.3356
 1743SOL    HW2 7017   0.924   1.928   3.240  0.6645  0.8044  0.4173
 1743SOL    HW3 7018   0.938   1.849   3.111 -0.0944  0.1403  0.7385
 1743SOL    MW4 7019   0.950   1.923   3.157  0.4975  0.2586  0.3994
 1744SOL     OW 7020   1.130   2.112   3.058  0.1460 -0.4000 -0.0005
 1744SOL    HW2 7021   1.066   2.050   3.093 -1.1507  0.8499 -0.1335
 1744SOL    HW3 7022   1.125   2.100   2.963 -1.1960  0.9594 -0.1120
 1744SOL    MW4 7023   1.121   2.102   3.050 -0.2022 -0.0556 -0.0324
 1745SOL     OW 7024   1.109   2.374   3.152  0.3679 -0.1716 -0.6751
 1745SOL    HW2 7025   1.026   2.413   3.126  0.4018  0.3890  0.0190
 1745SOL    HW3 7026   1.108   2.286   3.115 -0.5877 -0.2093 -0.5692
 1745SOL    MW4 7027   1.098   2.368   3.144  0.2463 -0.1025 -0.5696
 1746SOL     OW 7028   0.878   2.495   3.051 -0.2583 -0.1450  0.1067
 1746SOL    HW2 7029   0.806   2.437   3.074  0.3915 -0.8018  0.5032
 1746SOL    HW3 7030   0.894   2.478   2.958  0.8041 -1.5830  0.5355
 1746SOL    MW4 7031   0.871   2.485   3.041 -0.0324 -0.4215  0.2155
 1747SOL     OW 7032   0.873   2.775   3.126 -0.2532  0.3309  0.4835
 1747SOL    HW2 7033   0.884   2.789   3.220  2.8007 -1.0916  0.3940
 1747SOL    HW3 7034   0.873   2.680   3.116  0.3177  0.4797 -1.0208
 1747SOL    MW4 7035   0.874   2.765   3.137  0.2250  0.1626  0.2732
 1748SOL     OW 7036   1.106   2.858   3.009  0.0433  0.2210  0.7934
 1748SOL    HW2 7037   1.100   2.949   3.037  0.3938  0.3252  0.5331
 1748SOL    HW3 7038   1.023   2.819   3.037 -0.2218  0.6831  0.6625
 1748SOL    MW4 7039   1.094   2.865   3.016  0.0546  0.2956  0.7417
 1749SOL     OW 7040   1.109   3.119   3.113 -0.4108 -0.0088 -0.1433
 1749SOL    HW2 7041   1.193   3.150   3.080  0.3231 -1.8879 -0.0949
 1749SOL    HW3 7042   1.044   3.175   3.071  0.7641  0.3662 -1.4801
 1749SOL    MW4 7043   1.111   3.131   3.103 -0.1589 -0.2072 -0.3133
 1750SOL     OW 7044   0.887   3.269   3.000  0.4544  0.7626 -0.2846
 1750SOL    HW2 7045   0.802   3.227   3.012  1.0277 -0.0203  1.1869
 1750SOL    HW3 7046   0.906   3.259   2.907 -0.0226 -1.1024 -0.2073
 1750SOL    MW4 7047   0.878   3.262   2.989  0.4671  0.4132 -0.0801
 1751SOL     OW 7048   0.884   3.518   3.101  0.2306  0.0916 -0.1694
 1751SOL    HW2 7049   0.973   3.551   3.085  0.1887  0.8234  1.0367
 1751SOL    HW3 7050   0.885   3.429   3.066  1.0565  0.5442 -1.3247
 1751SOL    MW4 7051   0.896   3.510   3.094  0.3340  0.2480 -0.1626
 1752SOL     OW 7052   1.130   3.650   3.002  0.0941  0.0720 -0.1503
 1752SOL    HW2 7053   1.209   3.600   3.021 -0.5756 -0.6012  0.8836
 1752SOL    HW3 7054   1.148   3.738   3.036  1.0782  0.4282 -1.5255
 1752SOL    MW4 7055   1.143   3.655   3.009  0.1354  0.0303 -0.1950
 1753SOL     OW 7056   1.146   3.894   3.122  0.3109  0.1984 -0.2014
 1753SOL    HW2 7057   1.149   3.906   3.217  1.0675  1.1582 -0.3423
 1753SOL    HW3 7058   1.073   3.949   3.093 -1.8147 -2.3429  0.1363
 1753SOL    MW4 7059   1.137   3.903   3.131  0.1302 -0.0103 -0.1752
 1754SOL     OW 7060   0.919   4.034   3.005 -0.4095 -0.2573 -0.0539
 1754SOL    HW2 7061   0.847   3.974   3.027  0.8237 -1.5817  0.4787
 1754SOL    HW3 7062   0.917   4.039   2.909  0.0890 -1.9946 -0.1860
 1754SOL    MW4 7063   0.909   4.026   2.995 -0.1810 -0.6609 -0.0012
 1755SOL     OW 7064   0.905   4.273   3.130 -0.0171 -0.1677  0.4820
 1755SOL    HW2 7065   0.901   4.181   3.104  1.7166 -0.1253 -0.0421
 1755SOL    HW3 7066   0.818   4.307   3.112 -0.7069 -1.7211  0.7441
 1755SOL    MW4 7067   0.893   4.265   3.124  0.1206 -0.3676  0.4473
 1756SOL     OW 7068   1.111   4.418   3.029  0.0991  0.3343  0.6870
 1756SOL    HW2 7069   1.038   4.379   3.077 -0.3040  0.3361  0.0753
 1756SOL    HW3 7070   1.124   4.503   3.072  0.5639 -0.1914  1.6033
 1756SOL    MW4 7071   1.103   4.424   3.041  0.1073  0.2651  0.7272
 1757SOL     OW 7072   1.560   4.625   3.129  0.1328  0.4716  0.8004
 1757SOL    HW2 7073   1.601   4.662   3.207 -1.4179  0.5130  1.6142
 1757SOL    HW3 7074   1.493   4.690   3.104  0.1209  0.1091 -0.1197
 1757SOL    MW4 7075   1.556   4.639   3.136 -0.0733  0.4292  0.7863
 1758SOL     OW 7076   1.357   0.129   3.039  0.2030 -0.7418  0.1181
 1758SOL    HW2 7077   1.352   0.221   3.065  0.3407 -1.2772  2.1328
 1758SOL    HW3 7078   1.361   0.131   2.944 -0.1648  1.3235  0.1234
 1758SOL    MW4 7079   1.357   0.142   3.030  0.1726 -0.5400  0.3846
 1759SOL     OW 7080   1.337   0.398   3.127 -0.0374 -0.1525  0.1741
 1759SOL    HW2 7081   1.349   0.412   3.221  0.2013 -0.5400  0.2020
 1759SOL    HW3 7082   1.419   0.429   3.088  0.7139 -1.9417  0.2828
 1759SOL    MW4 7083   1.350   0.404   3.134  0.0932 -0.4397  0.1922
 1760SOL     OW 7084   1.578   0.546   3.036  0.4484 -0.5823  0.1450
 1760SOL    HW2 7085   1.604   0.636   3.059 -0.8149 -0.1033 -0.2603
 1760SOL    HW3 7086   1.579   0.546   2.940 -1.0508 -0.5569  0.1318
 1760SOL    MW4 7087   1.582   0.558   3.026  0.0840 -0.5158  0.0899
 1761SOL     OW 7088   1.615   0.799   3.141 -0.0753  0.1767 -0.5178
 1761SOL    HW2 7089   1.598   0.802   3.235 -0.2222  0.5115 -0.5542
 1761SOL    HW3 7090   1.533   0.828   3.100 -0.4115 -1.1381 -0.7926
 1761SOL    MW4 7091   1.602   0.803   3.148 -0.1391  0.0474 -0.5589
 1762SOL     OW 7092   1.379   0.891   3.019  0.0268 -0.3611  0.0910
 1762SOL    HW2 7093   1.376   0.986   3.035  0.3645 -0.5244  1.1734
 1762SOL    HW3 7094   1.298   0.858   3.057  0.4548 -0.6505  0.7649
 1762SOL    MW4 7095   1.368   0.899   3.026  0.1277 -0.4209  0.3228
 1763SOL     OW 7096   1.340   1.160   3.110  0.0582 -0.1092  0.0307
 1763SOL    HW2 7097   1.339   1.134   3.202 -1.0366  0.5751  0.2261
 1763SOL    HW3 7098   1.430   1.188   3.094  0.2568 -0.2401  0.8918
 1763SOL    MW4 7099   1.352   1.160   3.120 -0.0600 -0.0364  0.1700
 1764SOL     OW 7100   1.581   1.288   3.019 -0.6025  0.0169 -0.2679
 1764SOL    HW2 7101   1.667   1.265   3.055 -1.0864 -1.0683  0.2400
 1764SOL    HW3 7102   1.565   1.377   3.050  0.9677  0.7732 -1.5799
 1764SOL    MW4 7103   1.591   1.297   3.028 -0.4591 -0.0265 -0.3743
 1765SOL     OW 7104   1.513   1.564   3.136 -0.0218 -0.1192  0.0175
 1765SOL    HW2 7105   1.586   1.616   3.102  0.0858 -1.4170 -1.7905
 1765SOL    HW3 7106   1.435   1.608   3.104  0.0514 -0.5463 -0.7675
 1765SOL    MW4 7107   1.513   1.576   3.128  0.0021 -0.3470 -0.3242
 1766SOL     OW 7108   1.307   1.694   3.038  0.1676 -0.3386  0.2824
 1766SOL    HW2 7109   1.339   1.782   3.058  0.1854 -0.3591  0.3447
 1766SOL    HW3 7110   1.321   1.684   2.944  0.6380 -0.4660  0.3635
 1766SOL    MW4 7111   1.313   1.704   3.028  0.2320 -0.3581  0.3014
 1767SOL     OW 7112   1.354   1.939   3.138 -0.1794  0.2445 -0.2511
 1767SOL    HW2 7113   1.376   1.948   3.231 -0.2905 -1.7268 -0.0028
 1767SOL    HW3 7114   1.278   1.995   3.125  0.0139  0.7554  0.7843
 1767SOL    MW4 7115   1.347   1.947   3.149 -0.1686  0.0517 -0.0815
 1768SOL     OW 7116   1.585   2.074   3.054  0.0710  0.3084 -0.1774
 1768SOL    HW2 7117   1.510   2.024   3.085 -0.6320  0.6295 -1.3374
 1768SOL    HW3 7118   1.578   2.072   2.958  1.9140 -0.2324 -0.3343
 1768SOL    MW4 7119   1.574   2.067   3.045  0.2214  0.2792 -0.3512
 1769SOL     OW 7120   1.579   2.346   3.116 -0.1227 -0.6717  0.0097
 1769SOL    HW2 7121   1.502   2.388   3.077 -0.1928 -0.8159 -0.0069
 1769SOL    HW3 7122   1.569   2.253   3.094  1.0622 -0.4280 -1.7235
 1769SOL    MW4 7123   1.567   2.339   3.108  0.0244 -0.6585 -0.2210
 1770SOL     OW 7124   1.331   2.452   3.048 -0.0839 -0.7378  0.2712
 1770SOL    HW2 7125   1.246   2.425   3.083  0.5226 -2.5942  0.3890
 1770SOL    HW3 7126   1.319   2.452   2.953 -0.6812  0.6811  0.3316
 1770SOL    MW4 7127   1.318   2.448   3.041 -0.0826 -0.7954  0.2947
 1771SOL     OW 7128   1.298   2.718   3.133  0.1693 -0.3611 -0.4539
 1771SOL    HW2 7129   1.303   2.629   3.097  0.5096 -0.0852 -1.0825
 1771SOL    HW3 7130   1.224   2.758   3.088  0.8845  0.1391 -1.1910
 1771SOL    MW4 7131   1.289   2.711   3.122  0.3086 -0.2587 -0.6340
 1772SOL     OW 7132   1.551   2.840   3.038  0.0236  0.0892 -0.5653
 1772SOL    HW2 7133   1.628   2.793   3.071  0.7751  0.3964 -1.8699
 1772SOL    HW3 7134   1.477   2.789   3.070  0.7671 -0.3085  0.5620
 1772SOL    MW4 7135   1.552   2.827   3.047  0.2209  0.0772 -0.5889
 1773SOL     OW 7136   1.597   3.107   3.125  0.0379  0.7922  0.2543
 1773SOL    HW2 7137   1.601   3.099   3.220 -1.6445 -1.3894  0.1977
 1773SOL    HW3 7138   1.568   3.020   3.095 -0.4274  1.7356 -2.1593
 1773SOL    MW4 7139   1.593   3.094   3.134 -0.2455  0.6287 -0.0715
 1774SOL     OW 7140   1.344   3.212   3.031  0.4138 -0.5479  0.1828
 1774SOL    HW2 7141   1.410   3.153   3.067  1.3104 -1.2738 -2.5107
 1774SOL    HW3 7142   1.363   3.214   2.937 -1.3563  1.8468 -0.1598
 1774SOL    MW4 7143   1.355   3.205   3.023  0.2985 -0.3278 -0.2179
 1775SOL     OW 7144   1.346   3.482   3.080  0.0484  0.1723 -0.3687
 1775SOL    HW2 7145   1.333   3.490   3.174  1.2443  0.2819 -0.1993
 1775SOL    HW3 7146   1.349   3.387   3.064 -0.0391  0.1541 -0.2736
 1775SOL    MW4 7147   1.345   3.470   3.090  0.1945  0.1843 -0.3338
 1776SOL     OW 7148   1.570   3.635   2.995 -0.2136  0.0671  0.2659
 1776SOL    HW2 7149   1.494   3.580   3.012  0.6737 -0.8948  1.2842
 1776SOL    HW3 7150   1.571   3.647   2.900 -0.6210 -1.4165  0.0605
 1776SOL    MW4 7151   1.560   3.629   2.985 -0.1503 -0.2556  0.3734
 1777SOL     OW 7152   1.607   3.881   3.112 -0.6688 -0.2721 -0.1898
 1777SOL    HW2 7153   1.687   3.914   3.071 -0.9693  0.4360 -0.2200
 1777SOL    HW3 7154   1.592   3.796   3.072 -2.1485  1.3027 -3.1809
 1777SOL    MW4 7155   1.615   3.874   3.102 -0.9036  0.0288 -0.5887
 1778SOL     OW 7156   1.361   4.029   3.005  0.2542  0.3073 -0.8129
 1778SOL    HW2 7157   1.443   3.989   3.033 -0.9731 -0.7272  1.4509
 1778SOL    HW3 7158   1.293   3.969   3.035 -1.4345  2.2241 -0.6905
 1778SOL    MW4 7159   1.363   4.016   3.013 -0.1305  0.4234 -0.4981
 1779SOL     OW 7160   1.320   4.266   3.144  0.5959 -0.7399 -0.3265
 1779SOL    HW2 7161   1.308   4.180   3.106  1.3336 -0.1465 -1.9600
 1779SOL    HW3 7162   1.244   4.317   3.114 -0.4940 -1.1517  1.6627
 1779SOL    MW4 7163   1.308   4.262   3.135  0.5493 -0.7162 -0.2797
 1780SOL     OW 7164   1.562   4.373   3.019  0.1172 -0.2508  0.4000
 1780SOL    HW2 7165   1.480   4.331   3.043 -0.0456  0.2980  0.8096
 1780SOL    HW3 7166   1.558   4.460   3.060  0.4854  0.1322 -0.3495
 1780SOL    MW4 7167   1.550   4.379   3.027  0.1444 -0.1278  0.3550
 1781SOL     OW 7168   1.998   0.039   3.117 -0.0549 -0.0356  0.3349
 1781SOL    HW2 7169   2.006   0.044   3.212  0.8260  0.8847  0.2190
 1781SOL    HW3 7170   1.907   0.064   3.100 -0.5701 -1.3920  1.0085
 1781SOL    MW4 7171   1.987   0.043   3.127 -0.0066 -0.0931  0.4084
 1782SOL     OW 7172   1.744   0.107   2.987 -0.4463  0.0737 -0.5932
 1782SOL    HW2 7173   1.676   0.043   3.009 -1.0101  0.5666 -0.8971
 1782SOL    HW3 7174   1.770   0.086   2.898  0.8387 -1.0335  0.0335
 1782SOL    MW4 7175   1.738   0.096   2.978 -0.3511 -0.0074 -0.5505
 1783SOL     OW 7176   1.776   0.354   3.128  0.1247  0.6577 -0.6439
 1783SOL    HW2 7177   1.747   0.278   3.077 -0.2878  0.3270  0.0690
 1783SOL    HW3 7178   1.709   0.421   3.112 -0.5191  0.2325  0.2076
 1783SOL    MW4 7179   1.763   0.352   3.119 -0.0148  0.5580 -0.4373
 1784SOL     OW 7180   1.972   0.539   3.013 -0.2117 -0.0065  0.3067
 1784SOL    HW2 7181   1.913   0.472   3.047 -1.6082  0.6951 -0.6647
 1784SOL    HW3 7182   1.978   0.519   2.919  0.6140  0.2995  0.2926
 1784SOL    MW4 7183   1.965   0.527   3.005 -0.2869  0.1265  0.1767
 1785SOL     OW 7184   2.046   0.773   3.146 -0.3607 -0.4635 -0.2884
 1785SOL    HW2 7185   1.986   0.845   3.128  0.9967  0.9992  0.9557
 1785SOL    HW3 7186   2.012   0.700   3.093 -2.2138  0.8287 -0.9278
 1785SOL    MW4 7187   2.034   0.773   3.136 -0.4263 -0.1000 -0.2086
 1786SOL     OW 7188   1.842   0.935   3.063  0.0556 -0.2141  0.1997
 1786SOL    HW2 7189   1.763   0.890   3.093 -0.2094  0.5194  0.6206
 1786SOL    HW3 7190   1.834   0.935   2.967 -0.8966  0.6255  0.2662
 1786SOL    MW4 7191   1.830   0.929   3.054 -0.1049 -0.0067  0.2639
 1787SOL     OW 7192   1.821   1.193   3.151  0.5444 -0.2142  0.6365
 1787SOL    HW2 7193   1.814   1.180   3.246  0.3101 -1.6940  0.4314
 1787SOL    HW3 7194   1.831   1.104   3.115  1.7564  0.4059 -0.6350
 1787SOL    MW4 7195   1.821   1.179   3.159  0.6733 -0.3273  0.4416
 1788SOL     OW 7196   2.006   1.337   2.998  0.0971  0.0016 -0.1340
 1788SOL    HW2 7197   2.082   1.287   3.028  0.4663  1.1509  0.8558
 1788SOL    HW3 7198   1.931   1.284   3.023  0.5166 -0.5291  0.0181
 1788SOL    MW4 7199   2.006   1.324   3.005  0.2012  0.0833  0.0165
 1789SOL     OW 7200   1.989   1.574   3.145 -0.1432  0.2689 -0.0735
 1789SOL    HW2 7201   1.990   1.570   3.241 -0.9384 -1.0447 -0.1111
 1789SOL    HW3 7202   2.000   1.483   3.117 -1.9958  0.3787 -1.2203
 1789SOL    MW4 7203   1.991   1.561   3.154 -0.4925  0.1100 -0.2296
 1790SOL     OW 7204   1.767   1.686   3.050 -0.2506 -0.1182  0.4632
 1790SOL    HW2 7205   1.773   1.779   3.070  2.3692 -0.0018 -0.7389
 1790SOL    HW3 7206   1.852   1.650   3.073 -0.3518 -1.7160 -1.4837
 1790SOL    MW4 7207   1.779   1.693   3.056  0.0817 -0.3136  0.0474
 1791SOL     OW 7208   1.803   1.938   3.130  0.4887  0.6234 -0.2794
 1791SOL    HW2 7209   1.884   1.976   3.096 -0.0180  1.8655 -0.1359
 1791SOL    HW3 7210   1.734   1.991   3.090 -0.2340 -0.1460 -0.0476
 1791SOL    MW4 7211   1.805   1.950   3.120  0.3265  0.6857 -0.2298
 1792SOL     OW 7212   2.016   2.064   3.011  0.5422  0.3433 -0.0709
 1792SOL    HW2 7213   2.095   2.016   3.035  0.6848  0.4612 -0.3010
 1792SOL    HW3 7214   2.028   2.151   3.050  0.9433  0.6548 -0.8688
 1792SOL    MW4 7215   2.028   2.069   3.019  0.6139  0.3998 -0.2067
 1793SOL     OW 7216   2.066   2.330   3.103 -0.0606 -0.2068  0.4169
 1793SOL    HW2 7217   2.142   2.368   3.059  0.2936 -0.5580  0.7349
 1793SOL    HW3 7218   1.993   2.388   3.078  0.2823  0.0557  0.0154
 1793SOL    MW4 7219   2.066   2.343   3.094  0.0312 -0.2186  0.4058
 1794SOL     OW 7220   1.830   2.430   3.021  0.1266 -0.5166  0.1635
 1794SOL    HW2 7221   1.821   2.525   3.034 -0.0315 -0.5325  0.1770
 1794SOL    HW3 7222   1.759   2.393   3.073  0.8591 -0.7043  1.0357
 1794SOL    MW4 7223   1.819   2.438   3.029  0.2024 -0.5434  0.2804
 1795SOL     OW 7224   1.786   2.707   3.106  0.3434  0.1239  0.5715
 1795SOL    HW2 7225   1.790   2.710   3.202  0.4652  2.1077  0.5259
 1795SOL    HW3 7226   1.866   2.751   3.077  0.0127  0.0689 -0.4360
 1795SOL    MW4 7227   1.797   2.713   3.115  0.3159  0.3786  0.4325
 1796SOL     OW 7228   2.010   2.846   3.043 -0.1020 -0.2019  0.1897
 1796SOL    HW2 7229   2.002   2.939   3.065 -0.6872 -0.3839  0.7443
 1796SOL    HW3 7230   2.001   2.843   2.948 -1.0440  0.2061  0.2613
 1796SOL    MW4 7231   2.008   2.858   3.034 -0.3035 -0.1719  0.2725
 1797SOL     OW 7232   2.028   3.106   3.121 -0.0227  0.3669 -0.1941
 1797SOL    HW2 7233   2.027   3.104   3.216  0.9136 -1.6926 -0.2091
 1797SOL    HW3 7234   1.956   3.165   3.098  1.5041  3.1287  1.8021
 1797SOL    MW4 7235   2.018   3.113   3.130  0.3023  0.4599  0.0675
 1798SOL     OW 7236   1.810   3.268   3.035  0.0363 -0.1505 -0.1422
 1798SOL    HW2 7237   1.740   3.205   3.052  0.8834 -0.9759  0.3416
 1798SOL    HW3 7238   1.825   3.263   2.940 -1.4058  0.9562 -0.4544
 1798SOL    MW4 7239   1.802   3.259   3.024 -0.0421 -0.1132 -0.1197
 1799SOL     OW 7240   1.789   3.524   3.136 -0.0515 -0.1228  0.7267
 1799SOL    HW2 7241   1.793   3.433   3.105  0.6934 -0.2385  1.1573
 1799SOL    HW3 7242   1.713   3.561   3.091  0.4425 -0.5727 -0.4988
 1799SOL    MW4 7243   1.779   3.517   3.126  0.1121 -0.1976  0.6218
 1800SOL     OW 7244   2.016   3.637   3.015 -0.0885 -0.2714 -0.2674
 1800SOL    HW2 7245   2.018   3.728   3.046  2.1264 -0.5515  0.5075
 1800SOL    HW3 7246   1.944   3.597   3.063  0.9810  0.2596  1.8616
 1800SOL    MW4 7247   2.007   3.644   3.025  0.3448 -0.2384  0.1159
 1801SOL     OW 7248   2.075   3.883   3.117 -0.1574 -0.0236  0.5666
 1801SOL    HW2 7249   2.074   3.903   3.210 -0.5925 -0.0557  0.5717
 1801SOL    HW3 7250   2.002   3.933   3.081  0.5092  0.6386  0.1068
 1801SOL    MW4 7251   2.065   3.893   3.124 -0.1266  0.0596  0.5066
 1802SOL     OW 7252   1.840   3.999   3.026  0.2506 -0.0988 -0.0931
 1802SOL    HW2 7253   1.834   4.088   3.060  0.0329  0.0854 -0.6096
 1802SOL    HW3 7254   1.827   4.008   2.932 -0.9723 -0.8052 -0.0042
 1802SOL    MW4 7255   1.838   4.012   3.018  0.0607 -0.1678 -0.1497
 1803SOL     OW 7256   1.786   4.250   3.124 -0.1129 -0.5617 -0.2048
 1803SOL    HW2 7257   1.853   4.315   3.103  0.2742 -0.3124  1.6829
 1803SOL    HW3 7258   1.703   4.294   3.107  0.1725 -0.0769 -0.3371
 1803SOL    MW4 7259   1.784   4.264   3.119 -0.0240 -0.4644  0.0267
 1804SOL     OW 7260   1.996   4.407   3.054  0.1125  0.4238  0.6697
 1804SOL    HW2 7261   1.983   4.502   3.055 -0.2737  0.3860 -0.1505
 1804SOL    HW3 7262   2.003   4.385   2.961 -3.1379 -0.7843  0.6453
 1804SOL    MW4 7263   1.995   4.417   3.042 -0.3672  0.2594  0.5581
 1805SOL     OW 7264   2.430   0.011   3.120 -0.5001 -0.5745 -0.1866
 1805SOL    HW2 7265   2.435  -0.075   3.079 -2.4600 -0.7475 -0.1119
 1805SOL    HW3 7266   2.352   0.052   3.080  0.3212  1.0977 -0.1168
 1805SOL    MW4 7267   2.420   0.005   3.109 -0.6502 -0.3767 -0.1676
 1806SOL     OW 7268   2.230   0.164   3.012 -0.5494  0.0779  0.2742
 1806SOL    HW2 7269   2.239   0.255   3.039  0.4539 -0.5036  1.9421
 1806SOL    HW3 7270   2.141   0.139   3.039 -0.8132  0.5394 -0.1578
 1806SOL    MW4 7271   2.219   0.173   3.019 -0.4518  0.0620  0.4373
 1807SOL     OW 7272   2.240   0.430   3.094 -0.0769 -0.3096 -0.1080
 1807SOL    HW2 7273   2.218   0.408   3.185  0.2582 -0.8435 -0.1520
 1807SOL    HW3 7274   2.170   0.488   3.066 -0.1428 -0.0820  0.5191
 1807SOL    MW4 7275   2.228   0.435   3.103 -0.0412 -0.3500 -0.0310
 1808SOL     OW 7276   2.497   0.542   3.035 -0.3440  0.5202  0.3900
 1808SOL    HW2 7277   2.426   0.485   3.063  0.3609  0.0536  1.2310
 1808SOL    HW3 7278   2.509   0.522   2.942  0.9710 -1.8794  1.0411
 1808SOL    MW4 7279   2.489   0.532   3.026 -0.0777  0.1420  0.5870
 1809SOL     OW 7280   2.495   0.813   3.082 -0.1671 -0.4239  0.0315
 1809SOL    HW2 7281   2.577   0.843   3.042 -0.6680 -1.3942 -1.8005
 1809SOL    HW3 7282   2.486   0.722   3.052 -1.5698 -0.5395  0.7556
 1809SOL    MW4 7283   2.505   0.805   3.073 -0.4182 -0.5672 -0.1149
 1810SOL     OW 7284   2.251   0.903   3.003 -0.1839 -0.1545  0.0047
 1810SOL    HW2 7285   2.331   0.859   3.031  0.1473  0.8584  0.6824
 1810SOL    HW3 7286   2.181   0.858   3.050  0.2408  0.6194  1.4006
 1810SOL    MW4 7287   2.252   0.891   3.013 -0.0842  0.0812  0.2782
 1811SOL     OW 7288   2.206   1.155   3.073 -0.1532  0.7673  0.4198
 1811SOL    HW2 7289   2.229   1.159   3.166 -0.5390  1.7972  0.4777
 1811SOL    HW3 7290   2.220   1.063   3.049  3.0018  1.1212  0.6923
 1811SOL    MW4 7291   2.211   1.143   3.082  0.2124  0.9499  0.4632
 1812SOL     OW 7292   2.468   1.245   3.007 -0.3168  0.4522 -0.1336
 1812SOL    HW2 7293   2.383   1.206   3.028  0.2623 -1.0868 -0.5553
 1812SOL    HW3 7294   2.468   1.252   2.912  0.6596 -1.0697 -0.2570
 1812SOL    MW4 7295   2.457   1.241   2.997 -0.1116  0.0483 -0.2053
 1813SOL     OW 7296   2.474   1.497   3.112  0.6848  0.1717  0.0899
 1813SOL    HW2 7297   2.403   1.552   3.080  0.2187 -0.3467  0.2255
 1813SOL    HW3 7298   2.462   1.414   3.067  1.7032  0.3492 -0.5160
 1813SOL    MW4 7299   2.463   1.493   3.102  0.7575  0.1267  0.0277
 1814SOL     OW 7300   2.242   1.667   3.046  0.1981 -0.2056 -0.0105
 1814SOL    HW2 7301   2.156   1.634   3.074  0.0230  0.6645  0.5017
 1814SOL    HW3 7302   2.238   1.665   2.950 -0.3935 -0.2050  0.0095
 1814SOL    MW4 7303   2.230   1.663   3.037  0.0970 -0.0907  0.0598
 1815SOL     OW 7304   2.247   1.940   3.139  0.3334 -0.1769 -0.1232
 1815SOL    HW2 7305   2.322   1.983   3.098 -0.8545  0.8963 -1.2522
 1815SOL    HW3 7306   2.248   1.851   3.105  1.1972 -0.2216  0.0154
 1815SOL    MW4 7307   2.257   1.934   3.129  0.2904 -0.0411 -0.2542
 1816SOL     OW 7308   2.482   2.078   3.022  0.2895 -0.2185 -0.2248
 1816SOL    HW2 7309   2.556   2.021   3.042  1.4168  1.1523 -0.3683
 1816SOL    HW3 7310   2.469   2.068   2.928  0.8498  0.1515 -0.3496
 1816SOL    MW4 7311   2.490   2.069   3.012  0.5121  0.0112 -0.2601
 1817SOL     OW 7312   2.462   2.327   3.109 -0.2292  0.4841  0.3751
 1817SOL    HW2 7313   2.453   2.322   3.204 -0.9741 -0.8876  0.2512
 1817SOL    HW3 7314   2.469   2.235   3.081  0.9884  0.9178 -0.7955
 1817SOL    MW4 7315   2.462   2.314   3.117 -0.1669  0.3603  0.2043
 1818SOL     OW 7316   2.288   2.486   2.982  0.3888 -0.1181  0.0256
 1818SOL    HW2 7317   2.259   2.566   3.027 -0.1357 -0.9439  1.1623
 1818SOL    HW3 7318   2.351   2.446   3.042 -1.5085 -2.0631  0.7947
 1818SOL    MW4 7319   2.293   2.492   2.996  0.0694 -0.4835  0.2770
 1819SOL     OW 7320   2.220   2.710   3.157 -0.3393  0.1882  0.5757
 1819SOL    HW2 7321   2.298   2.759   3.131 -0.1793 -1.1852 -1.6252
 1819SOL    HW3 7322   2.147   2.761   3.124 -0.4110  1.4720  2.6321
 1819SOL    MW4 7323   2.221   2.723   3.149 -0.3276  0.1764  0.5565
 1820SOL     OW 7324   2.416   2.854   3.031 -0.1871 -0.5049  0.0150
 1820SOL    HW2 7325   2.426   2.948   3.044 -1.0695 -0.4713  0.4412
 1820SOL    HW3 7326   2.411   2.843   2.936 -2.1198  0.0813  0.0463
 1820SOL    MW4 7327   2.417   2.865   3.020 -0.5589 -0.4230  0.0753
 1821SOL     OW 7328   2.419   3.123   3.102  0.1749 -0.6836 -0.0928
 1821SOL    HW2 7329   2.494   3.180   3.082 -0.2342 -0.2588 -0.4292
 1821SOL    HW3 7330   2.348   3.157   3.048 -0.5319 -0.4623  0.9579
 1821SOL    MW4 7331   2.420   3.135   3.092  0.0277 -0.5984  0.0014
 1822SOL     OW 7332   2.203   3.219   2.945  0.4016 -0.3332 -0.3781
 1822SOL    HW2 7333   2.217   3.307   2.982 -0.0987 -0.1678 -0.5908
 1822SOL    HW3 7334   2.151   3.174   3.011 -0.6395  0.0158 -0.9517
 1822SOL    MW4 7335   2.198   3.225   2.959  0.1984 -0.2651 -0.4818
 1823SOL     OW 7336   2.230   3.464   3.066 -0.1829  0.3147  0.0921
 1823SOL    HW2 7337   2.305   3.519   3.044 -0.5417  0.8377  0.1663
 1823SOL    HW3 7338   2.153   3.519   3.045 -0.5769 -0.8848 -1.7893
 1823SOL    MW4 7339   2.229   3.479   3.060 -0.2823  0.2255 -0.1464
 1824SOL     OW 7340   2.475   3.616   2.979  0.3128  0.2093  0.0974
 1824SOL    HW2 7341   2.544   3.576   3.032  0.4517  1.1293  0.6156
 1824SOL    HW3 7342   2.471   3.707   3.009 -0.1295  0.5379 -0.9446
 1824SOL    MW4 7343   2.484   3.622   2.990  0.2728  0.3738  0.0284
 1825SOL     OW 7344   2.501   3.872   3.058 -0.3352 -0.1744  0.0450
 1825SOL    HW2 7345   2.500   3.866   3.154  2.2949 -0.9285  0.0430
 1825SOL    HW3 7346   2.569   3.935   3.038  0.3424 -1.3353 -1.3981
 1825SOL    MW4 7347   2.510   3.879   3.068  0.1011 -0.4268 -0.1454
 1826SOL     OW 7348   2.271   3.998   2.961 -0.1127 -0.0497  0.0870
 1826SOL    HW2 7349   2.350   3.959   2.997 -0.9239 -1.3964  0.4373
 1826SOL    HW3 7350   2.200   3.965   3.016 -0.9341  1.1375 -0.2239
 1826SOL    MW4 7351   2.272   3.989   2.973 -0.3281 -0.0706  0.0920
 1827SOL     OW 7352   2.225   4.260   3.103  0.1255  0.1940 -0.3208
 1827SOL    HW2 7353   2.223   4.179   3.051  0.8341 -0.4946  0.6911
 1827SOL    HW3 7354   2.147   4.308   3.076 -0.7481 -1.2135 -0.3429
 1827SOL    MW4 7355   2.215   4.255   3.093  0.1040 -0.0825 -0.1903
 1828SOL     OW 7356   2.450   4.395   3.056 -0.2930  0.4593  0.2998
 1828SOL    HW2 7357   2.368   4.358   3.087 -0.9673  2.3349  0.7687
 1828SOL    HW3 7358   2.436   4.409   2.962 -0.3892  0.4687  0.3154
 1828SOL    MW4 7359   2.438   4.392   3.048 -0.3948  0.7086  0.3638
 1829SOL     OW 7360   2.902   0.009   3.120 -0.5052  0.1082 -0.4380
 1829SOL    HW2 7361   2.977   0.066   3.102 -0.6784 -0.0144 -1.5450
 1829SOL    HW3 7362   2.924  -0.074   3.077 -1.5617  0.2788 -1.3288
 1829SOL    MW4 7363   2.915   0.006   3.112 -0.6676  0.1149 -0.7017
 1830SOL     OW 7364   2.661   0.108   2.987  0.4116  0.4060 -0.3343
 1830SOL    HW2 7365   2.737   0.085   3.041  0.2037  0.1353 -0.1527
 1830SOL    HW3 7366   2.586   0.080   3.039  0.2660 -1.7619 -1.6528
 1830SOL    MW4 7367   2.661   0.101   3.001  0.3648  0.0843 -0.4840
 1831SOL     OW 7368   2.695   0.372   3.096  0.0848 -0.0303  0.2751
 1831SOL    HW2 7369   2.672   0.296   3.043  0.4413  0.7342 -0.9943
 1831SOL    HW3 7370   2.628   0.437   3.075 -0.4475 -0.1243  1.6570
 1831SOL    MW4 7371   2.683   0.370   3.086  0.0615  0.0582  0.2897
 1832SOL     OW 7372   2.934   0.466   2.991  0.0770  0.1856  0.4810
 1832SOL    HW2 7373   2.853   0.428   3.026 -0.0565 -0.3214 -0.3398
 1832SOL    HW3 7374   2.922   0.462   2.896  0.9438  0.3782  0.3629
 1832SOL    MW4 7375   2.922   0.460   2.983  0.1738  0.1441  0.3569
 1833SOL     OW 7376   2.949   0.720   3.095 -0.0775 -0.4617  0.6337
 1833SOL    HW2 7377   2.909   0.693   3.177  0.6412 -1.4270  0.6696
 1833SOL    HW3 7378   2.958   0.640   3.044 -0.2887  0.0883 -0.2993
 1833SOL    MW4 7379   2.945   0.706   3.099 -0.0105 -0.5165  0.5155
 1834SOL     OW 7380   2.754   0.891   3.009  0.6776 -0.2139  0.1768
 1834SOL    HW2 7381   2.740   0.975   3.054 -0.2937 -0.6018  0.6119
 1834SOL    HW3 7382   2.835   0.857   3.048  0.6563  0.1565  0.5550
 1834SOL    MW4 7383   2.763   0.898   3.020  0.5465 -0.2162  0.2837
 1835SOL     OW 7384   2.696   1.132   3.127  0.4155  0.6287  0.1283
 1835SOL    HW2 7385   2.759   1.188   3.083 -0.7576  1.6290 -0.3015
 1835SOL    HW3 7386   2.610   1.169   3.105 -0.3686 -1.1767  0.0513
 1835SOL    MW4 7387   2.693   1.144   3.119  0.1571  0.5225  0.0615
 1836SOL     OW 7388   2.916   1.246   2.997  0.0669  0.1370 -0.3723
 1836SOL    HW2 7389   2.980   1.189   3.039  1.9522  1.4780 -1.2872
 1836SOL    HW3 7390   2.933   1.333   3.035 -0.9018  0.5902 -0.9561
 1836SOL    MW4 7391   2.927   1.250   3.007  0.1879  0.3736 -0.5701
 1837SOL     OW 7392   2.954   1.494   3.100 -0.4984 -0.1241 -0.5104
 1837SOL    HW2 7393   2.948   1.516   3.193  0.4820 -0.5537 -0.3471
 1837SOL    HW3 7394   3.013   1.560   3.063  0.5548 -1.0351 -0.4750
 1837SOL    MW4 7395   2.961   1.506   3.108 -0.2301 -0.3009 -0.4842
 1838SOL     OW 7396   2.715   1.602   2.999 -0.0589  0.9605 -0.1600
 1838SOL    HW2 7397   2.799   1.578   3.040  0.1150  0.9994 -0.4887
 1838SOL    HW3 7398   2.649   1.556   3.050  0.0250  2.2482  1.1406
 1838SOL    MW4 7399   2.718   1.593   3.011 -0.0248  1.1355 -0.0319
 1839SOL     OW 7400   2.690   1.867   3.105  0.0679  0.3303 -0.2893
 1839SOL    HW2 7401   2.770   1.916   3.082  1.4634 -1.1785  1.2264
 1839SOL    HW3 7402   2.700   1.783   3.062 -0.8719  0.2412 -0.3442
 1839SOL    MW4 7403   2.702   1.863   3.097  0.1283  0.1194 -0.0966
 1840SOL     OW 7404   2.885   2.041   3.027  0.1812  0.1440 -0.0439
 1840SOL    HW2 7405   2.884   2.121   3.081  1.2196  0.3820 -0.3704
 1840SOL    HW3 7406   2.911   2.071   2.940  1.0224 -0.6163 -0.0576
 1840SOL    MW4 7407   2.888   2.056   3.023  0.4292  0.0751 -0.0889
 1841SOL     OW 7408   2.860   2.321   3.103 -0.0108  0.5480 -0.0088
 1841SOL    HW2 7409   2.937   2.372   3.078 -0.1980 -0.2442 -2.3538
 1841SOL    HW3 7410   2.786   2.367   3.063 -0.4968  0.0637  0.3179
 1841SOL    MW4 7411   2.860   2.334   3.094 -0.0994  0.3798 -0.2754
 1842SOL     OW 7412   2.669   2.453   2.973  0.0951 -0.1392  0.4643
 1842SOL    HW2 7413   2.657   2.535   3.019 -0.9378  0.8536 -1.5155
 1842SOL    HW3 7414   2.609   2.392   3.015 -0.3949  0.5851  0.8193
 1842SOL    MW4 7415   2.660   2.456   2.984 -0.1061  0.0875  0.2499
 1843SOL     OW 7416   2.649   2.698   3.127  0.0430  0.6263  0.5081
 1843SOL    HW2 7417   2.656   2.734   3.215 -2.2578  0.0869  0.9634
 1843SOL    HW3 7418   2.572   2.741   3.090 -0.7580 -1.2937 -0.1298
 1843SOL    MW4 7419   2.639   2.708   3.134 -0.3660  0.3014  0.4840
 1844SOL     OW 7420   2.878   2.802   2.991 -0.4489 -0.3985 -0.5122
 1844SOL    HW2 7421   2.947   2.778   3.053 -1.0086 -1.1251 -0.1564
 1844SOL    HW3 7422   2.797   2.770   3.032 -1.0633  0.9060 -0.6678
 1844SOL    MW4 7423   2.876   2.794   3.005 -0.6039 -0.3221 -0.4859
 1845SOL     OW 7424   2.932   3.093   3.066  0.3497  0.4312 -0.4914
 1845SOL    HW2 7425   2.848   3.136   3.052  0.2122  0.8188  1.3724
 1845SOL    HW3 7426   2.919   3.003   3.034 -1.6802 -0.3410  2.3659
 1845SOL    MW4 7427   2.919   3.087   3.060  0.0639  0.3805  0.1311
 1846SOL     OW 7428   2.667   3.237   3.027 -0.4447 -0.1282  0.3865
 1846SOL    HW2 7429   2.696   3.327   3.041 -0.0169 -0.3869  1.1863
 1846SOL    HW3 7430   2.669   3.226   2.932  0.4795  0.3801  0.3432
 1846SOL    MW4 7431   2.671   3.248   3.016 -0.2663 -0.0951  0.4861
 1847SOL     OW 7432   2.689   3.499   3.103 -0.4336  0.0148 -0.4661
 1847SOL    HW2 7433   2.687   3.497   3.198 -0.0457  0.1716 -0.4533
 1847SOL    HW3 7434   2.767   3.550   3.081 -1.1211  0.9102 -0.8668
 1847SOL    MW4 7435   2.699   3.505   3.112 -0.4730  0.1535 -0.5169
 1848SOL     OW 7436   2.936   3.615   3.049 -0.0992 -0.1265 -0.2038
 1848SOL    HW2 7437   3.011   3.561   3.077  0.3805  0.4846 -0.2949
 1848SOL    HW3 7438   2.939   3.692   3.106 -0.0297  0.3978 -0.9112
 1848SOL    MW4 7439   2.947   3.618   3.060 -0.0267  0.0231 -0.3090
 1849SOL     OW 7440   2.937   3.893   3.144  0.1244 -0.1963 -0.3144
 1849SOL    HW2 7441   2.936   3.891   3.240 -1.1482 -1.1365 -0.3366
 1849SOL    HW3 7442   2.856   3.938   3.121 -0.0372 -0.8206 -0.9635
 1849SOL    MW4 7443   2.926   3.899   3.154 -0.0648 -0.4029 -0.4032
 1850SOL     OW 7444   2.714   4.021   3.026  0.5202  0.2622  0.4524
 1850SOL    HW2 7445   2.703   4.114   3.049 -0.3407 -0.0539  1.3701
 1850SOL    HW3 7446   2.727   4.021   2.931  1.8798  1.4256  0.6087
 1850SOL    MW4 7447   2.714   4.033   3.017  0.5860  0.3738  0.5939
 1851SOL     OW 7448   2.702   4.280   3.113  0.1128  0.2649 -0.2130
 1851SOL    HW2 7449   2.701   4.275   3.208  1.6737  1.9215 -0.0755
 1851SOL    HW3 7450   2.615   4.310   3.089 -0.5383 -0.9161  0.6275
 1851SOL    MW4 7451   2.691   4.283   3.122  0.2329  0.3276 -0.0842
 1852SOL     OW 7452   2.929   4.418   3.014  0.1465 -0.1812  0.5298
 1852SOL    HW2 7453   3.002   4.373   3.057 -1.0472 -0.7541  1.9605
 1852SOL    HW3 7454   2.851   4.371   3.042 -0.9308  1.4144  0.2638
 1852SOL    MW4 7455   2.929   4.406   3.023 -0.1531 -0.0467  0.6833
 1853SOL     OW 7456   3.374   4.652   3.126  0.0840 -0.2385 -0.4390
 1853SOL    HW2 7457   3.432   4.709   3.076 -0.4288  1.0772  0.4633
 1853SOL    HW3 7458   3.389   4.565   3.089  2.1219  0.1996 -0.6894
 1853SOL    MW4 7459   3.384   4.648   3.115  0.2851 -0.0072 -0.3526
 1854SOL     OW 7460   3.148   0.137   3.040 -0.1468 -0.6085 -0.1268
 1854SOL    HW2 7461   3.135   0.209   3.102 -0.1844  0.3369 -1.2391
 1854SOL    HW3 7462   3.210   0.079   3.085  2.8791  2.0021 -0.7978
 1854SOL    MW4 7463   3.154   0.139   3.054  0.2477 -0.1394 -0.3622
 1855SOL     OW 7464   3.149   0.395   3.171  0.3004  0.0998  0.0120
 1855SOL    HW2 7465   3.225   0.431   3.123 -0.0414  1.7973  0.6995
 1855SOL    HW3 7466   3.073   0.422   3.119  0.0158  0.7256  0.7432
 1855SOL    MW4 7467   3.149   0.404   3.158  0.2179  0.4063  0.1991
 1856SOL     OW 7468   3.362   0.529   3.025 -0.0419  0.0031  0.4004
 1856SOL    HW2 7469   3.450   0.495   3.046 -0.6838 -1.9441  0.0932
 1856SOL    HW3 7470   3.362   0.535   2.930 -0.1077  0.4031  0.4264
 1856SOL    MW4 7471   3.374   0.525   3.015 -0.1354 -0.2010  0.3633
 1857SOL     OW 7472   3.403   0.769   3.146 -0.2603  0.1722 -0.2581
 1857SOL    HW2 7473   3.374   0.753   3.236 -0.8692  0.7244 -0.3519
 1857SOL    HW3 7474   3.397   0.683   3.104  1.1144 -0.3289  0.5183
 1857SOL    MW4 7475   3.398   0.755   3.152 -0.1593  0.1789 -0.1681
 1858SOL     OW 7476   3.183   0.853   3.011  0.5643 -0.1123 -0.2236
 1858SOL    HW2 7477   3.260   0.819   3.056  0.1638 -0.5357  0.1475
 1858SOL    HW3 7478   3.111   0.798   3.041  0.3444 -0.6354 -1.6547
 1858SOL    MW4 7479   3.183   0.841   3.021  0.4823 -0.2372 -0.3633
 1859SOL     OW 7480   3.128   1.112   3.105 -0.3068 -0.2243  0.2250
 1859SOL    HW2 7481   3.196   1.152   3.051 -1.2463  0.8511 -0.1905
 1859SOL    HW3 7482   3.128   1.020   3.080 -0.6179  0.2289 -1.5300
 1859SOL    MW4 7483   3.137   1.105   3.094 -0.4718 -0.0226 -0.0615
 1860SOL     OW 7484   3.355   1.289   2.980  0.5285 -0.3619  0.0490
 1860SOL    HW2 7485   3.412   1.244   3.041 -1.6891 -0.9519  1.7717
 1860SOL    HW3 7486   3.349   1.379   3.014  0.4846 -0.2932 -0.1397
 1860SOL    MW4 7487   3.362   1.295   2.993  0.2298 -0.4307  0.2515
 1861SOL     OW 7488   3.350   1.558   3.098 -0.2398 -0.5306 -0.1353
 1861SOL    HW2 7489   3.359   1.552   3.193  0.3934  0.7916 -0.1119
 1861SOL    HW3 7490   3.438   1.575   3.066 -0.8806  1.7626 -0.7398
 1861SOL    MW4 7491   3.362   1.559   3.107 -0.2408 -0.0536 -0.2122
 1862SOL     OW 7492   3.123   1.693   3.021  0.2502  0.2764  0.0203
 1862SOL    HW2 7493   3.209   1.671   3.058  0.1984 -0.5099 -0.3233
 1862SOL    HW3 7494   3.139   1.701   2.927  0.0347  0.5802  0.0087
 1862SOL    MW4 7495   3.137   1.691   3.013  0.2151  0.2127 -0.0262
 1863SOL     OW 7496   3.125   1.957   3.116 -0.0484 -0.0790 -0.2604
 1863SOL    HW2 7497   3.125   1.872   3.074 -0.4136  0.3755 -1.1932
 1863SOL    HW3 7498   3.043   1.998   3.088 -0.3160  0.2160  0.9206
 1863SOL    MW4 7499   3.114   1.951   3.107 -0.1318  0.0198 -0.2275
 1864SOL     OW 7500   3.354   2.081   3.040 -0.1058  0.0487  0.0054
 1864SOL    HW2 7501   3.429   2.025   3.062  0.9984  1.4570 -0.1083
 1864SOL    HW3 7502   3.278   2.030   3.068  0.9529 -0.8307  1.3880
 1864SOL    MW4 7503   3.354   2.067   3.046  0.1795  0.1183  0.1731
 1865SOL     OW 7504   3.350   2.343   3.114 -0.3735 -0.1240  0.4865
 1865SOL    HW2 7505   3.347   2.332   3.209 -0.2371 -1.1438  0.3844
 1865SOL    HW3 7506   3.358   2.254   3.080  0.4730  0.2868 -0.4427
 1865SOL    MW4 7507   3.351   2.330   3.122 -0.2437 -0.2043  0.3502
 1866SOL     OW 7508   3.131   2.471   3.021 -0.3747 -0.0690  0.2131
 1866SOL    HW2 7509   3.201   2.421   3.063 -0.2501  1.1113  1.4486
 1866SOL    HW3 7510   3.133   2.444   2.929  1.3575 -0.4446  0.3556
 1866SOL    MW4 7511   3.140   2.461   3.014 -0.1295  0.0374  0.3946
 1867SOL     OW 7512   3.110   2.738   3.116 -0.5627  0.2518  0.3417
 1867SOL    HW2 7513   3.123   2.729   3.211 -0.5957 -1.7094  0.1931
 1867SOL    HW3 7514   3.121   2.649   3.082  1.1986  1.2161 -1.7318
 1867SOL    MW4 7515   3.113   2.725   3.124 -0.3347  0.1204  0.0484
 1868SOL     OW 7516   3.360   2.831   3.020 -0.0039 -0.3501 -0.0049
 1868SOL    HW2 7517   3.371   2.919   3.056 -0.0877  0.0294 -0.8785
 1868SOL    HW3 7518   3.281   2.797   3.062 -0.2222  0.1685  0.0075
 1868SOL    MW4 7519   3.351   2.838   3.030 -0.0439 -0.2317 -0.1185
 1869SOL     OW 7520   3.412   3.084   3.131 -0.0951 -0.3407  0.4693
 1869SOL    HW2 7521   3.391   3.095   3.224 -0.1149  2.1081  0.2061
 1869SOL    HW3 7522   3.348   3.137   3.085  1.1432  0.0649 -0.8292
 1869SOL    MW4 7523   3.401   3.092   3.137  0.0656  0.0355  0.2632
 1870SOL     OW 7524   3.194   3.222   3.015 -0.1708 -0.2891  0.4440
 1870SOL    HW2 7525   3.114   3.181   3.046  0.6905 -2.3301  0.0621
 1870SOL    HW3 7526   3.182   3.231   2.920  0.3161 -1.2544  0.2815
 1870SOL    MW4 7527   3.182   3.218   3.006  0.0072 -0.6855  0.3724
 1871SOL     OW 7528   3.154   3.484   3.140 -0.0424  0.2949 -0.3725
 1871SOL    HW2 7529   3.210   3.541   3.087  0.2079 -0.3190 -0.7685
 1871SOL    HW3 7530   3.162   3.398   3.100  1.6134 -0.5841  1.7847
 1871SOL    MW4 7531   3.162   3.480   3.128  0.2093  0.0980 -0.1400
 1872SOL     OW 7532   3.344   3.628   2.996  0.6524  0.7165  0.2935
 1872SOL    HW2 7533   3.421   3.583   3.030  0.1540 -1.0670 -0.9028
 1872SOL    HW3 7534   3.336   3.706   3.052  1.1562 -0.9691  2.7829
 1872SOL    MW4 7535   3.353   3.633   3.008  0.6530  0.2587  0.4642
 1873SOL     OW 7536   3.325   3.885   3.111  0.0341  0.0301 -0.0351
 1873SOL    HW2 7537   3.322   3.892   3.207 -0.8877  0.0485 -0.0655
 1873SOL    HW3 7538   3.276   3.960   3.079  2.0444  1.1573 -0.5744
 1873SOL    MW4 7539   3.318   3.896   3.120  0.1779  0.1812 -0.1101
 1874SOL     OW 7540   3.122   4.059   2.994  0.2153  0.1185  0.3745
 1874SOL    HW2 7541   3.066   4.001   3.045  2.1662 -0.4731  1.9089
 1874SOL    HW3 7542   3.108   4.032   2.903 -1.9914  0.0279  0.7111
 1874SOL    MW4 7543   3.113   4.048   2.989  0.1814  0.0281  0.6213
 1875SOL     OW 7544   3.138   4.301   3.130  0.2534  0.0731  0.1823
 1875SOL    HW2 7545   3.126   4.284   3.224 -3.4366  0.9565 -0.0457
 1875SOL    HW3 7546   3.144   4.214   3.091 -0.0175 -0.3461  1.0476
 1875SOL    MW4 7547   3.138   4.287   3.137 -0.2692  0.1340  0.2663
 1876SOL     OW 7548   3.392   4.385   3.036  0.4974  0.0514 -0.0958
 1876SOL    HW2 7549   3.461   4.329   3.071 -0.4149 -0.7213  0.4779
 1876SOL    HW3 7550   3.315   4.364   3.088  0.2817  2.2895  0.5375
 1876SOL    MW4 7551   3.391   4.375   3.047  0.3483  0.2451  0.0634
 1877SOL     OW 7552   3.842   0.012   3.123 -0.2162 -0.0426 -0.1110
 1877SOL    HW2 7553   3.835  -0.078   3.089 -0.0296 -0.5178  1.0936
 1877SOL    HW3 7554   3.759   0.053   3.096 -0.9219 -1.0023  0.5591
 1877SOL    MW4 7555   3.830   0.005   3.115 -0.2844 -0.2327  0.1366
 1878SOL     OW 7556   3.601   0.121   3.008  0.4015 -0.1979  0.1027
 1878SOL    HW2 7557   3.596   0.214   3.029  0.5238 -0.3503  0.8249
 1878SOL    HW3 7558   3.618   0.119   2.914  1.1545  0.5241  0.2130
 1878SOL    MW4 7559   3.603   0.133   2.998  0.5171 -0.1227  0.2127
 1879SOL     OW 7560   3.604   0.396   3.096  0.3945 -0.2106 -0.0946
 1879SOL    HW2 7561   3.627   0.404   3.189 -0.1597  0.8147 -0.0395
 1879SOL    HW3 7562   3.679   0.432   3.049  0.2775  0.1309 -0.0176
 1879SOL    MW4 7563   3.617   0.402   3.102  0.3059 -0.0303 -0.0772
 1880SOL     OW 7564   3.837   0.494   2.983 -0.1878  0.0470 -0.2200
 1880SOL    HW2 7565   3.902   0.446   3.033  0.0822  0.2091 -0.4115
 1880SOL    HW3 7566   3.838   0.582   3.020 -0.7496 -0.1176  0.1941
 1880SOL    MW4 7567   3.846   0.499   2.994 -0.2263  0.0466 -0.1905
 1881SOL     OW 7568   3.840   0.749   3.102  0.2278  0.1824  0.3531
 1881SOL    HW2 7569   3.836   0.766   3.196 -0.0230  1.6127  0.0943
 1881SOL    HW3 7570   3.919   0.793   3.072 -0.2831  0.6687 -0.2943
 1881SOL    MW4 7571   3.850   0.757   3.110  0.1276  0.4352  0.2337
 1882SOL     OW 7572   3.623   0.900   3.016  0.0223  0.0147 -0.1127
 1882SOL    HW2 7573   3.704   0.865   3.053 -0.6014 -1.0093  0.2805
 1882SOL    HW3 7574   3.554   0.847   3.054 -0.7937  0.4441 -0.9801
 1882SOL    MW4 7575   3.625   0.889   3.026 -0.1678 -0.0637 -0.1750
 1883SOL     OW 7576   3.562   1.157   3.104 -0.7205  0.1253  0.4734
 1883SOL    HW2 7577   3.630   1.213   3.068 -0.4489  0.1111  0.9590
 1883SOL    HW3 7578   3.591   1.067   3.086 -1.5881  0.1462 -1.0934
 1883SOL    MW4 7579   3.575   1.152   3.097 -0.7992  0.1261  0.3307
 1884SOL     OW 7580   3.792   1.282   3.031  0.0895 -0.4304  0.0815
 1884SOL    HW2 7581   3.787   1.376   3.049  2.3066 -0.4347  0.8924
 1884SOL    HW3 7582   3.792   1.276   2.936 -1.6270  0.2798  0.0251
 1884SOL    MW4 7583   3.792   1.294   3.021  0.1554 -0.3374  0.1812
 1885SOL     OW 7584   3.821   1.545   3.112  0.4182 -0.3873 -0.0790
 1885SOL    HW2 7585   3.811   1.556   3.206  0.0389  1.0233 -0.2744
 1885SOL    HW3 7586   3.747   1.592   3.074  0.6900 -0.7588 -1.0891
 1885SOL    MW4 7587   3.810   1.553   3.119  0.4041 -0.2502 -0.2379
 1886SOL     OW 7588   3.577   1.670   3.018 -0.3486 -0.1838 -0.2461
 1886SOL    HW2 7589   3.564   1.758   3.054 -2.2538 -0.3272 -0.5307
 1886SOL    HW3 7590   3.600   1.685   2.926  0.6247  0.0539  0.0336
 1886SOL    MW4 7591   3.578   1.684   3.010 -0.4716 -0.1713 -0.2470
 1887SOL     OW 7592   3.558   1.921   3.109  0.2774  0.4645  0.1830
 1887SOL    HW2 7593   3.559   1.912   3.205  1.3446 -0.1495  0.1260
 1887SOL    HW3 7594   3.645   1.954   3.088  1.0846 -2.1488 -0.8146
 1887SOL    MW4 7595   3.570   1.924   3.119  0.5248  0.0389  0.0441
 1888SOL     OW 7596   3.773   2.050   2.990 -0.1713  0.0562  0.0506
 1888SOL    HW2 7597   3.755   2.139   3.018 -1.6315  0.0295 -0.7695
 1888SOL    HW3 7598   3.818   2.060   2.906 -0.4556  0.0197 -0.1066
 1888SOL    MW4 7599   3.777   2.063   2.982 -0.4015  0.0482 -0.0784
 1889SOL     OW 7600   3.786   2.309   3.095  0.5092 -1.0150 -0.6476
 1889SOL    HW2 7601   3.768   2.302   3.189  1.6962 -0.9009 -0.4053
 1889SOL    HW3 7602   3.721   2.371   3.063  1.4516  0.6010  0.4934
 1889SOL    MW4 7603   3.775   2.316   3.103  0.7901 -0.7865 -0.4654
 1890SOL     OW 7604   3.562   2.475   3.010 -0.2529  0.0518  0.1403
 1890SOL    HW2 7605   3.579   2.550   3.067  0.6710  0.0190 -0.0747
 1890SOL    HW3 7606   3.479   2.439   3.041 -0.3902  0.7907  0.6445
 1890SOL    MW4 7607   3.553   2.480   3.021 -0.1493  0.1450  0.1783
 1891SOL     OW 7608   3.585   2.731   3.164 -0.1684  0.2540  0.2871
 1891SOL    HW2 7609   3.656   2.775   3.116 -0.9543  1.0646 -0.1340
 1891SOL    HW3 7610   3.505   2.760   3.120 -0.7438 -1.0121  0.4824
 1891SOL    MW4 7611   3.584   2.741   3.152 -0.3481  0.1936  0.2575
 1892SOL     OW 7612   3.821   2.850   3.017  0.5021  0.2536  0.2725
 1892SOL    HW2 7613   3.842   2.936   3.053  2.0352  0.0699 -0.1278
 1892SOL    HW3 7614   3.808   2.866   2.923 -0.2833  0.2105  0.3675
 1892SOL    MW4 7615   3.822   2.863   3.009  0.6011  0.2239  0.2320
 1893SOL     OW 7616   3.846   3.104   3.116  0.4963  0.3683 -0.1132
 1893SOL    HW2 7617   3.925   3.150   3.087  0.2149 -0.6345 -2.5614
 1893SOL    HW3 7618   3.774   3.163   3.092  0.2585 -0.4875 -1.5308
 1893SOL    MW4 7619   3.847   3.118   3.109  0.4282  0.1235 -0.6232
 1894SOL     OW 7620   3.614   3.229   3.047 -0.6497 -0.1507  0.0605
 1894SOL    HW2 7621   3.547   3.168   3.075 -1.2400  0.4584 -0.0001
 1894SOL    HW3 7622   3.604   3.234   2.952  0.2947 -0.9934 -0.0936
 1894SOL    MW4 7623   3.604   3.222   3.038 -0.6030 -0.1814  0.0322
 1895SOL     OW 7624   3.553   3.496   3.115 -0.0816 -0.0729 -0.1980
 1895SOL    HW2 7625   3.622   3.545   3.071  0.5775 -0.9342 -0.1455
 1895SOL    HW3 7626   3.577   3.404   3.101  0.4344 -0.3659  2.3856
 1895SOL    MW4 7627   3.565   3.490   3.107  0.0734 -0.2253  0.1497
 1896SOL     OW 7628   3.769   3.634   3.011  0.0694 -0.2221 -0.1280
 1896SOL    HW2 7629   3.798   3.720   3.042 -1.3240  0.2002  0.0278
 1896SOL    HW3 7630   3.764   3.643   2.916 -2.9550  0.8251  0.0667
 1896SOL    MW4 7631   3.772   3.647   3.003 -0.5136 -0.0281 -0.0815
 1897SOL     OW 7632   3.809   3.896   3.101  0.5310  0.1647  0.0601
 1897SOL    HW2 7633   3.821   3.888   3.195  0.7750  2.6616  0.2616
 1897SOL    HW3 7634   3.721   3.934   3.091 -0.0057 -1.2504 -0.7707
 1897SOL    MW4 7635   3.799   3.900   3.112  0.4926  0.3073 -0.0231
 1898SOL     OW 7636   3.569   3.990   3.036  0.2700 -0.0311  0.0931
 1898SOL    HW2 7637   3.485   3.954   3.065 -0.2477  1.3479  0.3354
 1898SOL    HW3 7638   3.569   3.976   2.941  0.3468 -1.2270  0.2671
 1898SOL    MW4 7639   3.558   3.983   3.027  0.2117 -0.0069  0.1478
 1899SOL     OW 7640   3.610   4.247   3.161 -0.1754  0.6485  0.4288
 1899SOL    HW2 7641   3.680   4.303   3.127 -0.5516  0.0854 -1.2699
 1899SOL    HW3 7642   3.617   4.166   3.112 -1.8771  0.4975  0.4139
 1899SOL    MW4 7643   3.621   4.244   3.150 -0.4499  0.5546  0.2027
 1900SOL     OW 7644   3.821   4.403   3.051  0.2956 -0.0398  0.3494
 1900SOL    HW2 7645   3.900   4.355   3.075 -0.0928 -0.4517  0.8006
 1900SOL    HW3 7646   3.821   4.402   2.955  0.7035 -0.2501  0.3502
 1900SOL    MW4 7647   3.832   4.396   3.041  0.2983 -0.1221  0.4091
 1901SOL     OW 7648   4.306   4.632   3.153  0.1604  0.0369  0.2264
 1901SOL    HW2 7649   4.299   4.608   3.245 -1.0101  0.6223  0.3029
 1901SOL    HW3 7650   4.289   4.552   3.105 -0.4329 -0.0011  0.5051
 1901SOL    MW4 7651   4.303   4.618   3.159 -0.0725  0.1087  0.2730
 1902SOL     OW 7652   4.087   0.124   3.034 -0.2361 -0.4307 -0.1912
 1902SOL    HW2 7653   4.155   0.070   3.075 -0.4194 -0.8345 -0.4134
 1902SOL    HW3 7654   4.005   0.087   3.063 -0.3693 -0.7562 -0.9580
 1902SOL    MW4 7655   4.085   0.112   3.043 -0.2780 -0.5269 -0.3216
 1903SOL     OW 7656   4.057   0.383   3.130  0.6189 -0.0536  0.7843
 1903SOL    HW2 7657   4.133   0.435   3.105 -0.1076  0.0454 -1.2648
 1903SOL    HW3 7658   4.077   0.294   3.103 -0.5487  0.2182 -1.1196
 1903SOL    MW4 7659   4.069   0.378   3.123  0.3686 -0.0047  0.2627
 1904SOL     OW 7660   4.287   0.508   3.028 -0.3311  0.4107  0.1409
 1904SOL    HW2 7661   4.299   0.600   3.053  1.2220  0.5971 -1.1472
 1904SOL    HW3 7662   4.273   0.511   2.933 -1.5589 -0.5962  0.2820
 1904SOL    MW4 7663   4.287   0.521   3.019 -0.2880  0.3024 -0.0105
 1905SOL     OW 7664   4.348   0.764   3.133 -0.2758  0.2350  0.1591
 1905SOL    HW2 7665   4.260   0.797   3.116 -0.3260  0.8925  1.6649
 1905SOL    HW3 7666   4.406   0.832   3.099 -0.3475  0.1885 -0.0597
 1905SOL    MW4 7667   4.344   0.777   3.126 -0.2923  0.3155  0.3288
 1906SOL     OW 7668   4.070   0.876   3.050 -0.3687  0.1080 -0.0254
 1906SOL    HW2 7669   4.042   0.965   3.071 -1.5720 -0.3216  0.1706
 1906SOL    HW3 7670   4.046   0.864   2.958 -1.5718 -0.5533  0.3773
 1906SOL    MW4 7671   4.063   0.886   3.040 -0.6866 -0.0359  0.0536
 1907SOL     OW 7672   4.024   1.138   3.094 -0.0717 -0.5479 -0.4611
 1907SOL    HW2 7673   4.028   1.151   3.189  0.0697  2.0894 -0.7958
 1907SOL    HW3 7674   3.941   1.178   3.068  1.3212  1.5209 -1.8400
 1907SOL    MW4 7675   4.013   1.145   3.103  0.1307  0.0731 -0.6871
 1908SOL     OW 7676   4.264   1.275   3.022  0.3503 -0.0472  0.5456
 1908SOL    HW2 7677   4.182   1.227   3.037 -0.2727  0.5638 -0.9010
 1908SOL    HW3 7678   4.287   1.257   2.931  0.6890  1.5275  0.3057
 1908SOL    MW4 7679   4.257   1.266   3.012  0.3128  0.2413  0.3231
 1909SOL     OW 7680   4.257   1.556   3.106 -0.2281 -0.0935  0.2996
 1909SOL    HW2 7681   4.188   1.608   3.063 -0.9930 -0.2309  1.3587
 1909SOL    HW3 7682   4.232   1.465   3.089 -0.4783 -0.1475  0.9410
 1909SOL    MW4 7683   4.245   1.551   3.098 -0.3614 -0.1187  0.5238
 1910SOL     OW 7684   4.038   1.677   3.003 -0.3621  0.3766  0.2138
 1910SOL    HW2 7685   4.030   1.768   3.032 -1.0935  0.9860 -1.7991
 1910SOL    HW3 7686   3.972   1.630   3.054  0.5606  0.8125  1.8423
 1910SOL    MW4 7687   4.028   1.683   3.013 -0.3362  0.5145  0.1631
 1911SOL     OW 7688   4.025   1.956   3.120  0.0248  0.0712  0.3425
 1911SOL    HW2 7689   4.104   2.006   3.097  0.6435 -1.1797 -0.2893
 1911SOL    HW3 7690   3.953   2.007   3.082  0.7455 -0.0847 -1.2824
 1911SOL    MW4 7691   4.026   1.969   3.112  0.2017 -0.1143  0.0448
 1912SOL     OW 7692   4.278   2.070   3.061  0.0176 -0.4550  0.0299
 1912SOL    HW2 7693   4.286   2.162   3.082 -1.0138 -0.5793  1.0187
 1912SOL    HW3 7694   4.265   2.068   2.966 -0.0861  0.4243  0.0212
 1912SOL    MW4 7695   4.277   2.082   3.051 -0.1326 -0.3555  0.1595
 1913SOL     OW 7696   4.287   2.354   3.079 -0.2758 -0.0696  0.0041
 1913SOL    HW2 7697   4.202   2.386   3.052  0.4701  0.3859 -1.8759
 1913SOL    HW3 7698   4.349   2.398   3.021  1.1739 -0.9309  0.8692
 1913SOL    MW4 7699   4.284   2.364   3.068  0.0138 -0.1233 -0.1299
 1914SOL     OW 7700   4.014   2.444   2.992 -0.1341  0.0089 -0.3990
 1914SOL    HW2 7701   4.009   2.535   3.023  0.9357  0.3751 -1.2943
 1914SOL    HW3 7702   3.930   2.406   3.019  0.0291  0.8136  1.3627
 1914SOL    MW4 7703   4.002   2.451   3.000  0.0286  0.1633 -0.2849
 1915SOL     OW 7704   4.015   2.692   3.098 -0.2179  0.1658 -0.0895
 1915SOL    HW2 7705   4.021   2.681   3.193 -0.5529 -1.1860 -0.2067
 1915SOL    HW3 7706   3.927   2.727   3.084  0.2695  1.5135  0.1826
 1915SOL    MW4 7707   4.004   2.695   3.109 -0.1974  0.1652 -0.0689
 1916SOL     OW 7708   4.243   2.836   2.989  0.2389  0.0360 -0.1121
 1916SOL    HW2 7709   4.181   2.776   3.031 -0.2535  0.1269 -0.7108
 1916SOL    HW3 7710   4.329   2.796   3.004 -0.1278 -1.0978 -0.9610
 1916SOL    MW4 7711   4.246   2.823   2.997  0.1254 -0.1013 -0.3030
 1917SOL     OW 7712   4.236   3.090   3.115  0.5294 -0.6374  0.2718
 1917SOL    HW2 7713   4.167   3.141   3.073  1.1395 -1.3442 -1.6683
 1917SOL    HW3 7714   4.230   3.004   3.075  0.7831 -1.5216  2.0826
 1917SOL    MW4 7715   4.226   3.085   3.104  0.6433 -0.8473  0.2549
 1918SOL     OW 7716   4.056   3.239   2.983  0.0426 -0.1630  0.4065
 1918SOL    HW2 7717   4.023   3.325   3.009  0.0827 -0.4011  1.2790
 1918SOL    HW3 7718   4.049   3.238   2.888  1.1858  1.2633  0.2958
 1918SOL    MW4 7719   4.050   3.250   2.974  0.1988 -0.0060  0.5069
 1919SOL     OW 7720   4.006   3.499   3.070 -0.0560  0.1143 -0.2236
 1919SOL    HW2 7721   3.979   3.473   3.159 -1.7915 -0.8387 -0.9947
 1919SOL    HW3 7722   3.934   3.554   3.039 -0.0685 -0.6128 -1.5153
 1919SOL    MW4 7723   3.993   3.503   3.078 -0.2863 -0.1075 -0.4959
 1920SOL     OW 7724   4.265   3.609   3.012  0.1746  0.3847 -0.1900
 1920SOL    HW2 7725   4.273   3.702   3.033 -1.0212  0.3746  0.3363
 1920SOL    HW3 7726   4.179   3.584   3.045 -0.0261 -0.6201 -1.4305
 1920SOL    MW4 7727   4.255   3.618   3.019 -0.0095  0.2508 -0.2842
 1921SOL     OW 7728   4.263   3.891   3.084 -0.0148 -0.2032 -0.0792
 1921SOL    HW2 7729   4.186   3.936   3.050  0.0806  0.7512  0.9561
 1921SOL    HW3 7730   4.337   3.930   3.038  0.0628  0.6767  0.7754
 1921SOL    MW4 7731   4.263   3.902   3.074  0.0081  0.0389  0.1702
 1922SOL     OW 7732   4.044   4.012   2.984 -0.0046 -0.4252 -0.0847
 1922SOL    HW2 7733   4.057   4.097   3.027 -1.7421 -0.1414 -0.0704
 1922SOL    HW3 7734   3.955   3.987   3.008  0.0577 -1.6694 -1.1118
 1922SOL    MW4 7735   4.034   4.020   2.993 -0.2255 -0.5517 -0.2184
 1923SOL     OW 7736   4.053   4.268   3.094 -0.1532 -0.2432 -0.2615
 1923SOL    HW2 7737   4.072   4.263   3.188 -0.0253  0.4729 -0.2520
 1923SOL    HW3 7738   4.131   4.306   3.055 -1.0445  1.4975 -0.3864
 1923SOL    MW4 7739   4.066   4.272   3.101 -0.2532  0.0811 -0.2768
 1924SOL     OW 7740   4.270   4.393   3.000 -0.4418  0.1233 -0.4412
 1924SOL    HW2 7741   4.350   4.352   3.033 -0.4605 -0.5118 -1.1517
 1924SOL    HW3 7742   4.281   4.392   2.904 -0.7018  1.2651 -0.4849
 1924SOL    MW4 7743   4.282   4.387   2.991 -0.4787  0.1898 -0.5407
 1925SOL     OW 7744   0.217   4.642   3.424  0.2119  0.1669 -0.2803
 1925SOL    HW2 7745   0.291   4.693   3.458 -0.7530 -0.3093  2.6733
 1925SOL    HW3 7746   0.222   4.559   3.471 -0.7397 -0.8474 -1.9337
 1925SOL    MW4 7747   0.227   4.638   3.435 -0.0409 -0.0300 -0.1085
 1926SOL     OW 7748   0.010   0.115   3.536  0.4196 -0.7995  0.1453
 1926SOL    HW2 7749   0.019   0.206   3.505 -0.0856 -0.4116  1.1154
 1926SOL    HW3 7750   0.086   0.070   3.500  1.0984  0.1953  0.3020
 1926SOL    MW4 7751   0.021   0.121   3.527  0.4425 -0.6171  0.2942
 1927SOL     OW 7752   4.481   0.396   3.427  0.3917 -0.0448  0.0078
 1927SOL    HW2 7753   4.418   0.445   3.480  0.7718  0.9273 -0.4231
 1927SOL    HW3 7754   4.566   0.426   3.457  0.6253 -0.1600 -0.5276
 1927SOL    MW4 7755   4.484   0.406   3.438  0.4725  0.0682 -0.1194
 1928SOL     OW 7756   0.214   0.525   3.517 -0.0148 -0.2912 -0.1627
 1928SOL    HW2 7757   0.288   0.485   3.469  0.0768 -0.6156  0.2474
 1928SOL    HW3 7758   0.216   0.617   3.490  0.7390 -0.2260  0.0883
 1928SOL    MW4 7759   0.224   0.532   3.507  0.0967 -0.3254 -0.0753
 1929SOL     OW 7760   0.205   0.785   3.421 -0.0546 -0.3320  0.3674
 1929SOL    HW2 7761   0.281   0.831   3.456 -0.4723  1.1566 -0.6309
 1929SOL    HW3 7762   0.130   0.836   3.452 -0.6549 -1.7917  1.3497
 1929SOL    MW4 7763   0.205   0.798   3.430 -0.1889 -0.3282  0.3653
 1930SOL     OW 7764   0.004   0.915   3.527  0.1498 -0.2383 -0.3698
 1930SOL    HW2 7765   0.003   0.927   3.621 -2.3799  0.5482 -0.4639
 1930SOL    HW3 7766  -0.006   1.003   3.491 -0.3100 -0.6718 -1.3350
 1930SOL    MW4 7767   0.002   0.928   3.534 -0.2446 -0.1917 -0.5095
 1931SOL     OW 7768   4.490   1.169   3.429  0.3324  0.0890 -0.3983
 1931SOL    HW2 7769   4.572   1.210   3.455  0.3860 -0.0762 -0.3079
 1931SOL    HW3 7770   4.494   1.168   3.333  0.4450  0.0644 -0.3940
 1931SOL    MW4 7771   4.501   1.174   3.419  0.3543  0.0639 -0.3860
 1932SOL     OW 7772   0.221   1.309   3.535 -0.7831  0.2008 -0.2643
 1932SOL    HW2 7773   0.287   1.245   3.508 -1.6501 -0.9291  0.2452
 1932SOL    HW3 7774   0.249   1.391   3.494  0.9327 -0.2526 -0.0696
 1932SOL    MW4 7775   0.234   1.311   3.526 -0.6711 -0.0081 -0.1714
 1933SOL     OW 7776   0.263   1.558   3.427  0.3189 -0.1828 -0.2291
 1933SOL    HW2 7777   0.321   1.622   3.469  0.6908 -0.6745  0.0134
 1933SOL    HW3 7778   0.271   1.577   3.334  0.6418 -0.0512 -0.1771
 1933SOL    MW4 7779   0.272   1.569   3.420  0.4106 -0.2303 -0.1900
 1934SOL     OW 7780   4.490   1.633   3.496 -0.0289  0.0414  0.0914
 1934SOL    HW2 7781   4.417   1.594   3.449 -0.7540  2.2614 -0.6704
 1934SOL    HW3 7782   4.567   1.582   3.468 -1.0734 -1.4517 -0.1090
 1934SOL    MW4 7783   4.491   1.621   3.486 -0.2627  0.1372 -0.0355
 1935SOL     OW 7784   4.477   1.896   3.390  0.3079  0.2288 -0.1457
 1935SOL    HW2 7785   4.488   1.810   3.430  1.8864  0.9028  0.9266
 1935SOL    HW3 7786   4.485   1.880   3.296  0.0861 -0.8630  0.0143
 1935SOL    MW4 7787   4.480   1.883   3.383  0.4864  0.1736  0.0172
 1936SOL     OW 7788   0.168   2.061   3.495 -0.7297 -0.8383 -0.2858
 1936SOL    HW2 7789   0.161   2.051   3.590  0.8359  0.0572 -0.0706
 1936SOL    HW3 7790   0.098   2.005   3.460 -1.9535 -0.4149  1.4149
 1936SOL    MW4 7791   0.158   2.053   3.503 -0.6846 -0.6642 -0.0331
 1937SOL     OW 7792   0.213   2.308   3.364  0.4103  0.3624  0.5516
 1937SOL    HW2 7793   0.137   2.362   3.386 -1.7331 -1.6448 -1.6163
 1937SOL    HW3 7794   0.200   2.228   3.414  0.2984 -0.5475 -0.8947
 1937SOL    MW4 7795   0.201   2.305   3.374  0.1128 -0.0226  0.0749
 1938SOL     OW 7796   4.479   2.439   3.440 -0.4006  0.5100  0.3488
 1938SOL    HW2 7797   4.473   2.450   3.535 -2.2064 -1.1601  0.4790
 1938SOL    HW3 7798   4.398   2.393   3.417  0.1363  0.6778 -1.9755
 1938SOL    MW4 7799   4.467   2.434   3.450 -0.5679  0.3119  0.0591
 1939SOL     OW 7800   4.441   2.695   3.363  0.0815  0.2717  0.2978
 1939SOL    HW2 7801   4.523   2.730   3.398  0.1738 -0.2034  0.5513
 1939SOL    HW3 7802   4.441   2.603   3.388 -1.6964  0.8095  2.5152
 1939SOL    MW4 7803   4.452   2.688   3.371 -0.1407  0.2801  0.6242
 1940SOL     OW 7804   0.184   2.810   3.466 -0.1133  0.0055  0.0467
 1940SOL    HW2 7805   0.268   2.781   3.431 -0.2120 -1.0761  0.6664
 1940SOL    HW3 7806   0.188   2.906   3.464  1.4677 -0.0321  0.8487
 1940SOL    MW4 7807   0.196   2.819   3.461  0.0823 -0.1423  0.2341
 1941SOL     OW 7808   0.183   3.086   3.392 -0.3480  0.0029 -0.4147
 1941SOL    HW2 7809   0.107   3.141   3.411 -0.0193  0.6965 -1.1281
 1941SOL    HW3 7810   0.195   3.093   3.298 -0.9505 -2.1343 -0.6798
 1941SOL    MW4 7811   0.175   3.094   3.382 -0.3842 -0.1874 -0.5441
 1942SOL     OW 7812   4.468   3.241   3.501  0.1194 -0.8343  0.1106
 1942SOL    HW2 7813   4.398   3.189   3.462  0.0330 -0.6553  0.0238
 1942SOL    HW3 7814   4.460   3.327   3.459  0.3101 -0.7744  0.1943
 1942SOL    MW4 7815   4.458   3.246   3.490  0.1335 -0.8028  0.1104
 1943SOL     OW 7816   4.449   3.480   3.369  0.6008 -0.6172  0.2322
 1943SOL    HW2 7817   4.368   3.519   3.400  0.7360  0.6601 -0.9525
 1943SOL    HW3 7818   4.446   3.491   3.274  2.9069  0.9576  0.2979
 1943SOL    MW4 7819   4.438   3.486   3.360  0.9236 -0.2406  0.0846
 1944SOL     OW 7820   0.181   3.620   3.453  0.0674  0.4401  0.2290
 1944SOL    HW2 7821   0.190   3.612   3.548  1.8370  0.0642  0.0497
 1944SOL    HW3 7822   0.104   3.567   3.431  0.2196 -0.2490  1.3498
 1944SOL    MW4 7823   0.172   3.612   3.462  0.3210  0.2997  0.3533
 1945SOL     OW 7824   0.242   3.894   3.379 -0.0847  0.3865 -0.0684
 1945SOL    HW2 7825   0.166   3.945   3.409 -0.5170 -0.7011  0.7187
 1945SOL    HW3 7826   0.221   3.804   3.403  1.2168  0.0050 -0.3506
 1945SOL    MW4 7827   0.229   3.889   3.386  0.0300  0.1926 -0.0017
 1946SOL     OW 7828   4.475   3.973   3.472  0.0851  0.5697 -0.1031
 1946SOL    HW2 7829   4.449   3.984   3.563  2.0055 -0.8096  0.6639
 1946SOL    HW3 7830   4.490   4.061   3.439 -1.6581  1.1342  0.5818
 1946SOL    MW4 7831   4.474   3.986   3.479  0.1085  0.4623  0.0882
 1947SOL     OW 7832   0.062   4.228   3.379 -0.5855 -0.0517 -0.0850
 1947SOL    HW2 7833  -0.019   4.272   3.404 -0.5460 -0.0690  0.0733
 1947SOL    HW3 7834   0.131   4.274   3.427 -0.4685  0.1466 -0.4411
 1947SOL    MW4 7835   0.060   4.240   3.388 -0.5649 -0.0277 -0.1113
 1948SOL     OW 7836   0.242   4.383   3.518 -0.0260 -0.0390 -0.2681
 1948SOL    HW2 7837   0.238   4.374   3.613 -0.5732  0.2675 -0.2608
 1948SOL    HW3 7838   0.315   4.327   3.492  0.9007  0.8221  0.4488
 1948SOL    MW4 7839   0.251   4.374   3.527  0.0241  0.1149 -0.1726
 1949SOL     OW 7840   0.690   0.010   3.441 -0.0925 -0.0806  0.2427
 1949SOL    HW2 7841   0.770   0.053   3.471  0.1201 -1.1116  1.1867
 1949SOL    HW3 7842   0.701   0.003   3.346  0.0359  1.5704  0.1087
 1949SOL    MW4 7843   0.702   0.015   3.432 -0.0475  0.0012  0.3498
 1950SOL     OW 7844   0.442   0.104   3.528  0.5421 -0.7314  0.1955
 1950SOL    HW2 7845   0.451   0.106   3.623  0.3321  0.1470  0.1982
 1950SOL    HW3 7846   0.532   0.093   3.496  1.0103  2.0440  0.4105
 1950SOL    MW4 7847   0.455   0.103   3.536  0.5761 -0.2494  0.2241
 1951SOL     OW 7848   0.438   0.363   3.409 -0.1645  0.5344 -0.1222
 1951SOL    HW2 7849   0.517   0.412   3.435  0.0678  0.6161 -0.9768
 1951SOL    HW3 7850   0.447   0.279   3.454  1.0526  0.0647 -1.2194
 1951SOL    MW4 7851   0.450   0.358   3.419  0.0267  0.4832 -0.3798
 1952SOL     OW 7852   0.649   0.520   3.486  0.4997  0.4686 -0.2223
 1952SOL    HW2 7853   0.660   0.520   3.581 -1.3277  2.1369  0.0350
 1952SOL    HW3 7854   0.730   0.482   3.452  2.0319  1.6996  1.9269
 1952SOL    MW4 7855   0.662   0.515   3.494  0.4607  0.8511  0.0954
 1953SOL     OW 7856   0.677   0.821   3.412  0.1785  0.3863 -0.1869
 1953SOL    HW2 7857   0.593   0.852   3.445  0.1345 -0.2793  0.3225
 1953SOL    HW3 7858   0.679   0.728   3.432  0.4547  0.1111 -1.4218
 1953SOL    MW4 7859   0.666   0.813   3.419  0.2092  0.2622 -0.2828
 1954SOL     OW 7860   0.441   0.893   3.532 -0.3357  0.0466 -0.1227
 1954SOL    HW2 7861   0.445   0.892   3.627  1.0031  0.2030 -0.1760
 1954SOL    HW3 7862   0.436   0.985   3.509 -1.6111 -0.0195 -0.1843
 1954SOL    MW4 7863   0.441   0.905   3.541 -0.3273  0.0586 -0.1378
 1955SOL     OW 7864   0.420   1.150   3.423  0.2558  0.6879  0.0284
 1955SOL    HW2 7865   0.497   1.204   3.442  0.8236 -0.9190  2.4160
 1955SOL    HW3 7866   0.427   1.131   3.329  0.9877  3.2708 -0.4811
 1955SOL    MW4 7867   0.431   1.155   3.413  0.4273  0.8167  0.2761
 1956SOL     OW 7868   0.635   1.303   3.498 -0.2026 -0.0270 -0.0158
 1956SOL    HW2 7869   0.720   1.266   3.475  0.5941  0.4082  2.0413
 1956SOL    HW3 7870   0.638   1.393   3.467 -1.0480 -0.8220 -2.4978
 1956SOL    MW4 7871   0.646   1.310   3.491 -0.2090 -0.0745 -0.0715
 1957SOL     OW 7872   0.662   1.562   3.424  0.1339 -0.1367  0.5680
 1957SOL    HW2 7873   0.742   1.611   3.444 -0.6930  0.5427  2.3083
 1957SOL    HW3 7874   0.591   1.622   3.444 -0.8387 -0.6142 -1.3272
 1957SOL    MW4 7875   0.663   1.576   3.429 -0.1035 -0.1101  0.5476
 1958SOL     OW 7876   0.466   1.745   3.488  0.1057 -0.1005 -0.1451
 1958SOL    HW2 7877   0.463   1.742   3.584  0.1205  0.8078 -0.1091
 1958SOL    HW3 7878   0.444   1.836   3.467  1.7728  0.1298 -0.9398
 1958SOL    MW4 7879   0.463   1.757   3.498  0.3276  0.0498 -0.2453
 1959SOL     OW 7880   0.445   2.021   3.458 -0.0806  0.0103 -0.4654
 1959SOL    HW2 7881   0.352   2.042   3.467 -0.1675 -0.8590  0.7431
 1959SOL    HW3 7882   0.455   1.996   3.366 -1.4128 -1.5842 -0.2115
 1959SOL    MW4 7883   0.434   2.020   3.447 -0.2678 -0.3150 -0.2725
 1960SOL     OW 7884   0.696   2.064   3.535  0.1064  0.2828  0.0449
 1960SOL    HW2 7885   0.692   2.067   3.630  2.5918  0.5688  0.1680
 1960SOL    HW3 7886   0.606   2.047   3.508 -0.8099  1.2114  2.3922
 1960SOL    MW4 7887   0.684   2.062   3.544  0.3135  0.4430  0.3707
 1961SOL     OW 7888   0.665   2.310   3.410 -0.1234 -0.0069  0.2383
 1961SOL    HW2 7889   0.739   2.360   3.445  0.7225 -0.7850 -0.4194
 1961SOL    HW3 7890   0.673   2.224   3.451 -1.0185  0.0849  0.6222
 1961SOL    MW4 7891   0.676   2.305   3.420 -0.1299 -0.0970  0.2019
 1962SOL     OW 7892   0.428   2.449   3.485 -0.3313 -0.0256 -0.0241
 1962SOL    HW2 7893   0.500   2.392   3.457 -0.5139 -0.0282 -0.4967
 1962SOL    HW3 7894   0.349   2.407   3.450 -0.4695  0.4932 -0.3389
 1962SOL    MW4 7895   0.427   2.436   3.477 -0.3736  0.0424 -0.1280
 1963SOL     OW 7896   0.460   2.720   3.423 -0.5322 -1.0442 -0.4147
 1963SOL    HW2 7897   0.458   2.625   3.438  2.4917 -1.1437 -0.3146
 1963SOL    HW3 7898   0.476   2.729   3.329 -1.5312 -0.5816 -0.5575
 1963SOL    MW4 7899   0.462   2.709   3.412 -0.2650 -0.9964 -0.4203
 1964SOL     OW 7900   0.663   2.877   3.529 -0.2144  0.0142  0.5484
 1964SOL    HW2 7901   0.743   2.839   3.493 -1.1111  1.6902 -3.4817
 1964SOL    HW3 7902   0.593   2.817   3.502 -0.5382 -0.5425  2.5676
 1964SOL    MW4 7903   0.664   2.864   3.521 -0.3753  0.1619  0.2830
 1965SOL     OW 7904   0.613   3.130   3.372  0.0570 -0.0648 -0.7079
 1965SOL    HW2 7905   0.535   3.176   3.405  0.9577  0.6208  0.4795
 1965SOL    HW3 7906   0.618   3.050   3.425  1.1161  0.7036  0.3437
 1965SOL    MW4 7907   0.603   3.125   3.383  0.3157  0.1271 -0.4125
 1966SOL     OW 7908   0.382   3.251   3.487  0.0279 -0.3690 -0.0904
 1966SOL    HW2 7909   0.404   3.238   3.580 -0.2394  0.0261  0.0271
 1966SOL    HW3 7910   0.303   3.199   3.474  0.4795 -1.0247 -0.2826
 1966SOL    MW4 7911   0.375   3.243   3.498  0.0522 -0.4032 -0.1006
 1967SOL     OW 7912   0.432   3.504   3.396  0.3212  0.4292  0.1527
 1967SOL    HW2 7913   0.424   3.416   3.433  1.3398  0.2739  0.0162
 1967SOL    HW3 7914   0.350   3.548   3.421 -0.1047 -0.4852  0.3945
 1967SOL    MW4 7915   0.420   3.498   3.404  0.3994  0.2882  0.1667
 1968SOL     OW 7916   0.660   3.645   3.480 -0.1658 -0.4177 -0.1613
 1968SOL    HW2 7917   0.724   3.593   3.431 -1.4879 -0.0190 -2.3841
 1968SOL    HW3 7918   0.575   3.610   3.455 -0.9288  0.4846  1.0833
 1968SOL    MW4 7919   0.658   3.634   3.470 -0.4410 -0.2463 -0.2906
 1969SOL     OW 7920   0.718   3.901   3.383  0.0441 -0.6030 -0.2486
 1969SOL    HW2 7921   0.635   3.938   3.414  0.4735 -0.7402  1.1070
 1969SOL    HW3 7922   0.721   3.814   3.421  0.5962 -0.7744 -0.6806
 1969SOL    MW4 7923   0.708   3.895   3.392  0.1736 -0.6440 -0.1266
 1970SOL     OW 7924   0.490   3.963   3.520  0.2509 -0.1417  0.6637
 1970SOL    HW2 7925   0.485   4.058   3.529  0.8183 -0.1520  1.1418
 1970SOL    HW3 7926   0.414   3.940   3.467  0.8877  0.7215 -0.6326
 1970SOL    MW4 7927   0.479   3.972   3.514  0.4098 -0.0291  0.5558
 1971SOL     OW 7928   0.486   4.264   3.430 -0.5522  0.5055  0.0691
 1971SOL    HW2 7929   0.566   4.311   3.450  1.0305 -1.9844 -0.1892
 1971SOL    HW3 7930   0.480   4.264   3.335 -0.5500  0.1803  0.0680
 1971SOL    MW4 7931   0.496   4.270   3.420 -0.3431  0.1340  0.0350
 1972SOL     OW 7932   0.729   4.404   3.505 -0.0889 -0.1058  0.1192
 1972SOL    HW2 7933   0.814   4.393   3.462 -0.5668  0.6845 -1.0628
 1972SOL    HW3 7934   0.712   4.498   3.499 -1.7719 -0.4730 -1.0502
 1972SOL    MW4 7935   0.738   4.415   3.499 -0.3741 -0.0496 -0.1910
 1973SOL     OW 7936   1.128   0.018   3.434  0.0332 -0.4083 -0.5155
 1973SOL    HW2 7937   1.212   0.053   3.463  0.6504 -2.0145 -0.3291
 1973SOL    HW3 7938   1.137   0.009   3.339 -0.1564  0.0153 -0.5743
 1973SOL    MW4 7939   1.140   0.021   3.425  0.0896 -0.5644 -0.4985
 1974SOL     OW 7940   0.911   0.157   3.525 -0.4072 -0.2420  0.3320
 1974SOL    HW2 7941   0.914   0.166   3.620 -0.7783  2.0347  0.1655
 1974SOL    HW3 7942   0.998   0.127   3.500  0.6323  2.0293  1.1419
 1974SOL    MW4 7943   0.923   0.154   3.534 -0.3191  0.3581  0.4170
 1975SOL     OW 7944   0.912   0.410   3.425 -0.3099  0.3866  0.1934
 1975SOL    HW2 7945   0.987   0.459   3.459  0.0728 -0.1759  0.1463
 1975SOL    HW3 7946   0.922   0.322   3.461 -0.9215  0.2982  0.1467
 1975SOL    MW4 7947   0.923   0.405   3.434 -0.3401  0.3007  0.1812
 1976SOL     OW 7948   1.153   0.562   3.506  0.1235 -0.2770  0.4364
 1976SOL    HW2 7949   1.155   0.575   3.601 -2.3781 -0.2916  0.5107
 1976SOL    HW3 7950   1.137   0.650   3.470  0.6898 -0.3326  0.0313
 1976SOL    MW4 7951   1.151   0.575   3.513 -0.1320 -0.2863  0.3927
 1977SOL     OW 7952   1.120   0.807   3.385  0.3199  0.1252  0.3880
 1977SOL    HW2 7953   1.182   0.851   3.443  1.3809 -0.6684 -0.1375
 1977SOL    HW3 7954   1.034   0.835   3.417  0.9224  0.6177  1.6098
 1977SOL    MW4 7955   1.117   0.816   3.397  0.5393  0.0855  0.4799
 1978SOL     OW 7956   0.905   0.930   3.508 -0.0798 -0.1289  0.2672
 1978SOL    HW2 7957   0.906   1.017   3.470 -0.4287  0.1684  0.9314
 1978SOL    HW3 7958   0.822   0.892   3.480 -0.5221  0.2422  1.0671
 1978SOL    MW4 7959   0.894   0.936   3.499 -0.1841 -0.0407  0.4606
 1979SOL     OW 7960   0.885   1.212   3.393  0.1848  0.7919  0.2199
 1979SOL    HW2 7961   0.966   1.235   3.439  0.3102  1.3111 -0.2629
 1979SOL    HW3 7962   0.907   1.216   3.300 -0.2703  0.4714  0.0950
 1979SOL    MW4 7963   0.899   1.215   3.387  0.1413  0.8183  0.1397
 1980SOL     OW 7964   1.118   1.268   3.530  0.3008  0.1842 -0.0490
 1980SOL    HW2 7965   1.137   1.269   3.624 -0.4456 -1.0584  0.1280
 1980SOL    HW3 7966   1.127   1.359   3.502 -1.7359  0.9496  1.6768
 1980SOL    MW4 7967   1.122   1.280   3.539 -0.0663  0.1212  0.2022
 1981SOL     OW 7968   1.149   1.537   3.451  0.5231 -0.2444 -0.5376
 1981SOL    HW2 7969   1.204   1.606   3.487 -0.5816  0.1488  0.4396
 1981SOL    HW3 7970   1.140   1.559   3.358  2.1511 -0.4248 -0.7467
 1981SOL    MW4 7971   1.155   1.549   3.443  0.5922 -0.2164 -0.4363
 1982SOL     OW 7972   0.908   1.662   3.514  0.0452  0.4530  0.1050
 1982SOL    HW2 7973   0.929   1.754   3.494 -0.5704  0.3232 -1.1945
 1982SOL    HW3 7974   0.984   1.613   3.483  0.3021  0.5120  0.6458
 1982SOL    MW4 7975   0.921   1.668   3.507 -0.0021  0.4437  0.0048
 1983SOL     OW 7976   0.924   1.933   3.424  0.0037  0.1231  0.1652
 1983SOL    HW2 7977   1.003   1.980   3.453 -0.4665  1.6601 -1.0287
 1983SOL    HW3 7978   0.851   1.983   3.460 -0.4860 -0.1443 -0.4507
 1983SOL    MW4 7979   0.925   1.946   3.433 -0.1229  0.2906 -0.0737
 1984SOL     OW 7980   1.158   2.068   3.526  0.5910 -0.0872 -0.8410
 1984SOL    HW2 7981   1.235   2.040   3.477 -0.2940 -1.7432 -1.3481
 1984SOL    HW3 7982   1.147   2.160   3.504  1.8411 -0.0999 -1.5408
 1984SOL    MW4 7983   1.167   2.076   3.517  0.6392 -0.3076 -1.0006
 1985SOL     OW 7984   1.090   2.314   3.428 -0.1182  0.0991 -0.4732
 1985SOL    HW2 7985   1.167   2.356   3.465  1.1487 -1.0235 -1.7523
 1985SOL    HW3 7986   1.101   2.321   3.333 -1.4836 -0.2526 -0.6813
 1985SOL    MW4 7987   1.101   2.320   3.420 -0.1310 -0.0954 -0.6695
 1986SOL     OW 7988   0.873   2.459   3.502  0.9993 -0.2560  0.1588
 1986SOL    HW2 7989   0.867   2.463   3.598 -0.0523 -0.5304  0.1080
 1986SOL    HW3 7990   0.943   2.395   3.486  0.0844 -1.4262  0.7390
 1986SOL    MW4 7991   0.882   2.451   3.513  0.7399 -0.4466  0.2286
 1987SOL     OW 7992   0.874   2.741   3.412 -0.1771  0.1960 -0.4232
 1987SOL    HW2 7993   0.953   2.790   3.433 -0.1731 -0.3087  0.7680
 1987SOL    HW3 7994   0.894   2.651   3.436 -0.7313 -0.1243 -1.1351
 1987SOL    MW4 7995   0.887   2.736   3.418 -0.2497  0.0873 -0.3600
 1988SOL     OW 7996   1.097   2.881   3.493  0.8564 -0.1734  0.2228
 1988SOL    HW2 7997   1.081   2.853   3.583  0.7113  0.6784  0.4736
 1988SOL    HW3 7998   1.178   2.838   3.468  0.7603 -0.6197  0.6721
 1988SOL    MW4 7999   1.106   2.872   3.502  0.8243 -0.1199  0.3150
 1989SOL     OW 8000   1.064   3.158   3.394 -0.3658 -0.0061  0.4551
 1989SOL    HW2 8001   1.063   3.071   3.435  0.8830  0.5830  1.7616
 1989SOL    HW3 8002   1.069   3.139   3.300  0.8801 -1.3475  0.7715
 1989SOL    MW4 8003   1.064   3.144   3.387 -0.0367 -0.1056  0.6692
 1990SOL     OW 8004   0.811   3.250   3.510  0.3159 -0.5003 -0.2921
 1990SOL    HW2 8005   0.891   3.223   3.466  0.4569 -0.7582  0.1215
 1990SOL    HW3 8006   0.740   3.212   3.458  0.4884 -0.9897 -0.1633
 1990SOL    MW4 8007   0.812   3.242   3.498  0.3572 -0.5987 -0.2208
 1991SOL     OW 8008   0.871   3.501   3.384  0.2385 -0.1083  0.3192
 1991SOL    HW2 8009   0.847   3.420   3.428  0.4867 -0.2368  0.2169
 1991SOL    HW3 8010   0.855   3.484   3.291 -3.1040  1.1464  0.6183
 1991SOL    MW4 8011   0.866   3.488   3.377 -0.1698  0.0403  0.3450
 1992SOL     OW 8012   1.110   3.654   3.486  0.4926 -0.1336  0.0210
 1992SOL    HW2 8013   1.096   3.620   3.574 -1.2496  3.6519  1.3331
 1992SOL    HW3 8014   1.039   3.617   3.434  0.5186 -1.0145  0.6024
 1992SOL    MW4 8015   1.099   3.645   3.491  0.2661  0.2494  0.2708
 1993SOL     OW 8016   1.136   3.917   3.387  0.2362  0.5656  0.3903
 1993SOL    HW2 8017   1.217   3.959   3.418  0.9065  0.0734 -0.6830
 1993SOL    HW3 8018   1.134   3.833   3.433  0.1425  0.7282  0.6883
 1993SOL    MW4 8019   1.146   3.911   3.397  0.3121  0.5219  0.2880
 1994SOL     OW 8020   0.930   4.055   3.497  0.3012  0.3744 -0.1470
 1994SOL    HW2 8021   1.007   4.010   3.462  0.2859 -0.1602  0.4847
 1994SOL    HW3 8022   0.856   4.013   3.453  0.4249  1.9780 -1.9608
 1994SOL    MW4 8023   0.931   4.044   3.487  0.3155  0.5155 -0.3030
 1995SOL     OW 8024   0.963   4.313   3.394 -0.4142 -0.2212 -0.6011
 1995SOL    HW2 8025   0.952   4.226   3.434 -1.1378  0.4402  0.6701
 1995SOL    HW3 8026   0.945   4.300   3.301 -0.2142 -1.4897 -0.4688
 1995SOL    MW4 8027   0.959   4.300   3.387 -0.4833 -0.3014 -0.4158
 1996SOL     OW 8028   1.166   4.425   3.528  0.1097 -0.1166  0.3211
 1996SOL    HW2 8029   1.097   4.374   3.486 -0.0553 -0.3053  0.8111
 1996SOL    HW3 8030   1.148   4.516   3.504 -0.6801 -0.1025  0.9670
 1996SOL    MW4 8031   1.155   4.431   3.519 -0.0162 -0.1397  0.4706
 1997SOL     OW 8032   1.609   0.006   3.404  0.2129  0.3122  0.2812
 1997SOL    HW2 8033   1.595  -0.084   3.431  1.4989  0.0404  0.0445
 1997SOL    HW3 8034   1.536   0.055   3.443 -0.0289 -0.6866  1.0687
 1997SOL    MW4 8035   1.597   0.001   3.412  0.3506  0.1445  0.3538
 1998SOL     OW 8036   1.379   0.135   3.479 -0.0651  0.0514 -0.2725
 1998SOL    HW2 8037   1.358   0.127   3.572 -1.9874  0.2000 -0.6791
 1998SOL    HW3 8038   1.376   0.229   3.462  1.1549  0.0976 -0.3142
 1998SOL    MW4 8039   1.376   0.146   3.489 -0.1577  0.0771 -0.3316
 1999SOL     OW 8040   1.371   0.390   3.397  0.3372  0.3830  0.4264
 1999SOL    HW2 8041   1.442   0.443   3.433  0.0848  1.8054 -1.0805
 1999SOL    HW3 8042   1.292   0.424   3.439  0.3719 -0.0270  0.8187
 1999SOL    MW4 8043   1.370   0.402   3.407  0.3085  0.5166  0.2792
 2000SOL     OW 8044   1.585   0.495   3.520 -0.0444 -0.3201  0.0959
 2000SOL    HW2 8045   1.581   0.495   3.615  0.2645 -0.9251  0.1154
 2000SOL    HW3 8046   1.673   0.461   3.499 -0.5895 -1.4741 -0.3989
 2000SOL    MW4 8047   1.596   0.490   3.529 -0.0756 -0.5521  0.0331
 2001SOL     OW 8048   1.573   0.781   3.417 -0.1078  0.5201  0.3353
 2001SOL    HW2 8049   1.490   0.820   3.446 -0.3536  0.0361  0.3071
 2001SOL    HW3 8050   1.572   0.693   3.456  0.7505  0.7886  0.9740
 2001SOL    MW4 8051   1.562   0.774   3.426 -0.0269  0.4917  0.4158
 2002SOL     OW 8052   1.330   0.912   3.530  0.0648  0.2111  0.0966
 2002SOL    HW2 8053   1.349   0.906   3.623  0.8937  0.3594 -0.0521
 2002SOL    HW3 8054   1.343   1.005   3.509  0.8660  0.0080 -0.3556
 2002SOL    MW4 8055   1.334   0.924   3.539  0.2799  0.2039  0.0174
 2003SOL     OW 8056   1.343   1.165   3.418  0.3119  0.2654  0.1465
 2003SOL    HW2 8057   1.416   1.218   3.448 -0.0973  1.4427 -0.8680
 2003SOL    HW3 8058   1.266   1.203   3.460 -0.0430  0.8016 -0.9566
 2003SOL    MW4 8059   1.342   1.177   3.427  0.2110  0.4914 -0.1328
 2004SOL     OW 8060   1.564   1.296   3.509  0.1810 -0.1226 -0.3987
 2004SOL    HW2 8061   1.579   1.283   3.602  0.2884  0.5142 -0.3252
 2004SOL    HW3 8062   1.637   1.251   3.467 -0.5015 -1.4081 -0.2230
 2004SOL    MW4 8063   1.576   1.288   3.515  0.1053 -0.2083 -0.3657
 2005SOL     OW 8064   1.552   1.553   3.413 -0.0480 -0.1166  0.3498
 2005SOL    HW2 8065   1.545   1.458   3.424  0.4951 -0.4500 -1.8503
 2005SOL    HW3 8066   1.548   1.566   3.318  3.5610  1.7383  0.3727
 2005SOL    MW4 8067   1.550   1.542   3.402  0.4998  0.0842  0.0627
 2006SOL     OW 8068   1.330   1.724   3.507  0.1720 -0.1115  0.1339
 2006SOL    HW2 8069   1.329   1.715   3.602  1.5592 -0.1597  0.1529
 2006SOL    HW3 8070   1.397   1.662   3.477  1.9103  2.0667 -0.6209
 2006SOL    MW4 8071   1.338   1.714   3.515  0.5844  0.1695  0.0370
 2007SOL     OW 8072   1.402   1.983   3.400 -0.4107  0.2044  0.0717
 2007SOL    HW2 8073   1.479   2.002   3.454 -1.5677  1.2059  1.3971
 2007SOL    HW3 8074   1.371   1.898   3.432  0.5774 -0.5470 -0.9680
 2007SOL    MW4 8075   1.408   1.974   3.412 -0.4331  0.2373  0.1097
 2008SOL     OW 8076   1.622   2.097   3.556  0.5134  0.3268 -0.0997
 2008SOL    HW2 8077   1.670   2.046   3.491 -1.3999 -0.9700 -0.5503
 2008SOL    HW3 8078   1.589   2.173   3.508  1.5783  0.9047  0.0696
 2008SOL    MW4 8079   1.624   2.101   3.541  0.4015  0.2317 -0.1366
 2009SOL     OW 8080   1.530   2.332   3.389  0.0328 -0.5894  0.0724
 2009SOL    HW2 8081   1.445   2.367   3.416 -0.0116 -0.9423  0.3900
 2009SOL    HW3 8082   1.529   2.339   3.293  1.1019  2.7593  0.2360
 2009SOL    MW4 8083   1.519   2.338   3.380  0.1681 -0.1943  0.1359
 2010SOL     OW 8084   1.299   2.446   3.535  0.0970  0.0115  0.0241
 2010SOL    HW2 8085   1.314   2.472   3.626 -1.4648  0.2004  0.2521
 2010SOL    HW3 8086   1.286   2.528   3.488  0.9682 -0.0836 -0.3781
 2010SOL    MW4 8087   1.299   2.460   3.541  0.0058  0.0241  0.0010
 2011SOL     OW 8088   1.296   2.695   3.413  0.2140 -0.1368  0.3023
 2011SOL    HW2 8089   1.376   2.744   3.433 -0.9990  1.8167  0.5438
 2011SOL    HW3 8090   1.298   2.686   3.317  0.7026 -0.0572  0.3003
 2011SOL    MW4 8091   1.307   2.701   3.403  0.1185  0.1311  0.3343
 2012SOL     OW 8092   1.513   2.846   3.486 -0.6113  0.0318 -0.4622
 2012SOL    HW2 8093   1.593   2.805   3.453 -0.8952 -1.1841  0.3423
 2012SOL    HW3 8094   1.520   2.938   3.459  0.7130 -0.2240 -1.0105
 2012SOL    MW4 8095   1.524   2.853   3.478 -0.4741 -0.1621 -0.4287
 2013SOL     OW 8096   1.572   3.104   3.410  0.2257 -0.0334 -0.6958
 2013SOL    HW2 8097   1.646   3.162   3.426  0.3192 -0.2950 -0.1495
 2013SOL    HW3 8098   1.495   3.160   3.422  0.1963 -0.7973  3.5054
 2013SOL    MW4 8099   1.571   3.119   3.414  0.2341 -0.1686 -0.0694
 2014SOL     OW 8100   1.334   3.238   3.468  0.1464  0.4686  0.2900
 2014SOL    HW2 8101   1.327   3.263   3.560  0.4402  2.4249 -0.2105
 2014SOL    HW3 8102   1.246   3.206   3.445 -0.0566  0.4275  1.1110
 2014SOL    MW4 8103   1.321   3.237   3.477  0.1584  0.7212  0.3324
 2015SOL     OW 8104   1.317   3.483   3.345  0.0988  0.2907  0.0248
 2015SOL    HW2 8105   1.321   3.400   3.392  0.0943 -1.0596 -2.2773
 2015SOL    HW3 8106   1.257   3.537   3.396  0.2719 -1.0370  1.6646
 2015SOL    MW4 8107   1.310   3.479   3.358  0.1211 -0.0627 -0.0625
 2016SOL     OW 8108   1.548   3.590   3.453  0.0533  0.0391  0.1781
 2016SOL    HW2 8109   1.539   3.588   3.548  0.8074  0.0813  0.2543
 2016SOL    HW3 8110   1.466   3.553   3.420  0.3876 -1.3277  0.8688
 2016SOL    MW4 8111   1.536   3.585   3.461  0.1968 -0.1359  0.2794
 2017SOL     OW 8112   1.550   3.879   3.399  0.0963  0.7270 -0.1101
 2017SOL    HW2 8113   1.548   3.786   3.422 -2.2369  0.6645 -0.3971
 2017SOL    HW3 8114   1.567   3.880   3.305 -0.7110  0.5451 -0.2622
 2017SOL    MW4 8115   1.552   3.867   3.390 -0.3181  0.6948 -0.1681
 2018SOL     OW 8116   1.359   4.026   3.506 -0.1928  0.4882 -0.0366
 2018SOL    HW2 8117   1.367   4.114   3.468  0.3070  0.4263 -0.0776
 2018SOL    HW3 8118   1.435   3.979   3.472 -1.0079 -0.2636 -0.8389
 2018SOL    MW4 8119   1.370   4.031   3.496 -0.2344  0.3810 -0.1481
 2019SOL     OW 8120   1.376   4.284   3.423  0.0485  0.0564 -0.1933
 2019SOL    HW2 8121   1.297   4.327   3.456 -0.5233 -0.8571 -0.3602
 2019SOL    HW3 8122   1.361   4.277   3.328  1.1179  1.5052 -0.4881
 2019SOL    MW4 8123   1.364   4.289   3.415  0.1141  0.1268 -0.2542
 2020SOL     OW 8124   1.606   4.416   3.497  0.2121  0.4485 -0.3783
 2020SOL    HW2 8125   1.680   4.368   3.460 -0.7219  0.2132 -1.9825
 2020SOL    HW3 8126   1.529   4.370   3.464 -0.6646  1.0675  0.7708
 2020SOL    MW4 8127   1.605   4.403   3.488 -0.0269  0.4992 -0.4382
 2021SOL     OW 8128   2.045   0.014   3.380 -0.8404 -0.5697  0.1542
 2021SOL    HW2 8129   2.128   0.049   3.413 -0.7560 -0.6719  0.0546
 2021SOL    HW3 8130   1.980   0.040   3.445 -0.8308  0.0390 -0.0754
 2021SOL    MW4 8131   2.048   0.022   3.393 -0.8278 -0.5028  0.1109
 2022SOL     OW 8132   1.830   0.106   3.520 -0.0394  0.4515 -0.2566
 2022SOL    HW2 8133   1.806   0.105   3.612 -1.2595 -1.3702 -0.5795
 2022SOL    HW3 8134   1.754   0.070   3.474  1.3220 -0.5574 -1.7778
 2022SOL    MW4 8135   1.817   0.101   3.526 -0.0209  0.0780 -0.5000
 2023SOL     OW 8136   1.804   0.359   3.419 -0.2907 -0.1565 -0.0447
 2023SOL    HW2 8137   1.797   0.269   3.449 -0.4692 -0.2058 -0.2334
 2023SOL    HW3 8138   1.798   0.353   3.324 -0.8939  0.1114 -0.0229
 2023SOL    MW4 8139   1.802   0.346   3.411 -0.3937 -0.1277 -0.0668
 2024SOL     OW 8140   2.019   0.509   3.508  0.0392 -0.2349  0.3440
 2024SOL    HW2 8141   2.010   0.597   3.471 -0.6336 -0.6440 -0.4740
 2024SOL    HW3 8142   1.946   0.460   3.472  1.3383 -1.5921 -0.5294
 2024SOL    MW4 8143   2.009   0.514   3.499  0.1218 -0.4680  0.1209
 2025SOL     OW 8144   2.001   0.788   3.422 -0.3435  0.0698  0.0331
 2025SOL    HW2 8145   2.082   0.834   3.444 -0.1517 -0.3464  0.2143
 2025SOL    HW3 8146   2.009   0.770   3.328 -0.7080  0.9594 -0.1759
 2025SOL    MW4 8147   2.013   0.791   3.413 -0.3662  0.1323  0.0296
 2026SOL     OW 8148   1.785   0.907   3.556  0.4435 -0.7426  0.0839
 2026SOL    HW2 8149   1.857   0.869   3.505  0.4005 -0.3617 -0.2689
 2026SOL    HW3 8150   1.706   0.868   3.518  0.3505  0.2494 -0.7804
 2026SOL    MW4 8151   1.784   0.897   3.544  0.4256 -0.5615 -0.0768
 2027SOL     OW 8152   1.772   1.155   3.425 -0.2732  0.0383 -0.1578
 2027SOL    HW2 8153   1.858   1.190   3.447 -0.1856 -0.2099 -0.1050
 2027SOL    HW3 8154   1.767   1.072   3.472 -1.2976  0.9364  1.3960
 2027SOL    MW4 8155   1.783   1.149   3.434 -0.3967  0.1241  0.0541
 2028SOL     OW 8156   2.028   1.282   3.507 -0.3157  0.2374 -0.2107
 2028SOL    HW2 8157   2.020   1.272   3.602  1.5712 -1.0375 -0.1632
 2028SOL    HW3 8158   2.026   1.377   3.492 -2.3339  0.3999  0.9123
 2028SOL    MW4 8159   2.026   1.293   3.518 -0.3328  0.0906 -0.0565
 2029SOL     OW 8160   1.997   1.553   3.423  0.1522 -0.5062 -0.2344
 2029SOL    HW2 8161   2.067   1.605   3.462  0.7498 -2.2072  1.0428
 2029SOL    HW3 8162   1.917   1.583   3.465  0.4353 -0.3227  0.1677
 2029SOL    MW4 8163   1.996   1.564   3.433  0.2683 -0.7064 -0.0124
 2030SOL     OW 8164   1.773   1.657   3.547 -0.6105  0.2360  0.1624
 2030SOL    HW2 8165   1.783   1.745   3.511 -0.6661  0.5405  0.8823
 2030SOL    HW3 8166   1.697   1.620   3.502 -1.1602  0.9015  0.5411
 2030SOL    MW4 8167   1.765   1.664   3.537 -0.6905  0.3639  0.3076
 2031SOL     OW 8168   1.754   1.898   3.408 -0.5433  0.1800  0.0752
 2031SOL    HW2 8169   1.822   1.964   3.420  1.2722 -1.7340  0.6327
 2031SOL    HW3 8170   1.738   1.897   3.314 -0.4606  1.2959  0.0486
 2031SOL    MW4 8171   1.761   1.907   3.397 -0.2928  0.0747  0.1450
 2032SOL     OW 8172   1.964   2.066   3.482 -0.1066 -0.5991  0.2644
 2032SOL    HW2 8173   2.050   2.031   3.459 -0.3789 -0.5492 -0.8947
 2032SOL    HW3 8174   1.967   2.158   3.453 -0.5111 -0.5703  0.3040
 2032SOL    MW4 8175   1.975   2.074   3.475 -0.1957 -0.5889  0.1163
 2033SOL     OW 8176   1.977   2.349   3.388 -0.1301 -0.3327 -0.3300
 2033SOL    HW2 8177   2.052   2.387   3.434 -0.1902 -0.8189  0.1723
 2033SOL    HW3 8178   2.011   2.326   3.302  0.1345  0.0364 -0.3259
 2033SOL    MW4 8179   1.992   2.351   3.383 -0.1031 -0.3483 -0.2632
 2034SOL     OW 8180   1.760   2.464   3.498  0.1673  0.3532  0.0101
 2034SOL    HW2 8181   1.831   2.411   3.462  0.5982  0.5685  0.5463
 2034SOL    HW3 8182   1.680   2.418   3.470  0.5401 -1.3591  1.6324
 2034SOL    MW4 8183   1.759   2.451   3.489  0.2735  0.1557  0.2949
 2035SOL     OW 8184   1.741   2.704   3.379  0.0431 -0.0773  0.3822
 2035SOL    HW2 8185   1.808   2.763   3.414  0.6407  0.1758 -1.1390
 2035SOL    HW3 8186   1.766   2.618   3.411  1.1022  0.0148 -0.1661
 2035SOL    MW4 8187   1.753   2.701   3.388  0.2618 -0.0317  0.1092
 2036SOL     OW 8188   1.955   2.867   3.492 -0.1114  0.7792  0.0189
 2036SOL    HW2 8189   1.963   2.862   3.588 -2.8339  0.9733  0.2874
 2036SOL    HW3 8190   1.968   2.960   3.473  1.1667  0.6325  0.0936
 2036SOL    MW4 8191   1.958   2.879   3.502 -0.3021  0.7856  0.0641
 2037SOL     OW 8192   2.026   3.125   3.392 -0.0565  0.1241 -0.3523
 2037SOL    HW2 8193   2.107   3.164   3.423  0.3812  0.5302 -1.9329
 2037SOL    HW3 8194   1.958   3.188   3.416  0.2056  0.2122  0.1672
 2037SOL    MW4 8195   2.028   3.139   3.399  0.0358  0.1893 -0.4923
 2038SOL     OW 8196   1.804   3.253   3.482  0.1984 -0.4741  0.1029
 2038SOL    HW2 8197   1.815   3.254   3.577  0.8796  0.1506  0.0231
 2038SOL    HW3 8198   1.792   3.345   3.458 -0.4074 -0.6725 -0.3717
 2038SOL    MW4 8199   1.804   3.265   3.491  0.2083 -0.4177  0.0296
 2039SOL     OW 8200   1.793   3.508   3.406  0.0439 -0.6336  0.0649
 2039SOL    HW2 8201   1.709   3.543   3.435 -0.9862 -2.7159 -0.3337
 2039SOL    HW3 8202   1.789   3.509   3.311  1.2330  1.0148  0.0149
 2039SOL    MW4 8203   1.781   3.512   3.397  0.0650 -0.6907  0.0057
 2040SOL     OW 8204   2.046   3.631   3.457  0.1834  0.0090 -0.2711
 2040SOL    HW2 8205   2.118   3.598   3.403 -0.4314 -1.0888 -0.4261
 2040SOL    HW3 8206   1.972   3.574   3.437 -0.7016  1.0370  0.0051
 2040SOL    MW4 8207   2.046   3.619   3.448 -0.0145 -0.0005 -0.2551
 2041SOL     OW 8208   2.047   3.906   3.409 -0.2369 -0.5388 -0.4321
 2041SOL    HW2 8209   1.959   3.942   3.414  0.1043  0.3017 -0.3672
 2041SOL    HW3 8210   2.037   3.814   3.432 -0.9817 -0.2659  0.3490
 2041SOL    MW4 8211   2.034   3.899   3.412 -0.2899 -0.3922 -0.3204
 2042SOL     OW 8212   1.796   3.990   3.478  0.5929  0.0764 -0.5487
 2042SOL    HW2 8213   1.784   3.978   3.573  0.7373  1.4835 -0.3457
 2042SOL    HW3 8214   1.723   3.942   3.439 -1.0751  1.7996  0.3766
 2042SOL    MW4 8215   1.785   3.982   3.486  0.3918  0.4892 -0.3998
 2043SOL     OW 8216   1.826   4.271   3.398 -0.5047 -0.1727 -0.3125
 2043SOL    HW2 8217   1.797   4.182   3.419 -0.6980  0.0556  0.3829
 2043SOL    HW3 8218   1.819   4.275   3.302 -0.1777 -1.0125 -0.3807
 2043SOL    MW4 8219   1.821   4.260   3.388 -0.4871 -0.2537 -0.2298
 2044SOL     OW 8220   2.062   4.416   3.480 -0.4056  0.2345 -0.1163
 2044SOL    HW2 8221   2.003   4.355   3.435  0.1644  0.7561 -1.6310
 2044SOL    HW3 8222   2.042   4.501   3.441 -0.1642  0.7769  0.9236
 2044SOL    MW4 8223   2.052   4.419   3.469 -0.2985  0.3743 -0.1788
 2045SOL     OW 8224   2.487   0.036   3.396  0.5310 -0.1920 -0.3103
 2045SOL    HW2 8225   2.487  -0.054   3.426 -0.8060 -0.1050 -0.0043
 2045SOL    HW3 8226   2.476   0.030   3.301 -1.3077 -0.3099 -0.0964
 2045SOL    MW4 8227   2.486   0.024   3.388  0.1121 -0.1961 -0.2418
 2046SOL     OW 8228   2.257   0.146   3.484 -0.2059 -0.0581 -0.5075
 2046SOL    HW2 8229   2.251   0.234   3.448 -0.5912 -0.6218 -1.8359
 2046SOL    HW3 8230   2.341   0.113   3.453 -1.1049 -1.0123 -1.9899
 2046SOL    MW4 8231   2.267   0.153   3.475 -0.3753 -0.2584 -0.8783
 2047SOL     OW 8232   2.238   0.399   3.365 -0.1637 -0.3190 -0.7146
 2047SOL    HW2 8233   2.312   0.449   3.400 -0.3354  0.0882 -0.9259
 2047SOL    HW3 8234   2.162   0.436   3.410 -0.7287  2.2109 -3.6152
 2047SOL    MW4 8235   2.238   0.411   3.376 -0.2608  0.0685 -1.1251
 2048SOL     OW 8236   2.427   0.545   3.495 -0.2950  0.0632 -0.1561
 2048SOL    HW2 8237   2.512   0.506   3.474 -0.0197 -0.2056  1.3943
 2048SOL    HW3 8238   2.427   0.629   3.449  0.5334 -0.2412 -0.7221
 2048SOL    MW4 8239   2.438   0.551   3.486 -0.1490 -0.0125 -0.0262
 2049SOL     OW 8240   2.458   0.787   3.365 -0.9055 -0.1388 -0.3031
 2049SOL    HW2 8241   2.532   0.834   3.405 -1.0291 -0.2892  0.1059
 2049SOL    HW3 8242   2.474   0.794   3.271 -0.1209 -0.5629 -0.2110
 2049SOL    MW4 8243   2.470   0.794   3.358 -0.8183 -0.2146 -0.2372
 2050SOL     OW 8244   2.236   0.935   3.460  0.6925 -0.1795  0.3817
 2050SOL    HW2 8245   2.237   1.014   3.406  2.1017  1.1584  2.2868
 2050SOL    HW3 8246   2.313   0.886   3.431 -0.6023 -1.2634 -1.3257
 2050SOL    MW4 8247   2.247   0.939   3.449  0.7076 -0.1459  0.4079
 2051SOL     OW 8248   2.245   1.194   3.356  0.3235  0.6796  0.0381
 2051SOL    HW2 8249   2.319   1.232   3.402 -0.2902  2.3054 -0.2862
 2051SOL    HW3 8250   2.168   1.226   3.403 -0.1709 -1.7337  0.9324
 2051SOL    MW4 8251   2.244   1.203   3.368  0.1771  0.5758  0.1132
 2052SOL     OW 8252   2.471   1.336   3.469  0.0465  0.4881 -0.2473
 2052SOL    HW2 8253   2.455   1.324   3.563  0.5669  0.7796 -0.1172
 2052SOL    HW3 8254   2.557   1.294   3.455 -0.5473 -0.5667 -0.8138
 2052SOL    MW4 8255   2.480   1.329   3.480  0.0370  0.3874 -0.3052
 2053SOL     OW 8256   2.445   1.590   3.376  0.6051  0.0905 -0.0557
 2053SOL    HW2 8257   2.439   1.501   3.410 -0.0274 -0.1563 -0.7973
 2053SOL    HW3 8258   2.461   1.579   3.283 -1.4710  0.7284 -0.5179
 2053SOL    MW4 8259   2.446   1.577   3.368  0.2477  0.1421 -0.2146
 2054SOL     OW 8260   2.221   1.701   3.501 -0.4396 -0.0543  0.3184
 2054SOL    HW2 8261   2.222   1.688   3.596 -0.3035 -1.3435  0.1467
 2054SOL    HW3 8262   2.308   1.673   3.473 -1.2695 -1.9299 -0.4703
 2054SOL    MW4 8263   2.233   1.696   3.510 -0.5310 -0.4719  0.1917
 2055SOL     OW 8264   2.204   1.960   3.410  0.7212  0.6133  0.4919
 2055SOL    HW2 8265   2.222   1.872   3.443 -0.3978 -0.0950 -0.6981
 2055SOL    HW3 8266   2.218   1.953   3.315 -2.3724  0.8650 -0.0482
 2055SOL    MW4 8267   2.208   1.948   3.402  0.1655  0.5530  0.2635
 2056SOL     OW 8268   2.441   2.090   3.463 -0.5775 -0.4086  0.0108
 2056SOL    HW2 8269   2.477   2.085   3.552  0.7909  0.9707 -0.4517
 2056SOL    HW3 8270   2.361   2.038   3.468  0.5687 -2.1188  1.4971
 2056SOL    MW4 8271   2.435   2.083   3.476 -0.2458 -0.4523  0.1457
 2057SOL     OW 8272   2.420   2.349   3.396 -0.2757  0.3464 -0.1557
 2057SOL    HW2 8273   2.501   2.394   3.418 -0.5996  0.7957  0.1288
 2057SOL    HW3 8274   2.423   2.268   3.447 -0.0086  0.3621 -0.1449
 2057SOL    MW4 8275   2.431   2.344   3.405 -0.2832  0.4075 -0.1168
 2058SOL     OW 8276   2.200   2.493   3.493  0.3231  0.1621  0.0690
 2058SOL    HW2 8277   2.193   2.583   3.463  1.5854  0.5521  0.9275
 2058SOL    HW3 8278   2.279   2.459   3.451  0.5017 -0.1766  0.6676
 2058SOL    MW4 8279   2.209   2.500   3.484  0.5133  0.1688  0.2611
 2059SOL     OW 8280   2.191   2.749   3.423 -0.0883 -0.1134 -0.0042
 2059SOL    HW2 8281   2.111   2.800   3.440 -0.2231 -0.0174 -0.9395
 2059SOL    HW3 8282   2.195   2.742   3.328  2.0528  1.5705 -0.0751
 2059SOL    MW4 8283   2.181   2.755   3.413  0.1764  0.1214 -0.1371
 2060SOL     OW 8284   2.403   2.888   3.551 -0.4761  0.4086  0.3329
 2060SOL    HW2 8285   2.426   2.960   3.492  2.0107 -0.5727  0.0423
 2060SOL    HW3 8286   2.326   2.847   3.511 -0.3068  1.2724 -0.8949
 2060SOL    MW4 8287   2.396   2.892   3.538 -0.1259  0.3932  0.1326
 2061SOL     OW 8288   2.443   3.107   3.381 -0.0843 -0.0282  0.1166
 2061SOL    HW2 8289   2.530   3.144   3.396  0.6867 -1.5631 -0.4549
 2061SOL    HW3 8290   2.435   3.103   3.286 -0.5805 -0.3460  0.1696
 2061SOL    MW4 8291   2.454   3.111   3.371 -0.0479 -0.2725  0.0479
 2062SOL     OW 8292   2.246   3.267   3.483  0.0603  0.0351 -0.5818
 2062SOL    HW2 8293   2.254   3.245   3.576 -0.8129  0.0335 -0.5049
 2062SOL    HW3 8294   2.314   3.215   3.440  0.0403 -0.4598 -0.0220
 2062SOL    MW4 8295   2.256   3.257   3.490 -0.0575 -0.0303 -0.4981
 2063SOL     OW 8296   2.250   3.511   3.337 -0.2929  0.2385 -0.1325
 2063SOL    HW2 8297   2.225   3.429   3.378  0.6407 -0.0399 -0.1134
 2063SOL    HW3 8298   2.241   3.494   3.243 -0.6877  0.3091 -0.1078
 2063SOL    MW4 8299   2.245   3.498   3.330 -0.2217  0.2112 -0.1266
 2064SOL     OW 8300   2.448   3.640   3.490  0.1373 -0.1652 -0.2181
 2064SOL    HW2 8301   2.456   3.725   3.448 -0.1876  0.0121  0.0710
 2064SOL    HW3 8302   2.381   3.594   3.439 -2.1344  0.9843  1.5721
 2064SOL    MW4 8303   2.440   3.645   3.478 -0.2053  0.0100  0.0560
 2065SOL     OW 8304   2.493   3.880   3.346  0.1304  0.6345 -0.3668
 2065SOL    HW2 8305   2.570   3.917   3.389  1.4096 -2.0122 -0.2716
 2065SOL    HW3 8306   2.419   3.930   3.380  1.5315  1.3030  1.7730
 2065SOL    MW4 8307   2.493   3.891   3.356  0.4840  0.3736 -0.0718
 2066SOL     OW 8308   2.286   4.025   3.473  0.0825 -0.3858  0.4354
 2066SOL    HW2 8309   2.281   4.121   3.476  0.6860 -0.3630  0.7220
 2066SOL    HW3 8310   2.200   3.998   3.441  0.4537  0.3186 -1.1944
 2066SOL    MW4 8311   2.274   4.034   3.469  0.2112 -0.2894  0.2582
 2067SOL     OW 8312   2.285   4.284   3.375 -0.3350 -0.2903 -0.5102
 2067SOL    HW2 8313   2.211   4.326   3.420  0.7570  1.4211 -0.2848
 2067SOL    HW3 8314   2.255   4.274   3.285 -0.8160  0.4846 -0.4456
 2067SOL    MW4 8315   2.271   4.288   3.369 -0.2542  0.0377 -0.4721
 2068SOL     OW 8316   2.509   4.422   3.446 -0.3758 -1.0120 -0.0612
 2068SOL    HW2 8317   2.508   4.405   3.540 -1.4665 -0.9084 -0.0492
 2068SOL    HW3 8318   2.435   4.372   3.412 -2.4964  2.1521 -0.2760
 2068SOL    MW4 8319   2.499   4.413   3.454 -0.7992 -0.5813 -0.0882
 2069SOL     OW 8320   2.930   4.657   3.402 -0.2032 -0.1430 -0.2132
 2069SOL    HW2 8321   2.852   4.703   3.433  0.7039  1.8622 -0.7603
 2069SOL    HW3 8322   2.917   4.649   3.307 -0.5667 -1.4749 -0.0602
 2069SOL    MW4 8323   2.918   4.662   3.393 -0.1314 -0.0539 -0.2651
 2070SOL     OW 8324   2.719   0.148   3.496 -0.1220  0.3383 -0.0471
 2070SOL    HW2 8325   2.709   0.237   3.463 -1.4192  0.0092 -0.5710
 2070SOL    HW3 8326   2.639   0.103   3.468  1.1620 -1.3787 -1.0485
 2070SOL    MW4 8327   2.707   0.154   3.488 -0.1235  0.0683 -0.2484
 2071SOL     OW 8328   2.658   0.411   3.403  0.0222  0.0154  0.2250
 2071SOL    HW2 8329   2.739   0.449   3.435  0.3438  0.7051 -1.3527
 2071SOL    HW3 8330   2.673   0.399   3.309 -2.3879  1.9255 -0.4295
 2071SOL    MW4 8331   2.671   0.414   3.395 -0.2534  0.3584 -0.0694
 2072SOL     OW 8332   2.898   0.497   3.497 -0.1860  0.2126  0.3317
 2072SOL    HW2 8333   2.905   0.506   3.592  2.3322 -0.1717  0.2332
 2072SOL    HW3 8334   2.918   0.584   3.463 -2.1986  0.6244  0.1736
 2072SOL    MW4 8335   2.902   0.510   3.505 -0.1192  0.2162  0.2978
 2073SOL     OW 8336   2.903   0.743   3.377  0.0238 -0.0528 -0.1736
 2073SOL    HW2 8337   2.976   0.789   3.419  0.5994 -0.6187 -0.5461
 2073SOL    HW3 8338   2.826   0.796   3.399  0.7060  1.2198 -0.7974
 2073SOL    MW4 8339   2.903   0.756   3.385  0.1898  0.0405 -0.3049
 2074SOL     OW 8340   2.674   0.903   3.472  0.0509  0.5033 -0.0745
 2074SOL    HW2 8341   2.698   0.888   3.563  0.6043  0.4073 -0.2306
 2074SOL    HW3 8342   2.688   0.997   3.459 -2.4396  0.9984  0.6259
 2074SOL    MW4 8343   2.679   0.913   3.482 -0.2046  0.5559 -0.0024
 2075SOL     OW 8344   2.698   1.166   3.411 -0.3072 -0.4954 -0.1524
 2075SOL    HW2 8345   2.788   1.189   3.432 -0.6354 -1.8979  3.0049
 2075SOL    HW3 8346   2.701   1.143   3.318  2.4477  0.1670 -0.2701
 2075SOL    MW4 8347   2.711   1.166   3.401  0.0129 -0.5931  0.2484
 2076SOL     OW 8348   2.934   1.269   3.497 -0.3031 -0.2258 -0.6073
 2076SOL    HW2 8349   2.924   1.280   3.592 -2.1642 -0.3753 -0.7783
 2076SOL    HW3 8350   3.011   1.212   3.488 -0.2392 -0.3839  0.8227
 2076SOL    MW4 8351   2.943   1.263   3.508 -0.5403 -0.2663 -0.4411
 2077SOL     OW 8352   2.949   1.533   3.382 -0.2171 -0.6864 -0.0880
 2077SOL    HW2 8353   2.868   1.560   3.426 -0.8658 -1.8646 -0.5376
 2077SOL    HW3 8354   2.952   1.438   3.394 -0.6033 -1.0885 -2.8819
 2077SOL    MW4 8355   2.939   1.524   3.389 -0.3536 -0.8948 -0.5162
 2078SOL     OW 8356   2.696   1.666   3.485 -0.5804 -0.3011  0.2163
 2078SOL    HW2 8357   2.684   1.758   3.464  0.5616 -0.0903  0.4684
 2078SOL    HW3 8358   2.615   1.624   3.455  0.0625  0.3294 -2.5152
 2078SOL    MW4 8359   2.684   1.672   3.478 -0.3452 -0.1901 -0.1109
 2079SOL     OW 8360   2.684   1.954   3.378 -0.5454 -0.3567  0.0615
 2079SOL    HW2 8361   2.595   1.990   3.378 -0.0710  0.8585 -0.2366
 2079SOL    HW3 8362   2.698   1.924   3.288 -0.3469  0.2576 -0.1162
 2079SOL    MW4 8363   2.674   1.955   3.366 -0.4566 -0.1153 -0.0012
 2080SOL     OW 8364   2.878   2.104   3.493 -0.0281  0.1519  0.2482
 2080SOL    HW2 8365   2.885   2.092   3.588  0.0151  0.7647  0.3261
 2080SOL    HW3 8366   2.807   2.046   3.467 -0.3106  0.2745  0.7198
 2080SOL    MW4 8367   2.869   2.095   3.502 -0.0596  0.2489  0.3207
 2081SOL     OW 8368   2.903   2.362   3.383 -0.8513  0.1455 -0.6295
 2081SOL    HW2 8369   2.894   2.280   3.430  1.7135 -0.2401 -0.7424
 2081SOL    HW3 8370   2.904   2.338   3.291 -0.2368  0.3171 -0.6696
 2081SOL    MW4 8371   2.902   2.348   3.377 -0.4318  0.1171 -0.6497
 2082SOL     OW 8372   2.667   2.493   3.465 -0.1902  0.8205 -0.0369
 2082SOL    HW2 8373   2.658   2.476   3.558  0.0573  0.8954  0.0013
 2082SOL    HW3 8374   2.752   2.457   3.442 -0.8713 -0.5141 -0.5448
 2082SOL    MW4 8375   2.677   2.486   3.474 -0.2475  0.6545 -0.0989
 2083SOL     OW 8376   2.631   2.775   3.426  0.2267 -0.2318 -0.3774
 2083SOL    HW2 8377   2.647   2.685   3.454  1.0612  0.3245  0.9977
 2083SOL    HW3 8378   2.548   2.798   3.467  0.0719 -0.3364 -0.6321
 2083SOL    MW4 8379   2.622   2.766   3.435  0.3161 -0.1724 -0.2296
 2084SOL     OW 8380   2.880   2.885   3.524  0.2277  0.0208  0.6929
 2084SOL    HW2 8381   2.900   2.856   3.613  1.0808 -1.1519  0.1407
 2084SOL    HW3 8382   2.797   2.842   3.502  0.1093  0.1669  0.8561
 2084SOL    MW4 8383   2.872   2.875   3.533  0.3245 -0.1147  0.6413
 2085SOL     OW 8384   2.941   3.108   3.369 -0.1161  0.2100  0.0332
 2085SOL    HW2 8385   2.929   3.024   3.414  0.9860  0.0409  0.0417
 2085SOL    HW3 8386   2.930   3.087   3.276  0.6888 -0.0679 -0.0107
 2085SOL    MW4 8387   2.938   3.094   3.363  0.1357  0.1507  0.0288
 2086SOL     OW 8388   2.694   3.201   3.450  0.1368  0.3894 -0.4339
 2086SOL    HW2 8389   2.701   3.184   3.544 -0.2165 -1.4832 -0.7320
 2086SOL    HW3 8390   2.779   3.173   3.414 -0.0749  0.2108 -0.8016
 2086SOL    MW4 8391   2.706   3.195   3.457  0.0620  0.1187 -0.5219
 2087SOL     OW 8392   2.669   3.518   3.390  0.1608 -0.3041 -0.2265
 2087SOL    HW2 8393   2.670   3.427   3.419  1.1983 -0.6676 -1.3847
 2087SOL    HW3 8394   2.590   3.555   3.430  1.3017 -0.9045  2.6832
 2087SOL    MW4 8395   2.659   3.511   3.399  0.4482 -0.4313  0.0045
 2088SOL     OW 8396   2.902   3.600   3.527  0.0292  0.3108  0.5944
 2088SOL    HW2 8397   2.929   3.688   3.503  0.5061 -0.4811 -1.9174
 2088SOL    HW3 8398   2.818   3.587   3.483  1.8184 -1.8415 -2.3392
 2088SOL    MW4 8399   2.895   3.610   3.518  0.3283 -0.0777 -0.1245
 2089SOL     OW 8400   2.928   3.851   3.431  0.2360 -0.1396 -0.4879
 2089SOL    HW2 8401   3.002   3.887   3.480  0.4743  0.3241 -1.1789
 2089SOL    HW3 8402   2.851   3.893   3.468  0.2679 -0.9934  0.5687
 2089SOL    MW4 8403   2.927   3.861   3.442  0.2716 -0.1912 -0.4396
 2090SOL     OW 8404   2.694   4.002   3.501  0.1411 -0.1608 -0.2059
 2090SOL    HW2 8405   2.669   4.014   3.592  2.1155 -0.1023  0.3563
 2090SOL    HW3 8406   2.701   4.090   3.466 -1.3256 -0.2038 -0.6240
 2090SOL    MW4 8407   2.692   4.015   3.508  0.2081 -0.1588 -0.1869
 2091SOL     OW 8408   2.705   4.258   3.395  0.1248 -0.3269  0.3316
 2091SOL    HW2 8409   2.779   4.300   3.440  0.1692 -0.3105  0.2434
 2091SOL    HW3 8410   2.630   4.312   3.418  0.0691 -0.5802  0.7566
 2091SOL    MW4 8411   2.705   4.271   3.404  0.1233 -0.3581  0.3760
 2092SOL     OW 8412   2.917   4.396   3.508  0.3721  0.3817  0.1901
 2092SOL    HW2 8413   2.905   4.388   3.603  0.5282 -0.1929  0.1681
 2092SOL    HW3 8414   2.890   4.485   3.487  0.5947  0.6023  0.8170
 2092SOL    MW4 8415   2.912   4.406   3.518  0.4225  0.3352  0.2699
 2093SOL     OW 8416   3.389   4.624   3.418 -0.0766  0.2700 -0.3088
 2093SOL    HW2 8417   3.311   4.670   3.448  0.0311  1.0505 -1.1996
 2093SOL    HW3 8418   3.387   4.633   3.323  0.4156 -0.8162 -0.4383
 2093SOL    MW4 8419   3.378   4.631   3.409  0.0029  0.2297 -0.4437
 2094SOL     OW 8420   3.166   0.088   3.516  0.2586 -0.2896  0.6465
 2094SOL    HW2 8421   3.169   0.183   3.503 -1.3022 -0.3027  0.0089
 2094SOL    HW3 8422   3.093   0.059   3.461  0.6141 -1.8442  0.9643
 2094SOL    MW4 8423   3.157   0.097   3.507  0.0997 -0.4964  0.6046
 2095SOL     OW 8424   3.161   0.353   3.436 -0.1216 -0.2533  0.3935
 2095SOL    HW2 8425   3.093   0.412   3.467  0.4850  0.0561  1.1648
 2095SOL    HW3 8426   3.140   0.337   3.344 -0.6720  0.6124  0.3675
 2095SOL    MW4 8427   3.149   0.359   3.428 -0.1142 -0.0983  0.4916
 2096SOL     OW 8428   3.422   0.468   3.499 -0.5503 -0.3595  0.2584
 2096SOL    HW2 8429   3.415   0.474   3.594 -1.1771  2.2838  0.0735
 2096SOL    HW3 8430   3.345   0.417   3.473 -1.6852  0.9353  0.9932
 2096SOL    MW4 8431   3.411   0.462   3.508 -0.7827  0.1600  0.3312
 2097SOL     OW 8432   3.367   0.731   3.410 -0.1565  0.3576  0.2391
 2097SOL    HW2 8433   3.452   0.770   3.433 -0.2521  0.0198  1.1593
 2097SOL    HW3 8434   3.371   0.642   3.443 -0.6629  0.1638 -0.2130
 2097SOL    MW4 8435   3.379   0.725   3.417 -0.2360  0.2875  0.3006
 2098SOL     OW 8436   3.140   0.869   3.517  0.5130  0.0182  0.7139
 2098SOL    HW2 8437   3.150   0.953   3.472  0.6873  0.0348  0.7830
 2098SOL    HW3 8438   3.218   0.819   3.492 -0.6817 -0.9731 -1.1407
 2098SOL    MW4 8439   3.151   0.874   3.508  0.3781 -0.1104  0.4783
 2099SOL     OW 8440   3.188   1.117   3.410  0.3790  0.7503 -0.3970
 2099SOL    HW2 8441   3.246   1.183   3.448  1.3583  0.4719 -1.3794
 2099SOL    HW3 8442   3.206   1.121   3.316  0.0012 -0.4864 -0.5321
 2099SOL    MW4 8443   3.198   1.126   3.402  0.4582  0.5503 -0.5445
 2100SOL     OW 8444   3.377   1.274   3.516 -0.2735 -0.2492 -0.4919
 2100SOL    HW2 8445   3.455   1.229   3.484 -0.4717 -0.7197 -0.3075
 2100SOL    HW3 8446   3.375   1.357   3.467  0.9479  0.2490  0.2803
 2100SOL    MW4 8447   3.387   1.279   3.506 -0.1383 -0.2457 -0.3655
 2101SOL     OW 8448   3.369   1.517   3.402  0.0883  0.2092 -0.5013
 2101SOL    HW2 8449   3.453   1.545   3.438 -0.2478 -0.2813  0.6979
 2101SOL    HW3 8450   3.304   1.572   3.448 -0.3463 -0.4134 -0.3655
 2101SOL    MW4 8451   3.371   1.528   3.413 -0.0134  0.0625 -0.3254
 2102SOL     OW 8452   3.149   1.697   3.500 -0.1937  0.4672  0.3020
 2102SOL    HW2 8453   3.142   1.784   3.463 -0.4738 -0.3761 -1.6697
 2102SOL    HW3 8454   3.081   1.646   3.456 -0.0888 -0.7325  1.4789
 2102SOL    MW4 8455   3.139   1.702   3.490 -0.2167  0.1978  0.1972
 2103SOL     OW 8456   3.094   1.954   3.401 -0.1530  0.1413 -0.1070
 2103SOL    HW2 8457   3.013   1.988   3.438  0.4344  1.8505 -0.3649
 2103SOL    HW3 8458   3.080   1.958   3.306  0.6866  1.5996 -0.1793
 2103SOL    MW4 8459   3.081   1.959   3.393  0.0353  0.5591 -0.1507
 2104SOL     OW 8460   3.365   2.036   3.461 -0.1500 -0.2016 -0.8259
 2104SOL    HW2 8461   3.350   2.124   3.425  0.9519  0.1906 -0.3335
 2104SOL    HW3 8462   3.281   1.991   3.448 -1.0153  1.1935 -0.3118
 2104SOL    MW4 8463   3.352   2.042   3.455 -0.1187  0.0343 -0.6933
 2105SOL     OW 8464   3.335   2.322   3.404  0.0842  0.3099  0.4143
 2105SOL    HW2 8465   3.415   2.352   3.446  0.9529 -0.9543 -0.3053
 2105SOL    HW3 8466   3.264   2.350   3.463  1.1176  0.5107  1.5697
 2105SOL    MW4 8467   3.336   2.330   3.417  0.3352  0.1693  0.4716
 2106SOL     OW 8468   3.120   2.475   3.504 -0.3632  0.5034  0.6097
 2106SOL    HW2 8469   3.135   2.556   3.456  1.5523  0.0050  0.3178
 2106SOL    HW3 8470   3.033   2.447   3.477 -0.2660  1.4716 -0.7641
 2106SOL    MW4 8471   3.111   2.482   3.494 -0.0975  0.5655  0.3901
 2107SOL     OW 8472   3.126   2.731   3.391 -0.2494 -0.5684 -0.1835
 2107SOL    HW2 8473   3.191   2.770   3.449 -0.1423 -0.4311 -0.3974
 2107SOL    HW3 8474   3.042   2.752   3.433 -0.1444 -0.9524  0.2167
 2107SOL    MW4 8475   3.123   2.739   3.405 -0.2215 -0.6011 -0.1590
 2108SOL     OW 8476   3.330   2.831   3.534  0.0791 -0.0461 -0.8277
 2108SOL    HW2 8477   3.409   2.792   3.497 -0.4212 -1.1570 -0.7595
 2108SOL    HW3 8478   3.326   2.918   3.496  0.7774 -0.3556 -1.6304
 2108SOL    MW4 8479   3.340   2.837   3.524  0.1051 -0.2334 -0.9248
 2109SOL     OW 8480   3.341   3.091   3.397  0.4649  0.3121 -0.1428
 2109SOL    HW2 8481   3.414   3.120   3.452  0.0274  1.6332 -0.2386
 2109SOL    HW3 8482   3.263   3.128   3.439 -0.1748 -1.1580  0.0093
 2109SOL    MW4 8483   3.340   3.100   3.410  0.3226  0.2923 -0.1352
 2110SOL     OW 8484   3.126   3.191   3.545 -0.3941  0.0484  0.4984
 2110SOL    HW2 8485   3.132   3.281   3.514  1.4378 -0.5180 -0.8743
 2110SOL    HW3 8486   3.054   3.153   3.494 -0.2286  0.3349  0.0491
 2110SOL    MW4 8487   3.117   3.198   3.534 -0.1307  0.0117  0.2580
 2111SOL     OW 8488   3.109   3.443   3.437  0.4291 -0.6456  0.3039
 2111SOL    HW2 8489   3.034   3.496   3.464 -0.5133 -1.9457  0.2501
 2111SOL    HW3 8490   3.119   3.462   3.344  0.4444 -0.1372  0.4075
 2111SOL    MW4 8491   3.100   3.453   3.428  0.3066 -0.7501  0.3104
 2112SOL     OW 8492   3.337   3.604   3.496 -0.1209 -0.1762  0.1712
 2112SOL    HW2 8493   3.322   3.691   3.459  1.1173 -0.8868 -2.0481
 2112SOL    HW3 8494   3.257   3.556   3.477  0.3391 -0.4058 -1.2486
 2112SOL    MW4 8495   3.324   3.609   3.489  0.1030 -0.3004 -0.3092
 2113SOL     OW 8496   3.360   3.867   3.395  0.4110  0.2919  0.6450
 2113SOL    HW2 8497   3.443   3.890   3.435  0.8001 -1.7695  1.0604
 2113SOL    HW3 8498   3.294   3.903   3.454  1.0061  0.7919  1.0046
 2113SOL    MW4 8499   3.362   3.875   3.408  0.5407  0.0858  0.7472
 2114SOL     OW 8500   3.161   3.961   3.553  0.5051 -0.0307  0.0555
 2114SOL    HW2 8501   3.164   3.977   3.647  0.8403  1.5099 -0.2035
 2114SOL    HW3 8502   3.139   4.046   3.515 -1.2726 -1.0024 -1.1546
 2114SOL    MW4 8503   3.159   3.974   3.560  0.3150  0.0443 -0.1383
 2115SOL     OW 8504   3.108   4.207   3.415 -0.7881 -0.3035 -0.0467
 2115SOL    HW2 8505   3.187   4.256   3.438  0.1856 -1.0229 -1.8261
 2115SOL    HW3 8506   3.036   4.266   3.439  0.2988  0.8967  0.3336
 2115SOL    MW4 8507   3.109   4.221   3.421 -0.5164 -0.2403 -0.2310
 2116SOL     OW 8508   3.344   4.350   3.499 -0.1126 -0.9122  0.2366
 2116SOL    HW2 8509   3.332   4.346   3.594 -1.1770 -0.0979  0.1322
 2116SOL    HW3 8510   3.348   4.443   3.479  0.1703 -1.0861 -0.5159
 2116SOL    MW4 8511   3.343   4.362   3.509 -0.2155 -0.8278  0.1233
 2117SOL     OW 8512   3.842   4.575   3.371 -0.0225  0.0802  0.0463
 2117SOL    HW2 8513   3.771   4.629   3.406  1.2078  1.1227  0.9700
 2117SOL    HW3 8514   3.847   4.600   3.279 -0.0485  0.8836  0.2613
 2117SOL    MW4 8515   3.833   4.585   3.363  0.1364  0.3242  0.1965
 2118SOL     OW 8516   3.628   0.079   3.488 -0.5138 -0.4277  0.0916
 2118SOL    HW2 8517   3.627   0.168   3.453 -0.4201 -0.2275  0.5892
 2118SOL    HW3 8518   3.545   0.041   3.459 -0.3068 -0.3689 -0.5944
 2118SOL    MW4 8519   3.617   0.086   3.480 -0.4740 -0.3935  0.0665
 2119SOL     OW 8520   3.643   0.362   3.370 -0.3028 -0.2216 -0.6237
 2119SOL    HW2 8521   3.711   0.424   3.396  0.6160 -1.6180  0.3929
 2119SOL    HW3 8522   3.568   0.384   3.424 -0.1924  0.4171 -0.7264
 2119SOL    MW4 8523   3.642   0.373   3.380 -0.1669 -0.3216 -0.5031
 2120SOL     OW 8524   3.834   0.531   3.481 -0.0331 -0.0560  0.1712
 2120SOL    HW2 8525   3.822   0.526   3.575  1.6758  0.5708  0.4276
 2120SOL    HW3 8526   3.906   0.470   3.462 -0.5815 -0.4255 -0.7707
 2120SOL    MW4 8527   3.842   0.522   3.491  0.1199 -0.0221  0.0808
 2121SOL     OW 8528   3.855   0.784   3.380  0.1524  0.4897  0.4595
 2121SOL    HW2 8529   3.940   0.808   3.416  1.2111 -0.8284 -1.1227
 2121SOL    HW3 8530   3.839   0.695   3.413  0.2717 -0.0003 -0.7928
 2121SOL    MW4 8531   3.864   0.775   3.389  0.3078  0.2511  0.0856
 2122SOL     OW 8532   3.609   0.848   3.479  0.1112  0.0543 -0.5284
 2122SOL    HW2 8533   3.618   0.854   3.574 -1.3006 -0.3217 -0.3586
 2122SOL    HW3 8534   3.696   0.823   3.448  0.2991 -0.9565  0.7718
 2122SOL    MW4 8535   3.622   0.845   3.487 -0.0505 -0.1287 -0.3345
 2123SOL     OW 8536   3.584   1.142   3.405  0.1660 -0.5601  0.0442
 2123SOL    HW2 8537   3.566   1.049   3.419 -1.0872 -0.3302  0.0201
 2123SOL    HW3 8538   3.577   1.155   3.311  1.8746 -0.7348 -0.1320
 2123SOL    MW4 8539   3.581   1.132   3.395  0.2260 -0.5529  0.0176
 2124SOL     OW 8540   3.814   1.263   3.458 -0.5203  0.0452  0.2736
 2124SOL    HW2 8541   3.800   1.256   3.552 -0.8077 -1.5142  0.1317
 2124SOL    HW3 8542   3.741   1.214   3.420 -0.2021  0.3624 -0.7566
 2124SOL    MW4 8543   3.802   1.256   3.465 -0.5162 -0.1186  0.1192
 2125SOL     OW 8544   3.808   1.535   3.394  0.2775  0.2774 -0.3548
 2125SOL    HW2 8545   3.891   1.565   3.430  0.7747 -0.0765 -1.2014
 2125SOL    HW3 8546   3.812   1.440   3.398 -0.5867  0.2710  0.7061
 2125SOL    MW4 8547   3.819   1.526   3.399  0.2291  0.2298 -0.3264
 2126SOL     OW 8548   3.576   1.644   3.532  0.1478  0.1586  0.1209
 2126SOL    HW2 8549   3.585   1.729   3.489  1.4952 -0.0259  0.0151
 2126SOL    HW3 8550   3.648   1.591   3.496  0.5771 -0.3755  1.7030
 2126SOL    MW4 8551   3.587   1.648   3.522  0.3822  0.0637  0.3157
 2127SOL     OW 8552   3.592   1.901   3.393 -0.0685 -0.1738 -0.3661
 2127SOL    HW2 8553   3.662   1.959   3.425 -1.0688  0.0989  1.3768
 2127SOL    HW3 8554   3.511   1.945   3.418 -0.8710 -1.0685 -1.3346
 2127SOL    MW4 8555   3.591   1.915   3.401 -0.3064 -0.2559 -0.2637
 2128SOL     OW 8556   3.819   2.051   3.479  0.5750  0.3692 -0.3787
 2128SOL    HW2 8557   3.817   2.051   3.575  1.8923  0.5945 -0.3467
 2128SOL    HW3 8558   3.894   1.996   3.457 -0.4966 -0.7541 -1.3079
 2128SOL    MW4 8559   3.828   2.044   3.488  0.6073  0.2503 -0.4969
 2129SOL     OW 8560   3.786   2.312   3.378  0.1248 -0.1358  0.3590
 2129SOL    HW2 8561   3.866   2.357   3.405  0.5636  0.2803 -1.5406
 2129SOL    HW3 8562   3.793   2.225   3.418  1.2031  0.1342  0.7688
 2129SOL    MW4 8563   3.798   2.306   3.386  0.3252 -0.0453  0.1626
 2130SOL     OW 8564   3.557   2.440   3.501  0.0419 -0.1392 -0.1051
 2130SOL    HW2 8565   3.564   2.533   3.480  1.7041 -0.4595 -1.0061
 2130SOL    HW3 8566   3.631   2.400   3.458 -0.7231 -1.9171  0.1987
 2130SOL    MW4 8567   3.567   2.447   3.493  0.1605 -0.4160 -0.1838
 2131SOL     OW 8568   3.571   2.709   3.445 -0.5784 -0.2211 -0.0323
 2131SOL    HW2 8569   3.653   2.739   3.485 -0.0664 -1.1252 -0.3804
 2131SOL    HW3 8570   3.590   2.709   3.351 -0.0109 -3.1669  0.0348
 2131SOL    MW4 8571   3.584   2.713   3.438 -0.4358 -0.7293 -0.0694
 2132SOL     OW 8572   3.817   2.794   3.543 -0.3566  0.1114  0.7233
 2132SOL    HW2 8573   3.824   2.802   3.638 -1.5033  0.3370  0.7991
 2132SOL    HW3 8574   3.826   2.883   3.510  1.8648 -0.1801  0.4744
 2132SOL    MW4 8575   3.819   2.806   3.551 -0.2148  0.1023  0.7002
 2133SOL     OW 8576   3.821   3.036   3.382 -0.2805  0.3384  0.5896
 2133SOL    HW2 8577   3.893   3.083   3.424  0.8427 -0.9055  0.0994
 2133SOL    HW3 8578   3.838   3.044   3.288 -0.2593 -0.7166  0.4895
 2133SOL    MW4 8579   3.833   3.043   3.375 -0.1292  0.0350  0.5116
 2134SOL     OW 8580   3.582   3.156   3.513  0.3173 -0.0754 -0.0837
 2134SOL    HW2 8581   3.585   3.245   3.478  1.4049  0.9313  2.4008
 2134SOL    HW3 8582   3.659   3.113   3.476  0.1012  0.1917 -0.8514
 2134SOL    MW4 8583   3.592   3.162   3.504  0.4323  0.0927  0.1428
 2135SOL     OW 8584   3.568   3.439   3.421  0.1611 -0.6307  0.3365
 2135SOL    HW2 8585   3.496   3.489   3.459  0.6899  1.3070 -1.1391
 2135SOL    HW3 8586   3.567   3.462   3.328  1.2533 -2.3643 -0.1317
 2135SOL    MW4 8587   3.559   3.448   3.414  0.3748 -0.6039  0.0801
 2136SOL     OW 8588   3.803   3.580   3.471 -0.1625  0.2673  0.5995
 2136SOL    HW2 8589   3.824   3.578   3.565 -0.7852 -2.1848  0.7483
 2136SOL    HW3 8590   3.721   3.530   3.464  0.1649 -0.0561 -1.3065
 2136SOL    MW4 8591   3.795   3.573   3.483 -0.2015 -0.0989  0.3679
 2137SOL     OW 8592   3.849   3.856   3.381  0.0786  0.2546  0.3878
 2137SOL    HW2 8593   3.774   3.891   3.429 -0.5056 -0.7730  0.2422
 2137SOL    HW3 8594   3.846   3.762   3.397  0.5867  0.0512 -0.6811
 2137SOL    MW4 8595   3.839   3.848   3.390  0.0684  0.0920  0.2272
 2138SOL     OW 8596   3.613   3.956   3.517 -0.1691 -0.1406 -0.4829
 2138SOL    HW2 8597   3.598   3.954   3.611  0.5517  0.9626 -0.3349
 2138SOL    HW3 8598   3.603   4.048   3.493  1.6800 -0.0939 -1.1420
 2138SOL    MW4 8599   3.610   3.968   3.526  0.1700  0.0110 -0.5503
 2139SOL     OW 8600   3.600   4.232   3.451 -0.3861 -0.0138  0.0010
 2139SOL    HW2 8601   3.519   4.270   3.484 -0.7838  0.1027 -1.0817
 2139SOL    HW3 8602   3.589   4.232   3.356  0.4498 -0.9669 -0.0998
 2139SOL    MW4 8603   3.588   4.237   3.443 -0.3285 -0.1245 -0.1552
 2140SOL     OW 8604   3.852   4.323   3.487 -0.3527 -0.2069  0.0558
 2140SOL    HW2 8605   3.763   4.290   3.474  0.2752 -2.1405  0.5129
 2140SOL    HW3 8606   3.857   4.400   3.430 -2.0978 -0.4580 -0.4774
 2140SOL    MW4 8607   3.840   4.329   3.477 -0.5002 -0.4954  0.0458
 2141SOL     OW 8608   4.294   4.610   3.425 -0.0682  0.5817 -0.2084
 2141SOL    HW2 8609   4.319   4.520   3.448 -1.4083  0.3829  0.4752
 2141SOL    HW3 8610   4.363   4.664   3.464  1.1300 -0.1827 -1.2263
 2141SOL    MW4 8611   4.307   4.605   3.433 -0.0868  0.4544 -0.2522
 2142SOL     OW 8612   4.057   0.088   3.475  0.5653  0.4343  0.1981
 2142SOL    HW2 8613   4.140   0.049   3.447 -0.2340 -0.2266 -1.2902
 2142SOL    HW3 8614   3.991   0.024   3.449 -0.5785  1.8465 -0.4231
 2142SOL    MW4 8615   4.059   0.075   3.468  0.3090  0.5335 -0.0803
 2143SOL     OW 8616   4.063   0.377   3.393 -0.2568 -0.0747 -0.1269
 2143SOL    HW2 8617   4.076   0.284   3.415  1.0265 -0.0035 -0.5846
 2143SOL    HW3 8618   4.063   0.379   3.298 -1.1946  0.2741 -0.1208
 2143SOL    MW4 8619   4.065   0.365   3.384 -0.2108 -0.0193 -0.1864
 2144SOL     OW 8620   4.251   0.517   3.546 -0.0769  0.3015  0.0992
 2144SOL    HW2 8621   4.271   0.599   3.502 -0.3170 -0.4363 -1.4048
 2144SOL    HW3 8622   4.196   0.469   3.484 -1.1427 -0.3883  1.5536
 2144SOL    MW4 8623   4.246   0.522   3.532 -0.2494  0.1131  0.0925
 2145SOL     OW 8624   4.324   0.739   3.414  0.0336 -0.3080  0.2760
 2145SOL    HW2 8625   4.389   0.803   3.443  0.1742 -0.4503  0.2702
 2145SOL    HW3 8626   4.328   0.742   3.319 -1.4497  1.2263  0.2196
 2145SOL    MW4 8627   4.333   0.748   3.406 -0.1431 -0.1244  0.2677
 2146SOL     OW 8628   4.081   0.898   3.487  0.1463 -0.3007  0.3709
 2146SOL    HW2 8629   4.087   0.987   3.452 -1.1956 -0.6532 -0.7924
 2146SOL    HW3 8630   4.172   0.866   3.487  0.5039  0.6885 -0.1507
 2146SOL    MW4 8631   4.094   0.905   3.483  0.0162 -0.2167  0.1490
 2147SOL     OW 8632   4.061   1.161   3.362  0.3707  0.2568  0.6046
 2147SOL    HW2 8633   4.126   1.210   3.413  0.2300  1.3757 -0.2474
 2147SOL    HW3 8634   3.977   1.195   3.391  0.1641 -1.0328  1.5456
 2147SOL    MW4 8635   4.059   1.172   3.372  0.3252  0.2342  0.6163
 2148SOL     OW 8636   4.266   1.285   3.531 -0.1056 -0.4337  0.1729
 2148SOL    HW2 8637   4.274   1.375   3.500 -0.8838 -0.3726  0.1331
 2148SOL    HW3 8638   4.345   1.242   3.500  0.7645  0.4898  1.0831
 2148SOL    MW4 8639   4.277   1.291   3.523 -0.0939 -0.3039  0.2878
 2149SOL     OW 8640   4.262   1.523   3.377 -0.1228 -0.9142 -0.5123
 2149SOL    HW2 8641   4.180   1.560   3.409  0.6252  1.7183 -1.5317
 2149SOL    HW3 8642   4.261   1.540   3.283  1.7776 -0.4738 -0.4743
 2149SOL    MW4 8643   4.251   1.530   3.369  0.2270 -0.5088 -0.6418
 2150SOL     OW 8644   4.034   1.649   3.503  0.1821 -0.1790  0.0735
 2150SOL    HW2 8645   4.022   1.657   3.598 -1.5735  0.2413 -0.1536
 2150SOL    HW3 8646   4.040   1.740   3.472  1.9042 -0.3404 -0.0996
 2150SOL    MW4 8647   4.033   1.662   3.511  0.1774 -0.1448  0.0207
 2151SOL     OW 8648   4.042   1.924   3.404 -0.2656 -0.0809 -0.2858
 2151SOL    HW2 8649   4.121   1.974   3.425  0.3734 -0.6029 -1.4012
 2151SOL    HW3 8650   4.036   1.927   3.309 -1.4609 -0.2502 -0.2160
 2151SOL    MW4 8651   4.052   1.931   3.394 -0.3386 -0.1721 -0.4237
 2152SOL     OW 8652   4.255   2.057   3.509  0.9630 -0.1899  0.1789
 2152SOL    HW2 8653   4.266   2.142   3.465  1.7442 -0.2140  0.3208
 2152SOL    HW3 8654   4.331   2.006   3.482  0.1087 -1.1203 -0.5098
 2152SOL    MW4 8655   4.266   2.062   3.499  0.9532 -0.3161  0.1066
 2153SOL     OW 8656   4.266   2.289   3.355  0.2505 -0.2527  0.1734
 2153SOL    HW2 8657   4.186   2.335   3.382 -0.3353 -1.4196  0.4390
 2153SOL    HW3 8658   4.275   2.311   3.262 -0.9237 -0.8779 -0.1098
 2153SOL    MW4 8659   4.256   2.298   3.346  0.0181 -0.4892  0.1712
 2154SOL     OW 8660   4.018   2.439   3.458 -0.6978  0.3823 -0.1734
 2154SOL    HW2 8661   4.022   2.444   3.554  0.4863 -0.2071 -0.1888
 2154SOL    HW3 8662   4.013   2.531   3.430  4.0760  0.8829  0.2663
 2154SOL    MW4 8663   4.018   2.452   3.467  0.0882  0.3705 -0.1173
 2155SOL     OW 8664   3.999   2.690   3.370 -0.3267 -0.0379  0.3290
 2155SOL    HW2 8665   4.064   2.751   3.406 -0.2881 -1.3437  2.5667
 2155SOL    HW3 8666   3.917   2.716   3.412 -0.9895  0.6757 -1.3817
 2155SOL    MW4 8667   3.997   2.701   3.381 -0.4089 -0.1161  0.3982
 2156SOL     OW 8668   4.230   2.844   3.479 -0.1927 -0.1307  0.1293
 2156SOL    HW2 8669   4.238   2.854   3.574  0.3247  0.7595 -0.0026
 2156SOL    HW3 8670   4.295   2.778   3.456  0.3155  0.3097  0.2832
 2156SOL    MW4 8671   4.239   2.837   3.488 -0.0572  0.0451  0.1321
 2157SOL     OW 8672   4.254   3.105   3.397  0.2754  0.7144 -0.3633
 2157SOL    HW2 8673   4.250   3.018   3.435 -0.5421  1.0533  0.3531
 2157SOL    HW3 8674   4.240   3.092   3.303 -1.9834  0.2687  0.0119
 2157SOL    MW4 8675   4.252   3.092   3.389 -0.1302  0.7002 -0.2193
 2158SOL     OW 8676   4.020   3.217   3.527 -0.4579 -0.1630  0.0354
 2158SOL    HW2 8677   3.989   3.291   3.475 -3.0569 -2.3806 -1.7308
 2158SOL    HW3 8678   4.101   3.189   3.483  0.9711  2.0862  1.1922
 2158SOL    MW4 8679   4.026   3.223   3.514 -0.6123 -0.1590 -0.0451
 2159SOL     OW 8680   3.986   3.422   3.346  0.2927 -0.0037  0.0325
 2159SOL    HW2 8681   4.067   3.468   3.368  0.9072 -2.1525  2.5837
 2159SOL    HW3 8682   3.917   3.475   3.386  0.8501 -0.3493  1.4968
 2159SOL    MW4 8683   3.988   3.435   3.354  0.4475 -0.3328  0.5624
 2160SOL     OW 8684   4.211   3.579   3.465  0.0255 -0.6255  0.4351
 2160SOL    HW2 8685   4.205   3.589   3.560  1.2459 -0.8318  0.5429
 2160SOL    HW3 8686   4.248   3.662   3.435  0.8306 -1.0307  0.2840
 2160SOL    MW4 8687   4.215   3.591   3.474  0.2928 -0.7062  0.4296
 2161SOL     OW 8688   4.292   3.810   3.343  0.4303 -0.4158  0.1573
 2161SOL    HW2 8689   4.357   3.866   3.384  0.0418 -0.3507  0.6880
 2161SOL    HW3 8690   4.291   3.837   3.251  1.2762 -0.5409  0.1067
 2161SOL    MW4 8691   4.301   3.821   3.336  0.4907 -0.4237  0.2208
 2162SOL     OW 8692   4.101   3.964   3.465  0.0099  0.7050 -0.3054
 2162SOL    HW2 8693   4.171   3.917   3.419  0.7109  0.0784  1.3648
 2162SOL    HW3 8694   4.023   3.910   3.452  1.0180 -1.5511  2.4638
 2162SOL    MW4 8695   4.100   3.951   3.457  0.2351  0.3245  0.2804
 2163SOL     OW 8696   4.093   4.214   3.367 -0.2929 -0.1774  0.2419
 2163SOL    HW2 8697   4.103   4.123   3.393  0.3054 -0.8071 -2.0918
 2163SOL    HW3 8698   4.017   4.245   3.416 -1.0087 -2.1687  0.4114
 2163SOL    MW4 8699   4.084   4.206   3.377 -0.3080 -0.5231 -0.0436
 2164SOL     OW 8700   4.325   4.333   3.469 -0.2127  0.0434  0.5174
 2164SOL    HW2 8701   4.317   4.329   3.565 -0.7085  0.0838  0.4814
 2164SOL    HW3 8702   4.249   4.285   3.437  0.0653 -0.1457  0.1429
 2164SOL    MW4 8703   4.314   4.326   3.478 -0.2413  0.0234  0.4632
 2165SOL     OW 8704   0.221   4.618   3.934 -0.5132 -0.3359 -0.1409
 2165SOL    HW2 8705   0.211   4.627   4.029  0.1028 -0.1379 -0.0894
 2165SOL    HW3 8706   0.147   4.665   3.896  0.1808  1.0366  0.2077
 2165SOL    MW4 8707   0.210   4.625   3.941 -0.3404 -0.1292 -0.0882
 2166SOL     OW 8708   0.051   0.113   3.807 -0.3617 -0.0681 -0.3790
 2166SOL    HW2 8709   0.026   0.201   3.834 -2.1425 -0.5186 -0.4973
 2166SOL    HW3 8710   0.053   0.116   3.711 -0.8521 -0.2741 -0.3951
 2166SOL    MW4 8711   0.048   0.125   3.798 -0.6613 -0.1547 -0.3965
 2167SOL     OW 8712   4.482   0.366   3.912  0.1449  0.0540  0.2464
 2167SOL    HW2 8713   4.411   0.427   3.892  0.7348  0.6051 -0.1909
 2167SOL    HW3 8714   4.560   0.405   3.871  0.8646 -0.1194  1.4237
 2167SOL    MW4 8715   4.483   0.379   3.904  0.3177  0.1039  0.3440
 2168SOL     OW 8716   0.231   0.472   3.784 -0.1814 -0.1159  0.0683
 2168SOL    HW2 8717   0.216   0.561   3.818  0.7018 -0.4039  1.2256
 2168SOL    HW3 8718   0.229   0.482   3.689  0.8998  1.3242  0.1815
 2168SOL    MW4 8719   0.228   0.485   3.776  0.0778  0.0361  0.2358
 2169SOL     OW 8720   0.195   0.756   3.879  0.1324  0.5339  0.1680
 2169SOL    HW2 8721   0.199   0.751   3.975  1.2530 -0.1495  0.0957
 2169SOL    HW3 8722   0.131   0.824   3.862  0.2281  0.9614  1.4142
 2169SOL    MW4 8723   0.187   0.764   3.890  0.2929  0.5001  0.3231
 2170SOL     OW 8724   0.010   0.950   3.801  0.5107  0.5378  0.2786
 2170SOL    HW2 8725  -0.071   0.910   3.831 -0.2364  1.1872 -0.8287
 2170SOL    HW3 8726   0.013   1.035   3.844  0.5019  0.5940  0.1694
 2170SOL    MW4 8727  -0.000   0.956   3.810  0.4110  0.6309  0.1180
 2171SOL     OW 8728   4.470   1.190   3.906  0.0486 -0.3333  0.0530
 2171SOL    HW2 8729   4.384   1.223   3.879  0.4698 -0.6447 -1.7524
 2171SOL    HW3 8730   4.533   1.243   3.857  0.8400 -0.9927  0.3469
 2171SOL    MW4 8731   4.467   1.201   3.896  0.2089 -0.4615 -0.1464
 2172SOL     OW 8732   0.204   1.325   3.825 -0.1821 -0.1010  0.1294
 2172SOL    HW2 8733   0.213   1.418   3.846 -0.3767 -0.5765  2.4599
 2172SOL    HW3 8734   0.191   1.323   3.731  0.5097  2.1940 -0.0524
 2172SOL    MW4 8735   0.204   1.337   3.816 -0.1165  0.1390  0.4127
 2173SOL     OW 8736   0.248   1.600   3.886  0.0157  0.7336  0.4185
 2173SOL    HW2 8737   0.224   1.586   3.978 -0.7623 -0.3555  0.0635
 2173SOL    HW3 8738   0.166   1.624   3.843 -0.3031 -2.0163 -0.6111
 2173SOL    MW4 8739   0.234   1.601   3.893 -0.1290  0.2270  0.2353
 2174SOL     OW 8740   4.483   1.644   3.780 -0.4913 -0.0322  0.2752
 2174SOL    HW2 8741   4.485   1.729   3.823  1.0488 -0.3859  0.9298
 2174SOL    HW3 8742   4.469   1.664   3.687  0.6523  0.9767  0.3157
 2174SOL    MW4 8743   4.481   1.658   3.773 -0.1369  0.0542  0.3667
 2175SOL     OW 8744   0.001   1.884   3.946 -0.5363 -0.4237  0.5399
 2175SOL    HW2 8745  -0.003   1.911   4.037 -0.3786  0.7888  0.1988
 2175SOL    HW3 8746  -0.069   1.933   3.903  0.1091 -0.1352 -0.1975
 2175SOL    MW4 8747  -0.009   1.894   3.952 -0.4301 -0.2255  0.3974
 2176SOL     OW 8748   0.146   2.029   3.770 -0.5011 -0.4180 -0.3356
 2176SOL    HW2 8749   0.142   2.123   3.790  0.4882 -0.3046 -0.6299
 2176SOL    HW3 8750   0.099   1.987   3.841  0.1488  0.2127  0.4750
 2176SOL    MW4 8751   0.139   2.036   3.782 -0.2849 -0.3197 -0.2675
 2177SOL     OW 8752   0.159   2.297   3.834  0.2506 -0.8760  0.3077
 2177SOL    HW2 8753   0.180   2.309   3.926  3.1253  0.7225 -0.4783
 2177SOL    HW3 8754   0.089   2.359   3.816 -0.0015 -0.8741  1.3008
 2177SOL    MW4 8755   0.152   2.307   3.843  0.5966 -0.6649  0.3352
 2178SOL     OW 8756   4.455   2.467   3.728  0.0612  0.2234 -0.6024
 2178SOL    HW2 8757   4.385   2.408   3.757  0.9924 -1.1283 -1.0230
 2178SOL    HW3 8758   4.449   2.542   3.787 -1.5614 -0.0014 -0.4640
 2178SOL    MW4 8759   4.445   2.469   3.740 -0.0300  0.0153 -0.6397
 2179SOL     OW 8760   4.437   2.701   3.893  0.2744  0.6163 -0.2434
 2179SOL    HW2 8761   4.500   2.763   3.857  1.8383 -0.8506 -0.0937
 2179SOL    HW3 8762   4.443   2.713   3.988 -0.2616  1.0389 -0.2620
 2179SOL    MW4 8763   4.446   2.710   3.901  0.4096  0.4787 -0.2258
 2180SOL     OW 8764   0.153   2.839   3.779 -0.0486  0.0125 -0.1765
 2180SOL    HW2 8765   0.228   2.788   3.810 -0.8090 -1.1291 -0.1796
 2180SOL    HW3 8766   0.148   2.819   3.685 -0.2591  0.2233 -0.2110
 2180SOL    MW4 8767   0.162   2.830   3.770 -0.1767 -0.1106 -0.1814
 2181SOL     OW 8768   0.198   3.101   3.904 -0.3291  0.1740  0.2051
 2181SOL    HW2 8769   0.190   3.117   3.998 -2.6061 -1.6044  0.3383
 2181SOL    HW3 8770   0.156   3.017   3.890  0.8458 -0.0312 -2.2845
 2181SOL    MW4 8771   0.192   3.092   3.915 -0.4745 -0.0875 -0.1061
 2182SOL     OW 8772   4.473   3.196   3.763  0.5051 -0.2434 -0.5095
 2182SOL    HW2 8773   4.562   3.177   3.791  1.1012  1.8726 -0.9293
 2182SOL    HW3 8774   4.479   3.206   3.668 -0.1589  0.0386 -0.5242
 2182SOL    MW4 8775   4.485   3.195   3.754  0.4964  0.0730 -0.5670
 2183SOL     OW 8776   4.462   3.465   3.811  0.3036  0.0753  0.2331
 2183SOL    HW2 8777   4.544   3.504   3.779 -0.1602  0.7946 -0.0868
 2183SOL    HW3 8778   4.477   3.370   3.805  0.7528  0.2040 -0.7508
 2183SOL    MW4 8779   4.475   3.457   3.806  0.3018  0.1872  0.0610
 2184SOL     OW 8780   0.215   3.589   3.735  0.3495 -0.0644 -0.4795
 2184SOL    HW2 8781   0.302   3.552   3.748  0.0992 -0.4418  0.1012
 2184SOL    HW3 8782   0.222   3.678   3.769  0.7616  0.2103 -1.2671
 2184SOL    MW4 8783   0.227   3.596   3.741  0.3708 -0.0780 -0.5066
 2185SOL     OW 8784   0.189   3.857   3.843  0.2453  0.1449  0.2014
 2185SOL    HW2 8785   0.183   3.862   3.938 -1.8870  0.6377  0.0631
 2185SOL    HW3 8786   0.275   3.893   3.823  0.4272  0.7035  1.8808
 2185SOL    MW4 8787   0.199   3.862   3.853 -0.0120  0.2837  0.4048
 2186SOL     OW 8788   4.457   4.027   3.749 -0.1422  0.6935 -0.0953
 2186SOL    HW2 8789   4.373   3.997   3.784  0.0078 -1.2581 -1.3336
 2186SOL    HW3 8790   4.522   3.967   3.786  0.4881  1.0301 -0.6313
 2186SOL    MW4 8791   4.455   4.016   3.759 -0.0391  0.4797 -0.3290
 2187SOL     OW 8792   0.011   4.260   3.948  0.2432 -0.3482  0.0788
 2187SOL    HW2 8793   0.080   4.297   3.892 -0.6630  0.6672 -0.3852
 2187SOL    HW3 8794  -0.006   4.174   3.909  1.3925 -0.7010  0.3269
 2187SOL    MW4 8795   0.018   4.254   3.935  0.2752 -0.2608  0.0505
 2188SOL     OW 8796   0.213   4.379   3.789 -0.0214  0.4631 -0.2608
 2188SOL    HW2 8797   0.282   4.325   3.828 -1.7437 -0.9570  0.8457
 2188SOL    HW3 8798   0.226   4.465   3.828  0.0993 -0.2078  1.2177
 2188SOL    MW4 8799   0.224   4.383   3.799 -0.2327  0.1874  0.0803
 2189SOL     OW 8800   0.683   4.657   3.897 -0.0665  0.2864 -0.7250
 2189SOL    HW2 8801   0.670   4.569   3.862  2.4449 -0.5360  0.3137
 2189SOL    HW3 8802   0.607   4.707   3.866 -1.7693 -2.3555 -0.9194
 2189SOL    MW4 8803   0.671   4.652   3.889  0.0402 -0.1702 -0.6135
 2190SOL     OW 8804   0.434   0.115   3.819  0.8210 -0.3226  0.1968
 2190SOL    HW2 8805   0.434   0.204   3.855 -1.4435  0.5129 -1.6889
 2190SOL    HW3 8806   0.366   0.069   3.868  2.0006 -1.0377  1.1780
 2190SOL    MW4 8807   0.425   0.121   3.830  0.6779 -0.3067  0.0777
 2191SOL     OW 8808   0.465   0.381   3.891  0.2249  0.1636  0.5231
 2191SOL    HW2 8809   0.537   0.424   3.844  1.0048 -1.5688  0.0820
 2191SOL    HW3 8810   0.386   0.414   3.849  0.8249  0.8734 -0.0657
 2191SOL    MW4 8811   0.464   0.391   3.879  0.4070  0.0287  0.3872
 2192SOL     OW 8812   0.669   0.520   3.761 -0.3328  0.0774 -0.0510
 2192SOL    HW2 8813   0.744   0.486   3.809  0.1208 -0.3676 -1.0617
 2192SOL    HW3 8814   0.655   0.608   3.797 -0.2683 -0.4062  1.1787
 2192SOL    MW4 8815   0.677   0.528   3.772 -0.2644 -0.0452 -0.0219
 2193SOL     OW 8816   0.631   0.757   3.886 -0.2632 -0.4880 -0.0762
 2193SOL    HW2 8817   0.703   0.814   3.857 -1.3402  1.2353  0.5850
 2193SOL    HW3 8818   0.552   0.803   3.860 -1.1608 -1.7012  0.4743
 2193SOL    MW4 8819   0.630   0.771   3.879 -0.5238 -0.4207  0.0839
 2194SOL     OW 8820   0.410   0.915   3.811 -0.1139 -0.0135 -0.0509
 2194SOL    HW2 8821   0.395   0.999   3.854  1.0000  1.0201 -1.6311
 2194SOL    HW3 8822   0.330   0.865   3.828 -1.4718  1.9515 -0.4206
 2194SOL    MW4 8823   0.397   0.919   3.819 -0.1461  0.3822 -0.3083
 2195SOL     OW 8824   0.436   1.186   3.896 -0.0900 -0.7347 -0.2540
 2195SOL    HW2 8825   0.509   1.226   3.850  0.8635 -0.8230  1.1490
 2195SOL    HW3 8826   0.359   1.235   3.867  0.8217  0.8418 -0.0338
 2195SOL    MW4 8827   0.435   1.198   3.886  0.1560 -0.5383 -0.0398
 2196SOL     OW 8828   0.646   1.300   3.783 -0.5520  0.4941 -0.4588
 2196SOL    HW2 8829   0.728   1.258   3.809 -1.7979 -0.4569  2.0371
 2196SOL    HW3 8830   0.643   1.291   3.688  1.8061 -0.2335 -0.4776
 2196SOL    MW4 8831   0.656   1.294   3.774 -0.4053  0.2726 -0.1321
 2197SOL     OW 8832   0.673   1.575   3.898 -0.3529  0.2532  0.0028
 2197SOL    HW2 8833   0.753   1.608   3.858  0.3584  1.3555  2.2802
 2197SOL    HW3 8834   0.659   1.490   3.857  1.1697  0.6847 -1.4735
 2197SOL    MW4 8835   0.681   1.568   3.887 -0.0581  0.4555  0.1087
 2198SOL     OW 8836   0.462   1.709   3.754  0.1120 -0.0930 -0.0850
 2198SOL    HW2 8837   0.542   1.676   3.796  0.9238  1.8680 -0.0135
 2198SOL    HW3 8838   0.391   1.662   3.797  1.1156 -0.3279  1.3482
 2198SOL    MW4 8839   0.463   1.698   3.765  0.3515  0.1347  0.1137
 2199SOL     OW 8840   0.397   1.954   3.885  0.7613  0.0422  0.0777
 2199SOL    HW2 8841   0.414   1.863   3.861  1.2349  0.3121 -0.6306
 2199SOL    HW3 8842   0.312   1.974   3.847  0.2341 -0.3807  1.0208
 2199SOL    MW4 8843   0.388   1.945   3.877  0.7542  0.0221  0.1087
 2200SOL     OW 8844   0.659   2.029   3.811  0.1971  0.0252  0.2916
 2200SOL    HW2 8845   0.633   2.116   3.841 -0.5426  0.0719 -0.4892
 2200SOL    HW3 8846   0.577   1.980   3.804  0.4827 -0.3332 -0.5701
 2200SOL    MW4 8847   0.645   2.034   3.814  0.1372 -0.0157  0.0749
 2201SOL     OW 8848   0.665   2.298   3.866  0.0347  0.0049 -0.0826
 2201SOL    HW2 8849   0.737   2.349   3.828  0.4219 -1.0421 -0.7739
 2201SOL    HW3 8850   0.586   2.334   3.824  0.0472  1.6933  1.2619
 2201SOL    MW4 8851   0.664   2.310   3.856  0.0875  0.0894  0.0038
 2202SOL     OW 8852   0.411   2.416   3.777  0.4530 -0.3059 -0.1053
 2202SOL    HW2 8853   0.327   2.373   3.794  0.5474  0.1959  1.6563
 2202SOL    HW3 8854   0.415   2.422   3.681 -1.3047 -0.7397 -0.2301
 2202SOL    MW4 8855   0.400   2.411   3.767  0.2336 -0.2968  0.1106
 2203SOL     OW 8856   0.389   2.690   3.835  0.2787  0.0215 -0.4300
 2203SOL    HW2 8857   0.469   2.741   3.820 -0.3436  1.1599  0.0803
 2203SOL    HW3 8858   0.415   2.600   3.816  1.2803  0.5652 -1.7708
 2203SOL    MW4 8859   0.403   2.685   3.830  0.3287  0.2434 -0.5398
 2204SOL     OW 8860   0.630   2.825   3.806  0.8263 -0.1292  0.4562
 2204SOL    HW2 8861   0.721   2.805   3.830  1.2344 -0.2044 -1.0648
 2204SOL    HW3 8862   0.634   2.847   3.713 -0.6298  0.4967  0.5230
 2204SOL    MW4 8863   0.643   2.825   3.797  0.6881 -0.0565  0.2644
 2205SOL     OW 8864   0.657   3.093   3.894  0.2145 -0.0892 -0.0227
 2205SOL    HW2 8865   0.657   3.070   3.987  0.9764  1.7978  0.4645
 2205SOL    HW3 8866   0.668   3.009   3.849  1.5850 -0.8405  1.6390
 2205SOL    MW4 8867   0.658   3.079   3.900  0.4960  0.0606  0.2608
 2206SOL     OW 8868   0.439   3.193   3.762  0.0445  0.2749 -0.4423
 2206SOL    HW2 8869   0.514   3.150   3.803 -1.1704 -0.4697  1.0090
 2206SOL    HW3 8870   0.365   3.172   3.818 -1.5093 -0.1134 -2.6076
 2206SOL    MW4 8871   0.439   3.185   3.775 -0.3208  0.1256 -0.5364
 2207SOL     OW 8872   0.462   3.465   3.809 -0.0164  0.1949  0.0955
 2207SOL    HW2 8873   0.544   3.512   3.796  0.1738  0.1587  1.0905
 2207SOL    HW3 8874   0.483   3.373   3.791  0.3461  0.0841  1.0452
 2207SOL    MW4 8875   0.475   3.459   3.805  0.0565  0.1755  0.3524
 2208SOL     OW 8876   0.676   3.636   3.763  0.5354  0.0069  0.1775
 2208SOL    HW2 8877   0.679   3.726   3.795 -0.2698  0.3293 -0.6367
 2208SOL    HW3 8878   0.673   3.644   3.668  1.0882 -0.8997  0.0787
 2208SOL    MW4 8879   0.676   3.649   3.755  0.5021 -0.0701  0.0570
 2209SOL     OW 8880   0.651   3.878   3.896 -0.0481 -0.3511 -0.0594
 2209SOL    HW2 8881   0.673   3.869   3.989 -2.2526  1.5003  0.6745
 2209SOL    HW3 8882   0.726   3.923   3.858  0.2534  0.1552  1.1097
 2209SOL    MW4 8883   0.664   3.883   3.903 -0.2992 -0.0403  0.1915
 2210SOL     OW 8884   0.418   3.967   3.779 -0.0484 -0.2087 -0.4615
 2210SOL    HW2 8885   0.485   3.938   3.841 -1.3452 -1.5419  0.3419
 2210SOL    HW3 8886   0.453   3.945   3.693  0.9123 -0.1269 -0.0921
 2210SOL    MW4 8887   0.431   3.960   3.776 -0.0927 -0.3736 -0.3064
 2211SOL     OW 8888   0.431   4.226   3.888  0.1489  0.2621 -0.2649
 2211SOL    HW2 8889   0.503   4.273   3.847 -0.5597  0.1783 -1.6368
 2211SOL    HW3 8890   0.441   4.136   3.857 -0.1026  0.0829  0.1639
 2211SOL    MW4 8891   0.442   4.220   3.879  0.0222  0.2270 -0.3893
 2212SOL     OW 8892   0.651   4.403   3.803  0.2286  0.1038 -0.6132
 2212SOL    HW2 8893   0.731   4.367   3.842  0.8619  0.4440 -1.5849
 2212SOL    HW3 8894   0.668   4.405   3.709 -0.7762  0.5449 -0.7985
 2212SOL    MW4 8895   0.664   4.399   3.796  0.1796  0.2065 -0.7658
 2213SOL     OW 8896   1.127   4.653   3.889  0.2317 -0.5982 -0.0731
 2213SOL    HW2 8897   1.196   4.691   3.835  0.8259 -1.7137 -0.0897
 2213SOL    HW3 8898   1.125   4.561   3.865 -0.8733 -0.6933  0.3474
 2213SOL    MW4 8899   1.136   4.646   3.878  0.1644 -0.7579 -0.0196
 2214SOL     OW 8900   0.906   0.124   3.827  0.1603 -0.0089  0.2055
 2214SOL    HW2 8901   0.981   0.070   3.853  0.0861 -0.3796 -0.3414
 2214SOL    HW3 8902   0.830   0.075   3.857  0.1019 -0.1136 -0.1048
 2214SOL    MW4 8903   0.906   0.110   3.834  0.1429 -0.0716  0.0923
 2215SOL     OW 8904   0.893   0.404   3.885 -0.3909  0.0351  0.2586
 2215SOL    HW2 8905   0.903   0.400   3.980  0.2687  0.4065  0.2070
 2215SOL    HW3 8906   0.881   0.313   3.858 -0.2098 -0.1091  0.6602
 2215SOL    MW4 8907   0.893   0.392   3.894 -0.2800  0.0650  0.3049
 2216SOL     OW 8908   1.136   0.528   3.798 -0.1624  0.2872 -0.0945
 2216SOL    HW2 8909   1.210   0.476   3.829 -0.1867  0.0880 -0.3680
 2216SOL    HW3 8910   1.059   0.474   3.814 -0.2972  0.6813  0.6056
 2216SOL    MW4 8911   1.136   0.514   3.804 -0.1835  0.3130 -0.0381
 2217SOL     OW 8912   1.095   0.770   4.167  0.1663  0.2123 -0.3143
 2217SOL    HW2 8913   1.100   0.678   4.190  0.6126  0.1345 -0.7024
 2217SOL    HW3 8914   1.182   0.805   4.191  1.0304 -0.1047 -2.8609
 2217SOL    MW4 8915   1.107   0.763   4.173  0.3392  0.1602 -0.7014
 2218SOL     OW 8916   0.856   0.909   3.782 -0.1010  0.2361 -0.3621
 2218SOL    HW2 8917   0.939   0.867   3.804 -0.6093 -0.7815 -0.3960
 2218SOL    HW3 8918   0.863   0.928   3.688  0.2360  0.4766 -0.2894
 2218SOL    MW4 8919   0.868   0.906   3.772 -0.1236  0.1336 -0.3572
 2219SOL     OW 8920   0.884   1.193   3.838  0.2568  0.2848 -0.0318
 2219SOL    HW2 8921   0.885   1.202   3.934 -0.6306 -0.1986  0.0233
 2219SOL    HW3 8922   0.869   1.100   3.822  1.8891  0.1057 -0.6490
 2219SOL    MW4 8923   0.882   1.182   3.849  0.3551  0.1973 -0.1059
 2220SOL     OW 8924   1.163   1.283   3.800 -0.0746 -0.2094  0.4737
 2220SOL    HW2 8925   1.146   1.364   3.847  0.2122  1.1014 -1.6246
 2220SOL    HW3 8926   1.085   1.230   3.815 -1.4719  1.5515 -0.3570
 2220SOL    MW4 8927   1.151   1.287   3.808 -0.2210  0.1957  0.0870
 2221SOL     OW 8928   1.140   1.529   3.904 -0.0543  0.1859  0.4725
 2221SOL    HW2 8929   1.154   1.554   3.995 -2.1280  0.5489  0.7201
 2221SOL    HW3 8930   1.203   1.582   3.855  0.3811  0.7407  1.6068
 2221SOL    MW4 8931   1.150   1.540   3.910 -0.2705  0.3070  0.6547
 2222SOL     OW 8932   0.922   1.670   3.804  0.3374 -0.2598  0.0778
 2222SOL    HW2 8933   0.986   1.603   3.831 -1.9708 -2.4994  0.2165
 2222SOL    HW3 8934   0.921   1.665   3.709  1.3704  0.7639  0.0069
 2222SOL    MW4 8935   0.930   1.660   3.795  0.1692 -0.4203  0.0865
 2223SOL     OW 8936   0.895   1.922   3.904 -0.6598 -0.2746 -0.0543
 2223SOL    HW2 8937   0.889   1.833   3.869  1.1778 -0.0243 -1.0478
 2223SOL    HW3 8938   0.811   1.962   3.881 -0.9659 -1.3314 -0.8222
 2223SOL    MW4 8939   0.883   1.915   3.896 -0.4578 -0.3810 -0.2866
 2224SOL     OW 8940   1.141   2.061   3.799 -0.5896  0.2691 -0.3587
 2224SOL    HW2 8941   1.067   2.010   3.830 -1.2684  0.3451 -1.8211
 2224SOL    HW3 8942   1.135   2.058   3.703  0.6038  1.2634 -0.4885
 2224SOL    MW4 8943   1.131   2.054   3.790 -0.5219  0.4103 -0.5689
 2225SOL     OW 8944   1.086   2.333   3.863  0.6393 -0.1889 -0.2754
 2225SOL    HW2 8945   1.098   2.330   3.958  1.3160  0.0574 -0.3520
 2225SOL    HW3 8946   1.112   2.247   3.832  0.0374 -0.4016 -0.1964
 2225SOL    MW4 8947   1.091   2.322   3.872  0.6491 -0.1848 -0.2751
 2226SOL     OW 8948   0.876   2.468   3.779  0.2144 -0.0640 -0.2134
 2226SOL    HW2 8949   0.880   2.559   3.808 -0.7800  0.1195 -0.6191
 2226SOL    HW3 8950   0.958   2.429   3.810  1.1444  1.2420 -0.9552
 2226SOL    MW4 8951   0.888   2.475   3.787  0.2059  0.1323 -0.3650
 2227SOL     OW 8952   0.872   2.717   3.876 -0.3425 -0.0428 -0.3191
 2227SOL    HW2 8953   0.885   2.704   3.970  0.1496  0.3442 -0.3331
 2227SOL    HW3 8954   0.952   2.759   3.846 -0.8987  0.7526 -0.7284
 2227SOL    MW4 8955   0.884   2.721   3.884 -0.3510  0.1130 -0.3748
 2228SOL     OW 8956   1.102   2.846   3.785  0.5534 -0.2526 -0.2862
 2228SOL    HW2 8957   1.168   2.799   3.836  0.4441 -0.6371 -0.5028
 2228SOL    HW3 8958   1.110   2.937   3.815 -0.0430 -0.6025  0.9808
 2228SOL    MW4 8959   1.112   2.852   3.796  0.4603 -0.3493 -0.1476
 2229SOL     OW 8960   1.091   3.137   3.878 -0.5548 -0.4424 -0.2628
 2229SOL    HW2 8961   1.172   3.163   3.834 -0.9651  0.9574 -0.1952
 2229SOL    HW3 8962   1.021   3.179   3.829 -1.2363 -1.3887 -0.1256
 2229SOL    MW4 8963   1.093   3.146   3.866 -0.6989 -0.3822 -0.2356
 2230SOL     OW 8964   0.860   3.255   3.781 -0.4198  0.0473 -0.0084
 2230SOL    HW2 8965   0.796   3.205   3.832 -2.1659  1.4989 -0.7518
 2230SOL    HW3 8966   0.834   3.241   3.690  0.0373  1.0187 -0.2937
 2230SOL    MW4 8967   0.848   3.246   3.776 -0.5899  0.3669 -0.1442
 2231SOL     OW 8968   0.901   3.520   3.852  0.6283  0.2442  0.1514
 2231SOL    HW2 8969   0.886   3.426   3.836  0.5061  0.2838  0.0361
 2231SOL    HW3 8970   0.820   3.562   3.824 -0.0018  0.2025  1.8566
 2231SOL    MW4 8971   0.888   3.513   3.846  0.5291  0.2441  0.3612
 2232SOL     OW 8972   1.116   3.667   3.766  0.0481  0.2446  0.2500
 2232SOL    HW2 8973   1.107   3.756   3.802 -0.7052  0.0248  0.6030
 2232SOL    HW3 8974   1.041   3.619   3.801  1.1289 -0.8745  1.0644
 2232SOL    MW4 8975   1.105   3.673   3.776  0.0914  0.0682  0.4044
 2233SOL     OW 8976   1.081   3.922   3.880  0.2837 -0.0175  0.1191
 2233SOL    HW2 8977   1.107   3.902   3.970  0.6415  0.2142  0.0671
 2233SOL    HW3 8978   1.161   3.952   3.838 -0.2441  1.5192  0.1848
 2233SOL    MW4 8979   1.095   3.923   3.886  0.2612  0.2158  0.1211
 2234SOL     OW 8980   0.854   4.055   3.787 -0.4358  0.1302 -0.0867
 2234SOL    HW2 8981   0.932   4.018   3.828  0.2625  1.3405 -0.3201
 2234SOL    HW3 8982   0.876   4.057   3.694 -0.3227  1.4580 -0.0412
 2234SOL    MW4 8983   0.867   4.050   3.780 -0.3288  0.4654 -0.1116
 2235SOL     OW 8984   0.895   4.297   3.883 -0.1399  0.1103  0.1084
 2235SOL    HW2 8985   0.895   4.278   3.977 -2.6561  1.2600  0.3847
 2235SOL    HW3 8986   0.872   4.213   3.842 -0.0741 -0.1420  0.5783
 2235SOL    MW4 8987   0.892   4.283   3.890 -0.4632  0.2289  0.2067
 2236SOL     OW 8988   1.139   4.396   3.796 -0.5039 -0.6560  0.2245
 2236SOL    HW2 8989   1.050   4.366   3.815 -1.0888  0.3765 -0.8273
 2236SOL    HW3 8990   1.139   4.416   3.703  0.5546  0.3098  0.4153
 2236SOL    MW4 8991   1.127   4.395   3.787 -0.4413 -0.3924  0.1111
 2237SOL     OW 8992   1.563   0.003   3.876  0.0473 -0.0581  0.0831
 2237SOL    HW2 8993   1.553   0.006   3.971 -3.2390 -0.6121 -0.1959
 2237SOL    HW3 8994   1.582  -0.089   3.857 -1.2593 -0.3437  0.0797
 2237SOL    MW4 8995   1.564  -0.009   3.886 -0.5587 -0.1688  0.0455
 2238SOL     OW 8996   1.339   0.118   3.758 -0.3631  0.5367 -0.1132
 2238SOL    HW2 8997   1.334   0.195   3.815 -1.6217  0.8774 -0.6525
 2238SOL    HW3 8998   1.426   0.082   3.773  0.9091  3.0714 -1.1605
 2238SOL    MW4 8999   1.350   0.124   3.768 -0.3613  0.9161 -0.3223
 2239SOL     OW 9000   1.325   0.358   3.894  0.0711  0.2844  0.0011
 2239SOL    HW2 9001   1.315   0.360   3.989  0.2882  1.0162  0.0114
 2239SOL    HW3 9002   1.414   0.391   3.879  0.0795  0.0567 -0.4444
 2239SOL    MW4 9003   1.335   0.363   3.905  0.1007  0.3509 -0.0563
 2240SOL     OW 9004   1.569   0.472   3.799 -0.2653 -0.2444 -0.8210
 2240SOL    HW2 9005   1.657   0.443   3.823 -0.5169 -1.3463 -1.2067
 2240SOL    HW3 9006   1.555   0.552   3.850  0.8478 -0.2186 -0.5523
 2240SOL    MW4 9007   1.578   0.479   3.809 -0.1518 -0.3864 -0.8364
 2241SOL     OW 9008   1.373   0.866   3.795  0.1278 -0.1957  0.3100
 2241SOL    HW2 9009   1.374   0.953   3.835  0.4384  1.0333 -2.3145
 2241SOL    HW3 9010   1.286   0.832   3.813  0.2162  0.3746  1.9038
 2241SOL    MW4 9011   1.362   0.873   3.803  0.1804  0.0417  0.1738
 2242SOL     OW 9012   1.103   0.794   3.865  0.5852  0.3490 -0.1848
 2242SOL    HW2 9013   1.101   0.815   3.958  2.1254  2.0602 -0.4945
 2242SOL    HW3 9014   1.107   0.699   3.861  0.8330  0.2784  1.5110
 2242SOL    MW4 9015   1.103   0.784   3.877  0.8210  0.5655 -0.0021
 2243SOL     OW 9016   1.391   1.125   3.891 -0.0863  0.0604  0.5040
 2243SOL    HW2 9017   1.472   1.173   3.874 -0.4969  0.6075  0.0806
 2243SOL    HW3 9018   1.321   1.182   3.859 -0.6877 -0.1352  1.4291
 2243SOL    MW4 9019   1.392   1.139   3.884 -0.2197  0.1067  0.5701
 2244SOL     OW 9020   1.609   1.282   3.782  0.2227 -0.0402 -0.0171
 2244SOL    HW2 9021   1.673   1.238   3.837 -2.0768 -0.6309  2.2694
 2244SOL    HW3 9022   1.595   1.366   3.824 -1.8244 -0.6441  0.5636
 2244SOL    MW4 9023   1.616   1.287   3.795 -0.3508 -0.1979  0.3614
 2245SOL     OW 9024   1.563   1.529   3.892 -0.4081  0.2865 -0.1712
 2245SOL    HW2 9025   1.557   1.514   3.986 -1.8154 -0.4566 -0.3719
 2245SOL    HW3 9026   1.638   1.589   3.882  0.9081 -1.0807  1.2419
 2245SOL    MW4 9027   1.572   1.535   3.903 -0.4201  0.0081 -0.0112
 2246SOL     OW 9028   1.351   1.678   3.796  0.0615 -0.2180 -0.2645
 2246SOL    HW2 9029   1.361   1.766   3.833  0.2788  0.2458 -1.4070
 2246SOL    HW3 9030   1.425   1.629   3.829  0.8886  0.5178 -0.9905
 2246SOL    MW4 9031   1.362   1.683   3.805  0.1994 -0.0596 -0.5109
 2247SOL     OW 9032   1.355   1.933   3.890 -0.1312  0.3908 -0.1334
 2247SOL    HW2 9033   1.343   1.937   3.985 -2.1098 -1.1913 -0.2851
 2247SOL    HW3 9034   1.274   1.969   3.854  1.5050  3.1582 -1.2873
 2247SOL    MW4 9035   1.343   1.939   3.898 -0.1763  0.5472 -0.3054
 2248SOL     OW 9036   1.609   2.111   3.816 -0.1064 -0.2124 -0.1254
 2248SOL    HW2 9037   1.533   2.054   3.829 -1.1399  0.7617 -1.8484
 2248SOL    HW3 9038   1.623   2.111   3.721  1.6107  0.1856  0.1153
 2248SOL    MW4 9039   1.601   2.103   3.805 -0.0162 -0.0315 -0.3209
 2249SOL     OW 9040   1.570   2.381   3.902  0.1532  0.6780  0.5065
 2249SOL    HW2 9041   1.635   2.432   3.853 -0.8513  1.9815  0.4901
 2249SOL    HW3 9042   1.571   2.295   3.862  1.7644  0.7275  0.4111
 2249SOL    MW4 9043   1.579   2.377   3.891  0.2333  0.8564  0.4919
 2250SOL     OW 9044   1.316   2.475   3.821 -0.4515 -0.6683 -0.0710
 2250SOL    HW2 9045   1.388   2.417   3.848 -1.5795 -0.7239  3.0634
 2250SOL    HW3 9046   1.237   2.426   3.842 -1.4286  1.8688  2.5595
 2250SOL    MW4 9047   1.315   2.461   3.827 -0.7292 -0.3407  0.6893
 2251SOL     OW 9048   1.318   2.729   3.897  0.4704 -0.7903 -0.1556
 2251SOL    HW2 9049   1.334   2.726   3.991 -0.4952 -0.9929  0.0034
 2251SOL    HW3 9050   1.328   2.639   3.868  1.4751 -0.6163 -0.3712
 2251SOL    MW4 9051   1.321   2.717   3.905  0.4755 -0.7942 -0.1631
 2252SOL     OW 9052   1.510   2.871   3.776  0.1383 -0.0939 -0.4581
 2252SOL    HW2 9053   1.443   2.817   3.817 -0.4074 -0.2656 -1.5593
 2252SOL    HW3 9054   1.516   2.839   3.687  2.4180 -0.7532 -0.1102
 2252SOL    MW4 9055   1.502   2.860   3.770  0.3670 -0.2036 -0.5577
 2253SOL     OW 9056   1.549   3.134   3.850  0.0117  0.2521  0.3365
 2253SOL    HW2 9057   1.553   3.136   3.946  0.3468 -0.0908  0.3327
 2253SOL    HW3 9058   1.527   3.043   3.829 -1.6248  0.6806  0.1331
 2253SOL    MW4 9059   1.547   3.122   3.860 -0.1599  0.2632  0.3092
 2254SOL     OW 9060   1.324   3.254   3.743 -0.1465 -0.7047 -0.0756
 2254SOL    HW2 9061   1.324   3.336   3.792 -1.1756 -0.0937 -1.0787
 2254SOL    HW3 9062   1.407   3.213   3.766  0.5466  0.7813  0.1666
 2254SOL    MW4 9063   1.335   3.260   3.753 -0.1907 -0.4280 -0.1760
 2255SOL     OW 9064   1.315   3.497   3.859 -0.5182  0.3832 -0.2349
 2255SOL    HW2 9065   1.396   3.535   3.826 -0.0398  1.0147  1.5793
 2255SOL    HW3 9066   1.247   3.558   3.830 -0.0008  1.4443  0.7551
 2255SOL    MW4 9067   1.317   3.510   3.851 -0.3868  0.6065  0.1352
 2256SOL     OW 9068   1.553   3.592   3.738 -0.0770  0.3222 -0.4468
 2256SOL    HW2 9069   1.640   3.567   3.769 -1.0970 -1.1765  1.3263
 2256SOL    HW3 9070   1.548   3.686   3.751  0.8604  0.2354  0.5899
 2256SOL    MW4 9071   1.564   3.601   3.744 -0.0879  0.1130 -0.0761
 2257SOL     OW 9072   1.567   3.855   3.839 -0.0801 -0.1621  0.0216
 2257SOL    HW2 9073   1.592   3.859   3.932 -0.7297  1.3735  0.1532
 2257SOL    HW3 9074   1.488   3.909   3.834  0.7282  0.9012 -1.6822
 2257SOL    MW4 9075   1.559   3.863   3.851 -0.0591  0.1807 -0.1857
 2258SOL     OW 9076   1.343   3.997   3.779  0.2005 -0.3912  0.6608
 2258SOL    HW2 9077   1.351   4.083   3.819 -0.5294 -0.2757  0.5540
 2258SOL    HW3 9078   1.358   4.011   3.686  0.0558 -0.3779  0.6399
 2258SOL    MW4 9079   1.346   4.010   3.772  0.0850 -0.3738  0.6437
 2259SOL     OW 9080   1.353   4.242   3.872 -0.1975 -0.0550  0.0416
 2259SOL    HW2 9081   1.418   4.305   3.841 -0.1031  0.4266  1.1926
 2259SOL    HW3 9082   1.269   4.283   3.852 -0.1529 -0.4190 -0.9217
 2259SOL    MW4 9083   1.350   4.256   3.865 -0.1792 -0.0401  0.0663
 2260SOL     OW 9084   1.565   4.394   3.779 -0.1576 -0.0615  0.2245
 2260SOL    HW2 9085   1.645   4.352   3.810 -0.1135  0.0436  0.2547
 2260SOL    HW3 9086   1.578   4.406   3.685  0.5406  1.4255  0.4910
 2260SOL    MW4 9087   1.577   4.390   3.771 -0.0596  0.1488  0.2639
 2261SOL     OW 9088   2.022   4.652   3.903  0.1006 -0.0728  0.0183
 2261SOL    HW2 9089   2.082   4.707   3.852 -0.7439  0.0774 -0.8203
 2261SOL    HW3 9090   2.017   4.570   3.854 -0.0658 -0.2363  0.3087
 2261SOL    MW4 9091   2.030   4.649   3.890 -0.0329 -0.0749 -0.0541
 2262SOL     OW 9092   1.799   0.136   3.817  0.2014 -0.2599 -0.0648
 2262SOL    HW2 9093   1.859   0.079   3.866 -0.3742 -0.2566  0.6571
 2262SOL    HW3 9094   1.712   0.101   3.836 -0.0750  0.1711 -0.5310
 2262SOL    MW4 9095   1.796   0.124   3.826  0.0889 -0.2026 -0.0310
 2263SOL     OW 9096   1.809   0.395   3.921 -0.1425  0.4394 -0.2603
 2263SOL    HW2 9097   1.787   0.376   4.012 -2.0109  0.3059 -0.7192
 2263SOL    HW3 9098   1.818   0.308   3.880  0.0823  0.5081 -0.3616
 2263SOL    MW4 9099   1.808   0.381   3.928 -0.3593  0.4309 -0.3340
 2264SOL     OW 9100   2.011   0.493   3.786 -0.1369 -0.2950 -0.1720
 2264SOL    HW2 9101   1.932   0.462   3.831  0.0909 -0.6644 -0.0244
 2264SOL    HW3 9102   1.988   0.491   3.693 -0.7221  0.7885 -0.0592
 2264SOL    MW4 9103   1.998   0.489   3.780 -0.1841 -0.2008 -0.1378
 2265SOL     OW 9104   2.063   0.766   3.846 -0.0673  0.3630 -1.0477
 2265SOL    HW2 9105   2.051   0.763   3.941  0.1284  0.9323 -1.0045
 2265SOL    HW3 9106   2.056   0.675   3.818  0.8566  0.0803 -0.3653
 2265SOL    MW4 9107   2.061   0.754   3.855  0.0803  0.4008 -0.9518
 2266SOL     OW 9108   1.784   0.842   3.832  0.3280 -0.4390 -0.5258
 2266SOL    HW2 9109   1.880   0.838   3.833  0.3490 -0.3148 -1.4853
 2266SOL    HW3 9110   1.763   0.872   3.744 -0.5909 -0.2782 -0.2510
 2266SOL    MW4 9111   1.794   0.846   3.821  0.2096 -0.4014 -0.6161
 2267SOL     OW 9112   1.794   1.113   3.908  0.0820 -0.2991  0.5281
 2267SOL    HW2 9113   1.791   1.123   4.003 -0.6478 -1.4447  0.6338
 2267SOL    HW3 9114   1.789   1.018   3.893  0.6432 -0.1612 -0.6353
 2267SOL    MW4 9115   1.793   1.102   3.918  0.0597 -0.4320  0.3886
 2268SOL     OW 9116   2.000   1.276   3.772  0.0182 -0.3627  0.1119
 2268SOL    HW2 9117   2.084   1.252   3.812 -0.1052  0.3627  0.8090
 2268SOL    HW3 9118   1.935   1.224   3.819  0.0839 -1.0157 -0.5106
 2268SOL    MW4 9119   2.002   1.266   3.783  0.0105 -0.3531  0.1218
 2269SOL     OW 9120   2.028   1.525   3.892 -0.1417 -0.5168 -0.3566
 2269SOL    HW2 9121   1.954   1.585   3.881  0.0913  0.0537  1.1248
 2269SOL    HW3 9122   2.005   1.448   3.840 -1.6188 -0.1980 -0.1859
 2269SOL    MW4 9123   2.016   1.523   3.884 -0.3057 -0.3995 -0.1383
 2270SOL     OW 9124   1.817   1.695   3.838  0.2529 -0.3042 -0.4772
 2270SOL    HW2 9125   1.811   1.790   3.838 -0.9582 -0.3599  1.9169
 2270SOL    HW3 9126   1.791   1.670   3.749 -1.3433  1.4961 -0.5549
 2270SOL    MW4 9127   1.813   1.704   3.826 -0.1173 -0.0740 -0.1717
 2271SOL     OW 9128   1.836   1.960   3.874 -0.1238 -0.0220  0.1964
 2271SOL    HW2 9129   1.887   1.991   3.949 -0.0804  1.9768 -0.6342
 2271SOL    HW3 9130   1.754   2.009   3.879 -0.9739 -1.4211  0.1172
 2271SOL    MW4 9131   1.832   1.971   3.885 -0.2303  0.0573  0.0761
 2272SOL     OW 9132   2.040   2.127   3.748  0.0456  0.4832 -0.1985
 2272SOL    HW2 9133   1.971   2.064   3.771 -0.4550  0.9732 -0.3366
 2272SOL    HW3 9134   2.048   2.120   3.653 -0.2671  0.8868 -0.2559
 2272SOL    MW4 9135   2.032   2.118   3.739 -0.0618  0.6011 -0.2241
 2273SOL     OW 9136   2.019   2.349   3.904  0.3417  0.2979  0.1038
 2273SOL    HW2 9137   2.025   2.263   3.862 -1.9755  0.7524 -1.2352
 2273SOL    HW3 9138   1.949   2.394   3.858 -0.3018  1.9327  2.5642
 2273SOL    MW4 9139   2.011   2.344   3.892 -0.0489  0.5736  0.2520
 2274SOL     OW 9140   1.804   2.498   3.786 -0.0584 -0.1782  0.1042
 2274SOL    HW2 9141   1.805   2.591   3.808  1.5683 -0.0010 -0.6631
 2274SOL    HW3 9142   1.798   2.495   3.691 -1.6709 -0.8945  0.2080
 2274SOL    MW4 9143   1.803   2.510   3.777 -0.0565 -0.2494  0.0165
 2275SOL     OW 9144   1.751   2.772   3.876 -0.5344 -0.0575 -0.1976
 2275SOL    HW2 9145   1.750   2.761   3.971  0.5249  1.7324  0.0580
 2275SOL    HW3 9146   1.662   2.797   3.853 -0.3772  1.2455  0.5734
 2275SOL    MW4 9147   1.739   2.774   3.886 -0.3740  0.3505 -0.0625
 2276SOL     OW 9148   1.993   2.855   3.773 -0.3775  0.3955  0.3879
 2276SOL    HW2 9149   2.053   2.794   3.817  0.7700  0.3910 -1.1282
 2276SOL    HW3 9150   1.907   2.834   3.809  0.4241 -0.1117  2.0538
 2276SOL    MW4 9151   1.990   2.844   3.784 -0.1203  0.3281  0.4075
 2277SOL     OW 9152   2.021   3.121   3.853  0.4125  0.4621  0.5418
 2277SOL    HW2 9153   2.109   3.151   3.828  0.6421 -0.6185  0.0217
 2277SOL    HW3 9154   2.019   3.029   3.827 -1.6028  0.9966 -1.3201
 2277SOL    MW4 9155   2.033   3.113   3.847  0.1769  0.3901  0.2272
 2278SOL     OW 9156   1.800   3.268   3.770 -0.1453 -0.0250 -0.0727
 2278SOL    HW2 9157   1.867   3.216   3.815 -0.2738 -1.5498 -1.6095
 2278SOL    HW3 9158   1.718   3.223   3.788 -0.1977 -0.6754 -1.8261
 2278SOL    MW4 9159   1.798   3.255   3.778 -0.1690 -0.3121 -0.5069
 2279SOL     OW 9160   1.802   3.539   3.829  0.1533 -0.0326  0.1753
 2279SOL    HW2 9161   1.884   3.584   3.809 -0.2498  0.5536 -0.1692
 2279SOL    HW3 9162   1.819   3.447   3.808  0.5237  0.1863 -0.4873
 2279SOL    MW4 9163   1.815   3.532   3.824  0.1489  0.0737  0.0424
 2280SOL     OW 9164   2.055   3.639   3.772 -0.3836 -0.1435  0.2893
 2280SOL    HW2 9165   2.120   3.574   3.799  0.3138  0.6626  0.5745
 2280SOL    HW3 9166   2.074   3.655   3.679 -0.1518  0.1267  0.3848
 2280SOL    MW4 9167   2.066   3.632   3.763 -0.2608 -0.0014  0.3395
 2281SOL     OW 9168   2.036   3.893   3.897 -0.0642  0.2423 -0.1514
 2281SOL    HW2 9169   2.099   3.946   3.849 -1.1763 -0.2330 -2.1922
 2281SOL    HW3 9170   2.059   3.803   3.874 -0.2346 -0.0196  0.6990
 2281SOL    MW4 9171   2.047   3.888   3.888 -0.2337  0.1450 -0.3083
 2282SOL     OW 9172   1.794   3.992   3.753 -0.4404 -0.1461  0.0789
 2282SOL    HW2 9173   1.876   3.956   3.789 -0.1026  0.2837 -0.2554
 2282SOL    HW3 9174   1.725   3.941   3.796  0.0129 -0.7389  0.1191
 2282SOL    MW4 9175   1.796   3.980   3.763 -0.3359 -0.1674  0.0401
 2283SOL     OW 9176   1.798   4.259   3.850 -0.1584  0.2889  0.1999
 2283SOL    HW2 9177   1.879   4.297   3.818 -0.4605  0.5069 -0.3042
 2283SOL    HW3 9178   1.791   4.174   3.805  0.5112 -0.3685  1.3155
 2283SOL    MW4 9179   1.807   4.253   3.840 -0.1098  0.2308  0.2804
 2284SOL     OW 9180   2.023   4.425   3.760 -0.3988 -0.2664  0.3145
 2284SOL    HW2 9181   2.100   4.391   3.806 -0.1887  0.8799  0.8309
 2284SOL    HW3 9182   2.046   4.421   3.668 -0.0373 -0.6961  0.4204
 2284SOL    MW4 9183   2.036   4.420   3.754 -0.3233 -0.1721  0.3965
 2285SOL     OW 9184   2.451   4.644   3.871  0.2767  0.1366 -0.8051
 2285SOL    HW2 9185   2.458   4.641   3.966 -0.6328  1.1441 -0.6989
 2285SOL    HW3 9186   2.527   4.695   3.843 -0.0214  0.7414 -0.5313
 2285SOL    MW4 9187   2.462   4.651   3.880  0.1173  0.3495 -0.7548
 2286SOL     OW 9188   2.230   0.124   3.766 -0.5657  0.0741  0.3525
 2286SOL    HW2 9189   2.302   0.069   3.798  0.6226  1.1029 -0.4731
 2286SOL    HW3 9190   2.241   0.125   3.670 -2.4081 -0.7289  0.1181
 2286SOL    MW4 9191   2.241   0.117   3.757 -0.6523  0.1039  0.2124
 2287SOL     OW 9192   2.232   0.389   3.913  0.0669  0.0367 -0.1122
 2287SOL    HW2 9193   2.233   0.311   3.857  1.8155  1.0714 -1.5720
 2287SOL    HW3 9194   2.151   0.434   3.889 -1.1743 -1.5123  1.0441
 2287SOL    MW4 9195   2.222   0.385   3.903  0.1338 -0.0311 -0.1523
 2288SOL     OW 9196   2.446   0.527   3.782  0.0044  0.7181 -0.0898
 2288SOL    HW2 9197   2.374   0.479   3.823 -0.5619  0.7484 -1.0233
 2288SOL    HW3 9198   2.421   0.533   3.690  1.0243  1.0652 -0.3543
 2288SOL    MW4 9199   2.433   0.521   3.775  0.0641  0.7679 -0.2477
 2289SOL     OW 9200   2.457   0.798   3.878  0.4014  0.0166 -0.3491
 2289SOL    HW2 9201   2.390   0.849   3.834 -0.5591 -1.7969 -1.0300
 2289SOL    HW3 9202   2.454   0.712   3.837  2.7981 -0.2698 -0.0424
 2289SOL    MW4 9203   2.448   0.793   3.867  0.5910 -0.2604 -0.3984
 2290SOL     OW 9204   2.261   0.952   3.736 -0.0193 -0.0836 -0.1526
 2290SOL    HW2 9205   2.186   0.896   3.754 -0.3662  0.3434 -0.2832
 2290SOL    HW3 9206   2.268   0.954   3.641 -1.3443  1.8731 -0.2234
 2290SOL    MW4 9207   2.252   0.945   3.726 -0.2398  0.2309 -0.1791
 2291SOL     OW 9208   2.234   1.200   3.890  0.1765 -0.2513 -0.1789
 2291SOL    HW2 9209   2.242   1.195   3.985  0.3951  0.6810 -0.1438
 2291SOL    HW3 9210   2.256   1.112   3.859 -0.0050 -0.5834  0.6401
 2291SOL    MW4 9211   2.238   1.188   3.898  0.1814 -0.1720 -0.0658
 2292SOL     OW 9212   2.437   1.321   3.749 -0.0114 -0.0103 -0.1368
 2292SOL    HW2 9213   2.462   1.401   3.796  0.2916  0.3217 -0.8586
 2292SOL    HW3 9214   2.352   1.298   3.786  0.2823  0.1706  0.6724
 2292SOL    MW4 9215   2.429   1.329   3.760  0.0672  0.0575 -0.1252
 2293SOL     OW 9216   2.492   1.569   3.908  0.2918 -0.6933 -0.0465
 2293SOL    HW2 9217   2.563   1.617   3.865  0.5719 -0.3551  0.7904
 2293SOL    HW3 9218   2.412   1.604   3.869  0.5231 -0.0141  0.0875
 2293SOL    MW4 9219   2.491   1.580   3.897  0.3593 -0.5590  0.0815
 2294SOL     OW 9220   2.256   1.670   3.774 -0.3756  0.1952 -0.2958
 2294SOL    HW2 9221   2.250   1.760   3.805 -1.4819  0.8556 -2.2924
 2294SOL    HW3 9222   2.179   1.626   3.811 -0.4478  0.3694 -0.2410
 2294SOL    MW4 9223   2.245   1.676   3.783 -0.5312  0.3054 -0.5517
 2295SOL     OW 9224   2.252   1.943   3.842  0.3060  0.0940 -0.2837
 2295SOL    HW2 9225   2.221   1.927   3.932  0.4600 -0.0447 -0.2544
 2295SOL    HW3 9226   2.191   2.007   3.806  0.2743  0.1871 -0.0618
 2295SOL    MW4 9227   2.240   1.949   3.849  0.3221  0.0880 -0.2506
 2296SOL     OW 9228   2.498   2.016   3.757  0.6496  0.1727 -0.5374
 2296SOL    HW2 9229   2.509   2.105   3.790 -0.0755  0.0792 -0.0143
 2296SOL    HW3 9230   2.408   1.993   3.782  1.1030 -0.9963  0.0254
 2296SOL    MW4 9231   2.487   2.025   3.764  0.6137  0.0062 -0.3943
 2297SOL     OW 9232   2.489   2.269   3.836  1.0370 -0.1699 -0.4672
 2297SOL    HW2 9233   2.555   2.335   3.816  1.5102 -0.0911  1.2663
 2297SOL    HW3 9234   2.406   2.312   3.818  1.3640  0.7077  0.0853
 2297SOL    MW4 9235   2.487   2.283   3.831  1.1425 -0.0441 -0.1657
 2298SOL     OW 9236   2.261   2.447   3.808 -0.0580  0.2132  0.0053
 2298SOL    HW2 9237   2.173   2.425   3.840 -0.2586  0.6873 -0.2154
 2298SOL    HW3 9238   2.248   2.471   3.717  0.4912 -0.9564 -0.3973
 2298SOL    MW4 9239   2.248   2.447   3.800 -0.0119  0.1216 -0.0770
 2299SOL     OW 9240   2.197   2.708   3.894  0.2307 -0.0926  0.0530
 2299SOL    HW2 9241   2.198   2.707   3.989  0.0565  0.1539  0.0577
 2299SOL    HW3 9242   2.220   2.619   3.869  0.4252 -0.1181  0.3248
 2299SOL    MW4 9243   2.200   2.696   3.903  0.2334 -0.0637  0.0894
 2300SOL     OW 9244   2.448   2.809   3.813  0.4027  0.3060  0.1259
 2300SOL    HW2 9245   2.360   2.787   3.843  0.8648 -2.3200 -0.3524
 2300SOL    HW3 9246   2.436   2.833   3.721  0.1305  0.3159  0.1622
 2300SOL    MW4 9247   2.435   2.809   3.805  0.4277 -0.0393  0.0675
 2301SOL     OW 9248   2.486   3.079   3.858  0.3080 -0.0466  0.1915
 2301SOL    HW2 9249   2.471   3.080   3.953 -1.0892  1.7722 -0.0426
 2301SOL    HW3 9250   2.486   2.986   3.836 -1.0108 -0.4380  1.7257
 2301SOL    MW4 9251   2.484   3.067   3.868 -0.0501  0.1416  0.3633
 2302SOL     OW 9252   2.276   3.215   3.757  0.2667  0.3057 -0.1450
 2302SOL    HW2 9253   2.289   3.304   3.789 -1.9766  0.7400 -0.3181
 2302SOL    HW3 9254   2.350   3.166   3.791  1.8909  2.3703 -0.5949
 2302SOL    MW4 9255   2.287   3.220   3.766  0.1850  0.6351 -0.2267
 2303SOL     OW 9256   2.258   3.469   3.850  0.2643  0.3441 -0.3737
 2303SOL    HW2 9257   2.245   3.485   3.943 -0.3036  0.6310 -0.4982
 2303SOL    HW3 9258   2.332   3.526   3.826  0.6987 -0.0638 -0.0092
 2303SOL    MW4 9259   2.266   3.479   3.859  0.2468  0.3281 -0.3424
 2304SOL     OW 9260   2.481   3.611   3.773  0.1344  0.1926 -0.3380
 2304SOL    HW2 9261   2.552   3.550   3.792  0.6474  0.7503 -0.4649
 2304SOL    HW3 9262   2.474   3.610   3.677  0.4898  0.7327 -0.3673
 2304SOL    MW4 9263   2.489   3.603   3.763  0.2487  0.3374 -0.3583
 2305SOL     OW 9264   2.455   3.857   3.890  0.0079 -0.0977  0.1416
 2305SOL    HW2 9265   2.534   3.900   3.856 -0.9461  1.1663 -0.4736
 2305SOL    HW3 9266   2.464   3.766   3.862 -0.6001  0.8400 -3.2479
 2305SOL    MW4 9267   2.467   3.851   3.882 -0.1984  0.1931 -0.3870
 2306SOL     OW 9268   2.256   4.026   3.768  0.2230 -0.1413  0.5632
 2306SOL    HW2 9269   2.328   3.977   3.806  1.7933  0.6105 -1.3530
 2306SOL    HW3 9270   2.250   3.994   3.678 -1.1213  0.5887  0.3713
 2306SOL    MW4 9271   2.265   4.015   3.761  0.2527  0.0539  0.2849
 2307SOL     OW 9272   2.240   4.290   3.879  0.2350 -0.0035 -0.2593
 2307SOL    HW2 9273   2.222   4.263   3.969 -0.4035  0.7104 -0.1631
 2307SOL    HW3 9274   2.262   4.209   3.833  0.7729 -0.3463  0.5825
 2307SOL    MW4 9275   2.241   4.276   3.885  0.2217  0.0448 -0.1354
 2308SOL     OW 9276   2.466   4.375   3.748  0.1242 -0.0706  0.5331
 2308SOL    HW2 9277   2.379   4.341   3.769 -0.4348  1.4170  0.7334
 2308SOL    HW3 9278   2.465   4.465   3.782  0.4375  1.2296 -2.7734
 2308SOL    MW4 9279   2.454   4.382   3.755  0.0920  0.2975  0.1235
 2309SOL     OW 9280   2.889   4.631   3.904 -0.2455  0.2378  0.4162
 2309SOL    HW2 9281   2.902   4.636   3.999  0.2197 -0.0673  0.3735
 2309SOL    HW3 9282   2.971   4.664   3.867 -0.0697 -0.5148  0.1247
 2309SOL    MW4 9283   2.902   4.636   3.912 -0.1607  0.0982  0.3719
 2310SOL     OW 9284   2.675   0.107   3.775  0.4191  0.1537 -0.2919
 2310SOL    HW2 9285   2.748   0.060   3.815 -0.2891 -0.8670 -0.1622
 2310SOL    HW3 9286   2.713   0.149   3.699  1.3955  0.6069  0.4316
 2310SOL    MW4 9287   2.689   0.106   3.770  0.4544  0.0789 -0.1793
 2311SOL     OW 9288   2.665   0.356   3.886 -0.0124  0.4473  0.1037
 2311SOL    HW2 9289   2.663   0.269   3.848 -0.7063  0.3010  0.4764
 2311SOL    HW3 9290   2.586   0.399   3.854  0.1280  0.8074  0.2286
 2311SOL    MW4 9291   2.655   0.350   3.877 -0.0854  0.4755  0.1695
 2312SOL     OW 9292   2.906   0.493   3.797  0.2732 -0.1772 -0.1167
 2312SOL    HW2 9293   2.983   0.441   3.819 -0.5906 -0.7855  1.6157
 2312SOL    HW3 9294   2.832   0.442   3.832 -1.0214 -0.1364 -2.7001
 2312SOL    MW4 9295   2.906   0.479   3.805 -0.0117 -0.2520 -0.2291
 2313SOL     OW 9296   2.875   0.756   3.912 -0.3820 -0.0729  0.1041
 2313SOL    HW2 9297   2.953   0.805   3.885  0.4461 -1.0889  0.5930
 2313SOL    HW3 9298   2.878   0.677   3.858 -0.6941 -0.4399  0.6308
 2313SOL    MW4 9299   2.886   0.752   3.901 -0.3140 -0.2553  0.2382
 2314SOL     OW 9300   2.684   0.893   3.754  0.1437 -0.0919 -0.1656
 2314SOL    HW2 9301   2.758   0.862   3.805  0.5650 -0.0632 -0.7507
 2314SOL    HW3 9302   2.607   0.860   3.801  0.5032  0.3682  0.7520
 2314SOL    MW4 9303   2.684   0.884   3.767  0.2468 -0.0275 -0.1216
 2315SOL     OW 9304   2.652   1.164   3.864  0.0470 -0.4384  0.1453
 2315SOL    HW2 9305   2.655   1.078   3.823 -1.7670 -0.6684  0.4745
 2315SOL    HW3 9306   2.572   1.205   3.831  1.5172  1.6548 -1.0050
 2315SOL    MW4 9307   2.642   1.158   3.854  0.0017 -0.1926  0.0372
 2316SOL     OW 9308   2.915   1.279   3.766 -0.3261  0.4400 -0.1631
 2316SOL    HW2 9309   2.919   1.365   3.809 -1.0523  1.1710 -1.5341
 2316SOL    HW3 9310   2.837   1.237   3.803 -0.3649  0.6473 -0.0099
 2316SOL    MW4 9311   2.905   1.285   3.777 -0.4268  0.5637 -0.3240
 2317SOL     OW 9312   2.902   1.515   3.898  0.0548  0.0009  0.3137
 2317SOL    HW2 9313   2.906   1.522   3.993 -0.7087 -1.2133  0.4451
 2317SOL    HW3 9314   2.977   1.566   3.867  0.0244  0.8060  1.5392
 2317SOL    MW4 9315   2.912   1.522   3.906 -0.0498 -0.0532  0.4928
 2318SOL     OW 9316   2.696   1.677   3.770  0.2938  0.0512  0.0821
 2318SOL    HW2 9317   2.768   1.621   3.797 -0.8640 -1.6790 -0.3530
 2318SOL    HW3 9318   2.705   1.684   3.675  0.8679  1.2457  0.2068
 2318SOL    MW4 9319   2.706   1.671   3.761  0.2170 -0.0196  0.0410
 2319SOL     OW 9320   2.729   1.927   3.862 -0.2506  0.0900 -0.2987
 2319SOL    HW2 9321   2.712   1.839   3.829 -1.5023  0.5862 -1.0400
 2319SOL    HW3 9322   2.654   1.978   3.832  0.5699  1.4599 -0.0560
 2319SOL    MW4 9323   2.717   1.922   3.854 -0.3076  0.3363 -0.3645
 2320SOL     OW 9324   2.927   2.078   3.768 -0.0229  0.4131  0.8057
 2320SOL    HW2 9325   2.916   2.168   3.796  0.6167 -0.4320  3.9445
 2320SOL    HW3 9326   2.854   2.031   3.810 -0.9808 -0.3790 -1.6531
 2320SOL    MW4 9327   2.916   2.083   3.777 -0.0648  0.1969  0.8957
 2321SOL     OW 9328   2.895   2.345   3.843  0.4866  0.6144 -0.4201
 2321SOL    HW2 9329   2.902   2.334   3.938 -0.8869 -1.5975 -0.5401
 2321SOL    HW3 9330   2.981   2.378   3.817  1.4795 -0.4512  1.3707
 2321SOL    MW4 9331   2.907   2.348   3.852  0.4365  0.1819 -0.1996
 2322SOL     OW 9332   2.675   2.463   3.746 -0.2001 -0.1737 -0.3830
 2322SOL    HW2 9333   2.665   2.537   3.807 -0.8725  1.2425 -2.1520
 2322SOL    HW3 9334   2.753   2.417   3.776  0.6441  1.6859  0.3285
 2322SOL    MW4 9335   2.684   2.467   3.758 -0.1774  0.2584 -0.5224
 2323SOL     OW 9336   2.709   2.693   3.892  0.1373 -0.3041 -0.0920
 2323SOL    HW2 9337   2.707   2.664   3.983 -0.2018  0.6962  0.2274
 2323SOL    HW3 9338   2.627   2.740   3.880  0.3882 -0.0368 -0.7782
 2323SOL    MW4 9339   2.698   2.695   3.903  0.1259 -0.1369 -0.1404
 2324SOL     OW 9340   2.915   2.835   3.789  0.0075 -0.4928  0.1745
 2324SOL    HW2 9341   2.914   2.917   3.838  0.8792 -1.7295  2.3555
 2324SOL    HW3 9342   2.847   2.781   3.831 -1.2323 -0.5558 -1.8584
 2324SOL    MW4 9343   2.906   2.839   3.801 -0.0412 -0.6642  0.1941
 2325SOL     OW 9344   2.901   3.103   3.907  0.1469 -0.2848  0.3716
 2325SOL    HW2 9345   2.982   3.146   3.882  0.3891  0.1438  1.8622
 2325SOL    HW3 9346   2.835   3.139   3.846  1.0321 -0.5390 -0.7485
 2325SOL    MW4 9347   2.903   3.114   3.895  0.2954 -0.2620  0.4203
 2326SOL     OW 9348   2.701   3.185   3.740 -0.1544  0.0895  0.1044
 2326SOL    HW2 9349   2.706   3.271   3.780 -0.6308  0.9752 -1.7185
 2326SOL    HW3 9350   2.625   3.143   3.782 -0.2329  0.7416  0.6136
 2326SOL    MW4 9351   2.691   3.191   3.751 -0.2277  0.2923 -0.0689
 2327SOL     OW 9352   2.702   3.441   3.852  0.2822 -0.3632  0.1626
 2327SOL    HW2 9353   2.697   3.435   3.948  1.3888 -0.6753  0.2071
 2327SOL    HW3 9354   2.769   3.507   3.836 -0.0847 -0.1207 -0.4123
 2327SOL    MW4 9355   2.710   3.449   3.863  0.3798 -0.3726  0.0927
 2328SOL     OW 9356   2.902   3.632   3.794  0.2757 -0.3790 -0.1584
 2328SOL    HW2 9357   2.971   3.573   3.825  0.5096  0.6156  1.2982
 2328SOL    HW3 9358   2.896   3.615   3.700  0.4653 -2.5626  0.2013
 2328SOL    MW4 9359   2.911   3.622   3.786  0.3314 -0.5357  0.0813
 2329SOL     OW 9360   2.888   3.911   3.853 -0.0357 -0.0928  0.0977
 2329SOL    HW2 9361   2.896   3.904   3.948  0.1666 -0.9486  0.0204
 2329SOL    HW3 9362   2.890   3.820   3.822 -1.4365  0.0977 -0.6179
 2329SOL    MW4 9363   2.889   3.898   3.862 -0.1938 -0.1805 -0.0069
 2330SOL     OW 9364   2.660   4.004   3.787 -0.1869 -0.1540 -0.3230
 2330SOL    HW2 9365   2.659   4.085   3.838 -0.1364 -0.1495 -0.3291
 2330SOL    HW3 9366   2.746   3.966   3.803 -0.2093 -0.2052 -0.3219
 2330SOL    MW4 9367   2.671   4.010   3.796 -0.1833 -0.1602 -0.3238
 2331SOL     OW 9368   2.674   4.261   3.897  0.5110  0.5718  0.1057
 2331SOL    HW2 9369   2.740   4.304   3.842  0.2826  0.6677 -0.0972
 2331SOL    HW3 9370   2.591   4.302   3.871  0.2349 -0.2661 -0.3831
 2331SOL    MW4 9371   2.672   4.272   3.886  0.4444  0.4735  0.0145
 2332SOL     OW 9372   2.880   4.385   3.771  0.2048 -0.1927  0.0188
 2332SOL    HW2 9373   2.950   4.336   3.814 -0.8327 -0.7995  1.0431
 2332SOL    HW3 9374   2.868   4.463   3.825  0.3319  0.0893 -0.3576
 2332SOL    MW4 9375   2.887   4.388   3.784  0.0846 -0.2351  0.1042
 2333SOL     OW 9376   3.354   4.616   3.867  0.0663  0.0635  0.2555
 2333SOL    HW2 9377   3.369   4.609   3.961  1.0259 -1.6875 -0.0096
 2333SOL    HW3 9378   3.431   4.661   3.833  0.6607 -1.1028  0.0478
 2333SOL    MW4 9379   3.366   4.621   3.875  0.2713 -0.3209  0.1931
 2334SOL     OW 9380   3.124   0.087   3.794 -0.0698 -0.6521 -0.2157
 2334SOL    HW2 9381   3.202   0.036   3.818 -0.5343 -0.6830  1.2838
 2334SOL    HW3 9382   3.129   0.095   3.699  1.0682 -1.7815 -0.2626
 2334SOL    MW4 9383   3.135   0.082   3.785  0.0191 -0.8052 -0.0238
 2335SOL     OW 9384   3.138   0.352   3.864  0.1909 -0.2371  0.2744
 2335SOL    HW2 9385   3.184   0.349   3.948  2.7698 -0.5257 -1.1086
 2335SOL    HW3 9386   3.126   0.261   3.840 -1.2384 -0.1718  0.6407
 2335SOL    MW4 9387   3.142   0.340   3.872  0.3426 -0.2666  0.1402
 2336SOL     OW 9388   3.375   0.475   3.763  0.3798  0.1127  0.5046
 2336SOL    HW2 9389   3.445   0.431   3.810  0.4826 -0.8756 -0.5502
 2336SOL    HW3 9390   3.297   0.422   3.782  0.2837  0.1365  0.1802
 2336SOL    MW4 9391   3.374   0.462   3.772  0.3808 -0.0145  0.3226
 2337SOL     OW 9392   3.357   0.737   3.857  0.2882  0.1076 -0.1163
 2337SOL    HW2 9393   3.365   0.734   3.952 -0.9266  0.3931  0.0016
 2337SOL    HW3 9394   3.353   0.645   3.831 -1.7475  0.0306  0.3413
 2337SOL    MW4 9395   3.357   0.724   3.866 -0.1409  0.1351 -0.0405
 2338SOL     OW 9396   3.116   0.889   3.792 -0.5026  0.0065  0.0881
 2338SOL    HW2 9397   3.198   0.846   3.816 -0.5218 -0.1256 -0.0804
 2338SOL    HW3 9398   3.107   0.872   3.699 -0.7828 -0.0857  0.1312
 2338SOL    MW4 9399   3.126   0.881   3.783 -0.5422 -0.0231  0.0720
 2339SOL     OW 9400   3.120   1.162   3.892 -0.2455 -0.2603  0.1834
 2339SOL    HW2 9401   3.131   1.068   3.873 -0.3931 -0.0085 -1.1717
 2339SOL    HW3 9402   3.043   1.187   3.841  0.2419  0.7782 -0.0377
 2339SOL    MW4 9403   3.111   1.153   3.883 -0.2005 -0.0901 -0.0246
 2340SOL     OW 9404   3.358   1.265   3.821 -0.2579 -0.6920  0.3239
 2340SOL    HW2 9405   3.280   1.224   3.858 -1.2240 -0.6670 -1.6028
 2340SOL    HW3 9406   3.339   1.273   3.728  1.8318 -0.1668 -0.0956
 2340SOL    MW4 9407   3.345   1.260   3.813 -0.1097 -0.6194  0.0143
 2341SOL     OW 9408   3.357   1.529   3.908  0.5444  0.0474 -0.2252
 2341SOL    HW2 9409   3.279   1.563   3.863  0.2376 -0.1163  0.1747
 2341SOL    HW3 9410   3.365   1.438   3.878  0.0695 -0.2046  0.3982
 2341SOL    MW4 9411   3.348   1.521   3.898  0.4416 -0.0075 -0.0901
 2342SOL     OW 9412   3.118   1.664   3.792 -0.5944 -0.1515 -0.3677
 2342SOL    HW2 9413   3.120   1.751   3.832 -1.4152  0.1840 -1.0542
 2342SOL    HW3 9414   3.129   1.680   3.699 -0.0939 -0.8373 -0.4256
 2342SOL    MW4 9415   3.120   1.678   3.785 -0.6366 -0.1976 -0.4659
 2343SOL     OW 9416   3.143   1.928   3.879  0.0955 -0.0720  0.9255
 2343SOL    HW2 9417   3.138   1.928   3.974 -0.4631  0.3284  0.9009
 2343SOL    HW3 9418   3.072   1.987   3.851  0.4237  0.0239  0.2773
 2343SOL    MW4 9419   3.133   1.936   3.888  0.0651 -0.0066  0.8368
 2344SOL     OW 9420   3.365   2.047   3.768  0.8708 -0.7331 -0.5761
 2344SOL    HW2 9421   3.298   1.987   3.801  0.6799 -0.5626 -0.6490
 2344SOL    HW3 9422   3.358   2.041   3.673 -0.2166  0.5736 -0.5894
 2344SOL    MW4 9423   3.355   2.038   3.760  0.7024 -0.5383 -0.5872
 2345SOL     OW 9424   3.351   2.294   3.891 -0.0457 -0.8465  0.6791
 2345SOL    HW2 9425   3.276   2.336   3.849  0.9066  0.1597 -0.0552
 2345SOL    HW3 9426   3.348   2.203   3.861 -0.9163 -0.7818  0.5795
 2345SOL    MW4 9427   3.341   2.288   3.881 -0.0348 -0.7052  0.5693
 2346SOL     OW 9428   3.143   2.458   3.789  0.3649 -0.2085  0.0743
 2346SOL    HW2 9429   3.169   2.541   3.828  2.0630 -0.3976 -0.6320
 2346SOL    HW3 9430   3.137   2.475   3.695 -1.7956 -0.2499  0.1849
 2346SOL    MW4 9431   3.146   2.471   3.782  0.3040 -0.2389 -0.0045
 2347SOL     OW 9432   3.109   2.685   3.913 -0.5101  0.5186  0.0382
 2347SOL    HW2 9433   3.101   2.705   4.006  0.4838  0.0482  0.2331
 2347SOL    HW3 9434   3.034   2.729   3.872 -1.2865  0.2368  1.1293
 2347SOL    MW4 9435   3.098   2.693   3.920 -0.4811  0.4191  0.2079
 2348SOL     OW 9436   3.362   2.805   3.832  0.2175  0.1869  0.3201
 2348SOL    HW2 9437   3.282   2.769   3.871  1.2491 -1.1615  1.2022
 2348SOL    HW3 9438   3.340   2.813   3.739 -0.3273 -1.9461  0.2347
 2348SOL    MW4 9439   3.348   2.801   3.825  0.2816 -0.2723  0.4253
 2349SOL     OW 9440   3.350   3.042   3.920  0.0262 -0.6989  0.3072
 2349SOL    HW2 9441   3.416   3.091   3.871 -0.6638 -0.8668 -0.7871
 2349SOL    HW3 9442   3.341   2.959   3.873 -2.4393  0.1301 -0.7267
 2349SOL    MW4 9443   3.358   3.037   3.907 -0.3898 -0.6115  0.0262
 2350SOL     OW 9444   3.148   3.219   3.832 -0.1735 -0.0228  0.3834
 2350SOL    HW2 9445   3.213   3.160   3.868 -0.8349 -0.5515  0.7244
 2350SOL    HW3 9446   3.145   3.197   3.739  0.7765  0.6243  0.1923
 2350SOL    MW4 9447   3.156   3.208   3.824 -0.1354 -0.0072  0.4032
 2351SOL     OW 9448   3.117   3.487   3.900 -0.1302 -0.1188  0.4263
 2351SOL    HW2 9449   3.200   3.525   3.871 -0.7974  2.0421  1.2740
 2351SOL    HW3 9450   3.128   3.393   3.887  1.6328  0.3325 -1.5194
 2351SOL    MW4 9451   3.129   3.479   3.895  0.0141  0.2258  0.2816
 2352SOL     OW 9452   3.367   3.559   3.798  0.7405  0.6203 -0.1368
 2352SOL    HW2 9453   3.366   3.645   3.840  1.0058  0.0818  1.0005
 2352SOL    HW3 9454   3.355   3.577   3.705 -3.4275  1.6530  0.4846
 2352SOL    MW4 9455   3.365   3.573   3.791  0.2258  0.6852  0.0954
 2353SOL     OW 9456   3.342   3.815   3.933 -0.2813  0.1455 -0.3781
 2353SOL    HW2 9457   3.418   3.866   3.906 -0.0003  0.5448  1.0900
 2353SOL    HW3 9458   3.267   3.872   3.917 -0.3676 -0.5923 -2.6780
 2353SOL    MW4 9459   3.342   3.829   3.928 -0.2558  0.1009 -0.4876
 2354SOL     OW 9460   3.154   4.011   3.828 -0.4742  0.1007 -0.2478
 2354SOL    HW2 9461   3.159   4.101   3.862 -1.1308 -0.2261  0.7051
 2354SOL    HW3 9462   3.063   3.986   3.841 -0.4166 -0.5173 -1.0178
 2354SOL    MW4 9463   3.143   4.020   3.834 -0.5531 -0.0238 -0.2236
 2355SOL     OW 9464   3.110   4.287   3.898  0.0226  0.0151 -0.1584
 2355SOL    HW2 9465   3.114   4.280   3.994 -0.6680  0.2835 -0.1080
 2355SOL    HW3 9466   3.194   4.328   3.874  0.5513 -0.8161  0.2525
 2355SOL    MW4 9467   3.122   4.291   3.908  0.0014 -0.0596 -0.0973
 2356SOL     OW 9468   3.365   4.353   3.773 -0.1306 -0.5269  0.3713
 2356SOL    HW2 9469   3.450   4.312   3.791 -0.7507 -1.2846  1.6050
 2356SOL    HW3 9470   3.377   4.445   3.797  0.1392 -0.7716  1.1828
 2356SOL    MW4 9471   3.378   4.360   3.778 -0.1769 -0.6590  0.6411
 2357SOL     OW 9472   3.837   4.638   3.862  0.0280  0.2439  0.2545
 2357SOL    HW2 9473   3.902   4.690   3.816 -1.0828  0.4913 -1.0718
 2357SOL    HW3 9474   3.853   4.548   3.832  0.8840  0.0393  1.2864
 2357SOL    MW4 9475   3.848   4.633   3.852 -0.0055  0.2494  0.2155
 2358SOL     OW 9476   3.590   0.068   3.773 -0.0030 -0.3906 -0.1823
 2358SOL    HW2 9477   3.665   0.021   3.810  0.2306  0.4683  0.4642
 2358SOL    HW3 9478   3.604   0.066   3.678  2.0427  1.6828  0.0235
 2358SOL    MW4 9479   3.602   0.062   3.765  0.2975 -0.0037 -0.0701
 2359SOL     OW 9480   3.595   0.344   3.876  0.1585 -0.3782  0.1394
 2359SOL    HW2 9481   3.668   0.392   3.836  0.4703 -0.7638  0.2403
 2359SOL    HW3 9482   3.599   0.257   3.835 -0.9191 -0.0506 -0.6649
 2359SOL    MW4 9483   3.605   0.339   3.865  0.0572 -0.3858  0.0465
 2360SOL     OW 9484   3.816   0.473   3.780 -0.0733  0.0330  0.5003
 2360SOL    HW2 9485   3.897   0.427   3.801  0.5952  0.8156 -0.2968
 2360SOL    HW3 9486   3.816   0.550   3.837 -0.0717  0.2288  0.2372
 2360SOL    MW4 9487   3.826   0.477   3.790  0.0153  0.1620  0.3603
 2361SOL     OW 9488   3.813   0.730   3.872  0.6128 -0.0210 -0.2678
 2361SOL    HW2 9489   3.891   0.765   3.830 -0.0013  1.3785 -0.2715
 2361SOL    HW3 9490   3.740   0.773   3.827 -0.1302 -0.6223  0.3397
 2361SOL    MW4 9491   3.814   0.740   3.861  0.4337  0.0843 -0.1884
 2362SOL     OW 9492   3.595   0.849   3.753 -0.0587 -0.3319  0.0035
 2362SOL    HW2 9493   3.600   0.938   3.789 -0.0956 -0.2071 -0.3010
 2362SOL    HW3 9494   3.510   0.816   3.783  0.0638 -0.3560  0.3257
 2362SOL    MW4 9495   3.584   0.856   3.762 -0.0474 -0.3186  0.0057
 2363SOL     OW 9496   3.586   1.105   3.854  0.2781 -0.1305  0.1331
 2363SOL    HW2 9497   3.651   1.163   3.814  0.5616 -1.0400 -0.7535
 2363SOL    HW3 9498   3.502   1.150   3.841  0.4035 -0.2738 -1.2694
 2363SOL    MW4 9499   3.583   1.118   3.847  0.3321 -0.2694 -0.1688
 2364SOL     OW 9500   3.789   1.265   3.743 -0.6927  0.1359  0.1397
 2364SOL    HW2 9501   3.858   1.225   3.796 -0.8653 -0.5460 -0.1433
 2364SOL    HW3 9502   3.775   1.351   3.783  0.2062  0.2149  0.2957
 2364SOL    MW4 9503   3.796   1.271   3.755 -0.5970  0.0563  0.1230
 2365SOL     OW 9504   3.799   1.497   3.917 -0.1945 -0.3274 -0.1657
 2365SOL    HW2 9505   3.801   1.491   4.012  1.6135  0.1356 -0.1418
 2365SOL    HW3 9506   3.720   1.548   3.898 -0.2182  0.1469  1.1231
 2365SOL    MW4 9507   3.789   1.503   3.927  0.0410 -0.2037  0.0072
 2366SOL     OW 9508   3.582   1.659   3.833  0.0136  0.0233 -0.5038
 2366SOL    HW2 9509   3.500   1.618   3.859  1.0500 -1.3696  0.6754
 2366SOL    HW3 9510   3.578   1.661   3.737 -1.0429 -0.7873 -0.4883
 2366SOL    MW4 9511   3.571   1.654   3.824  0.0110 -0.2674 -0.3462
 2367SOL     OW 9512   3.596   1.942   3.858 -0.3843 -0.2658  0.4395
 2367SOL    HW2 9513   3.588   1.848   3.842  0.1786 -0.0591 -1.1352
 2367SOL    HW3 9514   3.517   1.980   3.820 -0.3057 -0.0365  0.5037
 2367SOL    MW4 9515   3.585   1.935   3.851 -0.2997 -0.2084  0.2403
 2368SOL     OW 9516   3.843   2.009   3.749  0.5026  0.3012 -0.2380
 2368SOL    HW2 9517   3.915   1.972   3.802  0.2301  1.5368  1.0333
 2368SOL    HW3 9518   3.764   1.978   3.793  0.2736  1.6128  0.2799
 2368SOL    MW4 9519   3.842   2.000   3.762  0.4361  0.6375 -0.0014
 2369SOL     OW 9520   3.837   2.289   3.843  0.1322  0.0635  0.0160
 2369SOL    HW2 9521   3.754   2.329   3.818 -0.1959  0.5162  1.7984
 2369SOL    HW3 9522   3.832   2.200   3.808 -1.2288 -0.0029  0.3487
 2369SOL    MW4 9523   3.826   2.282   3.835 -0.0906  0.1144  0.2949
 2370SOL     OW 9524   3.586   2.417   3.773  0.0708  0.0505  0.2503
 2370SOL    HW2 9525   3.509   2.375   3.811  0.3158  0.3428  1.0993
 2370SOL    HW3 9526   3.565   2.429   3.681 -0.6452 -0.4521  0.3489
 2370SOL    MW4 9527   3.573   2.413   3.766  0.0086  0.0226  0.3755
 2371SOL     OW 9528   3.600   2.660   3.899 -0.3286  0.2931  0.3462
 2371SOL    HW2 9529   3.611   2.577   3.852  0.7003  1.2826 -1.1919
 2371SOL    HW3 9530   3.533   2.707   3.850 -0.0026  0.9051  0.4823
 2371SOL    MW4 9531   3.592   2.655   3.887 -0.1497  0.5043  0.1612
 2372SOL     OW 9532   3.824   2.804   3.807  0.4405  0.2194  0.1250
 2372SOL    HW2 9533   3.904   2.760   3.833  0.2619 -0.1733  0.0180
 2372SOL    HW3 9534   3.754   2.745   3.835  0.2183  0.1731 -0.5195
 2372SOL    MW4 9535   3.825   2.790   3.814  0.3877  0.1614  0.0255
 2373SOL     OW 9536   3.771   3.044   3.934 -0.3984 -0.1259  0.2128
 2373SOL    HW2 9537   3.694   3.086   3.896 -1.4093 -2.6183 -0.6184
 2373SOL    HW3 9538   3.774   2.958   3.893  2.4531 -0.3355  0.7641
 2373SOL    MW4 9539   3.761   3.038   3.924 -0.1557 -0.4823  0.1760
 2374SOL     OW 9540   3.569   3.189   3.803 -0.4395 -0.3809  0.5285
 2374SOL    HW2 9541   3.580   3.280   3.828 -0.4678  0.1349 -1.2499
 2374SOL    HW3 9542   3.601   3.185   3.713 -1.9028 -1.7803  0.0349
 2374SOL    MW4 9543   3.575   3.200   3.794 -0.6363 -0.4976  0.2289
 2375SOL     OW 9544   3.604   3.470   3.879  0.3260  0.3468  0.1116
 2375SOL    HW2 9545   3.585   3.475   3.973 -0.2664 -0.7257  0.0649
 2375SOL    HW3 9546   3.525   3.504   3.837  0.2540  0.0428 -0.0042
 2375SOL    MW4 9547   3.591   3.475   3.886  0.2382  0.1650  0.0904
 2376SOL     OW 9548   3.835   3.580   3.749 -0.3564  0.3477  0.0457
 2376SOL    HW2 9549   3.830   3.664   3.796 -1.6621  1.1771 -1.5240
 2376SOL    HW3 9550   3.755   3.534   3.775 -0.8686  0.6302 -0.9965
 2376SOL    MW4 9551   3.824   3.585   3.759 -0.5963  0.4942 -0.2990
 2377SOL     OW 9552   3.840   3.837   3.858  0.4768 -0.1864  0.1106
 2377SOL    HW2 9553   3.847   3.843   3.953  0.2843  1.7326  0.0344
 2377SOL    HW3 9554   3.912   3.892   3.826 -1.1403  1.4653 -0.8066
 2377SOL    MW4 9555   3.851   3.845   3.866  0.2382  0.2849 -0.0205
 2378SOL     OW 9556   3.595   3.956   3.784 -0.2789 -0.3858  0.3431
 2378SOL    HW2 9557   3.614   4.047   3.805 -1.6497 -0.5897  2.5821
 2378SOL    HW3 9558   3.677   3.910   3.802  0.1501  0.2663  0.0582
 2378SOL    MW4 9559   3.609   3.962   3.789 -0.4032 -0.3264  0.6011
 2379SOL     OW 9560   3.622   4.230   3.852  0.1701 -0.0816  0.4098
 2379SOL    HW2 9561   3.630   4.240   3.947 -1.5023  2.1118  0.3598
 2379SOL    HW3 9562   3.696   4.279   3.816  0.2158 -0.0557  0.5410
 2379SOL    MW4 9563   3.633   4.238   3.860 -0.0443  0.2112  0.4203
 2380SOL     OW 9564   3.837   4.389   3.760 -0.5104 -0.2388 -0.5314
 2380SOL    HW2 9565   3.922   4.358   3.793 -0.2807  1.5765  0.6443
 2380SOL    HW3 9566   3.844   4.380   3.665  1.1578  0.2638 -0.4751
 2380SOL    MW4 9567   3.849   4.383   3.752 -0.2599  0.0668 -0.3688
 2381SOL     OW 9568   4.305   4.615   3.810 -0.2269 -0.0925 -0.4751
 2381SOL    HW2 9569   4.288   4.608   3.904 -2.7316  0.4097 -0.8344
 2381SOL    HW3 9570   4.377   4.677   3.803 -0.2783  0.1648  1.1012
 2381SOL    MW4 9571   4.312   4.622   3.822 -0.5641  0.0076 -0.3147
 2382SOL     OW 9572   4.062   0.104   3.756  0.7354 -0.6949 -0.0724
 2382SOL    HW2 9573   4.133   0.044   3.779  1.4737  0.3964  0.5456
 2382SOL    HW3 9574   4.070   0.116   3.662  1.3720 -0.6013 -0.0121
 2382SOL    MW4 9575   4.073   0.098   3.747  0.9170 -0.5385  0.0172
 2383SOL     OW 9576   4.029   0.344   3.882  0.2724 -0.6886 -0.0121
 2383SOL    HW2 9577   4.030   0.320   3.975  0.6285 -0.7709 -0.0369
 2383SOL    HW3 9578   4.037   0.260   3.836 -0.9745 -0.7550 -0.1374
 2383SOL    MW4 9579   4.030   0.329   3.888  0.1550 -0.7082 -0.0319
 2384SOL     OW 9580   4.259   0.501   3.822  0.2780  0.1962 -0.0105
 2384SOL    HW2 9581   4.180   0.449   3.841 -0.2710  0.8340 -0.5274
 2384SOL    HW3 9582   4.264   0.504   3.727  0.3568  1.0093  0.0147
 2384SOL    MW4 9583   4.249   0.495   3.812  0.2160  0.3876 -0.0753
 2385SOL     OW 9584   4.301   0.768   3.867 -0.0371  0.4337  0.2880
 2385SOL    HW2 9585   4.214   0.809   3.860  0.1662  0.5193 -2.2187
 2385SOL    HW3 9586   4.285   0.675   3.851  0.3410  0.4710 -0.3152
 2385SOL    MW4 9587   4.287   0.761   3.864  0.0396  0.4500 -0.1223
 2386SOL     OW 9588   4.033   0.888   3.801  0.2084 -0.2461 -0.1154
 2386SOL    HW2 9589   4.017   0.974   3.839  2.2755  0.1760 -0.1686
 2386SOL    HW3 9590   4.028   0.902   3.707 -2.5968 -0.8404 -0.1091
 2386SOL    MW4 9591   4.030   0.901   3.794  0.1106 -0.2688 -0.1216
 2387SOL     OW 9592   3.986   1.134   3.892  0.3344 -0.3140 -0.2398
 2387SOL    HW2 9593   3.979   1.152   3.986  0.6013 -0.5148 -0.1798
 2387SOL    HW3 9594   4.076   1.159   3.870 -0.0908  0.8580 -0.6887
 2387SOL    MW4 9595   3.997   1.140   3.901  0.3135 -0.1858 -0.2913
 2388SOL     OW 9596   4.212   1.257   3.808 -0.3567 -0.0760 -0.2321
 2388SOL    HW2 9597   4.193   1.343   3.846 -1.5657 -0.6897  0.5667
 2388SOL    HW3 9598   4.236   1.276   3.717  2.0769  1.3567  0.6625
 2388SOL    MW4 9599   4.213   1.271   3.801 -0.1945  0.0322 -0.0086
 2389SOL     OW 9600   4.235   1.523   3.900 -0.3698  0.1304 -0.2342
 2389SOL    HW2 9601   4.166   1.561   3.846 -1.2485 -1.5500 -0.3190
 2389SOL    HW3 9602   4.315   1.564   3.869 -1.2245  1.4413 -0.7405
 2389SOL    MW4 9603   4.236   1.533   3.889 -0.5984  0.0817 -0.3121
 2390SOL     OW 9604   4.002   1.626   3.779  0.2124  0.1362 -0.0528
 2390SOL    HW2 9605   3.992   1.715   3.813 -2.0708  0.4027 -1.3225
 2390SOL    HW3 9606   3.930   1.578   3.819  0.5282 -0.7668 -0.5732
 2390SOL    MW4 9607   3.991   1.632   3.789 -0.0472  0.0521 -0.2890
 2391SOL     OW 9608   4.031   1.888   3.898  0.1990  0.0083 -0.1167
 2391SOL    HW2 9609   4.026   1.901   3.993  1.0136 -1.4232  0.1432
 2391SOL    HW3 9610   4.118   1.921   3.874 -0.0847  0.5523 -0.3998
 2391SOL    MW4 9611   4.042   1.894   3.907  0.2689 -0.1090 -0.1199
 2392SOL     OW 9612   4.287   2.028   3.802 -0.4333 -0.1210  0.6214
 2392SOL    HW2 9613   4.283   2.119   3.830  0.7931 -0.0680  0.6346
 2392SOL    HW3 9614   4.301   2.031   3.708 -1.9303 -0.3003  0.3898
 2392SOL    MW4 9615   4.288   2.040   3.794 -0.4697 -0.1378  0.5927
 2393SOL     OW 9616   4.258   2.297   3.865  0.1289  0.3252  0.1382
 2393SOL    HW2 9617   4.254   2.319   3.958  1.1913  2.0964 -0.2269
 2393SOL    HW3 9618   4.175   2.328   3.829 -0.7853 -1.4019  0.6863
 2393SOL    MW4 9619   4.246   2.304   3.872  0.1483  0.3312  0.1621
 2394SOL     OW 9620   4.030   2.457   3.754 -0.1431 -0.3789  0.3727
 2394SOL    HW2 9621   4.033   2.531   3.814 -0.4825 -0.5420  0.5885
 2394SOL    HW3 9622   3.974   2.393   3.797 -2.1306  0.3409 -1.0458
 2394SOL    MW4 9623   4.023   2.458   3.767 -0.4501 -0.3052  0.2139
 2395SOL     OW 9624   4.039   2.688   3.918 -0.1403  0.2753 -0.3867
 2395SOL    HW2 9625   4.055   2.712   4.009  0.3586 -0.7834 -0.1895
 2395SOL    HW3 9626   4.090   2.751   3.867  0.7673 -0.0519  0.1087
 2395SOL    MW4 9627   4.048   2.700   3.923  0.0453  0.0923 -0.2954
 2396SOL     OW 9628   4.223   2.826   3.768  0.0612 -0.3772 -0.1716
 2396SOL    HW2 9629   4.230   2.915   3.804 -0.0970 -0.7632  0.8434
 2396SOL    HW3 9630   4.285   2.775   3.819 -0.0958 -0.9231 -0.5289
 2396SOL    MW4 9631   4.232   2.831   3.779  0.0191 -0.5002 -0.0849
 2397SOL     OW 9632   4.251   3.081   3.892  0.0857 -0.0063 -0.0717
 2397SOL    HW2 9633   4.168   3.117   3.860 -0.7070 -0.3661  1.5414
 2397SOL    HW3 9634   4.317   3.141   3.858 -0.8412  0.4168 -1.1892
 2397SOL    MW4 9635   4.248   3.094   3.883 -0.1407  0.0024 -0.0064
 2398SOL     OW 9636   3.996   3.155   3.814  0.6987 -0.2940  0.4572
 2398SOL    HW2 9637   3.921   3.122   3.864  0.6947 -0.9299  0.0415
 2398SOL    HW3 9638   3.964   3.160   3.723  0.1328  2.5492  0.7482
 2398SOL    MW4 9639   3.982   3.152   3.808  0.6235 -0.0026  0.4408
 2399SOL     OW 9640   4.028   3.436   3.896 -0.1864 -0.2833  0.2052
 2399SOL    HW2 9641   4.032   3.343   3.872  0.8485  0.4006 -2.4888
 2399SOL    HW3 9642   3.947   3.468   3.857  0.1985  0.2579 -0.1685
 2399SOL    MW4 9643   4.018   3.428   3.888  0.0010 -0.1216 -0.1996
 2400SOL     OW 9644   4.227   3.623   3.741  0.0447 -0.2941 -0.2413
 2400SOL    HW2 9645   4.146   3.588   3.778 -0.2532  0.1474 -0.4812
 2400SOL    HW3 9646   4.292   3.555   3.758 -0.1347 -0.1789  0.9225
 2400SOL    MW4 9647   4.225   3.609   3.748 -0.0186 -0.2208 -0.1194
 2401SOL     OW 9648   4.262   3.890   3.883  0.0994 -0.1600  0.0521
 2401SOL    HW2 9649   4.180   3.932   3.858  0.6600  1.5024  0.8988
 2401SOL    HW3 9650   4.260   3.804   3.841 -1.6160  0.2604 -0.7397
 2401SOL    MW4 9651   4.251   3.884   3.874 -0.0529  0.1147  0.0594
 2402SOL     OW 9652   4.048   4.000   3.747  0.5642 -0.0725  0.1249
 2402SOL    HW2 9653   4.025   4.091   3.760 -0.7010 -0.3887  0.1714
 2402SOL    HW3 9654   4.073   3.994   3.655  0.8032  0.3514  0.1638
 2402SOL    MW4 9655   4.048   4.011   3.737  0.4292 -0.0587  0.1361
 2403SOL     OW 9656   4.079   4.294   3.877 -0.1166 -0.8107  0.4157
 2403SOL    HW2 9657   4.087   4.278   3.971  0.4158  0.5212  0.6085
 2403SOL    HW3 9658   4.168   4.318   3.849 -0.9054  2.0279  0.2079
 2403SOL    MW4 9659   4.092   4.295   3.886 -0.1502 -0.2599  0.4137
 2404SOL     OW 9660   4.313   4.354   3.756 -0.2091 -0.0433  0.2146
 2404SOL    HW2 9661   4.319   4.449   3.769 -0.8112  0.0753 -0.3489
 2404SOL    HW3 9662   4.385   4.318   3.808  0.1161  0.7364  0.3124
 2404SOL    MW4 9663   4.323   4.362   3.764 -0.2456  0.0753  0.1533
 2405SOL     OW 9664   0.208   4.652   4.206  0.0795 -0.2464 -0.2619
 2405SOL    HW2 9665   0.240   4.567   4.237  0.6016  0.0171 -0.0718
 2405SOL    HW3 9666   0.277   4.714   4.230  0.7163 -0.0993 -2.3684
 2405SOL    MW4 9667   0.221   4.649   4.213  0.2324 -0.1923 -0.5145
 2406SOL     OW 9668   0.030   0.348   4.197  0.0425 -0.0877 -0.1561
 2406SOL    HW2 9669   0.043   0.348   4.103 -1.6143  0.0916 -0.4094
 2406SOL    HW3 9670   0.000   0.259   4.217  0.4153 -0.1343  0.1968
 2406SOL    MW4 9671   0.027   0.336   4.187 -0.1269 -0.0702 -0.1431
 2407SOL     OW 9672   1.585   1.522   4.649  0.3381  0.6528 -0.1194
 2407SOL    HW2 9673   1.577   1.484   4.737 -0.4403 -0.4286 -0.6453
 2407SOL    HW3 9674   1.675   1.501   4.623  0.8250  1.6572  0.7199
 2407SOL    MW4 9675   1.596   1.514   4.657  0.2996  0.6428 -0.0787
 2408SOL     OW 9676   0.251   0.493   4.264 -0.2330 -0.0028  0.0103
 2408SOL    HW2 9677   0.278   0.509   4.354 -1.1750 -0.8160  0.4488
 2408SOL    HW3 9678   0.175   0.436   4.271 -1.0358  0.8568 -1.2513
 2408SOL    MW4 9679   0.245   0.488   4.277 -0.4632  0.0033 -0.0982
 2409SOL     OW 9680   0.253   0.765   4.156 -0.1145  0.0939 -0.1462
 2409SOL    HW2 9681   0.249   0.675   4.189 -1.1381  0.2523  0.1778
 2409SOL    HW3 9682   0.325   0.805   4.205  0.2601 -0.5044 -0.1983
 2409SOL    MW4 9683   0.262   0.759   4.167 -0.2001  0.0359 -0.1101
 2410SOL     OW 9684   2.264   1.795   4.495 -0.0686 -0.2327 -0.1284
 2410SOL    HW2 9685   2.250   1.729   4.427 -0.1712 -2.4394  1.9681
 2410SOL    HW3 9686   2.182   1.796   4.545  0.5643  0.2101  0.9183
 2410SOL    MW4 9687   2.251   1.786   4.492  0.0014 -0.4654  0.2866
 2411SOL     OW 9688   4.473   1.174   4.187  0.1512 -0.0455  0.3553
 2411SOL    HW2 9689   4.483   1.180   4.092 -0.0694 -1.0335  0.2713
 2411SOL    HW3 9690   4.471   1.080   4.205 -0.8783  0.1398  1.2236
 2411SOL    MW4 9691   4.474   1.162   4.177 -0.0134 -0.1514  0.4587
 2412SOL     OW 9692   0.779   0.508   4.502 -0.3202  0.4310  0.2691
 2412SOL    HW2 9693   0.710   0.563   4.539 -0.1047  1.1012 -0.3091
 2412SOL    HW3 9694   0.860   0.558   4.515 -0.1343  0.3013 -0.3533
 2412SOL    MW4 9695   0.781   0.522   4.509 -0.2672  0.5023  0.1106
 2413SOL     OW 9696   3.872   4.132   4.587  0.1669  0.0693  0.1096
 2413SOL    HW2 9697   3.915   4.117   4.671 -1.8066  0.8393  1.2974
 2413SOL    HW3 9698   3.900   4.220   4.561 -0.0554  0.2653  0.5150
 2413SOL    MW4 9699   3.881   4.142   4.594 -0.1230  0.1969  0.3200
 2414SOL     OW 9700   0.158   2.665   4.629 -0.7710  0.0948 -0.0197
 2414SOL    HW2 9701   0.123   2.587   4.586 -0.4908 -0.3633  0.5707
 2414SOL    HW3 9702   0.226   2.631   4.687 -0.7045  0.7720  0.2975
 2414SOL    MW4 9703   0.162   2.650   4.631 -0.7253  0.1237  0.1001
 2415SOL     OW 9704   2.148   2.859   4.493  0.0450  0.0470  0.4462
 2415SOL    HW2 9705   2.151   2.766   4.513 -0.4323  0.1130  0.8618
 2415SOL    HW3 9706   2.231   2.878   4.451 -0.3248 -0.8106 -0.7016
 2415SOL    MW4 9707   2.159   2.849   4.490 -0.0670 -0.0575  0.3500
 2416SOL     OW 9708   0.733   0.033   4.740 -0.0472  0.5595 -0.1942
 2416SOL    HW2 9709   0.790  -0.026   4.691  0.1189  1.5258 -1.1714
 2416SOL    HW3 9710   0.728  -0.006   4.828  1.7913  0.2502 -0.2051
 2416SOL    MW4 9711   0.740   0.020   4.745  0.2173  0.6461 -0.3242
 2417SOL     OW 9712   0.127   3.149   4.647  0.3654  0.1819  0.2751
 2417SOL    HW2 9713   0.075   3.216   4.604 -0.4213 -0.9378 -0.5409
 2417SOL    HW3 9714   0.064   3.097   4.697  0.8477 -0.4290  0.2593
 2417SOL    MW4 9715   0.112   3.151   4.648  0.3252 -0.0467  0.1655
 2418SOL     OW 9716   1.442   2.169   4.543  0.2576  0.0522 -0.2642
 2418SOL    HW2 9717   1.459   2.099   4.606  0.3410 -1.2668 -1.7103
 2418SOL    HW3 9718   1.497   2.147   4.468 -0.5757  1.0526 -1.1830
 2418SOL    MW4 9719   1.451   2.157   4.541  0.1588  0.0100 -0.5765
 2419SOL     OW 9720   4.049   3.268   4.619  0.1783  0.3488 -0.1484
 2419SOL    HW2 9721   4.122   3.258   4.680  0.2207  0.1116 -0.2358
 2419SOL    HW3 9722   4.033   3.362   4.615 -0.1874  0.3162  0.6527
 2419SOL    MW4 9723   4.056   3.279   4.626  0.1359  0.3133 -0.0539
 2420SOL     OW 9724   0.160   1.566   4.171 -0.4453  0.3246 -0.6432
 2420SOL    HW2 9725   0.177   1.477   4.201 -1.5454  0.0895 -0.7028
 2420SOL    HW3 9726   0.234   1.617   4.204  0.0940 -0.5718 -0.4502
 2420SOL    MW4 9727   0.172   1.561   4.179 -0.5193  0.1754 -0.6256
 2421SOL     OW 9728   0.198   3.107   4.176 -0.1942  0.0680 -0.3585
 2421SOL    HW2 9729   0.128   3.147   4.227  0.5064  0.4359  0.3191
 2421SOL    HW3 9730   0.277   3.155   4.202  0.2764 -0.2154 -1.2593
 2421SOL    MW4 9731   0.200   3.119   4.186 -0.0397  0.0792 -0.3881
 2422SOL     OW 9732   4.466   3.230   4.285 -0.4030  0.0865  0.2626
 2422SOL    HW2 9733   4.468   3.281   4.205 -0.3205 -0.6156 -0.1912
 2422SOL    HW3 9734   4.387   3.176   4.277 -0.7540  0.4811  0.9514
 2422SOL    MW4 9735   4.456   3.229   4.274 -0.4382  0.0458  0.2928
 2423SOL     OW 9736   4.478   3.447   4.086 -0.4811 -0.8067  0.0575
 2423SOL    HW2 9737   4.399   3.490   4.120  0.3203  0.7889 -0.0427
 2423SOL    HW3 9738   4.472   3.458   3.991  0.1813 -0.0887  0.0929
 2423SOL    MW4 9739   4.466   3.454   4.078 -0.2880 -0.5016  0.0496
 2424SOL     OW 9740   0.022   3.992   4.229 -0.0407 -0.0546 -0.4930
 2424SOL    HW2 9741   0.101   3.952   4.194 -0.2212 -0.5459 -0.3339
 2424SOL    HW3 9742   0.023   3.972   4.322 -0.0057  0.5211 -0.3643
 2424SOL    MW4 9743   0.032   3.984   4.237 -0.0599 -0.0434 -0.4554
 2425SOL     OW 9744   4.226   1.265   4.231  0.2421 -0.1357  0.1353
 2425SOL    HW2 9745   4.214   1.360   4.218 -0.8646 -0.2696  0.1379
 2425SOL    HW3 9746   4.318   1.250   4.209  0.6264  1.0660  0.8607
 2425SOL    MW4 9747   4.237   1.276   4.226  0.1469  0.0051  0.2313
 2426SOL     OW 9748   1.854   0.591   4.842  0.1085 -0.1006  0.4714
 2426SOL    HW2 9749   1.847   0.499   4.815  1.9159  0.3780 -1.8411
 2426SOL    HW3 9750   1.773   0.631   4.813 -0.1908 -0.7192  0.4465
 2426SOL    MW4 9751   1.843   0.584   4.835  0.3074 -0.1191  0.1626
 2427SOL     OW 9752   3.631   4.657   4.720  0.6580 -0.0220  0.2911
 2427SOL    HW2 9753   3.655   4.653   4.812  0.3513 -0.4618  0.3564
 2427SOL    HW3 9754   3.714   4.653   4.673  0.7835 -0.3453  0.5391
 2427SOL    MW4 9755   3.645   4.656   4.726  0.6340 -0.1228  0.3328
 2428SOL     OW 9756   0.240   3.860   4.115 -0.6037  0.0634  0.3584
 2428SOL    HW2 9757   0.220   3.768   4.133  0.3264 -0.3435 -0.5903
 2428SOL    HW3 9758   0.317   3.879   4.169  0.2135 -0.2163 -0.6787
 2428SOL    MW4 9759   0.248   3.850   4.124 -0.3732 -0.0274  0.0963
 2429SOL     OW 9760   3.973   4.374   4.524  0.4165  0.6301  0.4038
 2429SOL    HW2 9761   3.940   4.376   4.434  1.0236  0.3044  0.1673
 2429SOL    HW3 9762   4.068   4.373   4.515  0.4809 -0.0848  1.0275
 2429SOL    MW4 9763   3.981   4.374   4.511  0.5050  0.4926  0.4549
 2430SOL     OW 9764   0.647   4.661   4.184 -0.3316 -0.3472 -0.2485
 2430SOL    HW2 9765   0.638   4.574   4.221  0.7083 -0.2409  0.2744
 2430SOL    HW3 9766   0.658   4.646   4.090  1.3044 -0.8959  0.0008
 2430SOL    MW4 9767   0.648   4.648   4.176  0.0215 -0.4058 -0.1469
 2431SOL     OW 9768   0.707   1.730   4.584 -0.3239  0.0510  0.6071
 2431SOL    HW2 9769   0.617   1.722   4.555 -0.5119  0.7124  0.9876
 2431SOL    HW3 9770   0.723   1.824   4.588  0.4486 -0.0639  0.3394
 2431SOL    MW4 9771   0.697   1.741   4.581 -0.2468  0.1231  0.6218
 2432SOL     OW 9772   1.386   1.707   4.290 -0.0284  0.4127 -0.7318
 2432SOL    HW2 9773   1.304   1.660   4.276 -0.2589  0.8729 -0.9295
 2432SOL    HW3 9774   1.400   1.704   4.384 -0.0243 -0.0868 -0.7480
 2432SOL    MW4 9775   1.377   1.700   4.301 -0.0582  0.4075 -0.7601
 2433SOL     OW 9776   0.453   0.918   4.291 -0.0871 -0.1527 -0.2904
 2433SOL    HW2 9777   0.529   0.875   4.252 -0.1018 -0.9053  0.4832
 2433SOL    HW3 9778   0.429   0.987   4.229  0.2081 -0.9874 -1.3536
 2433SOL    MW4 9779   0.460   0.921   4.278 -0.0501 -0.3621 -0.3285
 2434SOL     OW 9780   0.915   2.496   4.529  0.3712  0.0390 -0.1059
 2434SOL    HW2 9781   0.854   2.568   4.514  0.6753  0.3739  0.2465
 2434SOL    HW3 9782   0.926   2.454   4.444 -0.1386  0.1470 -0.2240
 2434SOL    MW4 9783   0.908   2.500   4.516  0.3441  0.0973 -0.0749
 2435SOL     OW 9784   2.303   4.305   4.660 -0.0901 -0.1864  0.1982
 2435SOL    HW2 9785   2.229   4.360   4.634 -1.0378 -0.8274  1.4701
 2435SOL    HW3 9786   2.278   4.216   4.633  0.9993 -0.1622 -0.9568
 2435SOL    MW4 9787   2.290   4.300   4.653 -0.0713 -0.2680  0.2136
 2436SOL     OW 9788   0.214   1.306   4.279 -0.5789  0.0257  0.0522
 2436SOL    HW2 9789   0.291   1.257   4.251 -0.2243 -0.6068  2.0691
 2436SOL    HW3 9790   0.140   1.253   4.250 -0.2137 -0.8833  0.7738
 2436SOL    MW4 9791   0.214   1.292   4.271 -0.4839 -0.1776  0.4139
 2437SOL     OW 9792   0.624   1.550   4.172  0.2346  0.6021  0.3240
 2437SOL    HW2 9793   0.552   1.600   4.211  0.0044  0.3354  0.2406
 2437SOL    HW3 9794   0.611   1.561   4.078  0.5391  0.8892  0.3159
 2437SOL    MW4 9795   0.612   1.558   4.165  0.2443  0.6047  0.3123
 2438SOL     OW 9796   4.305   1.189   4.494  0.3434 -0.1670 -0.3887
 2438SOL    HW2 9797   4.245   1.211   4.423  0.1154 -0.4221 -0.2784
 2438SOL    HW3 9798   4.356   1.268   4.508 -1.8531  0.9795  1.3879
 2438SOL    MW4 9799   4.304   1.202   4.486  0.0238 -0.0492 -0.1392
 2439SOL     OW 9800   0.403   1.692   4.247  0.5827  0.2729  0.1687
 2439SOL    HW2 9801   0.396   1.701   4.342  0.3816  0.8771  0.1001
 2439SOL    HW3 9802   0.413   1.781   4.215  0.3437  0.0979 -0.4021
 2439SOL    MW4 9803   0.403   1.705   4.255  0.5246  0.3296  0.0844
 2440SOL     OW 9804   0.880   1.654   4.265  0.0769  0.4535  0.2921
 2440SOL    HW2 9805   0.807   1.610   4.220  0.9804  0.3680 -1.1188
 2440SOL    HW3 9806   0.868   1.632   4.357  0.8235 -3.3384 -0.4184
 2440SOL    MW4 9807   0.869   1.645   4.271  0.2946 -0.0582  0.0119
 2441SOL     OW 9808   0.671   2.315   4.139 -0.6267 -0.3873  0.1606
 2441SOL    HW2 9809   0.685   2.224   4.165  0.2707 -0.1778  0.4270
 2441SOL    HW3 9810   0.676   2.314   4.044  0.2269 -0.4784  0.2048
 2441SOL    MW4 9811   0.673   2.303   4.130 -0.3957 -0.3719  0.2017
 2442SOL     OW 9812   0.211   2.329   4.101 -0.1661  0.4947 -0.2807
 2442SOL    HW2 9813   0.187   2.242   4.134 -0.8379  0.2510 -1.3675
 2442SOL    HW3 9814   0.275   2.362   4.164  0.8568 -1.2096 -0.4139
 2442SOL    MW4 9815   0.216   2.322   4.114 -0.1198  0.2372 -0.4420
 2443SOL     OW 9816   0.426   2.690   4.114  0.6182  0.3592  0.6706
 2443SOL    HW2 9817   0.410   2.681   4.020  1.1088 -0.7947  0.6922
 2443SOL    HW3 9818   0.367   2.760   4.142  1.1122  1.3286 -0.6638
 2443SOL    MW4 9819   0.416   2.698   4.105  0.7481  0.3350  0.4973
 2444SOL     OW 9820   0.666   2.792   4.238 -0.0731  0.3958 -0.3320
 2444SOL    HW2 9821   0.744   2.752   4.200  0.2246 -0.6594  1.3613
 2444SOL    HW3 9822   0.594   2.761   4.184  0.3960 -0.7108 -0.3247
 2444SOL    MW4 9823   0.667   2.783   4.226  0.0281  0.1106 -0.1078
 2445SOL     OW 9824   1.788   2.263   4.815 -0.2849 -0.0369 -0.1462
 2445SOL    HW2 9825   1.693   2.270   4.802 -0.4858 -1.5330  0.4393
 2445SOL    HW3 9826   1.822   2.232   4.732 -0.4305 -0.5019 -0.0308
 2445SOL    MW4 9827   1.780   2.260   4.803 -0.3306 -0.2956 -0.0534
 2446SOL     OW 9828   1.571   2.874   4.275 -0.1497 -0.0140 -0.2821
 2446SOL    HW2 9829   1.648   2.828   4.242 -0.9608  0.1475 -2.4919
 2446SOL    HW3 9830   1.573   2.959   4.230 -0.7757  0.5910  0.8164
 2446SOL    MW4 9831   1.582   2.879   4.264 -0.3393  0.0870 -0.4292
 2447SOL     OW 9832   0.455   3.455   4.107 -0.5261  0.3972 -0.0749
 2447SOL    HW2 9833   0.382   3.511   4.131 -0.1063 -0.3030  3.0052
 2447SOL    HW3 9834   0.461   3.463   4.012 -2.0555  3.5728  0.0420
 2447SOL    MW4 9835   0.447   3.463   4.097 -0.6725  0.7238  0.3471
 2448SOL     OW 9836   0.457   3.942   4.262  0.4296 -0.0726  0.1713
 2448SOL    HW2 9837   0.456   4.028   4.221  0.0479  0.0669  0.4681
 2448SOL    HW3 9838   0.452   3.960   4.356 -0.4316 -0.4317  0.2022
 2448SOL    MW4 9839   0.456   3.956   4.269  0.2657 -0.1018  0.2146
 2449SOL     OW 9840   0.907   3.232   4.239 -0.2850 -0.3274  0.1261
 2449SOL    HW2 9841   0.967   3.195   4.174 -0.5251 -0.3936 -0.0586
 2449SOL    HW3 9842   0.943   3.205   4.323  0.6811  0.7277  0.0678
 2449SOL    MW4 9843   0.920   3.224   4.241 -0.1892 -0.1969  0.0939
 2450SOL     OW 9844   2.403   1.659   4.694  0.2217  0.1719 -0.2671
 2450SOL    HW2 9845   2.364   1.713   4.625  1.7027 -0.4020 -1.5987
 2450SOL    HW3 9846   2.428   1.721   4.763 -0.8970  0.8071 -0.4244
 2450SOL    MW4 9847   2.401   1.674   4.694  0.2697  0.1799 -0.4640
 2451SOL     OW 9848   1.143   4.108   4.626 -0.3307  0.2356 -0.1451
 2451SOL    HW2 9849   1.049   4.090   4.615 -0.3847  0.6716 -0.4100
 2451SOL    HW3 9850   1.186   4.026   4.601 -0.6383  0.0592 -0.1005
 2451SOL    MW4 9851   1.136   4.094   4.621 -0.3785  0.2699 -0.1740
 2452SOL     OW 9852   0.678   4.379   4.246 -0.2386  0.1797 -0.7178
 2452SOL    HW2 9853   0.604   4.335   4.205  0.3781 -1.2072 -0.3775
 2452SOL    HW3 9854   0.683   4.340   4.334 -0.7015  2.1204  0.2146
 2452SOL    MW4 9855   0.669   4.368   4.252 -0.2182  0.2527 -0.5498
 2453SOL     OW 9856   1.120   4.637   4.169  0.2898  0.6126  0.2944
 2453SOL    HW2 9857   1.141   4.636   4.076  0.0317 -0.6139  0.2419
 2453SOL    HW3 9858   1.194   4.684   4.209  1.2659 -0.3381 -0.3386
 2453SOL    MW4 9859   1.133   4.643   4.162  0.3847  0.3257  0.2036
 2454SOL     OW 9860   0.900   0.136   4.241 -0.1291  0.0608 -0.0303
 2454SOL    HW2 9861   0.823   0.080   4.235  0.9832 -1.7287  1.7438
 2454SOL    HW3 9862   0.970   0.086   4.198  0.5982  0.5929  0.5206
 2454SOL    MW4 9863   0.899   0.122   4.234  0.1136 -0.1051  0.2770
 2455SOL     OW 9864   0.932   0.404   4.151  0.4122 -0.0854 -0.2471
 2455SOL    HW2 9865   0.863   0.462   4.185 -0.0268  0.9922 -2.8212
 2455SOL    HW3 9866   0.913   0.319   4.189 -1.0491  0.6993  0.8260
 2455SOL    MW4 9867   0.920   0.401   4.160  0.1616  0.1602 -0.4458
 2456SOL     OW 9868   0.897   4.543   4.602 -0.8300  0.0714 -0.1906
 2456SOL    HW2 9869   0.943   4.621   4.570  0.2670 -0.8245 -0.8554
 2456SOL    HW3 9870   0.967   4.478   4.614 -1.6810 -0.6667  0.7786
 2456SOL    MW4 9871   0.913   4.545   4.599 -0.7976 -0.1440 -0.1502
 2457SOL     OW 9872   3.788   0.870   4.622  0.1243  0.6360  0.4956
 2457SOL    HW2 9873   3.705   0.823   4.611  0.3646  0.0714  1.0809
 2457SOL    HW3 9874   3.766   0.961   4.605 -0.3127  0.2953 -0.8349
 2457SOL    MW4 9875   3.774   0.875   4.618  0.0982  0.5165  0.3972
 2458SOL     OW 9876   4.089   0.856   4.268  0.1446  0.1721  0.2860
 2458SOL    HW2 9877   4.020   0.803   4.229  0.5624  1.3749 -2.1686
 2458SOL    HW3 9878   4.170   0.823   4.230  0.6726  0.6739  0.9500
 2458SOL    MW4 9879   4.090   0.845   4.258  0.2694  0.3970  0.0501
 2459SOL     OW 9880   0.886   1.207   4.111  0.2179 -0.2934 -0.4393
 2459SOL    HW2 9881   0.899   1.118   4.145  1.1549  0.0545  0.1570
 2459SOL    HW3 9882   0.804   1.236   4.152 -0.8880 -1.4148 -1.8143
 2459SOL    MW4 9883   0.877   1.199   4.121  0.1956 -0.3954 -0.5417
 2460SOL     OW 9884   1.144   1.304   4.238 -0.2793  0.1281  0.2216
 2460SOL    HW2 9885   1.150   1.323   4.332  0.7402 -1.1906  0.4471
 2460SOL    HW3 9886   1.053   1.281   4.224 -0.0716 -1.3519  1.2298
 2460SOL    MW4 9887   1.133   1.304   4.249 -0.1175 -0.2412  0.3843
 2461SOL     OW 9888   1.146   1.597   4.191  0.1547  0.1326  0.0351
 2461SOL    HW2 9889   1.060   1.628   4.222  0.0850 -0.0418  0.0191
 2461SOL    HW3 9890   1.138   1.501   4.193  0.1718  0.1216 -0.4632
 2461SOL    MW4 9891   1.133   1.588   4.195  0.1477  0.1081 -0.0329
 2462SOL     OW 9892   0.895   1.920   4.174  0.6146  0.0770  0.2945
 2462SOL    HW2 9893   0.901   1.918   4.079 -2.8683  0.2006  0.0103
 2462SOL    HW3 9894   0.876   1.829   4.199  1.0095  0.1347  0.8121
 2462SOL    MW4 9895   0.893   1.908   4.165  0.2071  0.1009  0.3252
 2463SOL     OW 9896   0.663   2.063   4.254  0.4412 -0.3272  0.2010
 2463SOL    HW2 9897   0.744   2.019   4.228 -0.3552 -1.4752 -0.3632
 2463SOL    HW3 9898   0.683   2.101   4.339  2.0456  0.6692 -0.5715
 2463SOL    MW4 9899   0.676   2.062   4.261  0.5478 -0.3476  0.0243
 2464SOL     OW 9900   1.114   2.326   4.158  0.1907 -0.0984 -0.0862
 2464SOL    HW2 9901   1.195   2.371   4.179 -0.1278 -0.1151  1.2238
 2464SOL    HW3 9902   1.119   2.243   4.206 -0.7837  0.0877  0.3552
 2464SOL    MW4 9903   1.125   2.321   4.167  0.0203 -0.0761  0.1445
 2465SOL     OW 9904   1.324   2.456   4.289  0.1743 -0.3652  0.3541
 2465SOL    HW2 9905   1.415   2.427   4.278  0.4638  0.2443  1.1026
 2465SOL    HW3 9906   1.319   2.538   4.239 -0.1504 -0.7431 -0.2426
 2465SOL    MW4 9907   1.335   2.463   4.281  0.1696 -0.3350  0.3743
 2466SOL     OW 9908   3.122   0.858   4.235 -0.2438  0.3818 -0.1317
 2466SOL    HW2 9909   3.141   0.849   4.329 -1.6453 -0.7280  0.0585
 2466SOL    HW3 9910   3.116   0.953   4.221  0.7828  0.5822  0.7298
 2466SOL    MW4 9911   3.124   0.870   4.246 -0.2933  0.2618  0.0076
 2467SOL     OW 9912   0.908   2.688   4.156  0.1960  0.3884 -0.0106
 2467SOL    HW2 9913   0.891   2.608   4.206  2.1901 -0.4144 -0.5520
 2467SOL    HW3 9914   0.973   2.735   4.208  0.6319  0.6103 -0.7454
 2467SOL    MW4 9915   0.914   2.683   4.169  0.5165  0.3119 -0.1793
 2468SOL     OW 9916   1.395   3.466   4.573  0.2174 -0.5359 -0.3407
 2468SOL    HW2 9917   1.324   3.527   4.554 -1.1734 -2.0892 -0.2331
 2468SOL    HW3 9918   1.474   3.520   4.575 -0.8618  1.0846 -1.2210
 2468SOL    MW4 9919   1.396   3.481   4.571 -0.1085 -0.5269 -0.4425
 2469SOL     OW 9920   1.104   3.047   4.137  0.0970 -0.1157  0.1198
 2469SOL    HW2 9921   1.171   3.099   4.181  0.3212 -0.3381  0.0442
 2469SOL    HW3 9922   1.108   3.075   4.046  1.4124 -1.4908 -0.2674
 2469SOL    MW4 9923   1.113   3.057   4.131  0.3003 -0.3264  0.0587
 2470SOL     OW 9924   0.661   3.074   4.169  0.4642 -0.1411  0.4265
 2470SOL    HW2 9925   0.741   3.116   4.203  1.8334 -2.6272  0.3697
 2470SOL    HW3 9926   0.674   2.981   4.185 -0.6200 -1.0284 -3.2654
 2470SOL    MW4 9927   0.673   3.067   4.175  0.5019 -0.5863 -0.0682
 2471SOL     OW 9928   0.910   3.497   4.123  0.7683 -0.0224 -0.2960
 2471SOL    HW2 9929   0.930   3.404   4.138  0.3111 -0.0173  0.3475
 2471SOL    HW3 9930   0.907   3.505   4.028  0.8087 -0.6685 -0.3553
 2471SOL    MW4 9931   0.912   3.486   4.112  0.7133 -0.1068 -0.2189
 2472SOL     OW 9932   1.131   3.621   4.246 -0.0655  0.0257 -0.2380
 2472SOL    HW2 9933   1.054   3.573   4.216  0.0891 -0.1209 -0.4017
 2472SOL    HW3 9934   1.124   3.618   4.341  0.9639 -2.0160 -0.1966
 2472SOL    MW4 9935   1.120   3.614   4.255  0.0907 -0.2630 -0.2542
 2473SOL     OW 9936   1.161   3.877   4.130 -0.3409  0.4474  0.4413
 2473SOL    HW2 9937   1.084   3.906   4.179  2.0219  1.2464  3.9220
 2473SOL    HW3 9938   1.174   3.787   4.158  0.1854  0.4357  0.1580
 2473SOL    MW4 9939   1.153   3.869   4.140  0.0403  0.5512  0.8636
 2474SOL     OW 9940   1.855   4.495   4.663  0.4825 -0.0013  0.2638
 2474SOL    HW2 9941   1.887   4.440   4.734 -0.2773 -0.3111  0.3707
 2474SOL    HW3 9942   1.920   4.485   4.594  1.0508  0.0383  0.7847
 2474SOL    MW4 9943   1.867   4.486   4.663  0.4572 -0.0372  0.3467
 2475SOL     OW 9944   1.135   4.390   4.301  0.0650 -0.0209 -0.3027
 2475SOL    HW2 9945   1.214   4.347   4.268 -0.9783 -1.4566 -0.9876
 2475SOL    HW3 9946   1.137   4.477   4.263  1.7637  0.2776  0.3841
 2475SOL    MW4 9947   1.146   4.396   4.292  0.1515 -0.1712 -0.3028
 2476SOL     OW 9948   0.893   4.247   4.159  0.0064 -0.2847  0.3090
 2476SOL    HW2 9949   0.809   4.292   4.172  0.0611  0.0744 -0.5037
 2476SOL    HW3 9950   0.958   4.306   4.196  0.0917  0.3951 -0.8727
 2476SOL    MW4 9951   0.890   4.261   4.165  0.0249 -0.1478  0.0463
 2477SOL     OW 9952   2.876   3.114   4.690  0.4498 -0.4201  0.3899
 2477SOL    HW2 9953   2.938   3.182   4.661  0.8657 -1.0112 -0.1077
 2477SOL    HW3 9954   2.792   3.142   4.654  0.5278  0.0926  0.5951
 2477SOL    MW4 9955   2.873   3.127   4.681  0.5150 -0.4306  0.3510
 2478SOL     OW 9956   1.102   2.065   4.258  0.0753 -0.1154 -0.0757
 2478SOL    HW2 9957   1.034   2.006   4.224 -1.1461  0.4075  1.4006
 2478SOL    HW3 9958   1.102   2.049   4.352 -0.7859  2.7503  0.4580
 2478SOL    MW4 9959   1.093   2.055   4.266 -0.1996  0.3316  0.1893
 2479SOL     OW 9960   2.955   3.516   4.528 -0.2119 -0.4539  0.1969
 2479SOL    HW2 9961   3.007   3.586   4.569 -0.5507 -0.7693  1.1828
 2479SOL    HW3 9962   3.000   3.436   4.552  0.7595 -0.5319 -1.7925
 2479SOL    MW4 9963   2.968   3.515   4.537 -0.1285 -0.5057  0.0644
 2480SOL     OW 9964   3.557   3.172   4.553  0.4574  0.2121  0.4928
 2480SOL    HW2 9965   3.562   3.209   4.465 -0.4118 -1.0039 -0.0909
 2480SOL    HW3 9966   3.538   3.079   4.538  1.5489 -0.2544  1.9410
 2480SOL    MW4 9967   3.555   3.165   4.539  0.4866 -0.0098  0.6065
 2481SOL     OW 9968   1.534   0.702   3.957  0.7534 -0.7279 -0.4378
 2481SOL    HW2 9969   1.620   0.739   3.936  0.4459  0.3945  0.1909
 2481SOL    HW3 9970   1.472   0.758   3.909  0.3799 -1.5676 -0.9368
 2481SOL    MW4 9971   1.537   0.715   3.948  0.6635 -0.6906 -0.4208
 2482SOL     OW 9972   1.129   4.387   4.574 -0.6032  0.2390 -0.2507
 2482SOL    HW2 9973   1.129   4.398   4.479 -2.0782  0.8284 -0.1919
 2482SOL    HW3 9974   1.154   4.296   4.587 -0.1769  0.2147 -1.1976
 2482SOL    MW4 9975   1.132   4.376   4.563 -0.7416  0.3133 -0.3681
 2483SOL     OW 9976   1.563   0.749   4.228 -0.0629 -0.3970  0.6103
 2483SOL    HW2 9977   1.648   0.791   4.240 -0.2514 -0.0116  0.6322
 2483SOL    HW3 9978   1.551   0.746   4.133 -0.2206 -0.0445  0.6174
 2483SOL    MW4 9979   1.573   0.754   4.217 -0.1086 -0.2996  0.6137
 2484SOL     OW 9980   1.562   1.284   4.304  0.0305 -0.0017  0.2105
 2484SOL    HW2 9981   1.530   1.309   4.390 -0.3082  1.0235 -0.2032
 2484SOL    HW3 9982   1.496   1.223   4.270  0.0733 -0.2614  0.5969
 2484SOL    MW4 9983   1.549   1.279   4.311 -0.0086  0.0994  0.2069
 2485SOL     OW 9984   1.044   1.177   4.656 -0.2381  0.2146  0.0842
 2485SOL    HW2 9985   1.014   1.106   4.599 -0.7941  0.5061  0.0106
 2485SOL    HW3 9986   0.964   1.223   4.681 -0.1436 -0.6767  2.1397
 2485SOL    MW4 9987   1.030   1.174   4.652 -0.2990  0.1353  0.3457
 2486SOL     OW 9988   1.816   1.631   4.285  0.5089 -0.0431  0.0027
 2486SOL    HW2 9989   1.794   1.607   4.374 -1.1799 -1.3040 -0.7374
 2486SOL    HW3 9990   1.744   1.598   4.232  2.2285 -0.7228 -2.0177
 2486SOL    MW4 9991   1.804   1.623   4.290  0.5130 -0.2991 -0.3619
 2487SOL     OW 9992   1.338   1.952   4.163 -0.1494  0.0746  0.0594
 2487SOL    HW2 9993   1.253   1.983   4.194 -0.0690  1.3522 -1.0143
 2487SOL    HW3 9994   1.349   1.867   4.208 -0.6589  1.2300  2.4735
 2487SOL    MW4 9995   1.328   1.945   4.173 -0.2060  0.3958  0.2360
 2488SOL     OW 9996   2.218   3.659   4.699 -0.3581 -0.2170  0.4249
 2488SOL    HW2 9997   2.224   3.580   4.753  0.6828  1.1644  2.3954
 2488SOL    HW3 9998   2.253   3.632   4.614 -0.3042 -1.9535  0.9705
 2488SOL    MW4 9999   2.224   3.645   4.695 -0.2139 -0.2637  0.7567
 2489SOL     OW10000   1.793   2.484   4.257  0.0369  0.0077 -0.3483
 2489SOL    HW210001   1.714   2.435   4.236 -0.1973 -0.1628  0.8694
 2489SOL    HW310002   1.787   2.501   4.351  2.2915 -1.5549  0.1309
 2489SOL    MW410003   1.782   2.480   4.267  0.3035 -0.2210 -0.1240
 2490SOL     OW10004   1.572   2.352   4.178  0.6099 -0.2079 -0.6623
 2490SOL    HW210005   1.589   2.370   4.086 -1.1567 -1.3639 -1.2351
 2490SOL    HW310006   1.576   2.257   4.186 -0.7569 -0.2165  0.1292
 2490SOL    MW410007   1.574   2.342   4.167  0.1966 -0.3614 -0.6337
 2491SOL     OW10008   1.110   2.830   4.293  0.1374 -0.7427 -0.0608
 2491SOL    HW210009   1.102   2.911   4.242  1.1764 -0.0610  0.8300
 2491SOL    HW310010   1.093   2.857   4.383  1.7131 -1.2717  0.4174
 2491SOL    MW410011   1.107   2.844   4.298  0.4823 -0.7224  0.1197
 2492SOL     OW10012   1.768   2.730   4.151  0.2074 -0.1529 -0.2146
 2492SOL    HW210013   1.832   2.785   4.196 -0.6840  2.4968 -2.0582
 2492SOL    HW310014   1.774   2.645   4.195  2.2168  1.1583  2.1702
 2492SOL    MW410015   1.777   2.726   4.163  0.3549  0.3695 -0.1426
 2493SOL     OW10016   1.559   3.117   4.142 -0.0727 -0.3604 -0.1624
 2493SOL    HW210017   1.631   3.168   4.179  0.1098 -0.7875  0.0754
 2493SOL    HW310018   1.480   3.155   4.183  0.0510 -0.1899 -0.0794
 2493SOL    MW410019   1.558   3.129   4.152 -0.0323 -0.3941 -0.1202
 2494SOL     OW10020   1.308   3.203   4.237 -0.0512  0.3185 -0.5237
 2494SOL    HW210021   1.296   3.293   4.205 -0.2123  0.6311  0.3988
 2494SOL    HW310022   1.345   3.213   4.324  0.2838 -0.5271 -0.5634
 2494SOL    MW410023   1.311   3.216   4.244 -0.0283  0.2480 -0.4072
 2495SOL     OW10024   1.592   3.858   4.114 -0.2424 -0.0127  0.0612
 2495SOL    HW210025   1.535   3.919   4.160 -0.1811  0.2900 -0.2564
 2495SOL    HW310026   1.580   3.774   4.158 -0.1335  0.2898  0.6623
 2495SOL    MW410027   1.583   3.855   4.126 -0.2198  0.0672  0.0987
 2496SOL     OW10028   0.425   0.004   4.579  0.5013  0.2472  0.2458
 2496SOL    HW210029   0.506   0.010   4.630  1.1566 -0.2668 -0.7142
 2496SOL    HW310030   0.451   0.032   4.491 -0.6722  1.3846  0.2490
 2496SOL    MW410031   0.439   0.009   4.574  0.4329  0.3294  0.1197
 2497SOL     OW10032   1.387   4.001   4.231  0.0139 -0.3066  0.4010
 2497SOL    HW210033   1.389   4.091   4.197 -2.0217 -0.2675  0.3238
 2497SOL    HW310034   1.306   3.964   4.195 -0.9043 -1.0869  3.1144
 2497SOL    MW410035   1.376   4.008   4.222 -0.3757 -0.4044  0.7491
 2498SOL     OW10036   2.098   4.474   4.547 -0.2118 -0.4121 -0.2018
 2498SOL    HW210037   2.142   4.558   4.540 -1.2742  0.1678  0.0202
 2498SOL    HW310038   2.081   4.447   4.457 -1.4840  0.4698 -0.2340
 2498SOL    MW410039   2.102   4.481   4.535 -0.5198 -0.2193 -0.1769
 2499SOL     OW10040   1.378   4.287   4.173  0.2173 -0.1990  0.1242
 2499SOL    HW210041   1.363   4.278   4.078 -0.0448  0.6142  0.0816
 2499SOL    HW310042   1.464   4.330   4.179  1.0151 -1.7659  0.2996
 2499SOL    MW410043   1.388   4.292   4.161  0.2880 -0.2985  0.1421
 2500SOL     OW10044   1.580   4.657   4.184 -0.3222 -0.4180  0.3478
 2500SOL    HW210045   1.648   4.691   4.241  0.2227 -1.5338  0.3810
 2500SOL    HW310046   1.592   4.562   4.186 -0.7820 -0.5163 -1.0086
 2500SOL    MW410047   1.591   4.649   4.192 -0.3110 -0.5784  0.1736
 2501SOL     OW10048   1.987   4.661   4.181 -0.1123 -0.3450  0.2237
 2501SOL    HW210049   1.981   4.672   4.086 -1.0558  2.2829  0.5540
 2501SOL    HW310050   1.909   4.703   4.215  0.1061 -1.4826  2.1835
 2501SOL    MW410051   1.976   4.668   4.173 -0.2079 -0.1488  0.5255
 2502SOL     OW10052   3.361   3.340   4.683  0.1596 -0.2688 -0.7966
 2502SOL    HW210053   3.425   3.284   4.638  1.5999  1.5720 -1.1321
 2502SOL    HW310054   3.359   3.306   4.772  3.2438  0.9178 -0.2041
 2502SOL    MW410055   3.369   3.328   4.689  0.7565  0.1307 -0.7625
 2503SOL     OW10056   1.624   4.393   4.226 -0.4061  0.1031 -0.1654
 2503SOL    HW210057   1.638   4.388   4.321 -1.8634  0.5207  0.0832
 2503SOL    HW310058   1.701   4.350   4.189  0.3207  0.1769  1.1956
 2503SOL    MW410059   1.636   4.387   4.234 -0.5027  0.1678  0.0467
 2504SOL     OW10060   1.795   0.365   4.206  0.0474 -0.1050  0.4659
 2504SOL    HW210061   1.727   0.417   4.249 -0.8355  0.4556 -1.5849
 2504SOL    HW310062   1.873   0.421   4.208 -0.4776  0.6560 -0.3097
 2504SOL    MW410063   1.796   0.379   4.212 -0.1384  0.0694  0.0930
 2505SOL     OW10064   2.014   0.773   4.120  0.1090 -0.2915  0.4559
 2505SOL    HW210065   2.091   0.802   4.170  0.1602 -0.1183  0.2751
 2505SOL    HW310066   2.006   0.679   4.140 -0.3215 -0.0585  1.3961
 2505SOL    MW410067   2.023   0.764   4.129  0.0589 -0.2379  0.5560
 2506SOL     OW10068   1.795   0.896   4.282 -0.2284  0.0852  0.1172
 2506SOL    HW210069   1.862   0.864   4.221 -0.8347 -0.6146 -0.1848
 2506SOL    HW310070   1.815   0.851   4.364 -0.0453  0.2225  0.1469
 2506SOL    MW410071   1.807   0.885   4.285 -0.2842  0.0110  0.0815
 2507SOL     OW10072   1.783   1.160   4.184 -0.1005 -0.1055  0.0117
 2507SOL    HW210073   1.711   1.205   4.227 -1.3300 -0.4407 -1.6434
 2507SOL    HW310074   1.785   1.073   4.225 -0.4655 -0.0067  0.2385
 2507SOL    MW410075   1.774   1.154   4.195 -0.3109 -0.1366 -0.1769
 2508SOL     OW10076   0.464   4.234   4.608 -0.1713  0.0939  1.1081
 2508SOL    HW210077   0.468   4.139   4.597  1.3544  0.0712  1.6893
 2508SOL    HW310078   0.552   4.264   4.584 -0.7623  1.3968  0.5577
 2508SOL    MW410079   0.476   4.225   4.604 -0.0480  0.2632  1.1129
 2509SOL     OW10080   2.034   1.480   4.175  0.5046  0.5195  0.1391
 2509SOL    HW210081   1.970   1.541   4.212  0.9885  0.8787  0.3948
 2509SOL    HW310082   2.033   1.499   4.081  0.3450  0.6288  0.1620
 2509SOL    MW410083   2.026   1.491   4.167  0.5472  0.5814  0.1755
 2510SOL     OW10084   3.197   4.207   4.663 -0.1208  0.0030  0.1712
 2510SOL    HW210085   3.165   4.126   4.625  1.3521 -0.1359 -0.8274
 2510SOL    HW310086   3.244   4.180   4.742 -0.9356  0.0449  0.6798
 2510SOL    MW410087   3.199   4.193   4.669 -0.0339 -0.0091  0.1059
 2511SOL     OW10088   1.148   1.762   4.573  0.0345  0.4382 -0.4716
 2511SOL    HW210089   1.151   1.855   4.550  1.0594  1.2458  2.7320
 2511SOL    HW310090   1.238   1.740   4.596 -0.0805 -1.5440 -1.8199
 2511SOL    MW410091   1.160   1.771   4.573  0.1544  0.2831 -0.2270
 2512SOL     OW10092   0.591   3.182   4.672 -0.5110 -0.5680  0.5941
 2512SOL    HW210093   0.515   3.227   4.636 -0.7238 -0.1289  1.5793
 2512SOL    HW310094   0.573   3.089   4.658 -1.6021 -0.5051  1.5535
 2512SOL    MW410095   0.578   3.176   4.665 -0.6830 -0.5016  0.8507
 2513SOL     OW10096   2.686   1.088   4.608  0.3968 -0.0656  0.2318
 2513SOL    HW210097   2.597   1.101   4.577  0.4051  1.2137  0.7097
 2513SOL    HW310098   2.677   1.071   4.702  0.6914  0.8431  0.4363
 2513SOL    MW410099   2.673   1.088   4.617  0.4365  0.2232  0.3214
 2514SOL     OW10100   2.662   0.332   4.184  0.1941  0.0989  0.2756
 2514SOL    HW210101   2.609   0.403   4.220  0.0774 -0.0145  0.3261
 2514SOL    HW310102   2.660   0.347   4.089  1.0439  0.7800  0.3523
 2514SOL    MW410103   2.655   0.344   4.176  0.2911  0.1738  0.2923
 2515SOL     OW10104   1.343   2.704   4.182 -0.0196 -0.3304 -0.0230
 2515SOL    HW210105   1.270   2.752   4.221  0.2628 -0.0829  0.2089
 2515SOL    HW310106   1.420   2.735   4.230  0.3453  0.0400 -0.8293
 2515SOL    MW410107   1.344   2.715   4.193  0.0659 -0.2489 -0.0987
 2516SOL     OW10108   2.461   2.022   4.217  0.1160 -0.3433 -0.1922
 2516SOL    HW210109   2.468   2.118   4.215  1.0139 -0.4211 -1.2471
 2516SOL    HW310110   2.470   1.999   4.309  0.7503  0.5321 -0.0299
 2516SOL    MW410111   2.463   2.032   4.229  0.3181 -0.2377 -0.3099
 2517SOL     OW10112   2.003   3.109   4.123  0.1181  0.3104  0.0440
 2517SOL    HW210113   2.083   3.150   4.155 -0.2870  0.5841  0.7130
 2517SOL    HW310114   2.012   3.110   4.028  1.1650 -0.1717  0.1255
 2517SOL    MW410115   2.015   3.114   4.115  0.2029  0.2828  0.1426
 2518SOL     OW10116   1.781   3.244   4.264  0.1855  0.0150 -0.0745
 2518SOL    HW210117   1.778   3.326   4.214 -1.6476  0.0219  0.0011
 2518SOL    HW310118   1.854   3.195   4.226 -1.1795  0.0131 -2.8276
 2518SOL    MW410119   1.790   3.248   4.252 -0.2364  0.0160 -0.4277
 2519SOL     OW10120   1.789   3.483   4.119  0.1245 -0.2592 -0.4010
 2519SOL    HW210121   1.861   3.530   4.161  0.6445 -1.2006 -0.2310
 2519SOL    HW310122   1.806   3.493   4.025  0.9325 -1.1654 -0.3595
 2519SOL    MW410123   1.801   3.491   4.112  0.2998 -0.5031 -0.3738
 2520SOL     OW10124   1.348   1.136   4.178 -0.1994 -0.1579 -0.2115
 2520SOL    HW210125   1.275   1.195   4.199  0.8398  0.9635  0.3226
 2520SOL    HW310126   1.338   1.118   4.085  0.0005  1.6257 -0.6019
 2520SOL    MW410127   1.337   1.141   4.169 -0.0360  0.2253 -0.1922
 2521SOL     OW10128   2.004   3.648   4.238 -0.2632  0.5836 -0.0814
 2521SOL    HW210129   2.002   3.743   4.226 -0.1329  0.7612  1.2641
 2521SOL    HW310130   1.966   3.634   4.324 -1.6471 -0.7067 -0.8859
 2521SOL    MW410131   1.999   3.659   4.248 -0.4287  0.4368 -0.0105
 2522SOL     OW10132   1.774   4.003   4.236  0.1000  0.4346  0.0383
 2522SOL    HW210133   1.742   4.004   4.326  0.8211  0.8629  0.2876
 2522SOL    HW310134   1.731   3.927   4.197  0.8698 -0.5668  1.1221
 2522SOL    MW410135   1.764   3.993   4.243  0.2967  0.3591  0.2141
 2523SOL     OW10136   1.813   1.211   4.770  0.0061 -0.1442 -0.0692
 2523SOL    HW210137   1.755   1.250   4.836  0.4781 -0.8868  0.7921
 2523SOL    HW310138   1.754   1.158   4.715 -0.1190 -1.0351  0.9100
 2523SOL    MW410139   1.797   1.209   4.771  0.0519 -0.3598  0.1731
 2524SOL     OW10140   2.209   3.323   4.477 -0.0490  0.1696  0.3272
 2524SOL    HW210141   2.274   3.393   4.468 -1.2352  1.0814 -1.6004
 2524SOL    HW310142   2.126   3.369   4.490 -0.9174 -0.8228 -1.4686
 2524SOL    MW410143   2.207   3.339   4.477 -0.3202  0.1590 -0.1640
 2525SOL     OW10144   4.414   1.446   4.540  0.1437 -0.0997 -0.6309
 2525SOL    HW210145   4.498   1.407   4.564  0.5686  0.9292 -0.4141
 2525SOL    HW310146   4.437   1.510   4.472 -0.4517  0.2678 -0.4846
 2525SOL    MW410147   4.428   1.450   4.534  0.1211  0.0844 -0.5832
 2526SOL     OW10148   1.278   0.095   4.525 -0.4430  0.1195  0.3098
 2526SOL    HW210149   1.303   0.107   4.434 -0.2193  0.9986  0.4857
 2526SOL    HW310150   1.183   0.099   4.525 -0.4999 -1.0695 -0.0510
 2526SOL    MW410151   1.269   0.097   4.513 -0.4209  0.0786  0.2856
 2527SOL     OW10152   2.255   0.397   4.186 -0.2116 -0.2122 -0.4120
 2527SOL    HW210153   2.256   0.309   4.222 -2.2473 -0.4501 -0.8525
 2527SOL    HW310154   2.255   0.386   4.091 -1.9962  0.1833 -0.4832
 2527SOL    MW410155   2.255   0.384   4.178 -0.7160 -0.1914 -0.4797
 2528SOL     OW10156   2.245   0.896   4.237 -0.5892  0.2294 -0.1377
 2528SOL    HW210157   2.227   0.906   4.331 -1.4413  1.6832 -0.4363
 2528SOL    HW310158   2.249   0.986   4.204 -1.4975 -0.2842 -1.7149
 2528SOL    MW410159   2.243   0.909   4.245 -0.8216  0.3535 -0.3853
 2529SOL     OW10160   2.473   0.777   4.159 -0.4049 -0.3330 -0.3851
 2529SOL    HW210161   2.462   0.796   4.066  0.4945  0.4996 -0.3309
 2529SOL    HW310162   2.402   0.826   4.202 -0.4070 -0.1639 -0.5790
 2529SOL    MW410163   2.462   0.786   4.152 -0.2866 -0.2009 -0.4034
 2530SOL     OW10164   2.939   0.430   4.216 -0.0434 -0.3265 -0.7750
 2530SOL    HW210165   2.857   0.393   4.186  0.0330 -1.2933  0.1952
 2530SOL    HW310166   2.931   0.524   4.198 -1.4830 -0.3673 -0.3932
 2530SOL    MW410167   2.927   0.438   4.210 -0.2232 -0.4594 -0.5965
 2531SOL     OW10168   2.402   3.887   4.738 -0.0963  0.0695  0.0044
 2531SOL    HW210169   2.484   3.837   4.735 -0.3296 -0.2275 -2.8096
 2531SOL    HW310170   2.334   3.821   4.752  0.0075  0.1477  0.8925
 2531SOL    MW410171   2.404   3.872   4.740 -0.1135  0.0408 -0.2499
 2532SOL     OW10172   2.248   1.158   4.167 -0.3579 -0.2567  0.0246
 2532SOL    HW210173   2.182   1.192   4.227 -1.0298  0.8381 -1.3023
 2532SOL    HW310174   2.330   1.200   4.195 -0.6687  0.2622  0.1586
 2532SOL    MW410175   2.250   1.168   4.179 -0.4876 -0.0439 -0.1330
 2533SOL     OW10176   2.239   1.894   4.112 -0.2440  0.1481 -0.2540
 2533SOL    HW210177   2.245   1.817   4.167 -0.7847  0.8728  0.8325
 2533SOL    HW310178   2.313   1.949   4.138 -0.4199  0.4286 -0.3352
 2533SOL    MW410179   2.250   1.891   4.122 -0.3388  0.2806 -0.1211
 2534SOL     OW10180   2.483   1.523   4.175 -0.3308  0.4839 -0.1055
 2534SOL    HW210181   2.496   1.526   4.080 -1.3151  3.5337 -0.1896
 2534SOL    HW310182   2.565   1.555   4.211  0.3458 -1.4470  0.1515
 2534SOL    MW410183   2.496   1.528   4.167 -0.3715  0.6316 -0.0825
 2535SOL     OW10184   2.429   2.090   4.905 -0.1877 -0.0771 -0.1953
 2535SOL    HW210185   2.356   2.152   4.899  0.1664  0.4423  0.7183
 2535SOL    HW310186   2.508   2.145   4.902  0.1250 -0.4636  0.7350
 2535SOL    MW410187   2.430   2.106   4.904 -0.0999 -0.0598  0.0482
 2536SOL     OW10188   1.515   2.809   4.557  0.4255  0.3289  0.5236
 2536SOL    HW210189   1.454   2.875   4.589  2.3207  1.5430  1.7584
 2536SOL    HW310190   1.545   2.843   4.472  0.9454  0.7906  0.8833
 2536SOL    MW410191   1.511   2.822   4.550  0.7442  0.5500  0.7343
 2537SOL     OW10192   2.245   2.447   4.187  0.0057 -0.1433  0.1003
 2537SOL    HW210193   2.216   2.538   4.189  1.2332  0.2867 -0.6877
 2537SOL    HW310194   2.166   2.397   4.170 -0.4572  0.9036 -0.9099
 2537SOL    MW410195   2.231   2.453   4.185  0.1063  0.0517 -0.1364
 2538SOL     OW10196   2.708   0.581   4.636 -0.2685 -0.3710 -0.1603
 2538SOL    HW210197   2.727   0.674   4.626  0.1569 -0.3848  0.5449
 2538SOL    HW310198   2.775   0.537   4.583  0.2719 -0.3240  0.4769
 2538SOL    MW410199   2.719   0.588   4.628 -0.1411 -0.3666  0.0167
 2539SOL     OW10200   0.674   2.662   4.512  0.5358 -0.4744  0.3460
 2539SOL    HW210201   0.641   2.737   4.563  0.8983 -1.0365  1.4304
 2539SOL    HW310202   0.679   2.695   4.422  0.9751  0.8963  0.8468
 2539SOL    MW410203   0.670   2.677   4.507  0.6415 -0.3676  0.5555
 2540SOL     OW10204   0.467   2.467   4.522 -0.1476 -0.3714  0.2420
 2540SOL    HW210205   0.445   2.469   4.429  0.6956 -0.8096  0.0289
 2540SOL    HW310206   0.543   2.524   4.531  0.3018 -0.9967  0.5135
 2540SOL    MW410207   0.474   2.475   4.511  0.0230 -0.5116  0.2499
 2541SOL     OW10208   2.230   3.246   4.197 -0.5687  0.1299 -0.1701
 2541SOL    HW210209   2.212   3.334   4.165  0.9985  0.4813 -0.1236
 2541SOL    HW310210   2.249   3.258   4.291  0.6163 -0.1116 -0.3683
 2541SOL    MW410211   2.230   3.259   4.205 -0.2055  0.1445 -0.1898
 2542SOL     OW10212   1.982   3.010   4.655  0.0991  0.5091 -0.3291
 2542SOL    HW210213   2.049   3.053   4.708  0.5470  0.7922 -1.1191
 2542SOL    HW310214   2.031   2.966   4.586 -0.5351  0.8125 -0.9763
 2542SOL    MW410215   1.997   3.010   4.653  0.0744  0.5865 -0.5183
 2543SOL     OW10216   2.225   3.508   4.128  0.0836  0.4319 -0.3548
 2543SOL    HW210217   2.307   3.554   4.146 -0.1427  0.8030 -0.2691
 2543SOL    HW310218   2.159   3.558   4.176 -0.3576  0.7648 -1.3080
 2543SOL    MW410219   2.227   3.520   4.137 -0.0045  0.5250 -0.4692
 2544SOL     OW10220   0.943   2.211   4.609  0.2046  0.1403  0.1052
 2544SOL    HW210221   0.852   2.190   4.591  0.1408 -0.3657  0.9876
 2544SOL    HW310222   0.947   2.307   4.610 -0.5826  0.1643  1.3718
 2544SOL    MW410223   0.932   2.221   4.607  0.0922  0.0768  0.3886
 2545SOL     OW10224   2.536   3.887   4.162 -0.2298 -0.2416  0.0794
 2545SOL    HW210225   2.460   3.920   4.209 -0.5464  0.1893 -0.7449
 2545SOL    HW310226   2.505   3.868   4.074  0.5756 -0.2346 -0.2132
 2545SOL    MW410227   2.522   3.889   4.157 -0.1652 -0.1836 -0.0682
 2546SOL     OW10228   4.296   3.804   4.620  0.3332 -0.4516  0.0746
 2546SOL    HW210229   4.226   3.847   4.572  2.0732  0.8087 -1.3935
 2546SOL    HW310230   4.304   3.718   4.579  0.0086 -0.4035 -0.0914
 2546SOL    MW410231   4.288   3.798   4.609  0.5198 -0.2792 -0.1407
 2547SOL     OW10232   2.287   3.976   4.259  0.0962 -0.3228 -0.1681
 2547SOL    HW210233   2.201   3.943   4.233 -0.5160 -0.1390  1.5388
 2547SOL    HW310234   2.288   4.067   4.229 -0.8092  0.0461  0.8666
 2547SOL    MW410235   2.275   3.984   4.252 -0.1040 -0.2496  0.1936
 2548SOL     OW10236   2.251   4.239   4.165 -0.0868 -0.4611  0.3998
 2548SOL    HW210237   2.327   4.289   4.194  0.6613 -1.3306 -0.0484
 2548SOL    HW310238   2.176   4.286   4.202  0.6783  0.2322  1.0926
 2548SOL    MW410239   2.251   4.251   4.174  0.1128 -0.4849  0.4320
 2549SOL     OW10240   1.549   2.073   4.294 -0.0084 -0.1088 -0.2252
 2549SOL    HW210241   1.485   2.018   4.249 -0.3464  0.7638 -0.8344
 2549SOL    HW310242   1.624   2.016   4.308 -1.2151 -1.3898  1.2441
 2549SOL    MW410243   1.550   2.059   4.290 -0.2123 -0.1626 -0.1121
 2550SOL     OW10244   2.495   4.452   4.515  0.2219  0.0719 -0.6153
 2550SOL    HW210245   2.429   4.414   4.573  1.4053 -0.2768  0.5288
 2550SOL    HW310246   2.504   4.542   4.546  0.2614  0.1301 -0.7971
 2550SOL    MW410247   2.487   4.459   4.527  0.3829  0.0339 -0.4883
 2551SOL     OW10248   2.469   0.521   4.287  0.0064  0.1444 -0.1496
 2551SOL    HW210249   2.391   0.477   4.252 -1.2312  0.6086  1.9796
 2551SOL    HW310250   2.474   0.603   4.237 -0.2123 -0.3829 -1.0598
 2551SOL    MW410251   2.459   0.526   4.276 -0.1857  0.1360  0.0114
 2552SOL     OW10252   2.012   1.828   4.640 -0.0460 -0.6430 -0.0531
 2552SOL    HW210253   1.942   1.883   4.607  0.9286 -0.0342 -1.1470
 2552SOL    HW310254   2.034   1.866   4.725 -0.0774  0.0316 -0.3414
 2552SOL    MW410255   2.006   1.840   4.647  0.0787 -0.4737 -0.2356
 2553SOL     OW10256   2.904   0.705   4.171 -0.0156 -0.6665  0.3678
 2553SOL    HW210257   2.900   0.732   4.079 -1.2999 -0.9213  0.3404
 2553SOL    HW310258   2.981   0.750   4.206 -1.4125  2.0837  0.0324
 2553SOL    MW410259   2.914   0.714   4.163 -0.3693 -0.3373  0.3204
 2554SOL     OW10260   2.717   0.885   4.236  0.3998 -0.2224  0.4023
 2554SOL    HW210261   2.788   0.827   4.210 -0.0136  0.1369 -1.6289
 2554SOL    HW310262   2.637   0.839   4.212  0.0409  0.6911 -0.2167
 2554SOL    MW410263   2.716   0.872   4.230  0.2978 -0.0545  0.0529
 2555SOL     OW10264   2.683   1.141   4.140  0.2551  0.1896 -0.0618
 2555SOL    HW210265   2.676   1.138   4.045  0.0348 -0.4550 -0.0305
 2555SOL    HW310266   2.684   1.049   4.166 -0.4702  0.3745  0.6176
 2555SOL    MW410267   2.682   1.128   4.131  0.1304  0.1290  0.0315
 2556SOL     OW10268   2.792   0.154   4.538 -0.2821  0.5351 -0.3138
 2556SOL    HW210269   2.872   0.104   4.553 -0.6035  0.6192  1.8464
 2556SOL    HW310270   2.823   0.245   4.527 -0.0795  0.5498  0.3914
 2556SOL    MW410271   2.807   0.160   4.538 -0.2978  0.5481  0.0644
 2557SOL     OW10272   2.936   1.529   4.164  0.0013 -0.5061 -0.0038
 2557SOL    HW210273   2.890   1.585   4.226  2.2177  0.1055  1.1458
 2557SOL    HW310274   2.937   1.442   4.205 -0.9963 -0.7422 -0.4863
 2557SOL    MW410275   2.930   1.525   4.177  0.1621 -0.4567  0.0844
 2558SOL     OW10276   3.984   3.542   4.629 -0.1199 -0.2738  0.1064
 2558SOL    HW210277   3.937   3.597   4.565 -1.0011 -2.2898 -1.0118
 2558SOL    HW310278   4.076   3.554   4.607 -0.2942  0.8019 -0.0852
 2558SOL    MW410279   3.990   3.551   4.618 -0.2589 -0.3982 -0.0668
 2559SOL     OW10280   3.148   1.687   4.273 -0.1306  0.2590  0.1355
 2559SOL    HW210281   3.121   1.771   4.235 -0.9530 -0.5526 -1.1217
 2559SOL    HW310282   3.087   1.624   4.235  1.6851 -1.1969 -0.4076
 2559SOL    MW410283   3.136   1.690   4.263  0.0005 -0.0402 -0.1020
 2560SOL     OW10284   1.345   3.956   4.504  0.2431  0.4021  0.3856
 2560SOL    HW210285   1.343   3.965   4.409  2.4402 -1.8552  0.0635
 2560SOL    HW310286   1.413   4.017   4.532  1.7527 -1.1183  0.1463
 2560SOL    MW410287   1.354   3.965   4.495  0.7321 -0.0968  0.3114
 2561SOL     OW10288   0.947   0.967   4.490  0.5240 -0.0134 -0.5547
 2561SOL    HW210289   0.877   0.909   4.521  0.8486  0.1214  0.4662
 2561SOL    HW310290   0.938   0.968   4.395 -1.3633  0.6383 -0.3869
 2561SOL    MW410291   0.937   0.960   4.482  0.3178  0.0904 -0.3982
 2562SOL     OW10292   3.580   1.958   4.124  1.0062  0.2957  0.1150
 2562SOL    HW210293   3.592   1.866   4.145 -0.1734  0.4297  1.4709
 2562SOL    HW310294   3.577   1.961   4.029 -0.6138 -1.2909  0.1048
 2562SOL    MW410295   3.581   1.946   4.114  0.6368  0.1041  0.2923
 2563SOL     OW10296   2.685   2.550   4.142  0.1777  0.1747  0.2440
 2563SOL    HW210297   2.609   2.495   4.122  1.5279 -1.5275 -0.3635
 2563SOL    HW310298   2.760   2.490   4.139  1.7750  2.1588 -1.0364
 2563SOL    MW410299   2.685   2.535   4.139  0.5665  0.2117 -0.0052
 2564SOL     OW10300   2.400   2.919   4.360  0.1846  0.3326  0.1303
 2564SOL    HW210301   2.415   2.971   4.281 -0.2356 -0.5722 -0.5457
 2564SOL    HW310302   2.463   2.847   4.354  0.2775  0.3618  0.7129
 2564SOL    MW410303   2.410   2.917   4.349  0.1411  0.2170  0.1178
 2565SOL     OW10304   2.931   2.846   4.299 -0.1080  0.1182 -0.2194
 2565SOL    HW210305   2.843   2.810   4.310  0.3914 -1.1395 -0.2469
 2565SOL    HW310306   2.966   2.853   4.387 -0.7320  1.9390 -0.0938
 2565SOL    MW410307   2.924   2.842   4.312 -0.1245  0.1926 -0.2065
 2566SOL     OW10308   2.908   3.108   4.192 -0.0107  0.2050  0.3517
 2566SOL    HW210309   2.918   3.015   4.211  1.6143  0.0116 -1.2530
 2566SOL    HW310310   2.895   3.111   4.097 -0.3853  1.5976  0.4403
 2566SOL    MW410311   2.907   3.096   4.182  0.1547  0.3633  0.1521
 2567SOL     OW10312   2.254   4.036   4.552  0.1411  0.0437 -0.3793
 2567SOL    HW210313   2.287   4.017   4.464 -0.3950 -0.4919 -0.4671
 2567SOL    HW310314   2.301   3.975   4.609  0.0187 -0.0487 -0.3771
 2567SOL    MW410315   2.265   4.025   4.548  0.0539 -0.0391 -0.3905
 2568SOL     OW10316   1.768   3.194   4.535 -0.0952  0.1960  0.3684
 2568SOL    HW210317   1.789   3.203   4.442 -1.8573  0.7362  0.0098
 2568SOL    HW310318   1.825   3.123   4.565  0.0520 -0.4000 -1.2541
 2568SOL    MW410319   1.779   3.186   4.526 -0.3082  0.1888  0.1068
 2569SOL     OW10320   2.903   3.594   4.264  0.5053  0.0216  0.0451
 2569SOL    HW210321   2.883   3.563   4.353 -0.4336 -0.0950 -0.1932
 2569SOL    HW310322   2.986   3.553   4.242  1.3813  1.0653  1.3536
 2569SOL    MW410323   2.911   3.584   4.273  0.4971  0.1440  0.1864
 2570SOL     OW10324   3.126   3.720   4.640 -0.5363  0.0685  0.6799
 2570SOL    HW210325   3.220   3.705   4.643 -0.6105 -0.3383  0.9645
 2570SOL    HW310326   3.117   3.815   4.641 -0.1046  0.1208 -0.1263
 2570SOL    MW410327   3.137   3.730   4.640 -0.4892  0.0215  0.6113
 2571SOL     OW10328   2.764   3.959   4.596  0.4060  0.2795 -0.0365
 2571SOL    HW210329   2.746   3.964   4.502  1.8596 -0.4994 -0.3630
 2571SOL    HW310330   2.735   4.044   4.631 -0.6283  0.3713 -1.0879
 2571SOL    MW410331   2.758   3.971   4.588  0.4613  0.1884 -0.2184
 2572SOL     OW10332   0.402   2.023   4.585  0.1022  0.1635 -0.2464
 2572SOL    HW210333   0.334   2.091   4.581 -0.8723 -0.8505 -1.0724
 2572SOL    HW310334   0.362   1.947   4.542  1.8130 -0.4020 -0.8439
 2572SOL    MW410335   0.387   2.022   4.579  0.1993 -0.0448 -0.4344
 2573SOL     OW10336   2.664   3.204   4.268 -0.0190  0.2060 -0.4121
 2573SOL    HW210337   2.754   3.180   4.244  0.3418  1.7384 -0.6593
 2573SOL    HW310338   2.663   3.197   4.363  0.0929 -0.6969 -0.4694
 2573SOL    MW410339   2.676   3.200   4.277  0.0432  0.2890 -0.4516
 2574SOL     OW10340   1.313   3.035   4.610 -0.0923 -0.0470  0.0017
 2574SOL    HW210341   1.370   3.086   4.554  0.8691 -0.2747  0.7653
 2574SOL    HW310342   1.270   3.099   4.667 -0.5174  0.1144 -0.5042
 2574SOL    MW410343   1.315   3.050   4.611 -0.0215 -0.0558  0.0358
 2575SOL     OW10344   1.608   3.652   4.510  0.4000  0.1523  0.3166
 2575SOL    HW210345   1.609   3.747   4.514  1.0221  0.1683 -0.2525
 2575SOL    HW310346   1.572   3.631   4.424  0.8275 -0.1277  0.2068
 2575SOL    MW410347   1.603   3.662   4.499  0.5383  0.1175  0.2270
 2576SOL     OW10348   3.785   3.590   4.222 -0.2052 -0.2956  0.4018
 2576SOL    HW210349   3.869   3.552   4.195 -0.0246  0.8437 -0.6763
 2576SOL    HW310350   3.798   3.611   4.315  1.0174  0.6651  0.0342
 2576SOL    MW410351   3.798   3.588   4.231 -0.0203 -0.0188  0.2112
 2577SOL     OW10352   0.739   4.302   4.511  0.2295  0.3035 -0.3198
 2577SOL    HW210353   0.786   4.220   4.527 -0.0317  0.2009 -0.0820
 2577SOL    HW310354   0.793   4.369   4.554 -0.5961  0.0021  1.2207
 2577SOL    MW410355   0.753   4.300   4.519  0.0861  0.2494 -0.0854
 2578SOL     OW10356   2.550   1.867   4.822 -0.4056 -0.1247 -0.1108
 2578SOL    HW210357   2.638   1.887   4.854 -0.1023 -0.5287 -0.6702
 2578SOL    HW310358   2.495   1.939   4.854  0.1253  0.1180  0.2556
 2578SOL    MW410359   2.554   1.879   4.830 -0.2959 -0.1460 -0.1359
 2579SOL     OW10360   3.139   1.151   4.163 -0.0133  0.1683  0.3530
 2579SOL    HW210361   3.227   1.189   4.169  0.1111  0.0152 -0.4043
 2579SOL    HW310362   3.124   1.142   4.069 -0.6146 -0.3352  0.4982
 2579SOL    MW410363   3.149   1.155   4.151 -0.0763  0.0818  0.2723
 2580SOL     OW10364   3.376   1.268   4.235  0.0923  0.6075  0.4740
 2580SOL    HW210365   3.369   1.240   4.326  2.9871  0.5564  0.7269
 2580SOL    HW310366   3.385   1.363   4.239 -0.8890  0.7236  0.1510
 2580SOL    MW410367   3.376   1.277   4.247  0.3448  0.6161  0.4644
 2581SOL     OW10368   3.379   1.550   4.187  0.2151  0.4274 -0.2013
 2581SOL    HW210369   3.358   1.548   4.093 -0.4482 -1.1449 -0.0449
 2581SOL    HW310370   3.322   1.617   4.223  0.2126  0.7942 -0.8752
 2581SOL    MW410371   3.369   1.558   4.179  0.1273  0.2682 -0.2694
 2582SOL     OW10372   3.364   1.238   4.510 -0.2434 -0.6875 -0.4778
 2582SOL    HW210373   3.298   1.169   4.521 -0.0836 -0.6043  1.0481
 2582SOL    HW310374   3.332   1.311   4.563  0.4729 -0.2058 -0.7077
 2582SOL    MW410375   3.351   1.238   4.518 -0.1278 -0.6130 -0.3066
 2583SOL     OW10376   4.216   2.903   4.561  0.1205  0.0583  0.1601
 2583SOL    HW210377   4.230   2.870   4.472  0.3754  0.9509 -0.1386
 2583SOL    HW310378   4.163   2.982   4.549 -0.6285 -0.3275  0.8755
 2583SOL    MW410379   4.211   2.909   4.548  0.0558  0.1252  0.2146
 2584SOL     OW10380   3.346   2.244   4.666  0.1078 -0.2281  0.0033
 2584SOL    HW210381   3.325   2.338   4.666  0.7676 -0.0793  0.8819
 2584SOL    HW310382   3.441   2.240   4.668  0.0800 -0.9272  0.1124
 2584SOL    MW410383   3.356   2.256   4.666  0.1912 -0.3006  0.1335
 2585SOL     OW10384   2.908   2.359   4.116 -0.4490  0.3039 -0.0170
 2585SOL    HW210385   2.899   2.271   4.152 -0.4954  0.6620  0.8568
 2585SOL    HW310386   2.987   2.394   4.158 -0.7544  0.8857  0.0767
 2585SOL    MW410387   2.917   2.352   4.126 -0.4952  0.4282  0.1106
 2586SOL     OW10388   3.141   2.738   4.171 -0.1476 -0.0840 -0.2570
 2586SOL    HW210389   3.138   2.647   4.203 -0.3979  0.0982  0.2367
 2586SOL    HW310390   3.074   2.784   4.222  0.1100  0.4197 -0.3701
 2586SOL    MW410391   3.132   2.732   4.182 -0.1471  0.0067 -0.2074
 2587SOL     OW10392   2.400   3.128   4.588  0.2770  0.6646  0.5272
 2587SOL    HW210393   2.401   3.077   4.507 -1.8487 -0.7005  1.3035
 2587SOL    HW310394   2.334   3.196   4.573  0.2488  0.7300  0.9269
 2587SOL    MW410395   2.391   3.130   4.575 -0.0069  0.4933  0.6828
 2588SOL     OW10396   4.471   2.910   4.695  0.0661  0.6812 -0.8588
 2588SOL    HW210397   4.513   2.826   4.675  1.3300  0.6563  1.6625
 2588SOL    HW310398   4.385   2.905   4.652  0.5100 -1.4931 -1.5540
 2588SOL    MW410399   4.465   2.898   4.687  0.2913  0.3910 -0.6175
 2589SOL     OW10400   3.334   3.088   4.188 -0.1167  0.0475 -0.4130
 2589SOL    HW210401   3.329   3.066   4.095 -2.2852 -1.8356  0.0967
 2589SOL    HW310402   3.345   3.003   4.232 -1.5585  0.6572  1.1722
 2589SOL    MW410403   3.335   3.074   4.182 -0.5929 -0.1204 -0.1364
 2590SOL     OW10404   3.134   3.224   4.322  0.4559 -0.0839  0.4414
 2590SOL    HW210405   3.211   3.170   4.305  0.3697 -0.2551  0.5956
 2590SOL    HW310406   3.066   3.186   4.267  0.2471 -0.4727  0.9688
 2590SOL    MW410407   3.135   3.212   4.313  0.4172 -0.1581  0.5317
 2591SOL     OW10408   3.143   3.480   4.170  0.0614 -0.4180  0.3262
 2591SOL    HW210409   3.157   3.387   4.185 -1.3384 -0.7049 -0.0923
 2591SOL    HW310410   3.144   3.490   4.075 -0.7468 -0.1651  0.3399
 2591SOL    MW410411   3.145   3.469   4.160 -0.2298 -0.4227  0.2737
 2592SOL     OW10412   2.684   3.459   4.137  0.1336 -0.1905 -0.6826
 2592SOL    HW210413   2.759   3.505   4.174 -0.6303  1.5208 -1.1831
 2592SOL    HW310414   2.673   3.382   4.193  1.0612  0.5637  0.5753
 2592SOL    MW410415   2.692   3.455   4.149  0.1554  0.1347 -0.5832
 2593SOL     OW10416   3.335   3.836   4.228 -0.0103  0.0500  0.4131
 2593SOL    HW210417   3.348   3.747   4.263 -0.5115 -0.5747 -0.9718
 2593SOL    HW310418   3.323   3.823   4.134 -0.4577  1.5656  0.2583
 2593SOL    MW410419   3.335   3.822   4.220 -0.1357  0.1676  0.2098
 2594SOL     OW10420   0.296   4.404   4.265  0.4776 -0.5628  0.3200
 2594SOL    HW210421   0.295   4.415   4.360  0.3263 -2.1573  0.5148
 2594SOL    HW310422   0.210   4.368   4.245  0.8396 -1.0813 -0.3101
 2594SOL    MW410423   0.284   4.401   4.275  0.5054 -0.8416  0.2627
 2595SOL     OW10424   2.482   4.372   4.245 -0.3149 -0.0885  0.5295
 2595SOL    HW210425   2.499   4.391   4.338 -0.0788  0.0860  0.4495
 2595SOL    HW310426   2.559   4.324   4.216  0.3510  1.2954 -0.0107
 2595SOL    MW410427   2.494   4.368   4.254 -0.1957  0.1168  0.4478
 2596SOL     OW10428   3.124   3.991   4.278  0.1288  0.1359  0.0382
 2596SOL    HW210429   3.192   3.927   4.259  0.3877  0.5049 -0.2796
 2596SOL    HW310430   3.047   3.960   4.229  0.2666  0.0949 -0.1507
 2596SOL    MW410431   3.123   3.979   4.269  0.1812  0.1793 -0.0286
 2597SOL     OW10432   3.814   4.563   4.154  0.4361  0.2093  0.1146
 2597SOL    HW210433   3.747   4.605   4.209  1.1742  0.4291  0.8688
 2597SOL    HW310434   3.807   4.608   4.070 -0.7225 -0.1346  0.0180
 2597SOL    MW410435   3.804   4.575   4.150  0.3805  0.1931  0.2012
 2598SOL     OW10436   3.407   4.631   4.148  0.2627  0.2339 -0.1511
 2598SOL    HW210437   3.486   4.672   4.184 -0.4129  0.4729  1.0703
 2598SOL    HW310438   3.409   4.542   4.183 -0.2041  0.3553  0.1815
 2598SOL    MW410439   3.418   4.624   4.157  0.1121  0.2813  0.0534
 2599SOL     OW10440   3.605   0.346   4.180 -0.0430  0.4218  0.3312
 2599SOL    HW210441   3.597   0.363   4.086  0.5533  0.2294  0.2406
 2599SOL    HW310442   3.687   0.390   4.204  0.9274 -1.3571  0.3272
 2599SOL    MW410443   3.615   0.354   4.170  0.1638  0.1618  0.3190
 2600SOL     OW10444   0.157   1.811   4.499 -0.0346  0.8203  0.4311
 2600SOL    HW210445   0.094   1.858   4.553 -0.5271  1.1938 -0.4447
 2600SOL    HW310446   0.103   1.753   4.444  0.5111 -0.2013  0.9577
 2600SOL    MW410447   0.141   1.809   4.499 -0.0276  0.7348  0.3853
 2601SOL     OW10448   3.598   0.873   4.231 -0.4912 -0.3548  0.1139
 2601SOL    HW210449   3.517   0.844   4.190 -0.8362  0.7604 -0.0132
 2601SOL    HW310450   3.608   0.964   4.204  1.7163 -0.9767 -1.2898
 2601SOL    MW410451   3.589   0.882   4.222 -0.2456 -0.2898 -0.0877
 2602SOL     OW10452   2.810   0.860   4.499 -0.1037  0.2421  0.0000
 2602SOL    HW210453   2.775   0.889   4.414 -0.5260  0.9244  0.3922
 2602SOL    HW310454   2.774   0.924   4.561  1.7699  0.8856  0.4355
 2602SOL    MW410455   2.800   0.873   4.496  0.0877  0.4170  0.1087
 2603SOL     OW10456   3.599   1.142   4.124 -0.3750  0.3243 -0.1513
 2603SOL    HW210457   3.516   1.185   4.145 -1.2934 -1.0391 -0.8599
 2603SOL    HW310458   3.596   1.130   4.029 -0.7456 -2.4063  0.1582
 2603SOL    MW410459   3.588   1.146   4.114 -0.5450 -0.2158 -0.2036
 2604SOL     OW10460   4.077   2.191   4.640 -0.0428  0.0600  0.0152
 2604SOL    HW210461   4.049   2.118   4.584  1.4797 -0.2149 -0.3990
 2604SOL    HW310462   4.043   2.269   4.597 -1.2013 -0.3577  0.1578
 2604SOL    MW410463   4.069   2.191   4.627  0.0057 -0.0312 -0.0210
 2605SOL     OW10464   0.337   3.315   4.526  0.3956  0.0348  0.4621
 2605SOL    HW210465   0.276   3.254   4.567  0.2320  0.0106  0.1876
 2605SOL    HW310466   0.354   3.277   4.440 -0.2252  0.7169  0.0305
 2605SOL    MW410467   0.331   3.302   4.520  0.2922  0.1216  0.3686
 2606SOL     OW10468   0.902   0.952   4.222 -0.5018  0.1094  0.2596
 2606SOL    HW210469   0.820   0.904   4.224 -0.1647 -0.4106  2.5799
 2606SOL    HW310470   0.968   0.884   4.205 -0.2111  0.0075  1.7719
 2606SOL    MW410471   0.900   0.936   4.220 -0.4190  0.0273  0.7648
 2607SOL     OW10472   4.451   0.968   4.508  0.3811 -0.2788  0.0457
 2607SOL    HW210473   4.464   0.936   4.419 -1.2382  0.5955 -0.5210
 2607SOL    HW310474   4.386   1.038   4.499  0.0930 -0.2859  1.9249
 2607SOL    MW410475   4.444   0.973   4.495  0.1292 -0.1644  0.2189
 2608SOL     OW10476   1.144   1.388   4.505  0.0114  0.0074 -0.0054
 2608SOL    HW210477   1.107   1.322   4.564 -2.5219 -0.7335 -2.3157
 2608SOL    HW310478   1.083   1.461   4.509  0.7567  0.6582 -0.3810
 2608SOL    MW410479   1.131   1.389   4.513 -0.2246 -0.0045 -0.3595
 2609SOL     OW10480   3.779   2.333   4.130 -0.3915  0.3722 -0.3652
 2609SOL    HW210481   3.802   2.291   4.047 -2.5555  0.7410 -1.1710
 2609SOL    HW310482   3.861   2.373   4.159  0.5044 -0.1323 -2.1024
 2609SOL    MW410483   3.793   2.333   4.122 -0.5589  0.3543 -0.7010
 2610SOL     OW10484   4.266   3.560   4.234 -0.0179 -0.5375 -0.0947
 2610SOL    HW210485   4.176   3.535   4.215 -0.2369  0.7954 -0.8357
 2610SOL    HW310486   4.273   3.651   4.205  2.1543 -1.2903 -2.0476
 2610SOL    MW410487   4.255   3.569   4.228  0.2398 -0.4609 -0.4506
 2611SOL     OW10488   3.562   2.685   4.174 -0.3785  0.1398 -0.5194
 2611SOL    HW210489   3.550   2.592   4.194 -1.9789  0.0783 -1.6995
 2611SOL    HW310490   3.586   2.687   4.081  0.4262  0.8695 -0.3093
 2611SOL    MW410491   3.564   2.673   4.164 -0.4835  0.2279 -0.6471
 2612SOL     OW10492   3.500   0.841   4.505 -0.5216  0.1255  0.0923
 2612SOL    HW210493   3.542   0.829   4.419 -0.1540  1.0780  0.1283
 2612SOL    HW310494   3.522   0.931   4.529  0.0952 -0.4086  1.5757
 2612SOL    MW410495   3.509   0.851   4.497 -0.3917  0.1807  0.2928
 2613SOL     OW10496   3.812   3.078   4.216  0.2460  0.4724 -0.3687
 2613SOL    HW210497   3.804   2.986   4.241  0.2315  0.7916  0.8255
 2613SOL    HW310498   3.798   3.078   4.121  1.0145 -0.8524 -0.4985
 2613SOL    MW410499   3.809   3.066   4.207  0.3455  0.3395 -0.2284
 2614SOL     OW10500   3.544   3.216   4.269 -0.0791 -0.1445  0.2780
 2614SOL    HW210501   3.469   3.169   4.233  0.1899 -0.0351 -0.4133
 2614SOL    HW310502   3.620   3.164   4.244  0.4213  1.8090 -2.3871
 2614SOL    MW410503   3.544   3.203   4.261  0.0224  0.1276 -0.1650
 2615SOL     OW10504   2.903   3.891   4.134  0.1644 -0.0562 -0.2461
 2615SOL    HW210505   2.907   3.804   4.174 -1.3815  0.0935  0.2604
 2615SOL    HW310506   2.840   3.939   4.188 -0.5222  0.7328 -1.7407
 2615SOL    MW410507   2.895   3.886   4.147 -0.1302  0.0679 -0.3762
 2616SOL     OW10508   3.423   4.268   4.497  0.4285  0.1801 -0.2349
 2616SOL    HW210509   3.437   4.361   4.516 -0.8794  0.9623 -2.8118
 2616SOL    HW310510   3.347   4.244   4.549  0.1503  0.8452 -0.3176
 2616SOL    MW410511   3.415   4.277   4.506  0.2191  0.3715 -0.5856
 2617SOL     OW10512   3.079   3.986   4.586  0.2310  0.3126 -0.1192
 2617SOL    HW210513   2.986   4.005   4.595  0.4730  2.3200 -1.4665
 2617SOL    HW310514   3.091   3.967   4.493  1.0592 -0.6216  0.1682
 2617SOL    MW410515   3.068   3.986   4.575  0.3722  0.4542 -0.2584
 2618SOL     OW10516   4.022   3.967   4.249 -0.1933  0.5021 -0.9039
 2618SOL    HW210517   4.101   3.919   4.225 -0.4898 -0.9653  0.8904
 2618SOL    HW310518   3.951   3.923   4.201 -0.4986 -1.0953  0.9219
 2618SOL    MW410519   4.023   3.955   4.240 -0.2723  0.0978 -0.4258
 2619SOL     OW10520   3.386   4.541   4.575 -0.7711 -0.0390  0.3894
 2619SOL    HW210521   3.335   4.619   4.553 -0.8301 -0.1352  0.1877
 2619SOL    HW310522   3.461   4.574   4.624 -0.6348  0.1726  0.0339
 2619SOL    MW410523   3.389   4.556   4.579 -0.7608 -0.0243  0.3161
 2620SOL     OW10524   3.859   4.321   4.265  0.3655 -0.0220  0.1835
 2620SOL    HW210525   3.935   4.284   4.219 -0.3543 -0.5886 -0.5708
 2620SOL    HW310526   3.837   4.400   4.216  0.0004 -0.2695 -0.0497
 2620SOL    MW410527   3.866   4.326   4.252  0.2222 -0.1302  0.0529
 2621SOL     OW10528   1.421   1.706   4.569 -0.0058 -0.5141  0.4165
 2621SOL    HW210529   1.449   1.794   4.594  0.1243 -0.3403 -0.3473
 2621SOL    HW310530   1.487   1.648   4.607 -0.0998 -0.2891  0.9334
 2621SOL    MW410531   1.433   1.710   4.578 -0.0011 -0.4615  0.3843
 2622SOL     OW10532   4.027   0.319   4.167  0.0231 -0.0428  0.1447
 2622SOL    HW210533   4.101   0.378   4.181  0.8460 -1.2190  0.8467
 2622SOL    HW310534   3.950   0.371   4.191  0.5105  1.5265 -1.5805
 2622SOL    MW410535   4.026   0.334   4.172  0.1960  0.0091  0.0095
 2623SOL     OW10536   4.364   0.157   4.689 -0.2968 -0.1203  0.1816
 2623SOL    HW210537   4.292   0.218   4.673 -0.3461 -0.5703 -1.4067
 2623SOL    HW310538   4.437   0.193   4.640  0.0347 -0.6704  0.2668
 2623SOL    MW410539   4.364   0.170   4.681 -0.2599 -0.2522 -0.0167
 2624SOL     OW10540   4.052   0.784   4.537 -0.4857  0.1253  0.3411
 2624SOL    HW210541   4.057   0.821   4.449  0.1637  1.5827  0.9722
 2624SOL    HW310542   3.969   0.816   4.572  0.2262  1.2955  1.0068
 2624SOL    MW410543   4.042   0.793   4.530 -0.3061  0.4719  0.5116
 2625SOL     OW10544   4.319   0.735   4.136  0.1832 -0.1782  0.1403
 2625SOL    HW210545   4.291   0.649   4.168  0.2634 -0.4217 -0.4366
 2625SOL    HW310546   4.321   0.726   4.041  1.7413 -0.0201  0.1475
 2625SOL    MW410547   4.316   0.722   4.128  0.3996 -0.1895  0.0648
 2626SOL     OW10548   4.369   4.615   4.518  0.3870  0.1606  0.9439
 2626SOL    HW210549   4.412   4.659   4.444 -1.6238  1.2077  0.3743
 2626SOL    HW310550   4.367   4.681   4.587 -1.2870  0.4730  0.6004
 2626SOL    MW410551   4.375   4.629   4.518 -0.0992  0.3395  0.8235
 2627SOL     OW10552   4.009   1.107   4.186 -0.0026  0.1956 -0.6963
 2627SOL    HW210553   4.038   1.018   4.207 -1.0739 -0.5642 -2.3369
 2627SOL    HW310554   4.080   1.163   4.218  0.3120 -1.1813  1.0789
 2627SOL    MW410555   4.022   1.102   4.193 -0.1020 -0.0863 -0.6790
 2628SOL     OW10556   4.226   1.552   4.193  0.2958 -0.0930  0.4577
 2628SOL    HW210557   4.231   1.569   4.099 -0.2292 -1.3676  0.1959
 2628SOL    HW310558   4.294   1.608   4.231  1.2830 -0.4223 -0.7887
 2628SOL    MW410559   4.235   1.562   4.186  0.3567 -0.3045  0.2584
 2629SOL     OW10560   4.464   1.659   4.339  0.5084 -0.5140 -0.2880
 2629SOL    HW210561   4.443   1.751   4.322  1.2749 -0.1481  0.6862
 2629SOL    HW310562   4.519   1.633   4.265 -0.5950 -0.5238 -1.1321
 2629SOL    MW410563   4.468   1.668   4.327  0.4640 -0.4669 -0.2704
 2630SOL     OW10564   0.564   0.687   4.512  0.1732 -0.1872 -0.0680
 2630SOL    HW210565   0.477   0.649   4.526  0.2777  0.2721  2.1082
 2630SOL    HW310566   0.553   0.779   4.535  0.8880  0.2028 -1.2679
 2630SOL    MW410567   0.551   0.694   4.517  0.2813 -0.0752  0.0606
 2631SOL     OW10568   4.201   1.781   4.463 -0.4090 -0.1669 -0.6354
 2631SOL    HW210569   4.222   1.721   4.535 -1.9247  1.3686  1.1314
 2631SOL    HW310570   4.135   1.734   4.412 -0.2970 -0.7202 -0.2843
 2631SOL    MW410571   4.195   1.767   4.466 -0.5946 -0.0371 -0.3557
 2632SOL     OW10572   4.277   2.110   4.285 -0.4517  0.0374 -0.0513
 2632SOL    HW210573   4.292   2.143   4.374 -2.1781  1.2512 -0.1775
 2632SOL    HW310574   4.198   2.058   4.292 -0.8907  0.5722 -0.9782
 2632SOL    MW410575   4.269   2.108   4.298 -0.7372  0.2680 -0.1903
 2633SOL     OW10576   4.271   2.334   4.133 -0.6338  0.3521 -0.3708
 2633SOL    HW210577   4.277   2.244   4.167 -0.9179  0.4285 -0.1133
 2633SOL    HW310578   4.183   2.362   4.156 -0.5366  0.7075 -0.4297
 2633SOL    MW410579   4.260   2.326   4.141 -0.6590  0.4089 -0.3443
 2634SOL     OW10580   0.432   1.177   4.175  0.3537 -0.3298  0.0241
 2634SOL    HW210581   0.429   1.177   4.080  0.4881 -1.0908  0.0186
 2634SOL    HW310582   0.515   1.219   4.197  0.1511  0.1847 -0.1837
 2634SOL    MW410583   0.443   1.182   4.165  0.3447 -0.3622 -0.0038
 2635SOL     OW10584   4.043   2.709   4.198  0.2675  0.0773  0.4524
 2635SOL    HW210585   4.114   2.748   4.251  0.6265 -1.8580  1.4328
 2635SOL    HW310586   3.963   2.746   4.235  0.6109 -0.0379  1.3355
 2635SOL    MW410587   4.042   2.719   4.210  0.3605 -0.1931  0.6986
 2636SOL     OW10588   2.087   0.754   4.826  0.0129  0.5390 -0.0139
 2636SOL    HW210589   2.130   0.713   4.752  0.3754 -0.8823  0.9664
 2636SOL    HW310590   2.013   0.696   4.847  0.7924  0.1008  1.6568
 2636SOL    MW410591   2.083   0.741   4.819  0.1633  0.2937  0.3362
 2637SOL     OW10592   4.252   2.844   4.297 -0.0125 -0.2827 -0.3365
 2637SOL    HW210593   4.328   2.794   4.267 -0.2412 -0.0077 -1.3777
 2637SOL    HW310594   4.266   2.932   4.263 -0.7254 -0.1928 -0.4045
 2637SOL    MW410595   4.264   2.849   4.289 -0.1364 -0.2346 -0.4830
 2638SOL     OW10596   4.252   3.104   4.181  0.6692  0.4003 -0.0858
 2638SOL    HW210597   4.238   3.099   4.086 -0.1047 -0.4725  0.0704
 2638SOL    HW310598   4.173   3.146   4.215 -0.1442 -1.5019  0.4311
 2638SOL    MW410599   4.240   3.109   4.173  0.4597  0.0343  0.0033
 2639SOL     OW10600   4.036   3.221   4.312  0.2102  0.3288  0.1528
 2639SOL    HW210601   4.035   3.232   4.407 -1.0330  1.0290  0.0815
 2639SOL    HW310602   3.950   3.182   4.293  0.5461 -0.0100 -0.6589
 2639SOL    MW410603   4.024   3.217   4.322  0.0906  0.3767  0.0362
 2640SOL     OW10604   4.012   3.458   4.164  0.0120  0.4063  0.3048
 2640SOL    HW210605   4.025   3.379   4.216 -2.0316  1.5337  2.6270
 2640SOL    HW310606   4.019   3.428   4.073 -0.4029 -2.3742  1.1421
 2640SOL    MW410607   4.014   3.444   4.159 -0.3128  0.1881  0.7215
 2641SOL     OW10608   3.835   0.469   4.275  0.2396  0.2936  0.2833
 2641SOL    HW210609   3.836   0.561   4.248  0.0474  0.3323  0.4116
 2641SOL    HW310610   3.862   0.471   4.367 -0.1167  0.2537  0.3896
 2641SOL    MW410611   3.839   0.481   4.284  0.1671  0.2935  0.3142
 2642SOL     OW10612   0.292   0.248   4.633  0.1968  0.2169 -0.0925
 2642SOL    HW210613   0.209   0.246   4.584 -0.0205  0.3427  0.2658
 2642SOL    HW310614   0.313   0.156   4.647  0.0850  0.1840 -0.1331
 2642SOL    MW410615   0.284   0.236   4.628  0.1534  0.2291 -0.0505
 2643SOL     OW10616   2.918   1.241   4.532 -0.0863  0.1656  0.3870
 2643SOL    HW210617   2.836   1.198   4.556 -0.9217  1.6849  0.3742
 2643SOL    HW310618   2.913   1.251   4.437 -0.5624  1.5244  0.5326
 2643SOL    MW410619   2.906   1.237   4.523 -0.2592  0.5455  0.4039
 2644SOL     OW10620   0.484   0.375   4.168  0.5633 -0.4452  0.2052
 2644SOL    HW210621   0.479   0.374   4.072  1.2267 -0.2632  0.1692
 2644SOL    HW310622   0.405   0.422   4.195  1.0949  0.7673 -0.3102
 2644SOL    MW410623   0.473   0.381   4.159  0.7209 -0.2612  0.1321
 2645SOL     OW10624   2.705   4.222   4.162 -0.1579 -0.0750 -0.5805
 2645SOL    HW210625   2.705   4.232   4.067  1.6233 -0.8194 -0.6794
 2645SOL    HW310626   2.776   4.278   4.192 -0.1594 -0.5036  0.2375
 2645SOL    MW410627   2.714   4.231   4.153  0.0765 -0.2294 -0.4854
 2646SOL     OW10628   4.273   3.840   4.167  0.3083  0.1137  0.1408
 2646SOL    HW210629   4.262   3.852   4.073 -0.7763 -1.6248  0.0131
 2646SOL    HW310630   4.353   3.888   4.189 -0.5165  2.1996 -1.3048
 2646SOL    MW410631   4.282   3.848   4.157  0.0563  0.1597 -0.0663
 2647SOL     OW10632   1.960   3.394   4.581  0.2318 -0.1511 -0.3454
 2647SOL    HW210633   1.909   3.472   4.556  1.1911  0.1815 -1.3236
 2647SOL    HW310634   1.896   3.323   4.579 -0.4485  0.4491 -0.4344
 2647SOL    MW410635   1.944   3.395   4.577  0.2685 -0.0281 -0.4864
 2648SOL     OW10636   1.554   1.337   4.872 -0.0272  0.2893  0.3225
 2648SOL    HW210637   1.536   1.349   4.965  0.0619 -1.5131  0.6013
 2648SOL    HW310638   1.487   1.275   4.843  2.6553 -2.6810  0.2454
 2648SOL    MW410639   1.543   1.330   4.880  0.3384 -0.3406  0.3490
 2649SOL     OW10640   1.207   3.672   4.519  0.7057 -0.3754  0.4016
 2649SOL    HW210641   1.136   3.668   4.584  0.5292 -0.0133  0.2317
 2649SOL    HW310642   1.237   3.762   4.521 -0.4201  0.0662 -1.1974
 2649SOL    MW410643   1.201   3.683   4.528  0.5338 -0.2694  0.1683
 2650SOL     OW10644   1.100   0.409   4.699  0.1635 -0.2697  0.2559
 2650SOL    HW210645   1.171   0.345   4.705  0.3190 -0.2066 -0.8199
 2650SOL    HW310646   1.021   0.356   4.691  0.3954 -0.3485 -1.7793
 2650SOL    MW410647   1.099   0.394   4.699  0.2147 -0.2718 -0.1545
 2651SOL     OW10648   4.339   0.476   4.495 -0.1589  0.4017 -0.0027
 2651SOL    HW210649   4.337   0.565   4.530  0.7140  0.2098  0.5511
 2651SOL    HW310650   4.257   0.436   4.525 -0.5699  1.0273 -0.2932
 2651SOL    MW410651   4.328   0.482   4.503 -0.0978  0.4589  0.0315
 2652SOL     OW10652   3.731   1.997   4.518 -0.1057  0.5697  0.4455
 2652SOL    HW210653   3.747   2.035   4.431 -0.2944  0.5018  0.3806
 2652SOL    HW310654   3.669   1.926   4.502  1.0576 -0.4517  0.4213
 2652SOL    MW410655   3.725   1.992   4.504  0.0229  0.4259  0.4334
 2653SOL     OW10656   1.986   2.032   4.106  0.0461  0.2296  0.7321
 2653SOL    HW210657   2.071   1.988   4.111  0.5954  1.3662  1.7262
 2653SOL    HW310658   2.000   2.115   4.152 -1.3696  0.7953  0.1561
 2653SOL    MW410659   1.999   2.037   4.112 -0.0682  0.4544  0.7873
 2654SOL     OW10660   4.479   1.921   4.233  0.3181  0.3385 -0.0303
 2654SOL    HW210661   4.400   1.973   4.250  0.4006 -0.4116  2.8691
 2654SOL    HW310662   4.551   1.978   4.261  0.8738  1.1461 -2.9657
 2654SOL    MW410663   4.478   1.936   4.239  0.4025  0.3461 -0.0353
 2655SOL     OW10664   1.194   0.860   4.506 -0.3159  0.6877  0.4760
 2655SOL    HW210665   1.222   0.865   4.415  2.5929  1.5789  1.3800
 2655SOL    HW310666   1.111   0.908   4.509  0.3683  2.0118 -1.4001
 2655SOL    MW410667   1.187   0.867   4.495  0.1581  0.9800  0.3476
 2656SOL     OW10668   0.111   0.649   4.707  0.0933  0.0179  0.0537
 2656SOL    HW210669   0.018   0.673   4.698 -0.4452 -2.2223 -0.7927
 2656SOL    HW310670   0.111   0.584   4.778  0.9186 -0.4284 -0.3563
 2656SOL    MW410671   0.098   0.643   4.716  0.1312 -0.3365 -0.1121
 2657SOL     OW10672   3.633   0.461   4.565  0.0499 -0.0897 -0.0092
 2657SOL    HW210673   3.552   0.511   4.576  0.4201  0.4960  0.0964
 2657SOL    HW310674   3.605   0.370   4.555 -0.5947  0.0647  0.4119
 2657SOL    MW410675   3.619   0.455   4.565  0.0138  0.0080  0.0601
 2658SOL     OW10676   2.212   0.647   4.582 -0.1358 -0.5904  0.3797
 2658SOL    HW210677   2.253   0.729   4.556 -1.4566 -0.1147 -0.2745
 2658SOL    HW310678   2.285   0.586   4.596  0.8507  0.7272  1.0151
 2658SOL    MW410679   2.227   0.649   4.580 -0.1800 -0.3538  0.3772
 2659SOL     OW10680   0.710   0.536   4.233  0.1538  0.3285  0.0551
 2659SOL    HW210681   0.641   0.477   4.202  0.5163 -0.2589  0.3592
 2659SOL    HW310682   0.711   0.524   4.328  0.4941  0.5361  0.0783
 2659SOL    MW410683   0.701   0.527   4.241  0.2466  0.2784  0.0978
 2660SOL     OW10684   3.245   0.138   4.491 -0.1456 -0.1441  0.3020
 2660SOL    HW210685   3.173   0.098   4.540 -0.2124  0.3109  0.5770
 2660SOL    HW310686   3.214   0.139   4.400 -0.1494 -0.7015  0.2954
 2660SOL    MW410687   3.232   0.133   4.485 -0.1547 -0.1576  0.3371
 2661SOL     OW10688   3.807   1.524   4.194  0.1552 -0.1767 -0.2608
 2661SOL    HW210689   3.803   1.445   4.248 -1.6293 -0.7500 -1.1802
 2661SOL    HW310690   3.729   1.574   4.220  0.6968  0.7901 -0.4485
 2661SOL    MW410691   3.796   1.520   4.205 -0.0091 -0.1249 -0.4072
 2662SOL     OW10692   0.017   2.475   4.260  0.1302  0.4611  0.3566
 2662SOL    HW210693   0.078   2.444   4.192 -1.4709  0.1362 -0.9771
 2662SOL    HW310694  -0.066   2.433   4.238 -0.8655  1.8115  1.4617
 2662SOL    MW410695   0.014   2.465   4.248 -0.2124  0.5963  0.3266
 2663SOL     OW10696   1.977   0.537   4.507 -0.2236 -0.3126 -0.5001
 2663SOL    HW210697   1.933   0.476   4.565 -0.5050 -0.0030 -0.3840
 2663SOL    HW310698   2.066   0.544   4.541 -0.0090 -1.1339 -0.8842
 2663SOL    MW410699   1.983   0.530   4.519 -0.2326 -0.3801 -0.5355
 2664SOL     OW10700   3.390   1.588   4.614  0.4848  0.0626  0.0084
 2664SOL    HW210701   3.305   1.619   4.583 -0.1266 -0.9370  0.6430
 2664SOL    HW310702   3.393   1.613   4.707  1.3250  1.0115 -0.2702
 2664SOL    MW410703   3.379   1.595   4.622  0.5152  0.0559  0.0558
 2665SOL     OW10704   1.559   2.398   4.635  0.6410 -0.3559  0.0155
 2665SOL    HW210705   1.483   2.456   4.628  0.8114 -0.2207 -0.7540
 2665SOL    HW310706   1.524   2.311   4.614  0.7239 -0.2721 -0.4796
 2665SOL    MW410707   1.544   2.394   4.632  0.6744 -0.3271 -0.1512
 2666SOL     OW10708   2.686   1.725   4.559  0.1315  0.4290 -0.3793
 2666SOL    HW210709   2.751   1.655   4.567  1.0287  1.3270  0.2608
 2666SOL    HW310710   2.612   1.696   4.611  0.8707  0.3837  0.6479
 2666SOL    MW410711   2.685   1.712   4.567  0.3471  0.5414 -0.1593
 2667SOL     OW10712   2.245   1.657   4.257 -0.1009  0.1899 -0.2099
 2667SOL    HW210713   2.328   1.618   4.228 -1.2006 -1.4628 -1.2058
 2667SOL    HW310714   2.180   1.587   4.245 -1.6047  1.3933  0.7574
 2667SOL    MW410715   2.247   1.642   4.251 -0.4442  0.1305 -0.2136
 2668SOL     OW10716   3.538   1.794   4.496  0.2752 -0.1450 -0.3086
 2668SOL    HW210717   3.504   1.715   4.540  0.8991 -0.1385  0.2017
 2668SOL    HW310718   3.465   1.856   4.498  0.8314  0.4933  2.3424
 2668SOL    MW410719   3.524   1.791   4.502  0.4306 -0.0601  0.1087
 2669SOL     OW10720   1.621   4.376   4.506 -0.3687 -0.2860 -0.1494
 2669SOL    HW210721   1.684   4.437   4.543  1.0609 -0.6683 -1.8502
 2669SOL    HW310722   1.537   4.420   4.513  0.3987  1.1281  0.2343
 2669SOL    MW410723   1.618   4.390   4.512 -0.0787 -0.1502 -0.3233
 2670SOL     OW10724   3.623   4.238   4.126  0.3530  0.2175 -0.0443
 2670SOL    HW210725   3.706   4.267   4.164  0.4873  0.3694 -0.4510
 2670SOL    HW310726   3.611   4.149   4.160  1.5285 -0.4428 -1.3449
 2670SOL    MW410727   3.632   4.230   4.136  0.5260  0.1507 -0.2689
 2671SOL     OW10728   2.448   4.638   4.179  0.0148 -0.3487 -0.1532
 2671SOL    HW210729   2.527   4.679   4.212  0.7251 -0.9828 -1.0190
 2671SOL    HW310730   2.458   4.545   4.201 -1.0352 -0.2473  0.7711
 2671SOL    MW410731   2.460   4.631   4.186 -0.0300 -0.4191 -0.1454
 2672SOL     OW10732   2.413   1.162   4.509 -0.3401  0.1296 -0.0767
 2672SOL    HW210733   2.437   1.209   4.429  3.2342  0.5440  1.1322
 2672SOL    HW310734   2.392   1.231   4.572  0.0705 -0.0656  0.2778
 2672SOL    MW410735   2.414   1.177   4.507  0.1855  0.1585  0.1297
 2673SOL     OW10736   2.641   3.747   4.740  0.5086 -0.1145  0.6037
 2673SOL    HW210737   2.683   3.805   4.676 -0.1102  0.5869  0.8272
 2673SOL    HW310738   2.699   3.749   4.816  1.3976 -1.1758 -0.0207
 2673SOL    MW410739   2.654   3.755   4.742  0.5443 -0.1621  0.5512
 2674SOL     OW10740   4.027   2.426   4.217 -0.3538 -0.3101 -0.3819
 2674SOL    HW210741   4.027   2.413   4.311 -0.2657 -0.0490 -0.3448
 2674SOL    HW310742   4.034   2.521   4.206  0.5731 -0.4016 -0.6557
 2674SOL    MW410743   4.028   2.437   4.228 -0.2198 -0.2878 -0.4134
 2675SOL     OW10744   1.610   0.697   4.680  0.3109  0.0724  0.1890
 2675SOL    HW210745   1.536   0.757   4.679 -0.4799 -0.8923 -0.8094
 2675SOL    HW310746   1.679   0.741   4.631  0.4153  0.9808  1.1394
 2675SOL    MW410747   1.609   0.710   4.674  0.2203  0.0650  0.1826
 2676SOL     OW10748   1.995   0.969   4.673  0.1952  0.0412 -0.1115
 2676SOL    HW210749   2.027   0.917   4.746 -0.8877 -1.4414 -0.6506
 2676SOL    HW310750   1.958   1.048   4.713  0.8770 -0.0959  0.8075
 2676SOL    MW410751   1.994   0.973   4.688  0.1423 -0.1726 -0.0615
 2677SOL     OW10752   0.682   3.567   4.260 -0.7297 -0.0149 -0.1948
 2677SOL    HW210753   0.764   3.540   4.218 -0.8126 -0.2668 -0.1947
 2677SOL    HW310754   0.614   3.523   4.210 -0.7668 -1.2185  0.8955
 2677SOL    MW410755   0.684   3.558   4.248 -0.7455 -0.2067 -0.0510
 2678SOL     OW10756   4.437   1.878   4.670 -0.3989 -0.4111 -0.1181
 2678SOL    HW210757   4.377   1.805   4.689  0.2101 -1.4745 -2.1967
 2678SOL    HW310758   4.473   1.901   4.756 -1.5307 -1.7222  0.7477
 2678SOL    MW410759   4.434   1.872   4.684 -0.4683 -0.7244 -0.2780
 2679SOL     OW10760   0.828   1.352   4.680 -0.3633  0.2065  0.0233
 2679SOL    HW210761   0.751   1.328   4.628  1.5161 -1.9068 -1.8858
 2679SOL    HW310762   0.860   1.433   4.640  0.8714 -1.2245 -2.0268
 2679SOL    MW410763   0.822   1.359   4.668  0.0476 -0.2612 -0.4988
 2680SOL     OW10764   1.795   2.526   4.525  0.2432 -0.1415  0.3359
 2680SOL    HW210765   1.720   2.475   4.554  0.1468 -0.6196 -0.7408
 2680SOL    HW310766   1.777   2.615   4.555 -0.2450 -0.4573  0.9949
 2680SOL    MW410767   1.783   2.531   4.533  0.1658 -0.2460  0.2804
 2681SOL     OW10768   3.832   3.087   4.566 -0.1759  0.0706  0.6477
 2681SOL    HW210769   3.749   3.128   4.588 -0.0769  0.2477  0.6971
 2681SOL    HW310770   3.898   3.146   4.602 -0.0112  0.5612 -0.4495
 2681SOL    MW410771   3.830   3.100   4.574 -0.1411  0.1588  0.5097
 2682SOL     OW10772   1.538   1.949   4.681  0.0555  0.3088  0.4303
 2682SOL    HW210773   1.619   1.941   4.631 -0.1437 -1.3204  0.3206
 2682SOL    HW310774   1.564   1.934   4.772 -0.0051  0.5476  0.4878
 2682SOL    MW410775   1.552   1.946   4.687  0.0211  0.1254  0.4234
 2683SOL     OW10776   3.485   2.890   4.552 -0.2094 -0.4009 -0.3633
 2683SOL    HW210777   3.442   2.884   4.467 -1.7864 -1.7610  0.5197
 2683SOL    HW310778   3.415   2.880   4.616  0.6492  2.5226  1.1578
 2683SOL    MW410779   3.470   2.888   4.550 -0.3045 -0.1945 -0.0463
 2684SOL     OW10780   3.079   2.721   4.893  0.1469  0.0782  0.2921
 2684SOL    HW210781   3.019   2.724   4.819 -0.7356  0.9166  1.0350
 2684SOL    HW310782   3.055   2.641   4.940 -0.1631  0.2368  0.4024
 2684SOL    MW410783   3.068   2.711   4.890 -0.0107  0.2098  0.4048
 2685SOL     OW10784   0.046   4.267   4.218 -0.3773 -0.4712  0.0381
 2685SOL    HW210785   0.039   4.280   4.124  0.6000 -1.5726 -0.1992
 2685SOL    HW310786   0.058   4.173   4.229 -0.3965 -0.3449  1.2596
 2685SOL    MW410787   0.047   4.257   4.207 -0.2509 -0.5999  0.1678
 2686SOL     OW10788   2.010   2.316   4.181  0.2497  0.2749  0.1069
 2686SOL    HW210789   2.014   2.332   4.086  2.3563  2.1759  0.4581
 2686SOL    HW310790   1.940   2.374   4.212 -0.3253 -0.2229 -0.2463
 2686SOL    MW410791   2.001   2.326   4.172  0.4520  0.4601  0.1068
 2687SOL     OW10792   4.070   2.650   4.591  0.0967  0.1785 -0.5541
 2687SOL    HW210793   3.991   2.702   4.602  0.0156 -0.2814  1.1707
 2687SOL    HW310794   4.142   2.711   4.609  0.1224  0.4262 -1.4619
 2687SOL    MW410795   4.069   2.665   4.595  0.0896  0.1504 -0.4458
 2688SOL     OW10796   0.694   3.844   4.174 -0.0662  0.7329 -0.2238
 2688SOL    HW210797   0.670   3.755   4.202 -0.0404  0.6594 -0.4355
 2688SOL    HW310798   0.621   3.899   4.203  0.1078  0.7038  0.2698
 2688SOL    MW410799   0.681   3.839   4.182 -0.0399  0.7191 -0.1864
 2689SOL     OW10800   4.449   4.195   4.656 -0.0344  0.1841 -0.4339
 2689SOL    HW210801   4.388   4.169   4.726  0.9524 -1.0997 -0.0403
 2689SOL    HW310802   4.500   4.266   4.695 -1.2696  1.2856 -0.7720
 2689SOL    MW410803   4.447   4.201   4.670 -0.0668  0.1602 -0.4263
 2690SOL     OW10804   4.444   0.084   4.275 -0.6668  0.2951  0.4061
 2690SOL    HW210805   4.391   0.036   4.212 -1.6326  3.3142 -1.1984
 2690SOL    HW310806   4.534   0.056   4.257 -1.1196 -0.2829 -1.0707
 2690SOL    MW410807   4.449   0.074   4.264 -0.8535  0.6172 -0.0005
 2691SOL     OW10808   4.268   1.634   4.703 -0.0413 -0.4139  0.4736
 2691SOL    HW210809   4.321   1.562   4.668 -0.0587 -1.3523  2.2963
 2691SOL    HW310810   4.204   1.591   4.760 -0.9440  0.9489  0.5185
 2691SOL    MW410811   4.266   1.619   4.706 -0.1626 -0.3579  0.7200
 2692SOL     OW10812   4.483   3.384   4.519  0.2836 -0.3771  0.2685
 2692SOL    HW210813   4.498   3.343   4.434 -1.4536 -0.3251 -0.0651
 2692SOL    HW310814   4.547   3.456   4.522 -0.3944  0.3222 -1.4586
 2692SOL    MW410815   4.494   3.388   4.508 -0.0351 -0.2782 -0.0033
 2693SOL     OW10816   1.159   2.033   4.535 -0.1346 -0.1706  0.1905
 2693SOL    HW210817   1.239   2.084   4.520 -0.2603 -0.3366 -1.0132
 2693SOL    HW310818   1.099   2.095   4.577  0.6696 -0.0923  1.2688
 2693SOL    MW410819   1.162   2.048   4.539 -0.0451 -0.1822  0.1736
 2694SOL     OW10820   1.336   3.459   4.148  0.0548  0.0540 -0.3181
 2694SOL    HW210821   1.308   3.468   4.057 -0.6528  0.8803 -0.0257
 2694SOL    HW310822   1.280   3.519   4.196  0.1736 -0.6648  0.7206
 2694SOL    MW410823   1.325   3.468   4.142 -0.0230  0.0682 -0.1426
 2695SOL     OW10824   2.387   0.239   4.672 -0.4380  0.2451  0.2173
 2695SOL    HW210825   2.358   0.265   4.759  1.3721  0.2882  0.8325
 2695SOL    HW310826   2.428   0.318   4.636  0.6340 -0.3266  0.1410
 2695SOL    MW410827   2.389   0.253   4.678 -0.0577  0.1754  0.2885
 2696SOL     OW10828   1.849   1.588   4.559  0.1703 -0.4826  0.0034
 2696SOL    HW210829   1.910   1.517   4.576  0.7150 -0.3567 -1.3093
 2696SOL    HW310830   1.890   1.665   4.599 -0.2289 -0.8242  1.0805
 2696SOL    MW410831   1.863   1.589   4.566  0.1894 -0.5112 -0.0277
 2697SOL     OW10832   1.848   4.265   4.148  0.2795  0.4225 -0.3458
 2697SOL    HW210833   1.844   4.250   4.053 -2.2341  0.9655 -0.3464
 2697SOL    HW310834   1.821   4.181   4.186 -0.3176  0.7239 -0.1192
 2697SOL    MW410835   1.844   4.252   4.140 -0.1309  0.5341 -0.3161
 2698SOL     OW10836   3.305   2.520   4.635 -0.0893  0.0938  0.0188
 2698SOL    HW210837   3.280   2.597   4.687  0.8837  1.0508 -0.9054
 2698SOL    HW310838   3.231   2.506   4.576 -0.9903 -0.7020  1.3085
 2698SOL    MW410839   3.292   2.528   4.634 -0.0796  0.1152  0.0668
 2699SOL     OW10840   0.949   1.584   4.541 -0.0478 -0.4666 -0.0337
 2699SOL    HW210841   0.872   1.623   4.583  0.5012  1.4435 -0.7631
 2699SOL    HW310842   1.019   1.648   4.553  0.9035 -1.2610 -1.1982
 2699SOL    MW410843   0.948   1.597   4.548  0.1501 -0.3194 -0.2832
 2700SOL     OW10844   2.028   4.397   4.292  0.0799  0.2199  0.6215
 2700SOL    HW210845   1.963   4.354   4.236  1.6146 -0.1954 -0.8712
 2700SOL    HW310846   2.025   4.489   4.265  1.0148 -0.0280 -0.3655
 2700SOL    MW410847   2.019   4.404   4.281  0.4058  0.1326  0.2942
 2701SOL     OW10848   0.406   1.968   4.169 -0.1382 -0.4992  0.3654
 2701SOL    HW210849   0.490   2.010   4.187 -0.6901  0.8572 -0.2373
 2701SOL    HW310850   0.403   1.959   4.074 -0.3638 -1.2070  0.4363
 2701SOL    MW410851   0.417   1.972   4.159 -0.2408 -0.4135  0.2952
 2702SOL     OW10852   3.844   3.712   4.464  0.3095 -0.0115 -0.0713
 2702SOL    HW210853   3.902   3.786   4.483  1.7988 -1.2043  0.1304
 2702SOL    HW310854   3.775   3.718   4.531  0.8536  0.7487  0.4304
 2702SOL    MW410855   3.842   3.723   4.476  0.5779 -0.0687  0.0215
 2703SOL     OW10856   3.643   3.756   4.659  0.0888 -0.2473 -0.2492
 2703SOL    HW210857   3.559   3.717   4.636  0.0561  0.3769 -1.2429
 2703SOL    HW310858   3.622   3.847   4.679  0.6894  0.2501 -1.7762
 2703SOL    MW410859   3.629   3.763   4.659  0.1636 -0.0994 -0.5817
 2704SOL     OW10860   1.367   1.172   4.747  0.0265  0.0330 -0.4419
 2704SOL    HW210861   1.274   1.149   4.741  0.3621 -1.1905 -1.1782
 2704SOL    HW310862   1.386   1.216   4.664  0.0355  0.5303 -0.1753
 2704SOL    MW410863   1.357   1.175   4.735  0.0720 -0.0628 -0.5040
 2705SOL     OW10864   3.189   0.331   4.132  0.0685  0.0338  0.1189
 2705SOL    HW210865   3.201   0.243   4.167  1.4067  0.4046  0.6339
 2705SOL    HW310866   3.099   0.353   4.153 -0.7501 -1.7698 -1.3312
 2705SOL    MW410867   3.179   0.322   4.139  0.1371 -0.1552 -0.0048
 2706SOL     OW10868   2.804   1.994   4.917  0.0630  0.0862  0.2777
 2706SOL    HW210869   2.871   1.973   4.983  0.7023 -0.9599 -0.6893
 2706SOL    HW310870   2.782   2.085   4.935  1.2929  0.2591  1.0183
 2706SOL    MW410871   2.810   2.003   4.928  0.3095 -0.0291  0.2484
 2707SOL     OW10872   4.005   1.945   4.170  0.0571 -0.0095  0.5559
 2707SOL    HW210873   3.937   2.004   4.205 -0.4664 -1.4462  2.0210
 2707SOL    HW310874   3.990   1.862   4.215  1.0027 -1.1799 -1.2484
 2707SOL    MW410875   3.994   1.942   4.181  0.1128 -0.3535  0.5112
 2708SOL     OW10876   0.007   2.435   4.541 -0.0993  0.4822 -0.0191
 2708SOL    HW210877   0.002   2.433   4.445  0.0075  1.1860 -0.0414
 2708SOL    HW310878  -0.035   2.354   4.568 -1.5732  1.0155 -0.6094
 2708SOL    MW410879   0.001   2.424   4.532 -0.2796  0.6452 -0.0997
 2709SOL     OW10880   1.779   2.771   4.662  0.1135  0.0073  0.1660
 2709SOL    HW210881   1.692   2.802   4.637  0.4095 -0.1561 -1.1379
 2709SOL    HW310882   1.835   2.849   4.659  0.7788 -0.5089 -2.7446
 2709SOL    MW410883   1.775   2.785   4.658  0.2403 -0.0823 -0.3901
 2710SOL     OW10884   4.040   3.913   4.516 -0.1364  0.3116 -0.0300
 2710SOL    HW210885   3.972   3.974   4.541 -1.3428 -1.4747  1.1443
 2710SOL    HW310886   4.044   3.919   4.420 -0.8268  1.5782  0.0142
 2710SOL    MW410887   4.032   3.922   4.507 -0.3867  0.2432  0.1311
 2711SOL     OW10888   1.091   2.665   4.657 -0.5649 -0.4598  0.0366
 2711SOL    HW210889   1.180   2.644   4.630 -0.3315 -0.9037  1.1440
 2711SOL    HW310890   1.036   2.604   4.608 -0.1578 -1.1155  0.3853
 2711SOL    MW410891   1.095   2.654   4.647 -0.4804 -0.6051  0.2289
 2712SOL     OW10892   1.777   1.975   4.545 -0.1073  0.3948 -0.5284
 2712SOL    HW210893   1.800   2.068   4.553 -0.8650  0.5049  0.3633
 2712SOL    HW310894   1.789   1.956   4.452 -2.0502  1.9585 -1.1345
 2712SOL    MW410895   1.782   1.985   4.533 -0.4636  0.6156 -0.4911
 2713SOL     OW10896   2.911   0.422   4.505  0.0317  0.5366 -0.2730
 2713SOL    HW210897   2.927   0.431   4.411  1.4923 -1.4897 -0.2529
 2713SOL    HW310898   2.981   0.473   4.546  1.3003 -1.1675 -0.2750
 2713SOL    MW410899   2.922   0.430   4.498  0.3917  0.0444 -0.2708
 2714SOL     OW10900   3.146   1.083   4.561  0.5242  0.5398  0.7923
 2714SOL    HW210901   3.119   0.991   4.565  0.6289  0.5245  1.1768
 2714SOL    HW310902   3.064   1.133   4.560  0.4592  0.4192 -0.0383
 2714SOL    MW410903   3.132   1.078   4.562  0.5295  0.5218  0.7334
 2715SOL     OW10904   4.328   0.739   4.625 -0.2129  0.0713  0.0449
 2715SOL    HW210905   4.233   0.750   4.629 -0.1507  0.3373  1.0056
 2715SOL    HW310906   4.360   0.820   4.587 -0.2964  0.3866  0.6385
 2715SOL    MW410907   4.319   0.751   4.621 -0.2160  0.1480  0.2494
 2716SOL     OW10908   1.423   0.908   4.643 -0.2907 -0.3497  0.1163
 2716SOL    HW210909   1.398   0.983   4.697 -0.0175  0.0931 -0.3644
 2716SOL    HW310910   1.343   0.885   4.596 -0.7535 -1.2707  1.3289
 2716SOL    MW410911   1.409   0.915   4.644 -0.3157 -0.4128  0.2122
 2717SOL     OW10912   2.301   1.332   4.701 -0.4751 -0.0114 -0.1661
 2717SOL    HW210913   2.206   1.321   4.694 -0.3866  0.0232 -1.6575
 2717SOL    HW310914   2.314   1.426   4.712 -0.5501  0.1848 -1.6095
 2717SOL    MW410915   2.290   1.343   4.701 -0.4733  0.0191 -0.5531
 2718SOL     OW10916   1.146   0.524   4.270  0.0688 -0.0667  0.1201
 2718SOL    HW210917   1.113   0.549   4.356 -0.7890 -0.5544 -0.0579
 2718SOL    HW310918   1.072   0.478   4.229  1.2068 -1.8661  0.0206
 2718SOL    MW410919   1.132   0.521   4.276  0.1057 -0.3685  0.0834
 2719SOL     OW10920   2.907   2.969   4.963  0.0551 -0.1028  0.1327
 2719SOL    HW210921   2.960   2.890   4.951 -1.9508 -1.4854  0.1726
 2719SOL    HW310922   2.930   3.024   4.888  1.4773 -0.7060  0.1076
 2719SOL    MW410923   2.917   2.966   4.951 -0.0219 -0.3650  0.1349
 2720SOL     OW10924   1.466   3.211   4.456  0.0788  0.2692 -0.0320
 2720SOL    HW210925   1.556   3.188   4.477 -0.4959 -0.3580  1.8556
 2720SOL    HW310926   1.452   3.294   4.501 -0.5175 -0.0261  0.3339
 2720SOL    MW410927   1.476   3.219   4.465 -0.0757  0.1473  0.2651
 2721SOL     OW10928   1.362   0.382   4.165  0.5862 -0.1656  0.3184
 2721SOL    HW210929   1.285   0.428   4.201  0.4096 -0.9185  0.9036
 2721SOL    HW310930   1.436   0.421   4.211  0.5419  0.4173 -0.0958
 2721SOL    MW410931   1.361   0.393   4.176  0.5572 -0.1881  0.3414
 2722SOL     OW10932   2.922   2.100   4.227  0.1160 -0.2491  0.0038
 2722SOL    HW210933   2.932   2.073   4.318  0.5744 -0.4394 -0.1065
 2722SOL    HW310934   2.874   2.028   4.186 -2.4049  0.9668  0.6910
 2722SOL    MW410935   2.917   2.087   4.233 -0.1559 -0.1140  0.0801
 2723SOL     OW10936   1.018   0.113   4.505 -0.2572  0.1394 -0.0802
 2723SOL    HW210937   0.968   0.183   4.546 -2.3979 -0.8224 -0.9970
 2723SOL    HW310938   1.002   0.124   4.411  0.3803 -0.8635 -0.3132
 2723SOL    MW410939   1.010   0.124   4.498 -0.4555 -0.1198 -0.2317
 2724SOL     OW10940   2.453   0.487   4.562  0.0747 -0.1648  0.1188
 2724SOL    HW210941   2.535   0.519   4.598  0.0961 -0.8039  0.6611
 2724SOL    HW310942   2.466   0.487   4.467 -0.5672  3.1241 -0.0310
 2724SOL    MW410943   2.465   0.491   4.554 -0.0072  0.1848  0.1702
 2725SOL     OW10944   2.472   1.260   4.267  0.0692 -0.3710 -0.2421
 2725SOL    HW210945   2.550   1.221   4.228  0.4491 -0.2453  0.3797
 2725SOL    HW310946   2.476   1.352   4.243 -0.5441 -0.6079 -1.2564
 2725SOL    MW410947   2.482   1.267   4.259  0.0389 -0.3858 -0.2933
 2726SOL     OW10948   3.367   2.823   4.305 -0.2716  0.4055 -0.3059
 2726SOL    HW210949   3.439   2.775   4.264  0.0606 -0.2991  1.0798
 2726SOL    HW310950   3.291   2.803   4.251  0.3275  0.1696 -1.0733
 2726SOL    MW410951   3.366   2.814   4.292 -0.1488  0.2813 -0.2241
 2727SOL     OW10952   0.735   3.813   4.627 -0.0363  0.1607 -0.3909
 2727SOL    HW210953   0.814   3.794   4.678 -0.0151  1.7924  0.2122
 2727SOL    HW310954   0.720   3.733   4.576  2.1891 -0.0473 -0.7665
 2727SOL    MW410955   0.744   3.800   4.627  0.2601  0.3486 -0.3605
 2728SOL     OW10956   4.262   0.475   4.234 -0.5585  0.2082  0.0480
 2728SOL    HW210957   4.347   0.439   4.206 -1.4611 -0.6129 -1.7201
 2728SOL    HW310958   4.268   0.479   4.329  1.5074  0.2537 -0.0642
 2728SOL    MW410959   4.274   0.470   4.243 -0.4048  0.1059 -0.2003
 2729SOL     OW10960   0.392   1.473   4.687 -0.0935  0.8307  0.7059
 2729SOL    HW210961   0.310   1.426   4.671  0.5386 -0.6251  1.7182
 2729SOL    HW310962   0.398   1.480   4.782  1.1190  0.6584  0.6502
 2729SOL    MW410963   0.382   1.468   4.697  0.1499  0.6160  0.8321
 2730SOL     OW10964   2.918   2.271   4.677  0.0543 -0.1081  0.6878
 2730SOL    HW210965   2.846   2.213   4.652 -0.3574  0.5050  0.4278
 2730SOL    HW310966   2.875   2.345   4.719  0.5767  0.0087  1.0124
 2730SOL    MW410967   2.902   2.273   4.679  0.0689 -0.0117  0.6962
 2731SOL     OW10968   0.031   3.940   4.552 -0.1151  0.0981  0.0515
 2731SOL    HW210969  -0.051   3.895   4.573 -0.7088  0.8718 -0.5529
 2731SOL    HW310970   0.019   4.028   4.588  1.0625 -0.2353  1.2899
 2731SOL    MW410971   0.019   3.946   4.559 -0.0380  0.1559  0.1354
 2732SOL     OW10972   1.957   2.866   4.276  0.1175  0.0972  0.0518
 2732SOL    HW210973   1.974   2.951   4.237  0.1249 -0.3248 -0.8849
 2732SOL    HW310974   2.005   2.867   4.358 -0.3113  1.1878  0.2977
 2732SOL    MW410975   1.965   2.877   4.282  0.0620  0.1855 -0.0396
 2733SOL     OW10976   0.427   2.435   4.246  0.3323  0.3558  0.4608
 2733SOL    HW210977   0.424   2.519   4.200  0.0323 -0.5439 -1.2086
 2733SOL    HW310978   0.504   2.391   4.210  0.4208 -0.1304  1.2421
 2733SOL    MW410979   0.436   2.441   4.235  0.3044  0.1729  0.3433
 2734SOL     OW10980   1.567   0.478   4.313 -0.3020 -0.3880  0.1680
 2734SOL    HW210981   1.557   0.461   4.407  0.0073 -0.8507  0.1160
 2734SOL    HW310982   1.554   0.573   4.305 -0.2329 -0.3333  0.6908
 2734SOL    MW410983   1.564   0.488   4.324 -0.2521 -0.4418  0.2303
 2735SOL     OW10984   4.128   0.346   4.605 -0.6708  0.3084 -0.0141
 2735SOL    HW210985   4.051   0.402   4.596 -1.6737 -0.5982  2.4278
 2735SOL    HW310986   4.107   0.268   4.554 -1.4944 -0.0544  0.8756
 2735SOL    MW410987   4.115   0.343   4.597 -0.9117  0.1409  0.4249
 2736SOL     OW10988   4.250   3.548   4.511 -0.8388  0.3255 -0.6612
 2736SOL    HW210989   4.319   3.484   4.530  0.2646  1.8711  0.6414
 2736SOL    HW310990   4.258   3.564   4.417 -0.1835 -0.3665 -0.7299
 2736SOL    MW410991   4.260   3.542   4.501 -0.6070  0.4382 -0.4988
 2737SOL     OW10992   2.455   3.082   4.138 -0.3142 -0.4325  0.0413
 2737SOL    HW210993   2.532   3.115   4.184 -0.0898 -0.7194 -0.1316
 2737SOL    HW310994   2.392   3.154   4.143 -0.2274 -0.3955  0.6416
 2737SOL    MW410995   2.456   3.096   4.145 -0.2732 -0.4654  0.0978
 2738SOL     OW10996   3.329   2.319   4.176 -0.1724 -0.2416  0.2982
 2738SOL    HW210997   3.337   2.316   4.081 -1.0851 -1.5961  0.2546
 2738SOL    HW310998   3.408   2.365   4.205 -0.0225  0.4146 -1.1257
 2738SOL    MW410999   3.341   2.324   4.167 -0.2730 -0.3333  0.1044
 2739SOL     OW11000   3.698   2.410   4.509  0.0932 -0.0715  0.0704
 2739SOL    HW211001   3.654   2.477   4.560  1.1577  0.4414  0.3218
 2739SOL    HW311002   3.670   2.327   4.548 -0.0203  0.2791  0.7333
 2739SOL    MW411003   3.688   2.408   4.521  0.2189  0.0422  0.1917
 2740SOL     OW11004   0.320   0.526   4.528  0.2915  0.3010  0.4579
 2740SOL    HW211005   0.330   0.442   4.574  1.7942  0.6327  0.7551
 2740SOL    HW311006   0.243   0.566   4.568  0.4615 -0.2591  1.3541
 2740SOL    MW411007   0.311   0.520   4.539  0.5122  0.2710  0.6156
 2741SOL     OW11008   0.860   4.050   4.539 -0.3260  0.4606  0.1851
 2741SOL    HW211009   0.822   3.977   4.588 -0.5488  0.2385 -0.3220
 2741SOL    HW311010   0.889   4.011   4.457  0.1843  0.8065  0.2039
 2741SOL    MW411011   0.859   4.035   4.535 -0.2881  0.4768  0.1206
 2742SOL     OW11012   0.885   2.435   4.260  0.1536 -0.0819  0.5229
 2742SOL    HW211013   0.965   2.402   4.220 -0.0628  0.3316 -0.2598
 2742SOL    HW311014   0.815   2.387   4.217  0.0012 -0.6918  1.4550
 2742SOL    MW411015   0.886   2.425   4.249  0.1050 -0.1078  0.5422
 2743SOL     OW11016   2.023   3.913   4.171 -0.4173 -0.0972 -0.1439
 2743SOL    HW211017   1.938   3.952   4.194 -0.8408 -0.9683 -0.2045
 2743SOL    HW311018   2.024   3.913   4.075 -1.3591 -2.1887 -0.1888
 2743SOL    MW411019   2.012   3.918   4.161 -0.5972 -0.4883 -0.1574
 2744SOL     OW11020   0.939   3.996   4.278  0.1035  0.3065  0.0087
 2744SOL    HW211021   0.911   4.083   4.250 -0.0749  0.3403  0.2864
 2744SOL    HW311022   0.867   3.938   4.252  0.0336  0.3063  0.2025
 2744SOL    MW411023   0.926   4.000   4.271  0.0707  0.3111  0.0710
 2745SOL     OW11024   2.026   0.529   4.242  0.1054  0.0042 -0.0445
 2745SOL    HW211025   2.106   0.478   4.233 -0.4540 -0.8300 -0.3690
 2745SOL    HW311026   2.012   0.538   4.336 -0.7920 -2.0486  0.0348
 2745SOL    MW411027   2.034   0.524   4.253 -0.0868 -0.3768 -0.0768
 2746SOL     OW11028   2.228   0.128   4.248 -0.1061 -0.0998 -0.2152
 2746SOL    HW211029   2.297   0.072   4.212  0.3170  0.0584  0.3404
 2746SOL    HW311030   2.147   0.091   4.214  0.1451 -1.2513  0.4008
 2746SOL    MW411031   2.226   0.116   4.239 -0.0169 -0.2309 -0.0606
 2747SOL     OW11032   2.469   4.147   4.827 -0.1912 -0.5450  0.5055
 2747SOL    HW211033   2.413   4.216   4.791  0.7779 -0.0099  0.0193
 2747SOL    HW311034   2.433   4.066   4.790  0.3124 -0.0738 -1.0739
 2747SOL    MW411035   2.457   4.145   4.817  0.0029 -0.4120  0.2332
 2748SOL     OW11036   3.087   0.821   4.517  0.0616 -0.1626  0.3099
 2748SOL    HW211037   3.105   0.751   4.580  0.4353  0.8695  1.3723
 2748SOL    HW311038   2.993   0.816   4.501 -0.2259  0.2466  1.7902
 2748SOL    MW411039   3.077   0.812   4.523  0.0727  0.0276  0.6456
 2749SOL     OW11040   0.426   3.224   4.273  0.1426 -0.1006 -0.2073
 2749SOL    HW211041   0.497   3.164   4.253 -0.5723 -0.9881 -0.1144
 2749SOL    HW311042   0.453   3.308   4.236  2.1706  0.0963  1.6055
 2749SOL    MW411043   0.439   3.227   4.266  0.3158 -0.1917  0.0448
 2750SOL     OW11044   2.121   1.961   4.867 -0.8683 -0.3836  0.8149
 2750SOL    HW211045   2.205   1.921   4.887 -0.6131 -0.4614 -0.3714
 2750SOL    HW311046   2.132   2.054   4.887 -0.0150 -0.1274 -0.7673
 2750SOL    MW411047   2.133   1.968   4.872 -0.7217 -0.3601  0.4501
 2751SOL     OW11048   2.913   1.274   4.265  0.4223  0.6190  0.0787
 2751SOL    HW211049   2.987   1.223   4.232 -0.3999 -0.4243 -0.1583
 2751SOL    HW311050   2.836   1.233   4.227 -0.3380  1.2410  0.9242
 2751SOL    MW411051   2.913   1.262   4.256  0.2134  0.5634  0.1593
 2752SOL     OW11052   1.043   0.630   4.518  0.4160  0.1609  0.3083
 2752SOL    HW211053   1.062   0.571   4.591  0.4564 -0.4997 -0.2296
 2752SOL    HW311054   1.103   0.703   4.530  0.8933 -0.2685  0.5513
 2752SOL    MW411055   1.053   0.632   4.529  0.4842  0.0170  0.2694
 2753SOL     OW11056   0.463   4.227   4.161  0.1368 -0.1520 -0.0701
 2753SOL    HW211057   0.441   4.233   4.068 -1.3534 -1.1659  0.2110
 2753SOL    HW311058   0.402   4.286   4.204  0.8843  0.3846  0.2655
 2753SOL    MW411059   0.452   4.236   4.154  0.0388 -0.2151  0.0110
 2754SOL     OW11060   2.185   2.724   4.176  0.2352  0.1655  0.4737
 2754SOL    HW211061   2.097   2.758   4.196  0.5869  2.0957 -1.0706
 2754SOL    HW311062   2.243   2.774   4.234  0.3867 -0.7536  1.1317
 2754SOL    MW411063   2.181   2.735   4.187  0.3016  0.2990  0.3567
 2755SOL     OW11064   3.058   2.011   5.076 -0.7887 -0.3818  0.0905
 2755SOL    HW211065   3.030   2.084   5.131 -0.8860  0.0188 -0.4874
 2755SOL    HW311066   3.083   2.051   4.993  0.6221 -0.8476  0.2828
 2755SOL    MW411067   3.058   2.026   5.072 -0.6154 -0.3905  0.0401
 2756SOL     OW11068   1.371   4.516   4.608 -0.0585  0.0267 -0.1366
 2756SOL    HW211069   1.289   4.469   4.622  0.2130 -0.2534  0.5459
 2756SOL    HW311070   1.344   4.604   4.579 -0.5577 -0.6023 -1.5960
 2756SOL    MW411071   1.356   4.522   4.606 -0.0885 -0.0930 -0.2389
 2757SOL     OW11072   1.208   3.289   4.696 -0.4095 -0.0115 -0.3375
 2757SOL    HW211073   1.266   3.356   4.660  0.3890 -0.4671  0.0563
 2757SOL    HW311074   1.152   3.264   4.623  0.5062 -0.2049 -0.9962
 2757SOL    MW411075   1.208   3.294   4.682 -0.1832 -0.0973 -0.3724
 2758SOL     OW11076   1.884   3.659   4.480 -0.3971  0.3010 -0.3089
 2758SOL    HW211077   1.794   3.655   4.511 -0.3151  0.4309 -0.0457
 2758SOL    HW311078   1.925   3.725   4.536 -0.1666  0.3161 -0.4952
 2758SOL    MW411079   1.878   3.667   4.492 -0.3560  0.3202 -0.2990
 2759SOL     OW11080   4.034   0.049   4.227 -0.1802 -0.0912  0.5181
 2759SOL    HW211081   3.955  -0.005   4.218  0.1442 -0.7802  1.6503
 2759SOL    HW311082   4.003   0.139   4.213 -1.0592 -0.3994  0.3953
 2759SOL    MW411083   4.019   0.054   4.224 -0.2532 -0.2227  0.6518
 2760SOL     OW11084   4.131   0.101   4.482 -0.4694  0.1826 -0.1219
 2760SOL    HW211085   4.201   0.036   4.481 -0.1386  0.5236  0.6415
 2760SOL    HW311086   4.085   0.088   4.399 -2.1486 -2.9376  1.1836
 2760SOL    MW411087   4.134   0.091   4.471 -0.6475 -0.1841  0.1512
 2761SOL     OW11088   0.421   1.723   4.547  0.2712 -0.6206  0.5722
 2761SOL    HW211089   0.331   1.753   4.537  0.2557 -1.1693 -1.0504
 2761SOL    HW311090   0.413   1.638   4.590 -0.0920 -1.3180 -0.8354
 2761SOL    MW411091   0.408   1.715   4.552  0.2212 -0.7851  0.1726
 2762SOL     OW11092   3.979   4.009   4.821 -0.3195 -0.7053  0.4958
 2762SOL    HW211093   3.960   3.918   4.797 -2.5534 -0.1655  0.0808
 2762SOL    HW311094   3.942   4.018   4.909  0.5058 -0.3852  0.8088
 2762SOL    MW411095   3.972   3.998   4.830 -0.5054 -0.5920  0.4821
 2763SOL     OW11096   2.249   0.925   4.518 -0.4524  0.0122 -0.7024
 2763SOL    HW211097   2.167   0.956   4.557 -1.7107 -2.3337 -1.4151
 2763SOL    HW311098   2.309   0.999   4.527 -2.0009  1.0245  1.7511
 2763SOL    MW411099   2.246   0.939   4.524 -0.8228 -0.1637 -0.4725
 2764SOL     OW11100   0.163   1.303   4.584  0.6071 -0.4337  0.1121
 2764SOL    HW211101   0.196   1.303   4.494  2.2361 -0.6796  0.6834
 2764SOL    HW311102   0.141   1.211   4.601 -0.5342 -0.2391 -0.3313
 2764SOL    MW411103   0.165   1.291   4.574  0.6714 -0.4404  0.1287
 2765SOL     OW11104   4.085   4.208   4.147 -0.1256  0.0382 -0.3478
 2765SOL    HW211105   4.163   4.247   4.187 -1.0722  0.3817  1.2447
 2765SOL    HW311106   4.078   4.122   4.188 -0.3263 -0.1670 -0.8170
 2765SOL    MW411107   4.094   4.202   4.158 -0.2775  0.0563 -0.1998
 2766SOL     OW11108   2.883   1.539   4.558 -0.0857 -0.0469  0.3504
 2766SOL    HW211109   2.908   1.446   4.557  0.6384  0.1431  0.7364
 2766SOL    HW311110   2.966   1.586   4.565 -0.4856  0.6199  0.6383
 2766SOL    MW411111   2.897   1.533   4.559 -0.0427  0.0660  0.4392
 2767SOL     OW11112   4.252   4.050   4.818  0.4118  0.3700 -0.0721
 2767SOL    HW211113   4.158   4.046   4.802  0.3278  0.4506  0.3901
 2767SOL    HW311114   4.285   3.965   4.789  0.2094  0.3751 -0.3177
 2767SOL    MW411115   4.244   4.038   4.812  0.3738  0.3810 -0.0434
 2768SOL     OW11116   2.656   2.284   4.914 -0.2545 -0.2925  0.3255
 2768SOL    HW211117   2.583   2.339   4.944  0.4034 -0.1366  1.7175
 2768SOL    HW311118   2.708   2.342   4.858 -0.5484 -0.0365  0.3173
 2768SOL    MW411119   2.653   2.299   4.911 -0.2065 -0.2384  0.5088
 2769SOL     OW11120   1.807   1.913   4.290 -0.1877  0.4779  0.2389
 2769SOL    HW211121   1.865   1.946   4.221 -0.1881 -0.3213 -0.1500
 2769SOL    HW311122   1.807   1.818   4.278  0.1371  0.3044  1.6218
 2769SOL    MW411123   1.815   1.905   4.279 -0.1448  0.3495  0.3705
 2770SOL     OW11124   3.115   2.187   4.852 -0.2627 -0.0107 -0.6400
 2770SOL    HW211125   3.050   2.203   4.784  0.8903  1.0105 -1.5132
 2770SOL    HW311126   3.199   2.191   4.807  0.4921  0.2419  0.7698
 2770SOL    MW411127   3.117   2.189   4.837 -0.0110  0.1576 -0.5689
 2771SOL     OW11128   2.706   1.916   4.135 -0.5472 -0.3586  0.0113
 2771SOL    HW211129   2.714   1.924   4.040 -1.1183 -1.3528 -0.1176
 2771SOL    HW311130   2.621   1.955   4.155 -0.1977  0.3207  0.1733
 2771SOL    MW411131   2.696   1.922   4.125 -0.5767 -0.4002  0.0157
 2772SOL     OW11132   1.565   4.132   4.602 -0.1467  0.1783  0.0769
 2772SOL    HW211133   1.591   4.217   4.566  0.9502 -0.4294 -0.5867
 2772SOL    HW311134   1.520   4.154   4.684  0.5758  1.3788  0.1672
 2772SOL    MW411135   1.563   4.146   4.608  0.0933  0.2565  0.0010
 2773SOL     OW11136   4.334   2.175   4.554 -0.7298  0.3489 -0.0034
 2773SOL    HW211137   4.250   2.199   4.592 -0.9652  0.3918 -0.5668
 2773SOL    HW311138   4.336   2.080   4.558 -1.1129  0.3169 -0.6787
 2773SOL    MW411139   4.323   2.166   4.560 -0.8111  0.3505 -0.1669
 2774SOL     OW11140   0.214   3.558   4.460  0.0583  0.1219 -0.5341
 2774SOL    HW211141   0.226   3.625   4.527 -3.5544  0.3548 -0.0581
 2774SOL    HW311142   0.262   3.482   4.493  0.1412  0.9298  1.2373
 2774SOL    MW411143   0.222   3.557   4.473 -0.4074  0.2594 -0.2379
 2775SOL     OW11144   3.127   1.669   4.550 -0.2005  0.3227  0.2601
 2775SOL    HW211145   3.128   1.688   4.456 -0.6352 -0.2687  0.1342
 2775SOL    HW311146   3.102   1.752   4.591 -1.6720  0.1470 -0.2625
 2775SOL    MW411147   3.124   1.682   4.543 -0.4523  0.2214  0.1740
 2776SOL     OW11148   3.994   2.403   4.499  0.0793 -0.6309 -0.1061
 2776SOL    HW211149   3.898   2.408   4.500  0.0856  0.4493 -2.5396
 2776SOL    HW311150   4.023   2.488   4.533  0.1992 -1.6459  2.4024
 2776SOL    MW411151   3.985   2.415   4.504  0.0958 -0.6223 -0.0963
 2777SOL     OW11152   1.568   3.598   4.225  0.3436  0.1753  0.3816
 2777SOL    HW211153   1.484   3.556   4.206 -0.0660  1.5297 -0.9186
 2777SOL    HW311154   1.633   3.546   4.177 -0.1259  0.8527 -1.0169
 2777SOL    MW411155   1.566   3.586   4.216  0.2276  0.4432  0.0257
 2778SOL     OW11156   3.061   2.481   4.509 -0.0387  0.0396  0.3624
 2778SOL    HW211157   3.018   2.556   4.549  0.0138 -0.0251  0.5400
 2778SOL    HW311158   3.028   2.405   4.557 -0.3713 -0.0820 -0.0596
 2778SOL    MW411159   3.051   2.481   4.520 -0.0758  0.0150  0.3304
 2779SOL     OW11160   0.223   2.844   4.234  0.0455  0.0521 -0.1693
 2779SOL    HW211161   0.231   2.840   4.330 -1.1970  1.4301  0.0152
 2779SOL    HW311162   0.212   2.937   4.215 -1.6930 -0.3822 -1.4757
 2779SOL    MW411163   0.222   2.856   4.244 -0.3478  0.1764 -0.3176
 2780SOL     OW11164   2.902   1.891   4.675  0.0795 -0.5372  0.0658
 2780SOL    HW211165   2.819   1.852   4.649  0.7999 -1.4326 -0.9464
 2780SOL    HW311166   2.890   1.917   4.766 -1.3534 -0.5130 -0.1249
 2780SOL    MW411167   2.890   1.889   4.684 -0.0145 -0.6521 -0.0930
 2781SOL     OW11168   0.258   3.812   4.664 -0.0189 -0.0982 -0.1260
 2781SOL    HW211169   0.180   3.843   4.618  0.7360  1.4927 -0.3557
 2781SOL    HW311170   0.237   3.821   4.757 -0.4808 -0.6615 -0.1680
 2781SOL    MW411171   0.245   3.817   4.670  0.0197  0.0374 -0.1616
 2782SOL     OW11172   3.826   2.794   4.564 -0.1871  0.4137 -0.1084
 2782SOL    HW211173   3.815   2.888   4.576 -0.2732  0.4689 -0.6128
 2782SOL    HW311174   3.752   2.754   4.609 -0.6827  0.6348 -0.7149
 2782SOL    MW411175   3.815   2.801   4.571 -0.2642  0.4499 -0.2546
 2783SOL     OW11176   2.717   4.011   4.314 -0.1416  0.0990 -0.1338
 2783SOL    HW211177   2.654   3.957   4.267 -0.8823 -0.1050  1.0774
 2783SOL    HW311178   2.708   4.098   4.276 -1.5877  0.2075  0.4392
 2783SOL    MW411179   2.708   4.015   4.303 -0.4301  0.0858  0.1016
 2784SOL     OW11180   1.349   2.582   4.574  0.1936 -0.2046  0.2221
 2784SOL    HW211181   1.329   2.541   4.490  0.3998 -0.3029  0.2218
 2784SOL    HW311182   1.400   2.659   4.551 -0.8179  0.4599  0.1758
 2784SOL    MW411183   1.353   2.587   4.560  0.0875 -0.1297  0.2160
 2785SOL     OW11184   3.527   0.173   4.527  0.0242 -0.5123  0.1089
 2785SOL    HW211185   3.432   0.178   4.521  0.0672 -1.7572 -2.0629
 2785SOL    HW311186   3.543   0.103   4.591 -0.5493 -2.1050 -1.4519
 2785SOL    MW411187   3.517   0.165   4.535 -0.0458 -0.8867 -0.3834
 2786SOL     OW11188   2.687   4.248   4.652 -0.1187 -0.2405 -0.1731
 2786SOL    HW211189   2.625   4.225   4.720 -0.2242  0.2071 -0.1184
 2786SOL    HW311190   2.653   4.330   4.615 -0.0549 -0.4698 -0.7470
 2786SOL    MW411191   2.674   4.256   4.656 -0.1245 -0.2112 -0.2418
 2787SOL     OW11192   2.204   0.070   4.516  0.0341  0.0867 -0.0680
 2787SOL    HW211193   2.212   0.111   4.430  0.9323 -2.4405 -1.2579
 2787SOL    HW311194   2.257   0.125   4.574 -1.3924  2.3886 -0.8726
 2787SOL    MW411195   2.212   0.083   4.513 -0.0353  0.0570 -0.3309
 2788SOL     OW11196   0.193   1.022   4.644 -0.3541 -0.3267 -0.4880
 2788SOL    HW211197   0.179   0.971   4.724  1.5369  1.1115  0.8109
 2788SOL    HW311198   0.115   1.005   4.591 -1.1326 -2.1883  1.1727
 2788SOL    MW411199   0.181   1.013   4.648 -0.2073 -0.3825 -0.0973
 2789SOL     OW11200   0.243   2.921   4.513 -0.6113  0.0052 -0.3935
 2789SOL    HW211201   0.208   2.991   4.568  0.6294  0.7112 -0.4779
 2789SOL    HW311202   0.218   2.841   4.558  0.5144  0.5694  1.3165
 2789SOL    MW411203   0.235   2.920   4.526 -0.2990  0.1726 -0.1788
 2790SOL     OW11204   0.528   2.945   4.517 -0.2775 -0.3806 -0.2212
 2790SOL    HW211205   0.432   2.948   4.513 -0.3082 -1.3348 -0.3943
 2790SOL    HW311206   0.556   2.949   4.425 -0.0528  2.1480 -0.0797
 2790SOL    MW411207   0.519   2.946   4.504 -0.2519 -0.1731 -0.2251
 2791SOL     OW11208   3.141   1.935   4.153 -0.0372 -0.0835  0.6597
 2791SOL    HW211209   3.077   1.999   4.184 -0.3485  0.9321 -1.8720
 2791SOL    HW311210   3.225   1.970   4.181 -0.3044  0.7571  0.4366
 2791SOL    MW411211   3.143   1.948   4.160 -0.1135  0.1614  0.2961
 2792SOL     OW11212   0.677   2.183   4.509  0.1777 -0.3938  0.2844
 2792SOL    HW211213   0.661   2.276   4.494 -0.3665 -0.3130  1.2896
 2792SOL    HW311214   0.591   2.148   4.533 -0.1527 -1.6702 -2.5455
 2792SOL    MW411215   0.663   2.191   4.511  0.0623 -0.5515  0.0434
 2793SOL     OW11216   3.377   0.593   4.533 -0.0590  0.4571 -0.4492
 2793SOL    HW211217   3.409   0.682   4.527  2.6880 -0.3225  1.7322
 2793SOL    HW311218   3.395   0.555   4.447  0.4180  1.4674 -0.7995
 2793SOL    MW411219   3.383   0.599   4.521  0.3662  0.4875 -0.2074
 2794SOL     OW11220   3.358   0.738   4.139 -0.2639  0.0832 -0.0075
 2794SOL    HW211221   3.279   0.779   4.175 -2.1828 -1.7503 -2.0167
 2794SOL    HW311222   3.375   0.664   4.197  0.2388  0.7363  0.6814
 2794SOL    MW411223   3.350   0.734   4.152 -0.4508 -0.0725 -0.1812
 2795SOL     OW11224   3.635   0.067   4.276  0.2549  0.5913  0.4397
 2795SOL    HW211225   3.615   0.062   4.369 -2.9653 -0.4113 -0.2435
 2795SOL    HW311226   3.618   0.159   4.253 -0.1492  0.5526  0.5864
 2795SOL    MW411227   3.630   0.079   4.285 -0.2234  0.4539  0.3691
 2796SOL     OW11228   0.475   1.029   4.544  0.3146  0.3458 -0.2543
 2796SOL    HW211229   0.464   1.003   4.453 -0.3484 -0.9257  0.1746
 2796SOL    HW311230   0.385   1.037   4.578  0.5586  0.5706  0.3501
 2796SOL    MW411231   0.461   1.027   4.536  0.2593  0.2077 -0.1178
 2797SOL     OW11232   3.798   2.805   4.276  0.4095 -0.0524  0.5570
 2797SOL    HW211233   3.720   2.757   4.249  0.8905 -1.0738  0.9302
 2797SOL    HW311234   3.795   2.803   4.372  0.8666 -0.0726  0.5748
 2797SOL    MW411235   3.787   2.798   4.285  0.5333 -0.1898  0.6084
 2798SOL     OW11236   1.321   0.876   4.249  0.4844  0.5632 -0.0837
 2798SOL    HW211237   1.408   0.836   4.251  0.0267 -0.4911 -0.7553
 2798SOL    HW311238   1.337   0.968   4.226  1.3697  0.2490 -0.7369
 2798SOL    MW411239   1.335   0.883   4.246  0.5407  0.3826 -0.2584
 2799SOL     OW11240   3.559   2.427   4.267 -0.0492  0.3351 -0.0483
 2799SOL    HW211241   3.633   2.414   4.208  0.1645 -0.4962  0.3867
 2799SOL    HW311242   3.594   2.410   4.355 -1.0201 -1.2901  0.0573
 2799SOL    MW411243   3.573   2.423   4.271 -0.1488  0.0110  0.0229
 2800SOL     OW11244   1.337   0.256   4.735 -0.0012  0.7635  0.1555
 2800SOL    HW211245   1.373   0.202   4.806  0.1059 -0.0290 -0.5008
 2800SOL    HW311246   1.331   0.197   4.661  0.5544  1.7774 -0.7049
 2800SOL    MW411247   1.341   0.241   4.735  0.0862  0.7928 -0.0443
 2801SOL     OW11248   3.916   0.510   4.527  0.7892  0.6966  0.0413
 2801SOL    HW211249   3.823   0.525   4.544  0.8159  2.1886 -0.9709
 2801SOL    HW311250   3.954   0.598   4.529  2.2417  0.0549  0.8311
 2801SOL    MW411251   3.909   0.524   4.530  0.9842  0.8088  0.0119
 2802SOL     OW11252   3.410   3.603   4.606 -0.7997  0.2548  0.4505
 2802SOL    HW211253   3.392   3.517   4.643 -0.2600 -0.2870 -0.5299
 2802SOL    HW311254   3.383   3.596   4.515  2.0809  0.1729 -0.4408
 2802SOL    MW411255   3.404   3.591   4.599 -0.3486  0.1724  0.2031
 2803SOL     OW11256   2.654   3.217   4.553  0.3112 -0.1626  0.6633
 2803SOL    HW211257   2.573   3.182   4.589  0.4932 -0.6257  0.6350
 2803SOL    HW311258   2.655   3.309   4.578 -0.6526  0.0604 -0.1004
 2803SOL    MW411259   2.643   3.224   4.561  0.2081 -0.1941  0.5589
 2804SOL     OW11260   0.976   3.409   4.829 -0.0155 -0.1059 -0.0568
 2804SOL    HW211261   0.974   3.404   4.924  1.3275  0.8540  0.0473
 2804SOL    HW311262   1.068   3.393   4.806 -0.0660  0.9485 -1.0881
 2804SOL    MW411263   0.988   3.406   4.838  0.1551  0.1600 -0.1788
 2805SOL     OW11264   4.266   4.601   4.092  0.4862 -0.0073  0.0393
 2805SOL    HW211265   4.187   4.646   4.122  1.0781  0.6321  0.6505
 2805SOL    HW311266   4.266   4.518   4.139 -0.0892 -0.2201 -0.3418
 2805SOL    MW411267   4.256   4.596   4.102  0.4878  0.0491  0.0696
 2806SOL     OW11268   3.788   2.092   4.261  0.1325  0.3041 -0.2317
 2806SOL    HW211269   3.716   2.052   4.213 -0.3430  1.7812 -0.7757
 2806SOL    HW311270   3.776   2.186   4.249  0.0770  0.7177  2.6669
 2806SOL    MW411271   3.777   2.099   4.253  0.0625  0.5536  0.0792
 2807SOL     OW11272   0.674   1.294   4.255 -0.2439 -0.5731 -0.0482
 2807SOL    HW211273   0.657   1.288   4.349  2.0171 -0.3567  0.4025
 2807SOL    HW311274   0.666   1.388   4.236 -2.8105 -0.8486 -0.5300
 2807SOL    MW411275   0.670   1.306   4.265 -0.2842 -0.5808 -0.0525
 2808SOL     OW11276   1.340   0.111   4.254 -0.4073 -0.1092 -1.1121
 2808SOL    HW211277   1.429   0.080   4.238 -0.7559 -1.2106 -0.9831
 2808SOL    HW311278   1.343   0.205   4.233  0.6403 -0.2494 -1.6340
 2808SOL    MW411279   1.352   0.119   4.249 -0.3151 -0.2730 -1.1635
 2809SOL     OW11280   0.487   3.956   4.546 -0.0811  0.3331 -0.4122
 2809SOL    HW211281   0.413   3.914   4.590  0.4550 -0.7565 -0.5448
 2809SOL    HW311282   0.563   3.907   4.575  0.8519  2.7672  1.3940
 2809SOL    MW411283   0.487   3.944   4.556  0.1127  0.5105 -0.1912
 2810SOL     OW11284   2.650   2.758   4.332 -0.3147 -0.6065  0.2490
 2810SOL    HW211285   2.662   2.692   4.264 -2.6982 -0.6602 -0.1671
 2810SOL    HW311286   2.608   2.711   4.404 -0.7808  0.1618  0.4837
 2810SOL    MW411287   2.646   2.743   4.333 -0.6907 -0.5121  0.2255
 2811SOL     OW11288   2.979   4.396   4.594 -0.5127  0.0578  0.5107
 2811SOL    HW211289   2.891   4.366   4.615 -0.1392 -1.1415  0.4229
 2811SOL    HW311290   3.037   4.330   4.632  0.3706  1.0997  0.9979
 2811SOL    MW411291   2.975   4.383   4.602 -0.3469  0.0367  0.5631
 2812SOL     OW11292   3.166   0.075   4.222 -0.3040  0.3152 -0.0376
 2812SOL    HW211293   3.248   0.031   4.197 -0.5747  1.1806 -2.5752
 2812SOL    HW311294   3.097   0.013   4.199 -0.3970 -0.5176  2.3379
 2812SOL    MW411295   3.168   0.061   4.216 -0.3521  0.3195 -0.0591
 2813SOL     OW11296   1.674   1.051   4.601  0.2816  0.0729  0.5212
 2813SOL    HW211297   1.721   0.975   4.567 -0.7498 -0.0096 -0.7797
 2813SOL    HW311298   1.584   1.019   4.612 -0.5894  1.5853 -1.8038
 2813SOL    MW411299   1.668   1.036   4.598  0.0306  0.2617  0.0424
 2814SOL     OW11300   1.419   1.343   4.523  0.2648  0.4685 -0.0530
 2814SOL    HW211301   1.491   1.395   4.559  1.2673 -0.5674 -0.5319
 2814SOL    HW311302   1.340   1.392   4.546  1.1117  1.5510  0.5926
 2814SOL    MW411303   1.418   1.357   4.531  0.5088  0.4746 -0.0315
 2815SOL     OW11304   2.568   0.029   4.652  0.0726  0.1742  0.2366
 2815SOL    HW211305   2.646   0.069   4.613 -0.5741  0.0408 -1.2214
 2815SOL    HW311306   2.506   0.101   4.659  0.0608  0.1214  0.7166
 2815SOL    MW411307   2.570   0.044   4.648 -0.0143  0.1496  0.1073
 2816SOL     OW11308   1.835   0.374   4.660  0.1203 -0.5285 -0.0651
 2816SOL    HW211309   1.867   0.287   4.638 -0.5607 -0.5554 -0.9919
 2816SOL    HW311310   1.748   0.378   4.619  0.0248  0.4719  0.2325
 2816SOL    MW411311   1.827   0.363   4.651  0.0179 -0.4001 -0.1483
 2817SOL     OW11312   0.043   0.277   4.521  0.0175 -0.2777  0.3596
 2817SOL    HW211313   0.020   0.233   4.439  1.6947 -1.4867  0.5028
 2817SOL    HW311314  -0.022   0.346   4.531  0.4458  0.6243 -2.5934
 2817SOL    MW411315   0.032   0.281   4.511  0.2953 -0.3182 -0.0114
 2818SOL     OW11316   0.205   3.584   4.175 -0.2099 -0.0460  0.0372
 2818SOL    HW211317   0.123   3.544   4.147 -0.6346  1.3833 -0.8229
 2818SOL    HW311318   0.205   3.575   4.270 -0.2534 -2.1345 -0.1379
 2818SOL    MW411319   0.194   3.577   4.183 -0.2717 -0.1328 -0.0997
 2819SOL     OW11320   3.602   1.108   4.542  0.3648  0.2743 -0.4035
 2819SOL    HW211321   3.657   1.140   4.471 -0.3612 -1.1064 -1.6189
 2819SOL    HW311322   3.521   1.158   4.535  0.5896  0.6816 -0.0685
 2819SOL    MW411323   3.599   1.119   4.532  0.2987  0.1458 -0.5193
 2820SOL     OW11324   1.781   0.120   4.317 -0.2712  0.6818  0.2864
 2820SOL    HW211325   1.804   0.200   4.271  1.8644  0.1174  0.3166
 2820SOL    HW311326   1.791   0.141   4.410 -0.3711  0.5786  0.3214
 2820SOL    MW411327   1.785   0.133   4.323 -0.0026  0.5937  0.2947
 2821SOL     OW11328   2.702   1.650   4.283  0.0966  0.3307 -0.3565
 2821SOL    HW211329   2.696   1.730   4.231  0.4763  0.6651  0.1140
 2821SOL    HW311330   2.693   1.679   4.374 -1.4037 -0.3516 -0.2806
 2821SOL    MW411331   2.700   1.665   4.288 -0.0513  0.2848 -0.2837
 2822SOL     OW11332   4.022   1.982   4.481  0.0159  0.1807  0.2908
 2822SOL    HW211333   4.074   1.902   4.483 -0.2209  0.0316  0.7287
 2822SOL    HW311334   3.931   1.951   4.489 -0.0769  0.4884  0.4406
 2822SOL    MW411335   4.017   1.967   4.483 -0.0267  0.2015  0.3681
 2823SOL     OW11336   1.073   2.921   4.565 -0.1106 -0.0170  0.1817
 2823SOL    HW211337   1.159   2.958   4.582 -0.0799  0.0365 -0.0912
 2823SOL    HW311338   1.073   2.838   4.611 -0.1337  0.2627  0.6929
 2823SOL    MW411339   1.084   2.915   4.573 -0.1096  0.0269  0.2131
 2824SOL     OW11340   2.020   1.241   4.326 -0.0172  0.3629 -0.3155
 2824SOL    HW211341   1.942   1.190   4.302 -1.5316  1.6461  1.7770
 2824SOL    HW311342   2.015   1.320   4.272  0.2361  0.1153 -0.7059
 2824SOL    MW411343   2.009   1.245   4.316 -0.1833  0.4995 -0.0911
 2825SOL     OW11344   3.025   2.884   4.557 -0.5737  0.0220 -0.0288
 2825SOL    HW211345   2.972   2.813   4.595 -0.1503  0.2268  0.9367
 2825SOL    HW311346   2.987   2.964   4.593  0.6740  0.1498  1.0167
 2825SOL    MW411347   3.013   2.885   4.566 -0.3533  0.0660  0.2365
 2826SOL     OW11348   3.559   2.638   4.627 -0.3285  0.1391 -0.5595
 2826SOL    HW211349   3.484   2.580   4.638  0.0239 -0.2355 -0.1720
 2826SOL    HW311350   3.519   2.723   4.603 -0.8969  0.0518  0.0469
 2826SOL    MW411351   3.544   2.642   4.625 -0.3572  0.0780 -0.4282
 2827SOL     OW11352   4.469   2.729   4.166 -0.1834  0.0944 -0.4272
 2827SOL    HW211353   4.473   2.639   4.199 -0.1809  0.7669  1.4476
 2827SOL    HW311354   4.554   2.767   4.189 -0.4983  0.8272 -0.4684
 2827SOL    MW411355   4.481   2.722   4.174 -0.2246  0.2797 -0.1855
 2828SOL     OW11356   3.860   2.166   4.822 -0.1496 -0.2330  0.6709
 2828SOL    HW211357   3.931   2.183   4.761 -0.9931 -1.6424 -0.7303
 2828SOL    HW311358   3.903   2.128   4.899  0.6937 -0.1954  0.2218
 2828SOL    MW411359   3.875   2.163   4.824 -0.1497 -0.4139  0.4268
 2829SOL     OW11360   1.742   3.946   4.522 -0.0839  0.1974 -0.1108
 2829SOL    HW211361   1.691   4.016   4.564 -0.9745 -0.7350  0.3657
 2829SOL    HW311362   1.819   3.936   4.577 -0.0355  0.6785 -0.0822
 2829SOL    MW411363   1.746   3.954   4.535 -0.1951  0.1378 -0.0439
 2830SOL     OW11364   3.041   1.967   4.454 -0.2840 -0.6512  0.2022
 2830SOL    HW211365   3.128   1.991   4.486 -0.0851 -1.4086  0.2273
 2830SOL    HW311366   2.991   1.949   4.534 -0.3375 -0.6717  0.1636
 2830SOL    MW411367   3.045   1.968   4.469 -0.2649 -0.7538  0.2003
 2831SOL     OW11368   3.390   4.379   4.257 -0.2464  0.5372  0.3710
 2831SOL    HW211369   3.458   4.326   4.216 -1.1089  0.5057 -1.0671
 2831SOL    HW311370   3.387   4.349   4.348  1.3075  0.2034  0.3182
 2831SOL    MW411371   3.399   4.368   4.264 -0.1554  0.4888  0.1745
 2832SOL     OW11372   2.673   3.489   4.605 -0.0625  0.0500  0.0887
 2832SOL    HW211373   2.655   3.570   4.652 -0.7589  0.9380 -1.7065
 2832SOL    HW311374   2.764   3.498   4.575  0.0489 -0.0933  0.3749
 2832SOL    MW411375   2.683   3.501   4.608 -0.1395  0.1485 -0.1106
 2833SOL     OW11376   3.318   2.000   4.526 -0.2154 -0.3140 -0.2701
 2833SOL    HW211377   3.325   2.084   4.572  1.2815 -0.1460 -0.7765
 2833SOL    HW311378   3.344   2.020   4.436  0.9285 -1.4786 -0.2088
 2833SOL    MW411379   3.322   2.014   4.521  0.1330 -0.4454 -0.3285
 2834SOL     OW11380   3.810   3.855   4.125  0.3279 -0.5417 -0.0681
 2834SOL    HW211381   3.725   3.895   4.143  1.4493  2.1068 -0.3246
 2834SOL    HW311382   3.804   3.766   4.160 -2.7230 -0.5973 -0.6055
 2834SOL    MW411383   3.798   3.849   4.132  0.0737 -0.1998 -0.1731
 2835SOL     OW11384   3.636   2.197   4.663 -0.2991 -0.2211  0.1936
 2835SOL    HW211385   3.694   2.218   4.736 -0.6678  0.7004  0.2283
 2835SOL    HW311386   3.676   2.121   4.621 -0.6656 -1.4345  1.9953
 2835SOL    MW411387   3.649   2.190   4.667 -0.3963 -0.2596  0.4358
 2836SOL     OW11388   2.922   4.601   4.190 -0.3397  0.3119 -0.5678
 2836SOL    HW211389   2.935   4.512   4.223  1.4185  0.7588  0.0110
 2836SOL    HW311390   2.846   4.634   4.238 -0.0136 -0.3166  0.3903
 2836SOL    MW411391   2.914   4.594   4.201 -0.0644  0.2880 -0.3648
 2837SOL     OW11392   3.357   3.557   4.331  0.3094 -0.0625  0.6079
 2837SOL    HW211393   3.429   3.517   4.282  0.5006  0.3524  0.5553
 2837SOL    HW311394   3.278   3.526   4.286  0.5311  1.8014 -1.1181
 2837SOL    MW411395   3.356   3.548   4.318  0.3638  0.2384  0.3734
 2838SOL     OW11396   2.695   0.081   4.285  0.4401 -0.2318  0.0743
 2838SOL    HW211397   2.680   0.166   4.245 -0.5568  0.5706  2.1054
 2838SOL    HW311398   2.718   0.100   4.376  1.3268 -2.0748  0.2660
 2838SOL    MW411399   2.696   0.095   4.292  0.4256 -0.3691  0.3681
 2839SOL     OW11400   3.016   2.469   4.984  0.4866 -0.5577  0.0864
 2839SOL    HW211401   2.937   2.448   4.934 -0.6019  0.0998  1.4929
 2839SOL    HW311402   3.076   2.398   4.964 -1.0000 -1.8634  0.1564
 2839SOL    MW411403   3.013   2.457   4.975  0.1464 -0.6435  0.2809
 2840SOL     OW11404   2.016   1.326   4.605 -0.0970  0.3992 -0.2176
 2840SOL    HW211405   1.996   1.292   4.517 -0.1359 -0.8099  0.2494
 2840SOL    HW311406   1.954   1.281   4.662 -0.1695  1.3014  0.4150
 2840SOL    MW411407   2.005   1.316   4.601 -0.1118  0.3587 -0.0725
 2841SOL     OW11408   3.899   3.756   4.776 -0.2548  0.0247 -0.2182
 2841SOL    HW211409   3.809   3.737   4.752 -0.1082 -1.4050  0.3582
 2841SOL    HW311410   3.947   3.675   4.758  0.9028  0.7318 -0.4150
 2841SOL    MW411411   3.894   3.743   4.770 -0.0827 -0.0706 -0.1683
 2842SOL     OW11412   3.131   2.486   4.258 -0.0370  0.2192  0.0270
 2842SOL    HW211413   3.132   2.492   4.354  1.3566  2.2704 -0.0938
 2842SOL    HW311414   3.201   2.424   4.238 -0.0150  0.1457  0.3233
 2842SOL    MW411415   3.140   2.478   4.268  0.1495  0.4804  0.0501
 2843SOL     OW11416   0.078   4.440   4.740  0.5002 -0.1854 -0.1518
 2843SOL    HW211417   0.134   4.447   4.663 -1.4426 -1.1495 -1.6869
 2843SOL    HW311418   0.052   4.530   4.760 -0.3687 -0.0846 -1.6849
 2843SOL    MW411419   0.082   4.453   4.733  0.1292 -0.2995 -0.5565
 2844SOL     OW11420   3.903   4.642   4.615  0.2523 -0.0463  0.1978
 2844SOL    HW211421   3.924   4.549   4.601 -0.1380 -0.3345  1.4428
 2844SOL    HW311422   3.969   4.689   4.565  0.3456 -0.9956 -0.6062
 2844SOL    MW411423   3.914   4.636   4.606  0.2134 -0.2098  0.2565
 2845SOL     OW11424   0.859   0.295   4.659 -0.2289  0.3608  0.4154
 2845SOL    HW211425   0.819   0.354   4.596  0.7972  1.7658  1.0637
 2845SOL    HW311426   0.792   0.228   4.676 -1.2475  1.1200 -0.6048
 2845SOL    MW411427   0.845   0.294   4.653 -0.2279  0.6464  0.3662
 2846SOL     OW11428   2.472   3.613   4.215 -0.6263 -0.1024  0.1917
 2846SOL    HW211429   2.514   3.699   4.220  1.4869 -1.1744  1.7539
 2846SOL    HW311430   2.539   3.556   4.178 -1.8525 -1.1784 -0.3968
 2846SOL    MW411431   2.487   3.617   4.211 -0.5095 -0.3855  0.3195
 2847SOL     OW11432   0.747   3.561   4.523 -0.1777 -0.1703 -0.1691
 2847SOL    HW211433   0.723   3.554   4.431  0.7823  1.1506 -0.5350
 2847SOL    HW311434   0.768   3.471   4.550  0.3219 -0.4468 -1.4604
 2847SOL    MW411435   0.747   3.548   4.515  0.0150 -0.0324 -0.3881
 2848SOL     OW11436   1.573   1.531   4.168 -0.5197  0.2376 -0.2051
 2848SOL    HW211437   1.511   1.587   4.214 -0.1831 -0.8195  1.5990
 2848SOL    HW311438   1.559   1.443   4.205  1.2693 -0.2208 -0.5282
 2848SOL    MW411439   1.563   1.526   4.179 -0.2393  0.0377 -0.0100
 2849SOL     OW11440   1.936   0.107   4.581  0.1287 -0.1817 -0.1443
 2849SOL    HW211441   1.908   0.023   4.618 -1.2172  0.5285  0.4646
 2849SOL    HW311442   2.025   0.090   4.549  0.1656 -1.6270  0.6715
 2849SOL    MW411443   1.944   0.094   4.581 -0.0441 -0.2787  0.0434
 2850SOL     OW11444   3.857   0.728   4.161  0.3529  0.7526 -0.1165
 2850SOL    HW211445   3.783   0.779   4.194 -1.4959 -1.4716 -0.7608
 2850SOL    HW311446   3.854   0.740   4.066 -0.5338 -1.0545 -0.3492
 2850SOL    MW411447   3.847   0.736   4.153 -0.0081  0.2208 -0.2322
 2851SOL     OW11448   0.030   0.907   4.229 -0.5437  0.1721  0.5177
 2851SOL    HW211449  -0.031   0.839   4.200 -0.8219  0.9909 -0.8632
 2851SOL    HW311450   0.116   0.872   4.207 -0.6895  0.2710 -0.2594
 2851SOL    MW411451   0.033   0.893   4.222 -0.5997  0.2932  0.2327
 2852SOL     OW11452   2.497   2.326   4.106 -0.2623 -0.0355  0.5526
 2852SOL    HW211453   2.407   2.355   4.121 -0.0446  0.9244  0.0465
 2852SOL    HW311454   2.501   2.311   4.011 -0.1962 -1.1454  0.7254
 2852SOL    MW411455   2.485   2.328   4.095 -0.2246 -0.0556  0.5088
 2853SOL     OW11456   0.273   4.422   4.539  0.1093 -0.0671 -0.6000
 2853SOL    HW211457   0.324   4.346   4.566  0.1670  0.8359  1.9558
 2853SOL    HW311458   0.320   4.497   4.576 -1.5845  0.9674 -0.4905
 2853SOL    MW411459   0.286   4.422   4.547 -0.1066  0.1888 -0.2484
 2854SOL     OW11460   3.367   2.043   4.261  0.3569 -0.0219  0.0651
 2854SOL    HW211461   3.383   2.132   4.230  0.6425 -0.2350 -0.4115
 2854SOL    HW311462   3.433   1.990   4.216 -0.8329 -0.7092 -0.9061
 2854SOL    MW411463   3.378   2.048   4.251  0.2375 -0.1409 -0.1259
 2855SOL     OW11464   0.980   3.677   4.677 -0.0052 -0.1331  0.1063
 2855SOL    HW211465   0.922   3.641   4.610 -2.7545  1.4819  1.5466
 2855SOL    HW311466   0.962   3.626   4.756  0.6896  0.2443  0.5237
 2855SOL    MW411467   0.970   3.666   4.679 -0.2762  0.1297  0.3514
 2856SOL     OW11468   2.514   1.951   4.477  0.0892 -0.1406  0.2263
 2856SOL    HW211469   2.442   1.890   4.493  0.5650 -1.0499 -1.0382
 2856SOL    HW311470   2.593   1.899   4.490  0.5001  0.1546 -1.0589
 2856SOL    MW411471   2.515   1.936   4.481  0.2060 -0.2217 -0.1101
 2857SOL     OW11472   3.550   3.459   4.153 -0.3914  0.1613 -0.1955
 2857SOL    HW211473   3.553   3.373   4.196 -0.9904 -0.0107 -0.4989
 2857SOL    HW311474   3.632   3.502   4.181 -0.1665 -0.4387  0.0872
 2857SOL    MW411475   3.561   3.453   4.163 -0.4406  0.0594 -0.1988
 2858SOL     OW11476   4.254   4.368   4.502 -0.3182 -0.0602 -0.4281
 2858SOL    HW211477   4.302   4.299   4.549 -0.3664  0.9355  1.0914
 2858SOL    HW311478   4.295   4.449   4.530 -0.9241  0.6104 -1.4583
 2858SOL    MW411479   4.266   4.369   4.512 -0.4044  0.1597 -0.3638
 2859SOL     OW11480   3.781   1.260   4.289  0.3344  0.1742 -0.1165
 2859SOL    HW211481   3.722   1.226   4.221 -0.9143  1.2454  0.4065
 2859SOL    HW311482   3.862   1.211   4.276 -1.2974 -2.8212  0.4242
 2859SOL    MW411483   3.784   1.249   4.278 -0.0455 -0.0796  0.0234
 2860SOL     OW11484   2.164   3.395   4.789  0.1636 -0.0523  0.0913
 2860SOL    HW211485   2.084   3.405   4.737 -1.5645 -1.6314  2.3113
 2860SOL    HW311486   2.169   3.302   4.807  0.5965  0.4652  2.8435
 2860SOL    MW411487   2.154   3.384   4.785 -0.0072 -0.1922  0.7472
 2861SOL     OW11488   2.202   3.107   4.808  0.8813 -0.3406 -0.1680
 2861SOL    HW211489   2.230   3.076   4.894  0.8608 -1.3907 -0.5318
 2861SOL    HW311490   2.278   3.091   4.751 -0.0961 -2.4088 -0.9707
 2861SOL    MW411491   2.216   3.100   4.812  0.7498 -0.7520 -0.3219
 2862SOL     OW11492   1.031   3.181   4.497  0.2604  0.3302  0.1643
 2862SOL    HW211493   1.026   3.092   4.531  1.1372 -0.2450 -1.1588
 2862SOL    HW311494   0.962   3.229   4.544 -1.0523 -1.3366 -0.0176
 2862SOL    MW411495   1.021   3.176   4.508  0.2029  0.0343 -0.0343
 2863SOL     OW11496   3.120   0.546   4.625 -0.3300 -0.6604 -1.0805
 2863SOL    HW211497   3.140   0.537   4.718 -1.5654  2.3244 -0.4466
 2863SOL    HW311498   3.204   0.533   4.580  0.5205 -0.8405  0.5520
 2863SOL    MW411499   3.134   0.543   4.631 -0.3805 -0.2904 -0.7815
 2864SOL     OW11500   0.664   0.798   4.162 -0.1448 -0.6013  0.1252
 2864SOL    HW211501   0.644   0.785   4.069 -0.6474 -0.0281  0.1511
 2864SOL    HW311502   0.686   0.710   4.194  0.2188 -0.7740 -0.5778
 2864SOL    MW411503   0.665   0.784   4.154 -0.1631 -0.5485  0.0353
 2865SOL     OW11504   3.613   4.055   4.531 -0.0297 -0.3355  0.4686
 2865SOL    HW211505   3.564   4.132   4.501 -1.7337 -1.9233 -0.9998
 2865SOL    HW311506   3.704   4.084   4.534 -0.3820  1.2050 -1.9495
 2865SOL    MW411507   3.618   4.069   4.527 -0.3009 -0.3419 -0.0443
 2866SOL     OW11508   1.567   0.432   4.593 -0.7269  0.1858  0.5268
 2866SOL    HW211509   1.580   0.522   4.624 -0.0261  0.2536  0.0468
 2866SOL    HW311510   1.528   0.387   4.668 -1.0891  0.8873  0.7724
 2866SOL    MW411511   1.563   0.438   4.607 -0.6824  0.2873  0.4959
 2867SOL     OW11512   2.003   3.860   4.626 -0.1876 -0.3390  0.7696
 2867SOL    HW211513   2.076   3.909   4.589 -0.5184 -0.3360  0.1263
 2867SOL    HW311514   2.044   3.796   4.684  0.3419 -0.5491  0.1633
 2867SOL    MW411515   2.018   3.858   4.629 -0.1614 -0.3664  0.6051
 2868SOL     OW11516   0.250   2.266   4.514 -0.1074 -0.4299  0.7744
 2868SOL    HW211517   0.174   2.319   4.536 -0.3750 -0.2230 -0.5778
 2868SOL    HW311518   0.324   2.326   4.516 -0.3038 -0.1544 -0.0335
 2868SOL    MW411519   0.250   2.281   4.517 -0.1686 -0.3660  0.4897
 2869SOL     OW11520   0.211   2.116   4.285 -0.1413  0.5903  0.8652
 2869SOL    HW211521   0.246   2.159   4.363  0.9928 -0.7946  1.1419
 2869SOL    HW311522   0.285   2.066   4.251 -0.6961  0.9864 -0.9673
 2869SOL    MW411523   0.226   2.115   4.291 -0.0648  0.4597  0.6599
 2870SOL     OW11524   2.379   3.538   4.477  0.3542  0.1808 -0.0062
 2870SOL    HW211525   2.467   3.532   4.514  0.2676  2.9609  0.8140
 2870SOL    HW311526   2.389   3.597   4.402 -1.1745  2.5431  1.5549
 2870SOL    MW411527   2.392   3.545   4.472  0.1414  0.8593  0.3080
 2871SOL     OW11528   3.603   1.701   4.240  0.4038  0.3244 -0.0100
 2871SOL    HW211529   3.586   1.708   4.334  1.4724 -1.0502  0.2998
 2871SOL    HW311530   3.535   1.641   4.208  0.3377  0.4164 -0.0444
 2871SOL    MW411531   3.592   1.694   4.248  0.5360  0.1551  0.0267
 2872SOL     OW11532   4.011   1.688   4.279  0.2220 -0.1756 -0.1732
 2872SOL    HW211533   4.087   1.642   4.244  0.6570  0.3539  0.0724
 2872SOL    HW311534   3.938   1.628   4.264  0.8656 -1.1650  0.6050
 2872SOL    MW411535   4.011   1.674   4.272  0.3638 -0.2364 -0.0381
 2873SOL     OW11536   1.827   0.792   4.528 -0.2284 -0.3596  0.1743
 2873SOL    HW211537   1.876   0.710   4.517  1.4863  0.6071  0.3823
 2873SOL    HW311538   1.884   0.846   4.582 -0.7819  1.4368 -1.0011
 2873SOL    MW411539   1.841   0.788   4.534 -0.0750  0.0050  0.0467
 2874SOL     OW11540   0.591   1.291   4.544  0.3124  0.1710  0.7609
 2874SOL    HW211541   0.517   1.339   4.581  0.0619  1.4073 -1.2453
 2874SOL    HW311542   0.558   1.201   4.535 -0.7561  0.5845  0.4449
 2874SOL    MW411543   0.577   1.285   4.547  0.1384  0.3886  0.4549
 2875SOL     OW11544   0.416   0.126   4.309 -0.4997  0.3871 -0.1256
 2875SOL    HW211545   0.480   0.071   4.263 -0.1086  1.4103 -0.8226
 2875SOL    HW311546   0.436   0.215   4.280 -0.9607  0.9289  1.2013
 2875SOL    MW411547   0.427   0.131   4.299 -0.5089  0.5936 -0.0424
 2876SOL     OW11548   3.028   0.007   4.632 -0.5119  0.0973  0.2592
 2876SOL    HW211549   3.061   0.016   4.721  0.3310 -1.9153  0.1829
 2876SOL    HW311550   3.005  -0.086   4.624 -2.4980  0.6568 -0.9737
 2876SOL    MW411551   3.029  -0.004   4.642 -0.6628 -0.0949  0.0868
 2877SOL     OW11552   3.267   2.840   4.692  0.0147 -0.0988  0.4272
 2877SOL    HW211553   3.227   2.802   4.770 -1.8159  0.1538 -0.3568
 2877SOL    HW311554   3.192   2.870   4.639  1.1415 -1.6515 -2.1292
 2877SOL    MW411555   3.252   2.839   4.695 -0.0784 -0.2701 -0.0138
 2878SOL     OW11556   0.824   3.315   4.615 -0.0596  0.2739  0.0613
 2878SOL    HW211557   0.858   3.333   4.703  1.0861 -1.3107 -0.0228
 2878SOL    HW311558   0.753   3.252   4.629  0.6755 -0.6295 -0.1948
 2878SOL    MW411559   0.819   3.309   4.628  0.1885 -0.0544  0.0162
 2879SOL     OW11560   3.076   3.276   4.591  0.2967  0.5139 -0.3818
 2879SOL    HW211561   3.163   3.297   4.623  0.2511  0.8791 -0.4933
 2879SOL    HW311562   3.087   3.267   4.496  0.6697 -1.7712 -0.1362
 2879SOL    MW411563   3.089   3.278   4.582  0.3400  0.2608 -0.3638
 2880SOL     OW11564   3.576   3.967   4.254  0.2496 -0.3121 -0.3550
 2880SOL    HW211565   3.488   3.929   4.246 -0.2277  0.8842 -0.9236
 2880SOL    HW311566   3.587   3.984   4.348 -0.4074  0.1661 -0.3584
 2880SOL    MW411567   3.566   3.964   4.265  0.0999 -0.0911 -0.4296
 2881SOL     OW11568   2.907   4.341   4.298 -0.0874  0.4227  0.1501
 2881SOL    HW211569   2.993   4.315   4.264 -0.3017  0.7917 -0.6875
 2881SOL    HW311570   2.926   4.377   4.385  0.2011 -2.5822  1.3820
 2881SOL    MW411571   2.921   4.342   4.305 -0.0777  0.0749  0.2027
 2882SOL     OW11572   3.387   0.493   4.277 -0.2072 -0.0389 -0.0875
 2882SOL    HW211573   3.313   0.446   4.238 -0.9065  2.1747 -1.5183
 2882SOL    HW311574   3.464   0.441   4.253 -1.0535 -1.0533 -0.6536
 2882SOL    MW411575   3.387   0.480   4.269 -0.4113  0.1193 -0.3510
 2883SOL     OW11576   3.140   4.260   4.182 -0.2879 -0.3453 -0.1106
 2883SOL    HW211577   3.136   4.172   4.220 -1.4953 -0.3667 -0.2459
 2883SOL    HW311578   3.225   4.295   4.209  0.1192 -1.4884  0.0966
 2883SOL    MW411579   3.151   4.253   4.191 -0.3934 -0.4992 -0.1016
 2884SOL     OW11580   4.286   4.363   4.235 -0.3846  0.0764  0.3339
 2884SOL    HW211581   4.265   4.363   4.329 -1.1397 -0.7852  0.1714
 2884SOL    HW311582   4.371   4.320   4.229 -0.8717 -0.9114  0.5097
 2884SOL    MW411583   4.294   4.358   4.247 -0.5484 -0.1678  0.3352
 2885NA      NA11584   2.716   3.264   0.480 -0.1694 -0.4848 -0.1610
   4.49070   4.66690  10.00000
