Gromacs Runs On Most of All Computer Systems in water
11558
    1RG35     P    1   2.065   2.596   4.333  0.2926 -0.1796 -0.4422
    1RG35   O1P    2   2.191   2.643   4.397 -0.0325 -0.6452  0.8229
    1RG35   O2P    3   2.076   2.528   4.204 -0.0732  0.2849  0.4669
    1RG35   O5'    4   1.991   2.493   4.444 -0.1104  0.1664 -0.5475
    1RG35   C5'    5   1.940   2.529   4.566 -0.3394  0.0765  2.1819
    1RG35  H5'1    6   1.847   2.474   4.577 -0.4469 -1.2933 -4.0208
    1RG35  H5'2    7   1.932   2.638   4.574  0.3413 -0.0270  4.9485
    1RG35   C4'    8   2.039   2.488   4.671  1.1097 -0.0026 -0.0525
    1RG35   H4'    9   2.044   2.562   4.751  0.9367  0.3082 -0.3309
    1RG35   O4'   10   1.985   2.373   4.732 -1.2911 -0.3173 -0.4670
    1RG35   C1'   11   2.085   2.288   4.787 -0.0739 -0.9076  0.8352
    1RG35   H1'   12   2.066   2.276   4.893 -0.9276 -0.2878  0.7576
    1RG35    N9   13   2.105   2.157   4.729  0.3574 -0.4934  0.0864
    1RG35    C8   14   2.078   2.110   4.604  0.2982  0.6542  0.4176
    1RG35    H8   15   2.025   2.177   4.537  1.8830  1.3924 -0.1190
    1RG35    N7   16   2.116   1.985   4.581  0.1096  0.2809 -1.0492
    1RG35    C5   17   2.177   1.948   4.706  0.6174  0.7466 -0.8940
    1RG35    C6   18   2.249   1.836   4.753  0.7888 -0.0290 -0.3145
    1RG35    O6   19   2.276   1.729   4.706 -0.3002  0.1915  0.2434
    1RG35    N1   20   2.314   1.853   4.874  0.7014  0.1947 -0.4602
    1RG35    H1   21   2.398   1.801   4.891 -0.9887 -2.3580  0.4002
    1RG35    C2   22   2.297   1.959   4.955  0.1853 -0.3171 -0.2221
    1RG35    N2   23   2.345   1.965   5.075 -0.0780 -0.4627 -0.5277
    1RG35   H21   24   2.405   1.893   5.115 -2.0539 -0.3891  2.7354
    1RG35   H22   25   2.318   2.041   5.136 -0.2177 -0.3133 -0.7771
    1RG35    N3   26   2.223   2.063   4.926  0.3012  0.1673  0.5874
    1RG35    C4   27   2.164   2.049   4.799  0.4049 -0.4596 -0.4905
    1RG35   C3'   28   2.186   2.459   4.640  0.9489  1.4126 -0.1727
    1RG35   H3'   29   2.199   2.409   4.544 -1.1513 -0.1342  0.3143
    1RG35   C2'   30   2.218   2.368   4.768  0.5909  0.0421 -0.3294
    1RG35  H2'1   31   2.308   2.308   4.754  1.4684  1.5261 -1.1385
    1RG35   O2'   32   2.229   2.436   4.888 -0.2251  0.0064 -0.4446
    1RG35  HO'2   33   2.305   2.490   4.864  0.4639 -0.8083 -0.1220
    1RG35   O3'   34   2.262   2.576   4.635  0.6385  0.3250 -0.4160
    1RG35   H3T   35   2.236   2.615   4.552 -4.0268 -2.1935 -0.2923
    1RG35   O3P   36   1.967   2.704   4.330 -0.4626  0.6183 -0.2248
    1SOL     OW   37   0.355   0.086   0.471 -0.1536 -0.0701 -0.0457
    1SOL    HW2   38   0.433   0.086   0.415 -0.1546  0.4483 -0.0456
    1SOL    HW3   39   0.312   0.170   0.453 -0.3605 -0.0683  0.4505
    1SOL    MW4   40   0.359   0.097   0.461 -0.1810 -0.0015  0.0198
    1SOL     OW   41   3.955   0.118   0.497  0.2317 -0.2341 -0.2528
    1SOL    HW2   42   4.038   0.072   0.489 -0.2084 -0.8718 -1.3091
    1SOL    HW3   43   3.967   0.199   0.447  0.2346 -0.3030 -0.3639
    1SOL    MW4   44   3.967   0.123   0.490  0.1740 -0.3273 -0.4069
    1SOL     OW   45   3.767   0.307   0.182 -0.1911  0.0919 -0.2290
    1SOL    HW2   46   3.743   0.288   0.092 -2.2341 -1.2186  0.5450
    1SOL    HW3   47   3.782   0.221   0.222 -0.4867  0.5802  0.9639
    1SOL    MW4   48   3.766   0.293   0.176 -0.4995 -0.0166  0.0305
    1SOL     OW   49   0.042   1.626   0.459 -0.0184 -0.1138  0.1263
    1SOL    HW2   50   0.028   1.635   0.554  1.0029 -0.2623  0.2975
    1SOL    HW3   51   0.035   1.532   0.444  0.3778 -0.1456  0.1447
    1SOL    MW4   52   0.039   1.615   0.470  0.1687 -0.1376  0.1513
    1SOL     OW   53   1.394   0.868   0.353 -0.1813 -0.2068  0.1764
    1SOL    HW2   54   1.299   0.870   0.363 -0.3119 -0.3464 -0.9805
    1SOL    HW3   55   1.409   0.828   0.267  0.8856  0.9611 -0.1994
    1SOL    MW4   56   1.384   0.863   0.343 -0.0578 -0.0712 -0.0257
    1SOL     OW   57   0.211   0.553   0.524  0.3466 -0.4219 -0.0479
    1SOL    HW2   58   0.212   0.559   0.619  1.1040 -1.8462  0.0441
    1SOL    HW3   59   0.215   0.459   0.505 -1.8418 -0.2733 -1.4684
    1SOL    MW4   60   0.211   0.542   0.534  0.1577 -0.5903 -0.2232
    1SOL     OW   61   0.394   0.963   0.385 -0.0880  0.4030  0.0293
    1SOL    HW2   62   0.415   0.937   0.475  0.7511  0.5426 -0.1229
    1SOL    HW3   63   0.373   0.881   0.340 -0.1339  0.2921  0.2540
    1SOL    MW4   64   0.394   0.949   0.391  0.0167  0.4068  0.0389
    1SOL     OW   65   0.832   0.804   0.485  0.6309 -0.0061  0.3588
    1SOL    HW2   66   0.857   0.831   0.573 -3.0605 -0.3338  1.5889
    1SOL    HW3   67   0.809   0.885   0.440  0.3732 -0.0258  0.4496
    1SOL    MW4   68   0.832   0.818   0.491  0.1099 -0.0519  0.5331
    1SOL     OW   69   0.695   1.026   0.343 -0.2520 -0.0954 -0.0160
    1SOL    HW2   70   0.688   1.000   0.251 -0.2396 -0.9024  0.2111
    1SOL    HW3   71   0.604   1.039   0.371 -0.2789 -0.3092 -0.0066
    1SOL    MW4   72   0.682   1.024   0.334 -0.2539 -0.2300  0.0152
    1SOL     OW   73   4.344   1.819   0.197 -0.1055 -0.1388  0.1058
    1SOL    HW2   74   4.312   1.746   0.250  0.3731  0.5539  1.3985
    1SOL    HW3   75   4.286   1.892   0.219  0.5657  0.3554  0.2788
    1SOL    MW4   76   4.332   1.819   0.207  0.0463  0.0179  0.2992
    1SOL     OW   77   4.237   1.635   0.408 -0.3904 -0.2980  0.1363
    1SOL    HW2   78   4.216   1.691   0.483  0.1861 -0.1308  0.1833
    1SOL    HW3   79   4.330   1.614   0.420 -0.5125 -0.9710 -0.0750
    1SOL    MW4   80   4.247   1.640   0.419 -0.3304 -0.3647  0.1146
    1SOL     OW   81   0.124   1.972   0.357 -0.4573  0.6958  0.1168
    1SOL    HW2   82   0.167   1.887   0.363  0.3407  1.0214 -0.8079
    1SOL    HW3   83   0.081   1.971   0.271 -0.6496  1.1303  0.2083
    1SOL    MW4   84   0.124   1.961   0.346 -0.3773  0.7961  0.0069
    1SOL     OW   85   0.333   2.371   0.438 -0.7069  0.3504  0.6421
    1SOL    HW2   86   0.292   2.384   0.524 -1.1353  1.9092  0.2193
    1SOL    HW3   87   0.414   2.324   0.457 -0.7604  0.7464  1.9185
    1SOL    MW4   88   0.338   2.367   0.452 -0.7704  0.6084  0.7547
    1SOL     OW   89   4.480   2.701   0.461  0.1156  0.1796 -0.0366
    1SOL    HW2   90   4.433   2.779   0.491  0.4299  0.1485  0.5323
    1SOL    HW3   91   4.572   2.726   0.461  0.3889 -0.7499  1.8746
    1SOL    MW4   92   4.486   2.714   0.465  0.1932  0.0529  0.2907
    1SOL     OW   93   4.374   3.328   0.342 -0.0558 -0.0064  0.4477
    1SOL    HW2   94   4.310   3.258   0.358  1.7304 -1.3356  1.9831
    1SOL    HW3   95   4.455   3.296   0.382  1.3435  2.0478 -0.6562
    1SOL    MW4   96   4.376   3.314   0.349  0.3648  0.0894  0.5046
    1SOL     OW   97   0.328   3.118   0.336 -0.0585  0.4810 -0.2390
    1SOL    HW2   98   0.416   3.131   0.370  1.2759  0.3536 -3.4441
    1SOL    HW3   99   0.334   3.141   0.243 -2.1775 -4.0415 -1.6791
    1SOL    MW4  100   0.341   3.122   0.328 -0.1620 -0.1326 -0.8519
    1SOL     OW  101   0.801   3.390   0.368 -0.7390 -0.0854 -0.0100
    1SOL    HW2  102   0.857   3.411   0.294 -1.5516  1.0657 -0.3043
    1SOL    HW3  103   0.789   3.473   0.415 -0.6213 -0.6996  1.1439
    1SOL    MW4  104   0.806   3.403   0.365 -0.8308 -0.0145  0.1034
    1SOL     OW  105   0.988   3.785   0.324  0.2802 -0.3414  0.5436
    1SOL    HW2  106   1.036   3.866   0.306 -1.1621  0.2685 -0.6949
    1SOL    HW3  107   0.896   3.812   0.328 -0.0792 -1.6622  1.7915
    1SOL    MW4  108   0.982   3.799   0.322  0.0425 -0.4354  0.5448
    1SOL     OW  109   3.821   3.299   0.374  0.5768  0.0567 -0.5364
    1SOL    HW2  110   3.871   3.369   0.415  0.1822  0.4898 -0.7935
    1SOL    HW3  111   3.879   3.223   0.377 -0.3177 -0.5891  3.0700
    1SOL    MW4  112   3.835   3.298   0.380  0.4065  0.0288 -0.0945
    1SOL     OW  113   0.040   3.749   0.446  0.3200 -0.0496  0.6897
    1SOL    HW2  114  -0.043   3.701   0.454  0.5518 -0.7541 -0.8524
    1SOL    HW3  115   0.019   3.837   0.477 -1.5632  0.3392 -1.4820
    1SOL    MW4  116   0.026   3.755   0.451  0.1020 -0.0908  0.1997
    1SOL     OW  117   0.157   4.518   0.486 -0.0136 -0.0152 -0.2960
    1SOL    HW2  118   0.228   4.574   0.457  0.4122 -0.9377 -1.0863
    1SOL    HW3  119   0.154   4.448   0.420 -1.9358  0.2470 -0.5244
    1SOL    MW4  120   0.166   4.516   0.473 -0.2110 -0.1020 -0.4304
    1SOL     OW  121   0.137   4.305   0.324 -0.1653  0.1152 -0.2514
    1SOL    HW2  122   0.046   4.278   0.340 -0.7639  1.4942 -1.1844
    1SOL    HW3  123   0.144   4.311   0.229  1.0981 -0.5987 -0.2092
    1SOL    MW4  124   0.126   4.303   0.314 -0.0776  0.2031 -0.3689
    1SOL     OW  125   4.362   4.236   0.386  0.2850 -0.6566  0.2636
    1SOL    HW2  126   4.368   4.151   0.429  0.1946 -0.0204  1.5698
    1SOL    HW3  127   4.303   4.287   0.442 -0.7064 -0.1628 -1.2202
    1SOL    MW4  128   4.355   4.231   0.399  0.1426 -0.5074  0.2401
    1SOL     OW  129   0.464   3.700   0.549  0.1059 -0.5388 -0.5106
    1SOL    HW2  130   0.548   3.676   0.509  1.9918 -0.5826  3.2286
    1SOL    HW3  131   0.458   3.795   0.537 -0.0612 -0.7426 -2.1060
    1SOL    MW4  132   0.474   3.709   0.542  0.3327 -0.5713 -0.2277
    1SOL     OW  133   0.838   4.594   0.244  0.6221  0.1800 -0.0596
    1SOL    HW2  134   0.895   4.651   0.296  1.0863 -0.9340  0.6588
    1SOL    HW3  135   0.897   4.555   0.179  0.0610  1.5012 -1.3912
    1SOL    MW4  136   0.854   4.596   0.242  0.6094  0.2074 -0.1405
    1SOL     OW  137   0.170   0.299   0.384  0.1636  0.3931  0.6654
    1SOL    HW2  138   0.106   0.231   0.405 -0.7085  1.0502  0.2026
    1SOL    HW3  139   0.199   0.279   0.295  1.4010 -0.5055  1.2561
    1SOL    MW4  140   0.165   0.288   0.375  0.2118  0.3613  0.6823
    1SOL     OW  141   4.395   0.547   0.528 -0.3040  0.0748 -0.1426
    1SOL    HW2  142   4.489   0.561   0.522 -0.2237 -0.1563  0.4822
    1SOL    HW3  143   4.356   0.617   0.475  0.2392 -0.2983 -1.0306
    1SOL    MW4  144   4.402   0.558   0.520 -0.2217 -0.0049 -0.1774
    1SOL     OW  145   1.086   4.489   0.482  0.0519  0.3544  0.3564
    1SOL    HW2  146   1.003   4.442   0.476  0.6434 -0.4843 -1.9920
    1SOL    HW3  147   1.115   4.477   0.572 -0.6957 -2.3135  0.2689
    1SOL    MW4  148   1.079   4.481   0.493  0.0312 -0.1082  0.0350
    1SOL     OW  149   1.112   0.764   0.347  0.4458  0.3210 -0.3842
    1SOL    HW2  150   1.021   0.776   0.375  0.7245  0.0557  0.6580
    1SOL    HW3  151   1.132   0.673   0.370  1.0280  0.4279 -0.4556
    1SOL    MW4  152   1.103   0.753   0.354  0.5594  0.3000 -0.2561
    1SOL     OW  153   0.523   0.344   0.353  0.2470 -0.2330 -0.3251
    1SOL    HW2  154   0.572   0.420   0.385 -0.3951 -0.5187  1.3920
    1SOL    HW3  155   0.589   0.274   0.346  0.3343 -0.2614  0.7283
    1SOL    MW4  156   0.538   0.344   0.356  0.1737 -0.2745  0.0404
    1SOL     OW  157   0.175   1.112   0.473 -0.0605 -0.4803  0.2600
    1SOL    HW2  158   0.098   1.056   0.461  0.6462 -1.2063 -0.9016
    1SOL    HW3  159   0.245   1.068   0.425  1.1483  0.0669  1.4879
    1SOL    MW4  160   0.174   1.099   0.465  0.1922 -0.5038  0.2688
    1SOL     OW  161   0.476   1.745   0.492  0.2334  0.5545  0.3400
    1SOL    HW2  162   0.545   1.682   0.468 -0.5194 -0.4085  0.6535
    1SOL    HW3  163   0.410   1.735   0.424 -0.4632  0.0927  1.0756
    1SOL    MW4  164   0.477   1.735   0.480  0.0422  0.3664  0.4784
    1SOL     OW  165   0.254   1.742   0.341 -0.2831  0.0996 -0.3101
    1SOL    HW2  166   0.193   1.683   0.387 -1.1973  1.1662 -0.1346
    1SOL    HW3  167   0.228   1.736   0.249 -2.0095  2.0876  0.0057
    1SOL    MW4  168   0.242   1.733   0.335 -0.6315  0.5026 -0.2453
    1SOL     OW  169   0.327   2.320   0.059  0.4557 -0.2237  0.3803
    1SOL    HW2  170   0.353   2.229   0.049 -0.5941 -0.4140 -0.6723
    1SOL    HW3  171   0.354   2.362  -0.022  3.0180  0.9236  1.7771
    1SOL    MW4  172   0.334   2.314   0.047  0.6553 -0.0975  0.4257
    1SOL     OW  173   0.177   2.599   0.237 -0.4414  0.4089 -0.2531
    1SOL    HW2  174   0.110   2.575   0.302 -1.9075  1.1128 -1.4693
    1SOL    HW3  175   0.180   2.695   0.240  1.4844  0.3431  0.7258
    1SOL    MW4  176   0.169   2.609   0.246 -0.3807  0.4933 -0.2844
    1SOL     OW  177   3.823   2.296   0.215  0.0458  0.6738  0.0816
    1SOL    HW2  178   3.879   2.373   0.211  1.2307 -0.0688  1.8027
    1SOL    HW3  179   3.831   2.256   0.128  0.1627  1.9627 -0.4992
    1SOL    MW4  180   3.831   2.301   0.203  0.2174  0.7460  0.2321
    1SOL     OW  181   0.592   2.592   0.555 -0.5256 -0.1383 -0.0247
    1SOL    HW2  182   0.668   2.537   0.536 -1.0082 -0.6657 -0.4636
    1SOL    HW3  183   0.627   2.667   0.602  0.2113 -0.5755  0.1241
    1SOL    MW4  184   0.606   2.595   0.558 -0.4920 -0.2656 -0.0630
    1SOL     OW  185   0.472   2.688   0.329 -0.6936  0.0123  0.0038
    1SOL    HW2  186   0.502   2.635   0.403 -0.1751  0.2518 -0.0308
    1SOL    HW3  187   0.524   2.768   0.335  0.0866 -0.3863 -1.2120
    1SOL    MW4  188   0.483   2.691   0.339 -0.5223 -0.0086 -0.1612
    1SOL     OW  189   4.358   2.999   0.516  0.1381 -0.0404 -0.2285
    1SOL    HW2  190   4.291   3.058   0.481  0.5472  0.2545 -0.5178
    1SOL    HW3  191   4.410   3.054   0.575 -1.2044 -0.7833  1.7033
    1SOL    MW4  192   4.356   3.014   0.519  0.0143 -0.0997 -0.0118
    1SOL     OW  193   0.255   2.840   0.460 -0.4906 -0.2978  0.2990
    1SOL    HW2  194   0.260   2.931   0.430 -1.5908 -0.0709  0.7914
    1SOL    HW3  195   0.333   2.798   0.422  0.6060  1.1019  0.9535
    1SOL    MW4  196   0.266   2.847   0.451 -0.4911 -0.0832  0.4503
    1SOL     OW  197   1.043   4.500   0.084  0.2329  0.3437 -0.4597
    1SOL    HW2  198   1.087   4.545   0.012  0.1282 -1.7281 -1.8539
    1SOL    HW3  199   1.113   4.456   0.132  0.0243 -0.4822 -0.8995
    1SOL    MW4  200   1.058   4.500   0.081  0.1917 -0.0381 -0.7017
    1SOL     OW  201   0.121   3.278   0.471  0.2312 -0.2426  0.6593
    1SOL    HW2  202   0.155   3.367   0.471  0.3632 -0.2773 -0.3521
    1SOL    HW3  203   0.196   3.225   0.443 -0.4179 -0.4188 -0.7742
    1SOL    MW4  204   0.135   3.283   0.467  0.1630 -0.2706  0.3367
    1SOL     OW  205   0.733   3.649   0.470 -0.1157  0.1021 -0.0211
    1SOL    HW2  206   0.730   3.736   0.429 -1.9722  0.3119  0.5516
    1SOL    HW3  207   0.728   3.666   0.564  1.1618 -0.5578  0.1868
    1SOL    MW4  208   0.732   3.663   0.477 -0.1921  0.0427  0.0819
    1SOL     OW  209   1.130   3.588   0.516 -0.6639 -0.0913 -0.1419
    1SOL    HW2  210   1.057   3.626   0.467 -0.8312 -0.9394 -0.5710
    1SOL    HW3  211   1.121   3.494   0.502 -0.3290 -0.2979  1.0055
    1SOL    MW4  212   1.119   3.581   0.507 -0.6419 -0.2303 -0.0471
    1SOL     OW  213   0.477   3.975   0.468 -0.3133  0.0345 -0.3846
    1SOL    HW2  214   0.474   4.017   0.554  1.6422  2.4688 -1.4152
    1SOL    HW3  215   0.388   3.980   0.435 -1.0694 -0.9104  1.5099
    1SOL    MW4  216   0.465   3.981   0.475 -0.1550  0.2313 -0.2706
    1SOL     OW  217   0.994   3.527   0.197 -0.2205  0.7719 -0.1933
    1SOL    HW2  218   1.029   3.543   0.109 -0.4465  0.3848 -0.3548
    1SOL    HW3  219   0.998   3.613   0.240 -0.1298  0.9681 -0.5880
    1SOL    MW4  220   0.999   3.541   0.191 -0.2383  0.7467 -0.2667
    1SOL     OW  221   0.829   4.372   0.463  0.2188  0.7658  0.1148
    1SOL    HW2  222   0.802   4.410   0.379 -1.8379  0.6815  0.7225
    1SOL    HW3  223   0.754   4.385   0.521  0.5131 -1.7803  1.1287
    1SOL    MW4  224   0.816   4.379   0.459 -0.0136  0.4187  0.3288
    1SOL     OW  225   0.663   0.101   0.388 -0.0206  0.1734 -0.0308
    1SOL    HW2  226   0.704   0.030   0.337  1.1527  1.3574 -0.7654
    1SOL    HW3  227   0.730   0.126   0.452 -1.1400 -0.6599  1.4904
    1SOL    MW4  228   0.677   0.095   0.389 -0.0135  0.2197  0.0730
    1SOL     OW  229   0.641   0.599   0.455  0.1377  0.8350 -0.3358
    1SOL    HW2  230   0.710   0.665   0.452  0.9259  0.0142 -0.6066
    1SOL    HW3  231   0.565   0.642   0.416  0.3126  1.9559  0.5587
    1SOL    MW4  232   0.640   0.613   0.449  0.2648  0.8745 -0.2535
    1SOL     OW  233   0.364   0.681   0.308 -0.6429 -0.4264  0.0195
    1SOL    HW2  234   0.327   0.624   0.376 -2.4122 -1.1732 -1.5325
    1SOL    HW3  235   0.372   0.625   0.231  1.1782  0.4659 -0.4670
    1SOL    MW4  236   0.360   0.666   0.307 -0.6360 -0.4072 -0.2495
    1SOL     OW  237   1.468   0.608   0.431 -0.4383 -0.4163  0.0799
    1SOL    HW2  238   1.457   0.703   0.422  0.1952 -0.4791 -1.5716
    1SOL    HW3  239   1.551   0.598   0.477 -0.5471 -0.1801  0.3353
    1SOL    MW4  240   1.478   0.620   0.436 -0.3690 -0.3935 -0.1043
    1SOL     OW  241   1.912   0.772   0.504 -0.5087  0.1200  0.5915
    1SOL    HW2  242   1.862   0.853   0.507 -0.6217  0.0122  1.7482
    1SOL    HW3  243   1.854   0.706   0.541 -0.4998 -0.5460 -0.5375
    1SOL    MW4  244   1.898   0.774   0.509 -0.5225  0.0179  0.5952
    1SOL     OW  245   1.551   1.039   0.536  0.3913 -0.6840 -0.1380
    1SOL    HW2  246   1.505   0.993   0.465 -0.6144 -0.5149  0.4001
    1SOL    HW3  247   1.518   0.999   0.616 -0.1498  0.6463  0.3185
    1SOL    MW4  248   1.540   1.028   0.537  0.1872 -0.4863 -0.0069
    1SOL     OW  249   0.689   1.589   0.403  0.2341  0.1971  0.5775
    1SOL    HW2  250   0.711   1.496   0.393 -0.7845 -0.0820  0.8565
    1SOL    HW3  251   0.773   1.634   0.402  0.6808 -0.6498 -0.4305
    1SOL    MW4  252   0.703   1.583   0.402  0.1587  0.0485  0.4813
    1SOL     OW  253   0.755   1.315   0.428 -0.2789  0.2407  0.3386
    1SOL    HW2  254   0.739   1.229   0.390  0.1369  0.2193  0.2132
    1SOL    HW3  255   0.850   1.323   0.432 -0.3005  1.0267 -0.4071
    1SOL    MW4  256   0.766   1.305   0.424 -0.2269  0.3417  0.2236
    1SOL     OW  257   1.812   1.414   0.402  0.2021 -0.2070  0.1685
    1SOL    HW2  258   1.816   1.509   0.415  0.7403 -0.1773 -0.1966
    1SOL    HW3  259   1.900   1.383   0.425 -0.4141 -0.8086  1.7836
    1SOL    MW4  260   1.824   1.422   0.407  0.1918 -0.2823  0.3334
    1SOL     OW  261   1.028   1.413   0.450  0.2266 -0.3675 -0.2696
    1SOL    HW2  262   1.117   1.413   0.413  0.2509 -1.5106 -0.2262
    1SOL    HW3  263   1.007   1.506   0.462  1.0507 -0.0555 -1.1613
    1SOL    MW4  264   1.037   1.426   0.446  0.3386 -0.4771 -0.3816
    1SOL     OW  265   0.957   1.727   0.464 -0.2628 -0.0762  0.2985
    1SOL    HW2  266   1.052   1.730   0.470 -0.1291 -0.6099 -1.2142
    1SOL    HW3  267   0.928   1.709   0.553  1.0248  0.5123  0.8542
    1SOL    MW4  268   0.966   1.725   0.477 -0.0753 -0.0690  0.1723
    1SOL     OW  269   0.352   2.008   0.519 -0.1365  0.2224  0.2869
    1SOL    HW2  270   0.281   1.989   0.458 -0.8128  0.4523  0.9970
    1SOL    HW3  271   0.407   1.930   0.517 -0.0276  0.3181 -0.7816
    1SOL    MW4  272   0.350   1.995   0.511 -0.2114  0.2656  0.2397
    1SOL     OW  273   0.810   2.008   0.512 -0.3940  0.4764 -0.4352
    1SOL    HW2  274   0.874   2.073   0.486  0.8493 -0.1502  0.9608
    1SOL    HW3  275   0.854   1.924   0.498 -0.1283  0.0932  2.3696
    1SOL    MW4  276   0.824   2.005   0.507 -0.1948  0.3433  0.1190
    1SOL     OW  277   0.847   2.444   0.513 -0.5901 -0.5366 -0.5197
    1SOL    HW2  278   0.893   2.362   0.493 -1.3987 -1.2101  0.3281
    1SOL    HW3  279   0.858   2.455   0.607 -0.9976  0.0204 -0.5391
    1SOL    MW4  280   0.855   2.435   0.523 -0.7505 -0.5519 -0.4105
    1SOL     OW  281   0.562   2.188   0.465  0.2494 -0.1325  0.1607
    1SOL    HW2  282   0.642   2.137   0.476 -1.1329 -2.4233 -0.0286
    1SOL    HW3  283   0.492   2.129   0.494 -1.7267  0.2815 -3.4678
    1SOL    MW4  284   0.563   2.173   0.470 -0.1938 -0.3803 -0.3430
    1SOL     OW  285   1.059   2.632   0.480  0.2371 -0.1675  0.2538
    1SOL    HW2  286   1.010   2.552   0.494  1.0812 -0.7829 -0.2455
    1SOL    HW3  287   0.995   2.694   0.445  0.0124 -1.2699 -1.3394
    1SOL    MW4  288   1.044   2.630   0.477  0.3189 -0.3943 -0.0223
    1SOL     OW  289   0.600   2.424   0.286  0.0227  0.4775 -0.4610
    1SOL    HW2  290   0.688   2.460   0.278 -0.1110  0.3725 -2.7658
    1SOL    HW3  291   0.613   2.336   0.324  0.9519  0.2629 -1.2612
    1SOL    MW4  292   0.613   2.417   0.290  0.1277  0.4354 -0.8707
    1SOL     OW  293   0.604   2.919   0.461  0.6845  0.0388 -0.1437
    1SOL    HW2  294   0.603   2.902   0.555 -2.9479  0.8024  0.0049
    1SOL    HW3  295   0.612   3.014   0.453 -0.6601  0.1323 -0.5387
    1SOL    MW4  296   0.605   2.929   0.472  0.0278  0.1519 -0.1762
    1SOL     OW  297   1.081   3.322   0.486 -0.0254 -0.2394  0.1145
    1SOL    HW2  298   1.055   3.288   0.571 -1.0973 -0.7340 -0.4021
    1SOL    HW3  299   1.000   3.325   0.435  0.8716 -1.6215 -1.4749
    1SOL    MW4  300   1.067   3.318   0.490 -0.0484 -0.4871 -0.1633
    1SOL     OW  301   1.345   3.701   0.417  0.5121 -0.2603  0.6534
    1SOL    HW2  302   1.425   3.694   0.469  0.5596 -0.6546  0.5328
    1SOL    HW3  303   1.280   3.649   0.464  0.6680 -0.9638  0.1202
    1SOL    MW4  304   1.347   3.693   0.430  0.5388 -0.4053  0.5672
    1SOL     OW  305   1.134   4.070   0.320 -0.0654  0.2115  0.2113
    1SOL    HW2  306   1.155   4.145   0.265 -1.2695  0.8473  0.6112
    1SOL    HW3  307   1.056   4.096   0.368 -0.0015 -0.9772  0.9835
    1SOL    MW4  308   1.127   4.083   0.319 -0.2159  0.1383  0.3660
    1SOL     OW  309   0.745   3.913   0.380  0.7633 -0.5637  0.5323
    1SOL    HW2  310   0.792   3.991   0.411 -0.3383 -0.1649  1.2140
    1SOL    HW3  311   0.653   3.931   0.399  0.2799 -1.1669 -1.1547
    1SOL    MW4  312   0.739   3.926   0.386  0.5542 -0.5906  0.3997
    1SOL     OW  313   1.221   4.354   0.250  0.0920  0.2856  0.0123
    1SOL    HW2  314   1.284   4.421   0.225  0.2973 -0.5466 -1.8021
    1SOL    HW3  315   1.174   4.391   0.325  0.9478  1.9792 -0.2746
    1SOL    MW4  316   1.223   4.367   0.257  0.2320  0.3991 -0.2649
    1SOL     OW  317   1.207   0.498   0.445  0.1906  0.4375  0.1566
    1SOL    HW2  318   1.206   0.403   0.445 -0.2792  0.4399  0.8669
    1SOL    HW3  319   1.300   0.521   0.450  0.3567  0.0233 -0.9512
    1SOL    MW4  320   1.219   0.489   0.446  0.1504  0.3832  0.1042
    1SOL     OW  321   0.971   0.067   0.457 -0.2151  0.2673  0.4423
    1SOL    HW2  322   1.020  -0.014   0.470 -1.9488 -1.0194 -0.6688
    1SOL    HW3  323   0.941   0.092   0.544  0.6172 -0.0908  0.8364
    1SOL    MW4  324   0.973   0.059   0.470 -0.3340  0.0503  0.3477
    1SOL     OW  325   1.564   0.323   0.326 -0.1566 -0.0407 -0.2321
    1SOL    HW2  326   1.657   0.342   0.321  0.1570 -1.4614 -0.1076
    1SOL    HW3  327   1.524   0.404   0.356  0.9765  0.7358 -0.7962
    1SOL    MW4  328   1.571   0.336   0.329  0.0343 -0.1257 -0.2900
    1SOL     OW  329   1.713   0.541   0.542  0.2125  0.3164  0.2126
    1SOL    HW2  330   1.745   0.471   0.484  0.7860  0.2693  0.5789
    1SOL    HW3  331   1.659   0.495   0.606  0.3826  0.2456  0.3038
    1SOL    MW4  332   1.710   0.525   0.543  0.3107  0.3009  0.2729
    1SOL     OW  333   1.206   0.209   0.494  0.4323 -0.2123  0.0927
    1SOL    HW2  334   1.125   0.163   0.471  1.0542 -1.5062  0.4409
    1SOL    HW3  335   1.273   0.169   0.439  1.3214 -1.0358  1.7194
    1SOL    MW4  336   1.204   0.198   0.484  0.6316 -0.4916  0.3533
    1SOL     OW  337   2.047   0.613   0.298  0.0128 -0.1258 -0.3690
    1SOL    HW2  338   2.082   0.665   0.226 -1.3215  0.0093 -0.9228
    1SOL    HW3  339   1.995   0.674   0.350  0.0238 -0.4836  0.0751
    1SOL    MW4  340   2.045   0.628   0.296 -0.1616 -0.1552 -0.3834
    1SOL     OW  341   2.291   0.802   0.371 -0.5514 -0.3759 -0.4062
    1SOL    HW2  342   2.243   0.719   0.381  0.2025 -0.9490 -1.4613
    1SOL    HW3  343   2.383   0.777   0.378 -0.2296  0.0858 -2.5497
    1SOL    MW4  344   2.297   0.787   0.373 -0.4096 -0.3907 -0.8282
    1SOL     OW  345   1.830   1.057   0.547  0.2119  0.0325  0.3648
    1SOL    HW2  346   1.828   0.997   0.622  0.8809  1.1533  1.2806
    1SOL    HW3  347   1.738   1.076   0.530  0.0433 -0.4550  0.7103
    1SOL    MW4  348   1.817   1.051   0.555  0.2780  0.1160  0.5313
    1SOL     OW  349   1.558   1.337   0.447  0.4863 -0.2840  0.3266
    1SOL    HW2  350   1.560   1.243   0.427 -0.0197  0.4322 -3.5923
    1SOL    HW3  351   1.647   1.367   0.431  0.0310  0.3516 -1.0812
    1SOL    MW4  352   1.570   1.329   0.442  0.3595 -0.1056 -0.3762
    1SOL     OW  353   1.323   1.489   0.314 -0.6562 -0.4398  0.5372
    1SOL    HW2  354   1.385   1.460   0.381 -0.3447 -0.9384  0.0309
    1SOL    HW3  355   1.377   1.506   0.237 -0.9934  0.3030  0.4578
    1SOL    MW4  356   1.338   1.488   0.313 -0.6596 -0.4075  0.4599
    1SOL     OW  357   1.224   1.687   0.476 -0.2577 -0.2750 -0.0572
    1SOL    HW2  358   1.273   1.669   0.557  1.9632  0.3545 -1.2135
    1SOL    HW3  359   1.259   1.624   0.413 -0.8100  0.3168 -0.9595
    1SOL    MW4  360   1.235   1.676   0.479 -0.0374 -0.1138 -0.3288
    1SOL     OW  361   1.236   2.197   0.331 -0.1005 -0.2506 -0.0083
    1SOL    HW2  362   1.308   2.256   0.309 -0.1738 -0.6995 -1.4862
    1SOL    HW3  363   1.279   2.122   0.372  0.3233 -0.7342 -1.3289
    1SOL    MW4  364   1.252   2.195   0.334 -0.0542 -0.3736 -0.3776
    1SOL     OW  365   1.332   2.568   0.473 -0.0249 -0.4515  0.6582
    1SOL    HW2  366   1.242   2.591   0.451  0.5404  1.2795  0.0659
    1SOL    HW3  367   1.377   2.653   0.482  1.3270 -1.2637  1.8608
    1SOL    MW4  368   1.326   2.583   0.471  0.2280 -0.3300  0.7387
    1SOL     OW  369   1.997   2.141   0.478 -0.2563  0.4168  0.0455
    1SOL    HW2  370   1.992   2.155   0.573 -0.9719 -0.9467  0.2340
    1SOL    HW3  371   2.066   2.075   0.467 -0.8830 -0.1960 -0.2772
    1SOL    MW4  372   2.005   2.134   0.489 -0.4334  0.1559  0.0278
    1SOL     OW  373   1.547   2.059   0.494  0.3621  0.2964  0.1065
    1SOL    HW2  374   1.509   2.148   0.496  0.1471  0.2763 -2.0616
    1SOL    HW3  375   1.471   2.001   0.493  0.4679  0.1712 -1.2046
    1SOL    MW4  376   1.532   2.063   0.494  0.3476  0.2773 -0.3526
    1SOL     OW  377   0.991   2.207   0.451 -0.3422  0.6206 -0.2660
    1SOL    HW2  378   1.020   2.180   0.538 -0.1679  1.4922 -0.0429
    1SOL    HW3  379   1.072   2.213   0.400 -0.4586 -0.0222 -0.5282
    1SOL    MW4  380   1.005   2.204   0.456 -0.3346  0.6506 -0.2711
    1SOL     OW  381   0.878   2.811   0.354  0.1874 -0.0569 -0.4441
    1SOL    HW2  382   0.800   2.865   0.366 -0.0181 -0.6445  0.9491
    1SOL    HW3  383   0.917   2.843   0.272 -1.2026  0.6168 -0.8624
    1SOL    MW4  384   0.873   2.822   0.344 -0.0231 -0.0455 -0.3155
    1SOL     OW  385   2.147   2.374   0.370  0.5051  0.0293  0.0643
    1SOL    HW2  386   2.224   2.390   0.424  0.5970  0.5143 -0.2127
    1SOL    HW3  387   2.109   2.293   0.406  1.2508 -0.3256  0.0621
    1SOL    MW4  388   2.152   2.365   0.382  0.6154  0.0463  0.0274
    1SOL     OW  389   1.673   4.124   0.486  0.1441 -0.7382  0.4982
    1SOL    HW2  390   1.589   4.165   0.467  0.4360 -0.6699 -0.6642
    1SOL    HW3  391   1.669   4.039   0.443  0.8831 -0.5039 -0.0454
    1SOL    MW4  392   1.662   4.118   0.478  0.2803 -0.6981  0.2731
    1SOL     OW  393   1.355   3.964   0.479  0.4585  0.1825  0.0221
    1SOL    HW2  394   1.345   3.870   0.472  0.3449  0.0379  1.8750
    1SOL    HW3  395   1.280   4.000   0.432  0.5328 -0.6478 -0.7383
    1SOL    MW4  396   1.344   3.957   0.472  0.4535  0.0539  0.1662
    1SOL     OW  397   1.764   2.821   0.380  0.1597 -0.2098  0.3713
    1SOL    HW2  398   1.680   2.779   0.397  0.4279 -0.1893  1.7827
    1SOL    HW3  399   1.816   2.754   0.336 -0.4830 -0.3273 -0.2139
    1SOL    MW4  400   1.760   2.807   0.376  0.1101 -0.2224  0.4803
    1SOL     OW  401   1.606   3.603   0.292  0.1051 -0.9129 -0.0875
    1SOL    HW2  402   1.661   3.536   0.334  0.7629 -1.3001 -1.5240
    1SOL    HW3  403   1.517   3.579   0.317  0.4928 -0.8968  1.3980
    1SOL    MW4  404   1.602   3.591   0.301  0.2431 -0.9618 -0.0811
    1SOL     OW  405   1.365   3.270   0.522 -0.0768 -0.2281  0.3325
    1SOL    HW2  406   1.380   3.186   0.477 -0.0629 -0.1758  0.2393
    1SOL    HW3  407   1.281   3.300   0.489  1.0339  0.9843 -1.4862
    1SOL    MW4  408   1.356   3.263   0.512  0.0715 -0.0613  0.0803
    1SOL     OW  409   1.618   3.433   0.530 -0.2026 -0.1997  0.4005
    1SOL    HW2  410   1.540   3.377   0.530 -0.4780  0.1784  0.4154
    1SOL    HW3  411   1.691   3.372   0.520 -0.5873 -0.4412 -1.0124
    1SOL    MW4  412   1.617   3.418   0.529 -0.2897 -0.1817  0.2161
    1SOL     OW  413   0.932   4.100   0.513 -0.1543  0.1333 -0.3768
    1SOL    HW2  414   0.949   4.088   0.607 -0.1612 -0.9516 -0.5086
    1SOL    HW3  415   0.902   4.190   0.506  1.4857  0.7797  0.4477
    1SOL    MW4  416   0.930   4.110   0.525  0.0612  0.0753 -0.2854
    1SOL     OW  417   2.309   4.498   0.400 -0.0122  0.1944  0.1027
    1SOL    HW2  418   2.231   4.453   0.432  0.2491 -0.9302 -0.7957
    1SOL    HW3  419   2.381   4.459   0.450  0.2514 -0.6424 -0.9072
    1SOL    MW4  420   2.308   4.487   0.411  0.0570 -0.0639 -0.1491
    1SOL     OW  421   1.810   4.530   0.374  0.3331 -0.3006 -0.3319
    1SOL    HW2  422   1.726   4.537   0.418  0.7850  1.7651  0.2768
    1SOL    HW3  423   1.826   4.436   0.365 -2.4217 -0.7036 -1.2244
    1SOL    MW4  424   1.801   4.519   0.378  0.0292 -0.0820 -0.3694
    1SOL     OW  425   1.956   0.107   0.462  0.4303  0.1405 -0.0665
    1SOL    HW2  426   1.913   0.101   0.547  0.8053 -0.8176  0.0666
    1SOL    HW3  427   1.914   0.039   0.409 -0.5538  1.4593 -0.9890
    1SOL    MW4  428   1.945   0.097   0.466  0.3499  0.1881 -0.1706
    1SOL     OW  429   1.440   0.069   0.364 -0.2790 -0.0730  0.0680
    1SOL    HW2  430   1.499   0.142   0.346 -0.5015 -0.0512 -0.5773
    1SOL    HW3  431   1.488   0.014   0.426 -0.4626  1.0565  1.2344
    1SOL    MW4  432   1.454   0.071   0.370 -0.3325  0.0789  0.1367
    1SOL     OW  433   2.181   0.444   0.493 -0.4674 -0.5242  0.0750
    1SOL    HW2  434   2.164   0.355   0.462 -0.5201 -0.1503 -1.0034
    1SOL    HW3  435   2.135   0.500   0.431 -1.1732  0.2280  1.2587
    1SOL    MW4  436   2.173   0.440   0.481 -0.5674 -0.3756  0.0889
    1SOL     OW  437   2.389   1.525   0.464  0.0301  0.4251 -0.6579
    1SOL    HW2  438   2.359   1.461   0.399 -0.2777 -0.0145 -0.0819
    1SOL    HW3  439   2.312   1.577   0.485 -0.4414 -1.0179  1.1810
    1SOL    MW4  440   2.375   1.524   0.458 -0.0727  0.1768 -0.3393
    1SOL     OW  441   2.280   1.055   0.505  0.2057 -0.0740 -0.1194
    1SOL    HW2  442   2.357   1.107   0.478 -1.1567  1.0624 -1.9711
    1SOL    HW3  443   2.282   0.979   0.447 -0.0909 -0.0304 -0.1838
    1SOL    MW4  444   2.290   1.052   0.493 -0.0134  0.0817 -0.3722
    1SOL     OW  445   2.043   1.224   0.481 -0.4950  0.0078 -0.1488
    1SOL    HW2  446   1.972   1.162   0.496 -0.3218 -0.1854 -0.1309
    1SOL    HW3  447   2.123   1.173   0.494 -0.3193 -0.4254 -2.6051
    1SOL    MW4  448   2.044   1.209   0.485 -0.4489 -0.0750 -0.4705
    1SOL     OW  449   2.693   1.344   0.313  0.0096  0.0879 -0.0033
    1SOL    HW2  450   2.788   1.342   0.319 -0.1280 -1.6485  2.3617
    1SOL    HW3  451   2.667   1.424   0.359  0.2469 -0.2941  0.7984
    1SOL    MW4  452   2.702   1.354   0.320  0.0226 -0.1917  0.4146
    1SOL     OW  453   2.158   1.691   0.494 -0.2082  0.1549  0.0260
    1SOL    HW2  454   2.176   1.781   0.470 -0.3237  0.4396  1.0052
    1SOL    HW3  455   2.062   1.687   0.503 -0.2550 -0.2052 -0.5597
    1SOL    MW4  456   2.148   1.702   0.492 -0.2298  0.1448  0.0780
    1SOL     OW  457   1.793   1.933   0.453 -0.3246 -0.0687 -0.0423
    1SOL    HW2  458   1.846   2.012   0.446 -0.2078 -0.0764  0.7151
    1SOL    HW3  459   1.707   1.964   0.482 -0.6254 -0.0967 -0.8889
    1SOL    MW4  460   1.789   1.947   0.456 -0.3489 -0.0733 -0.0541
    1SOL     OW  461   2.357   2.368   0.552 -0.0122 -0.1369 -0.0753
    1SOL    HW2  462   2.443   2.409   0.541  0.1771 -0.3120  0.7390
    1SOL    HW3  463   2.330   2.390   0.641 -0.6245 -0.4414 -0.1757
    1SOL    MW4  464   2.365   2.376   0.562 -0.0679 -0.2003  0.0188
    1SOL     OW  465   1.870   3.246   0.603 -0.2846  0.0515 -0.6463
    1SOL    HW2  466   1.933   3.175   0.606 -0.8946 -0.4287  0.8821
    1SOL    HW3  467   1.884   3.287   0.517  1.7300 -0.3632 -0.5213
    1SOL    MW4  468   1.880   3.242   0.592 -0.0992 -0.0665 -0.4282
    1SOL     OW  469   1.499   2.796   0.499  0.1338 -0.1191 -0.0807
    1SOL    HW2  470   1.459   2.878   0.472  0.6666 -0.1295 -0.9180
    1SOL    HW3  471   1.532   2.814   0.588 -1.4985 -0.0512  0.5291
    1SOL    MW4  472   1.498   2.809   0.507 -0.0113 -0.1116 -0.1107
    1SOL     OW  473   1.411   3.036   0.383 -0.5311 -0.2903  0.6257
    1SOL    HW2  474   1.506   3.049   0.374 -0.5890  0.0400  0.5155
    1SOL    HW3  475   1.381   3.014   0.295 -0.7704  0.9261  0.4002
    1SOL    MW4  476   1.420   3.035   0.370 -0.5703 -0.0865  0.5814
    1SOL     OW  477   1.293   1.961   0.497 -0.1759 -0.0204  0.3167
    1SOL    HW2  478   1.255   1.993   0.579  0.0318 -1.0914  0.8418
    1SOL    HW3  479   1.274   1.867   0.496  1.1499 -0.3014 -0.1249
    1SOL    MW4  480   1.286   1.953   0.508  0.0265 -0.1987  0.3278
    1SOL     OW  481   3.576   2.375   0.331 -0.0016  0.0713 -0.1056
    1SOL    HW2  482   3.648   2.332   0.285 -0.5591 -1.4381  0.3790
    1SOL    HW3  483   3.560   2.318   0.406 -1.8024  0.2995 -0.3086
    1SOL    MW4  484   3.583   2.362   0.335 -0.3128 -0.0978 -0.0685
    1SOL     OW  485   1.982   2.562   0.516  0.4984 -0.2784 -0.0580
    1SOL    HW2  486   2.029   2.621   0.575 -0.4058  1.2680 -0.8391
    1SOL    HW3  487   2.050   2.521   0.464  1.0938  0.8882 -0.2288
    1SOL    MW4  488   1.997   2.565   0.517  0.4578  0.0796 -0.1836
    1SOL     OW  489   1.485   2.331   0.478 -0.4521  0.2013  0.2213
    1SOL    HW2  490   1.572   2.370   0.464  0.0602 -1.2083 -0.6187
    1SOL    HW3  491   1.424   2.404   0.468  0.6143  1.1262  0.4049
    1SOL    MW4  492   1.489   2.346   0.475 -0.2438  0.1371  0.1347
    1SOL     OW  493   1.677   3.072   0.460 -0.3744  0.7731  0.3235
    1SOL    HW2  494   1.703   2.980   0.451 -1.7312  0.3447  0.6551
    1SOL    HW3  495   1.754   3.115   0.498  0.0710 -0.3325  0.6890
    1SOL    MW4  496   1.691   3.066   0.464 -0.4946  0.5708  0.4154
    1SOL     OW  497   2.247   3.177   0.563 -0.1911 -0.2608  0.0557
    1SOL    HW2  498   2.183   3.106   0.569 -0.3592 -0.0599  0.6697
    1SOL    HW3  499   2.261   3.205   0.653  0.7474 -0.2801 -0.0826
    1SOL    MW4  500   2.240   3.172   0.575 -0.0896 -0.2367  0.1186
    1SOL     OW  501   1.724   3.841   0.397 -0.0174  0.0918 -0.3827
    1SOL    HW2  502   1.675   3.788   0.334 -1.0633  0.2911  0.2510
    1SOL    HW3  503   1.805   3.793   0.411  0.3347  0.1668 -2.0576
    1SOL    MW4  504   1.728   3.828   0.391 -0.1090  0.1283 -0.5201
    1SOL     OW  505   1.451   4.298   0.433  0.1849  0.4909 -0.2069
    1SOL    HW2  506   1.396   4.270   0.506  0.5983  2.0298  0.7238
    1SOL    HW3  507   1.390   4.316   0.362 -0.2818 -0.3394 -0.0218
    1SOL    MW4  508   1.436   4.296   0.433  0.1779  0.5841 -0.0596
    1SOL     OW  509   1.577   4.515   0.514 -0.5418  0.4887  0.1949
    1SOL    HW2  510   1.584   4.489   0.606  0.9875  0.8252  0.1803
    1SOL    HW3  511   1.533   4.441   0.472 -0.6237  0.0356  1.0672
    1SOL    MW4  512   1.572   4.502   0.520 -0.3508  0.4725  0.3081
    1SOL     OW  513   1.412   4.541   0.166 -0.4743  0.4934  0.2323
    1SOL    HW2  514   1.410   4.617   0.224  0.8741  0.5476  0.2334
    1SOL    HW3  515   1.498   4.545   0.124 -1.4896  0.5585 -1.9269
    1SOL    MW4  516   1.423   4.552   0.168 -0.4303  0.5088 -0.0525
    1SOL     OW  517   2.453   0.198   0.588  0.7993  0.0449  0.2829
    1SOL    HW2  518   2.521   0.135   0.564  0.6299  0.3525 -1.0403
    1SOL    HW3  519   2.377   0.172   0.537  0.2192  0.3228  0.9925
    1SOL    MW4  520   2.452   0.186   0.578  0.7005  0.1221  0.2020
    1SOL     OW  521   2.237   0.100   0.450  0.6366 -0.1215 -0.1753
    1SOL    HW2  522   2.266   0.015   0.417 -0.1631  0.0483 -1.3450
    1SOL    HW3  523   2.142   0.093   0.455  0.6682  0.1892  1.2114
    1SOL    MW4  524   2.228   0.088   0.447  0.5350 -0.0581 -0.1467
    1SOL     OW  525   2.673   0.921   0.515  0.8451  0.0367 -0.3913
    1SOL    HW2  526   2.653   0.838   0.471  1.9201 -0.6992  0.4675
    1SOL    HW3  527   2.767   0.932   0.504  1.1052 -0.0452  1.4579
    1SOL    MW4  528   2.683   0.911   0.508  1.0209 -0.0712 -0.0339
    1SOL     OW  529   2.548   0.712   0.381 -0.2840  0.0140 -0.0472
    1SOL    HW2  530   2.535   0.619   0.397 -0.2946  0.0818  0.3300
    1SOL    HW3  531   2.625   0.716   0.324 -0.7555 -0.2723 -0.7121
    1SOL    MW4  532   2.557   0.700   0.375 -0.3476 -0.0149 -0.0852
    1SOL     OW  533   3.031   0.782   0.251  0.2861 -0.2170  0.3632
    1SOL    HW2  534   3.034   0.826   0.336 -1.1236  0.0489  0.2737
    1SOL    HW3  535   3.090   0.707   0.261  2.1359  1.2437  0.7543
    1SOL    MW4  536   3.039   0.778   0.263  0.3440  0.0108  0.4030
    1SOL     OW  537   2.947   0.917   0.500 -0.2248 -0.0036 -0.5979
    1SOL    HW2  538   2.995   0.905   0.582 -0.5392  0.2027 -0.3789
    1SOL    HW3  539   2.959   1.009   0.478 -0.3544  0.0018 -0.6469
    1SOL    MW4  540   2.955   0.928   0.508 -0.2835  0.0243 -0.5754
    1SOL     OW  541   3.032   1.217   0.501 -0.0949  0.0430  0.1432
    1SOL    HW2  542   2.995   1.295   0.459  1.0279  0.7575  0.4833
    1SOL    HW3  543   3.003   1.224   0.592 -0.8662 -0.4819 -0.0581
    1SOL    MW4  544   3.023   1.229   0.508 -0.0486  0.0681  0.1615
    1SOL     OW  545   2.687   1.563   0.500 -0.1933 -0.5814  0.0488
    1SOL    HW2  546   2.716   1.615   0.574  1.0935 -0.1127 -0.7642
    1SOL    HW3  547   2.592   1.573   0.498 -0.1631 -0.0614  1.2258
    1SOL    MW4  548   2.679   1.571   0.509 -0.0198 -0.4510  0.0968
    1SOL     OW  549   2.867   0.456   0.271  0.4511  0.2606 -0.7454
    1SOL    HW2  550   2.954   0.485   0.243  0.5873  0.2590 -0.3296
    1SOL    HW3  551   2.813   0.535   0.266  0.4498  0.2415 -1.0921
    1SOL    MW4  552   2.871   0.470   0.267  0.4690  0.2579 -0.7363
    1SOL     OW  553   2.230   1.978   0.385  0.5627  0.0928 -0.0674
    1SOL    HW2  554   2.317   2.012   0.408  0.8608 -0.9053  0.2778
    1SOL    HW3  555   2.241   1.942   0.297  0.4223  0.2113 -0.1348
    1SOL    MW4  556   2.243   1.978   0.376  0.5834 -0.0232 -0.0308
    1SOL     OW  557   1.891   1.683   0.526  0.1730 -0.1727 -0.1295
    1SOL    HW2  558   1.855   1.680   0.615 -0.1593 -0.7975 -0.2761
    1SOL    HW3  559   1.867   1.770   0.493 -0.2106 -0.1562  0.1875
    1SOL    MW4  560   1.883   1.694   0.533  0.0787 -0.2530 -0.1070
    1SOL     OW  561   2.473   2.118   0.478  0.0569 -0.3478  0.4676
    1SOL    HW2  562   2.415   2.194   0.484 -1.0010 -0.8998 -2.0164
    1SOL    HW3  563   2.560   2.155   0.464 -0.4378  0.4259 -0.6371
    1SOL    MW4  564   2.477   2.133   0.477 -0.1476 -0.3185 -0.0059
    1SOL     OW  565   2.724   2.249   0.502  0.2503 -0.1952 -0.4010
    1SOL    HW2  566   2.780   2.318   0.466 -0.4456  0.8160  0.4279
    1SOL    HW3  567   2.781   2.200   0.561  0.4472  0.3828 -0.1108
    1SOL    MW4  568   2.739   2.251   0.505  0.1845  0.0145 -0.2533
    1SOL     OW  569   2.545   2.842   0.521  0.2777 -0.1700  0.2915
    1SOL    HW2  570   2.516   2.924   0.481 -0.3635 -1.1062 -1.1896
    1SOL    HW3  571   2.509   2.844   0.610 -0.8816  0.5289 -0.1899
    1SOL    MW4  572   2.537   2.853   0.527  0.0403 -0.2015  0.0325
    1SOL     OW  573   1.798   2.352   0.537  0.2129  0.0759 -0.2632
    1SOL    HW2  574   1.845   2.273   0.513  0.6119 -0.4715  2.2623
    1SOL    HW3  575   1.856   2.423   0.509  0.1646 -0.4856 -1.8903
    1SOL    MW4  576   1.812   2.351   0.530  0.2590 -0.0706 -0.1447
    1SOL     OW  577   1.995   3.002   0.566  0.1174  0.5151  0.2566
    1SOL    HW2  578   2.001   2.935   0.634 -0.2969  0.0357 -0.1765
    1SOL    HW3  579   1.965   2.955   0.488  2.3698  0.7120 -0.7655
    1SOL    MW4  580   1.992   2.987   0.565  0.3600  0.4778  0.0646
    1SOL     OW  581   1.936   3.686   0.497 -0.0483 -0.2813 -0.0881
    1SOL    HW2  582   2.017   3.695   0.447  0.7912 -2.8741  0.7096
    1SOL    HW3  583   1.962   3.699   0.588 -0.4768 -1.3604  0.1941
    1SOL    MW4  584   1.950   3.689   0.503  0.0058 -0.7658  0.0544
    1SOL     OW  585   1.977   3.972   0.342 -0.5076 -0.5538 -0.0262
    1SOL    HW2  586   1.889   3.957   0.306 -0.7275  1.8967 -0.5661
    1SOL    HW3  587   2.030   3.902   0.303 -2.1356 -1.9105  0.1020
    1SOL    MW4  588   1.972   3.961   0.332 -0.7514 -0.4094 -0.0805
    1SOL     OW  589   1.572   3.704   0.597  0.0095 -0.1025  0.1132
    1SOL    HW2  590   1.601   3.618   0.569 -1.3330  0.0384 -1.8712
    1SOL    HW3  591   1.625   3.765   0.545 -0.0999  0.2372  0.3957
    1SOL    MW4  592   1.583   3.701   0.586 -0.1820 -0.0391 -0.1113
    1SOL     OW  593   1.883   3.419   0.376 -0.4204 -0.1863 -0.2636
    1SOL    HW2  594   1.940   3.440   0.302 -0.5496  0.6252 -0.1385
    1SOL    HW3  595   1.891   3.494   0.434 -0.3700 -0.7934  0.5181
    1SOL    MW4  596   1.891   3.432   0.374 -0.4307 -0.1595 -0.1439
    1SOL     OW  597   2.064   4.451   0.530  0.5128 -0.4202 -0.4390
    1SOL    HW2  598   2.025   4.378   0.481  0.8536 -0.0793 -1.2418
    1SOL    HW3  599   2.017   4.528   0.497  0.0417 -0.2956  0.5204
    1SOL    MW4  600   2.052   4.451   0.519  0.4957 -0.3591 -0.4183
    1SOL     OW  601   1.922   4.253   0.411  0.1653 -0.1675 -0.1320
    1SOL    HW2  602   1.840   4.218   0.446  0.2262 -0.7983 -0.6099
    1SOL    HW3  603   1.965   4.177   0.370  1.5271 -0.1009  1.1219
    1SOL    MW4  604   1.917   4.238   0.410  0.3529 -0.2422 -0.0296
    1SOL     OW  605   2.543   4.496   0.270  0.3767  0.5479 -0.2723
    1SOL    HW2  606   2.561   4.573   0.325 -0.8893  0.7738 -0.1639
    1SOL    HW3  607   2.450   4.477   0.284  0.4093 -0.3241 -1.1629
    1SOL    MW4  608   2.533   4.504   0.279  0.2141  0.4630 -0.3755
    1SOL     OW  609   2.157   3.743   0.312 -1.1760 -0.1243  0.2070
    1SOL    HW2  610   2.147   3.662   0.261 -0.1477  0.1690 -0.4811
    1SOL    HW3  611   2.238   3.730   0.362 -0.4587  0.8643 -0.6679
    1SOL    MW4  612   2.166   3.730   0.312 -0.9456  0.0448  0.0008
    1SOL     OW  613   2.442   4.226   0.332 -0.0005 -0.9211 -0.0132
    1SOL    HW2  614   2.379   4.259   0.267 -2.4331 -0.1133  2.6374
    1SOL    HW3  615   2.429   4.131   0.331  0.0964 -0.9288 -0.8370
    1SOL    MW4  616   2.432   4.218   0.323 -0.3085 -0.8154  0.2278
    1SOL     OW  617   2.470   0.455   0.504  0.0619 -0.2600  0.0254
    1SOL    HW2  618   2.375   0.466   0.493 -0.0032 -2.1871 -1.5424
    1SOL    HW3  619   2.480   0.364   0.531  1.5282 -0.2529 -0.4550
    1SOL    MW4  620   2.459   0.444   0.506  0.2468 -0.5133 -0.2449
    1SOL     OW  621   1.836   0.360   0.363 -0.8301 -0.1788  0.4160
    1SOL    HW2  622   1.909   0.420   0.353 -0.9588 -0.1981 -0.7300
    1SOL    HW3  623   1.877   0.275   0.381 -0.5025 -0.4190 -1.3235
    1SOL    MW4  624   1.851   0.357   0.364 -0.8038 -0.2130  0.0353
    1SOL     OW  625   3.174   0.313   0.435  0.1727  0.0299 -0.1276
    1SOL    HW2  626   3.234   0.379   0.470  0.5023 -0.0198 -0.5952
    1SOL    HW3  627   3.225   0.232   0.435 -0.0142 -0.0873 -0.1733
    1SOL    MW4  628   3.189   0.311   0.439  0.1915  0.0078 -0.1953
    1SOL     OW  629   2.542   1.156   0.484 -0.0199  0.0393 -0.1325
    1SOL    HW2  630   2.583   1.210   0.417  0.5284 -1.1843 -0.8043
    1SOL    HW3  631   2.585   1.071   0.476 -0.2649 -0.2443  1.4859
    1SOL    MW4  632   2.553   1.152   0.474  0.0200 -0.1596 -0.0076
    1SOL     OW  633   3.272   0.797   0.513  0.0128 -0.0361 -0.1544
    1SOL    HW2  634   3.341   0.860   0.494 -0.7492  0.6332 -0.7212
    1SOL    HW3  635   3.218   0.839   0.581  0.8788 -1.0795  1.2053
    1SOL    MW4  636   3.274   0.810   0.520  0.0267 -0.0855 -0.0498
    1SOL     OW  637   3.210   1.542   0.487 -0.0447  0.0639  0.4140
    1SOL    HW2  638   3.261   1.465   0.513  0.7459  0.8814  1.3376
    1SOL    HW3  639   3.276   1.608   0.468 -0.7454  1.2341  1.9270
    1SOL    MW4  640   3.225   1.540   0.488 -0.0327  0.3260  0.7355
    1SOL     OW  641   3.285   1.163   0.393  0.1026 -0.1154 -0.2821
    1SOL    HW2  642   3.283   1.154   0.297  3.2179 -0.3179 -0.3942
    1SOL    HW3  643   3.194   1.175   0.418 -0.9698 -1.7813 -3.1135
    1SOL    MW4  644   3.273   1.163   0.383  0.3722 -0.3619 -0.6704
    1SOL     OW  645   3.419   1.748   0.455 -0.4106 -0.1232 -0.4538
    1SOL    HW2  646   3.376   1.833   0.462  0.6160  0.5169 -1.8623
    1SOL    HW3  647   3.500   1.758   0.504  0.3346  0.1259 -1.7307
    1SOL    MW4  648   3.424   1.760   0.462 -0.1767 -0.0060 -0.8081
    1SOL     OW  649   2.768   0.148   0.692  0.3457  0.2905  0.0010
    1SOL    HW2  650   2.725   0.201   0.760  0.4038  0.1391  0.1568
    1SOL    HW3  651   2.816   0.211   0.639 -0.3994  0.5116 -0.4225
    1SOL    MW4  652   2.768   0.163   0.694  0.2549  0.2997 -0.0343
    1SOL     OW  653   3.152   2.069   0.667  0.0427 -0.5457  0.1718
    1SOL    HW2  654   3.057   2.082   0.660  0.1420 -0.1715 -0.6183
    1SOL    HW3  655   3.164   2.015   0.745 -0.7345  0.4393  0.9886
    1SOL    MW4  656   3.141   2.064   0.676 -0.0467 -0.3664  0.1753
    1SOL     OW  657   2.812   2.496   0.380  0.2364 -0.1766  0.4307
    1SOL    HW2  658   2.808   2.472   0.287  1.2615  2.0679 -0.2147
    1SOL    HW3  659   2.903   2.518   0.396  0.1342 -0.8690  2.0751
    1SOL    MW4  660   2.823   2.495   0.370  0.3583  0.0284  0.5625
    1SOL     OW  661   2.946   1.454   0.390  0.2388  0.0472  0.5073
    1SOL    HW2  662   2.878   1.488   0.448  0.5109  0.8753  0.3520
    1SOL    HW3  663   3.028   1.490   0.425  0.6194 -1.0295  0.7630
    1SOL    MW4  664   2.948   1.463   0.402  0.3250  0.0144  0.5205
    1SOL     OW  665   2.592   2.573   0.522 -0.2959  0.3200  0.2463
    1SOL    HW2  666   2.570   2.663   0.497  0.2855  0.2362 -0.5966
    1SOL    HW3  667   2.666   2.550   0.465  0.1193 -0.3887  1.0627
    1SOL    MW4  668   2.599   2.582   0.511 -0.1645  0.2153  0.2428
    1SOL     OW  669   2.738   3.184   0.565 -0.4528 -0.0787  0.2833
    1SOL    HW2  670   2.807   3.240   0.529  0.5222 -1.0032  0.7028
    1SOL    HW3  671   2.720   3.219   0.652 -0.2175 -0.0969  0.3381
    1SOL    MW4  672   2.744   3.196   0.571 -0.2928 -0.2034  0.3458
    1SOL     OW  673   2.923   3.345   0.466  0.1613  0.2412  0.6779
    1SOL    HW2  674   3.015   3.318   0.469 -0.1724 -0.8064  2.2084
    1SOL    HW3  675   2.924   3.437   0.492  0.9469  0.7077 -0.9785
    1SOL    MW4  676   2.936   3.354   0.470  0.2210  0.1645  0.6613
    1SOL     OW  677   3.177   3.243   0.460  0.2735  0.0766 -0.1823
    1SOL    HW2  678   3.164   3.149   0.446 -1.2583 -0.1508  2.4521
    1SOL    HW3  679   3.161   3.256   0.553  0.3919  2.9753 -0.5164
    1SOL    MW4  680   3.173   3.233   0.470  0.0870  0.4292  0.1212
    1SOL     OW  681   2.285   3.423   0.396  0.2737  0.6015 -0.7399
    1SOL    HW2  682   2.357   3.375   0.356  1.1801  1.8010 -0.5977
    1SOL    HW3  683   2.249   3.363   0.461  0.2948 -0.4933 -1.7399
    1SOL    MW4  684   2.290   3.409   0.399  0.3958  0.6154 -0.8531
    1SOL     OW  685   2.101   3.462   0.195 -0.1664 -0.1201  0.3306
    1SOL    HW2  686   2.174   3.440   0.253 -0.7596 -1.7321  0.4833
    1SOL    HW3  687   2.121   3.417   0.113 -0.0431  0.9868 -0.2519
    1SOL    MW4  688   2.113   3.453   0.191 -0.2284 -0.1867  0.2739
    1SOL     OW  689   3.614   3.462   0.211 -0.3802  0.5014 -0.0255
    1SOL    HW2  690   3.693   3.415   0.237  0.3224  1.6566 -0.0670
    1SOL    HW3  691   3.543   3.412   0.250  0.3530 -0.6726 -0.1747
    1SOL    MW4  692   3.615   3.449   0.219 -0.1907  0.4988 -0.0506
    1SOL     OW  693   2.419   3.963   0.430 -0.0147 -0.0780  0.1316
    1SOL    HW2  694   2.332   3.963   0.470 -0.6525  0.9697 -1.2220
    1SOL    HW3  695   2.439   3.870   0.416 -0.9724 -0.3193  0.3385
    1SOL    MW4  696   2.410   3.951   0.433 -0.2253  0.0284 -0.0197
    1SOL     OW  697   2.406   3.695   0.473  0.6185 -0.3194 -0.4174
    1SOL    HW2  698   2.438   3.688   0.563 -0.4887  2.8781  0.3094
    1SOL    HW3  699   2.386   3.606   0.447  0.4932 -1.2427  2.6839
    1SOL    MW4  700   2.408   3.683   0.481  0.4556 -0.0191  0.0877
    1SOL     OW  701   3.684   3.951   0.455  0.2017  0.6611  0.0795
    1SOL    HW2  702   3.603   4.001   0.444 -1.0437 -1.0771  1.0545
    1SOL    HW3  703   3.665   3.866   0.417  1.3746  0.0496  0.8300
    1SOL    MW4  704   3.670   3.947   0.449  0.1922  0.3507  0.3072
    1SOL     OW  705   3.132   4.297   0.497 -0.4982 -0.2279 -0.0091
    1SOL    HW2  706   3.208   4.332   0.545 -1.0933 -0.4161  1.0750
    1SOL    HW3  707   3.164   4.215   0.459  0.6979  1.1247 -1.9864
    1SOL    MW4  708   3.147   4.291   0.498 -0.4189 -0.0744 -0.1269
    1SOL     OW  709   3.464   4.383   0.441 -0.3623 -0.4627  0.8770
    1SOL    HW2  710   3.548   4.426   0.426 -0.4516 -0.6975 -0.2836
    1SOL    HW3  711   3.403   4.430   0.385 -0.2488 -2.8048 -1.2842
    1SOL    MW4  712   3.467   4.395   0.432 -0.3593 -0.8025  0.4387
    1SOL     OW  713   3.229   4.498   0.310  0.0129  0.5147  0.3674
    1SOL    HW2  714   3.178   4.445   0.372 -0.2995  1.8645  1.2977
    1SOL    HW3  715   3.213   4.457   0.225 -0.3301 -0.7944  1.0408
    1SOL    MW4  716   3.220   4.486   0.307 -0.0734  0.5198  0.5789
    1SOL     OW  717   2.846   4.398   0.489  0.1072 -0.4715  0.3028
    1SOL    HW2  718   2.846   4.391   0.585 -1.2133 -0.9468  0.2644
    1SOL    HW3  719   2.935   4.374   0.464  1.3177  2.3765  1.6107
    1SOL    MW4  720   2.858   4.394   0.498  0.0927 -0.1583  0.4703
    1SOL     OW  721   2.775   0.719   0.235 -0.1334 -0.1012  0.4598
    1SOL    HW2  722   2.755   0.754   0.148 -1.0209 -0.1510  0.6441
    1SOL    HW3  723   2.869   0.736   0.246 -0.0328 -0.0234 -0.4713
    1SOL    MW4  724   2.785   0.726   0.225 -0.2372 -0.0975  0.3612
    1SOL     OW  725   3.382   0.519   0.523 -0.0101  0.1349 -0.5998
    1SOL    HW2  726   3.465   0.495   0.480  0.9186  0.3416  1.0192
    1SOL    HW3  727   3.360   0.604   0.486  1.0275  0.5238 -0.3388
    1SOL    MW4  728   3.390   0.527   0.512  0.2491  0.2135 -0.3517
    1SOL     OW  729   2.910   0.324   0.518 -0.5008 -0.0571  0.2496
    1SOL    HW2  730   2.880   0.359   0.434 -0.0647 -0.1357  0.0600
    1SOL    HW3  731   3.005   0.320   0.510 -0.2739  2.0215  1.5591
    1SOL    MW4  732   2.919   0.328   0.506 -0.4134  0.2068  0.3974
    1SOL     OW  733   3.604   0.466   0.384 -0.1369 -0.0379 -0.0807
    1SOL    HW2  734   3.673   0.526   0.414 -0.1239 -0.7271  1.3295
    1SOL    HW3  735   3.643   0.419   0.311  1.5914 -1.7559  1.8826
    1SOL    MW4  736   3.619   0.468   0.378  0.0930 -0.3555  0.3644
    1SOL     OW  737   3.140   0.511   0.240  0.2199  0.1286 -0.0795
    1SOL    HW2  738   3.220   0.511   0.188  0.4895 -0.3330  0.3327
    1SOL    HW3  739   3.152   0.441   0.304 -0.2013  0.5415  0.4661
    1SOL    MW4  740   3.152   0.502   0.242  0.2000  0.1222  0.0468
    1SOL     OW  741   3.610   1.817   0.626 -0.0586  0.1207  0.0490
    1SOL    HW2  742   3.626   1.740   0.680 -1.2537 -1.5898 -1.9474
    1SOL    HW3  743   3.540   1.864   0.671 -0.4677 -0.8387  0.4282
    1SOL    MW4  744   3.603   1.813   0.639 -0.2704 -0.2314 -0.1643
    1SOL     OW  745   3.323   2.014   0.479 -0.2291  0.0339 -0.0130
    1SOL    HW2  746   3.254   2.023   0.544  0.5657  0.6222  0.7687
    1SOL    HW3  747   3.298   2.071   0.407 -0.1130  0.9322  0.6586
    1SOL    MW4  748   3.311   2.023   0.478 -0.1087  0.2301  0.1788
    1SOL     OW  749   3.478   0.967   0.426 -0.1191 -0.0482  0.5857
    1SOL    HW2  750   3.426   1.047   0.430 -1.1787 -0.5995 -1.4056
    1SOL    HW3  751   3.527   0.966   0.509 -1.1747  1.8938  1.2717
    1SOL    MW4  752   3.478   0.977   0.438 -0.3979  0.1352  0.4135
    1SOL     OW  753   3.546   2.200   0.539  0.6281  0.1041  0.4337
    1SOL    HW2  754   3.473   2.144   0.514  0.2773  0.3067  1.0085
    1SOL    HW3  755   3.596   2.147   0.602  0.6617  0.1870  0.4771
    1SOL    MW4  756   3.543   2.186   0.544  0.5860  0.1419  0.5153
    1SOL     OW  757   3.291   2.312   0.635 -0.1832 -0.5717 -0.8313
    1SOL    HW2  758   3.246   2.232   0.664  0.6819 -0.9812 -0.5791
    1SOL    HW3  759   3.366   2.320   0.695 -0.4006  0.5665 -0.7018
    1SOL    MW4  760   3.295   2.302   0.647 -0.0978 -0.4756 -0.7809
    1SOL     OW  761   3.529   2.745   0.500  0.2484 -0.4139  0.1730
    1SOL    HW2  762   3.546   2.716   0.590  0.9764  1.1906  0.5669
    1SOL    HW3  763   3.585   2.690   0.446  0.0388 -1.1775  0.7235
    1SOL    MW4  764   3.539   2.734   0.505  0.3169 -0.3030  0.2977
    1SOL     OW  765   2.481   3.100   0.450  0.4654 -0.6150 -0.2206
    1SOL    HW2  766   2.401   3.132   0.490  0.3787  0.7402 -1.4466
    1SOL    HW3  767   2.551   3.136   0.504  0.3271  0.6500 -0.8576
    1SOL    MW4  768   2.480   3.109   0.462  0.4358 -0.2692 -0.4664
    1SOL     OW  769   3.245   2.750   0.442 -0.0436 -0.2747 -0.2836
    1SOL    HW2  770   3.203   2.674   0.401  0.1318 -1.5799  1.8766
    1SOL    HW3  771   3.339   2.733   0.431 -0.0011 -0.5190  0.4740
    1SOL    MW4  772   3.252   2.737   0.435 -0.0148 -0.4790  0.1014
    1SOL     OW  773   2.938   2.880   0.800 -0.2886 -0.0076 -0.0486
    1SOL    HW2  774   2.901   2.898   0.713 -0.7946 -1.9311 -0.2402
    1SOL    HW3  775   3.018   2.832   0.782 -0.2239 -0.1178  0.5388
    1SOL    MW4  776   2.943   2.876   0.786 -0.3467 -0.2759  0.0036
    1SOL     OW  777   3.289   0.063   0.470 -0.0218 -0.3307 -0.3829
    1SOL    HW2  778   3.240   0.056   0.552  1.0929 -0.3501  0.2980
    1SOL    HW3  779   3.270  -0.019   0.424  0.4555 -0.9508  0.4961
    1SOL    MW4  780   3.280   0.051   0.475  0.1886 -0.4151 -0.1771
    1SOL     OW  781   3.144   3.805   0.467 -0.0520  0.2462 -0.1577
    1SOL    HW2  782   3.224   3.753   0.475 -0.5643 -0.4216  0.6423
    1SOL    HW3  783   3.145   3.864   0.542  0.0292  0.7101 -0.5203
    1SOL    MW4  784   3.155   3.806   0.478 -0.1090  0.2193 -0.1000
    1SOL     OW  785   3.617   3.697   0.354 -0.5073  0.0047 -0.1691
    1SOL    HW2  786   3.603   3.625   0.293 -0.7877 -0.1561  0.0861
    1SOL    HW3  787   3.543   3.694   0.414 -0.2061  0.1243  0.2188
    1SOL    MW4  788   3.606   3.687   0.354 -0.5045 -0.0005 -0.0843
    1SOL     OW  789   3.603   3.177   0.526 -0.2455  0.1592 -0.0707
    1SOL    HW2  790   3.661   3.232   0.474  0.2229  0.4302  0.7277
    1SOL    HW3  791   3.636   3.088   0.512 -0.7887  0.1134 -1.0841
    1SOL    MW4  792   3.615   3.172   0.518 -0.2551  0.1886 -0.0990
    1SOL     OW  793   3.427   3.341   0.381 -0.4413  0.2225 -0.1999
    1SOL    HW2  794   3.336   3.317   0.400 -0.3908  1.5426  1.8555
    1SOL    HW3  795   3.479   3.283   0.438 -0.0985  1.0626  0.3528
    1SOL    MW4  796   3.422   3.330   0.391 -0.3896  0.5074  0.1442
    1SOL     OW  797   3.197   4.050   0.348 -0.7857 -0.0521  0.3704
    1SOL    HW2  798   3.178   3.960   0.376 -0.5433 -0.3131 -0.2935
    1SOL    HW3  799   3.216   4.043   0.255  0.0370  0.5748  0.4805
    1SOL    MW4  800   3.197   4.037   0.339 -0.6449 -0.0033  0.2974
    1SOL     OW  801   2.486   3.308   0.255  0.3974  0.3143 -0.1407
    1SOL    HW2  802   2.567   3.314   0.204  1.0555 -1.0709  0.7158
    1SOL    HW3  803   2.495   3.227   0.305 -1.5806  0.0767 -0.1304
    1SOL    MW4  804   2.498   3.298   0.254  0.2232  0.1004 -0.0263
    1SOL     OW  805   4.229   0.017   0.456 -0.2129 -0.3064 -0.0467
    1SOL    HW2  806   4.317   0.045   0.480  0.3200 -1.8101 -0.1779
    1SOL    HW3  807   4.227  -0.076   0.478 -0.9669 -0.8451 -2.3143
    1SOL    MW4  808   4.240   0.008   0.462 -0.2418 -0.5759 -0.3632
    1SOL     OW  809   3.760   0.052   0.304 -0.1333  0.1793  0.4226
    1SOL    HW2  810   3.695   0.084   0.365 -0.6304 -0.1079  0.0511
    1SOL    HW3  811   3.843   0.060   0.350 -0.3425  1.2369  0.6269
    1SOL    MW4  812   3.762   0.057   0.318 -0.2265  0.2810  0.4006
    1SOL     OW  813   3.554   0.168   0.444  0.0413  0.4461 -0.7869
    1SOL    HW2  814   3.461   0.149   0.428 -0.5001  1.8966  0.5024
    1SOL    HW3  815   3.561   0.263   0.432  1.3502  0.3546 -0.7871
    1SOL    MW4  816   3.543   0.178   0.440  0.1428  0.6254 -0.6168
    1SOL     OW  817   3.843   0.572   0.514  0.3165 -0.6169  0.0136
    1SOL    HW2  818   3.814   0.538   0.599 -2.5248 -1.3283 -1.1705
    1SOL    HW3  819   3.885   0.497   0.472 -1.2385 -1.2387 -0.4878
    1SOL    MW4  820   3.845   0.558   0.520 -0.2635 -0.7928 -0.2088
    1SOL     OW  821   3.982   0.376   0.380  0.2941 -0.3763  0.4510
    1SOL    HW2  822   4.077   0.372   0.366  0.4369  1.6942  0.6631
    1SOL    HW3  823   3.945   0.384   0.293  0.3395 -0.5243  0.4166
    1SOL    MW4  824   3.990   0.376   0.367  0.3190 -0.1227  0.4744
    1SOL     OW  825   4.247   0.715   0.348 -0.0422 -0.1445 -0.4112
    1SOL    HW2  826   4.163   0.753   0.374 -0.1152 -2.1074  2.5430
    1SOL    HW3  827   4.224   0.639   0.295 -0.1486 -0.8691  0.6698
    1SOL    MW4  828   4.233   0.710   0.345 -0.0663 -0.4991  0.1211
    1SOL     OW  829   3.818   0.990   0.377  0.7860  0.0114  0.2161
    1SOL    HW2  830   3.826   1.084   0.390  1.6567 -0.1202  0.7048
    1SOL    HW3  831   3.726   0.976   0.356  0.6286  0.9543  0.2663
    1SOL    MW4  832   3.807   1.000   0.376  0.8800  0.1185  0.2872
    1SOL     OW  833   4.087   1.383   0.350  0.5756 -0.2827  0.0008
    1SOL    HW2  834   4.098   1.392   0.256  2.1761  0.4046  0.2264
    1SOL    HW3  835   4.111   1.469   0.385 -1.0525 -0.2075  0.9554
    1SOL    MW4  836   4.092   1.395   0.343  0.5717 -0.1820  0.1565
    1SOL     OW  837   3.851   1.271   0.435  0.5601  0.3665  0.1085
    1SOL    HW2  838   3.931   1.316   0.411  0.4289  1.4382  1.5579
    1SOL    HW3  839   3.781   1.323   0.396  0.4530  1.0000  1.1030
    1SOL    MW4  840   3.852   1.284   0.427  0.5286  0.5914  0.4310
    1SOL     OW  841   3.406   1.351   0.547 -0.2928 -0.0775  0.6855
    1SOL    HW2  842   3.402   1.324   0.639  0.3436  0.5625  0.9074
    1SOL    HW3  843   3.365   1.279   0.499  0.3296 -0.9086  1.3708
    1SOL    MW4  844   3.400   1.338   0.553 -0.1268 -0.1029  0.8051
    1SOL     OW  845   3.626   1.445   0.382  0.3536  0.5409 -0.1757
    1SOL    HW2  846   3.553   1.415   0.435  0.4510  1.3165  0.4015
    1SOL    HW3  847   3.611   1.539   0.371  0.5978  0.4777 -1.0970
    1SOL    MW4  848   3.615   1.454   0.387  0.3989  0.6349 -0.2211
    1SOL     OW  849   3.735   2.575   0.406  0.1595  0.6272  0.1611
    1SOL    HW2  850   3.675   2.506   0.379 -0.2054  0.6680  0.8428
    1SOL    HW3  851   3.742   2.564   0.501  1.4381  0.4561  0.0578
    1SOL    MW4  852   3.728   2.565   0.415  0.2801  0.6101  0.2374
    1SOL     OW  853   3.998   2.556   0.290 -0.4115 -0.6306 -0.1498
    1SOL    HW2  854   3.908   2.560   0.324 -0.0454  0.0413  0.7494
    1SOL    HW3  855   4.044   2.500   0.352  0.2945  0.7034  0.5518
    1SOL    MW4  856   3.992   2.549   0.303 -0.2699 -0.3660  0.0614
    1SOL     OW  857   3.114   2.514   0.410 -0.1906  0.3377  0.1014
    1SOL    HW2  858   3.170   2.437   0.416  1.4357  1.3558 -1.4683
    1SOL    HW3  859   3.103   2.544   0.500  2.4888  0.5851  0.3694
    1SOL    MW4  860   3.120   2.508   0.422  0.3777  0.5047 -0.0704
    1SOL     OW  861   2.909   3.638   0.486  0.0935 -0.4995 -0.4637
    1SOL    HW2  862   2.974   3.700   0.451 -0.8228  2.3043  2.5325
    1SOL    HW3  863   2.833   3.649   0.428  0.1472  0.7966 -0.3109
    1SOL    MW4  864   2.907   3.648   0.474 -0.0200  0.0415 -0.0482
    1SOL     OW  865   3.112   2.992   0.493 -0.3166 -0.0358 -0.0552
    1SOL    HW2  866   3.144   2.907   0.463  1.0309 -0.2085  1.7703
    1SOL    HW3  867   3.018   2.979   0.507 -0.2537 -0.9994 -0.5024
    1SOL    MW4  868   3.104   2.979   0.491 -0.1307 -0.1860  0.1266
    1SOL     OW  869   4.106   2.798   0.360 -0.0491  0.7092 -0.2130
    1SOL    HW2  870   4.196   2.803   0.330 -0.5880  1.4290 -1.7522
    1SOL    HW3  871   4.076   2.711   0.332  0.7385 -0.3206  2.0118
    1SOL    MW4  872   4.114   2.787   0.353 -0.0162  0.6683 -0.1225
    1SOL     OW  873   3.725   2.928   0.478 -0.5701 -0.1731 -0.3357
    1SOL    HW2  874   3.794   2.889   0.532  0.2456  1.9770  0.2409
    1SOL    HW3  875   3.652   2.867   0.485  1.7164 -3.2540 -2.1142
    1SOL    MW4  876   3.724   2.915   0.486 -0.1607 -0.2959 -0.4943
    1SOL     OW  877   4.066   3.669   0.393 -0.0145  0.0511  0.0905
    1SOL    HW2  878   3.976   3.645   0.416  0.1425 -1.1223 -0.4837
    1SOL    HW3  879   4.062   3.689   0.300  0.2944  0.1586  0.1004
    1SOL    MW4  880   4.054   3.669   0.384  0.0467 -0.0894  0.0160
    1SOL     OW  881   3.290   2.253   0.345  0.0164  0.7428  0.2608
    1SOL    HW2  882   3.300   2.249   0.440  0.0794 -0.5237  0.2025
    1SOL    HW3  883   3.373   2.290   0.314 -0.0082  1.1709  0.6973
    1SOL    MW4  884   3.302   2.258   0.354  0.0217  0.6323  0.3107
    1SOL     OW  885   3.382   3.630   0.504 -0.0924 -0.1486 -0.3994
    1SOL    HW2  886   3.386   3.538   0.478 -2.1375 -0.6624  0.9379
    1SOL    HW3  887   3.369   3.627   0.599 -0.9313  1.5104 -0.4442
    1SOL    MW4  888   3.381   3.617   0.513 -0.4730  0.0026 -0.2289
    1SOL     OW  889   4.303   3.567   0.487  0.5462  0.4452 -0.1312
    1SOL    HW2  890   4.216   3.586   0.452  0.4181 -1.1664 -0.7433
    1SOL    HW3  891   4.328   3.484   0.447  2.1826  0.6516  0.3897
    1SOL    MW4  892   4.295   3.559   0.477  0.7453  0.2599 -0.1433
    1SOL     OW  893   3.450   4.099   0.428  0.9733 -0.4877  0.3845
    1SOL    HW2  894   3.459   4.194   0.424  0.9600 -0.3932  2.1801
    1SOL    HW3  895   3.359   4.082   0.402  0.6915  0.0761  0.9888
    1SOL    MW4  896   3.439   4.109   0.424  0.9341 -0.4005  0.7012
    1SOL     OW  897   3.910   4.353   0.526  0.1031 -0.9867 -0.5683
    1SOL    HW2  898   3.915   4.260   0.505  0.5936 -0.9958 -0.4105
    1SOL    HW3  899   3.876   4.355   0.616  0.1293 -1.0161 -0.5576
    1SOL    MW4  900   3.906   4.341   0.535  0.1712 -0.9923 -0.5461
    1SOL     OW  901   0.016   0.103   0.506  0.0524  0.2986 -0.6407
    1SOL    HW2  902   0.047   0.013   0.492  0.0976  0.3441 -0.8469
    1SOL    HW3  903   0.023   0.117   0.600 -2.0019 -0.6401 -0.3294
    1SOL    MW4  904   0.021   0.093   0.516 -0.2127  0.1808 -0.6269
    1SOL     OW  905   4.004   0.809   0.463  0.7003  0.0898 -0.2991
    1SOL    HW2  906   3.952   0.875   0.418  0.3346 -0.0719 -0.1172
    1SOL    HW3  907   3.944   0.735   0.474  0.5128  0.4385  1.2046
    1SOL    MW4  908   3.989   0.808   0.458  0.6268  0.1145 -0.0767
    1SOL     OW  909   0.117   1.758   0.094 -0.2088 -0.2511 -0.2541
    1SOL    HW2  910   0.028   1.776   0.124 -0.5563 -1.5141 -0.4972
    1SOL    HW3  911   0.109   1.750  -0.001  0.5671  1.8461 -0.5333
    1SOL    MW4  912   0.104   1.759   0.086 -0.1523 -0.1410 -0.3230
    1SOL     OW  913   4.259   0.385   0.305  0.3371 -0.6190 -0.2815
    1SOL    HW2  914   4.283   0.293   0.298  1.9415 -0.1405 -1.2287
    1SOL    HW3  915   4.309   0.417   0.380  2.7486  0.3807 -2.2604
    1SOL    MW4  916   4.269   0.377   0.314  0.8669 -0.4239 -0.6676
    1SOL     OW  917   4.429   0.964   0.460  0.5325 -0.4094 -0.0875
    1SOL    HW2  918   4.362   1.032   0.454  0.3517 -0.6457 -0.7614
    1SOL    HW3  919   4.404   0.900   0.394  0.6780 -1.1550  0.5734
    1SOL    MW4  920   4.417   0.964   0.450  0.5279 -0.5389 -0.0892
    1SOL     OW  921   3.717   4.456   0.339  0.1728  0.2066  0.2767
    1SOL    HW2  922   3.795   4.426   0.384  0.0758  0.2905  0.4992
    1SOL    HW3  923   3.729   4.550   0.330 -1.0471  0.6126  2.5487
    1SOL    MW4  924   3.729   4.464   0.344 -0.0007  0.2713  0.6059
    1SOL     OW  925   4.260   1.203   0.491 -0.2378 -0.6581 -0.5946
    1SOL    HW2  926   4.250   1.221   0.585 -1.0591  1.0975 -0.9953
    1SOL    HW3  927   4.179   1.236   0.451  0.7165 -0.0511 -2.0848
    1SOL    MW4  928   4.248   1.210   0.498 -0.2203 -0.3464 -0.8441
    1SOL     OW  929   4.484   1.354   0.416  0.4445 -0.2234  0.0808
    1SOL    HW2  930   4.405   1.313   0.451 -0.3842  0.8110 -0.5563
    1SOL    HW3  931   4.553   1.289   0.429 -0.6879 -1.4829 -0.1576
    1SOL    MW4  932   4.483   1.340   0.422  0.1860 -0.2532 -0.0347
    1SOL     OW  933   3.942   2.144   0.436 -0.3849  0.3806 -0.0023
    1SOL    HW2  934   3.893   2.178   0.360 -0.6002  0.0953  0.0081
    1SOL    HW3  935   3.997   2.218   0.463  1.6202 -0.3077 -2.0182
    1SOL    MW4  936   3.943   2.158   0.429 -0.1488  0.2520 -0.2669
    1SOL     OW  937   4.166   1.850   0.584  0.2354 -0.0315 -0.3169
    1SOL    HW2  938   4.212   1.920   0.630  1.6389 -0.9912 -0.2308
    1SOL    HW3  939   4.136   1.890   0.503  0.5849  0.8056 -0.0333
    1SOL    MW4  940   4.168   1.864   0.580  0.4668 -0.0477 -0.2682
    1SOL     OW  941   4.388   2.138   0.416  0.3110 -0.3275 -0.1591
    1SOL    HW2  942   4.423   2.226   0.399  0.0768 -0.0110  0.9356
    1SOL    HW3  943   4.465   2.083   0.427  0.4646 -0.0685  0.0842
    1SOL    MW4  944   4.402   2.143   0.416  0.3009 -0.2513  0.0175
    1SOL     OW  945   4.165   2.001   0.354  0.3296 -0.9415  0.0735
    1SOL    HW2  946   4.091   2.061   0.358 -0.0430 -1.1910 -2.2514
    1SOL    HW3  947   4.240   2.052   0.383 -0.1568  0.3671 -0.9485
    1SOL    MW4  948   4.165   2.015   0.358  0.2155 -0.8018 -0.3681
    1SOL     OW  949   4.392   2.423   0.456  0.5895  0.0546  0.0814
    1SOL    HW2  950   4.403   2.517   0.443  1.0034 -0.1526 -1.0896
    1SOL    HW3  951   4.420   2.408   0.547 -0.4660  1.2041  0.6171
    1SOL    MW4  952   4.397   2.433   0.467  0.5050  0.1788 -0.0025
    1SOL     OW  953   3.952   3.033   0.343 -0.1483 -0.1989  0.3021
    1SOL    HW2  954   3.997   2.952   0.321  1.0317  0.2685  0.9674
    1SOL    HW3  955   3.877   3.005   0.397 -0.1740 -0.8959 -0.0948
    1SOL    MW4  956   3.948   3.019   0.347  0.0041 -0.2294  0.3375
    1SOL     OW  957   4.108   2.385   0.465 -0.4227  0.3061  0.4436
    1SOL    HW2  958   4.099   2.406   0.558  0.9942  0.4075  0.5700
    1SOL    HW3  959   4.202   2.378   0.451 -0.6619 -0.6038 -0.7958
    1SOL    MW4  960   4.119   2.387   0.475 -0.2670  0.1996  0.2968
    1SOL     OW  961   0.236   3.547   0.488  0.2417 -0.9210 -0.1452
    1SOL    HW2  962   0.176   3.621   0.474  0.2975 -0.6086  1.2076
    1SOL    HW3  963   0.322   3.588   0.496  0.4020 -1.2180 -0.3787
    1SOL    MW4  964   0.239   3.562   0.487  0.2702 -0.9191  0.0025
    1SOL     OW  965   4.033   4.301   0.245 -0.0404  0.1192  0.3408
    1SOL    HW2  966   4.005   4.353   0.169  0.1219 -0.1295  0.1078
    1SOL    HW3  967   4.128   4.312   0.247  0.2911 -2.0159 -1.1073
    1SOL    MW4  968   4.042   4.309   0.235  0.0253 -0.1955  0.1190
    1SOL     OW  969   0.570   3.192   0.441 -0.1254  0.0149 -0.0561
    1SOL    HW2  970   0.540   3.211   0.530  1.3768 -0.3523  0.5519
    1SOL    HW3  971   0.625   3.267   0.418  0.6784 -0.5784 -0.0909
    1SOL    MW4  972   0.573   3.204   0.450  0.1788 -0.1121  0.0195
    1SOL     OW  973   3.829   3.572   0.478 -0.2836  0.4486  0.2288
    1SOL    HW2  974   3.758   3.626   0.446  1.5424  2.5547 -0.3737
    1SOL    HW3  975   3.827   3.584   0.573 -1.4782 -0.4606  0.3226
    1SOL    MW4  976   3.819   3.581   0.487 -0.2003  0.6063  0.1617
    1SOL     OW  977   4.164   3.168   0.449 -0.2300  0.1125 -0.0964
    1SOL    HW2  978   4.125   3.170   0.537  1.8976 -1.5075  0.9256
    1SOL    HW3  979   4.099   3.120   0.396 -1.1779  0.4294  0.7593
    1SOL    MW4  980   4.150   3.162   0.454 -0.0744 -0.0598  0.1513
    1SOL     OW  981   4.371   3.988   0.531  0.1852  0.3560 -0.0625
    1SOL    HW2  982   4.278   3.971   0.514  0.1005 -0.3399  1.0712
    1SOL    HW3  983   4.381   3.976   0.625  1.2170  1.4762 -0.0167
    1SOL    MW4  984   4.360   3.984   0.541  0.3099  0.4117  0.0932
    1SOL     OW  985   4.091   3.913   0.528  0.0074 -0.3292 -0.4637
    1SOL    HW2  986   4.088   3.831   0.479 -0.6789  0.1867 -1.3004
    1SOL    HW3  987   4.031   3.971   0.482 -2.2699 -0.4799  2.2248
    1SOL    MW4  988   4.083   3.910   0.516 -0.3834 -0.2811 -0.2194
    1SOL     OW  989   3.933   4.096   0.405  0.5185 -0.5610  0.2054
    1SOL    HW2  990   3.841   4.075   0.390 -0.0984  1.0303  1.6397
    1SOL    HW3  991   3.961   4.141   0.325  0.6870 -2.9295 -1.1225
    1SOL    MW4  992   3.925   4.099   0.392  0.4594 -0.6638  0.2195
    1SOL     OW  993   4.192   4.403   0.527  0.1615  0.1628  0.2034
    1SOL    HW2  994   4.201   4.398   0.622  0.0473  0.1932  0.2170
    1SOL    HW3  995   4.100   4.380   0.511  0.1807  0.1562  0.1016
    1SOL    MW4  996   4.181   4.400   0.538  0.1488  0.1659  0.1919
    1SOL     OW  997   0.260   0.004   0.871 -0.3204  0.4455 -0.0597
    1SOL    HW2  998   0.247  -0.082   0.830 -0.5075  0.8785 -0.9152
    1SOL    HW3  999   0.180   0.052   0.850  0.4789  1.3831 -0.9773
    1SOL    MW4 1000   0.247  -0.001   0.862 -0.2397  0.6261 -0.2937
    1SOL     OW 1001   0.024   0.102   0.786 -0.0878  0.2971 -0.3053
    1SOL    HW2 1002  -0.064   0.070   0.809  0.3363 -0.6653  0.0053
    1SOL    HW3 1003   0.028   0.190   0.823 -0.4855 -0.1176  0.7458
    1SOL    MW4 1004   0.013   0.109   0.794 -0.0843  0.1154 -0.1256
    1SOL     OW 1005   0.054   0.342   0.901 -0.5507 -0.0090 -0.3115
    1SOL    HW2 1006   0.036   0.355   0.994  1.4413 -1.7249  0.3595
    1SOL    HW3 1007   0.116   0.411   0.878 -0.4372 -0.0680 -0.1773
    1SOL    MW4 1008   0.060   0.353   0.910 -0.2729 -0.2432 -0.2053
    1SOL     OW 1009   0.236   0.514   0.793  0.3111 -0.6639  0.0347
    1SOL    HW2 1010   0.327   0.486   0.804  0.1554 -0.9274  0.7300
    1SOL    HW3 1011   0.239   0.609   0.802  0.4038 -0.7465  0.9296
    1SOL    MW4 1012   0.248   0.523   0.796  0.3028 -0.7095  0.2444
    1SOL     OW 1013   0.236   0.778   0.801 -0.0436 -0.4786 -0.2028
    1SOL    HW2 1014   0.233   0.797   0.894  0.7819  1.1056 -0.4811
    1SOL    HW3 1015   0.146   0.792   0.771  0.2397  1.6059 -0.1180
    1SOL    MW4 1016   0.224   0.782   0.809  0.1027  0.0054 -0.2283
    1SOL     OW 1017   4.473   0.828   0.719  0.0658 -0.0535  0.0767
    1SOL    HW2 1018   4.395   0.788   0.758  0.1187 -2.0834 -1.8016
    1SOL    HW3 1019   4.445   0.854   0.631  1.1154  0.4845 -0.0992
    1SOL    MW4 1020   4.459   0.826   0.712  0.2112 -0.2503 -0.1943
    1SOL     OW 1021   4.454   1.084   0.831 -0.3706  0.5491  0.0561
    1SOL    HW2 1022   4.473   1.078   0.924 -0.9067  1.3979  0.2194
    1SOL    HW3 1023   4.464   0.994   0.799  0.4433  0.3703  0.8014
    1SOL    MW4 1024   4.458   1.071   0.839 -0.3339  0.6375  0.1760
    1SOL     OW 1025   0.184   1.245   0.740 -0.1318  0.2693  0.6928
    1SOL    HW2 1026   0.112   1.216   0.796 -0.7895  0.4429 -0.0425
    1SOL    HW3 1027   0.170   1.199   0.657  1.0158 -0.2396  0.7793
    1SOL    MW4 1028   0.172   1.235   0.736 -0.0672  0.2252  0.6072
    1SOL     OW 1029   0.199   1.543   0.843  0.2538 -0.1460 -0.2050
    1SOL    HW2 1030   0.287   1.577   0.828 -0.1567  0.5720 -1.0160
    1SOL    HW3 1031   0.194   1.464   0.789  0.7646 -0.7963  0.6832
    1SOL    MW4 1032   0.210   1.537   0.834  0.2670 -0.1371 -0.1949
    1SOL     OW 1033   4.457   1.655   0.758 -0.2251  0.0495  0.0502
    1SOL    HW2 1034   4.399   1.584   0.787  1.1967 -1.9886 -1.9033
    1SOL    HW3 1035   4.543   1.631   0.791  0.2452  0.9654 -0.5018
    1SOL    MW4 1036   4.461   1.642   0.766  0.0243 -0.0986 -0.2803
    1SOL     OW 1037   4.468   1.940   0.836 -0.2043  0.6039 -0.4077
    1SOL    HW2 1038   4.552   1.971   0.802  0.1600  0.0221 -0.0443
    1SOL    HW3 1039   4.464   1.848   0.810  0.4164 -0.0603  1.7431
    1SOL    MW4 1040   4.479   1.932   0.828 -0.0749  0.4395 -0.0759
    1SOL     OW 1041   0.230   2.035   0.764 -0.0350  0.1879  0.2553
    1SOL    HW2 1042   0.240   2.123   0.801 -1.1119  0.6852 -0.5991
    1SOL    HW3 1043   0.274   2.040   0.679  2.7240 -1.0443  1.5640
    1SOL    MW4 1044   0.237   2.048   0.757  0.1869  0.0908  0.3153
    1SOL     OW 1045   0.202   2.317   0.831 -0.2024 -0.5244  0.2172
    1SOL    HW2 1046   0.208   2.310   0.926 -0.4409  0.6265  0.3265
    1SOL    HW3 1047   0.282   2.362   0.805  0.5711 -2.1669 -0.2907
    1SOL    MW4 1048   0.213   2.322   0.840 -0.1318 -0.5894  0.1646
    1SOL     OW 1049   4.465   2.409   0.738 -0.0981 -0.0559  0.4416
    1SOL    HW2 1050   4.394   2.363   0.783  0.9676 -0.9869  1.2330
    1SOL    HW3 1051   4.545   2.372   0.777  0.8517 -0.4994 -1.8564
    1SOL    MW4 1052   4.466   2.398   0.749  0.1678 -0.2375  0.2428
    1SOL     OW 1053   4.489   2.670   0.793  0.4038 -0.3047 -0.1004
    1SOL    HW2 1054   4.498   2.663   0.888  0.3123 -1.3810 -0.1719
    1SOL    HW3 1055   4.483   2.580   0.762 -0.0927  0.0544 -1.0785
    1SOL    MW4 1056   4.489   2.657   0.801  0.3262 -0.3994 -0.2388
    1SOL     OW 1057   0.233   2.794   0.738 -0.2237  0.2409 -0.5919
    1SOL    HW2 1058   0.146   2.759   0.754 -0.2538  0.8086  0.4802
    1SOL    HW3 1059   0.237   2.805   0.643 -1.2892  0.1427 -0.6516
    1SOL    MW4 1060   0.222   2.791   0.727 -0.3682  0.3028 -0.4583
    1SOL     OW 1061   0.230   3.066   0.801 -0.3377  0.2441  0.6371
    1SOL    HW2 1062   0.233   3.081   0.895 -0.6281 -0.7175  0.8077
    1SOL    HW3 1063   0.248   2.972   0.791 -1.6177  0.0698 -0.1703
    1SOL    MW4 1064   0.233   3.055   0.812 -0.5449  0.0942  0.5531
    1SOL     OW 1065   4.489   3.175   0.689 -0.1646  0.4093 -0.1581
    1SOL    HW2 1066   4.563   3.127   0.724 -0.0733 -0.1852 -1.1496
    1SOL    HW3 1067   4.527   3.231   0.621 -0.6246  0.1130 -0.6599
    1SOL    MW4 1068   4.503   3.176   0.685 -0.2132  0.2918 -0.3551
    1SOL     OW 1069   4.490   3.408   0.845  0.0651 -0.0179 -0.1945
    1SOL    HW2 1070   4.412   3.460   0.825 -0.2336 -0.0579  0.8268
    1SOL    HW3 1071   4.481   3.330   0.790 -0.5872  0.0045 -0.1231
    1SOL    MW4 1072   4.479   3.405   0.835 -0.0606 -0.0200 -0.0502
    1SOL     OW 1073   0.234   3.567   0.761 -0.0747 -0.0284 -0.4897
    1SOL    HW2 1074   0.171   3.502   0.791 -0.1782 -0.4351 -1.5750
    1SOL    HW3 1075   0.235   3.559   0.666  2.2811 -0.6870 -0.4534
    1SOL    MW4 1076   0.226   3.557   0.753  0.2225 -0.1693 -0.6281
    1SOL     OW 1077   0.256   3.851   0.810 -0.2815 -0.2245 -0.4094
    1SOL    HW2 1078   0.253   3.868   0.904  0.1536  0.5192 -0.5326
    1SOL    HW3 1079   0.237   3.757   0.803  0.4887 -0.4569  0.4770
    1SOL    MW4 1080   0.253   3.841   0.822 -0.1225 -0.1571 -0.3086
    1SOL     OW 1081   4.473   3.956   0.791  0.4858  0.3584 -0.2131
    1SOL    HW2 1082   4.421   3.888   0.834  0.3098  0.4572 -0.2692
    1SOL    HW3 1083   4.562   3.921   0.789  0.7356  0.8531  1.3058
    1SOL    MW4 1084   4.478   3.943   0.797  0.4954  0.4368 -0.0201
    1SOL     OW 1085   0.011   4.248   0.829  0.1736  0.3447 -0.6089
    1SOL    HW2 1086   0.007   4.266   0.923 -2.5272  0.6533 -0.7398
    1SOL    HW3 1087  -0.011   4.155   0.822  3.1852 -0.4054 -0.7645
    1SOL    MW4 1088   0.008   4.238   0.841  0.2146  0.2871 -0.6467
    1SOL     OW 1089   0.211   4.416   0.745  0.1424 -0.2966  0.0137
    1SOL    HW2 1090   0.137   4.356   0.758 -0.0486 -0.2677 -0.8729
    1SOL    HW3 1091   0.198   4.450   0.656  0.0775  1.3007  0.6287
    1SOL    MW4 1092   0.200   4.413   0.735  0.1086 -0.0820 -0.0221
    1SOL     OW 1093   0.696   0.013   0.827  0.4130 -0.4055 -0.2572
    1SOL    HW2 1094   0.697   0.007   0.923  1.4040 -1.2104 -0.3063
    1SOL    HW3 1095   0.612   0.053   0.806  0.4555  0.3451  0.9855
    1SOL    MW4 1096   0.685   0.017   0.837  0.5494 -0.4127 -0.0997
    1SOL     OW 1097   0.458   0.111   0.729 -0.3321 -0.1712  0.0184
    1SOL    HW2 1098   0.380   0.074   0.771 -0.0125  0.1907  0.9235
    1SOL    HW3 1099   0.434   0.117   0.636 -0.9968 -1.0689  0.1229
    1SOL    MW4 1100   0.444   0.107   0.722 -0.3776 -0.2419  0.1516
    1SOL     OW 1101   0.464   0.376   0.847 -0.3794  0.0590  0.0858
    1SOL    HW2 1102   0.541   0.417   0.807 -0.4271 -0.9662 -1.0863
    1SOL    HW3 1103   0.455   0.293   0.802  0.0356 -1.5286  2.8245
    1SOL    MW4 1104   0.473   0.371   0.836 -0.3310 -0.2857  0.2925
    1SOL     OW 1105   0.662   0.545   0.742  0.1297 -0.4687  0.0969
    1SOL    HW2 1106   0.749   0.505   0.741 -0.1207 -1.0014 -0.7529
    1SOL    HW3 1107   0.644   0.566   0.650  0.0705  1.2051  0.4728
    1SOL    MW4 1108   0.671   0.543   0.730  0.0889 -0.3182  0.0345
    1SOL     OW 1109   0.665   0.819   0.841 -0.0397 -0.1776 -0.0278
    1SOL    HW2 1110   0.608   0.857   0.773  2.2834  1.0980 -1.3239
    1SOL    HW3 1111   0.667   0.726   0.821 -1.2622 -0.1583 -0.2873
    1SOL    MW4 1112   0.657   0.812   0.829  0.1056 -0.0067 -0.2331
    1SOL     OW 1113   0.456   0.920   0.663  0.3636 -0.4981 -0.2705
    1SOL    HW2 1114   0.441   1.000   0.713 -0.1429  0.0691 -1.2967
    1SOL    HW3 1115   0.413   0.851   0.714  0.0897  0.0202  0.2015
    1SOL    MW4 1116   0.448   0.921   0.676  0.2606 -0.3549 -0.3436
    1SOL     OW 1117   0.451   1.159   0.786  0.0985  0.1237  0.1118
    1SOL    HW2 1118   0.508   1.220   0.738  0.6902 -0.1608  0.4537
    1SOL    HW3 1119   0.363   1.180   0.755  0.4066  0.4315 -0.5647
    1SOL    MW4 1120   0.447   1.170   0.775  0.2172  0.1268  0.0677
    1SOL     OW 1121   0.661   1.306   0.683 -0.0596 -0.6841  0.0520
    1SOL    HW2 1122   0.672   1.389   0.730 -0.1088 -0.2413 -0.7202
    1SOL    HW3 1123   0.699   1.322   0.597  1.1039 -1.8584  0.3196
    1SOL    MW4 1124   0.668   1.319   0.678  0.0874 -0.7805 -0.0145
    1SOL     OW 1125   0.686   1.530   0.825  0.2266 -0.4409 -0.5503
    1SOL    HW2 1126   0.680   1.541   0.920  1.9880  0.3163 -0.5145
    1SOL    HW3 1127   0.605   1.569   0.792  0.4525  0.9743  0.5100
    1SOL    MW4 1128   0.674   1.537   0.833  0.4888 -0.1544 -0.4057
    1SOL     OW 1129   0.449   1.650   0.763  0.8762  0.0431  0.2315
    1SOL    HW2 1130   0.467   1.729   0.813  0.1246  0.6127 -0.3980
    1SOL    HW3 1131   0.447   1.678   0.672  0.9081 -0.7513 -0.0204
    1SOL    MW4 1132   0.451   1.664   0.758  0.7812  0.0135  0.1152
    1SOL     OW 1133   0.467   1.901   0.866 -0.2197  0.3988  0.5436
    1SOL    HW2 1134   0.467   1.898   0.962 -1.3413  0.1309  0.5369
    1SOL    HW3 1135   0.402   1.967   0.843  0.6808  1.1004 -0.0287
    1SOL    MW4 1136   0.459   1.909   0.875 -0.2488  0.4562  0.4672
    1SOL     OW 1137   0.660   2.063   0.748 -0.3833 -0.3152 -0.0518
    1SOL    HW2 1138   0.594   2.000   0.776 -0.7948 -0.4769 -1.3989
    1SOL    HW3 1139   0.705   2.021   0.675 -0.1739  0.6490 -0.4920
    1SOL    MW4 1140   0.657   2.049   0.742 -0.4100 -0.2093 -0.2876
    1SOL     OW 1141   0.653   2.327   0.857 -0.0049 -0.1829  0.0644
    1SOL    HW2 1142   0.659   2.319   0.952  0.5938  1.8545  0.2156
    1SOL    HW3 1143   0.665   2.238   0.824 -0.0908 -0.8737  1.8953
    1SOL    MW4 1144   0.656   2.314   0.865  0.0628 -0.0050  0.3259
    1SOL     OW 1145   0.426   2.445   0.743 -0.0361  0.0445 -0.5652
    1SOL    HW2 1146   0.492   2.391   0.787 -1.6157 -1.2492  0.2602
    1SOL    HW3 1147   0.473   2.484   0.669  1.1514 -2.4829 -1.2038
    1SOL    MW4 1148   0.441   2.443   0.739 -0.0878 -0.4597 -0.5406
    1SOL     OW 1149   0.469   2.692   0.860 -0.2604 -0.7067 -0.2760
    1SOL    HW2 1150   0.460   2.598   0.844 -1.6794 -0.7468  0.6715
    1SOL    HW3 1151   0.382   2.728   0.843 -0.0032  0.2647  0.4232
    1SOL    MW4 1152   0.456   2.684   0.856 -0.4137 -0.5836 -0.0587
    1SOL     OW 1153   0.659   2.846   0.744 -0.4987  0.3123 -0.4802
    1SOL    HW2 1154   0.741   2.808   0.776  0.1062  2.5690  0.7823
    1SOL    HW3 1155   0.591   2.792   0.784  0.3396 -1.0964 -0.9076
    1SOL    MW4 1156   0.661   2.833   0.754 -0.3083  0.4241 -0.3700
    1SOL     OW 1157   0.700   3.113   0.797 -0.0284 -0.1023 -0.0450
    1SOL    HW2 1158   0.613   3.148   0.778 -0.4075 -0.0308  1.6818
    1SOL    HW3 1159   0.691   3.018   0.787 -0.6070 -0.1906  1.1302
    1SOL    MW4 1160   0.687   3.105   0.793 -0.1548 -0.1044  0.3378
    1SOL     OW 1161   0.454   3.224   0.697 -0.1021 -0.2862 -0.0446
    1SOL    HW2 1162   0.459   3.312   0.735 -1.1339 -0.1035 -0.3066
    1SOL    HW3 1163   0.372   3.188   0.732 -0.4672 -0.5528 -1.1665
    1SOL    MW4 1164   0.444   3.231   0.707 -0.2864 -0.2973 -0.2272
    1SOL     OW 1165   0.495   3.499   0.848  0.5580 -0.2000  0.3021
    1SOL    HW2 1166   0.483   3.507   0.942  0.7185  1.0457  0.2264
    1SOL    HW3 1167   0.419   3.544   0.810  0.0923 -1.3786 -0.1609
    1SOL    MW4 1168   0.484   3.506   0.855  0.5177 -0.1910  0.2311
    1SOL     OW 1169   0.690   3.657   0.748  0.1958  0.7056 -0.3096
    1SOL    HW2 1170   0.618   3.609   0.789  1.2199 -0.2971  0.3502
    1SOL    HW3 1171   0.692   3.741   0.794 -0.2957  0.5885 -0.0646
    1SOL    MW4 1172   0.680   3.662   0.759  0.2660  0.5577 -0.1903
    1SOL     OW 1173   0.704   3.899   0.895 -0.1339  0.2879 -0.1472
    1SOL    HW2 1174   0.777   3.946   0.855 -0.6658  1.5512  0.3581
    1SOL    HW3 1175   0.626   3.938   0.856 -0.5820 -0.2012  0.2479
    1SOL    MW4 1176   0.704   3.910   0.884 -0.2632  0.3903 -0.0284
    1SOL     OW 1177   0.475   4.029   0.747 -0.0194  0.1072 -0.6045
    1SOL    HW2 1178   0.457   4.110   0.794  0.5105 -0.3390  0.3740
    1SOL    HW3 1179   0.404   3.969   0.772  1.1315 -0.6513  0.8813
    1SOL    MW4 1180   0.463   4.031   0.756  0.2023 -0.0520 -0.2794
    1SOL     OW 1181   0.461   4.309   0.830  0.5615  0.0293 -0.1508
    1SOL    HW2 1182   0.452   4.300   0.925  1.1736 -1.5832 -0.2351
    1SOL    HW3 1183   0.376   4.340   0.800  0.4787  0.8774  0.9724
    1SOL    MW4 1184   0.449   4.312   0.838  0.6313 -0.0715 -0.0138
    1SOL     OW 1185   0.689   4.412   0.705 -0.0980 -0.1610 -0.1536
    1SOL    HW2 1186   0.604   4.393   0.744 -1.0661  1.6226 -1.2843
    1SOL    HW3 1187   0.702   4.506   0.721  1.3552 -0.2818 -0.5451
    1SOL    MW4 1188   0.680   4.422   0.712 -0.0340  0.0582 -0.3544
    1SOL     OW 1189   1.100   0.034   0.860 -0.0221  0.3470 -0.0782
    1SOL    HW2 1190   1.186   0.076   0.852  0.9997 -1.7898 -0.8164
    1SOL    HW3 1191   1.047   0.074   0.791  0.9349  0.4354 -0.7799
    1SOL    MW4 1192   1.105   0.045   0.850  0.2389  0.0767 -0.2683
    1SOL     OW 1193   0.895   0.143   0.703  0.0602 -0.2038 -0.6838
    1SOL    HW2 1194   0.886   0.236   0.725  0.0263 -0.1299 -1.0049
    1SOL    HW3 1195   0.828   0.099   0.756  0.0484 -0.0402 -0.5634
    1SOL    MW4 1196   0.885   0.149   0.713  0.0542 -0.1725 -0.7102
    1SOL     OW 1197   0.902   0.405   0.795  0.1844  0.4820  0.1764
    1SOL    HW2 1198   0.905   0.397   0.890  0.4712  2.9907  0.4185
    1SOL    HW3 1199   0.987   0.443   0.771 -0.2670  0.8166 -0.9666
    1SOL    MW4 1200   0.914   0.409   0.804  0.1627  0.8571  0.0576
    1SOL     OW 1201   1.135   0.527   0.700  0.6257 -0.4196  0.0886
    1SOL    HW2 1202   1.207   0.477   0.740  1.9461  0.4648 -1.1337
    1SOL    HW3 1203   1.155   0.526   0.607 -0.5419  0.5096 -0.1739
    1SOL    MW4 1204   1.148   0.520   0.693  0.6459 -0.1802 -0.1073
    1SOL     OW 1205   1.154   0.789   0.776  0.3497  0.2111  0.3916
    1SOL    HW2 1206   1.151   0.786   0.871 -0.9660 -0.1019  0.3476
    1SOL    HW3 1207   1.157   0.697   0.749 -2.2643  0.1923  0.0670
    1SOL    MW4 1208   1.154   0.777   0.785 -0.1687  0.1674  0.3430
    1SOL     OW 1209   0.916   0.930   0.718  0.3120 -0.1972  0.4217
    1SOL    HW2 1210   0.991   0.873   0.734  1.1120  0.7863  0.2700
    1SOL    HW3 1211   0.844   0.890   0.767  0.9069 -1.2133  0.4819
    1SOL    MW4 1212   0.917   0.917   0.727  0.4961 -0.2015  0.4097
    1SOL     OW 1213   0.885   1.189   0.801  0.0076  0.3963  0.3148
    1SOL    HW2 1214   0.878   1.102   0.763 -0.2796  0.4270  0.2932
    1SOL    HW3 1215   0.811   1.238   0.763  0.1743  0.6512  0.3158
    1SOL    MW4 1216   0.874   1.184   0.791 -0.0083  0.4339  0.3121
    1SOL     OW 1217   1.113   1.305   0.701 -0.3819 -0.1455 -0.5085
    1SOL    HW2 1218   1.052   1.236   0.725 -0.3202 -1.1127 -2.9875
    1SOL    HW3 1219   1.086   1.331   0.613  0.6630  1.8036 -0.2785
    1SOL    MW4 1220   1.101   1.300   0.693 -0.2359 -0.0161 -0.8052
    1SOL     OW 1221   1.141   1.544   0.847  0.1105 -0.0941  0.4801
    1SOL    HW2 1222   1.065   1.594   0.818 -0.2347  0.2130  1.8623
    1SOL    HW3 1223   1.135   1.461   0.801 -0.8678  0.0728  0.3125
    1SOL    MW4 1224   1.130   1.540   0.837 -0.0641 -0.0316  0.6404
    1SOL     OW 1225   0.929   1.667   0.730 -0.0373  0.2280 -0.1047
    1SOL    HW2 1226   0.919   1.755   0.766 -0.1541  0.0958  0.1879
    1SOL    HW3 1227   0.856   1.617   0.768 -0.1917  0.1019 -0.5652
    1SOL    MW4 1228   0.918   1.672   0.740 -0.0731  0.1940 -0.1268
    1SOL     OW 1229   0.898   1.919   0.846  0.1234 -0.2687 -0.2829
    1SOL    HW2 1230   0.927   1.922   0.937  0.6013 -1.4740 -0.3758
    1SOL    HW3 1231   0.824   1.979   0.841  0.8095  0.6645  0.6386
    1SOL    MW4 1232   0.892   1.927   0.857  0.2770 -0.3046 -0.1736
    1SOL     OW 1233   1.094   2.072   0.695 -0.3572 -0.3925  0.0223
    1SOL    HW2 1234   1.100   2.147   0.754 -1.2122  1.5628 -2.2673
    1SOL    HW3 1235   1.031   2.013   0.737  1.4123 -0.5397  2.5548
    1SOL    MW4 1236   1.087   2.074   0.708 -0.2367 -0.1538  0.0544
    1SOL     OW 1237   1.120   2.311   0.868 -0.4433 -0.0796 -0.4302
    1SOL    HW2 1238   1.124   2.319   0.963 -2.5914  1.6934 -0.4661
    1SOL    HW3 1239   1.191   2.367   0.836  1.3543 -1.9808  0.1482
    1SOL    MW4 1240   1.130   2.320   0.876 -0.4896 -0.0968 -0.3586
    1SOL     OW 1241   0.890   2.470   0.768 -0.4560  0.5138  0.0765
    1SOL    HW2 1242   0.976   2.440   0.797 -0.3830 -1.0449 -1.6470
    1SOL    HW3 1243   0.827   2.416   0.816 -0.4186  0.2667 -0.1518
    1SOL    MW4 1244   0.893   2.459   0.778 -0.4414  0.2756 -0.1810
    1SOL     OW 1245   0.875   2.737   0.848  0.0972  0.0736  0.5468
    1SOL    HW2 1246   0.893   2.739   0.942  0.2188 -1.1640  0.5647
    1SOL    HW3 1247   0.873   2.643   0.826  0.9837  0.3673 -0.8562
    1SOL    MW4 1248   0.877   2.725   0.858  0.2301 -0.0508  0.3641
    1SOL     OW 1249   1.090   2.822   0.704 -0.1322  0.0183 -0.3353
    1SOL    HW2 1250   1.025   2.804   0.772  1.2232  0.6201  1.1526
    1SOL    HW3 1251   1.072   2.757   0.637 -2.3149  0.2222  0.0043
    1SOL    MW4 1252   1.079   2.811   0.704 -0.2413  0.1245 -0.0941
    1SOL     OW 1253   1.131   3.064   0.846 -0.3899 -0.1812  0.1106
    1SOL    HW2 1254   1.064   3.127   0.819 -0.3392 -0.4409 -0.6101
    1SOL    HW3 1255   1.119   2.989   0.788 -0.2481 -0.7140  0.7666
    1SOL    MW4 1256   1.121   3.063   0.835 -0.3647 -0.2859  0.1020
    1SOL     OW 1257   0.951   3.235   0.731 -0.3728 -0.3858  0.1666
    1SOL    HW2 1258   0.938   3.326   0.761 -1.5497 -0.6428  0.4638
    1SOL    HW3 1259   0.865   3.195   0.740  0.2905 -1.7168  0.6335
    1SOL    MW4 1260   0.938   3.242   0.737 -0.4407 -0.5956  0.2674
    1SOL     OW 1261   0.907   3.493   0.854  0.2597 -0.2608 -0.5738
    1SOL    HW2 1262   0.992   3.537   0.854 -0.4019  1.0645  1.7360
    1SOL    HW3 1263   0.847   3.556   0.816  0.1853 -1.0051 -1.7182
    1SOL    MW4 1264   0.911   3.507   0.849  0.1626 -0.1843 -0.4201
    1SOL     OW 1265   1.149   3.626   0.806  0.3432 -0.1608 -0.3424
    1SOL    HW2 1266   1.236   3.590   0.823  1.1354  2.2717  0.8585
    1SOL    HW3 1267   1.146   3.636   0.711  2.2342  1.8090 -0.2249
    1SOL    MW4 1268   1.160   3.623   0.795  0.6973  0.4199 -0.1684
    1SOL     OW 1269   1.189   3.904   0.871 -0.0591  0.0165 -0.2112
    1SOL    HW2 1270   1.169   3.898   0.965  1.7820  0.2831  0.2111
    1SOL    HW3 1271   1.183   3.814   0.840  1.3010 -0.3656  0.5908
    1SOL    MW4 1272   1.185   3.891   0.879  0.3631  0.0017 -0.0497
    1SOL     OW 1273   0.937   4.029   0.810  0.2558 -0.2357  0.3793
    1SOL    HW2 1274   0.926   4.112   0.855  1.1524  0.1944 -0.1825
    1SOL    HW3 1275   1.024   3.999   0.837  0.3557 -0.4926 -0.2348
    1SOL    MW4 1276   0.947   4.036   0.820  0.3872 -0.2127  0.2241
    1SOL     OW 1277   0.902   4.300   0.871 -0.3378 -0.4754  0.2580
    1SOL    HW2 1278   0.971   4.349   0.828 -0.2590 -0.8285 -0.0222
    1SOL    HW3 1279   0.821   4.336   0.835 -0.2795 -0.5630  0.0373
    1SOL    MW4 1280   0.900   4.311   0.860 -0.3197 -0.5336  0.1920
    1SOL     OW 1281   1.121   4.450   0.754 -0.4874 -0.1217 -0.1016
    1SOL    HW2 1282   1.201   4.412   0.791 -1.7705 -0.2344  2.7030
    1SOL    HW3 1283   1.114   4.536   0.795 -2.3470 -0.5345  0.4884
    1SOL    MW4 1284   1.131   4.456   0.764 -0.9019 -0.1912  0.3463
    1SOL     OW 1285   1.598   0.034   0.839 -0.1327  0.5322  0.0049
    1SOL    HW2 1286   1.597   0.021   0.934  0.4331 -0.3588 -0.1109
    1SOL    HW3 1287   1.511   0.070   0.819 -0.4859  0.1210  0.7783
    1SOL    MW4 1288   1.586   0.037   0.849 -0.1047  0.3604  0.0916
    1SOL     OW 1289   1.354   0.130   0.756 -0.1738  0.1455  0.2002
    1SOL    HW2 1290   1.353   0.218   0.794  1.8921  0.5703 -0.6772
    1SOL    HW3 1291   1.326   0.143   0.665 -0.6411 -0.2325  0.2849
    1SOL    MW4 1292   1.350   0.143   0.749  0.0372  0.1517  0.0956
    1SOL     OW 1293   1.341   0.396   0.842  0.7006 -0.0216 -0.3743
    1SOL    HW2 1294   1.352   0.406   0.936  1.6296  0.3922 -0.5183
    1SOL    HW3 1295   1.423   0.428   0.805  0.2768 -0.0263 -1.3331
    1SOL    MW4 1296   1.353   0.402   0.849  0.7674  0.0324 -0.5198
    1SOL     OW 1297   1.586   0.494   0.775 -0.2547 -0.5662 -0.2002
    1SOL    HW2 1298   1.581   0.586   0.801  1.3898  0.2663 -2.6880
    1SOL    HW3 1299   1.671   0.464   0.808 -0.1140 -0.7669 -0.7487
    1SOL    MW4 1300   1.597   0.502   0.783 -0.0192 -0.4829 -0.6008
    1SOL     OW 1301   1.567   0.767   0.855  0.1497  0.1727 -0.2286
    1SOL    HW2 1302   1.646   0.816   0.836 -0.1389 -0.2320 -2.6035
    1SOL    HW3 1303   1.496   0.823   0.826 -0.3401 -0.2719  0.0898
    1SOL    MW4 1304   1.568   0.781   0.849  0.0472  0.0607 -0.4999
    1SOL     OW 1305   1.372   0.962   0.753 -0.0582 -0.2567  0.2005
    1SOL    HW2 1306   1.357   1.046   0.797 -1.2089 -0.0762 -0.5218
    1SOL    HW3 1307   1.288   0.917   0.758 -0.2828 -0.1307 -2.0280
    1SOL    MW4 1308   1.359   0.967   0.760 -0.2395 -0.2162 -0.1888
    1SOL     OW 1309   1.349   1.227   0.869 -0.0831  0.5912 -0.2718
    1SOL    HW2 1310   1.427   1.260   0.825 -0.6066  2.0535 -0.1540
    1SOL    HW3 1311   1.276   1.258   0.813 -0.7175  1.8930  1.2277
    1SOL    MW4 1312   1.349   1.236   0.856 -0.2358  0.9559 -0.0584
    1SOL     OW 1313   1.594   1.275   0.744 -0.2352  0.0985  0.0082
    1SOL    HW2 1314   1.584   1.368   0.764  1.1431  0.6361 -1.5848
    1SOL    HW3 1315   1.598   1.272   0.648  3.2702 -1.1632  0.1057
    1SOL    MW4 1316   1.594   1.287   0.734  0.4092  0.0030 -0.1891
    1SOL     OW 1317   1.563   1.526   0.814 -0.3731 -0.1742  0.0265
    1SOL    HW2 1318   1.551   1.532   0.909 -0.8830 -0.0303 -0.0438
    1SOL    HW3 1319   1.487   1.572   0.778 -0.8614 -1.3413 -0.4595
    1SOL    MW4 1320   1.551   1.533   0.822 -0.5046 -0.3092 -0.0469
    1SOL     OW 1321   1.347   1.662   0.724  0.2409 -0.2697 -0.2295
    1SOL    HW2 1322   1.343   1.748   0.767 -1.5225  0.2385 -1.3167
    1SOL    HW3 1323   1.280   1.610   0.769 -1.5643  0.2431 -2.2338
    1SOL    MW4 1324   1.337   1.667   0.736 -0.2300 -0.1351 -0.6374
    1SOL     OW 1325   1.313   1.945   0.830 -0.3120  0.4528 -0.1229
    1SOL    HW2 1326   1.311   1.944   0.925  0.6446  0.8573 -0.0877
    1SOL    HW3 1327   1.243   2.006   0.805  0.1088  1.1334  0.3544
    1SOL    MW4 1328   1.303   1.953   0.839 -0.1302  0.5960 -0.0552
    1SOL     OW 1329   1.560   2.051   0.764 -0.3406  0.3525  0.6256
    1SOL    HW2 1330   1.476   2.007   0.766 -0.4172  0.5140  1.0327
    1SOL    HW3 1331   1.571   2.079   0.673 -0.0162 -1.0209  0.2366
    1SOL    MW4 1332   1.550   2.049   0.753 -0.3078  0.1924  0.6280
    1SOL     OW 1333   1.521   2.305   0.904  0.5184 -0.2541 -0.1588
    1SOL    HW2 1334   1.459   2.348   0.845  1.7612  0.3449 -1.0559
    1SOL    HW3 1335   1.534   2.218   0.866  1.2079  0.0810 -0.7191
    1SOL    MW4 1336   1.515   2.299   0.891  0.7733 -0.1311 -0.3510
    1SOL     OW 1337   1.323   2.463   0.756  0.3418  0.4670 -0.2731
    1SOL    HW2 1338   1.335   2.548   0.798  0.4255  0.0887  0.4837
    1SOL    HW3 1339   1.346   2.477   0.665  0.5764  1.2036 -0.0994
    1SOL    MW4 1340   1.328   2.476   0.750  0.3839  0.5143 -0.1503
    1SOL     OW 1341   1.324   2.724   0.881 -0.3588 -0.6710  0.4451
    1SOL    HW2 1342   1.310   2.768   0.965  0.5487  2.0792 -0.7958
    1SOL    HW3 1343   1.253   2.756   0.826  0.2088 -0.9245 -0.4283
    1SOL    MW4 1344   1.312   2.734   0.885 -0.1642 -0.3414  0.1662
    1SOL     OW 1345   1.575   2.826   0.773 -0.3902  0.4394 -0.2761
    1SOL    HW2 1346   1.587   2.915   0.806  0.8545  0.2857 -0.2834
    1SOL    HW3 1347   1.488   2.801   0.802 -0.0779  1.0269  1.2013
    1SOL    MW4 1348   1.565   2.834   0.781 -0.1849  0.4966 -0.0820
    1SOL     OW 1349   1.568   3.073   0.878 -0.2424 -0.6433 -0.1927
    1SOL    HW2 1350   1.578   3.102   0.969  0.9934 -0.5037 -0.3582
    1SOL    HW3 1351   1.501   3.130   0.841 -0.5918 -0.5579  0.5718
    1SOL    MW4 1352   1.561   3.084   0.885 -0.1254 -0.6135 -0.1136
    1SOL     OW 1353   1.361   3.227   0.801 -0.4336  0.0176 -0.1111
    1SOL    HW2 1354   1.284   3.177   0.827 -1.9234  2.1546 -0.2975
    1SOL    HW3 1355   1.349   3.244   0.707  0.3016  0.2938 -0.1626
    1SOL    MW4 1356   1.349   3.223   0.792 -0.5332  0.3362 -0.1425
    1SOL     OW 1357   1.379   3.493   0.899  0.7169  0.2590 -0.6467
    1SOL    HW2 1358   1.467   3.530   0.901  0.5349  0.6502  0.5637
    1SOL    HW3 1359   1.393   3.402   0.872  1.7278 -0.2528  1.4441
    1SOL    MW4 1360   1.393   3.486   0.895  0.8262  0.2432 -0.2111
    1SOL     OW 1361   1.608   3.646   0.867 -0.2110  0.6543  0.7530
    1SOL    HW2 1362   1.698   3.625   0.893 -0.4239  0.4592  1.3525
    1SOL    HW3 1363   1.612   3.657   0.772  0.3921  0.3692  0.7427
    1SOL    MW4 1364   1.621   3.645   0.858 -0.1594  0.5910  0.8308
    1SOL     OW 1365   1.564   3.929   0.874  0.1102  0.0552  0.6113
    1SOL    HW2 1366   1.496   3.963   0.816 -0.6782 -0.2252  1.3393
    1SOL    HW3 1367   1.560   3.834   0.862  1.8161  0.1554 -0.8892
    1SOL    MW4 1368   1.554   3.921   0.865  0.2314  0.0317  0.5094
    1SOL     OW 1369   1.370   4.067   0.725  0.0752 -0.1356 -0.1411
    1SOL    HW2 1370   1.310   4.009   0.771  1.0159 -0.5249  0.6158
    1SOL    HW3 1371   1.361   4.043   0.633 -0.2116 -0.8571  0.0747
    1SOL    MW4 1372   1.361   4.056   0.719  0.1614 -0.2818 -0.0128
    1SOL     OW 1373   1.344   4.313   0.836  0.4071 -0.3088 -0.2493
    1SOL    HW2 1374   1.428   4.359   0.828  0.1875  0.4490  1.5400
    1SOL    HW3 1375   1.360   4.228   0.795  1.4641  0.5479 -1.6619
    1SOL    MW4 1376   1.358   4.308   0.830  0.5176 -0.0954 -0.1996
    1SOL     OW 1377   1.592   4.422   0.781  0.4786  0.0874 -0.0565
    1SOL    HW2 1378   1.672   4.385   0.819  1.1011  1.6834  0.2282
    1SOL    HW3 1379   1.593   4.514   0.809 -1.0986  0.2885 -0.6382
    1SOL    MW4 1380   1.603   4.430   0.790  0.3526  0.3242 -0.0957
    1SOL     OW 1381   2.082   4.657   0.828 -0.3537  0.0359  0.0207
    1SOL    HW2 1382   2.166   4.700   0.844 -0.2184  0.3024 -1.3678
    1SOL    HW3 1383   2.104   4.578   0.780 -0.8001 -0.4838  0.6622
    1SOL    MW4 1384   2.096   4.652   0.824 -0.3948  0.0024 -0.0778
    1SOL     OW 1385   1.832   0.130   0.718  0.2226  0.3338  0.0494
    1SOL    HW2 1386   1.898   0.073   0.758  0.5726  0.8691  0.2353
    1SOL    HW3 1387   1.749   0.096   0.750  0.5484  1.4706  2.1996
    1SOL    MW4 1388   1.830   0.118   0.728  0.3117  0.5544  0.3576
    1SOL     OW 1389   1.836   0.378   0.838  0.2944 -0.1926 -0.1497
    1SOL    HW2 1390   1.844   0.303   0.780  1.1718 -1.3236  1.3832
    1SOL    HW3 1391   1.901   0.441   0.806  1.0241 -0.9510 -0.1694
    1SOL    MW4 1392   1.846   0.376   0.826  0.5065 -0.4418  0.0499
    1SOL     OW 1393   2.058   0.506   0.730 -0.6110  0.3580 -0.1240
    1SOL    HW2 1394   2.125   0.469   0.787 -0.4738 -0.9208 -1.0848
    1SOL    HW3 1395   2.097   0.504   0.643 -1.2203  1.2761 -0.4186
    1SOL    MW4 1396   2.072   0.501   0.726 -0.6733  0.3104 -0.2897
    1SOL     OW 1397   2.019   0.770   0.843  0.1284  0.6003 -0.3805
    1SOL    HW2 1398   2.092   0.822   0.809  1.2473 -0.0196  1.0207
    1SOL    HW3 1399   2.027   0.685   0.798  1.6380 -0.2371  1.4140
    1SOL    MW4 1400   2.030   0.766   0.832  0.4754  0.4080  0.0411
    1SOL     OW 1401   1.791   0.922   0.787  0.3570 -0.2637 -0.4992
    1SOL    HW2 1402   1.801   1.010   0.824 -1.4619 -0.3479  0.2290
    1SOL    HW3 1403   1.875   0.879   0.806  0.8540  0.9500  0.1249
    1SOL    MW4 1404   1.804   0.928   0.795  0.1826 -0.1146 -0.3207
    1SOL     OW 1405   1.819   1.195   0.873  0.8463  0.0021 -0.0962
    1SOL    HW2 1406   1.896   1.224   0.825  0.6588  0.2426 -0.2535
    1SOL    HW3 1407   1.746   1.242   0.833  0.5813 -0.4249 -0.1228
    1SOL    MW4 1408   1.819   1.205   0.862  0.7865 -0.0224 -0.1205
    1SOL     OW 1409   2.049   1.285   0.753 -0.0854 -0.2327 -0.3046
    1SOL    HW2 1410   2.128   1.239   0.782  0.4830  0.7116 -0.3393
    1SOL    HW3 1411   2.047   1.273   0.658 -0.0017 -0.2845 -0.2996
    1SOL    MW4 1412   2.059   1.278   0.744  0.0007 -0.1149 -0.3086
    1SOL     OW 1413   2.012   1.544   0.889  0.1187  0.1190 -0.3429
    1SOL    HW2 1414   2.086   1.598   0.863 -0.9798  1.3335 -0.9816
    1SOL    HW3 1415   2.028   1.460   0.846  1.5720  0.0617  0.2539
    1SOL    MW4 1416   2.024   1.540   0.880  0.1657  0.2717 -0.3484
    1SOL     OW 1417   1.805   1.671   0.778  0.4223  0.1479  0.0407
    1SOL    HW2 1418   1.879   1.621   0.810 -0.1452 -0.5279  0.3069
    1SOL    HW3 1419   1.729   1.617   0.798 -0.1643  0.9483 -0.0011
    1SOL    MW4 1420   1.805   1.657   0.785  0.2701  0.1643  0.0703
    1SOL     OW 1421   1.811   1.935   0.811  0.1149 -0.0857 -0.5394
    1SOL    HW2 1422   1.802   1.842   0.789 -1.7398  0.0322 -0.3668
    1SOL    HW3 1423   1.724   1.972   0.794  0.9515  1.7104 -1.0150
    1SOL    MW4 1424   1.798   1.928   0.806 -0.0196  0.1669 -0.5794
    1SOL     OW 1425   2.054   2.082   0.765  0.6200  0.4933  0.5942
    1SOL    HW2 1426   2.048   2.169   0.803  0.0516  1.0391 -0.7012
    1SOL    HW3 1427   1.970   2.040   0.787  0.4668  0.6566  0.3335
    1SOL    MW4 1428   2.042   2.088   0.773  0.5250  0.5867  0.3890
    1SOL     OW 1429   2.007   2.323   0.866 -0.6055  0.1796 -0.1276
    1SOL    HW2 1430   2.020   2.332   0.960  0.4510 -0.8041 -0.1598
    1SOL    HW3 1431   1.920   2.358   0.850 -0.2548  1.6542  1.0094
    1SOL    MW4 1432   1.997   2.329   0.876 -0.4196  0.2441  0.0182
    1SOL     OW 1433   1.767   2.443   0.797 -0.5424 -0.0400 -0.0288
    1SOL    HW2 1434   1.687   2.403   0.832 -2.6965  2.5987 -1.7054
    1SOL    HW3 1435   1.770   2.415   0.705 -0.1559  0.7920 -0.2731
    1SOL    MW4 1436   1.757   2.434   0.789 -0.7756  0.4179 -0.2823
    1SOL     OW 1437   1.800   2.700   0.898  0.1957 -0.6032  0.0019
    1SOL    HW2 1438   1.796   2.608   0.875  0.0107 -0.0271 -2.3505
    1SOL    HW3 1439   1.718   2.737   0.866  0.7245  0.5806 -0.0342
    1SOL    MW4 1440   1.789   2.693   0.891  0.2410 -0.3710 -0.3132
    1SOL     OW 1441   2.013   2.827   0.773  0.1812  0.1015 -0.3801
    1SOL    HW2 1442   2.089   2.784   0.812  0.4294  1.2569  0.4244
    1SOL    HW3 1443   1.938   2.789   0.819  0.2578 -0.9362 -1.0800
    1SOL    MW4 1444   2.013   2.816   0.784  0.2241  0.1171 -0.3663
    1SOL     OW 1445   2.032   3.102   0.904  0.2763 -0.2175 -0.3681
    1SOL    HW2 1446   1.951   3.152   0.896  0.3725  0.5240  2.4988
    1SOL    HW3 1447   2.008   3.012   0.880 -1.3747  0.0160  0.3501
    1SOL    MW4 1448   2.018   3.096   0.900  0.0713 -0.0887  0.1050
    1SOL     OW 1449   1.785   3.238   0.872 -0.0146  0.1352  0.1035
    1SOL    HW2 1450   1.724   3.165   0.882  1.8180 -1.2053  1.8252
    1SOL    HW3 1451   1.806   3.238   0.779 -2.2702  0.3546 -0.4518
    1SOL    MW4 1452   1.779   3.228   0.861 -0.0703 -0.0131  0.2573
    1SOL     OW 1453   1.856   3.539   0.921  0.0899  0.3585  0.2873
    1SOL    HW2 1454   1.839   3.542   1.015 -0.4564  1.4234  0.1715
    1SOL    HW3 1455   1.827   3.452   0.893 -0.5264  0.3458  0.9620
    1SOL    MW4 1456   1.850   3.528   0.930 -0.0635  0.4973  0.3610
    1SOL     OW 1457   2.029   3.696   0.758 -0.1292 -0.1301  0.2144
    1SOL    HW2 1458   2.036   3.791   0.771  1.4704  0.0494 -1.6102
    1SOL    HW3 1459   1.980   3.664   0.834  0.3608  1.9992  1.4574
    1SOL    MW4 1460   2.023   3.704   0.770  0.1464  0.1748  0.1377
    1SOL     OW 1461   2.029   3.972   0.824 -0.6293  0.1468  0.4026
    1SOL    HW2 1462   2.011   3.949   0.915 -1.5432  1.6298  0.6120
    1SOL    HW3 1463   1.943   3.988   0.786 -0.2175  0.0198 -0.5875
    1SOL    MW4 1464   2.015   3.972   0.831 -0.6955  0.3254  0.2996
    1SOL     OW 1465   1.777   4.070   0.738  0.2520 -0.1071  0.1023
    1SOL    HW2 1466   1.703   4.023   0.778  0.3671 -0.0966  0.3261
    1SOL    HW3 1467   1.748   4.088   0.648 -0.7521  1.4700  0.7136
    1SOL    MW4 1468   1.763   4.066   0.731  0.1348  0.1025  0.2125
    1SOL     OW 1469   1.821   4.323   0.870  0.7881 -0.3713 -0.0289
    1SOL    HW2 1470   1.813   4.301   0.963 -0.7816 -1.1279 -0.3321
    1SOL    HW3 1471   1.801   4.242   0.824 -0.4662  0.5188 -1.0718
    1SOL    MW4 1472   1.818   4.310   0.876  0.4154 -0.3538 -0.2065
    1SOL     OW 1473   2.093   4.346   0.774 -0.5261  0.0852 -0.2087
    1SOL    HW2 1474   2.001   4.331   0.796 -0.6669  1.4472  0.1737
    1SOL    HW3 1475   2.094   4.362   0.680 -0.4775 -1.4184 -0.4776
    1SOL    MW4 1476   2.081   4.346   0.765 -0.5381  0.0663 -0.1937
    1SOL     OW 1477   2.627   4.499   0.827  1.0600  0.8146  0.0984
    1SOL    HW2 1478   2.568   4.551   0.881  1.6353  0.3702  1.1690
    1SOL    HW3 1479   2.674   4.444   0.889  0.1841 -1.2720 -1.0658
    1SOL    MW4 1480   2.626   4.499   0.842  1.0202  0.4811  0.0861
    1SOL     OW 1481   2.329   0.104   0.821 -0.2305  0.4748 -0.6403
    1SOL    HW2 1482   2.387   0.090   0.896  0.0296  1.6529 -0.6075
    1SOL    HW3 1483   2.387   0.137   0.752 -0.6129  0.2281 -1.0796
    1SOL    MW4 1484   2.345   0.106   0.822 -0.2465  0.5977 -0.6939
    1SOL     OW 1485   2.245   0.355   0.865  0.7911  0.2048 -0.2138
    1SOL    HW2 1486   2.322   0.399   0.831  0.0898  1.3760 -0.3011
    1SOL    HW3 1487   2.261   0.262   0.848  1.5058  0.5702 -1.6074
    1SOL    MW4 1488   2.257   0.348   0.858  0.7927  0.4075 -0.4092
    1SOL     OW 1489   2.479   0.497   0.775 -0.3708  0.0558  0.2080
    1SOL    HW2 1490   2.552   0.449   0.814 -1.2366 -1.1383  0.4160
    1SOL    HW3 1491   2.483   0.474   0.682  0.9551  1.9203 -0.2143
    1SOL    MW4 1492   2.489   0.487   0.768 -0.3102  0.1442  0.1798
    1SOL     OW 1493   2.471   0.768   0.837 -0.2036  0.1932 -0.2738
    1SOL    HW2 1494   2.554   0.803   0.804 -0.4689  0.5298 -0.5817
    1SOL    HW3 1495   2.467   0.679   0.803 -0.4007  0.4839 -1.0230
    1SOL    MW4 1496   2.481   0.761   0.828 -0.2644  0.2759 -0.4134
    1SOL     OW 1497   2.240   0.907   0.734  0.2015  0.1519 -0.5651
    1SOL    HW2 1498   2.324   0.869   0.760  1.5171  3.1820 -0.1693
    1SOL    HW3 1499   2.256   0.943   0.646 -0.8993  0.1250 -0.7840
    1SOL    MW4 1500   2.253   0.907   0.726  0.2301  0.5481 -0.5418
    1SOL     OW 1501   2.273   1.162   0.855 -0.1698  0.2875  0.1715
    1SOL    HW2 1502   2.286   1.159   0.950 -0.2671 -0.2055  0.1702
    1SOL    HW3 1503   2.263   1.070   0.829 -0.7252  0.4593 -0.2363
    1SOL    MW4 1504   2.274   1.149   0.864 -0.2561  0.2453  0.1175
    1SOL     OW 1505   2.522   1.247   0.748 -0.0791 -0.1127  0.5643
    1SOL    HW2 1506   2.436   1.229   0.786 -0.8012  0.2222 -0.8785
    1SOL    HW3 1507   2.517   1.212   0.659  0.9466  0.7502  0.1592
    1SOL    MW4 1508   2.510   1.240   0.741 -0.0391  0.0453  0.3204
    1SOL     OW 1509   2.491   1.541   0.783 -0.3819  0.2125 -0.2844
    1SOL    HW2 1510   2.572   1.590   0.767  0.4478 -0.8391  0.6396
    1SOL    HW3 1511   2.505   1.457   0.739 -0.4578 -0.4425  0.9285
    1SOL    MW4 1512   2.504   1.537   0.775 -0.2825 -0.0126 -0.0025
    1SOL     OW 1513   2.235   1.670   0.776 -0.5011 -0.1078  0.1085
    1SOL    HW2 1514   2.327   1.643   0.777  0.8434  4.0463  1.4368
    1SOL    HW3 1515   2.210   1.668   0.684  0.4611 -2.5757 -0.1364
    1SOL    MW4 1516   2.244   1.666   0.764 -0.1967  0.1144  0.2515
    1SOL     OW 1517   2.277   1.944   0.856 -0.1318  0.0977  0.0858
    1SOL    HW2 1518   2.254   1.857   0.822  1.1612  0.0442 -0.6744
    1SOL    HW3 1519   2.209   2.001   0.821 -0.2951 -0.4085 -0.4415
    1SOL    MW4 1520   2.265   1.940   0.847  0.0169  0.0240 -0.0842
    1SOL     OW 1521   2.526   2.064   0.757  0.0886  0.0568  0.1395
    1SOL    HW2 1522   2.447   2.023   0.793 -0.9662  0.8654 -1.2121
    1SOL    HW3 1523   2.508   2.074   0.663  1.8903  0.0455 -0.2302
    1SOL    MW4 1524   2.513   2.060   0.749  0.1874  0.1621 -0.0876
    1SOL     OW 1525   2.499   2.319   0.875 -0.0025  0.1070  0.0583
    1SOL    HW2 1526   2.564   2.382   0.844 -1.0208  0.6974 -0.9170
    1SOL    HW3 1527   2.519   2.238   0.828 -0.1695  0.3783 -0.4834
    1SOL    MW4 1528   2.510   2.317   0.865 -0.1590  0.2210 -0.1419
    1SOL     OW 1529   2.248   2.458   0.783 -0.5935  0.1457 -0.0837
    1SOL    HW2 1530   2.314   2.408   0.832 -1.5027 -0.9507  0.0510
    1SOL    HW3 1531   2.167   2.409   0.795 -1.6871  2.0655  0.6850
    1SOL    MW4 1532   2.246   2.445   0.791 -0.8578  0.2544  0.0355
    1SOL     OW 1533   2.257   2.719   0.869 -0.0411 -0.1063 -0.0680
    1SOL    HW2 1534   2.249   2.717   0.965  0.4390  0.8922  0.0004
    1SOL    HW3 1535   2.256   2.627   0.843 -1.6183 -0.3421  0.7656
    1SOL    MW4 1536   2.256   2.707   0.878 -0.1860 -0.0057  0.0510
    1SOL     OW 1537   2.483   2.862   0.791  0.0657  0.1505  0.3845
    1SOL    HW2 1538   2.552   2.811   0.834  0.4444  0.1750 -0.1955
    1SOL    HW3 1539   2.403   2.813   0.808 -0.1208  1.2559  2.9650
    1SOL    MW4 1540   2.482   2.849   0.799  0.0911  0.2995  0.6484
    1SOL     OW 1541   2.509   3.118   0.906 -0.3213 -0.0171  0.3893
    1SOL    HW2 1542   2.506   3.103   1.000 -0.6451  0.0230  0.3860
    1SOL    HW3 1543   2.497   3.031   0.868  0.8588 -0.1858  0.3903
    1SOL    MW4 1544   2.507   3.104   0.913 -0.2084 -0.0336  0.3890
    1SOL     OW 1545   2.265   3.266   0.821 -0.0517 -0.2106  0.1441
    1SOL    HW2 1546   2.188   3.217   0.852 -0.2315  0.3431  0.5854
    1SOL    HW3 1547   2.339   3.223   0.864 -0.1412 -0.5499 -0.0385
    1SOL    MW4 1548   2.264   3.254   0.831 -0.0873 -0.1826  0.1782
    1SOL     OW 1549   2.257   3.554   0.846  0.0420 -0.1627 -0.5593
    1SOL    HW2 1550   2.260   3.464   0.816  1.6584  0.6992 -3.1771
    1SOL    HW3 1551   2.174   3.588   0.812 -0.8508 -0.8144  0.9437
    1SOL    MW4 1552   2.246   3.547   0.837  0.1373 -0.1349 -0.7064
    1SOL     OW 1553   2.467   3.698   0.745  0.1233 -0.1583 -0.4018
    1SOL    HW2 1554   2.548   3.651   0.766  0.8666  0.4661 -1.8014
    1SOL    HW3 1555   2.400   3.653   0.796  1.5062 -0.0040  1.6308
    1SOL    MW4 1556   2.469   3.685   0.754  0.4039 -0.0553 -0.3182
    1SOL     OW 1557   2.501   3.963   0.833  0.0495 -0.5269  0.1327
    1SOL    HW2 1558   2.435   4.017   0.790 -0.2979 -0.9138  0.1832
    1SOL    HW3 1559   2.485   3.875   0.800  0.6808 -0.5849 -0.0262
    1SOL    MW4 1560   2.490   3.959   0.823  0.0870 -0.5856  0.1184
    1SOL     OW 1561   2.164   3.997   0.549 -0.0460  0.1162 -0.6106
    1SOL    HW2 1562   2.123   3.965   0.630  1.7921 -1.2422 -0.1693
    1SOL    HW3 1563   2.096   3.989   0.483 -1.5035  0.9929  0.7288
    1SOL    MW4 1564   2.150   3.992   0.551  0.0043  0.0529 -0.3757
    1SOL     OW 1565   2.335   4.188   0.695 -0.2034  0.0340 -0.1569
    1SOL    HW2 1566   2.294   4.129   0.631 -0.3979  0.0071 -0.0081
    1SOL    HW3 1567   2.261   4.233   0.736 -0.2646 -2.0006  2.0423
    1SOL    MW4 1568   2.319   4.186   0.692 -0.2370 -0.2384  0.1529
    1SOL     OW 1569   2.506   4.370   0.609  0.2009 -0.5704 -0.0687
    1SOL    HW2 1570   2.549   4.400   0.688 -0.7945  0.3928  0.1120
    1SOL    HW3 1571   2.455   4.293   0.637 -1.0810  0.4670  0.4818
    1SOL    MW4 1572   2.505   4.364   0.623 -0.0997 -0.3066  0.0278
    1SOL     OW 1573   2.935   4.629   0.834  0.2286 -0.8936  0.1073
    1SOL    HW2 1574   2.881   4.550   0.841 -0.9411 -0.0274  1.2329
    1SOL    HW3 1575   2.883   4.689   0.781  0.6376 -0.5001  0.1491
    1SOL    MW4 1576   2.921   4.626   0.828  0.1283 -0.7277  0.2614
    1SOL     OW 1577   2.625   4.647   0.532 -0.1541  0.7482  0.1745
    1SOL    HW2 1578   2.679   4.709   0.581  0.8924  0.7341 -0.9304
    1SOL    HW3 1579   2.621   4.569   0.588  0.8810  0.7924  0.3310
    1SOL    MW4 1580   2.632   4.645   0.546  0.1206  0.7520  0.0494
    1SOL     OW 1581   2.722   0.371   0.851 -0.2314  0.1612  0.3617
    1SOL    HW2 1582   2.723   0.386   0.946  2.3347 -1.3131  0.6114
    1SOL    HW3 1583   2.793   0.426   0.817 -0.5937  0.0400 -0.6142
    1SOL    MW4 1584   2.731   0.381   0.859  0.0594 -0.0493  0.2659
    1SOL     OW 1585   2.949   0.486   0.750 -0.1482 -0.0251 -0.5234
    1SOL    HW2 1586   3.023   0.434   0.782 -0.6275 -0.2346  0.2746
    1SOL    HW3 1587   2.939   0.460   0.659  0.2463 -0.6063 -0.4066
    1SOL    MW4 1588   2.957   0.476   0.742 -0.1595 -0.1294 -0.4027
    1SOL     OW 1589   2.951   0.729   0.876 -0.2715 -0.1831 -0.1994
    1SOL    HW2 1590   2.929   0.724   0.969 -0.3628 -0.4230 -0.2329
    1SOL    HW3 1591   2.943   0.639   0.845  1.0792 -0.3431 -0.1375
    1SOL    MW4 1592   2.947   0.716   0.884 -0.1054 -0.2359 -0.1957
    1SOL     OW 1593   2.723   0.888   0.802  0.2674  0.0401  0.0858
    1SOL    HW2 1594   2.806   0.841   0.807 -0.2916 -1.0113 -0.2596
    1SOL    HW3 1595   2.715   0.913   0.709 -0.4364 -1.0576 -0.1597
    1SOL    MW4 1596   2.733   0.885   0.790  0.1006 -0.2435  0.0079
    1SOL     OW 1597   2.747   1.148   0.892  0.2212 -0.3148 -0.8863
    1SOL    HW2 1598   2.737   1.056   0.868 -0.7297 -0.2418 -0.7974
    1SOL    HW3 1599   2.674   1.193   0.847 -1.7582 -0.2169  2.2466
    1SOL    MW4 1600   2.736   1.142   0.883 -0.1655 -0.2923 -0.4612
    1SOL     OW 1601   2.946   1.285   0.749 -0.2381 -0.4417 -0.4053
    1SOL    HW2 1602   3.012   1.232   0.794 -1.2625 -1.0652  0.3991
    1SOL    HW3 1603   2.862   1.254   0.785 -0.8202  2.6198  1.1040
    1SOL    MW4 1604   2.944   1.274   0.760 -0.4501 -0.1199 -0.1000
    1SOL     OW 1605   2.960   1.523   0.863 -0.3554 -0.4759 -0.5197
    1SOL    HW2 1606   3.033   1.569   0.821 -0.5237  0.7251  0.4703
    1SOL    HW3 1607   2.966   1.434   0.830  1.1829 -0.2317 -0.9543
    1SOL    MW4 1608   2.971   1.518   0.853 -0.1745 -0.2850 -0.4464
    1SOL     OW 1609   2.735   1.666   0.753  0.0784 -0.0605 -0.6589
    1SOL    HW2 1610   2.758   1.754   0.781 -2.3628  0.3663  0.1366
    1SOL    HW3 1611   2.805   1.611   0.787 -1.0884  0.8910  3.5661
    1SOL    MW4 1612   2.747   1.670   0.761 -0.3974  0.1214  0.0035
    1SOL     OW 1613   2.773   1.935   0.836  0.5478  0.3217 -0.3413
    1SOL    HW2 1614   2.771   1.917   0.929  0.9373 -0.4193 -0.4742
    1SOL    HW3 1615   2.691   1.981   0.818  0.0587 -0.3412  0.1961
    1SOL    MW4 1616   2.762   1.939   0.846  0.5348  0.1365 -0.2880
    1SOL     OW 1617   2.893   2.124   0.681 -0.0838  0.2519  0.4000
    1SOL    HW2 1618   2.913   2.199   0.736  0.0361  1.6096 -1.4667
    1SOL    HW3 1619   2.850   2.062   0.740  1.5263  0.9875  2.3791
    1SOL    MW4 1620   2.890   2.125   0.696  0.1445  0.5281  0.4148
    1SOL     OW 1621   2.942   2.351   0.830  0.1135  0.0383  0.0656
    1SOL    HW2 1622   2.937   2.350   0.926 -0.3785  1.8415  0.0793
    1SOL    HW3 1623   2.857   2.385   0.802 -0.0701 -1.3152 -1.0492
    1SOL    MW4 1624   2.930   2.356   0.839  0.0243  0.0978 -0.0796
    1SOL     OW 1625   2.707   2.487   0.769  0.3955 -0.2272  0.1659
    1SOL    HW2 1626   2.675   2.520   0.685  1.6767  0.4345 -0.0720
    1SOL    HW3 1627   2.712   2.565   0.824 -0.7858 -0.7099  0.9924
    1SOL    MW4 1628   2.703   2.502   0.765  0.4089 -0.2036  0.2436
    1SOL     OW 1629   2.715   2.733   0.898  0.1470 -0.1418 -0.7084
    1SOL    HW2 1630   2.707   2.737   0.993 -0.6383  1.6953 -0.8308
    1SOL    HW3 1631   2.799   2.775   0.879 -1.0540  2.2231 -0.9930
    1SOL    MW4 1632   2.725   2.739   0.908 -0.1149  0.4129 -0.7620
    1SOL     OW 1633   2.825   2.929   0.546 -0.0277  0.0685  0.4232
    1SOL    HW2 1634   2.748   2.873   0.536 -0.5245  0.8667 -0.3430
    1SOL    HW3 1635   2.790   3.018   0.542  0.9702  0.4423 -0.2367
    1SOL    MW4 1636   2.810   2.933   0.544  0.0384  0.2232  0.2351
    1SOL     OW 1637   2.974   3.134   0.898  0.0444 -0.5353  0.4602
    1SOL    HW2 1638   2.887   3.167   0.876  0.1289 -0.5193  0.1470
    1SOL    HW3 1639   2.976   3.046   0.861  1.7684  1.0768 -3.4990
    1SOL    MW4 1640   2.963   3.127   0.890  0.2832 -0.3204 -0.1034
    1SOL     OW 1641   2.727   3.267   0.825  0.1498  0.1762  0.3296
    1SOL    HW2 1642   2.700   3.358   0.836 -0.0255  0.0801  0.6847
    1SOL    HW3 1643   2.657   3.215   0.864  0.1974 -0.1178  0.0318
    1SOL    MW4 1644   2.715   3.272   0.831  0.1330  0.1249  0.3372
    1SOL     OW 1645   2.692   3.545   0.833 -0.0806 -0.2735  0.3837
    1SOL    HW2 1646   2.707   3.543   0.927  0.6233  0.0814  0.2836
    1SOL    HW3 1647   2.777   3.570   0.796 -0.1500 -1.1651 -0.3957
    1SOL    MW4 1648   2.705   3.548   0.840  0.0031 -0.3443  0.2676
    1SOL     OW 1649   2.932   3.639   0.755  0.2626 -0.2491 -0.0131
    1SOL    HW2 1650   2.933   3.732   0.780  0.7881  0.1811 -1.5871
    1SOL    HW3 1651   2.921   3.640   0.660 -1.3990 -1.8507  0.1349
    1SOL    MW4 1652   2.931   3.651   0.746  0.1128 -0.4036 -0.2012
    1SOL     OW 1653   2.950   3.916   0.861  0.0984  0.2926  0.0138
    1SOL    HW2 1654   2.953   3.905   0.956  0.0291 -0.3730 -0.0578
    1SOL    HW3 1655   2.869   3.964   0.844 -0.1533 -0.0482  0.2485
    1SOL    MW4 1656   2.940   3.921   0.871  0.0563  0.1600  0.0353
    1SOL     OW 1657   2.698   4.075   0.421 -0.5032 -0.3900  0.1932
    1SOL    HW2 1658   2.622   4.017   0.419 -0.3649 -0.5472 -0.5619
    1SOL    HW3 1659   2.756   4.035   0.486 -1.4303  0.2127  1.4220
    1SOL    MW4 1660   2.696   4.062   0.429 -0.6073 -0.3309  0.2557
    1SOL     OW 1661   2.739   4.127   0.853 -0.5096  0.2409 -0.1957
    1SOL    HW2 1662   2.715   4.175   0.933  0.5921  0.6817 -0.1203
    1SOL    HW3 1663   2.661   4.075   0.832 -0.3917 -0.8259  1.8622
    1SOL    MW4 1664   2.725   4.126   0.861 -0.3486  0.1583  0.0858
    1SOL     OW 1665   2.887   4.351   0.768  0.0029 -0.2565  0.0854
    1SOL    HW2 1666   2.979   4.329   0.781  0.5849  1.5994 -0.7698
    1SOL    HW3 1667   2.840   4.271   0.793  1.9625 -2.1273 -1.8927
    1SOL    MW4 1668   2.893   4.337   0.773  0.3383 -0.2584 -0.2884
    1SOL     OW 1669   3.386   4.610   0.815  0.2560  0.2095 -0.4819
    1SOL    HW2 1670   3.379   4.625   0.909 -0.1220  1.2517 -0.6691
    1SOL    HW3 1671   3.310   4.654   0.777 -0.2677 -1.2576 -1.1759
    1SOL    MW4 1672   3.375   4.618   0.822  0.1371  0.1531 -0.5982
    1SOL     OW 1673   3.158   0.065   0.709 -0.2000  0.2500  0.4450
    1SOL    HW2 1674   3.166   0.154   0.744  0.6778  0.5367 -0.4738
    1SOL    HW3 1675   3.083   0.028   0.756  1.2692  0.4263  3.0494
    1SOL    MW4 1676   3.149   0.072   0.720  0.1097  0.3111  0.6673
    1SOL     OW 1677   3.179   0.346   0.816 -0.1881  0.3666  0.1816
    1SOL    HW2 1678   3.173   0.329   0.910 -0.7401  2.6409  0.5757
    1SOL    HW3 1679   3.250   0.409   0.807 -0.5370  0.6259 -0.8603
    1SOL    MW4 1680   3.187   0.352   0.827 -0.3066  0.7008  0.0961
    1SOL     OW 1681   3.381   0.541   0.789 -0.3177  0.2703  0.4218
    1SOL    HW2 1682   3.464   0.503   0.817 -0.7706 -0.4212  0.8609
    1SOL    HW3 1683   3.391   0.556   0.695  0.4928  0.7009  0.5714
    1SOL    MW4 1684   3.393   0.538   0.780 -0.2706  0.2359  0.4995
    1SOL     OW 1685   3.397   0.818   0.852 -0.2681  0.0764 -0.1691
    1SOL    HW2 1686   3.319   0.851   0.808 -1.7161 -2.1860  0.5944
    1SOL    HW3 1687   3.390   0.722   0.845  1.1292 -0.2350  2.0834
    1SOL    MW4 1688   3.386   0.809   0.845 -0.2749 -0.2632  0.2288
    1SOL     OW 1689   3.105   0.906   0.738  0.1991  0.0869  0.2709
    1SOL    HW2 1690   3.130   0.975   0.799 -1.1116  1.2144 -0.4494
    1SOL    HW3 1691   3.070   0.836   0.795  1.2079  0.1444  0.9692
    1SOL    MW4 1692   3.104   0.906   0.754  0.1593  0.2432  0.2680
    1SOL     OW 1693   3.137   1.138   0.893  0.1296  0.3299 -0.2226
    1SOL    HW2 1694   3.135   1.111   0.984 -0.3405 -0.1584 -0.3743
    1SOL    HW3 1695   3.224   1.175   0.880  0.5842 -0.6366  0.1164
    1SOL    MW4 1696   3.148   1.140   0.903  0.1276  0.1379 -0.1979
    1SOL     OW 1697   3.375   1.245   0.811 -0.7691 -0.0352 -0.7377
    1SOL    HW2 1698   3.464   1.209   0.804 -0.3548  1.0374 -1.0832
    1SOL    HW3 1699   3.388   1.335   0.839 -1.7176  0.3288 -1.4638
    1SOL    MW4 1700   3.389   1.252   0.813 -0.8397  0.1544 -0.8791
    1SOL     OW 1701   3.386   1.511   0.867 -0.1686 -0.2558  0.5293
    1SOL    HW2 1702   3.360   1.521   0.958 -0.2899  0.4716  0.4173
    1SOL    HW3 1703   3.465   1.564   0.859 -0.7670  0.5689 -0.0497
    1SOL    MW4 1704   3.393   1.519   0.878 -0.2635 -0.0510  0.4382
    1SOL     OW 1705   3.185   1.653   0.747  0.3293 -0.0408  0.7064
    1SOL    HW2 1706   3.262   1.608   0.781  0.6462  0.5095  0.7318
    1SOL    HW3 1707   3.184   1.633   0.654  0.2348 -0.4323  0.7899
    1SOL    MW4 1708   3.195   1.645   0.739  0.3586 -0.0198  0.7207
    1SOL     OW 1709   3.208   1.902   0.873  0.0411  0.5027 -0.2947
    1SOL    HW2 1710   3.178   1.879   0.961 -2.0270  0.0150 -1.0833
    1SOL    HW3 1711   3.204   1.819   0.825 -1.8440  1.3281 -1.6360
    1SOL    MW4 1712   3.203   1.888   0.878 -0.4807  0.5472 -0.5757
    1SOL     OW 1713   3.455   2.002   0.797  0.4143  0.0430  0.4763
    1SOL    HW2 1714   3.462   2.098   0.795 -1.5647  0.1981 -1.7329
    1SOL    HW3 1715   3.369   1.985   0.833 -0.1032 -0.8071 -1.0921
    1SOL    MW4 1716   3.445   2.013   0.801  0.0849 -0.0489 -0.0221
    1SOL     OW 1717   3.469   2.282   0.839  0.2907  0.2183 -0.2605
    1SOL    HW2 1718   3.427   2.276   0.925 -1.3387  2.0586 -0.8715
    1SOL    HW3 1719   3.551   2.329   0.856  0.2354  0.0954  0.3689
    1SOL    MW4 1720   3.474   2.288   0.853  0.0684  0.4449 -0.2581
    1SOL     OW 1721   3.123   2.528   0.706  0.4569  0.6601  0.3225
    1SOL    HW2 1722   3.179   2.454   0.684 -0.1204  0.3806 -0.2298
    1SOL    HW3 1723   3.047   2.489   0.749  0.1051  0.9154 -0.0562
    1SOL    MW4 1724   3.120   2.513   0.709  0.3343  0.6568  0.1997
    1SOL     OW 1725   3.177   2.769   0.831  0.6211 -0.0414 -0.1499
    1SOL    HW2 1726   3.182   2.686   0.784  0.8168 -0.2664  0.2746
    1SOL    HW3 1727   3.221   2.831   0.773  0.0647 -0.1319 -0.6800
    1SOL    MW4 1728   3.183   2.766   0.817  0.5734 -0.0832 -0.1639
    1SOL     OW 1729   3.337   2.936   0.671  0.1677  0.8676  0.1355
    1SOL    HW2 1730   3.273   2.945   0.601  0.5229 -0.1600 -0.3362
    1SOL    HW3 1731   3.408   2.886   0.632 -0.0038 -0.4576  1.4595
    1SOL    MW4 1732   3.338   2.930   0.656  0.1919  0.5574  0.2480
    1SOL     OW 1733   3.355   3.109   0.881  0.4369 -0.1922 -0.4511
    1SOL    HW2 1734   3.381   3.069   0.964 -0.8756  0.5936  0.3471
    1SOL    HW3 1735   3.341   3.034   0.822 -1.5679 -0.9426  0.9144
    1SOL    MW4 1736   3.357   3.093   0.884 -0.0007 -0.1876 -0.1656
    1SOL     OW 1737   3.167   3.254   0.742 -0.1840 -0.1156  0.5738
    1SOL    HW2 1738   3.242   3.210   0.782  0.0071  0.0596  0.4094
    1SOL    HW3 1739   3.094   3.233   0.799 -0.4144 -1.9855 -0.3730
    1SOL    MW4 1740   3.168   3.246   0.755 -0.1888 -0.3388  0.4272
    1SOL     OW 1741   3.139   3.487   0.885  0.0008 -0.3013  0.2824
    1SOL    HW2 1742   3.154   3.417   0.822  1.1704  0.7292 -0.6072
    1SOL    HW3 1743   3.082   3.549   0.838 -0.1434 -0.1304  0.6782
    1SOL    MW4 1744   3.133   3.486   0.871  0.1364 -0.1431  0.2173
    1SOL     OW 1745   3.379   3.601   0.780 -0.2478 -0.6227  0.3661
    1SOL    HW2 1746   3.375   3.696   0.793  2.0188 -0.1562 -1.6988
    1SOL    HW3 1747   3.311   3.565   0.836 -0.9057  2.2087  1.4574
    1SOL    MW4 1748   3.370   3.609   0.789 -0.0355 -0.1876  0.2376
    1SOL     OW 1749   3.373   3.891   0.819  0.1229  0.3246 -0.1068
    1SOL    HW2 1750   3.378   3.897   0.914 -0.4714 -0.9590  0.0151
    1SOL    HW3 1751   3.453   3.934   0.788 -0.0948  1.5139  0.9250
    1SOL    MW4 1752   3.384   3.898   0.827  0.0155  0.3121  0.0454
    1SOL     OW 1753   3.151   3.991   0.695 -0.4909 -0.3173  0.1707
    1SOL    HW2 1754   3.230   3.969   0.745 -0.0596 -0.0351 -0.3816
    1SOL    HW3 1755   3.078   3.962   0.751 -0.0088 -0.1216  0.9003
    1SOL    MW4 1756   3.152   3.984   0.709 -0.3703 -0.2544  0.1941
    1SOL     OW 1757   3.128   4.227   0.823  0.5852  0.0883 -0.2818
    1SOL    HW2 1758   3.207   4.272   0.791  0.5392  0.9782  0.7973
    1SOL    HW3 1759   3.124   4.146   0.773  2.4137 -0.1549 -0.0716
    1SOL    MW4 1760   3.138   4.223   0.812  0.8202  0.1740 -0.1116
    1SOL     OW 1761   3.344   4.363   0.695 -0.3137  0.2605  0.2836
    1SOL    HW2 1762   3.357   4.448   0.737  0.3556  0.0077  0.5912
    1SOL    HW3 1763   3.401   4.366   0.617  0.5871 -0.3274  0.9017
    1SOL    MW4 1764   3.354   4.375   0.690 -0.1068  0.1493  0.4057
    1SOL     OW 1765   3.818   4.629   0.832  0.1499  0.2830  0.0667
    1SOL    HW2 1766   3.893   4.685   0.815  0.9391 -1.1752 -1.4418
    1SOL    HW3 1767   3.745   4.671   0.786  0.6739  0.2282 -0.8301
    1SOL    MW4 1768   3.818   4.642   0.824  0.3233  0.0834 -0.2506
    1SOL     OW 1769   3.601   0.105   0.719  0.1737 -0.0627  0.4410
    1SOL    HW2 1770   3.519   0.060   0.738 -0.0558  0.4207  0.5824
    1SOL    HW3 1771   3.594   0.131   0.627  0.9047 -1.5842 -0.0672
    1SOL    MW4 1772   3.590   0.102   0.709  0.2401 -0.1997  0.3926
    1SOL     OW 1773   3.583   0.361   0.860  0.1207 -0.2045 -0.0234
    1SOL    HW2 1774   3.590   0.356   0.955  0.9595 -0.1736 -0.0842
    1SOL    HW3 1775   3.585   0.270   0.831  0.6662 -0.1814 -0.0659
    1SOL    MW4 1776   3.584   0.348   0.869  0.3035 -0.1974 -0.0371
    1SOL     OW 1777   3.801   0.489   0.775  0.0213  0.3695  0.4665
    1SOL    HW2 1778   3.799   0.582   0.795  0.1474  0.7243 -1.1279
    1SOL    HW3 1779   3.718   0.456   0.809 -0.7044  1.3579 -0.3029
    1SOL    MW4 1780   3.790   0.497   0.782 -0.0582  0.5468  0.1546
    1SOL     OW 1781   3.808   0.762   0.823 -0.2526  0.1121 -0.0172
    1SOL    HW2 1782   3.800   0.772   0.918  0.5021 -0.2616  0.0895
    1SOL    HW3 1783   3.896   0.792   0.803 -0.6488  0.8550 -0.6995
    1SOL    MW4 1784   3.818   0.768   0.833 -0.2053  0.1609 -0.0932
    1SOL     OW 1785   3.607   0.923   0.702 -0.0405 -0.1458  0.0981
    1SOL    HW2 1786   3.690   0.883   0.726 -0.6119 -0.8704  0.9293
    1SOL    HW3 1787   3.541   0.873   0.751 -0.9258  0.6842 -0.2156
    1SOL    MW4 1788   3.609   0.911   0.712 -0.2327 -0.1318  0.1664
    1SOL     OW 1789   3.638   1.170   0.839 -0.9502 -0.1541  0.1656
    1SOL    HW2 1790   3.625   1.145   0.930 -0.8165 -2.1929 -0.3497
    1SOL    HW3 1791   3.632   1.088   0.790  1.7202  0.4995 -1.3763
    1SOL    MW4 1792   3.635   1.156   0.845 -0.5801 -0.3369 -0.1058
    1SOL     OW 1793   3.863   1.291   0.708 -0.0476  0.2670  0.6343
    1SOL    HW2 1794   3.779   1.253   0.730  1.1365 -3.0383 -0.2634
    1SOL    HW3 1795   3.869   1.283   0.613  1.4619  0.0141  0.7277
    1SOL    MW4 1796   3.853   1.285   0.698  0.3073 -0.2024  0.5282
    1SOL     OW 1797   3.865   1.509   0.878  0.4162  0.1067 -0.8761
    1SOL    HW2 1798   3.914   1.583   0.843 -0.1675  0.0897 -1.7261
    1SOL    HW3 1799   3.875   1.440   0.812  0.2259 -0.2868 -0.4975
    1SOL    MW4 1800   3.873   1.509   0.865  0.3142  0.0526 -0.9382
    1SOL     OW 1801   3.625   1.636   0.836  0.0177 -0.4369  0.4037
    1SOL    HW2 1802   3.640   1.714   0.890  0.4962  1.4731 -2.3934
    1SOL    HW3 1803   3.702   1.581   0.852  0.4970  0.4339  1.1323
    1SOL    MW4 1804   3.637   1.639   0.845  0.1438 -0.0700  0.1308
    1SOL     OW 1805   3.653   1.901   0.970 -0.3053 -0.2492 -0.2060
    1SOL    HW2 1806   3.741   1.918   0.939 -0.3890  0.2027 -0.1988
    1SOL    HW3 1807   3.597   1.956   0.916 -0.3780  1.1714  1.2745
    1SOL    MW4 1808   3.657   1.910   0.959 -0.3259 -0.0023 -0.0097
    1SOL     OW 1809   3.752   2.057   0.667 -0.1454 -0.1398  0.0987
    1SOL    HW2 1810   3.701   1.980   0.644 -0.2635 -0.0993  0.2197
    1SOL    HW3 1811   3.797   2.081   0.586  0.5795 -0.8513  0.2892
    1SOL    MW4 1812   3.751   2.050   0.653 -0.0653 -0.2282  0.1399
    1SOL     OW 1813   3.758   2.314   0.832 -0.0011  0.1653  0.2089
    1SOL    HW2 1814   3.783   2.318   0.924 -0.1026  0.1970  0.2358
    1SOL    HW3 1815   3.773   2.224   0.806  0.5243  0.2818  0.1152
    1SOL    MW4 1816   3.763   2.303   0.841  0.0551  0.1850  0.2001
    1SOL     OW 1817   3.721   2.558   0.673  0.0047 -0.0144  0.0470
    1SOL    HW2 1818   3.683   2.622   0.734 -1.0470 -0.5615 -0.0399
    1SOL    HW3 1819   3.721   2.476   0.721 -0.7285 -0.4262 -0.6577
    1SOL    MW4 1820   3.716   2.556   0.688 -0.2308 -0.1409 -0.0575
    1SOL     OW 1821   3.597   2.762   0.805 -0.0000  0.1999  0.8887
    1SOL    HW2 1822   3.585   2.736   0.896  0.2877  0.1801  0.9216
    1SOL    HW3 1823   3.651   2.841   0.809  0.7190 -0.2753  0.6953
    1SOL    MW4 1824   3.603   2.769   0.818  0.1328  0.1345  0.8675
    1SOL     OW 1825   3.942   2.778   0.602 -0.2474 -0.5171 -0.5619
    1SOL    HW2 1826   3.893   2.696   0.589  2.2178 -2.3703  1.1779
    1SOL    HW3 1827   3.988   2.792   0.520 -0.5708 -0.9607 -0.8229
    1SOL    MW4 1828   3.941   2.769   0.590  0.0350 -0.8202 -0.3668
    1SOL     OW 1829   3.782   3.010   0.844  0.0519 -0.3995 -0.4123
    1SOL    HW2 1830   3.858   3.041   0.795  0.1740  1.0722  0.6621
    1SOL    HW3 1831   3.712   3.071   0.820  0.3330  0.8605  1.8754
    1SOL    MW4 1832   3.782   3.022   0.834  0.1051 -0.0389  0.0312
    1SOL     OW 1833   3.600   3.226   0.794 -0.0984  0.0036 -0.6234
    1SOL    HW2 1834   3.519   3.188   0.828 -0.5396 -0.2673 -1.9537
    1SOL    HW3 1835   3.589   3.226   0.699  1.2461  0.4558 -0.7944
    1SOL    MW4 1836   3.588   3.221   0.786  0.0207  0.0274 -0.8215
    1SOL     OW 1837   3.617   3.490   0.856 -0.0689  0.1985 -0.3349
    1SOL    HW2 1838   3.602   3.398   0.833  1.1056  0.0451 -0.5326
    1SOL    HW3 1839   3.538   3.535   0.825 -1.1007 -0.8730  0.6607
    1SOL    MW4 1840   3.604   3.484   0.849 -0.0501  0.0367 -0.2296
    1SOL     OW 1841   3.840   3.604   0.757 -0.3563  0.1514  0.1799
    1SOL    HW2 1842   3.910   3.542   0.775  0.1233  0.6128 -0.0733
    1SOL    HW3 1843   3.762   3.566   0.797  0.2600  0.1596  1.3883
    1SOL    MW4 1844   3.839   3.591   0.765 -0.2117  0.2134  0.3060
    1SOL     OW 1845   3.813   3.873   0.870  0.0878  0.6288  0.2568
    1SOL    HW2 1846   3.740   3.913   0.822 -0.4169 -1.2697 -0.5942
    1SOL    HW3 1847   3.827   3.789   0.827  1.2667 -0.0364  1.8918
    1SOL    MW4 1848   3.805   3.867   0.858  0.1769  0.2906  0.3602
    1SOL     OW 1849   3.611   3.966   0.719  0.1240 -0.5792 -0.2377
    1SOL    HW2 1850   3.601   4.059   0.740 -0.0567 -0.2764 -1.6338
    1SOL    HW3 1851   3.652   3.965   0.633 -0.1695 -1.7986 -0.3708
    1SOL    MW4 1852   3.615   3.978   0.710  0.0615 -0.7005 -0.4395
    1SOL     OW 1853   3.589   4.220   0.832  0.1853  0.4377 -0.0915
    1SOL    HW2 1854   3.659   4.276   0.797 -0.2799  1.6716  0.9556
    1SOL    HW3 1855   3.508   4.258   0.798 -0.2943  1.7391  2.3763
    1SOL    MW4 1856   3.588   4.232   0.823  0.0606  0.7720  0.3722
    1SOL     OW 1857   3.813   4.365   0.772  0.4659 -0.1108  0.3119
    1SOL    HW2 1858   3.876   4.313   0.821  0.9128  0.0759 -0.0681
    1SOL    HW3 1859   3.835   4.456   0.794  0.2785 -0.0481  0.2413
    1SOL    MW4 1860   3.824   4.371   0.781  0.5000 -0.0772  0.2524
    1SOL     OW 1861   4.262   4.651   0.849 -0.4648  0.0156 -0.1222
    1SOL    HW2 1862   4.267   4.661   0.944  1.0163  1.4104 -0.3302
    1SOL    HW3 1863   4.191   4.710   0.822 -1.5325 -1.0915  0.1892
    1SOL    MW4 1864   4.253   4.660   0.858 -0.4101  0.0534 -0.1087
    1SOL     OW 1865   4.027   0.130   0.766 -0.7059 -0.5423  0.0318
    1SOL    HW2 1866   4.030   0.218   0.803  3.3136 -0.0460 -1.1683
    1SOL    HW3 1867   3.994   0.141   0.677 -0.1610 -0.2323 -0.1316
    1SOL    MW4 1868   4.023   0.143   0.759 -0.1035 -0.4359 -0.1481
    1SOL     OW 1869   4.067   0.398   0.871  0.0392 -0.1908  0.6987
    1SOL    HW2 1870   4.153   0.423   0.838 -0.6527 -0.1433 -1.1028
    1SOL    HW3 1871   4.006   0.454   0.823 -1.1977 -2.2258 -0.1062
    1SOL    MW4 1872   4.070   0.409   0.860 -0.2151 -0.4531  0.3548
    1SOL     OW 1873   4.316   0.459   0.783 -0.1322 -0.1580 -0.4561
    1SOL    HW2 1874   4.394   0.416   0.818 -0.3722  0.0297  0.3275
    1SOL    HW3 1875   4.341   0.487   0.696  0.5628 -0.4193 -0.3435
    1SOL    MW4 1876   4.330   0.457   0.776 -0.0720 -0.1678 -0.3378
    1SOL     OW 1877   4.255   0.717   0.880  0.1914 -0.3571  0.2966
    1SOL    HW2 1878   4.181   0.734   0.822  1.5356  2.1601 -0.7457
    1SOL    HW3 1879   4.277   0.625   0.864 -0.9542 -0.3532 -1.4079
    1SOL    MW4 1880   4.248   0.707   0.870  0.2174 -0.0245 -0.0658
    1SOL     OW 1881   4.065   0.837   0.733  0.3182  0.0164  0.4943
    1SOL    HW2 1882   4.074   0.932   0.749 -0.6913  0.1699  0.1929
    1SOL    HW3 1883   4.048   0.830   0.639  0.1666 -0.4422  0.5570
    1SOL    MW4 1884   4.064   0.849   0.723  0.1650 -0.0239  0.4628
    1SOL     OW 1885   4.034   1.109   0.816 -0.2892  0.2399 -0.1319
    1SOL    HW2 1886   4.021   1.115   0.911 -0.5230 -0.1030 -0.1362
    1SOL    HW3 1887   3.973   1.173   0.779 -1.2371 -0.6296 -0.1048
    1SOL    MW4 1888   4.024   1.118   0.824 -0.4458  0.0798 -0.1288
    1SOL     OW 1889   4.253   1.254   0.762 -0.3105 -0.1774 -0.1336
    1SOL    HW2 1890   4.176   1.216   0.804  1.0260 -0.9131  1.6910
    1SOL    HW3 1891   4.323   1.190   0.775  0.5518  0.2970 -2.1022
    1SOL    MW4 1892   4.252   1.241   0.769 -0.0200 -0.2120 -0.1526
    1SOL     OW 1893   4.255   1.514   0.866  0.8014 -0.2014 -0.1847
    1SOL    HW2 1894   4.266   1.507   0.961  0.8651 -1.0393 -0.2528
    1SOL    HW3 1895   4.260   1.424   0.835  1.8944  0.1762 -1.1104
    1SOL    MW4 1896   4.257   1.502   0.875  0.9542 -0.2621 -0.3158
    1SOL     OW 1897   4.056   1.683   0.783  0.1846  0.6790  0.0282
    1SOL    HW2 1898   4.118   1.621   0.821  0.2273 -0.8779 -2.4922
    1SOL    HW3 1899   4.105   1.726   0.713 -0.6475  1.6836  0.0476
    1SOL    MW4 1900   4.071   1.681   0.779  0.0806  0.6061 -0.3018
    1SOL     OW 1901   3.915   1.940   0.871  0.2686 -0.1639  0.1086
    1SOL    HW2 1902   3.876   1.968   0.788 -1.9044 -0.6630  0.9030
    1SOL    HW3 1903   3.944   1.851   0.856 -0.4711 -0.3862 -0.0174
    1SOL    MW4 1904   3.913   1.932   0.858 -0.1159 -0.2590  0.1968
    1SOL     OW 1905   4.277   2.080   0.684 -0.0763 -0.4393  0.1605
    1SOL    HW2 1906   4.352   2.061   0.740 -1.1955 -0.2424  1.7802
    1SOL    HW3 1907   4.315   2.105   0.600  1.6235 -1.7938  0.4971
    1SOL    MW4 1908   4.292   2.081   0.680  0.0000 -0.5920  0.4185
    1SOL     OW 1909   4.240   2.296   0.839 -0.2372  0.1610  0.1586
    1SOL    HW2 1910   4.172   2.353   0.804 -0.8728  0.6374  2.1224
    1SOL    HW3 1911   4.236   2.217   0.784 -1.8955  0.4602 -0.1773
    1SOL    MW4 1912   4.231   2.293   0.827 -0.5398  0.2635  0.3734
    1SOL     OW 1913   4.031   2.443   0.736  0.4280  0.4065  1.0071
    1SOL    HW2 1914   4.023   2.533   0.768 -1.0043  1.1114 -1.2193
    1SOL    HW3 1915   3.955   2.397   0.772  0.4599  0.4252  1.0977
    1SOL    MW4 1916   4.020   2.449   0.745  0.2427  0.5019  0.7253
    1SOL     OW 1917   4.069   2.704   0.853  0.4440  0.2360 -0.5717
    1SOL    HW2 1918   4.152   2.747   0.831  0.0271  1.2978 -0.1068
    1SOL    HW3 1919   4.004   2.746   0.796  0.3413 -1.1564 -1.5163
    1SOL    MW4 1920   4.071   2.716   0.843  0.3757  0.1924 -0.6350
    1SOL     OW 1921   4.289   2.856   0.779 -0.0481  0.5605 -0.4373
    1SOL    HW2 1922   4.356   2.788   0.785 -0.3386  0.1944 -1.2616
    1SOL    HW3 1923   4.291   2.883   0.687 -1.2630  0.3146 -0.5429
    1SOL    MW4 1924   4.298   2.851   0.767 -0.2470  0.4799 -0.5600
    1SOL     OW 1925   4.295   3.114   0.855  0.3057  0.4376 -0.4614
    1SOL    HW2 1926   4.278   3.022   0.835  1.7723  0.2886 -1.1063
    1SOL    HW3 1927   4.366   3.139   0.795 -0.4891  2.1601 -0.7209
    1SOL    MW4 1928   4.302   3.105   0.844  0.3948  0.6452 -0.5807
    1SOL     OW 1929   4.051   3.144   0.703  0.3748 -0.0619  0.2667
    1SOL    HW2 1930   4.021   3.223   0.747  1.1014  0.4465 -0.1495
    1SOL    HW3 1931   4.138   3.127   0.740  1.0351  0.4171 -1.0051
    1SOL    MW4 1932   4.059   3.152   0.714  0.5579  0.0684  0.0440
    1SOL     OW 1933   4.023   3.408   0.823  0.3280 -0.1055  0.3015
    1SOL    HW2 1934   4.004   3.435   0.913 -0.6969 -0.1792  0.1149
    1SOL    HW3 1935   4.103   3.455   0.800 -0.2798  1.1439  0.7044
    1SOL    MW4 1936   4.031   3.418   0.832  0.1130  0.0496  0.3300
    1SOL     OW 1937   4.261   3.546   0.750  0.0435  0.2439  0.1635
    1SOL    HW2 1938   4.253   3.637   0.780 -0.5716  0.6025 -1.0540
    1SOL    HW3 1939   4.273   3.554   0.655 -0.4482 -0.9739  0.0015
    1SOL    MW4 1940   4.262   3.559   0.742 -0.1030  0.1304 -0.0185
    1SOL     OW 1941   4.265   3.797   0.879 -0.0383 -0.0336 -0.0407
    1SOL    HW2 1942   4.261   3.811   0.974  0.3691  0.5222 -0.1033
    1SOL    HW3 1943   4.196   3.853   0.844  1.2105  1.4047 -0.2428
    1SOL    MW4 1944   4.255   3.806   0.887  0.1802  0.2294 -0.0756
    1SOL     OW 1945   4.058   3.957   0.788 -0.0805 -0.1638 -0.5220
    1SOL    HW2 1946   3.968   3.933   0.810  0.2162 -1.8566 -1.1039
    1SOL    HW3 1947   4.060   3.955   0.692  0.3419  0.7661 -0.5366
    1SOL    MW4 1948   4.047   3.953   0.778  0.0143 -0.2646 -0.6007
    1SOL     OW 1949   4.014   4.213   0.883 -0.2041 -0.3653 -0.1010
    1SOL    HW2 1950   4.083   4.267   0.845 -1.7446 -0.8386 -3.6902
    1SOL    HW3 1951   4.040   4.123   0.863 -1.5535 -0.5763 -0.8910
    1SOL    MW4 1952   4.027   4.208   0.876 -0.5856 -0.4559 -0.6788
    1SOL     OW 1953   4.249   4.373   0.789 -0.1283 -0.2281 -0.3336
    1SOL    HW2 1954   4.268   4.466   0.803 -2.0184  0.1620 -0.2966
    1SOL    HW3 1955   4.335   4.331   0.790  0.8860  1.7554 -2.2554
    1SOL    MW4 1956   4.263   4.380   0.791 -0.2441  0.0854 -0.5823
    1SOL     OW 1957   0.247   4.654   1.140 -0.1959  0.0500  0.0618
    1SOL    HW2 1958   0.331   4.692   1.166 -0.2687  0.2138  0.0606
    1SOL    HW3 1959   0.251   4.651   1.044  0.4970 -1.5269  0.1238
    1SOL    MW4 1960   0.259   4.659   1.130 -0.1141 -0.1354  0.0699
    1SOL     OW 1961   0.037   0.095   1.269 -0.1027 -0.0307 -0.4579
    1SOL    HW2 1962  -0.038   0.079   1.212 -0.8251 -0.6399  0.6528
    1SOL    HW3 1963   0.111   0.058   1.222 -0.5114  0.4202 -1.4807
    1SOL    MW4 1964   0.037   0.088   1.256 -0.2520 -0.0516 -0.4464
    1SOL     OW 1965   0.044   0.355   1.187 -0.1445  0.2888  0.0270
    1SOL    HW2 1966  -0.036   0.395   1.220 -1.0330  0.0931 -1.8273
    1SOL    HW3 1967   0.049   0.271   1.231 -0.3497  0.7904  1.0091
    1SOL    MW4 1968   0.034   0.349   1.197 -0.2888  0.3292 -0.0882
    1SOL     OW 1969   0.271   0.508   1.219 -0.0569 -0.4388 -0.3054
    1SOL    HW2 1970   0.274   0.579   1.156  0.9698  0.4992  0.7878
    1SOL    HW3 1971   0.193   0.458   1.195 -0.9111  1.1781 -0.9233
    1SOL    MW4 1972   0.261   0.510   1.207 -0.0342 -0.1017 -0.2427
    1SOL     OW 1973   0.261   0.739   1.074 -0.3112  0.3805 -0.0835
    1SOL    HW2 1974   0.347   0.777   1.094 -0.5376  0.7697  0.1659
    1SOL    HW3 1975   0.201   0.784   1.133 -0.6701  0.0197 -0.1713
    1SOL    MW4 1976   0.264   0.750   1.084 -0.3884  0.3843 -0.0621
    1SOL     OW 1977   0.056   0.868   1.227  0.3694 -0.5002 -0.0141
    1SOL    HW2 1978   0.068   0.878   1.321 -1.2541  0.1284  0.1266
    1SOL    HW3 1979  -0.023   0.815   1.218 -1.6810  2.6159 -1.0523
    1SOL    MW4 1980   0.047   0.862   1.238 -0.1154 -0.0062 -0.1324
    1SOL     OW 1981   0.002   1.099   1.109  0.4359 -0.2065  0.2180
    1SOL    HW2 1982  -0.079   1.130   1.149 -0.0043 -0.6259 -0.3380
    1SOL    HW3 1983   0.016   1.012   1.147 -0.5428 -1.0541 -1.2795
    1SOL    MW4 1984  -0.007   1.092   1.119  0.2489 -0.3737 -0.0529
    1SOL     OW 1985   0.213   1.231   1.221 -0.0132  0.0188 -0.0182
    1SOL    HW2 1986   0.284   1.195   1.168 -0.1594 -0.6092  0.2034
    1SOL    HW3 1987   0.135   1.184   1.191 -0.2177  0.2027  0.2255
    1SOL    MW4 1988   0.212   1.220   1.210 -0.0595 -0.0398  0.0432
    1SOL     OW 1989   0.198   1.506   1.124 -0.0712 -0.4205 -0.1572
    1SOL    HW2 1990   0.208   1.411   1.134 -0.1390 -0.5509 -1.2296
    1SOL    HW3 1991   0.187   1.519   1.030 -2.2191  0.4406  0.1687
    1SOL    MW4 1992   0.198   1.495   1.113 -0.3635 -0.3240 -0.2558
    1SOL     OW 1993   4.479   1.659   1.232 -0.0459 -0.5513  0.1131
    1SOL    HW2 1994   4.470   1.747   1.196  0.1291 -0.5002  0.1920
    1SOL    HW3 1995   4.550   1.619   1.182 -0.9476 -1.0807 -0.7588
    1SOL    MW4 1996   4.488   1.665   1.221 -0.1416 -0.6144  0.0083
    1SOL     OW 1997   4.488   1.917   1.124  0.5023 -0.3432 -0.0671
    1SOL    HW2 1998   4.421   1.970   1.167 -0.4946 -1.1271 -0.6093
    1SOL    HW3 1999   4.461   1.917   1.032  1.2381 -0.6976 -0.2795
    1SOL    MW4 2000   4.475   1.924   1.117  0.4678 -0.4934 -0.1665
    1SOL     OW 2001   0.221   2.050   1.224  0.2172 -0.7276 -0.2944
    1SOL    HW2 2002   0.229   2.139   1.191  0.4218 -0.5040  0.3654
    1SOL    HW3 2003   0.142   2.016   1.181 -0.6162  0.2069  0.4641
    1SOL    MW4 2004   0.212   2.057   1.214  0.1342 -0.5746 -0.1073
    1SOL     OW 2005   0.249   2.305   1.100  0.3484 -0.0544 -0.5057
    1SOL    HW2 2006   0.331   2.331   1.143 -0.3477 -0.4887  1.1539
    1SOL    HW3 2007   0.182   2.360   1.141 -0.4775 -1.1776 -0.3114
    1SOL    MW4 2008   0.251   2.315   1.111  0.1476 -0.2601 -0.2611
    1SOL     OW 2009   0.031   2.431   1.199  0.2648 -0.0445 -0.0398
    1SOL    HW2 2010   0.037   2.452   1.292  1.2267 -1.1199  0.1529
    1SOL    HW3 2011  -0.047   2.377   1.192  0.5640 -0.5219  0.2584
    1SOL    MW4 2012   0.022   2.426   1.210  0.4312 -0.2491  0.0249
    1SOL     OW 2013   0.069   2.691   1.068 -0.0940 -0.0751  0.2583
    1SOL    HW2 2014   0.001   2.745   1.108 -1.1735 -1.8016  0.8181
    1SOL    HW3 2015   0.061   2.606   1.112  3.0119 -0.0727  0.9630
    1SOL    MW4 2016   0.059   2.687   1.079  0.1734 -0.3023  0.4251
    1SOL     OW 2017   0.273   2.843   1.215 -0.3985  0.4332 -0.1089
    1SOL    HW2 2018   0.249   2.830   1.306  0.4508  0.5832  0.1436
    1SOL    HW3 2019   0.203   2.801   1.165 -0.6794  0.0392  0.6104
    1SOL    MW4 2020   0.260   2.836   1.220 -0.3235  0.4008  0.0194
    1SOL     OW 2021   0.255   3.085   1.092 -0.6318  0.1420 -0.1722
    1SOL    HW2 2022   0.303   3.153   1.140  1.1557 -0.0237 -1.6733
    1SOL    HW3 2023   0.282   3.003   1.134 -0.2285  0.1142 -0.4817
    1SOL    MW4 2024   0.265   3.083   1.104 -0.3428  0.1163 -0.4113
    1SOL     OW 2025   0.037   3.215   1.188  0.0054  0.3998 -0.4139
    1SOL    HW2 2026  -0.045   3.175   1.159 -0.4358  1.8281 -1.1891
    1SOL    HW3 2027   0.105   3.163   1.147 -0.4547 -1.6673  1.3540
    1SOL    MW4 2028   0.035   3.203   1.179 -0.1135  0.3152 -0.2830
    1SOL     OW 2029   4.485   3.472   1.114  0.4134  0.2604 -0.0011
    1SOL    HW2 2030   4.490   3.381   1.144  0.0246 -0.1077 -1.0139
    1SOL    HW3 2031   4.486   3.466   1.018 -1.1789  1.2208 -0.0961
    1SOL    MW4 2032   4.486   3.459   1.105  0.1520  0.3386 -0.1473
    1SOL     OW 2033   0.199   3.628   1.206 -0.5032 -0.4642  0.0949
    1SOL    HW2 2034   0.217   3.615   1.300  0.1755 -0.6536 -0.0610
    1SOL    HW3 2035   0.125   3.570   1.188  0.9269 -2.2964 -0.0386
    1SOL    MW4 2036   0.192   3.619   1.216 -0.2249 -0.7310  0.0566
    1SOL     OW 2037   0.198   3.869   1.069  0.5430  0.1422  0.2206
    1SOL    HW2 2038   0.133   3.929   1.106 -0.1289  0.2450 -1.0845
    1SOL    HW3 2039   0.191   3.790   1.122 -0.0943  0.4500  0.5994
    1SOL    MW4 2040   0.188   3.866   1.081  0.3703  0.1967  0.0985
    1SOL     OW 2041   4.473   4.008   1.184 -0.4185 -0.1192 -0.0081
    1SOL    HW2 2042   4.474   4.008   1.280 -1.2479  1.0487  0.0107
    1SOL    HW3 2043   4.395   3.957   1.161  1.0366 -2.3499 -0.1042
    1SOL    MW4 2044   4.463   4.001   1.194 -0.3362 -0.2594 -0.0185
    1SOL     OW 2045   4.469   4.271   1.111 -0.0790  0.1068  0.0701
    1SOL    HW2 2046   4.558   4.289   1.142  0.8513 -0.9455 -1.9213
    1SOL    HW3 2047   4.457   4.178   1.126  0.1184 -0.2712 -2.0018
    1SOL    MW4 2048   4.479   4.261   1.117  0.0701 -0.0820 -0.4660
    1SOL     OW 2049   0.218   4.381   1.214 -0.0558 -0.0391  0.1119
    1SOL    HW2 2050   0.230   4.379   1.309  1.0235  1.5811  0.0246
    1SOL    HW3 2051   0.225   4.473   1.190 -1.7639 -0.2709 -1.3837
    1SOL    MW4 2052   0.221   4.393   1.224 -0.1387  0.1445 -0.0969
    1SOL     OW 2053   0.713   4.657   1.136  0.2793 -0.4298 -0.4149
    1SOL    HW2 2054   0.789   4.703   1.173 -0.2511  0.1210 -0.0168
    1SOL    HW3 2055   0.700   4.582   1.195 -0.5172  0.4041  0.4833
    1SOL    MW4 2056   0.722   4.653   1.149  0.1042 -0.2471 -0.2439
    1SOL     OW 2057   0.485   0.112   1.234 -0.0365 -0.3444 -0.2231
    1SOL    HW2 2058   0.489   0.199   1.195  0.6824  0.1808  1.0031
    1SOL    HW3 2059   0.560   0.066   1.197  0.3568 -0.0090  0.1559
    1SOL    MW4 2060   0.495   0.117   1.224  0.1103 -0.2309 -0.0113
    1SOL     OW 2061   0.471   0.364   1.124 -0.5790 -0.2168 -0.1278
    1SOL    HW2 2062   0.390   0.409   1.149 -0.1545 -0.1220  1.1400
    1SOL    HW3 2063   0.469   0.362   1.028 -1.1700  1.4916 -0.1818
    1SOL    MW4 2064   0.460   0.370   1.115 -0.6009  0.0211  0.0324
    1SOL     OW 2065   0.688   0.514   1.203 -0.5035 -0.2997  0.2097
    1SOL    HW2 2066   0.680   0.602   1.165 -0.3612  0.5560  2.1107
    1SOL    HW3 2067   0.606   0.470   1.178 -1.3187  0.9342  0.6531
    1SOL    MW4 2068   0.676   0.520   1.195 -0.5922 -0.0240  0.5190
    1SOL     OW 2069   0.689   0.785   1.125  0.2123 -0.1556  0.4775
    1SOL    HW2 2070   0.618   0.841   1.155  1.0311  0.5165  1.1767
    1SOL    HW3 2071   0.681   0.786   1.029 -1.1659 -0.6931  0.5794
    1SOL    MW4 2072   0.678   0.793   1.116  0.1385 -0.1379  0.5832
    1SOL     OW 2073   0.460   0.893   1.214 -0.0143 -0.2736 -0.0501
    1SOL    HW2 2074   0.468   0.908   1.308 -0.2228  1.2010 -0.2682
    1SOL    HW3 2075   0.450   0.980   1.175 -2.0557 -1.0018 -1.2551
    1SOL    MW4 2076   0.460   0.906   1.221 -0.3112 -0.1751 -0.2378
    1SOL     OW 2077   0.449   1.143   1.067  0.1205 -0.2740  0.2972
    1SOL    HW2 2078   0.525   1.184   1.109 -1.4746  2.0313  1.0121
    1SOL    HW3 2079   0.465   1.154   0.973  1.5455 -1.5123  0.3562
    1SOL    MW4 2080   0.461   1.149   1.060  0.0981 -0.1332  0.3994
    1SOL     OW 2081   0.673   1.262   1.186  0.0832  0.2456 -0.1796
    1SOL    HW2 2082   0.750   1.226   1.142  0.5979  0.5655  0.4546
    1SOL    HW3 2083   0.663   1.350   1.149  1.1483  0.9193  1.0970
    1SOL    MW4 2084   0.682   1.269   1.176  0.2916  0.3768  0.0725
    1SOL     OW 2085   0.665   1.520   1.100  0.0436 -0.4931 -0.2830
    1SOL    HW2 2086   0.734   1.574   1.139  0.4087 -0.6067 -0.7615
    1SOL    HW3 2087   0.586   1.543   1.149  0.0766  0.8975 -0.8532
    1SOL    MW4 2088   0.664   1.530   1.112  0.0960 -0.3247 -0.4215
    1SOL     OW 2089   0.434   1.638   1.186 -0.2733  0.0995  0.3388
    1SOL    HW2 2090   0.429   1.669   1.276 -2.0216 -0.1018  0.3299
    1SOL    HW3 2091   0.347   1.604   1.167  0.1010  0.0362 -1.3969
    1SOL    MW4 2092   0.422   1.637   1.195 -0.4546  0.0647  0.1085
    1SOL     OW 2093   0.453   1.906   1.144  0.1355 -0.0213 -0.0383
    1SOL    HW2 2094   0.436   1.813   1.155  2.2879 -0.5885 -1.2260
    1SOL    HW3 2095   0.378   1.949   1.184 -0.4727 -2.2473  1.2871
    1SOL    MW4 2096   0.441   1.900   1.151  0.3393 -0.3898 -0.0201
    1SOL     OW 2097   0.692   2.032   1.208 -0.1573  0.3424  0.3410
    1SOL    HW2 2098   0.696   2.030   1.304 -1.9939 -1.4168  0.4332
    1SOL    HW3 2099   0.618   1.974   1.187  1.3728 -0.7662 -2.2022
    1SOL    MW4 2100   0.682   2.024   1.218 -0.1978 -0.0358  0.0175
    1SOL     OW 2101   0.717   2.287   1.119 -0.1282 -0.5873 -0.3099
    1SOL    HW2 2102   0.649   2.328   1.172  0.0760  0.3655 -0.7687
    1SOL    HW3 2103   0.711   2.194   1.140 -0.7773 -0.3602  0.5458
    1SOL    MW4 2104   0.707   2.280   1.128 -0.1869 -0.4318 -0.2575
    1SOL     OW 2105   0.485   2.398   1.211  0.0191  0.3606  0.6292
    1SOL    HW2 2106   0.458   2.401   1.302  0.4751 -1.2010  0.8404
    1SOL    HW3 2107   0.487   2.489   1.183 -4.4171  0.6155  0.8636
    1SOL    MW4 2108   0.482   2.410   1.219 -0.5060  0.1881  0.6880
    1SOL     OW 2109   0.487   2.667   1.151 -0.0075 -0.0388  0.1867
    1SOL    HW2 2110   0.411   2.714   1.184  0.6286  0.8662  0.3985
    1SOL    HW3 2111   0.484   2.682   1.056  0.7279  1.2556  0.3594
    1SOL    MW4 2112   0.477   2.676   1.143  0.1735  0.2515  0.2373
    1SOL     OW 2113   0.671   2.848   1.246 -0.0827 -0.1534  0.3754
    1SOL    HW2 2114   0.658   2.933   1.203 -1.5483  1.0063  3.0042
    1SOL    HW3 2115   0.603   2.792   1.210 -0.9616  0.6510  0.7686
    1SOL    MW4 2116   0.661   2.852   1.235 -0.3920  0.1059  0.7743
    1SOL     OW 2117   0.661   3.086   1.077 -0.0151  0.0675 -0.0494
    1SOL    HW2 2118   0.750   3.103   1.107 -0.1263  0.7305 -0.0824
    1SOL    HW3 2119   0.665   3.098   0.982 -0.0053 -0.5061 -0.1226
    1SOL    MW4 2120   0.673   3.090   1.068 -0.0285  0.0794 -0.0633
    1SOL     OW 2121   0.448   3.256   1.219  0.2512  0.3659 -0.5294
    1SOL    HW2 2122   0.450   3.346   1.185  0.9944  0.3599 -0.5208
    1SOL    HW3 2123   0.527   3.216   1.184  0.3437 -0.0377  0.1277
    1SOL    MW4 2124   0.459   3.263   1.210  0.3614  0.3119 -0.4417
    1SOL     OW 2125   0.474   3.527   1.155 -0.4137  0.1400  0.0543
    1SOL    HW2 2126   0.544   3.577   1.197 -0.8622  1.5497 -0.8421
    1SOL    HW3 2127   0.393   3.570   1.183 -0.7835  0.1981 -1.0615
    1SOL    MW4 2128   0.473   3.540   1.164 -0.5217  0.3338 -0.2111
    1SOL     OW 2129   0.707   3.656   1.224 -0.1623  0.0398 -0.0478
    1SOL    HW2 2130   0.725   3.643   1.317  0.6463  1.1207 -0.0452
    1SOL    HW3 2131   0.680   3.748   1.218  0.1422  0.0739 -0.9349
    1SOL    MW4 2132   0.706   3.666   1.236 -0.0155  0.1869 -0.1645
    1SOL     OW 2133   0.651   3.920   1.169 -0.0377 -0.7550  0.0794
    1SOL    HW2 2134   0.564   3.957   1.179 -0.0772 -0.7909 -0.1243
    1SOL    HW3 2135   0.661   3.907   1.075  1.2055  1.6937 -0.1635
    1SOL    MW4 2136   0.641   3.923   1.158  0.1211 -0.4368  0.0204
    1SOL     OW 2137   0.412   4.031   1.213 -0.3522  0.1680  0.0359
    1SOL    HW2 2138   0.417   4.124   1.192  0.5157  0.4960  1.5540
    1SOL    HW3 2139   0.344   3.997   1.156  0.1956  1.4778 -1.4320
    1SOL    MW4 2140   0.404   4.039   1.203 -0.1655  0.3839  0.0424
    1SOL     OW 2141   0.444   4.297   1.112 -0.1086  0.1795  0.1039
    1SOL    HW2 2142   0.515   4.332   1.165  0.6409  0.5985 -1.1414
    1SOL    HW3 2143   0.364   4.333   1.150  0.3207 -0.3633  1.5744
    1SOL    MW4 2144   0.443   4.306   1.124  0.0469  0.1636  0.1336
    1SOL     OW 2145   0.660   4.400   1.250 -0.5202 -0.0417  0.8817
    1SOL    HW2 2146   0.665   4.377   1.342 -0.5102 -0.4542  0.7781
    1SOL    HW3 2147   0.737   4.359   1.210  0.6364  1.8912  1.0592
    1SOL    MW4 2148   0.671   4.391   1.257 -0.3663  0.1588  0.8916
    1SOL     OW 2149   1.138   0.011   1.140  0.0859 -0.1199  0.3515
    1SOL    HW2 2150   1.135  -0.078   1.175 -0.9615 -0.3615 -0.3421
    1SOL    HW3 2151   1.121   0.001   1.046  0.6777  0.7398  0.1504
    1SOL    MW4 2152   1.135  -0.002   1.132  0.0256 -0.0384  0.2333
    1SOL     OW 2153   0.917   0.149   1.204  0.0653  0.1209 -0.2708
    1SOL    HW2 2154   0.898   0.140   1.298 -1.3661  0.7362 -0.4934
    1SOL    HW3 2155   0.995   0.096   1.191 -0.5704 -1.1795  1.0003
    1SOL    MW4 2156   0.925   0.141   1.215 -0.2074  0.0305 -0.1324
    1SOL     OW 2157   0.903   0.388   1.070  0.6139 -0.0585 -0.1921
    1SOL    HW2 2158   0.911   0.301   1.109 -0.6225 -0.7122 -1.3544
    1SOL    HW3 2159   0.828   0.427   1.116  0.4513 -0.0450 -0.4689
    1SOL    MW4 2160   0.894   0.382   1.081  0.4294 -0.1429 -0.3819
    1SOL     OW 2161   1.119   0.516   1.188  0.2691  0.8140  0.0449
    1SOL    HW2 2162   1.114   0.497   1.282 -0.0821  1.2718  0.1182
    1SOL    HW3 2163   1.041   0.476   1.151  0.2575  0.8838 -0.0064
    1SOL    MW4 2164   1.108   0.508   1.196  0.2213  0.8836  0.0478
    1SOL     OW 2165   1.139   0.769   1.064 -0.0032 -0.1728 -0.2668
    1SOL    HW2 2166   1.063   0.820   1.090 -0.8888 -1.0701 -1.0830
    1SOL    HW3 2167   1.131   0.686   1.111  0.2605 -0.4155 -0.6419
    1SOL    MW4 2168   1.128   0.765   1.073 -0.0851 -0.3232 -0.4239
    1SOL     OW 2169   0.931   0.907   1.179 -0.0266  0.0041 -0.0196
    1SOL    HW2 2170   0.915   0.982   1.121  0.4281 -0.4681 -0.7716
    1SOL    HW3 2171   0.857   0.849   1.163 -0.7992  0.6429  1.1590
    1SOL    MW4 2172   0.919   0.909   1.169 -0.0685  0.0260  0.0366
    1SOL     OW 2173   0.894   1.155   1.066 -0.2128 -0.3481  0.1612
    1SOL    HW2 2174   0.953   1.213   1.114 -0.2520 -0.0156 -0.1885
    1SOL    HW3 2175   0.907   1.178   0.974 -1.8529  0.6619  0.1571
    1SOL    MW4 2176   0.903   1.165   1.060 -0.4343 -0.1709  0.1146
    1SOL     OW 2177   1.082   1.288   1.201 -0.2550 -0.1867 -0.1910
    1SOL    HW2 2178   1.085   1.279   1.296 -0.0607 -0.0685 -0.1860
    1SOL    HW3 2179   1.159   1.240   1.170  0.1637  0.5081 -0.2347
    1SOL    MW4 2180   1.093   1.280   1.210 -0.1742 -0.0794 -0.1960
    1SOL     OW 2181   1.112   1.539   1.130 -0.0902 -0.2141 -0.2935
    1SOL    HW2 2182   1.103   1.448   1.157  0.3266 -0.3533 -0.6173
    1SOL    HW3 2183   1.123   1.535   1.035 -1.9068  0.3012 -0.5288
    1SOL    MW4 2184   1.112   1.526   1.121 -0.2750 -0.1644 -0.3672
    1SOL     OW 2185   0.877   1.680   1.188  0.1926 -0.3368 -0.3836
    1SOL    HW2 2186   0.899   1.772   1.175  1.1197 -0.5006 -0.0088
    1SOL    HW3 2187   0.959   1.633   1.172 -0.1822 -1.0596 -0.1969
    1SOL    MW4 2188   0.891   1.686   1.184  0.2654 -0.4538 -0.3095
    1SOL     OW 2189   0.947   1.940   1.128 -0.0803  0.0989  0.3375
    1SOL    HW2 2190   1.014   1.989   1.175 -1.2276  0.4909  1.5888
    1SOL    HW3 2191   0.864   1.971   1.164 -1.0477  0.9693 -2.5005
    1SOL    MW4 2192   0.945   1.950   1.139 -0.3593  0.2655  0.1283
    1SOL     OW 2193   1.133   2.104   1.240 -0.0653 -0.5666  0.1748
    1SOL    HW2 2194   1.139   2.105   1.335  1.9447 -0.3268  0.0754
    1SOL    HW3 2195   1.137   2.197   1.215  0.9599 -0.7040 -0.2032
    1SOL    MW4 2196   1.134   2.116   1.249  0.3350 -0.5531  0.1118
    1SOL     OW 2197   1.138   2.358   1.141  0.1742  0.5231  0.2970
    1SOL    HW2 2198   1.201   2.427   1.159 -1.0621  1.2779  1.8218
    1SOL    HW3 2199   1.053   2.399   1.154 -0.6189 -0.7273 -0.8551
    1SOL    MW4 2200   1.135   2.372   1.145 -0.0936  0.4580  0.3462
    1SOL     OW 2201   0.900   2.477   1.205  0.2277 -0.3410  0.0533
    1SOL    HW2 2202   0.906   2.455   1.297 -1.7483  0.1003  0.3177
    1SOL    HW3 2203   0.827   2.423   1.172 -2.5159  3.2141 -0.0342
    1SOL    MW4 2204   0.891   2.467   1.213 -0.3950  0.1862  0.0767
    1SOL     OW 2205   0.893   2.750   1.124 -0.2883 -0.4127  0.2618
    1SOL    HW2 2206   0.902   2.661   1.158 -0.4039 -0.7156 -0.4896
    1SOL    HW3 2207   0.811   2.782   1.162 -0.1584 -0.5643  0.6701
    1SOL    MW4 2208   0.884   2.743   1.133 -0.2864 -0.4728  0.2165
    1SOL     OW 2209   1.081   2.920   1.254  0.4122  0.2019 -0.0991
    1SOL    HW2 2210   1.090   2.885   1.342 -0.7183  0.2629  0.0418
    1SOL    HW3 2211   1.008   2.871   1.216  0.8882  0.1778 -1.0045
    1SOL    MW4 2212   1.072   2.909   1.260  0.3258  0.2069 -0.1999
    1SOL     OW 2213   1.163   3.143   1.099 -0.0585 -0.3029  0.0274
    1SOL    HW2 2214   1.142   3.066   1.152  0.0056  0.0648  0.5940
    1SOL    HW3 2215   1.145   3.116   1.009  0.5432 -1.1760  0.1651
    1SOL    MW4 2216   1.158   3.129   1.094  0.0294 -0.3698  0.1203
    1SOL     OW 2217   0.898   3.185   1.182  0.2799 -0.0568 -0.1225
    1SOL    HW2 2218   0.865   3.275   1.182  0.6692  0.1459  3.0406
    1SOL    HW3 2219   0.988   3.192   1.151 -0.0879  0.4496 -1.1013
    1SOL    MW4 2220   0.905   3.197   1.178  0.2826  0.0367  0.1658
    1SOL     OW 2221   0.913   3.493   1.130  0.7549 -0.0362 -0.2776
    1SOL    HW2 2222   0.843   3.555   1.150  0.6935 -0.3696  0.5826
    1SOL    HW3 2223   0.918   3.492   1.035  0.2733  0.7511 -0.3153
    1SOL    MW4 2224   0.904   3.501   1.120  0.6833  0.0236 -0.1692
    1SOL     OW 2225   1.113   3.652   1.239 -0.6803 -0.1599 -0.0146
    1SOL    HW2 2226   1.198   3.611   1.222 -0.1663  0.9449 -0.1129
    1SOL    HW3 2227   1.049   3.591   1.201  0.1739 -0.0994 -1.5498
    1SOL    MW4 2228   1.116   3.638   1.232 -0.4997 -0.0064 -0.2302
    1SOL     OW 2229   1.154   3.925   1.162  0.6365  0.6545 -0.2057
    1SOL    HW2 2230   1.077   3.977   1.182  0.6561  0.8050 -0.5270
    1SOL    HW3 2231   1.130   3.836   1.186  0.1492  0.6034 -0.8916
    1SOL    MW4 2232   1.141   3.920   1.168  0.5748  0.6676 -0.3386
    1SOL     OW 2233   0.901   4.036   1.217 -0.1545 -0.1284  0.1291
    1SOL    HW2 2234   0.914   4.042   1.311  0.1131 -1.8774  0.2246
    1SOL    HW3 2235   0.818   3.991   1.206 -0.2402  0.1658 -0.4695
    1SOL    MW4 2236   0.892   4.031   1.228 -0.1304 -0.3200  0.0627
    1SOL     OW 2237   0.932   4.296   1.128  0.0296  0.1062 -0.2946
    1SOL    HW2 2238   0.921   4.204   1.152 -2.5631  0.4687  0.1091
    1SOL    HW3 2239   0.919   4.298   1.033  0.9233 -0.0499 -0.4231
    1SOL    MW4 2240   0.929   4.284   1.118 -0.1946  0.1330 -0.2582
    1SOL     OW 2241   1.139   4.435   1.259 -0.0517  0.2235 -0.6014
    1SOL    HW2 2242   1.133   4.416   1.352 -1.0613  0.5915 -0.5819
    1SOL    HW3 2243   1.065   4.388   1.220 -0.4357  1.1744 -1.0280
    1SOL    MW4 2244   1.128   4.426   1.266 -0.2357  0.3972 -0.6551
    1SOL     OW 2245   1.597   4.660   1.112  0.0097 -0.1164 -0.2547
    1SOL    HW2 2246   1.681   4.697   1.141 -0.3566  0.9322 -0.4893
    1SOL    HW3 2247   1.591   4.576   1.157 -0.5928  1.5126  2.8408
    1SOL    MW4 2248   1.607   4.654   1.122 -0.1181  0.2370  0.1228
    1SOL     OW 2249   1.366   0.119   1.249  0.0954 -0.0895  0.0456
    1SOL    HW2 2250   1.439   0.068   1.213  0.1197 -1.3958  1.9129
    1SOL    HW3 2251   1.288   0.079   1.212  0.2054 -0.1934 -0.0754
    1SOL    MW4 2252   1.365   0.107   1.239  0.1130 -0.2756  0.2762
    1SOL     OW 2253   1.358   0.390   1.134 -0.3624  0.0808 -0.1538
    1SOL    HW2 2254   1.347   0.302   1.169 -0.3023 -0.1421 -0.6881
    1SOL    HW3 2255   1.274   0.433   1.148 -0.6776 -0.3517 -0.6988
    1SOL    MW4 2256   1.346   0.384   1.140 -0.3960 -0.0057 -0.2961
    1SOL     OW 2257   1.606   0.500   1.191  0.2935 -0.2600 -0.5820
    1SOL    HW2 2258   1.600   0.594   1.176 -0.3204 -0.0734  0.7351
    1SOL    HW3 2259   1.516   0.469   1.180  0.4472 -0.6486 -0.7469
    1SOL    MW4 2260   1.593   0.508   1.188  0.2327 -0.2866 -0.4300
    1SOL     OW 2261   1.568   0.762   1.123  0.0676 -0.6557  0.0337
    1SOL    HW2 2262   1.649   0.803   1.152 -1.3804  1.8304  0.7102
    1SOL    HW3 2263   1.566   0.775   1.028  0.2685 -0.3925  0.0675
    1SOL    MW4 2264   1.578   0.769   1.114 -0.0972 -0.2930  0.1273
    1SOL     OW 2265   1.345   0.900   1.216  0.4268 -0.3110  0.3639
    1SOL    HW2 2266   1.420   0.849   1.187  0.2559 -0.3721  0.0328
    1SOL    HW3 2267   1.269   0.853   1.183  0.2598  0.0481  0.2299
    1SOL    MW4 2268   1.345   0.887   1.208  0.3822 -0.2718  0.3026
    1SOL     OW 2269   1.342   1.164   1.163 -0.2978 -0.4775 -0.3041
    1SOL    HW2 2270   1.346   1.071   1.184 -0.8532 -0.2536  0.8284
    1SOL    HW3 2271   1.373   1.169   1.072 -0.0680 -1.7335 -0.3113
    1SOL    MW4 2272   1.346   1.152   1.154 -0.3408 -0.6136 -0.1554
    1SOL     OW 2273   1.579   1.309   1.220  0.6373 -0.5365 -0.4909
    1SOL    HW2 2274   1.648   1.249   1.192  1.1107 -0.3035  0.1558
    1SOL    HW3 2275   1.498   1.259   1.210  0.8971 -0.8348 -1.1920
    1SOL    MW4 2276   1.577   1.295   1.215  0.7341 -0.5450 -0.4981
    1SOL     OW 2277   1.570   1.537   1.079  0.0520 -0.0278 -0.0213
    1SOL    HW2 2278   1.643   1.582   1.122 -0.9827  0.5255  1.1791
    1SOL    HW3 2279   1.560   1.455   1.127 -0.4643  0.1357  0.1479
    1SOL    MW4 2280   1.579   1.532   1.091 -0.1525  0.0668  0.1595
    1SOL     OW 2281   1.352   1.670   1.216  0.4507 -0.2331 -0.4931
    1SOL    HW2 2282   1.421   1.619   1.172  0.0346 -2.1532  0.9730
    1SOL    HW3 2283   1.270   1.630   1.187  0.0789  0.1432  0.0334
    1SOL    MW4 2284   1.351   1.658   1.207  0.3468 -0.4368 -0.2302
    1SOL     OW 2285   1.334   1.952   1.116  0.9735  0.2697  0.2873
    1SOL    HW2 2286   1.342   1.868   1.162  1.0477  0.2372  0.2151
    1SOL    HW3 2287   1.270   2.001   1.167  0.6218  0.0120  0.0983
    1SOL    MW4 2288   1.327   1.947   1.129  0.9369  0.2314  0.2527
    1SOL     OW 2289   1.590   2.056   1.206  0.4688  0.2816  0.0341
    1SOL    HW2 2290   1.574   2.150   1.210  0.4861  0.2871 -0.0253
    1SOL    HW3 2291   1.505   2.018   1.184  0.5989  0.3349 -0.5794
    1SOL    MW4 2292   1.577   2.064   1.203  0.4883  0.2894 -0.0547
    1SOL     OW 2293   1.556   2.340   1.181 -0.6134  0.2790  0.0478
    1SOL    HW2 2294   1.498   2.410   1.212 -1.0272 -0.0217 -0.0388
    1SOL    HW3 2295   1.538   2.333   1.087 -0.5179  0.1137  0.0410
    1SOL    MW4 2296   1.546   2.348   1.173 -0.6554  0.2172  0.0354
    1SOL     OW 2297   1.352   2.529   1.221 -0.1860 -0.0255 -0.4502
    1SOL    HW2 2298   1.333   2.520   1.314  1.0019 -1.1308 -0.2980
    1SOL    HW3 2299   1.350   2.623   1.205 -0.7382  0.1515  0.6202
    1SOL    MW4 2300   1.349   2.540   1.231 -0.1022 -0.1481 -0.2888
    1SOL     OW 2301   1.321   2.812   1.173 -0.1949 -0.2364 -0.4025
    1SOL    HW2 2302   1.389   2.855   1.225 -0.6295 -2.0965  1.8036
    1SOL    HW3 2303   1.240   2.855   1.199 -0.2616 -0.3182 -0.4746
    1SOL    MW4 2304   1.320   2.823   1.183 -0.2611 -0.4926 -0.1210
    1SOL     OW 2305   1.593   2.901   1.285 -0.9142 -0.5546  0.0809
    1SOL    HW2 2306   1.659   2.851   1.237 -0.9162 -0.8368  0.3728
    1SOL    HW3 2307   1.602   2.990   1.251 -0.6916 -0.6835 -0.2074
    1SOL    MW4 2308   1.603   2.906   1.274 -0.8849 -0.6089  0.0814
    1SOL     OW 2309   1.605   3.135   1.145  0.4721 -0.0054 -0.0162
    1SOL    HW2 2310   1.682   3.189   1.165  0.1444  0.3875  0.1881
    1SOL    HW3 2311   1.531   3.187   1.175  0.0397  0.1362 -1.3164
    1SOL    MW4 2312   1.605   3.149   1.152  0.3717  0.0651 -0.1608
    1SOL     OW 2313   1.398   3.279   1.260  0.3890  0.4807  0.1618
    1SOL    HW2 2314   1.390   3.267   1.355 -0.3903  1.0716  0.1769
    1SOL    HW3 2315   1.331   3.222   1.223  0.0195  1.0079  0.0139
    1SOL    MW4 2316   1.388   3.270   1.268  0.2373  0.6282  0.1442
    1SOL     OW 2317   1.348   3.552   1.179 -0.5514 -0.0620 -0.0572
    1SOL    HW2 2318   1.356   3.465   1.218  0.3749 -0.4132 -0.9893
    1SOL    HW3 2319   1.330   3.535   1.086  2.2065  0.7087 -0.7732
    1SOL    MW4 2320   1.347   3.538   1.172 -0.0653 -0.0069 -0.2745
    1SOL     OW 2321   1.587   3.664   1.248 -0.3890  0.2903 -0.1646
    1SOL    HW2 2322   1.578   3.757   1.228 -1.0135  0.2493 -0.0924
    1SOL    HW3 2323   1.501   3.627   1.226 -0.8296  0.0906  1.7718
    1SOL    MW4 2324   1.574   3.672   1.242 -0.5295  0.2582  0.1005
    1SOL     OW 2325   1.561   3.921   1.145  0.0640 -0.2519 -0.4652
    1SOL    HW2 2326   1.493   3.984   1.171 -2.0110 -2.0791 -1.2405
    1SOL    HW3 2327   1.559   3.921   1.050  1.4491 -0.0517 -0.5037
    1SOL    MW4 2328   1.551   3.929   1.136 -0.0269 -0.4666 -0.5724
    1SOL     OW 2329   1.375   4.093   1.259  0.4681 -0.3720  0.1378
    1SOL    HW2 2330   1.371   4.174   1.209  0.7615  0.2481  1.1144
    1SOL    HW3 2331   1.293   4.048   1.239  0.0942  0.3861 -0.0237
    1SOL    MW4 2332   1.364   4.098   1.250  0.4574 -0.1907  0.2453
    1SOL     OW 2333   1.354   4.343   1.131  0.5035  0.1596  0.2385
    1SOL    HW2 2334   1.277   4.382   1.170  1.8018  1.5756  1.4241
    1SOL    HW3 2335   1.334   4.339   1.037 -0.8692  0.7648  0.4965
    1SOL    MW4 2336   1.341   4.347   1.124  0.4936  0.4268  0.4289
    1SOL     OW 2337   1.596   4.410   1.245 -0.3657  0.0420 -0.0221
    1SOL    HW2 2338   1.578   4.400   1.338 -0.5228  0.0271 -0.0551
    1SOL    HW3 2339   1.521   4.370   1.201 -0.0781 -0.3503 -0.1565
    1SOL    MW4 2340   1.584   4.403   1.252 -0.3484 -0.0114 -0.0441
    1SOL     OW 2341   2.052   4.654   1.109  0.1635 -0.4739  0.2263
    1SOL    HW2 2342   2.034   4.567   1.145  0.4033 -0.5260  0.2208
    1SOL    HW3 2343   2.067   4.639   1.016  3.1742 -0.8402  0.7133
    1SOL    MW4 2344   2.052   4.641   1.101  0.5925 -0.5293  0.2898
    1SOL     OW 2345   1.820   0.101   1.212  0.2288  0.4426  0.1879
    1SOL    HW2 2346   1.826   0.182   1.162  0.4390 -1.0446 -2.2982
    1SOL    HW3 2347   1.899   0.052   1.188 -0.2120 -0.7791  1.1600
    1SOL    MW4 2348   1.832   0.105   1.202  0.1982  0.0852 -0.0118
    1SOL     OW 2349   1.834   0.354   1.118 -0.3297 -0.4006 -0.5402
    1SOL    HW2 2350   1.753   0.399   1.142  0.7797  0.6841  1.2234
    1SOL    HW3 2351   1.845   0.373   1.025 -1.0876  1.0565 -0.3511
    1SOL    MW4 2352   1.824   0.362   1.109 -0.2832 -0.0652 -0.2825
    1SOL     OW 2353   2.037   0.532   1.213  0.0680 -0.1636  0.2187
    1SOL    HW2 2354   2.040   0.533   1.309 -0.7507  0.1545  0.2401
    1SOL    HW3 2355   1.964   0.475   1.191  1.8527 -2.3110 -0.2570
    1SOL    MW4 2356   2.028   0.525   1.223  0.1955 -0.4050  0.1587
    1SOL     OW 2357   2.038   0.788   1.117 -0.1477  0.1441 -0.0901
    1SOL    HW2 2358   2.064   0.701   1.146 -1.0546  0.0007  0.3148
    1SOL    HW3 2359   2.012   0.776   1.026 -1.2861 -0.2167  0.2821
    1SOL    MW4 2360   2.038   0.775   1.109 -0.4175  0.0775  0.0124
    1SOL     OW 2361   1.795   0.889   1.209 -0.1680  0.7523  0.0922
    1SOL    HW2 2362   1.805   0.902   1.303  0.3788 -1.2831  0.3370
    1SOL    HW3 2363   1.881   0.857   1.180 -0.9349 -0.5651 -0.7436
    1SOL    MW4 2364   1.808   0.886   1.217 -0.1969  0.3100  0.0142
    1SOL     OW 2365   1.790   1.159   1.140  0.0646  0.0520 -0.4439
    1SOL    HW2 2366   1.777   1.065   1.154 -2.2187  0.3379 -0.4971
    1SOL    HW3 2367   1.801   1.167   1.045 -0.1989 -0.0927 -0.4853
    1SOL    MW4 2368   1.790   1.148   1.129 -0.2713  0.0706 -0.4563
    1SOL     OW 2369   2.040   1.279   1.241  0.1542 -0.0984 -0.5990
    1SOL    HW2 2370   2.122   1.242   1.209  0.3055  0.9323 -1.4603
    1SOL    HW3 2371   1.972   1.228   1.198  0.3035 -2.0911  1.4474
    1SOL    MW4 2372   2.042   1.268   1.231  0.1941 -0.2253 -0.4427
    1SOL     OW 2373   1.998   1.555   1.156  0.6989  0.5845  0.4048
    1SOL    HW2 2374   2.033   1.469   1.178  0.4551  0.3055 -0.2790
    1SOL    HW3 2375   2.001   1.559   1.060  0.3888  1.1989  0.4132
    1SOL    MW4 2376   2.003   1.544   1.146  0.6258  0.6287  0.3157
    1SOL     OW 2377   1.774   1.686   1.226 -0.0608 -0.6136 -0.2067
    1SOL    HW2 2378   1.793   1.779   1.210 -0.7663 -0.7990 -2.2920
    1SOL    HW3 2379   1.853   1.640   1.197 -1.1606 -0.9168 -2.8430
    1SOL    MW4 2380   1.787   1.693   1.220 -0.2990 -0.6779 -0.8297
    1SOL     OW 2381   1.837   1.957   1.115 -0.0896 -0.2669  0.3937
    1SOL    HW2 2382   1.746   1.985   1.129  0.2332  0.3940  1.2399
    1SOL    HW3 2383   1.841   1.934   1.022 -0.9690  0.2749  0.2140
    1SOL    MW4 2384   1.825   1.958   1.105 -0.1631 -0.1081  0.4816
    1SOL     OW 2385   2.045   2.094   1.207  0.4524  0.1335 -0.1849
    1SOL    HW2 2386   2.047   2.068   1.299  1.4554  0.2709 -0.1575
    1SOL    HW3 2387   1.971   2.046   1.170 -0.7616  1.0819  0.9858
    1SOL    MW4 2388   2.035   2.084   1.215  0.4246  0.2768 -0.0267
    1SOL     OW 2389   2.005   2.362   1.138 -0.0553 -0.0111 -0.0498
    1SOL    HW2 2390   2.091   2.395   1.164 -0.6996  0.3029  1.7095
    1SOL    HW3 2391   2.008   2.269   1.158  0.3221 -0.2630 -1.2203
    1SOL    MW4 2392   2.017   2.354   1.144 -0.0904 -0.0031  0.0278
    1SOL     OW 2393   1.786   2.463   1.301 -0.7949 -0.1970 -0.0912
    1SOL    HW2 2394   1.864   2.426   1.261  0.5617  0.2846  2.0359
    1SOL    HW3 2395   1.714   2.410   1.267  0.7158 -2.3671 -0.0007
    1SOL    MW4 2396   1.787   2.451   1.291 -0.4166 -0.4196  0.2013
    1SOL     OW 2397   1.812   2.723   1.185  0.4813  0.0259  0.1907
    1SOL    HW2 2398   1.790   2.638   1.223 -2.3457  0.7867  0.3079
    1SOL    HW3 2399   1.813   2.707   1.090  0.2157 -0.1825  0.2237
    1SOL    MW4 2400   1.809   2.710   1.177  0.0732  0.0987  0.2105
    1SOL     OW 2401   2.060   2.847   1.273  0.5349  0.0894  0.2402
    1SOL    HW2 2402   2.060   2.938   1.243  2.0531 -0.4815 -1.6096
    1SOL    HW3 2403   1.978   2.811   1.239  0.8087  0.2819 -0.6312
    1SOL    MW4 2404   2.049   2.854   1.264  0.7713  0.0393 -0.1187
    1SOL     OW 2405   2.052   3.106   1.192  0.2375 -0.4842 -0.5551
    1SOL    HW2 2406   1.967   3.139   1.222 -0.1145 -1.2317 -0.7217
    1SOL    HW3 2407   2.050   3.118   1.097  0.7377  0.4612 -0.4501
    1SOL    MW4 2408   2.040   3.112   1.183  0.2570 -0.4582 -0.5633
    1SOL     OW 2409   1.820   3.254   1.260 -0.7689  0.0196 -0.1166
    1SOL    HW2 2410   1.815   3.241   1.354  1.4486 -0.6455 -0.0662
    1SOL    HW3 2411   1.817   3.349   1.248 -0.7713  0.1111  0.6319
    1SOL    MW4 2412   1.819   3.265   1.271 -0.4765 -0.0560 -0.0111
    1SOL     OW 2413   1.824   3.523   1.214  0.0211  0.4498 -0.3978
    1SOL    HW2 2414   1.898   3.581   1.232 -0.1300 -0.0107  1.8203
    1SOL    HW3 2415   1.747   3.578   1.228 -0.1032  0.0554  0.4696
    1SOL    MW4 2416   1.824   3.538   1.218 -0.0151  0.3371  0.0093
    1SOL     OW 2417   2.058   3.676   1.235  0.8447  0.1102  0.2436
    1SOL    HW2 2418   2.034   3.693   1.326 -0.0804 -0.0020  0.0329
    1SOL    HW3 2419   2.108   3.595   1.238 -1.6275 -1.4805  0.3518
    1SOL    MW4 2420   2.061   3.668   1.248  0.3965 -0.1144  0.2301
    1SOL     OW 2421   2.053   3.925   1.107 -0.1047 -0.2646  0.0123
    1SOL    HW2 2422   1.976   3.951   1.157  0.1146  0.1538  0.1375
    1SOL    HW3 2423   2.068   3.833   1.132 -0.5608 -0.3454 -0.0188
    1SOL    MW4 2424   2.045   3.916   1.117 -0.1357 -0.2201  0.0247
    1SOL     OW 2425   1.827   3.998   1.232  0.4296  0.0617  0.0270
    1SOL    HW2 2426   1.827   4.012   1.326  0.1311 -0.5154  0.1146
    1SOL    HW3 2427   1.739   3.967   1.212  0.7625 -0.7118 -0.2988
    1SOL    MW4 2428   1.816   3.995   1.241  0.4342 -0.1163 -0.0044
    1SOL     OW 2429   1.806   4.275   1.161 -0.2720  0.5142  0.1355
    1SOL    HW2 2430   1.811   4.184   1.189  2.2866  0.8346  0.8898
    1SOL    HW3 2431   1.726   4.308   1.202 -0.3820 -0.9714  1.1620
    1SOL    MW4 2432   1.796   4.268   1.170  0.0510  0.3610  0.3705
    1SOL     OW 2433   2.018   4.411   1.255 -0.5971  0.0392 -0.0830
    1SOL    HW2 2434   2.019   4.393   1.349 -2.0143  0.8918  0.1058
    1SOL    HW3 2435   1.944   4.360   1.222 -1.3308  1.3008 -0.4026
    1SOL    MW4 2436   2.009   4.402   1.263 -0.8810  0.3181 -0.1003
    1SOL     OW 2437   2.469   0.058   1.054 -0.0989  0.0616  0.0456
    1SOL    HW2 2438   2.552   0.078   1.099  0.1971 -0.9999 -0.0221
    1SOL    HW3 2439   2.401   0.088   1.115  0.3280  1.0524  0.0509
    1SOL    MW4 2440   2.471   0.064   1.068 -0.0036  0.0523  0.0373
    1SOL     OW 2441   2.253   0.116   1.215  0.1542 -0.1158 -0.1718
    1SOL    HW2 2442   2.244   0.209   1.193 -1.1708 -0.0186  0.7432
    1SOL    HW3 2443   2.173   0.076   1.179 -0.9094 -0.3393  2.3660
    1SOL    MW4 2444   2.241   0.123   1.207 -0.1612 -0.1324  0.2837
    1SOL     OW 2445   2.266   0.384   1.134 -0.4621  0.3112  0.4644
    1SOL    HW2 2446   2.198   0.436   1.176 -0.7348  0.8883 -0.6714
    1SOL    HW3 2447   2.239   0.378   1.042  1.1364  0.7607 -0.0515
    1SOL    MW4 2448   2.254   0.390   1.127 -0.2871  0.4466  0.2464
    1SOL     OW 2449   2.506   0.502   1.198 -0.4470 -0.0544  0.1428
    1SOL    HW2 2450   2.490   0.498   1.292 -0.9927  2.2177  0.1718
    1SOL    HW3 2451   2.431   0.459   1.158 -1.2723  0.8848  0.6819
    1SOL    MW4 2452   2.494   0.496   1.205 -0.6278  0.3693  0.2177
    1SOL     OW 2453   2.495   0.776   1.134 -0.0282 -0.3858  0.1669
    1SOL    HW2 2454   2.498   0.686   1.164  1.6063 -0.1192  0.8430
    1SOL    HW3 2455   2.491   0.769   1.039 -1.7726 -1.1869  0.2899
    1SOL    MW4 2456   2.495   0.763   1.125 -0.0424 -0.4563  0.2723
    1SOL     OW 2457   2.279   0.923   1.245 -0.1980 -0.1017 -0.2047
    1SOL    HW2 2458   2.349   0.864   1.218 -0.6337 -0.5721 -0.3062
    1SOL    HW3 2459   2.202   0.896   1.195 -0.8751 -0.6487  1.1006
    1SOL    MW4 2460   2.278   0.912   1.235 -0.3448 -0.2359 -0.0460
    1SOL     OW 2461   2.274   1.170   1.133 -0.1304 -0.4997 -0.3727
    1SOL    HW2 2462   2.344   1.232   1.153  0.6530 -1.2226 -0.8340
    1SOL    HW3 2463   2.299   1.090   1.180 -1.6087 -0.1857  0.9733
    1SOL    MW4 2464   2.287   1.168   1.142 -0.2222 -0.5537 -0.2559
    1SOL     OW 2465   2.488   1.318   1.171 -0.3012 -0.2140 -0.0716
    1SOL    HW2 2466   2.573   1.277   1.154  0.1299  0.6560 -0.0866
    1SOL    HW3 2467   2.506   1.412   1.165 -1.2082 -0.0182  0.2180
    1SOL    MW4 2468   2.502   1.325   1.168 -0.3638 -0.0734 -0.0354
    1SOL     OW 2469   2.492   1.593   1.072  0.3356  0.5056 -0.3192
    1SOL    HW2 2470   2.403   1.625   1.088  0.4882  0.3996  0.7635
    1SOL    HW3 2471   2.490   1.563   0.981  0.0486  3.0992 -1.1957
    1SOL    MW4 2472   2.480   1.593   1.062  0.3181  0.8339 -0.2921
    1SOL     OW 2473   2.253   1.663   1.237 -0.0700  0.0992  0.0525
    1SOL    HW2 2474   2.234   1.750   1.203 -0.2947 -0.4132 -1.1725
    1SOL    HW3 2475   2.175   1.611   1.217  0.4201 -0.6173 -0.0417
    1SOL    MW4 2476   2.240   1.667   1.230 -0.0350 -0.0629 -0.1215
    1SOL     OW 2477   2.264   1.927   1.129  0.3063  0.1388 -0.0142
    1SOL    HW2 2478   2.175   1.956   1.149  0.4846  0.5392  0.2053
    1SOL    HW3 2479   2.274   1.947   1.035 -0.4227 -1.4709 -0.4465
    1SOL    MW4 2480   2.253   1.933   1.119  0.2337 -0.0207 -0.0422
    1SOL     OW 2481   2.474   2.059   1.213  0.4966  0.5627  0.1695
    1SOL    HW2 2482   2.543   2.002   1.178  0.9084  0.3540  1.2896
    1SOL    HW3 2483   2.392   2.014   1.193  0.7474  0.2755 -0.2068
    1SOL    MW4 2484   2.473   2.046   1.206  0.5841  0.4973  0.2676
    1SOL     OW 2485   2.487   2.323   1.153  0.4097 -0.0358  0.0030
    1SOL    HW2 2486   2.486   2.234   1.188  0.7425 -0.2210 -0.4670
    1SOL    HW3 2487   2.508   2.313   1.061  0.4346  0.5310 -0.0563
    1SOL    MW4 2488   2.489   2.310   1.146  0.4570  0.0145 -0.0666
    1SOL     OW 2489   2.246   2.458   1.230  0.3737  0.4993  0.0047
    1SOL    HW2 2490   2.245   2.441   1.324  1.0038  1.1458  0.1321
    1SOL    HW3 2491   2.330   2.423   1.200  1.2579  2.4513  0.1065
    1SOL    MW4 2492   2.257   2.451   1.238  0.5734  0.8421  0.0350
    1SOL     OW 2493   2.270   2.717   1.154 -0.1684  0.5443  0.5633
    1SOL    HW2 2494   2.255   2.627   1.182 -0.0365  0.4692  0.3923
    1SOL    HW3 2495   2.197   2.766   1.192 -1.4660 -0.0031 -1.1519
    1SOL    MW4 2496   2.258   2.712   1.163 -0.3221  0.4623  0.3145
    1SOL     OW 2497   2.490   2.868   1.281  0.1079  0.1692  0.8031
    1SOL    HW2 2498   2.479   2.868   1.377 -0.4777  1.4542  0.7434
    1SOL    HW3 2499   2.408   2.830   1.248  0.2702 -0.1814  0.7966
    1SOL    MW4 2500   2.477   2.863   1.290  0.0522  0.2925  0.7944
    1SOL     OW 2501   2.495   3.123   1.173  0.2411 -0.1839  0.0159
    1SOL    HW2 2502   2.430   3.184   1.208  1.4531  1.9056 -1.2901
    1SOL    HW3 2503   2.473   3.039   1.214 -1.9156  0.9432  1.2767
    1SOL    MW4 2504   2.483   3.120   1.183  0.1166  0.2406  0.0098
    1SOL     OW 2505   2.285   3.255   1.270  0.0497  0.0431  0.2099
    1SOL    HW2 2506   2.272   3.338   1.224 -0.4296 -0.5838 -0.8170
    1SOL    HW3 2507   2.210   3.202   1.243 -0.3876 -0.2360  1.9639
    1SOL    MW4 2508   2.273   3.259   1.260 -0.0710 -0.0761  0.3058
    1SOL     OW 2509   2.266   3.511   1.166  0.3597  1.0444 -0.3257
    1SOL    HW2 2510   2.342   3.556   1.202  0.2174  1.2559 -0.2870
    1SOL    HW3 2511   2.263   3.537   1.074  0.9177  0.2404 -0.5781
    1SOL    MW4 2512   2.275   3.520   1.158  0.4146  0.9661 -0.3538
    1SOL     OW 2513   2.493   3.631   1.259 -0.7402  0.3066  0.0032
    1SOL    HW2 2514   2.498   3.639   1.354  0.5537 -0.7783  0.0475
    1SOL    HW3 2515   2.492   3.721   1.227 -0.7881  0.6747  1.0198
    1SOL    MW4 2516   2.494   3.644   1.267 -0.5755  0.2122  0.1432
    1SOL     OW 2517   2.489   3.881   1.126  0.0715 -0.5351  0.3051
    1SOL    HW2 2518   2.419   3.934   1.163 -0.1283 -0.5190 -0.1004
    1SOL    HW3 2519   2.488   3.901   1.033 -0.7352 -2.0798 -0.0376
    1SOL    MW4 2520   2.480   3.891   1.119 -0.0613 -0.7367  0.2064
    1SOL     OW 2521   2.268   4.035   1.204  0.3277 -0.3010 -0.3652
    1SOL    HW2 2522   2.257   4.108   1.144 -1.1818 -1.4963 -1.5807
    1SOL    HW3 2523   2.197   3.974   1.182  0.4115 -1.2766  1.8737
    1SOL    MW4 2524   2.257   4.036   1.193  0.1400 -0.5870 -0.2303
    1SOL     OW 2525   2.210   4.290   1.080 -0.0581  0.5951 -0.5293
    1SOL    HW2 2526   2.146   4.315   1.147  0.0790 -1.2341  0.3246
    1SOL    HW3 2527   2.160   4.288   0.999 -0.5313  1.5557 -0.2696
    1SOL    MW4 2528   2.195   4.293   1.078 -0.1028  0.4807 -0.3823
    1SOL     OW 2529   2.452   4.432   1.180 -0.0797 -0.2535  0.0314
    1SOL    HW2 2530   2.378   4.375   1.154  0.2843  0.0406 -1.7624
    1SOL    HW3 2531   2.431   4.517   1.141  1.2770 -0.2082 -0.6161
    1SOL    MW4 2532   2.439   4.436   1.171  0.1476 -0.2093 -0.2905
    1SOL     OW 2533   2.913   0.018   1.106 -0.1356  0.2663  0.2659
    1SOL    HW2 2534   2.928  -0.076   1.117 -2.1482 -0.2781 -1.4879
    1SOL    HW3 2535   2.937   0.036   1.015  0.6721  1.5695  0.7093
    1SOL    MW4 2536   2.918   0.008   1.095 -0.2947  0.3662  0.0930
    1SOL     OW 2537   2.687   0.111   1.231 -0.4928 -0.0306  0.6231
    1SOL    HW2 2538   2.677   0.088   1.324 -0.6569 -1.5190  0.2546
    1SOL    HW3 2539   2.772   0.075   1.206 -0.4514  0.3607  0.1956
    1SOL    MW4 2540   2.697   0.103   1.240 -0.5090 -0.1753  0.5180
    1SOL     OW 2541   2.739   0.359   1.136  0.1092  0.4186  0.2687
    1SOL    HW2 2542   2.719   0.272   1.170 -1.1074  0.6817  0.2462
    1SOL    HW3 2543   2.660   0.411   1.154  1.1924  1.7893  1.1963
    1SOL    MW4 2544   2.726   0.355   1.143  0.0918  0.6342  0.3881
    1SOL     OW 2545   2.960   0.470   1.252 -0.5082 -0.4338  0.0560
    1SOL    HW2 2546   2.957   0.559   1.216 -1.1308  0.3049  1.9080
    1SOL    HW3 2547   2.882   0.427   1.217 -0.7394  0.0553 -0.0313
    1SOL    MW4 2548   2.950   0.476   1.242 -0.6208 -0.2719  0.2886
    1SOL     OW 2549   2.932   0.731   1.182 -0.1398  0.5115  0.1207
    1SOL    HW2 2550   3.008   0.775   1.219 -0.3266  1.3999 -0.5161
    1SOL    HW3 2551   2.857   0.783   1.210 -0.4510  0.0703  0.1286
    1SOL    MW4 2552   2.932   0.743   1.190 -0.2053  0.5705  0.0377
    1SOL     OW 2553   2.706   0.890   1.253 -0.6987  0.0958  0.3165
    1SOL    HW2 2554   2.712   0.975   1.209 -0.4992  0.1885  0.5226
    1SOL    HW3 2555   2.634   0.845   1.209 -1.4508  0.7587  0.8619
    1SOL    MW4 2556   2.698   0.895   1.242 -0.7715  0.1956  0.4157
    1SOL     OW 2557   2.706   1.154   1.154  0.0989 -0.1842  0.1054
    1SOL    HW2 2558   2.782   1.187   1.201  0.0517  1.1635 -0.7436
    1SOL    HW3 2559   2.726   1.168   1.061 -2.0648  2.2299 -0.0496
    1SOL    MW4 2560   2.718   1.160   1.148 -0.1929  0.3121 -0.0272
    1SOL     OW 2561   2.927   1.267   1.265  0.4490  0.0491  0.0252
    1SOL    HW2 2562   2.937   1.274   1.360  1.3452 -1.1606  0.0401
    1SOL    HW3 2563   2.918   1.357   1.234  0.3106  0.4571  1.2368
    1SOL    MW4 2564   2.927   1.280   1.274  0.5488 -0.0567  0.1870
    1SOL     OW 2565   2.894   1.510   1.128  0.3046  0.2024  0.0206
    1SOL    HW2 2566   2.965   1.558   1.169  0.3811 -0.0691  0.2078
    1SOL    HW3 2567   2.921   1.501   1.036 -0.8274  2.6394 -0.6006
    1SOL    MW4 2568   2.907   1.515   1.121  0.1652  0.4883 -0.0367
    1SOL     OW 2569   2.697   1.688   1.245 -0.2183  0.2154 -0.4733
    1SOL    HW2 2570   2.768   1.631   1.215  0.2878 -0.5780  2.1367
    1SOL    HW3 2571   2.620   1.657   1.198  0.6270 -0.7106 -1.2665
    1SOL    MW4 2572   2.696   1.676   1.235 -0.0401 -0.0114 -0.2337
    1SOL     OW 2573   2.718   1.927   1.113  0.2740 -0.1452 -0.3965
    1SOL    HW2 2574   2.790   1.982   1.146  1.0773 -0.5127 -1.5182
    1SOL    HW3 2575   2.729   1.844   1.159  0.7405 -0.2962 -0.7777
    1SOL    MW4 2576   2.729   1.923   1.123  0.4413 -0.2135 -0.5949
    1SOL     OW 2577   2.922   2.087   1.196  0.1555 -0.1085  0.1007
    1SOL    HW2 2578   2.938   2.100   1.290 -0.1957 -2.2765  0.4845
    1SOL    HW3 2579   2.927   2.175   1.159 -0.9847  0.9656  2.3635
    1SOL    MW4 2580   2.925   2.100   1.204 -0.0412 -0.2530  0.4498
    1SOL     OW 2581   2.938   2.352   1.101 -0.1182 -0.5377  0.2842
    1SOL    HW2 2582   3.018   2.391   1.137  0.7099 -0.9885 -1.0124
    1SOL    HW3 2583   2.867   2.403   1.140  0.8955  1.7220 -0.7080
    1SOL    MW4 2584   2.939   2.364   1.111  0.1249 -0.2990 -0.0178
    1SOL     OW 2585   2.696   2.475   1.228 -0.2872  0.0813  0.1154
    1SOL    HW2 2586   2.711   2.478   1.323  0.0341 -0.2612  0.0755
    1SOL    HW3 2587   2.618   2.419   1.218  0.9149 -1.6286  0.0440
    1SOL    MW4 2588   2.687   2.468   1.239 -0.0863 -0.1895  0.1007
    1SOL     OW 2589   2.699   2.752   1.164 -0.2546 -0.0670 -0.0643
    1SOL    HW2 2590   2.683   2.665   1.202  1.1813 -0.3760 -0.1429
    1SOL    HW3 2591   2.622   2.803   1.188 -0.9985 -1.2913  0.2086
    1SOL    MW4 2592   2.687   2.747   1.172 -0.1633 -0.2694 -0.0387
    1SOL     OW 2593   2.941   2.852   1.242  0.2887 -0.3055  0.1604
    1SOL    HW2 2594   2.936   2.851   1.337 -0.9338 -1.3182  0.1000
    1SOL    HW3 2595   2.860   2.809   1.213  1.2711 -1.2143 -1.3149
    1SOL    MW4 2596   2.929   2.846   1.251  0.2573 -0.5591 -0.0421
    1SOL     OW 2597   2.951   3.126   1.184 -0.1326  0.5461  0.2531
    1SOL    HW2 2598   2.951   3.032   1.205  1.3538  0.5760  0.4306
    1SOL    HW3 2599   2.964   3.129   1.089  0.4471  0.5801  0.3309
    1SOL    MW4 2600   2.953   3.114   1.174  0.1402  0.5543  0.2868
    1SOL     OW 2601   2.730   3.270   1.212 -0.1267 -0.1236  0.0164
    1SOL    HW2 2602   2.811   3.221   1.197  0.1019  0.4256 -0.5722
    1SOL    HW3 2603   2.660   3.209   1.190  0.1668  0.0481 -1.4886
    1SOL    MW4 2604   2.732   3.255   1.207 -0.0577 -0.0284 -0.2599
    1SOL     OW 2605   2.673   3.500   1.102  0.1016 -0.6771  0.3344
    1SOL    HW2 2606   2.689   3.411   1.134  0.6010 -0.8206 -0.2989
    1SOL    HW3 2607   2.601   3.533   1.156  0.7202 -1.0252  1.3691
    1SOL    MW4 2608   2.666   3.493   1.113  0.2491 -0.7417  0.3873
    1SOL     OW 2609   2.887   3.626   1.239  0.0304 -0.1193  0.3100
    1SOL    HW2 2610   2.965   3.584   1.200 -1.1344 -1.7013 -0.3843
    1SOL    HW3 2611   2.814   3.572   1.208 -1.3087  1.1457  1.2555
    1SOL    MW4 2612   2.888   3.613   1.230 -0.2997 -0.1609  0.3431
    1SOL     OW 2613   2.916   3.886   1.149  0.1084 -0.0214  0.1990
    1SOL    HW2 2614   3.001   3.901   1.190  0.4071 -1.0219 -0.0217
    1SOL    HW3 2615   2.892   3.797   1.176  0.0890 -0.5219 -1.3909
    1SOL    MW4 2616   2.924   3.876   1.158  0.1450 -0.2196 -0.0398
    1SOL     OW 2617   2.708   4.052   1.218 -0.4699 -0.0285 -0.8321
    1SOL    HW2 2618   2.789   4.005   1.202 -1.1381 -1.1481 -0.9615
    1SOL    HW3 2619   2.639   3.991   1.193 -1.3571  0.9102 -0.7238
    1SOL    MW4 2620   2.710   4.038   1.213 -0.6752 -0.0525 -0.8348
    1SOL     OW 2621   2.673   4.303   1.086 -0.2364  0.3981  0.1594
    1SOL    HW2 2622   2.667   4.221   1.136  0.4895  0.9941  1.2605
    1SOL    HW3 2623   2.599   4.355   1.118 -0.5513  0.2692 -0.3586
    1SOL    MW4 2624   2.663   4.299   1.097 -0.1822  0.4601  0.2365
    1SOL     OW 2625   2.929   4.414   1.170  0.1440 -0.2819  0.0515
    1SOL    HW2 2626   2.992   4.352   1.134 -0.5458  0.1503 -1.9651
    1SOL    HW3 2627   2.844   4.385   1.136 -0.3711  0.9074  0.2774
    1SOL    MW4 2628   2.926   4.402   1.161 -0.0150 -0.0677 -0.1848
    1SOL     OW 2629   3.369   4.639   1.096  0.2724 -0.0886  0.3216
    1SOL    HW2 2630   3.447   4.669   1.141  0.1454 -1.2300  1.3324
    1SOL    HW3 2631   3.296   4.681   1.142  0.1447 -1.2268  1.1795
    1SOL    MW4 2632   3.370   4.649   1.108  0.2389 -0.3891  0.5680
    1SOL     OW 2633   3.158   0.098   1.241  0.0690 -0.4973 -0.3977
    1SOL    HW2 2634   3.149   0.104   1.336  0.8663 -0.1091 -0.3458
    1SOL    HW3 2635   3.078   0.054   1.212  0.3049 -1.5900  0.5576
    1SOL    MW4 2636   3.146   0.093   1.250  0.2053 -0.5903 -0.2648
    1SOL     OW 2637   3.162   0.336   1.091  0.3131 -0.1283 -0.0863
    1SOL    HW2 2638   3.164   0.248   1.129 -0.9225 -0.1662 -0.1170
    1SOL    HW3 2639   3.107   0.387   1.150  1.5855  0.8091  0.3071
    1SOL    MW4 2640   3.155   0.331   1.104  0.3181 -0.0096 -0.0384
    1SOL     OW 2641   3.354   0.459   1.252 -0.0348  0.7983 -0.3944
    1SOL    HW2 2642   3.337   0.551   1.228 -0.4652  0.2641 -2.2429
    1SOL    HW3 2643   3.308   0.409   1.184  0.2743 -0.7871  0.5617
    1SOL    MW4 2644   3.345   0.465   1.240 -0.0508  0.5186 -0.5120
    1SOL     OW 2645   3.365   0.725   1.123 -0.0520 -0.0226 -0.3191
    1SOL    HW2 2646   3.298   0.769   1.175 -0.7589 -0.7579 -0.6058
    1SOL    HW3 2647   3.364   0.770   1.039  1.2201  1.2928  0.3346
    1SOL    MW4 2648   3.356   0.737   1.119  0.0224  0.0540 -0.2707
    1SOL     OW 2649   3.180   0.865   1.252 -0.6403 -0.2301 -0.1120
    1SOL    HW2 2650   3.180   0.877   1.347  2.0306  0.4262 -0.1424
    1SOL    HW3 2651   3.182   0.955   1.217 -2.4551 -0.4477 -0.8222
    1SOL    MW4 2652   3.181   0.879   1.260 -0.5274 -0.1723 -0.2096
    1SOL     OW 2653   3.145   1.123   1.172  0.0068  0.4046  0.3735
    1SOL    HW2 2654   3.222   1.178   1.187  0.2834 -0.4679  2.2172
    1SOL    HW3 2655   3.071   1.177   1.199  0.0343  0.8797 -0.4693
    1SOL    MW4 2656   3.145   1.137   1.178  0.0470  0.3521  0.5057
    1SOL     OW 2657   3.382   1.253   1.202 -0.1075  0.1536 -0.2762
    1SOL    HW2 2658   3.382   1.262   1.297  2.4498 -0.7437 -0.1437
    1SOL    HW3 2659   3.393   1.343   1.170 -1.9052  0.5681  0.2346
    1SOL    MW4 2660   3.384   1.266   1.210 -0.0074  0.0900 -0.1912
    1SOL     OW 2661   3.359   1.536   1.153  0.0258  0.3215  0.5801
    1SOL    HW2 2662   3.425   1.592   1.193  0.1686  1.1698 -0.7893
    1SOL    HW3 2663   3.277   1.563   1.193  0.2264  0.8524  0.6445
    1SOL    MW4 2664   3.357   1.547   1.163  0.0715  0.5034  0.4078
    1SOL     OW 2665   3.100   1.642   1.244  0.1553 -0.0300 -0.0860
    1SOL    HW2 2666   3.095   1.661   1.338 -0.7880 -1.4143  0.1589
    1SOL    HW3 2667   3.109   1.727   1.202 -0.4194  0.6708  1.2043
    1SOL    MW4 2668   3.101   1.656   1.251 -0.0451 -0.1203  0.1165
    1SOL     OW 2669   3.148   1.895   1.139  0.2680  0.2021  0.1889
    1SOL    HW2 2670   3.218   1.937   1.188  0.0430  1.1220 -0.2847
    1SOL    HW3 2671   3.073   1.953   1.149 -0.0396 -0.0769 -0.4805
    1SOL    MW4 2672   3.147   1.908   1.147  0.1974  0.2866  0.0380
    1SOL     OW 2673   3.370   2.047   1.258  0.3575 -0.2175  0.3801
    1SOL    HW2 2674   3.457   2.012   1.241 -0.0460 -1.3870  0.6875
    1SOL    HW3 2675   3.362   2.121   1.198  1.7079  0.1420  0.6298
    1SOL    MW4 2676   3.380   2.052   1.248  0.4823 -0.3242  0.4535
    1SOL     OW 2677   3.360   2.292   1.096  0.0814 -0.0588 -0.3431
    1SOL    HW2 2678   3.441   2.336   1.122  0.8335 -1.8223  0.3844
    1SOL    HW3 2679   3.290   2.349   1.128  1.0350  0.5237  0.7210
    1SOL    MW4 2680   3.361   2.305   1.104  0.3066 -0.2146 -0.1066
    1SOL     OW 2681   3.152   2.481   1.201  0.9149  0.6960  0.0867
    1SOL    HW2 2682   3.156   2.489   1.296 -4.2680  0.9800  0.4228
    1SOL    HW3 2683   3.147   2.571   1.168 -0.5561  0.5278 -0.1886
    1SOL    MW4 2684   3.152   2.494   1.209  0.0370  0.7114  0.0949
    1SOL     OW 2685   3.169   2.750   1.114  0.2069 -0.2502 -0.0232
    1SOL    HW2 2686   3.092   2.794   1.149  1.3626  0.6393  1.4641
    1SOL    HW3 2687   3.160   2.758   1.019 -1.7223 -0.5103  0.1163
    1SOL    MW4 2688   3.158   2.757   1.106  0.1047 -0.1674  0.1913
    1SOL     OW 2689   3.429   2.826   1.224 -0.1650 -0.4045  0.0305
    1SOL    HW2 2690   3.423   2.920   1.209 -1.7817 -0.4253  0.4156
    1SOL    HW3 2691   3.353   2.790   1.179  0.6200 -1.5596 -0.3799
    1SOL    MW4 2692   3.418   2.834   1.216 -0.2744 -0.5598  0.0271
    1SOL     OW 2693   3.394   3.096   1.155  0.4748  0.3157  0.4441
    1SOL    HW2 2694   3.469   3.148   1.184  2.0789 -0.8086 -1.4852
    1SOL    HW3 2695   3.319   3.153   1.166  1.7469  1.7959  1.6106
    1SOL    MW4 2696   3.394   3.110   1.160  0.8543  0.3626  0.3433
    1SOL     OW 2697   3.180   3.269   1.223 -0.3457 -0.3733 -0.0562
    1SOL    HW2 2698   3.174   3.363   1.206  0.1388 -0.4812 -0.8321
    1SOL    HW3 2699   3.092   3.235   1.207  0.3355 -0.6745 -3.6128
    1SOL    MW4 2700   3.168   3.277   1.219 -0.1919 -0.4275 -0.6278
    1SOL     OW 2701   3.150   3.530   1.164 -0.1890 -0.1527 -0.4049
    1SOL    HW2 2702   3.223   3.589   1.183 -0.8534  0.8083 -0.8287
    1SOL    HW3 2703   3.164   3.501   1.074 -0.6486  0.5151 -0.7000
    1SOL    MW4 2704   3.161   3.534   1.155 -0.3374  0.0622 -0.4997
    1SOL     OW 2705   3.417   3.628   1.203  0.1449 -0.1256 -0.1992
    1SOL    HW2 2706   3.419   3.634   1.298 -1.8237 -1.8112 -0.0147
    1SOL    HW3 2707   3.487   3.567   1.181 -0.2388 -0.7239  0.2554
    1SOL    MW4 2708   3.427   3.621   1.212 -0.1655 -0.4268 -0.1149
    1SOL     OW 2709   3.398   3.883   1.079 -0.0508 -0.0610 -0.1433
    1SOL    HW2 2710   3.319   3.914   1.124  0.7559 -0.2202  1.4174
    1SOL    HW3 2711   3.417   3.799   1.119  0.0584 -0.7510 -1.5962
    1SOL    MW4 2712   3.390   3.876   1.090  0.0699 -0.1731 -0.1292
    1SOL     OW 2713   3.169   3.964   1.200  0.5908 -0.6362  0.4332
    1SOL    HW2 2714   3.172   3.986   1.293  0.1379 -0.4592  0.4036
    1SOL    HW3 2715   3.159   4.048   1.155 -1.1239 -0.8729  0.3233
    1SOL    MW4 2716   3.168   3.978   1.206  0.3052 -0.6442  0.4150
    1SOL     OW 2717   3.121   4.220   1.101 -0.2986  0.5775  0.0841
    1SOL    HW2 2718   3.185   4.285   1.129  1.4990 -1.2308  0.2203
    1SOL    HW3 2719   3.128   4.220   1.006 -0.5310  0.7979  0.0655
    1SOL    MW4 2720   3.130   4.229   1.092 -0.0923  0.3686  0.0997
    1SOL     OW 2721   3.326   4.371   1.198 -0.3137  0.4747 -0.3902
    1SOL    HW2 2722   3.402   4.331   1.158  0.5316 -0.2411  1.8468
    1SOL    HW3 2723   3.331   4.463   1.172  1.3286  0.4356 -0.2819
    1SOL    MW4 2724   3.337   4.378   1.189  0.0143  0.3753 -0.0806
    1SOL     OW 2725   3.842   4.642   1.107 -0.0444  0.3748 -0.3059
    1SOL    HW2 2726   3.831   4.556   1.149 -0.8590  0.9682  0.6981
    1SOL    HW3 2727   3.827   4.625   1.014  1.7071 -0.9348 -0.3816
    1SOL    MW4 2728   3.839   4.628   1.101  0.0794  0.2804 -0.1833
    1SOL     OW 2729   3.605   0.085   1.216  0.2637 -0.2233  0.1316
    1SOL    HW2 2730   3.606   0.178   1.193  0.5677 -0.5549 -1.2338
    1SOL    HW3 2731   3.687   0.051   1.180  0.2989 -0.9604  0.9040
    1SOL    MW4 2732   3.616   0.093   1.209  0.3085 -0.3643  0.0533
    1SOL     OW 2733   3.618   0.347   1.153 -0.6433 -0.0387 -0.4378
    1SOL    HW2 2734   3.690   0.403   1.181 -0.1918 -0.5295 -0.6188
    1SOL    HW3 2735   3.541   0.383   1.198 -0.0583 -0.3469  0.8180
    1SOL    MW4 2736   3.617   0.359   1.162 -0.5062 -0.1441 -0.2959
    1SOL     OW 2737   3.832   0.501   1.243  0.0740  0.0401 -0.2065
    1SOL    HW2 2738   3.919   0.464   1.227  0.2518 -0.6739  2.2330
    1SOL    HW3 2739   3.836   0.590   1.208  1.1172 -0.6927 -1.9725
    1SOL    MW4 2740   3.844   0.508   1.236  0.2348 -0.1508 -0.1177
    1SOL     OW 2741   3.815   0.753   1.098  0.2415 -0.3401  0.0600
    1SOL    HW2 2742   3.894   0.794   1.133  0.6024  1.4782 -2.7343
    1SOL    HW3 2743   3.743   0.798   1.142  0.6980  1.4586 -0.9859
    1SOL    MW4 2744   3.816   0.765   1.108  0.3493  0.1372 -0.4467
    1SOL     OW 2745   3.585   0.855   1.223 -0.4053  0.3526  0.1662
    1SOL    HW2 2746   3.578   0.937   1.175 -1.8292  0.9677  1.3903
    1SOL    HW3 2747   3.522   0.797   1.181  0.0582  0.1158 -0.2125
    1SOL    MW4 2748   3.576   0.858   1.211 -0.5319  0.4026  0.2776
    1SOL     OW 2749   3.605   1.129   1.118  0.5931 -0.8224  0.2929
    1SOL    HW2 2750   3.676   1.189   1.139 -0.4852 -0.1388  2.0424
    1SOL    HW3 2751   3.527   1.167   1.159 -1.0467 -0.9435 -2.5633
    1SOL    MW4 2752   3.604   1.142   1.126  0.2346 -0.7483  0.1469
    1SOL     OW 2753   3.848   1.275   1.193  0.1238 -0.1642  0.2234
    1SOL    HW2 2754   3.845   1.268   1.288  0.2394  2.0224  0.4119
    1SOL    HW3 2755   3.839   1.368   1.175  2.1685 -0.3082 -1.8235
    1SOL    MW4 2756   3.846   1.286   1.203  0.4091  0.1051 -0.0217
    1SOL     OW 2757   3.836   1.556   1.154  0.2421  0.5263 -0.1310
    1SOL    HW2 2758   3.919   1.593   1.184  0.7928 -0.7661 -0.0292
    1SOL    HW3 2759   3.849   1.541   1.060  0.1267  0.3106 -0.1128
    1SOL    MW4 2760   3.849   1.559   1.145  0.2995  0.3272 -0.1153
    1SOL     OW 2761   3.591   1.640   1.261  0.3182 -0.1555 -0.3894
    1SOL    HW2 2762   3.621   1.730   1.250 -0.7059  0.1944 -0.3687
    1SOL    HW3 2763   3.669   1.586   1.244  0.7051  0.6862 -1.3162
    1SOL    MW4 2764   3.606   1.644   1.258  0.2344  0.0017 -0.5090
    1SOL     OW 2765   3.625   1.918   1.244  0.4295 -0.2870 -0.3316
    1SOL    HW2 2766   3.692   1.973   1.285 -0.6457  0.7617  0.0730
    1SOL    HW3 2767   3.647   1.918   1.151  0.7209  0.4623 -0.2677
    1SOL    MW4 2768   3.637   1.925   1.237  0.3262 -0.0498 -0.2698
    1SOL     OW 2769   3.874   2.090   1.253 -0.2839 -0.0060 -0.4486
    1SOL    HW2 2770   3.900   2.091   1.346 -0.4474 -0.1833 -0.4015
    1SOL    HW3 2771   3.939   2.034   1.211 -1.1159 -1.1957 -0.1751
    1SOL    MW4 2772   3.886   2.083   1.260 -0.4151 -0.1862 -0.4064
    1SOL     OW 2773   3.856   2.324   1.102 -0.0396  0.3180  0.2660
    1SOL    HW2 2774   3.927   2.367   1.150  0.2722 -0.5627  0.6022
    1SOL    HW3 2775   3.865   2.232   1.125 -1.2309  0.1920  0.2148
    1SOL    MW4 2776   3.867   2.318   1.112 -0.1554  0.1853  0.3037
    1SOL     OW 2777   3.598   2.395   1.184  0.0960  0.0171  0.6569
    1SOL    HW2 2778   3.604   2.392   1.279 -0.1174 -1.1849  0.6491
    1SOL    HW3 2779   3.684   2.366   1.154  0.6238  1.7284  0.4674
    1SOL    MW4 2780   3.610   2.391   1.193  0.1373  0.0842  0.6310
    1SOL     OW 2781   3.586   2.650   1.070  0.4732 -0.1842 -0.0937
    1SOL    HW2 2782   3.572   2.563   1.109 -1.5086 -0.2422 -0.8978
    1SOL    HW3 2783   3.534   2.709   1.125  1.8912  0.5290  0.5035
    1SOL    MW4 2784   3.577   2.646   1.083  0.3986 -0.0978 -0.1209
    1SOL     OW 2785   3.800   2.804   1.226  0.4879  0.1731 -0.1516
    1SOL    HW2 2786   3.783   2.820   1.319 -0.5119  0.8572 -0.4387
    1SOL    HW3 2787   3.742   2.732   1.202  1.1670 -0.3899 -0.1089
    1SOL    MW4 2788   3.790   2.797   1.235  0.4456  0.1891 -0.1838
    1SOL     OW 2789   3.821   3.069   1.125  0.0213 -0.2598  0.5253
    1SOL    HW2 2790   3.804   2.990   1.177  0.8675 -0.3724  0.6370
    1SOL    HW3 2791   3.808   3.041   1.034  2.4720 -1.1113  0.4074
    1SOL    MW4 2792   3.817   3.055   1.120  0.4566 -0.3870  0.5245
    1SOL     OW 2793   3.631   3.213   1.241 -0.2829  0.3960  0.0820
    1SOL    HW2 2794   3.645   3.304   1.213  0.4678  0.2563 -0.0120
    1SOL    HW3 2795   3.705   3.165   1.204  0.2319  0.0438  1.4989
    1SOL    MW4 2796   3.643   3.219   1.233 -0.1161  0.3309  0.2565
    1SOL     OW 2797   3.648   3.459   1.121 -0.2365  0.6445  0.0174
    1SOL    HW2 2798   3.713   3.525   1.141  0.0442  0.9319 -1.7246
    1SOL    HW3 2799   3.644   3.457   1.025 -2.1241 -0.0068  0.0717
    1SOL    MW4 2800   3.656   3.467   1.111 -0.4485  0.5965 -0.2053
    1SOL     OW 2801   3.848   3.638   1.227  0.2874 -0.1111 -0.2687
    1SOL    HW2 2802   3.834   3.638   1.322 -1.7761 -0.3076 -0.5598
    1SOL    HW3 2803   3.850   3.731   1.203  1.1591 -0.0535 -0.0007
    1SOL    MW4 2804   3.847   3.650   1.236  0.1304 -0.1295 -0.2716
    1SOL     OW 2805   3.826   3.902   1.154  0.3753  1.1476  0.1995
    1SOL    HW2 2806   3.741   3.937   1.183  0.1313  0.9153 -0.2151
    1SOL    HW3 2807   3.819   3.901   1.058  0.8071  1.0224  0.1691
    1SOL    MW4 2808   3.814   3.907   1.145  0.4001  1.1005  0.1407
    1SOL     OW 2809   3.589   4.040   1.220 -0.4049 -0.4641  0.0704
    1SOL    HW2 2810   3.594   4.021   1.313  0.6612 -1.8329 -0.2483
    1SOL    HW3 2811   3.538   3.968   1.183 -2.3345  0.9938 -0.1579
    1SOL    MW4 2812   3.583   4.028   1.227 -0.5188 -0.4520 -0.0018
    1SOL     OW 2813   3.580   4.286   1.096  0.0529  0.0826  0.1032
    1SOL    HW2 2814   3.583   4.201   1.139 -1.8611 -0.2339 -0.3694
    1SOL    HW3 2815   3.588   4.266   1.003  0.3846  0.4833  0.0429
    1SOL    MW4 2816   3.582   4.272   1.089 -0.1557  0.0939  0.0328
    1SOL     OW 2817   3.826   4.367   1.212  0.0868  0.1121 -0.2030
    1SOL    HW2 2818   3.807   4.385   1.304  1.9161 -1.3749  0.4988
    1SOL    HW3 2819   3.743   4.333   1.177 -0.6066  0.6474  0.8950
    1SOL    MW4 2820   3.812   4.365   1.220  0.2365 -0.0129  0.0345
    1SOL     OW 2821   4.299   0.018   1.119  0.3967  0.3302  0.2763
    1SOL    HW2 2822   4.298  -0.069   1.159 -0.1118  0.7284  1.1415
    1SOL    HW3 2823   4.218   0.060   1.150 -0.3369  0.4264 -1.6526
    1SOL    MW4 2824   4.288   0.012   1.128  0.2332  0.3963  0.1358
    1SOL     OW 2825   4.072   0.094   1.242 -0.3346 -0.0982  0.2887
    1SOL    HW2 2826   4.056   0.076   1.334 -1.7271 -0.7949 -0.0799
    1SOL    HW3 2827   3.994   0.062   1.197 -0.4011  1.7419 -0.9612
    1SOL    MW4 2828   4.060   0.087   1.248 -0.5274  0.0527  0.0751
    1SOL     OW 2829   4.058   0.367   1.159  0.5938  0.5674  0.5715
    1SOL    HW2 2830   4.061   0.272   1.171  1.0405  0.6397  1.0397
    1SOL    HW3 2831   4.071   0.380   1.065 -0.9516  0.0917  0.2750
    1SOL    MW4 2832   4.060   0.356   1.149  0.4492  0.5142  0.5941
    1SOL     OW 2833   4.291   0.494   1.253 -0.2907  0.1893  0.2866
    1SOL    HW2 2834   4.289   0.500   1.348 -0.0374  0.4752  0.2757
    1SOL    HW3 2835   4.207   0.453   1.230 -0.2060 -0.1918  0.6495
    1SOL    MW4 2836   4.280   0.490   1.262 -0.2460  0.1767  0.3330
    1SOL     OW 2837   4.293   0.761   1.159  0.2246  0.3121 -0.0638
    1SOL    HW2 2838   4.282   0.666   1.169 -1.4332  0.5887  0.8446
    1SOL    HW3 2839   4.271   0.778   1.067 -0.2513 -0.0830 -0.0239
    1SOL    MW4 2840   4.289   0.751   1.148 -0.0577  0.2964  0.0614
    1SOL     OW 2841   4.036   0.874   1.227 -0.0071  0.3546 -0.0420
    1SOL    HW2 2842   4.039   0.886   1.321 -1.3584 -2.2632  0.3819
    1SOL    HW3 2843   4.123   0.839   1.205 -0.3293 -0.8032  0.5099
    1SOL    MW4 2844   4.048   0.871   1.236 -0.2275 -0.1436  0.0865
    1SOL     OW 2845   4.038   1.110   1.084 -0.5873 -0.2732 -0.3846
    1SOL    HW2 2846   4.016   1.025   1.120 -1.7263  0.2647  0.2297
    1SOL    HW3 2847   3.985   1.172   1.134  2.1181  1.0762  0.9494
    1SOL    MW4 2848   4.028   1.107   1.095 -0.3805 -0.0242 -0.1274
    1SOL     OW 2849   4.251   1.236   1.213  0.1597 -0.2107 -0.0577
    1SOL    HW2 2850   4.228   1.240   1.306 -1.4884  0.5712 -0.4730
    1SOL    HW3 2851   4.187   1.177   1.175  0.6927 -0.3545 -0.7360
    1SOL    MW4 2852   4.240   1.229   1.220  0.0124 -0.1267 -0.2019
    1SOL     OW 2853   4.265   1.510   1.143  0.3347  0.1134  0.4468
    1SOL    HW2 2854   4.268   1.416   1.163 -0.0904 -0.3625 -1.6609
    1SOL    HW3 2855   4.344   1.545   1.184 -1.3255 -0.4974  4.4226
    1SOL    MW4 2856   4.276   1.502   1.151  0.0601 -0.0299  0.6934
    1SOL     OW 2857   4.061   1.662   1.256 -0.1153 -0.5652  0.3614
    1SOL    HW2 2858   4.051   1.656   1.351 -1.6289 -0.3956  0.2297
    1SOL    HW3 2859   4.133   1.603   1.235 -0.6946 -1.6890  1.4585
    1SOL    MW4 2860   4.069   1.654   1.266 -0.3915 -0.6911  0.4889
    1SOL     OW 2861   4.059   1.918   1.128 -0.3984  0.4716  0.0888
    1SOL    HW2 2862   4.059   1.828   1.163  0.4266  0.8522  1.0740
    1SOL    HW3 2863   4.025   1.908   1.039  0.1603 -0.8973  0.0025
    1SOL    MW4 2864   4.054   1.905   1.121 -0.2155  0.3412  0.2074
    1SOL     OW 2865   4.271   2.066   1.240 -0.2501  0.4268  0.1957
    1SOL    HW2 2866   4.279   2.149   1.195 -0.4858 -0.5882 -1.7732
    1SOL    HW3 2867   4.218   2.011   1.182  0.4153 -1.2972  1.1505
    1SOL    MW4 2868   4.265   2.069   1.227 -0.1936  0.0653  0.0619
    1SOL     OW 2869   4.274   2.316   1.112 -0.6036  0.0487 -0.2901
    1SOL    HW2 2870   4.202   2.365   1.152 -0.6827  0.4942 -0.9752
    1SOL    HW3 2871   4.249   2.305   1.021 -0.1233 -0.4039 -0.3709
    1SOL    MW4 2872   4.261   2.321   1.106 -0.5498  0.0479 -0.3911
    1SOL     OW 2873   4.059   2.468   1.243  0.4808 -0.1943  0.2020
    1SOL    HW2 2874   4.041   2.467   1.337 -1.5274 -1.2237 -0.1523
    1SOL    HW3 2875   4.058   2.561   1.220  0.2002  0.0301  1.0695
    1SOL    MW4 2876   4.056   2.480   1.253  0.1783 -0.3006  0.2699
    1SOL     OW 2877   4.061   2.725   1.156 -0.3090  0.4215  0.1961
    1SOL    HW2 2878   3.978   2.747   1.199 -0.2126  0.0800  0.5587
    1SOL    HW3 2879   4.046   2.744   1.063 -1.1208 -0.6171  0.1135
    1SOL    MW4 2880   4.048   2.731   1.150 -0.4034  0.2396  0.2331
    1SOL     OW 2881   4.329   2.819   1.186 -0.0917  0.2438  0.1658
    1SOL    HW2 2882   4.320   2.915   1.181  0.1454  0.3388  1.3940
    1SOL    HW3 2883   4.240   2.786   1.173 -0.7772  0.7919  3.0882
    1SOL    MW4 2884   4.316   2.828   1.184 -0.1512  0.3285  0.7135
    1SOL     OW 2885   4.284   3.104   1.139  0.0297  0.4294  0.2775
    1SOL    HW2 2886   4.205   3.150   1.167 -0.3154 -0.3506  0.5920
    1SOL    HW3 2887   4.281   3.106   1.044 -0.1949  0.6800  0.2883
    1SOL    MW4 2888   4.273   3.111   1.130 -0.0458  0.3595  0.3204
    1SOL     OW 2889   4.039   3.206   1.221  0.0781 -0.0643  0.2264
    1SOL    HW2 2890   4.045   3.200   1.317  0.4914  0.8960  0.2684
    1SOL    HW3 2891   3.964   3.152   1.198  0.1215 -0.5003  1.0738
    1SOL    MW4 2892   4.030   3.198   1.231  0.1388  0.0048  0.3437
    1SOL     OW 2893   4.010   3.439   1.087 -0.1449  0.0081  0.0581
    1SOL    HW2 2894   4.004   3.353   1.129 -2.2195 -0.0928 -0.3954
    1SOL    HW3 2895   3.952   3.495   1.138  0.5029  0.9187 -0.1955
    1SOL    MW4 2896   4.001   3.435   1.099 -0.3328  0.1149 -0.0352
    1SOL     OW 2897   4.249   3.560   1.211 -0.3126  0.1201  0.4919
    1SOL    HW2 2898   4.190   3.512   1.153 -1.0261  0.5255  0.8733
    1SOL    HW3 2899   4.336   3.525   1.191 -0.5394  0.2824 -0.8501
    1SOL    MW4 2900   4.253   3.549   1.200 -0.4368  0.1948  0.3653
    1SOL     OW 2901   4.251   3.839   1.154  0.3492  0.1956 -0.4267
    1SOL    HW2 2902   4.173   3.886   1.185  0.1304  0.3584 -1.2100
    1SOL    HW3 2903   4.240   3.750   1.188 -0.9288 -0.1847 -1.7420
    1SOL    MW4 2904   4.239   3.833   1.163  0.1516  0.1667 -0.7037
    1SOL     OW 2905   4.055   3.998   1.266  0.1252 -0.4893  0.0498
    1SOL    HW2 2906   4.071   4.084   1.228  1.3044 -0.5572  0.3587
    1SOL    HW3 2907   3.971   3.971   1.231 -0.4756  0.9893  0.3011
    1SOL    MW4 2908   4.046   4.006   1.257  0.2017 -0.3033  0.1236
    1SOL     OW 2909   4.068   4.263   1.145  0.2237 -0.0091  0.2234
    1SOL    HW2 2910   3.979   4.280   1.174  0.1001  0.1088 -0.2255
    1SOL    HW3 2911   4.060   4.240   1.053  0.4620 -1.7764  0.6192
    1SOL    MW4 2912   4.055   4.262   1.137  0.2389 -0.2270  0.2164
    1SOL     OW 2913   4.269   4.423   1.228 -0.1173  0.1953 -0.7123
    1SOL    HW2 2914   4.199   4.361   1.209  0.4080 -0.5600 -0.2273
    1SOL    HW3 2915   4.348   4.380   1.197  0.5214 -0.2934  1.4654
    1SOL    MW4 2916   4.270   4.409   1.222  0.0362  0.0310 -0.3610
    1SOL     OW 2917   0.257   4.605   1.610 -0.2386 -0.0363  0.1823
    1SOL    HW2 2918   0.324   4.666   1.579 -0.9358  1.4687  1.5534
    1SOL    HW3 2919   0.174   4.647   1.585 -0.7009 -0.9473  0.1958
    1SOL    MW4 2920   0.255   4.619   1.602 -0.3915  0.0420  0.3649
    1SOL     OW 2921   0.014   0.117   1.552 -0.0388  0.0986 -0.3039
    1SOL    HW2 2922  -0.070   0.072   1.568 -0.9439  1.6185 -0.6576
    1SOL    HW3 2923   0.032   0.100   1.459  0.6415 -1.1903  0.0536
    1SOL    MW4 2924   0.005   0.109   1.542 -0.0684  0.1291 -0.3035
    1SOL     OW 2925   0.052   0.385   1.598 -0.2900  0.0039 -0.7207
    1SOL    HW2 2926   0.054   0.379   1.693 -1.2392  1.9959 -0.5688
    1SOL    HW3 2927   0.045   0.294   1.569  2.3475 -0.8136  1.0097
    1SOL    MW4 2928   0.051   0.372   1.607 -0.0673  0.1589 -0.4724
    1SOL     OW 2929   0.258   0.526   1.499 -0.0013 -0.0903 -0.2012
    1SOL    HW2 2930   0.185   0.473   1.530  0.2865  0.1617  0.9542
    1SOL    HW3 2931   0.247   0.530   1.404 -0.3823 -1.6670 -0.2286
    1SOL    MW4 2932   0.247   0.519   1.491 -0.0136 -0.2651 -0.0525
    1SOL     OW 2933   0.265   0.783   1.612 -0.5389  0.2014 -0.8273
    1SOL    HW2 2934   0.340   0.826   1.570  0.0929  0.0067  0.0773
    1SOL    HW3 2935   0.267   0.694   1.577  0.3837 -0.1528  0.0971
    1SOL    MW4 2936   0.275   0.777   1.602 -0.3337  0.1290 -0.5859
    1SOL     OW 2937   0.026   0.863   1.505  0.0727  0.3104  0.3821
    1SOL    HW2 2938   0.008   0.954   1.530  0.5415  0.2292  1.0023
    1SOL    HW3 2939   0.109   0.842   1.547 -0.6287 -0.7945  1.2345
    1SOL    MW4 2940   0.034   0.872   1.514  0.0420  0.1539  0.5765
    1SOL     OW 2941   4.464   1.129   1.562 -0.1137  0.3385  0.1746
    1SOL    HW2 2942   4.471   1.133   1.657 -0.0001  1.2761  0.1337
    1SOL    HW3 2943   4.538   1.180   1.530 -0.8208  1.0362 -0.3923
    1SOL    MW4 2944   4.474   1.137   1.571 -0.1922  0.5543  0.0944
    1SOL     OW 2945   0.214   1.248   1.495  0.8238  0.0449 -0.0972
    1SOL    HW2 2946   0.238   1.332   1.536 -1.3993  0.0570  1.2260
    1SOL    HW3 2947   0.232   1.262   1.402  0.9789  1.8116  0.1672
    1SOL    MW4 2948   0.220   1.261   1.488  0.5509  0.2797  0.1123
    1SOL     OW 2949   0.252   1.517   1.545 -0.1935  0.0610  0.2382
    1SOL    HW2 2950   0.246   1.534   1.639 -0.0231 -0.2430  0.3062
    1SOL    HW3 2951   0.169   1.549   1.510 -0.1594  0.3924  0.4579
    1SOL    MW4 2952   0.241   1.523   1.553 -0.1665  0.0647  0.2761
    1SOL     OW 2953   0.010   1.660   1.504  0.3270  0.1825 -0.2222
    1SOL    HW2 2954   0.012   1.747   1.544 -1.6764  0.4264 -0.5833
    1SOL    HW3 2955   0.000   1.677   1.410 -0.3724 -0.4308 -0.2635
    1SOL    MW4 2956   0.009   1.674   1.497 -0.0296  0.1338 -0.2754
    1SOL     OW 2957   0.013   1.921   1.612  0.1139  0.8300 -0.2633
    1SOL    HW2 2958   0.011   1.900   1.705  2.7484  1.2450 -0.0834
    1SOL    HW3 2959  -0.065   1.974   1.598 -1.2946 -0.7629  1.3139
    1SOL    MW4 2960   0.003   1.925   1.622  0.2756  0.6747 -0.0315
    1SOL     OW 2961   0.236   2.037   1.502 -0.1405  0.4856 -0.1774
    1SOL    HW2 2962   0.154   1.997   1.531 -0.2708  1.2513  0.5328
    1SOL    HW3 2963   0.224   2.050   1.408 -0.8403  0.5947 -0.0757
    1SOL    MW4 2964   0.223   2.033   1.493 -0.2500  0.6011 -0.0702
    1SOL     OW 2965   0.212   2.294   1.589  0.3663  0.4688  0.1666
    1SOL    HW2 2966   0.209   2.271   1.682 -0.7525 -0.4215 -0.0775
    1SOL    HW3 2967   0.215   2.209   1.544  3.2756  0.8916 -0.5635
    1SOL    MW4 2968   0.212   2.279   1.595  0.6025  0.4072  0.0381
    1SOL     OW 2969   0.013   2.456   1.472 -0.2580  0.1948  0.1917
    1SOL    HW2 2970  -0.064   2.405   1.497  0.0980 -0.4631 -0.0512
    1SOL    HW3 2971   0.086   2.411   1.514  0.1076  0.2637 -0.3719
    1SOL    MW4 2972   0.012   2.444   1.481 -0.1626  0.1171  0.0852
    1SOL     OW 2973   4.490   2.689   1.607 -0.0216 -0.2464  0.0510
    1SOL    HW2 2974   4.418   2.731   1.559 -0.2467 -1.4793 -0.7251
    1SOL    HW3 2975   4.502   2.605   1.562  1.4683 -0.3284  0.5845
    1SOL    MW4 2976   4.482   2.683   1.595  0.1459 -0.4199  0.0188
    1SOL     OW 2977   0.222   2.859   1.497 -0.2674  0.3041  0.0085
    1SOL    HW2 2978   0.296   2.813   1.536  0.5121  1.2205 -0.3817
    1SOL    HW3 2979   0.145   2.811   1.528  0.5575 -1.6033 -0.8556
    1SOL    MW4 2980   0.222   2.847   1.506 -0.0557  0.1733 -0.1570
    1SOL     OW 2981   0.256   3.099   1.614 -0.3949 -0.0556 -0.0487
    1SOL    HW2 2982   0.189   3.151   1.571  1.2611  0.9536 -1.4959
    1SOL    HW3 2983   0.248   3.012   1.575  0.0858  0.4481 -1.2907
    1SOL    MW4 2984   0.246   3.094   1.604 -0.1130  0.1440 -0.4033
    1SOL     OW 2985   0.047   3.220   1.470  0.0923 -0.4194 -0.4757
    1SOL    HW2 2986   0.045   3.313   1.494  1.6517 -0.0998 -1.5106
    1SOL    HW3 2987   0.045   3.220   1.375 -0.5456 -1.4795 -0.4654
    1SOL    MW4 2988   0.047   3.232   1.461  0.2139 -0.5171 -0.6107
    1SOL     OW 2989   0.021   3.480   1.575 -0.0813 -0.0390 -0.0196
    1SOL    HW2 2990   0.002   3.480   1.669  1.0434  0.8991  0.2093
    1SOL    HW3 2991  -0.052   3.529   1.537 -0.6973 -0.6714  0.3183
    1SOL    MW4 2992   0.009   3.486   1.583 -0.0141  0.0012  0.0551
    1SOL     OW 2993   0.242   3.607   1.471  0.1468  0.0388 -0.1139
    1SOL    HW2 2994   0.252   3.695   1.509  1.3306 -0.3125  0.4206
    1SOL    HW3 2995   0.178   3.564   1.528 -0.5237  0.5902 -0.4456
    1SOL    MW4 2996   0.235   3.613   1.484  0.2145  0.0653 -0.0871
    1SOL     OW 2997   0.230   3.874   1.576 -0.2033  0.2928 -0.0927
    1SOL    HW2 2998   0.232   3.879   1.671 -0.6091  1.5002 -0.1444
    1SOL    HW3 2999   0.313   3.913   1.548  0.4628 -1.1620 -0.2012
    1SOL    MW4 3000   0.241   3.880   1.585 -0.1689  0.2601 -0.1138
    1SOL     OW 3001   4.469   3.987   1.463  0.1715  0.0664 -0.5347
    1SOL    HW2 3002   4.467   4.072   1.507  1.0308 -0.1588 -0.0407
    1SOL    HW3 3003   4.542   3.941   1.504 -1.4175 -1.6105  0.4856
    1SOL    MW4 3004   4.478   3.992   1.474  0.0752 -0.1843 -0.3349
    1SOL     OW 3005   0.002   4.228   1.602 -0.6986  0.5952 -0.2344
    1SOL    HW2 3006  -0.013   4.217   1.696 -1.9174 -1.0104 -0.5970
    1SOL    HW3 3007  -0.075   4.273   1.570 -1.3878 -0.9736 -0.8440
    1SOL    MW4 3008  -0.010   4.232   1.610 -0.9503  0.1764 -0.3628
    1SOL     OW 3009   0.230   4.363   1.490 -0.3540 -0.4507  0.2277
    1SOL    HW2 3010   0.165   4.315   1.541 -0.2972  0.5102  1.2243
    1SOL    HW3 3011   0.231   4.451   1.529  1.3584 -0.3816  0.0634
    1SOL    MW4 3012   0.222   4.368   1.502 -0.1206 -0.3147  0.3376
    1SOL     OW 3013   0.684   0.013   1.593 -0.4700 -0.1208 -0.6046
    1SOL    HW2 3014   0.756   0.066   1.560 -0.8489 -0.2177 -1.6179
    1SOL    HW3 3015   0.606   0.066   1.577 -0.7361 -0.4825 -0.5307
    1SOL    MW4 3016   0.683   0.027   1.587 -0.5551 -0.1812 -0.7286
    1SOL     OW 3017   0.439   0.115   1.522  0.0656 -0.3483  0.6263
    1SOL    HW2 3018   0.451   0.200   1.563  0.3246 -0.4401  0.7435
    1SOL    HW3 3019   0.452   0.131   1.428 -4.3843  0.6215  0.0764
    1SOL    MW4 3020   0.443   0.128   1.515 -0.4874 -0.2324  0.5693
    1SOL     OW 3021   0.482   0.389   1.575 -0.2040  0.2697 -0.5852
    1SOL    HW2 3022   0.556   0.440   1.542  0.7679 -0.3484  0.6024
    1SOL    HW3 3023   0.406   0.444   1.559  0.6161  1.3017 -0.9891
    1SOL    MW4 3024   0.482   0.403   1.568  0.0325  0.3243 -0.4818
    1SOL     OW 3025   0.693   0.530   1.475  0.0639 -0.0281  0.3818
    1SOL    HW2 3026   0.692   0.621   1.503 -1.9059  0.1975 -0.3013
    1SOL    HW3 3027   0.693   0.535   1.379 -0.1041 -0.7414  0.3415
    1SOL    MW4 3028   0.693   0.543   1.466 -0.2182 -0.0923  0.2865
    1SOL     OW 3029   0.730   0.793   1.565 -0.2984 -0.5140 -0.2146
    1SOL    HW2 3030   0.723   0.790   1.660 -2.1379 -0.4426 -0.3403
    1SOL    HW3 3031   0.803   0.853   1.548 -2.0722  2.0966  1.1014
    1SOL    MW4 3032   0.739   0.801   1.575 -0.7751 -0.1602 -0.0576
    1SOL     OW 3033   0.484   0.903   1.480 -0.0564 -0.2328  0.6404
    1SOL    HW2 3034   0.477   0.981   1.535 -0.5987  0.9256 -1.0341
    1SOL    HW3 3035   0.567   0.863   1.506  0.0988  0.7554  1.7191
    1SOL    MW4 3036   0.494   0.908   1.491 -0.1075  0.0504  0.5617
    1SOL     OW 3037   0.454   1.144   1.600 -0.1875  0.5275  0.1107
    1SOL    HW2 3038   0.522   1.198   1.560  0.6513 -1.9718 -1.9809
    1SOL    HW3 3039   0.373   1.170   1.556  0.1249  0.4733 -0.5031
    1SOL    MW4 3040   0.452   1.154   1.589 -0.0356  0.1906 -0.2463
    1SOL     OW 3041   0.671   1.294   1.486 -0.0298  0.2247 -0.1465
    1SOL    HW2 3042   0.687   1.386   1.507  0.2602  0.0200  0.5469
    1SOL    HW3 3043   0.673   1.291   1.390  0.6874  0.8111 -0.1614
    1SOL    MW4 3044   0.674   1.306   1.476  0.1031  0.2749 -0.0570
    1SOL     OW 3045   0.696   1.558   1.561  0.4287 -0.5399 -0.1188
    1SOL    HW2 3046   0.760   1.613   1.516  0.7484  0.0710  1.0671
    1SOL    HW3 3047   0.611   1.586   1.526  0.7775 -1.2754 -1.6132
    1SOL    MW4 3048   0.693   1.569   1.550  0.5169 -0.5563 -0.1596
    1SOL     OW 3049   0.466   1.677   1.459 -0.3902  0.1429  0.6216
    1SOL    HW2 3050   0.447   1.760   1.502 -0.0883  0.7682 -0.4235
    1SOL    HW3 3051   0.389   1.622   1.477 -0.6496  0.6919  1.2050
    1SOL    MW4 3052   0.453   1.681   1.467 -0.3846  0.2978  0.5606
    1SOL     OW 3053   0.454   1.927   1.589  0.4907  0.1958 -0.2748
    1SOL    HW2 3054   0.448   1.934   1.684  1.7855  0.7892 -0.2353
    1SOL    HW3 3055   0.371   1.962   1.557  0.0675  0.0306  0.6262
    1SOL    MW4 3056   0.442   1.932   1.597  0.6057  0.2524 -0.1506
    1SOL     OW 3057   0.679   2.036   1.477  0.1420 -0.2001 -0.3388
    1SOL    HW2 3058   0.755   2.007   1.527  0.6013  0.7589 -0.4724
    1SOL    HW3 3059   0.604   2.009   1.530  0.6056  0.0492  0.4568
    1SOL    MW4 3060   0.679   2.029   1.491  0.2638 -0.0408 -0.2515
    1SOL     OW 3061   0.662   2.313   1.580 -0.1648  0.5241  0.3023
    1SOL    HW2 3062   0.580   2.341   1.539  0.6345  0.0988 -1.6480
    1SOL    HW3 3063   0.671   2.221   1.555  0.9836  0.6086  0.3733
    1SOL    MW4 3064   0.652   2.304   1.571  0.0922  0.4787  0.0545
    1SOL     OW 3065   0.412   2.428   1.473 -0.0642 -0.1559 -0.7869
    1SOL    HW2 3066   0.414   2.510   1.522  0.9297 -0.4626 -0.2875
    1SOL    HW3 3067   0.345   2.375   1.516 -0.5843  0.3250 -1.0022
    1SOL    MW4 3068   0.404   2.432   1.485 -0.0016 -0.1330 -0.7495
    1SOL     OW 3069   0.422   2.696   1.572  0.2246  0.6411 -0.4223
    1SOL    HW2 3070   0.441   2.690   1.666  1.1611 -0.7188 -0.6839
    1SOL    HW3 3071   0.493   2.750   1.537  0.7115 -0.1087 -0.5871
    1SOL    MW4 3072   0.434   2.702   1.580  0.4123  0.3626 -0.4786
    1SOL     OW 3073   0.669   2.820   1.521  0.4076 -0.3772 -0.2771
    1SOL    HW2 3074   0.686   2.908   1.554 -1.6399 -0.6330  1.5787
    1SOL    HW3 3075   0.671   2.829   1.426 -1.1682  1.9792 -0.1182
    1SOL    MW4 3076   0.671   2.832   1.513 -0.0705 -0.1001 -0.0113
    1SOL     OW 3077   0.691   3.080   1.611  0.1185  0.5095  0.0010
    1SOL    HW2 3078   0.768   3.127   1.577  0.5617  0.1145  0.4443
    1SOL    HW3 3079   0.617   3.133   1.584  0.5138  0.6187 -0.8957
    1SOL    MW4 3080   0.691   3.093   1.603  0.2291  0.4718 -0.0589
    1SOL     OW 3081   0.464   3.243   1.508 -0.0405  0.2163 -0.0002
    1SOL    HW2 3082   0.387   3.192   1.535 -0.3227  0.8381  0.3900
    1SOL    HW3 3083   0.456   3.249   1.413  0.5238 -1.2998 -0.1565
    1SOL    MW4 3084   0.453   3.237   1.499 -0.0032  0.0982  0.0306
    1SOL     OW 3085   0.457   3.502   1.619  0.4399  0.7660  0.3110
    1SOL    HW2 3086   0.452   3.408   1.601  0.8737  0.8181 -0.1113
    1SOL    HW3 3087   0.380   3.539   1.576  1.0257  0.7823 -0.7577
    1SOL    MW4 3088   0.446   3.495   1.611  0.5744  0.7751  0.1142
    1SOL     OW 3089   0.699   3.640   1.523 -0.3023 -0.0761 -0.4231
    1SOL    HW2 3090   0.770   3.583   1.551  0.3603  1.0186  0.1718
    1SOL    HW3 3091   0.620   3.596   1.553  0.1323 -1.1873 -0.8791
    1SOL    MW4 3092   0.698   3.627   1.531 -0.1576 -0.0782 -0.4050
    1SOL     OW 3093   0.725   3.911   1.591  0.4649 -0.1732 -0.1744
    1SOL    HW2 3094   0.811   3.937   1.557  0.2400 -0.9466 -1.3660
    1SOL    HW3 3095   0.712   3.822   1.559 -0.5881 -0.2305  0.3757
    1SOL    MW4 3096   0.735   3.903   1.582  0.2964 -0.2830 -0.2590
    1SOL     OW 3097   0.463   4.013   1.508  0.0319 -0.4395 -0.3912
    1SOL    HW2 3098   0.553   3.989   1.529  0.7947  2.6460  0.0814
    1SOL    HW3 3099   0.463   4.027   1.413 -0.1367 -1.0981 -0.4933
    1SOL    MW4 3100   0.475   4.011   1.498  0.1103 -0.1192 -0.3422
    1SOL     OW 3101   0.465   4.263   1.612  0.2255 -0.0453  0.2398
    1SOL    HW2 3102   0.467   4.171   1.583  1.8129  0.1859 -0.4369
    1SOL    HW3 3103   0.388   4.300   1.570  0.1049 -0.8295 -0.2379
    1SOL    MW4 3104   0.455   4.255   1.603  0.4190 -0.1183  0.0874
    1SOL     OW 3105   0.664   4.396   1.515 -0.2894  0.0775 -0.0934
    1SOL    HW2 3106   0.583   4.362   1.553  0.7241 -0.6022  1.5174
    1SOL    HW3 3107   0.662   4.490   1.534  0.1807 -0.2492  1.6184
    1SOL    MW4 3108   0.653   4.404   1.522 -0.0936 -0.0548  0.3450
    1SOL     OW 3109   1.116   4.645   1.630 -0.1750 -0.4859 -0.0633
    1SOL    HW2 3110   1.115   4.659   1.725  2.5527  0.4377 -0.1397
    1SOL    HW3 3111   1.194   4.691   1.599  0.3887 -2.9081 -2.4226
    1SOL    MW4 3112   1.126   4.653   1.638  0.2594 -0.6836 -0.3847
    1SOL     OW 3113   0.918   0.154   1.486  0.2826  0.0665  0.0427
    1SOL    HW2 3114   0.929   0.243   1.519  1.0734  0.5768 -1.5544
    1SOL    HW3 3115   0.980   0.101   1.537 -0.5218  0.3337  1.3153
    1SOL    MW4 3116   0.927   0.158   1.498  0.2809  0.1691  0.0000
    1SOL     OW 3117   0.910   0.404   1.598  0.1435  0.1101  0.5199
    1SOL    HW2 3118   0.893   0.435   1.686 -1.6386 -1.7988  0.8753
    1SOL    HW3 3119   0.829   0.421   1.549  0.2037 -1.2011 -0.0585
    1SOL    MW4 3120   0.897   0.410   1.603 -0.0837 -0.3147  0.4905
    1SOL     OW 3121   1.130   0.533   1.472 -0.5459 -0.7597  0.3578
    1SOL    HW2 3122   1.127   0.623   1.504  0.1908 -0.3141 -0.8227
    1SOL    HW3 3123   1.063   0.488   1.523 -0.2939  0.2415  1.6002
    1SOL    MW4 3124   1.121   0.539   1.483 -0.4153 -0.5688  0.3659
    1SOL     OW 3125   1.135   0.783   1.578  0.6693  0.2698 -0.1219
    1SOL    HW2 3126   1.132   0.802   1.672  0.2959 -0.3832 -0.0002
    1SOL    HW3 3127   1.220   0.816   1.550  0.6956  0.6626  0.4016
    1SOL    MW4 3128   1.146   0.790   1.587  0.6236  0.2354 -0.0370
    1SOL     OW 3129   0.935   0.948   1.462 -0.0215 -0.2709 -0.0423
    1SOL    HW2 3130   1.001   0.892   1.502 -0.0058 -0.2519 -0.0415
    1SOL    HW3 3131   0.941   0.931   1.368  0.8247  0.6240 -0.1667
    1SOL    MW4 3132   0.945   0.939   1.455  0.0923 -0.1503 -0.0587
    1SOL     OW 3133   0.907   1.195   1.595  0.1210 -0.3486 -0.2958
    1SOL    HW2 3134   0.909   1.111   1.549 -0.8658 -0.1150 -0.7643
    1SOL    HW3 3135   0.827   1.238   1.565 -1.5606 -0.9770  3.0327
    1SOL    MW4 3136   0.897   1.190   1.585 -0.2310 -0.4007  0.0817
    1SOL     OW 3137   1.125   1.293   1.473 -0.0100  0.0057 -0.1074
    1SOL    HW2 3138   1.201   1.249   1.510 -0.0951  0.1830  0.2774
    1SOL    HW3 3139   1.051   1.261   1.525 -0.2901 -0.6696 -0.8996
    1SOL    MW4 3140   1.126   1.283   1.485 -0.0583 -0.0600 -0.1612
    1SOL     OW 3141   1.116   1.565   1.543 -0.1427  0.2366 -0.3762
    1SOL    HW2 3142   1.205   1.601   1.543  0.1954 -0.4867  1.8258
    1SOL    HW3 3143   1.122   1.484   1.492  0.3268  0.5019 -0.7430
    1SOL    MW4 3144   1.129   1.559   1.536 -0.0362  0.1763 -0.1342
    1SOL     OW 3145   0.893   1.714   1.454 -0.3739 -0.2935  0.1413
    1SOL    HW2 3146   0.965   1.661   1.489  1.1990  0.8037 -1.3488
    1SOL    HW3 3147   0.902   1.709   1.359 -1.8417  0.4395 -0.0543
    1SOL    MW4 3148   0.904   1.706   1.446 -0.3601 -0.0520 -0.0813
    1SOL     OW 3149   0.912   1.948   1.591 -0.5604  0.6892 -0.2334
    1SOL    HW2 3150   0.992   1.991   1.563 -0.2549  0.7155  0.6477
    1SOL    HW3 3151   0.909   1.867   1.541 -0.0635  0.7648 -0.3872
    1SOL    MW4 3152   0.922   1.943   1.581 -0.4545  0.7027 -0.1376
    1SOL     OW 3153   1.143   2.084   1.511 -0.0893  0.0727  0.3541
    1SOL    HW2 3154   1.220   2.038   1.546  0.1753  1.1434  1.1876
    1SOL    HW3 3155   1.143   2.169   1.555 -1.9407 -0.0303  0.6008
    1SOL    MW4 3156   1.153   2.089   1.521 -0.2986  0.2005  0.4967
    1SOL     OW 3157   1.113   2.338   1.610  0.1579 -0.0379 -0.4174
    1SOL    HW2 3158   1.178   2.399   1.575 -0.5650  0.0543 -1.6034
    1SOL    HW3 3159   1.029   2.380   1.594 -0.3955 -1.6009 -1.7860
    1SOL    MW4 3160   1.111   2.351   1.604 -0.0104 -0.2317 -0.7545
    1SOL     OW 3161   0.890   2.443   1.472 -0.3391  0.3385 -0.8743
    1SOL    HW2 3162   0.886   2.528   1.516  0.8426  0.1031 -0.3026
    1SOL    HW3 3163   0.812   2.397   1.502 -0.1080  0.5930  0.1219
    1SOL    MW4 3164   0.879   2.448   1.482 -0.1526  0.3412 -0.6676
    1SOL     OW 3165   0.920   2.713   1.598 -0.1374  0.1460 -0.4024
    1SOL    HW2 3166   0.928   2.704   1.693  0.7893 -0.5762 -0.5430
    1SOL    HW3 3167   0.846   2.773   1.586 -0.2395  0.2717  0.7713
    1SOL    MW4 3168   0.911   2.720   1.609 -0.0286  0.0675 -0.2661
    1SOL     OW 3169   1.155   2.826   1.511 -0.0168 -0.1938  0.0685
    1SOL    HW2 3170   1.153   2.915   1.545  1.5391 -0.5385  1.1330
    1SOL    HW3 3171   1.075   2.785   1.545 -0.0177  0.3796  0.7658
    1SOL    MW4 3172   1.144   2.832   1.520  0.1885 -0.1636  0.3009
    1SOL     OW 3173   1.117   3.082   1.600  0.2609  0.0383  0.3482
    1SOL    HW2 3174   1.118   3.092   1.695  1.1052 -0.5965  0.4163
    1SOL    HW3 3175   1.193   3.132   1.569  0.2091 -0.0686  0.0450
    1SOL    MW4 3176   1.127   3.090   1.608  0.3654 -0.0596  0.3171
    1SOL     OW 3177   0.911   3.201   1.487  0.2701 -0.7042  0.3709
    1SOL    HW2 3178   0.993   3.161   1.518  0.3222 -0.1151  1.0118
    1SOL    HW3 3179   0.908   3.179   1.394  0.8656 -1.2331  0.4700
    1SOL    MW4 3180   0.922   3.193   1.479  0.3555 -0.6962  0.4686
    1SOL     OW 3181   0.902   3.458   1.575  0.1580  0.1239 -0.0112
    1SOL    HW2 3182   0.989   3.491   1.552 -0.2077 -0.3143 -2.1107
    1SOL    HW3 3183   0.902   3.367   1.545 -1.0707  0.1564 -0.1203
    1SOL    MW4 3184   0.914   3.450   1.568 -0.0524  0.0703 -0.3026
    1SOL     OW 3185   1.120   3.619   1.508  0.0517 -0.5400 -0.1751
    1SOL    HW2 3186   1.201   3.577   1.538  0.7644 -0.1354 -1.4858
    1SOL    HW3 3187   1.132   3.628   1.414 -1.7913 -1.0057 -0.4610
    1SOL    MW4 3188   1.132   3.615   1.500 -0.0974 -0.5481 -0.3856
    1SOL     OW 3189   1.132   3.865   1.616  0.0993 -0.3688  0.7701
    1SOL    HW2 3190   1.216   3.896   1.582  0.6753 -0.5856  1.9979
    1SOL    HW3 3191   1.130   3.772   1.591  1.1345 -0.8727  2.4907
    1SOL    MW4 3192   1.143   3.857   1.608  0.3120 -0.4637  1.1592
    1SOL     OW 3193   0.957   4.020   1.488  0.1413  0.2625  0.5108
    1SOL    HW2 3194   0.957   4.097   1.546 -1.0038 -0.1658  1.1063
    1SOL    HW3 3195   1.022   3.962   1.526 -0.2512  0.1983  1.0996
    1SOL    MW4 3196   0.965   4.023   1.501 -0.0616  0.1979  0.6670
    1SOL     OW 3197   0.871   4.244   1.628 -0.0994 -0.1339  0.2437
    1SOL    HW2 3198   0.886   4.296   1.707  0.8754 -0.3672  0.2216
    1SOL    HW3 3199   0.793   4.283   1.588 -0.3991  0.2029  1.1363
    1SOL    MW4 3200   0.863   4.256   1.633 -0.0103 -0.1197  0.3586
    1SOL     OW 3201   1.117   4.393   1.539  0.1537  0.0615 -0.2489
    1SOL    HW2 3202   1.030   4.365   1.568  0.7584 -1.3297  0.2519
    1SOL    HW3 3203   1.126   4.482   1.573 -0.7548 -0.0731  0.3647
    1SOL    MW4 3204   1.106   4.401   1.547  0.1135 -0.1397 -0.1020
    1SOL     OW 3205   1.579   4.665   1.570  0.1304 -0.8036  0.1087
    1SOL    HW2 3206   1.576   4.660   1.666 -1.1975 -2.0353  0.0224
    1SOL    HW3 3207   1.496   4.707   1.546 -0.5121 -2.4343 -0.5942
    1SOL    MW4 3208   1.567   4.670   1.580 -0.1296 -1.1812  0.0044
    1SOL     OW 3209   1.327   0.129   1.519 -0.2940 -0.1034 -0.1554
    1SOL    HW2 3210   1.350   0.214   1.555 -0.4140  0.1759 -0.7246
    1SOL    HW3 3211   1.324   0.143   1.424 -0.4877 -0.6962 -0.2429
    1SOL    MW4 3212   1.329   0.142   1.511 -0.3355 -0.1447 -0.2420
    1SOL     OW 3213   1.359   0.418   1.585 -0.0432 -0.1093  0.1649
    1SOL    HW2 3214   1.435   0.457   1.541 -1.2949  0.5157 -1.5185
    1SOL    HW3 3215   1.284   0.463   1.546 -1.3505 -1.7496  0.7329
    1SOL    MW4 3216   1.359   0.429   1.574 -0.3808 -0.2432  0.0178
    1SOL     OW 3217   1.588   0.534   1.467 -0.1341 -0.0496  0.3901
    1SOL    HW2 3218   1.671   0.497   1.499 -0.0421  0.1924  0.4307
    1SOL    HW3 3219   1.587   0.512   1.374 -0.3549 -0.6693  0.5326
    1SOL    MW4 3220   1.599   0.526   1.459 -0.1513 -0.0994  0.4143
    1SOL     OW 3221   1.613   0.778   1.593 -0.1119  0.3210  0.0352
    1SOL    HW2 3222   1.594   0.766   1.686  1.0075 -0.7226  0.1412
    1SOL    HW3 3223   1.609   0.690   1.556 -0.8232  0.7676 -0.9535
    1SOL    MW4 3224   1.610   0.765   1.601 -0.0581  0.2422 -0.0812
    1SOL     OW 3225   1.371   0.916   1.494 -0.2042  0.0911 -0.1613
    1SOL    HW2 3226   1.453   0.876   1.521  0.2366  0.8582 -0.3420
    1SOL    HW3 3227   1.366   0.902   1.399 -0.3590 -0.0942 -0.1262
    1SOL    MW4 3228   1.381   0.909   1.485 -0.1665  0.1679 -0.1805
    1SOL     OW 3229   1.387   1.188   1.591 -0.2363 -0.0689  0.0516
    1SOL    HW2 3230   1.381   1.196   1.686 -0.7260  0.6888 -0.0336
    1SOL    HW3 3231   1.369   1.096   1.573 -0.0286 -0.2393  0.6977
    1SOL    MW4 3232   1.384   1.177   1.601 -0.2735  0.0085  0.1256
    1SOL     OW 3233   1.647   1.255   1.493 -0.5042  0.1005 -0.0093
    1SOL    HW2 3234   1.559   1.229   1.519 -0.3821  1.0569  1.4068
    1SOL    HW3 3235   1.639   1.279   1.401 -2.0523  1.7262  0.5360
    1SOL    MW4 3236   1.634   1.255   1.484 -0.6922  0.4412  0.2496
    1SOL     OW 3237   1.587   1.536   1.573 -0.4305  0.0843  0.0988
    1SOL    HW2 3238   1.610   1.530   1.666 -0.7561  0.6824  0.2212
    1SOL    HW3 3239   1.618   1.454   1.535 -1.4294 -0.7204  0.9935
    1SOL    MW4 3240   1.594   1.524   1.580 -0.6053  0.0570  0.2331
    1SOL     OW 3241   1.366   1.688   1.495 -0.3361  0.3305  0.2913
    1SOL    HW2 3242   1.450   1.650   1.520  0.2576  1.3779 -0.0466
    1SOL    HW3 3243   1.360   1.673   1.401 -0.7688 -0.2116  0.4095
    1SOL    MW4 3244   1.376   1.681   1.486 -0.3148  0.3972  0.2623
    1SOL     OW 3245   1.368   1.936   1.593 -0.1115 -0.2977  0.1959
    1SOL    HW2 3246   1.363   1.940   1.688  0.4864  1.5802  0.1734
    1SOL    HW3 3247   1.357   1.843   1.572 -0.2120 -0.7320  2.0823
    1SOL    MW4 3248   1.366   1.924   1.603 -0.0459 -0.1074  0.4419
    1SOL     OW 3249   1.593   2.039   1.483 -0.0741  0.0437 -0.1849
    1SOL    HW2 3250   1.510   2.005   1.514  0.7797 -1.7711  0.1724
    1SOL    HW3 3251   1.586   2.035   1.387 -0.4581  0.0549 -0.1576
    1SOL    MW4 3252   1.581   2.034   1.474 -0.0122 -0.1943 -0.1342
    1SOL     OW 3253   1.528   2.304   1.574 -0.5805  0.1738  0.5138
    1SOL    HW2 3254   1.612   2.349   1.580 -0.9885  1.1622 -0.9218
    1SOL    HW3 3255   1.547   2.224   1.525  0.0295 -0.9700  2.5550
    1SOL    MW4 3256   1.541   2.299   1.569 -0.5540  0.1531  0.5937
    1SOL     OW 3257   1.316   2.474   1.488 -0.1808 -0.1123  0.0092
    1SOL    HW2 3258   1.346   2.560   1.515  1.2261 -0.1684 -1.3216
    1SOL    HW3 3259   1.384   2.414   1.518 -0.6445 -0.6438  0.0107
    1SOL    MW4 3260   1.329   2.477   1.495 -0.0563 -0.1898 -0.1662
    1SOL     OW 3261   1.393   2.718   1.635  0.1772  0.5074 -0.0765
    1SOL    HW2 3262   1.465   2.781   1.629 -0.5604  1.3732  0.0910
    1SOL    HW3 3263   1.320   2.761   1.590 -0.0868 -0.5755 -0.6860
    1SOL    MW4 3264   1.393   2.732   1.628  0.0452  0.4790 -0.1348
    1SOL     OW 3265   1.597   2.895   1.560  0.3547  0.2098 -0.3183
    1SOL    HW2 3266   1.663   2.828   1.579  0.5357  0.5407  0.2304
    1SOL    HW3 3267   1.602   2.907   1.465  0.3910 -0.4802 -0.4053
    1SOL    MW4 3268   1.607   2.887   1.550  0.3834  0.1624 -0.2573
    1SOL     OW 3269   1.559   3.142   1.653 -0.1464 -0.0036  0.0843
    1SOL    HW2 3270   1.633   3.190   1.618 -0.5806 -0.2651 -1.1997
    1SOL    HW3 3271   1.578   3.050   1.633 -1.0268 -0.0284 -0.6509
    1SOL    MW4 3272   1.571   3.136   1.646 -0.3200 -0.0410 -0.1822
    1SOL     OW 3273   1.340   3.232   1.519  0.6801  0.0743  0.0315
    1SOL    HW2 3274   1.329   3.318   1.561 -0.8136 -0.7744  1.4281
    1SOL    HW3 3275   1.412   3.191   1.565  0.9808  0.3163 -0.2182
    1SOL    MW4 3276   1.348   3.238   1.530  0.5226 -0.0057  0.1829
    1SOL     OW 3277   1.357   3.498   1.605  0.3962 -0.1356  0.3576
    1SOL    HW2 3278   1.361   3.486   1.700  1.0692 -0.0194  0.3443
    1SOL    HW3 3279   1.438   3.543   1.583 -0.5097  1.3156 -0.0594
    1SOL    MW4 3280   1.368   3.502   1.615  0.3654  0.0710  0.3006
    1SOL     OW 3281   1.596   3.637   1.524  0.5213  0.1299 -0.2249
    1SOL    HW2 3282   1.603   3.727   1.554 -1.1122  0.4860 -0.8256
    1SOL    HW3 3283   1.598   3.643   1.429  1.9793 -0.6264 -0.2499
    1SOL    MW4 3284   1.597   3.650   1.516  0.4982  0.0775 -0.3073
    1SOL     OW 3285   1.611   3.895   1.639  0.1178  0.3708 -0.1337
    1SOL    HW2 3286   1.594   3.895   1.733 -0.4471  0.4777 -0.2327
    1SOL    HW3 3287   1.534   3.937   1.601 -1.1113 -2.4345 -0.8793
    1SOL    MW4 3288   1.598   3.900   1.646 -0.1190  0.0150 -0.2451
    1SOL     OW 3289   1.365   4.005   1.529  0.2751 -0.0239 -0.9943
    1SOL    HW2 3290   1.350   4.089   1.573 -0.3635  0.1260 -1.4880
    1SOL    HW3 3291   1.375   4.028   1.437  1.9773 -0.3003 -0.8918
    1SOL    MW4 3292   1.364   4.019   1.523  0.4154 -0.0405 -1.0459
    1SOL     OW 3293   1.338   4.264   1.642 -0.3059 -0.4995  0.3316
    1SOL    HW2 3294   1.413   4.322   1.628  0.1853 -0.6023  2.3842
    1SOL    HW3 3295   1.264   4.311   1.603  0.3185  0.9344  0.8561
    1SOL    MW4 3296   1.338   4.278   1.635 -0.1587 -0.3242  0.6716
    1SOL     OW 3297   1.542   4.403   1.531 -0.1141  0.6255  0.4508
    1SOL    HW2 3298   1.624   4.368   1.566 -0.4702  0.8864  1.5919
    1SOL    HW3 3299   1.553   4.498   1.536 -0.1196  0.6664 -0.2830
    1SOL    MW4 3300   1.554   4.411   1.536 -0.1619  0.6652  0.5046
    1SOL     OW 3301   2.010   4.662   1.638  0.2281 -0.2244 -0.1615
    1SOL    HW2 3302   1.984   4.652   1.729  0.4204 -1.2320 -0.2104
    1SOL    HW3 3303   1.934   4.705   1.596 -0.1375 -0.4010  0.3198
    1SOL    MW4 3304   1.996   4.667   1.644  0.2052 -0.3810 -0.1043
    1SOL     OW 3305   1.806   0.141   1.500 -0.0708  0.1233  0.2257
    1SOL    HW2 3306   1.725   0.097   1.527 -0.1651  0.3220  0.2632
    1SOL    HW3 3307   1.811   0.125   1.406 -0.4652  0.6277  0.1221
    1SOL    MW4 3308   1.796   0.133   1.491 -0.1352  0.2161  0.2171
    1SOL     OW 3309   1.807   0.418   1.570 -0.4889 -0.4410 -0.0384
    1SOL    HW2 3310   1.892   0.452   1.541  0.1024 -0.4969  1.5773
    1SOL    HW3 3311   1.801   0.331   1.529  0.8062 -0.9578  0.8575
    1SOL    MW4 3312   1.817   0.411   1.560 -0.2400 -0.5166  0.2931
    1SOL     OW 3313   2.055   0.524   1.498 -0.1748  0.3242 -0.1101
    1SOL    HW2 3314   2.133   0.478   1.529 -0.0814  0.1210 -0.6479
    1SOL    HW3 3315   2.066   0.614   1.529  0.5459  0.4282 -0.6898
    1SOL    MW4 3316   2.067   0.530   1.506 -0.0672  0.3111 -0.2575
    1SOL     OW 3317   2.081   0.772   1.581 -0.2740 -0.0490  0.2145
    1SOL    HW2 3318   2.162   0.819   1.561 -0.3046  0.9773  2.3495
    1SOL    HW3 3319   2.012   0.823   1.538 -0.1774  1.2615  1.5524
    1SOL    MW4 3320   2.083   0.785   1.573 -0.2654  0.2594  0.6728
    1SOL     OW 3321   1.844   0.890   1.490 -0.4222 -0.0936 -0.2026
    1SOL    HW2 3322   1.844   0.970   1.542 -1.4010  0.0197 -0.3672
    1SOL    HW3 3323   1.765   0.843   1.518  0.2278 -1.0785  0.0078
    1SOL    MW4 3324   1.833   0.894   1.501 -0.4655 -0.2086 -0.1966
    1SOL     OW 3325   1.851   1.136   1.617 -0.1491  0.2058  0.1097
    1SOL    HW2 3326   1.924   1.190   1.587 -0.2408 -0.5882 -1.5585
    1SOL    HW3 3327   1.773   1.178   1.582 -0.4906  0.8481  1.5927
    1SOL    MW4 3328   1.850   1.148   1.609 -0.2064  0.1857  0.0852
    1SOL     OW 3329   2.063   1.278   1.522  0.3677  0.1288  0.0080
    1SOL    HW2 3330   2.035   1.366   1.545  1.3357 -0.0769  2.1072
    1SOL    HW3 3331   2.052   1.273   1.427 -0.8487  2.0827  0.0154
    1SOL    MW4 3332   2.058   1.289   1.513  0.3350  0.3593  0.2859
    1SOL     OW 3333   2.022   1.536   1.614  0.4997  0.4418  0.2170
    1SOL    HW2 3334   2.092   1.595   1.585  0.3015 -0.0058 -1.1772
    1SOL    HW3 3335   1.941   1.582   1.590  0.3370 -0.0683 -0.2068
    1SOL    MW4 3336   2.020   1.550   1.607  0.4520  0.3153 -0.0228
    1SOL     OW 3337   1.813   1.680   1.503 -0.1998  0.4226  0.3802
    1SOL    HW2 3338   1.725   1.650   1.525  0.2085 -1.0202  0.0995
    1SOL    HW3 3339   1.813   1.687   1.407 -0.1164  0.7540  0.4046
    1SOL    MW4 3340   1.802   1.677   1.493 -0.1348  0.2760  0.3464
    1SOL     OW 3341   1.831   1.951   1.622  0.3233 -0.1395 -0.0495
    1SOL    HW2 3342   1.831   1.863   1.584  1.4839  0.3736 -1.2745
    1SOL    HW3 3343   1.763   1.997   1.572  0.4856 -0.0225 -0.1604
    1SOL    MW4 3344   1.822   1.945   1.610  0.4977 -0.0564 -0.2258
    1SOL     OW 3345   2.065   2.006   1.481 -0.0848  0.9662  0.1956
    1SOL    HW2 3346   2.146   1.978   1.525  0.0780  1.7254  0.3890
    1SOL    HW3 3347   1.995   1.965   1.531  0.2140 -0.6440 -0.6595
    1SOL    MW4 3348   2.067   1.997   1.494 -0.0241  0.8540  0.1082
    1SOL     OW 3349   1.997   2.252   1.632  0.4390 -0.1565 -0.3598
    1SOL    HW2 3350   2.022   2.257   1.724  1.7723 -0.9552 -0.6787
    1SOL    HW3 3351   2.010   2.161   1.607  0.2654  0.0853 -1.3919
    1SOL    MW4 3352   2.002   2.241   1.641  0.5918 -0.2298 -0.5380
    1SOL     OW 3353   1.777   2.437   1.572 -0.3118 -0.1968  0.1418
    1SOL    HW2 3354   1.855   2.388   1.601 -1.0186 -0.5652  1.4803
    1SOL    HW3 3355   1.782   2.435   1.476  0.6757 -1.2800  0.1941
    1SOL    MW4 3356   1.788   2.430   1.563 -0.2748 -0.3881  0.3253
    1SOL     OW 3357   1.774   2.695   1.648 -0.1728  0.2236  0.1640
    1SOL    HW2 3358   1.855   2.729   1.611  0.8186 -1.2812  0.8936
    1SOL    HW3 3359   1.778   2.600   1.633 -1.3451  0.0138  1.0437
    1SOL    MW4 3360   1.785   2.687   1.641 -0.1966 -0.0024  0.3763
    1SOL     OW 3361   2.020   2.812   1.545 -0.0034  0.1827 -0.1850
    1SOL    HW2 3362   2.032   2.896   1.588 -1.9590  0.9974 -1.1637
    1SOL    HW3 3363   2.058   2.823   1.458 -2.4515  0.9032 -1.2087
    1SOL    MW4 3364   2.026   2.824   1.539 -0.5844  0.3853 -0.4492
    1SOL     OW 3365   2.061   3.095   1.626 -0.0310 -0.1029  0.1624
    1SOL    HW2 3366   2.055   3.107   1.721 -0.5901 -1.9419  0.3811
    1SOL    HW3 3367   2.142   3.141   1.601  0.5054 -0.2179  1.6307
    1SOL    MW4 3368   2.071   3.103   1.635 -0.0343 -0.3607  0.3850
    1SOL     OW 3369   1.814   3.222   1.530 -0.0251  0.6411  0.2220
    1SOL    HW2 3370   1.834   3.312   1.553  0.2439  0.7058 -0.2770
    1SOL    HW3 3371   1.887   3.171   1.565 -0.0524  0.6427  0.2822
    1SOL    MW4 3372   1.826   3.227   1.537  0.0069  0.6499  0.1643
    1SOL     OW 3373   1.810   3.493   1.590 -0.1257 -0.3578 -0.2644
    1SOL    HW2 3374   1.816   3.471   1.683  0.7795 -0.2460 -0.2969
    1SOL    HW3 3375   1.742   3.561   1.586  0.3953  0.2112  0.4123
    1SOL    MW4 3376   1.802   3.499   1.602  0.0625 -0.2680 -0.1794
    1SOL     OW 3377   2.023   3.676   1.521 -0.4789  0.9920  0.1203
    1SOL    HW2 3378   2.103   3.626   1.540 -0.4483  0.5985 -0.9712
    1SOL    HW3 3379   1.952   3.619   1.550 -0.4299  0.4135 -0.8369
    1SOL    MW4 3380   2.024   3.662   1.527 -0.4683  0.8638 -0.1500
    1SOL     OW 3381   2.046   3.949   1.623 -0.1014  0.0968  0.3655
    1SOL    HW2 3382   2.123   3.986   1.580 -0.7830  0.6309 -0.4159
    1SOL    HW3 3383   2.059   3.854   1.618  0.5486  0.1878  0.3171
    1SOL    MW4 3384   2.058   3.941   1.617 -0.1054  0.1793  0.2559
    1SOL     OW 3385   1.809   4.034   1.519 -0.2296  0.2487  0.1346
    1SOL    HW2 3386   1.896   4.001   1.540  0.0062  1.0867  0.5222
    1SOL    HW3 3387   1.749   3.971   1.557  0.2108 -0.2788 -0.0422
    1SOL    MW4 3388   1.812   4.022   1.527 -0.1403  0.2894  0.1622
    1SOL     OW 3389   1.803   4.303   1.604  0.3819  0.0319  0.2850
    1SOL    HW2 3390   1.891   4.337   1.592  0.8413 -0.7392  1.3682
    1SOL    HW3 3391   1.810   4.210   1.584 -0.1279 -0.0832  0.6268
    1SOL    MW4 3392   1.816   4.295   1.600  0.3752 -0.0849  0.4730
    1SOL     OW 3393   2.065   4.395   1.528 -0.2973 -0.0807  0.1888
    1SOL    HW2 3394   2.153   4.369   1.555 -0.0949 -0.1497 -0.5254
    1SOL    HW3 3395   2.055   4.484   1.561 -0.1035 -0.2014  0.5873
    1SOL    MW4 3396   2.075   4.403   1.536 -0.2449 -0.1059  0.1471
    1SOL     OW 3397   2.461   4.636   1.598  0.0341  0.2493  0.0850
    1SOL    HW2 3398   2.444   4.630   1.692 -0.9752  2.4016  0.0696
    1SOL    HW3 3399   2.386   4.685   1.564 -0.7871 -2.4536 -2.1969
    1SOL    MW4 3400   2.449   4.642   1.606 -0.2074  0.1769 -0.2179
    1SOL     OW 3401   2.226   0.095   1.518  0.3021 -0.5809 -0.8612
    1SOL    HW2 3402   2.149   0.057   1.561  0.1289 -0.4267 -1.0342
    1SOL    HW3 3403   2.202   0.099   1.426  0.6024 -0.7380 -0.9431
    1SOL    MW4 3404   2.213   0.091   1.512  0.3185 -0.5813 -0.8949
    1SOL     OW 3405   2.253   0.372   1.593 -0.0418 -0.3001 -0.2748
    1SOL    HW2 3406   2.250   0.375   1.689  0.4335 -0.3920 -0.2571
    1SOL    HW3 3407   2.241   0.280   1.572  0.1429 -0.3192 -0.2943
    1SOL    MW4 3408   2.251   0.361   1.603  0.0451 -0.3148 -0.2750
    1SOL     OW 3409   2.484   0.505   1.482  0.3187  0.4179  0.0784
    1SOL    HW2 3410   2.550   0.440   1.506 -0.0031  0.6439  1.6374
    1SOL    HW3 3411   2.403   0.473   1.523  0.1353  1.7301  0.7783
    1SOL    MW4 3412   2.482   0.492   1.491  0.2520  0.6208  0.3765
    1SOL     OW 3413   2.511   0.758   1.604  0.6322  0.3972  0.1235
    1SOL    HW2 3414   2.440   0.814   1.575  1.1148  0.5030 -0.8861
    1SOL    HW3 3415   2.485   0.670   1.578  0.8785  0.4409 -0.2824
    1SOL    MW4 3416   2.499   0.754   1.597  0.7284  0.4169 -0.0631
    1SOL     OW 3417   2.306   0.918   1.525 -0.4484 -0.1469  0.2390
    1SOL    HW2 3418   2.309   1.009   1.552 -0.1027 -0.4269  1.1684
    1SOL    HW3 3419   2.290   0.921   1.431 -0.2254  0.8739  0.2315
    1SOL    MW4 3420   2.305   0.930   1.516 -0.3734 -0.0492  0.3606
    1SOL     OW 3421   2.305   1.204   1.599  0.2226 -0.1571  0.1702
    1SOL    HW2 3422   2.307   1.197   1.694 -0.2200 -1.3230  0.0949
    1SOL    HW3 3423   2.215   1.228   1.578  0.3411  0.1868  0.0400
    1SOL    MW4 3424   2.294   1.207   1.609  0.1798 -0.2657  0.1432
    1SOL     OW 3425   2.511   1.315   1.455  0.1159  0.2669  0.1113
    1SOL    HW2 3426   2.437   1.267   1.492  1.0632 -0.3968  1.1394
    1SOL    HW3 3427   2.492   1.318   1.361 -1.0738 -0.1382  0.3262
    1SOL    MW4 3428   2.499   1.309   1.447  0.0839  0.1260  0.2754
    1SOL     OW 3429   2.485   1.544   1.607  0.0643  0.2788 -0.2741
    1SOL    HW2 3430   2.565   1.591   1.582 -0.4582  0.5433 -1.4793
    1SOL    HW3 3431   2.494   1.458   1.567 -0.1889  0.2631 -0.2986
    1SOL    MW4 3432   2.497   1.539   1.598 -0.0381  0.3117 -0.4364
    1SOL     OW 3433   2.245   1.659   1.540  0.3083 -0.6216  0.6589
    1SOL    HW2 3434   2.317   1.605   1.572  1.0017  0.3722  0.7948
    1SOL    HW3 3435   2.267   1.677   1.448 -0.0448 -0.7631  0.5432
    1SOL    MW4 3436   2.257   1.654   1.532  0.3533 -0.5093  0.6616
    1SOL     OW 3437   2.285   1.917   1.622  0.6835 -0.0079 -0.1008
    1SOL    HW2 3438   2.272   1.918   1.717 -0.9522  0.1828 -0.2996
    1SOL    HW3 3439   2.285   1.824   1.599 -0.2396 -0.0322 -0.0514
    1SOL    MW4 3440   2.283   1.905   1.631  0.3455  0.0139 -0.1206
    1SOL     OW 3441   2.501   2.062   1.500  0.1423 -0.0448 -0.1428
    1SOL    HW2 3442   2.429   2.015   1.543  1.4475 -1.4911  0.5000
    1SOL    HW3 3443   2.475   2.065   1.408 -0.5381 -0.9516  0.0048
    1SOL    MW4 3444   2.488   2.056   1.494  0.2246 -0.3552 -0.0384
    1SOL     OW 3445   2.456   2.337   1.585  0.5053  0.0536 -0.3324
    1SOL    HW2 3446   2.483   2.324   1.675  0.2956 -0.0914 -0.2894
    1SOL    HW3 3447   2.473   2.254   1.542 -0.9264 -0.4148 -0.0335
    1SOL    MW4 3448   2.461   2.324   1.591  0.2890 -0.0269 -0.2873
    1SOL     OW 3449   2.201   2.394   1.503 -0.2746 -0.1061 -0.1141
    1SOL    HW2 3450   2.281   2.359   1.544  0.2959 -0.0679 -1.1742
    1SOL    HW3 3451   2.130   2.351   1.550  0.3568  0.4143  1.3416
    1SOL    MW4 3452   2.202   2.384   1.515 -0.1163 -0.0327 -0.0620
    1SOL     OW 3453   2.240   2.672   1.598  0.0150  0.2046  0.1417
    1SOL    HW2 3454   2.219   2.581   1.574  1.2742  0.5774 -2.6255
    1SOL    HW3 3455   2.166   2.723   1.565  0.1733  0.3546  0.0132
    1SOL    MW4 3456   2.227   2.667   1.590  0.2022  0.2735 -0.2403
    1SOL     OW 3457   2.487   2.889   1.572 -0.1191 -0.3060  0.2097
    1SOL    HW2 3458   2.471   2.973   1.615 -1.2472  0.6073 -1.9701
    1SOL    HW3 3459   2.409   2.837   1.592 -0.3440 -0.1179 -0.1890
    1SOL    MW4 3460   2.475   2.893   1.581 -0.2973 -0.1607 -0.1304
    1SOL     OW 3461   2.489   3.157   1.680 -0.0441  0.2644  0.0030
    1SOL    HW2 3462   2.559   3.159   1.614 -0.3171  1.4536 -0.2521
    1SOL    HW3 3463   2.412   3.188   1.633 -0.5668 -0.2888  0.5011
    1SOL    MW4 3464   2.488   3.161   1.665 -0.1488  0.3483  0.0350
    1SOL     OW 3465   2.268   3.246   1.557  0.6847 -0.4902  0.3843
    1SOL    HW2 3466   2.267   3.340   1.569 -0.3270 -0.5228  0.5256
    1SOL    HW3 3467   2.270   3.234   1.462  1.7139 -0.3285  0.3720
    1SOL    MW4 3468   2.268   3.256   1.546  0.6871 -0.4730  0.4014
    1SOL     OW 3469   2.231   3.521   1.622 -0.0282  0.2016 -0.2259
    1SOL    HW2 3470   2.225   3.517   1.718  0.2142 -0.7320 -0.2502
    1SOL    HW3 3471   2.314   3.566   1.605 -0.3602  0.9126  0.0025
    1SOL    MW4 3472   2.241   3.527   1.632 -0.0401  0.1724 -0.1990
    1SOL     OW 3473   2.481   3.620   1.529  0.4637 -0.3588  0.0230
    1SOL    HW2 3474   2.563   3.580   1.559  0.8205 -0.3968 -0.9597
    1SOL    HW3 3475   2.492   3.713   1.548 -0.3685 -0.7087  2.3180
    1SOL    MW4 3476   2.493   3.627   1.535  0.4008 -0.4098  0.1961
    1SOL     OW 3477   2.484   3.881   1.573  0.5476 -0.6563 -0.5376
    1SOL    HW2 3478   2.482   3.869   1.668  0.5069  1.4037 -0.2573
    1SOL    HW3 3479   2.567   3.925   1.556 -0.0091  0.1051 -1.3119
    1SOL    MW4 3480   2.494   3.885   1.583  0.4687 -0.2842 -0.6028
    1SOL     OW 3481   2.270   4.046   1.494  0.7093 -0.2606 -0.2169
    1SOL    HW2 3482   2.353   4.000   1.508  0.3880 -0.6129  0.5803
    1SOL    HW3 3483   2.251   4.033   1.402  1.7278  0.1369 -0.4950
    1SOL    MW4 3484   2.279   4.038   1.484  0.8013 -0.2546 -0.1484
    1SOL     OW 3485   2.325   4.283   1.601 -0.6786 -0.2558 -0.5195
    1SOL    HW2 3486   2.399   4.316   1.551 -1.0951  0.2763 -0.7869
    1SOL    HW3 3487   2.313   4.193   1.570  1.3071 -1.1341  1.1725
    1SOL    MW4 3488   2.333   4.276   1.590 -0.4714 -0.3018 -0.3314
    1SOL     OW 3489   2.541   4.405   1.463 -0.1567 -0.0082 -0.1727
    1SOL    HW2 3490   2.526   4.487   1.509 -0.9983  0.4650 -1.2540
    1SOL    HW3 3491   2.517   4.424   1.372 -0.0924 -1.3668 -0.4866
    1SOL    MW4 3492   2.536   4.419   1.457 -0.2592 -0.1254 -0.3568
    1SOL     OW 3493   2.904   4.608   1.568 -0.4903 -0.5362  0.3924
    1SOL    HW2 3494   2.890   4.609   1.663 -1.0504 -1.8038  0.3310
    1SOL    HW3 3495   2.820   4.636   1.531  0.3124  1.8635  0.3088
    1SOL    MW4 3496   2.891   4.612   1.576 -0.4585 -0.3867  0.3734
    1SOL     OW 3497   2.671   0.076   1.494  0.2639 -0.6420  0.0350
    1SOL    HW2 3498   2.689   0.160   1.535  0.3282 -1.1013  0.9647
    1SOL    HW3 3499   2.594   0.042   1.541 -0.1633 -0.8029 -0.7699
    1SOL    MW4 3500   2.663   0.082   1.506  0.2165 -0.7238  0.0515
    1SOL     OW 3501   2.676   0.340   1.576 -0.2494  0.1531 -0.3658
    1SOL    HW2 3502   2.658   0.347   1.670  0.8452 -0.6216 -0.0931
    1SOL    HW3 3503   2.746   0.404   1.560 -0.4923  0.3455 -0.6803
    1SOL    MW4 3504   2.683   0.350   1.586 -0.1369  0.0763 -0.3713
    1SOL     OW 3505   2.899   0.487   1.513 -0.5847  0.0844  0.3403
    1SOL    HW2 3506   2.916   0.578   1.536 -0.1469  0.3178 -0.8901
    1SOL    HW3 3507   2.908   0.483   1.418 -2.4633 -0.8415  0.1584
    1SOL    MW4 3508   2.902   0.498   1.504 -0.7751 -0.0070  0.1539
    1SOL     OW 3509   2.938   0.755   1.616 -0.2927 -0.1330 -0.2374
    1SOL    HW2 3510   2.939   0.757   1.711  0.9991  0.3757 -0.2529
    1SOL    HW3 3511   2.861   0.806   1.591 -0.7347 -0.4227  0.5244
    1SOL    MW4 3512   2.928   0.762   1.625 -0.1807 -0.1041 -0.1390
    1SOL     OW 3513   2.731   0.908   1.544  0.4852  0.2867 -0.6175
    1SOL    HW2 3514   2.662   0.850   1.575  0.1357  1.2409  0.4434
    1SOL    HW3 3515   2.713   0.919   1.450 -0.0483 -0.4914 -0.6074
    1SOL    MW4 3516   2.720   0.902   1.536  0.3686  0.3100 -0.4764
    1SOL     OW 3517   2.701   1.165   1.643  0.0777 -0.0291 -0.0359
    1SOL    HW2 3518   2.707   1.075   1.609 -0.9758 -1.5616  3.5709
    1SOL    HW3 3519   2.645   1.210   1.581  1.4561 -1.5723 -2.4843
    1SOL    MW4 3520   2.695   1.159   1.631  0.1204 -0.4350  0.1169
    1SOL     OW 3521   2.925   1.311   1.552  0.2562 -0.2368  0.2208
    1SOL    HW2 3522   3.005   1.264   1.578  0.5734  0.1843  0.0216
    1SOL    HW3 3523   2.854   1.263   1.594  0.6283 -0.5232  0.5280
    1SOL    MW4 3524   2.926   1.298   1.561  0.3469 -0.2191  0.2351
    1SOL     OW 3525   2.906   1.564   1.664  0.7220  0.1533 -0.1187
    1SOL    HW2 3526   2.835   1.610   1.619  0.4368  1.1842  1.3600
    1SOL    HW3 3527   2.916   1.482   1.615 -0.0580  0.9253 -1.6178
    1SOL    MW4 3528   2.898   1.559   1.651  0.5815  0.3911 -0.1214
    1SOL     OW 3529   2.711   1.705   1.538  0.4314  0.4251  0.3927
    1SOL    HW2 3530   2.719   1.798   1.556 -0.7774  0.5565  0.3059
    1SOL    HW3 3531   2.698   1.699   1.444 -1.7552  0.3367  0.6810
    1SOL    MW4 3532   2.710   1.716   1.528 -0.0165  0.4308  0.4194
    1SOL     OW 3533   2.740   1.973   1.602  0.0091  0.0114  0.0208
    1SOL    HW2 3534   2.743   1.961   1.697  0.2015 -0.9321 -0.0942
    1SOL    HW3 3535   2.649   1.996   1.583  0.0206  0.4186  0.4585
    1SOL    MW4 3536   2.729   1.974   1.612  0.0358 -0.0595  0.0634
    1SOL     OW 3537   2.963   2.099   1.493  0.7264 -0.2567 -0.1378
    1SOL    HW2 3538   2.959   2.191   1.518  0.5443 -0.3400  0.1335
    1SOL    HW3 3539   2.883   2.060   1.527  1.7910 -0.9753  1.6336
    1SOL    MW4 3540   2.952   2.106   1.500  0.8428 -0.3624  0.1317
    1SOL     OW 3541   2.943   2.359   1.574 -0.4461  0.1209  0.1261
    1SOL    HW2 3542   2.956   2.350   1.669  0.6968  0.8534  0.0540
    1SOL    HW3 3543   2.856   2.399   1.566 -0.3023  0.6165  0.9013
    1SOL    MW4 3544   2.933   2.363   1.586 -0.2766  0.2828  0.2189
    1SOL     OW 3545   2.707   2.490   1.522  0.0623  0.5290 -0.1094
    1SOL    HW2 3546   2.712   2.577   1.562 -0.4153  0.1478  0.7729
    1SOL    HW3 3547   2.623   2.455   1.551 -0.7669  0.6366 -2.2288
    1SOL    MW4 3548   2.697   2.497   1.531 -0.1099  0.4930 -0.2728
    1SOL     OW 3549   2.705   2.728   1.652  0.0373  0.2228  0.4302
    1SOL    HW2 3550   2.788   2.756   1.614 -0.0285  0.0188  0.1343
    1SOL    HW3 3551   2.640   2.789   1.616 -0.1481 -0.4754 -0.4343
    1SOL    MW4 3552   2.707   2.740   1.643  0.0043  0.1040  0.2772
    1SOL     OW 3553   2.927   2.843   1.534 -0.4601  0.1504  0.2055
    1SOL    HW2 3554   3.008   2.813   1.574  0.1846 -0.5961 -1.6005
    1SOL    HW3 3555   2.929   2.938   1.543  1.4676  0.2849 -1.3700
    1SOL    MW4 3556   2.938   2.851   1.540 -0.1211  0.0699 -0.2407
    1SOL     OW 3557   2.932   3.119   1.574 -0.3437  0.0573  0.3305
    1SOL    HW2 3558   2.921   3.137   1.667 -2.0165  2.4000 -0.2738
    1SOL    HW3 3559   3.006   3.175   1.547 -1.2595  1.0350 -0.1818
    1SOL    MW4 3560   2.941   3.129   1.582 -0.6852  0.4954  0.1831
    1SOL     OW 3561   2.694   3.218   1.488 -0.4572 -0.2561  0.0653
    1SOL    HW2 3562   2.778   3.175   1.507  0.2388  1.4763  0.9557
    1SOL    HW3 3563   2.698   3.237   1.394 -0.5142 -1.5740 -0.2155
    1SOL    MW4 3564   2.706   3.215   1.478 -0.3731 -0.2017  0.1457
    1SOL     OW 3565   2.701   3.478   1.599 -0.1722 -0.1693 -0.5523
    1SOL    HW2 3566   2.695   3.467   1.694  0.8129 -0.3261 -0.5005
    1SOL    HW3 3567   2.690   3.390   1.564 -0.7606 -0.0790 -0.5990
    1SOL    MW4 3568   2.699   3.465   1.607 -0.1199 -0.1781 -0.5515
    1SOL     OW 3569   2.941   3.621   1.521  0.2609 -0.5751 -0.7796
    1SOL    HW2 3570   2.860   3.584   1.557 -0.3193  0.4450 -1.0195
    1SOL    HW3 3571   2.929   3.617   1.426  0.0937  0.4534 -0.8018
    1SOL    MW4 3572   2.929   3.616   1.513  0.1624 -0.3047 -0.8141
    1SOL     OW 3573   2.924   3.885   1.638 -0.3849 -0.1459 -0.1600
    1SOL    HW2 3574   2.845   3.921   1.599 -0.1143  0.6286 -0.0140
    1SOL    HW3 3575   2.931   3.796   1.603 -0.9005  0.0556 -0.7717
    1SOL    MW4 3576   2.915   3.878   1.628 -0.4172 -0.0169 -0.2215
    1SOL     OW 3577   2.716   4.011   1.483 -0.5481  0.0940  0.2507
    1SOL    HW2 3578   2.731   4.099   1.517 -1.7874  0.5828 -0.4269
    1SOL    HW3 3579   2.716   4.021   1.387 -0.7929 -0.6147  0.1690
    1SOL    MW4 3580   2.718   4.024   1.475 -0.7439  0.0648  0.1506
    1SOL     OW 3581   2.753   4.267   1.612 -0.2385  0.5086  0.0543
    1SOL    HW2 3582   2.825   4.294   1.555 -0.3787 -0.5680 -0.6572
    1SOL    HW3 3583   2.674   4.300   1.568 -0.2003  1.5130  0.7282
    1SOL    MW4 3584   2.752   4.275   1.599 -0.2520  0.4992  0.0494
    1SOL     OW 3585   2.970   4.356   1.450  0.4408 -0.0619 -0.1993
    1SOL    HW2 3586   2.956   4.445   1.481 -1.5997 -0.2302 -0.5316
    1SOL    HW3 3587   2.966   4.363   1.355 -0.3939 -0.5931 -0.2086
    1SOL    MW4 3588   2.968   4.368   1.442  0.0613 -0.1540 -0.2444
    1SOL     OW 3589   3.330   4.594   1.603 -0.3298 -0.0319  0.1108
    1SOL    HW2 3590   3.403   4.645   1.569  0.4023 -1.1448 -0.0079
    1SOL    HW3 3591   3.340   4.508   1.563 -1.1840 -0.4613  0.8024
    1SOL    MW4 3592   3.341   4.590   1.594 -0.3462 -0.2346  0.1864
    1SOL     OW 3593   3.118   0.109   1.510 -0.1339 -0.3421  0.0835
    1SOL    HW2 3594   3.196   0.058   1.530 -0.3042 -0.3476  0.7305
    1SOL    HW3 3595   3.045   0.052   1.535 -0.3173  0.5283  1.6012
    1SOL    MW4 3596   3.118   0.095   1.516 -0.1807 -0.2280  0.3692
    1SOL     OW 3597   3.094   0.347   1.630  0.2261 -0.0605  0.1130
    1SOL    HW2 3598   3.090   0.260   1.590 -1.0017 -0.2284  0.5877
    1SOL    HW3 3599   3.017   0.393   1.595  0.9124  0.8577 -0.2007
    1SOL    MW4 3600   3.083   0.342   1.620  0.1547  0.0385  0.1343
    1SOL     OW 3601   3.327   0.466   1.521 -0.5263  0.1075 -0.0035
    1SOL    HW2 3602   3.237   0.434   1.533 -0.1010 -0.9531  0.3983
    1SOL    HW3 3603   3.341   0.460   1.426 -0.6869 -0.2519 -0.0065
    1SOL    MW4 3604   3.317   0.461   1.510 -0.4914 -0.0798  0.0490
    1SOL     OW 3605   3.408   0.724   1.637 -0.3185 -0.3492 -0.0835
    1SOL    HW2 3606   3.404   0.731   1.733  2.0167 -1.2615  0.1240
    1SOL    HW3 3607   3.380   0.634   1.619  2.0430 -1.1385  0.0135
    1SOL    MW4 3608   3.404   0.713   1.647  0.3011 -0.5738 -0.0434
    1SOL     OW 3609   3.177   0.891   1.529 -0.1066 -0.2028  0.0326
    1SOL    HW2 3610   3.239   0.828   1.565 -0.4183 -0.1160  0.7254
    1SOL    HW3 3611   3.091   0.854   1.550 -0.2979  0.9970  1.4261
    1SOL    MW4 3612   3.173   0.878   1.536 -0.1731 -0.0330  0.3080
    1SOL     OW 3613   3.174   1.161   1.632  0.2086 -0.0376  0.1315
    1SOL    HW2 3614   3.165   1.144   1.726  0.2118 -0.2103  0.1018
    1SOL    HW3 3615   3.163   1.075   1.592 -0.8293  0.1986 -0.0997
    1SOL    MW4 3616   3.172   1.147   1.639  0.0720 -0.0292  0.0970
    1SOL     OW 3617   3.370   1.307   1.485 -0.5683 -0.4671 -0.2620
    1SOL    HW2 3618   3.452   1.264   1.508 -0.3733  0.5746  1.0846
    1SOL    HW3 3619   3.303   1.262   1.537 -0.4046  0.6093  0.9250
    1SOL    MW4 3620   3.372   1.296   1.495 -0.5209 -0.1875  0.0722
    1SOL     OW 3621   3.347   1.563   1.596  0.1362 -0.3602  0.1167
    1SOL    HW2 3622   3.345   1.534   1.687  1.3514 -0.2821  0.1754
    1SOL    HW3 3623   3.350   1.481   1.545  1.8463 -0.3819  0.2296
    1SOL    MW4 3624   3.347   1.548   1.601  0.5221 -0.3526  0.1395
    1SOL     OW 3625   3.115   1.696   1.523  0.0246 -0.1364  0.0574
    1SOL    HW2 3626   3.196   1.654   1.549 -0.7124 -1.5573  0.0885
    1SOL    HW3 3627   3.048   1.658   1.580 -0.7003  0.8589 -0.1066
    1SOL    MW4 3628   3.117   1.686   1.534 -0.1683 -0.1925  0.0399
    1SOL     OW 3629   3.154   1.951   1.622  0.4502 -0.3272  0.1153
    1SOL    HW2 3630   3.144   1.861   1.590 -0.9839 -0.0573 -0.2695
    1SOL    HW3 3631   3.083   1.999   1.579  0.1905  0.6428  1.5855
    1SOL    MW4 3632   3.143   1.946   1.612  0.2270 -0.1636  0.2586
    1SOL     OW 3633   3.410   2.056   1.540  0.1892  0.8305  0.0391
    1SOL    HW2 3634   3.333   2.014   1.579  1.0960 -0.0338  0.9293
    1SOL    HW3 3635   3.386   2.069   1.448 -1.2167  1.0598  0.4238
    1SOL    MW4 3636   3.396   2.052   1.533  0.1233  0.7467  0.2073
    1SOL     OW 3637   3.395   2.322   1.588  0.2327  0.0365 -0.0919
    1SOL    HW2 3638   3.478   2.354   1.551 -0.0365  0.6005 -0.2157
    1SOL    HW3 3639   3.392   2.229   1.565  1.2890 -0.2156  0.7361
    1SOL    MW4 3640   3.406   2.314   1.580  0.3366  0.0775  0.0010
    1SOL     OW 3641   3.160   2.516   1.472  0.0999  0.3270 -0.4161
    1SOL    HW2 3642   3.239   2.470   1.501 -0.7087 -0.4430  0.5806
    1SOL    HW3 3643   3.088   2.463   1.505 -0.8443  0.3934 -2.3386
    1SOL    MW4 3644   3.161   2.503   1.480 -0.1314  0.2341 -0.5382
    1SOL     OW 3645   3.168   2.736   1.623  0.2319 -0.8114 -0.0792
    1SOL    HW2 3646   3.251   2.769   1.588  0.2969 -1.3787 -0.4678
    1SOL    HW3 3647   3.154   2.654   1.576 -0.3868 -0.8768  0.2253
    1SOL    MW4 3648   3.177   2.730   1.612  0.1590 -0.8948 -0.0902
    1SOL     OW 3649   3.382   2.830   1.493  0.2443  0.2065  0.1187
    1SOL    HW2 3650   3.376   2.922   1.517 -1.2851  0.3343 -0.7394
    1SOL    HW3 3651   3.366   2.828   1.399  0.1281 -0.9602  0.1523
    1SOL    MW4 3652   3.379   2.842   1.484  0.0269  0.0694  0.0099
    1SOL     OW 3653   3.375   3.096   1.595  0.2002 -0.1415  0.4665
    1SOL    HW2 3654   3.372   3.110   1.690  1.7406 -0.7078  0.6024
    1SOL    HW3 3655   3.454   3.140   1.566  1.4983 -2.7215 -0.0747
    1SOL    MW4 3656   3.385   3.103   1.604  0.5748 -0.5565  0.4129
    1SOL     OW 3657   3.172   3.279   1.522 -0.1004 -0.3852  0.3874
    1SOL    HW2 3658   3.240   3.225   1.563  0.4749 -0.3241 -0.4858
    1SOL    HW3 3659   3.179   3.261   1.428 -1.2869 -0.3756  0.2858
    1SOL    MW4 3660   3.182   3.270   1.515 -0.1810 -0.3760  0.2588
    1SOL     OW 3661   3.199   3.533   1.628  0.2644  0.8019 -0.2264
    1SOL    HW2 3662   3.201   3.444   1.593  0.0810  0.2892  1.0282
    1SOL    HW3 3663   3.110   3.564   1.609 -0.7737 -0.4899  2.1561
    1SOL    MW4 3664   3.187   3.525   1.621  0.1037  0.5639  0.2536
    1SOL     OW 3665   3.413   3.651   1.495  0.0604  0.1471 -0.3079
    1SOL    HW2 3666   3.483   3.611   1.547  0.0088 -0.8589 -0.9918
    1SOL    HW3 3667   3.333   3.629   1.543  0.1496  0.6471  0.0709
    1SOL    MW4 3668   3.411   3.643   1.509  0.0651  0.0806 -0.3481
    1SOL     OW 3669   3.377   3.901   1.624 -0.2582  0.0525 -0.6897
    1SOL    HW2 3670   3.303   3.945   1.582  0.1761  0.0747 -1.4541
    1SOL    HW3 3671   3.385   3.818   1.575 -1.1554 -0.9457  0.8155
    1SOL    MW4 3672   3.368   3.896   1.612 -0.3190 -0.0765 -0.5920
    1SOL     OW 3673   3.160   3.998   1.487 -0.0458 -0.1759  0.5543
    1SOL    HW2 3674   3.152   4.083   1.530 -1.0549  1.4097 -2.6282
    1SOL    HW3 3675   3.105   3.939   1.539  1.9807  0.6211  3.7969
    1SOL    MW4 3676   3.152   4.001   1.500  0.0885  0.1383  0.5622
    1SOL     OW 3677   3.171   4.234   1.636 -0.2119  0.0640 -0.2039
    1SOL    HW2 3678   3.166   4.254   1.729  0.9988  0.8334 -0.2888
    1SOL    HW3 3679   3.091   4.271   1.599 -0.3902  0.3146  0.4302
    1SOL    MW4 3680   3.160   4.242   1.643 -0.0756  0.1984 -0.1314
    1SOL     OW 3681   3.386   4.354   1.480 -0.1269  0.3990  0.3316
    1SOL    HW2 3682   3.312   4.317   1.527 -0.3025  2.2794  1.5902
    1SOL    HW3 3683   3.356   4.360   1.389 -0.4805 -1.4463  0.3142
    1SOL    MW4 3684   3.373   4.350   1.474 -0.1972  0.4034  0.4954
    1SOL     OW 3685   3.816   4.648   1.621 -0.0684 -0.0667 -0.4835
    1SOL    HW2 3686   3.850   4.652   1.711 -0.1318  0.1857 -0.4696
    1SOL    HW3 3687   3.882   4.693   1.569 -0.6578  0.9494 -0.3712
    1SOL    MW4 3688   3.829   4.654   1.626 -0.1547  0.0997 -0.4671
    1SOL     OW 3689   3.550   0.060   1.505 -0.2450  0.0554  0.2146
    1SOL    HW2 3690   3.627   0.029   1.553 -0.2005 -1.3401 -0.7158
    1SOL    HW3 3691   3.582   0.078   1.417 -0.6648  1.0109  0.2540
    1SOL    MW4 3692   3.564   0.058   1.500 -0.2949 -0.0027  0.0969
    1SOL     OW 3693   3.585   0.344   1.571  0.3531 -0.4488  0.1553
    1SOL    HW2 3694   3.577   0.252   1.543 -0.2259  0.0675 -1.4036
    1SOL    HW3 3695   3.496   0.378   1.568  0.9601  1.1011 -2.6162
    1SOL    MW4 3696   3.572   0.336   1.567  0.3567 -0.1762 -0.4159
    1SOL     OW 3697   3.829   0.468   1.517 -0.0747  0.4737 -0.0490
    1SOL    HW2 3698   3.747   0.428   1.547 -1.0915  2.7447  0.3377
    1SOL    HW3 3699   3.819   0.475   1.423 -0.3666  0.8018  0.0037
    1SOL    MW4 3700   3.817   0.464   1.509 -0.2475  0.8166  0.0091
    1SOL     OW 3701   3.841   0.739   1.615 -0.1051 -0.0511 -0.3460
    1SOL    HW2 3702   3.761   0.781   1.582  0.4764 -0.2388 -2.0183
    1SOL    HW3 3703   3.835   0.649   1.586  1.0772  0.1174 -1.1372
    1SOL    MW4 3704   3.830   0.733   1.607  0.1276 -0.0537 -0.6711
    1SOL     OW 3705   3.602   0.891   1.503 -0.0531  0.0470 -0.2613
    1SOL    HW2 3706   3.534   0.834   1.539 -1.2107  0.8159 -1.1614
    1SOL    HW3 3707   3.602   0.870   1.409 -1.4109  2.4171 -0.8311
    1SOL    MW4 3708   3.593   0.881   1.495 -0.3848  0.4611 -0.4551
    1SOL     OW 3709   3.592   1.156   1.563  0.4538 -0.1899 -0.2704
    1SOL    HW2 3710   3.675   1.176   1.520  0.3309 -0.3886 -0.6006
    1SOL    HW3 3711   3.586   1.060   1.560  0.3133 -0.1884 -0.0570
    1SOL    MW4 3712   3.602   1.146   1.557  0.4191 -0.2160 -0.2857
    1SOL     OW 3713   3.827   1.267   1.470 -0.1900 -0.1075 -0.2520
    1SOL    HW2 3714   3.907   1.237   1.514  0.8931  1.6592 -0.9236
    1SOL    HW3 3715   3.812   1.354   1.507 -1.2484 -0.0403 -0.8436
    1SOL    MW4 3716   3.836   1.275   1.481 -0.1869  0.1345 -0.4187
    1SOL     OW 3717   3.807   1.504   1.600 -0.3247  0.1547 -0.2599
    1SOL    HW2 3718   3.805   1.492   1.695 -2.9168 -2.5381 -0.6047
    1SOL    HW3 3719   3.736   1.566   1.583 -0.0993  0.3488 -0.4987
    1SOL    MW4 3720   3.798   1.511   1.611 -0.6368 -0.1749 -0.3369
    1SOL     OW 3721   3.590   1.674   1.541  0.0353 -0.5204 -0.0626
    1SOL    HW2 3722   3.502   1.649   1.568 -0.9554  2.9891  0.2862
    1SOL    HW3 3723   3.589   1.670   1.446 -1.2313  1.6283 -0.1626
    1SOL    MW4 3724   3.579   1.670   1.532 -0.2625  0.2261 -0.0298
    1SOL     OW 3725   3.652   1.938   1.617 -0.0998 -0.2017 -0.6473
    1SOL    HW2 3726   3.626   1.851   1.588  0.5979 -0.0677 -1.6887
    1SOL    HW3 3727   3.582   1.995   1.585 -0.5795 -0.3724  0.0732
    1SOL    MW4 3728   3.639   1.934   1.609 -0.0713 -0.2065 -0.6896
    1SOL     OW 3729   3.893   2.074   1.535 -0.2219  0.5325 -0.6205
    1SOL    HW2 3730   3.870   2.157   1.577 -0.6294  0.2257 -0.2360
    1SOL    HW3 3731   3.823   2.014   1.560  0.7808 -0.3003  0.2388
    1SOL    MW4 3732   3.881   2.077   1.544 -0.1435  0.3822 -0.4565
    1SOL     OW 3733   3.833   2.334   1.620 -0.0483 -0.2487  0.1544
    1SOL    HW2 3734   3.845   2.330   1.715 -1.0820  1.0017  0.3393
    1SOL    HW3 3735   3.914   2.373   1.587  0.1863 -0.4053  0.5347
    1SOL    MW4 3736   3.845   2.338   1.628 -0.1538 -0.1044  0.2289
    1SOL     OW 3737   3.627   2.423   1.473  0.7308  0.4644 -0.4874
    1SOL    HW2 3738   3.610   2.504   1.522  1.5667  0.8200 -0.7819
    1SOL    HW3 3739   3.703   2.384   1.517 -0.2304 -0.6281  0.2257
    1SOL    MW4 3740   3.635   2.429   1.485  0.7143  0.3674 -0.4323
    1SOL     OW 3741   3.597   2.668   1.614 -0.2004 -0.2847  0.2606
    1SOL    HW2 3742   3.590   2.658   1.709  0.6840 -1.2838  0.2231
    1SOL    HW3 3743   3.517   2.714   1.590 -0.8982 -0.8745  1.3766
    1SOL    MW4 3744   3.585   2.673   1.624 -0.1757 -0.4945  0.4029
    1SOL     OW 3745   3.789   2.834   1.495 -0.2154 -0.1632 -0.0780
    1SOL    HW2 3746   3.876   2.809   1.524  0.3301  1.0378 -0.6417
    1SOL    HW3 3747   3.730   2.779   1.547  0.7652  1.1718  2.5626
    1SOL    MW4 3748   3.793   2.824   1.506 -0.0143  0.1714  0.1960
    1SOL     OW 3749   3.808   3.086   1.602  0.5131 -0.0989 -0.0831
    1SOL    HW2 3750   3.900   3.109   1.590  0.0604  1.1445 -1.3571
    1SOL    HW3 3751   3.797   3.006   1.550  0.7628  0.0305 -0.3401
    1SOL    MW4 3752   3.819   3.079   1.593  0.4861  0.0825 -0.2851
    1SOL     OW 3753   3.598   3.260   1.531  0.0417 -0.1252  0.5009
    1SOL    HW2 3754   3.669   3.211   1.573  0.3478  1.0852  1.4232
    1SOL    HW3 3755   3.612   3.246   1.438  1.2970 -0.1817  0.6816
    1SOL    MW4 3756   3.609   3.251   1.524  0.2475  0.0272  0.6465
    1SOL     OW 3757   3.617   3.507   1.645  0.0977 -0.2972  0.3182
    1SOL    HW2 3758   3.690   3.540   1.593 -0.1522 -1.5313 -0.8213
    1SOL    HW3 3759   3.603   3.418   1.614 -1.0349 -0.5311  1.4530
    1SOL    MW4 3760   3.625   3.500   1.634 -0.0846 -0.4907  0.3177
    1SOL     OW 3761   3.850   3.606   1.498  0.0464  0.1617  0.4079
    1SOL    HW2 3762   3.924   3.561   1.538 -0.2288 -0.3807  0.3075
    1SOL    HW3 3763   3.839   3.686   1.550  0.0842 -0.2319  1.0238
    1SOL    MW4 3764   3.858   3.611   1.510  0.0150  0.0381  0.4759
    1SOL     OW 3765   3.789   3.858   1.628  0.5071 -0.2893  0.0313
    1SOL    HW2 3766   3.870   3.901   1.599 -0.1131  0.4140 -0.6850
    1SOL    HW3 3767   3.719   3.911   1.589 -0.3229 -0.2980  1.4782
    1SOL    MW4 3768   3.791   3.871   1.619  0.3157 -0.1979  0.1276
    1SOL     OW 3769   3.589   4.009   1.491 -0.1094  0.4825 -0.1200
    1SOL    HW2 3770   3.598   4.100   1.520 -1.2594  0.7018 -0.4239
    1SOL    HW3 3771   3.513   3.976   1.538 -0.2119 -0.0546 -0.6539
    1SOL    MW4 3772   3.580   4.017   1.501 -0.2747  0.4401 -0.2304
    1SOL     OW 3773   3.613   4.247   1.595 -0.1741  0.2629 -0.2781
    1SOL    HW2 3774   3.612   4.229   1.689  2.3633  0.2943 -0.2093
    1SOL    HW3 3775   3.526   4.284   1.577 -0.5918  0.5432  2.1024
    1SOL    MW4 3776   3.601   4.250   1.605  0.1056  0.3037  0.0452
    1SOL     OW 3777   3.810   4.410   1.484  0.1483 -0.0060  0.1228
    1SOL    HW2 3778   3.753   4.349   1.531  0.4458 -0.7055 -0.4192
    1SOL    HW3 3779   3.796   4.494   1.528 -1.7807 -0.0241 -0.3854
    1SOL    MW4 3780   3.800   4.413   1.496 -0.0670 -0.1011 -0.0159
    1SOL     OW 3781   4.290   4.628   1.593  0.0536  0.2333 -0.1398
    1SOL    HW2 3782   4.302   4.621   1.688  1.7106  1.1071 -0.2654
    1SOL    HW3 3783   4.281   4.537   1.564  0.3750 -0.0895  0.7491
    1SOL    MW4 3784   4.290   4.615   1.602  0.3147  0.3066 -0.0391
    1SOL     OW 3785   4.063   0.083   1.517 -0.4998  0.3964  0.3426
    1SOL    HW2 3786   4.075   0.178   1.529  1.1463  0.3302 -0.5504
    1SOL    HW3 3787   4.146   0.045   1.546  0.0148 -0.5015 -2.1758
    1SOL    MW4 3788   4.076   0.091   1.523 -0.2151  0.2692 -0.1075
    1SOL     OW 3789   4.071   0.346   1.612  0.6725 -0.7630  0.0765
    1SOL    HW2 3790   4.062   0.348   1.707  0.0956 -1.1852  0.0418
    1SOL    HW3 3791   3.997   0.398   1.580  1.6161  0.4557 -0.1093
    1SOL    MW4 3792   4.060   0.353   1.621  0.7205 -0.6579  0.0476
    1SOL     OW 3793   4.278   0.501   1.532 -0.0625 -0.4028 -0.2167
    1SOL    HW2 3794   4.215   0.440   1.569  0.2289 -1.2817 -1.1588
    1SOL    HW3 3795   4.362   0.474   1.568 -0.2239  0.8714  1.1717
    1SOL    MW4 3796   4.281   0.490   1.541 -0.0453 -0.3507 -0.1578
    1SOL     OW 3797   4.286   0.770   1.609  0.2367 -0.3787  0.1169
    1SOL    HW2 3798   4.278   0.688   1.561 -1.0813  0.0118 -0.3527
    1SOL    HW3 3799   4.368   0.808   1.577 -0.2590 -0.4680 -1.2840
    1SOL    MW4 3800   4.296   0.764   1.599 -0.0024 -0.3390 -0.1299
    1SOL     OW 3801   4.034   0.889   1.503 -0.1447  0.1133 -0.0757
    1SOL    HW2 3802   4.109   0.848   1.546  0.4778  0.4052 -0.8856
    1SOL    HW3 3803   3.961   0.831   1.523  0.3143 -0.2420  0.6033
    1SOL    MW4 3804   4.034   0.876   1.511 -0.0024  0.1048 -0.0929
    1SOL     OW 3805   4.043   1.143   1.634 -0.2407  0.2583 -0.3167
    1SOL    HW2 3806   4.048   1.142   1.730  0.8500  1.3832 -0.3576
    1SOL    HW3 3807   4.020   1.053   1.611  1.0170 -0.4025  0.9204
    1SOL    MW4 3808   4.041   1.131   1.644  0.0691  0.3196 -0.1588
    1SOL     OW 3809   4.228   1.275   1.486 -0.2778 -0.4955 -0.3940
    1SOL    HW2 3810   4.162   1.248   1.549  1.0933  0.0286  1.3115
    1SOL    HW3 3811   4.307   1.227   1.511  1.3241  2.5544  0.7320
    1SOL    MW4 3812   4.230   1.265   1.497  0.1140 -0.0240 -0.0204
    1SOL     OW 3813   4.286   1.515   1.615  0.3634 -0.1671  0.3760
    1SOL    HW2 3814   4.269   1.439   1.559  0.0771  0.6186 -0.6139
    1SOL    HW3 3815   4.364   1.555   1.577 -0.1195  0.6492  0.2378
    1SOL    MW4 3816   4.294   1.510   1.603  0.2623  0.0442  0.2271
    1SOL     OW 3817   4.034   1.659   1.522  0.3799  0.3390  0.4503
    1SOL    HW2 3818   4.110   1.610   1.554  0.6629  0.0131 -0.6847
    1SOL    HW3 3819   3.959   1.604   1.545  0.6187 -0.1335  0.1147
    1SOL    MW4 3820   4.034   1.645   1.529  0.4487  0.2335  0.2562
    1SOL     OW 3821   4.102   1.923   1.633 -0.3934 -0.2811  0.1607
    1SOL    HW2 3822   4.086   1.832   1.609  0.0078 -0.3841  0.2811
    1SOL    HW3 3823   4.030   1.971   1.592 -1.1354 -0.7646  0.8849
    1SOL    MW4 3824   4.090   1.917   1.624 -0.4387 -0.3585  0.2720
    1SOL     OW 3825   4.295   2.092   1.518  0.3216  0.3187  0.0752
    1SOL    HW2 3826   4.233   2.031   1.558  0.0251  0.7256  0.2489
    1SOL    HW3 3827   4.285   2.079   1.424 -1.4576  1.7443  0.0216
    1SOL    MW4 3828   4.285   2.082   1.511  0.0477  0.5605  0.0910
    1SOL     OW 3829   4.277   2.351   1.616  0.4244  0.2196  0.3633
    1SOL    HW2 3830   4.278   2.366   1.711  0.6618  1.0259  0.2317
    1SOL    HW3 3831   4.275   2.256   1.607  3.9265  0.0188  1.1464
    1SOL    MW4 3832   4.277   2.340   1.628  0.9174  0.2995  0.4493
    1SOL     OW 3833   4.044   2.467   1.518  0.4895 -0.4142  0.1401
    1SOL    HW2 3834   4.048   2.554   1.556  0.1098 -1.4031  2.5372
    1SOL    HW3 3835   4.126   2.426   1.543  0.1318 -1.1554  0.1107
    1SOL    MW4 3836   4.055   2.473   1.526  0.3920 -0.6428  0.4525
    1SOL     OW 3837   4.046   2.745   1.599 -0.1408 -0.2983 -0.0091
    1SOL    HW2 3838   4.055   2.742   1.694  0.9462 -0.8619 -0.1277
    1SOL    HW3 3839   4.131   2.775   1.567 -0.3372 -0.5879 -0.8347
    1SOL    MW4 3840   4.059   2.749   1.607 -0.0243 -0.4106 -0.1335
    1SOL     OW 3841   4.291   2.838   1.495 -0.0336  0.2205  0.1366
    1SOL    HW2 3842   4.301   2.931   1.512  0.6939 -0.0736  1.3669
    1SOL    HW3 3843   4.277   2.832   1.401  0.2999  1.5339 -0.0043
    1SOL    MW4 3844   4.290   2.849   1.485  0.1059  0.3550  0.2803
    1SOL     OW 3845   4.297   3.103   1.565  0.0478 -0.3191  0.1710
    1SOL    HW2 3846   4.281   3.109   1.659  0.8222  0.2669  0.2760
    1SOL    HW3 3847   4.368   3.165   1.549  0.1759 -0.6883 -0.7403
    1SOL    MW4 3848   4.305   3.112   1.575  0.1664 -0.2906  0.0645
    1SOL     OW 3849   4.052   3.186   1.497 -0.0752 -0.5108 -0.0668
    1SOL    HW2 3850   4.065   3.273   1.533  0.6276 -0.0953 -1.2727
    1SOL    HW3 3851   4.134   3.140   1.515  1.0171  0.2958 -2.7079
    1SOL    MW4 3852   4.065   3.191   1.504  0.1616 -0.3493 -0.5745
    1SOL     OW 3853   4.053   3.434   1.612 -0.6370 -0.2304  0.5454
    1SOL    HW2 3854   4.043   3.431   1.707 -0.0528  1.4080  0.6672
    1SOL    HW3 3855   4.127   3.493   1.597 -1.7641  0.8357 -0.9697
    1SOL    MW4 3856   4.061   3.441   1.622 -0.7086  0.1264  0.3614
    1SOL     OW 3857   4.262   3.591   1.494 -0.4381 -0.0303  0.3596
    1SOL    HW2 3858   4.267   3.686   1.508  0.2005  0.1230 -0.7844
    1SOL    HW3 3859   4.262   3.582   1.398 -0.8909 -1.1625  0.4714
    1SOL    MW4 3860   4.263   3.602   1.483 -0.4134 -0.1595  0.2233
    1SOL     OW 3861   4.268   3.867   1.579  0.3339  0.1457  0.4547
    1SOL    HW2 3862   4.189   3.919   1.562  0.3971  0.6090  1.4955
    1SOL    HW3 3863   4.337   3.913   1.532  0.3044  0.7733  1.0051
    1SOL    MW4 3864   4.266   3.880   1.571  0.3390  0.2897  0.6646
    1SOL     OW 3865   4.023   4.000   1.544  0.1143 -0.2705  0.0206
    1SOL    HW2 3866   4.022   4.091   1.573 -0.8904 -0.8404  1.8003
    1SOL    HW3 3867   4.020   4.005   1.448 -3.0255  1.5286  0.1511
    1SOL    MW4 3868   4.023   4.012   1.535 -0.4325 -0.1087  0.2725
    1SOL     OW 3869   4.039   4.278   1.618  0.0355  0.1004 -0.1602
    1SOL    HW2 3870   4.011   4.278   1.710  0.7830 -0.7160  0.0671
    1SOL    HW3 3871   3.967   4.322   1.572 -1.0199 -0.7936  0.6043
    1SOL    MW4 3872   4.026   4.284   1.624 -0.0048 -0.1259 -0.0292
    1SOL     OW 3873   4.275   4.379   1.498 -0.5306  0.0978  0.0291
    1SOL    HW2 3874   4.194   4.342   1.533 -0.3429 -1.9661 -1.6548
    1SOL    HW3 3875   4.259   4.388   1.404  1.5605 -1.3943 -0.5066
    1SOL    MW4 3876   4.262   4.376   1.490 -0.2298 -0.3710 -0.2637
    1SOL     OW 3877   0.222   4.655   1.879  0.3022  0.2675 -0.1632
    1SOL    HW2 3878   0.297   4.698   1.921  0.5839  0.9141 -1.2934
    1SOL    HW3 3879   0.246   4.652   1.786 -0.5466 -0.6358 -0.3530
    1SOL    MW4 3880   0.235   4.660   1.872  0.2274  0.2341 -0.3372
    1SOL     OW 3881   4.488   0.093   1.970 -0.4410 -0.0433  0.1022
    1SOL    HW2 3882   4.497   0.184   1.944  0.9024  0.3702  1.9078
    1SOL    HW3 3883   4.573   0.053   1.950 -0.6451 -0.6162  0.3433
    1SOL    MW4 3884   4.500   0.100   1.964 -0.2909 -0.0643  0.3723
    1SOL     OW 3885   0.019   0.369   1.870  0.4339  0.2109 -0.0365
    1SOL    HW2 3886  -0.065   0.414   1.876 -0.3776 -1.3561  0.9574
    1SOL    HW3 3887   0.080   0.423   1.920 -0.2079  0.8622  0.0446
    1SOL    MW4 3888   0.016   0.382   1.877  0.2421  0.0901  0.1053
    1SOL     OW 3889   0.218   0.533   2.005 -0.2837  0.0323 -0.1121
    1SOL    HW2 3890   0.285   0.488   1.955 -0.6314 -1.4303  0.6870
    1SOL    HW3 3891   0.211   0.619   1.965  1.3059 -0.1798 -0.8723
    1SOL    MW4 3892   0.226   0.538   1.993 -0.1198 -0.1887 -0.1072
    1SOL     OW 3893   0.261   0.783   1.895 -0.1965  0.0073 -0.5090
    1SOL    HW2 3894   0.347   0.820   1.916 -1.1928  1.5840  0.8491
    1SOL    HW3 3895   0.262   0.773   1.799  1.5227 -0.1136 -0.5032
    1SOL    MW4 3896   0.273   0.786   1.885 -0.1011  0.1993 -0.3291
    1SOL     OW 3897   0.025   0.917   1.987 -0.2370 -0.0855  0.2642
    1SOL    HW2 3898  -0.043   0.861   1.949 -0.0383 -0.7044  0.8171
    1SOL    HW3 3899   0.106   0.868   1.976 -0.0308  0.1896  0.5502
    1SOL    MW4 3900   0.026   0.903   1.981 -0.1836 -0.1309  0.3749
    1SOL     OW 3901   0.012   1.127   1.825 -0.0064 -0.1353  0.0670
    1SOL    HW2 3902  -0.066   1.171   1.860 -1.2406 -1.3081 -1.1647
    1SOL    HW3 3903   0.020   1.048   1.877 -0.8376 -1.0251 -1.1363
    1SOL    MW4 3904   0.003   1.123   1.837 -0.2789 -0.4075 -0.2543
    1SOL     OW 3905   0.241   1.256   1.965 -0.0662 -0.2552  0.0312
    1SOL    HW2 3906   0.245   1.336   1.912 -1.2808  0.0124  0.3340
    1SOL    HW3 3907   0.165   1.209   1.931  0.1376 -0.8739  0.4355
    1SOL    MW4 3908   0.232   1.260   1.953 -0.1996 -0.3015  0.1246
    1SOL     OW 3909   0.217   1.503   1.829 -0.2496  0.1186 -0.3138
    1SOL    HW2 3910   0.292   1.547   1.869  0.3121 -1.1804  0.0886
    1SOL    HW3 3911   0.141   1.540   1.874  0.4365 -2.2840  2.9398
    1SOL    MW4 3912   0.217   1.514   1.840 -0.0850 -0.3699  0.1684
    1SOL     OW 3913   0.003   1.619   1.940 -0.1617 -0.0086 -0.2511
    1SOL    HW2 3914   0.003   1.627   2.036  1.6580 -1.4590 -0.1044
    1SOL    HW3 3915  -0.079   1.574   1.920  0.3687 -1.4846  0.7979
    1SOL    MW4 3916  -0.008   1.614   1.950  0.1484 -0.3948 -0.0933
    1SOL     OW 3917   4.483   1.890   1.893  0.4767  0.2163 -0.2090
    1SOL    HW2 3918   4.414   1.934   1.943  0.6643  1.2235 -0.8183
    1SOL    HW3 3919   4.469   1.797   1.910 -0.5200  0.4549  0.3440
    1SOL    MW4 3920   4.472   1.883   1.902  0.3695  0.3806 -0.2164
    1SOL     OW 3921   0.205   2.039   1.982  0.2089 -0.2347  0.7030
    1SOL    HW2 3922   0.197   2.123   1.937 -0.0556 -0.4045  0.4273
    1SOL    HW3 3923   0.130   1.988   1.951  0.4778 -0.6417  0.7121
    1SOL    MW4 3924   0.194   2.043   1.972  0.2095 -0.3107  0.6679
    1SOL     OW 3925   0.224   2.306   1.879 -0.1932 -0.0879  0.2370
    1SOL    HW2 3926   0.304   2.354   1.901  0.3358 -0.9099  0.1222
    1SOL    HW3 3927   0.153   2.361   1.912  0.2967  1.7002 -1.5599
    1SOL    MW4 3928   0.225   2.320   1.886 -0.0588  0.0398 -0.0151
    1SOL     OW 3929   0.022   2.443   1.999  0.1491  0.0098  0.2703
    1SOL    HW2 3930   0.012   2.449   2.094  0.5261 -0.8687  0.3727
    1SOL    HW3 3931   0.025   2.533   1.969 -1.7463  0.3121  0.9100
    1SOL    MW4 3932   0.021   2.455   2.008 -0.0505 -0.0660  0.3684
    1SOL     OW 3933   4.486   2.696   1.886 -0.8195 -0.5556 -0.2779
    1SOL    HW2 3934   4.414   2.754   1.908 -0.1783  0.5075 -0.9407
    1SOL    HW3 3935   4.484   2.690   1.791  0.6109  0.3436 -0.3826
    1SOL    MW4 3936   4.476   2.703   1.877 -0.5461 -0.2966 -0.3791
    1SOL     OW 3937   0.230   2.813   1.946  0.3153 -0.6725  0.1684
    1SOL    HW2 3938   0.220   2.906   1.926  3.4343 -0.7164 -1.8192
    1SOL    HW3 3939   0.144   2.775   1.925 -0.5424  1.4790 -0.3588
    1SOL    MW4 3940   0.217   2.820   1.941  0.6136 -0.3946 -0.1633
    1SOL     OW 3941   0.222   3.083   1.878 -0.1172 -0.0064  0.0870
    1SOL    HW2 3942   0.283   3.138   1.926  0.3544 -1.0061  0.6400
    1SOL    HW3 3943   0.225   3.117   1.788  0.9899  0.1772  0.1835
    1SOL    MW4 3944   0.230   3.094   1.872  0.0911 -0.1142  0.1727
    1SOL     OW 3945   4.489   3.209   1.956  0.1155 -0.0038 -0.3409
    1SOL    HW2 3946   4.411   3.167   1.921 -0.6113 -0.1497  1.4213
    1SOL    HW3 3947   4.560   3.148   1.937 -0.6418 -1.1944  0.5629
    1SOL    MW4 3948   4.488   3.196   1.949 -0.0801 -0.1800  0.0110
    1SOL     OW 3949   4.481   3.475   1.853 -0.2477  0.0248 -0.2808
    1SOL    HW2 3950   4.555   3.525   1.888  0.3367  0.1299 -1.6411
    1SOL    HW3 3951   4.483   3.392   1.901  1.2386 -0.2869 -0.8793
    1SOL    MW4 3952   4.491   3.470   1.864  0.0262 -0.0026 -0.5392
    1SOL     OW 3953   0.235   3.651   1.952  0.2462 -0.1000  0.1721
    1SOL    HW2 3954   0.224   3.651   2.047  1.3116  2.2057  0.3176
    1SOL    HW3 3955   0.306   3.589   1.936  0.4572 -0.0560  0.9238
    1SOL    MW4 3956   0.243   3.643   1.963  0.4146  0.2103  0.2905
    1SOL     OW 3957   0.255   3.912   1.857  1.2667 -0.6262 -0.1637
    1SOL    HW2 3958   0.329   3.954   1.901  0.2835 -0.2529  1.1673
    1SOL    HW3 3959   0.255   3.823   1.891  0.4954 -0.3340  0.6054
    1SOL    MW4 3960   0.265   3.906   1.867  1.0352 -0.5383  0.1135
    1SOL     OW 3961   4.487   3.987   1.946  0.0364 -0.0420  0.3159
    1SOL    HW2 3962   4.482   4.080   1.924  0.1632  0.1011  0.8718
    1SOL    HW3 3963   4.574   3.960   1.915  0.0790  0.0769  0.3313
    1SOL    MW4 3964   4.498   3.996   1.939  0.0582 -0.0074  0.3912
    1SOL     OW 3965   4.466   4.249   1.878 -0.1676  0.0215 -0.1826
    1SOL    HW2 3966   4.396   4.301   1.918  0.6238  0.5709  0.5207
    1SOL    HW3 3967   4.546   4.297   1.900  0.6034 -1.6157  0.6820
    1SOL    MW4 3968   4.468   4.262   1.886  0.0386 -0.1221  0.0243
    1SOL     OW 3969   0.208   4.382   1.953  0.0854  0.0866 -0.1484
    1SOL    HW2 3970   0.202   4.386   2.049  1.9884  0.1426 -0.0085
    1SOL    HW3 3971   0.203   4.474   1.925  0.7269  0.1766  0.0042
    1SOL    MW4 3972   0.207   4.395   1.962  0.4211  0.1059 -0.1098
    1SOL     OW 3973   0.689   0.054   1.883 -0.2567  0.1717  0.6429
    1SOL    HW2 3974   0.709  -0.033   1.918  0.7225  0.6737  1.3588
    1SOL    HW3 3975   0.688   0.043   1.788  1.4323 -0.2966  0.6649
    1SOL    MW4 3976   0.691   0.041   1.875  0.0954  0.1761  0.7403
    1SOL     OW 3977   0.434   0.140   1.988 -0.2753 -0.2006 -0.0143
    1SOL    HW2 3978   0.433   0.226   1.947 -0.3638 -0.3505 -0.3285
    1SOL    HW3 3979   0.511   0.097   1.952 -0.4556 -0.3997 -0.1662
    1SOL    MW4 3980   0.444   0.146   1.978 -0.3108 -0.2466 -0.0759
    1SOL     OW 3981   0.436   0.385   1.878  0.0261 -0.2395 -0.0635
    1SOL    HW2 3982   0.503   0.441   1.918 -0.1051  0.1791 -0.4265
    1SOL    HW3 3983   0.463   0.377   1.786 -0.2274 -0.3606 -0.1287
    1SOL    MW4 3984   0.449   0.392   1.871 -0.0247 -0.2002 -0.1199
    1SOL     OW 3985   0.637   0.550   1.978  0.2775 -0.3951 -0.3298
    1SOL    HW2 3986   0.644   0.547   2.074  0.0069 -0.3873 -0.3083
    1SOL    HW3 3987   0.719   0.512   1.947  0.3467 -0.4429 -0.0925
    1SOL    MW4 3988   0.649   0.544   1.987  0.2509 -0.4003 -0.2958
    1SOL     OW 3989   0.702   0.795   1.843  0.3485  0.0891 -0.1341
    1SOL    HW2 3990   0.780   0.823   1.890 -1.4162  2.0103  1.7613
    1SOL    HW3 3991   0.682   0.708   1.878  0.4889  0.4557  0.8832
    1SOL    MW4 3992   0.709   0.787   1.854  0.1342  0.3909  0.2502
    1SOL     OW 3993   0.501   0.926   1.973 -0.0596 -0.3846  0.0432
    1SOL    HW2 3994   0.509   1.018   1.944  0.5295 -0.1728  0.8645
    1SOL    HW3 3995   0.568   0.880   1.922  0.6855 -0.0873  0.7471
    1SOL    MW4 3996   0.511   0.932   1.962  0.1165 -0.3174  0.2445
    1SOL     OW 3997   0.485   1.182   1.881 -0.2812  0.1046 -0.1002
    1SOL    HW2 3998   0.399   1.202   1.917 -0.0623  2.1626 -0.6435
    1SOL    HW3 3999   0.470   1.175   1.787 -0.0326 -0.5977 -0.0908
    1SOL    MW4 4000   0.471   1.184   1.873 -0.2196  0.2836 -0.1706
    1SOL     OW 4001   0.714   1.341   1.954  0.6979  0.0156  0.0907
    1SOL    HW2 4002   0.724   1.324   2.048 -0.1685  0.2352  0.2254
    1SOL    HW3 4003   0.638   1.290   1.928 -0.9152  2.3404  0.1539
    1SOL    MW4 4004   0.705   1.332   1.963  0.3708  0.3512  0.1168
    1SOL     OW 4005   0.663   1.587   1.842  0.2120  0.3348 -0.4194
    1SOL    HW2 4006   0.660   1.497   1.876  0.6581  0.8680  1.0405
    1SOL    HW3 4007   0.670   1.576   1.747 -1.5558 -1.1654 -0.4005
    1SOL    MW4 4008   0.663   1.574   1.834  0.0376  0.2072 -0.2244
    1SOL     OW 4009   0.425   1.662   1.943 -0.2837  0.2660 -0.1332
    1SOL    HW2 4010   0.426   1.652   2.038 -0.8215  1.9467  0.0682
    1SOL    HW3 4011   0.514   1.641   1.915  0.4656  1.8870  0.9843
    1SOL    MW4 4012   0.437   1.658   1.952 -0.2558  0.7015  0.0408
    1SOL     OW 4013   0.431   1.925   1.856  0.4282 -0.2422 -0.3002
    1SOL    HW2 4014   0.413   1.837   1.888 -2.1473 -0.3405 -1.8628
    1SOL    HW3 4015   0.366   1.980   1.900  2.7382  1.1236  1.5454
    1SOL    MW4 4016   0.420   1.921   1.866  0.3932 -0.0749 -0.2629
    1SOL     OW 4017   0.650   2.068   1.950  0.2377 -0.1951 -0.2941
    1SOL    HW2 4018   0.644   2.062   2.045  0.0289  3.1599 -0.0452
    1SOL    HW3 4019   0.567   2.034   1.919 -0.0832 -0.4060  0.7659
    1SOL    MW4 4020   0.639   2.062   1.958  0.1678  0.2193 -0.1215
    1SOL     OW 4021   0.686   2.347   1.845 -0.1852 -0.4509 -0.1933
    1SOL    HW2 4022   0.685   2.253   1.864  0.4660 -0.2055  1.1556
    1SOL    HW3 4023   0.657   2.354   1.754  1.2504 -2.0773 -0.8004
    1SOL    MW4 4024   0.682   2.336   1.836  0.0901 -0.6330 -0.0954
    1SOL     OW 4025   0.442   2.438   1.967  0.4295  0.3124 -0.6460
    1SOL    HW2 4026   0.443   2.452   2.062 -1.1019 -0.2563 -0.5300
    1SOL    HW3 4027   0.530   2.409   1.946  0.5015 -0.4970  0.7584
    1SOL    MW4 4028   0.454   2.436   1.977  0.2369  0.1307 -0.4455
    1SOL     OW 4029   0.482   2.701   1.878  0.1364  0.2987  0.0285
    1SOL    HW2 4030   0.474   2.607   1.893  0.5988  0.3250  0.4442
    1SOL    HW3 4031   0.398   2.737   1.906 -0.5413 -0.1404 -1.3903
    1SOL    MW4 4032   0.470   2.693   1.883  0.1080  0.2444 -0.1038
    1SOL     OW 4033   0.700   2.839   1.973  0.2084 -0.1036  0.1255
    1SOL    HW2 4034   0.684   2.825   2.066  2.2992 -1.2403  0.3441
    1SOL    HW3 4035   0.622   2.803   1.930  0.3215 -1.7927  1.3053
    1SOL    MW4 4036   0.687   2.833   1.979  0.4992 -0.4764  0.3099
    1SOL     OW 4037   0.651   3.123   1.897  0.1065  0.1293 -0.1518
    1SOL    HW2 4038   0.665   3.042   1.944  0.7663  1.1667  1.4571
    1SOL    HW3 4039   0.648   3.097   1.805  0.1079 -1.7287  0.3580
    1SOL    MW4 4040   0.652   3.109   1.891  0.1937  0.0210  0.1276
    1SOL     OW 4041   0.419   3.225   2.008  0.0252 -0.5113  0.3709
    1SOL    HW2 4042   0.426   3.315   1.979 -0.2813 -0.6642 -0.1929
    1SOL    HW3 4043   0.500   3.183   1.979 -0.3130 -0.6820 -0.3490
    1SOL    MW4 4044   0.430   3.231   2.000 -0.0598 -0.5538  0.2015
    1SOL     OW 4045   0.438   3.484   1.918 -0.1087 -0.1078  0.1698
    1SOL    HW2 4046   0.502   3.548   1.947  0.6168 -0.4753 -0.6159
    1SOL    HW3 4047   0.448   3.480   1.823  0.4620 -1.9993  0.2769
    1SOL    MW4 4048   0.448   3.492   1.909  0.0623 -0.4058  0.0802
    1SOL     OW 4049   0.682   3.607   1.997 -0.3521 -0.6177  0.4981
    1SOL    HW2 4050   0.762   3.565   1.964  0.0292 -0.2793  0.9916
    1SOL    HW3 4051   0.681   3.692   1.953 -1.7007 -1.5456 -1.3550
    1SOL    MW4 4052   0.692   3.613   1.987 -0.4797 -0.6957  0.3186
    1SOL     OW 4053   0.686   3.881   1.881  0.2541  0.3409 -0.1597
    1SOL    HW2 4054   0.747   3.935   1.930 -0.3309 -0.8901  1.9540
    1SOL    HW3 4055   0.711   3.894   1.789  2.4931  1.2563  0.5660
    1SOL    MW4 4056   0.697   3.890   1.875  0.4723  0.2992  0.2151
    1SOL     OW 4057   0.485   4.025   1.996 -0.4565 -0.7318  0.3375
    1SOL    HW2 4058   0.485   4.117   1.971 -0.6483 -0.6181  0.7510
    1SOL    HW3 4059   0.558   3.987   1.947 -2.1383 -0.9784 -2.0258
    1SOL    MW4 4060   0.495   4.032   1.986 -0.7037 -0.7491  0.0803
    1SOL     OW 4061   0.460   4.295   1.903 -0.0117 -0.1675 -0.0836
    1SOL    HW2 4062   0.373   4.335   1.911  0.1530 -0.0597  1.2279
    1SOL    HW3 4063   0.464   4.264   1.812 -0.6358  1.6314 -0.7313
    1SOL    MW4 4064   0.449   4.296   1.892 -0.0723  0.0844  0.0041
    1SOL     OW 4065   0.660   4.457   1.974  0.4446  0.1592  0.5166
    1SOL    HW2 4066   0.737   4.412   1.942 -0.7020 -0.4669 -1.4693
    1SOL    HW3 4067   0.586   4.412   1.932 -0.9088  1.6913  1.1691
    1SOL    MW4 4068   0.660   4.445   1.964  0.1147  0.2789  0.3406
    1SOL     OW 4069   1.103   0.027   1.915  0.0030  0.3185 -0.3522
    1SOL    HW2 4070   1.183   0.080   1.918  0.3957 -0.3169  0.6127
    1SOL    HW3 4071   1.122  -0.048   1.971 -0.8537 -0.4255 -1.0587
    1SOL    MW4 4072   1.116   0.024   1.923 -0.0582  0.1365 -0.3182
    1SOL     OW 4073   0.894   0.210   2.003  0.1485  0.2771 -0.0774
    1SOL    HW2 4074   0.968   0.163   1.964  0.6415 -0.2076  1.3828
    1SOL    HW3 4075   0.817   0.162   1.973  0.4985  0.1423 -0.7619
    1SOL    MW4 4076   0.894   0.197   1.994  0.2597  0.1953  0.0248
    1SOL     OW 4077   0.887   0.448   1.874 -0.2414  0.2302 -0.2914
    1SOL    HW2 4078   0.972   0.487   1.893  0.3211 -0.3250 -1.6139
    1SOL    HW3 4079   0.888   0.365   1.921 -0.8538  1.1167  1.3165
    1SOL    MW4 4080   0.898   0.442   1.883 -0.2480  0.2739 -0.2537
    1SOL     OW 4081   1.131   0.551   1.943 -0.2426 -0.0807  0.3862
    1SOL    HW2 4082   1.219   0.524   1.917 -0.4129 -0.1034 -0.1777
    1SOL    HW3 4083   1.131   0.646   1.928  0.5558  0.3502  2.9487
    1SOL    MW4 4084   1.143   0.560   1.937 -0.1597 -0.0268  0.6499
    1SOL     OW 4085   1.132   0.817   1.851  0.1515 -0.1413  0.2435
    1SOL    HW2 4086   1.209   0.870   1.875  0.5108 -0.6416  0.2156
    1SOL    HW3 4087   1.063   0.848   1.910  0.6408 -0.3568  0.9418
    1SOL    MW4 4088   1.133   0.828   1.862  0.2635 -0.2357  0.3320
    1SOL     OW 4089   0.909   0.907   1.976  0.0508  0.4453  0.3461
    1SOL    HW2 4090   0.903   0.914   2.072  1.4945  1.3273  0.3948
    1SOL    HW3 4091   0.922   0.997   1.947  0.4194  0.0781 -0.6189
    1SOL    MW4 4092   0.910   0.920   1.985  0.2900  0.5133  0.2252
    1SOL     OW 4093   0.908   1.176   1.869  0.5335 -0.1440 -0.2982
    1SOL    HW2 4094   0.848   1.242   1.904  0.8569 -0.6855  1.3190
    1SOL    HW3 4095   0.899   1.184   1.774 -0.3439  1.3839 -0.1098
    1SOL    MW4 4096   0.899   1.186   1.861  0.4604 -0.0138 -0.0601
    1SOL     OW 4097   1.140   1.298   1.975  0.2114  0.0370 -0.2863
    1SOL    HW2 4098   1.121   1.387   1.945 -0.6640 -0.3680 -0.9256
    1SOL    HW3 4099   1.070   1.244   1.939  1.3027 -1.0936 -0.7464
    1SOL    MW4 4100   1.128   1.303   1.967  0.2400 -0.1656 -0.4313
    1SOL     OW 4101   1.142   1.533   1.840 -0.0058  0.0723  0.4106
    1SOL    HW2 4102   1.060   1.578   1.860  0.1240  0.6011 -0.2414
    1SOL    HW3 4103   1.151   1.539   1.745  0.6299 -0.2595  0.4436
    1SOL    MW4 4104   1.132   1.539   1.830  0.0952  0.0983  0.3289
    1SOL     OW 4105   0.922   1.626   1.959 -0.0764  0.2035  0.1443
    1SOL    HW2 4106   0.910   1.721   1.959  1.4123  0.3951 -0.6312
    1SOL    HW3 4107   0.848   1.593   1.908  0.6998  1.1318 -1.6282
    1SOL    MW4 4108   0.910   1.635   1.953  0.2224  0.3512 -0.1918
    1SOL     OW 4109   0.904   1.924   1.897 -0.0646  0.1344  0.0925
    1SOL    HW2 4110   0.817   1.962   1.903 -0.0861  0.2523 -0.7970
    1SOL    HW3 4111   0.915   1.904   1.804  0.6856 -0.2790  0.2630
    1SOL    MW4 4112   0.894   1.927   1.885  0.0317  0.0954 -0.0025
    1SOL     OW 4113   1.150   2.038   1.985 -0.0254 -0.3034  0.1800
    1SOL    HW2 4114   1.148   2.122   1.940  1.3469 -1.3290 -1.8341
    1SOL    HW3 4115   1.076   1.989   1.948  1.5796 -1.4411 -1.5960
    1SOL    MW4 4116   1.140   2.042   1.974  0.3675 -0.5889 -0.3201
    1SOL     OW 4117   1.129   2.290   1.881  0.0851  0.1131 -0.3465
    1SOL    HW2 4118   1.207   2.331   1.918  1.4161 -1.4079 -1.3864
    1SOL    HW3 4119   1.125   2.324   1.791 -0.5613  0.3179 -0.2434
    1SOL    MW4 4120   1.139   2.300   1.874  0.1754 -0.0608 -0.4702
    1SOL     OW 4121   0.922   2.445   1.985 -0.1616 -0.0410  0.2432
    1SOL    HW2 4122   0.983   2.375   1.959 -0.2792  0.4090 -1.3108
    1SOL    HW3 4123   0.837   2.414   1.955 -0.1469  0.9517 -0.8597
    1SOL    MW4 4124   0.919   2.431   1.978 -0.1751  0.1493 -0.1073
    1SOL     OW 4125   0.926   2.695   1.885  0.3657  0.3448 -0.5668
    1SOL    HW2 4126   0.931   2.604   1.913  1.3881 -0.1425 -2.2448
    1SOL    HW3 4127   0.844   2.727   1.922  0.3008 -1.0771  0.5558
    1SOL    MW4 4128   0.916   2.687   1.893  0.4920  0.0927 -0.6402
    1SOL     OW 4129   1.142   2.829   1.970  0.1773 -0.4883 -0.4569
    1SOL    HW2 4130   1.142   2.836   2.065  0.0330 -2.1153 -0.3192
    1SOL    HW3 4131   1.065   2.775   1.950  0.2533 -0.2255 -1.4788
    1SOL    MW4 4132   1.132   2.823   1.980  0.1682 -0.6683 -0.5735
    1SOL     OW 4133   1.124   3.082   1.874  0.2740  0.2229 -0.4580
    1SOL    HW2 4134   1.041   3.114   1.909 -0.0713  0.4386 -1.4470
    1SOL    HW3 4135   1.131   2.992   1.906 -0.4244  0.1518 -0.5123
    1SOL    MW4 4136   1.114   3.074   1.883  0.1363  0.2420 -0.5957
    1SOL     OW 4137   0.900   3.234   1.959 -0.4546 -0.1191 -0.1495
    1SOL    HW2 4138   0.898   3.225   2.055 -0.6290  0.5362 -0.0944
    1SOL    HW3 4139   0.812   3.210   1.931 -0.2878 -0.7089 -0.1838
    1SOL    MW4 4140   0.888   3.230   1.968 -0.4556 -0.1106 -0.1467
    1SOL     OW 4141   0.904   3.497   1.854 -0.0772  0.0292 -0.0455
    1SOL    HW2 4142   0.905   3.410   1.894  1.2177  0.2929  0.5393
    1SOL    HW3 4143   0.907   3.480   1.760 -0.8702 -0.5659  0.0300
    1SOL    MW4 4144   0.905   3.484   1.847 -0.0110 -0.0145  0.0416
    1SOL     OW 4145   1.106   3.650   2.011 -0.2416  0.3097 -0.2043
    1SOL    HW2 4146   1.094   3.646   2.106  2.2572 -1.5821  0.0681
    1SOL    HW3 4147   1.031   3.603   1.976  0.6098 -1.9964  0.9896
    1SOL    MW4 4148   1.095   3.643   2.019  0.2003 -0.2441 -0.0107
    1SOL     OW 4149   1.111   3.913   1.889  0.1962  0.3947  0.6684
    1SOL    HW2 4150   1.098   3.828   1.931  0.3693  0.2789  0.4891
    1SOL    HW3 4151   1.100   3.896   1.796 -0.0444  0.6239  0.6554
    1SOL    MW4 4152   1.108   3.900   1.882  0.1874  0.4096  0.6430
    1SOL     OW 4153   0.882   4.052   1.973  0.0642  0.1603 -0.4477
    1SOL    HW2 4154   0.885   4.046   2.069  0.6089 -0.6728 -0.5130
    1SOL    HW3 4155   0.962   4.008   1.944 -0.0646  0.4809 -1.2813
    1SOL    MW4 4156   0.893   4.045   1.982  0.1190  0.0925 -0.5661
    1SOL     OW 4157   0.905   4.337   1.889  0.3047 -0.0377  0.0750
    1SOL    HW2 4158   0.975   4.372   1.945 -1.7817  0.5932  2.4236
    1SOL    HW3 4159   0.902   4.244   1.909 -0.0557  0.0848  0.6096
    1SOL    MW4 4160   0.914   4.329   1.899 -0.0182  0.0620  0.4555
    1SOL     OW 4161   1.107   4.436   2.031 -0.1015 -0.5597 -0.3141
    1SOL    HW2 4162   1.114   4.413   2.123 -0.6045 -0.3875 -0.2329
    1SOL    HW3 4163   1.174   4.382   1.988  0.0146 -0.7693  0.1229
    1SOL    MW4 4164   1.117   4.426   2.037 -0.1526 -0.5641 -0.2456
    1SOL     OW 4165   1.588   0.004   1.849 -0.1892  0.4269  0.3006
    1SOL    HW2 4166   1.656   0.058   1.888 -0.8489  0.3519  1.5747
    1SOL    HW3 4167   1.596  -0.080   1.894 -1.1159  0.4182  0.4481
    1SOL    MW4 4168   1.598  -0.000   1.860 -0.3984  0.4158  0.4882
    1SOL     OW 4169   1.373   0.151   1.959  0.2848 -0.0808 -0.7222
    1SOL    HW2 4170   1.361   0.131   2.052 -1.0657 -0.2326 -0.9192
    1SOL    HW3 4171   1.447   0.096   1.932  0.4231 -0.3342  0.1584
    1SOL    MW4 4172   1.381   0.141   1.968  0.1249 -0.1343 -0.6320
    1SOL     OW 4173   1.367   0.421   1.884 -0.4207 -0.1706  0.0845
    1SOL    HW2 4174   1.375   0.336   1.927 -0.1605 -0.2735 -0.1668
    1SOL    HW3 4175   1.388   0.404   1.792  0.5976  0.3374  0.2125
    1SOL    MW4 4176   1.371   0.408   1.878 -0.2520 -0.1172  0.0683
    1SOL     OW 4177   1.565   0.561   2.011  0.2206  0.0498 -0.0578
    1SOL    HW2 4178   1.645   0.530   1.968 -0.0889  0.1063 -0.6723
    1SOL    HW3 4179   1.495   0.508   1.973 -0.0484  0.0690  0.4113
    1SOL    MW4 4180   1.566   0.550   2.000  0.1442  0.0598 -0.0770
    1SOL     OW 4181   1.588   0.781   1.871  0.3080 -0.3385  0.0201
    1SOL    HW2 4182   1.668   0.812   1.914 -1.5269  0.7525  2.8110
    1SOL    HW3 4183   1.561   0.706   1.924 -2.1043  1.1310  0.9351
    1SOL    MW4 4184   1.595   0.775   1.884 -0.2524 -0.0007  0.5090
    1SOL     OW 4185   1.376   0.953   1.913 -0.3666  0.5299  0.3430
    1SOL    HW2 4186   1.371   0.940   2.007 -0.2158  2.3478  0.6267
    1SOL    HW3 4187   1.449   0.897   1.885 -0.8685 -0.5594  1.1867
    1SOL    MW4 4188   1.385   0.944   1.921 -0.4129  0.6261  0.4916
    1SOL     OW 4189   1.389   1.228   1.876 -0.7181 -0.0087 -0.2723
    1SOL    HW2 4190   1.374   1.135   1.895 -0.5036  0.0500  0.1972
    1SOL    HW3 4191   1.307   1.271   1.898  0.0954  0.3193  2.3484
    1SOL    MW4 4192   1.377   1.221   1.882 -0.5826  0.0423  0.1354
    1SOL     OW 4193   1.650   1.301   1.979 -0.3685 -0.2656  0.2865
    1SOL    HW2 4194   1.654   1.392   1.950 -0.7182  0.1963  1.6420
    1SOL    HW3 4195   1.560   1.274   1.961  0.1805 -0.8672 -1.6196
    1SOL    MW4 4196   1.639   1.309   1.973 -0.3421 -0.2840  0.2139
    1SOL     OW 4197   1.602   1.561   1.852  0.5906 -0.0700  0.4425
    1SOL    HW2 4198   1.670   1.614   1.893 -0.5144  1.2267  0.6441
    1SOL    HW3 4199   1.520   1.601   1.881 -0.2518 -1.2903 -0.2093
    1SOL    MW4 4200   1.600   1.573   1.861  0.3335 -0.0600  0.3831
    1SOL     OW 4201   1.366   1.655   1.955  0.2086  0.2727 -0.1007
    1SOL    HW2 4202   1.347   1.661   2.049 -1.8884 -0.6286 -0.4559
    1SOL    HW3 4203   1.298   1.598   1.920  1.4280 -0.0205 -2.0551
    1SOL    MW4 4204   1.355   1.648   1.963  0.0930  0.1150 -0.4053
    1SOL     OW 4205   1.377   1.914   1.860 -0.1252  0.4792  0.6328
    1SOL    HW2 4206   1.368   1.822   1.887  0.7181  0.7810  1.9947
    1SOL    HW3 4207   1.303   1.958   1.901 -0.5151  0.4147  0.0005
    1SOL    MW4 4208   1.366   1.907   1.869 -0.0653  0.5105  0.7292
    1SOL     OW 4209   1.587   2.052   1.972  0.2453 -0.0813 -0.1343
    1SOL    HW2 4210   1.566   2.140   1.941  0.1788  1.2625  3.5577
    1SOL    HW3 4211   1.522   1.996   1.930 -0.4762  1.7550 -1.5478
    1SOL    MW4 4212   1.576   2.056   1.962  0.1413  0.3386  0.1664
    1SOL     OW 4213   1.563   2.295   1.861  0.4101  0.2560  0.4074
    1SOL    HW2 4214   1.638   2.352   1.879  1.3063 -0.3547 -1.2817
    1SOL    HW3 4215   1.564   2.283   1.766 -1.9151  0.3219  0.3491
    1SOL    MW4 4216   1.573   2.301   1.851  0.2216  0.1843  0.1768
    1SOL     OW 4217   1.343   2.412   1.983  0.1759 -0.0538 -0.0120
    1SOL    HW2 4218   1.339   2.504   1.955 -0.0251 -0.1889 -0.4254
    1SOL    HW3 4219   1.423   2.378   1.943 -0.7700 -0.5964 -1.4866
    1SOL    MW4 4220   1.353   2.420   1.974  0.0246 -0.1433 -0.2611
    1SOL     OW 4221   1.374   2.700   1.902 -0.0089 -0.1911 -0.1854
    1SOL    HW2 4222   1.304   2.758   1.932  1.9487  2.0829  0.1993
    1SOL    HW3 4223   1.369   2.705   1.806 -1.9243 -2.0122 -0.1915
    1SOL    MW4 4224   1.364   2.709   1.893 -0.0033 -0.1311 -0.1354
    1SOL     OW 4225   1.617   2.826   1.992  0.4927  0.1253  0.3359
    1SOL    HW2 4226   1.699   2.786   1.964  0.1956 -1.0968  1.1712
    1SOL    HW3 4227   1.549   2.778   1.945  0.2250  1.0120 -0.2109
    1SOL    MW4 4228   1.619   2.815   1.982  0.4182  0.0811  0.3740
    1SOL     OW 4229   1.534   3.100   1.958 -0.2620  0.0904  0.0721
    1SOL    HW2 4230   1.559   3.008   1.970 -1.4104 -0.1554  0.6802
    1SOL    HW3 4231   1.538   3.114   1.864  1.7529 -0.0475  0.1168
    1SOL    MW4 4232   1.538   3.090   1.947 -0.1477  0.0396  0.1583
    1SOL     OW 4233   1.305   3.235   2.021  0.2288  0.6107  0.3275
    1SOL    HW2 4234   1.386   3.190   1.998 -0.7347  0.1665 -2.4041
    1SOL    HW3 4235   1.235   3.174   1.995 -1.0796  3.0324 -2.1965
    1SOL    MW4 4236   1.306   3.221   2.014 -0.0708  0.8714 -0.3662
    1SOL     OW 4237   1.326   3.473   1.890  0.1944  0.2386 -0.5415
    1SOL    HW2 4238   1.307   3.388   1.930  1.8841 -0.5781 -1.3953
    1SOL    HW3 4239   1.251   3.528   1.912 -0.2906 -1.0748  1.1825
    1SOL    MW4 4240   1.314   3.469   1.898  0.3533 -0.0424 -0.4268
    1SOL     OW 4241   1.556   3.609   1.965  0.0810 -0.3937  0.2064
    1SOL    HW2 4242   1.575   3.594   2.058  0.4746 -0.1455  0.1720
    1SOL    HW3 4243   1.471   3.569   1.950 -1.3417  2.0990  1.3734
    1SOL    MW4 4244   1.547   3.602   1.975 -0.0548 -0.0322  0.3560
    1SOL     OW 4245   1.555   3.888   1.901 -0.3691  0.2919 -0.3533
    1SOL    HW2 4246   1.638   3.917   1.939 -1.0758  1.5732  0.2164
    1SOL    HW3 4247   1.551   3.794   1.921  0.2321  0.5369  0.9452
    1SOL    MW4 4248   1.565   3.879   1.909 -0.3830  0.4933 -0.1069
    1SOL     OW 4249   1.340   4.031   1.997 -0.0397  0.1418 -0.6688
    1SOL    HW2 4250   1.414   3.982   1.961  0.9206  1.6316 -0.7930
    1SOL    HW3 4251   1.263   3.984   1.966  0.7997  0.3591 -3.2632
    1SOL    MW4 4252   1.340   4.019   1.988  0.1978  0.3667 -1.0275
    1SOL     OW 4253   1.327   4.287   1.928  0.2589 -0.2872  0.1944
    1SOL    HW2 4254   1.331   4.203   1.973  0.0325 -0.4549 -0.0969
    1SOL    HW3 4255   1.315   4.264   1.836  1.5934  0.0288 -0.0710
    1SOL    MW4 4256   1.326   4.273   1.922  0.4052 -0.2680  0.1209
    1SOL     OW 4257   1.560   4.425   1.970  0.6870  0.0005  0.2348
    1SOL    HW2 4258   1.570   4.449   2.062 -0.2568  0.0322  0.3369
    1SOL    HW3 4259   1.472   4.388   1.965  0.9262 -0.4662 -0.5577
    1SOL    MW4 4260   1.549   4.423   1.982  0.5938 -0.0567  0.1438
    1SOL     OW 4261   1.981   0.015   1.921 -0.0262 -0.2792  0.4206
    1SOL    HW2 4262   2.063   0.062   1.936  0.5363 -1.2443  0.4565
    1SOL    HW3 4263   1.998  -0.074   1.953 -1.0042 -0.5578  0.1956
    1SOL    MW4 4264   1.994   0.009   1.927 -0.0811 -0.4432  0.3955
    1SOL     OW 4265   1.764   0.187   1.966  0.1648  0.1661  0.2293
    1SOL    HW2 4266   1.737   0.162   2.055 -0.9744 -1.0744 -0.4545
    1SOL    HW3 4267   1.845   0.140   1.952 -0.5620 -1.0251 -0.0301
    1SOL    MW4 4268   1.771   0.178   1.976 -0.0813 -0.1547  0.1048
    1SOL     OW 4269   1.777   0.446   1.880  0.2195  0.2907  0.6761
    1SOL    HW2 4270   1.762   0.353   1.900 -0.8508  0.3734  0.3036
    1SOL    HW3 4271   1.783   0.449   1.784 -0.6158  0.7321  0.6397
    1SOL    MW4 4272   1.776   0.434   1.870 -0.0317  0.3598  0.6222
    1SOL     OW 4273   2.020   0.518   1.981  0.2794  0.4274 -0.5657
    1SOL    HW2 4274   2.022   0.604   1.939 -3.0019  0.4426 -0.8016
    1SOL    HW3 4275   1.941   0.476   1.946  0.7537 -1.9084  1.0520
    1SOL    MW4 4276   2.010   0.524   1.971 -0.0908  0.1213 -0.3834
    1SOL     OW 4277   2.046   0.758   1.860 -0.3093  0.1078 -0.1789
    1SOL    HW2 4278   2.119   0.813   1.887 -0.2263 -0.2714  0.3807
    1SOL    HW3 4279   2.049   0.759   1.765  1.0892 -0.7839 -0.1649
    1SOL    MW4 4280   2.056   0.765   1.851 -0.1137 -0.0598 -0.1032
    1SOL     OW 4281   1.824   0.913   1.952  0.0356  0.1768  0.0930
    1SOL    HW2 4282   1.848   1.003   1.928 -1.0983  0.3536 -0.4231
    1SOL    HW3 4283   1.898   0.860   1.922 -0.4577  0.6381 -2.0215
    1SOL    MW4 4284   1.837   0.918   1.945 -0.1791  0.2611 -0.2540
    1SOL     OW 4285   1.876   1.168   1.895 -0.1189 -0.8148  0.0686
    1SOL    HW2 4286   1.801   1.217   1.928  0.1357 -0.6740  0.4415
    1SOL    HW3 4287   1.858   1.157   1.802 -1.1175 -1.7246  0.3562
    1SOL    MW4 4288   1.864   1.173   1.887 -0.2170 -0.9164  0.1557
    1SOL     OW 4289   2.108   1.319   1.985 -0.4100  0.2594  0.1346
    1SOL    HW2 4290   2.196   1.284   1.970 -0.6778 -1.3934  2.2481
    1SOL    HW3 4291   2.050   1.257   1.941 -0.7050 -0.3382  1.3625
    1SOL    MW4 4292   2.112   1.306   1.977 -0.4842 -0.0374  0.5754
    1SOL     OW 4293   2.060   1.562   1.879 -0.0090  0.1636 -0.0189
    1SOL    HW2 4294   2.072   1.474   1.914 -0.9462  0.3577  0.8223
    1SOL    HW3 4295   2.055   1.550   1.784 -1.8956 -0.9237  0.1897
    1SOL    MW4 4296   2.061   1.549   1.871 -0.3817  0.0458  0.1197
    1SOL     OW 4297   1.816   1.663   1.978  0.2208 -0.1916 -0.0551
    1SOL    HW2 4298   1.820   1.758   1.965  0.3294  0.0137  1.3978
    1SOL    HW3 4299   1.898   1.631   1.941  0.1362  0.2547 -0.6554
    1SOL    MW4 4300   1.827   1.671   1.971  0.2239 -0.1057  0.0575
    1SOL     OW 4301   1.822   1.936   1.889  0.1101 -0.2585  0.0966
    1SOL    HW2 4302   1.747   1.986   1.921  0.2865 -0.6050  1.0957
    1SOL    HW3 4303   1.819   1.945   1.794  1.1379  3.0978  0.3075
    1SOL    MW4 4304   1.811   1.944   1.881  0.2689  0.1388  0.2562
    1SOL     OW 4305   2.049   2.039   1.999 -0.1273 -0.0008 -0.2568
    1SOL    HW2 4306   2.118   1.982   1.965 -0.1137  0.8828 -1.7864
    1SOL    HW3 4307   1.969   2.006   1.958 -0.0053  1.5465 -1.7963
    1SOL    MW4 4308   2.048   2.027   1.989 -0.1094  0.3202 -0.6618
    1SOL     OW 4309   2.065   2.287   1.894  0.0699 -0.0316  0.1315
    1SOL    HW2 4310   2.138   2.330   1.939 -0.2332 -0.5183  1.1118
    1SOL    HW3 4311   2.070   2.195   1.922  0.8567 -0.7147 -2.1226
    1SOL    MW4 4312   2.075   2.280   1.904  0.1335 -0.1862 -0.0365
    1SOL     OW 4313   1.829   2.412   1.941  0.5486  0.0066  0.4325
    1SOL    HW2 4314   1.824   2.414   2.037  0.9411 -0.6242  0.4665
    1SOL    HW3 4315   1.918   2.383   1.922  0.8677  1.3286 -0.1378
    1SOL    MW4 4316   1.840   2.408   1.951  0.6424  0.0975  0.3617
    1SOL     OW 4317   1.844   2.689   1.910 -0.0854  0.4358 -0.4866
    1SOL    HW2 4318   1.833   2.602   1.948 -1.3411  0.9383  0.3489
    1SOL    HW3 4319   1.809   2.680   1.821 -1.7001  0.4598  0.1178
    1SOL    MW4 4320   1.838   2.676   1.903 -0.4641  0.5052 -0.2967
    1SOL     OW 4321   2.087   2.836   1.988  0.2133 -0.3466  0.0123
    1SOL    HW2 4322   2.100   2.849   2.083 -0.8737 -0.1142  0.1315
    1SOL    HW3 4323   2.008   2.783   1.981 -0.2354  0.4125 -0.7942
    1SOL    MW4 4324   2.078   2.831   2.000  0.0105 -0.2160 -0.0786
    1SOL     OW 4325   2.027   3.113   1.899 -0.2106  0.1187 -0.0450
    1SOL    HW2 4326   1.943   3.147   1.929  0.1065  0.8495  0.0229
    1SOL    HW3 4327   2.030   3.023   1.932 -0.8362  0.1842  0.1929
    1SOL    MW4 4328   2.016   3.105   1.907 -0.2513  0.2236 -0.0046
    1SOL     OW 4329   1.783   3.213   1.976 -0.0675 -0.0236 -0.3553
    1SOL    HW2 4330   1.773   3.242   2.067  0.3443  0.9230 -0.6102
    1SOL    HW3 4331   1.709   3.154   1.962 -1.3304  1.4490 -0.0376
    1SOL    MW4 4332   1.772   3.209   1.986 -0.1798  0.2956 -0.3469
    1SOL     OW 4333   1.806   3.468   1.862 -0.0803 -0.0483  0.2304
    1SOL    HW2 4334   1.811   3.378   1.894  1.2273 -0.1281 -0.1416
    1SOL    HW3 4335   1.726   3.503   1.900 -0.4106 -1.2552  0.6753
    1SOL    MW4 4336   1.796   3.461   1.871  0.0486 -0.2182  0.2400
    1SOL     OW 4337   2.002   3.651   1.960 -0.3677 -0.0593  0.2704
    1SOL    HW2 4338   1.997   3.738   1.921  0.3812 -0.5435 -0.9238
    1SOL    HW3 4339   1.929   3.603   1.921 -0.0137 -0.3449 -0.0461
    1SOL    MW4 4340   1.991   3.656   1.950 -0.2222 -0.1609  0.0712
    1SOL     OW 4341   2.025   3.917   1.893  0.0820  0.0912 -0.3172
    1SOL    HW2 4342   2.105   3.943   1.938  0.3004 -2.2000  0.6731
    1SOL    HW3 4343   2.036   3.951   1.804  1.4570  1.1233  0.2273
    1SOL    MW4 4344   2.037   3.925   1.887  0.2925 -0.0749 -0.1147
    1SOL     OW 4345   1.778   4.004   2.022 -0.6089 -0.4454 -0.1976
    1SOL    HW2 4346   1.769   4.094   1.992 -1.1128 -0.9891 -1.7280
    1SOL    HW3 4347   1.868   3.980   2.000 -0.3901 -0.2358  0.4553
    1SOL    MW4 4348   1.789   4.013   2.015 -0.6465 -0.4892 -0.3133
    1SOL     OW 4349   1.762   4.253   1.899  0.0576 -0.2041 -0.2795
    1SOL    HW2 4350   1.682   4.295   1.930 -0.0585  0.3427 -1.2842
    1SOL    HW3 4351   1.768   4.278   1.806  2.2911  1.1874  0.1884
    1SOL    MW4 4352   1.752   4.262   1.891  0.3369  0.0520 -0.3504
    1SOL     OW 4353   2.000   4.408   1.960 -0.3133 -0.5679 -0.0668
    1SOL    HW2 4354   2.079   4.361   1.933  0.1000  0.4276 -0.6136
    1SOL    HW3 4355   1.928   4.351   1.934  0.2217 -1.6137  0.6832
    1SOL    MW4 4356   2.001   4.394   1.953 -0.1884 -0.5746 -0.0399
    1SOL     OW 4357   2.434   4.636   1.868  0.2089  0.3060  0.2921
    1SOL    HW2 4358   2.517   4.682   1.879 -0.3471  1.2223  0.6249
    1SOL    HW3 4359   2.453   4.547   1.899  1.5268  0.0358 -1.2037
    1SOL    MW4 4360   2.448   4.630   1.873  0.3095  0.3915  0.1385
    1SOL     OW 4361   2.222   0.135   1.963 -0.0454  0.0766  0.3208
    1SOL    HW2 4362   2.241   0.131   2.056  0.9829  0.4329  0.1263
    1SOL    HW3 4363   2.280   0.071   1.923 -1.1815 -0.7827  0.0314
    1SOL    MW4 4364   2.232   0.126   1.970 -0.0598  0.0103  0.2569
    1SOL     OW 4365   2.242   0.385   1.872 -0.0716 -0.2981 -0.2266
    1SOL    HW2 4366   2.228   0.295   1.902 -0.4351  0.6061  2.4770
    1SOL    HW3 4367   2.165   0.433   1.904  0.5343  1.1559 -0.8883
    1SOL    MW4 4368   2.230   0.379   1.880 -0.0398  0.0130  0.0427
    1SOL     OW 4369   2.460   0.507   1.997  0.2031  0.1337  0.0585
    1SOL    HW2 4370   2.533   0.455   1.964  0.5672 -0.3796  1.6323
    1SOL    HW3 4371   2.382   0.463   1.962  0.5474 -0.8981  0.5579
    1SOL    MW4 4372   2.459   0.494   1.988  0.2968 -0.0702  0.3319
    1SOL     OW 4373   2.531   0.752   1.890  0.5283  0.6285 -0.4579
    1SOL    HW2 4374   2.513   0.662   1.916 -0.8244  0.9291 -0.3224
    1SOL    HW3 4375   2.534   0.749   1.794 -1.5292  0.7957 -0.5412
    1SOL    MW4 4376   2.529   0.740   1.881  0.0784  0.6902 -0.4510
    1SOL     OW 4377   2.266   0.906   1.958 -0.4291  0.5894  0.2221
    1SOL    HW2 4378   2.240   0.914   2.050 -1.0488 -0.7931  0.1771
    1SOL    HW3 4379   2.347   0.855   1.961  0.0544  1.3494  0.0668
    1SOL    MW4 4380   2.273   0.900   1.971 -0.4470  0.5072  0.1957
    1SOL     OW 4381   2.320   1.169   1.875 -0.2630  0.1442  0.0732
    1SOL    HW2 4382   2.401   1.198   1.915  0.6235 -0.3259 -1.3340
    1SOL    HW3 4383   2.315   1.076   1.894 -0.6498  0.2409  0.4535
    1SOL    MW4 4384   2.330   1.161   1.883 -0.1974  0.0949 -0.0621
    1SOL     OW 4385   2.538   1.272   2.029  0.3797  0.1045 -0.3380
    1SOL    HW2 4386   2.509   1.273   2.120  0.4092 -0.3381 -0.3213
    1SOL    HW3 4387   2.538   1.364   2.003  2.5646  0.4828  0.8092
    1SOL    MW4 4388   2.534   1.284   2.038  0.6719  0.0960 -0.1843
    1SOL     OW 4389   2.510   1.527   1.927 -0.1364 -0.1814  0.2764
    1SOL    HW2 4390   2.445   1.588   1.963 -0.7589 -0.9761  0.5286
    1SOL    HW3 4391   2.488   1.520   1.834 -0.8854 -1.0121  0.5053
    1SOL    MW4 4392   2.499   1.534   1.919 -0.3173 -0.3959  0.3399
    1SOL     OW 4393   2.293   1.672   1.997 -0.6189  0.0968 -0.0489
    1SOL    HW2 4394   2.282   1.666   2.092  1.0656 -0.2355  0.1347
    1SOL    HW3 4395   2.213   1.632   1.962 -1.4945  0.6900  1.2150
    1SOL    MW4 4396   2.281   1.666   2.005 -0.5121  0.1311  0.1421
    1SOL     OW 4397   2.289   1.927   1.908  0.3238 -0.0435 -0.3128
    1SOL    HW2 4398   2.352   1.978   1.958  0.2704 -0.6798  0.4222
    1SOL    HW3 4399   2.303   1.837   1.937 -1.8793 -0.0206  0.9429
    1SOL    MW4 4400   2.299   1.922   1.918  0.0260 -0.1245 -0.0501
    1SOL     OW 4401   2.504   2.074   2.012 -0.2472 -0.2564 -0.7519
    1SOL    HW2 4402   2.583   2.033   1.978  0.3522  0.8971 -0.7860
    1SOL    HW3 4403   2.487   2.147   1.952  0.3732  1.3155  0.9264
    1SOL    MW4 4404   2.512   2.078   2.000 -0.0863  0.1035 -0.5350
    1SOL     OW 4405   2.481   2.312   1.861  0.2370  0.1440 -0.1693
    1SOL    HW2 4406   2.554   2.355   1.905  0.6436 -0.1267 -0.5750
    1SOL    HW3 4407   2.403   2.356   1.895  0.6314  0.9752 -0.3345
    1SOL    MW4 4408   2.480   2.323   1.871  0.3426  0.2179 -0.2446
    1SOL     OW 4409   2.272   2.445   1.986 -0.3314 -0.1851 -0.0959
    1SOL    HW2 4410   2.287   2.451   2.081  1.4920 -1.0654 -0.3002
    1SOL    HW3 4411   2.288   2.534   1.954  0.2235 -0.1465  0.2801
    1SOL    MW4 4412   2.276   2.458   1.995 -0.0176 -0.2961 -0.0731
    1SOL     OW 4413   2.291   2.709   1.862  0.0734 -0.0021  0.1322
    1SOL    HW2 4414   2.210   2.747   1.896  0.1939  0.9204 -0.5780
    1SOL    HW3 4415   2.273   2.692   1.769  0.3162 -0.8677  0.2403
    1SOL    MW4 4416   2.278   2.712   1.854  0.1214  0.0052  0.0527
    1SOL     OW 4417   2.498   2.840   2.028  0.0333  0.0630 -0.3367
    1SOL    HW2 4418   2.477   2.929   2.001  0.7497 -0.0498 -1.2876
    1SOL    HW3 4419   2.438   2.785   1.978  0.1482 -0.0323 -0.3705
    1SOL    MW4 4420   2.488   2.845   2.018  0.1426  0.0355 -0.4668
    1SOL     OW 4421   2.477   3.103   1.964  0.6182  0.4781 -0.1240
    1SOL    HW2 4422   2.406   3.150   2.008  0.0755 -0.8008  0.4086
    1SOL    HW3 4423   2.470   3.129   1.872 -0.5333  0.3902 -0.0747
    1SOL    MW4 4424   2.467   3.113   1.958  0.3946  0.2980 -0.0474
    1SOL     OW 4425   2.243   3.245   2.032  0.0667  0.0024 -0.3192
    1SOL    HW2 4426   2.204   3.255   2.119 -0.5591 -2.6663 -0.2629
    1SOL    HW3 4427   2.182   3.190   1.984  1.2615  0.0263 -1.9002
    1SOL    MW4 4428   2.230   3.239   2.037  0.1421 -0.3467 -0.5205
    1SOL     OW 4429   2.241   3.495   1.915 -0.4507 -0.2571 -0.8224
    1SOL    HW2 4430   2.241   3.410   1.959  1.5399  1.5307  2.8711
    1SOL    HW3 4431   2.157   3.534   1.938  0.2939  0.3766  0.9772
    1SOL    MW4 4432   2.230   3.489   1.924 -0.0896  0.0625 -0.0976
    1SOL     OW 4433   2.479   3.625   1.997 -0.5041  0.2887  0.3045
    1SOL    HW2 4434   2.473   3.620   2.092  0.9137 -0.2054  0.3871
    1SOL    HW3 4435   2.403   3.578   1.965 -0.5676 -0.2215  1.1999
    1SOL    MW4 4436   2.468   3.618   2.005 -0.3252  0.1564  0.4337
    1SOL     OW 4437   2.496   3.878   1.869 -0.0409 -0.2815 -0.4179
    1SOL    HW2 4438   2.419   3.919   1.907  0.8085  0.3109  0.7075
    1SOL    HW3 4439   2.500   3.791   1.907  0.7278  0.2596  0.7871
    1SOL    MW4 4440   2.487   3.872   1.879  0.1726 -0.1323 -0.1104
    1SOL     OW 4441   2.268   4.010   1.979 -0.4990  0.0897  0.3825
    1SOL    HW2 4442   2.273   4.031   2.072 -1.1447 -0.4057  0.5278
    1SOL    HW3 4443   2.254   4.095   1.937 -2.4739  0.0765  0.9297
    1SOL    MW4 4444   2.266   4.024   1.985 -0.8450  0.0224  0.4739
    1SOL     OW 4445   2.230   4.265   1.870  0.3064 -0.0033  0.3189
    1SOL    HW2 4446   2.299   4.295   1.928  0.5232 -1.1055  0.6490
    1SOL    HW3 4447   2.262   4.283   1.782 -0.2141  2.0797  0.5359
    1SOL    MW4 4448   2.243   4.271   1.866  0.2663  0.1259  0.3909
    1SOL     OW 4449   2.444   4.375   1.977  0.3674  0.0004  0.4961
    1SOL    HW2 4450   2.463   4.401   2.067  0.8425  0.1206  0.3586
    1SOL    HW3 4451   2.524   4.335   1.946  0.5908  1.0169 -0.2598
    1SOL    MW4 4452   2.457   4.374   1.985  0.4594  0.1502  0.3781
    1SOL     OW 4453   2.877   4.615   1.830  0.5622  0.1109 -0.9086
    1SOL    HW2 4454   2.959   4.657   1.856  0.9765 -0.2255 -1.6786
    1SOL    HW3 4455   2.881   4.528   1.869  0.8177 -0.1042 -1.4222
    1SOL    MW4 4456   2.888   4.609   1.839  0.6506  0.0386 -1.0781
    1SOL     OW 4457   2.699   0.101   1.960 -0.3219 -0.3941  0.2531
    1SOL    HW2 4458   2.693   0.100   2.055 -0.8684 -1.3819  0.2182
    1SOL    HW3 4459   2.776   0.049   1.940 -0.3939 -0.4616  0.1468
    1SOL    MW4 4460   2.708   0.094   1.970 -0.4034 -0.5334  0.2344
    1SOL     OW 4461   2.670   0.358   1.869  0.1406 -0.1215  0.2650
    1SOL    HW2 4462   2.750   0.397   1.904  1.0895 -0.8429 -1.0422
    1SOL    HW3 4463   2.670   0.269   1.903 -0.9903  0.3843  1.6257
    1SOL    MW4 4464   2.681   0.352   1.878  0.1166 -0.1500  0.2722
    1SOL     OW 4465   2.905   0.481   2.014 -0.1660 -0.5840 -0.0354
    1SOL    HW2 4466   2.982   0.431   1.989 -0.4641 -0.9406 -0.2491
    1SOL    HW3 4467   2.923   0.570   1.985 -0.0231 -0.7568 -0.4849
    1SOL    MW4 4468   2.917   0.486   2.007 -0.1864 -0.6539 -0.1225
    1SOL     OW 4469   2.957   0.717   1.896  0.2479  0.1841 -0.5898
    1SOL    HW2 4470   3.041   0.745   1.932  0.2858  0.8855 -1.2253
    1SOL    HW3 4471   2.894   0.779   1.932  0.2640  0.7932 -1.6045
    1SOL    MW4 4472   2.960   0.729   1.906  0.2551  0.3570 -0.8076
    1SOL     OW 4473   2.760   0.877   1.994  0.3890 -0.2590 -0.0581
    1SOL    HW2 4474   2.764   0.961   1.948 -0.0399  0.1845  0.6913
    1SOL    HW3 4475   2.684   0.833   1.957  0.7219 -0.3977 -0.5835
    1SOL    MW4 4476   2.750   0.883   1.983  0.3765 -0.2189 -0.0286
    1SOL     OW 4477   2.755   1.145   1.915 -0.2533 -0.2662 -0.0626
    1SOL    HW2 4478   2.682   1.186   1.962 -0.0270  0.3286 -0.2335
    1SOL    HW3 4479   2.727   1.146   1.823  0.2339  0.5196 -0.2056
    1SOL    MW4 4480   2.741   1.151   1.909 -0.1593 -0.0840 -0.1040
    1SOL     OW 4481   2.961   1.312   2.009 -0.3961  0.2745  0.0510
    1SOL    HW2 4482   2.944   1.399   1.974  1.2258 -0.2339 -2.1222
    1SOL    HW3 4483   2.892   1.257   1.969  0.5510 -0.0202 -1.2298
    1SOL    MW4 4484   2.949   1.316   1.999 -0.0572  0.1686 -0.4050
    1SOL     OW 4485   2.940   1.567   1.942  0.4426  0.1669 -0.1313
    1SOL    HW2 4486   3.018   1.619   1.961  0.0984  0.2257  1.1268
    1SOL    HW3 4487   2.931   1.573   1.847  1.2207  1.2494 -0.1544
    1SOL    MW4 4488   2.949   1.575   1.932  0.5000  0.3175  0.0316
    1SOL     OW 4489   2.713   1.695   2.024 -0.2790  0.5773 -0.1680
    1SOL    HW2 4490   2.800   1.656   2.021 -0.4040  0.3508 -1.0924
    1SOL    HW3 4491   2.655   1.628   1.986 -0.7212  1.0692 -0.3722
    1SOL    MW4 4492   2.717   1.681   2.019 -0.3538  0.6123 -0.3171
    1SOL     OW 4493   2.726   1.923   1.887  0.1006 -0.6615  0.0592
    1SOL    HW2 4494   2.804   1.965   1.922  0.1317 -0.0632 -0.6943
    1SOL    HW3 4495   2.713   1.845   1.941 -0.0841  0.4480  1.6284
    1SOL    MW4 4496   2.734   1.918   1.898  0.0806 -0.4361  0.1669
    1SOL     OW 4497   2.929   2.068   1.987 -0.2390 -0.4729 -0.1465
    1SOL    HW2 4498   2.923   2.078   2.082 -0.3415 -1.0189 -0.0923
    1SOL    HW3 4499   3.018   2.034   1.973 -0.4930 -1.1332 -0.1780
    1SOL    MW4 4500   2.940   2.065   1.998 -0.2861 -0.6318 -0.1435
    1SOL     OW 4501   2.921   2.343   1.848 -0.1267 -0.2758 -0.0245
    1SOL    HW2 4502   2.998   2.386   1.885 -0.3275  0.9361 -0.9697
    1SOL    HW3 4503   2.930   2.251   1.874  0.8276  0.1478  1.1810
    1SOL    MW4 4504   2.933   2.336   1.856 -0.0272 -0.0601  0.0099
    1SOL     OW 4505   2.711   2.435   1.983  0.0828 -0.0014  0.3718
    1SOL    HW2 4506   2.705   2.528   1.961 -1.3244 -0.6763 -2.2814
    1SOL    HW3 4507   2.795   2.407   1.947  0.5997  0.2727  1.3502
    1SOL    MW4 4508   2.721   2.443   1.975 -0.0350 -0.0544  0.1510
    1SOL     OW 4509   2.735   2.708   1.937 -0.1444  0.7369  0.1729
    1SOL    HW2 4510   2.660   2.756   1.972 -1.0964 -0.5214 -0.0890
    1SOL    HW3 4511   2.723   2.711   1.842 -0.7360 -0.7643  0.1696
    1SOL    MW4 4512   2.723   2.714   1.929 -0.3481  0.3729  0.1379
    1SOL     OW 4513   2.929   2.896   2.004  0.7564 -0.0949 -0.2240
    1SOL    HW2 4514   2.908   2.972   1.950 -0.8140  0.0216  0.5347
    1SOL    HW3 4515   2.860   2.833   1.986 -0.3538  0.3170  2.3515
    1SOL    MW4 4516   2.917   2.898   1.994  0.4029 -0.0250  0.2159
    1SOL     OW 4517   2.905   3.150   1.855  0.0724  0.2237 -0.5371
    1SOL    HW2 4518   2.991   3.183   1.882 -0.4001  1.0022  0.0257
    1SOL    HW3 4519   2.845   3.182   1.922 -0.6403 -0.4173 -0.8708
    1SOL    MW4 4520   2.909   3.159   1.867 -0.0839  0.2415 -0.5069
    1SOL     OW 4521   2.691   3.247   2.031  0.2607 -0.3043  0.2341
    1SOL    HW2 4522   2.675   3.327   1.981  0.9168 -1.3532 -1.6906
    1SOL    HW3 4523   2.626   3.185   1.999  1.9187 -1.5920 -0.7514
    1SOL    MW4 4524   2.680   3.249   2.020  0.5662 -0.6123 -0.1502
    1SOL     OW 4525   2.684   3.497   1.889 -0.4499  0.0644 -0.2742
    1SOL    HW2 4526   2.762   3.540   1.924 -1.4460  0.4806  1.4826
    1SOL    HW3 4527   2.611   3.542   1.930 -1.5847 -1.4426 -0.6020
    1SOL    MW4 4528   2.685   3.508   1.899 -0.7312 -0.0796 -0.0856
    1SOL     OW 4529   2.900   3.621   1.985  0.1881 -0.1513  0.4667
    1SOL    HW2 4530   2.909   3.615   2.080  1.0264  0.8208  0.4639
    1SOL    HW3 4531   2.984   3.587   1.951  0.0706 -0.0645  0.0863
    1SOL    MW4 4532   2.913   3.615   1.993  0.2832 -0.0117  0.4162
    1SOL     OW 4533   2.942   3.885   1.910  0.1699  0.5213  0.0915
    1SOL    HW2 4534   2.916   3.795   1.929 -1.0845  0.9802  0.6010
    1SOL    HW3 4535   2.955   3.888   1.816 -0.8511  0.0808 -0.0632
    1SOL    MW4 4536   2.940   3.874   1.900 -0.1302  0.5236  0.1383
    1SOL     OW 4537   2.703   4.008   1.990 -0.5200 -0.6022 -0.6055
    1SOL    HW2 4538   2.781   3.963   1.960  0.6098  1.0009 -0.1777
    1SOL    HW3 4539   2.633   3.976   1.934  0.3057 -2.5589 -0.5587
    1SOL    MW4 4540   2.704   3.998   1.979 -0.2618 -0.6487 -0.5429
    1SOL     OW 4541   2.683   4.271   1.903  0.0530  0.5582  0.2945
    1SOL    HW2 4542   2.687   4.179   1.930  0.4457  0.4409 -0.1384
    1SOL    HW3 4543   2.712   4.270   1.811  0.6444  1.1929  0.4716
    1SOL    MW4 4544   2.687   4.259   1.894  0.1831  0.6261  0.2607
    1SOL     OW 4545   2.918   4.393   1.993  0.1176  0.3434 -0.0774
    1SOL    HW2 4546   2.918   4.404   2.088 -0.6790 -0.4759  0.0247
    1SOL    HW3 4547   2.841   4.339   1.975  0.8586 -0.4037 -1.0816
    1SOL    MW4 4548   2.908   4.387   2.003  0.1101  0.1364 -0.1962
    1SOL     OW 4549   3.363   4.652   1.911  0.0189  0.1456  0.2420
    1SOL    HW2 4550   3.377   4.566   1.951  0.1370  0.2213  0.3665
    1SOL    HW3 4551   3.352   4.634   1.818  1.7892  0.1627  0.0192
    1SOL    MW4 4552   3.363   4.638   1.904  0.2680  0.1574  0.2290
    1SOL     OW 4553   3.102   0.068   1.954 -0.4710  0.3442 -0.2470
    1SOL    HW2 4554   3.092   0.092   2.046 -0.3625  1.3045 -0.4799
    1SOL    HW3 4555   3.194   0.045   1.945  0.0711  2.5233 -0.6194
    1SOL    MW4 4556   3.113   0.068   1.965 -0.3853  0.7584 -0.3268
    1SOL     OW 4557   3.127   0.353   1.902  0.3249  0.3004  0.8199
    1SOL    HW2 4558   3.105   0.264   1.930  0.9721  0.5401  2.0910
    1SOL    HW3 4559   3.118   0.351   1.806 -0.4840 -0.8994  0.9137
    1SOL    MW4 4560   3.123   0.341   1.893  0.3035  0.1737  0.9999
    1SOL     OW 4561   3.375   0.449   1.962  0.1649 -0.2096 -0.4250
    1SOL    HW2 4562   3.451   0.406   1.923 -0.2883 -0.3090 -1.2054
    1SOL    HW3 4563   3.300   0.399   1.929 -0.2384 -0.1423  0.3717
    1SOL    MW4 4564   3.375   0.436   1.953  0.0517 -0.2138 -0.4228
    1SOL     OW 4565   3.429   0.725   1.897 -0.0569 -0.1898 -0.2880
    1SOL    HW2 4566   3.363   0.774   1.946  0.5408 -1.0837  1.4555
    1SOL    HW3 4567   3.408   0.633   1.913 -0.2202 -0.5094 -2.2457
    1SOL    MW4 4568   3.417   0.719   1.906  0.0005 -0.3499 -0.3164
    1SOL     OW 4569   3.193   0.871   1.980 -0.6891 -0.3019  0.2109
    1SOL    HW2 4570   3.185   0.879   2.075  0.3504  1.1680  0.2027
    1SOL    HW3 4571   3.181   0.960   1.948 -0.4060 -0.6862 -0.9785
    1SOL    MW4 4572   3.190   0.884   1.989 -0.5145 -0.1587  0.0529
    1SOL     OW 4573   3.147   1.140   1.906 -0.2760  0.4446  0.0486
    1SOL    HW2 4574   3.233   1.182   1.903  0.0871 -0.3002 -0.4464
    1SOL    HW3 4575   3.086   1.210   1.925  0.3757  1.0937 -0.2193
    1SOL    MW4 4576   3.150   1.154   1.908 -0.1423  0.4318 -0.0521
    1SOL     OW 4577   3.403   1.262   1.943  0.2852  0.1390 -0.3619
    1SOL    HW2 4578   3.414   1.265   2.038 -0.0448  0.4650 -0.3329
    1SOL    HW3 4579   3.387   1.353   1.918  0.0184  0.0036 -0.6860
    1SOL    MW4 4580   3.403   1.274   1.952  0.2062  0.1643 -0.4008
    1SOL     OW 4581   3.370   1.535   1.908  0.2653 -0.0770 -0.1724
    1SOL    HW2 4582   3.448   1.572   1.950  0.2678 -0.9272  0.5762
    1SOL    HW3 4583   3.297   1.579   1.953  0.2878 -0.2738  0.0587
    1SOL    MW4 4584   3.371   1.546   1.920  0.2687 -0.2151 -0.0434
    1SOL     OW 4585   3.163   1.695   2.008  0.7955 -0.5823  0.0219
    1SOL    HW2 4586   3.175   1.723   2.099  1.0702 -1.1758  0.1664
    1SOL    HW3 4587   3.142   1.776   1.961 -0.8486 -0.4901  0.8788
    1SOL    MW4 4588   3.162   1.710   2.014  0.6149 -0.6485  0.1540
    1SOL     OW 4589   3.158   1.945   1.893  0.1343 -0.1584  0.1870
    1SOL    HW2 4590   3.243   1.980   1.921  0.3849  0.3851 -1.1784
    1SOL    HW3 4591   3.156   1.962   1.799 -1.3800 -0.4269  0.1640
    1SOL    MW4 4592   3.169   1.952   1.884 -0.0324 -0.1221  0.0037
    1SOL     OW 4593   3.379   2.045   2.001  0.0160  0.0583  0.1036
    1SOL    HW2 4594   3.453   1.992   1.973 -0.7646 -0.8991 -0.1954
    1SOL    HW3 4595   3.390   2.128   1.955  1.2727  0.1680  0.6075
    1SOL    MW4 4596   3.390   2.049   1.991  0.0787 -0.0534  0.1307
    1SOL     OW 4597   3.365   2.286   1.870 -0.3182 -0.3356  0.3611
    1SOL    HW2 4598   3.291   2.339   1.900 -0.6205 -0.0484 -0.8523
    1SOL    HW3 4599   3.376   2.311   1.779  1.5870 -0.0524  0.6654
    1SOL    MW4 4600   3.356   2.296   1.862 -0.1066 -0.2604  0.2410
    1SOL     OW 4601   3.136   2.438   1.987  0.1901  0.2931 -0.0385
    1SOL    HW2 4602   3.139   2.414   2.079 -0.2319 -1.2258 -0.4145
    1SOL    HW3 4603   3.139   2.534   1.987  2.6042  0.2649  1.4506
    1SOL    MW4 4604   3.137   2.448   1.999  0.4530  0.0889  0.1084
    1SOL     OW 4605   3.145   2.707   1.907  0.2519  0.6388 -0.7108
    1SOL    HW2 4606   3.083   2.774   1.936 -1.1532 -0.3524 -1.3661
    1SOL    HW3 4607   3.139   2.709   1.812  0.0127 -0.5651 -0.7290
    1SOL    MW4 4608   3.136   2.716   1.899  0.0350  0.3490 -0.7997
    1SOL     OW 4609   3.361   2.834   1.982  0.2556  0.1144  0.0079
    1SOL    HW2 4610   3.367   2.826   2.077  0.3662 -2.0885 -0.1659
    1SOL    HW3 4611   3.276   2.794   1.960 -1.1085  3.1366 -0.5757
    1SOL    MW4 4612   3.350   2.828   1.992  0.0901  0.2227 -0.0920
    1SOL     OW 4613   3.384   3.096   1.872  0.2133  0.2712 -0.0986
    1SOL    HW2 4614   3.459   3.130   1.920  1.4398 -2.4325 -0.0547
    1SOL    HW3 4615   3.377   3.005   1.899 -3.0073  0.4091 -0.2193
    1SOL    MW4 4616   3.393   3.089   1.882 -0.0498 -0.0672 -0.1088
    1SOL     OW 4617   3.141   3.235   1.967  0.4280 -0.1456 -0.3706
    1SOL    HW2 4618   3.136   3.322   1.928  0.4414 -0.0143 -0.0844
    1SOL    HW3 4619   3.219   3.196   1.929  0.5442  0.0509 -0.3353
    1SOL    MW4 4620   3.151   3.241   1.957  0.4451 -0.1023 -0.3282
    1SOL     OW 4621   3.153   3.520   1.891  0.8855  0.0266  0.2000
    1SOL    HW2 4622   3.232   3.536   1.943  1.2961 -0.1602 -0.3606
    1SOL    HW3 4623   3.181   3.535   1.801  0.1047  0.6355  0.0548
    1SOL    MW4 4624   3.167   3.524   1.886  0.8364  0.0823  0.1069
    1SOL     OW 4625   3.397   3.604   2.001 -0.5473 -0.0543  0.0037
    1SOL    HW2 4626   3.468   3.551   1.965  0.1620  0.4318  0.6857
    1SOL    HW3 4627   3.409   3.691   1.962 -0.0945  0.3295  0.9782
    1SOL    MW4 4628   3.408   3.608   1.991 -0.3939  0.0606  0.2222
    1SOL     OW 4629   3.394   3.872   1.905 -0.2894  0.1244 -0.0118
    1SOL    HW2 4630   3.315   3.902   1.949 -0.5155  0.3982 -0.6034
    1SOL    HW3 4631   3.384   3.902   1.814 -0.4239 -1.5565 -0.5629
    1SOL    MW4 4632   3.383   3.880   1.898 -0.3371 -0.0613 -0.1625
    1SOL     OW 4633   3.164   4.018   2.008  0.2310 -0.0809 -0.3176
    1SOL    HW2 4634   3.170   4.020   2.103  2.2511  0.0969 -0.4244
    1SOL    HW3 4635   3.088   3.964   1.989  0.0193 -0.3925  1.3927
    1SOL    MW4 4636   3.155   4.011   2.018  0.4694 -0.0992 -0.1059
    1SOL     OW 4637   3.148   4.282   1.910  0.3790 -0.6544  0.6706
    1SOL    HW2 4638   3.150   4.195   1.951 -0.2416 -0.5019  1.0164
    1SOL    HW3 4639   3.069   4.323   1.944  1.0863  0.3523  1.1184
    1SOL    MW4 4640   3.138   4.276   1.920  0.3905 -0.5016  0.7753
    1SOL     OW 4641   3.373   4.391   2.017 -0.2228 -0.0320 -0.2744
    1SOL    HW2 4642   3.440   4.336   1.975  0.2078 -0.7022  1.2409
    1SOL    HW3 4643   3.291   4.361   1.979 -0.0583 -2.2407  1.0153
    1SOL    MW4 4644   3.371   4.380   2.006 -0.1445 -0.4120  0.0958
    1SOL     OW 4645   3.873   4.647   1.877 -0.4040  0.0024 -0.2463
    1SOL    HW2 4646   3.838   4.559   1.884  0.7499 -0.3338  1.6022
    1SOL    HW3 4647   3.804   4.704   1.911 -0.3098 -0.3978  0.6244
    1SOL    MW4 4648   3.859   4.643   1.883 -0.2396 -0.0949  0.1125
    1SOL     OW 4649   3.636   0.090   1.972 -0.2808 -0.2520 -0.1168
    1SOL    HW2 4650   3.622   0.136   2.055 -0.4114  1.9413 -1.3453
    1SOL    HW3 4651   3.553   0.046   1.954 -0.3295 -0.5386  0.7803
    1SOL    MW4 4652   3.623   0.090   1.981 -0.3045 -0.0005 -0.1606
    1SOL     OW 4653   3.595   0.344   1.854  0.3734 -0.4656  0.0944
    1SOL    HW2 4654   3.608   0.253   1.881  1.5388  0.0835  1.4670
    1SOL    HW3 4655   3.581   0.339   1.759 -0.0531 -2.1086  0.2306
    1SOL    MW4 4656   3.595   0.331   1.845  0.4709 -0.6099  0.2935
    1SOL     OW 4657   3.820   0.493   1.976  0.6311 -0.0907  0.4400
    1SOL    HW2 4658   3.821   0.583   1.944 -0.0772 -0.4293 -0.5789
    1SOL    HW3 4659   3.738   0.457   1.943  0.9875 -1.1607  0.6983
    1SOL    MW4 4660   3.809   0.500   1.967  0.5848 -0.2765  0.3396
    1SOL     OW 4661   3.838   0.755   1.884 -0.0524  0.2459 -0.5865
    1SOL    HW2 4662   3.767   0.807   1.921  0.5402  0.7342 -0.0992
    1SOL    HW3 4663   3.832   0.768   1.789 -0.4141  0.5424 -0.5198
    1SOL    MW4 4664   3.828   0.764   1.876 -0.0219  0.3495 -0.5132
    1SOL     OW 4665   3.630   0.899   2.007 -0.1704  0.5701 -0.2765
    1SOL    HW2 4666   3.631   0.981   1.959 -1.8285 -0.3316 -1.9200
    1SOL    HW3 4667   3.558   0.850   1.968  0.5252 -1.4878  0.9715
    1SOL    MW4 4668   3.621   0.903   1.996 -0.2973  0.1796 -0.3284
    1SOL     OW 4669   3.603   1.114   1.833 -0.5839 -0.0621  0.1807
    1SOL    HW2 4670   3.533   1.166   1.872  1.8993  2.8710  0.9424
    1SOL    HW3 4671   3.601   1.137   1.740 -0.6695 -0.0243  0.1911
    1SOL    MW4 4672   3.593   1.124   1.826 -0.2675  0.3299  0.2826
    1SOL     OW 4673   3.826   1.286   1.969  0.0849 -0.1100  0.3115
    1SOL    HW2 4674   3.791   1.301   2.057 -1.2429  0.4453 -0.3041
    1SOL    HW3 4675   3.759   1.233   1.926  0.7825 -0.4637 -0.3475
    1SOL    MW4 4676   3.813   1.281   1.975  0.0019 -0.0834  0.1433
    1SOL     OW 4677   3.816   1.550   1.877  0.3427  0.2468 -0.7543
    1SOL    HW2 4678   3.890   1.594   1.919 -0.6564  1.1684  0.0803
    1SOL    HW3 4679   3.824   1.458   1.904  1.0611  0.3841 -0.5045
    1SOL    MW4 4680   3.827   1.543   1.886  0.3059  0.3865 -0.6111
    1SOL     OW 4681   3.586   1.663   1.991  0.2176 -0.3024  0.0220
    1SOL    HW2 4682   3.568   1.752   1.962  0.0748 -0.2675  0.2230
    1SOL    HW3 4683   3.664   1.637   1.941 -0.4332 -0.4877 -0.9296
    1SOL    MW4 4684   3.594   1.671   1.980  0.1130 -0.3222 -0.0770
    1SOL     OW 4685   3.604   1.932   1.894 -0.3647  0.2395 -0.4274
    1SOL    HW2 4686   3.675   1.978   1.940 -0.5986  0.2421 -0.0688
    1SOL    HW3 4687   3.627   1.939   1.801  0.7944 -0.9009 -0.2403
    1SOL    MW4 4688   3.617   1.939   1.888 -0.2425  0.0894 -0.3555
    1SOL     OW 4689   3.825   2.070   2.006 -0.9949  0.1174  0.4480
    1SOL    HW2 4690   3.893   2.019   1.961 -0.8083  0.0940  0.7536
    1SOL    HW3 4691   3.827   2.155   1.962  0.4699  0.7217  1.5989
    1SOL    MW4 4692   3.834   2.075   1.994 -0.7772  0.1938  0.6402
    1SOL     OW 4693   3.805   2.331   1.901 -0.4797 -0.4810  0.6496
    1SOL    HW2 4694   3.882   2.374   1.936 -0.3308  0.2471 -0.5444
    1SOL    HW3 4695   3.732   2.368   1.951 -0.0945 -0.9334  1.5568
    1SOL    MW4 4696   3.805   2.341   1.912 -0.4094 -0.4447  0.6118
    1SOL     OW 4697   3.575   2.415   2.027  0.3580  0.1818  0.3893
    1SOL    HW2 4698   3.558   2.503   1.992  1.7750  0.3128 -0.0112
    1SOL    HW3 4699   3.512   2.359   1.982 -0.4763  0.9661  0.5544
    1SOL    MW4 4700   3.564   2.419   2.017  0.4354  0.3026  0.3586
    1SOL     OW 4701   3.574   2.654   1.889  0.1500 -0.1830  0.2793
    1SOL    HW2 4702   3.649   2.697   1.929  1.4928 -1.4610 -0.8176
    1SOL    HW3 4703   3.498   2.704   1.921  1.5528  2.2357 -0.0218
    1SOL    MW4 4704   3.574   2.666   1.899  0.5119 -0.0324  0.0949
    1SOL     OW 4705   3.780   2.808   2.002 -0.2763  0.3936  0.2742
    1SOL    HW2 4706   3.787   2.824   2.096 -0.4840 -0.5065  0.4509
    1SOL    HW3 4707   3.787   2.894   1.962 -2.1378  1.0159  1.2251
    1SOL    MW4 4708   3.781   2.821   2.009 -0.5493  0.3572  0.4230
    1SOL     OW 4709   3.822   3.068   1.875 -0.5013 -0.3177  0.4764
    1SOL    HW2 4710   3.749   3.121   1.906 -0.9950 -0.6534 -0.1020
    1SOL    HW3 4711   3.822   3.080   1.780  1.0253  0.7440  0.5811
    1SOL    MW4 4712   3.812   3.076   1.866 -0.3648 -0.2217  0.4139
    1SOL     OW 4713   3.615   3.184   1.995  0.2022  0.2237 -0.3451
    1SOL    HW2 4714   3.593   3.187   2.088 -0.2312 -1.7295 -0.3646
    1SOL    HW3 4715   3.627   3.276   1.970  1.8078  0.6994  1.9739
    1SOL    MW4 4716   3.614   3.196   2.004  0.3569  0.0288 -0.0417
    1SOL     OW 4717   3.633   3.450   1.910 -0.5050 -0.4174 -0.0735
    1SOL    HW2 4718   3.691   3.507   1.959 -0.4744 -0.6276  0.1353
    1SOL    HW3 4719   3.646   3.475   1.819 -1.7478  1.0772  0.1386
    1SOL    MW4 4720   3.642   3.460   1.905 -0.6649 -0.2480 -0.0180
    1SOL     OW 4721   3.807   3.608   2.031 -0.0014 -0.1896 -0.0147
    1SOL    HW2 4722   3.883   3.570   1.987 -0.8091 -0.1872 -1.4654
    1SOL    HW3 4723   3.798   3.695   1.992 -0.2996  0.0928  0.6857
    1SOL    MW4 4724   3.816   3.615   2.020 -0.1471 -0.1519 -0.1140
    1SOL     OW 4725   3.833   3.842   1.896  0.0101  0.1616  0.3763
    1SOL    HW2 4726   3.776   3.913   1.926 -2.5432 -1.6863  0.0493
    1SOL    HW3 4727   3.812   3.830   1.804  1.4629 -0.0758  0.0559
    1SOL    MW4 4728   3.823   3.850   1.888 -0.1352 -0.1135  0.2909
    1SOL     OW 4729   3.626   4.014   1.989 -0.2736 -0.0480  0.1179
    1SOL    HW2 4730   3.607   4.015   2.083  1.6735  0.8277  0.5270
    1SOL    HW3 4731   3.550   3.971   1.950 -1.1210 -0.4088  2.0866
    1SOL    MW4 4732   3.613   4.008   1.996 -0.1285  0.0205  0.4317
    1SOL     OW 4733   3.567   4.263   1.875 -0.7477  0.1256  0.2495
    1SOL    HW2 4734   3.626   4.333   1.903 -1.1419  0.9639 -0.9974
    1SOL    HW3 4735   3.596   4.186   1.925  0.8111  0.7448  0.3278
    1SOL    MW4 4736   3.579   4.262   1.885 -0.5939  0.3176  0.0951
    1SOL     OW 4737   3.788   4.392   1.944  0.2654  0.0163 -0.0095
    1SOL    HW2 4738   3.783   4.424   2.034  0.5559 -1.9215  0.7172
    1SOL    HW3 4739   3.877   4.357   1.936 -0.1334 -0.8569 -0.6813
    1SOL    MW4 4740   3.799   4.392   1.955  0.2513 -0.3552 -0.0023
    1SOL     OW 4741   4.285   4.608   1.880  0.3624 -0.2396  0.5258
    1SOL    HW2 4742   4.207   4.659   1.903  0.9104  1.5190 -1.3037
    1SOL    HW3 4743   4.358   4.666   1.901  1.1297 -1.3744  1.0271
    1SOL    MW4 4744   4.285   4.622   1.886  0.5355 -0.1574  0.3505
    1SOL     OW 4745   4.080   0.095   2.000  0.5896  0.1599 -0.1133
    1SOL    HW2 4746   4.066   0.084   2.094  1.1113 -0.9893 -0.1643
    1SOL    HW3 4747   4.010   0.045   1.959  0.6608  0.2390 -0.3315
    1SOL    MW4 4748   4.069   0.087   2.007  0.6680  0.0187 -0.1490
    1SOL     OW 4749   4.056   0.367   1.889 -0.2914  0.4047  0.0922
    1SOL    HW2 4750   4.055   0.284   1.937 -0.6327  0.3657  0.0243
    1SOL    HW3 4751   3.983   0.416   1.926  0.2642  0.9032  0.5249
    1SOL    MW4 4752   4.046   0.362   1.900 -0.2632  0.4654  0.1403
    1SOL     OW 4753   4.286   0.494   1.933 -0.2405 -0.7057 -0.0316
    1SOL    HW2 4754   4.274   0.494   2.027 -1.5158 -1.8441 -0.1806
    1SOL    HW3 4755   4.211   0.445   1.899 -0.0435  0.0896 -1.6644
    1SOL    MW4 4756   4.274   0.487   1.941 -0.3829 -0.7510 -0.2667
    1SOL     OW 4757   4.315   0.760   1.879  0.1603  0.2519 -0.2682
    1SOL    HW2 4758   4.310   0.668   1.902  0.6867 -0.0464 -1.2942
    1SOL    HW3 4759   4.311   0.761   1.783 -1.0745  1.3740 -0.2207
    1SOL    MW4 4760   4.314   0.748   1.869  0.0672  0.3605 -0.3974
    1SOL     OW 4761   4.073   0.863   1.987 -0.1943 -0.0887 -0.1045
    1SOL    HW2 4762   4.154   0.827   1.951  0.1904 -0.7621  1.3997
    1SOL    HW3 4763   4.005   0.806   1.951  0.2294 -1.0407  0.5502
    1SOL    MW4 4764   4.075   0.850   1.977 -0.0873 -0.3031  0.1802
    1SOL     OW 4765   4.046   1.120   1.902 -0.5533 -0.4344 -0.2664
    1SOL    HW2 4766   4.041   1.025   1.918 -0.7736 -0.5175 -0.7993
    1SOL    HW3 4767   3.963   1.154   1.935 -0.6382 -0.4829 -0.4280
    1SOL    MW4 4768   4.034   1.112   1.908 -0.5932 -0.4518 -0.3581
    1SOL     OW 4769   4.291   1.241   1.956  0.0533  0.0116  0.4346
    1SOL    HW2 4770   4.294   1.249   2.052  0.8730 -1.6176  0.5657
    1SOL    HW3 4771   4.207   1.199   1.939  0.1780 -0.2600  0.4863
    1SOL    MW4 4772   4.281   1.237   1.966  0.1774 -0.2393  0.4587
    1SOL     OW 4773   4.245   1.503   1.891 -0.2369  0.2450  0.2138
    1SOL    HW2 4774   4.251   1.411   1.914  2.7287  0.3695  0.1184
    1SOL    HW3 4775   4.265   1.506   1.797 -0.9579  0.9326  0.0744
    1SOL    MW4 4776   4.248   1.492   1.881  0.0591  0.3521  0.1829
    1SOL     OW 4777   4.042   1.663   1.974 -0.1187 -0.2224 -0.3090
    1SOL    HW2 4778   4.039   1.671   2.069 -0.6906 -0.3012 -0.3236
    1SOL    HW3 4779   4.119   1.607   1.958 -0.0561 -0.2590  0.1056
    1SOL    MW4 4780   4.052   1.656   1.984 -0.1860 -0.2377 -0.2563
    1SOL     OW 4781   4.040   1.925   1.902 -0.2288 -0.7160 -0.1145
    1SOL    HW2 4782   4.021   1.832   1.915  0.5273 -1.1163 -1.8307
    1SOL    HW3 4783   4.069   1.932   1.811 -0.3209  1.2087 -0.0236
    1SOL    MW4 4784   4.041   1.914   1.892 -0.1416 -0.5147 -0.3289
    1SOL     OW 4785   4.273   2.047   2.021 -0.0391  0.2087  0.3650
    1SOL    HW2 4786   4.265   2.058   2.115 -0.7265 -1.7333  0.5558
    1SOL    HW3 4787   4.195   1.998   1.996  0.6553 -0.1929 -1.0681
    1SOL    MW4 4788   4.261   2.042   2.030 -0.0381 -0.1006  0.2012
    1SOL     OW 4789   4.267   2.317   1.899  0.0162 -0.1594  0.1475
    1SOL    HW2 4790   4.271   2.222   1.908 -0.2460  0.0458  2.8627
    1SOL    HW3 4791   4.348   2.349   1.938 -0.8307  0.8169  1.1609
    1SOL    MW4 4792   4.278   2.309   1.905 -0.1307 -0.0038  0.6394
    1SOL     OW 4793   4.046   2.467   1.996 -0.1354 -0.0193  0.1909
    1SOL    HW2 4794   4.037   2.467   2.092  1.1107  0.5223  0.3150
    1SOL    HW3 4795   4.133   2.431   1.980  0.1556  1.0335 -0.6759
    1SOL    MW4 4796   4.056   2.462   2.007  0.0672  0.1912  0.0930
    1SOL     OW 4797   4.023   2.719   1.880  0.3398  0.0819 -0.1338
    1SOL    HW2 4798   4.033   2.632   1.918 -0.3273  0.1310  0.1670
    1SOL    HW3 4799   3.944   2.754   1.922  1.7837  1.6539  1.3585
    1SOL    MW4 4800   4.014   2.713   1.891  0.4420  0.2959  0.1028
    1SOL     OW 4801   4.252   2.850   1.966 -0.1502 -0.0226  0.5060
    1SOL    HW2 4802   4.244   2.840   2.061 -1.7385  0.9228  0.4924
    1SOL    HW3 4803   4.172   2.811   1.930 -1.3226  2.8692 -0.1794
    1SOL    MW4 4804   4.241   2.844   1.974 -0.5140  0.4838  0.4137
    1SOL     OW 4805   4.259   3.101   1.851  0.1654  0.4448  0.4274
    1SOL    HW2 4806   4.182   3.141   1.891 -1.0860  0.3850 -1.8637
    1SOL    HW3 4807   4.261   3.012   1.885 -1.2644  0.1885 -0.1536
    1SOL    MW4 4808   4.249   3.094   1.860 -0.1888  0.4032  0.0485
    1SOL     OW 4809   4.024   3.195   1.989 -0.0716 -0.3811  0.2250
    1SOL    HW2 4810   4.002   3.202   2.082 -0.2254 -0.6035  0.2072
    1SOL    HW3 4811   3.943   3.163   1.949 -0.3103  0.6524 -0.1293
    1SOL    MW4 4812   4.010   3.191   1.996 -0.1235 -0.2742  0.1760
    1SOL     OW 4813   4.003   3.473   1.894  0.2407 -0.0910  0.3291
    1SOL    HW2 4814   4.085   3.515   1.922 -1.0117  0.6418  3.1250
    1SOL    HW3 4815   4.011   3.382   1.923  0.3247 -0.1813  0.0243
    1SOL    MW4 4816   4.015   3.467   1.902  0.0868 -0.0064  0.6579
    1SOL     OW 4817   4.246   3.571   1.980  0.1212 -0.5889 -0.0825
    1SOL    HW2 4818   4.254   3.663   1.954  1.6244 -0.4350  0.8745
    1SOL    HW3 4819   4.326   3.530   1.947  0.6996 -0.9892  1.7882
    1SOL    MW4 4820   4.258   3.578   1.972  0.3958 -0.6216  0.2908
    1SOL     OW 4821   4.259   3.835   1.868  0.2410 -0.8728  0.3132
    1SOL    HW2 4822   4.341   3.877   1.897  0.5130 -1.7573  0.8632
    1SOL    HW3 4823   4.267   3.829   1.773 -0.2336  1.2075  0.1332
    1SOL    MW4 4824   4.271   3.840   1.860  0.2146 -0.7153  0.3622
    1SOL     OW 4825   4.042   3.976   1.996 -0.3130 -0.2984 -0.0090
    1SOL    HW2 4826   4.127   3.945   1.964  0.8067  0.2738  2.3111
    1SOL    HW3 4827   3.980   3.910   1.966  1.1802 -1.5645 -0.3985
    1SOL    MW4 4828   4.045   3.963   1.988  0.0310 -0.3898  0.2457
    1SOL     OW 4829   4.023   4.262   1.904  0.0202 -0.2175  0.5563
    1SOL    HW2 4830   4.112   4.297   1.911 -0.7200  1.7072  0.5674
    1SOL    HW3 4831   4.027   4.177   1.947  1.4132  0.6574  2.1981
    1SOL    MW4 4832   4.035   4.255   1.910  0.1063  0.1516  0.7744
    1SOL     OW 4833   4.258   4.365   1.995 -0.1058  0.4182 -0.0980
    1SOL    HW2 4834   4.243   4.372   2.089  0.8653 -0.3730  0.1211
    1SOL    HW3 4835   4.281   4.454   1.968  0.3871  0.4922  0.5523
    1SOL    MW4 4836   4.259   4.378   2.004  0.0868  0.3233  0.0167
    1SOL     OW 4837   0.189   0.017   2.330 -0.0728 -0.0390  0.0860
    1SOL    HW2 4838   0.193  -0.003   2.424  0.1574  0.9831  0.2940
    1SOL    HW3 4839   0.252   0.087   2.318 -0.6196  0.3108 -0.7146
    1SOL    MW4 4840   0.198   0.023   2.341 -0.1146  0.1420  0.0079
    1SOL     OW 4841   4.433   0.119   2.270 -0.2382 -0.0141  0.3143
    1SOL    HW2 4842   4.521   0.089   2.294 -0.4652 -0.0151  1.1753
    1SOL    HW3 4843   4.434   0.122   2.175  0.8130  0.3292  0.3240
    1SOL    MW4 4844   4.445   0.115   2.261 -0.1297  0.0311  0.4289
    1SOL     OW 4845   4.428   0.382   2.386  0.2000 -0.2317  0.1169
    1SOL    HW2 4846   4.510   0.412   2.345 -0.2243  1.2251  0.3141
    1SOL    HW3 4847   4.414   0.295   2.349  1.3010 -0.0773 -0.7080
    1SOL    MW4 4848   4.437   0.375   2.376  0.2894 -0.0191  0.0341
    1SOL     OW 4849   0.172   0.496   2.282  0.1409 -0.5519  0.2407
    1SOL    HW2 4850   0.265   0.481   2.299 -0.0679 -1.7816  0.3192
    1SOL    HW3 4851   0.166   0.503   2.186  0.7287  2.4437  0.3793
    1SOL    MW4 4852   0.184   0.495   2.271  0.1909 -0.3189  0.2692
    1SOL     OW 4853   0.216   0.767   2.327  0.1813  0.3479  0.3526
    1SOL    HW2 4854   0.235   0.764   2.420  1.1380 -0.4486  0.1347
    1SOL    HW3 4855   0.196   0.677   2.303  0.8380  0.3954 -0.3983
    1SOL    MW4 4856   0.216   0.755   2.336  0.3942  0.2491  0.2246
    1SOL     OW 4857   4.468   0.876   2.244 -0.2866 -0.3216  0.6284
    1SOL    HW2 4858   4.550   0.837   2.274 -0.0327  1.6791  2.6509
    1SOL    HW3 4859   4.476   0.880   2.149  1.6022 -0.8840  0.7550
    1SOL    MW4 4860   4.480   0.871   2.235 -0.0043 -0.1318  0.9122
    1SOL     OW 4861   0.016   1.130   2.327 -0.2819 -0.2231 -0.0355
    1SOL    HW2 4862   0.016   1.111   2.420 -0.0492  0.2265  0.0575
    1SOL    HW3 4863   0.018   1.044   2.285  1.2889 -0.4081  0.3897
    1SOL    MW4 4864   0.017   1.116   2.333 -0.0440 -0.1881  0.0329
    1SOL     OW 4865   0.249   1.270   2.252 -0.1695  0.5659 -0.1923
    1SOL    HW2 4866   0.182   1.210   2.285  0.8270 -0.7079 -0.4606
    1SOL    HW3 4867   0.241   1.266   2.157 -0.3071  1.1049 -0.2064
    1SOL    MW4 4868   0.239   1.262   2.244 -0.0562  0.4689 -0.2296
    1SOL     OW 4869   0.210   1.531   2.309  0.0787 -0.3763 -0.2650
    1SOL    HW2 4870   0.195   1.530   2.404  2.1690  1.5335  0.1282
    1SOL    HW3 4871   0.214   1.438   2.285 -1.9942 -0.8999  1.2155
    1SOL    MW4 4872   0.208   1.518   2.318  0.0810 -0.1935 -0.0181
    1SOL     OW 4873   4.491   1.675   2.205 -0.4695 -0.9675 -0.0046
    1SOL    HW2 4874   4.482   1.756   2.256  1.4875 -0.5769 -0.2674
    1SOL    HW3 4875   4.571   1.635   2.237 -0.3735 -1.8096 -1.2821
    1SOL    MW4 4876   4.500   1.681   2.216 -0.1986 -1.0271 -0.2077
    1SOL     OW 4877   4.480   1.935   2.374  0.3751  0.3543  0.0276
    1SOL    HW2 4878   4.397   1.972   2.341  0.3773  0.6817  0.3964
    1SOL    HW3 4879   4.547   1.993   2.339  0.5777 -0.8629 -1.6663
    1SOL    MW4 4880   4.478   1.947   2.365  0.4025  0.2370 -0.1471
    1SOL     OW 4881   0.187   2.075   2.258  0.1196  0.6396 -0.0611
    1SOL    HW2 4882   0.263   2.021   2.281 -1.3636 -0.9512  1.2111
    1SOL    HW3 4883   0.176   2.063   2.163  0.4947 -0.3890  0.0242
    1SOL    MW4 4884   0.196   2.066   2.248 -0.0266  0.2940  0.1183
    1SOL     OW 4885   0.211   2.335   2.370  0.3143  0.0453  0.1107
    1SOL    HW2 4886   0.198   2.333   2.465  0.8940 -1.4953  0.1631
    1SOL    HW3 4887   0.211   2.243   2.344  1.9225  0.3814 -1.1374
    1SOL    MW4 4888   0.209   2.323   2.379  0.6030 -0.1137 -0.0472
    1SOL     OW 4889   4.474   2.433   2.276  0.3830 -0.1731 -0.4220
    1SOL    HW2 4890   4.484   2.521   2.312 -2.1349 -0.0246 -0.0582
    1SOL    HW3 4891   4.555   2.389   2.301  1.4624  1.8662 -0.1658
    1SOL    MW4 4892   4.486   2.439   2.284  0.1931  0.1154 -0.3402
    1SOL     OW 4893   4.472   2.709   2.362 -0.2634  0.1084 -0.1493
    1SOL    HW2 4894   4.473   2.724   2.457  1.4953  0.5497 -0.2315
    1SOL    HW3 4895   4.551   2.752   2.329 -1.4608  0.9554 -1.9903
    1SOL    MW4 4896   4.482   2.716   2.370 -0.1893  0.2785 -0.4029
    1SOL     OW 4897   0.202   2.838   2.235  0.1975  0.0072 -0.1343
    1SOL    HW2 4898   0.277   2.792   2.271  0.2845 -0.1294 -0.4823
    1SOL    HW3 4899   0.217   2.836   2.140  0.5185  1.3057 -0.1075
    1SOL    MW4 4900   0.214   2.831   2.227  0.2514  0.1607 -0.1769
    1SOL     OW 4901   0.167   3.075   2.373 -0.2063  0.0131  0.3646
    1SOL    HW2 4902   0.083   3.105   2.339 -1.4539 -1.8427  1.7215
    1SOL    HW3 4903   0.178   2.987   2.336  2.1375  1.0266 -1.4655
    1SOL    MW4 4904   0.157   3.067   2.364 -0.0617 -0.0980  0.3023
    1SOL     OW 4905   4.443   3.197   2.237  0.2371  0.1444  0.4703
    1SOL    HW2 4906   4.446   3.292   2.252 -1.6486  0.4689 -0.9533
    1SOL    HW3 4907   4.471   3.186   2.146  0.5443 -0.6799  0.6594
    1SOL    MW4 4908   4.447   3.208   2.227  0.0286  0.0784  0.3078
    1SOL     OW 4909   4.457   3.473   2.310 -0.3199 -0.2517 -0.3243
    1SOL    HW2 4910   4.474   3.485   2.403 -0.5746 -2.4493  0.0177
    1SOL    HW3 4911   4.374   3.519   2.295  0.3409  1.1581  0.2557
    1SOL    MW4 4912   4.449   3.481   2.320 -0.2670 -0.3555 -0.2027
    1SOL     OW 4913   0.202   3.627   2.240 -0.3168  0.1928  0.3737
    1SOL    HW2 4914   0.262   3.581   2.298  0.1892  0.7764  0.3130
    1SOL    HW3 4915   0.118   3.582   2.251 -0.3557  0.6376  1.9482
    1SOL    MW4 4916   0.199   3.615   2.249 -0.2552  0.3285  0.5736
    1SOL     OW 4917   0.248   3.882   2.343  0.3920 -0.0176 -0.7531
    1SOL    HW2 4918   0.177   3.934   2.306 -0.0847 -0.3205 -0.2861
    1SOL    HW3 4919   0.239   3.796   2.303 -0.5418 -0.5459  0.5336
    1SOL    MW4 4920   0.237   3.878   2.333  0.2059 -0.1273 -0.5219
    1SOL     OW 4921   0.023   4.007   2.239  0.3277  0.0239 -0.2884
    1SOL    HW2 4922   0.004   4.094   2.273 -0.1656 -0.3515  0.4078
    1SOL    HW3 4923   0.010   4.015   2.145 -1.2362  0.3262 -0.0722
    1SOL    MW4 4924   0.019   4.019   2.231  0.0563  0.0138 -0.1681
    1SOL     OW 4925   4.466   4.266   2.335 -0.3089  0.0710  0.1647
    1SOL    HW2 4926   4.496   4.261   2.426  3.2000 -0.1487 -0.9125
    1SOL    HW3 4927   4.526   4.329   2.294 -1.7466  0.0462 -2.0288
    1SOL    MW4 4928   4.478   4.274   2.342 -0.0353  0.0391 -0.2670
    1SOL     OW 4929   0.189   4.423   2.221  0.1715 -0.0365 -0.0101
    1SOL    HW2 4930   0.258   4.385   2.276  0.2066  0.4277  0.2646
    1SOL    HW3 4931   0.179   4.512   2.253  0.2325  0.2556 -0.8047
    1SOL    MW4 4932   0.197   4.430   2.232  0.1842  0.0629 -0.0787
    1SOL     OW 4933   0.654   0.016   2.387  0.0986 -0.2906  0.2732
    1SOL    HW2 4934   0.658  -0.003   2.481  0.1036 -1.8549 -0.0465
    1SOL    HW3 4935   0.735   0.065   2.370  0.5657 -0.8361  0.8891
    1SOL    MW4 4936   0.666   0.020   2.397  0.1609 -0.5690  0.3123
    1SOL     OW 4937   0.420   0.194   2.267  0.5711 -0.3712 -0.3736
    1SOL    HW2 4938   0.493   0.141   2.298  0.2079 -0.3716  0.5070
    1SOL    HW3 4939   0.412   0.173   2.174 -0.0294 -2.4143  0.1289
    1SOL    MW4 4940   0.428   0.185   2.259  0.4439 -0.6408 -0.1912
    1SOL     OW 4941   0.446   0.446   2.374 -0.7150 -0.4202  0.2968
    1SOL    HW2 4942   0.437   0.431   2.469 -0.6775 -0.7405  0.2508
    1SOL    HW3 4943   0.429   0.360   2.335 -0.5103 -0.3356  0.0248
    1SOL    MW4 4944   0.442   0.433   2.382 -0.6831 -0.4513  0.2549
    1SOL     OW 4945   0.687   0.510   2.250 -0.1020  0.2560 -0.0539
    1SOL    HW2 4946   0.699   0.598   2.284 -1.6837  0.4029  0.1454
    1SOL    HW3 4947   0.601   0.483   2.282 -0.8614 -0.2843 -2.4545
    1SOL    MW4 4948   0.677   0.518   2.259 -0.4109  0.2041 -0.3443
    1SOL     OW 4949   0.681   0.764   2.342  0.0729 -0.4592 -0.2479
    1SOL    HW2 4950   0.665   0.760   2.437  0.7218  1.0859 -0.0477
    1SOL    HW3 4951   0.599   0.800   2.306 -0.5076 -1.8996 -0.3889
    1SOL    MW4 4952   0.668   0.768   2.350  0.0820 -0.4455 -0.2401
    1SOL     OW 4953   0.457   0.892   2.237  0.4047 -0.0712  0.1934
    1SOL    HW2 4954   0.375   0.845   2.252  0.5886 -0.6823 -0.7059
    1SOL    HW3 4955   0.451   0.922   2.146  0.5938  1.0514  0.5367
    1SOL    MW4 4956   0.445   0.890   2.227  0.4539 -0.0038  0.1202
    1SOL     OW 4957   0.484   1.142   2.358 -0.7819  0.1715  0.4738
    1SOL    HW2 4958   0.471   1.054   2.322 -0.1782 -0.0218  0.7320
    1SOL    HW3 4959   0.407   1.191   2.328 -0.4467 -0.0711 -0.8078
    1SOL    MW4 4960   0.472   1.137   2.349 -0.6580  0.1140  0.3390
    1SOL     OW 4961   0.694   1.257   2.221  0.1718 -0.3194 -0.3368
    1SOL    HW2 4962   0.679   1.343   2.260  1.4111 -0.7335  1.1100
    1SOL    HW3 4963   0.625   1.201   2.256 -1.6585  0.4459 -2.5907
    1SOL    MW4 4964   0.683   1.261   2.230  0.0939 -0.2731 -0.4435
    1SOL     OW 4965   0.659   1.505   2.345 -0.4730  0.3017 -0.1859
    1SOL    HW2 4966   0.659   1.522   2.439 -1.5631 -1.5697  0.1747
    1SOL    HW3 4967   0.737   1.549   2.312  0.5509 -0.0121  1.7788
    1SOL    MW4 4968   0.669   1.513   2.353 -0.4818  0.0135  0.1209
    1SOL     OW 4969   0.438   1.632   2.221  0.1082  0.0754 -0.1301
    1SOL    HW2 4970   0.513   1.593   2.264 -0.0114 -0.6007 -0.5334
    1SOL    HW3 4971   0.362   1.595   2.266 -0.0024 -0.0168 -0.3911
    1SOL    MW4 4972   0.438   1.622   2.233  0.0778 -0.0261 -0.2177
    1SOL     OW 4973   0.410   1.912   2.293 -0.1093  0.0051 -0.6301
    1SOL    HW2 4974   0.493   1.952   2.268  1.6822 -1.9510  1.8624
    1SOL    HW3 4975   0.413   1.824   2.255 -0.2863 -0.6476  0.8326
    1SOL    MW4 4976   0.421   1.906   2.285  0.1037 -0.3392 -0.1085
    1SOL     OW 4977   0.637   2.056   2.218  0.2875 -0.1609  0.5216
    1SOL    HW2 4978   0.703   1.997   2.254  1.4592  1.1291  0.5491
    1SOL    HW3 4979   0.651   2.139   2.264 -0.8028  0.3709 -0.0765
    1SOL    MW4 4980   0.648   2.059   2.229  0.2983  0.0796  0.4463
    1SOL     OW 4981   0.632   2.305   2.352 -0.5285  0.2008  0.3062
    1SOL    HW2 4982   0.638   2.296   2.447  0.7879 -0.4209  0.1669
    1SOL    HW3 4983   0.710   2.354   2.327 -1.2362  0.9968 -0.3871
    1SOL    MW4 4984   0.643   2.310   2.361 -0.4483  0.2236  0.1965
    1SOL     OW 4985   0.429   2.454   2.243  0.1803 -0.4000 -0.4011
    1SOL    HW2 4986   0.499   2.403   2.284  0.2128  0.3465  0.4977
    1SOL    HW3 4987   0.350   2.427   2.289  0.1829  0.2703  0.0032
    1SOL    MW4 4988   0.428   2.444   2.254  0.1849 -0.2131 -0.2291
    1SOL     OW 4989   0.415   2.711   2.348  0.3668 -0.2452 -0.4467
    1SOL    HW2 4990   0.409   2.699   2.443 -1.9622 -0.1225 -0.5476
    1SOL    HW3 4991   0.434   2.624   2.314  0.9506 -0.3363  0.1006
    1SOL    MW4 4992   0.417   2.698   2.356  0.1366 -0.2408 -0.3879
    1SOL     OW 4993   0.654   2.847   2.257 -0.3087  0.0485  0.2994
    1SOL    HW2 4994   0.733   2.805   2.293 -1.5785 -0.7673  2.2243
    1SOL    HW3 4995   0.582   2.804   2.303 -1.8883  0.7296 -1.5079
    1SOL    MW4 4996   0.655   2.836   2.268 -0.6847  0.0308  0.3150
    1SOL     OW 4997   0.645   3.101   2.388  0.2690  0.7082 -0.1826
    1SOL    HW2 4998   0.559   3.140   2.372  1.0482  1.7189 -2.0279
    1SOL    HW3 4999   0.640   3.015   2.346  0.4536  1.1458 -1.1228
    1SOL    MW4 5000   0.633   3.095   2.380  0.3962  0.8991 -0.5503
    1SOL     OW 5001   0.391   3.197   2.289 -0.2660  0.0177  0.0160
    1SOL    HW2 5002   0.316   3.142   2.313 -0.3028 -0.3207 -0.8721
    1SOL    HW3 5003   0.400   3.186   2.195  1.6438 -0.8471  0.2794
    1SOL    MW4 5004   0.382   3.189   2.280 -0.0189 -0.1414 -0.0663
    1SOL     OW 5005   0.382   3.468   2.360  0.4865  0.0619 -0.1801
    1SOL    HW2 5006   0.465   3.499   2.322  0.4412 -0.5096 -0.7530
    1SOL    HW3 5007   0.378   3.376   2.336 -2.0523  0.9001 -3.3454
    1SOL    MW4 5008   0.392   3.460   2.352  0.1456  0.0973 -0.6733
    1SOL     OW 5009   0.594   3.625   2.290  0.1562  0.2450  0.1896
    1SOL    HW2 5010   0.638   3.710   2.300  2.6288 -0.9622 -0.0046
    1SOL    HW3 5011   0.591   3.612   2.195  0.6757 -0.3420  0.2561
    1SOL    MW4 5012   0.599   3.635   2.278  0.5510  0.0083  0.1729
    1SOL     OW 5013   0.691   3.859   2.363  0.1004 -0.3382  0.7278
    1SOL    HW2 5014   0.687   3.854   2.458 -0.1979  1.9253  0.8670
    1SOL    HW3 5015   0.630   3.929   2.340 -0.9615 -1.8684 -1.2441
    1SOL    MW4 5016   0.683   3.867   2.373 -0.0790 -0.2413  0.4859
    1SOL     OW 5017   0.497   4.028   2.276  0.2518  0.0714 -0.4392
    1SOL    HW2 5018   0.416   3.980   2.295 -0.2938  1.1327 -0.0758
    1SOL    HW3 5019   0.493   4.046   2.182 -0.9499  1.9518 -0.0536
    1SOL    MW4 5020   0.485   4.024   2.266  0.0212  0.4601 -0.3405
    1SOL     OW 5021   0.428   4.308   2.358  0.0371  0.2284  0.5528
    1SOL    HW2 5022   0.509   4.350   2.329 -0.9949  0.3499 -2.2621
    1SOL    HW3 5023   0.431   4.221   2.320 -0.0437 -0.6556  2.4999
    1SOL    MW4 5024   0.439   4.302   2.349 -0.1097  0.1278  0.4387
    1SOL     OW 5025   0.649   4.426   2.249  0.3813  0.0793  0.0577
    1SOL    HW2 5026   0.654   4.515   2.284 -0.0460  0.3606 -0.5954
    1SOL    HW3 5027   0.650   4.437   2.154 -1.0556 -0.5159 -0.0392
    1SOL    MW4 5028   0.650   4.439   2.241  0.1354  0.0372 -0.0412
    1SOL     OW 5029   1.122   4.651   2.354 -0.2807  0.0926  0.1045
    1SOL    HW2 5030   1.111   4.636   2.448  1.7814 -0.5513  0.2509
    1SOL    HW3 5031   1.036   4.683   2.325 -0.6376  1.2865  2.3853
    1SOL    MW4 5032   1.109   4.654   2.363 -0.0557  0.1655  0.4246
    1SOL     OW 5033   0.897   0.115   2.294 -0.0283 -0.1911 -0.6466
    1SOL    HW2 5034   0.930   0.193   2.338  2.3055 -1.3085 -0.3270
    1SOL    HW3 5035   0.903   0.135   2.201  1.5036 -0.3339 -0.5886
    1SOL    MW4 5036   0.902   0.128   2.287  0.4817 -0.3574 -0.5968
    1SOL     OW 5037   0.949   0.389   2.344 -0.2768  0.2410 -0.0906
    1SOL    HW2 5038   1.010   0.459   2.322 -0.4107  0.4018  0.0486
    1SOL    HW3 5039   0.869   0.410   2.297 -0.1360 -0.1252 -0.5056
    1SOL    MW4 5040   0.946   0.401   2.335 -0.2759  0.2139 -0.1268
    1SOL     OW 5041   1.133   0.569   2.221 -0.5095 -0.9038 -0.2794
    1SOL    HW2 5042   1.203   0.517   2.259  1.7268  1.6023 -0.7833
    1SOL    HW3 5043   1.143   0.558   2.126 -0.1211  0.2317 -0.3887
    1SOL    MW4 5044   1.143   0.561   2.213 -0.1632 -0.4234 -0.3605
    1SOL     OW 5045   1.150   0.822   2.318 -0.6349  0.6052 -0.3622
    1SOL    HW2 5046   1.061   0.854   2.299 -1.4315 -1.1317  0.3960
    1SOL    HW3 5047   1.156   0.738   2.273  0.8324  0.9590 -0.8604
    1SOL    MW4 5048   1.139   0.815   2.309 -0.5463  0.4227 -0.3278
    1SOL     OW 5049   0.899   0.894   2.251  0.1739 -0.0694 -0.5507
    1SOL    HW2 5050   0.901   0.984   2.285  2.0107 -0.6363  0.9371
    1SOL    HW3 5051   0.818   0.857   2.287  1.1035 -0.0423  1.6166
    1SOL    MW4 5052   0.888   0.901   2.260  0.5389 -0.1407 -0.0684
    1SOL     OW 5053   0.889   1.154   2.369  0.1008  0.4565  0.2204
    1SOL    HW2 5054   0.965   1.205   2.343 -0.1700  0.1551 -1.2086
    1SOL    HW3 5055   0.815   1.196   2.324 -0.3205 -0.3271  0.1667
    1SOL    MW4 5056   0.889   1.167   2.360  0.0094  0.3132  0.0248
    1SOL     OW 5057   1.136   1.283   2.264 -0.0152  0.0249  0.2677
    1SOL    HW2 5058   1.226   1.254   2.273  0.0751  0.1704 -0.1884
    1SOL    HW3 5059   1.119   1.283   2.170  0.1485  1.9601  0.2206
    1SOL    MW4 5060   1.145   1.279   2.253  0.0182  0.2993  0.2012
    1SOL     OW 5061   1.108   1.528   2.381 -0.4679  0.3978 -0.4267
    1SOL    HW2 5062   1.032   1.570   2.342  0.3772  1.5017 -0.8974
    1SOL    HW3 5063   1.109   1.440   2.342 -0.6572  0.8815 -1.5396
    1SOL    MW4 5064   1.098   1.522   2.370 -0.3814  0.6071 -0.6354
    1SOL     OW 5065   0.898   1.622   2.238  0.1770  0.3073  0.1673
    1SOL    HW2 5066   0.895   1.714   2.263  0.3598  0.4356 -0.2750
    1SOL    HW3 5067   0.908   1.623   2.142 -1.9830 -0.1781 -0.0898
    1SOL    MW4 5068   0.899   1.634   2.228 -0.0839  0.2601  0.0751
    1SOL     OW 5069   0.869   1.904   2.317 -0.1562  0.3295 -0.3951
    1SOL    HW2 5070   0.862   1.902   2.412 -0.2443 -0.6694 -0.4079
    1SOL    HW3 5071   0.955   1.941   2.299  0.0511  0.0906  0.0897
    1SOL    MW4 5072   0.879   1.908   2.327 -0.1404  0.1662 -0.3331
    1SOL     OW 5073   1.108   2.044   2.266 -0.1626  0.2575  0.0213
    1SOL    HW2 5074   1.194   2.014   2.296 -0.1612 -0.4310 -0.6555
    1SOL    HW3 5075   1.112   2.036   2.170 -1.0470  0.0374 -0.0015
    1SOL    MW4 5076   1.120   2.039   2.257 -0.2791  0.1373 -0.0713
    1SOL     OW 5077   1.097   2.319   2.312 -0.0517 -0.3090 -0.1026
    1SOL    HW2 5078   1.177   2.358   2.277 -0.2326  0.9250  0.8314
    1SOL    HW3 5079   1.106   2.226   2.295  2.3526 -0.3986  1.4618
    1SOL    MW4 5080   1.109   2.312   2.305  0.2416 -0.1581  0.2272
    1SOL     OW 5081   0.859   2.452   2.271  0.0569  0.1271 -0.4143
    1SOL    HW2 5082   0.934   2.417   2.320 -0.2829  0.7498  0.5511
    1SOL    HW3 5083   0.888   2.450   2.180  0.7728 -0.8421 -0.1747
    1SOL    MW4 5084   0.873   2.447   2.265  0.1065  0.0813 -0.2551
    1SOL     OW 5085   0.881   2.717   2.350 -0.2860  0.5416  0.1621
    1SOL    HW2 5086   0.895   2.712   2.444  1.9708  1.7020 -0.0825
    1SOL    HW3 5087   0.879   2.626   2.321 -0.2508  0.1981  1.2265
    1SOL    MW4 5088   0.883   2.704   2.358  0.0164  0.6495  0.2701
    1SOL     OW 5089   1.111   2.873   2.251 -0.4199 -0.2017 -0.2980
    1SOL    HW2 5090   1.180   2.835   2.304 -0.8525  0.2503  0.6011
    1SOL    HW3 5091   1.035   2.817   2.268 -0.3700 -0.4902 -1.0124
    1SOL    MW4 5092   1.110   2.860   2.260 -0.4704 -0.1802 -0.2737
    1SOL     OW 5093   1.109   3.115   2.384  0.7143 -0.3715 -0.0700
    1SOL    HW2 5094   1.026   3.154   2.358  0.6914 -0.1224  0.3698
    1SOL    HW3 5095   1.110   3.030   2.341  0.1809 -0.4214  0.0116
    1SOL    MW4 5096   1.099   3.109   2.375  0.6409 -0.3455 -0.0014
    1SOL     OW 5097   0.869   3.224   2.250 -0.0107  0.2035  0.0700
    1SOL    HW2 5098   0.873   3.317   2.273  0.5274 -0.0521  1.0608
    1SOL    HW3 5099   0.802   3.187   2.308 -0.6394  0.0781 -0.7243
    1SOL    MW4 5100   0.861   3.231   2.261 -0.0226  0.1535  0.0958
    1SOL     OW 5101   0.857   3.497   2.367 -0.1795 -0.0226 -0.0295
    1SOL    HW2 5102   0.869   3.501   2.462 -0.1352  0.2274 -0.0465
    1SOL    HW3 5103   0.771   3.535   2.352  0.5209  1.5083 -0.2471
    1SOL    MW4 5104   0.848   3.502   2.377 -0.0812  0.2120 -0.0603
    1SOL     OW 5105   1.096   3.653   2.279  0.0347 -0.0873  0.1330
    1SOL    HW2 5106   1.177   3.606   2.296  0.1735 -0.0506 -0.4131
    1SOL    HW3 5107   1.030   3.606   2.330 -0.1061 -1.8145 -1.5783
    1SOL    MW4 5108   1.098   3.641   2.288  0.0343 -0.3104 -0.1645
    1SOL     OW 5109   1.120   3.915   2.326 -0.4068  0.4198  0.1814
    1SOL    HW2 5110   1.214   3.935   2.323 -0.4825  0.6622 -0.9069
    1SOL    HW3 5111   1.115   3.823   2.298 -0.4974  0.4223  0.1900
    1SOL    MW4 5112   1.132   3.905   2.322 -0.4287  0.4520  0.0389
    1SOL     OW 5113   0.886   4.026   2.233  0.4905 -0.1054  0.0775
    1SOL    HW2 5114   0.969   4.011   2.279  0.0777  0.4818  1.0146
    1SOL    HW3 5115   0.825   3.963   2.270  0.3357 -0.0853 -0.1413
    1SOL    MW4 5116   0.889   4.016   2.244  0.4157 -0.0248  0.1724
    1SOL     OW 5117   0.864   4.268   2.363 -0.1692 -0.5024 -0.0801
    1SOL    HW2 5118   0.873   4.187   2.313 -1.3187  0.4966 -1.9366
    1SOL    HW3 5119   0.783   4.307   2.332  0.6979  1.6931  0.3249
    1SOL    MW4 5120   0.855   4.262   2.352 -0.2065 -0.0811 -0.2718
    1SOL     OW 5121   1.116   4.378   2.306 -0.0044  0.2995 -0.0175
    1SOL    HW2 5122   1.029   4.354   2.338  0.0084  0.6445  0.2834
    1SOL    HW3 5123   1.125   4.471   2.328  0.7185  0.0931  0.5802
    1SOL    MW4 5124   1.106   4.387   2.313  0.0927  0.3176  0.1011
    1SOL     OW 5125   1.581   4.654   2.348  0.2120  0.2012 -0.0057
    1SOL    HW2 5126   1.649   4.718   2.332  0.8669 -0.6306 -0.5979
    1SOL    HW3 5127   1.501   4.693   2.312  0.4792  0.9525  0.2290
    1SOL    MW4 5128   1.579   4.667   2.341  0.3337  0.1906 -0.0529
    1SOL     OW 5129   1.356   0.101   2.240 -0.2344 -0.0323  0.0712
    1SOL    HW2 5130   1.362   0.189   2.277  0.2055 -0.1974  0.3883
    1SOL    HW3 5131   1.274   0.066   2.274 -0.7775  0.5199 -0.6327
    1SOL    MW4 5132   1.346   0.108   2.249 -0.2481  0.0187  0.0200
    1SOL     OW 5133   1.331   0.361   2.327  0.1951  0.3355  0.1367
    1SOL    HW2 5134   1.305   0.357   2.419  0.3355  1.1708  0.2140
    1SOL    HW3 5135   1.413   0.410   2.328  0.4785 -0.1299 -0.3756
    1SOL    MW4 5136   1.338   0.367   2.339  0.2512  0.3843  0.0794
    1SOL     OW 5137   1.577   0.516   2.288  0.0538 -0.8073  0.2259
    1SOL    HW2 5138   1.661   0.481   2.318  0.5537  0.2021  0.0577
    1SOL    HW3 5139   1.593   0.544   2.198 -0.4500 -0.5618  0.2095
    1SOL    MW4 5140   1.590   0.515   2.280  0.0533 -0.6416  0.2015
    1SOL     OW 5141   1.558   0.789   2.349  0.2809 -0.3846 -0.2383
    1SOL    HW2 5142   1.637   0.827   2.310  1.4321 -0.8414  1.5944
    1SOL    HW3 5143   1.554   0.701   2.312  0.4915 -0.2806 -0.5143
    1SOL    MW4 5144   1.568   0.782   2.339  0.4604 -0.4311 -0.0327
    1SOL     OW 5145   1.372   0.919   2.199  0.0144  0.3504 -0.0404
    1SOL    HW2 5146   1.435   0.863   2.244  0.2116 -1.6337 -2.6852
    1SOL    HW3 5147   1.287   0.896   2.236  0.3682  0.0317  0.5654
    1SOL    MW4 5148   1.369   0.909   2.210  0.0871  0.0466 -0.3097
    1SOL     OW 5149   1.398   1.180   2.313  0.3463  0.3313  0.0074
    1SOL    HW2 5150   1.399   1.179   2.409 -0.3194  0.4342  0.0176
    1SOL    HW3 5151   1.385   1.088   2.288 -1.0596  0.5104  0.0434
    1SOL    MW4 5152   1.396   1.167   2.323  0.0730  0.3685  0.0136
    1SOL     OW 5153   1.643   1.278   2.268 -0.1556 -0.2416 -0.3452
    1SOL    HW2 5154   1.560   1.235   2.290  0.8421 -1.6301  0.7902
    1SOL    HW3 5155   1.646   1.276   2.173 -0.4577 -2.1189 -0.3391
    1SOL    MW4 5156   1.632   1.272   2.258 -0.0637 -0.6726 -0.1945
    1SOL     OW 5157   1.584   1.530   2.367  0.5540 -0.2806 -0.0995
    1SOL    HW2 5158   1.667   1.567   2.337  0.3910 -0.3074 -0.5860
    1SOL    HW3 5159   1.595   1.435   2.356  1.4343 -0.5006  2.3019
    1SOL    MW4 5160   1.597   1.522   2.362  0.6486 -0.3132  0.1531
    1SOL     OW 5161   1.336   1.622   2.230  0.4852 -0.0823 -0.2787
    1SOL    HW2 5162   1.420   1.591   2.263  0.6092 -0.1451 -0.6459
    1SOL    HW3 5163   1.270   1.578   2.284  0.6872 -0.0374  0.0057
    1SOL    MW4 5164   1.339   1.612   2.241  0.5281 -0.0846 -0.2897
    1SOL     OW 5165   1.349   1.896   2.331  0.0461  0.0861 -0.0124
    1SOL    HW2 5166   1.428   1.934   2.293 -0.2489 -0.2914 -1.0210
    1SOL    HW3 5167   1.334   1.816   2.281 -0.4418 -0.3380  0.8027
    1SOL    MW4 5168   1.357   1.890   2.320 -0.0572 -0.0197 -0.0379
    1SOL     OW 5169   1.558   2.038   2.239  0.1261 -0.7080  0.0318
    1SOL    HW2 5170   1.639   2.002   2.272 -0.0493 -0.4600  0.7395
    1SOL    HW3 5171   1.568   2.037   2.144  0.3902 -1.9657  0.0726
    1SOL    MW4 5172   1.570   2.033   2.231  0.1378 -0.8414  0.1309
    1SOL     OW 5173   1.593   2.313   2.317  0.3368  0.0400 -0.0283
    1SOL    HW2 5174   1.575   2.306   2.411 -1.9040  0.6778 -0.3636
    1SOL    HW3 5175   1.580   2.224   2.284  0.7298 -0.1053  0.2116
    1SOL    MW4 5176   1.589   2.300   2.325  0.0930  0.1049 -0.0410
    1SOL     OW 5177   1.343   2.427   2.256  0.2996 -0.1318 -0.2547
    1SOL    HW2 5178   1.424   2.387   2.289 -0.5950 -2.5319 -0.8779
    1SOL    HW3 5179   1.357   2.435   2.162 -0.0381 -0.1770 -0.3083
    1SOL    MW4 5180   1.356   2.423   2.248  0.1370 -0.4544 -0.3440
    1SOL     OW 5181   1.341   2.686   2.341 -0.5006 -0.7978 -0.1410
    1SOL    HW2 5182   1.428   2.720   2.323 -0.6191  0.9152  2.3322
    1SOL    HW3 5183   1.345   2.594   2.316  2.0917 -0.7915  0.1857
    1SOL    MW4 5184   1.353   2.678   2.335 -0.1742 -0.5710  0.2282
    1SOL     OW 5185   1.572   2.838   2.271 -0.2252 -0.5148  0.1478
    1SOL    HW2 5186   1.545   2.929   2.286  0.8888 -0.2326  0.4830
    1SOL    HW3 5187   1.581   2.832   2.176 -1.1238 -0.5197  0.0565
    1SOL    MW4 5188   1.569   2.849   2.260 -0.1968 -0.4780  0.1805
    1SOL     OW 5189   1.563   3.113   2.339 -0.6398 -0.0083 -0.3240
    1SOL    HW2 5190   1.561   3.095   2.433  0.7977  3.0029  0.3482
    1SOL    HW3 5191   1.482   3.161   2.321 -0.2482  0.6519 -0.3388
    1SOL    MW4 5192   1.552   3.117   2.349 -0.3983  0.4761 -0.2375
    1SOL     OW 5193   1.324   3.254   2.285  0.0178 -0.0205  0.2157
    1SOL    HW2 5194   1.249   3.213   2.328 -0.4451  1.2171  0.6068
    1SOL    HW3 5195   1.303   3.253   2.192 -0.7254  0.8028  0.3733
    1SOL    MW4 5196   1.312   3.248   2.279 -0.1414  0.2518  0.2880
    1SOL     OW 5197   1.329   3.510   2.346  0.7804  0.1142  0.0788
    1SOL    HW2 5198   1.351   3.510   2.439 -0.6768  2.0186  0.4636
    1SOL    HW3 5199   1.320   3.417   2.324  0.5077 -0.3527  2.0049
    1SOL    MW4 5200   1.331   3.498   2.356  0.5523  0.3037  0.3839
    1SOL     OW 5201   1.582   3.615   2.259 -0.1713  0.0329 -0.1466
    1SOL    HW2 5202   1.593   3.703   2.296 -1.8248  1.2814 -2.5096
    1SOL    HW3 5203   1.493   3.591   2.282 -0.1562 -0.4851 -0.6260
    1SOL    MW4 5204   1.572   3.624   2.267 -0.3874  0.1292 -0.5219
    1SOL     OW 5205   1.614   3.852   2.381 -0.5883 -0.0050 -0.2652
    1SOL    HW2 5206   1.580   3.869   2.469 -2.1615  0.8063 -1.0123
    1SOL    HW3 5207   1.684   3.917   2.370 -0.3705 -0.1218  0.3772
    1SOL    MW4 5208   1.619   3.863   2.391 -0.7671  0.0865 -0.2792
    1SOL     OW 5209   1.396   4.013   2.298 -0.1140 -0.0257  0.2349
    1SOL    HW2 5210   1.479   3.970   2.317  0.0529  0.1583 -0.0730
    1SOL    HW3 5211   1.378   3.993   2.206  0.1563  0.8768 -0.0222
    1SOL    MW4 5212   1.404   4.005   2.288 -0.0561  0.1173  0.1602
    1SOL     OW 5213   1.380   4.296   2.336 -0.2069  0.2229 -0.0962
    1SOL    HW2 5214   1.384   4.201   2.324  1.7215  0.2586  0.1189
    1SOL    HW3 5215   1.287   4.317   2.329 -0.5939 -1.6009 -0.7363
    1SOL    MW4 5216   1.368   4.286   2.334 -0.0036 -0.0124 -0.1521
    1SOL     OW 5217   1.624   4.410   2.227  0.1180 -0.6789  0.1414
    1SOL    HW2 5218   1.553   4.356   2.260 -1.1762  0.7258 -0.3119
    1SOL    HW3 5219   1.614   4.494   2.273  1.1416 -0.2817 -0.3355
    1SOL    MW4 5220   1.613   4.414   2.238  0.0823 -0.4411  0.0188
    1SOL     OW 5221   2.011   0.019   2.343  0.0487 -0.1479 -0.3256
    1SOL    HW2 5222   2.087   0.051   2.294 -0.2632  1.1874  0.0565
    1SOL    HW3 5223   2.004  -0.073   2.318 -0.3525  0.5971 -3.1569
    1SOL    MW4 5224   2.020   0.011   2.333 -0.0453  0.1266 -0.6490
    1SOL     OW 5225   1.797   0.163   2.270  0.1617  0.2123 -0.1908
    1SOL    HW2 5226   1.811   0.245   2.317  1.4466  0.4791 -1.0096
    1SOL    HW3 5227   1.875   0.111   2.287 -0.0384 -0.2931 -0.7794
    1SOL    MW4 5228   1.809   0.167   2.278  0.3048  0.1808 -0.3767
    1SOL     OW 5229   1.807   0.398   2.386 -0.2171 -0.0737 -0.1861
    1SOL    HW2 5230   1.820   0.397   2.481 -1.4205 -0.2223 -0.0089
    1SOL    HW3 5231   1.884   0.442   2.352 -0.0232  0.4679  0.9059
    1SOL    MW4 5232   1.819   0.404   2.394 -0.3502 -0.0218 -0.0186
    1SOL     OW 5233   2.029   0.480   2.249 -0.0284  0.0960  0.0420
    1SOL    HW2 5234   2.029   0.570   2.282 -1.6011 -0.0013  0.3542
    1SOL    HW3 5235   2.032   0.489   2.154  1.1444  0.4439  0.1041
    1SOL    MW4 5236   2.029   0.493   2.241 -0.0813  0.1291  0.0916
    1SOL     OW 5237   2.016   0.754   2.368 -0.9127 -0.4578 -0.2768
    1SOL    HW2 5238   2.088   0.801   2.325  0.9554 -3.0358 -0.0444
    1SOL    HW3 5239   1.939   0.778   2.317  0.4247  0.7674 -1.7935
    1SOL    MW4 5240   2.015   0.763   2.356 -0.4900 -0.6363 -0.4463
    1SOL     OW 5241   1.792   0.876   2.243  0.1148 -0.0815 -0.1570
    1SOL    HW2 5242   1.820   0.956   2.289  1.3393 -0.7849  0.3512
    1SOL    HW3 5243   1.795   0.900   2.150 -0.2595  0.6964  0.0250
    1SOL    MW4 5244   1.796   0.890   2.237  0.2270 -0.0717 -0.0658
    1SOL     OW 5245   1.844   1.127   2.346  0.1224  0.1205  0.1487
    1SOL    HW2 5246   1.916   1.177   2.309  0.8866 -0.6500  0.5777
    1SOL    HW3 5247   1.767   1.183   2.335  0.9111  1.2382  0.3460
    1SOL    MW4 5248   1.843   1.141   2.340  0.3272  0.1663  0.2313
    1SOL     OW 5249   2.026   1.300   2.257 -0.1163 -0.4870 -0.2033
    1SOL    HW2 5250   2.024   1.385   2.301 -0.1850 -0.6495  0.1089
    1SOL    HW3 5251   2.045   1.321   2.166  3.5519 -0.3740  0.5143
    1SOL    MW4 5252   2.028   1.314   2.251  0.3586 -0.4935 -0.0672
    1SOL     OW 5253   2.024   1.556   2.354  0.1500 -0.0972 -0.0050
    1SOL    HW2 5254   2.022   1.548   2.450  0.4454 -0.2172 -0.0072
    1SOL    HW3 5255   1.943   1.602   2.332  1.2000  2.0683  0.5045
    1SOL    MW4 5256   2.013   1.561   2.364  0.3276  0.1726  0.0620
    1SOL     OW 5257   1.804   1.673   2.249 -0.0184  0.1360 -0.1973
    1SOL    HW2 5258   1.801   1.766   2.269 -1.1592 -0.0264  0.4428
    1SOL    HW3 5259   1.806   1.669   2.153  0.0044  0.8133 -0.2253
    1SOL    MW4 5260   1.804   1.685   2.239 -0.1658  0.2040 -0.1166
    1SOL     OW 5261   1.798   1.938   2.300 -0.4719 -0.3620 -0.4221
    1SOL    HW2 5262   1.794   1.944   2.396 -0.1972  0.0559 -0.4368
    1SOL    HW3 5263   1.869   1.997   2.275 -0.7497 -0.2358 -0.9090
    1SOL    MW4 5264   1.807   1.946   2.309 -0.4722 -0.2900 -0.4880
    1SOL     OW 5265   2.026   2.107   2.276  0.0936  0.0903  0.0774
    1SOL    HW2 5266   2.087   2.045   2.315 -1.4978 -1.4871  0.1410
    1SOL    HW3 5267   2.029   2.088   2.182  0.7798  0.9929 -0.0818
    1SOL    MW4 5268   2.034   2.096   2.268 -0.0260  0.0014  0.0648
    1SOL     OW 5269   2.036   2.379   2.323 -0.6162  0.2033 -0.3020
    1SOL    HW2 5270   2.125   2.410   2.305 -1.1808  1.8611 -0.3236
    1SOL    HW3 5271   2.036   2.288   2.292  1.2290 -0.0050  0.2252
    1SOL    MW4 5272   2.048   2.371   2.316 -0.4475  0.3943 -0.2351
    1SOL     OW 5273   1.802   2.456   2.216 -0.0892  0.0041 -0.0046
    1SOL    HW2 5274   1.870   2.435   2.279  0.1198  0.6614 -0.0130
    1SOL    HW3 5275   1.723   2.417   2.253 -0.3308  1.9093  1.5789
    1SOL    MW4 5276   1.800   2.448   2.229 -0.0935  0.3424  0.2034
    1SOL     OW 5277   1.821   2.706   2.343  0.7718 -0.1406 -0.2597
    1SOL    HW2 5278   1.814   2.631   2.284  0.6397  0.7824 -1.4300
    1SOL    HW3 5279   1.740   2.755   2.328  0.7723  0.1348  0.6441
    1SOL    MW4 5280   1.810   2.702   2.333  0.7544  0.0174 -0.2949
    1SOL     OW 5281   2.045   2.874   2.261 -0.2541 -0.5383 -0.1096
    1SOL    HW2 5282   2.116   2.839   2.315  0.8017  0.8579 -0.5612
    1SOL    HW3 5283   1.971   2.814   2.276  1.0094 -2.0173  0.3707
    1SOL    MW4 5284   2.045   2.861   2.270  0.0520 -0.5491 -0.1059
    1SOL     OW 5285   1.981   3.125   2.403  0.2350  0.5216  0.0610
    1SOL    HW2 5286   2.057   3.174   2.370  0.8578 -0.5609 -0.1096
    1SOL    HW3 5287   1.984   3.042   2.357 -1.3253  0.6347 -0.2824
    1SOL    MW4 5288   1.991   3.121   2.392  0.1113  0.3936 -0.0067
    1SOL     OW 5289   1.778   3.262   2.256  0.4978  0.3055 -0.2959
    1SOL    HW2 5290   1.857   3.224   2.294  0.0675 -1.8085 -1.4284
    1SOL    HW3 5291   1.707   3.205   2.287 -0.3131  0.8454 -1.1228
    1SOL    MW4 5292   1.779   3.249   2.265  0.3341  0.0978 -0.5546
    1SOL     OW 5293   1.792   3.504   2.386 -0.0970 -0.3179  0.0408
    1SOL    HW2 5294   1.789   3.420   2.341 -1.0867 -0.6764  0.7727
    1SOL    HW3 5295   1.709   3.546   2.364 -0.1329 -0.0522  0.6829
    1SOL    MW4 5296   1.781   3.499   2.377 -0.2323 -0.3302  0.2217
    1SOL     OW 5297   1.981   3.675   2.279  0.3775 -0.0542 -0.4797
    1SOL    HW2 5298   1.913   3.613   2.305 -0.3399  0.6091 -0.7426
    1SOL    HW3 5299   1.986   3.667   2.184  1.1254 -0.5769 -0.3900
    1SOL    MW4 5300   1.972   3.666   2.270  0.3816 -0.0358 -0.5023
    1SOL     OW 5301   2.023   3.920   2.365  0.0947 -0.1429 -0.3519
    1SOL    HW2 5302   2.017   3.911   2.460  0.2827  0.7202 -0.2517
    1SOL    HW3 5303   1.998   3.834   2.331 -0.5128 -0.2964  0.4594
    1SOL    MW4 5304   2.019   3.908   2.373  0.0393 -0.0494 -0.2317
    1SOL     OW 5305   1.786   4.040   2.296 -0.0315 -0.1572  0.2356
    1SOL    HW2 5306   1.869   4.002   2.325  0.7757  0.6024 -1.0074
    1SOL    HW3 5307   1.776   4.011   2.206 -0.8533  0.2009  0.2030
    1SOL    MW4 5308   1.796   4.031   2.288 -0.0335 -0.0095  0.0675
    1SOL     OW 5309   1.811   4.299   2.377  0.2207 -0.4412 -0.2494
    1SOL    HW2 5310   1.809   4.205   2.357 -0.0532 -0.1593 -1.5553
    1SOL    HW3 5311   1.759   4.340   2.308  0.5813  0.7028  0.1480
    1SOL    MW4 5312   1.804   4.292   2.365  0.2321 -0.2532 -0.3693
    1SOL     OW 5313   2.019   4.422   2.235 -0.1893 -0.6550 -0.2418
    1SOL    HW2 5314   1.943   4.386   2.281 -1.5065  2.2734 -0.0080
    1SOL    HW3 5315   2.000   4.410   2.142 -0.8479 -0.1692 -0.1744
    1SOL    MW4 5316   2.007   4.416   2.229 -0.4499 -0.2046 -0.2022
    1SOL     OW 5317   2.476   4.654   2.359  0.1169  0.5208  0.2651
    1SOL    HW2 5318   2.556   4.686   2.317  0.1896 -1.4340 -1.1772
    1SOL    HW3 5319   2.456   4.572   2.313 -2.4272  0.7065  0.9657
    1SOL    MW4 5320   2.484   4.647   2.347 -0.2091  0.2871  0.1671
    1SOL     OW 5321   2.264   0.117   2.246 -0.2941  0.6744 -0.5808
    1SOL    HW2 5322   2.256   0.198   2.297 -2.2157  0.0837  0.1034
    1SOL    HW3 5323   2.345   0.077   2.278 -0.9388  0.8114  1.3414
    1SOL    MW4 5324   2.274   0.122   2.257 -0.6325  0.6145 -0.2367
    1SOL     OW 5325   2.239   0.351   2.387 -0.1674  0.1811 -0.3317
    1SOL    HW2 5326   2.317   0.406   2.378 -1.7704  2.5245 -0.4174
    1SOL    HW3 5327   2.170   0.401   2.345 -1.3155 -2.8250 -2.1605
    1SOL    MW4 5328   2.240   0.365   2.380 -0.5305  0.0936 -0.5844
    1SOL     OW 5329   2.427   0.535   2.281  0.1468  0.0299  0.4303
    1SOL    HW2 5330   2.501   0.484   2.314 -0.5095 -0.8181  0.6170
    1SOL    HW3 5331   2.443   0.543   2.187  0.9782  0.7022  0.6273
    1SOL    MW4 5332   2.439   0.529   2.273  0.1700  0.0068  0.4809
    1SOL     OW 5333   2.438   0.788   2.367 -0.6201 -0.3393 -0.7485
    1SOL    HW2 5334   2.514   0.825   2.322  0.3611 -0.2527  0.9549
    1SOL    HW3 5335   2.438   0.696   2.342  1.7825 -0.9955  1.5864
    1SOL    MW4 5336   2.448   0.781   2.357 -0.1738 -0.4144 -0.2160
    1SOL     OW 5337   2.213   0.888   2.239  0.1105 -0.0509  0.6799
    1SOL    HW2 5338   2.204   0.979   2.268 -1.5241 -0.4516  1.5090
    1SOL    HW3 5339   2.293   0.857   2.282  0.8163  1.0467  0.1917
    1SOL    MW4 5340   2.223   0.896   2.249 -0.0119  0.0411  0.7248
    1SOL     OW 5341   2.229   1.129   2.350 -0.3935 -0.1514  0.1442
    1SOL    HW2 5342   2.313   1.169   2.328 -0.7530  0.2886 -0.4380
    1SOL    HW3 5343   2.164   1.196   2.327 -0.9881 -1.0006 -0.6792
    1SOL    MW4 5344   2.232   1.143   2.344 -0.5193 -0.2054 -0.0412
    1SOL     OW 5345   2.457   1.268   2.294 -0.0257  0.5022 -0.4853
    1SOL    HW2 5346   2.540   1.233   2.325  0.0826  0.0458 -1.2642
    1SOL    HW3 5347   2.440   1.344   2.350  0.7495  0.4007 -0.1067
    1SOL    MW4 5348   2.466   1.274   2.305  0.0908  0.4287 -0.5379
    1SOL     OW 5349   2.433   1.527   2.438  0.6783 -0.1723  0.1402
    1SOL    HW2 5350   2.441   1.528   2.533  1.1299  0.0441  0.1003
    1SOL    HW3 5351   2.517   1.561   2.406 -0.1256  1.4255 -0.3054
    1SOL    MW4 5352   2.445   1.532   2.446  0.6316  0.0671  0.0761
    1SOL     OW 5353   2.257   1.667   2.264 -0.2534 -0.1139  0.0143
    1SOL    HW2 5354   2.318   1.617   2.319  0.7811  1.6891  0.5749
    1SOL    HW3 5355   2.171   1.651   2.302  0.1566 -0.8283  0.6618
    1SOL    MW4 5356   2.254   1.658   2.277 -0.0627  0.0297  0.1736
    1SOL     OW 5357   2.226   1.932   2.358 -0.3379 -0.5248 -0.3164
    1SOL    HW2 5358   2.311   1.974   2.341 -0.1395 -1.3056 -1.2749
    1SOL    HW3 5359   2.235   1.844   2.323 -0.7404 -1.4072  1.7112
    1SOL    MW4 5360   2.239   1.926   2.351 -0.3648 -0.7443 -0.1755
    1SOL     OW 5361   2.468   2.081   2.298  0.0213  0.0118  0.0393
    1SOL    HW2 5362   2.534   2.017   2.324 -1.0550 -0.9690  0.3994
    1SOL    HW3 5363   2.477   2.087   2.203 -1.0437 -2.0475 -0.2318
    1SOL    MW4 5364   2.478   2.074   2.289 -0.2613 -0.3896  0.0513
    1SOL     OW 5365   2.510   2.365   2.384 -0.0195 -0.1427  0.3429
    1SOL    HW2 5366   2.593   2.400   2.353 -0.0593  0.1003  0.5181
    1SOL    HW3 5367   2.508   2.276   2.348  0.1969 -0.0611  0.1234
    1SOL    MW4 5368   2.521   2.358   2.375  0.0038 -0.0997  0.3369
    1SOL     OW 5369   2.302   2.492   2.258 -0.1295 -0.1295 -0.1583
    1SOL    HW2 5370   2.303   2.582   2.290 -3.6507 -0.7652  2.0142
    1SOL    HW3 5371   2.384   2.455   2.289  0.6892  1.9274  0.2186
    1SOL    MW4 5372   2.313   2.499   2.267 -0.4861  0.0579  0.1786
    1SOL     OW 5373   2.256   2.739   2.375 -0.3322  0.3423 -0.2581
    1SOL    HW2 5374   2.247   2.733   2.470 -0.8102  0.9919 -0.2588
    1SOL    HW3 5375   2.337   2.789   2.361  0.0821 -0.3078 -0.2019
    1SOL    MW4 5376   2.266   2.745   2.386 -0.3407  0.3421 -0.2508
    1SOL     OW 5377   2.507   2.904   2.292 -0.1532  0.3080 -0.0026
    1SOL    HW2 5378   2.587   2.873   2.334  0.3688  0.8510 -0.5788
    1SOL    HW3 5379   2.512   2.869   2.203 -1.6519 -1.5405  0.5933
    1SOL    MW4 5380   2.518   2.895   2.286 -0.2820  0.1359  0.0000
    1SOL     OW 5381   2.422   3.160   2.372  0.5212 -0.0043 -0.4583
    1SOL    HW2 5382   2.501   3.203   2.339  0.7645  0.4110  0.6248
    1SOL    HW3 5383   2.439   3.066   2.361 -0.5684  0.1870 -4.0852
    1SOL    MW4 5384   2.435   3.153   2.366  0.4096  0.0758 -0.7939
    1SOL     OW 5385   2.172   3.276   2.310  0.0635 -0.0167 -0.6669
    1SOL    HW2 5386   2.188   3.361   2.351  0.5613 -0.4036 -0.0464
    1SOL    HW3 5387   2.256   3.231   2.316 -0.4925 -0.9646 -0.0321
    1SOL    MW4 5388   2.185   3.281   2.316  0.0558 -0.1929 -0.5014
    1SOL     OW 5389   2.224   3.537   2.385  0.6891  0.2463 -0.0913
    1SOL    HW2 5390   2.225   3.541   2.480 -0.9581 -1.8772  0.0492
    1SOL    HW3 5391   2.153   3.596   2.359 -1.1295 -1.7759  0.1973
    1SOL    MW4 5392   2.215   3.545   2.394  0.2322 -0.3006 -0.0346
    1SOL     OW 5393   2.468   3.615   2.276 -0.2707  0.3975  0.0142
    1SOL    HW2 5394   2.479   3.707   2.302 -1.0916  0.6442 -0.5175
    1SOL    HW3 5395   2.380   3.592   2.306 -0.2145 -0.1040 -0.2064
    1SOL    MW4 5396   2.458   3.624   2.283 -0.3717  0.3638 -0.0854
    1SOL     OW 5397   2.473   3.863   2.353 -0.0556  0.2352  0.0163
    1SOL    HW2 5398   2.490   3.862   2.447 -1.8890 -1.0935  0.3630
    1SOL    HW3 5399   2.396   3.919   2.344  0.7583  1.2440 -0.8354
    1SOL    MW4 5400   2.465   3.870   2.364 -0.1900  0.1926 -0.0503
    1SOL     OW 5401   2.242   4.018   2.264  0.1751  0.4585  0.0949
    1SOL    HW2 5402   2.236   4.107   2.298  0.6007  0.6292 -0.2639
    1SOL    HW3 5403   2.168   3.972   2.304  0.3083  0.8093  0.7637
    1SOL    MW4 5404   2.232   4.024   2.274  0.2491  0.5274  0.1359
    1SOL     OW 5405   2.211   4.284   2.351 -0.2344  0.1534 -0.0798
    1SOL    HW2 5406   2.201   4.293   2.445 -1.3580  2.2986 -0.3539
    1SOL    HW3 5407   2.143   4.341   2.314  0.0521 -0.8044 -2.1732
    1SOL    MW4 5408   2.201   4.293   2.358 -0.3448  0.3099 -0.3922
    1SOL     OW 5409   2.435   4.400   2.245  0.0379  0.4709 -0.1454
    1SOL    HW2 5410   2.503   4.353   2.293 -0.8677  0.2624  0.9609
    1SOL    HW3 5411   2.353   4.365   2.279 -0.6476  2.1786  0.0327
    1SOL    MW4 5412   2.433   4.389   2.256 -0.1721  0.6685  0.0241
    1SOL     OW 5413   2.894   0.026   2.364 -0.7035  0.3446 -0.0893
    1SOL    HW2 5414   2.977   0.049   2.323 -0.6612 -0.4529 -0.4688
    1SOL    HW3 5415   2.882  -0.067   2.343 -1.3559  0.2797  0.5374
    1SOL    MW4 5416   2.903   0.016   2.356 -0.7839  0.2308 -0.0567
    1SOL     OW 5417   2.686   0.135   2.241  0.0493 -0.3531 -0.4112
    1SOL    HW2 5418   2.660   0.222   2.272  0.4829  0.7455 -2.9949
    1SOL    HW3 5419   2.764   0.114   2.292  0.5377  1.2356 -0.4612
    1SOL    MW4 5420   2.693   0.144   2.252  0.1709  0.0015 -0.7589
    1SOL     OW 5421   2.651   0.396   2.356 -0.1647 -0.3571 -0.3236
    1SOL    HW2 5422   2.660   0.377   2.449  1.4111 -1.0469 -0.6028
    1SOL    HW3 5423   2.734   0.436   2.331 -1.2854  1.5599 -1.0361
    1SOL    MW4 5424   2.663   0.399   2.365 -0.1047 -0.1951 -0.4542
    1SOL     OW 5425   2.912   0.484   2.300 -0.1019  0.4676  0.5333
    1SOL    HW2 5426   2.910   0.575   2.328 -2.0775  0.6290 -0.0982
    1SOL    HW3 5427   2.896   0.487   2.206  0.3723 -0.5120  0.4069
    1SOL    MW4 5428   2.910   0.497   2.292 -0.2997  0.3596  0.4332
    1SOL     OW 5429   2.915   0.751   2.364 -0.2224  0.4054  0.0447
    1SOL    HW2 5430   2.909   0.768   2.458 -0.1119 -1.5622  0.4374
    1SOL    HW3 5431   2.844   0.802   2.325 -0.4240  1.0341  1.2301
    1SOL    MW4 5432   2.905   0.760   2.371 -0.2346  0.2288  0.2530
    1SOL     OW 5433   2.689   0.886   2.254 -0.3671 -0.2403  0.0879
    1SOL    HW2 5434   2.663   0.972   2.287 -0.7876  0.0474 -0.9699
    1SOL    HW3 5435   2.712   0.901   2.163  0.1402 -1.1476  0.0596
    1SOL    MW4 5436   2.688   0.899   2.247 -0.3555 -0.3220 -0.0558
    1SOL     OW 5437   2.690   1.149   2.370  0.0642  0.0096 -0.3172
    1SOL    HW2 5438   2.703   1.154   2.465  0.1345 -1.4353 -0.2356
    1SOL    HW3 5439   2.768   1.192   2.333  0.3171  0.0692  0.2810
    1SOL    MW4 5440   2.702   1.155   2.378  0.1068 -0.1733 -0.2277
    1SOL     OW 5441   2.948   1.313   2.297  0.1065 -0.5033 -0.2565
    1SOL    HW2 5442   3.027   1.265   2.320 -0.3065 -1.3874 -0.6785
    1SOL    HW3 5443   2.950   1.318   2.201  0.5918  1.0842 -0.1808
    1SOL    MW4 5444   2.959   1.307   2.287  0.1161 -0.4103 -0.3021
    1SOL     OW 5445   2.941   1.569   2.412  0.2099  0.1807  0.2742
    1SOL    HW2 5446   2.950   1.555   2.506 -1.1772  0.9648  0.5461
    1SOL    HW3 5447   2.950   1.482   2.374 -0.4625 -0.3289  1.2527
    1SOL    MW4 5448   2.943   1.556   2.419 -0.0620  0.2170  0.4392
    1SOL     OW 5449   2.668   1.597   2.311 -0.4080 -0.4638  0.0289
    1SOL    HW2 5450   2.757   1.583   2.343 -0.1226  0.0835 -0.5228
    1SOL    HW3 5451   2.679   1.619   2.218 -1.1138 -0.3467 -0.0277
    1SOL    MW4 5452   2.681   1.598   2.303 -0.4635 -0.3761 -0.0513
    1SOL     OW 5453   2.649   1.876   2.373  0.1141  0.6593 -0.1907
    1SOL    HW2 5454   2.678   1.884   2.464 -2.1040  0.6358  0.5500
    1SOL    HW3 5455   2.653   1.783   2.355 -0.6615  0.5175  0.3237
    1SOL    MW4 5456   2.653   1.865   2.383 -0.2811  0.6374 -0.0250
    1SOL     OW 5457   2.858   2.034   2.268  0.0797 -0.0264 -0.0862
    1SOL    HW2 5458   2.940   1.989   2.288  0.6717  0.7899 -0.6811
    1SOL    HW3 5459   2.790   1.978   2.306  0.9549 -0.3393  1.0253
    1SOL    MW4 5460   2.860   2.021   2.276  0.2730  0.0398 -0.0181
    1SOL     OW 5461   2.894   2.284   2.372  0.4160  0.0727  0.3565
    1SOL    HW2 5462   2.882   2.280   2.466 -1.6570  0.0260  0.1052
    1SOL    HW3 5463   2.869   2.198   2.340 -0.2376  0.5188 -0.3678
    1SOL    MW4 5464   2.889   2.272   2.380  0.0560  0.1256  0.2277
    1SOL     OW 5465   2.728   2.479   2.273  0.5427 -0.1563 -0.4636
    1SOL    HW2 5466   2.788   2.417   2.314 -0.6382 -1.8394 -1.1919
    1SOL    HW3 5467   2.743   2.468   2.179  0.6398  0.9873 -0.5778
    1SOL    MW4 5468   2.738   2.469   2.266  0.3998 -0.2275 -0.5746
    1SOL     OW 5469   2.762   2.758   2.337 -0.2381  0.0202  0.1817
    1SOL    HW2 5470   2.847   2.789   2.304  0.7861 -1.2657  1.5678
    1SOL    HW3 5471   2.747   2.675   2.291 -0.8227  0.3058 -0.1532
    1SOL    MW4 5472   2.771   2.751   2.326 -0.1802 -0.1116  0.3204
    1SOL     OW 5473   2.980   2.902   2.277  0.3288 -0.0382 -0.1643
    1SOL    HW2 5474   2.951   2.986   2.311  1.8115 -0.0746  1.2825
    1SOL    HW3 5475   2.971   2.909   2.182 -2.3765  0.6517  0.1229
    1SOL    MW4 5476   2.975   2.914   2.269  0.1676  0.0479  0.0641
    1SOL     OW 5477   2.917   3.119   2.424  0.0421 -0.0777  0.0021
    1SOL    HW2 5478   2.993   3.155   2.379  0.9522 -1.9393  0.0022
    1SOL    HW3 5479   2.842   3.166   2.387  1.2674  2.9610  1.1628
    1SOL    MW4 5480   2.917   3.130   2.413  0.3238  0.0772  0.1550
    1SOL     OW 5481   2.673   3.250   2.316 -0.0017 -0.0949 -0.0227
    1SOL    HW2 5482   2.681   3.344   2.331  0.1183 -0.1580  0.3158
    1SOL    HW3 5483   2.690   3.239   2.222 -0.6265  0.2855 -0.1811
    1SOL    MW4 5484   2.677   3.261   2.306 -0.0684 -0.0529  0.0012
    1SOL     OW 5485   2.698   3.515   2.366  0.7460  0.1643 -0.3741
    1SOL    HW2 5486   2.767   3.577   2.342 -0.2501  1.8249  0.9662
    1SOL    HW3 5487   2.616   3.558   2.340  0.0547 -0.7405  0.2623
    1SOL    MW4 5488   2.696   3.529   2.359  0.5233  0.2642 -0.1132
    1SOL     OW 5489   2.931   3.650   2.264  0.1810 -0.0318  0.2742
    1SOL    HW2 5490   3.000   3.587   2.286 -0.4867 -0.4174  1.2714
    1SOL    HW3 5491   2.959   3.732   2.306  0.3334 -0.0199  0.1540
    1SOL    MW4 5492   2.944   3.653   2.272  0.1130 -0.0813  0.3901
    1SOL     OW 5493   2.941   3.916   2.381 -0.2214 -0.0299  0.3281
    1SOL    HW2 5494   2.945   3.915   2.477 -0.7119 -0.3581  0.3457
    1SOL    HW3 5495   2.854   3.950   2.361  0.3023  1.1188 -0.0139
    1SOL    MW4 5496   2.930   3.920   2.391 -0.2172  0.0784  0.2856
    1SOL     OW 5497   2.685   4.025   2.268  0.3615  0.1504  0.4095
    1SOL    HW2 5498   2.617   3.966   2.299  2.1134 -1.2404  1.7706
    1SOL    HW3 5499   2.685   4.014   2.173 -1.2680  0.1413  0.4014
    1SOL    MW4 5500   2.676   4.016   2.260  0.3774 -0.0348  0.5877
    1SOL     OW 5501   2.668   4.298   2.376  0.3007 -0.2716 -0.0093
    1SOL    HW2 5502   2.692   4.276   2.466  1.9867 -1.3913 -0.6908
    1SOL    HW3 5503   2.684   4.217   2.327 -2.7914 -0.3604 -0.9505
    1SOL    MW4 5504   2.673   4.284   2.381  0.1152 -0.4311 -0.2236
    1SOL     OW 5505   2.906   4.406   2.276 -0.1458 -0.5009  0.0796
    1SOL    HW2 5506   2.970   4.367   2.335 -0.3549  0.2612  0.8228
    1SOL    HW3 5507   2.821   4.372   2.307 -0.0907 -1.7285 -1.0745
    1SOL    MW4 5508   2.903   4.397   2.288 -0.1664 -0.5627  0.0253
    1SOL     OW 5509   3.357   0.047   2.322  0.0965  0.0713 -0.4099
    1SOL    HW2 5510   3.367   0.045   2.418 -1.3762  0.8912 -0.2311
    1SOL    HW3 5511   3.435   0.093   2.291  2.1047 -2.7709  0.1460
    1SOL    MW4 5512   3.369   0.053   2.331  0.1671 -0.1955 -0.3130
    1SOL     OW 5513   3.124   0.141   2.239 -0.2018  0.1411  0.1656
    1SOL    HW2 5514   3.114   0.219   2.294  0.0004 -0.6509  1.3535
    1SOL    HW3 5515   3.207   0.103   2.267  0.2356  0.1007 -1.1866
    1SOL    MW4 5516   3.133   0.147   2.250 -0.1171  0.0312  0.1438
    1SOL     OW 5517   3.132   0.365   2.393 -0.2339  0.3252 -0.0464
    1SOL    HW2 5518   3.202   0.413   2.351 -0.6236 -0.0261 -1.1046
    1SOL    HW3 5519   3.052   0.400   2.354 -0.5031 -1.5460 -1.2351
    1SOL    MW4 5520   3.130   0.376   2.383 -0.3207  0.0320 -0.3428
    1SOL     OW 5521   3.316   0.512   2.240  0.0689  0.0251  0.2695
    1SOL    HW2 5522   3.403   0.488   2.272  0.5836  1.3168 -0.1595
    1SOL    HW3 5523   3.317   0.488   2.147 -0.0749 -0.0716  0.2924
    1SOL    MW4 5524   3.327   0.505   2.232  0.1175  0.1827  0.2155
    1SOL     OW 5525   3.341   0.766   2.385 -0.1420  0.4045 -0.1055
    1SOL    HW2 5526   3.413   0.812   2.342 -1.8116  1.7143 -1.5516
    1SOL    HW3 5527   3.335   0.683   2.339  0.0026  0.5732 -0.4339
    1SOL    MW4 5528   3.350   0.761   2.373 -0.3431  0.5996 -0.3397
    1SOL     OW 5529   3.142   0.923   2.249  0.2335 -0.3320  0.3780
    1SOL    HW2 5530   3.210   0.870   2.288  0.5714  1.1555  1.8828
    1SOL    HW3 5531   3.060   0.879   2.273  0.6354 -2.5265 -2.0567
    1SOL    MW4 5532   3.140   0.911   2.257  0.3309 -0.4252  0.2553
    1SOL     OW 5533   3.179   1.178   2.365 -0.1614 -0.1385  0.1951
    1SOL    HW2 5534   3.264   1.208   2.332 -0.2256 -0.2644 -0.0838
    1SOL    HW3 5535   3.169   1.089   2.331 -0.5535 -0.0055 -0.0523
    1SOL    MW4 5536   3.189   1.171   2.356 -0.2217 -0.1376  0.1256
    1SOL     OW 5537   3.404   1.263   2.210  0.0969 -0.3737 -0.2877
    1SOL    HW2 5538   3.456   1.214   2.275  1.2982 -0.5031 -1.3357
    1SOL    HW3 5539   3.397   1.351   2.247 -0.6916 -0.8849  0.8315
    1SOL    MW4 5540   3.410   1.268   2.224  0.1516 -0.4582 -0.2785
    1SOL     OW 5541   3.376   1.502   2.349 -0.0417  0.2906 -0.4716
    1SOL    HW2 5542   3.385   1.511   2.444  0.0736  2.1838 -0.6438
    1SOL    HW3 5543   3.301   1.557   2.327  1.4226  1.8154 -1.7664
    1SOL    MW4 5544   3.367   1.510   2.359  0.1667  0.7417 -0.6652
    1SOL     OW 5545   3.172   1.703   2.290 -0.1170 -0.3370  0.6201
    1SOL    HW2 5546   3.149   1.786   2.330  0.5305 -0.2246  0.7632
    1SOL    HW3 5547   3.101   1.644   2.315  0.6582 -0.4793  2.5907
    1SOL    MW4 5548   3.160   1.706   2.298  0.0710 -0.3411  0.8991
    1SOL     OW 5549   3.090   1.946   2.393 -0.1429 -0.7270  0.1913
    1SOL    HW2 5550   3.092   1.956   2.488 -1.1035 -0.6675  0.2139
    1SOL    HW3 5551   3.165   1.997   2.362 -0.4808  0.1991  0.8419
    1SOL    MW4 5552   3.100   1.954   2.402 -0.3142 -0.5970  0.2799
    1SOL     OW 5553   3.336   2.057   2.269 -0.1199 -0.1333 -0.1324
    1SOL    HW2 5554   3.417   2.029   2.313  0.0696 -1.3715 -1.2319
    1SOL    HW3 5555   3.357   2.050   2.176 -0.9431  1.2108 -0.4244
    1SOL    MW4 5556   3.350   2.053   2.262 -0.2034 -0.1192 -0.3161
    1SOL     OW 5557   3.325   2.327   2.379  0.5876  0.2317 -0.0129
    1SOL    HW2 5558   3.242   2.363   2.349 -0.2348 -1.3773  0.2502
    1SOL    HW3 5559   3.334   2.245   2.331  1.8149  0.1942  0.2733
    1SOL    MW4 5560   3.315   2.321   2.369  0.6409  0.0148  0.0596
    1SOL     OW 5561   3.101   2.427   2.255 -0.0272 -0.1679  0.2831
    1SOL    HW2 5562   3.107   2.515   2.290  0.7611 -0.0480 -0.1498
    1SOL    HW3 5563   3.020   2.391   2.293 -0.6625  0.9445 -0.0002
    1SOL    MW4 5564   3.091   2.434   2.264 -0.0069 -0.0052  0.1886
    1SOL     OW 5565   3.109   2.669   2.381 -0.3506 -0.1227  0.3336
    1SOL    HW2 5566   3.104   2.675   2.476 -1.2412 -0.9476  0.3504
    1SOL    HW3 5567   3.064   2.748   2.350  1.9615  1.3350  0.5873
    1SOL    MW4 5568   3.102   2.680   2.389 -0.1633 -0.0391  0.3693
    1SOL     OW 5569   3.338   2.826   2.270  0.4089  0.1444  0.1504
    1SOL    HW2 5570   3.316   2.915   2.299  0.7300  0.0541  0.6814
    1SOL    HW3 5571   3.261   2.774   2.294  0.0739  0.3452 -0.4838
    1SOL    MW4 5572   3.325   2.831   2.277  0.4072  0.1593  0.1369
    1SOL     OW 5573   3.313   3.091   2.376 -0.2482  0.0531  0.0570
    1SOL    HW2 5574   3.398   3.122   2.344  0.0342 -1.3671 -0.6310
    1SOL    HW3 5575   3.251   3.159   2.351  0.6995  1.1492  0.6570
    1SOL    MW4 5576   3.316   3.104   2.369 -0.0858  0.0103  0.0455
    1SOL     OW 5577   3.090   3.223   2.242 -0.3719  0.3588  0.4313
    1SOL    HW2 5578   3.102   3.316   2.260  1.2499  0.1291  0.6215
    1SOL    HW3 5579   3.116   3.212   2.150 -0.8847  0.1447  0.3072
    1SOL    MW4 5580   3.095   3.233   2.232 -0.2258  0.2999  0.4399
    1SOL     OW 5581   3.158   3.492   2.319 -0.4588  0.1596  0.6818
    1SOL    HW2 5582   3.156   3.494   2.414 -1.1084 -0.2064  0.6754
    1SOL    HW3 5583   3.244   3.527   2.296 -0.2217  0.0505  1.4055
    1SOL    MW4 5584   3.169   3.497   2.328 -0.5131  0.0970  0.7765
    1SOL     OW 5585   3.404   3.632   2.277 -0.3957 -0.1434  0.3820
    1SOL    HW2 5586   3.467   3.570   2.313  0.2068 -0.9129 -1.9632
    1SOL    HW3 5587   3.407   3.618   2.183 -0.2953  3.3647 -0.2141
    1SOL    MW4 5588   3.413   3.622   2.270 -0.3030  0.2182 -0.0060
    1SOL     OW 5589   3.359   3.896   2.378 -0.2453  0.1095 -0.1074
    1SOL    HW2 5590   3.435   3.949   2.356 -0.8264  0.6861 -0.7596
    1SOL    HW3 5591   3.379   3.809   2.343 -0.1397  0.4121 -0.8013
    1SOL    MW4 5592   3.371   3.891   2.370 -0.3080  0.2255 -0.2849
    1SOL     OW 5593   3.140   4.043   2.282  0.1377 -0.0410 -0.2699
    1SOL    HW2 5594   3.211   3.990   2.318  1.0179  1.2557 -0.0591
    1SOL    HW3 5595   3.062   4.016   2.331  0.7867 -0.3581  0.5953
    1SOL    MW4 5596   3.139   4.033   2.294  0.3395  0.0887 -0.1280
    1SOL     OW 5597   3.124   4.286   2.398  0.4993 -0.1851  0.0163
    1SOL    HW2 5598   3.189   4.345   2.359  0.4114  0.0359  0.2035
    1SOL    HW3 5599   3.138   4.203   2.354 -0.4239  0.3833 -1.3945
    1SOL    MW4 5600   3.135   4.283   2.387  0.3655 -0.0806 -0.1450
    1SOL     OW 5601   3.337   4.429   2.278  0.0082  0.2258 -0.6751
    1SOL    HW2 5602   3.331   4.524   2.289  0.0561  0.2113 -0.5213
    1SOL    HW3 5603   3.358   4.416   2.186 -0.6693  0.3410 -0.8498
    1SOL    MW4 5604   3.339   4.440   2.267 -0.0746  0.2389 -0.6778
    1SOL     OW 5605   3.773   0.023   2.389  0.0365  0.0624  0.2298
    1SOL    HW2 5606   3.782   0.039   2.483  0.1549  1.3058  0.0180
    1SOL    HW3 5607   3.858   0.050   2.352 -0.3326  0.4569 -0.3358
    1SOL    MW4 5608   3.786   0.029   2.397  0.0036  0.2785  0.1273
    1SOL     OW 5609   3.623   0.179   2.230  0.0564  0.0277  0.2284
    1SOL    HW2 5610   3.590   0.258   2.272 -0.1185 -0.0489  0.2365
    1SOL    HW3 5611   3.677   0.137   2.297  0.7207  0.4970 -0.0068
    1SOL    MW4 5612   3.626   0.184   2.244  0.1209  0.0795  0.1986
    1SOL     OW 5613   3.548   0.436   2.356 -0.2670  0.3591  0.3420
    1SOL    HW2 5614   3.568   0.411   2.446 -0.2577 -0.9808 -0.0186
    1SOL    HW3 5615   3.633   0.458   2.318  0.1645 -2.1848 -0.2511
    1SOL    MW4 5616   3.562   0.436   2.363 -0.2086 -0.1533  0.2160
    1SOL     OW 5617   3.803   0.475   2.255  0.2421 -0.2014  0.1965
    1SOL    HW2 5618   3.806   0.563   2.291  0.1114 -0.9434  2.0738
    1SOL    HW3 5619   3.803   0.488   2.160  1.3224  1.7650  0.4394
    1SOL    MW4 5620   3.804   0.488   2.247  0.3669 -0.0398  0.4764
    1SOL     OW 5621   3.775   0.737   2.348 -0.3602  0.1564  0.0346
    1SOL    HW2 5622   3.780   0.743   2.443 -1.6474  1.7241  0.0280
    1SOL    HW3 5623   3.842   0.797   2.316 -0.0778 -0.2024 -0.0464
    1SOL    MW4 5624   3.784   0.746   2.356 -0.4928  0.3158  0.0231
    1SOL     OW 5625   3.555   0.899   2.274 -0.7775  0.1378  0.2352
    1SOL    HW2 5626   3.628   0.850   2.311 -0.7893 -0.5541 -0.6392
    1SOL    HW3 5627   3.572   0.901   2.180 -2.1603 -0.5300 -0.0534
    1SOL    MW4 5628   3.567   0.893   2.266 -0.9618 -0.0416  0.0815
    1SOL     OW 5629   3.603   1.162   2.363 -0.4995 -0.5579 -0.2267
    1SOL    HW2 5630   3.600   1.158   2.459 -0.6577 -0.7442 -0.2387
    1SOL    HW3 5631   3.596   1.071   2.335  0.8462 -0.6178 -0.3913
    1SOL    MW4 5632   3.601   1.149   2.372 -0.3424 -0.5903 -0.2499
    1SOL     OW 5633   3.837   1.287   2.271  0.2884 -0.5164 -0.4201
    1SOL    HW2 5634   3.832   1.375   2.307 -0.9143 -0.7913  0.1302
    1SOL    HW3 5635   3.758   1.243   2.304  1.6969 -2.3031  0.6642
    1SOL    MW4 5636   3.826   1.293   2.280  0.3157 -0.7885 -0.2046
    1SOL     OW 5637   3.825   1.544   2.361 -0.1974 -0.3026 -0.0728
    1SOL    HW2 5638   3.824   1.556   2.456  0.6578  0.3375 -0.1396
    1SOL    HW3 5639   3.738   1.573   2.333 -0.6674 -1.0565  0.5716
    1SOL    MW4 5640   3.813   1.550   2.370 -0.1466 -0.3177  0.0033
    1SOL     OW 5641   3.586   1.653   2.279 -0.3901  0.3554 -0.3600
    1SOL    HW2 5642   3.508   1.601   2.298  0.0701 -0.2523 -0.1216
    1SOL    HW3 5643   3.605   1.636   2.187 -0.7460  0.7895 -0.5175
    1SOL    MW4 5644   3.578   1.644   2.270 -0.3765  0.3325 -0.3493
    1SOL     OW 5645   3.557   1.923   2.378 -0.1267 -0.7611  0.4796
    1SOL    HW2 5646   3.637   1.962   2.342 -1.1591  0.3491 -0.6308
    1SOL    HW3 5647   3.562   1.831   2.350  0.7708 -0.7086  0.4321
    1SOL    MW4 5648   3.568   1.916   2.369 -0.1445 -0.6077  0.3269
    1SOL     OW 5649   3.795   2.046   2.304 -0.4585  0.0717  0.0950
    1SOL    HW2 5650   3.872   1.992   2.323  0.2445  1.2619  0.6731
    1SOL    HW3 5651   3.796   2.058   2.209 -1.0942 -1.6141 -0.1452
    1SOL    MW4 5652   3.805   2.040   2.294 -0.4497  0.0062  0.1395
    1SOL     OW 5653   3.785   2.324   2.392  0.7345  0.0599  0.2413
    1SOL    HW2 5654   3.695   2.358   2.390  0.2225 -1.1997  1.1053
    1SOL    HW3 5655   3.776   2.232   2.369  2.0574  0.3827 -1.6707
    1SOL    MW4 5656   3.772   2.317   2.389  0.8414 -0.0639  0.1030
    1SOL     OW 5657   3.553   2.464   2.309 -0.1415 -0.0381 -0.1097
    1SOL    HW2 5658   3.473   2.420   2.337  0.0988 -0.2492  0.2468
    1SOL    HW3 5659   3.562   2.441   2.216 -1.6582  1.7407 -0.7391
    1SOL    MW4 5660   3.544   2.455   2.300 -0.3099  0.1690 -0.1459
    1SOL     OW 5661   3.568   2.721   2.398 -0.2946 -0.1502  0.1236
    1SOL    HW2 5662   3.570   2.630   2.369 -0.5332 -0.2241  0.3408
    1SOL    HW3 5663   3.495   2.760   2.351  0.1490  0.0723 -0.3916
    1SOL    MW4 5664   3.559   2.714   2.388 -0.2675 -0.1307  0.0842
    1SOL     OW 5665   3.789   2.847   2.289  0.1391 -0.2497 -0.1036
    1SOL    HW2 5666   3.789   2.934   2.329  0.5841 -0.9102  1.3560
    1SOL    HW3 5667   3.716   2.802   2.331  0.1996 -0.7359 -0.5179
    1SOL    MW4 5668   3.779   2.852   2.300  0.2058 -0.4008  0.0343
    1SOL     OW 5669   3.763   3.093   2.415  0.4928  0.2972 -0.2306
    1SOL    HW2 5670   3.787   3.080   2.507  0.7146  0.1801 -0.3034
    1SOL    HW3 5671   3.841   3.131   2.375  0.6107 -0.2208 -0.5023
    1SOL    MW4 5672   3.776   3.096   2.422  0.5376  0.2131 -0.2763
    1SOL     OW 5673   3.567   3.209   2.284 -0.0737  0.4312  0.9154
    1SOL    HW2 5674   3.576   3.297   2.320  1.2558  0.6434  0.1027
    1SOL    HW3 5675   3.631   3.156   2.332  0.1373  0.2362  0.4343
    1SOL    MW4 5676   3.577   3.214   2.295  0.1295  0.4337  0.7446
    1SOL     OW 5677   3.586   3.455   2.385 -0.0892  0.0318  0.2257
    1SOL    HW2 5678   3.579   3.455   2.480  0.1745  1.0904  0.2544
    1SOL    HW3 5679   3.661   3.512   2.367  0.3795 -0.8285 -0.5792
    1SOL    MW4 5680   3.595   3.463   2.395  0.0079  0.0579  0.1235
    1SOL     OW 5681   3.810   3.624   2.324  0.1711 -0.2066  0.2721
    1SOL    HW2 5682   3.799   3.717   2.347  0.9318 -0.0355 -0.0536
    1SOL    HW3 5683   3.809   3.623   2.228  0.1611 -0.5355  0.2758
    1SOL    MW4 5684   3.808   3.636   2.314  0.2701 -0.2275  0.2298
    1SOL     OW 5685   3.800   3.926   2.393  0.5409  0.3006  0.4895
    1SOL    HW2 5686   3.830   3.916   2.484 -0.1125  0.9760  0.7803
    1SOL    HW3 5687   3.874   3.967   2.349  0.7954  0.1336  0.7513
    1SOL    MW4 5688   3.814   3.930   2.399  0.4883  0.3679  0.5624
    1SOL     OW 5689   3.569   4.054   2.264  0.6954  0.1975 -0.1734
    1SOL    HW2 5690   3.576   4.145   2.294 -1.1477  0.4094 -0.3221
    1SOL    HW3 5691   3.633   4.006   2.318 -0.2144  1.1454  1.8207
    1SOL    MW4 5692   3.579   4.060   2.275  0.3321  0.3505  0.0701
    1SOL     OW 5693   3.571   4.307   2.355  0.1207  0.1028 -0.0829
    1SOL    HW2 5694   3.643   4.363   2.326  0.5424 -0.4120 -0.0498
    1SOL    HW3 5695   3.492   4.357   2.337  0.3605 -0.2033 -2.1914
    1SOL    MW4 5696   3.570   4.321   2.349  0.2079 -0.0052 -0.3569
    1SOL     OW 5697   3.788   4.448   2.231 -0.0389 -0.3279  0.0931
    1SOL    HW2 5698   3.856   4.387   2.258  0.8669  0.1061 -1.1882
    1SOL    HW3 5699   3.801   4.525   2.286 -0.6538 -0.9418  1.1182
    1SOL    MW4 5700   3.798   4.450   2.242 -0.0005 -0.3519  0.0594
    1SOL     OW 5701   4.238   4.637   2.388 -0.3135  0.3337 -0.2452
    1SOL    HW2 5702   4.264   4.643   2.480  0.0872  0.1751 -0.3451
    1SOL    HW3 5703   4.302   4.690   2.341  0.5241 -0.9670 -0.6208
    1SOL    MW4 5704   4.250   4.645   2.394 -0.1497  0.1411 -0.3078
    1SOL     OW 5705   4.007   0.087   2.263 -0.0955  0.2258 -0.2987
    1SOL    HW2 5706   3.998   0.182   2.269 -1.1918  0.1354 -0.2711
    1SOL    HW3 5707   4.081   0.065   2.318  0.0690  1.0556 -0.1943
    1SOL    MW4 5708   4.015   0.096   2.271 -0.2184  0.3233 -0.2813
    1SOL     OW 5709   4.044   0.346   2.343  0.2823 -0.1322  0.5239
    1SOL    HW2 5710   4.108   0.394   2.290  1.2509 -1.7655  0.1787
    1SOL    HW3 5711   3.960   0.385   2.320  1.0427  1.3918  0.2555
    1SOL    MW4 5712   4.042   0.358   2.333  0.5107 -0.1466  0.4430
    1SOL     OW 5713   4.267   0.511   2.206  0.3861  0.1162 -0.1573
    1SOL    HW2 5714   4.240   0.589   2.254  0.2450 -0.2423  0.3485
    1SOL    HW3 5715   4.340   0.476   2.256  0.7302  0.1683 -0.6262
    1SOL    MW4 5716   4.273   0.516   2.219  0.4129  0.0758 -0.1526
    1SOL     OW 5717   4.222   0.756   2.336  0.4156 -0.5397 -0.2893
    1SOL    HW2 5718   4.150   0.809   2.301 -0.2834 -1.8951 -0.9582
    1SOL    HW3 5719   4.301   0.794   2.297  0.1098  1.2314  0.7972
    1SOL    MW4 5720   4.223   0.768   2.326  0.2828 -0.4848 -0.2344
    1SOL     OW 5721   4.016   0.905   2.249  0.0770  0.3518 -0.0567
    1SOL    HW2 5722   4.022   0.993   2.286 -1.1183  0.4728 -0.1359
    1SOL    HW3 5723   4.046   0.915   2.158  1.5244  0.3537  0.4159
    1SOL    MW4 5724   4.021   0.918   2.242  0.1106  0.3679 -0.0045
    1SOL     OW 5725   4.078   1.163   2.356  0.4499  0.0817 -0.4052
    1SOL    HW2 5726   4.070   1.162   2.451  1.2384  0.5439 -0.3211
    1SOL    HW3 5727   4.008   1.222   2.327  0.5802  0.4124 -0.0632
    1SOL    MW4 5728   4.068   1.171   2.365  0.5708  0.1863 -0.3488
    1SOL     OW 5729   4.296   1.273   2.226  0.7409  0.2151 -0.2229
    1SOL    HW2 5730   4.220   1.221   2.254  0.4736  0.5483 -0.3329
    1SOL    HW3 5731   4.370   1.232   2.272  0.4140  0.2690  0.3632
    1SOL    MW4 5732   4.296   1.261   2.236  0.6623  0.2662 -0.1602
    1SOL     OW 5733   4.291   1.509   2.344  0.4772 -0.4955  0.4404
    1SOL    HW2 5734   4.289   1.422   2.304 -0.5539  0.1497 -0.9343
    1SOL    HW3 5735   4.358   1.557   2.294 -0.3516  0.1053 -0.1115
    1SOL    MW4 5736   4.300   1.504   2.332  0.2313 -0.3310  0.1862
    1SOL     OW 5737   4.061   1.625   2.248  0.1511  0.0150  0.1212
    1SOL    HW2 5738   4.137   1.570   2.265 -0.3065 -0.6980 -0.1515
    1SOL    HW3 5739   3.988   1.578   2.287 -0.2957  0.2469 -0.4403
    1SOL    MW4 5740   4.062   1.612   2.255  0.0319 -0.0484  0.0114
    1SOL     OW 5741   4.025   1.898   2.346  0.0684 -0.4742  0.2929
    1SOL    HW2 5742   4.012   1.908   2.441  0.1976  0.0295  0.2612
    1SOL    HW3 5743   4.033   1.804   2.333  2.8323 -0.4147  1.1852
    1SOL    MW4 5744   4.025   1.887   2.357  0.4497 -0.3999  0.4065
    1SOL     OW 5745   4.247   2.060   2.300  0.0830  0.0172  0.1422
    1SOL    HW2 5746   4.240   2.147   2.339 -1.7975 -0.0986  0.0904
    1SOL    HW3 5747   4.162   2.019   2.317  0.8227 -1.6797 -0.1541
    1SOL    MW4 5748   4.235   2.066   2.308 -0.0672 -0.2217  0.0963
    1SOL     OW 5749   4.234   2.334   2.366  0.1200 -0.1912  0.1732
    1SOL    HW2 5750   4.155   2.369   2.323  0.2034  0.7398  0.7823
    1SOL    HW3 5751   4.306   2.382   2.327  0.2191  0.4791  1.1670
    1SOL    MW4 5752   4.233   2.345   2.355  0.1440  0.0203  0.3846
    1SOL     OW 5753   4.005   2.449   2.270  0.1404  0.2026  0.2836
    1SOL    HW2 5754   4.011   2.539   2.302 -1.3245  0.7725 -1.0182
    1SOL    HW3 5755   3.932   2.411   2.319 -0.2987  0.2274 -0.3441
    1SOL    MW4 5756   3.996   2.456   2.281 -0.1113  0.2813  0.0291
    1SOL     OW 5757   4.022   2.722   2.373 -0.4532 -0.0711  0.1319
    1SOL    HW2 5758   4.025   2.724   2.469  1.9421  0.4791  0.0608
    1SOL    HW3 5759   3.944   2.774   2.351 -0.3553  0.8006  1.7410
    1SOL    MW4 5760   4.012   2.729   2.383 -0.1240  0.1163  0.3347
    1SOL     OW 5761   4.234   2.816   2.233  0.4090 -0.0468 -0.3910
    1SOL    HW2 5762   4.164   2.790   2.292 -0.0917  0.8846 -0.5510
    1SOL    HW3 5763   4.315   2.786   2.275 -0.0565 -0.7723 -0.0125
    1SOL    MW4 5764   4.236   2.809   2.246  0.2813 -0.0198 -0.3624
    1SOL     OW 5765   4.214   3.069   2.331  0.1040 -0.0599 -0.0966
    1SOL    HW2 5766   4.228   2.977   2.307 -0.1430 -0.0990 -0.0968
    1SOL    HW3 5767   4.291   3.114   2.297  0.9179 -0.4767  1.1592
    1SOL    MW4 5768   4.226   3.063   2.323  0.1783 -0.1197  0.0691
    1SOL     OW 5769   3.983   3.198   2.273 -0.4264  0.3110  0.2000
    1SOL    HW2 5770   4.001   3.289   2.295 -0.1641  0.8296 -1.9958
    1SOL    HW3 5771   4.067   3.154   2.285 -0.6259  0.2991  1.5544
    1SOL    MW4 5772   3.997   3.204   2.277 -0.4179  0.3781  0.0889
    1SOL     OW 5773   4.017   3.458   2.379 -0.3100 -0.1306  0.1586
    1SOL    HW2 5774   4.088   3.507   2.339 -0.0005 -0.5082  0.2369
    1SOL    HW3 5775   3.944   3.519   2.382 -0.6450 -0.4156 -1.9182
    1SOL    MW4 5776   4.017   3.472   2.374 -0.3133 -0.2182 -0.1047
    1SOL     OW 5777   4.228   3.602   2.261 -0.3148 -0.2293  0.5646
    1SOL    HW2 5778   4.241   3.694   2.284 -0.0909 -0.1520  0.1322
    1SOL    HW3 5779   4.235   3.599   2.166  0.3993 -0.8080  0.6259
    1SOL    MW4 5780   4.231   3.614   2.252 -0.1907 -0.2954  0.5155
    1SOL     OW 5781   4.267   3.878   2.334 -0.2847 -0.1641  0.8628
    1SOL    HW2 5782   4.266   3.917   2.421 -0.4107 -0.1963  0.8761
    1SOL    HW3 5783   4.351   3.904   2.297 -0.1694 -0.2744  1.0501
    1SOL    MW4 5784   4.278   3.887   2.340 -0.2861 -0.1829  0.8891
    1SOL     OW 5785   4.016   4.007   2.269 -0.0066  0.1964  0.3405
    1SOL    HW2 5786   4.091   3.950   2.288 -0.1019  0.0045  0.1439
    1SOL    HW3 5787   4.018   4.018   2.174  0.5617  1.2764  0.4579
    1SOL    MW4 5788   4.026   4.001   2.259  0.0558  0.3133  0.3300
    1SOL     OW 5789   3.975   4.272   2.338  0.6026 -0.2631 -0.1393
    1SOL    HW2 5790   4.062   4.312   2.329  0.9510 -1.1267 -0.7113
    1SOL    HW3 5791   3.989   4.180   2.315 -0.8038 -0.0537 -1.9219
    1SOL    MW4 5792   3.989   4.265   2.334  0.4632 -0.3500 -0.4499
    1SOL     OW 5793   4.219   4.385   2.278  0.1965 -0.3978  0.1358
    1SOL    HW2 5794   4.236   4.475   2.306 -0.2825 -0.0795 -0.6000
    1SOL    HW3 5795   4.300   4.339   2.297  0.5254  0.2400  0.3033
    1SOL    MW4 5796   4.232   4.391   2.284  0.1764 -0.2718  0.0608
    1SOL     OW 5797   0.181   4.651   2.629  0.3295 -0.0636  0.2025
    1SOL    HW2 5798   0.194   4.564   2.668 -0.5746  0.1180  0.9233
    1SOL    HW3 5799   0.123   4.696   2.690 -0.9166  0.3114 -1.2403
    1SOL    MW4 5800   0.175   4.645   2.642  0.0459  0.0105  0.1070
    1SOL     OW 5801   0.008   0.119   2.793 -0.0010  0.1870  0.5709
    1SOL    HW2 5802   0.024   0.126   2.887  2.4683  0.9036  0.1237
    1SOL    HW3 5803   0.013   0.208   2.760  1.2070 -0.2792 -0.5484
    1SOL    MW4 5804   0.011   0.131   2.801  0.4841  0.2200  0.3643
    1SOL     OW 5805   0.001   0.357   2.661 -0.1201  0.0260 -0.1666
    1SOL    HW2 5806   0.073   0.420   2.670  0.6073 -1.0002  1.3103
    1SOL    HW3 5807  -0.022   0.362   2.568  0.7660  1.5496 -0.3341
    1SOL    MW4 5808   0.008   0.366   2.650  0.0930  0.0916  0.0064
    1SOL     OW 5809   0.206   0.514   2.743  0.2965  0.1851  0.2117
    1SOL    HW2 5810   0.218   0.519   2.837  1.7397 -1.0561  0.0997
    1SOL    HW3 5811   0.289   0.480   2.709 -0.2702  0.4353 -1.4792
    1SOL    MW4 5812   0.218   0.510   2.751  0.4121  0.0544 -0.0262
    1SOL     OW 5813   0.222   0.733   2.599  0.3065  0.2592  0.2140
    1SOL    HW2 5814   0.285   0.782   2.652  1.5607 -1.7573  0.6367
    1SOL    HW3 5815   0.212   0.650   2.645 -1.2820 -0.1520 -0.8499
    1SOL    MW4 5816   0.229   0.729   2.612  0.2624 -0.0610  0.1295
    1SOL     OW 5817   0.003   0.861   2.682  0.1220  0.0601 -0.1402
    1SOL    HW2 5818  -0.073   0.807   2.658 -0.7992  1.6319 -0.8066
    1SOL    HW3 5819   0.078   0.805   2.662 -0.8404 -1.7263  1.0382
    1SOL    MW4 5820   0.003   0.846   2.676 -0.1264  0.0318 -0.0725
    1SOL     OW 5821   4.476   1.118   2.597 -0.1702  0.1742  0.2168
    1SOL    HW2 5822   4.531   1.170   2.656  0.0314 -0.6179  0.7327
    1SOL    HW3 5823   4.489   1.028   2.626 -0.9409 -0.1118 -0.3272
    1SOL    MW4 5824   4.485   1.113   2.609 -0.2453  0.0321  0.2131
    1SOL     OW 5825   0.169   1.269   2.723 -0.0631 -0.0187 -0.4275
    1SOL    HW2 5826   0.255   1.228   2.726 -0.2989 -0.6420 -2.1974
    1SOL    HW3 5827   0.181   1.347   2.668 -0.2864  0.7401  0.5739
    1SOL    MW4 5828   0.182   1.274   2.716 -0.1237 -0.0008 -0.5288
    1SOL     OW 5829   0.195   1.533   2.595  0.2773 -0.6402  0.0532
    1SOL    HW2 5830   0.268   1.583   2.630 -0.7378  1.1823 -0.3968
    1SOL    HW3 5831   0.117   1.575   2.632 -0.5653 -3.0009  1.1314
    1SOL    MW4 5832   0.194   1.545   2.605  0.0322 -0.7113  0.1359
    1SOL     OW 5833   4.453   1.639   2.718 -0.1224 -0.3468 -0.1177
    1SOL    HW2 5834   4.452   1.653   2.813  0.0877 -0.2937 -0.1238
    1SOL    HW3 5835   4.465   1.726   2.681 -2.6874 -0.0139 -0.2703
    1SOL    MW4 5836   4.454   1.652   2.726 -0.4334 -0.2958 -0.1388
    1SOL     OW 5837   4.473   1.908   2.642 -0.2375 -0.1627 -0.2881
    1SOL    HW2 5838   4.541   1.961   2.684 -1.5210  0.3050  1.2611
    1SOL    HW3 5839   4.472   1.936   2.551  1.5974 -0.1280 -0.2998
    1SOL    MW4 5840   4.482   1.919   2.636 -0.1645 -0.0966 -0.0854
    1SOL     OW 5841   0.197   2.049   2.762 -0.3431  0.0114 -0.1129
    1SOL    HW2 5842   0.272   1.998   2.731 -0.6054 -0.2673 -0.2840
    1SOL    HW3 5843   0.198   2.128   2.709 -1.2489 -0.8040 -1.3649
    1SOL    MW4 5844   0.207   2.052   2.751 -0.4972 -0.1330 -0.3006
    1SOL     OW 5845   0.177   2.293   2.640 -0.3057 -0.1575  0.0792
    1SOL    HW2 5846   0.249   2.334   2.688 -0.9428  1.1748 -0.0949
    1SOL    HW3 5847   0.103   2.352   2.652 -0.6743 -0.1793 -1.9181
    1SOL    MW4 5848   0.177   2.306   2.648 -0.4384  0.0153 -0.2072
    1SOL     OW 5849   4.473   2.477   2.709  0.4111  0.1543 -0.1083
    1SOL    HW2 5850   4.464   2.477   2.804  0.4179 -0.9350 -0.0963
    1SOL    HW3 5851   4.401   2.421   2.679  0.4508  0.4426 -0.7323
    1SOL    MW4 5852   4.462   2.469   2.718  0.4172  0.0484 -0.1891
    1SOL     OW 5853   0.011   2.728   2.637 -0.1246 -0.2955  0.3564
    1SOL    HW2 5854  -0.075   2.752   2.672 -0.1871 -0.7701  0.5333
    1SOL    HW3 5855   0.018   2.634   2.654 -0.0295 -0.4732 -0.6438
    1SOL    MW4 5856   0.000   2.718   2.644 -0.1206 -0.3815  0.2477
    1SOL     OW 5857   0.251   2.852   2.746  0.2789  0.3384  0.1271
    1SOL    HW2 5858   0.255   2.937   2.702 -0.8647 -0.2630 -1.1725
    1SOL    HW3 5859   0.162   2.822   2.732  1.1762 -1.8944 -0.9807
    1SOL    MW4 5860   0.240   2.860   2.739  0.2464 -0.0358 -0.1907
    1SOL     OW 5861   0.208   3.099   2.645 -0.3010 -0.1320  0.1452
    1SOL    HW2 5862   0.291   3.145   2.638 -0.8269  0.7625 -0.3270
    1SOL    HW3 5863   0.179   3.087   2.555 -0.8120 -0.1885  0.3105
    1SOL    MW4 5864   0.215   3.104   2.633 -0.4378 -0.0217  0.1044
    1SOL     OW 5865   4.461   3.241   2.709 -0.2678 -0.2671 -0.2412
    1SOL    HW2 5866   4.390   3.179   2.695 -0.2564 -0.0027 -1.5500
    1SOL    HW3 5867   4.541   3.190   2.699 -0.2628 -0.3899  0.3951
    1SOL    MW4 5868   4.462   3.226   2.706 -0.2661 -0.2487 -0.3300
    1SOL     OW 5869   4.460   3.487   2.588 -0.2285  0.0468 -0.4350
    1SOL    HW2 5870   4.531   3.533   2.633 -0.4344  1.3313 -1.3908
    1SOL    HW3 5871   4.447   3.406   2.639  1.4246  0.1392  0.1553
    1SOL    MW4 5872   4.468   3.482   2.600 -0.0377  0.2286 -0.4833
    1SOL     OW 5873   0.167   3.615   2.714 -0.3158 -0.4361  0.2366
    1SOL    HW2 5874   0.175   3.626   2.809  1.1188 -0.0777  0.0831
    1SOL    HW3 5875   0.249   3.573   2.687 -1.7223 -2.8211 -0.5245
    1SOL    MW4 5876   0.179   3.611   2.723 -0.3121 -0.7031  0.1159
    1SOL     OW 5877   0.213   3.871   2.626 -0.1807 -0.0713  0.0235
    1SOL    HW2 5878   0.193   3.781   2.651  0.3307  0.2490  1.6551
    1SOL    HW3 5879   0.203   3.873   2.531  0.4044 -1.9929 -0.0859
    1SOL    MW4 5880   0.209   3.860   2.617 -0.0360 -0.2825  0.2244
    1SOL     OW 5881   0.004   4.036   2.735 -0.0775  0.4506 -0.2882
    1SOL    HW2 5882  -0.002   4.108   2.672  1.0226 -0.7515 -1.8063
    1SOL    HW3 5883   0.078   3.983   2.704  0.2423 -0.3872  1.7948
    1SOL    MW4 5884   0.013   4.039   2.723  0.1097  0.1822 -0.2139
    1SOL     OW 5885   4.485   4.281   2.613  0.5771 -0.3796 -0.6770
    1SOL    HW2 5886   4.407   4.317   2.655  0.4484  0.1508 -1.3458
    1SOL    HW3 5887   4.559   4.323   2.658  0.5321 -2.0203  0.9720
    1SOL    MW4 5888   4.485   4.291   2.624  0.5541 -0.5260 -0.5474
    1SOL     OW 5889   0.205   4.406   2.754 -0.1019 -0.0369 -0.0448
    1SOL    HW2 5890   0.204   4.390   2.849 -1.6296 -0.6243 -0.1504
    1SOL    HW3 5891   0.292   4.376   2.726  0.3310  0.0560  1.1415
    1SOL    MW4 5892   0.217   4.400   2.763 -0.2463 -0.1025  0.0978
    1SOL     OW 5893   0.673   4.639   2.662  0.4200  0.0072 -0.3542
    1SOL    HW2 5894   0.746   4.692   2.694 -0.4975  1.4266 -0.5349
    1SOL    HW3 5895   0.596   4.693   2.679 -0.7423 -2.0588  1.0968
    1SOL    MW4 5896   0.673   4.653   2.668  0.1456 -0.0777 -0.1867
    1SOL     OW 5897   0.418   0.095   2.715  0.5159 -0.1129  0.5650
    1SOL    HW2 5898   0.423   0.095   2.811 -1.0635  0.7618  0.6685
    1SOL    HW3 5899   0.339   0.045   2.695  0.5228  0.2003 -0.2646
    1SOL    MW4 5900   0.408   0.088   2.725  0.3084  0.0439  0.4692
    1SOL     OW 5901   0.420   0.387   2.648 -0.4077  0.0584  0.7007
    1SOL    HW2 5902   0.506   0.417   2.678  0.4328 -0.6868 -0.9200
    1SOL    HW3 5903   0.421   0.292   2.662 -0.7644 -0.0280  0.1714
    1SOL    MW4 5904   0.431   0.378   2.654 -0.3439 -0.0513  0.4170
    1SOL     OW 5905   0.663   0.491   2.715 -0.2824 -0.3694  0.1894
    1SOL    HW2 5906   0.661   0.498   2.810 -2.7482 -1.1395  0.2483
    1SOL    HW3 5907   0.753   0.467   2.694  0.6532  1.2548  2.1989
    1SOL    MW4 5908   0.674   0.489   2.724 -0.4843 -0.2567  0.4621
    1SOL     OW 5909   0.637   0.753   2.617  0.3013  0.1166 -0.3097
    1SOL    HW2 5910   0.721   0.787   2.648  0.1071  2.4326 -2.1537
    1SOL    HW3 5911   0.638   0.660   2.639  2.3838  0.5882  1.7212
    1SOL    MW4 5912   0.648   0.745   2.624  0.5504  0.4844 -0.2849
    1SOL     OW 5913   0.419   0.862   2.740  0.3479  0.3375 -0.1919
    1SOL    HW2 5914   0.420   0.952   2.707 -0.7893 -0.3173 -2.1171
    1SOL    HW3 5915   0.490   0.819   2.693  1.0520  0.2699  0.9151
    1SOL    MW4 5916   0.429   0.869   2.729  0.2908  0.2422 -0.2997
    1SOL     OW 5917   0.432   1.133   2.646  0.1389  0.0222  0.6319
    1SOL    HW2 5918   0.515   1.176   2.667  0.4295 -0.8070  1.2265
    1SOL    HW3 5919   0.425   1.141   2.551  0.7250  0.4155  0.6145
    1SOL    MW4 5920   0.442   1.140   2.636  0.2546 -0.0354  0.7079
    1SOL     OW 5921   0.655   1.277   2.702 -0.4908 -0.1224 -0.3602
    1SOL    HW2 5922   0.665   1.277   2.797  1.3318  0.6938 -0.5206
    1SOL    HW3 5923   0.734   1.233   2.669  0.1202  1.7812 -1.5579
    1SOL    MW4 5924   0.667   1.271   2.710 -0.1698  0.2366 -0.5395
    1SOL     OW 5925   0.652   1.540   2.613  0.1079 -0.1034 -0.0923
    1SOL    HW2 5926   0.568   1.583   2.627  0.1694  0.2779 -0.9127
    1SOL    HW3 5927   0.641   1.453   2.651 -0.3964  0.2246  0.5127
    1SOL    MW4 5928   0.640   1.534   2.620  0.0495 -0.0098 -0.1204
    1SOL     OW 5929   0.413   1.664   2.687  0.2190 -0.1620 -0.1090
    1SOL    HW2 5930   0.442   1.662   2.778 -0.4548 -1.4211  0.1007
    1SOL    HW3 5931   0.426   1.754   2.659 -0.7380  0.5445  1.6299
    1SOL    MW4 5932   0.418   1.676   2.695  0.0038 -0.2348  0.1481
    1SOL     OW 5933   0.415   1.949   2.593  0.2191 -0.2672  0.3399
    1SOL    HW2 5934   0.495   1.994   2.619 -0.5538  1.0481  0.4908
    1SOL    HW3 5935   0.415   1.952   2.497  0.1505  0.0899  0.3509
    1SOL    MW4 5936   0.425   1.955   2.584  0.1081 -0.0465  0.3612
    1SOL     OW 5937   0.650   2.038   2.736 -0.2723  0.0015  0.0431
    1SOL    HW2 5938   0.644   2.039   2.832 -1.1209 -1.8018  0.0292
    1SOL    HW3 5939   0.728   1.987   2.717 -0.1664  0.2617 -0.2293
    1SOL    MW4 5940   0.659   2.032   2.746 -0.3703 -0.2022  0.0050
    1SOL     OW 5941   0.619   2.298   2.633  0.0840  0.3622  0.6028
    1SOL    HW2 5942   0.700   2.342   2.660  1.5096 -1.3930 -0.6651
    1SOL    HW3 5943   0.629   2.208   2.665 -1.3884  0.1202  0.4284
    1SOL    MW4 5944   0.631   2.292   2.641  0.0778  0.0989  0.4127
    1SOL     OW 5945   0.395   2.430   2.737 -0.3556  0.0135 -0.0331
    1SOL    HW2 5946   0.399   2.515   2.694  2.2537  0.3330  0.7748
    1SOL    HW3 5947   0.473   2.383   2.706 -1.1537 -1.6526  0.4053
    1SOL    MW4 5948   0.406   2.435   2.727 -0.1166 -0.1643  0.1314
    1SOL     OW 5949   0.431   2.688   2.619  0.2190  0.0673  0.0754
    1SOL    HW2 5950   0.515   2.718   2.653  0.1433  0.3109  0.0466
    1SOL    HW3 5951   0.366   2.744   2.661 -0.0124 -0.8249  0.9264
    1SOL    MW4 5952   0.434   2.699   2.629  0.1785 -0.0184  0.1841
    1SOL     OW 5953   0.652   2.804   2.728  0.0100  0.3313 -0.2876
    1SOL    HW2 5954   0.670   2.810   2.822  1.7382  0.0897 -0.5972
    1SOL    HW3 5955   0.662   2.894   2.697  2.9052 -0.1266 -0.8290
    1SOL    MW4 5956   0.655   2.817   2.737  0.6199  0.2389 -0.4001
    1SOL     OW 5957   0.684   3.078   2.670  0.3804  0.3786 -0.4580
    1SOL    HW2 5958   0.768   3.117   2.694 -0.7725  1.8899  1.2279
    1SOL    HW3 5959   0.679   3.089   2.575  1.5803  1.3064 -0.4307
    1SOL    MW4 5960   0.694   3.085   2.661  0.3867  0.7005 -0.2320
    1SOL     OW 5961   0.452   3.205   2.711  0.2208 -0.1012 -0.1543
    1SOL    HW2 5962   0.431   3.211   2.804 -0.1733  0.3277 -0.2694
    1SOL    HW3 5963   0.536   3.159   2.708 -0.2585 -1.0203  0.3558
    1SOL    MW4 5964   0.460   3.200   2.723  0.1055 -0.1659 -0.1020
    1SOL     OW 5965   0.416   3.473   2.645 -0.2034  0.1860 -0.0717
    1SOL    HW2 5966   0.428   3.380   2.663  0.6567 -0.0347 -1.6973
    1SOL    HW3 5967   0.406   3.478   2.550 -0.2482  1.7592  0.0052
    1SOL    MW4 5968   0.416   3.462   2.635 -0.0959  0.3645 -0.2761
    1SOL     OW 5969   0.650   3.610   2.722  0.3069 -0.4281  0.6296
    1SOL    HW2 5970   0.655   3.619   2.817  1.2480  1.3064  0.4534
    1SOL    HW3 5971   0.574   3.554   2.706 -0.4684  0.1007  2.3736
    1SOL    MW4 5972   0.640   3.604   2.732  0.3287 -0.1295  0.8366
    1SOL     OW 5973   0.670   3.892   2.631 -0.0536 -0.1727  0.3138
    1SOL    HW2 5974   0.589   3.940   2.649  0.2721  0.7818 -0.7076
    1SOL    HW3 5975   0.649   3.801   2.653 -1.8730 -0.1857 -1.3153
    1SOL    MW4 5976   0.657   3.887   2.636 -0.2507 -0.0486 -0.0355
    1SOL     OW 5977   0.447   4.021   2.708  0.5163 -0.4685  0.3447
    1SOL    HW2 5978   0.428   4.107   2.670 -1.0986 -0.4196  1.2299
    1SOL    HW3 5979   0.369   3.970   2.691  1.0403 -1.4278  0.8213
    1SOL    MW4 5980   0.434   4.026   2.701  0.3724 -0.5879  0.5243
    1SOL     OW 5981   0.433   4.272   2.630  0.0576 -0.0939  0.2960
    1SOL    HW2 5982   0.520   4.295   2.660 -0.0968 -0.0849  0.7503
    1SOL    HW3 5983   0.436   4.282   2.535  0.8666 -1.1524  0.1968
    1SOL    MW4 5984   0.445   4.276   2.622  0.1440 -0.2322  0.3428
    1SOL     OW 5985   0.655   4.373   2.731  0.3251  0.0786  0.4254
    1SOL    HW2 5986   0.739   4.343   2.698  0.6425 -0.1145  1.3824
    1SOL    HW3 5987   0.649   4.464   2.704 -0.3407 -0.6215 -1.9135
    1SOL    MW4 5988   0.665   4.381   2.723  0.2791 -0.0386  0.2429
    1SOL     OW 5989   1.109   4.619   2.628  0.0045  0.0904 -0.0703
    1SOL    HW2 5990   1.185   4.669   2.659  0.4559 -0.2529 -0.6196
    1SOL    HW3 5991   1.123   4.530   2.660 -0.0087 -0.0459 -0.4356
    1SOL    MW4 5992   1.121   4.614   2.637  0.0622  0.0272 -0.1910
    1SOL     OW 5993   0.883   0.137   2.709 -0.4293  0.0895  0.3165
    1SOL    HW2 5994   0.892   0.145   2.804  0.6689  1.2338  0.1211
    1SOL    HW3 5995   0.961   0.089   2.681 -1.0481 -0.7818  0.0450
    1SOL    MW4 5996   0.894   0.131   2.718 -0.3660  0.1255  0.2546
    1SOL     OW 5997   0.925   0.406   2.624  0.4094  0.1227 -0.1362
    1SOL    HW2 5998   0.917   0.315   2.653 -0.0388  0.3214  0.3735
    1SOL    HW3 5999   0.930   0.400   2.528 -2.1357 -0.2874 -0.2776
    1SOL    MW4 6000   0.924   0.393   2.615  0.0144  0.0948 -0.0877
    1SOL     OW 6001   1.158   0.531   2.704 -0.2975 -0.2745 -0.5671
    1SOL    HW2 6002   1.158   0.619   2.666  2.1840 -0.1046 -0.2443
    1SOL    HW3 6003   1.074   0.493   2.676  0.0963  0.9465 -3.5696
    1SOL    MW4 6004   1.147   0.537   2.695  0.0818 -0.0910 -0.9208
    1SOL     OW 6005   1.126   0.790   2.599  0.1124 -0.1278 -0.1837
    1SOL    HW2 6006   1.202   0.837   2.633  0.0969 -0.2017 -0.0493
    1SOL    HW3 6007   1.128   0.808   2.504 -0.0637  0.3967 -0.0929
    1SOL    MW4 6008   1.136   0.799   2.591  0.0871 -0.0684 -0.1540
    1SOL     OW 6009   0.882   0.864   2.682 -0.0077  0.2276 -0.3628
    1SOL    HW2 6010   0.893   0.863   2.777 -0.0576  0.6015 -0.3500
    1SOL    HW3 6011   0.966   0.836   2.647 -0.4329 -1.3291 -0.1828
    1SOL    MW4 6012   0.894   0.860   2.690 -0.0704  0.0716 -0.3371
    1SOL     OW 6013   0.875   1.132   2.633 -0.1206 -0.1135 -0.4856
    1SOL    HW2 6014   0.870   1.038   2.654 -0.7561  0.4018  1.9064
    1SOL    HW3 6015   0.894   1.135   2.540  1.8125 -2.6511 -0.2348
    1SOL    MW4 6016   0.877   1.120   2.624  0.0506 -0.3804 -0.1369
    1SOL     OW 6017   1.125   1.217   2.704 -0.1234 -0.3248  0.4805
    1SOL    HW2 6018   1.122   1.311   2.687  0.6752 -0.3790 -0.0146
    1SOL    HW3 6019   1.037   1.186   2.684 -0.6741  0.4660  1.6083
    1SOL    MW4 6020   1.113   1.225   2.699 -0.0906 -0.2277  0.5639
    1SOL     OW 6021   1.123   1.492   2.651 -0.0974  0.4633 -0.4031
    1SOL    HW2 6022   1.045   1.539   2.681 -2.3939 -2.2711 -1.7917
    1SOL    HW3 6023   1.125   1.507   2.556 -0.5483 -1.6649 -0.7829
    1SOL    MW4 6024   1.113   1.500   2.642 -0.4598 -0.1782 -0.6361
    1SOL     OW 6025   0.884   1.645   2.708  0.0100  0.2944 -0.2449
    1SOL    HW2 6026   0.863   1.659   2.800 -1.0887  0.3601 -0.4987
    1SOL    HW3 6027   0.806   1.604   2.671  1.0212 -1.1999 -0.7987
    1SOL    MW4 6028   0.871   1.641   2.715 -0.0016  0.1059 -0.3517
    1SOL     OW 6029   0.864   1.901   2.616 -0.4019 -0.2918  0.1936
    1SOL    HW2 6030   0.937   1.955   2.646 -0.4653 -0.4205  0.5707
    1SOL    HW3 6031   0.887   1.812   2.642 -0.5139 -0.3860 -0.0262
    1SOL    MW4 6032   0.876   1.896   2.623 -0.4250 -0.3211  0.2143
    1SOL     OW 6033   1.078   2.045   2.695  0.2509  0.1675  0.1500
    1SOL    HW2 6034   1.161   2.002   2.673 -0.3555 -0.7185 -0.4441
    1SOL    HW3 6035   1.084   2.131   2.655  0.5021 -0.2449 -0.7037
    1SOL    MW4 6036   1.090   2.050   2.687  0.2040 -0.0038 -0.0412
    1SOL     OW 6037   1.090   2.307   2.590  0.1002  0.6856 -0.2445
    1SOL    HW2 6038   1.177   2.344   2.607  0.4505  0.0708 -0.6867
    1SOL    HW3 6039   1.085   2.302   2.494 -0.2088  0.2172 -0.2022
    1SOL    MW4 6040   1.101   2.311   2.579  0.1056  0.5426 -0.2973
    1SOL     OW 6041   0.845   2.420   2.691  0.0820 -0.0395 -0.1560
    1SOL    HW2 6042   0.853   2.509   2.658  1.1539 -0.5757 -1.3985
    1SOL    HW3 6043   0.924   2.376   2.660 -0.9028 -1.6842 -0.3697
    1SOL    MW4 6044   0.857   2.426   2.683  0.0935 -0.3273 -0.3481
    1SOL     OW 6045   0.878   2.675   2.618  0.2442  0.2910  0.2779
    1SOL    HW2 6046   0.951   2.695   2.677  0.1694  0.0739  0.4451
    1SOL    HW3 6047   0.805   2.727   2.651 -0.2354 -0.9978  1.3298
    1SOL    MW4 6048   0.878   2.684   2.630  0.1710  0.0925  0.4387
    1SOL     OW 6049   1.083   2.832   2.720  0.0000  0.0000  0.4140
    1SOL    HW2 6050   1.106   2.825   2.813  0.0000  0.0000  0.4131
    1SOL    HW3 6051   1.159   2.795   2.674  0.0000  0.0000  0.4111
    1SOL    MW4 6052   1.096   2.826   2.726  0.0000  0.0000  0.4134
    1SOL     OW 6053   1.148   3.096   2.673  0.0000  0.0000  0.4424
    1SOL    HW2 6054   1.122   3.007   2.696  0.0000  0.0000  0.4400
    1SOL    HW3 6055   1.136   3.101   2.578  0.0000  0.0000  0.4423
    1SOL    MW4 6056   1.143   3.085   2.663  0.0000  0.0000  0.4423
    1SOL     OW 6057   0.919   3.208   2.769  0.0000  0.0000 -0.1175
    1SOL    HW2 6058   0.903   3.287   2.717  0.0000  0.0000 -0.1310
    1SOL    HW3 6059   1.006   3.179   2.742  0.0000  0.0000 -0.1094
    1SOL    MW4 6060   0.928   3.215   2.759  0.0000  0.0000 -0.1180
    1SOL     OW 6061   0.887   3.462   2.641  0.0000  0.0000 -0.3336
    1SOL    HW2 6062   0.961   3.509   2.681  0.0000  0.0000 -0.3057
    1SOL    HW3 6063   0.810   3.512   2.669  0.0000  0.0000 -0.3453
    1SOL    MW4 6064   0.887   3.475   2.650  0.0000  0.0000 -0.3314
    1SOL     OW 6065   1.102   3.599   2.728  0.0000  0.0000  0.6630
    1SOL    HW2 6066   1.101   3.626   2.820  0.0000  0.0000  0.6638
    1SOL    HW3 6067   1.100   3.681   2.679  0.0000  0.0000  0.6656
    1SOL    MW4 6068   1.102   3.613   2.734  0.0000  0.0000  0.6633
    1SOL     OW 6069   1.098   3.851   2.590  0.0000  0.0000 -0.3308
    1SOL    HW2 6070   1.178   3.889   2.627  0.0000  0.0000 -0.3364
    1SOL    HW3 6071   1.110   3.859   2.495  0.0000  0.0000 -0.3319
    1SOL    MW4 6072   1.110   3.857   2.582  0.0000  0.0000 -0.3314
    1SOL     OW 6073   0.893   4.008   2.718  0.0000  0.0000 -0.2069
    1SOL    HW2 6074   0.957   3.963   2.663  0.0000  0.0000 -0.2248
    1SOL    HW3 6075   0.809   3.969   2.692  0.0000  0.0000 -0.1756
    1SOL    MW4 6076   0.890   3.997   2.707  0.0000  0.0000 -0.2050
    1SOL     OW 6077   0.888   4.266   2.644  0.0000  0.0000  0.4191
    1SOL    HW2 6078   0.892   4.173   2.669  0.0000  0.0000  0.4146
    1SOL    HW3 6079   0.884   4.265   2.548  0.0000  0.0000  0.4192
    1SOL    MW4 6080   0.888   4.254   2.635  0.0000  0.0000  0.4184
    1SOL     OW 6081   1.144   4.351   2.711  0.0000  0.0000 -0.0288
    1SOL    HW2 6082   1.137   4.378   2.803  0.0000  0.0000 -0.0290
    1SOL    HW3 6083   1.055   4.327   2.686  0.0000  0.0000 -0.0239
    1SOL    MW4 6084   1.131   4.351   2.720  0.0000  0.0000 -0.0284
    1SOL     OW 6085   1.597   0.017   2.633 -0.0800 -0.1321  0.1471
    1SOL    HW2 6086   1.591  -0.071   2.670 -3.0198  0.2474  0.7301
    1SOL    HW3 6087   1.589   0.004   2.538 -0.6327 -0.5208  0.2401
    1SOL    MW4 6088   1.595   0.004   2.625 -0.5406 -0.1330  0.2360
    1SOL     OW 6089   1.335   0.094   2.716  0.1440  0.0164 -0.2905
    1SOL    HW2 6090   1.346   0.184   2.686  0.7258  1.1227  3.0052
    1SOL    HW3 6091   1.423   0.056   2.713  0.0855 -0.0908 -0.6407
    1SOL    MW4 6092   1.348   0.101   2.712  0.2130  0.1482  0.0982
    1SOL     OW 6093   1.346   0.334   2.602  0.3450  0.0536 -0.1885
    1SOL    HW2 6094   1.424   0.385   2.624  0.7890 -0.5594 -0.3321
    1SOL    HW3 6095   1.273   0.394   2.618  0.8573  0.7119 -0.2910
    1SOL    MW4 6096   1.347   0.349   2.607  0.4712  0.0596 -0.2205
    1SOL     OW 6097   1.561   0.477   2.702  0.1752  0.4326 -0.0158
    1SOL    HW2 6098   1.646   0.442   2.675 -0.0954 -0.7335  0.6190
    1SOL    HW3 6099   1.565   0.569   2.678  1.2795  0.1938 -0.8125
    1SOL    MW4 6100   1.573   0.484   2.695  0.2851  0.2472 -0.0372
    1SOL     OW 6101   1.595   0.741   2.634 -0.3063  0.0741  0.4616
    1SOL    HW2 6102   1.519   0.793   2.659  1.3208  2.1509  1.2541
    1SOL    HW3 6103   1.603   0.753   2.540 -0.2341  0.8783  0.5679
    1SOL    MW4 6104   1.586   0.749   2.625 -0.0821  0.4542  0.5803
    1SOL     OW 6105   1.372   0.900   2.699  0.3529  0.0680 -0.0597
    1SOL    HW2 6106   1.352   0.904   2.792  0.6581 -0.8124  0.0454
    1SOL    HW3 6107   1.377   0.992   2.672  0.5786  0.3300  0.8558
    1SOL    MW4 6108   1.370   0.913   2.707  0.4231 -0.0136  0.0749
    1SOL     OW 6109   1.373   1.174   2.595  0.0282 -0.3757  0.0640
    1SOL    HW2 6110   1.428   1.215   2.663 -1.1077 -1.7126  1.8271
    1SOL    HW3 6111   1.284   1.195   2.621 -0.4125 -0.7042 -1.1691
    1SOL    MW4 6112   1.369   1.182   2.608 -0.1798 -0.5955  0.1338
    1SOL     OW 6113   1.596   1.294   2.744 -0.0690  0.0028  0.6575
    1SOL    HW2 6114   1.603   1.275   2.837  0.8955  0.2537  0.6485
    1SOL    HW3 6115   1.663   1.238   2.703  0.4547  0.8996  0.2686
    1SOL    MW4 6116   1.606   1.284   2.751  0.1274  0.1541  0.6049
    1SOL     OW 6117   1.549   1.568   2.643 -0.1889 -0.0648 -0.1808
    1SOL    HW2 6118   1.549   1.478   2.676 -1.6368  0.1747  0.5105
    1SOL    HW3 6119   1.542   1.558   2.548  1.3433 -0.7046 -0.2420
    1SOL    MW4 6120   1.548   1.554   2.635 -0.1779 -0.1177 -0.0975
    1SOL     OW 6121   1.307   1.681   2.744 -0.2636  0.0554  0.5731
    1SOL    HW2 6122   1.388   1.648   2.706  1.3663  1.5718  2.5858
    1SOL    HW3 6123   1.238   1.625   2.708  1.7141 -1.5458 -0.8074
    1SOL    MW4 6124   1.308   1.669   2.734  0.2124  0.0442  0.6564
    1SOL     OW 6125   1.311   1.922   2.599  0.0273  0.5388 -0.3927
    1SOL    HW2 6126   1.304   1.832   2.628 -0.3208  0.4095 -0.8804
    1SOL    HW3 6127   1.334   1.916   2.506 -0.4577  0.9469 -0.5413
    1SOL    MW4 6128   1.313   1.910   2.591 -0.0826  0.5757 -0.4766
    1SOL     OW 6129   1.568   2.045   2.694  0.2244 -0.5744 -0.2131
    1SOL    HW2 6130   1.627   1.990   2.642 -1.1846 -1.8489 -0.5059
    1SOL    HW3 6131   1.482   2.004   2.684 -0.3058 -0.1212  2.1185
    1SOL    MW4 6132   1.564   2.032   2.686 -0.0315 -0.6828  0.0558
    1SOL     OW 6133   1.578   2.301   2.586  0.0125  0.1547 -0.0965
    1SOL    HW2 6134   1.656   2.350   2.612  2.1015 -1.3645 -3.1732
    1SOL    HW3 6135   1.587   2.216   2.628  0.1513 -0.1130 -0.6628
    1SOL    MW4 6136   1.589   2.296   2.595  0.3064 -0.0811 -0.5772
    1SOL     OW 6137   1.339   2.430   2.670 -0.2585  0.3649 -0.2366
    1SOL    HW2 6138   1.327   2.524   2.653 -0.8332  0.2468 -0.5122
    1SOL    HW3 6139   1.429   2.412   2.644  0.1037  1.0039  0.5402
    1SOL    MW4 6140   1.349   2.440   2.665 -0.2866  0.4337 -0.1707
    1SOL     OW 6141   1.304   2.702   2.621  0.3236 -0.0550 -0.5059
    1SOL    HW2 6142   1.363   2.757   2.672  0.3475 -0.6410  0.1053
    1SOL    HW3 6143   1.334   2.712   2.530  1.4489 -0.4712 -0.1764
    1SOL    MW4 6144   1.316   2.711   2.616  0.4753 -0.1872 -0.3819
    1SOL     OW 6145   1.534   2.840   2.720  0.2590  0.1806  0.0806
    1SOL    HW2 6146   1.539   2.839   2.815  1.9212  0.3653 -0.0016
    1SOL    HW3 6147   1.611   2.792   2.691 -0.2349  0.1255 -1.1753
    1SOL    MW4 6148   1.545   2.834   2.728  0.4132  0.1976 -0.0958
    1SOL     OW 6149   1.592   3.081   2.605  0.1480  0.0572  0.0560
    1SOL    HW2 6150   1.667   3.123   2.646  0.4832  0.2627 -0.7618
    1SOL    HW3 6151   1.581   2.999   2.653  0.4610  0.3497  0.6280
    1SOL    MW4 6152   1.600   3.075   2.617  0.2337  0.1230  0.0238
    1SOL     OW 6153   1.393   3.223   2.727 -0.0426 -0.2462 -0.0073
    1SOL    HW2 6154   1.464   3.179   2.681  1.1592  0.1620  1.4313
    1SOL    HW3 6155   1.314   3.173   2.704  0.9013 -1.4658 -0.5972
    1SOL    MW4 6156   1.392   3.211   2.718  0.2406 -0.3533  0.1047
    1SOL     OW 6157   1.352   3.494   2.628 -0.1616 -0.4092 -0.4207
    1SOL    HW2 6158   1.355   3.402   2.657 -0.1239  0.1723  1.4716
    1SOL    HW3 6159   1.271   3.528   2.664  0.3980  0.6327 -0.1350
    1SOL    MW4 6160   1.342   3.486   2.636 -0.0827 -0.1950 -0.1333
    1SOL     OW 6161   1.559   3.617   2.758 -0.3317  0.2716 -0.4902
    1SOL    HW2 6162   1.637   3.567   2.734 -1.3204 -1.4539 -0.1345
    1SOL    HW3 6163   1.490   3.583   2.702 -0.9650  1.4634 -0.4659
    1SOL    MW4 6164   1.560   3.606   2.747 -0.5457  0.2012 -0.4401
    1SOL     OW 6165   1.549   3.891   2.633  0.0613  0.3376  0.2662
    1SOL    HW2 6166   1.471   3.933   2.671 -0.8377 -1.7721  0.8601
    1SOL    HW3 6167   1.542   3.800   2.662  1.0394 -0.6055 -2.3777
    1SOL    MW4 6168   1.538   3.885   2.642  0.0716 -0.0653 -0.0043
    1SOL     OW 6169   1.316   3.995   2.734  0.0086  0.0666 -0.3229
    1SOL    HW2 6170   1.323   3.991   2.829 -1.6210 -0.1940 -0.1997
    1SOL    HW3 6171   1.315   4.089   2.714 -0.9188  0.1414  0.0396
    1SOL    MW4 6172   1.317   4.007   2.744 -0.3288  0.0424 -0.2589
    1SOL     OW 6173   1.375   4.261   2.616 -0.3170  0.1582  0.0818
    1SOL    HW2 6174   1.294   4.303   2.647 -0.2297  0.9449 -0.7369
    1SOL    HW3 6175   1.373   4.274   2.521  0.6421 -0.0633  0.0333
    1SOL    MW4 6176   1.364   4.268   2.607 -0.1791  0.2327 -0.0324
    1SOL     OW 6177   1.556   4.423   2.721 -0.6209  0.6610  0.7335
    1SOL    HW2 6178   1.551   4.410   2.815 -0.6324  0.5398  0.7156
    1SOL    HW3 6179   1.492   4.363   2.684  0.7462 -0.7087  0.5202
    1SOL    MW4 6180   1.547   4.414   2.728 -0.4421  0.4644  0.7031
    1SOL     OW 6181   2.034   4.660   2.626 -0.0208 -0.2357  0.2282
    1SOL    HW2 6182   2.108   4.708   2.662 -0.5967  1.1175 -0.3507
    1SOL    HW3 6183   2.031   4.684   2.534 -1.3232 -0.0753  0.2940
    1SOL    MW4 6184   2.043   4.669   2.619 -0.2687 -0.0362  0.1605
    1SOL     OW 6185   1.825   0.109   2.737  0.0468  0.0223 -0.4337
    1SOL    HW2 6186   1.896   0.064   2.690  0.0510 -0.9091  0.4402
    1SOL    HW3 6187   1.746   0.083   2.690  0.2143  0.4883 -0.9779
    1SOL    MW4 6188   1.824   0.099   2.725  0.0693 -0.0391 -0.3903
    1SOL     OW 6189   1.825   0.377   2.656  0.3731  0.0014 -0.0352
    1SOL    HW2 6190   1.893   0.416   2.710  0.8552 -0.2565 -0.4532
    1SOL    HW3 6191   1.828   0.283   2.677 -0.1049  0.0399  0.2200
    1SOL    MW4 6192   1.834   0.370   2.666  0.3736 -0.0275 -0.0567
    1SOL     OW 6193   2.034   0.473   2.789  0.4568 -0.0967 -0.1834
    1SOL    HW2 6194   2.106   0.431   2.741  0.0696 -1.6823  0.6198
    1SOL    HW3 6195   2.030   0.561   2.752  1.2800 -0.7472 -1.8944
    1SOL    MW4 6196   2.043   0.479   2.778  0.5143 -0.3917 -0.3033
    1SOL     OW 6197   2.018   0.729   2.653  0.3151  0.2210 -1.0923
    1SOL    HW2 6198   1.938   0.768   2.688  0.2673 -1.0839  0.2722
    1SOL    HW3 6199   2.014   0.748   2.559 -1.1691  0.9107 -0.9121
    1SOL    MW4 6200   2.007   0.737   2.645  0.1130  0.1399 -0.8886
    1SOL     OW 6201   1.804   0.880   2.752  0.0510 -0.1649  0.2837
    1SOL    HW2 6202   1.805   0.965   2.708  0.6673 -0.7934 -0.9646
    1SOL    HW3 6203   1.730   0.834   2.713  1.0678 -1.0137 -0.6852
    1SOL    MW4 6204   1.795   0.885   2.741  0.2663 -0.3598 -0.0088
    1SOL     OW 6205   1.800   1.119   2.617  0.0435  0.2557  0.0215
    1SOL    HW2 6206   1.865   1.167   2.669  1.1155 -1.0440 -0.0940
    1SOL    HW3 6207   1.833   1.122   2.528 -0.2834 -0.0691 -0.1107
    1SOL    MW4 6208   1.813   1.126   2.612  0.1419  0.0415 -0.0112
    1SOL     OW 6209   2.025   1.256   2.724 -0.5504 -0.3375  0.0566
    1SOL    HW2 6210   2.024   1.259   2.820  0.0062 -0.8072  0.0862
    1SOL    HW3 6211   2.108   1.211   2.703 -0.0606  0.8998 -0.6791
    1SOL    MW4 6212   2.036   1.250   2.734 -0.4125 -0.2363 -0.0367
    1SOL     OW 6213   2.025   1.513   2.621 -0.1673  0.0613  0.0176
    1SOL    HW2 6214   1.950   1.565   2.648  0.0869 -0.1378  1.1327
    1SOL    HW3 6215   2.012   1.428   2.663 -1.2101 -1.2002 -2.7687
    1SOL    MW4 6216   2.013   1.509   2.630 -0.2713 -0.1314 -0.2029
    1SOL     OW 6217   1.800   1.681   2.708 -0.2723 -0.0262  0.2442
    1SOL    HW2 6218   1.789   1.704   2.800 -1.5166 -0.9890  0.3490
    1SOL    HW3 6219   1.713   1.651   2.680  0.2724 -0.4563 -1.0321
    1SOL    MW4 6220   1.787   1.680   2.716 -0.3645 -0.2099  0.0896
    1SOL     OW 6221   1.790   1.924   2.570 -0.3269  0.3143  0.4639
    1SOL    HW2 6222   1.865   1.975   2.602  0.7811 -0.5945 -0.6263
    1SOL    HW3 6223   1.794   1.842   2.620  0.2226 -0.2916 -0.5644
    1SOL    MW4 6224   1.801   1.920   2.581 -0.1082  0.1144  0.1843
    1SOL     OW 6225   2.002   2.049   2.702 -0.1956  0.2817  0.3847
    1SOL    HW2 6226   1.987   2.062   2.796  0.3508  0.9642  0.3799
    1SOL    HW3 6227   2.006   2.137   2.666  1.7076  0.0752  0.0569
    1SOL    MW4 6228   2.000   2.062   2.710  0.1278  0.3448  0.3409
    1SOL     OW 6229   2.008   2.298   2.586 -0.4503 -0.0117 -0.0742
    1SOL    HW2 6230   2.089   2.336   2.620  0.8013 -2.0406 -0.7226
    1SOL    HW3 6231   2.005   2.325   2.494 -0.2075 -0.4662 -0.2119
    1SOL    MW4 6232   2.018   2.307   2.579 -0.2530 -0.3395 -0.1779
    1SOL     OW 6233   1.793   2.459   2.678 -0.2718 -0.1882 -0.3163
    1SOL    HW2 6234   1.798   2.442   2.772  0.6105  0.4752 -0.2335
    1SOL    HW3 6235   1.865   2.408   2.641 -0.2635 -0.0007 -0.5600
    1SOL    MW4 6236   1.804   2.450   2.686 -0.1543 -0.0758 -0.3374
    1SOL     OW 6237   1.780   2.722   2.618 -0.3286  0.0733  0.1515
    1SOL    HW2 6238   1.790   2.633   2.653  0.6962  0.2552  0.3380
    1SOL    HW3 6239   1.796   2.713   2.524  0.2181  0.1355  0.2389
    1SOL    MW4 6240   1.783   2.709   2.610 -0.1212  0.1056  0.1876
    1SOL     OW 6241   2.011   2.861   2.737 -0.0842  0.1959  0.5377
    1SOL    HW2 6242   2.074   2.798   2.701  0.2159 -0.1691  1.6778
    1SOL    HW3 6243   1.926   2.820   2.721 -0.0217  0.5143 -0.6672
    1SOL    MW4 6244   2.008   2.847   2.730 -0.0362  0.1895  0.5293
    1SOL     OW 6245   2.049   3.123   2.677  0.0778 -0.3787 -0.4311
    1SOL    HW2 6246   2.031   3.032   2.700 -3.0738  0.3907  0.4125
    1SOL    HW3 6247   2.028   3.128   2.583  0.3429 -0.5354 -0.4992
    1SOL    MW4 6248   2.044   3.111   2.667 -0.3028 -0.2978 -0.3285
    1SOL     OW 6249   1.795   3.234   2.728 -0.1884  0.1115  0.1184
    1SOL    HW2 6250   1.795   3.322   2.689  1.8879  0.8034  1.6250
    1SOL    HW3 6251   1.881   3.198   2.706 -0.6011 -1.1195  0.4904
    1SOL    MW4 6252   1.806   3.241   2.720  0.0310  0.0403  0.3664
    1SOL     OW 6253   1.794   3.501   2.655 -0.0077  0.5101  0.4558
    1SOL    HW2 6254   1.879   3.537   2.676  0.0066  0.7620 -0.0339
    1SOL    HW3 6255   1.786   3.510   2.560 -0.4667  0.2475  0.4639
    1SOL    MW4 6256   1.804   3.507   2.645 -0.0664  0.5088  0.3924
    1SOL     OW 6257   2.023   3.668   2.740  0.2762  0.3546 -0.1776
    1SOL    HW2 6258   2.012   3.636   2.830 -0.5838  0.2833 -0.3042
    1SOL    HW3 6259   2.108   3.633   2.713  0.6243  0.5312  0.6731
    1SOL    MW4 6260   2.033   3.659   2.748  0.2086  0.3684 -0.0820
    1SOL     OW 6261   2.011   3.930   2.645  0.5113  0.2979 -0.4974
    1SOL    HW2 6262   1.928   3.951   2.688  1.1547  1.1181  0.3794
    1SOL    HW3 6263   2.037   3.846   2.682 -0.4417 -0.4755 -1.5578
    1SOL    MW4 6264   2.004   3.922   2.655  0.4706  0.3040 -0.5217
    1SOL     OW 6265   1.758   4.034   2.748  0.7449  0.0431 -0.3196
    1SOL    HW2 6266   1.758   4.117   2.700  0.3666  1.2195  1.6454
    1SOL    HW3 6267   1.692   3.980   2.704  0.6497  0.9709 -1.3182
    1SOL    MW4 6268   1.749   4.038   2.736  0.6824  0.3209 -0.1922
    1SOL     OW 6269   1.783   4.294   2.652 -0.1170  0.0272 -0.0178
    1SOL    HW2 6270   1.702   4.336   2.682 -1.2416 -1.7930 -0.4718
    1SOL    HW3 6271   1.784   4.309   2.557 -0.9346 -1.6039 -0.3090
    1SOL    MW4 6272   1.772   4.302   2.643 -0.3732 -0.4287 -0.1161
    1SOL     OW 6273   2.021   4.407   2.727 -0.2001  0.8082  0.4240
    1SOL    HW2 6274   1.933   4.374   2.708  0.5133  1.4682 -4.8664
    1SOL    HW3 6275   2.023   4.495   2.690  2.2829  1.3769  1.7607
    1SOL    MW4 6276   2.010   4.414   2.720  0.2215  0.9699 -0.0978
    1SOL     OW 6277   2.488   4.641   2.639  0.2261  0.1157 -0.5195
    1SOL    HW2 6278   2.566   4.693   2.658  0.7793 -0.5923 -0.8041
    1SOL    HW3 6279   2.480   4.645   2.544  1.9189 -2.6207 -0.8181
    1SOL    MW4 6280   2.497   4.649   2.629  0.5224 -0.3386 -0.5968
    1SOL     OW 6281   2.247   0.121   2.740 -0.0464 -0.4932 -0.2140
    1SOL    HW2 6282   2.262   0.110   2.834 -0.3762 -0.9758 -0.2218
    1SOL    HW3 6283   2.315   0.067   2.699 -0.1682 -0.6165 -0.2527
    1SOL    MW4 6284   2.258   0.113   2.747 -0.1059 -0.5731 -0.2201
    1SOL     OW 6285   2.243   0.370   2.655  0.2552 -0.0091 -0.3002
    1SOL    HW2 6286   2.235   0.280   2.688  0.2882  0.2943  0.5292
    1SOL    HW3 6287   2.227   0.362   2.561 -0.6703 -0.7474 -0.0871
    1SOL    MW4 6288   2.240   0.357   2.647  0.1376 -0.0665 -0.1626
    1SOL     OW 6289   2.478   0.495   2.740 -0.0359 -0.6395 -0.0587
    1SOL    HW2 6290   2.470   0.587   2.712 -0.4970 -0.5667  0.2923
    1SOL    HW3 6291   2.396   0.455   2.710  0.2079 -0.9590 -0.2928
    1SOL    MW4 6292   2.466   0.502   2.732 -0.0646 -0.6720 -0.0432
    1SOL     OW 6293   2.457   0.756   2.634  0.1784  0.4494 -0.0183
    1SOL    HW2 6294   2.382   0.807   2.666 -1.0325 -1.3692  0.1224
    1SOL    HW3 6295   2.444   0.751   2.539  0.8726  1.2842 -0.1644
    1SOL    MW4 6296   2.445   0.762   2.626  0.1101  0.3197 -0.0188
    1SOL     OW 6297   2.242   0.877   2.741  0.3393 -0.0936 -0.7219
    1SOL    HW2 6298   2.249   0.882   2.837  1.4869 -0.7504 -0.7653
    1SOL    HW3 6299   2.158   0.835   2.725 -0.4193  1.1142 -0.0267
    1SOL    MW4 6300   2.232   0.872   2.752  0.3905 -0.0210 -0.6361
    1SOL     OW 6301   2.257   1.127   2.622 -0.1291  0.0283 -0.5175
    1SOL    HW2 6302   2.236   1.040   2.656  1.0071  0.0722  0.3302
    1SOL    HW3 6303   2.245   1.119   2.527  1.9726 -1.6535 -0.6876
    1SOL    MW4 6304   2.253   1.114   2.614  0.2980 -0.1878 -0.4280
    1SOL     OW 6305   2.476   1.254   2.749  0.3144 -0.1181  0.0084
    1SOL    HW2 6306   2.556   1.218   2.712  0.0193 -0.0268 -0.7345
    1SOL    HW3 6307   2.406   1.213   2.698 -0.0877  0.1656  0.3307
    1SOL    MW4 6308   2.477   1.244   2.737  0.2224 -0.0688 -0.0470
    1SOL     OW 6309   2.504   1.522   2.700  0.1756 -0.0208 -0.0796
    1SOL    HW2 6310   2.436   1.579   2.734 -0.7769  0.3578 -2.5306
    1SOL    HW3 6311   2.480   1.435   2.731  0.1039  0.4976  1.3440
    1SOL    MW4 6312   2.492   1.518   2.709  0.0405  0.0976 -0.2151
    1SOL     OW 6313   2.245   1.640   2.751 -0.2916  0.4513 -0.1663
    1SOL    HW2 6314   2.239   1.721   2.701 -0.0300  0.5662 -0.0107
    1SOL    HW3 6315   2.171   1.587   2.720  1.0766 -0.3171 -2.1611
    1SOL    MW4 6316   2.234   1.644   2.741 -0.0765  0.3650 -0.4089
    1SOL     OW 6317   2.254   1.909   2.633 -0.1936 -0.1149 -0.3355
    1SOL    HW2 6318   2.177   1.956   2.665 -0.4977 -0.4328 -0.5893
    1SOL    HW3 6319   2.244   1.910   2.537  0.6860  0.8027 -0.4335
    1SOL    MW4 6320   2.243   1.916   2.624 -0.1175 -0.0358 -0.3822
    1SOL     OW 6321   2.475   2.034   2.720  0.1457  0.0445  0.1173
    1SOL    HW2 6322   2.475   2.128   2.699 -1.9920  0.3029  1.0329
    1SOL    HW3 6323   2.391   2.002   2.686  0.3536 -1.2778  0.8120
    1SOL    MW4 6324   2.464   2.042   2.713 -0.1087 -0.0961  0.3297
    1SOL     OW 6325   2.453   2.290   2.654 -0.1757  0.0317 -0.2757
    1SOL    HW2 6326   2.529   2.332   2.693  1.2959 -1.4120 -1.4926
    1SOL    HW3 6327   2.463   2.303   2.560 -1.5122 -0.0500 -0.4498
    1SOL    MW4 6328   2.464   2.297   2.646 -0.1578 -0.1695 -0.4594
    1SOL     OW 6329   2.223   2.427   2.683  0.0659 -0.0264  0.3779
    1SOL    HW2 6330   2.221   2.443   2.777  0.9216  1.9118  0.0887
    1SOL    HW3 6331   2.310   2.391   2.666  0.1258  0.1882  0.2358
    1SOL    MW4 6332   2.234   2.424   2.693  0.1869  0.2577  0.3209
    1SOL     OW 6333   2.226   2.713   2.646 -0.2391 -0.0987  0.1086
    1SOL    HW2 6334   2.313   2.737   2.679  0.0127  0.2042 -0.7632
    1SOL    HW3 6335   2.220   2.618   2.661  0.3212 -0.1536 -0.0004
    1SOL    MW4 6336   2.237   2.703   2.652 -0.1321 -0.0663 -0.0207
    1SOL     OW 6337   2.457   2.852   2.718  0.0307  0.9216 -0.3424
    1SOL    HW2 6338   2.540   2.824   2.680 -0.4944  0.6227 -1.3064
    1SOL    HW3 6339   2.450   2.945   2.697 -0.0869  0.8405 -0.6716
    1SOL    MW4 6340   2.467   2.860   2.710 -0.0539  0.8714 -0.5131
    1SOL     OW 6341   2.465   3.132   2.659  0.1794 -0.1141  0.4419
    1SOL    HW2 6342   2.394   3.179   2.703 -0.2927  0.1311 -0.5714
    1SOL    HW3 6343   2.449   3.147   2.566  2.5344  1.3941  0.2283
    1SOL    MW4 6344   2.454   3.140   2.652  0.4277  0.1173  0.2801
    1SOL     OW 6345   2.255   3.289   2.765  0.2935  0.1409  0.0331
    1SOL    HW2 6346   2.244   3.287   2.860  0.5813  1.5949  0.1002
    1SOL    HW3 6347   2.190   3.227   2.732 -0.0199 -0.1416  1.1535
    1SOL    MW4 6348   2.245   3.280   2.773  0.2902  0.2956  0.1898
    1SOL     OW 6349   2.253   3.549   2.658  0.0733  0.2120  0.3570
    1SOL    HW2 6350   2.336   3.586   2.688 -0.7291  0.7731  1.9667
    1SOL    HW3 6351   2.254   3.459   2.692  0.3540 -0.0173 -0.2641
    1SOL    MW4 6352   2.264   3.542   2.667  0.0045  0.2558  0.4871
    1SOL     OW 6353   2.504   3.637   2.752 -0.0893  0.1588  0.3674
    1SOL    HW2 6354   2.490   3.643   2.847  1.3477 -1.2700  0.6904
    1SOL    HW3 6355   2.497   3.727   2.721 -0.2742  0.6788  1.8835
    1SOL    MW4 6356   2.501   3.650   2.761  0.0758  0.0386  0.6099
    1SOL     OW 6357   2.482   3.882   2.636 -0.3308  0.0442  0.0473
    1SOL    HW2 6358   2.555   3.900   2.696  0.2139 -0.1493 -0.5522
    1SOL    HW3 6359   2.409   3.933   2.671  0.0161  0.0210  0.8109
    1SOL    MW4 6360   2.482   3.891   2.648 -0.2131  0.0155  0.0691
    1SOL     OW 6361   2.269   4.043   2.713  0.3180  0.8321  0.0360
    1SOL    HW2 6362   2.252   4.050   2.807 -0.2825  1.7299 -0.1272
    1SOL    HW3 6363   2.190   4.001   2.678  1.2597 -1.0477  0.1573
    1SOL    MW4 6364   2.256   4.039   2.721  0.3631  0.7019  0.0305
    1SOL     OW 6365   2.247   4.304   2.643 -0.0631  0.1776  0.0158
    1SOL    HW2 6366   2.243   4.212   2.666  1.6871  0.4547  1.5645
    1SOL    HW3 6367   2.164   4.341   2.672 -1.1376 -1.0575 -1.4132
    1SOL    MW4 6368   2.236   4.297   2.650  0.0265  0.0515  0.0317
    1SOL     OW 6369   2.484   4.389   2.767 -0.0898 -0.4948  0.0618
    1SOL    HW2 6370   2.399   4.360   2.734  0.5927 -1.2987 -1.0080
    1SOL    HW3 6371   2.497   4.475   2.727 -0.1525 -0.6006 -0.1849
    1SOL    MW4 6372   2.474   4.396   2.757 -0.0081 -0.6146 -0.1118
    1SOL     OW 6373   2.935   0.000   2.638  0.2605  0.0434 -0.2780
    1SOL    HW2 6374   3.010   0.059   2.642 -0.2329  0.7627 -1.2597
    1SOL    HW3 6375   2.911  -0.002   2.546 -0.2527 -1.0485 -0.1300
    1SOL    MW4 6376   2.942   0.008   2.626  0.1276 -0.0058 -0.3879
    1SOL     OW 6377   2.708   0.134   2.718 -0.0287 -0.1406  0.3635
    1SOL    HW2 6378   2.694   0.134   2.813  1.1630  0.4554  0.5463
    1SOL    HW3 6379   2.790   0.086   2.706  0.9728  1.6256 -0.1617
    1SOL    MW4 6380   2.717   0.128   2.729  0.2611  0.1711  0.3183
    1SOL     OW 6381   2.718   0.394   2.636  0.2289  0.0637 -0.0322
    1SOL    HW2 6382   2.727   0.300   2.653 -0.6332 -0.2646 -1.2808
    1SOL    HW3 6383   2.641   0.420   2.685  0.2671  0.0431  0.0390
    1SOL    MW4 6384   2.709   0.385   2.645  0.1202  0.0176 -0.1874
    1SOL     OW 6385   2.937   0.513   2.763  0.5290  0.5178  0.0812
    1SOL    HW2 6386   2.940   0.598   2.719 -0.5558  0.4330 -0.1670
    1SOL    HW3 6387   2.856   0.473   2.732  0.8646 -0.4654  0.4629
    1SOL    MW4 6388   2.927   0.519   2.753  0.4303  0.3769  0.0989
    1SOL     OW 6389   2.925   0.762   2.669  0.6036 -0.0963  0.3267
    1SOL    HW2 6390   2.986   0.825   2.707 -0.5074  0.9373  0.4402
    1SOL    HW3 6391   2.838   0.795   2.693 -0.0797 -0.2645 -1.8261
    1SOL    MW4 6392   2.922   0.774   2.677  0.3669  0.0179  0.0577
    1SOL     OW 6393   2.683   0.882   2.737 -0.0104 -0.1393 -0.2029
    1SOL    HW2 6394   2.682   0.875   2.833  0.6480  1.8371 -0.0145
    1SOL    HW3 6395   2.599   0.846   2.709 -1.1521  1.2698  1.3046
    1SOL    MW4 6396   2.672   0.876   2.746 -0.0739  0.3074  0.0207
    1SOL     OW 6397   2.737   1.139   2.651 -0.3311  0.2489  0.0149
    1SOL    HW2 6398   2.817   1.180   2.683 -0.8191  0.9705  0.3204
    1SOL    HW3 6399   2.733   1.056   2.698  1.0890 -0.5321 -1.2194
    1SOL    MW4 6400   2.747   1.133   2.661 -0.2081  0.2410 -0.1075
    1SOL     OW 6401   2.949   1.254   2.771 -0.0684 -0.2010 -0.3669
    1SOL    HW2 6402   2.940   1.239   2.865  0.1298 -1.9341 -0.5961
    1SOL    HW3 6403   3.034   1.216   2.749 -0.5519 -0.7035 -1.4061
    1SOL    MW4 6404   2.959   1.247   2.780 -0.1059 -0.4959 -0.5343
    1SOL     OW 6405   2.941   1.512   2.685  0.0860  0.1125 -0.4582
    1SOL    HW2 6406   2.863   1.551   2.725  0.2856 -0.5823  0.6343
    1SOL    HW3 6407   2.940   1.421   2.716  1.7262  0.3044  0.1588
    1SOL    MW4 6408   2.930   1.505   2.695  0.3283  0.0461 -0.2327
    1SOL     OW 6409   2.735   1.662   2.766 -0.3897 -0.3699 -0.1356
    1SOL    HW2 6410   2.728   1.655   2.861  1.2379 -0.2982 -0.0100
    1SOL    HW3 6411   2.670   1.600   2.733 -2.0656  0.7315  1.0091
    1SOL    MW4 6412   2.725   1.653   2.774 -0.3963 -0.2151  0.0319
    1SOL     OW 6413   2.712   1.904   2.632 -0.4872  0.8629  0.0427
    1SOL    HW2 6414   2.721   1.818   2.675  1.0185  0.9959  0.0396
    1SOL    HW3 6415   2.629   1.938   2.665  0.0505  0.4367  1.9365
    1SOL    MW4 6416   2.702   1.897   2.642 -0.2179  0.8242  0.2918
    1SOL     OW 6417   2.903   2.055   2.760 -0.2120  0.3132  0.1995
    1SOL    HW2 6418   2.908   2.140   2.716  1.7249  0.4135  0.5972
    1SOL    HW3 6419   2.836   2.007   2.712  0.9877  0.8861 -2.0909
    1SOL    MW4 6420   2.895   2.060   2.748  0.2019  0.4020 -0.0501
    1SOL     OW 6421   2.882   2.311   2.649 -0.3029 -0.5339  0.0654
    1SOL    HW2 6422   2.951   2.356   2.698  0.4543 -0.6284 -0.8729
    1SOL    HW3 6423   2.800   2.343   2.685  0.2377 -1.1476  1.8674
    1SOL    MW4 6424   2.881   2.321   2.660 -0.1316 -0.6275  0.1791
    1SOL     OW 6425   2.658   2.429   2.756  0.0114  0.0904 -0.2305
    1SOL    HW2 6426   2.669   2.450   2.848  0.1204 -1.0885  0.0321
    1SOL    HW3 6427   2.683   2.509   2.710  0.2135  0.5967  0.7496
    1SOL    MW4 6428   2.663   2.442   2.762  0.0525  0.0019 -0.0668
    1SOL     OW 6429   2.689   2.678   2.622 -0.1087 -0.1292 -0.4043
    1SOL    HW2 6430   2.763   2.714   2.671  0.3620 -1.3589 -0.2111
    1SOL    HW3 6431   2.715   2.685   2.530 -0.6473  1.4070 -0.4549
    1SOL    MW4 6432   2.702   2.684   2.616 -0.1178 -0.0889 -0.3855
    1SOL     OW 6433   2.902   2.806   2.743 -0.1432  0.4443 -0.1152
    1SOL    HW2 6434   2.884   2.800   2.837 -0.3788 -0.5367 -0.2093
    1SOL    HW3 6435   2.920   2.898   2.727  0.7083  0.4842  1.0442
    1SOL    MW4 6436   2.902   2.817   2.754 -0.0620  0.3202  0.0255
    1SOL     OW 6437   2.930   3.081   2.707  0.1242  0.1177 -0.4761
    1SOL    HW2 6438   2.853   3.135   2.727 -1.0684 -1.5692 -0.4651
    1SOL    HW3 6439   2.930   3.076   2.611 -1.2739 -1.9584 -0.4078
    1SOL    MW4 6440   2.920   3.088   2.697 -0.2174 -0.3786 -0.4656
    1SOL     OW 6441   2.712   3.235   2.756  0.3480  0.1234  0.6572
    1SOL    HW2 6442   2.713   3.310   2.696  0.3855 -0.3989 -0.0014
    1SOL    HW3 6443   2.638   3.182   2.726  1.0134 -0.6760  0.4141
    1SOL    MW4 6444   2.702   3.238   2.744  0.4408 -0.0508  0.5386
    1SOL     OW 6445   2.735   3.491   2.646 -0.1467 -0.2789 -0.1287
    1SOL    HW2 6446   2.660   3.528   2.693 -0.5883 -0.4821 -0.6660
    1SOL    HW3 6447   2.714   3.504   2.553 -0.0810 -1.4403 -0.3090
    1SOL    MW4 6448   2.722   3.498   2.640 -0.1962 -0.4590 -0.2239
    1SOL     OW 6449   2.947   3.651   2.732 -0.4249  0.5936  0.2022
    1SOL    HW2 6450   2.949   3.658   2.828 -0.7595 -0.2999  0.2818
    1SOL    HW3 6451   2.872   3.593   2.714 -0.4551  0.8802 -0.6049
    1SOL    MW4 6452   2.937   3.644   2.743 -0.4730  0.5136  0.1061
    1SOL     OW 6453   2.892   3.896   2.649 -0.2290 -0.2558 -0.0399
    1SOL    HW2 6454   2.954   3.957   2.688 -0.4133  0.3643 -0.6976
    1SOL    HW3 6455   2.916   3.810   2.684 -1.1235  0.4407  2.3652
    1SOL    MW4 6456   2.903   3.893   2.659 -0.3712 -0.0818  0.1907
    1SOL     OW 6457   2.673   3.985   2.783  0.3666 -0.4852  0.2451
    1SOL    HW2 6458   2.647   4.065   2.737  0.5691 -1.3322 -1.3859
    1SOL    HW3 6459   2.748   3.953   2.733 -0.1605 -2.0802  0.4742
    1SOL    MW4 6460   2.680   3.992   2.770  0.3235 -0.8073  0.0601
    1SOL     OW 6461   2.704   4.256   2.657  0.3181  0.1960 -0.0475
    1SOL    HW2 6462   2.780   4.297   2.698  0.2206  0.4834 -0.1536
    1SOL    HW3 6463   2.629   4.302   2.693  0.1781 -0.2870  0.2792
    1SOL    MW4 6464   2.704   4.267   2.667  0.2868  0.1702 -0.0181
    1SOL     OW 6465   2.920   4.414   2.740  0.0595 -0.2059  0.2934
    1SOL    HW2 6466   2.914   4.416   2.835  0.7992  0.8738  0.3189
    1SOL    HW3 6467   2.926   4.505   2.713  1.4626 -0.5630 -0.6755
    1SOL    MW4 6468   2.920   4.426   2.749  0.3421 -0.1106  0.1686
    1SOL     OW 6469   3.427   0.014   2.599 -0.2798 -0.0078  0.0631
    1SOL    HW2 6470   3.427  -0.074   2.636 -0.2556 -0.9555 -2.1062
    1SOL    HW3 6471   3.347   0.055   2.632 -0.3668 -0.8960  0.9562
    1SOL    MW4 6472   3.416   0.008   2.608 -0.2880 -0.2500 -0.1051
    1SOL     OW 6473   3.182   0.133   2.695 -0.2404  0.1573  0.3977
    1SOL    HW2 6474   3.196   0.125   2.789  1.4702 -1.1439  0.0516
    1SOL    HW3 6475   3.176   0.227   2.680  0.2781  0.4138  1.7143
    1SOL    MW4 6476   3.183   0.144   2.705  0.0536  0.0195  0.5255
    1SOL     OW 6477   3.164   0.413   2.662  0.1982  0.2056 -0.1408
    1SOL    HW2 6478   3.079   0.442   2.696 -0.4444 -1.7331 -0.0073
    1SOL    HW3 6479   3.150   0.408   2.567  0.2147  0.0657 -0.1359
    1SOL    MW4 6480   3.151   0.416   2.654  0.1154 -0.0686 -0.1223
    1SOL     OW 6481   3.391   0.542   2.767  0.2449 -0.1537 -0.3303
    1SOL    HW2 6482   3.372   0.630   2.735 -2.6669  0.0092  1.6271
    1SOL    HW3 6483   3.316   0.489   2.737  1.0717 -1.5619  0.0454
    1SOL    MW4 6484   3.378   0.546   2.758 -0.0305 -0.3180 -0.0224
    1SOL     OW 6485   3.334   0.778   2.653 -0.0600 -0.1940  0.0479
    1SOL    HW2 6486   3.422   0.807   2.676  0.1448 -0.0998 -0.8209
    1SOL    HW3 6487   3.341   0.752   2.561 -0.8257 -0.6459  0.1134
    1SOL    MW4 6488   3.346   0.778   2.644 -0.1340 -0.2412 -0.0579
    1SOL     OW 6489   3.128   0.912   2.754  0.2251 -0.5306 -0.0368
    1SOL    HW2 6490   3.150   0.891   2.845  1.1589 -0.2367 -0.1835
    1SOL    HW3 6491   3.193   0.863   2.702  0.9915  0.8905 -0.4618
    1SOL    MW4 6492   3.140   0.903   2.759  0.4494 -0.3043 -0.1123
    1SOL     OW 6493   3.170   1.159   2.647 -0.2716 -0.0393 -0.1961
    1SOL    HW2 6494   3.143   1.071   2.671 -0.3836 -0.4713 -1.8511
    1SOL    HW3 6495   3.167   1.160   2.551  1.1651  1.2927 -0.2531
    1SOL    MW4 6496   3.166   1.148   2.638 -0.0968  0.0793 -0.4222
    1SOL     OW 6497   3.384   1.275   2.748 -0.2358  0.0477  0.2902
    1SOL    HW2 6498   3.380   1.273   2.844 -0.3657  0.4186  0.2924
    1SOL    HW3 6499   3.297   1.248   2.720  0.2022 -1.3895  0.2626
    1SOL    MW4 6500   3.372   1.271   2.757 -0.1953 -0.0930  0.2868
    1SOL     OW 6501   3.374   1.542   2.624 -0.4606  0.0925 -0.1861
    1SOL    HW2 6502   3.298   1.582   2.667 -1.4435 -1.3714 -0.5366
    1SOL    HW3 6503   3.378   1.453   2.660  3.0788  1.1791  2.3312
    1SOL    MW4 6504   3.365   1.536   2.634 -0.1233  0.0427  0.0999
    1SOL     OW 6505   3.162   1.651   2.770  0.2783  0.5221 -0.1334
    1SOL    HW2 6506   3.127   1.735   2.741  2.1186  1.4578  0.2596
    1SOL    HW3 6507   3.092   1.589   2.753 -0.9042  2.0365 -0.9705
    1SOL    MW4 6508   3.148   1.654   2.764  0.3648  0.8454 -0.1922
    1SOL     OW 6509   3.119   1.913   2.664 -0.0619  0.0433 -0.6981
    1SOL    HW2 6510   3.201   1.938   2.707 -0.6043  1.5178 -0.4943
    1SOL    HW3 6511   3.055   1.976   2.697 -1.1288 -0.6636 -1.3986
    1SOL    MW4 6512   3.121   1.925   2.674 -0.2742  0.1446 -0.7637
    1SOL     OW 6513   3.338   2.037   2.765  0.1590  0.4516  0.1097
    1SOL    HW2 6514   3.327   2.057   2.858  0.0786 -0.0749  0.2118
    1SOL    HW3 6515   3.319   2.120   2.721 -2.4330  0.0403  0.3907
    1SOL    MW4 6516   3.334   2.051   2.772 -0.1936  0.3278  0.1602
    1SOL     OW 6517   3.328   2.290   2.661  0.5117 -0.2256 -0.1077
    1SOL    HW2 6518   3.402   2.342   2.692  0.2121  0.1837 -0.0662
    1SOL    HW3 6519   3.317   2.316   2.570  0.7130 -0.6315 -0.2490
    1SOL    MW4 6520   3.336   2.300   2.653  0.4985 -0.2253 -0.1209
    1SOL     OW 6521   3.119   2.423   2.767  0.1406 -0.1608 -0.2349
    1SOL    HW2 6522   3.126   2.503   2.714 -0.7100 -1.3837 -2.2523
    1SOL    HW3 6523   3.201   2.377   2.752  0.0413 -0.3465 -0.2104
    1SOL    MW4 6524   3.131   2.428   2.758  0.0153 -0.3467 -0.4981
    1SOL     OW 6525   3.134   2.670   2.652  0.4998 -0.0292 -0.2003
    1SOL    HW2 6526   3.211   2.716   2.687 -0.7875 -0.4628  3.3949
    1SOL    HW3 6527   3.059   2.716   2.689 -1.0181 -0.2649 -2.8327
    1SOL    MW4 6528   3.135   2.682   2.661  0.1297 -0.1175 -0.0732
    1SOL     OW 6529   3.332   2.848   2.754  0.3797  0.6545  0.1418
    1SOL    HW2 6530   3.332   2.851   2.849 -1.5267 -0.2346  0.1865
    1SOL    HW3 6531   3.417   2.810   2.731  0.4767  0.0337  1.5171
    1SOL    MW4 6532   3.344   2.844   2.763  0.1411  0.4554  0.3290
    1SOL     OW 6533   3.365   3.104   2.653  0.2334 -0.3142 -0.7622
    1SOL    HW2 6534   3.351   3.017   2.689  2.2827 -0.4704 -0.3122
    1SOL    HW3 6535   3.351   3.093   2.559 -2.4978 -0.4549 -0.3983
    1SOL    MW4 6536   3.361   3.091   2.645  0.1435 -0.3533 -0.6549
    1SOL     OW 6537   3.146   3.234   2.768  0.1586 -0.0704  0.3726
    1SOL    HW2 6538   3.227   3.188   2.744  1.3665  0.8897  2.4433
    1SOL    HW3 6539   3.076   3.177   2.735  1.6542 -1.4713 -0.4947
    1SOL    MW4 6540   3.148   3.220   2.761  0.5152 -0.1285  0.5314
    1SOL     OW 6541   3.138   3.471   2.622 -0.3114 -0.1381 -0.6141
    1SOL    HW2 6542   3.127   3.396   2.680 -1.2193 -0.7619 -1.5620
    1SOL    HW3 6543   3.070   3.532   2.648 -0.7657 -0.4492 -1.0576
    1SOL    MW4 6544   3.128   3.469   2.633 -0.4909 -0.2613 -0.7980
    1SOL     OW 6545   3.363   3.637   2.731 -0.0865  0.1821  0.7724
    1SOL    HW2 6546   3.348   3.629   2.825  0.1464 -1.3717  0.6973
    1SOL    HW3 6547   3.305   3.571   2.692  0.6259  0.0661 -0.1059
    1SOL    MW4 6548   3.353   3.627   2.738  0.0381 -0.0381  0.6466
    1SOL     OW 6549   3.364   3.917   2.650  1.1487  0.1758 -0.0706
    1SOL    HW2 6550   3.349   3.829   2.682  0.5341  0.4110  0.2969
    1SOL    HW3 6551   3.353   3.910   2.555  1.2306 -0.1650 -0.0559
    1SOL    MW4 6552   3.360   3.905   2.641  1.0781  0.1619 -0.0200
    1SOL     OW 6553   3.115   4.026   2.764 -0.5059  0.0900 -0.6096
    1SOL    HW2 6554   3.124   4.118   2.741  0.5829  0.0935 -0.2030
    1SOL    HW3 6555   3.188   3.982   2.720  1.3620  0.0454  2.3574
    1SOL    MW4 6556   3.126   4.032   2.755 -0.1159  0.0849 -0.1645
    1SOL     OW 6557   3.162   4.300   2.675  0.3110 -0.3128  0.1149
    1SOL    HW2 6558   3.095   4.364   2.700  0.8617  0.0133  0.7613
    1SOL    HW3 6559   3.151   4.290   2.580  0.7883  1.3787 -0.1332
    1SOL    MW4 6560   3.151   4.307   2.666  0.4466 -0.0467  0.1674
    1SOL     OW 6561   3.399   4.424   2.737  0.2161 -0.2887  0.2704
    1SOL    HW2 6562   3.388   4.444   2.830 -0.9987  0.9582 -0.1155
    1SOL    HW3 6563   3.317   4.380   2.713  1.0122 -1.6753  0.0510
    1SOL    MW4 6564   3.386   4.421   2.746  0.1609 -0.3066  0.1907
    1SOL     OW 6565   3.824   0.031   2.655  0.0091 -0.4935 -0.0222
    1SOL    HW2 6566   3.817  -0.059   2.685  0.6297 -0.4261  0.3277
    1SOL    HW3 6567   3.758   0.078   2.706  1.4368 -0.2711  1.6799
    1SOL    MW4 6568   3.814   0.025   2.666  0.2794 -0.4553  0.2484
    1SOL     OW 6569   3.609   0.161   2.755  0.3801  0.2522  0.0950
    1SOL    HW2 6570   3.606   0.247   2.714  0.9945 -0.7054 -2.0386
    1SOL    HW3 6571   3.552   0.106   2.701  0.2506 -0.7667  1.2321
    1SOL    MW4 6572   3.601   0.165   2.742  0.4444 -0.0086 -0.0362
    1SOL     OW 6573   3.581   0.402   2.638 -0.3196 -0.4833  0.0469
    1SOL    HW2 6574   3.664   0.449   2.649 -0.7403  0.4563 -0.6406
    1SOL    HW3 6575   3.517   0.455   2.686 -0.6894 -0.6695 -0.2348
    1SOL    MW4 6576   3.584   0.415   2.646 -0.4239 -0.3839 -0.0808
    1SOL     OW 6577   3.843   0.487   2.715 -0.1713 -0.2385  0.4250
    1SOL    HW2 6578   3.853   0.469   2.808 -0.0809 -1.7217  0.1368
    1SOL    HW3 6579   3.911   0.435   2.673 -0.8415 -0.3372 -0.5496
    1SOL    MW4 6580   3.854   0.478   2.722 -0.2477 -0.4472  0.2584
    1SOL     OW 6581   3.824   0.746   2.609  0.0918  0.0984  0.3478
    1SOL    HW2 6582   3.740   0.778   2.641 -0.5736 -0.8444 -0.4180
    1SOL    HW3 6583   3.838   0.663   2.654  1.0789  0.7057  1.1858
    1SOL    MW4 6584   3.815   0.739   2.619  0.1340  0.0542  0.3574
    1SOL     OW 6585   3.588   0.857   2.752  0.5831  0.1092 -0.4523
    1SOL    HW2 6586   3.584   0.865   2.848 -0.1793 -0.4650 -0.4326
    1SOL    HW3 6587   3.582   0.947   2.720 -1.1217  0.1553 -0.0244
    1SOL    MW4 6588   3.587   0.870   2.761  0.2573  0.0396 -0.3932
    1SOL     OW 6589   3.597   1.118   2.656  0.2879 -0.5178  0.3843
    1SOL    HW2 6590   3.673   1.168   2.684  1.3008 -0.8537 -1.6309
    1SOL    HW3 6591   3.522   1.169   2.686  1.2938  0.1317  1.8646
    1SOL    MW4 6592   3.597   1.131   2.663  0.5541 -0.4765  0.3138
    1SOL     OW 6593   3.827   1.262   2.730 -0.0243 -0.1799  0.1201
    1SOL    HW2 6594   3.907   1.216   2.701  0.7947  0.0434  1.9428
    1SOL    HW3 6595   3.833   1.348   2.688  1.5020  0.3947  1.4483
    1SOL    MW4 6596   3.839   1.267   2.721  0.2854 -0.0746  0.5357
    1SOL     OW 6597   3.826   1.538   2.651 -0.1216 -0.2109  0.7536
    1SOL    HW2 6598   3.902   1.586   2.684 -0.6305  0.6326  0.7296
    1SOL    HW3 6599   3.751   1.581   2.693 -0.7675  0.7243 -1.3079
    1SOL    MW4 6600   3.826   1.550   2.661 -0.2742  0.0238  0.4787
    1SOL     OW 6601   3.600   1.673   2.743 -0.1495 -0.1611  0.3979
    1SOL    HW2 6602   3.581   1.765   2.724 -0.6627 -0.0750  1.2834
    1SOL    HW3 6603   3.525   1.626   2.708 -0.3018 -0.1623  0.7296
    1SOL    MW4 6604   3.588   1.679   2.736 -0.2375 -0.1500  0.5584
    1SOL     OW 6605   3.564   1.943   2.656  0.3104 -0.3084 -0.1695
    1SOL    HW2 6606   3.481   1.963   2.698 -1.0226 -1.8870 -1.9728
    1SOL    HW3 6607   3.544   1.942   2.562  1.9859 -2.3147 -0.5458
    1SOL    MW4 6608   3.551   1.946   2.649  0.3552 -0.7815 -0.4570
    1SOL     OW 6609   3.800   2.102   2.729 -0.1756 -0.3347 -0.7907
    1SOL    HW2 6610   3.881   2.056   2.704 -0.3463 -0.6796 -0.7145
    1SOL    HW3 6611   3.730   2.048   2.693 -0.3647  0.1193 -1.1048
    1SOL    MW4 6612   3.802   2.089   2.721 -0.2232 -0.3202 -0.8221
    1SOL     OW 6613   3.791   2.365   2.664  0.0061 -0.1502  0.2475
    1SOL    HW2 6614   3.779   2.271   2.674 -0.6545  0.2486  3.5793
    1SOL    HW3 6615   3.801   2.378   2.569 -0.0050 -3.5237 -0.2581
    1SOL    MW4 6616   3.791   2.354   2.653 -0.0823 -0.5429  0.6204
    1SOL     OW 6617   3.544   2.437   2.741 -0.0675  0.1349 -0.3236
    1SOL    HW2 6618   3.550   2.422   2.835 -1.0804 -1.6437 -0.5208
    1SOL    HW3 6619   3.632   2.417   2.708 -0.7102 -3.1176 -0.2333
    1SOL    MW4 6620   3.557   2.432   2.749 -0.2861 -0.5293 -0.3378
    1SOL     OW 6621   3.559   2.709   2.675 -0.0402  0.3535  0.1127
    1SOL    HW2 6622   3.539   2.620   2.703  0.2354  0.3572  0.3295
    1SOL    HW3 6623   3.548   2.708   2.580  0.0271  0.0710  0.1075
    1SOL    MW4 6624   3.555   2.697   2.666  0.0048  0.3169  0.1407
    1SOL     OW 6625   3.805   2.814   2.764  0.0207  0.0859  0.4446
    1SOL    HW2 6626   3.873   2.763   2.720 -0.7034  0.7208 -1.4428
    1SOL    HW3 6627   3.726   2.761   2.755 -0.0888  0.1063  1.2284
    1SOL    MW4 6628   3.804   2.800   2.757 -0.0892  0.1719  0.2987
    1SOL     OW 6629   3.827   3.085   2.690 -0.4005  0.3229  0.1669
    1SOL    HW2 6630   3.744   3.127   2.715 -0.5180  0.2097 -0.0275
    1SOL    HW3 6631   3.818   2.995   2.720  0.0316  0.5472  0.9814
    1SOL    MW4 6632   3.815   3.079   2.697 -0.3591  0.3371  0.2487
    1SOL     OW 6633   3.585   3.218   2.748 -0.1620  0.0501  0.1980
    1SOL    HW2 6634   3.583   3.303   2.703 -0.6381 -0.0487  0.0392
    1SOL    HW3 6635   3.506   3.174   2.720  0.8568 -1.0908 -0.9404
    1SOL    MW4 6636   3.574   3.224   2.739 -0.0904 -0.1135  0.0269
    1SOL     OW 6637   3.587   3.475   2.651 -0.3699  0.1236 -0.4820
    1SOL    HW2 6638   3.668   3.522   2.671  0.4317 -0.5946 -1.9971
    1SOL    HW3 6639   3.517   3.532   2.685  0.7684  0.6230  1.0732
    1SOL    MW4 6640   3.588   3.489   2.658 -0.1140  0.0949 -0.4768
    1SOL     OW 6641   3.815   3.598   2.733 -0.4765  0.2058 -0.7348
    1SOL    HW2 6642   3.899   3.556   2.714  0.6065  0.9934  2.0073
    1SOL    HW3 6643   3.824   3.686   2.697 -0.3573  0.0913 -0.9871
    1SOL    MW4 6644   3.827   3.604   2.726 -0.3178  0.2949 -0.4063
    1SOL     OW 6645   3.829   3.861   2.663 -0.1711  0.2916 -0.1316
    1SOL    HW2 6646   3.900   3.913   2.700 -0.4290 -0.1313  0.9827
    1SOL    HW3 6647   3.749   3.900   2.699 -0.3864 -0.6320  0.4189
    1SOL    MW4 6648   3.828   3.873   2.672 -0.2337  0.1140  0.0880
    1SOL     OW 6649   3.599   4.040   2.732  0.5831  0.0401  0.3353
    1SOL    HW2 6650   3.619   4.121   2.686  1.0806  0.6008  1.5203
    1SOL    HW3 6651   3.515   4.012   2.696 -0.0088  1.5278  0.5407
    1SOL    MW4 6652   3.590   4.047   2.721  0.5705  0.3109  0.5186
    1SOL     OW 6653   3.607   4.293   2.618  0.2729 -0.3811 -0.2266
    1SOL    HW2 6654   3.534   4.343   2.655 -0.7899 -1.2540 -1.0844
    1SOL    HW3 6655   3.599   4.304   2.523  1.2377 -0.5089 -0.3273
    1SOL    MW4 6656   3.596   4.301   2.610  0.2601 -0.5136 -0.3526
    1SOL     OW 6657   3.818   4.431   2.744 -0.0157  0.5864 -0.1620
    1SOL    HW2 6658   3.899   4.396   2.706 -0.4201 -0.3109 -0.2128
    1SOL    HW3 6659   3.748   4.390   2.693 -0.5984 -1.4635  2.2172
    1SOL    MW4 6660   3.819   4.421   2.732 -0.1459  0.1979  0.1452
    1SOL     OW 6661   4.284   4.623   2.673 -0.0030 -0.3706 -0.1400
    1SOL    HW2 6662   4.203   4.659   2.710  0.7773  1.2931  0.0020
    1SOL    HW3 6663   4.354   4.670   2.719  1.0398 -1.3807 -0.6680
    1SOL    MW4 6664   4.283   4.634   2.684  0.2375 -0.2847 -0.1912
    1SOL     OW 6665   4.068   0.098   2.759  0.0579  0.4996  0.1579
    1SOL    HW2 6666   4.064   0.092   2.854  0.5892 -0.1322  0.1487
    1SOL    HW3 6667   3.981   0.070   2.730 -0.6180  2.2096  0.5107
    1SOL    MW4 6668   4.056   0.093   2.767  0.0386  0.6418  0.2034
    1SOL     OW 6669   4.076   0.346   2.613 -0.3228  0.2833 -0.6193
    1SOL    HW2 6670   4.078   0.261   2.657  0.1668  0.3027 -0.6005
    1SOL    HW3 6671   4.066   0.325   2.520 -2.2009  0.2647 -0.4319
    1SOL    MW4 6672   4.075   0.332   2.607 -0.5064  0.2834 -0.5922
    1SOL     OW 6673   4.269   0.496   2.753  0.0686 -0.2646 -1.0666
    1SOL    HW2 6674   4.201   0.451   2.702 -0.1256 -0.0002 -1.0409
    1SOL    HW3 6675   4.350   0.453   2.727 -0.1756 -1.0016 -0.6380
    1SOL    MW4 6676   4.270   0.485   2.743  0.0110 -0.3269 -1.0066
    1SOL     OW 6677   4.255   0.763   2.632  0.1889 -0.1606  0.4235
    1SOL    HW2 6678   4.256   0.675   2.669 -1.9317 -0.3905 -0.0327
    1SOL    HW3 6679   4.238   0.750   2.539  0.0465  0.7352  0.3226
    1SOL    MW4 6680   4.253   0.750   2.624 -0.1092 -0.0727  0.3500
    1SOL     OW 6681   4.033   0.890   2.758 -0.1841  0.2305 -0.6540
    1SOL    HW2 6682   4.102   0.840   2.715 -0.0906 -0.7545  0.6166
    1SOL    HW3 6683   3.952   0.859   2.716  0.0040  0.1733 -0.9783
    1SOL    MW4 6684   4.031   0.879   2.747 -0.1469  0.0930 -0.5291
    1SOL     OW 6685   4.047   1.133   2.632  0.1627 -0.1203  0.0436
    1SOL    HW2 6686   4.129   1.167   2.668 -0.5751  0.3345  1.3406
    1SOL    HW3 6687   4.042   1.043   2.665  0.1056 -0.1192  0.0390
    1SOL    MW4 6688   4.057   1.126   2.641  0.0577 -0.0602  0.2141
    1SOL     OW 6689   4.279   1.267   2.709 -0.1200  0.4256  0.0499
    1SOL    HW2 6690   4.282   1.357   2.676 -0.4748  0.5747  0.4132
    1SOL    HW3 6691   4.339   1.218   2.653 -0.7956  0.6506 -0.8874
    1SOL    MW4 6692   4.287   1.272   2.697 -0.2561  0.4749 -0.0257
    1SOL     OW 6693   4.231   1.533   2.615 -0.3075 -0.4366 -0.0807
    1SOL    HW2 6694   4.313   1.567   2.651  1.9120 -4.0752 -1.4210
    1SOL    HW3 6695   4.242   1.542   2.520 -0.9703 -1.9651 -0.3055
    1SOL    MW4 6696   4.244   1.539   2.607 -0.1025 -1.1183 -0.2873
    1SOL     OW 6697   4.034   1.691   2.760  0.4443 -0.5727  0.0971
    1SOL    HW2 6698   4.031   1.684   2.855  1.6562  1.0213  0.2625
    1SOL    HW3 6699   4.105   1.633   2.734  0.9036 -0.0893  0.2665
    1SOL    MW4 6700   4.043   1.682   2.769  0.6647 -0.2986  0.1411
    1SOL     OW 6701   4.034   1.955   2.640 -0.0418  0.8196  0.2224
    1SOL    HW2 6702   4.112   1.987   2.684 -0.5253  0.6323  1.2469
    1SOL    HW3 6703   4.020   1.867   2.677  0.0886  0.2766 -1.0091
    1SOL    MW4 6704   4.042   1.947   2.651 -0.0882  0.7234  0.1948
    1SOL     OW 6705   4.263   2.038   2.796 -0.5614 -0.2476  0.3406
    1SOL    HW2 6706   4.259   2.120   2.746 -1.0753 -0.0321  0.7292
    1SOL    HW3 6707   4.339   1.992   2.761 -0.7017  0.0710 -0.3887
    1SOL    MW4 6708   4.272   2.043   2.785 -0.6475 -0.1771  0.2956
    1SOL     OW 6709   4.250   2.282   2.653 -0.3838 -0.0927  0.2129
    1SOL    HW2 6710   4.174   2.331   2.683 -1.0527 -0.5967 -0.6472
    1SOL    HW3 6711   4.246   2.286   2.558  0.5209 -0.3541  0.1538
    1SOL    MW4 6712   4.240   2.289   2.644 -0.3524 -0.1936  0.0916
    1SOL     OW 6713   4.032   2.455   2.770  0.2686  0.2558 -0.0866
    1SOL    HW2 6714   4.029   2.451   2.865 -1.5326 -1.7232 -0.2022
    1SOL    HW3 6715   3.945   2.426   2.741  1.6378 -1.7891 -2.3757
    1SOL    MW4 6716   4.020   2.450   2.779  0.2112 -0.2751 -0.4036
    1SOL     OW 6717   4.021   2.703   2.645 -0.3717 -0.6545  0.3691
    1SOL    HW2 6718   4.096   2.742   2.689 -0.4597 -0.5795  0.4531
    1SOL    HW3 6719   4.018   2.613   2.677 -1.0745 -0.2966  1.3447
    1SOL    MW4 6720   4.030   2.697   2.655 -0.4759 -0.5975  0.5090
    1SOL     OW 6721   4.267   2.804   2.729 -0.2748  0.0104  0.2055
    1SOL    HW2 6722   4.267   2.815   2.824  0.8993  0.1421  0.1977
    1SOL    HW3 6723   4.265   2.893   2.694 -1.7203 -0.0625  0.1038
    1SOL    MW4 6724   4.267   2.817   2.737 -0.3104  0.0181  0.1910
    1SOL     OW 6725   4.264   3.063   2.603  0.2392  0.0812  0.1780
    1SOL    HW2 6726   4.188   3.102   2.647  0.5634 -0.1497  0.9579
    1SOL    HW3 6727   4.243   3.068   2.510 -1.2918 -1.0913  0.4418
    1SOL    MW4 6728   4.251   3.069   2.597  0.0801 -0.1042  0.3159
    1SOL     OW 6729   4.073   3.207   2.755 -0.0066 -0.2969  0.2210
    1SOL    HW2 6730   4.077   3.298   2.726  1.2155 -0.7067 -0.9610
    1SOL    HW3 6731   3.983   3.180   2.737  0.2988 -0.0532 -1.7253
    1SOL    MW4 6732   4.061   3.216   2.749  0.1945 -0.3188 -0.1919
    1SOL     OW 6733   4.060   3.464   2.646  0.6979  0.0119  0.3588
    1SOL    HW2 6734   4.131   3.527   2.654  0.6713  0.0113  0.6241
    1SOL    HW3 6735   4.045   3.455   2.552  0.4222  0.7187  0.3320
    1SOL    MW4 6736   4.067   3.471   2.635  0.6580  0.1049  0.3903
    1SOL     OW 6737   4.256   3.657   2.688 -0.0080 -0.0256 -0.2599
    1SOL    HW2 6738   4.257   3.653   2.784 -0.4548  1.2914 -0.1988
    1SOL    HW3 6739   4.333   3.606   2.662  1.7997  2.0272  0.9088
    1SOL    MW4 6740   4.267   3.650   2.697  0.1721  0.4191 -0.0975
    1SOL     OW 6741   4.273   3.935   2.596  0.0035 -0.0459 -0.4506
    1SOL    HW2 6742   4.264   3.842   2.618  0.4643  0.3714  1.6167
    1SOL    HW3 6743   4.353   3.962   2.642 -1.6609  2.0389  1.3213
    1SOL    MW4 6744   4.282   3.926   2.605 -0.1550  0.2844  0.0563
    1SOL     OW 6745   4.046   4.031   2.725  0.2690 -0.3744 -0.5317
    1SOL    HW2 6746   4.042   4.021   2.820  0.4089 -2.7470 -0.7595
    1SOL    HW3 6747   4.135   4.007   2.701  0.3884  0.7004 -1.2393
    1SOL    MW4 6748   4.057   4.027   2.734  0.3033 -0.5455 -0.6549
    1SOL     OW 6749   4.028   4.299   2.628  0.4428  0.1869 -0.3553
    1SOL    HW2 6750   4.000   4.215   2.663  2.7507 -0.0970  0.9657
    1SOL    HW3 6751   4.016   4.292   2.533  0.1209 -1.4256 -0.2013
    1SOL    MW4 6752   4.023   4.287   2.620  0.7048 -0.0629 -0.1607
    1SOL     OW 6753   4.261   4.364   2.736  0.1444 -0.3884 -0.0006
    1SOL    HW2 6754   4.174   4.343   2.703 -0.7335  0.3752  1.8236
    1SOL    HW3 6755   4.276   4.454   2.708 -0.2353 -0.0396  0.9208
    1SOL    MW4 6756   4.252   4.373   2.728 -0.0215 -0.2413  0.3617
    1SOL     OW 6757   0.272   4.659   3.126  0.5714  0.1508 -0.0233
    1SOL    HW2 6758   0.281   4.675   3.220 -0.6500  0.6123  0.0261
    1SOL    HW3 6759   0.191   4.705   3.101  0.3592 -0.7788 -1.1088
    1SOL    MW4 6760   0.262   4.667   3.135  0.3822  0.0891 -0.1600
    1SOL     OW 6761   0.048   0.120   3.062  0.3171 -0.0928 -0.2059
    1SOL    HW2 6762  -0.034   0.075   3.083  0.3143 -0.7332 -1.5375
    1SOL    HW3 6763   0.031   0.212   3.084 -0.4848 -0.3439  0.2620
    1SOL    MW4 6764   0.034   0.126   3.068  0.2109 -0.2104 -0.3200
    1SOL     OW 6765   0.051   0.397   3.153 -0.0983  0.3826 -0.7271
    1SOL    HW2 6766   0.028   0.409   3.245  1.1308 -0.7645 -0.2323
    1SOL    HW3 6767  -0.020   0.438   3.104 -1.5420 -0.3180  0.7237
    1SOL    MW4 6768   0.039   0.404   3.159 -0.1266  0.1388 -0.4706
    1SOL     OW 6769   0.264   0.539   3.027  0.0686  0.1650  0.1056
    1SOL    HW2 6770   0.340   0.482   3.041 -0.4599 -0.6065 -0.1302
    1SOL    HW3 6771   0.194   0.499   3.079 -0.3884  0.4364 -0.2970
    1SOL    MW4 6772   0.265   0.526   3.036 -0.0615  0.0990  0.0212
    1SOL     OW 6773   0.220   0.801   3.098  0.0728 -0.0194 -0.1019
    1SOL    HW2 6774   0.195   0.789   3.190  0.6982  0.8539  0.1902
    1SOL    HW3 6775   0.244   0.714   3.068  0.8432 -0.1540  0.8664
    1SOL    MW4 6776   0.220   0.788   3.106  0.2570  0.0781  0.0644
    1SOL     OW 6777   4.479   0.872   2.979 -0.7062 -0.0777 -0.2431
    1SOL    HW2 6778   4.564   0.853   3.019 -0.7648  1.8470  0.8122
    1SOL    HW3 6779   4.496   0.866   2.885  0.4234 -0.4515 -0.0274
    1SOL    MW4 6780   4.492   0.868   2.972 -0.5646  0.1268 -0.0756
    1SOL     OW 6781   0.000   1.128   3.111 -0.1147 -0.0863  0.2592
    1SOL    HW2 6782  -0.065   1.191   3.080 -0.5327 -0.6112  0.0680
    1SOL    HW3 6783  -0.011   1.052   3.054  0.8547 -0.0779  0.0438
    1SOL    MW4 6784  -0.010   1.126   3.099 -0.0420 -0.1544  0.2055
    1SOL     OW 6785   0.203   1.317   3.018 -0.3881  0.1302 -0.3006
    1SOL    HW2 6786   0.138   1.252   3.046  0.2538 -0.6239 -0.5725
    1SOL    HW3 6787   0.193   1.322   2.923  0.6684 -0.7581 -0.4646
    1SOL    MW4 6788   0.193   1.309   3.009 -0.1640 -0.0865 -0.3579
    1SOL     OW 6789   0.182   1.578   3.109 -0.2448  0.1320 -0.1215
    1SOL    HW2 6790   0.110   1.629   3.071  0.3079  1.2519  0.3195
    1SOL    HW3 6791   0.164   1.488   3.082 -0.9520  0.6305 -1.3402
    1SOL    MW4 6792   0.170   1.573   3.101 -0.2652  0.3456 -0.2239
    1SOL     OW 6793   4.429   1.682   2.985 -0.0294  0.1642 -0.5718
    1SOL    HW2 6794   4.359   1.638   3.034  0.4577 -0.3225 -0.3042
    1SOL    HW3 6795   4.442   1.764   3.032  0.0141 -0.0275 -0.2442
    1SOL    MW4 6796   4.422   1.687   2.998  0.0410  0.0747 -0.4933
    1SOL     OW 6797   4.463   1.913   3.140 -0.1945  0.2862 -0.2803
    1SOL    HW2 6798   4.378   1.957   3.133  0.1910  1.5338  2.2757
    1SOL    HW3 6799   4.525   1.975   3.102 -0.3949 -0.6136 -2.1207
    1SOL    MW4 6800   4.460   1.927   3.134 -0.1707  0.3321 -0.1855
    1SOL     OW 6801   0.180   2.065   3.024  0.4547  0.2518  0.2144
    1SOL    HW2 6802   0.185   2.158   3.048  1.6309  0.1252  0.5267
    1SOL    HW3 6803   0.182   2.064   2.929 -1.6840  0.6422  0.1504
    1SOL    MW4 6804   0.181   2.077   3.015  0.3277  0.2866  0.2472
    1SOL     OW 6805   0.191   2.324   3.111  0.3234  0.0757 -0.1389
    1SOL    HW2 6806   0.202   2.322   3.206  0.2107  1.1527 -0.0940
    1SOL    HW3 6807   0.271   2.367   3.080  0.1869  0.0646 -0.4992
    1SOL    MW4 6808   0.203   2.330   3.120  0.2905  0.2165 -0.1807
    1SOL     OW 6809   4.451   2.462   2.999 -0.4033 -0.2711  0.0161
    1SOL    HW2 6810   4.475   2.551   3.027 -0.5135 -0.3010  0.2006
    1SOL    HW3 6811   4.521   2.407   3.034 -0.1843 -0.2200 -0.3391
    1SOL    MW4 6812   4.463   2.467   3.007 -0.3886 -0.2685 -0.0064
    1SOL     OW 6813   0.002   2.711   3.100 -0.0106 -0.0754  0.1470
    1SOL    HW2 6814  -0.009   2.707   3.195  1.4501 -0.7525  0.3031
    1SOL    HW3 6815   0.084   2.758   3.087  0.6880 -1.4889 -0.7177
    1SOL    MW4 6816   0.011   2.717   3.111  0.2742 -0.3514  0.0534
    1SOL     OW 6817   0.218   2.857   3.015  0.3104 -0.2571 -0.1933
    1SOL    HW2 6818   0.293   2.813   3.055  1.0432  0.6355 -0.5647
    1SOL    HW3 6819   0.238   2.859   2.922  0.2056  0.6893 -0.2082
    1SOL    MW4 6820   0.230   2.852   3.008  0.3932 -0.0145 -0.2444
    1SOL     OW 6821   0.218   3.131   3.116 -0.1896  0.2095  0.6773
    1SOL    HW2 6822   0.149   3.175   3.065  0.4956  0.3651 -0.1187
    1SOL    HW3 6823   0.209   3.039   3.093  1.2328  0.4868 -1.0758
    1SOL    MW4 6824   0.208   3.125   3.106  0.0885  0.2666  0.3407
    1SOL     OW 6825   0.006   3.270   2.996 -0.5975  0.4152  0.0472
    1SOL    HW2 6826  -0.068   3.220   3.032  0.5296 -1.1710  0.2284
    1SOL    HW3 6827  -0.004   3.262   2.901 -0.3679 -0.2592  0.0762
    1SOL    MW4 6828  -0.005   3.262   2.988 -0.4187  0.1171  0.0751
    1SOL     OW 6829   4.484   3.535   3.094  0.0949 -0.3286 -0.4393
    1SOL    HW2 6830   4.407   3.575   3.054  0.4415  0.5489 -0.2213
    1SOL    HW3 6831   4.491   3.450   3.050  0.5165  0.6523 -2.3181
    1SOL    MW4 6832   4.474   3.529   3.083  0.1960 -0.0832 -0.6583
    1SOL     OW 6833   0.214   3.663   2.965  0.0056 -0.0519 -0.3621
    1SOL    HW2 6834   0.212   3.756   2.984  0.0339 -0.1423  0.0891
    1SOL    HW3 6835   0.142   3.626   3.017  0.4252 -0.3788 -0.0102
    1SOL    MW4 6836   0.204   3.670   2.974  0.0647 -0.1070 -0.2561
    1SOL     OW 6837   0.203   3.909   3.107 -0.4516 -0.3103 -0.4253
    1SOL    HW2 6838   0.226   3.898   3.199  1.3912  0.3253 -0.7777
    1SOL    HW3 6839   0.275   3.961   3.071 -1.4695 -0.0214 -2.0825
    1SOL    MW4 6840   0.216   3.915   3.114 -0.3428 -0.1884 -0.6905
    1SOL     OW 6841   4.457   4.041   3.037  0.0166 -0.1403 -0.3614
    1SOL    HW2 6842   4.537   4.000   3.068 -0.5324 -0.9542 -0.0130
    1SOL    HW3 6843   4.465   4.039   2.942  1.2586  1.4845 -0.3175
    1SOL    MW4 6844   4.469   4.035   3.029  0.1082 -0.0334 -0.3095
    1SOL     OW 6845   0.023   4.297   3.133  0.0847  0.4810  0.0643
    1SOL    HW2 6846   0.011   4.290   3.228  1.3369  0.8817  0.2608
    1SOL    HW3 6847   0.012   4.207   3.101 -3.1004  0.7560  0.2264
    1SOL    MW4 6848   0.020   4.284   3.141 -0.1703  0.5703  0.1116
    1SOL     OW 6849   0.260   4.396   3.042  0.2338 -0.3411 -0.1301
    1SOL    HW2 6850   0.178   4.368   3.084  0.5397  0.1615  0.8076
    1SOL    HW3 6851   0.278   4.482   3.078  0.5758  0.0519 -1.2119
    1SOL    MW4 6852   0.251   4.404   3.052  0.3193 -0.2232 -0.1490
    1SOL     OW 6853   0.665   4.659   3.138 -0.1398 -0.3138  0.1103
    1SOL    HW2 6854   0.649   4.574   3.097  1.0923 -0.5248  0.0629
    1SOL    HW3 6855   0.597   4.716   3.101 -0.2436 -0.9842 -0.7559
    1SOL    MW4 6856   0.654   4.655   3.127  0.0092 -0.4306 -0.0103
    1SOL     OW 6857   0.474   0.127   3.006 -0.3951 -0.0485 -0.3430
    1SOL    HW2 6858   0.471   0.218   3.034 -2.6322 -0.3679  0.5777
    1SOL    HW3 6859   0.399   0.086   3.049  0.0204 -2.1111 -1.4977
    1SOL    MW4 6860   0.464   0.133   3.015 -0.6354 -0.3628 -0.3741
    1SOL     OW 6861   0.490   0.389   3.106 -0.0700 -0.7473 -0.5730
    1SOL    HW2 6862   0.491   0.420   3.197 -1.1748 -0.3120 -0.7110
    1SOL    HW3 6863   0.549   0.449   3.060  0.3535 -0.8594 -0.1810
    1SOL    MW4 6864   0.498   0.401   3.112 -0.1599 -0.7046 -0.5395
    1SOL     OW 6865   0.676   0.532   2.983  0.2329 -0.0280  0.0181
    1SOL    HW2 6866   0.750   0.491   3.028 -0.5697 -0.1990  1.2057
    1SOL    HW3 6867   0.669   0.618   3.023 -0.8981 -0.4272  0.7026
    1SOL    MW4 6868   0.685   0.538   2.994 -0.0223 -0.1032  0.2651
    1SOL     OW 6869   0.668   0.791   3.049 -0.0670  0.3153  0.0379
    1SOL    HW2 6870   0.661   0.789   3.144  0.9177  0.8703  0.1278
    1SOL    HW3 6871   0.592   0.841   3.020 -0.7368 -0.4282  0.4825
    1SOL    MW4 6872   0.657   0.797   3.058 -0.0255  0.2905  0.1085
    1SOL     OW 6873   0.444   0.962   3.001  0.4209  0.0603  0.0125
    1SOL    HW2 6874   0.380   0.911   3.050  0.9515  0.1309  0.7849
    1SOL    HW3 6875   0.439   0.928   2.912 -2.6117  1.8566 -0.5661
    1SOL    MW4 6876   0.435   0.951   2.996  0.0907  0.3066  0.0381
    1SOL     OW 6877   0.461   1.213   3.116  0.3971  0.0441  0.4254
    1SOL    HW2 6878   0.457   1.125   3.079 -0.2449 -0.0586  0.7385
    1SOL    HW3 6879   0.380   1.255   3.086 -0.3253 -0.1682  2.0596
    1SOL    MW4 6880   0.449   1.207   3.107  0.2171  0.0025  0.6821
    1SOL     OW 6881   0.698   1.295   2.982 -0.0030  0.2612 -0.0729
    1SOL    HW2 6882   0.774   1.258   3.028  0.0361  0.2631 -0.1365
    1SOL    HW3 6883   0.623   1.254   3.025  0.0355  0.2171 -0.0469
    1SOL    MW4 6884   0.699   1.284   2.994  0.0073  0.2557 -0.0780
    1SOL     OW 6885   0.673   1.541   3.104  0.3601  0.0062  0.3571
    1SOL    HW2 6886   0.676   1.531   3.199  0.3967  0.0777  0.3638
    1SOL    HW3 6887   0.680   1.452   3.070  1.0285  0.0397  0.4042
    1SOL    MW4 6888   0.674   1.528   3.112  0.4531  0.0201  0.3645
    1SOL     OW 6889   0.437   1.658   2.966 -0.1499 -0.2029  0.2907
    1SOL    HW2 6890   0.512   1.606   2.995 -0.5083 -1.1481 -0.4285
    1SOL    HW3 6891   0.360   1.614   3.003 -0.5169 -0.6869 -1.0168
    1SOL    MW4 6892   0.436   1.645   2.974 -0.2456 -0.3916  0.0234
    1SOL     OW 6893   0.411   1.915   3.094  0.2003 -0.0422 -0.0759
    1SOL    HW2 6894   0.417   1.827   3.055  1.1209 -0.6126  1.3043
    1SOL    HW3 6895   0.324   1.946   3.070  0.1361 -1.0436 -1.1846
    1SOL    MW4 6896   0.400   1.907   3.086  0.3133 -0.2495 -0.0401
    1SOL     OW 6897   0.635   2.060   3.028 -0.2411  0.0598 -0.6595
    1SOL    HW2 6898   0.713   2.029   3.074  0.4221  0.1695 -1.7215
    1SOL    HW3 6899   0.564   2.007   3.065  0.1405  0.8130  1.1996
    1SOL    MW4 6900   0.636   2.049   3.039 -0.1033  0.1738 -0.5546
    1SOL     OW 6901   0.584   2.320   3.095 -0.0496  0.3142  0.3611
    1SOL    HW2 6902   0.601   2.319   3.189 -1.1879 -0.5549  0.5641
    1SOL    HW3 6903   0.590   2.229   3.068 -0.3231  0.4857 -0.2999
    1SOL    MW4 6904   0.587   2.308   3.104 -0.2360  0.2222  0.3006
    1SOL     OW 6905   0.386   2.466   2.999  0.3158 -0.1000 -0.0071
    1SOL    HW2 6906   0.457   2.415   3.039  0.5232 -0.3069 -0.6354
    1SOL    HW3 6907   0.399   2.454   2.905 -1.1364 -0.9424 -0.1047
    1SOL    MW4 6908   0.397   2.457   2.992  0.1516 -0.2387 -0.1030
    1SOL     OW 6909   0.417   2.716   3.143  0.6182  0.1989 -0.6201
    1SOL    HW2 6910   0.489   2.750   3.090  0.1826  0.0023 -1.3458
    1SOL    HW3 6911   0.391   2.635   3.099 -0.9659  0.9764 -1.1698
    1SOL    MW4 6912   0.423   2.710   3.130  0.3517  0.2756 -0.7882
    1SOL     OW 6913   0.636   2.841   3.027 -0.1994  0.4379  0.2874
    1SOL    HW2 6914   0.716   2.816   3.073  0.9037 -0.2742 -1.9081
    1SOL    HW3 6915   0.642   2.937   3.019  1.3701  0.2310 -1.4362
    1SOL    MW4 6916   0.648   2.851   3.032  0.1532  0.3166 -0.2298
    1SOL     OW 6917   0.660   3.106   3.076  0.0079  0.1447  0.0565
    1SOL    HW2 6918   0.650   3.117   3.171  0.3328  1.7622 -0.0775
    1SOL    HW3 6919   0.586   3.155   3.039  0.6260  0.6232 -0.5505
    1SOL    MW4 6920   0.649   3.114   3.084  0.1323  0.4215 -0.0410
    1SOL     OW 6921   0.441   3.243   2.987  0.1118  0.3833  0.0875
    1SOL    HW2 6922   0.433   3.339   2.989 -0.5423  0.3320 -0.1100
    1SOL    HW3 6923   0.369   3.211   3.040 -0.1139 -0.0239 -0.4547
    1SOL    MW4 6924   0.430   3.252   2.994 -0.0043  0.3228 -0.0100
    1SOL     OW 6925   0.435   3.512   3.057  0.0484 -0.1675 -0.3257
    1SOL    HW2 6926   0.450   3.505   3.151  1.4067 -1.2096 -0.5886
    1SOL    HW3 6927   0.354   3.562   3.049 -0.2109 -0.2625  1.3981
    1SOL    MW4 6928   0.426   3.517   3.068  0.1934 -0.3171 -0.1330
    1SOL     OW 6929   0.669   3.637   2.996 -0.1746 -0.2903 -0.2277
    1SOL    HW2 6930   0.736   3.576   3.026 -0.3029 -0.5709 -0.5022
    1SOL    HW3 6931   0.586   3.595   3.019 -0.2820 -0.6585 -1.2385
    1SOL    MW4 6932   0.667   3.623   3.003 -0.2057 -0.3760 -0.3972
    1SOL     OW 6933   0.673   3.894   3.116 -0.0489 -0.7211 -0.4195
    1SOL    HW2 6934   0.675   3.892   3.211  0.9950 -0.0932 -0.4189
    1SOL    HW3 6935   0.686   3.802   3.090  0.5069 -0.7733  0.0379
    1SOL    MW4 6936   0.675   3.881   3.125  0.1621 -0.6447 -0.3591
    1SOL     OW 6937   0.453   4.024   2.999  0.4544  0.4560  0.0056
    1SOL    HW2 6938   0.536   3.986   3.026 -0.3941 -1.5698 -0.2094
    1SOL    HW3 6939   0.458   4.027   2.903  0.4159  0.6646  0.0083
    1SOL    MW4 6940   0.465   4.020   2.990  0.3374  0.2165 -0.0226
    1SOL     OW 6941   0.463   4.257   3.147 -0.1412  0.3513  0.2238
    1SOL    HW2 6942   0.461   4.172   3.104  0.3224  0.0699  0.7447
    1SOL    HW3 6943   0.389   4.305   3.109 -0.4282 -0.2933 -0.0484
    1SOL    MW4 6944   0.453   4.252   3.137 -0.1179  0.2289  0.2565
    1SOL     OW 6945   0.674   4.403   3.016 -0.3114  0.2258 -0.1302
    1SOL    HW2 6946   0.594   4.366   3.052 -2.4951  3.7453 -1.1261
    1SOL    HW3 6947   0.674   4.376   2.925 -0.8348  0.9459 -0.3467
    1SOL    MW4 6948   0.664   4.394   3.009 -0.6685  0.7854 -0.2904
    1SOL     OW 6949   1.115   0.007   3.085 -0.0136 -0.1778  0.6613
    1SOL    HW2 6950   1.201   0.040   3.058 -0.6287  0.0137 -1.1011
    1SOL    HW3 6951   1.053   0.072   3.052 -1.0407 -1.7191 -0.4967
    1SOL    MW4 6952   1.118   0.020   3.077 -0.2302 -0.3559  0.2759
    1SOL     OW 6953   0.888   0.148   2.988 -0.4563 -0.4348 -0.0368
    1SOL    HW2 6954   0.891   0.237   3.024 -0.2062 -0.6608  0.4978
    1SOL    HW3 6955   0.819   0.104   3.038 -1.4198 -0.1828 -1.1258
    1SOL    MW4 6956   0.879   0.154   2.999 -0.5504 -0.4314 -0.1097
    1SOL     OW 6957   0.888   0.404   3.103 -0.2459 -0.3173 -0.2700
    1SOL    HW2 6958   0.907   0.398   3.196 -2.6788  1.4788  0.3891
    1SOL    HW3 6959   0.967   0.441   3.064  1.0083 -1.6511  0.9694
    1SOL    MW4 6960   0.901   0.408   3.110 -0.4014 -0.2563 -0.0196
    1SOL     OW 6961   1.123   0.509   2.992  0.2812 -0.1914 -0.4762
    1SOL    HW2 6962   1.194   0.451   3.020  0.1361 -0.3970 -0.5285
    1SOL    HW3 6963   1.138   0.523   2.899  1.1161  0.9931 -0.1700
    1SOL    MW4 6964   1.134   0.503   2.984  0.3722 -0.0622 -0.4427
    1SOL     OW 6965   1.110   0.769   3.095 -0.1861  0.1579  0.3121
    1SOL    HW2 6966   1.091   0.755   3.187 -1.5211  0.9205  0.1695
    1SOL    HW3 6967   1.111   0.681   3.057 -1.2670 -0.0636  0.7587
    1SOL    MW4 6968   1.108   0.756   3.102 -0.5047  0.2293  0.3524
    1SOL     OW 6969   0.904   0.892   2.946  0.1725 -0.4846 -0.1421
    1SOL    HW2 6970   0.977   0.870   3.004  0.2250  1.0783  0.3916
    1SOL    HW3 6971   0.827   0.852   2.987  0.6881 -2.0013 -0.6230
    1SOL    MW4 6972   0.903   0.884   2.959  0.2475 -0.4786 -0.1352
    1SOL     OW 6973   0.939   1.171   3.065 -0.1962  0.3407  0.1337
    1SOL    HW2 6974   1.019   1.215   3.039 -0.3859  0.1290 -0.8405
    1SOL    HW3 6975   0.948   1.082   3.031 -0.8079  0.2889  0.0894
    1SOL    MW4 6976   0.951   1.165   3.057 -0.3019  0.3059 -0.0005
    1SOL     OW 6977   1.170   1.293   2.959 -0.0176 -0.2453 -0.1448
    1SOL    HW2 6978   1.237   1.232   2.989 -0.7542 -1.0118 -0.0537
    1SOL    HW3 6979   1.144   1.262   2.873  0.4574  0.6313 -0.6066
    1SOL    MW4 6980   1.175   1.281   2.952 -0.0522 -0.2308 -0.1934
    1SOL     OW 6981   1.091   1.556   3.049 -0.2204  0.4698  0.2987
    1SOL    HW2 6982   1.173   1.606   3.046 -0.1247  0.4085  1.4790
    1SOL    HW3 6983   1.113   1.470   3.015 -0.2738  1.0736 -1.3091
    1SOL    MW4 6984   1.105   1.551   3.044 -0.2148  0.5414  0.2422
    1SOL     OW 6985   0.862   1.710   2.974  0.0766  0.2355 -0.4835
    1SOL    HW2 6986   0.941   1.660   2.994 -0.4168 -0.2100  0.3437
    1SOL    HW3 6987   0.791   1.664   3.020 -0.6065  0.8494 -0.9075
    1SOL    MW4 6988   0.863   1.697   2.982 -0.0787  0.2577 -0.4301
    1SOL     OW 6989   0.880   1.958   3.101  0.3355  0.2316  0.0271
    1SOL    HW2 6990   0.876   1.944   3.196 -0.3471 -1.1068 -0.1903
    1SOL    HW3 6991   0.862   1.872   3.063  1.4766  0.5588 -1.3226
    1SOL    MW4 6992   0.877   1.945   3.109  0.3960  0.0982 -0.1798
    1SOL     OW 6993   1.080   2.105   2.974 -0.1036 -0.4323 -0.4898
    1SOL    HW2 6994   1.014   2.049   3.013  0.5196 -0.3798  0.6585
    1SOL    HW3 6995   1.069   2.094   2.879 -3.1860  1.2120 -0.3965
    1SOL    MW4 6996   1.070   2.096   2.966 -0.4281 -0.2084 -0.3262
    1SOL     OW 6997   1.096   2.343   3.094  0.0429 -0.5713 -0.4638
    1SOL    HW2 6998   1.013   2.392   3.095  0.6829  0.5630 -1.0290
    1SOL    HW3 6999   1.074   2.259   3.055 -0.9895 -0.5594  0.0678
    1SOL    MW4 7000   1.082   2.339   3.089 -0.0088 -0.4201 -0.4680
    1SOL     OW 7001   0.837   2.438   2.997  0.4201  0.1409 -0.1952
    1SOL    HW2 7002   0.752   2.401   3.020  1.2288 -0.9897  1.1316
    1SOL    HW3 7003   0.845   2.423   2.903 -0.6997 -0.0554 -0.2660
    1SOL    MW4 7004   0.827   2.431   2.988  0.3791 -0.0343 -0.0296
    1SOL     OW 7005   0.875   2.720   3.091 -0.0459  0.1395 -0.2363
    1SOL    HW2 7006   0.867   2.727   3.186 -2.1729  2.1115 -0.5335
    1SOL    HW3 7007   0.859   2.628   3.072  0.1723 -0.2240  1.2735
    1SOL    MW4 7008   0.872   2.709   3.101 -0.2977  0.3517 -0.0765
    1SOL     OW 7009   1.103   2.836   2.987 -0.6140 -0.7849  0.4442
    1SOL    HW2 7010   1.097   2.913   3.043 -0.8775 -0.5481  0.0924
    1SOL    HW3 7011   1.027   2.783   3.012 -0.8897 -0.5471  0.1154
    1SOL    MW4 7012   1.092   2.839   2.998 -0.6850 -0.7224  0.3545
    1SOL     OW 7013   1.119   3.082   3.105  0.4423 -0.1709  0.4711
    1SOL    HW2 7014   1.188   3.124   3.054  0.5913 -0.7468  0.1944
    1SOL    HW3 7015   1.040   3.132   3.086  0.3672 -0.7648 -0.8205
    1SOL    MW4 7016   1.118   3.094   3.096  0.4520 -0.3250  0.2642
    1SOL     OW 7017   0.897   3.236   3.046  0.6434 -0.0863 -0.3483
    1SOL    HW2 7018   0.816   3.186   3.060  1.6255 -1.6338 -0.0889
    1SOL    HW3 7019   0.915   3.226   2.953 -0.2329  1.4743 -0.7003
    1SOL    MW4 7020   0.888   3.228   3.036  0.6573 -0.0846 -0.3603
    1SOL     OW 7021   0.885   3.508   3.110 -0.7080  0.2935 -0.1590
    1SOL    HW2 7022   0.964   3.551   3.079  0.2900 -0.1218  1.7624
    1SOL    HW3 7023   0.891   3.419   3.075 -0.0316  0.0937  0.4544
    1SOL    MW4 7024   0.896   3.502   3.101 -0.4870  0.2124  0.1757
    1SOL     OW 7025   1.120   3.642   2.999 -0.0002 -0.0426  0.2437
    1SOL    HW2 7026   1.186   3.581   3.032  1.4346  0.3511 -1.7829
    1SOL    HW3 7027   1.136   3.723   3.047 -0.1930 -0.5007  1.0738
    1SOL    MW4 7028   1.131   3.645   3.010  0.1637 -0.0513  0.0861
    1SOL     OW 7029   1.144   3.877   3.133  0.4474  0.3301  0.5596
    1SOL    HW2 7030   1.151   3.873   3.229  0.6070 -0.3691  0.5178
    1SOL    HW3 7031   1.061   3.922   3.117  0.4610  0.5237  1.0293
    1SOL    MW4 7032   1.134   3.883   3.144  0.4703  0.2635  0.6161
    1SOL     OW 7033   0.912   4.020   3.057 -0.3635  0.0179 -0.1267
    1SOL    HW2 7034   0.826   3.983   3.075  0.1385 -1.1193 -0.0005
    1SOL    HW3 7035   0.927   4.005   2.964 -0.3923  0.4185 -0.1983
    1SOL    MW4 7036   0.903   4.013   3.047 -0.3011 -0.0787 -0.1194
    1SOL     OW 7037   0.909   4.290   3.116 -0.2020  0.1990  0.0170
    1SOL    HW2 7038   0.908   4.195   3.102  1.5877  0.2708 -0.8511
    1SOL    HW3 7039   0.829   4.321   3.074  0.0485 -0.7559 -1.2018
    1SOL    MW4 7040   0.898   4.281   3.108  0.0672  0.0825 -0.2582
    1SOL     OW 7041   1.101   4.422   2.972 -0.4749  0.2779  0.0247
    1SOL    HW2 7042   1.032   4.377   3.021 -0.1445  0.5721  0.7728
    1SOL    HW3 7043   1.102   4.511   3.008 -0.5239  0.6270 -0.8287
    1SOL    MW4 7044   1.092   4.428   2.984 -0.4377  0.3629  0.0107
    1SOL     OW 7045   1.611   0.004   3.098  0.6343 -0.4933  0.7359
    1SOL    HW2 7046   1.591  -0.030   3.185  1.0290  1.1607  1.4869
    1SOL    HW3 7047   1.526   0.029   3.062  0.4758 -1.1498  0.6383
    1SOL    MW4 7048   1.597   0.003   3.105  0.6655 -0.3619  0.8223
    1SOL     OW 7049   1.381   0.096   2.988 -0.4176 -0.3019 -0.0843
    1SOL    HW2 7050   1.368   0.187   3.017  1.8776 -0.1263  0.5073
    1SOL    HW3 7051   1.354   0.096   2.896 -0.1546  1.0587 -0.1697
    1SOL    MW4 7052   1.376   0.108   2.980 -0.0801 -0.0992 -0.0179
    1SOL     OW 7053   1.325   0.346   3.087  0.1039 -0.4652  0.3239
    1SOL    HW2 7054   1.333   0.323   3.179  1.9514 -1.1220  0.0240
    1SOL    HW3 7055   1.408   0.389   3.065 -0.3731 -0.1747 -0.9875
    1SOL    MW4 7056   1.337   0.349   3.096  0.2847 -0.5135  0.1111
    1SOL     OW 7057   1.547   0.498   3.005  0.3973 -0.2223 -0.7795
    1SOL    HW2 7058   1.534   0.591   3.023 -0.5428 -0.3737 -0.6843
    1SOL    HW3 7059   1.554   0.493   2.909  1.7693  0.1061 -0.7129
    1SOL    MW4 7060   1.546   0.509   2.994  0.4543 -0.1990 -0.7579
    1SOL     OW 7061   1.550   0.761   3.055 -0.0696  0.0305 -0.4012
    1SOL    HW2 7062   1.554   0.744   3.149  1.7677  0.7400 -0.3411
    1SOL    HW3 7063   1.464   0.800   3.041 -0.2521  0.1386  1.0115
    1SOL    MW4 7064   1.539   0.764   3.065  0.1489  0.1383 -0.2069
    1SOL     OW 7065   1.320   0.895   2.977  0.1388  0.1632 -0.1873
    1SOL    HW2 7066   1.337   0.971   3.033  1.4423 -0.2868  0.0363
    1SOL    HW3 7067   1.244   0.852   3.018  1.1109 -0.1875  1.2889
    1SOL    MW4 7068   1.312   0.899   2.990  0.4390  0.0576  0.0370
    1SOL     OW 7069   1.361   1.136   3.092  0.1369 -0.0747 -0.4437
    1SOL    HW2 7070   1.341   1.156   3.184  0.5963 -1.4967 -0.0267
    1SOL    HW3 7071   1.433   1.195   3.070 -1.7749  2.2536 -0.7502
    1SOL    MW4 7072   1.368   1.147   3.101 -0.0547  0.0449 -0.4292
    1SOL     OW 7073   1.582   1.265   3.026 -0.3345 -0.0016  0.2286
    1SOL    HW2 7074   1.659   1.222   3.063 -0.1064  1.6808  1.7958
    1SOL    HW3 7075   1.580   1.351   3.068 -0.8788  1.4803 -2.6801
    1SOL    MW4 7076   1.592   1.271   3.037 -0.3762  0.4159  0.0517
    1SOL     OW 7077   1.559   1.529   3.073 -0.2119 -0.3835  0.5168
    1SOL    HW2 7078   1.629   1.589   3.047 -0.8754  0.2274  0.0979
    1SOL    HW3 7079   1.478   1.577   3.053 -0.7550 -0.6307  2.0258
    1SOL    MW4 7080   1.557   1.544   3.067 -0.3711 -0.3356  0.6604
    1SOL     OW 7081   1.329   1.698   3.025 -0.0598  0.0928  0.0862
    1SOL    HW2 7082   1.327   1.793   3.036 -1.3083  0.1805 -0.8710
    1SOL    HW3 7083   1.311   1.685   2.932  0.0492 -1.0868  0.2327
    1SOL    MW4 7084   1.327   1.709   3.015 -0.2100 -0.0513 -0.0210
    1SOL     OW 7085   1.315   1.977   3.075 -0.6774  0.2728 -0.5796
    1SOL    HW2 7086   1.304   1.963   3.169 -0.1030 -1.0671 -0.7139
    1SOL    HW3 7087   1.233   2.019   3.049 -0.1505  2.2904  0.8145
    1SOL    MW4 7088   1.302   1.981   3.084 -0.5322  0.3622 -0.4134
    1SOL     OW 7089   1.566   2.060   2.988  0.1913 -0.1937 -0.5294
    1SOL    HW2 7090   1.478   2.030   3.012 -0.0916  1.4082  0.5150
    1SOL    HW3 7091   1.568   2.055   2.892 -0.5028 -1.6760 -0.4737
    1SOL    MW4 7092   1.554   2.056   2.978  0.0625 -0.1779 -0.3843
    1SOL     OW 7093   1.536   2.339   3.076 -0.2528  0.1841  0.0107
    1SOL    HW2 7094   1.456   2.377   3.040 -0.8603 -0.2705  0.8778
    1SOL    HW3 7095   1.541   2.252   3.038 -0.9737 -0.3513  1.1435
    1SOL    MW4 7096   1.526   2.333   3.066 -0.4280  0.0532  0.2744
    1SOL     OW 7097   1.303   2.457   2.947  0.2987 -0.3596 -0.1441
    1SOL    HW2 7098   1.235   2.400   2.983  0.9237 -1.6989 -1.0578
    1SOL    HW3 7099   1.303   2.438   2.854  0.2474  1.4458 -0.5277
    1SOL    MW4 7100   1.294   2.447   2.940  0.3744 -0.2978 -0.3154
    1SOL     OW 7101   1.327   2.697   3.075 -0.3296 -0.3462 -0.0309
    1SOL    HW2 7102   1.314   2.619   3.020 -1.4146 -0.0546 -0.1948
    1SOL    HW3 7103   1.250   2.750   3.059 -0.6296 -0.2339  1.7464
    1SOL    MW4 7104   1.315   2.693   3.066 -0.5124 -0.2930  0.1824
    1SOL     OW 7105   1.587   2.817   2.979 -0.2333 -0.4433 -0.1091
    1SOL    HW2 7106   1.660   2.766   3.014  0.3142  0.4167  0.0200
    1SOL    HW3 7107   1.510   2.784   3.025 -0.0648 -1.9480 -0.8598
    1SOL    MW4 7108   1.586   2.806   2.989 -0.1388 -0.5283 -0.1912
    1SOL     OW 7109   1.584   3.066   3.107  0.2014 -0.0572 -0.2557
    1SOL    HW2 7110   1.562   3.071   3.200  0.2180  1.1488 -0.3061
    1SOL    HW3 7111   1.588   2.972   3.089 -2.2011 -0.3377  0.3887
    1SOL    MW4 7112   1.581   3.054   3.117 -0.1134  0.0651 -0.1776
    1SOL     OW 7113   1.367   3.219   2.999  0.1969  0.5475 -0.5753
    1SOL    HW2 7114   1.439   3.169   3.038  0.1364 -0.8419 -2.2117
    1SOL    HW3 7115   1.382   3.214   2.905 -1.1394  1.6196 -0.8636
    1SOL    MW4 7116   1.378   3.212   2.992  0.0125  0.5057 -0.8295
    1SOL     OW 7117   1.327   3.482   3.090 -0.0959  0.0964  0.0661
    1SOL    HW2 7118   1.333   3.471   3.185  0.4944 -0.9620 -0.0764
    1SOL    HW3 7119   1.345   3.394   3.055 -0.5182  0.4324 -1.0118
    1SOL    MW4 7120   1.330   3.469   3.098 -0.0739  0.0012 -0.0949
    1SOL     OW 7121   1.547   3.635   3.032 -0.3201  0.3084 -0.2121
    1SOL    HW2 7122   1.470   3.583   3.053  0.3084 -0.2057  0.8324
    1SOL    HW3 7123   1.552   3.632   2.936 -0.2189 -1.6674 -0.1681
    1SOL    MW4 7124   1.538   3.628   3.022 -0.2239 -0.0205 -0.0684
    1SOL     OW 7125   1.574   3.885   3.132  0.4387  0.5411 -0.3771
    1SOL    HW2 7126   1.658   3.911   3.095  0.9620 -1.3371 -0.5549
    1SOL    HW3 7127   1.558   3.797   3.097 -0.9437  0.3223  0.7417
    1SOL    MW4 7128   1.583   3.877   3.122  0.3254  0.2644 -0.2530
    1SOL     OW 7129   1.355   3.997   3.019  0.5073  0.0931  0.4603
    1SOL    HW2 7130   1.432   3.958   3.060  0.2722  0.0617  0.8738
    1SOL    HW3 7131   1.282   3.966   3.071  0.2323  0.2983  0.1971
    1SOL    MW4 7132   1.356   3.988   3.031  0.4400  0.1161  0.4799
    1SOL     OW 7133   1.330   4.289   3.075  0.2755 -0.2523  0.7370
    1SOL    HW2 7134   1.328   4.197   3.049 -0.7135 -0.4847  1.6019
    1SOL    HW3 7135   1.248   4.326   3.041  0.8674  0.4230  0.0166
    1SOL    MW4 7136   1.319   4.282   3.067  0.2230 -0.1941  0.7560
    1SOL     OW 7137   1.572   4.408   2.984  0.3532  0.4040 -0.3425
    1SOL    HW2 7138   1.491   4.369   3.017 -0.3659  1.4501 -0.8217
    1SOL    HW3 7139   1.576   4.494   3.028  0.9548  0.5501 -0.6783
    1SOL    MW4 7140   1.562   4.414   2.995  0.3376  0.5617 -0.4499
    1SOL     OW 7141   2.031   0.001   3.080 -0.1335 -0.1898  0.0089
    1SOL    HW2 7142   2.038   0.023   3.173 -0.2531  1.3285 -0.3347
    1SOL    HW3 7143   1.965   0.060   3.046  0.7949  0.1135 -1.2998
    1SOL    MW4 7144   2.023   0.012   3.088 -0.0269  0.0506 -0.2091
    1SOL     OW 7145   1.827   0.175   3.012  0.5311  0.1399  0.3159
    1SOL    HW2 7146   1.749   0.121   3.026 -0.2424  1.2157  0.2913
    1SOL    HW3 7147   1.830   0.190   2.917 -0.7735  2.2681  0.5565
    1SOL    MW4 7148   1.817   0.170   3.001  0.2570  0.5626  0.3440
    1SOL     OW 7149   1.765   0.417   3.150 -0.1966  0.1673  0.1659
    1SOL    HW2 7150   1.759   0.328   3.114  2.0030  1.2359 -3.0072
    1SOL    HW3 7151   1.695   0.466   3.106 -0.1133  0.5073  0.4068
    1SOL    MW4 7152   1.755   0.412   3.139  0.1044  0.3531 -0.2208
    1SOL     OW 7153   2.039   0.456   3.055 -0.1052  0.2433  0.4923
    1SOL    HW2 7154   1.956   0.426   3.092 -0.5358  0.2057 -0.4836
    1SOL    HW3 7155   2.032   0.437   2.961  1.0560  0.1252  0.4173
    1SOL    MW4 7156   2.027   0.450   3.047 -0.0088  0.2228  0.3533
    1SOL     OW 7157   2.041   0.736   3.116 -0.2400  0.0812  0.2107
    1SOL    HW2 7158   1.966   0.780   3.077  1.1939  0.4354 -2.2575
    1SOL    HW3 7159   2.037   0.646   3.082  0.2960  0.0166  0.3117
    1SOL    MW4 7160   2.031   0.730   3.106  0.0200  0.1194 -0.1016
    1SOL     OW 7161   1.794   0.872   3.034 -0.3361 -0.1968 -0.1052
    1SOL    HW2 7162   1.707   0.835   3.050 -0.4512 -0.0181 -0.3131
    1SOL    HW3 7163   1.799   0.883   2.939  0.6440 -1.9661 -0.2769
    1SOL    MW4 7164   1.783   0.868   3.024 -0.2220 -0.4067 -0.1554
    1SOL     OW 7165   1.817   1.129   3.127  0.2625  0.2331  0.1287
    1SOL    HW2 7166   1.809   1.119   3.221 -1.7060  1.3968  0.1102
    1SOL    HW3 7167   1.808   1.040   3.092 -0.0099 -0.0747  0.9817
    1SOL    MW4 7168   1.815   1.116   3.135 -0.0330  0.3459  0.2389
    1SOL     OW 7169   2.020   1.269   2.998  0.4281  0.1569  0.4264
    1SOL    HW2 7170   2.090   1.232   3.051 -0.9409 -1.4202  1.1686
    1SOL    HW3 7171   1.939   1.236   3.038 -0.6883  0.5865 -1.4194
    1SOL    MW4 7172   2.018   1.260   3.010  0.1001  0.0056  0.2806
    1SOL     OW 7173   1.997   1.523   3.097  0.0477 -0.2709 -0.3625
    1SOL    HW2 7174   1.997   1.503   3.190  1.2469  0.6905 -0.1305
    1SOL    HW3 7175   1.990   1.438   3.053  1.6421 -0.9108  0.5908
    1SOL    MW4 7176   1.996   1.509   3.103  0.4163 -0.2285 -0.2060
    1SOL     OW 7177   1.772   1.676   2.998 -0.6023  0.2154 -0.5254
    1SOL    HW2 7178   1.752   1.757   3.045  0.1983  0.6867 -0.9889
    1SOL    HW3 7179   1.847   1.639   3.044 -0.1815  0.3791 -1.0837
    1SOL    MW4 7180   1.779   1.682   3.010 -0.4411  0.2992 -0.6599
    1SOL     OW 7181   1.782   1.931   3.097 -0.6774 -0.3005 -0.2232
    1SOL    HW2 7182   1.860   1.964   3.051 -0.5382 -2.2533 -1.4304
    1SOL    HW3 7183   1.710   1.982   3.060 -0.4441 -1.1932 -1.9436
    1SOL    MW4 7184   1.783   1.942   3.086 -0.6284 -0.6758 -0.6094
    1SOL     OW 7185   2.001   2.037   2.978 -0.9490 -0.2733  0.5452
    1SOL    HW2 7186   2.079   1.993   3.012 -2.0820 -0.8921  2.4013
    1SOL    HW3 7187   2.005   2.125   3.016  0.0218  0.4501 -1.1886
    1SOL    MW4 7188   2.012   2.043   2.988 -0.9704 -0.2594  0.5615
    1SOL     OW 7189   2.040   2.318   3.022  0.3371 -0.4780 -0.8021
    1SOL    HW2 7190   2.114   2.376   3.006  1.7912 -1.6734  1.3127
    1SOL    HW3 7191   1.964   2.368   2.994  1.6921  1.8820 -0.4051
    1SOL    MW4 7192   2.040   2.332   3.016  0.7079 -0.3245 -0.4709
    1SOL     OW 7193   1.782   2.432   2.946  0.1039 -0.2779 -0.0201
    1SOL    HW2 7194   1.794   2.521   2.981  0.2917 -1.1253  2.1925
    1SOL    HW3 7195   1.702   2.401   2.989  0.8776 -1.7236  0.3898
    1SOL    MW4 7196   1.773   2.439   2.957  0.2307 -0.5805  0.3259
    1SOL     OW 7197   1.831   2.686   3.048 -0.6699 -0.1020 -0.0096
    1SOL    HW2 7198   1.808   2.696   3.141  0.5003  0.2411  0.2536
    1SOL    HW3 7199   1.906   2.744   3.036 -0.7057 -0.2845 -1.1377
    1SOL    MW4 7200   1.838   2.695   3.059 -0.5203 -0.0808 -0.1237
    1SOL     OW 7201   2.046   2.871   3.006  0.2575  0.4790 -0.1935
    1SOL    HW2 7202   2.009   2.950   3.043  0.9176  0.3459  0.7871
    1SOL    HW3 7203   2.040   2.883   2.912 -2.5175  0.3136 -0.0546
    1SOL    MW4 7204   2.041   2.883   2.999 -0.0215  0.4396 -0.0458
    1SOL     OW 7205   2.005   3.111   3.107 -0.1105 -0.6163 -0.3136
    1SOL    HW2 7206   2.015   3.125   3.201  0.8650  1.9839 -0.7725
    1SOL    HW3 7207   1.920   3.149   3.086 -0.6760 -1.8801 -0.3861
    1SOL    MW4 7208   1.995   3.118   3.116 -0.0563 -0.4401 -0.3836
    1SOL     OW 7209   1.782   3.234   3.022  0.3001  0.0625 -0.0701
    1SOL    HW2 7210   1.712   3.188   3.068  1.9560 -0.4995  1.9953
    1SOL    HW3 7211   1.778   3.202   2.932 -1.0869 -1.1275  0.4081
    1SOL    MW4 7212   1.772   3.224   3.017  0.3357 -0.1686  0.2656
    1SOL     OW 7213   1.786   3.496   3.109 -0.2258  0.0637 -0.1185
    1SOL    HW2 7214   1.774   3.412   3.065 -0.3208 -1.4074  2.6203
    1SOL    HW3 7215   1.719   3.552   3.072 -0.0602 -0.9905 -2.1095
    1SOL    MW4 7216   1.776   3.492   3.098 -0.2165 -0.2694 -0.0198
    1SOL     OW 7217   2.032   3.607   3.018  0.3475 -0.4970  0.8775
    1SOL    HW2 7218   2.032   3.701   3.038  0.2380 -0.1942 -0.4935
    1SOL    HW3 7219   1.954   3.573   3.061 -1.8283  0.7964 -1.9256
    1SOL    MW4 7220   2.022   3.615   3.026  0.0460 -0.2866  0.3271
    1SOL     OW 7221   2.042   3.876   3.119  0.3561  0.1960 -0.2894
    1SOL    HW2 7222   2.034   3.888   3.214  1.5445 -1.3550  0.0255
    1SOL    HW3 7223   1.956   3.901   3.084 -0.1498  0.5969  1.2145
    1SOL    MW4 7224   2.030   3.881   3.127  0.4461  0.0441 -0.0491
    1SOL     OW 7225   1.800   3.998   3.022 -0.1246  0.5091  0.0092
    1SOL    HW2 7226   1.799   4.085   3.061  3.3893  1.3704 -1.5889
    1SOL    HW3 7227   1.789   4.014   2.928  0.6775 -0.7182 -0.3113
    1SOL    MW4 7228   1.798   4.012   3.015  0.4449  0.4606 -0.2441
    1SOL     OW 7229   1.772   4.247   3.134  0.0562 -0.0522 -0.0467
    1SOL    HW2 7230   1.838   4.297   3.086 -0.1971 -0.2796 -0.6435
    1SOL    HW3 7231   1.688   4.282   3.103 -0.1080  0.7449  1.2529
    1SOL    MW4 7232   1.770   4.258   3.123  0.0012  0.0229  0.0458
    1SOL     OW 7233   1.986   4.385   3.017  0.5925 -0.0903 -0.1917
    1SOL    HW2 7234   1.982   4.478   3.041  0.8287  0.1291 -1.0014
    1SOL    HW3 7235   1.999   4.385   2.922 -0.7693 -0.9766 -0.3806
    1SOL    MW4 7236   1.987   4.397   3.008  0.4439 -0.1788 -0.3235
    1SOL     OW 7237   2.516   4.648   3.138 -0.1864 -0.2864  0.2523
    1SOL    HW2 7238   2.525   4.558   3.107  0.9458 -0.3489  0.7623
    1SOL    HW3 7239   2.429   4.675   3.108  0.1084 -1.0093 -1.2655
    1SOL    MW4 7240   2.506   4.640   3.130  0.0017 -0.3900  0.1192
    1SOL     OW 7241   2.287   0.081   3.010 -0.2735 -0.2150  0.7578
    1SOL    HW2 7242   2.292   0.165   3.054  0.6125  0.7896 -1.2219
    1SOL    HW3 7243   2.200   0.047   3.032 -0.5910  1.1560  1.6440
    1SOL    MW4 7244   2.276   0.087   3.019 -0.1984  0.0985  0.6132
    1SOL     OW 7245   2.277   0.341   3.131 -0.1526  0.0968  0.2744
    1SOL    HW2 7246   2.274   0.360   3.225  1.3308  0.8321  0.1987
    1SOL    HW3 7247   2.200   0.384   3.095 -1.2651 -1.0228  1.2861
    1SOL    MW4 7248   2.266   0.349   3.139 -0.1035  0.0461  0.3979
    1SOL     OW 7249   2.486   0.475   3.023  0.3859 -0.2945 -0.2425
    1SOL    HW2 7250   2.404   0.439   3.055 -0.3242  1.4590 -0.0289
    1SOL    HW3 7251   2.480   0.470   2.928 -0.9964  1.9430 -0.3172
    1SOL    MW4 7252   2.475   0.470   3.015  0.1097  0.2321 -0.2241
    1SOL     OW 7253   2.479   0.749   3.103  0.1875 -0.1634 -0.1848
    1SOL    HW2 7254   2.562   0.780   3.067 -0.1371 -0.0590 -0.8468
    1SOL    HW3 7255   2.487   0.654   3.104  0.5618 -0.1329  0.3589
    1SOL    MW4 7256   2.491   0.741   3.098  0.1938 -0.1456 -0.2003
    1SOL     OW 7257   2.236   0.897   3.022 -0.2024  0.1941 -0.4090
    1SOL    HW2 7258   2.316   0.867   3.065 -0.3815 -1.5369 -1.2430
    1SOL    HW3 7259   2.170   0.832   3.047 -1.3910  1.6715  0.3803
    1SOL    MW4 7260   2.238   0.884   3.031 -0.3829  0.1607 -0.4148
    1SOL     OW 7261   2.239   1.152   3.139  0.3258  0.4231  0.3995
    1SOL    HW2 7262   2.240   1.132   3.233 -0.1655  0.3363  0.3865
    1SOL    HW3 7263   2.242   1.066   3.096 -2.6400  0.3043  0.3446
    1SOL    MW4 7264   2.240   1.138   3.146 -0.1302  0.3961  0.3905
    1SOL     OW 7265   2.475   1.241   3.020  0.2116  0.0994  0.7030
    1SOL    HW2 7266   2.399   1.201   3.061 -0.3355  2.0079  1.6046
    1SOL    HW3 7267   2.461   1.231   2.926 -0.0512 -1.5370  0.9161
    1SOL    MW4 7268   2.463   1.235   3.013  0.1047  0.1353  0.8500
    1SOL     OW 7269   2.481   1.489   3.136  0.2751 -0.5347 -0.0080
    1SOL    HW2 7270   2.408   1.536   3.096  0.7891  0.0071 -0.3016
    1SOL    HW3 7271   2.483   1.405   3.090 -0.2226 -0.5922  0.0677
    1SOL    MW4 7272   2.472   1.484   3.125  0.2775 -0.4709 -0.0367
    1SOL     OW 7273   2.257   1.634   3.037 -0.1560  0.2190  0.6787
    1SOL    HW2 7274   2.175   1.595   3.065 -0.8248  1.6272  0.7381
    1SOL    HW3 7275   2.255   1.629   2.942 -0.8473  1.3003  0.6316
    1SOL    MW4 7276   2.246   1.628   3.028 -0.3355  0.5474  0.6804
    1SOL     OW 7277   2.216   1.897   3.071 -0.5258  0.7920 -0.7283
    1SOL    HW2 7278   2.282   1.940   3.017 -0.2156  0.6387 -0.4754
    1SOL    HW3 7279   2.232   1.803   3.060 -0.4384  0.7602 -0.3481
    1SOL    MW4 7280   2.227   1.890   3.063 -0.4733  0.7676 -0.6447
    1SOL     OW 7281   2.437   2.037   3.003 -0.0950  0.1800  0.5543
    1SOL    HW2 7282   2.487   1.982   3.062 -0.8121  0.1056  1.1049
    1SOL    HW3 7283   2.463   2.009   2.915 -2.2300 -2.7492  0.7623
    1SOL    MW4 7284   2.447   2.026   2.999 -0.4716 -0.2162  0.6545
    1SOL     OW 7285   2.457   2.317   3.072  0.1625  0.0687  0.2202
    1SOL    HW2 7286   2.447   2.299   3.165 -2.2153  0.8393  0.1506
    1SOL    HW3 7287   2.452   2.231   3.030  0.3131 -0.1955  0.7424
    1SOL    MW4 7288   2.455   2.303   3.079 -0.1314  0.1354  0.2801
    1SOL     OW 7289   2.247   2.489   2.968  0.3416 -0.0835  0.0305
    1SOL    HW2 7290   2.283   2.573   2.996  1.1978 -0.1978 -0.7092
    1SOL    HW3 7291   2.312   2.425   2.998  0.8663 -0.2761 -1.4825
    1SOL    MW4 7292   2.260   2.492   2.976  0.5238 -0.1242 -0.2668
    1SOL     OW 7293   2.302   2.742   3.060  0.3167 -0.1059 -0.2645
    1SOL    HW2 7294   2.378   2.784   3.021  0.3355 -0.3810 -0.5271
    1SOL    HW3 7295   2.232   2.807   3.053  0.7340  0.4684  0.7395
    1SOL    MW4 7296   2.302   2.756   3.054  0.3743 -0.0665 -0.1669
    1SOL     OW 7297   2.527   2.868   2.986  0.3077 -0.0323 -0.0886
    1SOL    HW2 7298   2.497   2.956   3.009  0.2493  0.0810 -0.5849
    1SOL    HW3 7299   2.514   2.862   2.891 -0.2943 -0.8029  0.0334
    1SOL    MW4 7300   2.521   2.879   2.977  0.2205 -0.1194 -0.1380
    1SOL     OW 7301   2.483   3.128   3.100 -0.2095  0.2767  0.2321
    1SOL    HW2 7302   2.560   3.169   3.060 -0.6516  0.2032 -0.7026
    1SOL    HW3 7303   2.409   3.180   3.069 -0.9518 -2.2330 -2.3690
    1SOL    MW4 7304   2.483   3.140   3.091 -0.3657 -0.0641 -0.2341
    1SOL     OW 7305   2.234   3.254   3.018  0.0160 -0.7635  0.2316
    1SOL    HW2 7306   2.218   3.327   3.077  2.2854 -0.3566  0.3951
    1SOL    HW3 7307   2.159   3.196   3.031 -0.6856  0.4399  1.7730
    1SOL    MW4 7308   2.222   3.256   3.028  0.2227 -0.5510  0.4566
    1SOL     OW 7309   2.239   3.502   3.156  0.1986 -0.4759  0.3013
    1SOL    HW2 7310   2.311   3.555   3.119 -0.4804  0.5799  0.4678
    1SOL    HW3 7311   2.160   3.537   3.114 -0.2718 -1.2713  0.5230
    1SOL    MW4 7312   2.238   3.514   3.145  0.0470 -0.4416  0.3526
    1SOL     OW 7313   2.446   3.644   3.021  0.0909 -0.1767  0.6808
    1SOL    HW2 7314   2.536   3.622   3.043  0.1782  0.6604  1.2035
    1SOL    HW3 7315   2.432   3.730   3.062 -0.5167  0.3066 -0.5223
    1SOL    MW4 7316   2.456   3.653   3.029  0.0224 -0.0026  0.5913
    1SOL     OW 7317   2.468   3.914   3.120  0.3499 -0.3068  0.1143
    1SOL    HW2 7318   2.479   3.926   3.214  0.4155  2.5132 -0.1952
    1SOL    HW3 7319   2.556   3.931   3.084 -0.0738  0.4860 -0.5720
    1SOL    MW4 7320   2.481   3.918   3.128  0.3028  0.1700 -0.0169
    1SOL     OW 7321   2.250   4.047   3.026  0.1527 -0.3515 -0.3114
    1SOL    HW2 7322   2.325   4.007   3.071 -0.0912 -0.3068  0.1362
    1SOL    HW3 7323   2.174   4.002   3.062 -0.1857  1.1085  0.8277
    1SOL    MW4 7324   2.250   4.036   3.037  0.0761 -0.1531 -0.1020
    1SOL     OW 7325   2.244   4.291   3.136 -0.1256  0.0481  0.5985
    1SOL    HW2 7326   2.246   4.206   3.092  0.5406 -0.0937  0.8863
    1SOL    HW3 7327   2.152   4.316   3.136 -0.3096 -0.6122  0.3890
    1SOL    MW4 7328   2.232   4.283   3.130 -0.0620 -0.0577  0.6089
    1SOL     OW 7329   2.523   4.386   3.045  0.0124 -0.8382  0.5062
    1SOL    HW2 7330   2.435   4.359   3.071  0.1620 -1.2763  0.5615
    1SOL    HW3 7331   2.520   4.391   2.950 -0.5465  0.7962  0.5953
    1SOL    MW4 7332   2.511   4.383   3.036 -0.0415 -0.6800  0.5252
    1SOL     OW 7333   2.953   0.029   3.087 -0.1282  0.6667 -0.2257
    1SOL    HW2 7334   3.039   0.055   3.052  0.7432 -0.6107  0.9180
    1SOL    HW3 7335   2.958  -0.066   3.092 -1.3475  0.6453  0.5526
    1SOL    MW4 7336   2.965   0.020   3.083 -0.1743  0.4950  0.0279
    1SOL     OW 7337   2.689   0.122   2.998  0.0370  0.0465  0.0979
    1SOL    HW2 7338   2.770   0.084   3.032  0.5624  1.1567  0.1216
    1SOL    HW3 7339   2.619   0.081   3.048  0.5482 -1.2836 -0.2503
    1SOL    MW4 7340   2.690   0.112   3.009  0.1736  0.0175  0.0548
    1SOL     OW 7341   2.702   0.359   3.120 -0.1121  0.2742 -0.0684
    1SOL    HW2 7342   2.707   0.279   3.068 -0.5221  0.0539  0.2202
    1SOL    HW3 7343   2.628   0.408   3.082  0.2477  0.5964 -0.3557
    1SOL    MW4 7344   2.693   0.355   3.108 -0.1187  0.2876 -0.0682
    1SOL     OW 7345   2.945   0.477   3.039  0.1588 -0.1285  0.3417
    1SOL    HW2 7346   2.862   0.440   3.068 -0.3578  1.5287  1.0546
    1SOL    HW3 7347   2.935   0.490   2.945 -0.3178 -0.1170  0.3933
    1SOL    MW4 7348   2.933   0.474   3.031  0.0277  0.0917  0.4427
    1SOL     OW 7349   2.956   0.734   3.112  0.0333  0.1137 -0.0481
    1SOL    HW2 7350   2.949   0.748   3.207 -1.9386  1.2019 -0.3252
    1SOL    HW3 7351   2.931   0.642   3.100  3.1982 -0.9216  0.7497
    1SOL    MW4 7352   2.952   0.724   3.123  0.1910  0.1206  0.0205
    1SOL     OW 7353   2.722   0.853   3.014 -0.3293  0.0051  0.7455
    1SOL    HW2 7354   2.709   0.931   3.068 -0.1406 -0.3068  1.2510
    1SOL    HW3 7355   2.807   0.819   3.042 -0.0460  0.0635 -0.0365
    1SOL    MW4 7356   2.731   0.859   3.025 -0.2668 -0.0283  0.7091
    1SOL     OW 7357   2.689   1.101   3.130 -0.0532 -0.3057  0.2977
    1SOL    HW2 7358   2.760   1.149   3.086 -0.3786 -1.4659 -1.5435
    1SOL    HW3 7359   2.609   1.135   3.089 -0.4030 -0.9374  0.4594
    1SOL    MW4 7360   2.688   1.112   3.119 -0.1421 -0.5420  0.0763
    1SOL     OW 7361   2.904   1.239   3.049  0.4185 -0.2167  0.1651
    1SOL    HW2 7362   2.992   1.204   3.062  1.5827  2.0950 -1.1459
    1SOL    HW3 7363   2.904   1.322   3.096 -1.2931 -0.4960  0.6883
    1SOL    MW4 7364   2.916   1.245   3.057  0.3464  0.0515  0.0610
    1SOL     OW 7365   2.921   1.503   3.156  0.0965  0.0311  0.3269
    1SOL    HW2 7366   2.913   1.491   3.251  1.1859 -0.0209  0.4188
    1SOL    HW3 7367   3.006   1.546   3.145 -0.1099  0.1946 -0.6138
    1SOL    MW4 7368   2.931   1.507   3.167  0.2131  0.0458  0.2151
    1SOL     OW 7369   2.700   1.628   3.041 -0.2793  0.1592  0.2374
    1SOL    HW2 7370   2.776   1.607   3.095  0.8095  0.2503 -1.2263
    1SOL    HW3 7371   2.642   1.553   3.050  0.4930 -0.4092  0.5001
    1SOL    MW4 7372   2.703   1.615   3.049 -0.0339  0.0962  0.0789
    1SOL     OW 7373   2.612   1.897   3.143  0.2266 -0.1135  0.0594
    1SOL    HW2 7374   2.691   1.928   3.099  0.3205 -0.1023  0.2386
    1SOL    HW3 7375   2.610   1.803   3.124  0.0179 -0.0259 -0.3632
    1SOL    MW4 7376   2.622   1.889   3.135  0.2115 -0.1004  0.0272
    1SOL     OW 7377   2.846   2.015   3.023  0.5605  0.1386 -0.5777
    1SOL    HW2 7378   2.851   2.105   3.057  0.3099  0.0406 -0.2836
    1SOL    HW3 7379   2.873   2.023   2.931  3.2130  0.0988  0.1472
    1SOL    MW4 7380   2.850   2.028   3.015  0.8776  0.1204 -0.4432
    1SOL     OW 7381   2.889   2.273   3.130 -0.2811  0.3670 -0.0262
    1SOL    HW2 7382   2.957   2.327   3.088 -1.0155  0.9581 -0.4802
    1SOL    HW3 7383   2.808   2.322   3.115 -0.9624 -0.8954 -0.4603
    1SOL    MW4 7384   2.887   2.287   3.123 -0.4680  0.2785 -0.1435
    1SOL     OW 7385   2.696   2.453   3.043 -0.4205  0.5507 -0.5951
    1SOL    HW2 7386   2.698   2.536   3.091 -0.0296 -1.0640  2.3638
    1SOL    HW3 7387   2.605   2.426   3.045 -0.4600  0.6608 -1.0530
    1SOL    MW4 7388   2.684   2.460   3.050 -0.3738  0.3524 -0.2651
    1SOL     OW 7389   2.678   2.706   3.149 -0.1602  0.1447 -0.1506
    1SOL    HW2 7390   2.686   2.738   3.238  2.2954  0.7246 -0.5224
    1SOL    HW3 7391   2.611   2.761   3.108  0.8239  1.8371  0.4962
    1SOL    MW4 7392   2.670   2.718   3.155  0.2933  0.4442 -0.1144
    1SOL     OW 7393   2.886   2.829   3.025  0.3763  0.2759 -0.0530
    1SOL    HW2 7394   2.962   2.786   3.064 -0.6947 -0.4804  1.2320
    1SOL    HW3 7395   2.811   2.776   3.053 -0.5522  0.4512 -2.0781
    1SOL    MW4 7396   2.886   2.816   3.034  0.1123  0.1991 -0.1504
    1SOL     OW 7397   2.904   3.087   3.124  0.3335  0.3272 -0.1263
    1SOL    HW2 7398   2.829   3.145   3.108  1.6263  1.6489 -1.5741
    1SOL    HW3 7399   2.878   3.003   3.087 -0.8003  0.5381  0.1905
    1SOL    MW4 7400   2.891   3.084   3.117  0.3543  0.5298 -0.2756
    1SOL     OW 7401   2.701   3.265   3.049 -0.2460  0.1662  0.2810
    1SOL    HW2 7402   2.702   3.360   3.061 -0.4285  0.1622  0.3281
    1SOL    HW3 7403   2.719   3.252   2.956 -2.4146  0.3267 -0.1879
    1SOL    MW4 7404   2.704   3.276   3.039 -0.5562  0.1869  0.2255
    1SOL     OW 7405   2.697   3.534   3.070  0.3666 -0.5060  0.0286
    1SOL    HW2 7406   2.699   3.528   3.166 -0.8429 -1.0642  0.0240
    1SOL    HW3 7407   2.786   3.562   3.047  0.5588  0.0423  1.3357
    1SOL    MW4 7408   2.709   3.537   3.080  0.2322 -0.5071  0.2007
    1SOL     OW 7409   2.950   3.631   3.008 -0.0794  0.0917  0.0650
    1SOL    HW2 7410   2.995   3.570   3.067 -1.2791 -0.4106  0.4751
    1SOL    HW3 7411   2.944   3.713   3.058  0.0041  0.0339  0.1676
    1SOL    MW4 7412   2.955   3.634   3.023 -0.2265  0.0179  0.1326
    1SOL     OW 7413   2.951   3.861   3.153 -0.3557 -0.1264 -0.1342
    1SOL    HW2 7414   2.955   3.850   3.248 -0.9292  0.5146 -0.0341
    1SOL    HW3 7415   2.881   3.925   3.139 -0.8672 -0.8771 -1.0421
    1SOL    MW4 7416   2.943   3.868   3.164 -0.4988 -0.1411 -0.2403
    1SOL     OW 7417   2.741   4.011   3.059 -0.2715  0.5676 -0.1489
    1SOL    HW2 7418   2.756   4.105   3.074 -0.5219  0.5817  0.0138
    1SOL    HW3 7419   2.735   4.003   2.964  0.3982  0.6191 -0.1989
    1SOL    MW4 7420   2.742   4.023   3.049 -0.2162  0.5765 -0.1340
    1SOL     OW 7421   2.749   4.271   3.131  0.2315  0.0595 -0.2523
    1SOL    HW2 7422   2.754   4.275   3.226 -0.0783  1.6388 -0.2934
    1SOL    HW3 7423   2.667   4.314   3.109  0.8663  0.7706 -1.3012
    1SOL    MW4 7424   2.739   4.277   3.141  0.2742  0.3619 -0.3960
    1SOL     OW 7425   2.945   4.430   3.025  0.1118  0.1436  0.1192
    1SOL    HW2 7426   3.011   4.368   3.057  0.4896  0.6962  0.4355
    1SOL    HW3 7427   2.861   4.395   3.055  0.3854  0.1607  0.9197
    1SOL    MW4 7428   2.943   4.418   3.034  0.1979  0.2189  0.2666
    1SOL     OW 7429   3.401   0.038   3.162 -0.2103 -0.1401 -0.2871
    1SOL    HW2 7430   3.488   0.066   3.134 -0.9338  1.6127 -0.8658
    1SOL    HW3 7431   3.390  -0.050   3.125  1.1803 -0.2423 -0.4622
    1SOL    MW4 7432   3.411   0.030   3.153 -0.1223  0.0777 -0.3865
    1SOL     OW 7433   3.191   0.110   2.987  0.1570 -0.1717 -0.3133
    1SOL    HW2 7434   3.168   0.197   3.020  0.9294  0.4055 -1.2772
    1SOL    HW3 7435   3.265   0.083   3.042  0.1081 -0.0990 -0.2102
    1SOL    MW4 7436   3.198   0.118   2.999  0.2522 -0.0860 -0.4268
    1SOL     OW 7437   3.153   0.323   3.141  0.4656  0.2267  0.0918
    1SOL    HW2 7438   3.230   0.371   3.109 -0.3223  0.5366 -1.3827
    1SOL    HW3 7439   3.079   0.380   3.120 -0.4564 -1.4644 -1.3671
    1SOL    MW4 7440   3.154   0.337   3.134  0.2398  0.0445 -0.2954
    1SOL     OW 7441   3.352   0.474   3.037 -0.1865  0.5426  0.2014
    1SOL    HW2 7442   3.438   0.436   3.051 -1.1216 -1.2730  1.1150
    1SOL    HW3 7443   3.350   0.496   2.944  0.9246 -0.2402 -0.0114
    1SOL    MW4 7444   3.363   0.472   3.027 -0.1633  0.1998  0.2942
    1SOL     OW 7445   3.400   0.748   3.133  0.3150  0.5862  0.1972
    1SOL    HW2 7446   3.403   0.752   3.228 -0.7284  1.1669  0.2127
    1SOL    HW3 7447   3.396   0.655   3.112 -0.7009  0.5035  0.7645
    1SOL    MW4 7448   3.400   0.736   3.143  0.0434  0.6519  0.2739
    1SOL     OW 7449   3.158   0.870   3.007 -0.1003 -0.2929 -0.2284
    1SOL    HW2 7450   3.231   0.825   3.050 -0.1250  0.4218  0.5835
    1SOL    HW3 7451   3.080   0.825   3.038 -0.2060  0.9813  1.4931
    1SOL    MW4 7452   3.157   0.858   3.017 -0.1173 -0.0305  0.1056
    1SOL     OW 7453   3.153   1.141   3.099  0.0230 -0.2719  0.4467
    1SOL    HW2 7454   3.238   1.180   3.080  0.0213  0.4853  1.9337
    1SOL    HW3 7455   3.164   1.048   3.080  0.7855  0.0284 -0.6322
    1SOL    MW4 7456   3.165   1.134   3.094  0.1233 -0.1324  0.5004
    1SOL     OW 7457   3.388   1.272   3.029 -0.0505 -0.1383 -0.1077
    1SOL    HW2 7458   3.462   1.237   3.078 -0.4769 -0.8117  0.0657
    1SOL    HW3 7459   3.374   1.359   3.065  0.1489 -0.3201  0.4164
    1SOL    MW4 7460   3.396   1.279   3.040 -0.0806 -0.2512 -0.0157
    1SOL     OW 7461   3.365   1.512   3.136  0.2836  0.0215  0.4532
    1SOL    HW2 7462   3.388   1.488   3.225  0.6952  0.0773  0.3620
    1SOL    HW3 7463   3.438   1.566   3.106  1.4142 -2.1729 -0.8328
    1SOL    MW4 7464   3.378   1.516   3.144  0.4871 -0.2606  0.2718
    1SOL     OW 7465   3.152   1.653   3.068 -0.0107 -0.1916 -0.0930
    1SOL    HW2 7466   3.225   1.604   3.106 -0.0812 -1.4972 -1.5775
    1SOL    HW3 7467   3.164   1.643   2.973 -0.7686  1.6017 -0.3947
    1SOL    MW4 7468   3.163   1.645   3.060 -0.1199 -0.1272 -0.3288
    1SOL     OW 7469   3.096   1.937   3.104  0.2517 -0.2740 -0.1537
    1SOL    HW2 7470   3.108   1.844   3.086 -0.2982 -0.3904  0.0635
    1SOL    HW3 7471   3.009   1.957   3.069 -0.6025 -0.3681  1.8442
    1SOL    MW4 7472   3.086   1.928   3.097  0.0663 -0.3018  0.1385
    1SOL     OW 7473   3.323   2.079   3.034  0.3234  0.2810 -0.3126
    1SOL    HW2 7474   3.396   2.024   3.060 -0.7276 -0.8000  0.4301
    1SOL    HW3 7475   3.246   2.036   3.072 -0.7225  1.2352 -1.2986
    1SOL    MW4 7476   3.322   2.066   3.042  0.0467  0.2644 -0.3445
    1SOL     OW 7477   3.353   2.344   3.104  0.4380 -0.0138  0.3029
    1SOL    HW2 7478   3.348   2.342   3.200  0.0056  0.5263  0.2964
    1SOL    HW3 7479   3.331   2.255   3.077 -1.9409  0.4453  0.6058
    1SOL    MW4 7480   3.349   2.332   3.113  0.0670  0.1180  0.3424
    1SOL     OW 7481   3.102   2.449   3.048  0.3091  0.5908  0.2476
    1SOL    HW2 7482   3.189   2.418   3.071 -0.1763 -2.0674 -1.2048
    1SOL    HW3 7483   3.104   2.457   2.952 -0.4612  2.3787  0.3663
    1SOL    MW4 7484   3.114   2.446   3.038  0.1435  0.4756  0.0718
    1SOL     OW 7485   3.121   2.711   3.108 -0.4514  0.3906 -0.7346
    1SOL    HW2 7486   3.117   2.709   3.203  0.7338  1.5387 -0.6431
    1SOL    HW3 7487   3.114   2.620   3.081  1.4768 -0.1724  0.5621
    1SOL    MW4 7488   3.120   2.699   3.117 -0.0405  0.4678 -0.5517
    1SOL     OW 7489   3.345   2.839   3.023  0.0726 -0.6431  0.3594
    1SOL    HW2 7490   3.352   2.927   3.058  1.5152 -0.2598 -0.8319
    1SOL    HW3 7491   3.262   2.806   3.057  1.1567 -0.1242  3.6380
    1SOL    MW4 7492   3.335   2.846   3.032  0.4060 -0.5240  0.6349
    1SOL     OW 7493   3.394   3.087   3.128  0.1574  0.5374  0.2511
    1SOL    HW2 7494   3.398   3.083   3.223  1.8654  0.4396  0.1858
    1SOL    HW3 7495   3.315   3.137   3.110 -1.7099 -1.7654  1.6623
    1SOL    MW4 7496   3.384   3.093   3.138  0.1364  0.2208  0.4287
    1SOL     OW 7497   3.122   3.215   3.047  0.1020  0.6156  0.1363
    1SOL    HW2 7498   3.049   3.165   3.083  0.7928 -0.2047  0.4239
    1SOL    HW3 7499   3.105   3.216   2.952 -0.6425  1.0341  0.2684
    1SOL    MW4 7500   3.110   3.208   3.039  0.0947  0.5627  0.1917
    1SOL     OW 7501   3.136   3.463   3.158  0.2985 -0.2405  0.1215
    1SOL    HW2 7502   3.203   3.519   3.117  1.1954 -0.5654  1.1028
    1SOL    HW3 7503   3.131   3.386   3.101  0.2722  0.0899 -0.3257
    1SOL    MW4 7504   3.144   3.460   3.145  0.4134 -0.2398  0.1922
    1SOL     OW 7505   3.323   3.613   3.008 -0.3854 -0.4395  0.1182
    1SOL    HW2 7506   3.405   3.569   3.032 -0.1126 -0.4523 -0.8381
    1SOL    HW3 7507   3.332   3.700   3.046 -0.8271 -1.1092  1.8151
    1SOL    MW4 7508   3.335   3.619   3.017 -0.4075 -0.5298  0.2158
    1SOL     OW 7509   3.388   3.854   3.106  0.4296  0.5701 -0.0779
    1SOL    HW2 7510   3.381   3.855   3.201  0.3178  0.7998 -0.0877
    1SOL    HW3 7511   3.316   3.910   3.076  0.4770  0.5157 -0.2952
    1SOL    MW4 7512   3.377   3.862   3.114  0.4210  0.5932 -0.1078
    1SOL     OW 7513   3.173   4.017   3.041  0.3557 -0.5471 -0.7389
    1SOL    HW2 7514   3.088   3.986   3.074  0.9407 -1.7973 -0.3845
    1SOL    HW3 7515   3.162   4.019   2.946 -0.2713 -0.1122 -0.6594
    1SOL    MW4 7516   3.160   4.013   3.033  0.3502 -0.6547 -0.6816
    1SOL     OW 7517   3.162   4.277   3.100 -0.5112 -0.1624 -0.2255
    1SOL    HW2 7518   3.148   4.277   3.195 -2.8413  0.6798 -0.5376
    1SOL    HW3 7519   3.166   4.184   3.076  0.6121 -0.3780  0.7595
    1SOL    MW4 7520   3.161   4.265   3.109 -0.6707 -0.0796 -0.1369
    1SOL     OW 7521   3.361   4.453   3.017 -0.3590 -0.5205 -0.2369
    1SOL    HW2 7522   3.443   4.413   3.047 -0.0767 -1.4988 -2.2707
    1SOL    HW3 7523   3.293   4.392   3.043 -0.4870  0.3329  1.5312
    1SOL    MW4 7524   3.363   4.440   3.024 -0.3388 -0.5369 -0.2720
    1SOL     OW 7525   3.832   0.019   3.158 -0.2358  0.2641  0.4634
    1SOL    HW2 7526   3.833  -0.063   3.109 -0.3701 -0.2017  1.2342
    1SOL    HW3 7527   3.754   0.065   3.127 -0.4086 -0.1007  0.3622
    1SOL    MW4 7528   3.822   0.015   3.148 -0.2761  0.1545  0.5519
    1SOL     OW 7529   3.625   0.136   3.028  0.2338  0.3652  0.6287
    1SOL    HW2 7530   3.628   0.230   3.050  1.9803  0.5911 -0.4649
    1SOL    HW3 7531   3.634   0.134   2.933 -0.2847 -0.9145  0.6049
    1SOL    MW4 7532   3.626   0.148   3.018  0.3960  0.2262  0.4814
    1SOL     OW 7533   3.595   0.386   3.101 -0.0679 -0.2837  0.0872
    1SOL    HW2 7534   3.610   0.371   3.194  1.7420 -1.5133 -0.3667
    1SOL    HW3 7535   3.680   0.415   3.067 -0.5405 -0.4564 -1.2988
    1SOL    MW4 7536   3.608   0.388   3.109  0.1085 -0.4687 -0.1554
    1SOL     OW 7537   3.841   0.488   3.012 -0.4894  0.1564 -0.2053
    1SOL    HW2 7538   3.918   0.446   3.050 -1.1339 -0.5596  0.2993
    1SOL    HW3 7539   3.834   0.572   3.058  0.1417  0.3497 -0.4460
    1SOL    MW4 7540   3.850   0.494   3.023 -0.4911  0.0874 -0.1702
    1SOL     OW 7541   3.825   0.749   3.150 -0.2831 -0.1478  0.0818
    1SOL    HW2 7542   3.805   0.769   3.241 -0.0245 -0.0284  0.1125
    1SOL    HW3 7543   3.901   0.803   3.130  0.5958 -1.3238  0.2488
    1SOL    MW4 7544   3.832   0.759   3.159 -0.1330 -0.2872  0.1078
    1SOL     OW 7545   3.622   0.885   3.022 -0.0204  0.7135  0.0340
    1SOL    HW2 7546   3.692   0.830   3.057  0.2876  1.3862  0.4928
    1SOL    HW3 7547   3.541   0.844   3.055  0.2430  1.0024  1.0755
    1SOL    MW4 7548   3.620   0.873   3.031  0.0548  0.8404  0.2322
    1SOL     OW 7549   3.622   1.142   3.121 -0.4449  0.3192  0.0036
    1SOL    HW2 7550   3.708   1.175   3.097  0.7873 -1.4165  1.8593
    1SOL    HW3 7551   3.615   1.057   3.077 -0.0933 -0.7450  1.9499
    1SOL    MW4 7552   3.632   1.135   3.112 -0.2360 -0.0501  0.5052
    1SOL     OW 7553   3.833   1.277   3.008  0.5052  0.0979 -0.5583
    1SOL    HW2 7554   3.817   1.365   3.042 -1.3487 -0.7509  0.8088
    1SOL    HW3 7555   3.825   1.287   2.913 -1.6452  1.0461 -0.3180
    1SOL    MW4 7556   3.830   1.290   3.000 -0.0231  0.1112 -0.3459
    1SOL     OW 7557   3.798   1.518   3.149 -0.0143  0.2523  0.1951
    1SOL    HW2 7558   3.788   1.536   3.242 -0.0388 -0.5901  0.3547
    1SOL    HW3 7559   3.739   1.580   3.106 -0.0916  0.5561  0.7385
    1SOL    MW4 7560   3.789   1.529   3.155 -0.0279  0.1811  0.2878
    1SOL     OW 7561   3.602   1.683   3.014  0.1236 -0.2120 -0.2948
    1SOL    HW2 7562   3.593   1.776   3.033  1.5542 -0.3933  1.3754
    1SOL    HW3 7563   3.590   1.677   2.919  0.5497  1.7340 -0.4950
    1SOL    MW4 7564   3.599   1.695   3.004  0.3686  0.0210 -0.1011
    1SOL     OW 7565   3.561   1.948   3.091 -0.5531 -0.2036 -0.5417
    1SOL    HW2 7566   3.562   1.944   3.186 -1.6483  0.5132 -0.4893
    1SOL    HW3 7567   3.642   1.994   3.068 -0.6462  0.2833  0.0835
    1SOL    MW4 7568   3.572   1.954   3.100 -0.7100 -0.0449 -0.4525
    1SOL     OW 7569   3.794   2.075   3.007  0.2238  0.2152  0.4114
    1SOL    HW2 7570   3.815   2.163   3.038  1.5338  0.0574  0.0104
    1SOL    HW3 7571   3.794   2.082   2.912 -1.8543  0.2608  0.3897
    1SOL    MW4 7572   3.797   2.087   2.999  0.1225  0.2003  0.3555
    1SOL     OW 7573   3.807   2.334   3.138 -0.4192  0.8745  0.0536
    1SOL    HW2 7574   3.792   2.295   3.224 -0.9850 -0.7814 -0.7730
    1SOL    HW3 7575   3.721   2.366   3.110 -0.3602  0.8455 -0.1649
    1SOL    MW4 7576   3.793   2.333   3.145 -0.4859  0.6521 -0.0844
    1SOL     OW 7577   3.584   2.422   3.016 -0.0161 -0.4539 -0.2239
    1SOL    HW2 7578   3.581   2.515   3.039 -0.4028 -0.1971 -1.2665
    1SOL    HW3 7579   3.496   2.390   3.036 -0.1551 -0.3814 -0.7084
    1SOL    MW4 7580   3.572   2.430   3.022 -0.0854 -0.4106 -0.4251
    1SOL     OW 7581   3.583   2.706   3.110  0.1807  0.0787 -0.4436
    1SOL    HW2 7582   3.663   2.750   3.079 -0.4097  2.8164  1.7345
    1SOL    HW3 7583   3.512   2.757   3.072 -0.5309  0.4646  1.3846
    1SOL    MW4 7584   3.584   2.719   3.101  0.0088  0.4909  0.0851
    1SOL     OW 7585   3.812   2.851   3.043  0.3112 -0.3695 -0.3438
    1SOL    HW2 7586   3.834   2.941   3.066 -0.1007 -0.3419 -0.0521
    1SOL    HW3 7587   3.803   2.852   2.948  0.3860 -0.1203 -0.3468
    1SOL    MW4 7588   3.813   2.863   3.033  0.2666 -0.3331 -0.3057
    1SOL     OW 7589   3.817   3.121   3.110  0.1090 -0.0587  0.3176
    1SOL    HW2 7590   3.901   3.156   3.079  0.3895 -1.4205 -0.5446
    1SOL    HW3 7591   3.751   3.174   3.066  0.5245 -0.1789 -0.4645
    1SOL    MW4 7592   3.819   3.133   3.100  0.2007 -0.2542  0.1006
    1SOL     OW 7593   3.598   3.263   3.022  0.0852  0.1532  0.4867
    1SOL    HW2 7594   3.548   3.183   3.041  1.4393 -0.4924  1.5005
    1SOL    HW3 7595   3.613   3.260   2.927  1.0828 -1.4266  0.6563
    1SOL    MW4 7596   3.594   3.252   3.012  0.3953 -0.1402  0.6428
    1SOL     OW 7597   3.562   3.522   3.109 -0.2855  0.3760  0.7181
    1SOL    HW2 7598   3.641   3.567   3.077 -0.8382  0.3539 -0.7174
    1SOL    HW3 7599   3.573   3.431   3.081 -1.0661  0.4884  0.0320
    1SOL    MW4 7600   3.574   3.516   3.101 -0.4613  0.3879  0.4385
    1SOL     OW 7601   3.791   3.635   3.018 -0.4964  0.1096  0.0434
    1SOL    HW2 7602   3.786   3.726   3.046  0.9086  0.8390 -1.9586
    1SOL    HW3 7603   3.782   3.638   2.923 -1.4861 -1.9489  0.0392
    1SOL    MW4 7604   3.789   3.647   3.010 -0.4413 -0.0658 -0.2217
    1SOL     OW 7605   3.793   3.901   3.115 -0.2401 -0.5000  0.0546
    1SOL    HW2 7606   3.790   3.900   3.211  1.8252  0.1493  0.1409
    1SOL    HW3 7607   3.713   3.947   3.090  0.2940  1.3470  1.5647
    1SOL    MW4 7608   3.782   3.907   3.124  0.1028 -0.1707  0.2651
    1SOL     OW 7609   3.579   4.067   3.009 -0.1623 -0.2321 -0.0391
    1SOL    HW2 7610   3.512   4.003   3.031 -1.6705  1.6088  0.9714
    1SOL    HW3 7611   3.589   4.060   2.914 -2.3241 -0.0886 -0.3167
    1SOL    MW4 7612   3.571   4.058   2.999 -0.6466  0.0300  0.0575
    1SOL     OW 7613   3.581   4.326   3.133  0.3043  0.1981  0.1518
    1SOL    HW2 7614   3.670   4.356   3.114  0.4910 -0.6035 -0.2707
    1SOL    HW3 7615   3.579   4.236   3.101 -1.0579  0.6293 -1.0649
    1SOL    MW4 7616   3.592   4.318   3.126  0.1490  0.1493 -0.0644
    1SOL     OW 7617   3.824   4.452   3.015 -0.1034 -0.3423 -0.2528
    1SOL    HW2 7618   3.893   4.388   3.030  0.1326  0.0498  0.3496
    1SOL    HW3 7619   3.825   4.467   2.921  0.6000 -0.3755 -0.2522
    1SOL    MW4 7620   3.833   4.446   3.005  0.0203 -0.2947 -0.1729
    1SOL     OW 7621   4.297   4.659   3.130  0.3373 -0.0394 -0.1714
    1SOL    HW2 7622   4.277   4.660   3.224  0.3997  0.8010 -0.1606
    1SOL    HW3 7623   4.279   4.570   3.102 -0.8705  0.0238  0.3927
    1SOL    MW4 7624   4.292   4.648   3.139  0.1864  0.0796 -0.0956
    1SOL     OW 7625   4.068   0.110   3.044  0.1717  0.2712 -0.1317
    1SOL    HW2 7626   4.146   0.070   3.083 -0.0078 -0.8505 -0.9092
    1SOL    HW3 7627   3.995   0.072   3.093  0.0645  0.7567  0.0937
    1SOL    MW4 7628   4.069   0.100   3.056  0.1340  0.1872 -0.2043
    1SOL     OW 7629   4.073   0.387   3.117 -0.3942 -0.2090 -0.1758
    1SOL    HW2 7630   4.148   0.442   3.095 -2.3197  1.5813 -2.3749
    1SOL    HW3 7631   4.101   0.299   3.091  0.9136  0.4449 -1.0871
    1SOL    MW4 7632   4.087   0.382   3.111 -0.4764  0.1134 -0.5863
    1SOL     OW 7633   4.313   0.526   3.033 -0.2742 -0.2302  0.1330
    1SOL    HW2 7634   4.301   0.618   3.055 -0.5318 -0.5961  1.5329
    1SOL    HW3 7635   4.314   0.525   2.937  0.9016  1.3776  0.0954
    1SOL    MW4 7636   4.312   0.538   3.023 -0.1535 -0.0663  0.3123
    1SOL     OW 7637   4.244   0.772   3.109  0.8239 -0.0001  0.0983
    1SOL    HW2 7638   4.169   0.830   3.093  1.0825 -0.2736 -2.2973
    1SOL    HW3 7639   4.319   0.818   3.071  1.5797 -0.5164  0.9319
    1SOL    MW4 7640   4.244   0.786   3.102  0.9575 -0.1043 -0.1078
    1SOL     OW 7641   4.014   0.908   3.051  0.2099  0.1631 -0.3450
    1SOL    HW2 7642   4.041   0.997   3.074 -1.0260  0.5077 -0.2393
    1SOL    HW3 7643   4.010   0.908   2.955  0.3890  0.1606 -0.3536
    1SOL    MW4 7644   4.017   0.919   3.041  0.0706  0.2082 -0.3321
    1SOL     OW 7645   4.065   1.186   3.131 -0.2092 -0.0055  0.0099
    1SOL    HW2 7646   4.043   1.186   3.225  0.0388  0.3463  0.0672
    1SOL    HW3 7647   3.984   1.213   3.088 -0.1765  0.3382  0.1591
    1SOL    MW4 7648   4.051   1.190   3.138 -0.1721  0.0863  0.0372
    1SOL     OW 7649   4.291   1.285   3.027  0.6068 -0.1671 -0.2560
    1SOL    HW2 7650   4.207   1.243   3.049  0.8606 -0.8690 -0.5944
    1SOL    HW3 7651   4.294   1.283   2.931  0.6851  0.5122 -0.2664
    1SOL    MW4 7652   4.280   1.279   3.017  0.6504 -0.1701 -0.3023
    1SOL     OW 7653   4.242   1.534   3.122 -0.3318 -0.1457  0.6132
    1SOL    HW2 7654   4.150   1.555   3.105 -0.1121  0.3483  0.0179
    1SOL    HW3 7655   4.253   1.446   3.087 -0.9987 -0.8813  2.1997
    1SOL    MW4 7656   4.231   1.525   3.115 -0.3910 -0.1776  0.7441
    1SOL     OW 7657   4.012   1.666   3.034  0.7670  0.3180 -0.6445
    1SOL    HW2 7658   4.017   1.754   3.071 -2.5328  0.2609  0.1442
    1SOL    HW3 7659   3.934   1.628   3.074  0.4070 -1.8592 -3.2529
    1SOL    MW4 7660   4.002   1.673   3.044  0.2837  0.0232 -0.8845
    1SOL     OW 7661   3.996   1.936   3.138  0.2841  0.4382 -0.2596
    1SOL    HW2 7662   4.077   1.975   3.105  0.1042  0.5855 -0.5235
    1SOL    HW3 7663   3.926   1.982   3.092  0.0830 -0.5616 -0.9552
    1SOL    MW4 7664   3.997   1.948   3.128  0.2337  0.3257 -0.3865
    1SOL     OW 7665   4.230   2.059   3.079 -0.1611 -0.2636 -0.0630
    1SOL    HW2 7666   4.238   2.144   3.121  1.0064  0.0830 -0.9908
    1SOL    HW3 7667   4.221   2.078   2.986  0.0657 -1.1489 -0.2736
    1SOL    MW4 7668   4.230   2.073   3.072  0.0229 -0.3347 -0.2131
    1SOL     OW 7669   4.258   2.338   3.138 -0.2277  0.1023 -0.2223
    1SOL    HW2 7670   4.178   2.384   3.111  0.5563  1.7310  0.1370
    1SOL    HW3 7671   4.327   2.379   3.086  0.5489 -0.4359  0.3755
    1SOL    MW4 7672   4.256   2.350   3.127 -0.0219  0.2463 -0.0961
    1SOL     OW 7673   4.027   2.439   3.044 -0.4771 -0.1154 -0.2204
    1SOL    HW2 7674   4.033   2.530   3.074  0.9785 -0.8889  2.0173
    1SOL    HW3 7675   3.960   2.400   3.100  0.8532 -1.0890  0.7158
    1SOL    MW4 7676   4.019   2.446   3.056 -0.1097 -0.3459  0.1984
    1SOL     OW 7677   4.032   2.725   3.107 -0.1510 -0.2034  0.0828
    1SOL    HW2 7678   4.025   2.735   3.202  0.3889 -0.1718  0.1170
    1SOL    HW3 7679   3.955   2.771   3.073 -0.2473 -0.0571  0.4941
    1SOL    MW4 7680   4.021   2.733   3.115 -0.0925 -0.1800  0.1416
    1SOL     OW 7681   4.267   2.848   3.013  0.3650 -0.0274 -0.0778
    1SOL    HW2 7682   4.192   2.805   3.055 -0.2415  0.9309 -0.1604
    1SOL    HW3 7683   4.342   2.793   3.035 -0.4819 -1.4337 -0.6448
    1SOL    MW4 7684   4.267   2.835   3.021  0.1731 -0.0865 -0.1638
    1SOL     OW 7685   4.296   3.121   3.101  0.1447 -0.5065  0.1542
    1SOL    HW2 7686   4.211   3.166   3.098  0.7412  0.5793 -0.6806
    1SOL    HW3 7687   4.277   3.033   3.068 -0.4739  0.0509 -1.0414
    1SOL    MW4 7688   4.282   3.115   3.096  0.1421 -0.2897 -0.1137
    1SOL     OW 7689   4.068   3.235   3.047  0.2958  0.0354  0.4104
    1SOL    HW2 7690   4.050   3.327   3.065  1.5038  0.2591  0.5293
    1SOL    HW3 7691   4.089   3.232   2.953  2.1939  0.2138  0.8048
    1SOL    MW4 7692   4.068   3.246   3.037  0.7057  0.0885  0.4780
    1SOL     OW 7693   4.042   3.497   3.103 -0.0366  0.3344 -0.1662
    1SOL    HW2 7694   4.040   3.495   3.199 -0.8497 -0.6806 -0.1923
    1SOL    HW3 7695   3.967   3.551   3.079  1.1420  1.9920 -0.2111
    1SOL    MW4 7696   4.032   3.503   3.112  0.0114  0.4191 -0.1752
    1SOL     OW 7697   4.244   3.660   2.971  0.2284  0.2217  0.2580
    1SOL    HW2 7698   4.233   3.743   3.018  1.2006 -0.8770  2.5113
    1SOL    HW3 7699   4.179   3.601   3.009 -1.1600  0.2160 -2.0499
    1SOL    MW4 7700   4.234   3.663   2.982  0.1736  0.0758  0.2506
    1SOL     OW 7701   4.232   3.886   3.119 -0.2103  0.1003  0.5596
    1SOL    HW2 7702   4.160   3.939   3.085 -0.3944 -0.0185  0.7573
    1SOL    HW3 7703   4.311   3.928   3.086 -0.4136 -0.8255 -1.2346
    1SOL    MW4 7704   4.233   3.898   3.110 -0.2613 -0.0379  0.3490
    1SOL     OW 7705   4.021   4.030   3.022 -0.0664 -0.2087  0.4150
    1SOL    HW2 7706   4.012   4.118   3.060  1.3470 -0.4123  1.2462
    1SOL    HW3 7707   3.942   3.984   3.050  0.1816  0.1575  1.7437
    1SOL    MW4 7708   4.009   4.036   3.031  0.1526 -0.1869  0.7000
    1SOL     OW 7709   4.041   4.292   3.113 -0.2934 -0.1538 -0.1081
    1SOL    HW2 7710   4.054   4.288   3.208  0.2905  0.0496 -0.1773
    1SOL    HW3 7711   4.126   4.320   3.078 -0.9564  1.2924 -0.5761
    1SOL    MW4 7712   4.054   4.295   3.121 -0.3033  0.0644 -0.1788
    1SOL     OW 7713   4.276   4.403   3.021 -0.0013  0.0558 -0.1055
    1SOL    HW2 7714   4.350   4.353   3.054  0.8472  0.6833 -1.0298
    1SOL    HW3 7715   4.270   4.380   2.929  0.1600  1.3499 -0.4587
    1SOL    MW4 7716   4.285   4.394   3.013  0.1311  0.3085 -0.2744
    1SOL     OW 7717   0.288   0.054   3.410 -0.3044 -0.4284  0.1074
    1SOL    HW2 7718   0.367   0.089   3.450 -0.0329 -0.5606 -0.3090
    1SOL    HW3 7719   0.284  -0.037   3.441  0.6076 -0.9325 -1.1688
    1SOL    MW4 7720   0.298   0.046   3.419 -0.1483 -0.5124 -0.1159
    1SOL     OW 7721   0.036   0.136   3.503  0.1454 -0.1508  0.1176
    1SOL    HW2 7722   0.015   0.221   3.462 -0.8795 -0.4813 -0.0797
    1SOL    HW3 7723   0.131   0.128   3.495  0.3000  1.1536  0.4828
    1SOL    MW4 7724   0.045   0.146   3.496  0.0305 -0.0223  0.1400
    1SOL     OW 7725   4.480   0.395   3.420 -0.3007 -0.3181 -0.2504
    1SOL    HW2 7726   4.401   0.440   3.449 -0.2749 -1.5161  1.7702
    1SOL    HW3 7727   4.552   0.449   3.454 -0.2576 -0.3122 -0.3501
    1SOL    MW4 7728   4.479   0.408   3.428 -0.2918 -0.4753  0.0029
    1SOL     OW 7729   0.245   0.537   3.513 -0.0790  0.3244  0.2076
    1SOL    HW2 7730   0.319   0.482   3.489 -0.4168  0.2119 -0.5563
    1SOL    HW3 7731   0.230   0.593   3.437 -0.5916  0.5558  0.4745
    1SOL    MW4 7732   0.253   0.537   3.500 -0.1912  0.3400  0.1421
    1SOL     OW 7733   0.199   0.777   3.364  0.3943 -0.3955 -0.2384
    1SOL    HW2 7734   0.277   0.818   3.399  0.3542  0.7613 -1.4921
    1SOL    HW3 7735   0.128   0.810   3.419  0.4465  0.6913 -0.8175
    1SOL    MW4 7736   0.200   0.787   3.376  0.3959 -0.0995 -0.4804
    1SOL     OW 7737   4.474   0.892   3.480  0.5024 -0.3179 -0.5049
    1SOL    HW2 7738   4.483   0.880   3.575  0.1707  0.5384 -0.3590
    1SOL    HW3 7739   4.478   0.987   3.468  2.0094 -0.4939 -1.5042
    1SOL    MW4 7740   4.476   0.903   3.491  0.6576 -0.2280 -0.6177
    1SOL     OW 7741   4.478   1.161   3.395 -0.2398  0.3212  0.3131
    1SOL    HW2 7742   4.559   1.196   3.431  0.9181 -3.0581  1.1263
    1SOL    HW3 7743   4.488   1.172   3.300  0.6391  1.0065  0.4791
    1SOL    MW4 7744   4.490   1.167   3.387  0.0286 -0.0342  0.4423
    1SOL     OW 7745   0.216   1.279   3.497 -0.4164  0.2203 -0.0217
    1SOL    HW2 7746   0.293   1.238   3.457 -0.6064 -0.5429  0.3967
    1SOL    HW3 7747   0.204   1.360   3.446 -1.0877 -1.0686 -1.9837
    1SOL    MW4 7748   0.225   1.284   3.485 -0.5300 -0.0504 -0.2255
    1SOL     OW 7749   0.187   1.528   3.374  0.0796 -0.0774 -0.5059
    1SOL    HW2 7750   0.268   1.560   3.414 -0.9439  0.2456  1.3982
    1SOL    HW3 7751   0.193   1.553   3.282  1.9087  0.3788 -0.2693
    1SOL    MW4 7752   0.198   1.535   3.367  0.1859  0.0255 -0.2236
    1SOL     OW 7753   0.013   1.697   3.493  0.5791  0.2571  0.0478
    1SOL    HW2 7754  -0.071   1.668   3.459 -0.0625  0.6707  1.2606
    1SOL    HW3 7755   0.077   1.639   3.451 -0.4240 -0.9873  0.2151
    1SOL    MW4 7756   0.010   1.686   3.483  0.3624  0.1476  0.2298
    1SOL     OW 7757   4.448   1.951   3.412  0.1112 -0.2946  0.3930
    1SOL    HW2 7758   4.477   1.865   3.442 -0.7970 -0.9943 -0.6955
    1SOL    HW3 7759   4.459   1.949   3.317  2.4151  1.6965  0.5680
    1SOL    MW4 7760   4.453   1.939   3.404  0.2947 -0.1242  0.2725
    1SOL     OW 7761   0.195   2.076   3.475 -0.3391  0.5497 -0.5381
    1SOL    HW2 7762   0.199   2.067   3.571  2.5533 -1.2241 -0.7469
    1SOL    HW3 7763   0.120   2.022   3.449  0.1598 -0.7181  0.5826
    1SOL    MW4 7764   0.186   2.067   3.484  0.1084  0.1485 -0.4179
    1SOL     OW 7765   0.200   2.329   3.384  0.3049  0.0097 -0.0255
    1SOL    HW2 7766   0.124   2.374   3.419 -0.1873 -0.5981 -0.3159
    1SOL    HW3 7767   0.196   2.241   3.422 -0.7199 -0.9601 -2.2633
    1SOL    MW4 7768   0.190   2.323   3.394  0.1048 -0.1981 -0.3588
    1SOL     OW 7769   4.477   2.456   3.500 -0.1200 -0.2328 -0.6661
    1SOL    HW2 7770   4.472   2.464   3.595 -0.1201  0.1322 -0.6944
    1SOL    HW3 7771   4.400   2.405   3.476 -0.2243 -0.1592 -0.4865
    1SOL    MW4 7772   4.466   2.451   3.509 -0.1335 -0.1748 -0.6464
    1SOL     OW 7773   4.483   2.700   3.368 -0.3725  0.1879 -0.0699
    1SOL    HW2 7774   4.554   2.745   3.414  0.6858 -0.6151 -0.9002
    1SOL    HW3 7775   4.468   2.620   3.419 -0.2769  0.0690 -0.2286
    1SOL    MW4 7776   4.491   2.695   3.381 -0.2203  0.0663 -0.2005
    1SOL     OW 7777   0.191   2.873   3.514 -0.1291 -0.3704 -0.0962
    1SOL    HW2 7778   0.268   2.821   3.492  0.0538  0.1439 -0.7058
    1SOL    HW3 7779   0.202   2.954   3.463 -0.0716  0.5413  1.3319
    1SOL    MW4 7780   0.203   2.877   3.504 -0.0974 -0.1824  0.0119
    1SOL     OW 7781   0.235   3.117   3.379  0.2679  0.0878 -0.1851
    1SOL    HW2 7782   0.170   3.174   3.420  1.4030  1.0030  0.3878
    1SOL    HW3 7783   0.226   3.134   3.285 -0.5293 -0.0261 -0.1280
    1SOL    MW4 7784   0.225   3.127   3.372  0.3125  0.1931 -0.1018
    1SOL     OW 7785   0.000   3.233   3.498 -0.2014 -0.1234  0.3871
    1SOL    HW2 7786  -0.078   3.186   3.469 -0.2416 -1.2543  2.2824
    1SOL    HW3 7787  -0.001   3.314   3.447 -2.2897 -0.3909 -0.0310
    1SOL    MW4 7788  -0.010   3.238   3.488 -0.4821 -0.3078  0.5822
    1SOL     OW 7789   4.474   3.475   3.378  0.0153  0.0606 -0.2625
    1SOL    HW2 7790   4.402   3.536   3.396 -1.1119 -1.3170 -0.0526
    1SOL    HW3 7791   4.482   3.474   3.283 -0.8306 -0.4424 -0.3317
    1SOL    MW4 7792   4.465   3.483   3.368 -0.2451 -0.1874 -0.2441
    1SOL     OW 7793   0.217   3.633   3.486  0.2490  0.1530  0.1822
    1SOL    HW2 7794   0.221   3.619   3.581 -1.1211  2.3036  0.5972
    1SOL    HW3 7795   0.135   3.590   3.460  0.5337 -0.2787  0.0006
    1SOL    MW4 7796   0.206   3.625   3.495  0.1058  0.3798  0.2127
    1SOL     OW 7797   0.229   3.887   3.387 -0.3615 -0.5903  0.2614
    1SOL    HW2 7798   0.151   3.935   3.414  0.4297  0.8207  0.0871
    1SOL    HW3 7799   0.208   3.795   3.403 -2.1756 -0.2497 -0.0830
    1SOL    MW4 7800   0.216   3.882   3.393 -0.4964 -0.3591  0.1924
    1SOL     OW 7801   4.482   4.010   3.473 -0.3352  0.3606 -0.0733
    1SOL    HW2 7802   4.488   4.006   3.569  0.7194 -1.3217 -0.1732
    1SOL    HW3 7803   4.468   4.102   3.453 -1.3660  0.6181  1.7490
    1SOL    MW4 7804   4.481   4.021   3.483 -0.3321  0.1721  0.1538
    1SOL     OW 7805   4.481   4.291   3.423 -0.1843 -0.1001  0.2432
    1SOL    HW2 7806   4.403   4.331   3.461 -0.6156 -0.8787  0.1926
    1SOL    HW3 7807   4.550   4.356   3.436 -0.8344  0.5886  0.2971
    1SOL    MW4 7808   4.480   4.305   3.430 -0.3271 -0.1121  0.2434
    1SOL     OW 7809   0.188   4.469   3.496  0.5157 -0.3069  0.3443
    1SOL    HW2 7810   0.184   4.447   3.590 -1.0788 -0.6613  0.2124
    1SOL    HW3 7811   0.261   4.417   3.463  2.2357  1.1551  1.7155
    1SOL    MW4 7812   0.197   4.459   3.504  0.5323 -0.1607  0.5081
    1SOL     OW 7813   0.673   4.630   3.402 -0.1421 -0.5034  0.2929
    1SOL    HW2 7814   0.750   4.677   3.433 -0.2314  0.3523 -0.7533
    1SOL    HW3 7815   0.668   4.652   3.309 -1.3730 -0.9401  0.2554
    1SOL    MW4 7816   0.683   4.639   3.394 -0.3163 -0.4478  0.1502
    1SOL     OW 7817   0.521   0.193   3.503 -0.0440 -0.7341  0.1345
    1SOL    HW2 7818   0.504   0.182   3.597 -0.1560 -0.9559  0.0878
    1SOL    HW3 7819   0.587   0.127   3.483  0.1487 -0.5323  0.1055
    1SOL    MW4 7820   0.527   0.183   3.513 -0.0334 -0.7367  0.1245
    1SOL     OW 7821   0.458   0.429   3.386 -0.0977  0.6120 -0.2723
    1SOL    HW2 7822   0.527   0.486   3.418  1.2109  0.1292 -2.1214
    1SOL    HW3 7823   0.481   0.342   3.420 -0.4818  0.6686  0.1358
    1SOL    MW4 7824   0.470   0.425   3.394  0.0243  0.5558 -0.4625
    1SOL     OW 7825   0.678   0.556   3.478  0.0640 -0.5869  0.0986
    1SOL    HW2 7826   0.671   0.561   3.573  1.4912 -0.0577  0.1837
    1SOL    HW3 7827   0.758   0.505   3.462  0.5728  0.4628 -0.8062
    1SOL    MW4 7828   0.688   0.550   3.488  0.3194 -0.3786 -0.0095
    1SOL     OW 7829   0.637   0.785   3.316  0.0320  0.0651 -0.4927
    1SOL    HW2 7830   0.568   0.828   3.366 -0.6208 -1.0612 -0.3954
    1SOL    HW3 7831   0.651   0.702   3.362  0.0948 -0.5607 -1.6251
    1SOL    MW4 7832   0.630   0.779   3.328 -0.0458 -0.1660 -0.6294
    1SOL     OW 7833   0.425   0.890   3.466 -0.3632  0.2134  0.4898
    1SOL    HW2 7834   0.432   0.894   3.562  0.2147 -0.1983  0.4688
    1SOL    HW3 7835   0.435   0.980   3.437  2.6058 -0.0426  0.6193
    1SOL    MW4 7836   0.427   0.902   3.475  0.1047  0.1253  0.5038
    1SOL     OW 7837   0.428   1.147   3.395  0.0358 -0.0947  0.7642
    1SOL    HW2 7838   0.514   1.176   3.427  0.8674 -1.4762 -0.1628
    1SOL    HW3 7839   0.437   1.147   3.299 -0.7418 -1.0118  0.6862
    1SOL    MW4 7840   0.441   1.151   3.386  0.0429 -0.3979  0.6316
    1SOL     OW 7841   0.683   1.228   3.474 -0.2774  0.8413 -0.3283
    1SOL    HW2 7842   0.760   1.200   3.425 -1.0060  0.2425 -1.1290
    1SOL    HW3 7843   0.666   1.318   3.443  0.8934  1.4788  0.8305
    1SOL    MW4 7844   0.691   1.236   3.464 -0.2190  0.8464 -0.2811
    1SOL     OW 7845   0.651   1.498   3.379 -0.2928  0.2461  0.4229
    1SOL    HW2 7846   0.704   1.557   3.432 -0.6185 -0.8217  1.9679
    1SOL    HW3 7847   0.561   1.527   3.393 -0.2930  0.7272 -0.5247
    1SOL    MW4 7848   0.646   1.509   3.388 -0.3358  0.1687  0.5016
    1SOL     OW 7849   0.424   1.632   3.455  0.5348  0.0807  0.4228
    1SOL    HW2 7850   0.425   1.645   3.550  0.5528  0.5949  0.3543
    1SOL    HW3 7851   0.428   1.721   3.419 -2.0778  0.0582 -0.0428
    1SOL    MW4 7852   0.425   1.646   3.463  0.1925  0.1456  0.3524
    1SOL     OW 7853   0.409   1.904   3.367  0.1257  0.1697  0.4493
    1SOL    HW2 7854   0.338   1.964   3.388  0.7753  1.0159  0.2534
    1SOL    HW3 7855   0.412   1.903   3.271  0.1341 -0.1638  0.4509
    1SOL    MW4 7856   0.400   1.911   3.357  0.2125  0.2372  0.4237
    1SOL     OW 7857   0.617   2.057   3.467  0.2244  0.0230  0.1965
    1SOL    HW2 7858   0.624   2.052   3.562 -0.2843 -0.0596  0.2331
    1SOL    HW3 7859   0.551   1.991   3.444  0.6022 -0.2063 -0.2440
    1SOL    MW4 7860   0.609   2.048   3.476  0.2072 -0.0181  0.1431
    1SOL     OW 7861   0.638   2.329   3.373 -0.2961 -0.0842 -0.1383
    1SOL    HW2 7862   0.733   2.341   3.378 -0.2231 -0.5377 -0.3386
    1SOL    HW3 7863   0.624   2.240   3.408 -0.8995  0.9047  2.2663
    1SOL    MW4 7864   0.649   2.319   3.379 -0.3660 -0.0138  0.1526
    1SOL     OW 7865   0.425   2.446   3.509  0.3462  0.4535  0.0975
    1SOL    HW2 7866   0.504   2.415   3.465  0.3380  1.1682 -0.4266
    1SOL    HW3 7867   0.353   2.401   3.465  0.2689  1.8558 -1.2603
    1SOL    MW4 7868   0.426   2.436   3.497  0.3349  0.7329 -0.1507
    1SOL     OW 7869   0.396   2.714   3.436 -0.2854  0.2599 -0.1368
    1SOL    HW2 7870   0.424   2.626   3.461 -0.0524  0.1869 -0.6607
    1SOL    HW3 7871   0.387   2.711   3.341  0.0070  0.8843 -0.1849
    1SOL    MW4 7872   0.398   2.702   3.427 -0.2161  0.3324 -0.2122
    1SOL     OW 7873   0.638   2.849   3.460  0.2934 -0.3238  0.0920
    1SOL    HW2 7874   0.708   2.790   3.432  0.2338  0.3369 -1.4897
    1SOL    HW3 7875   0.557   2.803   3.437  0.1492 -1.2646  2.2767
    1SOL    MW4 7876   0.636   2.835   3.454  0.2665 -0.3607  0.1717
    1SOL     OW 7877   0.662   3.121   3.363  0.4677 -0.2506  0.0015
    1SOL    HW2 7878   0.576   3.143   3.400  0.5046  1.4606 -0.8780
    1SOL    HW3 7879   0.673   3.028   3.382 -1.3661 -0.3724  0.5598
    1SOL    MW4 7880   0.652   3.111   3.371  0.2306 -0.0410 -0.0408
    1SOL     OW 7881   0.448   3.235   3.489 -0.2385 -0.1368  0.5029
    1SOL    HW2 7882   0.437   3.235   3.584  0.4467  1.2831  0.5881
    1SOL    HW3 7883   0.374   3.183   3.457 -0.5185 -0.5734  1.7956
    1SOL    MW4 7884   0.437   3.228   3.497 -0.1851 -0.0072  0.6847
    1SOL     OW 7885   0.451   3.487   3.345 -0.1826  0.0055 -0.2590
    1SOL    HW2 7886   0.469   3.397   3.373  0.9937 -0.1899 -1.5515
    1SOL    HW3 7887   0.375   3.514   3.397  0.3984 -1.1874  1.2439
    1SOL    MW4 7888   0.443   3.479   3.355  0.0492 -0.1776 -0.2313
    1SOL     OW 7889   0.640   3.623   3.483 -0.3641 -0.1341 -0.5206
    1SOL    HW2 7890   0.721   3.580   3.457  0.4606  1.7185 -1.0943
    1SOL    HW3 7891   0.572   3.582   3.430  0.3619 -0.9027 -0.8546
    1SOL    MW4 7892   0.642   3.612   3.473 -0.1595  0.0088 -0.6404
    1SOL     OW 7893   0.664   3.880   3.385 -0.2311  0.1055 -0.4577
    1SOL    HW2 7894   0.596   3.932   3.427 -1.1002 -0.7559 -0.7938
    1SOL    HW3 7895   0.646   3.790   3.413  0.1779 -0.2526 -1.3481
    1SOL    MW4 7896   0.653   3.875   3.395 -0.2918 -0.0553 -0.6194
    1SOL     OW 7897   0.453   4.033   3.490  0.2165  0.1492  0.1520
    1SOL    HW2 7898   0.429   4.123   3.471 -0.8582 -0.4510 -1.4961
    1SOL    HW3 7899   0.384   3.981   3.449  0.5447 -1.4097  1.5042
    1SOL    MW4 7900   0.440   4.038   3.482  0.1180 -0.1354  0.1128
    1SOL     OW 7901   0.403   4.302   3.415  0.1164  0.0469  0.1418
    1SOL    HW2 7902   0.490   4.301   3.454  0.3817 -1.2673 -0.4491
    1SOL    HW3 7903   0.416   4.271   3.326 -0.8874  0.3103 -0.1062
    1SOL    MW4 7904   0.416   4.298   3.409  0.0190 -0.0920  0.0312
    1SOL     OW 7905   0.665   4.366   3.493  0.1499  0.2710  0.0827
    1SOL    HW2 7906   0.748   4.329   3.462 -0.3084 -0.5398 -0.1808
    1SOL    HW3 7907   0.666   4.457   3.463  0.8334  0.1961 -0.1257
    1SOL    MW4 7908   0.676   4.373   3.485  0.1796  0.1540  0.0203
    1SOL     OW 7909   1.117   4.644   3.363 -0.1954  1.0112  0.4158
    1SOL    HW2 7910   1.202   4.683   3.381  0.3919  1.0848 -2.3190
    1SOL    HW3 7911   1.102   4.660   3.269 -3.2389  1.0484  0.8322
    1SOL    MW4 7912   1.126   4.652   3.353 -0.5195  1.0257  0.1097
    1SOL     OW 7913   0.892   0.104   3.486 -0.2748 -0.1669  0.1994
    1SOL    HW2 7914   0.902   0.116   3.580 -0.7952  1.4126  0.0689
    1SOL    HW3 7915   0.972   0.060   3.458  0.3900  0.4149  1.1948
    1SOL    MW4 7916   0.904   0.100   3.495 -0.2558  0.1183  0.3135
    1SOL     OW 7917   0.898   0.371   3.382  0.3818  0.8218  0.0044
    1SOL    HW2 7918   0.978   0.404   3.423 -0.2553 -0.0062  1.9630
    1SOL    HW3 7919   0.899   0.277   3.400 -0.2758  0.5436 -1.2984
    1SOL    MW4 7920   0.909   0.363   3.389  0.2109  0.6758  0.0908
    1SOL     OW 7921   1.124   0.500   3.466 -0.0146  0.2581 -0.5487
    1SOL    HW2 7922   1.116   0.502   3.562  0.0430 -0.3174 -0.5315
    1SOL    HW3 7923   1.115   0.591   3.440  0.3347  0.4648  0.0354
    1SOL    MW4 7924   1.122   0.512   3.475  0.0390  0.2095 -0.4694
    1SOL     OW 7925   1.110   0.753   3.362  0.3808  0.0961  0.3008
    1SOL    HW2 7926   1.180   0.804   3.402 -0.1226 -0.1737  1.5376
    1SOL    HW3 7927   1.030   0.781   3.407 -0.0590 -0.9308  0.1721
    1SOL    MW4 7928   1.109   0.763   3.373  0.2563 -0.0750  0.4470
    1SOL     OW 7929   0.875   0.880   3.446  0.3671 -0.5773 -0.1715
    1SOL    HW2 7930   0.886   0.966   3.405  1.5625 -0.9356 -0.6367
    1SOL    HW3 7931   0.808   0.837   3.394  0.7826 -0.4524 -0.8167
    1SOL    MW4 7932   0.868   0.886   3.434  0.5797 -0.6081 -0.3181
    1SOL     OW 7933   0.930   1.145   3.342 -0.2927  0.1241  0.0658
    1SOL    HW2 7934   1.004   1.197   3.372 -0.3657 -0.8717  2.0358
    1SOL    HW3 7935   0.935   1.150   3.247  1.6540  0.9783  0.1793
    1SOL    MW4 7936   0.940   1.153   3.333 -0.0455  0.1055  0.3409
    1SOL     OW 7937   1.113   1.301   3.465  0.4817 -0.1642  0.3635
    1SOL    HW2 7938   1.099   1.302   3.560  1.1419 -0.6135  0.4593
    1SOL    HW3 7939   1.074   1.384   3.435 -0.2235 -0.2761  0.9508
    1SOL    MW4 7940   1.106   1.312   3.473  0.4758 -0.2383  0.4535
    1SOL     OW 7941   1.036   1.537   3.351  0.2735 -0.2723  0.1021
    1SOL    HW2 7942   1.120   1.578   3.373  0.8477 -1.6825  0.5906
    1SOL    HW3 7943   1.029   1.547   3.256 -0.1865  2.0186  0.3350
    1SOL    MW4 7944   1.046   1.544   3.341  0.2885 -0.1562  0.1974
    1SOL     OW 7945   0.835   1.659   3.510 -0.5057  0.0131  0.2215
    1SOL    HW2 7946   0.842   1.754   3.504 -0.5857 -0.0099 -0.2474
    1SOL    HW3 7947   0.909   1.626   3.459 -1.3374 -0.1868 -0.8597
    1SOL    MW4 7948   0.846   1.667   3.503 -0.6260 -0.0163  0.0172
    1SOL     OW 7949   0.867   1.936   3.387  0.0615 -0.0907 -0.2404
    1SOL    HW2 7950   0.944   1.985   3.417  0.0066  0.2674 -0.6745
    1SOL    HW3 7951   0.792   1.989   3.414  0.0012  0.0533 -0.6847
    1SOL    MW4 7952   0.867   1.950   3.394  0.0463 -0.0244 -0.3562
    1SOL     OW 7953   1.093   2.051   3.470  0.5874  0.4108  0.7941
    1SOL    HW2 7954   1.163   2.017   3.415 -0.3082  0.9126 -0.6771
    1SOL    HW3 7955   1.100   2.146   3.463 -1.1782  0.4676 -0.6074
    1SOL    MW4 7956   1.103   2.059   3.462  0.2363  0.4849  0.4151
    1SOL     OW 7957   1.140   2.319   3.374 -0.1790 -0.1773  0.3924
    1SOL    HW2 7958   1.224   2.357   3.401 -0.1858 -0.5901  0.9951
    1SOL    HW3 7959   1.138   2.330   3.279  0.4435  0.0676  0.4074
    1SOL    MW4 7960   1.151   2.326   3.365 -0.0978 -0.1996  0.4740
    1SOL     OW 7961   0.892   2.408   3.460 -0.0212 -0.2726 -0.4077
    1SOL    HW2 7962   0.881   2.392   3.554 -0.4737  2.3534  0.0373
    1SOL    HW3 7963   0.984   2.390   3.443  0.3460  0.4032  0.8107
    1SOL    MW4 7964   0.903   2.404   3.470 -0.0324  0.1628 -0.1884
    1SOL     OW 7965   0.853   2.674   3.374  0.0219 -0.4388  0.0883
    1SOL    HW2 7966   0.939   2.710   3.395  0.4440 -0.4058 -1.5876
    1SOL    HW3 7967   0.857   2.582   3.401  0.8993 -0.6611 -0.7767
    1SOL    MW4 7968   0.865   2.666   3.380  0.1934 -0.4640 -0.2468
    1SOL     OW 7969   1.108   2.768   3.412  0.0655 -0.1071 -0.6288
    1SOL    HW2 7970   1.102   2.781   3.507  1.0455 -1.1248 -0.4226
    1SOL    HW3 7971   1.195   2.730   3.398  0.1392  0.5053 -1.9923
    1SOL    MW4 7972   1.119   2.765   3.423  0.2043 -0.1607 -0.7815
    1SOL     OW 7973   1.089   3.052   3.378  0.1738 -0.8366 -0.8118
    1SOL    HW2 7974   1.099   2.957   3.378 -1.5311 -1.0290 -0.8479
    1SOL    HW3 7975   1.087   3.076   3.286 -2.4056 -1.1275 -0.8654
    1SOL    MW4 7976   1.090   3.043   3.366 -0.3915 -0.9003 -0.8235
    1SOL     OW 7977   0.887   3.236   3.492  0.5048 -0.0333 -0.1763
    1SOL    HW2 7978   0.960   3.191   3.451 -0.0309  0.2527 -1.4592
    1SOL    HW3 7979   0.809   3.192   3.456 -0.0196  1.8005 -1.3183
    1SOL    MW4 7980   0.886   3.224   3.482  0.3649  0.2468 -0.4961
    1SOL     OW 7981   0.884   3.523   3.389  0.2729 -0.4353 -0.1324
    1SOL    HW2 7982   0.877   3.437   3.431 -0.7105 -0.2778  0.0267
    1SOL    HW3 7983   0.879   3.504   3.295 -0.7829 -0.4738 -0.0710
    1SOL    MW4 7984   0.883   3.509   3.382  0.0039 -0.4194 -0.1032
    1SOL     OW 7985   1.128   3.613   3.471 -0.0608  0.3053  0.1269
    1SOL    HW2 7986   1.129   3.597   3.566  0.0916  2.4701  0.5279
    1SOL    HW3 7987   1.036   3.604   3.446  0.1402 -2.0188  0.1338
    1SOL    MW4 7988   1.116   3.610   3.480 -0.0142  0.2842  0.1810
    1SOL     OW 7989   1.136   3.897   3.411 -0.2464 -0.3870 -0.3159
    1SOL    HW2 7990   1.210   3.946   3.447  0.3519 -1.1746 -0.4477
    1SOL    HW3 7991   1.133   3.816   3.463  0.1851 -1.2073 -1.5223
    1SOL    MW4 7992   1.146   3.892   3.422 -0.1105 -0.5989 -0.4926
    1SOL     OW 7993   0.896   4.031   3.443  0.0717  0.1109 -0.1776
    1SOL    HW2 7994   0.978   3.986   3.422  0.5729  1.4508 -1.1643
    1SOL    HW3 7995   0.827   3.971   3.415  0.7327  0.1657 -1.9712
    1SOL    MW4 7996   0.898   4.017   3.437  0.2251  0.2952 -0.5443
    1SOL     OW 7997   0.910   4.290   3.393 -0.2802 -0.1310  0.2688
    1SOL    HW2 7998   0.908   4.195   3.404  0.7444 -0.0415  1.2691
    1SOL    HW3 7999   0.925   4.302   3.299 -1.1416 -0.9484  0.0183
    1SOL    MW4 8000   0.912   4.279   3.382 -0.2587 -0.2275  0.3674
    1SOL     OW 8001   1.122   4.418   3.500 -0.5265 -0.0148 -0.4405
    1SOL    HW2 8002   1.050   4.370   3.459 -1.2170 -0.0675  0.8157
    1SOL    HW3 8003   1.123   4.503   3.456 -0.6897 -0.3860 -1.1717
    1SOL    MW4 8004   1.112   4.423   3.489 -0.6392 -0.0706 -0.3710
    1SOL     OW 8005   1.588   4.621   3.367 -0.4836  0.1850  0.4835
    1SOL    HW2 8006   1.588   4.541   3.420 -1.4547 -0.0537  0.1411
    1SOL    HW3 8007   1.510   4.668   3.396 -0.9311  0.1366 -0.6018
    1SOL    MW4 8008   1.578   4.617   3.378 -0.6709  0.1469  0.2954
    1SOL     OW 8009   1.348   0.089   3.463 -0.3360  0.0921 -0.5193
    1SOL    HW2 8010   1.355   0.083   3.558  2.3633 -1.9591 -0.7919
    1SOL    HW3 8011   1.345   0.183   3.445 -0.0094  0.5196  1.5342
    1SOL    MW4 8012   1.348   0.101   3.473  0.0632 -0.1222 -0.2844
    1SOL     OW 8013   1.353   0.358   3.370  0.1569 -0.4057 -0.6548
    1SOL    HW2 8014   1.433   0.398   3.406 -0.7726 -0.0017  0.9539
    1SOL    HW3 8015   1.282   0.409   3.407 -0.9319 -1.7225 -0.9272
    1SOL    MW4 8016   1.354   0.370   3.379 -0.1094 -0.5261 -0.4783
    1SOL     OW 8017   1.571   0.494   3.468 -0.0238 -0.0527 -0.3673
    1SOL    HW2 8018   1.555   0.474   3.560  0.8936  0.2047 -0.1408
    1SOL    HW3 8019   1.664   0.474   3.455  0.1066  0.8786 -0.9711
    1SOL    MW4 8020   1.581   0.489   3.478  0.1146  0.1041 -0.4170
    1SOL     OW 8021   1.550   0.738   3.331 -0.1611  0.2713  0.1175
    1SOL    HW2 8022   1.478   0.781   3.379 -1.2308 -0.0149 -1.2014
    1SOL    HW3 8023   1.563   0.655   3.377 -1.5979 -0.2779 -0.4326
    1SOL    MW4 8024   1.542   0.733   3.343 -0.4917  0.1611 -0.1295
    1SOL     OW 8025   1.347   0.895   3.455 -0.1449  0.1457  0.4621
    1SOL    HW2 8026   1.353   0.894   3.551 -0.7629 -1.6133  0.5059
    1SOL    HW3 8027   1.352   0.988   3.432  1.2846  0.5121  2.1103
    1SOL    MW4 8028   1.348   0.907   3.465 -0.0379 -0.0381  0.6852
    1SOL     OW 8029   1.333   1.163   3.353 -0.2391 -0.2724  0.0859
    1SOL    HW2 8030   1.414   1.202   3.386 -0.2872 -0.4569  0.4265
    1SOL    HW3 8031   1.264   1.213   3.397 -0.3802  2.0529 -2.6216
    1SOL    MW4 8032   1.334   1.175   3.363 -0.2640  0.0101 -0.2263
    1SOL     OW 8033   1.558   1.296   3.459 -0.1000  0.6263  0.0728
    1SOL    HW2 8034   1.552   1.272   3.552  0.6702  1.2080  0.2803
    1SOL    HW3 8035   1.638   1.252   3.429  0.2315  1.3061 -0.0429
    1SOL    MW4 8036   1.568   1.287   3.468  0.0453  0.7926  0.0851
    1SOL     OW 8037   1.510   1.549   3.369 -0.6840 -0.4527  0.3396
    1SOL    HW2 8038   1.512   1.458   3.401 -0.0335 -0.3848  0.4817
    1SOL    HW3 8039   1.514   1.540   3.274 -2.3365 -0.6414  0.2591
    1SOL    MW4 8040   1.511   1.536   3.360 -0.8162 -0.4686  0.3476
    1SOL     OW 8041   1.263   1.652   3.442  0.1595 -0.1184 -0.2810
    1SOL    HW2 8042   1.258   1.643   3.537  1.1561  1.8014 -0.0320
    1SOL    HW3 8043   1.350   1.617   3.419  0.1008 -0.1602 -0.4448
    1SOL    MW4 8044   1.274   1.646   3.451  0.2832  0.1293 -0.2699
    1SOL     OW 8045   1.298   1.919   3.335 -0.2596  0.1357 -0.1764
    1SOL    HW2 8046   1.379   1.952   3.373  0.8731 -1.4292 -1.1140
    1SOL    HW3 8047   1.288   1.831   3.372 -0.4044 -0.4795 -1.6213
    1SOL    MW4 8048   1.308   1.912   3.345 -0.1292 -0.1520 -0.4907
    1SOL     OW 8049   1.505   2.041   3.454  0.0254  0.4526  0.0867
    1SOL    HW2 8050   1.583   1.990   3.432  0.2612  0.7688  0.1802
    1SOL    HW3 8051   1.524   2.129   3.421 -0.8658  0.1970 -1.1393
    1SOL    MW4 8052   1.518   2.046   3.447 -0.0610  0.4606 -0.0625
    1SOL     OW 8053   1.558   2.285   3.343  0.2699 -0.0306 -0.4422
    1SOL    HW2 8054   1.493   2.337   3.389  1.1807 -0.2574  1.1654
    1SOL    HW3 8055   1.546   2.306   3.251 -0.0466  2.2426  0.0884
    1SOL    MW4 8056   1.548   2.294   3.337  0.3482  0.2396 -0.1602
    1SOL     OW 8057   1.370   2.441   3.471  0.2365 -0.1561 -0.4160
    1SOL    HW2 8058   1.376   2.454   3.566 -0.1611  0.1597 -0.4324
    1SOL    HW3 8059   1.365   2.529   3.435  2.1842 -0.2228 -0.8653
    1SOL    MW4 8060   1.370   2.454   3.479  0.4411 -0.1230 -0.4773
    1SOL     OW 8061   1.368   2.682   3.351  0.1223 -0.0809  0.6376
    1SOL    HW2 8062   1.428   2.753   3.375  1.5551 -1.1420  0.2397
    1SOL    HW3 8063   1.368   2.681   3.256  0.6226 -1.0272  0.6394
    1SOL    MW4 8064   1.376   2.691   3.342  0.3773 -0.3459  0.5853
    1SOL     OW 8065   1.545   2.860   3.450 -0.4391  0.3045 -0.3131
    1SOL    HW2 8066   1.633   2.833   3.424 -0.5739 -0.6068  0.1394
    1SOL    HW3 8067   1.536   2.949   3.417  0.4633  0.2154 -0.8108
    1SOL    MW4 8068   1.555   2.868   3.442 -0.3378  0.1726 -0.3190
    1SOL     OW 8069   1.505   3.110   3.360  0.0113 -0.5542  0.7666
    1SOL    HW2 8070   1.585   3.163   3.368  0.2537 -0.3682 -2.1409
    1SOL    HW3 8071   1.436   3.164   3.398  0.8125  0.4766  0.7786
    1SOL    MW4 8072   1.507   3.124   3.366  0.1489 -0.3941  0.3846
    1SOL     OW 8073   1.286   3.227   3.490 -0.1828  0.3183  0.0922
    1SOL    HW2 8074   1.299   3.222   3.585  0.1043  0.4684  0.0622
    1SOL    HW3 8075   1.221   3.160   3.471  0.2260 -0.1450  0.3093
    1SOL    MW4 8076   1.279   3.218   3.500 -0.0910  0.2770  0.1171
    1SOL     OW 8077   1.353   3.469   3.383 -0.1788  0.0076  0.3788
    1SOL    HW2 8078   1.336   3.380   3.413 -1.5055  0.1152 -0.0167
    1SOL    HW3 8079   1.281   3.520   3.418 -0.1239  0.6876 -0.4873
    1SOL    MW4 8080   1.342   3.464   3.391 -0.3465  0.1118  0.2122
    1SOL     OW 8081   1.583   3.599   3.489  0.0271 -0.3512  0.5231
    1SOL    HW2 8082   1.576   3.594   3.585  0.3233  0.0319  0.5631
    1SOL    HW3 8083   1.504   3.555   3.458 -0.1905 -0.2663  0.9483
    1SOL    MW4 8084   1.571   3.592   3.498  0.0376 -0.2894  0.5846
    1SOL     OW 8085   1.568   3.868   3.428  0.1512  0.3290  0.4082
    1SOL    HW2 8086   1.587   3.781   3.462  1.1730  0.8082  1.0781
    1SOL    HW3 8087   1.562   3.856   3.333 -1.6407 -0.8109  0.6293
    1SOL    MW4 8088   1.569   3.855   3.420  0.0496  0.2422  0.5260
    1SOL     OW 8089   1.348   4.019   3.507  0.5602  0.5315 -0.1403
    1SOL    HW2 8090   1.346   4.093   3.447  2.1770  0.4344 -0.3409
    1SOL    HW3 8091   1.426   3.970   3.482 -0.7760 -1.5425 -0.3739
    1SOL    MW4 8092   1.358   4.022   3.496  0.5971  0.2451 -0.1974
    1SOL     OW 8093   1.354   4.282   3.361  0.0203  0.2434 -0.0081
    1SOL    HW2 8094   1.287   4.332   3.407 -0.9145 -2.1883  1.3764
    1SOL    HW3 8095   1.339   4.300   3.268 -1.2926  1.2704  0.3902
    1SOL    MW4 8096   1.343   4.291   3.355 -0.2761  0.0582  0.2270
    1SOL     OW 8097   1.573   4.370   3.498  0.2896 -0.2655  0.3161
    1SOL    HW2 8098   1.658   4.340   3.467  0.3681  0.2909 -0.0189
    1SOL    HW3 8099   1.511   4.340   3.432  0.4793  1.0821 -0.5070
    1SOL    MW4 8100   1.576   4.362   3.485  0.3250 -0.0143  0.1633
    1SOL     OW 8101   2.067   4.654   3.364 -0.1930  0.2403 -0.4208
    1SOL    HW2 8102   2.132   4.702   3.415 -0.1544  0.8018 -0.9886
    1SOL    HW3 8103   1.983   4.679   3.403 -0.1038 -0.0573 -0.0383
    1SOL    MW4 8104   2.064   4.664   3.376 -0.1757  0.2751 -0.4451
    1SOL     OW 8105   1.824   0.098   3.435 -0.3940 -0.0399  0.6415
    1SOL    HW2 8106   1.828   0.098   3.530  0.6213 -0.5936  0.6070
    1SOL    HW3 8107   1.745   0.047   3.414  0.2101 -1.2171  1.1682
    1SOL    MW4 8108   1.814   0.091   3.444 -0.1804 -0.2683  0.7067
    1SOL     OW 8109   1.833   0.380   3.410  0.1411 -0.1328 -0.6051
    1SOL    HW2 8110   1.840   0.284   3.418  1.7177 -0.0722 -1.2274
    1SOL    HW3 8111   1.803   0.395   3.321 -0.6535 -0.0558 -0.3326
    1SOL    MW4 8112   1.830   0.369   3.400  0.2444 -0.1146 -0.6514
    1SOL     OW 8113   2.026   0.525   3.521 -0.1281 -0.1538  0.0418
    1SOL    HW2 8114   2.021   0.615   3.487 -0.3663 -0.4242 -0.6490
    1SOL    HW3 8115   1.972   0.474   3.461 -1.6268 -0.4224  1.5826
    1SOL    MW4 8116   2.018   0.530   3.508 -0.3572 -0.2248  0.1543
    1SOL     OW 8117   1.978   0.760   3.383  0.2250 -0.3056  0.7211
    1SOL    HW2 8118   2.057   0.790   3.428 -0.2673  0.0962  1.3402
    1SOL    HW3 8119   2.006   0.742   3.294  0.9788  0.0015  0.8928
    1SOL    MW4 8120   1.992   0.762   3.377  0.2595 -0.2121  0.8256
    1SOL     OW 8121   1.749   0.886   3.450  0.3108 -0.0186 -0.1638
    1SOL    HW2 8122   1.829   0.845   3.419  0.1074 -0.6356  0.1237
    1SOL    HW3 8123   1.678   0.833   3.415 -0.0582  1.6792 -2.0904
    1SOL    MW4 8124   1.750   0.874   3.442  0.2354  0.1240 -0.3800
    1SOL     OW 8125   1.780   1.159   3.393 -0.4638  0.2912  0.6855
    1SOL    HW2 8126   1.850   1.198   3.446  1.2386 -0.8139 -0.6858
    1SOL    HW3 8127   1.766   1.073   3.432 -0.1664  0.0078  0.1559
    1SOL    MW4 8128   1.787   1.153   3.405 -0.1999  0.1081  0.4349
    1SOL     OW 8129   2.011   1.255   3.489  0.1883 -0.1030 -0.0599
    1SOL    HW2 8130   2.020   1.269   3.583 -0.4595 -1.8197  0.2702
    1SOL    HW3 8131   2.011   1.343   3.452 -1.2173  0.6645  1.6912
    1SOL    MW4 8132   2.013   1.269   3.497 -0.0825 -0.2282  0.2148
    1SOL     OW 8133   2.008   1.493   3.377  0.0823 -0.0192  0.4534
    1SOL    HW2 8134   2.088   1.540   3.400 -0.1034  0.4804  0.0945
    1SOL    HW3 8135   1.937   1.549   3.409 -0.1869  0.8120 -1.5307
    1SOL    MW4 8136   2.009   1.507   3.384  0.0222  0.1564  0.1445
    1SOL     OW 8137   1.774   1.647   3.449  0.1295  0.2569  0.0675
    1SOL    HW2 8138   1.776   1.742   3.443 -0.5539  0.2876  0.2858
    1SOL    HW3 8139   1.684   1.623   3.427  0.4076 -0.3717 -0.4145
    1SOL    MW4 8140   1.763   1.656   3.446  0.0759  0.1780  0.0327
    1SOL     OW 8141   1.766   1.920   3.377 -0.8648 -0.1521 -0.0844
    1SOL    HW2 8142   1.838   1.962   3.424 -0.0170 -0.4376 -1.1271
    1SOL    HW3 8143   1.784   1.937   3.285 -2.5006  0.3638 -0.3260
    1SOL    MW4 8144   1.778   1.928   3.371 -0.9687 -0.1217 -0.2539
    1SOL     OW 8145   2.022   2.054   3.412  0.1740 -0.1313 -0.4916
    1SOL    HW2 8146   2.107   2.016   3.392  0.3563  0.3025 -0.5349
    1SOL    HW3 8147   2.017   2.132   3.357  0.2902  0.5539  0.4686
    1SOL    MW4 8148   2.032   2.059   3.402  0.2134  0.0162 -0.3703
    1SOL     OW 8149   2.005   2.318   3.311 -0.0259 -0.0536 -0.6311
    1SOL    HW2 8150   2.082   2.346   3.359 -0.2289  1.0653 -0.9428
    1SOL    HW3 8151   2.026   2.335   3.219 -0.7906  0.6429 -0.6879
    1SOL    MW4 8152   2.018   2.324   3.305 -0.1535  0.1862 -0.6800
    1SOL     OW 8153   1.761   2.469   3.320  0.0872 -0.4543 -0.3335
    1SOL    HW2 8154   1.828   2.402   3.319 -0.5489 -1.1263  0.8368
    1SOL    HW3 8155   1.678   2.421   3.326 -0.6784  0.2566 -3.8715
    1SOL    MW4 8156   1.759   2.454   3.320 -0.0978 -0.4489 -0.6461
    1SOL     OW 8157   1.772   2.751   3.320  0.6276 -0.0381 -0.0297
    1SOL    HW2 8158   1.857   2.780   3.354  1.3437  0.2444 -2.0030
    1SOL    HW3 8159   1.769   2.658   3.342  0.5326  0.3815  1.8513
    1SOL    MW4 8160   1.783   2.742   3.328  0.7097  0.0546 -0.0420
    1SOL     OW 8161   2.025   2.847   3.409 -0.2106  0.0863 -0.2595
    1SOL    HW2 8162   2.000   2.831   3.500 -1.8888 -0.1417 -0.7508
    1SOL    HW3 8163   2.020   2.942   3.399  0.1724  0.1270 -0.0566
    1SOL    MW4 8164   2.021   2.858   3.420 -0.3815  0.0618 -0.2978
    1SOL     OW 8165   1.996   3.128   3.383  0.4626  0.3411 -0.6784
    1SOL    HW2 8166   2.059   3.171   3.441 -1.2333 -0.3833  1.7245
    1SOL    HW3 8167   1.911   3.160   3.410 -0.3580  0.2957 -3.0542
    1SOL    MW4 8168   1.993   3.138   3.394  0.1307  0.2394 -0.6750
    1SOL     OW 8169   1.742   3.232   3.427  0.0465  0.1740 -0.2633
    1SOL    HW2 8170   1.757   3.226   3.521 -2.2588 -1.1215  0.0476
    1SOL    HW3 8171   1.783   3.315   3.402 -0.7300  1.3254  2.1548
    1SOL    MW4 8172   1.750   3.242   3.436 -0.3600  0.1550  0.0966
    1SOL     OW 8173   1.811   3.493   3.384 -0.3159  0.0169 -0.0732
    1SOL    HW2 8174   1.733   3.521   3.430  0.5773 -0.4773  1.7850
    1SOL    HW3 8175   1.785   3.490   3.292 -2.7611 -1.0932  0.6105
    1SOL    MW4 8176   1.798   3.496   3.378 -0.5206 -0.1945  0.2623
    1SOL     OW 8177   2.010   3.615   3.532  0.2559 -0.2156 -0.2758
    1SOL    HW2 8178   2.100   3.588   3.511 -0.0601 -1.0577 -0.5642
    1SOL    HW3 8179   1.955   3.558   3.478 -0.4066  1.5584 -1.5068
    1SOL    MW4 8180   2.015   3.604   3.522  0.1266 -0.0930 -0.4764
    1SOL     OW 8181   2.022   3.879   3.424  0.4316 -0.0884  0.1825
    1SOL    HW2 8182   1.946   3.920   3.465 -0.8955 -1.2294 -1.0793
    1SOL    HW3 8183   2.010   3.785   3.438  0.9717 -0.3644 -1.0645
    1SOL    MW4 8184   2.010   3.872   3.431  0.3278 -0.2751 -0.1488
    1SOL     OW 8185   1.801   4.004   3.495 -0.6410  0.0404 -0.0051
    1SOL    HW2 8186   1.797   4.001   3.591 -1.1776 -1.6492 -0.0720
    1SOL    HW3 8187   1.730   3.948   3.466 -0.5162  0.5860 -1.4128
    1SOL    MW4 8188   1.791   3.996   3.504 -0.6953 -0.1106 -0.1998
    1SOL     OW 8189   1.808   4.263   3.404  0.3382 -0.0472  0.2096
    1SOL    HW2 8190   1.821   4.174   3.437 -0.6148  0.2079  1.2991
    1SOL    HW3 8191   1.790   4.252   3.310 -0.7538 -1.0736  0.5397
    1SOL    MW4 8192   1.807   4.250   3.396  0.0684 -0.1488  0.3970
    1SOL     OW 8193   2.036   4.400   3.476 -0.1539  0.1044 -0.4952
    1SOL    HW2 8194   1.948   4.375   3.447  0.2391 -0.3739 -1.2644
    1SOL    HW3 8195   2.048   4.488   3.442 -0.9108  0.7465  0.8623
    1SOL    MW4 8196   2.026   4.408   3.468 -0.2022  0.1264 -0.4177
    1SOL     OW 8197   2.498   0.012   3.407  0.5798 -0.3293 -0.1737
    1SOL    HW2 8198   2.512  -0.080   3.430  0.6494 -0.6436 -1.3977
    1SOL    HW3 8199   2.503   0.013   3.311 -0.8843  0.7029 -0.2608
    1SOL    MW4 8200   2.500  -0.000   3.397  0.3958 -0.2346 -0.3467
    1SOL     OW 8201   2.265   0.140   3.500  0.4960 -0.2418 -0.1611
    1SOL    HW2 8202   2.261   0.230   3.468  1.8318  0.3008  1.1432
    1SOL    HW3 8203   2.346   0.105   3.464  0.0734 -0.8765 -0.5145
    1SOL    MW4 8204   2.275   0.147   3.491  0.6166 -0.2540 -0.0355
    1SOL     OW 8205   2.232   0.402   3.398  0.1936 -0.0622  0.0175
    1SOL    HW2 8206   2.307   0.453   3.430  0.3665 -0.4989  0.3052
    1SOL    HW3 8207   2.159   0.431   3.451 -0.0211  0.9740 -0.8204
    1SOL    MW4 8208   2.232   0.413   3.409  0.1881  0.0169 -0.0553
    1SOL     OW 8209   2.478   0.532   3.506  0.0202  0.4496  0.1029
    1SOL    HW2 8210   2.567   0.509   3.478  0.0061  0.4822  0.0314
    1SOL    HW3 8211   2.465   0.621   3.474  0.0854  0.5685  0.4093
    1SOL    MW4 8212   2.488   0.541   3.498  0.0267  0.4696  0.1340
    1SOL     OW 8213   2.459   0.781   3.384 -0.3312  0.2507 -0.1049
    1SOL    HW2 8214   2.540   0.819   3.418 -0.6662  0.7960  0.0946
    1SOL    HW3 8215   2.474   0.772   3.290 -0.4022  1.3001 -0.2282
    1SOL    MW4 8216   2.471   0.785   3.377 -0.3848  0.4612 -0.0951
    1SOL     OW 8217   2.213   0.870   3.511  0.3381  0.2794  0.4719
    1SOL    HW2 8218   2.223   0.965   3.499  0.5555  0.5179  2.4160
    1SOL    HW3 8219   2.294   0.833   3.474  0.1136  0.8259 -0.5735
    1SOL    MW4 8220   2.225   0.878   3.505  0.3371  0.3830  0.5903
    1SOL     OW 8221   2.246   1.124   3.408 -0.1366  0.1594  0.0881
    1SOL    HW2 8222   2.316   1.172   3.452  0.0401 -1.1314  1.2591
    1SOL    HW3 8223   2.166   1.160   3.446  0.0391 -2.0963  2.8342
    1SOL    MW4 8224   2.244   1.135   3.419 -0.0899 -0.3086  0.6046
    1SOL     OW 8225   2.453   1.279   3.521  0.1472 -0.1791  0.1589
    1SOL    HW2 8226   2.442   1.267   3.615  0.8837  0.5812  0.3454
    1SOL    HW3 8227   2.527   1.222   3.498  0.7382  0.5392  0.2564
    1SOL    MW4 8228   2.462   1.270   3.531  0.3226  0.0160  0.1962
    1SOL     OW 8229   2.473   1.532   3.414 -0.1518 -0.0299 -0.4742
    1SOL    HW2 8230   2.456   1.446   3.452 -0.7742  0.0291 -0.6140
    1SOL    HW3 8231   2.479   1.516   3.320  0.4779 -0.0300 -0.4422
    1SOL    MW4 8232   2.472   1.519   3.407 -0.1509 -0.0222 -0.4883
    1SOL     OW 8233   2.224   1.662   3.467  0.0156  0.0627 -0.9629
    1SOL    HW2 8234   2.210   1.693   3.556 -1.8190  0.0442 -1.2243
    1SOL    HW3 8235   2.305   1.611   3.471 -0.2565 -0.2456  0.7641
    1SOL    MW4 8236   2.233   1.659   3.479 -0.2623  0.0196 -0.7696
    1SOL     OW 8237   2.284   1.928   3.364 -0.4053  0.2314 -0.3309
    1SOL    HW2 8238   2.276   1.836   3.391 -1.4198  0.0959 -1.0766
    1SOL    HW3 8239   2.266   1.927   3.270  1.1223  0.9843 -0.6432
    1SOL    MW4 8240   2.281   1.916   3.355 -0.3376  0.3128 -0.4704
    1SOL     OW 8241   2.499   2.062   3.507  0.7282 -0.3124 -0.0393
    1SOL    HW2 8242   2.497   2.037   3.600  1.5896 -0.7938 -0.1460
    1SOL    HW3 8243   2.425   2.015   3.468  1.6502 -1.8113 -0.0116
    1SOL    MW4 8244   2.489   2.052   3.514  0.9637 -0.5736 -0.0496
    1SOL     OW 8245   2.473   2.311   3.352 -0.2722 -0.1437 -0.0362
    1SOL    HW2 8246   2.534   2.379   3.380 -0.6345  0.1719 -0.0052
    1SOL    HW3 8247   2.497   2.234   3.403  0.2536 -0.0877 -0.1965
    1SOL    MW4 8248   2.484   2.310   3.362 -0.2506 -0.0949 -0.0532
    1SOL     OW 8249   2.231   2.423   3.411 -0.5142  0.3662 -0.1038
    1SOL    HW2 8250   2.259   2.513   3.394 -0.3806  0.4694  0.6483
    1SOL    HW3 8251   2.312   2.371   3.403 -0.1656  0.6127  1.6803
    1SOL    MW4 8252   2.246   2.428   3.407 -0.4504  0.4122  0.2308
    1SOL     OW 8253   2.259   2.718   3.354 -0.3312 -0.3400 -0.6412
    1SOL    HW2 8254   2.176   2.761   3.375 -1.7521 -2.9906 -0.6107
    1SOL    HW3 8255   2.260   2.714   3.258  0.0983  0.2417 -0.6706
    1SOL    MW4 8256   2.248   2.723   3.344 -0.4621 -0.6130 -0.6411
    1SOL     OW 8257   2.474   2.839   3.467  0.1872 -0.8248  0.4003
    1SOL    HW2 8258   2.457   2.929   3.439  0.3549 -0.7495  0.5398
    1SOL    HW3 8259   2.405   2.787   3.424 -0.5242 -0.4962  1.1320
    1SOL    MW4 8260   2.462   2.844   3.457  0.1154 -0.7713  0.5155
    1SOL     OW 8261   2.437   3.122   3.371 -0.2459  0.5772 -0.1731
    1SOL    HW2 8262   2.506   3.174   3.412 -0.1458  0.0008  0.4027
    1SOL    HW3 8263   2.445   3.140   3.278  0.3380  0.9319 -0.0555
    1SOL    MW4 8264   2.447   3.131   3.364 -0.1557  0.5479 -0.0813
    1SOL     OW 8265   2.238   3.275   3.498 -0.4516 -0.0075 -0.3769
    1SOL    HW2 8266   2.264   3.266   3.590 -0.4083 -0.1467 -0.4026
    1SOL    HW3 8267   2.300   3.221   3.450 -0.2084  0.4083 -0.5305
    1SOL    MW4 8268   2.249   3.266   3.504 -0.4139  0.0291 -0.4005
    1SOL     OW 8269   2.263   3.536   3.430 -0.1767 -0.0658 -0.8520
    1SOL    HW2 8270   2.266   3.451   3.473 -0.0192 -0.7837 -2.2328
    1SOL    HW3 8271   2.248   3.515   3.337  1.9389  1.2778 -1.5366
    1SOL    MW4 8272   2.262   3.522   3.423  0.1233  0.0167 -1.1244
    1SOL     OW 8273   2.500   3.651   3.516 -0.2552 -0.1400  0.7766
    1SOL    HW2 8274   2.505   3.742   3.488 -0.1599  0.2676  2.0967
    1SOL    HW3 8275   2.415   3.620   3.485  0.1447  0.0895 -0.5679
    1SOL    MW4 8276   2.490   3.659   3.508 -0.1898 -0.0560  0.7734
    1SOL     OW 8277   2.495   3.913   3.390  0.3046  0.1277  0.1811
    1SOL    HW2 8278   2.576   3.946   3.429 -0.0949  0.5951  0.6261
    1SOL    HW3 8279   2.426   3.946   3.448 -0.2304  0.0521 -0.4130
    1SOL    MW4 8280   2.497   3.922   3.403  0.1812  0.1795  0.1616
    1SOL     OW 8281   2.265   4.011   3.521  0.2995  0.0869 -0.1682
    1SOL    HW2 8282   2.259   4.098   3.480 -0.0024  0.0030 -0.3036
    1SOL    HW3 8283   2.194   3.961   3.482  0.6476 -0.3106 -0.2997
    1SOL    MW4 8284   2.255   4.016   3.510  0.3054  0.0234 -0.2036
    1SOL     OW 8285   2.261   4.262   3.400 -0.1940 -0.2896  0.4616
    1SOL    HW2 8286   2.184   4.304   3.437  0.3123 -0.1512  1.3657
    1SOL    HW3 8287   2.249   4.269   3.305 -2.0674 -1.6712  0.5695
    1SOL    MW4 8288   2.250   4.268   3.392 -0.3743 -0.4539  0.5951
    1SOL     OW 8289   2.499   4.397   3.460  0.5477  0.1432  0.2905
    1SOL    HW2 8290   2.488   4.413   3.553  0.0929 -1.9789  0.6244
    1SOL    HW3 8291   2.422   4.346   3.434  0.1580  1.5690 -1.4682
    1SOL    MW4 8292   2.487   4.392   3.469  0.4363  0.0515  0.1025
    1SOL     OW 8293   2.943   4.654   3.386 -0.2735 -0.2993  0.1641
    1SOL    HW2 8294   2.868   4.704   3.420 -0.2887  1.2025 -1.9828
    1SOL    HW3 8295   2.941   4.669   3.291  1.7338 -1.6628 -0.1228
    1SOL    MW4 8296   2.933   4.663   3.378 -0.0105 -0.2810 -0.1571
    1SOL     OW 8297   2.732   0.145   3.465  0.0454  0.3759  0.2641
    1SOL    HW2 8298   2.718   0.236   3.438  0.0245  0.2880 -0.0290
    1SOL    HW3 8299   2.649   0.101   3.446  0.5099 -0.0164 -0.9340
    1SOL    MW4 8300   2.720   0.151   3.459  0.1042  0.3126  0.0672
    1SOL     OW 8301   2.702   0.415   3.390 -0.0040 -0.1259  0.0141
    1SOL    HW2 8302   2.790   0.444   3.416 -0.1022  1.2025 -1.1035
    1SOL    HW3 8303   2.711   0.392   3.298 -0.6691 -0.6764  0.0860
    1SOL    MW4 8304   2.715   0.416   3.381 -0.1047 -0.0232 -0.1237
    1SOL     OW 8305   2.961   0.509   3.471 -0.1377 -0.2209 -0.2993
    1SOL    HW2 8306   2.961   0.526   3.565 -0.5747 -1.2809 -0.1022
    1SOL    HW3 8307   2.960   0.596   3.431 -0.4130  0.2316  0.6836
    1SOL    MW4 8308   2.961   0.523   3.478 -0.2317 -0.3010 -0.1435
    1SOL     OW 8309   2.900   0.776   3.373  0.2084  0.0415  0.6036
    1SOL    HW2 8310   2.973   0.812   3.424 -0.3585  0.1118  1.3737
    1SOL    HW3 8311   2.825   0.830   3.396 -0.1019 -0.0621 -0.1526
    1SOL    MW4 8312   2.900   0.788   3.383  0.0925  0.0371  0.6053
    1SOL     OW 8313   2.683   0.891   3.480 -0.0047 -0.0610 -0.2041
    1SOL    HW2 8314   2.685   0.882   3.575 -1.5669 -0.2087 -0.1755
    1SOL    HW3 8315   2.677   0.985   3.464  0.1486 -0.0434 -0.1615
    1SOL    MW4 8316   2.682   0.902   3.491 -0.1907 -0.0781 -0.1945
    1SOL     OW 8317   2.674   1.142   3.412 -0.1105 -0.1075  0.1715
    1SOL    HW2 8318   2.752   1.188   3.444  0.3526  0.9224 -2.3038
    1SOL    HW3 8319   2.688   1.135   3.318 -2.6978 -0.5546 -0.2076
    1SOL    MW4 8320   2.686   1.147   3.404 -0.3910 -0.0306 -0.2050
    1SOL     OW 8321   2.921   1.229   3.512 -0.1194 -0.0309  0.1338
    1SOL    HW2 8322   2.942   1.243   3.605  1.7462  0.1960 -0.3143
    1SOL    HW3 8323   2.998   1.186   3.476 -0.5762  0.4579 -1.4615
    1SOL    MW4 8324   2.934   1.225   3.520  0.0665  0.0635 -0.1357
    1SOL     OW 8325   2.931   1.501   3.448 -0.0123  0.3805  0.1764
    1SOL    HW2 8326   2.855   1.552   3.475 -0.6468  0.3531 -1.4658
    1SOL    HW3 8327   2.910   1.411   3.474 -0.6051  0.3534 -0.3768
    1SOL    MW4 8328   2.918   1.496   3.455 -0.1740  0.3734 -0.1132
    1SOL     OW 8329   2.700   1.639   3.525  0.0439  0.2929 -0.2536
    1SOL    HW2 8330   2.693   1.730   3.498 -2.1474  0.0410 -0.6448
    1SOL    HW3 8331   2.621   1.598   3.492  1.1145 -1.8209 -0.2890
    1SOL    MW4 8332   2.689   1.645   3.517 -0.1042 -0.0193 -0.3099
    1SOL     OW 8333   2.687   1.902   3.400 -0.0472  0.3306 -0.1573
    1SOL    HW2 8334   2.618   1.944   3.450 -0.5840 -1.5149  0.6778
    1SOL    HW3 8335   2.657   1.906   3.309 -0.9844  0.0396  0.1377
    1SOL    MW4 8336   2.674   1.908   3.394 -0.2415  0.0488 -0.0081
    1SOL     OW 8337   2.892   2.056   3.509  0.1149 -0.2485  0.0069
    1SOL    HW2 8338   2.864   2.064   3.600  0.3208 -1.0530  0.1492
    1SOL    HW3 8339   2.825   2.001   3.468 -0.9506  1.6024 -0.7810
    1SOL    MW4 8340   2.879   2.050   3.516  0.0017 -0.1104 -0.0784
    1SOL     OW 8341   2.926   2.305   3.397 -0.4272  0.3822 -0.1543
    1SOL    HW2 8342   2.919   2.220   3.439  0.2005  0.1102 -0.5987
    1SOL    HW3 8343   2.921   2.287   3.303 -0.6738  0.8701 -0.2382
    1SOL    MW4 8344   2.924   2.292   3.390 -0.3772  0.4110 -0.2239
    1SOL     OW 8345   2.688   2.453   3.471 -0.6809  0.1454 -0.0773
    1SOL    HW2 8346   2.667   2.449   3.565 -0.7583 -0.9487 -0.1346
    1SOL    HW3 8347   2.761   2.392   3.461 -0.2898  0.7101 -0.6302
    1SOL    MW4 8348   2.695   2.444   3.482 -0.6397  0.0753 -0.1578
    1SOL     OW 8349   2.731   2.717   3.436  0.0189  0.5715 -0.0931
    1SOL    HW2 8350   2.722   2.623   3.452  0.7677  0.6905  1.1267
    1SOL    HW3 8351   2.646   2.753   3.460 -0.1886  0.2331 -0.3109
    1SOL    MW4 8352   2.719   2.709   3.441  0.0904  0.5429  0.0391
    1SOL     OW 8353   2.942   2.880   3.510  0.1798  0.3219  0.3589
    1SOL    HW2 8354   2.947   2.879   3.606  1.3621  0.9370  0.3102
    1SOL    HW3 8355   2.872   2.818   3.489  0.5442 -0.5186  1.5809
    1SOL    MW4 8356   2.934   2.872   3.520  0.3839  0.2921  0.5138
    1SOL     OW 8357   2.921   3.120   3.401  0.1579  0.3344 -0.3112
    1SOL    HW2 8358   2.919   3.034   3.443 -1.3641  0.1940 -0.6448
    1SOL    HW3 8359   2.917   3.101   3.307 -0.5123  0.7653 -0.3753
    1SOL    MW4 8360   2.920   3.106   3.394 -0.1311  0.3729 -0.3633
    1SOL     OW 8361   2.665   3.240   3.462 -0.1980 -0.0271  0.0754
    1SOL    HW2 8362   2.687   3.226   3.554 -0.8744 -1.7345  0.0088
    1SOL    HW3 8363   2.731   3.191   3.414  0.3326  1.1136 -0.3606
    1SOL    MW4 8364   2.676   3.232   3.468 -0.2172 -0.1020  0.0093
    1SOL     OW 8365   2.671   3.507   3.349 -0.1771 -0.1078  0.2311
    1SOL    HW2 8366   2.665   3.414   3.369  0.5956 -0.3971 -0.8456
    1SOL    HW3 8367   2.597   3.546   3.395 -0.9243 -1.3516  0.1008
    1SOL    MW4 8368   2.660   3.500   3.358 -0.1738 -0.3104  0.0718
    1SOL     OW 8369   2.904   3.593   3.533  0.1367 -0.6053  0.0905
    1SOL    HW2 8370   2.926   3.681   3.502  1.5932 -1.3042 -0.9340
    1SOL    HW3 8371   2.837   3.563   3.472  0.2139 -0.5018 -0.0475
    1SOL    MW4 8372   2.898   3.601   3.520  0.3393 -0.6835 -0.0629
    1SOL     OW 8373   2.934   3.858   3.431  0.0099  0.1881  0.4886
    1SOL    HW2 8374   3.004   3.913   3.467 -0.2182  1.2514 -0.6128
    1SOL    HW3 8375   2.853   3.897   3.465 -0.1961  1.0768 -0.9229
    1SOL    MW4 8376   2.932   3.871   3.440 -0.0472  0.4456  0.1571
    1SOL     OW 8377   2.723   4.003   3.529 -0.2500  0.3157  0.7678
    1SOL    HW2 8378   2.719   4.013   3.624 -1.2079 -0.3099  0.8039
    1SOL    HW3 8379   2.728   4.092   3.495  1.7417  0.4873  1.4608
    1SOL    MW4 8380   2.723   4.016   3.537 -0.1137  0.2565  0.8640
    1SOL     OW 8381   2.732   4.254   3.421 -0.0622  0.3261  0.3199
    1SOL    HW2 8382   2.805   4.306   3.455 -0.1879  1.1596 -0.6294
    1SOL    HW3 8383   2.654   4.307   3.440 -0.2035  0.4426 -0.5576
    1SOL    MW4 8384   2.731   4.268   3.428 -0.0973  0.4506  0.0789
    1SOL     OW 8385   2.936   4.410   3.509  0.3174  0.2014  0.1543
    1SOL    HW2 8386   2.964   4.425   3.600  2.0774 -0.2390 -0.2973
    1SOL    HW3 8387   2.936   4.497   3.470  0.4549  0.2820  0.3293
    1SOL    MW4 8388   2.939   4.423   3.516  0.5677  0.1540  0.1178
    1SOL     OW 8389   3.402   0.030   3.458  0.5356  0.1954 -0.4804
    1SOL    HW2 8390   3.319   0.057   3.496  0.2021 -1.0623 -0.3040
    1SOL    HW3 8391   3.393   0.050   3.365 -0.3143 -0.7940 -0.6111
    1SOL    MW4 8392   3.390   0.037   3.451  0.3796 -0.1011 -0.4745
    1SOL     OW 8393   3.146   0.129   3.528 -0.0064 -0.0934 -0.1793
    1SOL    HW2 8394   3.141   0.220   3.497 -2.2503 -0.0897  0.1225
    1SOL    HW3 8395   3.087   0.081   3.470 -0.3413 -1.0086  0.9097
    1SOL    MW4 8396   3.138   0.135   3.516 -0.3464 -0.2137  0.0041
    1SOL     OW 8397   3.186   0.371   3.415 -0.4540  0.1040  0.7364
    1SOL    HW2 8398   3.118   0.435   3.433  0.9144  1.5916  0.6632
    1SOL    HW3 8399   3.164   0.338   3.327 -0.9633  0.7245  0.6261
    1SOL    MW4 8400   3.174   0.375   3.406 -0.3409  0.3822  0.7124
    1SOL     OW 8401   3.409   0.515   3.517 -0.2347  0.3701 -0.0360
    1SOL    HW2 8402   3.397   0.530   3.611  0.6600 -0.5642  0.2437
    1SOL    HW3 8403   3.332   0.465   3.491 -0.7422  1.0747  0.0844
    1SOL    MW4 8404   3.397   0.510   3.526 -0.1836  0.3399  0.0169
    1SOL     OW 8405   3.378   0.759   3.396  0.0812  0.2926  0.2458
    1SOL    HW2 8406   3.438   0.818   3.440  0.6123  1.1000 -1.5072
    1SOL    HW3 8407   3.393   0.673   3.436 -0.6559  1.3076  2.7756
    1SOL    MW4 8408   3.388   0.755   3.407  0.0539  0.5330  0.3483
    1SOL     OW 8409   3.134   0.870   3.482 -0.1122 -0.3704 -0.1215
    1SOL    HW2 8410   3.137   0.955   3.439 -0.0749  0.4681  1.4801
    1SOL    HW3 8411   3.217   0.829   3.460  0.9792  1.0756  1.1489
    1SOL    MW4 8412   3.145   0.876   3.474  0.0370 -0.0691  0.2577
    1SOL     OW 8413   3.153   1.120   3.377 -0.2057  0.3958  0.2382
    1SOL    HW2 8414   3.229   1.163   3.416  2.5738 -4.3096  0.4665
    1SOL    HW3 8415   3.158   1.141   3.284  0.2775  1.6806  0.5503
    1SOL    MW4 8416   3.164   1.128   3.370  0.2244 -0.0557  0.3092
    1SOL     OW 8417   3.371   1.234   3.485  0.2580 -0.2977 -0.3590
    1SOL    HW2 8418   3.454   1.206   3.447 -0.1130  0.2994 -1.6099
    1SOL    HW3 8419   3.370   1.329   3.473 -0.0748 -0.1534  0.7333
    1SOL    MW4 8420   3.382   1.243   3.479  0.1650 -0.2000 -0.3796
    1SOL     OW 8421   3.359   1.494   3.415 -0.1575 -0.2054  0.2855
    1SOL    HW2 8422   3.439   1.545   3.421  0.3214 -1.0712  1.5632
    1SOL    HW3 8423   3.294   1.544   3.465  0.2899 -0.7775  1.4697
    1SOL    MW4 8424   3.361   1.507   3.423 -0.0353 -0.3951  0.6104
    1SOL     OW 8425   3.153   1.648   3.527  0.0592  0.1116 -0.0299
    1SOL    HW2 8426   3.136   1.725   3.473  1.0666 -0.0211 -0.5366
    1SOL    HW3 8427   3.076   1.592   3.513  0.5155 -0.1214 -1.6760
    1SOL    MW4 8428   3.141   1.650   3.518  0.2525  0.0634 -0.3142
    1SOL     OW 8429   3.090   1.878   3.382 -0.3366 -0.0117  0.2773
    1SOL    HW2 8430   3.038   1.941   3.432  0.9871  1.9293 -0.7073
    1SOL    HW3 8431   3.079   1.903   3.291  1.5117 -0.1606 -0.0196
    1SOL    MW4 8432   3.082   1.889   3.377  0.0820  0.2247  0.1082
    1SOL     OW 8433   3.303   2.031   3.483 -0.2973  0.1635 -0.2399
    1SOL    HW2 8434   3.294   2.120   3.450 -0.2425  0.1715 -0.2332
    1SOL    HW3 8435   3.231   1.983   3.443 -0.2934  0.1976 -0.2872
    1SOL    MW4 8436   3.292   2.036   3.474 -0.2897  0.1690 -0.2453
    1SOL     OW 8437   3.328   2.288   3.373 -0.0746 -0.6655  0.1326
    1SOL    HW2 8438   3.411   2.327   3.398 -0.3384 -0.4036  0.6110
    1SOL    HW3 8439   3.262   2.346   3.411 -0.4723 -0.9487 -0.1220
    1SOL    MW4 8440   3.330   2.301   3.381 -0.1619 -0.6685  0.1621
    1SOL     OW 8441   3.123   2.465   3.485  0.2553  0.3492 -0.3117
    1SOL    HW2 8442   3.113   2.549   3.441  0.4782  0.6612  0.2230
    1SOL    HW3 8443   3.059   2.408   3.442  0.4676  0.6471 -1.0220
    1SOL    MW4 8444   3.113   2.469   3.474  0.3126  0.4296 -0.3347
    1SOL     OW 8445   3.139   2.727   3.384  0.3887 -0.1938  0.0016
    1SOL    HW2 8446   3.212   2.772   3.427  0.0888 -0.2827  0.6047
    1SOL    HW3 8447   3.064   2.787   3.395  0.2555 -0.3235 -0.1920
    1SOL    MW4 8448   3.139   2.741   3.391  0.3314 -0.2229  0.0553
    1SOL     OW 8449   3.369   2.829   3.490  0.1420  0.0909 -0.1760
    1SOL    HW2 8450   3.431   2.774   3.442 -0.4419  0.6201 -1.5844
    1SOL    HW3 8451   3.378   2.916   3.450 -0.2568  0.5726  0.7747
    1SOL    MW4 8452   3.378   2.833   3.478  0.0122  0.2241 -0.2363
    1SOL     OW 8453   3.401   3.096   3.405 -0.3541  0.4420 -0.3697
    1SOL    HW2 8454   3.468   3.145   3.453 -0.3714 -0.1468  0.2532
    1SOL    HW3 8455   3.318   3.130   3.439 -0.3688  0.5499 -0.5133
    1SOL    MW4 8456   3.399   3.107   3.416 -0.3581  0.3784 -0.3064
    1SOL     OW 8457   3.176   3.211   3.498 -0.0409 -0.1083 -0.1101
    1SOL    HW2 8458   3.168   3.301   3.466  0.3041  0.0206  0.1662
    1SOL    HW3 8459   3.099   3.167   3.462 -0.1890  0.2836 -0.2865
    1SOL    MW4 8460   3.164   3.217   3.489 -0.0148 -0.0398 -0.0970
    1SOL     OW 8461   3.162   3.485   3.436  0.1101  0.0228  0.0344
    1SOL    HW2 8462   3.082   3.524   3.472  0.6514  0.4647  0.7859
    1SOL    HW3 8463   3.149   3.487   3.341 -0.4421  0.8209  0.1181
    1SOL    MW4 8464   3.150   3.491   3.428  0.1085  0.1862  0.1447
    1SOL     OW 8465   3.396   3.614   3.509 -0.5894  0.2782 -0.2980
    1SOL    HW2 8466   3.395   3.701   3.470 -2.1629  0.3399 -0.1366
    1SOL    HW3 8467   3.315   3.573   3.480 -1.0941 -0.2102  1.6813
    1SOL    MW4 8468   3.385   3.620   3.500 -0.8638  0.2220 -0.0155
    1SOL     OW 8469   3.368   3.874   3.375 -0.0803 -0.0304  0.0891
    1SOL    HW2 8470   3.446   3.917   3.410 -0.2448 -0.3353  0.8459
    1SOL    HW3 8471   3.295   3.912   3.424 -0.2800 -0.6970  0.3191
    1SOL    MW4 8472   3.369   3.884   3.386 -0.1280 -0.1585  0.2189
    1SOL     OW 8473   3.160   4.031   3.488 -0.1274 -0.0385 -0.6158
    1SOL    HW2 8474   3.138   4.039   3.581 -0.0259  0.3846 -0.6279
    1SOL    HW3 8475   3.163   4.121   3.456 -0.9633 -0.2176 -1.2183
    1SOL    MW4 8476   3.157   4.044   3.496 -0.2244 -0.0067 -0.6969
    1SOL     OW 8477   3.159   4.293   3.380  0.2118 -0.3990  0.0063
    1SOL    HW2 8478   3.234   4.330   3.426  0.0829  1.6881 -1.3919
    1SOL    HW3 8479   3.083   4.325   3.428  0.1658 -1.1183  0.4185
    1SOL    MW4 8480   3.159   4.302   3.392  0.1884 -0.2184 -0.1237
    1SOL     OW 8481   3.387   4.418   3.502  0.0828 -0.3991  0.1937
    1SOL    HW2 8482   3.389   4.414   3.598  0.6545 -0.9475  0.1635
    1SOL    HW3 8483   3.383   4.512   3.483  0.8677 -0.2421  0.7468
    1SOL    MW4 8484   3.387   4.430   3.512  0.2618 -0.4511  0.2625
    1SOL     OW 8485   3.836   4.650   3.445 -0.0846  0.2066 -0.5157
    1SOL    HW2 8486   3.766   4.710   3.472 -1.0559 -1.1353  0.0249
    1SOL    HW3 8487   3.835   4.655   3.350 -2.2813 -1.2776 -0.6096
    1SOL    MW4 8488   3.826   4.659   3.436 -0.5023 -0.1659 -0.4568
    1SOL     OW 8489   3.629   0.145   3.552 -0.5001  0.0612  0.3651
    1SOL    HW2 8490   3.634   0.215   3.487 -1.3365  0.1499  0.3898
    1SOL    HW3 8491   3.551   0.095   3.527  0.6591 -1.4942 -0.2822
    1SOL    MW4 8492   3.620   0.148   3.540 -0.4573 -0.1323  0.2828
    1SOL     OW 8493   3.614   0.379   3.393  0.2032 -0.3967 -0.2220
    1SOL    HW2 8494   3.682   0.445   3.407 -0.2257  0.3748 -1.7131
    1SOL    HW3 8495   3.539   0.410   3.444 -0.7073  1.3926 -2.5904
    1SOL    MW4 8496   3.613   0.392   3.402  0.0265 -0.0588 -0.7312
    1SOL     OW 8497   3.830   0.531   3.494  0.5520  0.0591  0.2237
    1SOL    HW2 8498   3.820   0.515   3.587 -1.5728 -2.2529 -0.3645
    1SOL    HW3 8499   3.911   0.485   3.470  0.5639 -0.1726  0.7198
    1SOL    MW4 8500   3.840   0.523   3.503  0.2732 -0.2764  0.2120
    1SOL     OW 8501   3.787   0.795   3.418 -0.6464 -0.5194 -0.1233
    1SOL    HW2 8502   3.864   0.849   3.436 -0.9804  0.7315 -2.2384
    1SOL    HW3 8503   3.809   0.709   3.455  1.6984 -0.1440 -0.5448
    1SOL    MW4 8504   3.800   0.791   3.425 -0.3810 -0.3049 -0.4578
    1SOL     OW 8505   3.562   0.907   3.539  0.3258  0.0596 -0.2161
    1SOL    HW2 8506   3.572   0.900   3.634 -1.1630 -2.3048 -0.1646
    1SOL    HW3 8507   3.644   0.873   3.503  0.2185 -0.6843  0.2326
    1SOL    MW4 8508   3.574   0.901   3.547  0.1152 -0.3505 -0.1500
    1SOL     OW 8509   3.616   1.133   3.403  0.4501  0.6231 -0.0504
    1SOL    HW2 8510   3.586   1.046   3.430 -2.8125  1.7486  0.1480
    1SOL    HW3 8511   3.620   1.129   3.308 -0.9513  0.6355 -0.1127
    1SOL    MW4 8512   3.613   1.121   3.394 -0.1652  0.7733 -0.0327
    1SOL     OW 8513   3.813   1.288   3.520 -0.0414  0.5599  0.1377
    1SOL    HW2 8514   3.804   1.273   3.614  0.0820  1.6696  0.3333
    1SOL    HW3 8515   3.762   1.218   3.480 -0.0544  0.0488  1.0254
    1SOL    MW4 8516   3.805   1.276   3.527 -0.0267  0.6388  0.2806
    1SOL     OW 8517   3.790   1.558   3.419 -0.5281  0.4431  0.5029
    1SOL    HW2 8518   3.867   1.607   3.448 -0.3142  0.5153 -0.1875
    1SOL    HW3 8519   3.810   1.467   3.440  0.1200  0.3572 -0.4987
    1SOL    MW4 8520   3.802   1.552   3.426 -0.4144  0.4413  0.2797
    1SOL     OW 8521   3.548   1.678   3.476 -0.2913  0.1278  0.3409
    1SOL    HW2 8522   3.546   1.762   3.432 -0.6221 -0.1275 -0.1322
    1SOL    HW3 8523   3.634   1.642   3.455 -0.3656  0.1004  0.0788
    1SOL    MW4 8524   3.559   1.684   3.468 -0.3448  0.0906  0.2441
    1SOL     OW 8525   3.559   1.945   3.377 -0.0295 -0.3550  0.2999
    1SOL    HW2 8526   3.632   1.987   3.422 -0.2717 -0.4594  0.8040
    1SOL    HW3 8527   3.481   1.978   3.422 -0.2796 -0.4378 -0.0666
    1SOL    MW4 8528   3.558   1.955   3.389 -0.0944 -0.3797  0.3181
    1SOL     OW 8529   3.767   2.055   3.535  0.3381  0.1175  0.3935
    1SOL    HW2 8530   3.777   2.067   3.630 -0.4799 -0.8402  0.6080
    1SOL    HW3 8531   3.845   2.006   3.509 -0.8723 -2.2495  1.0877
    1SOL    MW4 8532   3.778   2.050   3.544  0.0706 -0.3209  0.5133
    1SOL     OW 8533   3.782   2.292   3.418 -0.0624 -0.0073 -0.0832
    1SOL    HW2 8534   3.864   2.335   3.443  0.3160 -0.4531 -0.5485
    1SOL    HW3 8535   3.788   2.204   3.456 -0.2709 -0.0834 -0.2237
    1SOL    MW4 8536   3.794   2.286   3.427 -0.0401 -0.0763 -0.1633
    1SOL     OW 8537   3.547   2.419   3.504  0.2969 -0.1622 -0.1210
    1SOL    HW2 8538   3.555   2.509   3.473 -1.4156  0.0074 -0.1102
    1SOL    HW3 8539   3.634   2.382   3.493  0.5209  0.8887 -2.0318
    1SOL    MW4 8540   3.559   2.426   3.498  0.1004 -0.0014 -0.3717
    1SOL     OW 8541   3.582   2.678   3.388 -0.1164  0.1552  0.0193
    1SOL    HW2 8542   3.654   2.728   3.425  0.5317 -1.2120  0.6579
    1SOL    HW3 8543   3.592   2.685   3.294  0.9050 -0.0937  0.1066
    1SOL    MW4 8544   3.593   2.685   3.381  0.1040 -0.0584  0.1152
    1SOL     OW 8545   3.786   2.838   3.491 -0.1709  0.1476  0.1826
    1SOL    HW2 8546   3.790   2.840   3.586  0.4155  0.8797  0.1478
    1SOL    HW3 8547   3.787   2.930   3.465 -1.5341 -0.0089 -0.4899
    1SOL    MW4 8548   3.786   2.850   3.500 -0.2735  0.2236  0.0894
    1SOL     OW 8549   3.818   3.089   3.385  0.1926 -0.1550  0.1545
    1SOL    HW2 8550   3.887   3.154   3.404 -0.8279  0.6883  1.0957
    1SOL    HW3 8551   3.819   3.080   3.290  0.2256  1.4063 -0.0109
    1SOL    MW4 8552   3.828   3.097   3.375  0.0625  0.1624  0.2570
    1SOL     OW 8553   3.625   3.234   3.526  0.0909 -0.2133 -0.1746
    1SOL    HW2 8554   3.608   3.320   3.487 -0.3310 -0.4450 -0.5095
    1SOL    HW3 8555   3.688   3.193   3.467  0.6939  0.0675  0.2674
    1SOL    MW4 8556   3.631   3.240   3.513  0.1149 -0.2069 -0.1605
    1SOL     OW 8557   3.595   3.476   3.408 -0.6387 -0.0727 -0.0814
    1SOL    HW2 8558   3.520   3.519   3.451 -1.7306  0.2950 -2.2766
    1SOL    HW3 8559   3.581   3.493   3.315  1.2703 -1.5105 -0.6398
    1SOL    MW4 8560   3.583   3.484   3.401 -0.5312 -0.2139 -0.4447
    1SOL     OW 8561   3.812   3.635   3.493  0.3446 -0.0222  0.2728
    1SOL    HW2 8562   3.814   3.625   3.588  0.1830 -1.3616  0.1445
    1SOL    HW3 8563   3.746   3.572   3.464 -1.1767  1.8935 -0.5438
    1SOL    MW4 8564   3.803   3.625   3.501  0.1225  0.0539  0.1483
    1SOL     OW 8565   3.794   3.901   3.395 -0.0807  0.1357 -0.3567
    1SOL    HW2 8566   3.708   3.935   3.421 -0.4672 -0.8443 -0.3459
    1SOL    HW3 8567   3.794   3.810   3.425  1.2260  0.3330  0.2294
    1SOL    MW4 8568   3.782   3.894   3.402  0.0405  0.0322 -0.2780
    1SOL     OW 8569   3.576   4.011   3.496  0.1670 -0.0123  0.0263
    1SOL    HW2 8570   3.576   4.006   3.591  0.6485  0.1477  0.0335
    1SOL    HW3 8571   3.571   4.104   3.476  1.5538  0.0411 -0.1023
    1SOL    MW4 8572   3.575   4.022   3.506  0.4139  0.0157  0.0105
    1SOL     OW 8573   3.595   4.268   3.399 -0.0461 -0.4749 -0.0691
    1SOL    HW2 8574   3.528   4.328   3.433  1.8406  0.7990  1.5391
    1SOL    HW3 8575   3.596   4.285   3.305 -0.7830  0.7315  0.1253
    1SOL    MW4 8576   3.586   4.278   3.391  0.1054 -0.1478  0.1688
    1SOL     OW 8577   3.806   4.377   3.532  0.0851 -0.0324  0.2042
    1SOL    HW2 8578   3.725   4.345   3.491 -0.1773 -1.5650  1.8645
    1SOL    HW3 8579   3.816   4.466   3.498 -2.3520  0.2272  0.0165
    1SOL    MW4 8580   3.796   4.385   3.522 -0.2713 -0.2003  0.3984
    1SOL     OW 8581   4.248   4.631   3.408  0.2138 -0.3053  0.1531
    1SOL    HW2 8582   4.254   4.543   3.446  0.9915 -0.0995  0.5225
    1SOL    HW3 8583   4.327   4.676   3.440 -0.2743  0.5836  0.1203
    1SOL    MW4 8584   4.259   4.626   3.417  0.2518 -0.1607  0.1974
    1SOL     OW 8585   4.060   0.113   3.553  0.0910  0.0638  0.0475
    1SOL    HW2 8586   4.136   0.070   3.514  0.3025 -0.6072  1.1835
    1SOL    HW3 8587   3.985   0.066   3.517  0.1255  1.4681 -1.9935
    1SOL    MW4 8588   4.060   0.102   3.543  0.1240  0.1606 -0.0720
    1SOL     OW 8589   4.041   0.382   3.424  0.0678  0.2065  0.2344
    1SOL    HW2 8590   4.024   0.295   3.458  0.7845  0.0166  0.1067
    1SOL    HW3 8591   4.027   0.374   3.329 -0.3529  0.3516  0.2819
    1SOL    MW4 8592   4.037   0.370   3.416  0.1063  0.2006  0.2241
    1SOL     OW 8593   4.267   0.525   3.502  0.4776 -1.1621 -0.3954
    1SOL    HW2 8594   4.262   0.607   3.453 -0.3816 -0.5585  0.6486
    1SOL    HW3 8595   4.191   0.475   3.473 -0.0243 -0.8098  0.2922
    1SOL    MW4 8596   4.256   0.529   3.492  0.2980 -1.0360 -0.1669
    1SOL     OW 8597   4.240   0.779   3.372  0.0495 -0.1465  0.1312
    1SOL    HW2 8598   4.325   0.819   3.392 -0.2507 -0.2709  1.7217
    1SOL    HW3 8599   4.241   0.768   3.277  1.9315 -0.4192  0.1539
    1SOL    MW4 8600   4.252   0.783   3.362  0.2584 -0.1990  0.3440
    1SOL     OW 8601   4.013   0.923   3.481 -0.4137  0.6550 -0.4343
    1SOL    HW2 8602   4.037   1.014   3.463 -0.6054  0.7445 -0.2287
    1SOL    HW3 8603   4.088   0.872   3.449 -0.3355  0.8791 -0.6094
    1SOL    MW4 8604   4.026   0.928   3.474 -0.4282  0.6964 -0.4306
    1SOL     OW 8605   4.057   1.183   3.412 -0.5657  0.2763 -0.2556
    1SOL    HW2 8606   4.135   1.238   3.417  0.1226 -0.8114  1.3776
    1SOL    HW3 8607   3.986   1.239   3.442 -0.0729  0.6511  0.2247
    1SOL    MW4 8608   4.058   1.198   3.416 -0.4101  0.1822  0.0231
    1SOL     OW 8609   4.259   1.329   3.486 -0.4017 -0.2429 -0.2592
    1SOL    HW2 8610   4.267   1.416   3.448  1.3955 -0.0021  0.6301
    1SOL    HW3 8611   4.339   1.283   3.458 -0.9936 -1.3733 -0.1254
    1SOL    MW4 8612   4.271   1.334   3.477 -0.2422 -0.3603 -0.1242
    1SOL     OW 8613   4.254   1.614   3.386  0.1937 -0.0914 -0.0442
    1SOL    HW2 8614   4.176   1.639   3.436 -1.1026 -5.1160  0.7329
    1SOL    HW3 8615   4.221   1.595   3.298  0.5834 -1.6717  0.1319
    1SOL    MW4 8616   4.239   1.615   3.381  0.0744 -0.9630  0.0813
    1SOL     OW 8617   4.025   1.682   3.523 -0.5303 -0.6557  0.2284
    1SOL    HW2 8618   4.029   1.669   3.618 -1.7278  1.1674  0.5580
    1SOL    HW3 8619   4.012   1.776   3.512 -0.5297 -0.8607 -1.7511
    1SOL    MW4 8620   4.024   1.692   3.534 -0.6886 -0.4421  0.0105
    1SOL     OW 8621   4.000   1.938   3.427  0.4851 -0.2678  0.4291
    1SOL    HW2 8622   4.084   1.981   3.444  0.4916 -0.0696 -0.0910
    1SOL    HW3 8623   4.001   1.921   3.333  0.8560 -2.2037  0.7577
    1SOL    MW4 8624   4.011   1.941   3.417  0.5350 -0.4971  0.4039
    1SOL     OW 8625   4.232   2.063   3.536 -0.0821  0.5611 -0.4969
    1SOL    HW2 8626   4.235   2.154   3.504 -0.2891 -0.0420 -2.2404
    1SOL    HW3 8627   4.308   2.021   3.495  1.2692  0.4552  1.9741
    1SOL    MW4 8628   4.243   2.070   3.527  0.0682  0.4675 -0.4010
    1SOL     OW 8629   4.246   2.320   3.425 -0.0694 -0.1611  0.2440
    1SOL    HW2 8630   4.162   2.363   3.444 -0.6640 -1.1376 -0.1192
    1SOL    HW3 8631   4.249   2.317   3.329 -0.2594 -1.3290  0.2605
    1SOL    MW4 8632   4.235   2.325   3.415 -0.1721 -0.4439  0.1984
    1SOL     OW 8633   3.995   2.454   3.474 -0.5021  0.0665  0.3783
    1SOL    HW2 8634   3.974   2.463   3.567  0.3557 -0.1412  0.5934
    1SOL    HW3 8635   3.999   2.543   3.441  0.0585  0.1766  0.7377
    1SOL    MW4 8636   3.993   2.467   3.482 -0.3147  0.0536  0.4542
    1SOL     OW 8637   4.014   2.727   3.372  0.7839  0.4865 -0.3075
    1SOL    HW2 8638   4.090   2.777   3.404  0.3565 -0.2279  1.9460
    1SOL    HW3 8639   3.939   2.767   3.417  0.3975 -1.9474  1.2751
    1SOL    MW4 8640   4.014   2.739   3.382  0.6757  0.0710  0.1988
    1SOL     OW 8641   4.236   2.847   3.448  0.4354  0.0904 -0.2520
    1SOL    HW2 8642   4.226   2.853   3.543  1.0575  0.5083 -0.2131
    1SOL    HW3 8643   4.322   2.809   3.434 -0.7813 -2.6603 -0.6214
    1SOL    MW4 8644   4.246   2.843   3.458  0.3567 -0.2177 -0.2956
    1SOL     OW 8645   4.269   3.125   3.379 -0.2296 -0.0161 -0.1932
    1SOL    HW2 8646   4.230   3.039   3.393 -1.1162  0.2988 -0.6918
    1SOL    HW3 8647   4.297   3.124   3.287  0.4608 -0.0432  0.0109
    1SOL    MW4 8648   4.268   3.114   3.369 -0.2556  0.0219 -0.2322
    1SOL     OW 8649   4.036   3.255   3.445  0.6798 -0.0043  0.1927
    1SOL    HW2 8650   4.033   3.348   3.423  1.5960 -0.2149 -0.8890
    1SOL    HW3 8651   4.119   3.225   3.409  0.4350 -1.2165  0.6217
    1SOL    MW4 8652   4.046   3.263   3.437  0.7682 -0.1919  0.1066
    1SOL     OW 8653   4.051   3.530   3.386  0.3070  0.4023  0.7671
    1SOL    HW2 8654   4.114   3.551   3.455 -1.3487  0.9918  2.1256
    1SOL    HW3 8655   3.966   3.551   3.423 -0.7034 -0.1878 -1.1207
    1SOL    MW4 8656   4.048   3.535   3.400 -0.0448  0.4020  0.6971
    1SOL     OW 8657   4.283   3.611   3.532 -0.1618 -0.2910 -0.0170
    1SOL    HW2 8658   4.284   3.616   3.628 -0.3208  0.6334 -0.0566
    1SOL    HW3 8659   4.257   3.699   3.504 -0.9776 -0.8008 -0.8907
    1SOL    MW4 8660   4.280   3.623   3.541 -0.2904 -0.2360 -0.1376
    1SOL     OW 8661   4.242   3.878   3.425 -0.1343 -0.4158 -0.6479
    1SOL    HW2 8662   4.322   3.929   3.436 -1.0958  1.1669 -0.8096
    1SOL    HW3 8663   4.229   3.873   3.330 -0.5636 -0.1122 -0.6075
    1SOL    MW4 8664   4.251   3.884   3.414 -0.3181 -0.1669 -0.6642
    1SOL     OW 8665   4.007   4.015   3.512  0.0663  0.7082  0.0542
    1SOL    HW2 8666   4.078   3.956   3.487  0.0380  0.0981  1.3571
    1SOL    HW3 8667   3.931   3.983   3.465  0.2774  0.3377 -0.0348
    1SOL    MW4 8668   4.007   4.003   3.503  0.0901  0.5789  0.2143
    1SOL     OW 8669   4.019   4.269   3.399  0.3337 -0.1603  0.1518
    1SOL    HW2 8670   4.013   4.184   3.442  2.0130  0.4582  1.6995
    1SOL    HW3 8671   3.958   4.325   3.447  0.1642 -0.1764 -0.0462
    1SOL    MW4 8672   4.011   4.265   3.411  0.5331 -0.0811  0.3302
    1SOL     OW 8673   4.241   4.391   3.517 -0.2137 -0.1334  0.0173
    1SOL    HW2 8674   4.231   4.382   3.612  0.2813  0.7387  0.1601
    1SOL    HW3 8675   4.164   4.347   3.481 -0.2655 -0.7088  0.8125
    1SOL    MW4 8676   4.230   4.384   3.525 -0.1550 -0.0944  0.1409
    1SOL     OW 8677   0.232   0.012   3.830 -0.0443  0.1447  0.2371
    1SOL    HW2 8678   0.233   0.018   3.926  0.1119  2.3645  0.1156
    1SOL    HW3 8679   0.146   0.046   3.805 -0.6711 -1.7938 -0.3644
    1SOL    MW4 8680   0.221   0.017   3.840 -0.1064  0.1817  0.1419
    1SOL     OW 8681   4.467   0.104   3.772 -0.2379  0.2990  0.3091
    1SOL    HW2 8682   4.477   0.189   3.815  1.2519  0.6161 -0.6395
    1SOL    HW3 8683   4.467   0.124   3.679  0.5288 -0.7803  0.0650
    1SOL    MW4 8684   4.468   0.118   3.766  0.0596  0.1984  0.1516
    1SOL     OW 8685   4.486   0.366   3.863 -0.0923  0.0657  0.4196
    1SOL    HW2 8686   4.420   0.417   3.816  0.0125 -1.1249 -1.0281
    1SOL    HW3 8687   4.564   0.421   3.862 -0.6538  0.8985  0.9661
    1SOL    MW4 8688   4.488   0.380   3.857 -0.1526  0.0185  0.3009
    1SOL     OW 8689   0.223   0.542   3.791  0.4932  0.2052 -0.2910
    1SOL    HW2 8690   0.205   0.635   3.800 -0.3981  0.0805 -0.6918
    1SOL    HW3 8691   0.230   0.528   3.697  0.7260 -0.1179 -0.2262
    1SOL    MW4 8692   0.222   0.552   3.780  0.4063  0.1461 -0.3350
    1SOL     OW 8693   0.220   0.809   3.915  0.1930 -0.0267  0.1100
    1SOL    HW2 8694   0.206   0.784   4.007  1.1665  0.8188  0.5011
    1SOL    HW3 8695   0.132   0.813   3.878 -0.2511  0.1159  1.1428
    1SOL    MW4 8696   0.207   0.806   3.922  0.2628  0.1037  0.2980
    1SOL     OW 8697   0.005   0.865   3.755 -0.1403 -0.4140 -0.0830
    1SOL    HW2 8698  -0.081   0.827   3.772 -0.0078 -0.9936 -0.6913
    1SOL    HW3 8699  -0.004   0.957   3.779 -0.6452 -0.6945  0.7904
    1SOL    MW4 8700  -0.008   0.872   3.760 -0.1893 -0.5274 -0.0477
    1SOL     OW 8701   4.468   1.133   3.878 -0.2284 -0.5808  0.0814
    1SOL    HW2 8702   4.398   1.173   3.826 -0.6042 -0.7144  0.4737
    1SOL    HW3 8703   4.549   1.171   3.844 -0.5433  0.1104  0.0957
    1SOL    MW4 8704   4.469   1.143   3.866 -0.3190 -0.5072  0.1349
    1SOL     OW 8705   0.195   1.261   3.771 -0.1919 -0.4876  0.2615
    1SOL    HW2 8706   0.169   1.345   3.810 -0.5922 -0.2241 -0.5623
    1SOL    HW3 8707   0.202   1.279   3.677 -2.6801 -1.9595 -0.2502
    1SOL    MW4 8708   0.193   1.274   3.764 -0.5730 -0.6469  0.0854
    1SOL     OW 8709   0.227   1.538   3.857  0.2710  0.1138  0.3115
    1SOL    HW2 8710   0.224   1.530   3.952  0.0355 -0.4647  0.2525
    1SOL    HW3 8711   0.153   1.595   3.835  0.3023  0.2147  0.4673
    1SOL    MW4 8712   0.217   1.545   3.866  0.2441  0.0509  0.3242
    1SOL     OW 8713   4.485   1.674   3.780  0.4285  0.2473 -0.0611
    1SOL    HW2 8714   4.495   1.769   3.787  0.6086  0.2712 -0.6276
    1SOL    HW3 8715   4.481   1.657   3.686 -0.2126 -0.2444  0.0500
    1SOL    MW4 8716   4.486   1.684   3.768  0.3681  0.1856 -0.1211
    1SOL     OW 8717   0.006   1.933   3.846  0.0568 -0.1672  0.1464
    1SOL    HW2 8718  -0.008   1.907   3.937  0.1626  0.9797  0.5077
    1SOL    HW3 8719  -0.068   1.990   3.826 -0.0394 -0.5295 -0.5295
    1SOL    MW4 8720  -0.005   1.937   3.856  0.0577 -0.0637  0.1047
    1SOL     OW 8721   0.230   2.053   3.759  0.7774  0.0284  0.8285
    1SOL    HW2 8722   0.224   2.143   3.791 -1.0247  0.1277  0.2192
    1SOL    HW3 8723   0.153   2.009   3.795  0.0669 -0.4974 -1.3170
    1SOL    MW4 8724   0.219   2.059   3.768  0.4459 -0.0279  0.4647
    1SOL     OW 8725   0.197   2.321   3.841  0.0466  0.2623  0.3158
    1SOL    HW2 8726   0.183   2.292   3.932 -1.7638 -0.4879 -0.1724
    1SOL    HW3 8727   0.129   2.386   3.826  0.3946  0.4429 -0.4882
    1SOL    MW4 8728   0.186   2.325   3.851 -0.1464  0.1872  0.1452
    1SOL     OW 8729   4.468   2.478   3.777 -0.0093 -0.0457 -0.2321
    1SOL    HW2 8730   4.392   2.432   3.813 -0.4168 -0.1350 -1.1893
    1SOL    HW3 8731   4.468   2.563   3.820  0.3636 -0.6965  1.0680
    1SOL    MW4 8732   4.458   2.483   3.787 -0.0138 -0.1431 -0.1872
    1SOL     OW 8733   4.441   2.761   3.902  0.4011  0.5515  0.1097
    1SOL    HW2 8734   4.465   2.728   3.989 -0.0332  1.8530  0.7482
    1SOL    HW3 8735   4.512   2.820   3.878  0.0862  0.8870 -0.0140
    1SOL    MW4 8736   4.454   2.765   3.910  0.3023  0.7677  0.1779
    1SOL     OW 8737   0.179   2.918   3.808 -0.0998 -0.0673  0.1128
    1SOL    HW2 8738   0.250   2.862   3.840  0.3459  0.1977 -0.4043
    1SOL    HW3 8739   0.182   2.907   3.713 -0.0925  0.7429  0.0215
    1SOL    MW4 8740   0.189   2.909   3.800 -0.0400  0.0749  0.0327
    1SOL     OW 8741   0.204   3.166   3.925  0.2868 -0.0237 -0.4691
    1SOL    HW2 8742   0.192   3.160   4.020  0.4139  1.1021 -0.3743
    1SOL    HW3 8743   0.196   3.076   3.894  1.1001 -0.5096  0.7106
    1SOL    MW4 8744   0.201   3.154   3.934  0.4109  0.0610 -0.3009
    1SOL     OW 8745   4.455   3.244   3.781  0.3737  0.0995 -0.1644
    1SOL    HW2 8746   4.547   3.224   3.801  0.4787  0.1340 -0.5995
    1SOL    HW3 8747   4.453   3.254   3.686 -0.3311 -1.1430 -0.2902
    1SOL    MW4 8748   4.467   3.243   3.771  0.2942 -0.0598 -0.2384
    1SOL     OW 8749   4.463   3.516   3.871  0.0162 -0.3917 -0.6328
    1SOL    HW2 8750   4.546   3.547   3.836  0.3141 -1.6223 -1.0357
    1SOL    HW3 8751   4.459   3.423   3.847 -0.4632 -0.8976  1.2496
    1SOL    MW4 8752   4.473   3.508   3.863 -0.0081 -0.6208 -0.4375
    1SOL     OW 8753   0.208   3.614   3.759 -0.0997  0.1175 -0.0046
    1SOL    HW2 8754   0.296   3.586   3.785 -0.2346 -0.2572  0.0557
    1SOL    HW3 8755   0.206   3.708   3.778 -0.1138 -0.1041  1.1280
    1SOL    MW4 8756   0.219   3.623   3.765 -0.1193  0.0391  0.1531
    1SOL     OW 8757   0.237   3.877   3.830 -0.0533  0.4076  0.0302
    1SOL    HW2 8758   0.238   3.886   3.926  0.3857  0.9024 -0.0153
    1SOL    HW3 8759   0.315   3.925   3.801  0.8001 -1.2591 -0.4573
    1SOL    MW4 8760   0.247   3.885   3.839  0.1172  0.2530 -0.0403
    1SOL     OW 8761   0.003   4.006   3.767  0.0812  0.2446 -0.2171
    1SOL    HW2 8762  -0.058   3.961   3.826  0.0270 -1.1891 -1.3306
    1SOL    HW3 8763   0.088   3.966   3.785  0.4249  1.1765  0.2571
    1SOL    MW4 8764   0.006   3.995   3.777  0.1194  0.1781 -0.3016
    1SOL     OW 8765   4.486   4.272   3.878  0.1294  0.3660 -0.2914
    1SOL    HW2 8766   4.566   4.304   3.836  0.9607 -0.0350  0.9405
    1SOL    HW3 8767   4.470   4.187   3.839  1.9171 -0.8192  1.4250
    1SOL    MW4 8768   4.495   4.265   3.868  0.4749  0.1564  0.0978
    1SOL     OW 8769   0.216   4.406   3.764 -0.0318 -0.3664 -0.0782
    1SOL    HW2 8770   0.280   4.350   3.808 -0.2206 -0.5725 -0.0647
    1SOL    HW3 8771   0.232   4.493   3.799  0.7942 -0.2625 -0.6799
    1SOL    MW4 8772   0.226   4.410   3.774  0.0522 -0.3796 -0.1557
    1SOL     OW 8773   0.678   4.656   3.843  0.1783  0.0312 -0.0118
    1SOL    HW2 8774   0.673   4.568   3.808 -1.4293 -0.3148  1.0505
    1SOL    HW3 8775   0.599   4.700   3.812  0.2119  0.6232  0.7030
    1SOL    MW4 8776   0.667   4.650   3.834 -0.0294  0.0634  0.2229
    1SOL     OW 8777   0.470   0.153   3.761  0.1395 -0.0864  0.4665
    1SOL    HW2 8778   0.463   0.243   3.794  1.3527 -0.7639  2.6672
    1SOL    HW3 8779   0.383   0.116   3.773 -0.7016  1.1299 -1.5761
    1SOL    MW4 8780   0.458   0.160   3.767  0.1886 -0.0153  0.4873
    1SOL     OW 8781   0.433   0.405   3.874  0.0223  0.1855  0.2847
    1SOL    HW2 8782   0.503   0.450   3.827 -0.7454  1.1105  0.0127
    1SOL    HW3 8783   0.354   0.454   3.852 -0.4997  0.0369  1.7495
    1SOL    MW4 8784   0.432   0.418   3.865 -0.1478  0.2880  0.4420
    1SOL     OW 8785   0.659   0.532   3.756  0.1390 -0.1524  0.1216
    1SOL    HW2 8786   0.740   0.492   3.786  0.5772  0.3825 -0.3571
    1SOL    HW3 8787   0.646   0.607   3.814 -0.5414 -0.8234  0.8453
    1SOL    MW4 8788   0.668   0.537   3.768  0.1070 -0.1704  0.1538
    1SOL     OW 8789   0.618   0.781   3.893 -0.2320 -0.1051  0.3559
    1SOL    HW2 8790   0.689   0.821   3.843  0.7721 -0.0792  1.7700
    1SOL    HW3 8791   0.538   0.813   3.851  0.5674  1.5045  0.0270
    1SOL    MW4 8792   0.617   0.790   3.881  0.0060  0.1107  0.4992
    1SOL     OW 8793   0.404   0.907   3.760  0.0315  0.0090 -0.6725
    1SOL    HW2 8794   0.418   0.995   3.795 -0.5974  0.6998 -2.1434
    1SOL    HW3 8795   0.338   0.868   3.817  2.0027 -0.3832  1.4205
    1SOL    MW4 8796   0.398   0.913   3.772  0.2086  0.0484 -0.5903
    1SOL     OW 8797   0.440   1.145   3.898  0.0287 -0.2070 -0.1088
    1SOL    HW2 8798   0.511   1.195   3.858 -0.6420  0.8693  0.0054
    1SOL    HW3 8799   0.360   1.189   3.868 -0.5554 -0.8943  0.4194
    1SOL    MW4 8800   0.439   1.158   3.889 -0.1369 -0.1557 -0.0243
    1SOL     OW 8801   0.635   1.278   3.750 -0.0216 -0.1746  0.2762
    1SOL    HW2 8802   0.705   1.228   3.791  0.6472  0.1610 -0.4649
    1SOL    HW3 8803   0.650   1.270   3.656 -0.3375  0.8133  0.1350
    1SOL    MW4 8804   0.646   1.270   3.743  0.0250  0.0001  0.1600
    1SOL     OW 8805   0.654   1.544   3.858  0.4778  0.0404  0.0439
    1SOL    HW2 8806   0.729   1.594   3.828  1.1423 -0.3091  1.0983
    1SOL    HW3 8807   0.666   1.457   3.820  0.1853  0.2065 -0.4357
    1SOL    MW4 8808   0.665   1.539   3.849  0.5269  0.0162  0.1197
    1SOL     OW 8809   0.423   1.660   3.741 -0.0702 -0.0603  0.3404
    1SOL    HW2 8810   0.498   1.612   3.776 -0.6987 -1.6694 -0.4603
    1SOL    HW3 8811   0.347   1.616   3.778 -0.6408  1.5275  1.1077
    1SOL    MW4 8812   0.423   1.648   3.750 -0.2283 -0.0632  0.3359
    1SOL     OW 8813   0.420   1.894   3.869 -0.4000  0.3460 -0.1736
    1SOL    HW2 8814   0.425   1.810   3.823  0.7022  0.9703 -1.2233
    1SOL    HW3 8815   0.358   1.946   3.819 -0.4415  0.4569 -0.0084
    1SOL    MW4 8816   0.413   1.890   3.857 -0.2601  0.4430 -0.2904
    1SOL     OW 8817   0.625   2.039   3.752 -0.3969 -0.4479 -0.0379
    1SOL    HW2 8818   0.614   2.127   3.788  0.4153 -0.4142  0.1345
    1SOL    HW3 8819   0.551   1.990   3.787 -0.9425  0.2083 -0.2680
    1SOL    MW4 8820   0.614   2.044   3.761 -0.3617 -0.3569 -0.0453
    1SOL     OW 8821   0.606   2.292   3.859  0.0124  0.3139  0.2587
    1SOL    HW2 8822   0.684   2.336   3.824 -0.0605  1.7663  1.8501
    1SOL    HW3 8823   0.533   2.350   3.836 -0.5220 -0.6893 -0.6136
    1SOL    MW4 8824   0.606   2.306   3.851 -0.0677  0.3731  0.3538
    1SOL     OW 8825   0.401   2.472   3.791  0.5378  0.0249  0.3388
    1SOL    HW2 8826   0.327   2.416   3.815 -0.4183  1.4886  0.8934
    1SOL    HW3 8827   0.415   2.456   3.698 -1.0021  0.3330  0.0452
    1SOL    MW4 8828   0.393   2.463   3.782  0.2085  0.2584  0.3734
    1SOL     OW 8829   0.380   2.735   3.871 -0.1216  0.1025  0.5023
    1SOL    HW2 8830   0.442   2.775   3.810 -0.7610  0.7526  0.2644
    1SOL    HW3 8831   0.377   2.643   3.846  0.9680 -0.0010  0.7100
    1SOL    MW4 8832   0.388   2.728   3.860 -0.0623  0.1748  0.4981
    1SOL     OW 8833   0.590   2.845   3.735 -0.7475 -0.3994 -0.2619
    1SOL    HW2 8834   0.664   2.788   3.755 -1.0164 -0.6211  0.1113
    1SOL    HW3 8835   0.587   2.849   3.640 -0.2470 -0.3797 -0.2749
    1SOL    MW4 8836   0.599   2.838   3.725 -0.7170 -0.4263 -0.2143
    1SOL     OW 8837   0.656   3.087   3.827 -0.3877 -0.0495  0.4475
    1SOL    HW2 8838   0.658   3.083   3.922  2.0809 -1.6243  0.3770
    1SOL    HW3 8839   0.644   2.995   3.800 -0.5442  0.3167 -0.7586
    1SOL    MW4 8840   0.655   3.074   3.836 -0.0827 -0.2091  0.2789
    1SOL     OW 8841   0.414   3.241   3.766 -0.1181  0.1683 -0.4004
    1SOL    HW2 8842   0.480   3.180   3.798 -1.1093 -0.8259 -0.2482
    1SOL    HW3 8843   0.336   3.222   3.818  0.0351  2.7335  0.8883
    1SOL    MW4 8844   0.412   3.231   3.777 -0.2286  0.3760 -0.2100
    1SOL     OW 8845   0.433   3.497   3.889  0.0494  0.3793 -0.1684
    1SOL    HW2 8846   0.519   3.537   3.876  0.4586 -0.4721 -0.0921
    1SOL    HW3 8847   0.438   3.413   3.845 -0.8566  0.4562 -0.4373
    1SOL    MW4 8848   0.445   3.491   3.881 -0.0161  0.2773 -0.1938
    1SOL     OW 8849   0.656   3.612   3.768 -0.0324 -0.3622  0.0606
    1SOL    HW2 8850   0.675   3.703   3.793 -0.0395 -1.0366  2.6893
    1SOL    HW3 8851   0.640   3.616   3.674 -0.5048  2.4469  0.2083
    1SOL    MW4 8852   0.656   3.625   3.759 -0.0955 -0.0803  0.4270
    1SOL     OW 8853   0.686   3.871   3.884 -0.0108  0.0298  0.0892
    1SOL    HW2 8854   0.693   3.859   3.979 -0.0417 -0.8423 -0.0103
    1SOL    HW3 8855   0.764   3.920   3.860  0.3999 -0.4268  0.4658
    1SOL    MW4 8856   0.697   3.876   3.893  0.0394 -0.1457  0.1256
    1SOL     OW 8857   0.475   4.010   3.775 -0.5363  0.4351 -0.0007
    1SOL    HW2 8858   0.549   3.967   3.817  0.3091  1.2933 -0.5872
    1SOL    HW3 8859   0.479   3.981   3.684 -0.3877  1.1844 -0.2339
    1SOL    MW4 8860   0.486   4.001   3.768 -0.4052  0.6475 -0.1090
    1SOL     OW 8861   0.458   4.260   3.879  0.0875  0.2379  0.1279
    1SOL    HW2 8862   0.535   4.301   3.840  0.2823  0.3612  0.6340
    1SOL    HW3 8863   0.464   4.168   3.855  1.1354 -0.0196  1.3303
    1SOL    MW4 8864   0.469   4.253   3.871  0.2514  0.2198  0.3533
    1SOL     OW 8865   0.663   4.399   3.768 -0.3065  0.2945 -0.0268
    1SOL    HW2 8866   0.738   4.352   3.804 -0.4258 -0.3549 -0.6154
    1SOL    HW3 8867   0.670   4.386   3.673 -0.9581  0.5316 -0.1092
    1SOL    MW4 8868   0.674   4.391   3.760 -0.4082  0.2398 -0.1149
    1SOL     OW 8869   1.130   4.635   3.880 -0.0072 -0.2971 -0.0089
    1SOL    HW2 8870   1.208   4.670   3.838  1.4052 -2.4414  0.7404
    1SOL    HW3 8871   1.121   4.547   3.844 -1.1588 -0.6448  1.1005
    1SOL    MW4 8872   1.139   4.628   3.870  0.0272 -0.6261  0.2360
    1SOL     OW 8873   0.926   0.131   3.767  0.2141 -0.1844 -0.0386
    1SOL    HW2 8874   1.002   0.094   3.811  0.1774  0.4048  0.5303
    1SOL    HW3 8875   0.853   0.075   3.794  0.5695 -1.2384 -1.2303
    1SOL    MW4 8876   0.927   0.119   3.776  0.2561 -0.2458 -0.1206
    1SOL     OW 8877   0.874   0.398   3.859 -0.2042  0.0047  0.2132
    1SOL    HW2 8878   0.853   0.389   3.952 -0.3714  0.9894  0.2760
    1SOL    HW3 8879   0.880   0.308   3.827  0.3316 -0.3478  1.2802
    1SOL    MW4 8880   0.872   0.385   3.867 -0.1556  0.0881  0.3624
    1SOL     OW 8881   1.097   0.513   3.744 -0.3123 -0.0819 -0.0467
    1SOL    HW2 8882   1.170   0.467   3.786  0.2022 -0.2522 -1.1228
    1SOL    HW3 8883   1.020   0.479   3.789  0.2473 -0.0345  0.9782
    1SOL    MW4 8884   1.097   0.502   3.756 -0.1705 -0.0981 -0.0536
    1SOL     OW 8885   1.095   0.786   3.814 -0.2113  0.2086  0.0246
    1SOL    HW2 8886   1.068   0.776   3.905 -1.4704  0.8486 -0.2743
    1SOL    HW3 8887   1.097   0.697   3.780  0.5265 -0.0587  0.7401
    1SOL    MW4 8888   1.092   0.773   3.821 -0.2801  0.2577  0.0796
    1SOL     OW 8889   0.821   0.884   3.727  0.1782  0.0328  0.2664
    1SOL    HW2 8890   0.912   0.872   3.755  0.0639 -1.6931 -0.0495
    1SOL    HW3 8891   0.825   0.880   3.632 -0.2765 -0.4780  0.2669
    1SOL    MW4 8892   0.834   0.882   3.719  0.1032 -0.2623  0.2248
    1SOL     OW 8893   0.851   1.152   3.844  0.4425 -0.2630  0.2850
    1SOL    HW2 8894   0.869   1.129   3.935  2.0732  0.9644  0.3000
    1SOL    HW3 8895   0.842   1.067   3.800  0.5558 -0.8780  1.4161
    1SOL    MW4 8896   0.852   1.138   3.850  0.6726 -0.1822  0.4363
    1SOL     OW 8897   1.082   1.267   3.746  0.1685 -0.0403 -0.1613
    1SOL    HW2 8898   1.092   1.350   3.792 -0.1983 -0.8374  1.3906
    1SOL    HW3 8899   1.000   1.230   3.779 -0.3605 -0.4085 -1.8274
    1SOL    MW4 8900   1.073   1.273   3.757  0.0503 -0.1941 -0.1764
    1SOL     OW 8901   1.091   1.518   3.880  0.3327 -0.1120 -0.2787
    1SOL    HW2 8902   1.109   1.529   3.973  0.7649  2.1109 -0.5971
    1SOL    HW3 8903   1.167   1.556   3.836 -0.1633 -0.5466 -1.5486
    1SOL    MW4 8904   1.104   1.524   3.886  0.3244  0.1240 -0.4885
    1SOL     OW 8905   0.883   1.670   3.770  0.4266 -0.2831  0.1625
    1SOL    HW2 8906   0.955   1.621   3.810  1.7748  1.2084 -0.3917
    1SOL    HW3 8907   0.891   1.654   3.676 -0.2989 -0.5466  0.1410
    1SOL    MW4 8908   0.894   1.661   3.763  0.5088 -0.1211  0.0868
    1SOL     OW 8909   0.858   1.945   3.867  0.3456  0.1701  0.0236
    1SOL    HW2 8910   0.874   1.852   3.850 -0.1913  0.3519 -1.5043
    1SOL    HW3 8911   0.774   1.963   3.825  1.1684  1.7006 -0.9771
    1SOL    MW4 8912   0.849   1.935   3.859  0.3834  0.3961 -0.3102
    1SOL     OW 8913   1.089   2.000   3.739 -0.3598 -0.4253  0.0938
    1SOL    HW2 8914   0.998   1.995   3.769 -0.2087 -0.5584  0.5351
    1SOL    HW3 8915   1.083   2.020   3.646 -0.8411 -0.0919  0.1956
    1SOL    MW4 8916   1.076   2.002   3.731 -0.4034 -0.3989  0.1655
    1SOL     OW 8917   1.042   2.263   3.795  0.3907  0.1309  0.3812
    1SOL    HW2 8918   1.054   2.261   3.890  0.4807 -0.9705  0.3534
    1SOL    HW3 8919   1.060   2.174   3.767  0.1911  0.4118 -0.6560
    1SOL    MW4 8920   1.046   2.251   3.804  0.3762  0.0226  0.2406
    1SOL     OW 8921   0.814   2.425   3.741 -0.0370 -0.0457  0.1234
    1SOL    HW2 8922   0.840   2.517   3.744  0.4303 -0.1905  0.5325
    1SOL    HW3 8923   0.888   2.377   3.778  0.0301 -0.6558 -0.7697
    1SOL    MW4 8924   0.827   2.431   3.746  0.0335 -0.1454  0.0596
    1SOL     OW 8925   0.842   2.686   3.795  0.3931 -0.0201 -0.0090
    1SOL    HW2 8926   0.867   2.679   3.888  1.2065  0.1359 -0.2095
    1SOL    HW3 8927   0.912   2.738   3.756  0.3247 -0.5270 -0.8135
    1SOL    MW4 8928   0.855   2.692   3.802  0.4914 -0.0665 -0.1416
    1SOL     OW 8929   1.064   2.824   3.690 -0.6624 -0.6211  0.0799
    1SOL    HW2 8930   1.143   2.775   3.714 -0.2649 -0.0271 -0.0047
    1SOL    HW3 8931   1.076   2.910   3.731 -0.9528 -0.3031 -0.5035
    1SOL    MW4 8932   1.076   2.829   3.699 -0.6480 -0.5009 -0.0081
    1SOL     OW 8933   1.105   3.072   3.824 -0.4280  0.0435  0.3555
    1SOL    HW2 8934   1.188   3.118   3.817 -0.7989  0.7160  0.2914
    1SOL    HW3 8935   1.039   3.139   3.802 -1.0000 -0.3860  0.7642
    1SOL    MW4 8936   1.107   3.087   3.820 -0.5525  0.0753  0.4013
    1SOL     OW 8937   0.886   3.247   3.775 -0.2874 -0.3578  0.0858
    1SOL    HW2 8938   0.814   3.189   3.800  0.5356 -1.2752  0.3948
    1SOL    HW3 8939   0.884   3.248   3.680 -0.1544 -1.1303  0.0656
    1SOL    MW4 8940   0.876   3.239   3.766 -0.1613 -0.5808  0.1242
    1SOL     OW 8941   0.875   3.490   3.900  0.1002  0.1841  0.3997
    1SOL    HW2 8942   0.868   3.406   3.856  0.6801  0.8390 -0.9578
    1SOL    HW3 8943   0.808   3.545   3.860  0.4026  0.6803  0.5637
    1SOL    MW4 8944   0.866   3.486   3.889  0.2166  0.3359  0.2425
    1SOL     OW 8945   1.099   3.569   3.733 -0.0219 -0.1429 -0.1909
    1SOL    HW2 8946   1.118   3.657   3.767 -0.6036 -0.2724  0.4799
    1SOL    HW3 8947   1.030   3.536   3.791 -1.0194 -0.3684 -1.4961
    1SOL    MW4 8948   1.093   3.577   3.745 -0.2303 -0.1898 -0.2749
    1SOL     OW 8949   1.133   3.824   3.828 -0.3800 -0.0309  0.5874
    1SOL    HW2 8950   1.127   3.824   3.924  1.4330 -0.2708  0.7041
    1SOL    HW3 8951   1.222   3.853   3.809 -0.3747 -1.0508 -1.0168
    1SOL    MW4 8952   1.144   3.828   3.838 -0.1401 -0.1972  0.3910
    1SOL     OW 8953   0.923   4.002   3.719 -0.0999 -0.1893  0.1150
    1SOL    HW2 8954   1.000   3.946   3.734  0.2558  0.2297 -0.1362
    1SOL    HW3 8955   0.904   3.992   3.626  0.3900  0.6559 -0.0732
    1SOL    MW4 8956   0.931   3.993   3.709  0.0116 -0.0224  0.0570
    1SOL     OW 8957   0.890   4.255   3.829  0.1135 -0.2638  0.1217
    1SOL    HW2 8958   0.890   4.240   3.923 -0.6892 -0.8030  0.0427
    1SOL    HW3 8959   0.914   4.170   3.791  3.7874  0.7614 -0.0689
    1SOL    MW4 8960   0.893   4.242   3.836  0.4925 -0.2003  0.0861
    1SOL     OW 8961   1.130   4.392   3.771  0.1339  0.0654  0.3474
    1SOL    HW2 8962   1.045   4.353   3.792  0.1912  0.1329  0.7039
    1SOL    HW3 8963   1.126   4.406   3.676  0.2422 -1.1372  0.1474
    1SOL    MW4 8964   1.118   4.388   3.761  0.1557 -0.0839  0.3679
    1SOL     OW 8965   1.614   4.657   3.833 -0.0587  0.1775  0.2572
    1SOL    HW2 8966   1.608   4.665   3.928 -0.1677  0.1069  0.2563
    1SOL    HW3 8967   1.602   4.564   3.816  1.4607 -0.0407  0.2866
    1SOL    MW4 8968   1.612   4.646   3.843  0.1274  0.1388  0.2611
    1SOL     OW 8969   1.353   0.072   3.745  0.7410 -0.1773  0.5553
    1SOL    HW2 8970   1.334   0.160   3.777 -0.2998  0.3225 -1.3687
    1SOL    HW3 8971   1.445   0.059   3.764  0.9040  1.3151  0.8760
    1SOL    MW4 8972   1.362   0.082   3.752  0.6251  0.0855  0.3438
    1SOL     OW 8973   1.303   0.338   3.830  0.2575 -0.6011 -0.1478
    1SOL    HW2 8974   1.291   0.341   3.925 -0.3471  0.1615 -0.2424
    1SOL    HW3 8975   1.386   0.382   3.815 -0.2765  0.4546 -0.0731
    1SOL    MW4 8976   1.312   0.344   3.841  0.1072 -0.3612 -0.1500
    1SOL     OW 8977   1.526   0.481   3.727  0.1796 -0.2071 -0.3840
    1SOL    HW2 8978   1.612   0.462   3.764  0.6025  1.1595 -0.6379
    1SOL    HW3 8979   1.511   0.573   3.748 -1.0865 -0.3533 -0.6143
    1SOL    MW4 8980   1.535   0.490   3.735  0.0684 -0.0461 -0.4478
    1SOL     OW 8981   1.516   0.739   3.802 -0.4281 -0.0267 -0.1792
    1SOL    HW2 8982   1.600   0.779   3.783 -0.1454 -1.6319 -2.5830
    1SOL    HW3 8983   1.452   0.808   3.785  0.2273  0.2847 -1.4599
    1SOL    MW4 8984   1.518   0.753   3.797 -0.3043 -0.1974 -0.6652
    1SOL     OW 8985   1.321   0.917   3.737  0.0858 -0.1251 -0.0741
    1SOL    HW2 8986   1.308   1.002   3.780 -1.7088 -0.0405 -0.7198
    1SOL    HW3 8987   1.238   0.871   3.750  0.3845 -1.0417 -1.3557
    1SOL    MW4 8988   1.308   0.922   3.744 -0.1117 -0.2349 -0.3285
    1SOL     OW 8989   1.307   1.169   3.884 -0.1598  0.1093  0.5723
    1SOL    HW2 8990   1.390   1.202   3.848 -0.2705 -1.0965 -0.8217
    1SOL    HW3 8991   1.240   1.212   3.832 -0.3432 -0.9251 -0.0539
    1SOL    MW4 8992   1.309   1.179   3.873 -0.1987 -0.1863  0.3059
    1SOL     OW 8993   1.524   1.271   3.743  0.0288 -0.5143  0.3320
    1SOL    HW2 8994   1.607   1.232   3.771  0.2363  0.1816  0.7139
    1SOL    HW3 8995   1.534   1.364   3.764 -0.3698 -0.2233 -0.7508
    1SOL    MW4 8996   1.537   1.279   3.749  0.0035 -0.3841  0.2396
    1SOL     OW 8997   1.527   1.535   3.834 -0.2757 -0.4107 -0.6411
    1SOL    HW2 8998   1.542   1.554   3.926  0.3164  0.7181 -0.9588
    1SOL    HW3 8999   1.607   1.565   3.790 -1.0680  0.2528 -1.6646
    1SOL    MW4 9000   1.539   1.542   3.840 -0.3021 -0.1743 -0.8180
    1SOL     OW 9001   1.282   1.632   3.739 -0.1243 -0.1685  0.1787
    1SOL    HW2 9002   1.300   1.720   3.773  0.1811 -0.4111  0.6444
    1SOL    HW3 9003   1.364   1.584   3.753 -0.3774 -0.6009  0.1676
    1SOL    MW4 9004   1.295   1.637   3.746 -0.1174 -0.2575  0.2384
    1SOL     OW 9005   1.335   1.882   3.841 -0.1603  0.2309 -0.0896
    1SOL    HW2 9006   1.344   1.898   3.935 -0.8742 -1.0060  0.2075
    1SOL    HW3 9007   1.247   1.914   3.820  0.2992  1.2337 -0.5055
    1SOL    MW4 9008   1.325   1.888   3.851 -0.1938  0.1999 -0.1054
    1SOL     OW 9009   1.550   1.988   3.720  0.0114  1.0136 -0.0021
    1SOL    HW2 9010   1.473   1.945   3.758 -1.4444  3.2257 -0.3069
    1SOL    HW3 9011   1.522   2.011   3.631  1.2825  1.1969 -0.3550
    1SOL    MW4 9012   1.536   1.986   3.713 -0.0129  1.3297 -0.0889
    1SOL     OW 9013   1.585   2.242   3.812  0.3885 -0.3707 -0.1751
    1SOL    HW2 9014   1.672   2.280   3.828  0.9302 -1.1474 -1.2989
    1SOL    HW3 9015   1.602   2.153   3.784 -0.6970  0.0438 -2.2031
    1SOL    MW4 9016   1.599   2.235   3.811  0.3167 -0.4184 -0.5908
    1SOL     OW 9017   1.345   2.392   3.760  0.7210 -0.0999 -0.8801
    1SOL    HW2 9018   1.420   2.333   3.769  0.2684 -0.6712 -0.8204
    1SOL    HW3 9019   1.280   2.357   3.820  0.1267 -0.0424 -1.4858
    1SOL    MW4 9020   1.347   2.380   3.769  0.5829 -0.1676 -0.9522
    1SOL     OW 9021   1.303   2.680   3.773  0.1702 -0.3130 -0.4218
    1SOL    HW2 9022   1.290   2.701   3.866  1.9457 -0.5493 -0.1020
    1SOL    HW3 9023   1.317   2.586   3.771  1.5695 -0.1245 -0.7239
    1SOL    MW4 9024   1.303   2.671   3.785  0.5890 -0.3195 -0.4194
    1SOL     OW 9025   1.557   2.802   3.717  0.6746 -0.6947 -0.2285
    1SOL    HW2 9026   1.472   2.760   3.730  0.9311 -0.9275  0.6944
    1SOL    HW3 9027   1.553   2.836   3.627 -0.0462 -1.4942 -0.5065
    1SOL    MW4 9028   1.545   2.801   3.707  0.6133 -0.8307 -0.1435
    1SOL     OW 9029   1.543   3.063   3.828 -0.6247 -0.3986 -0.5718
    1SOL    HW2 9030   1.557   3.069   3.923  1.5019 -0.7322 -0.8569
    1SOL    HW3 9031   1.560   2.971   3.807  0.5336  0.0364 -1.5452
    1SOL    MW4 9032   1.547   3.052   3.838 -0.1913 -0.3853 -0.7379
    1SOL     OW 9033   1.323   3.211   3.774  0.6854 -0.0114 -0.3399
    1SOL    HW2 9034   1.332   3.283   3.836  0.9933 -1.0614  0.8495
    1SOL    HW3 9035   1.402   3.158   3.787  1.8410  0.9198 -3.1652
    1SOL    MW4 9036   1.335   3.214   3.784  0.8786 -0.0272 -0.5558
    1SOL     OW 9037   1.330   3.468   3.878  0.3909 -0.2134  0.2198
    1SOL    HW2 9038   1.401   3.518   3.837  1.1986 -1.0809  0.5212
    1SOL    HW3 9039   1.254   3.484   3.822  1.4617 -1.3655 -1.6458
    1SOL    MW4 9040   1.330   3.476   3.865  0.6388 -0.4795  0.0136
    1SOL     OW 9041   1.546   3.595   3.766  0.1221  0.2925 -0.0067
    1SOL    HW2 9042   1.631   3.559   3.790  0.6747  1.3915 -0.3244
    1SOL    HW3 9043   1.545   3.683   3.802 -0.6001  0.5437 -0.6232
    1SOL    MW4 9044   1.557   3.602   3.774  0.0997  0.4706 -0.1302
    1SOL     OW 9045   1.580   3.855   3.872 -0.4204 -0.6158 -0.1362
    1SOL    HW2 9046   1.569   3.847   3.967  0.6826  2.4260  0.3191
    1SOL    HW3 9047   1.509   3.912   3.844  0.7198  0.5578 -0.7139
    1SOL    MW4 9048   1.569   3.861   3.881 -0.1243 -0.0598 -0.1521
    1SOL     OW 9049   1.360   3.997   3.777 -0.0507 -0.2126 -0.3842
    1SOL    HW2 9050   1.329   4.082   3.809 -0.1232 -0.6323  0.7064
    1SOL    HW3 9051   1.357   4.004   3.682 -0.5335  0.8360 -0.2993
    1SOL    MW4 9052   1.355   4.009   3.769 -0.1239 -0.1297 -0.2294
    1SOL     OW 9053   1.322   4.246   3.891 -0.4885 -0.2857  0.1217
    1SOL    HW2 9054   1.410   4.271   3.861 -0.2196 -1.2981  0.0688
    1SOL    HW3 9055   1.263   4.309   3.849  0.1586  0.0846 -0.2356
    1SOL    MW4 9056   1.326   4.258   3.882 -0.3678 -0.3710  0.0675
    1SOL     OW 9057   1.576   4.380   3.781  0.1315  0.2416  0.7402
    1SOL    HW2 9058   1.652   4.332   3.814 -0.3212 -0.4688  0.7533
    1SOL    HW3 9059   1.577   4.364   3.687 -1.3451 -1.7303  1.0237
    1SOL    MW4 9060   1.586   4.371   3.773 -0.1229 -0.1125  0.7792
    1SOL     OW 9061   1.976   4.634   3.863 -0.1709 -0.0060 -0.4872
    1SOL    HW2 9062   2.064   4.664   3.841 -0.7886  0.7704 -1.9225
    1SOL    HW3 9063   1.977   4.541   3.841  0.3522 -0.0533 -0.2874
    1SOL    MW4 9064   1.988   4.626   3.857 -0.1835  0.0906 -0.6504
    1SOL     OW 9065   1.806   0.133   3.711  0.0957 -0.0935  0.0549
    1SOL    HW2 9066   1.879   0.095   3.760 -0.2019 -0.8554 -0.0763
    1SOL    HW3 9067   1.731   0.076   3.732 -0.2811  0.2180 -0.4196
    1SOL    MW4 9068   1.806   0.120   3.720  0.0068 -0.1529 -0.0250
    1SOL     OW 9069   1.757   0.395   3.843 -0.2974  0.3137  0.0192
    1SOL    HW2 9070   1.758   0.386   3.938 -1.8471 -0.4585 -0.0144
    1SOL    HW3 9071   1.762   0.306   3.810  0.5841  0.6014 -0.6319
    1SOL    MW4 9072   1.757   0.382   3.851 -0.3855  0.2497 -0.0710
    1SOL     OW 9073   2.041   0.477   3.806  0.5934 -0.5240 -0.1763
    1SOL    HW2 9074   1.957   0.437   3.829  0.2272  0.3034 -0.0515
    1SOL    HW3 9075   2.031   0.502   3.715  0.0701  1.1268  0.3114
    1SOL    MW4 9076   2.028   0.475   3.797  0.4761 -0.1971 -0.0954
    1SOL     OW 9077   1.951   0.726   3.864 -0.4481  0.2354  0.0410
    1SOL    HW2 9078   1.966   0.751   3.956 -0.8386  2.1468 -0.3996
    1SOL    HW3 9079   1.979   0.634   3.860 -0.9330 -0.0498  2.2042
    1SOL    MW4 9080   1.957   0.717   3.876 -0.5635  0.4500  0.2685
    1SOL     OW 9081   1.751   0.883   3.741  0.3934 -0.0811 -0.0937
    1SOL    HW2 9082   1.823   0.835   3.783  0.7982 -0.8165 -1.6222
    1SOL    HW3 9083   1.760   0.864   3.648  0.1528  2.4305 -0.6628
    1SOL    MW4 9084   1.762   0.874   3.734  0.4152  0.1532 -0.3707
    1SOL     OW 9085   1.787   1.164   3.784  0.3114 -0.2598  0.6456
    1SOL    HW2 9086   1.806   1.162   3.877  1.6959 -0.0049  0.3894
    1SOL    HW3 9087   1.766   1.074   3.761  0.9772 -0.5115  1.0125
    1SOL    MW4 9088   1.787   1.152   3.793  0.5821 -0.2594  0.6602
    1SOL     OW 9089   2.042   1.271   3.759  0.1956  0.4972  0.1130
    1SOL    HW2 9090   2.102   1.218   3.812  0.6794 -0.1200 -1.0266
    1SOL    HW3 9091   1.960   1.222   3.760  0.4873 -0.0246 -0.4911
    1SOL    MW4 9092   2.039   1.257   3.766  0.2975  0.3469 -0.1171
    1SOL     OW 9093   1.967   1.517   3.872  0.2228 -0.0949 -0.0180
    1SOL    HW2 9094   1.896   1.559   3.822  0.2593  0.6284  0.5353
    1SOL    HW3 9095   1.978   1.432   3.830 -0.2387  0.2221 -0.7991
    1SOL    MW4 9096   1.959   1.511   3.860  0.1667  0.0423 -0.0482
    1SOL     OW 9097   1.764   1.624   3.718 -0.1039 -0.7359  0.0010
    1SOL    HW2 9098   1.778   1.714   3.745  0.6715 -0.4889 -1.1730
    1SOL    HW3 9099   1.763   1.628   3.622 -0.7484 -1.8725 -0.0496
    1SOL    MW4 9100   1.765   1.636   3.709 -0.0865 -0.8532 -0.1607
    1SOL     OW 9101   1.808   1.882   3.780 -0.4267  0.3656 -0.3437
    1SOL    HW2 9102   1.812   1.894   3.874  1.9613  2.6556 -0.6993
    1SOL    HW3 9103   1.724   1.920   3.754 -0.1447  1.6668  0.6154
    1SOL    MW4 9104   1.797   1.888   3.789 -0.0744  0.8395 -0.2644
    1SOL     OW 9105   2.006   2.051   3.691 -0.1337 -0.0004  0.3310
    1SOL    HW2 9106   1.933   1.998   3.721  1.3965 -2.3220  0.0305
    1SOL    HW3 9107   1.985   2.072   3.600 -0.3989 -0.7281  0.2214
    1SOL    MW4 9108   1.994   2.047   3.683  0.0334 -0.4029  0.2768
    1SOL     OW 9109   2.042   2.316   3.793  0.4597  0.4651 -0.0454
    1SOL    HW2 9110   1.978   2.355   3.733  0.8584  0.9794 -0.1446
    1SOL    HW3 9111   2.049   2.225   3.765 -0.2735  0.3912  0.0058
    1SOL    MW4 9112   2.034   2.309   3.782  0.4158  0.5233 -0.0515
    1SOL     OW 9113   1.846   2.417   3.644  0.3171 -0.3118  0.1572
    1SOL    HW2 9114   1.840   2.509   3.670 -0.9541 -0.3373 -0.0496
    1SOL    HW3 9115   1.811   2.415   3.555  0.4931 -0.9830  0.1050
    1SOL    MW4 9116   1.841   2.429   3.636  0.1726 -0.4039  0.1230
    1SOL     OW 9117   1.794   2.673   3.716 -0.2663 -0.1311 -0.5023
    1SOL    HW2 9118   1.798   2.646   3.807  0.2366 -1.2291 -0.8417
    1SOL    HW3 9119   1.711   2.721   3.709  0.3590  1.1730  0.8341
    1SOL    MW4 9120   1.784   2.676   3.727 -0.1174 -0.1042 -0.3707
    1SOL     OW 9121   1.958   2.878   3.669 -0.1681  0.3157 -0.4079
    1SOL    HW2 9122   2.044   2.847   3.699 -0.1194  0.4487 -0.4088
    1SOL    HW3 9123   1.898   2.806   3.689 -0.1225  0.3713 -0.0576
    1SOL    MW4 9124   1.962   2.865   3.676 -0.1556  0.3409 -0.3617
    1SOL     OW 9125   1.998   3.096   3.830  0.1109  0.2993  0.5735
    1SOL    HW2 9126   2.082   3.138   3.812 -0.5484  0.2304 -3.0520
    1SOL    HW3 9127   2.000   3.016   3.777 -1.9338 -0.0832  1.0437
    1SOL    MW4 9128   2.009   3.091   3.821 -0.2460  0.2396  0.1571
    1SOL     OW 9129   1.766   3.187   3.693 -0.6024  0.2377 -0.2464
    1SOL    HW2 9130   1.841   3.148   3.737 -1.3294 -0.9434 -0.0421
    1SOL    HW3 9131   1.689   3.148   3.735 -1.3211  0.4687 -1.3148
    1SOL    MW4 9132   1.765   3.177   3.704 -0.7933  0.1123 -0.3603
    1SOL     OW 9133   1.752   3.442   3.881  0.1682 -0.2826  0.0207
    1SOL    HW2 9134   1.832   3.489   3.857 -0.5914  1.1523  0.1781
    1SOL    HW3 9135   1.754   3.361   3.830  0.6854  0.7296 -1.6047
    1SOL    MW4 9136   1.763   3.438   3.871  0.1361  0.0403 -0.1729
    1SOL     OW 9137   1.983   3.599   3.807 -0.0819 -0.1552 -0.0395
    1SOL    HW2 9138   2.068   3.564   3.833 -0.2756 -0.1213  0.6519
    1SOL    HW3 9139   1.987   3.602   3.712  0.0544 -1.7896 -0.1057
    1SOL    MW4 9140   1.995   3.595   3.798 -0.0895 -0.3662  0.0429
    1SOL     OW 9141   2.040   3.837   3.928 -0.0087 -0.1822 -0.3213
    1SOL    HW2 9142   2.096   3.883   3.865  0.3313 -2.0034 -1.3903
    1SOL    HW3 9143   2.037   3.747   3.895 -1.3100 -0.7344  1.2804
    1SOL    MW4 9144   2.047   3.831   3.915 -0.1354 -0.4954 -0.2513
    1SOL     OW 9145   1.821   3.964   3.785  0.5516 -0.5663 -0.2755
    1SOL    HW2 9146   1.899   3.922   3.821  0.6357  0.5019  0.8155
    1SOL    HW3 9147   1.749   3.907   3.811  0.8828 -1.1854 -0.6862
    1SOL    MW4 9148   1.822   3.951   3.793  0.6063 -0.5069 -0.1860
    1SOL     OW 9149   1.797   4.238   3.842  0.0295 -0.1807  0.3410
    1SOL    HW2 9150   1.864   4.284   3.793 -1.1300 -1.2877 -2.3925
    1SOL    HW3 9151   1.810   4.146   3.821 -1.1189 -0.5964  1.3474
    1SOL    MW4 9152   1.807   4.232   3.833 -0.2750 -0.3819  0.1130
    1SOL     OW 9153   2.011   4.385   3.758 -0.0899  0.5187  0.4140
    1SOL    HW2 9154   2.087   4.357   3.810  0.0505  0.5318  0.2171
    1SOL    HW3 9155   2.042   4.382   3.667 -0.1387  1.1105  0.3779
    1SOL    MW4 9156   2.025   4.381   3.753 -0.0780  0.5989  0.3834
    1SOL     OW 9157   2.452   4.666   3.838  0.1823  0.2291  0.4011
    1SOL    HW2 9158   2.458   4.656   3.933  0.4187  0.8335  0.4536
    1SOL    HW3 9159   2.531   4.716   3.815 -0.2722  0.7653 -0.0120
    1SOL    MW4 9160   2.464   4.671   3.848  0.1533  0.3796  0.3536
    1SOL     OW 9161   2.199   0.086   3.773 -0.2524 -0.3379  0.3124
    1SOL    HW2 9162   2.284   0.058   3.807  0.2304 -1.0077 -1.3688
    1SOL    HW3 9163   2.215   0.102   3.680 -1.1534  2.9513  0.6649
    1SOL    MW4 9164   2.213   0.085   3.765 -0.3073  0.0077  0.1371
    1SOL     OW 9165   2.256   0.326   3.907  0.3793 -0.4188 -0.2754
    1SOL    HW2 9166   2.248   0.241   3.864 -1.7999 -1.4337  2.0162
    1SOL    HW3 9167   2.176   0.373   3.883  0.2731 -0.0835  0.7029
    1SOL    MW4 9168   2.244   0.321   3.898  0.0775 -0.5085  0.1562
    1SOL     OW 9169   2.477   0.495   3.785  0.0687  0.0008 -0.0962
    1SOL    HW2 9170   2.406   0.433   3.801 -0.5348  0.7032 -0.0135
    1SOL    HW3 9171   2.474   0.512   3.691 -2.5439  3.1484  0.4531
    1SOL    MW4 9172   2.467   0.489   3.775 -0.3557  0.5088 -0.0129
    1SOL     OW 9173   2.456   0.748   3.889  0.1353 -0.4764  0.2225
    1SOL    HW2 9174   2.370   0.787   3.870 -0.5920 -1.8038  0.7388
    1SOL    HW3 9175   2.453   0.662   3.847  1.5931 -0.1443 -0.5839
    1SOL    MW4 9176   2.444   0.742   3.881  0.2313 -0.6077  0.1843
    1SOL     OW 9177   2.212   0.864   3.805  0.4802 -0.7737  0.0046
    1SOL    HW2 9178   2.151   0.792   3.822 -0.6198 -0.4630 -2.4279
    1SOL    HW3 9179   2.219   0.867   3.710  0.8894  2.0425  0.0817
    1SOL    MW4 9180   2.205   0.855   3.795  0.3889 -0.3611 -0.3059
    1SOL     OW 9181   2.227   1.137   3.909 -0.0902 -0.1736 -0.1004
    1SOL    HW2 9182   2.216   1.152   4.003  1.3012  0.6350 -0.0559
    1SOL    HW3 9183   2.222   1.042   3.899  0.9876 -0.3513  0.9629
    1SOL    MW4 9184   2.225   1.126   3.920  0.2356 -0.0902  0.0458
    1SOL     OW 9185   2.455   1.280   3.806  0.3632 -0.0053  0.4750
    1SOL    HW2 9186   2.434   1.369   3.833 -1.0039 -0.6820  1.7279
    1SOL    HW3 9187   2.383   1.227   3.840  1.3003 -1.6269 -0.0056
    1SOL    MW4 9188   2.443   1.285   3.814  0.3066 -0.3085  0.5767
    1SOL     OW 9189   2.431   1.535   3.912  0.6926 -0.1335 -0.0402
    1SOL    HW2 9190   2.514   1.572   3.881 -0.0033  0.9016 -0.7138
    1SOL    HW3 9191   2.364   1.588   3.868 -0.3264 -0.0126  1.6386
    1SOL    MW4 9192   2.433   1.547   3.902  0.4663  0.0190  0.0923
    1SOL     OW 9193   2.202   1.631   3.767  0.2081 -0.2563 -0.7946
    1SOL    HW2 9194   2.200   1.724   3.791  1.0656 -0.8014  1.4728
    1SOL    HW3 9195   2.119   1.597   3.798  0.4896 -0.5490 -0.3641
    1SOL    MW4 9196   2.191   1.639   3.774  0.3586 -0.3667 -0.4385
    1SOL     OW 9197   2.216   1.909   3.825 -0.3097  0.3441  0.1706
    1SOL    HW2 9198   2.179   1.890   3.912  0.0796  0.1751  0.2992
    1SOL    HW3 9199   2.151   1.965   3.783 -0.4330  0.5454  0.6289
    1SOL    MW4 9200   2.202   1.914   3.831 -0.2749  0.3484  0.2480
    1SOL     OW 9201   2.481   2.016   3.784 -0.0916 -0.3757  1.1243
    1SOL    HW2 9202   2.470   2.110   3.797 -1.0702 -0.5245  1.4509
    1SOL    HW3 9203   2.397   1.978   3.812 -0.3955 -1.1738 -0.8157
    1SOL    MW4 9204   2.468   2.023   3.790 -0.2608 -0.5007  0.9115
    1SOL     OW 9205   2.454   2.296   3.777 -0.0482  0.2967 -0.3769
    1SOL    HW2 9206   2.536   2.346   3.778  0.0202  0.1916  1.1221
    1SOL    HW3 9207   2.387   2.361   3.795 -0.2982  0.3750 -1.5686
    1SOL    MW4 9208   2.456   2.311   3.780 -0.0720  0.2933 -0.3362
    1SOL     OW 9209   2.228   2.495   3.699 -0.0169  0.6297  0.0845
    1SOL    HW2 9210   2.160   2.452   3.750  0.1352  0.3737  0.0706
    1SOL    HW3 9211   2.223   2.455   3.612  1.9066 -1.3020  0.8163
    1SOL    MW4 9212   2.218   2.484   3.694  0.2573  0.3412  0.1791
    1SOL     OW 9213   2.172   2.754   3.762  0.7673 -0.7253 -0.5236
    1SOL    HW2 9214   2.165   2.735   3.856 -0.0405 -0.9890 -0.6336
    1SOL    HW3 9215   2.202   2.672   3.723  1.2545 -0.5700 -0.4795
    1SOL    MW4 9216   2.175   2.741   3.769  0.7248 -0.7396 -0.5324
    1SOL     OW 9217   2.431   2.840   3.728  0.7282  0.1983 -0.1138
    1SOL    HW2 9218   2.340   2.816   3.743  0.8891 -0.5342 -0.3008
    1SOL    HW3 9219   2.443   2.834   3.634  0.4033  2.3646 -0.3047
    1SOL    MW4 9220   2.421   2.836   3.718  0.7067  0.3874 -0.1633
    1SOL     OW 9221   2.497   3.092   3.827 -0.6343  0.4164 -0.2597
    1SOL    HW2 9222   2.495   3.092   3.922  1.7386 -0.3676 -0.1808
    1SOL    HW3 9223   2.469   3.004   3.802  2.3798 -0.6712 -0.1038
    1SOL    MW4 9224   2.493   3.080   3.836  0.0761  0.1695 -0.2286
    1SOL     OW 9225   2.270   3.232   3.780 -0.0930 -0.0704  0.2154
    1SOL    HW2 9226   2.264   3.318   3.823 -1.3755  1.2400 -2.4560
    1SOL    HW3 9227   2.349   3.192   3.818 -0.6084  1.3993  2.9954
    1SOL    MW4 9228   2.280   3.238   3.791 -0.3302  0.2961  0.2296
    1SOL     OW 9229   2.233   3.513   3.871 -0.0386  0.1846 -0.7724
    1SOL    HW2 9230   2.248   3.509   3.966 -2.1475  0.6257 -0.4096
    1SOL    HW3 9231   2.307   3.564   3.838 -0.0343  1.2489  0.8075
    1SOL    MW4 9232   2.245   3.519   3.879 -0.3161  0.3834 -0.5162
    1SOL     OW 9233   2.467   3.658   3.796  0.1417  0.1227 -0.4986
    1SOL    HW2 9234   2.537   3.609   3.840  0.6600  2.5344  1.4780
    1SOL    HW3 9235   2.483   3.644   3.703  2.0411 -0.9994 -0.0402
    1SOL    MW4 9236   2.478   3.649   3.790  0.4606  0.2930 -0.1771
    1SOL     OW 9237   2.485   3.912   3.935  0.0316  0.1827  0.1792
    1SOL    HW2 9238   2.560   3.953   3.891 -0.8065  1.6763  0.1200
    1SOL    HW3 9239   2.470   3.832   3.885  1.9946 -0.4704  0.5845
    1SOL    MW4 9240   2.493   3.907   3.923  0.1798  0.2935  0.2246
    1SOL     OW 9241   2.242   3.992   3.793 -0.2432 -0.0822  0.0826
    1SOL    HW2 9242   2.328   3.968   3.829 -0.0796  1.0234  0.4398
    1SOL    HW3 9243   2.260   4.007   3.700 -0.0062  0.3162  0.1882
    1SOL    MW4 9244   2.256   3.991   3.785 -0.1903  0.1161  0.1433
    1SOL     OW 9245   2.275   4.268   3.864  0.6094 -0.0010  0.1138
    1SOL    HW2 9246   2.265   4.262   3.959  0.3013  0.4426  0.1119
    1SOL    HW3 9247   2.262   4.178   3.832 -0.7295  0.0969  0.3592
    1SOL    MW4 9248   2.272   4.255   3.872  0.3922  0.0706  0.1459
    1SOL     OW 9249   2.483   4.398   3.733  0.2093  0.2282  0.1729
    1SOL    HW2 9250   2.406   4.352   3.767  1.2196 -0.2239  1.8986
    1SOL    HW3 9251   2.476   4.486   3.770  0.1882  0.3877 -0.2070
    1SOL    MW4 9252   2.472   4.404   3.743  0.3397  0.1893  0.3505
    1SOL     OW 9253   2.905   0.019   3.862  0.0384 -0.4415 -0.1012
    1SOL    HW2 9254   2.900   0.002   3.957  0.6935  0.5604  0.1104
    1SOL    HW3 9255   2.987   0.066   3.850 -0.2021 -0.2807 -1.1361
    1SOL    MW4 9256   2.915   0.023   3.873  0.0935 -0.2881 -0.2098
    1SOL     OW 9257   2.679   0.139   3.749  0.1635 -0.0792  0.5313
    1SOL    HW2 9258   2.761   0.097   3.775  1.4533  2.2685  0.3685
    1SOL    HW3 9259   2.686   0.149   3.654 -0.4574 -0.1569  0.4739
    1SOL    MW4 9260   2.691   0.135   3.740  0.2520  0.2203  0.5026
    1SOL     OW 9261   2.726   0.397   3.882  0.5796 -0.0825 -0.1659
    1SOL    HW2 9262   2.725   0.309   3.846  0.5782 -0.3677  0.5211
    1SOL    HW3 9263   2.641   0.434   3.857  0.2545 -0.5571  0.2307
    1SOL    MW4 9264   2.715   0.390   3.874  0.5364 -0.1827 -0.0231
    1SOL     OW 9265   2.952   0.530   3.766  0.2539 -0.0936  0.5278
    1SOL    HW2 9266   3.031   0.494   3.808  0.1633 -1.7829 -0.6880
    1SOL    HW3 9267   2.881   0.476   3.800 -0.0092 -0.4713 -0.6125
    1SOL    MW4 9268   2.953   0.518   3.776  0.2072 -0.3663  0.2167
    1SOL     OW 9269   2.891   0.796   3.882 -0.3531 -0.3909 -0.2704
    1SOL    HW2 9270   2.961   0.856   3.853 -1.9398  1.9233  0.5291
    1SOL    HW3 9271   2.920   0.710   3.852  1.7572  0.8290 -1.9462
    1SOL    MW4 9272   2.904   0.793   3.874 -0.2842  0.0753 -0.3860
    1SOL     OW 9273   2.650   0.886   3.769  0.1761  0.6080  0.2552
    1SOL    HW2 9274   2.730   0.855   3.811  1.1148  3.3829  0.6018
    1SOL    HW3 9275   2.580   0.835   3.811  1.5887 -0.5870  1.2068
    1SOL    MW4 9276   2.651   0.875   3.780  0.4861  0.8164  0.4265
    1SOL     OW 9277   2.702   1.155   3.857 -0.0742 -0.2173 -0.4681
    1SOL    HW2 9278   2.671   1.067   3.834 -0.3396 -0.1533 -0.3601
    1SOL    HW3 9279   2.625   1.211   3.849 -0.1871 -0.2007  0.5826
    1SOL    MW4 9280   2.688   1.151   3.853 -0.1240 -0.2066 -0.3152
    1SOL     OW 9281   2.928   1.291   3.776  0.0019 -0.1071  0.0065
    1SOL    HW2 9282   2.919   1.380   3.809  0.5704 -0.5164  1.3239
    1SOL    HW3 9283   2.851   1.245   3.809  0.2083 -0.3416  0.1686
    1SOL    MW4 9284   2.917   1.296   3.785  0.1042 -0.1920  0.2017
    1SOL     OW 9285   2.868   1.523   3.921  0.0970  0.1041 -0.3320
    1SOL    HW2 9286   2.856   1.534   4.015 -0.8194  0.0243 -0.4340
    1SOL    HW3 9287   2.947   1.573   3.900 -0.2381  0.9115  0.3155
    1SOL    MW4 9288   2.877   1.531   3.931 -0.0679  0.2000 -0.2601
    1SOL     OW 9289   2.665   1.657   3.816 -0.0863 -0.1484 -0.3906
    1SOL    HW2 9290   2.737   1.607   3.854  0.7923  0.8305 -0.7533
    1SOL    HW3 9291   2.679   1.652   3.722  0.5659  1.5951 -0.3996
    1SOL    MW4 9292   2.676   1.650   3.809  0.1159  0.2106 -0.4396
    1SOL     OW 9293   2.686   1.908   3.916 -0.0419  0.6056  0.1267
    1SOL    HW2 9294   2.679   1.817   3.890  0.6258  0.6404 -0.1839
    1SOL    HW3 9295   2.613   1.952   3.873 -0.4981  0.1804  0.4615
    1SOL    MW4 9296   2.676   1.902   3.907 -0.0143  0.5542  0.1297
    1SOL     OW 9297   2.863   2.077   3.781 -0.0643 -0.1721 -0.2677
    1SOL    HW2 9298   2.869   2.165   3.818  0.0853  0.7252 -2.3491
    1SOL    HW3 9299   2.797   2.032   3.834  0.5124  0.8893  1.3763
    1SOL    MW4 9300   2.855   2.082   3.792  0.0315  0.0865 -0.3252
    1SOL     OW 9301   2.914   2.345   3.823 -0.0545 -0.2836 -0.2080
    1SOL    HW2 9302   2.907   2.369   3.915 -1.5674 -2.4796  0.2782
    1SOL    HW3 9303   3.005   2.364   3.800  0.5861 -0.5972  1.9793
    1SOL    MW4 9304   2.925   2.351   3.832 -0.1700 -0.6149  0.1447
    1SOL     OW 9305   2.671   2.462   3.751  0.1082  0.6225 -0.3839
    1SOL    HW2 9306   2.666   2.547   3.793 -0.3754 -0.2258  1.3126
    1SOL    HW3 9307   2.757   2.428   3.776 -1.0896 -0.8491  1.8513
    1SOL    MW4 9308   2.682   2.469   3.759 -0.1140  0.3164  0.1347
    1SOL     OW 9309   2.641   2.724   3.835 -0.2423  0.4300  0.1173
    1SOL    HW2 9310   2.637   2.751   3.927 -1.1783 -1.3840  0.6323
    1SOL    HW3 9311   2.568   2.768   3.794  1.2267  2.6763 -0.1806
    1SOL    MW4 9312   2.631   2.733   3.842 -0.1719  0.4871  0.1459
    1SOL     OW 9313   2.920   2.831   3.798 -0.3140 -0.2274 -0.7318
    1SOL    HW2 9314   2.935   2.905   3.857 -0.1637 -1.5555  0.9551
    1SOL    HW3 9315   2.825   2.818   3.800 -0.2588 -0.5881 -0.3751
    1SOL    MW4 9316   2.909   2.839   3.806 -0.2868 -0.4504 -0.4625
    1SOL     OW 9317   2.924   3.101   3.918  0.2163 -0.0651 -0.5839
    1SOL    HW2 9318   3.008   3.125   3.880 -1.1993  1.1810 -3.0987
    1SOL    HW3 9319   2.861   3.156   3.871 -2.1615 -2.1183  0.1361
    1SOL    MW4 9320   2.927   3.112   3.907 -0.2840 -0.1717 -0.8209
    1SOL     OW 9321   2.754   3.230   3.744  0.4271 -0.4618  0.4620
    1SOL    HW2 9322   2.725   3.317   3.771  0.7429 -0.7302  1.6966
    1SOL    HW3 9323   2.675   3.177   3.747 -0.1797  0.2087 -2.2284
    1SOL    MW4 9324   2.740   3.235   3.748  0.3889 -0.4086  0.2699
    1SOL     OW 9325   2.674   3.490   3.881 -0.1386  0.0979 -0.3149
    1SOL    HW2 9326   2.664   3.507   3.975 -1.4101  0.3623 -0.4810
    1SOL    HW3 9327   2.761   3.524   3.859 -0.5007  1.5739  0.4479
    1SOL    MW4 9328   2.684   3.497   3.890 -0.3541  0.3276 -0.2360
    1SOL     OW 9329   2.898   3.632   3.820  0.0859 -0.0030  0.3970
    1SOL    HW2 9330   2.964   3.586   3.871 -0.1232 -1.5932 -0.7291
    1SOL    HW3 9331   2.929   3.627   3.730 -0.9750  0.2693  0.0092
    1SOL    MW4 9332   2.910   3.625   3.815 -0.0818 -0.1769  0.1972
    1SOL     OW 9333   2.946   3.899   3.867  0.0247  0.2714 -0.1330
    1SOL    HW2 9334   2.940   3.900   3.963  2.5073 -0.5864  0.0744
    1SOL    HW3 9335   2.921   3.811   3.842  0.1363  0.2595 -0.2047
    1SOL    MW4 9336   2.942   3.888   3.877  0.3672  0.1566 -0.1152
    1SOL     OW 9337   2.694   4.036   3.789 -0.4061  0.5730 -0.4223
    1SOL    HW2 9338   2.692   4.126   3.822 -1.5662  0.1808  0.6313
    1SOL    HW3 9339   2.773   3.998   3.829  0.3775  1.2623 -1.2916
    1SOL    MW4 9340   2.704   4.043   3.799 -0.4561  0.6123 -0.3982
    1SOL     OW 9341   2.702   4.299   3.896 -0.0659 -0.0805  0.3681
    1SOL    HW2 9342   2.787   4.330   3.866  0.6322 -0.4333  1.8983
    1SOL    HW3 9343   2.638   4.343   3.840  1.1058  0.5091 -0.5184
    1SOL    MW4 9344   2.705   4.309   3.885  0.1807 -0.0491  0.4530
    1SOL     OW 9345   2.919   4.429   3.796  0.3773  0.0355 -0.4757
    1SOL    HW2 9346   2.994   4.385   3.836 -0.0838 -0.1972  0.1293
    1SOL    HW3 9347   2.913   4.513   3.842 -0.1289 -0.2159 -0.0894
    1SOL    MW4 9348   2.928   4.434   3.807  0.2496 -0.0286 -0.3448
    1SOL     OW 9349   3.353   4.647   3.947  0.5640  0.4816 -0.0795
    1SOL    HW2 9350   3.364   4.644   4.042 -0.1374  1.0988  0.0226
    1SOL    HW3 9351   3.423   4.705   3.917  0.8448  0.2124  0.0468
    1SOL    MW4 9352   3.364   4.655   3.956  0.5085  0.5275 -0.0494
    1SOL     OW 9353   3.146   0.125   3.819  0.0434 -0.3374 -0.9447
    1SOL    HW2 9354   3.211   0.057   3.837  2.5269  2.1682 -0.1321
    1SOL    HW3 9355   3.143   0.131   3.724 -0.5371 -1.8756 -1.0343
    1SOL    MW4 9356   3.154   0.117   3.809  0.2944 -0.2097 -0.8495
    1SOL     OW 9357   3.149   0.391   3.928 -0.2732  0.1435  0.0214
    1SOL    HW2 9358   3.160   0.394   4.023  2.5784  1.6557 -0.3307
    1SOL    HW3 9359   3.163   0.299   3.906 -0.9227 -0.2132  1.0321
    1SOL    MW4 9360   3.152   0.379   3.937  0.0174  0.2960  0.1082
    1SOL     OW 9361   3.357   0.520   3.801 -0.4512  0.5694  0.1041
    1SOL    HW2 9362   3.433   0.492   3.852 -0.2109 -0.1045 -0.6245
    1SOL    HW3 9363   3.285   0.466   3.834  0.0239 -0.9623 -1.3403
    1SOL    MW4 9364   3.358   0.509   3.812 -0.3569  0.2785 -0.1826
    1SOL     OW 9365   3.343   0.800   3.890 -0.3553  0.1033 -0.6395
    1SOL    HW2 9366   3.337   0.801   3.986 -1.2957 -1.3778 -0.6701
    1SOL    HW3 9367   3.328   0.709   3.866 -1.4373  0.6881 -2.2719
    1SOL    MW4 9368   3.340   0.788   3.900 -0.6223 -0.0150 -0.8590
    1SOL     OW 9369   3.101   0.924   3.776 -0.1435 -0.2306 -0.4269
    1SOL    HW2 9370   3.180   0.883   3.810  0.4642  1.3855  0.1639
    1SOL    HW3 9371   3.101   0.903   3.682  1.0305 -0.1511 -0.4470
    1SOL    MW4 9372   3.112   0.916   3.768  0.0918 -0.0069 -0.3514
    1SOL     OW 9373   3.113   1.156   3.919 -0.2549  0.0128  0.0715
    1SOL    HW2 9374   3.099   1.072   3.874 -1.1166  0.7102 -1.0058
    1SOL    HW3 9375   3.049   1.215   3.879  0.0855  1.0911  1.0887
    1SOL    MW4 9376   3.103   1.152   3.908 -0.3238  0.2471  0.0637
    1SOL     OW 9377   3.338   1.263   3.779 -0.3158 -0.2185  0.1261
    1SOL    HW2 9378   3.252   1.233   3.808 -0.0843  0.0954  1.1412
    1SOL    HW3 9379   3.331   1.268   3.684 -1.0100 -1.4787  0.1014
    1SOL    MW4 9380   3.326   1.260   3.770 -0.3772 -0.3433  0.2568
    1SOL     OW 9381   3.330   1.514   3.911  0.0319 -0.2906  0.3151
    1SOL    HW2 9382   3.247   1.560   3.894 -0.0235 -0.3765  0.3523
    1SOL    HW3 9383   3.326   1.437   3.854 -0.0605 -0.4678  0.5602
    1SOL    MW4 9384   3.318   1.510   3.901  0.0126 -0.3252  0.3521
    1SOL     OW 9385   3.094   1.665   3.818  0.0629  0.7605 -0.6237
    1SOL    HW2 9386   3.102   1.760   3.825  0.3319  0.8523 -2.1209
    1SOL    HW3 9387   3.110   1.646   3.726 -0.7239 -0.6707 -0.4717
    1SOL    MW4 9388   3.097   1.675   3.807 -0.0052  0.5838 -0.8011
    1SOL     OW 9389   3.078   1.932   3.875 -0.3193  0.5482 -0.0974
    1SOL    HW2 9390   3.082   1.943   3.970 -0.8932 -1.4936  0.1950
    1SOL    HW3 9391   3.011   1.995   3.847 -0.1560  1.1570  0.8503
    1SOL    MW4 9392   3.070   1.942   3.884 -0.3738  0.3592  0.0658
    1SOL     OW 9393   3.306   2.031   3.771 -0.0924  0.0220  0.0101
    1SOL    HW2 9394   3.225   2.002   3.811  0.3588  0.1309  1.0088
    1SOL    HW3 9395   3.286   2.036   3.677 -0.7968 -1.4136  0.0752
    1SOL    MW4 9396   3.293   2.028   3.764 -0.1256 -0.1531  0.1507
    1SOL     OW 9397   3.370   2.270   3.899 -0.3195 -0.1807 -0.2804
    1SOL    HW2 9398   3.298   2.321   3.861 -2.0912 -0.5564  2.4809
    1SOL    HW3 9399   3.364   2.185   3.855 -0.8156  0.1857 -0.9320
    1SOL    MW4 9400   3.360   2.265   3.888 -0.6185 -0.1817 -0.0019
    1SOL     OW 9401   3.176   2.428   3.765 -0.0251 -0.2164  0.0360
    1SOL    HW2 9402   3.181   2.517   3.800 -0.7075 -0.4097  0.6491
    1SOL    HW3 9403   3.157   2.439   3.672  0.9174  0.2949 -0.0927
    1SOL    MW4 9404   3.174   2.441   3.757  0.0091 -0.1745  0.1001
    1SOL     OW 9405   3.162   2.719   3.856  0.1250  0.0866 -0.3000
    1SOL    HW2 9406   3.163   2.719   3.952  0.0562  0.0309 -0.2987
    1SOL    HW3 9407   3.073   2.745   3.833  0.6894  1.9773 -0.3625
    1SOL    MW4 9408   3.151   2.722   3.866  0.1907  0.3288 -0.3083
    1SOL     OW 9409   3.385   2.870   3.782  0.0927 -0.5885 -0.5876
    1SOL    HW2 9410   3.309   2.819   3.811  0.1442 -0.3098  0.0286
    1SOL    HW3 9411   3.377   2.872   3.686 -1.3057  0.4113 -0.4671
    1SOL    MW4 9412   3.374   2.863   3.773 -0.0851 -0.4199 -0.4907
    1SOL     OW 9413   3.386   3.128   3.912 -0.2816 -0.1554  0.3182
    1SOL    HW2 9414   3.464   3.167   3.872 -0.6616  0.0714 -0.2079
    1SOL    HW3 9415   3.393   3.035   3.892  0.8464 -0.4434  1.9382
    1SOL    MW4 9416   3.397   3.121   3.904 -0.1831 -0.1633  0.4625
    1SOL     OW 9417   3.139   3.234   3.825  0.2947 -0.1779  0.1035
    1SOL    HW2 9418   3.228   3.208   3.848  0.6153  1.2593  0.5189
    1SOL    HW3 9419   3.142   3.245   3.730  0.3173 -1.0094  0.0010
    1SOL    MW4 9420   3.151   3.232   3.815  0.3397 -0.0982  0.1447
    1SOL     OW 9421   3.139   3.489   3.947 -0.1725  0.1033 -0.2100
    1SOL    HW2 9422   3.212   3.530   3.900  0.9634  1.6853  2.8134
    1SOL    HW3 9423   3.130   3.403   3.907  2.1072  0.6076 -1.9087
    1SOL    MW4 9424   3.147   3.483   3.936  0.2780  0.3788 -0.0353
    1SOL     OW 9425   3.340   3.623   3.794 -0.5135  0.6203 -0.4707
    1SOL    HW2 9426   3.345   3.713   3.825 -1.7592  0.7042 -0.4633
    1SOL    HW3 9427   3.352   3.629   3.700  1.4269  0.5658 -0.2447
    1SOL    MW4 9428   3.342   3.636   3.786 -0.4220  0.6242 -0.4401
    1SOL     OW 9429   3.370   3.877   3.880  0.1760  0.0540  0.2797
    1SOL    HW2 9430   3.451   3.913   3.843  0.0674  0.0604  0.0438
    1SOL    HW3 9431   3.302   3.937   3.852 -0.1118 -0.7502 -0.7769
    1SOL    MW4 9432   3.372   3.890   3.871  0.1235 -0.0515  0.1094
    1SOL     OW 9433   3.156   4.057   3.771 -0.0462 -0.1014 -0.1711
    1SOL    HW2 9434   3.148   4.139   3.818 -0.3304 -0.7540  0.9229
    1SOL    HW3 9435   3.084   4.003   3.802  1.1363 -1.3903  0.4021
    1SOL    MW4 9436   3.146   4.061   3.781  0.0725 -0.3572  0.0491
    1SOL     OW 9437   3.139   4.304   3.897  0.0366  0.3059 -0.1380
    1SOL    HW2 9438   3.154   4.308   3.992  0.4715  0.6427 -0.2225
    1SOL    HW3 9439   3.213   4.349   3.859  1.0205 -1.7376 -0.7347
    1SOL    MW4 9440   3.151   4.310   3.904  0.2236  0.0806 -0.2279
    1SOL     OW 9441   3.384   4.447   3.775  0.1792 -0.5173 -0.1908
    1SOL    HW2 9442   3.454   4.392   3.809 -0.5733 -0.9726  0.6358
    1SOL    HW3 9443   3.379   4.521   3.836 -0.9507 -1.1700  0.5275
    1SOL    MW4 9444   3.392   4.450   3.787 -0.0696 -0.6633  0.0129
    1SOL     OW 9445   3.804   0.017   3.918 -0.0501  0.2968  0.3696
    1SOL    HW2 9446   3.884   0.049   3.876 -0.7766  1.2826 -0.2839
    1SOL    HW3 9447   3.805  -0.078   3.902  0.8362  0.3431  0.1054
    1SOL    MW4 9448   3.815   0.008   3.910 -0.0291  0.4330  0.2484
    1SOL     OW 9449   3.568   0.159   3.813 -0.2304  0.0565  0.0992
    1SOL    HW2 9450   3.640   0.104   3.844  0.5646  0.9922 -0.0512
    1SOL    HW3 9451   3.587   0.173   3.720 -0.0916  1.0781  0.2742
    1SOL    MW4 9452   3.580   0.154   3.805 -0.1073  0.3147  0.1023
    1SOL     OW 9453   3.604   0.431   3.920  0.0275  0.0690 -0.2932
    1SOL    HW2 9454   3.679   0.465   3.870 -0.5626  1.3654 -0.3124
    1SOL    HW3 9455   3.593   0.341   3.889  0.3231  0.5200 -1.7377
    1SOL    MW4 9456   3.613   0.423   3.909 -0.0117  0.2995 -0.4864
    1SOL     OW 9457   3.836   0.507   3.780 -0.5619 -0.3016 -0.7058
    1SOL    HW2 9458   3.906   0.459   3.825 -0.6078 -0.0707 -0.3859
    1SOL    HW3 9459   3.840   0.595   3.816  0.1416  0.2049 -1.9921
    1SOL    MW4 9460   3.846   0.512   3.791 -0.4749 -0.2043 -0.8333
    1SOL     OW 9461   3.829   0.757   3.902 -0.4267  0.4517  0.4046
    1SOL    HW2 9462   3.898   0.812   3.865 -1.5173  1.9864  0.6184
    1SOL    HW3 9463   3.747   0.801   3.878 -1.3291 -1.2571  0.2880
    1SOL    MW4 9464   3.827   0.770   3.894 -0.6897  0.4287  0.4172
    1SOL     OW 9465   3.601   0.874   3.818  0.6240  0.2974 -0.0721
    1SOL    HW2 9466   3.602   0.968   3.839  1.1187  0.5060 -0.9832
    1SOL    HW3 9467   3.515   0.844   3.846 -0.7319  1.6831 -2.5571
    1SOL    MW4 9468   3.590   0.882   3.824  0.5102  0.5078 -0.5202
    1SOL     OW 9469   3.566   1.130   3.885 -0.1328  0.2958  0.3237
    1SOL    HW2 9470   3.638   1.185   3.856 -0.3065  0.7843  0.8076
    1SOL    HW3 9471   3.489   1.164   3.839 -0.2957  0.6684  0.8601
    1SOL    MW4 9472   3.565   1.142   3.875 -0.1771  0.4094  0.4580
    1SOL     OW 9473   3.776   1.290   3.789  0.1824 -0.0541 -0.3225
    1SOL    HW2 9474   3.859   1.249   3.813 -0.1277  0.5421  1.8999
    1SOL    HW3 9475   3.786   1.381   3.817 -0.6988  0.3817 -1.3662
    1SOL    MW4 9476   3.788   1.297   3.796  0.0253  0.0821 -0.1671
    1SOL     OW 9477   3.786   1.556   3.857  0.1527 -0.2297  0.1906
    1SOL    HW2 9478   3.782   1.570   3.951 -1.4607 -0.3138  0.1361
    1SOL    HW3 9479   3.697   1.572   3.826  0.0498 -2.8163 -0.9420
    1SOL    MW4 9480   3.774   1.560   3.865 -0.0737 -0.5820  0.0336
    1SOL     OW 9481   3.533   1.660   3.776  0.0304  0.1535  0.3166
    1SOL    HW2 9482   3.449   1.624   3.806 -0.1717 -0.2801 -0.7626
    1SOL    HW3 9483   3.522   1.671   3.682  1.0909  0.3575  0.2145
    1SOL    MW4 9484   3.520   1.656   3.768  0.1435  0.1231  0.1607
    1SOL     OW 9485   3.546   1.926   3.837  0.5171 -0.4519  0.0525
    1SOL    HW2 9486   3.553   1.834   3.809 -0.1258 -0.0323 -1.5507
    1SOL    HW3 9487   3.462   1.955   3.802  0.1596  0.4109  1.6043
    1SOL    MW4 9488   3.536   1.917   3.828  0.3850 -0.2826  0.0458
    1SOL     OW 9489   3.791   2.062   3.803  0.0740  0.2938 -0.5032
    1SOL    HW2 9490   3.863   2.002   3.819  0.3793  0.6964 -0.3610
    1SOL    HW3 9491   3.712   2.013   3.828  0.4705  0.6093  1.4413
    1SOL    MW4 9492   3.790   2.048   3.809  0.1664  0.3884 -0.2279
    1SOL     OW 9493   3.784   2.316   3.918  0.0085 -0.7862 -0.4453
    1SOL    HW2 9494   3.704   2.352   3.881  0.7012  1.3924  0.0866
    1SOL    HW3 9495   3.795   2.232   3.875 -0.5842  0.5294 -3.2854
    1SOL    MW4 9496   3.775   2.310   3.907  0.0215 -0.3252 -0.7498
    1SOL     OW 9497   3.559   2.439   3.783  0.0936 -0.1611 -0.2453
    1SOL    HW2 9498   3.501   2.371   3.818 -0.9625  1.3818  1.0863
    1SOL    HW3 9499   3.560   2.422   3.689 -4.1161  0.8946 -0.6085
    1SOL    MW4 9500   3.551   2.428   3.775 -0.6013  0.1814 -0.1175
    1SOL     OW 9501   3.585   2.697   3.869 -0.2026 -0.2534 -0.0821
    1SOL    HW2 9502   3.560   2.612   3.834 -0.0633 -0.0254 -0.7375
    1SOL    HW3 9503   3.519   2.758   3.835  1.3138  0.3846 -1.9887
    1SOL    MW4 9504   3.573   2.694   3.860  0.0160 -0.1392 -0.4201
    1SOL     OW 9505   3.795   2.831   3.766 -0.3453 -0.0227 -0.1724
    1SOL    HW2 9506   3.866   2.766   3.771 -0.8711 -0.5742  0.2834
    1SOL    HW3 9507   3.718   2.783   3.795 -1.0572  0.3522 -1.4510
    1SOL    MW4 9508   3.795   2.816   3.771 -0.5088 -0.0460 -0.2811
    1SOL     OW 9509   3.833   3.080   3.868  0.5716  0.3163 -0.7952
    1SOL    HW2 9510   3.752   3.126   3.844 -0.4561 -1.0410 -0.0400
    1SOL    HW3 9511   3.819   2.990   3.836  1.0312 -0.3803  0.8879
    1SOL    MW4 9512   3.820   3.074   3.861  0.4969  0.0455 -0.4733
    1SOL     OW 9513   3.631   3.243   3.801 -0.7909 -0.5347 -0.3348
    1SOL    HW2 9514   3.602   3.331   3.827  0.2205 -0.3112  0.0727
    1SOL    HW3 9515   3.625   3.243   3.705 -0.7037  0.0223 -0.3425
    1SOL    MW4 9516   3.627   3.255   3.792 -0.6461 -0.4318 -0.2823
    1SOL     OW 9517   3.569   3.497   3.878  0.0699 -0.1318 -0.5179
    1SOL    HW2 9518   3.573   3.490   3.974 -0.6080  0.0774 -0.4696
    1SOL    HW3 9519   3.487   3.543   3.861  1.5329  2.3301 -1.0911
    1SOL    MW4 9520   3.559   3.502   3.889  0.1733  0.2205 -0.5870
    1SOL     OW 9521   3.802   3.619   3.787 -0.1409  0.0853  0.2212
    1SOL    HW2 9522   3.780   3.704   3.825  0.8208 -0.0677  1.1515
    1SOL    HW3 9523   3.726   3.564   3.805 -0.9551  0.8664 -0.7839
    1SOL    MW4 9524   3.789   3.623   3.794 -0.1216  0.1681  0.2112
    1SOL     OW 9525   3.811   3.911   3.894 -0.3333  0.3119  0.0963
    1SOL    HW2 9526   3.824   3.900   3.988 -1.1785  0.0806  0.1910
    1SOL    HW3 9527   3.892   3.950   3.863 -0.3049  0.9968  1.0241
    1SOL    MW4 9528   3.823   3.914   3.902 -0.4411  0.3717  0.2313
    1SOL     OW 9529   3.592   3.990   3.761  0.0346 -0.2650 -0.0113
    1SOL    HW2 9530   3.579   4.080   3.791  0.4627 -0.3686  0.4830
    1SOL    HW3 9531   3.681   3.968   3.788  0.2858 -0.4976 -0.9939
    1SOL    MW4 9532   3.602   3.999   3.768  0.1240 -0.3090 -0.0756
    1SOL     OW 9533   3.557   4.242   3.864 -0.1346 -0.5050 -0.0638
    1SOL    HW2 9534   3.547   4.252   3.959  0.8962 -0.7129  0.0763
    1SOL    HW3 9535   3.635   4.294   3.842 -0.7180  0.0265 -0.8928
    1SOL    MW4 9536   3.566   4.250   3.874 -0.0756 -0.4625 -0.1547
    1SOL     OW 9537   3.785   4.396   3.808 -0.4602 -0.1462  0.0443
    1SOL    HW2 9538   3.856   4.339   3.838 -1.2495 -1.6009 -0.8153
    1SOL    HW3 9539   3.790   4.393   3.712 -0.1342  1.7166 -0.0160
    1SOL    MW4 9540   3.795   4.388   3.799 -0.5214 -0.0925 -0.0770
    1SOL     OW 9541   4.268   4.640   3.901  0.1725 -0.0718 -0.4428
    1SOL    HW2 9542   4.270   4.671   3.992 -0.8664  0.4359 -0.5821
    1SOL    HW3 9543   4.343   4.681   3.860  1.7453 -1.7815  0.6467
    1SOL    MW4 9544   4.278   4.649   3.908  0.2427 -0.2303 -0.3176
    1SOL     OW 9545   4.042   0.139   3.831  0.2940  0.3575  0.3766
    1SOL    HW2 9546   4.115   0.086   3.863 -0.2512 -1.0009 -0.5697
    1SOL    HW3 9547   4.058   0.148   3.737 -1.3007 -0.8799 -0.0360
    1SOL    MW4 9548   4.054   0.133   3.823  0.0119  0.0151  0.1972
    1SOL     OW 9549   4.054   0.405   3.914  0.0066 -0.4261  0.2628
    1SOL    HW2 9550   4.043   0.413   4.009 -2.6765  0.3484 -0.0681
    1SOL    HW3 9551   4.050   0.311   3.898 -0.9214 -0.4887  0.7999
    1SOL    MW4 9552   4.052   0.393   3.925 -0.4697 -0.3322  0.2897
    1SOL     OW 9553   4.267   0.503   3.779 -0.1587 -0.5294  0.1639
    1SOL    HW2 9554   4.183   0.476   3.815 -1.0343  0.0193 -1.3905
    1SOL    HW3 9555   4.252   0.508   3.684  0.6203  2.8982  0.1369
    1SOL    MW4 9556   4.254   0.500   3.771 -0.1717 -0.0048 -0.0451
    1SOL     OW 9557   4.248   0.773   3.866  0.2234  0.5625 -0.0486
    1SOL    HW2 9558   4.180   0.808   3.809  1.1963  0.4883 -1.2596
    1SOL    HW3 9559   4.248   0.679   3.848 -0.5009  0.3097  1.1924
    1SOL    MW4 9560   4.239   0.765   3.856  0.2565  0.5193 -0.0446
    1SOL     OW 9561   4.021   0.891   3.755 -0.1133 -0.0595 -0.4177
    1SOL    HW2 9562   4.002   0.981   3.781 -1.4106 -0.4258 -0.0409
    1SOL    HW3 9563   4.006   0.890   3.660  0.0503  0.1575 -0.4462
    1SOL    MW4 9564   4.016   0.903   3.746 -0.2627 -0.0791 -0.3717
    1SOL     OW 9565   4.005   1.156   3.868 -0.0565 -0.2972 -0.2097
    1SOL    HW2 9566   4.006   1.156   3.964  0.8886  0.6874 -0.2063
    1SOL    HW3 9567   4.094   1.182   3.844 -0.6090  0.5684 -1.3463
    1SOL    MW4 9568   4.017   1.159   3.878 -0.0043 -0.0530 -0.3591
    1SOL     OW 9569   4.252   1.271   3.755  0.3604 -0.5942  0.2749
    1SOL    HW2 9570   4.245   1.357   3.796  1.9040 -0.4930  0.3550
    1SOL    HW3 9571   4.247   1.288   3.661 -1.7787 -0.6839  0.3448
    1SOL    MW4 9572   4.251   1.284   3.748  0.2818 -0.5926  0.2947
    1SOL     OW 9573   4.260   1.535   3.863 -0.2420 -0.2098  0.3758
    1SOL    HW2 9574   4.186   1.592   3.841 -1.0327 -1.1505  0.5731
    1SOL    HW3 9575   4.337   1.584   3.836 -0.9125  0.9959  0.6301
    1SOL    MW4 9576   4.260   1.549   3.856 -0.4349 -0.1750  0.4354
    1SOL     OW 9577   4.018   1.674   3.790 -0.6989 -0.3558 -0.2708
    1SOL    HW2 9578   4.031   1.759   3.833 -0.4683  0.2152 -1.4472
    1SOL    HW3 9579   3.933   1.643   3.822  0.1008 -0.5896  1.6575
    1SOL    MW4 9580   4.008   1.681   3.800 -0.5622 -0.3114 -0.1714
    1SOL     OW 9581   4.036   1.928   3.897 -0.1297 -0.1515 -0.0356
    1SOL    HW2 9582   4.040   1.929   3.993 -2.1532  1.4898  0.0471
    1SOL    HW3 9583   4.103   1.991   3.870  0.0594 -0.2015  0.3094
    1SOL    MW4 9584   4.046   1.936   3.906 -0.3719  0.0585  0.0207
    1SOL     OW 9585   4.265   2.074   3.807 -0.1265 -0.3409 -0.4846
    1SOL    HW2 9586   4.259   2.164   3.839 -1.4495 -0.9615  1.0970
    1SOL    HW3 9587   4.254   2.081   3.713 -0.7721  1.1067 -0.3088
    1SOL    MW4 9588   4.263   2.087   3.799 -0.3867 -0.2317 -0.2527
    1SOL     OW 9589   4.246   2.336   3.896 -0.2098  0.2284 -0.0536
    1SOL    HW2 9590   4.235   2.334   3.991  0.6251 -0.6043  0.0368
    1SOL    HW3 9591   4.161   2.364   3.862  0.1171  2.6217  1.0432
    1SOL    MW4 9592   4.233   2.339   3.904 -0.0567  0.4344  0.1030
    1SOL     OW 9593   4.008   2.435   3.766  0.2584  0.1511 -0.1557
    1SOL    HW2 9594   4.020   2.526   3.793 -0.6581  0.1580  0.2441
    1SOL    HW3 9595   3.935   2.403   3.819 -0.4886 -0.3318 -1.4632
    1SOL    MW4 9596   4.000   2.443   3.777  0.0391  0.0882 -0.2754
    1SOL     OW 9597   4.031   2.707   3.839 -0.0045  0.0301 -0.1378
    1SOL    HW2 9598   4.019   2.713   3.934 -0.5782  0.1459 -0.2172
    1SOL    HW3 9599   4.102   2.768   3.820  0.0683  0.0534  0.2091
    1SOL    MW4 9600   4.039   2.716   3.849 -0.0701  0.0486 -0.1025
    1SOL     OW 9601   4.238   2.854   3.738 -0.3897 -0.4660 -0.4867
    1SOL    HW2 9602   4.222   2.945   3.764  0.1869 -0.5920  0.3332
    1SOL    HW3 9603   4.311   2.826   3.793  0.5000 -0.9119 -1.8590
    1SOL    MW4 9604   4.246   2.862   3.749 -0.1965 -0.5414 -0.5598
    1SOL     OW 9605   4.241   3.092   3.877  0.0804  0.0688  0.4541
    1SOL    HW2 9606   4.174   3.153   3.845  0.5615 -0.1425 -0.9772
    1SOL    HW3 9607   4.324   3.133   3.854  0.4274 -0.4684  0.7333
    1SOL    MW4 9608   4.243   3.106   3.870  0.1898 -0.0300  0.3021
    1SOL     OW 9609   4.035   3.226   3.745  0.5291  0.1666 -0.3745
    1SOL    HW2 9610   3.964   3.173   3.781  0.8527  1.0834  1.7384
    1SOL    HW3 9611   4.031   3.213   3.651 -0.1203 -2.6614  0.0239
    1SOL    MW4 9612   4.025   3.217   3.738  0.4854 -0.0854 -0.0429
    1SOL     OW 9613   4.011   3.475   3.907 -0.0983  0.6092  0.2847
    1SOL    HW2 9614   4.008   3.394   3.857  1.1727  1.9187 -1.9934
    1SOL    HW3 9615   3.946   3.532   3.865  0.3864  1.4465  0.6572
    1SOL    MW4 9616   4.002   3.472   3.895  0.1335  0.8924  0.0331
    1SOL     OW 9617   4.229   3.645   3.816  0.1883 -0.2221  0.2963
    1SOL    HW2 9618   4.158   3.588   3.846  1.5812 -1.9537  0.3408
    1SOL    HW3 9619   4.308   3.609   3.856  1.3099  0.8015 -0.9370
    1SOL    MW4 9620   4.230   3.633   3.825  0.5202 -0.3154  0.1397
    1SOL     OW 9621   4.275   3.900   3.920 -0.2676 -0.4122  0.3985
    1SOL    HW2 9622   4.202   3.950   3.883 -1.3806 -2.2968 -0.0124
    1SOL    HW3 9623   4.265   3.812   3.883  2.8582 -0.4259 -0.5236
    1SOL    MW4 9624   4.264   3.895   3.910 -0.0019 -0.6626  0.2224
    1SOL     OW 9625   4.050   4.024   3.786  0.2961  0.1802 -0.3220
    1SOL    HW2 9626   4.053   4.111   3.827  1.6863  0.0799 -0.2214
    1SOL    HW3 9627   4.022   4.042   3.696 -0.9608  0.5732  0.1331
    1SOL    MW4 9628   4.046   4.038   3.779  0.3138  0.2189 -0.2487
    1SOL     OW 9629   4.022   4.289   3.892  0.3070 -0.0598 -0.2269
    1SOL    HW2 9630   4.033   4.275   3.986  2.0531  0.7171 -0.2924
    1SOL    HW3 9631   4.104   4.330   3.864 -0.7531  1.0380 -1.8298
    1SOL    MW4 9632   4.034   4.293   3.900  0.3972  0.1874 -0.4470
    1SOL     OW 9633   4.249   4.399   3.795  0.2571 -0.1119  0.1077
    1SOL    HW2 9634   4.257   4.485   3.837  0.2050  0.2298 -0.5854
    1SOL    HW3 9635   4.332   4.356   3.815  0.3090  0.1236  0.4086
    1SOL    MW4 9636   4.261   4.405   3.803  0.2570 -0.0358  0.0556
    1SOL     OW 9637   0.226   0.010   4.127  0.1031  0.0428 -0.3052
    1SOL    HW2 9638   0.313   0.047   4.143  0.5993 -1.0057 -0.5257
    1SOL    HW3 9639   0.230  -0.078   4.164 -0.6140 -0.2883 -0.9920
    1SOL    MW4 9640   0.238   0.003   4.134  0.0739 -0.1392 -0.4249
    1SOL     OW 9641   0.006   0.138   4.236  0.1143  0.8751  0.5586
    1SOL    HW2 9642   0.028   0.131   4.329  0.7936 -1.9920  0.2155
    1SOL    HW3 9643   0.079   0.097   4.190 -0.8520  1.0404 -1.1850
    1SOL    MW4 9644   0.019   0.132   4.242  0.0765  0.5186  0.2832
    1SOL     OW 9645   4.438   0.380   4.136  0.0914 -0.5455 -0.2138
    1SOL    HW2 9646   4.468   0.297   4.173 -0.0346 -1.3932 -1.9609
    1SOL    HW3 9647   4.448   0.369   4.042 -0.2190  1.3186 -0.4774
    1SOL    MW4 9648   4.443   0.368   4.129  0.0334 -0.4114 -0.4797
    1SOL     OW 9649   0.172   0.509   4.237  0.0514  0.0998  0.5584
    1SOL    HW2 9650   0.239   0.457   4.193 -0.2251 -0.0615  0.3290
    1SOL    HW3 9651   0.089   0.466   4.215 -0.0487 -0.3230  1.6902
    1SOL    MW4 9652   0.170   0.497   4.229  0.0017  0.0228  0.6776
    1SOL     OW 9653   0.188   0.777   4.183 -0.1549 -0.6613 -0.3012
    1SOL    HW2 9654   0.120   0.818   4.236  0.8705 -0.1561  0.6370
    1SOL    HW3 9655   0.184   0.684   4.206 -2.2373 -1.0777 -2.1588
    1SOL    MW4 9656   0.178   0.770   4.193 -0.2944 -0.6495 -0.4225
    1SOL     OW 9657   4.489   0.897   4.323 -0.4404  0.2058  0.2183
    1SOL    HW2 9658   4.416   0.860   4.273 -1.1226  0.0511  1.3154
    1SOL    HW3 9659   4.488   0.991   4.302 -0.2555  0.0250 -0.6259
    1SOL    MW4 9660   4.479   0.905   4.313 -0.5064  0.1615  0.2518
    1SOL     OW 9661   4.478   1.143   4.178 -0.4966 -0.1450 -0.5550
    1SOL    HW2 9662   4.558   1.193   4.196 -0.4418  0.2143 -1.7420
    1SOL    HW3 9663   4.480   1.130   4.083 -2.5289  1.0220 -0.7689
    1SOL    MW4 9664   4.489   1.148   4.167 -0.7575  0.0564 -0.7396
    1SOL     OW 9665   0.205   1.272   4.275 -0.3412 -0.2154  0.4415
    1SOL    HW2 9666   0.212   1.250   4.368  0.3481 -1.8040  0.0297
    1SOL    HW3 9667   0.285   1.235   4.236 -0.1904  1.1976 -0.6416
    1SOL    MW4 9668   0.217   1.264   4.282 -0.2304 -0.2387  0.2441
    1SOL     OW 9669   0.065   1.488   4.640  0.1441  0.0249  0.1992
    1SOL    HW2 9670   0.157   1.514   4.629  0.3663 -1.0059 -0.4554
    1SOL    HW3 9671   0.015   1.551   4.590  0.6172 -0.3182 -0.7117
    1SOL    MW4 9672   0.071   1.500   4.632  0.2358 -0.1563 -0.0076
    1SOL     OW 9673   4.480   1.629   4.238 -0.3581  0.1178  0.4994
    1SOL    HW2 9674   4.408   1.574   4.208 -0.0443  0.9731 -1.9998
    1SOL    HW3 9675   4.456   1.717   4.208  1.8997  0.3432 -0.7765
    1SOL    MW4 9676   4.467   1.634   4.230 -0.0191  0.2605  0.0014
    1SOL     OW 9677   0.226   2.022   4.238  0.2550  0.0787 -0.1311
    1SOL    HW2 9678   0.206   1.997   4.328  0.8630  1.5520  0.4296
    1SOL    HW3 9679   0.312   1.983   4.221  0.1021 -0.2712 -0.1047
    1SOL    MW4 9680   0.235   2.014   4.247  0.3151  0.2270 -0.0539
    1SOL     OW 9681   0.430   1.812   4.512 -0.2500  0.5427 -0.0694
    1SOL    HW2 9682   0.347   1.860   4.511  0.0341  1.0969  2.1058
    1SOL    HW3 9683   0.432   1.768   4.427 -1.3092  2.9833 -1.4183
    1SOL    MW4 9684   0.419   1.812   4.500 -0.3522  0.9379  0.0396
    1SOL     OW 9685   0.177   2.269   4.112  0.1416 -0.5836  0.6741
    1SOL    HW2 9686   0.256   2.322   4.123  0.1569 -0.4751  0.0706
    1SOL    HW3 9687   0.197   2.186   4.156  0.3549 -0.3280  1.0663
    1SOL    MW4 9688   0.190   2.265   4.119  0.1718 -0.5355  0.6466
    1SOL     OW 9689   0.014   2.425   4.270 -0.1224  0.1218 -0.2519
    1SOL    HW2 9690  -0.068   2.388   4.236  0.3906 -1.1725 -0.1099
    1SOL    HW3 9691   0.082   2.381   4.220  0.4837  1.4397 -0.5937
    1SOL    MW4 9692   0.012   2.414   4.259  0.0252  0.1247 -0.2785
    1SOL     OW 9693   0.011   2.669   4.155 -0.0649 -0.0152  0.3346
    1SOL    HW2 9694   0.078   2.725   4.194  2.9025 -1.9452 -1.7646
    1SOL    HW3 9695   0.021   2.585   4.201 -1.4818 -0.1615  0.4095
    1SOL    MW4 9696   0.021   2.665   4.166  0.1396 -0.2892  0.0672
    1SOL     OW 9697   0.198   2.838   4.294 -0.3438  0.3397 -0.3137
    1SOL    HW2 9698   0.278   2.802   4.255  0.3546  0.7836  0.7070
    1SOL    HW3 9699   0.193   2.927   4.261 -0.0112  0.5583  0.2230
    1SOL    MW4 9700   0.208   2.845   4.284 -0.2078  0.4270 -0.1078
    1SOL     OW 9701   0.190   3.113   4.202 -0.4369  0.2158 -0.1233
    1SOL    HW2 9702   0.273   3.161   4.206  0.1669 -0.7651 -0.7422
    1SOL    HW3 9703   0.128   3.170   4.247  0.4539  1.1995 -0.1067
    1SOL    MW4 9704   0.193   3.127   4.208 -0.2397  0.2160 -0.2027
    1SOL     OW 9705   4.437   3.259   4.286 -0.3376 -0.3115  0.2329
    1SOL    HW2 9706   4.371   3.197   4.255 -0.7955  0.4104 -0.2354
    1SOL    HW3 9707   4.448   3.322   4.215  1.0822 -0.5911  0.1809
    1SOL    MW4 9708   4.430   3.259   4.273 -0.2108 -0.2532  0.1645
    1SOL     OW 9709   4.472   3.479   4.131 -0.4137 -0.7717  0.0384
    1SOL    HW2 9710   4.396   3.521   4.171 -0.9834 -1.2999 -0.4955
    1SOL    HW3 9711   4.466   3.501   4.038  1.8058  1.8749  0.4372
    1SOL    MW4 9712   4.461   3.488   4.124 -0.1960 -0.4921  0.0210
    1SOL     OW 9713   0.200   3.634   4.179 -0.0079  0.1269 -0.2959
    1SOL    HW2 9714   0.271   3.570   4.180 -0.6859 -0.6305 -1.0091
    1SOL    HW3 9715   0.121   3.583   4.165 -0.5610  1.1075 -0.8012
    1SOL    MW4 9716   0.199   3.619   4.177 -0.1704  0.1566 -0.4563
    1SOL     OW 9717   0.216   3.913   4.106 -0.5781  0.0780  0.2432
    1SOL    HW2 9718   0.147   3.947   4.164 -1.2141 -0.1775 -0.3640
    1SOL    HW3 9719   0.225   3.821   4.132  1.1243  0.6657  1.8669
    1SOL    MW4 9720   0.208   3.905   4.117 -0.4374  0.1218  0.3772
    1SOL     OW 9721   0.010   4.020   4.269 -0.2400  0.0701  0.0296
    1SOL    HW2 9722   0.019   4.022   4.365  0.5970  0.6342 -0.0520
    1SOL    HW3 9723  -0.074   3.979   4.254  0.7162 -2.3083  0.9678
    1SOL    MW4 9724   0.000   4.015   4.280 -0.0034 -0.1688  0.1431
    1SOL     OW 9725   4.487   4.297   4.179 -0.2369  0.1909 -0.1296
    1SOL    HW2 9726   4.493   4.206   4.208  1.0271  0.1858 -0.3745
    1SOL    HW3 9727   4.479   4.291   4.083  2.2252  0.3890 -0.3750
    1SOL    MW4 9728   4.487   4.284   4.170  0.2546  0.2160 -0.1945
    1SOL     OW 9729   0.233   4.428   4.251  0.0204 -0.4781  0.3957
    1SOL    HW2 9730   0.238   4.415   4.346  0.4906 -1.4390  0.2501
    1SOL    HW3 9731   0.153   4.382   4.225 -1.3942  1.7977  0.6343
    1SOL    MW4 9732   0.223   4.420   4.260 -0.1042 -0.3047  0.4082
    1SOL     OW 9733   0.664   4.588   4.112 -0.1483  0.5415  0.1717
    1SOL    HW2 9734   0.598   4.645   4.152 -1.1147  0.0380 -0.6806
    1SOL    HW3 9735   0.669   4.618   4.021 -1.3484 -1.3393 -0.5294
    1SOL    MW4 9736   0.656   4.599   4.105 -0.4341  0.2275 -0.0329
    1SOL     OW 9737   0.490   0.102   4.237 -0.2648  0.1771 -0.2999
    1SOL    HW2 9738   0.452   0.088   4.324  0.0797  0.0359 -0.1760
    1SOL    HW3 9739   0.460   0.190   4.213  1.1992  0.9765  0.7559
    1SOL    MW4 9740   0.481   0.112   4.245 -0.0262  0.2640 -0.1435
    1SOL     OW 9741   0.371   0.350   4.136  0.1193  0.2643 -0.0831
    1SOL    HW2 9742   0.445   0.396   4.177 -0.2361  1.4258 -0.7100
    1SOL    HW3 9743   0.389   0.356   4.042  1.0496 -2.5905 -0.1326
    1SOL    MW4 9744   0.383   0.357   4.129  0.1951  0.0409 -0.1721
    1SOL     OW 9745   0.607   0.462   4.243  0.4841  0.0580  0.0045
    1SOL    HW2 9746   0.676   0.417   4.196  1.7329  1.3658  0.5395
    1SOL    HW3 9747   0.619   0.555   4.221 -0.7585  0.3573  0.5253
    1SOL    MW4 9748   0.618   0.469   4.234  0.4849  0.2700  0.1435
    1SOL     OW 9749   0.639   0.738   4.167 -0.5677  0.0784 -0.6130
    1SOL    HW2 9750   0.578   0.792   4.217 -1.5121 -0.8931 -0.7053
    1SOL    HW3 9751   0.615   0.753   4.076  0.9641  1.6204 -0.7968
    1SOL    MW4 9752   0.628   0.747   4.162 -0.4902  0.1537 -0.6495
    1SOL     OW 9753   0.436   0.902   4.282 -0.0531  0.4979  0.3709
    1SOL    HW2 9754   0.437   0.990   4.243 -1.1567  0.7482  0.8824
    1SOL    HW3 9755   0.354   0.863   4.250 -0.0470  0.0223  0.9351
    1SOL    MW4 9756   0.425   0.908   4.273 -0.1979  0.4681  0.5131
    1SOL     OW 9757   0.451   1.172   4.172 -0.0024  0.5681  0.3282
    1SOL    HW2 9758   0.540   1.202   4.188  0.5938 -0.1738 -1.5444
    1SOL    HW3 9759   0.443   1.167   4.077 -2.6924  2.5489  0.3813
    1SOL    MW4 9760   0.461   1.175   4.162 -0.2786  0.7317  0.0882
    1SOL     OW 9761   0.693   1.250   4.230 -0.1870 -0.1104 -0.2681
    1SOL    HW2 9762   0.696   1.259   4.325  1.9895 -0.9278 -0.2348
    1SOL    HW3 9763   0.667   1.337   4.199  0.4929  0.5670  1.0044
    1SOL    MW4 9764   0.690   1.263   4.238  0.1899 -0.1289 -0.0958
    1SOL     OW 9765   0.658   1.520   4.153  0.2802 -0.1326  0.3626
    1SOL    HW2 9766   0.746   1.552   4.171  0.5906  0.4984 -2.1101
    1SOL    HW3 9767   0.645   1.536   4.060 -2.3814 -0.4021  0.6464
    1SOL    MW4 9768   0.668   1.526   4.143 -0.0301 -0.0849  0.0730
    1SOL     OW 9769   0.212   1.509   4.138 -0.0916  0.5098  0.3521
    1SOL    HW2 9770   0.211   1.438   4.202 -0.0546  0.1791 -0.0106
    1SOL    HW3 9771   0.133   1.559   4.156  0.4809  1.0615  1.3710
    1SOL    MW4 9772   0.201   1.506   4.149 -0.0111  0.5389  0.4382
    1SOL     OW 9773   0.462   1.893   4.142  0.3485 -0.3334  0.5127
    1SOL    HW2 9774   0.456   1.801   4.170  0.0531 -0.0241  1.5055
    1SOL    HW3 9775   0.441   1.891   4.049  0.2719 -1.2714  0.5408
    1SOL    MW4 9776   0.458   1.881   4.134  0.2994 -0.4162  0.6471
    1SOL     OW 9777   0.662   2.066   4.250 -0.3816  0.3370  0.0790
    1SOL    HW2 9778   0.655   2.041   4.342  0.2052  1.5052  0.4529
    1SOL    HW3 9779   0.608   2.003   4.203  1.6486 -2.0960  0.9118
    1SOL    MW4 9780   0.654   2.054   4.256 -0.0363  0.1702  0.2379
    1SOL     OW 9781   0.630   2.343   4.131  0.0448  0.2507  0.3138
    1SOL    HW2 9782   0.621   2.258   4.174 -0.5145  0.5473  0.7966
    1SOL    HW3 9783   0.624   2.324   4.038  0.4564 -0.3024  0.3935
    1SOL    MW4 9784   0.628   2.329   4.125  0.0253  0.2170  0.3881
    1SOL     OW 9785   0.393   2.459   4.163  0.4034  0.5173  0.0246
    1SOL    HW2 9786   0.408   2.553   4.148  1.5725  0.4696  0.8980
    1SOL    HW3 9787   0.479   2.420   4.156  0.0085 -0.4148  0.3683
    1SOL    MW4 9788   0.406   2.466   4.160  0.5055  0.3881  0.1855
    1SOL     OW 9789   0.419   2.732   4.150  0.4129 -0.0920  0.5306
    1SOL    HW2 9790   0.509   2.761   4.168  0.5741 -0.7523  0.8061
    1SOL    HW3 9791   0.412   2.734   4.055  0.8281 -0.3455  0.4919
    1SOL    MW4 9792   0.430   2.736   4.140  0.4890 -0.2124  0.5612
    1SOL     OW 9793   0.678   2.787   4.191  0.2952 -0.1851 -0.1931
    1SOL    HW2 9794   0.701   2.797   4.284 -0.7869  1.7356 -0.1052
    1SOL    HW3 9795   0.696   2.873   4.153  0.1322 -0.7891 -1.6490
    1SOL    MW4 9796   0.684   2.799   4.198  0.1309 -0.0114 -0.3734
    1SOL     OW 9797   0.682   3.055   4.097  0.2662 -0.0412 -0.0531
    1SOL    HW2 9798   0.749   3.119   4.121  0.6102  0.4951 -2.3509
    1SOL    HW3 9799   0.599   3.101   4.105  0.4131  0.2750 -0.3551
    1SOL    MW4 9800   0.680   3.069   4.101  0.3309  0.0713 -0.3958
    1SOL     OW 9801   0.460   3.202   4.184 -0.0263  0.2169 -0.0713
    1SOL    HW2 9802   0.495   3.181   4.271  1.0841 -0.4158 -0.6576
    1SOL    HW3 9803   0.445   3.296   4.186 -1.4000 -0.0103  1.3003
    1SOL    MW4 9804   0.463   3.212   4.196 -0.0610  0.1035  0.0329
    1SOL     OW 9805   0.424   3.479   4.159  0.1174 -0.2611 -0.3735
    1SOL    HW2 9806   0.506   3.513   4.197  0.5195 -1.7196  0.1025
    1SOL    HW3 9807   0.439   3.482   4.065  0.3341  0.4291 -0.3192
    1SOL    MW4 9808   0.437   3.484   4.152  0.1990 -0.3626 -0.3037
    1SOL     OW 9809   0.651   3.592   4.266  0.1790  0.0961  0.2747
    1SOL    HW2 9810   0.629   3.620   4.355  0.6554  0.1544  0.3796
    1SOL    HW3 9811   0.746   3.579   4.268  0.3141  0.8983 -0.4447
    1SOL    MW4 9812   0.661   3.594   4.278  0.2597  0.2100  0.1936
    1SOL     OW 9813   0.684   3.854   4.161 -0.2610  0.0994 -0.2790
    1SOL    HW2 9814   0.601   3.899   4.176 -0.8968 -1.3193  0.5788
    1SOL    HW3 9815   0.670   3.766   4.194  1.5389 -0.2212 -0.2905
    1SOL    MW4 9816   0.672   3.848   4.167 -0.1075 -0.1304 -0.1674
    1SOL     OW 9817   0.461   4.009   4.205 -0.4063  0.0208  0.1607
    1SOL    HW2 9818   0.440   4.102   4.206  0.1073  0.1174  1.2042
    1SOL    HW3 9819   0.378   3.967   4.183 -0.7784  0.6822  0.2887
    1SOL    MW4 9820   0.447   4.016   4.202 -0.3876  0.1202  0.3157
    1SOL     OW 9821   0.438   4.271   4.169  0.3698 -0.1371 -0.2294
    1SOL    HW2 9822   0.362   4.325   4.191  0.3574 -0.0202 -0.5671
    1SOL    HW3 9823   0.441   4.271   4.074 -0.9341 -2.5108 -0.3346
    1SOL    MW4 9824   0.428   4.278   4.160  0.1961 -0.4349 -0.2875
    1SOL     OW 9825   0.696   4.332   4.217 -0.1128 -0.0666  0.2772
    1SOL    HW2 9826   0.608   4.295   4.224 -0.6486  1.3139  0.9878
    1SOL    HW3 9827   0.683   4.418   4.177  0.3970  1.9126  4.1181
    1SOL    MW4 9828   0.683   4.339   4.213 -0.1162  0.3772  0.8774
    1SOL     OW 9829   1.106   4.651   4.146  0.4614  0.0709  0.1942
    1SOL    HW2 9830   1.113   4.557   4.160  1.7121 -0.0008 -0.8044
    1SOL    HW3 9831   1.109   4.662   4.051 -0.4298  1.0669  0.2688
    1SOL    MW4 9832   1.108   4.640   4.136  0.5088  0.1926  0.0730
    1SOL     OW 9833   0.866   0.063   4.242  0.2792  0.3237  0.3025
    1SOL    HW2 9834   0.947   0.042   4.196 -0.4555  0.9904 -1.3321
    1SOL    HW3 9835   0.799   0.011   4.198  0.0162 -1.3070  2.5557
    1SOL    MW4 9836   0.868   0.053   4.230  0.1476  0.1965  0.3829
    1SOL     OW 9837   0.835   0.353   4.129  0.0220 -0.1593 -0.1381
    1SOL    HW2 9838   0.915   0.397   4.158 -0.1635  0.1554 -0.1019
    1SOL    HW3 9839   0.851   0.260   4.146  0.8388 -0.2231 -1.2207
    1SOL    MW4 9840   0.847   0.346   4.135  0.1053 -0.1262 -0.2761
    1SOL     OW 9841   1.079   0.467   4.177  0.4493  0.3478 -0.4463
    1SOL    HW2 9842   1.087   0.486   4.270 -0.7756 -0.9612 -0.0443
    1SOL    HW3 9843   1.162   0.427   4.152  1.0348  1.3425 -0.0808
    1SOL    MW4 9844   1.091   0.464   4.186  0.3649  0.3063 -0.3452
    1SOL     OW 9845   1.093   0.729   4.086 -0.0550  0.1769  0.4064
    1SOL    HW2 9846   1.167   0.777   4.123  1.2906  0.0026 -1.9617
    1SOL    HW3 9847   1.096   0.643   4.128  1.3171  0.0474  0.0614
    1SOL    MW4 9848   1.103   0.724   4.097  0.3036  0.1369  0.0486
    1SOL     OW 9849   0.887   0.873   4.208  0.6411 -0.8127  0.4892
    1SOL    HW2 9850   0.958   0.822   4.169  0.8467 -0.3048  0.1974
    1SOL    HW3 9851   0.810   0.819   4.197  0.9358 -1.2558  0.5743
    1SOL    MW4 9852   0.887   0.859   4.201  0.7071 -0.8042  0.4625
    1SOL     OW 9853   0.910   1.127   4.107  0.1970  0.1799  0.2882
    1SOL    HW2 9854   0.908   1.044   4.155  0.4819 -0.0676 -0.1289
    1SOL    HW3 9855   0.833   1.175   4.138  1.1379  0.5983  2.0404
    1SOL    MW4 9856   0.900   1.122   4.117  0.3586  0.2024  0.4640
    1SOL     OW 9857   1.097   1.265   4.265  0.2488 -0.1852 -1.0588
    1SOL    HW2 9858   1.056   1.247   4.349  1.9743  0.7143 -0.0054
    1SOL    HW3 9859   1.044   1.215   4.202 -1.2806 -0.5726  0.4787
    1SOL    MW4 9860   1.084   1.256   4.267  0.2747 -0.1175 -0.7162
    1SOL     OW 9861   1.145   1.554   4.153  0.2736  0.2702  0.1294
    1SOL    HW2 9862   1.057   1.571   4.188  0.4968  0.0235  0.8269
    1SOL    HW3 9863   1.165   1.465   4.182  1.5682  1.0655  1.7126
    1SOL    MW4 9864   1.136   1.545   4.162  0.4739  0.3426  0.4306
    1SOL     OW 9865   0.890   1.647   4.233  0.2409 -0.2867  0.0112
    1SOL    HW2 9866   0.871   1.643   4.327  1.0948  0.3591  0.2105
    1SOL    HW3 9867   0.877   1.739   4.210  0.2296 -0.4076 -0.4552
    1SOL    MW4 9868   0.886   1.659   4.243  0.3520 -0.2174 -0.0238
    1SOL     OW 9869   0.863   1.912   4.140 -0.2281 -0.6373  0.0974
    1SOL    HW2 9870   0.807   1.972   4.190  0.4164 -0.6981  0.8889
    1SOL    HW3 9871   0.848   1.937   4.048 -0.8068 -0.0077  0.3562
    1SOL    MW4 9872   0.853   1.923   4.134 -0.2195 -0.5623  0.2356
    1SOL     OW 9873   1.096   2.051   4.215 -0.1743 -0.2617  0.2439
    1SOL    HW2 9874   1.089   2.057   4.310  0.9034 -3.0133  0.5217
    1SOL    HW3 9875   1.023   1.994   4.189 -0.1204  0.0191 -0.5352
    1SOL    MW4 9876   1.085   2.044   4.224 -0.0249 -0.5872  0.1779
    1SOL     OW 9877   1.048   2.281   4.075 -0.8246 -0.1382  0.5869
    1SOL    HW2 9878   1.136   2.319   4.075 -0.6807 -0.4422 -0.6578
    1SOL    HW3 9879   1.058   2.198   4.121 -0.5978  0.1465  1.0491
    1SOL    MW4 9880   1.061   2.275   4.081 -0.7756 -0.1409  0.4840
    1SOL     OW 9881   0.856   2.423   4.234 -0.2416 -0.2894  0.1245
    1SOL    HW2 9882   0.919   2.379   4.176 -0.1055  0.3604 -0.2209
    1SOL    HW3 9883   0.771   2.408   4.194 -0.1933 -0.2285 -0.0011
    1SOL    MW4 9884   0.853   2.415   4.221 -0.2173 -0.1960  0.0625
    1SOL     OW 9885   0.908   2.666   4.064  0.0296  0.0414  0.3335
    1SOL    HW2 9886   0.917   2.580   4.104 -1.7214 -0.1314  0.3923
    1SOL    HW3 9887   0.839   2.709   4.114 -0.6319  0.6648 -1.0619
    1SOL    MW4 9888   0.900   2.661   4.076 -0.2887  0.1011  0.1574
    1SOL     OW 9889   1.109   2.809   4.197 -0.4462 -0.6758 -0.1583
    1SOL    HW2 9890   1.114   2.897   4.160 -1.0996 -0.1844  0.9005
    1SOL    HW3 9891   1.033   2.769   4.155 -1.0621 -0.1918  0.4891
    1SOL    MW4 9892   1.100   2.815   4.186 -0.6138 -0.5469  0.0668
    1SOL     OW 9893   1.123   3.055   4.095  0.3963 -0.3536  0.0539
    1SOL    HW2 9894   1.200   3.101   4.129 -0.8087  1.5694  0.2454
    1SOL    HW3 9895   1.132   3.062   4.000  0.7148 -0.5754  0.0661
    1SOL    MW4 9896   1.134   3.062   4.087  0.2794 -0.1292  0.0806
    1SOL     OW 9897   0.891   3.200   4.187  0.1039  0.6185  0.2339
    1SOL    HW2 9898   0.872   3.160   4.271  0.3053  0.6099  0.2755
    1SOL    HW3 9899   0.972   3.157   4.157 -1.1993 -1.0156 -1.0242
    1SOL    MW4 9900   0.899   3.189   4.194 -0.0414  0.4017  0.0739
    1SOL     OW 9901   0.895   3.505   4.184  0.6194 -0.5636  0.1116
    1SOL    HW2 9902   0.892   3.411   4.203  1.9868 -0.4182  1.0691
    1SOL    HW3 9903   0.889   3.510   4.089  1.5181 -1.6770 -0.0126
    1SOL    MW4 9904   0.893   3.493   4.174  0.9184 -0.6914  0.2217
    1SOL     OW 9905   1.152   3.596   4.274 -0.2199 -0.2900 -0.0675
    1SOL    HW2 9906   1.149   3.675   4.221 -1.6650  0.5678  1.2259
    1SOL    HW3 9907   1.063   3.559   4.268 -0.5183  0.0059  1.9609
    1SOL    MW4 9908   1.140   3.601   4.266 -0.4499 -0.1380  0.3705
    1SOL     OW 9909   1.132   3.843   4.120 -0.0744 -0.0499 -0.0749
    1SOL    HW2 9910   1.208   3.896   4.144  0.7875 -1.6384  0.8545
    1SOL    HW3 9911   1.059   3.883   4.165  0.6869 -0.0405  1.1821
    1SOL    MW4 9912   1.133   3.855   4.129  0.1398 -0.2582  0.2141
    1SOL     OW 9913   0.919   3.984   4.250  0.3724 -0.5118  0.5572
    1SOL    HW2 9914   0.924   4.066   4.201  0.8688 -0.6288  0.4114
    1SOL    HW3 9915   0.845   3.937   4.211  0.0415 -0.1044  0.6914
    1SOL    MW4 9916   0.910   3.989   4.238  0.3943 -0.4735  0.5555
    1SOL     OW 9917   0.910   4.234   4.091  0.0485  0.0339  0.0321
    1SOL    HW2 9918   0.986   4.275   4.133 -0.4982  1.6380 -0.5078
    1SOL    HW3 9919   0.835   4.279   4.127 -0.5155  0.3030 -1.4365
    1SOL    MW4 9920   0.910   4.245   4.101 -0.0980  0.2813 -0.2332
    1SOL     OW 9921   1.104   4.368   4.228 -0.1467  0.0908 -0.2120
    1SOL    HW2 9922   1.088   4.357   4.322 -0.0064  0.1552 -0.1811
    1SOL    HW3 9923   1.175   4.308   4.209 -0.1548  0.1011 -0.2721
    1SOL    MW4 9924   1.111   4.359   4.238 -0.1293  0.1011 -0.2160
    1SOL     OW 9925   1.585   4.643   4.095 -0.1165 -0.1261  0.0795
    1SOL    HW2 9926   1.654   4.692   4.139  0.2555  0.0116 -0.6481
    1SOL    HW3 9927   1.504   4.686   4.121  0.0562 -0.3834  1.0575
    1SOL    MW4 9928   1.583   4.655   4.104 -0.0447 -0.1421  0.1121
    1SOL     OW 9929   1.366   0.106   4.205  0.0517  0.4550 -0.0883
    1SOL    HW2 9930   1.385   0.095   4.298  0.6575 -0.2215 -0.2884
    1SOL    HW3 9931   1.284   0.059   4.192  0.7103 -0.6851 -0.1828
    1SOL    MW4 9932   1.358   0.098   4.216  0.2186  0.2153 -0.1268
    1SOL     OW 9933   1.332   0.365   4.105 -0.1966 -0.4980 -0.1053
    1SOL    HW2 9934   1.404   0.424   4.129 -0.7905  0.0592  0.3159
    1SOL    HW3 9935   1.356   0.281   4.144 -0.6069  0.1207  1.5010
    1SOL    MW4 9936   1.345   0.361   4.113 -0.3291 -0.3428  0.1616
    1SOL     OW 9937   1.554   0.523   4.169  0.2681 -0.0806  0.8258
    1SOL    HW2 9938   1.566   0.548   4.261  1.5713  0.1124  0.6186
    1SOL    HW3 9939   1.552   0.606   4.122 -0.8572 -0.1632  0.7283
    1SOL    MW4 9940   1.556   0.537   4.175  0.2916 -0.0660  0.7858
    1SOL     OW 9941   1.531   0.767   4.071  0.0057 -0.0118 -0.3956
    1SOL    HW2 9942   1.613   0.814   4.089  0.0696 -0.6291  0.9294
    1SOL    HW3 9943   1.538   0.743   3.978  1.7537 -0.8708 -0.0712
    1SOL    MW4 9944   1.543   0.770   4.061  0.2449 -0.2066 -0.1779
    1SOL     OW 9945   1.299   0.849   4.217 -0.1365 -0.4783  0.2565
    1SOL    HW2 9946   1.303   0.944   4.217 -1.5784 -0.3783 -1.6319
    1SOL    HW3 9947   1.376   0.821   4.168  1.0796 -0.3636  2.0651
    1SOL    MW4 9948   1.310   0.858   4.210 -0.1663 -0.4500  0.2460
    1SOL     OW 9949   1.326   1.120   4.165 -0.1900 -0.0789  0.3036
    1SOL    HW2 9950   1.255   1.172   4.201 -0.3290  0.3313 -0.5555
    1SOL    HW3 9951   1.329   1.143   4.073  1.4451  0.3646  0.4435
    1SOL    MW4 9952   1.317   1.130   4.158  0.0073  0.0337  0.2084
    1SOL     OW 9953   1.547   1.282   4.218  0.2081  0.0858  0.0180
    1SOL    HW2 9954   1.544   1.293   4.313 -0.2988  0.1652 -0.0059
    1SOL    HW3 9955   1.474   1.223   4.199  0.2407  0.1614 -0.3376
    1SOL    MW4 9956   1.537   1.276   4.228  0.1456  0.1061 -0.0324
    1SOL     OW 9957   1.537   1.538   4.117  0.1384  0.3567 -0.1136
    1SOL    HW2 9958   1.473   1.581   4.172 -0.6089 -0.1686 -0.5632
    1SOL    HW3 9959   1.547   1.451   4.155  1.9234  1.0353  1.0170
    1SOL    MW4 9960   1.530   1.532   4.129  0.2753  0.3768 -0.0238
    1SOL     OW 9961   1.359   1.679   4.272 -0.0610 -0.2716 -0.5312
    1SOL    HW2 9962   1.376   1.758   4.221 -0.6906  0.0336 -0.2818
    1SOL    HW3 9963   1.284   1.639   4.227 -1.1333  0.4164  0.6070
    1SOL    MW4 9964   1.351   1.684   4.259 -0.2856 -0.1404 -0.3486
    1SOL     OW 9965   1.352   1.913   4.131 -0.0226  0.2226 -0.3404
    1SOL    HW2 9966   1.432   1.957   4.161 -0.0078  0.8012 -1.1899
    1SOL    HW3 9967   1.281   1.962   4.172  0.0677 -0.4833  0.6611
    1SOL    MW4 9968   1.353   1.925   4.140 -0.0086  0.2059 -0.3204
    1SOL     OW 9969   1.578   2.054   4.243  0.1462  0.6567 -0.1537
    1SOL    HW2 9970   1.637   2.046   4.317 -0.5580  1.7871  0.5630
    1SOL    HW3 9971   1.584   2.147   4.218  0.0132  0.3901 -1.1936
    1SOL    MW4 9972   1.586   2.065   4.249  0.0356  0.7708 -0.1965
    1SOL     OW 9973   1.554   2.309   4.115 -0.2440 -0.1327 -0.2943
    1SOL    HW2 9974   1.621   2.371   4.143 -1.4624  1.1128 -0.0831
    1SOL    HW3 9975   1.580   2.284   4.026  0.2493  0.6951 -0.3877
    1SOL    MW4 9976   1.567   2.314   4.107 -0.3396  0.1407 -0.2794
    1SOL     OW 9977   1.299   2.420   4.144 -0.2393  0.0778  0.2821
    1SOL    HW2 9978   1.299   2.509   4.108 -0.9794  1.0931  2.7085
    1SOL    HW3 9979   1.390   2.391   4.137  0.1033  1.2233 -0.0718
    1SOL    MW4 9980   1.311   2.428   4.138 -0.2917  0.3629  0.5550
    1SOL     OW 9981   1.308   2.676   4.056 -0.5196  0.1629  0.0422
    1SOL    HW2 9982   1.395   2.703   4.086 -0.2793 -0.2695 -0.2564
    1SOL    HW3 9983   1.247   2.731   4.106 -0.0503  1.1278 -0.4317
    1SOL    MW4 9984   1.311   2.687   4.067 -0.4261  0.2332 -0.0601
    1SOL     OW 9985   1.564   2.756   4.138  0.2072  0.3368  0.3238
    1SOL    HW2 9986   1.603   2.724   4.219  0.8985  0.4783  0.0554
    1SOL    HW3 9987   1.570   2.851   4.145 -2.9170  0.4820  1.6484
    1SOL    MW4 9988   1.570   2.764   4.149 -0.1138  0.3746  0.4635
    1SOL     OW 9989   1.569   3.030   4.095  0.2445 -0.0255 -0.7198
    1SOL    HW2 9990   1.644   3.078   4.130  0.8581 -0.7339 -1.0571
    1SOL    HW3 9991   1.493   3.072   4.136  0.8101  0.7556 -0.4456
    1SOL    MW4 9992   1.569   3.042   4.105  0.3999 -0.0160 -0.7281
    1SOL     OW 9993   1.350   3.149   4.217  0.4015 -0.1180 -0.0505
    1SOL    HW2 9994   1.363   3.144   4.311  0.9556  1.2808 -0.0474
    1SOL    HW3 9995   1.338   3.242   4.198  0.7296 -0.3344 -1.4160
    1SOL    MW4 9996   1.350   3.161   4.227  0.5180  0.0379 -0.2303
    1SOL     OW 9997   1.314   3.405   4.145 -0.2844 -0.2282 -0.7848
    1SOL    HW2 9998   1.235   3.452   4.173  0.3153  0.0746  0.4409
    1SOL    HW3 9999   1.321   3.423   4.052 -1.9232 -0.6324 -1.0110
    1SOL    MW410000   1.304   3.413   4.137 -0.4216 -0.2415 -0.6533
    1SOL     OW10001   1.502   3.588   4.232 -0.2880 -0.1104  0.2305
    1SOL    HW210002   1.514   3.585   4.327 -0.0311  2.2147  0.3058
    1SOL    HW310003   1.433   3.524   4.214 -1.2102  0.3188  2.1256
    1SOL    MW410004   1.495   3.579   4.243 -0.3759  0.2530  0.4907
    1SOL     OW10005   1.572   3.832   4.137  0.4937 -0.2491  0.2622
    1SOL    HW210006   1.505   3.893   4.166 -0.0995 -0.4356 -0.6807
    1SOL    HW310007   1.540   3.746   4.164  0.0052 -0.4095 -0.7754
    1SOL    MW410008   1.559   3.829   4.144  0.3510 -0.2949  0.0010
    1SOL     OW10009   1.346   3.962   4.221 -0.1491 -0.0092  0.2010
    1SOL    HW210010   1.338   3.947   4.315  1.4787 -0.6737  0.2541
    1SOL    HW310011   1.356   4.057   4.212  1.1589 -0.0701  0.8389
    1SOL    MW410012   1.346   3.972   4.232  0.2383 -0.1049  0.2923
    1SOL     OW10013   1.338   4.244   4.165 -0.1074 -0.0730  0.1537
    1SOL    HW210014   1.417   4.297   4.174 -0.9111  1.2786 -0.5816
    1SOL    HW310015   1.330   4.229   4.071 -2.1709  2.0737 -0.0518
    1SOL    MW410016   1.348   4.249   4.154 -0.4857  0.3881  0.0296
    1SOL     OW10017   1.564   4.394   4.218 -0.6084 -0.1392 -0.6089
    1SOL    HW210018   1.566   4.459   4.147 -0.8112 -0.9349 -1.3587
    1SOL    HW310019   1.640   4.338   4.201 -0.6007 -0.2704 -0.1362
    1SOL    MW410020   1.574   4.395   4.206 -0.6341 -0.2608 -0.6452
    1SOL     OW10021   2.017   0.008   4.149  0.3295 -0.0186  0.4705
    1SOL    HW210022   1.935   0.041   4.185  0.0124 -0.3403  0.0583
    1SOL    HW310023   1.997  -0.010   4.057  0.3842 -1.6781  0.7522
    1SOL    MW410024   2.004   0.010   4.141  0.2949 -0.2799  0.4530
    1SOL     OW10025   1.782   0.099   4.244  0.0071  0.1712  0.2260
    1SOL    HW210026   1.772   0.104   4.340  1.2047  0.0727  0.3543
    1SOL    HW310027   1.772   0.189   4.215 -1.9755 -0.0081  0.2805
    1SOL    MW410028   1.779   0.112   4.253 -0.0964  0.1345  0.2503
    1SOL     OW10029   1.792   0.360   4.122 -0.2696  0.1119  0.4415
    1SOL    HW210030   1.867   0.404   4.163  1.2193 -0.7100 -1.3390
    1SOL    HW310031   1.717   0.417   4.142  0.9697  1.4175  1.4786
    1SOL    MW410032   1.792   0.374   4.130  0.0904  0.1757  0.3433
    1SOL     OW10033   2.006   0.514   4.244 -0.0909  0.1097 -0.0289
    1SOL    HW210034   2.001   0.534   4.338  0.1998  0.4222 -0.0817
    1SOL    HW310035   2.088   0.465   4.235  1.1298  2.1833 -0.5095
    1SOL    MW410036   2.016   0.510   4.255  0.1087  0.4244 -0.0992
    1SOL     OW10037   2.029   0.767   4.134 -0.2578 -0.3517  0.3176
    1SOL    HW210038   2.106   0.815   4.164 -0.9851  0.2549  1.2337
    1SOL    HW310039   2.032   0.684   4.182  0.5452 -0.8932 -0.6455
    1SOL    MW410040   2.039   0.763   4.144 -0.2477 -0.3431  0.3114
    1SOL     OW10041   1.759   0.910   4.139  0.4404  0.1222  0.2029
    1SOL    HW210042   1.757   1.000   4.107  0.2585 -0.3077 -1.0317
    1SOL    HW310043   1.850   0.884   4.132  0.5895  0.4125  1.1233
    1SOL    MW410044   1.770   0.918   4.134  0.4361  0.1038  0.1616
    1SOL     OW10045   1.772   1.187   4.065  0.2058  0.0517  0.3523
    1SOL    HW210046   1.835   1.205   4.135  1.2843 -0.2228 -0.5238
    1SOL    HW310047   1.687   1.214   4.101  0.7881  0.2052  1.6392
    1SOL    MW410048   1.769   1.193   4.079  0.4250  0.0358  0.4067
    1SOL     OW10049   1.940   1.268   4.270 -0.1797  0.1517  0.2301
    1SOL    HW210050   2.023   1.231   4.238 -0.6199 -0.7928  0.1550
    1SOL    HW310051   1.940   1.358   4.238  0.7827  0.1362  0.1609
    1SOL    MW410052   1.951   1.275   4.262 -0.1109  0.0252  0.2108
    1SOL     OW10053   1.944   1.521   4.157  0.0367  0.1551  0.1798
    1SOL    HW210054   2.020   1.556   4.203  0.5605 -0.4748 -0.1978
    1SOL    HW310055   1.966   1.528   4.064  0.3274 -1.4970  0.0913
    1SOL    MW410056   1.957   1.526   4.151  0.1442 -0.1460  0.1187
    1SOL     OW10057   1.746   1.694   4.216 -0.1045  0.3213 -0.3058
    1SOL    HW210058   1.815   1.632   4.193  0.3477  0.2909  1.0458
    1SOL    HW310059   1.669   1.664   4.169  0.7631  0.2435 -1.6817
    1SOL    MW410060   1.745   1.682   4.207  0.0696  0.3068 -0.3090
    1SOL     OW10061   1.760   1.925   4.063  0.6139  0.3947 -0.1457
    1SOL    HW210062   1.781   1.852   4.122  0.6639  1.1719  0.8187
    1SOL    HW310063   1.693   1.975   4.111  0.9491  1.2635 -0.5773
    1SOL    MW410064   1.754   1.922   4.077  0.6647  0.6117 -0.0753
    1SOL     OW10065   1.975   2.009   4.223 -0.9709  0.1148  0.0780
    1SOL    HW210066   2.053   1.985   4.172  0.3990  1.2559  1.5547
    1SOL    HW310067   1.902   1.994   4.163  0.4535 -0.1583 -1.6640
    1SOL    MW410068   1.976   2.004   4.208 -0.6022  0.2291  0.0429
    1SOL     OW10069   1.821   2.319   3.953 -0.0562  0.1810 -0.1410
    1SOL    HW210070   1.854   2.350   4.038 -1.0710  2.3946 -0.5244
    1SOL    HW310071   1.898   2.322   3.896  0.4111 -0.3795  0.4460
    1SOL    MW410072   1.836   2.323   3.957 -0.1285  0.3991 -0.1140
    1SOL     OW10073   1.807   2.463   4.203  0.2153  0.2548  0.2149
    1SOL    HW210074   1.768   2.495   4.284  0.9833 -1.9382  1.4942
    1SOL    HW310075   1.900   2.484   4.212  0.5695 -1.4296  0.6551
    1SOL    MW410076   1.814   2.470   4.215  0.3635 -0.2568  0.4416
    1SOL     OW10077   1.783   2.670   3.992 -0.3600 -0.3920  0.0828
    1SOL    HW210078   1.803   2.605   4.060 -0.0167  0.9019  1.2292
    1SOL    HW310079   1.700   2.708   4.019  0.5523  1.2491  0.6546
    1SOL    MW410080   1.775   2.666   4.005 -0.1942 -0.0048  0.3090
    1SOL     OW10081   1.924   2.872   4.140 -0.0697  0.0265  0.3268
    1SOL    HW210082   1.942   2.811   4.211  0.5119  0.2528  0.3749
    1SOL    HW310083   1.871   2.822   4.079  0.2835 -0.4882  0.4385
    1SOL    MW410084   1.920   2.857   4.141  0.0536 -0.0114  0.3476
    1SOL     OW10085   2.047   3.114   4.134  0.1320  0.4627 -0.4316
    1SOL    HW210086   2.019   3.025   4.154  1.6037 -0.1653 -1.1166
    1SOL    HW310087   2.035   3.122   4.039  0.2370  0.8971 -0.4082
    1SOL    MW410088   2.042   3.103   4.124  0.3402  0.4373 -0.5188
    1SOL     OW10089   1.755   3.177   4.224  0.1594  0.3073  0.1302
    1SOL    HW210090   1.749   3.269   4.198  0.6585  0.2153 -0.3325
    1SOL    HW310091   1.846   3.154   4.209 -0.2436 -0.6235 -1.0118
    1SOL    MW410092   1.766   3.186   4.218  0.1723  0.1724 -0.0811
    1SOL     OW10093   1.738   3.452   4.174 -0.3377  0.4081 -0.3534
    1SOL    HW210094   1.663   3.495   4.214 -0.6964 -0.0143 -0.5559
    1SOL    HW310095   1.716   3.448   4.081 -0.9143 -1.3729 -0.1696
    1SOL    MW410096   1.725   3.457   4.167 -0.4611  0.1178 -0.3557
    1SOL     OW10097   1.985   3.590   4.238 -0.0070 -0.5670  0.3198
    1SOL    HW210098   1.995   3.684   4.222  0.7301 -0.9351 -1.5358
    1SOL    HW310099   1.905   3.565   4.192  1.4926 -1.4152 -1.9433
    1SOL    MW410100   1.976   3.599   4.230  0.2880 -0.7274 -0.2232
    1SOL     OW10101   2.040   3.866   4.215  0.5971 -0.6507 -0.5566
    1SOL    HW210102   1.951   3.893   4.234  0.7971  0.2814 -0.9172
    1SOL    HW310103   2.047   3.871   4.120  0.4277 -2.6612 -0.6944
    1SOL    MW410104   2.029   3.870   4.205  0.6013 -0.7930 -0.6223
    1SOL     OW10105   1.776   3.984   4.255 -0.2617  0.6074  0.3086
    1SOL    HW210106   1.783   4.068   4.209 -0.5167  0.0013 -0.8548
    1SOL    HW310107   1.725   3.929   4.196  0.9735 -0.7636  0.5040
    1SOL    MW410108   1.770   3.988   4.241 -0.1322  0.3467  0.1807
    1SOL     OW10109   1.795   4.238   4.118  0.1749 -0.0283 -0.0049
    1SOL    HW210110   1.871   4.291   4.140 -0.7507  0.9785  0.8722
    1SOL    HW310111   1.782   4.252   4.024  1.0146 -0.1300 -0.1330
    1SOL    MW410112   1.803   4.247   4.108  0.1637  0.0911  0.0939
    1SOL     OW10113   2.018   4.391   4.194  0.3825 -0.0760  0.1997
    1SOL    HW210114   2.016   4.385   4.289  1.3726  0.2402  0.2429
    1SOL    HW310115   2.011   4.485   4.176  2.6386  0.1010  0.0463
    1SOL    MW410116   2.017   4.403   4.204  0.8111 -0.0110  0.1850
    1SOL     OW10117   2.458   4.606   4.104 -0.2156 -0.1309 -0.4014
    1SOL    HW210118   2.534   4.653   4.137 -1.4908  1.0579  0.8737
    1SOL    HW310119   2.451   4.529   4.161 -0.7098  0.4213  0.2910
    1SOL    MW410120   2.468   4.602   4.116 -0.4489  0.0987 -0.1421
    1SOL     OW10121   2.253   0.107   4.242  0.1359 -0.2139  0.0521
    1SOL    HW210122   2.305   0.048   4.186  0.7101 -1.0861  1.4642
    1SOL    HW310123   2.162   0.080   4.227  0.3871 -1.4434  0.6352
    1SOL    MW410124   2.248   0.095   4.232  0.2449 -0.4912  0.3152
    1SOL     OW10125   2.234   0.377   4.178 -0.1997 -0.6875  0.1178
    1SOL    HW210126   2.233   0.287   4.211  1.2077 -1.0797 -0.8490
    1SOL    HW310127   2.247   0.368   4.083 -0.6514  0.5174 -0.0689
    1SOL    MW410128   2.236   0.364   4.170 -0.0737 -0.5802 -0.0348
    1SOL     OW10129   2.471   0.494   4.273 -0.4313 -0.2265 -0.1400
    1SOL    HW210130   2.477   0.467   4.365 -0.6170 -0.1769 -0.1130
    1SOL    HW310131   2.388   0.456   4.243 -0.8117  0.5063 -0.0352
    1SOL    MW410132   2.461   0.485   4.281 -0.5059 -0.1233 -0.1230
    1SOL     OW10133   2.513   0.748   4.158 -0.0370 -0.4561  1.2650
    1SOL    HW210134   2.517   0.662   4.199  0.3169 -0.7542  0.6168
    1SOL    HW310135   2.510   0.729   4.064  1.8139  0.2853  1.0395
    1SOL    MW410136   2.513   0.734   4.151  0.2539 -0.3976  1.1497
    1SOL     OW10137   2.282   0.911   4.217 -0.7572  0.4320  0.7079
    1SOL    HW210138   2.268   0.875   4.305  0.6493 -1.1628  0.3112
    1SOL    HW310139   2.369   0.878   4.192 -1.3813  0.4112 -1.4940
    1SOL    MW410140   2.292   0.902   4.225 -0.6542  0.2187  0.3648
    1SOL     OW10141   2.185   1.178   4.176 -0.4167  0.0250  0.2866
    1SOL    HW210142   2.258   1.238   4.192 -1.5001  1.4884 -0.1540
    1SOL    HW310143   2.217   1.093   4.206  1.5723  0.5909 -0.1510
    1SOL    MW410144   2.199   1.175   4.182 -0.2971  0.2928  0.1707
    1SOL     OW10145   2.426   1.314   4.261  0.0909  0.5770  0.0162
    1SOL    HW210146   2.428   1.307   4.356 -0.4713 -0.8419 -0.0702
    1SOL    HW310147   2.506   1.270   4.232 -0.4327 -0.2192 -0.2313
    1SOL    MW410148   2.437   1.308   4.269 -0.0525  0.2848 -0.0277
    1SOL     OW10149   2.444   1.581   4.190 -0.0708  0.0976 -0.4321
    1SOL    HW210150   2.457   1.488   4.210 -3.0183 -0.2331  0.2450
    1SOL    HW310151   2.424   1.582   4.096 -0.7709 -0.0715 -0.2931
    1SOL    MW410152   2.443   1.569   4.180 -0.5522  0.0317 -0.3247
    1SOL     OW10153   2.163   1.646   4.255 -0.6375 -0.0657 -0.0622
    1SOL    HW210154   2.151   1.678   4.344 -1.5978 -0.7918  0.0678
    1SOL    HW310155   2.246   1.597   4.258 -1.0275 -0.6904  0.5926
    1SOL    MW410156   2.173   1.644   4.267 -0.8156 -0.2438  0.0415
    1SOL     OW10157   2.175   1.865   4.084  0.5076 -0.5061 -0.0283
    1SOL    HW210158   2.247   1.918   4.118  0.7001 -1.2450  0.7387
    1SOL    HW310159   2.175   1.786   4.139 -0.0354 -1.1157 -0.8858
    1SOL    MW410160   2.184   1.861   4.096  0.4616 -0.6841 -0.0401
    1SOL     OW10161   2.337   2.073   4.158 -0.5985  0.6528  0.1498
    1SOL    HW210162   2.276   2.141   4.183  0.6562  1.2556  1.6392
    1SOL    HW310163   2.399   2.067   4.231 -0.2126 -1.5117 -0.3053
    1SOL    MW410164   2.337   2.081   4.171 -0.3819  0.4463  0.2861
    1SOL     OW10165   2.486   2.308   4.112 -0.5054  0.2317 -1.1262
    1SOL    HW210166   2.472   2.214   4.107 -2.5808  0.2242  3.2538
    1SOL    HW310167   2.405   2.347   4.078 -0.6510  0.4206 -0.5649
    1SOL    MW410168   2.474   2.301   4.107 -0.7985  0.2558 -0.4740
    1SOL     OW10169   2.256   2.443   4.009 -0.5644 -0.1835  0.1088
    1SOL    HW210170   2.287   2.533   4.001 -0.8388 -0.1013 -0.0573
    1SOL    HW310171   2.184   2.448   4.072 -1.8330  0.0330 -1.3285
    1SOL    MW410172   2.250   2.456   4.016 -0.7679 -0.1440 -0.1025
    1SOL     OW10173   2.142   2.719   4.035  0.4720  0.5192  0.5161
    1SOL    HW210174   2.133   2.637   4.084  0.8131  0.9122  1.2493
    1SOL    HW310175   2.067   2.772   4.062 -0.0063  0.2736 -0.3126
    1SOL    MW410176   2.131   2.716   4.045  0.4537  0.5388  0.5031
    1SOL     OW10177   2.353   2.844   4.176 -0.1242  0.0876  0.5141
    1SOL    HW210178   2.314   2.860   4.262  0.1344 -0.3429  0.7097
    1SOL    HW310179   2.288   2.792   4.129 -0.5168  0.8177  0.2441
    1SOL    MW410180   2.339   2.840   4.181 -0.1421  0.1273  0.5040
    1SOL     OW10181   2.491   3.071   4.120 -0.0712 -0.3671  0.4662
    1SOL    HW210182   2.435   3.140   4.155 -0.1407  1.1824 -2.5250
    1SOL    HW310183   2.439   2.991   4.130 -1.3613  0.5118  0.9482
    1SOL    MW410184   2.477   3.069   4.126 -0.2508 -0.0467  0.1349
    1SOL     OW10185   2.309   3.260   4.238  0.4492  0.1795 -0.0224
    1SOL    HW210186   2.296   3.344   4.194 -0.7745  1.0332  1.8812
    1SOL    HW310187   2.222   3.221   4.242  0.3978  0.4436  2.1873
    1SOL    MW410188   2.296   3.266   4.233  0.2809  0.3269  0.5202
    1SOL     OW10189   2.238   3.512   4.144 -0.2835  0.6974 -0.2194
    1SOL    HW210190   2.294   3.572   4.192 -0.2655  0.0382  0.5910
    1SOL    HW310191   2.152   3.522   4.183  0.0655 -0.9918  1.0409
    1SOL    MW410192   2.234   3.521   4.155 -0.2351  0.3874  0.0539
    1SOL     OW10193   2.418   3.634   4.309 -0.6775 -0.7392 -0.2718
    1SOL    HW210194   2.403   3.646   4.403 -2.6318 -1.0567 -0.5054
    1SOL    HW310195   2.432   3.722   4.276  0.4624 -0.6668  0.3831
    1SOL    MW410196   2.418   3.647   4.317 -0.7851 -0.7715 -0.2155
    1SOL     OW10197   2.467   3.882   4.227 -0.4523 -0.0506 -0.2224
    1SOL    HW210198   2.549   3.920   4.258  0.4990 -2.1692 -0.0685
    1SOL    HW310199   2.470   3.895   4.132  0.5853 -1.0989 -0.3423
    1SOL    MW410200   2.478   3.889   4.218 -0.1898 -0.4687 -0.2179
    1SOL     OW10201   2.252   4.023   4.324 -0.2233  0.3564  0.1382
    1SOL    HW210202   2.322   3.968   4.290  0.5829  0.8616  0.9768
    1SOL    HW310203   2.172   3.980   4.295  0.4017 -1.0566  0.4531
    1SOL    MW410204   2.251   4.010   4.316 -0.0346  0.2365  0.2899
    1SOL     OW10205   2.254   4.259   4.151 -0.1576  0.0906 -0.1908
    1SOL    HW210206   2.258   4.180   4.204 -1.0416 -0.2785 -0.6545
    1SOL    HW310207   2.168   4.298   4.172 -0.2351  0.2889 -0.8482
    1SOL    MW410208   2.243   4.254   4.161 -0.2847  0.0682 -0.3386
    1SOL     OW10209   2.459   4.384   4.271 -0.2122  0.1040  0.0668
    1SOL    HW210210   2.535   4.340   4.233  1.3019 -0.2552  3.3462
    1SOL    HW310211   2.384   4.340   4.230  1.3101 -0.6169 -2.0483
    1SOL    MW410212   2.459   4.372   4.260  0.1881 -0.0386  0.2203
    1SOL     OW10213   2.921   0.004   4.143  0.6209 -0.0564 -0.2067
    1SOL    HW210214   2.981   0.066   4.186 -0.3995  1.3219 -0.7502
    1SOL    HW310215   2.923  -0.074   4.199  2.2206  0.3165  0.2697
    1SOL    MW410216   2.929   0.002   4.156  0.6974  0.1750 -0.2151
    1SOL     OW10217   2.653   0.114   4.163 -0.3049 -0.1067  0.2648
    1SOL    HW210218   2.676   0.206   4.151 -0.7825 -0.0311 -0.1028
    1SOL    HW310219   2.732   0.066   4.138  0.0406  0.2143  0.7460
    1SOL    MW410220   2.666   0.120   4.158 -0.3226 -0.0544  0.2804
    1SOL     OW10221   2.707   0.387   4.166  0.4105 -0.8406  0.5626
    1SOL    HW210222   2.625   0.414   4.208  1.1359  0.9985  0.8207
    1SOL    HW310223   2.695   0.409   4.073  0.5112 -0.7992  0.5590
    1SOL    MW410224   2.695   0.393   4.159  0.5198 -0.5925  0.5960
    1SOL     OW10225   2.951   0.490   4.247 -0.0539  0.2268  0.0976
    1SOL    HW210226   2.937   0.583   4.227  0.5159 -0.2299 -2.7729
    1SOL    HW310227   2.871   0.447   4.216  1.0415 -0.5759 -1.7521
    1SOL    MW410228   2.938   0.497   4.240  0.1657  0.0606 -0.5250
    1SOL     OW10229   2.909   0.783   4.165 -0.2136  0.3291  0.0420
    1SOL    HW210230   2.994   0.822   4.187 -0.0375 -0.0545  0.0537
    1SOL    HW310231   2.911   0.773   4.070  0.0400 -0.3313  0.1153
    1SOL    MW410232   2.921   0.786   4.156 -0.1569  0.1914  0.0529
    1SOL     OW10233   2.689   0.911   4.280 -0.0818 -0.2002 -0.4323
    1SOL    HW210234   2.767   0.866   4.248 -0.2500 -0.1122 -0.9814
    1SOL    HW310235   2.616   0.858   4.247 -0.2470 -0.3104  0.1189
    1SOL    MW410236   2.690   0.898   4.271 -0.1256 -0.2032 -0.4320
    1SOL     OW10237   2.651   1.164   4.177  0.4017  0.3814  0.0903
    1SOL    HW210238   2.661   1.073   4.206 -0.6321 -0.0345 -0.8209
    1SOL    HW310239   2.655   1.159   4.082 -2.9469  0.8559 -0.1322
    1SOL    MW410240   2.653   1.151   4.168 -0.1762  0.3891 -0.0596
    1SOL     OW10241   2.863   1.294   4.302  0.0150 -0.4118  0.1546
    1SOL    HW210242   2.945   1.259   4.265  0.4117  0.7314 -0.0793
    1SOL    HW310243   2.795   1.260   4.244  0.3428 -1.1565  0.1911
    1SOL    MW410244   2.865   1.285   4.290  0.1106 -0.3592  0.1287
    1SOL     OW10245   2.854   1.550   4.202  0.0370 -0.2562  0.5882
    1SOL    HW210246   2.945   1.576   4.215 -0.0885  0.3866  0.2121
    1SOL    HW310247   2.850   1.458   4.230  1.1810 -0.8191 -1.0087
    1SOL    MW410248   2.865   1.541   4.207  0.1712 -0.2457  0.3281
    1SOL     OW10249   2.666   1.742   4.279  0.1070  0.3343 -0.2692
    1SOL    HW210250   2.739   1.687   4.249  0.0572  0.2216 -0.1860
    1SOL    HW310251   2.588   1.696   4.249  0.0196 -0.2990  0.8770
    1SOL    MW410252   2.666   1.728   4.271  0.0887  0.2359 -0.1073
    1SOL     OW10253   2.655   2.002   4.179 -0.1579 -0.0661 -0.2960
    1SOL    HW210254   2.629   1.928   4.234 -1.9005  0.4910 -0.3435
    1SOL    HW310255   2.662   1.966   4.091  0.6186 -0.5133 -0.0601
    1SOL    MW410256   2.652   1.987   4.175 -0.2856 -0.0515 -0.2713
    1SOL     OW10257   2.889   2.130   4.236  0.6244 -0.1633 -0.4566
    1SOL    HW210258   2.915   2.202   4.178 -0.0635  1.3768  1.1046
    1SOL    HW310259   2.810   2.094   4.196  0.5032  0.4866 -0.8111
    1SOL    MW410260   2.882   2.135   4.223  0.5176  0.1259 -0.2971
    1SOL     OW10261   2.931   2.355   4.097 -0.4260  0.0140  0.5620
    1SOL    HW210262   3.001   2.399   4.144 -2.0993 -0.8491  3.9878
    1SOL    HW310263   2.852   2.404   4.119 -1.2503 -0.3902 -1.4124
    1SOL    MW410264   2.930   2.367   4.106 -0.7553 -0.1531  0.7539
    1SOL     OW10265   2.701   2.478   4.181 -0.2326  0.3184 -0.4761
    1SOL    HW210266   2.714   2.484   4.276  1.1001  2.5602 -0.7797
    1SOL    HW310267   2.628   2.416   4.172  1.2127 -1.8593  1.8757
    1SOL    MW410268   2.693   2.470   4.193  0.1338  0.3269 -0.2060
    1SOL     OW10269   2.640   2.742   4.114  0.3076 -0.4864  0.4985
    1SOL    HW210270   2.634   2.649   4.134 -2.2251 -0.3743  0.4923
    1SOL    HW310271   2.559   2.779   4.149  0.3350  1.3711 -1.2807
    1SOL    MW410272   2.628   2.735   4.121 -0.0229 -0.2265  0.2637
    1SOL     OW10273   2.903   2.841   4.204  0.2109  0.1472 -0.4459
    1SOL    HW210274   2.920   2.807   4.292  0.2470 -1.1011 -0.9277
    1SOL    HW310275   2.815   2.809   4.183  0.0424  0.7836 -0.6955
    1SOL    MW410276   2.893   2.832   4.213  0.1936  0.0665 -0.5422
    1SOL     OW10277   2.910   3.115   4.186 -0.3761 -0.3473 -0.2634
    1SOL    HW210278   2.883   3.029   4.217  1.6101 -1.0222 -0.3304
    1SOL    HW310279   2.928   3.103   4.093  0.7028 -0.0661 -0.0982
    1SOL    MW410280   2.909   3.102   4.178  0.0281 -0.3994 -0.2499
    1SOL     OW10281   2.685   3.263   4.182  0.4694  0.1748 -0.4479
    1SOL    HW210282   2.765   3.211   4.192  0.5513  0.3632 -0.1238
    1SOL    HW310283   2.617   3.199   4.163  0.1763 -0.2721  1.9327
    1SOL    MW410284   2.687   3.248   4.181  0.4413  0.1404 -0.0911
    1SOL     OW10285   2.641   3.536   4.155  0.3829 -0.1081  0.0358
    1SOL    HW210286   2.647   3.441   4.150  1.0711 -0.0436 -0.3906
    1SOL    HW310287   2.578   3.553   4.226  1.1801 -0.8503  0.9259
    1SOL    MW410288   2.633   3.526   4.164  0.5789 -0.1976  0.0968
    1SOL     OW10289   2.861   3.696   4.243  0.3028 -0.0395  0.3107
    1SOL    HW210290   2.825   3.692   4.332 -1.7156 -0.8404 -0.4931
    1SOL    HW310291   2.799   3.645   4.191 -0.0658  2.6713 -2.0292
    1SOL    MW410292   2.848   3.689   4.248 -0.0122  0.2124 -0.1035
    1SOL     OW10293   2.920   3.947   4.140 -0.5121  0.2751 -0.4319
    1SOL    HW210294   3.000   3.987   4.175  1.1215 -0.4721 -3.1623
    1SOL    HW310295   2.918   3.859   4.177  0.2236  0.1249 -0.7438
    1SOL    MW410296   2.930   3.941   4.149 -0.1993  0.1566 -0.8330
    1SOL     OW10297   2.699   4.033   4.283  0.0726 -0.2142  0.5198
    1SOL    HW210298   2.681   4.118   4.242 -0.4640 -0.5433  0.0689
    1SOL    HW310299   2.772   3.997   4.233  1.6757  0.8694  1.9903
    1SOL    MW410300   2.707   4.040   4.271  0.2134 -0.1144  0.6542
    1SOL     OW10301   2.683   4.275   4.168 -0.2862 -0.2204  0.2566
    1SOL    HW210302   2.761   4.329   4.186 -0.5935 -0.0336  1.0536
    1SOL    HW310303   2.678   4.271   4.073 -0.2223  1.1168  0.1905
    1SOL    MW410304   2.693   4.282   4.158 -0.3183 -0.0191  0.3529
    1SOL     OW10305   2.956   4.426   4.242  0.0323 -0.2552 -0.0583
    1SOL    HW210306   2.983   4.407   4.332 -1.0258 -0.4373  0.2207
    1SOL    HW310307   3.017   4.375   4.189 -0.7000 -1.8692  0.6103
    1SOL    MW410308   2.968   4.417   4.247 -0.2038 -0.4921  0.0668
    1SOL     OW10309   3.337   4.629   4.217  0.3787 -0.4881 -0.1135
    1SOL    HW210310   3.414   4.680   4.243  0.7413 -1.1636  0.1560
    1SOL    HW310311   3.353   4.542   4.253 -0.5384 -0.6221 -0.0145
    1SOL    MW410312   3.349   4.624   4.225  0.3054 -0.5951 -0.0644
    1SOL     OW10313   3.135   0.131   4.269  0.2406  0.3045  0.0111
    1SOL    HW210314   3.133   0.133   4.364 -3.1074 -0.7426  0.0126
    1SOL    HW310315   3.202   0.065   4.248  0.2471 -0.2285  1.6182
    1SOL    MW410316   3.144   0.123   4.279 -0.2000  0.0960  0.2232
    1SOL     OW10317   3.197   0.382   4.210  0.3848  0.1054 -0.5006
    1SOL    HW210318   3.193   0.292   4.241 -1.3599 -1.0196 -3.6552
    1SOL    HW310319   3.107   0.414   4.218  0.8117  1.2622 -0.2462
    1SOL    MW410320   3.185   0.374   4.215  0.2112  0.1096 -0.8831
    1SOL     OW10321   3.414   0.539   4.293 -0.8216  0.3458  0.1831
    1SOL    HW210322   3.487   0.483   4.267 -0.4027  0.7959  0.3857
    1SOL    HW310323   3.336   0.492   4.263 -0.3992  0.4055 -1.0440
    1SOL    MW410324   3.413   0.525   4.286 -0.7105  0.4130  0.0477
    1SOL     OW10325   3.373   0.788   4.200  0.3773  0.5866 -0.3423
    1SOL    HW210326   3.298   0.833   4.239  0.7653  1.1694 -0.2645
    1SOL    HW310327   3.366   0.698   4.232 -0.1052  0.7180 -0.0726
    1SOL    MW410328   3.362   0.782   4.209  0.3650  0.6809 -0.2971
    1SOL     OW10329   3.124   0.903   4.272 -0.2276  0.4797 -0.4276
    1SOL    HW210330   3.107   0.889   4.365  0.6306  0.1711 -0.3061
    1SOL    HW310331   3.107   0.996   4.258 -1.4225  0.2986 -0.2020
    1SOL    MW410332   3.120   0.913   4.282 -0.2720  0.4150 -0.3815
    1SOL     OW10333   3.104   1.180   4.201 -0.4368 -0.2226 -0.1324
    1SOL    HW210334   3.184   1.222   4.232 -1.0421  0.2901  0.7727
    1SOL    HW310335   3.118   1.169   4.107 -0.2457  2.0030 -0.3945
    1SOL    MW410336   3.116   1.184   4.192 -0.4914  0.1386 -0.0477
    1SOL     OW10337   3.354   1.293   4.280  0.6729 -0.0819  0.8716
    1SOL    HW210338   3.374   1.293   4.374  2.2444  1.1419  0.5613
    1SOL    HW310339   3.373   1.383   4.252 -0.0596 -0.3688 -0.5672
    1SOL    MW410340   3.359   1.305   4.289  0.7837  0.0418  0.6413
    1SOL     OW10341   3.368   1.570   4.168  0.0402 -0.4463 -0.2810
    1SOL    HW210342   3.283   1.597   4.203  0.7046  2.0523 -0.4949
    1SOL    HW310343   3.351   1.551   4.075 -0.5269 -1.2508 -0.0214
    1SOL    MW410344   3.354   1.571   4.160  0.0532 -0.2227 -0.2747
    1SOL     OW10345   3.110   1.657   4.239 -0.4842  0.4329  0.4598
    1SOL    HW210346   3.103   1.657   4.335 -3.2521  0.1119  0.3137
    1SOL    HW310347   3.099   1.749   4.215 -1.6217  0.2770  0.3651
    1SOL    MW410348   3.107   1.669   4.248 -0.9992  0.3698  0.4277
    1SOL     OW10349   3.079   1.944   4.162 -0.6118  1.1220 -0.3394
    1SOL    HW210350   3.155   1.997   4.184  0.1578 -0.9885  2.3579
    1SOL    HW310351   3.004   1.998   4.188 -0.0877  2.9099 -2.3497
    1SOL    MW410352   3.079   1.958   4.168 -0.4408  1.0796 -0.2489
    1SOL     OW10353   3.313   2.089   4.262  0.0977 -0.0340 -0.1824
    1SOL    HW210354   3.383   2.043   4.217  0.2715  0.1588 -0.1158
    1SOL    HW310355   3.317   2.179   4.227 -0.2011 -0.0558 -0.2745
    1SOL    MW410356   3.323   2.095   4.252  0.0808 -0.0114 -0.1860
    1SOL     OW10357   3.310   2.358   4.153  0.4639  0.1794  0.1958
    1SOL    HW210358   3.388   2.411   4.171  0.6744  0.4983 -1.5531
    1SOL    HW310359   3.331   2.310   4.073  0.1602 -2.3635  1.5789
    1SOL    MW410360   3.323   2.359   4.144  0.4516 -0.1140  0.1469
    1SOL     OW10361   3.105   2.467   4.270  0.1405  0.0380 -0.0046
    1SOL    HW210362   3.125   2.550   4.227 -0.3747  0.0614 -0.1926
    1SOL    HW310363   3.175   2.408   4.242  0.5890  0.4473  0.2458
    1SOL    MW410364   3.117   2.470   4.261  0.1316  0.0951  0.0033
    1SOL     OW10365   3.158   2.715   4.136  0.6677  0.6351  0.2031
    1SOL    HW210366   3.230   2.767   4.170 -0.5489  2.1690  0.4798
    1SOL    HW310367   3.079   2.755   4.172 -0.2960 -1.6036  0.6915
    1SOL    MW410368   3.157   2.727   4.145  0.3800  0.5422  0.3037
    1SOL     OW10369   3.353   2.864   4.261 -0.6163  0.3330 -0.2337
    1SOL    HW210370   3.430   2.826   4.218 -0.8322 -1.5196  0.9402
    1SOL    HW310371   3.358   2.958   4.241  0.0077 -0.2769 -3.0959
    1SOL    MW410372   3.364   2.872   4.253 -0.5627  0.0083 -0.4568
    1SOL     OW10373   3.368   3.130   4.198 -0.5471  0.1466  0.3697
    1SOL    HW210374   3.287   3.178   4.217 -0.4466  0.4732 -0.0181
    1SOL    HW310375   3.382   3.144   4.105 -0.1079 -0.0129  0.4130
    1SOL    MW410376   3.359   3.138   4.188 -0.4759  0.1688  0.3242
    1SOL     OW10377   3.140   3.250   4.298 -0.3168  0.2018  0.1814
    1SOL    HW210378   3.128   3.345   4.295  2.9129  0.6809  0.3311
    1SOL    HW310379   3.063   3.214   4.254 -1.0618  2.9260 -0.8393
    1SOL    MW410380   3.129   3.258   4.292  0.0110  0.6244  0.0668
    1SOL     OW10381   3.091   3.531   4.232 -0.3039 -0.1645 -0.0266
    1SOL    HW210382   3.009   3.577   4.249  0.0482  0.3156  0.3998
    1SOL    HW310383   3.101   3.534   4.137 -0.1472  0.8844  0.0168
    1SOL    MW410384   3.081   3.537   4.222 -0.2367  0.0372  0.0358
    1SOL     OW10385   3.364   3.626   4.256 -0.6589 -0.0584  0.3582
    1SOL    HW210386   3.392   3.621   4.348  1.2406 -0.0269 -0.2051
    1SOL    HW310387   3.277   3.586   4.256  0.3707 -2.4091  1.7428
    1SOL    MW410388   3.356   3.620   4.268 -0.2725 -0.3645  0.4663
    1SOL     OW10389   3.406   3.871   4.160 -0.4685 -0.5977 -0.1639
    1SOL    HW210390   3.391   3.783   4.195  1.8378 -1.1953 -0.6367
    1SOL    HW310391   3.395   3.862   4.066  0.5895 -0.5553 -0.2913
    1SOL    MW410392   3.402   3.858   4.152 -0.0248 -0.6709 -0.2432
    1SOL     OW10393   3.179   4.012   4.224 -0.0249  0.0644 -0.5668
    1SOL    HW210394   3.166   3.994   4.317  0.9335 -1.2583 -0.6555
    1SOL    HW310395   3.264   3.971   4.204 -0.3403  0.1121 -2.0745
    1SOL    MW410396   3.189   4.004   4.234  0.0601 -0.1035 -0.7782
    1SOL     OW10397   3.168   4.278   4.165 -0.3577  0.8053  0.0077
    1SOL    HW210398   3.243   4.313   4.213 -0.1463  0.3472  0.0214
    1SOL    HW310399   3.166   4.185   4.190 -2.2084  1.2478  1.6860
    1SOL    MW410400   3.178   4.270   4.175 -0.5739  0.8035  0.2313
    1SOL     OW10401   3.389   4.385   4.309 -0.2299  0.0339  0.0935
    1SOL    HW210402   3.405   4.373   4.403 -0.8582 -0.1968  0.1735
    1SOL    HW310403   3.461   4.340   4.266  1.1341  1.7694  0.4811
    1SOL    MW410404   3.401   4.378   4.316 -0.1328  0.2322  0.1550
    1SOL     OW10405   3.830   0.008   4.198  0.4672 -0.6244 -0.3039
    1SOL    HW210406   3.903   0.062   4.228 -0.6011  0.1293  0.9686
    1SOL    HW310407   3.831   0.018   4.103  1.7156 -0.2297 -0.2656
    1SOL    MW410408   3.840   0.016   4.189  0.4909 -0.4729 -0.1311
    1SOL     OW10409   3.581   0.111   4.283 -0.1475  0.0342 -0.4112
    1SOL    HW210410   3.585   0.203   4.255 -0.7179 -0.1810 -1.2128
    1SOL    HW310411   3.663   0.073   4.253 -0.4538 -0.0233 -1.1847
    1SOL    MW410412   3.592   0.118   4.275 -0.2627 -0.0018 -0.6185
    1SOL     OW10413   3.606   0.374   4.204  0.0978  0.2860  0.3163
    1SOL    HW210414   3.678   0.428   4.237  1.1373 -1.1954  0.5285
    1SOL    HW310415   3.603   0.393   4.111  1.7981 -0.7921  0.0240
    1SOL    MW410416   3.616   0.384   4.196  0.4592 -0.0517  0.3057
    1SOL     OW10417   3.816   0.542   4.294  0.6603  0.5577 -0.1336
    1SOL    HW210418   3.835   0.543   4.388  0.8165 -2.1198 -0.1012
    1SOL    HW310419   3.821   0.634   4.268 -0.2237  1.4464  2.6275
    1SOL    MW410420   3.820   0.555   4.303  0.5641  0.3217  0.2351
    1SOL     OW10421   3.868   0.790   4.186  0.4233 -0.0571 -0.3059
    1SOL    HW210422   3.789   0.842   4.202  1.3828  1.3529 -0.0536
    1SOL    HW310423   3.871   0.779   4.091  0.5830  0.9605 -0.4238
    1SOL    MW410424   3.858   0.795   4.175  0.5708  0.2632 -0.2880
    1SOL     OW10425   3.614   0.886   4.239  0.0153  0.2358 -0.2999
    1SOL    HW210426   3.593   0.978   4.225  0.5220  0.4036  0.0057
    1SOL    HW310427   3.531   0.840   4.226 -0.7600  0.9721  1.7914
    1SOL    MW410428   3.600   0.892   4.236 -0.0200  0.3551  0.0162
    1SOL     OW10429   3.573   1.156   4.169 -0.2872 -0.4474  0.0274
    1SOL    HW210430   3.497   1.197   4.210 -0.2197  0.8487 -1.1092
    1SOL    HW310431   3.546   1.139   4.079  0.5305 -0.6562 -0.1847
    1SOL    MW410432   3.559   1.159   4.163 -0.1705 -0.3040 -0.1502
    1SOL     OW10433   3.791   1.305   4.237 -0.2420  0.3000  0.7377
    1SOL    HW210434   3.719   1.251   4.203 -0.6802  0.7381  0.9548
    1SOL    HW310435   3.783   1.387   4.189  0.8544 -0.0718 -0.1008
    1SOL    MW410436   3.780   1.308   4.226 -0.1552  0.3088  0.6557
    1SOL     OW10437   3.789   1.565   4.131 -0.0588 -0.3093  0.1631
    1SOL    HW210438   3.868   1.597   4.175  0.3584 -0.8256 -0.2087
    1SOL    HW310439   3.718   1.614   4.173  0.4207 -0.0918  0.7432
    1SOL    MW410440   3.790   1.576   4.142  0.0596 -0.3488  0.1903
    1SOL     OW10441   3.594   1.707   4.247 -0.1700 -0.0894 -0.0365
    1SOL    HW210442   3.520   1.652   4.222 -0.2437 -0.2029  0.4187
    1SOL    HW310443   3.608   1.688   4.340 -0.2517  0.7211  0.1540
    1SOL    MW410444   3.586   1.698   4.256 -0.1905  0.0026  0.0486
    1SOL     OW10445   3.518   1.950   4.129 -0.3786  0.0941  0.1241
    1SOL    HW210446   3.539   1.864   4.165  0.7671  0.4886  0.4338
    1SOL    HW310447   3.514   1.937   4.034  1.0825 -0.0441  0.0749
    1SOL    MW410448   3.520   1.937   4.121 -0.0346  0.1279  0.1588
    1SOL     OW10449   3.659   2.098   4.345 -0.2298  0.4443  0.5342
    1SOL    HW210450   3.743   2.052   4.337  0.0661  0.8678  1.1877
    1SOL    HW310451   3.600   2.050   4.286  0.3008 -0.2470  0.5573
    1SOL    MW410452   3.662   2.086   4.336 -0.1211  0.4086  0.6232
    1SOL     OW10453   3.776   2.303   4.201  0.2519  0.5411 -0.2630
    1SOL    HW210454   3.749   2.223   4.247  1.1096  0.0616 -0.5912
    1SOL    HW310455   3.779   2.278   4.109  1.3201  0.7328 -0.2823
    1SOL    MW410456   3.773   2.289   4.195  0.5059  0.5033 -0.3090
    1SOL     OW10457   3.548   2.472   4.205 -0.1677 -0.1814  0.0619
    1SOL    HW210458   3.540   2.483   4.300 -1.9306 -1.5839  0.1017
    1SOL    HW310459   3.621   2.411   4.194  1.4418  1.6395  0.3943
    1SOL    MW410460   3.557   2.465   4.216 -0.1881 -0.1261  0.1111
    1SOL     OW10461   3.586   2.754   4.153 -0.4127 -0.2884  0.2243
    1SOL    HW210462   3.571   2.669   4.195 -0.7443  0.4673  1.6705
    1SOL    HW310463   3.587   2.735   4.060 -3.0068 -1.5158  0.4023
    1SOL    MW410464   3.584   2.740   4.147 -0.7987 -0.3505  0.4387
    1SOL     OW10465   3.817   2.847   4.251  0.1567 -0.0403  0.2647
    1SOL    HW210466   3.795   2.874   4.341  0.1295 -1.3993  0.6753
    1SOL    HW310467   3.737   2.807   4.218  0.3556 -0.0850 -0.1624
    1SOL    MW410468   3.804   2.845   4.259  0.1795 -0.2253  0.2623
    1SOL     OW10469   3.854   3.111   4.151 -0.5481  0.3536 -0.0705
    1SOL    HW210470   3.834   3.022   4.182 -1.1997  0.6422  0.3522
    1SOL    HW310471   3.853   3.104   4.056 -0.6290 -0.0860 -0.0381
    1SOL    MW410472   3.851   3.098   4.142 -0.6449  0.3335 -0.0100
    1SOL     OW10473   3.645   3.229   4.279 -0.0425  0.2524  0.0574
    1SOL    HW210474   3.709   3.178   4.229  0.8907  0.4914  1.0029
    1SOL    HW310475   3.561   3.190   4.256  0.5359 -0.7967 -0.3192
    1SOL    MW410476   3.642   3.217   4.269  0.1569  0.1454  0.1330
    1SOL     OW10477   3.573   3.476   4.152 -0.3642  0.4022  0.4203
    1SOL    HW210478   3.602   3.393   4.189 -0.1733  0.1517 -0.2819
    1SOL    HW310479   3.492   3.497   4.198 -0.9441 -0.6760 -0.1025
    1SOL    MW410480   3.566   3.468   4.163 -0.4156  0.2270  0.2589
    1SOL     OW10481   3.792   3.647   4.198  0.0282  0.3270 -0.0599
    1SOL    HW210482   3.862   3.585   4.180 -0.1377 -0.3581  1.5983
    1SOL    HW310483   3.711   3.596   4.184 -0.1342  0.7082 -0.5393
    1SOL    MW410484   3.790   3.632   4.194 -0.0148  0.2868  0.0954
    1SOL     OW10485   3.836   3.906   4.161 -0.2133  0.4456  0.6605
    1SOL    HW210486   3.763   3.948   4.207 -0.8693 -0.1593  0.1870
    1SOL    HW310487   3.823   3.812   4.178 -0.2727  0.2410 -0.4761
    1SOL    MW410488   3.825   3.899   4.170 -0.3078  0.3388  0.4478
    1SOL     OW10489   3.604   4.045   4.242  0.2420 -0.2367  0.0331
    1SOL    HW210490   3.591   4.061   4.336  1.9013  1.8084 -0.0568
    1SOL    HW310491   3.531   3.988   4.218 -1.9741  1.6744  1.9224
    1SOL    MW410492   3.593   4.039   4.251  0.1686  0.2851  0.2708
    1SOL     OW10493   3.579   4.294   4.140  0.1124 -0.0433  0.0802
    1SOL    HW210494   3.654   4.343   4.175 -0.0776  1.0822 -1.0507
    1SOL    HW310495   3.603   4.202   4.153  1.4460  0.3113  0.2443
    1SOL    MW410496   3.592   4.289   4.147  0.2635  0.1521 -0.0477
    1SOL     OW10497   3.793   4.414   4.281 -0.3487 -0.3286  0.0373
    1SOL    HW210498   3.872   4.386   4.236 -0.7484 -2.0049  0.3617
    1SOL    HW310499   3.787   4.508   4.263  0.6799 -0.5556 -1.5555
    1SOL    MW410500   3.802   4.423   4.273 -0.2654 -0.5798 -0.1297
    1SOL     OW10501   4.242   0.023   4.178 -0.4357 -0.1410  0.1988
    1SOL    HW210502   4.245  -0.069   4.201 -0.3196 -0.1165  0.2827
    1SOL    HW310503   4.323   0.059   4.212  0.0200 -0.2261 -0.7710
    1SOL    MW410504   4.253   0.016   4.185 -0.3600 -0.1490  0.0815
    1SOL     OW10505   4.040   0.156   4.297 -0.0850  0.2962  0.2410
    1SOL    HW210506   4.043   0.242   4.255  2.7833  0.1542 -0.0021
    1SOL    HW310507   4.104   0.104   4.248 -1.6088 -1.9036  0.5412
    1SOL    MW410508   4.049   0.160   4.285  0.0920 -0.0128  0.2489
    1SOL     OW10509   4.061   0.426   4.212  0.2301 -0.3453  0.0213
    1SOL    HW210510   4.131   0.479   4.251  0.2121  0.2587 -0.7598
    1SOL    HW310511   3.980   0.469   4.239  0.2138 -0.0114 -0.5409
    1SOL    MW410512   4.060   0.439   4.221  0.2260 -0.2216 -0.1554
    1SOL     OW10513   4.294   0.540   4.309 -0.1635 -0.0947 -0.2214
    1SOL    HW210514   4.288   0.627   4.270 -0.2310  0.0233  0.0507
    1SOL    HW310515   4.325   0.484   4.238 -0.5191  0.0718 -0.5082
    1SOL    MW410516   4.298   0.544   4.295 -0.2189 -0.0571 -0.2232
    1SOL     OW10517   4.287   0.792   4.178 -0.0238 -0.2595  0.5946
    1SOL    HW210518   4.214   0.847   4.207 -0.0310  0.0924 -0.0849
    1SOL    HW310519   4.273   0.781   4.084  0.2671 -0.9879  0.6347
    1SOL    MW410520   4.276   0.798   4.170  0.0134 -0.3091  0.5097
    1SOL     OW10521   4.075   0.948   4.293 -0.3110  0.4048  0.1609
    1SOL    HW210522   4.051   1.019   4.233  1.6764  0.3439 -0.7412
    1SOL    HW310523   4.007   0.882   4.281 -1.1403  1.3478 -0.3972
    1SOL    MW410524   4.063   0.949   4.284 -0.1583  0.5212 -0.0315
    1SOL     OW10525   4.007   1.163   4.132  0.0980 -0.3531  0.2057
    1SOL    HW210526   4.085   1.198   4.175  0.4555 -0.9746  0.0650
    1SOL    HW310527   3.935   1.212   4.172  0.3648 -1.3133  1.9440
    1SOL    MW410528   4.008   1.174   4.143  0.1802 -0.5617  0.4168
    1SOL     OW10529   4.232   1.268   4.264 -0.5671  0.5707 -0.3224
    1SOL    HW210530   4.227   1.276   4.359 -0.6894  1.0064 -0.3648
    1SOL    HW310531   4.300   1.202   4.249 -0.2065  0.8532  0.0570
    1SOL    MW410532   4.240   1.260   4.275 -0.5355  0.6655 -0.2780
    1SOL     OW10533   4.233   1.516   4.132 -0.3012 -0.1067  0.6115
    1SOL    HW210534   4.227   1.425   4.162 -1.8811  0.2111  1.3687
    1SOL    HW310535   4.249   1.509   4.038 -1.3251 -1.2021  0.4892
    1SOL    MW410536   4.234   1.503   4.124 -0.6442 -0.2093  0.6952
    1SOL     OW10537   4.025   1.663   4.259  0.6548  0.5693 -0.3438
    1SOL    HW210538   4.051   1.684   4.349 -0.0094 -0.9940  0.2376
    1SOL    HW310539   4.093   1.603   4.229 -0.0981 -0.3615 -0.2238
    1SOL    MW410540   4.038   1.658   4.267  0.4678  0.2402 -0.2508
    1SOL     OW10541   4.074   1.926   4.178 -0.0244 -0.6727  0.0189
    1SOL    HW210542   4.083   1.832   4.195  0.0205 -0.3536  1.8419
    1SOL    HW310543   4.017   1.958   4.248  0.1078  0.7080 -0.4846
    1SOL    MW410544   4.067   1.918   4.189 -0.0010 -0.4483  0.1926
    1SOL     OW10545   4.460   1.900   4.122 -0.4956 -0.2978  0.1691
    1SOL    HW210546   4.538   1.927   4.170  1.2025 -0.7011 -2.2768
    1SOL    HW310547   4.389   1.953   4.159  1.1042  0.7321  1.8020
    1SOL    MW410548   4.461   1.911   4.133 -0.0601 -0.2151  0.0615
    1SOL     OW10549   4.251   2.341   4.174  0.0449 -0.7397  0.0242
    1SOL    HW210550   4.172   2.369   4.220 -0.9257 -1.5856 -1.1221
    1SOL    HW310551   4.265   2.251   4.204 -1.7876 -2.0587 -2.8636
    1SOL    MW410552   4.243   2.333   4.184 -0.3247 -1.0254 -0.5078
    1SOL     OW10553   4.008   2.445   4.254 -0.5023  0.1456  0.7222
    1SOL    HW210554   4.042   2.420   4.340 -0.3850  1.1129  0.9603
    1SOL    HW310555   3.935   2.386   4.239  0.2863 -0.8944  0.9087
    1SOL    MW410556   4.003   2.434   4.263 -0.3829  0.1361  0.7782
    1SOL     OW10557   4.008   2.688   4.121  0.3413  0.2051  0.0475
    1SOL    HW210558   3.999   2.610   4.177 -0.3493 -0.0833 -0.4477
    1SOL    HW310559   3.936   2.745   4.148 -0.6326 -0.3872 -1.2489
    1SOL    MW410560   3.997   2.685   4.132  0.1218  0.0894 -0.1888
    1SOL     OW10561   4.248   2.791   4.209  0.3974 -0.1248 -0.2586
    1SOL    HW210562   4.168   2.754   4.173  0.7362 -1.6828  0.5460
    1SOL    HW310563   4.318   2.736   4.173  0.8961 -0.3986  1.1086
    1SOL    MW410564   4.247   2.779   4.199  0.5083 -0.3664  0.0277
    1SOL     OW10565   4.261   3.052   4.149 -0.4443  0.1114  0.1885
    1SOL    HW210566   4.270   2.959   4.172  1.1795  0.4367  0.8873
    1SOL    HW310567   4.244   3.051   4.055 -1.0244 -0.9146  0.2884
    1SOL    MW410568   4.260   3.039   4.140 -0.3066  0.0188  0.2937
    1SOL     OW10569   4.065   3.218   4.286  0.5910 -0.2358 -0.6189
    1SOL    HW210570   4.137   3.164   4.253  0.6027 -2.0436  2.1940
    1SOL    HW310571   3.986   3.180   4.248  0.8474 -0.3403 -1.0500
    1SOL    MW410572   4.064   3.206   4.276  0.6270 -0.4883 -0.3047
    1SOL     OW10573   4.022   3.483   4.172  0.1211  0.1725 -0.1563
    1SOL    HW210574   4.059   3.397   4.193  1.9715  0.8794 -0.4717
    1SOL    HW310575   4.024   3.487   4.076 -0.8213  0.2129 -0.1848
    1SOL    MW410576   4.027   3.472   4.162  0.2413  0.2713 -0.2017
    1SOL     OW10577   4.261   3.611   4.237 -0.0323 -0.3933  0.1512
    1SOL    HW210578   4.241   3.705   4.233 -0.8148 -0.5422  0.5323
    1SOL    HW310579   4.178   3.568   4.218  1.0097 -1.0220 -3.2675
    1SOL    MW410580   4.248   3.618   4.234  0.0014 -0.4959 -0.2494
    1SOL     OW10581   4.284   3.881   4.213 -0.0578 -0.1513 -0.2940
    1SOL    HW210582   4.213   3.939   4.241  1.9183  1.8767  0.6537
    1SOL    HW310583   4.280   3.884   4.117  0.0896  1.6794 -0.2692
    1SOL    MW410584   4.274   3.889   4.204  0.2227  0.3579 -0.1664
    1SOL     OW10585   4.051   4.021   4.287 -0.1932 -0.4560  0.2478
    1SOL    HW210586   4.056   3.992   4.378  0.5901 -3.0497 -0.5736
    1SOL    HW310587   3.974   3.976   4.252 -0.5527  0.6148 -0.3410
    1SOL    MW410588   4.042   4.011   4.294 -0.1373 -0.6561  0.0620
    1SOL     OW10589   4.025   4.283   4.179 -0.3129  0.0940  0.0302
    1SOL    HW210590   4.101   4.330   4.213 -1.0316  0.9224  0.4943
    1SOL    HW310591   4.027   4.199   4.224  0.3200  0.1112  0.0430
    1SOL    MW410592   4.036   4.278   4.189 -0.3242  0.2060  0.0935
    1SOL     OW10593   4.189   4.633   4.655  0.2002  0.2058  0.0402
    1SOL    HW210594   4.269   4.686   4.648 -0.7460  1.6275 -0.2801
    1SOL    HW310595   4.118   4.697   4.653 -0.9392 -1.0227  0.6832
    1SOL    MW410596   4.190   4.648   4.654 -0.0749  0.2313  0.0830
    1SOL     OW10597   0.116   0.176   4.494 -0.0893 -0.4724  0.1013
    1SOL    HW210598   0.144   0.266   4.513  0.0506 -0.3510 -0.6535
    1SOL    HW310599   0.032   0.167   4.538 -0.2950  0.1649 -0.1537
    1SOL    MW410600   0.109   0.187   4.502 -0.0980 -0.3723 -0.0319
    1SOL     OW10601   4.227   4.380   4.528 -0.4723 -0.0844  0.0953
    1SOL    HW210602   4.210   4.314   4.595  0.9057  0.0380  0.5784
    1SOL    HW310603   4.198   4.462   4.569 -0.2388 -0.0995  0.2948
    1SOL    MW410604   4.221   4.382   4.543 -0.2594 -0.0710  0.1855
    1SOL     OW10605   3.986   0.149   4.582  0.2860 -0.1075 -0.0412
    1SOL    HW210606   4.003   0.147   4.488  0.6619 -0.2835  0.0250
    1SOL    HW310607   3.896   0.117   4.591  0.3683 -0.4303 -0.3151
    1SOL    MW410608   3.977   0.144   4.571  0.3467 -0.1733 -0.0691
    1SOL     OW10609   3.922   1.268   4.815 -0.3041  0.1947 -0.1391
    1SOL    HW210610   3.976   1.259   4.893  0.4732 -1.3747 -0.8251
    1SOL    HW310611   3.972   1.324   4.756  0.5620 -1.1982 -0.7451
    1SOL    MW410612   3.936   1.274   4.818 -0.0873 -0.1962 -0.3095
    1SOL     OW10613   0.377   0.019   4.485  0.0185  0.1097  0.3291
    1SOL    HW210614   0.302   0.079   4.484 -1.1642 -1.3352  1.8180
    1SOL    HW310615   0.339  -0.067   4.502  1.9559 -0.7455  0.3978
    1SOL    MW410616   0.362   0.016   4.487  0.1181 -0.1938  0.5345
    1SOL     OW10617   0.673   0.792   4.566  0.3970  0.0911 -0.1454
    1SOL    HW210618   0.662   0.698   4.548  0.4935  0.1331 -0.4258
    1SOL    HW310619   0.584   0.826   4.569  0.4160  0.2570 -1.4815
    1SOL    MW410620   0.660   0.784   4.564  0.4122  0.1185 -0.3581
    1SOL     OW10621   4.391   0.834   4.579 -0.5204  0.2274 -0.7690
    1SOL    HW210622   4.399   0.739   4.591 -1.5029  0.0670 -1.3051
    1SOL    HW310623   4.445   0.853   4.502 -0.0176  0.1546 -0.4308
    1SOL    MW410624   4.399   0.824   4.570 -0.5836  0.1966 -0.7949
    1SOL     OW10625   0.473   1.325   4.591 -0.5165 -0.0776  0.2056
    1SOL    HW210626   0.405   1.266   4.560 -1.4117  0.3547  1.2881
    1SOL    HW310627   0.432   1.412   4.588 -0.5834  0.0043  2.3452
    1SOL    MW410628   0.459   1.329   4.587 -0.6434 -0.0099  0.6304
    1SOL     OW10629   0.656   1.995   4.520 -0.1096  0.1548  0.2982
    1SOL    HW210630   0.734   1.953   4.554 -0.6001 -0.7038  0.3896
    1SOL    HW310631   0.584   1.937   4.546 -0.5957  0.0361 -1.2670
    1SOL    MW410632   0.656   1.982   4.528 -0.2385  0.0257  0.1040
    1SOL     OW10633   4.222   1.233   4.538  0.4469  0.2865  0.1674
    1SOL    HW210634   4.187   1.147   4.559 -1.0979  0.9603  0.4663
    1SOL    HW310635   4.316   1.226   4.554  0.4108 -1.4694 -0.2859
    1SOL    MW410636   4.230   1.221   4.543  0.2384  0.1436  0.1473
    1SOL     OW10637   0.167   1.942   4.510 -0.0060  0.2647  0.3905
    1SOL    HW210638   0.098   1.876   4.502  0.5132 -0.0902 -1.3207
    1SOL    HW310639   0.124   2.016   4.553 -1.5235  0.1440 -0.8760
    1SOL    MW410640   0.152   1.943   4.515 -0.1377  0.2019 -0.0024
    1SOL     OW10641   0.423   1.645   4.275  0.1903  0.0082  0.4141
    1SOL    HW210642   0.362   1.585   4.232  0.9568 -0.6093  0.1802
    1SOL    HW310643   0.509   1.607   4.260  0.7159  1.2870  0.0798
    1SOL    MW410644   0.426   1.632   4.268  0.3607  0.0955  0.3395
    1SOL     OW10645   0.037   2.178   4.620 -0.0545 -0.1429  0.4272
    1SOL    HW210646   0.044   2.165   4.715 -1.3209  0.1964  0.5728
    1SOL    HW310647   0.069   2.267   4.605 -0.0418 -0.1263  0.5510
    1SOL    MW410648   0.042   2.188   4.630 -0.2199 -0.0958  0.4625
    1SOL     OW10649   4.032   2.483   4.810 -0.5241  0.1486 -0.7154
    1SOL    HW210650   3.941   2.507   4.790 -0.3821  1.5478  0.2027
    1SOL    HW310651   4.081   2.565   4.800  0.6755 -0.6387 -1.4036
    1SOL    MW410652   4.026   2.497   4.806 -0.3476  0.2294 -0.6852
    1SOL     OW10653   0.448   2.692   4.474  0.1788 -0.3576 -0.1261
    1SOL    HW210654   0.375   2.729   4.423  0.4466 -1.0315 -1.0105
    1SOL    HW310655   0.424   2.600   4.486  0.4096 -0.3426  0.4506
    1SOL    MW410656   0.435   2.685   4.469  0.2446 -0.4447 -0.1664
    1SOL     OW10657   0.380   3.020   4.568 -0.6206  0.5726 -0.4050
    1SOL    HW210658   0.440   2.993   4.638  0.1840  2.2492 -0.4179
    1SOL    HW310659   0.295   2.986   4.594 -0.2448  0.8247  1.1746
    1SOL    MW410660   0.377   3.012   4.580 -0.4649  0.8268 -0.1988
    1SOL     OW10661   4.150   2.454   4.506  0.5161  0.1827  0.3698
    1SOL    HW210662   4.167   2.548   4.500  2.0742 -0.1186 -0.0179
    1SOL    HW310663   4.068   2.448   4.555  0.4705  1.7392  0.5103
    1SOL    MW410664   4.141   2.465   4.512  0.7157  0.3483  0.3371
    1SOL     OW10665   4.306   3.402   4.685  0.0871  0.3609 -0.0519
    1SOL    HW210666   4.381   3.351   4.654 -0.1409  0.6226 -1.0742
    1SOL    HW310667   4.229   3.352   4.656 -0.1407 -0.4260  1.8790
    1SOL    MW410668   4.306   3.389   4.677  0.0272  0.2913  0.0682
    1SOL     OW10669   0.013   3.209   4.566  0.0638  0.5928  0.4457
    1SOL    HW210670  -0.007   3.248   4.481  1.2266 -0.1019 -0.1660
    1SOL    HW310671   0.108   3.217   4.574  0.2155 -1.2989  0.7114
    1SOL    MW410672   0.023   3.215   4.556  0.2372  0.2518  0.4001
    1SOL     OW10673   4.309   3.847   4.626  0.5748  0.3133  0.0972
    1SOL    HW210674   4.231   3.876   4.579  1.4793  0.6909 -1.2084
    1SOL    HW310675   4.336   3.767   4.579  1.1047  0.3191  0.3931
    1SOL    MW410676   4.302   3.840   4.614  0.7644  0.3636 -0.0358
    1SOL     OW10677   4.334   0.173   4.544  0.3229 -0.0808 -0.1672
    1SOL    HW210678   4.289   0.249   4.581 -0.5791 -0.6074 -0.1695
    1SOL    HW310679   4.292   0.160   4.459  0.0245 -0.9948  0.1199
    1SOL    MW410680   4.323   0.181   4.537  0.1650 -0.2708 -0.1297
    1SOL     OW10681   3.812   0.522   4.557 -0.0710  0.3486  0.1274
    1SOL    HW210682   3.731   0.473   4.564 -0.2349  0.5227 -0.4788
    1SOL    HW310683   3.791   0.609   4.591  0.2314 -0.0095  1.2440
    1SOL    MW410684   3.799   0.527   4.562 -0.0529  0.3242  0.1945
    1SOL     OW10685   3.949   3.592   4.854 -0.1832  0.1481  0.4278
    1SOL    HW210686   4.036   3.629   4.839 -0.1557 -0.6750 -1.6619
    1SOL    HW310687   3.937   3.595   4.948  1.9250  0.7126  0.6995
    1SOL    MW410688   3.959   3.597   4.864  0.0985  0.1140  0.1879
    1SOL     OW10689   3.888   4.242   4.705  0.4657 -0.1837 -0.0031
    1SOL    HW210690   3.850   4.314   4.655  1.6294  0.4520  0.0096
    1SOL    HW310691   3.814   4.187   4.728 -0.7386  2.0072  1.6146
    1SOL    MW410692   3.873   4.244   4.702  0.4601  0.1898  0.2122
    1SOL     OW10693   0.619   0.052   4.658  0.2560 -0.1444  0.1953
    1SOL    HW210694   0.542   0.048   4.601  0.1790 -0.4366  0.3200
    1SOL    HW310695   0.591   0.009   4.739  0.1546  0.8329  0.6957
    1SOL    MW410696   0.605   0.046   4.662  0.2325 -0.0540  0.2775
    1SOL     OW10697   4.457   1.019   4.798 -0.2943  0.0072  0.3335
    1SOL    HW210698   4.439   0.945   4.739  1.1998  0.4849 -0.7235
    1SOL    HW310699   4.496   0.978   4.876  1.7234 -0.2175 -0.7701
    1SOL    MW410700   4.460   1.004   4.801  0.1693  0.0405  0.0482
    1SOL     OW10701   1.339   1.044   4.756  0.1681  0.3151  0.7032
    1SOL    HW210702   1.322   1.023   4.848  1.7600 -1.2341  0.6792
    1SOL    HW310703   1.289   0.979   4.707  1.1293 -0.3034  0.5296
    1SOL    MW410704   1.330   1.033   4.761  0.5050  0.0290  0.6766
    1SOL     OW10705   0.755   0.306   4.631 -0.2490  0.0016  0.2946
    1SOL    HW210706   0.831   0.274   4.581 -1.6628 -1.2629 -1.1054
    1SOL    HW310707   0.704   0.227   4.648 -1.1874  0.8317  1.3438
    1SOL    MW410708   0.758   0.291   4.626 -0.5593 -0.0557  0.2484
    1SOL     OW10709   1.172   0.886   4.609  0.0912  0.0799 -0.1917
    1SOL    HW210710   1.209   0.820   4.551  1.7851  3.2114 -2.8088
    1SOL    HW310711   1.084   0.902   4.574  0.2629  0.3508 -0.4936
    1SOL    MW410712   1.165   0.879   4.597  0.3374  0.5289 -0.5765
    1SOL     OW10713   0.410   0.899   4.567  0.0708  0.1455 -0.6617
    1SOL    HW210714   0.376   0.810   4.578  1.8495 -0.3872  0.7616
    1SOL    HW310715   0.426   0.907   4.473 -1.1228 -0.6441 -0.9372
    1SOL    MW410716   0.408   0.888   4.556  0.1480 -0.0290 -0.5102
    1SOL     OW10717   1.984   1.231   4.576 -0.1464  0.1496  0.3258
    1SOL    HW210718   1.982   1.234   4.480 -0.1724  1.2119  0.3533
    1SOL    HW310719   2.071   1.199   4.597 -0.9901 -2.5982 -0.0794
    1SOL    MW410720   1.995   1.227   4.566 -0.2611 -0.0728  0.2756
    1SOL     OW10721   0.770   1.630   4.496  0.2095 -0.0570  0.2038
    1SOL    HW210722   0.825   1.700   4.531  0.3147 -0.2853  0.4971
    1SOL    HW310723   0.680   1.663   4.507  0.2746  0.1991 -0.0258
    1SOL    MW410724   0.765   1.644   4.502  0.2320 -0.0533  0.2127
    1SOL     OW10725   1.242   1.253   4.595 -0.2196  0.0142 -0.1803
    1SOL    HW210726   1.255   1.173   4.646 -0.6623 -0.5684 -0.9681
    1SOL    HW310727   1.153   1.245   4.561  0.4434 -0.1190 -1.9221
    1SOL    MW410728   1.232   1.242   4.597 -0.1905 -0.0803 -0.5140
    1SOL     OW10729   0.942   1.823   4.604 -0.1301 -0.0116 -0.3001
    1SOL    HW210730   0.980   1.894   4.552 -0.3733  0.8323  0.6673
    1SOL    HW310731   1.012   1.796   4.663 -0.2342 -0.1645 -0.2440
    1SOL    MW410732   0.956   1.829   4.605 -0.1759  0.0796 -0.1650
    1SOL     OW10733   0.598   2.272   4.544 -0.3880 -0.1887 -0.0823
    1SOL    HW210734   0.678   2.323   4.535 -0.8010  0.3662 -0.6464
    1SOL    HW310735   0.625   2.181   4.533  0.2022 -0.0212  0.0116
    1SOL    MW410736   0.612   2.266   4.541 -0.3645 -0.0932 -0.1440
    1SOL     OW10737   1.211   1.785   4.717 -0.0159  0.3033  0.2470
    1SOL    HW210738   1.246   1.850   4.777  0.6178  0.6954 -0.5424
    1SOL    HW310739   1.264   1.707   4.733  1.1704  0.8620 -0.8658
    1SOL    MW410740   1.223   1.783   4.727  0.2242  0.4287 -0.0038
    1SOL     OW10741   0.098   2.453   4.547  0.1025  0.4771 -0.0044
    1SOL    HW210742   0.056   2.448   4.461  1.1225 -0.6489 -0.4414
    1SOL    HW310743   0.192   2.448   4.529  0.3530  0.8669  1.1316
    1SOL    MW410744   0.105   2.452   4.533  0.2701  0.3803  0.0877
    1SOL     OW10745   0.936   2.677   4.557 -0.3085 -0.3913 -0.1134
    1SOL    HW210746   0.969   2.766   4.543 -0.2832 -0.4884 -0.7022
    1SOL    HW310747   1.008   2.631   4.600  0.7087 -0.8628 -2.2459
    1SOL    MW410748   0.950   2.682   4.561 -0.1710 -0.4663 -0.4725
    1SOL     OW10749   0.359   2.427   4.462 -0.1372 -0.4533 -0.2624
    1SOL    HW210750   0.428   2.374   4.503  1.1440  1.5908  0.3089
    1SOL    HW310751   0.387   2.436   4.371  1.2756  1.7430  0.3394
    1SOL    MW410752   0.372   2.421   4.455  0.2183  0.1063 -0.1078
    1SOL     OW10753   1.302   2.852   4.599  0.1434 -0.1560  0.3368
    1SOL    HW210754   1.223   2.883   4.554  0.7300  0.3012 -0.3841
    1SOL    HW310755   1.288   2.758   4.608 -0.8413  0.0389  0.9241
    1SOL    MW410756   1.290   2.844   4.594  0.0908 -0.0701  0.3200
    1SOL     OW10757   0.556   3.203   4.453  0.5255 -0.2751  0.6142
    1SOL    HW210758   0.501   3.281   4.441  0.7878 -0.2596 -0.6268
    1SOL    HW310759   0.497   3.139   4.492  0.0229  0.2251  0.6923
    1SOL    MW410760   0.541   3.205   4.456  0.4938 -0.2067  0.4611
    1SOL     OW10761   1.321   4.478   4.583 -0.2609  0.1803 -0.5444
    1SOL    HW210762   1.253   4.428   4.539 -1.2365  0.8339  0.1874
    1SOL    HW310763   1.403   4.441   4.550 -0.9595 -0.7661 -1.2694
    1SOL    MW410764   1.323   4.466   4.573 -0.4817  0.1416 -0.5441
    1SOL     OW10765   4.436   2.678   4.657  0.0999 -0.3212 -0.4935
    1SOL    HW210766   4.494   2.605   4.636 -1.1428 -1.3211 -0.5055
    1SOL    HW310767   4.479   2.755   4.619  1.5709 -0.9912 -0.2057
    1SOL    MW410768   4.450   2.679   4.649  0.1297 -0.5417 -0.4568
    1SOL     OW10769   4.369   3.608   4.501 -0.2973  0.2591  0.0974
    1SOL    HW210770   4.337   3.538   4.557 -0.5447  0.4801  0.2347
    1SOL    HW310771   4.318   3.600   4.421 -0.2277  0.1956  0.0600
    1SOL    MW410772   4.358   3.598   4.498 -0.3204  0.2797  0.1106
    1SOL     OW10773   0.758   4.320   4.471  0.0979 -0.5584  0.0830
    1SOL    HW210774   0.765   4.411   4.501 -0.6149 -0.1077 -1.1157
    1SOL    HW310775   0.743   4.326   4.377  0.9467 -1.9453 -0.1560
    1SOL    MW410776   0.757   4.333   4.463  0.1158 -0.6819 -0.1068
    1SOL     OW10777   0.002   4.301   4.560 -0.2092  0.2736  0.6093
    1SOL    HW210778  -0.009   4.206   4.568 -0.3609  0.2432  0.0888
    1SOL    HW310779  -0.087   4.335   4.555 -0.1555  0.4509  0.8400
    1SOL    MW410780  -0.011   4.293   4.560 -0.2221  0.2933  0.5708
    1SOL     OW10781   0.013   4.019   4.552 -0.2719 -0.3412 -0.5513
    1SOL    HW210782   0.081   3.971   4.599 -0.2271  0.5127  0.2622
    1SOL    HW310783  -0.068   3.973   4.574 -0.4340  0.8588  1.4860
    1SOL    MW410784   0.011   4.006   4.561 -0.2874 -0.0706 -0.1750
    1SOL     OW10785   0.245   4.419   4.520 -0.2257  0.2474  0.4482
    1SOL    HW210786   0.308   4.347   4.529 -1.0832 -0.7103 -1.0444
    1SOL    HW310787   0.160   4.379   4.541 -0.7544  0.7166 -0.7916
    1SOL    MW410788   0.242   4.404   4.524 -0.4086  0.1831  0.0882
    1SOL     OW10789   1.248   0.281   4.592 -0.1175 -0.4946  0.3564
    1SOL    HW210790   1.254   0.302   4.685 -0.6617  0.2552  0.2332
    1SOL    HW310791   1.179   0.216   4.586  0.1559 -0.7992  0.5152
    1SOL    MW410792   1.240   0.275   4.603 -0.1533 -0.4358  0.3614
    1SOL     OW10793   1.015   0.151   4.500 -0.0223  0.8521  0.2409
    1SOL    HW210794   1.018   0.155   4.405 -0.6067  1.0763  0.2345
    1SOL    HW310795   0.987   0.061   4.519 -2.4415  1.5681  0.1577
    1SOL    MW410796   1.012   0.140   4.490 -0.4187  0.9762  0.2294
    1SOL     OW10797   0.604   0.512   4.525  0.3115  0.1996  0.4714
    1SOL    HW210798   0.607   0.490   4.432  0.3297  0.2272  0.4652
    1SOL    HW310799   0.664   0.451   4.567  0.3454  0.2231  0.4580
    1SOL    MW410800   0.612   0.501   4.518  0.3184  0.2064  0.4687
    1SOL     OW10801   1.582   1.033   4.577  0.1206  0.6427  0.3058
    1SOL    HW210802   1.512   1.009   4.637  0.1100  0.1269  0.0847
    1SOL    HW310803   1.658   1.050   4.633  0.5435 -1.3601  0.3603
    1SOL    MW410804   1.583   1.032   4.592  0.1750  0.3104  0.2837
    1SOL     OW10805   1.733   0.850   4.421  0.0047 -0.1654 -0.0505
    1SOL    HW210806   1.667   0.900   4.469  0.0746 -0.3081  0.1974
    1SOL    HW310807   1.729   0.884   4.331 -1.1792 -0.9396 -0.2976
    1SOL    MW410808   1.724   0.861   4.415 -0.1421 -0.2864 -0.0510
    1SOL     OW10809   0.280   1.141   4.546  0.0569 -0.0418 -0.1459
    1SOL    HW210810   0.328   1.060   4.563  0.5169  0.3866  0.6018
    1SOL    HW310811   0.196   1.130   4.590  0.5146  0.3015  0.8091
    1SOL    MW410812   0.275   1.129   4.554  0.1780  0.0601  0.0792
    1SOL     OW10813   0.716   1.334   4.482  0.0781 -0.1873 -0.0649
    1SOL    HW210814   0.744   1.425   4.492 -0.3928 -0.2205  1.8069
    1SOL    HW310815   0.627   1.333   4.517  0.3503 -1.5119  0.6087
    1SOL    MW410816   0.708   1.346   4.488  0.0518 -0.3666  0.2713
    1SOL     OW10817   0.917   0.912   4.504 -0.2247 -0.1083  0.1480
    1SOL    HW210818   0.828   0.888   4.529 -0.4771 -0.2260 -0.8503
    1SOL    HW310819   0.919   0.904   4.409  0.4315  1.3560  0.0248
    1SOL    MW410820   0.906   0.908   4.495 -0.1714  0.0694  0.0000
    1SOL     OW10821   1.828   1.020   4.676 -0.1257 -0.3423  0.1740
    1SOL    HW210822   1.891   0.952   4.652 -1.2389 -1.0810 -0.7169
    1SOL    HW310823   1.872   1.102   4.654  0.8750 -0.8051  0.4014
    1SOL    MW410824   1.842   1.021   4.670 -0.1405 -0.5007  0.0868
    1SOL     OW10825   0.958   1.194   4.509  0.3469  0.2098  0.5795
    1SOL    HW210826   0.928   1.103   4.503  2.3902 -0.3814 -1.6037
    1SOL    HW310827   0.879   1.246   4.505 -0.8296 -1.4619  1.4074
    1SOL    MW410828   0.944   1.189   4.508  0.4612 -0.0888  0.4010
    1SOL     OW10829   1.082   2.294   4.554 -0.6447  0.2576 -0.0988
    1SOL    HW210830   0.997   2.337   4.542 -0.2537  0.8860 -0.6355
    1SOL    HW310831   1.143   2.347   4.502  0.4944  1.1283  2.0474
    1SOL    MW410832   1.079   2.307   4.546 -0.4426  0.4551  0.1135
    1SOL     OW10833   1.184   2.597   4.644 -0.1062 -0.4350 -0.1448
    1SOL    HW210834   1.213   2.551   4.565  0.3253  1.1260 -0.9275
    1SOL    HW310835   1.219   2.546   4.717  1.3191 -0.7195 -1.0082
    1SOL    MW410836   1.192   2.585   4.643  0.1389 -0.2666 -0.3619
    1SOL     OW10837   1.605   2.900   4.486 -0.4777  0.7347 -0.0604
    1SOL    HW210838   1.516   2.869   4.502  0.7235 -1.8200  1.9582
    1SOL    HW310839   1.639   2.922   4.573  1.3321  0.3294 -0.6355
    1SOL    MW410840   1.598   2.899   4.499 -0.0803  0.3443  0.1302
    1SOL     OW10841   1.613   3.557   4.477  0.4223 -0.1293 -0.0581
    1SOL    HW210842   1.677   3.594   4.538 -0.2859 -1.1359  1.3147
    1SOL    HW310843   1.624   3.463   4.484 -2.4083 -0.3896  1.5637
    1SOL    MW410844   1.623   3.550   4.486 -0.0447 -0.2968  0.3366
    1SOL     OW10845   0.712   2.821   4.463  0.4390 -0.0649  0.0276
    1SOL    HW210846   0.765   2.751   4.501 -1.4443 -1.3735  0.2974
    1SOL    HW310847   0.622   2.790   4.471 -0.3242  1.7947 -1.0958
    1SOL    MW410848   0.707   2.808   4.469  0.0898  0.0076 -0.0849
    1SOL     OW10849   0.556   3.948   4.481  0.1805 -0.2090 -0.2871
    1SOL    HW210850   0.645   3.982   4.484 -0.3953  1.2797  0.1306
    1SOL    HW310851   0.529   3.961   4.390  0.5491 -1.0934 -0.5277
    1SOL    MW410852   0.564   3.954   4.469  0.1531 -0.1290 -0.2632
    1SOL     OW10853   1.043   2.912   4.463  0.2979 -0.4013  0.5364
    1SOL    HW210854   1.066   2.894   4.372  1.3418 -0.3793  0.7847
    1SOL    HW310855   0.976   2.980   4.458 -0.6789 -1.4089 -0.2538
    1SOL    MW410856   1.038   2.919   4.450  0.3068 -0.5317  0.4644
    1SOL     OW10857   0.819   3.079   4.441  0.0352 -0.3147 -0.3065
    1SOL    HW210858   0.746   3.133   4.473 -0.5096 -1.1858 -0.0591
    1SOL    HW310859   0.796   2.990   4.468  1.2443 -0.5843 -0.1502
    1SOL    MW410860   0.806   3.075   4.449  0.1229 -0.4649 -0.2532
    1SOL     OW10861   1.829   3.692   4.585  0.7897  0.0996 -0.4889
    1SOL    HW210862   1.833   3.782   4.551  0.9334 -0.0190 -0.7949
    1SOL    HW310863   1.910   3.652   4.553  2.2294  0.7548  2.2078
    1SOL    MW410864   1.840   3.698   4.576  0.9985  0.1705 -0.1736
    1SOL     OW10865   0.400   3.446   4.479  0.6902 -0.3497 -0.0416
    1SOL    HW210866   0.440   3.531   4.497  0.9826 -0.3428 -0.7103
    1SOL    HW310867   0.306   3.463   4.482  0.7330 -0.3905  1.6475
    1SOL    MW410868   0.393   3.459   4.481  0.7344 -0.3543  0.0925
    1SOL     OW10869   0.501   4.216   4.548 -0.2527  0.0905 -0.4394
    1SOL    HW210870   0.584   4.256   4.518 -0.2590 -1.0985 -2.1354
    1SOL    HW310871   0.508   4.125   4.520 -1.7455 -0.2348  0.2641
    1SOL    MW410872   0.513   4.209   4.540 -0.4506 -0.1092 -0.5703
    1SOL     OW10873   0.817   4.039   4.491  0.3803 -0.5938 -0.4649
    1SOL    HW210874   0.815   4.135   4.484 -0.3159 -0.6357 -0.9491
    1SOL    HW310875   0.865   4.011   4.413 -1.0061 -0.7120 -1.3101
    1SOL    MW410876   0.823   4.048   4.479  0.1056 -0.6142 -0.6404
    1SOL     OW10877   0.831   4.588   4.535 -0.3364  0.1526  0.6538
    1SOL    HW210878   0.764   4.632   4.586 -0.4544 -0.5800  1.1447
    1SOL    HW310879   0.832   4.633   4.451 -1.0311  0.5430  0.8564
    1SOL    MW410880   0.823   4.600   4.530 -0.4436  0.1073  0.7453
    1SOL     OW10881   1.548   4.219   4.854  0.1951 -0.0143 -0.0658
    1SOL    HW210882   1.529   4.155   4.922 -0.9084  0.5664  0.1826
    1SOL    HW310883   1.466   4.268   4.843  0.6268  0.4752 -1.1826
    1SOL    MW410884   1.535   4.217   4.862  0.1063  0.1273 -0.1802
    1SOL     OW10885   1.560   4.352   4.493 -0.3701 -0.1038  0.3926
    1SOL    HW210886   1.636   4.398   4.530  0.4071 -0.7165 -0.4272
    1SOL    HW310887   1.563   4.374   4.400 -1.7773  0.6719  0.5172
    1SOL    MW410888   1.571   4.361   4.486 -0.4534 -0.0825  0.3009
    1SOL     OW10889   1.073   4.341   4.504 -0.2914  0.2031  0.3074
    1SOL    HW210890   1.078   4.247   4.522  0.6595 -0.1938 -1.8912
    1SOL    HW310891   0.994   4.370   4.550 -2.5066 -2.3414 -1.7302
    1SOL    MW410892   1.063   4.332   4.513 -0.4582 -0.1855 -0.2518
    1SOL     OW10893   1.140   0.504   4.441 -0.3750 -0.1672  0.3182
    1SOL    HW210894   1.063   0.522   4.494 -0.4877  0.1187  0.0613
    1SOL    HW310895   1.177   0.424   4.477  0.6356  1.0469  2.0351
    1SOL    MW410896   1.135   0.496   4.453 -0.2565  0.0307  0.5107
    1SOL     OW10897   1.699   0.136   4.498  0.1844  0.0774  0.1211
    1SOL    HW210898   1.605   0.118   4.497  0.1311  0.3425 -1.5151
    1SOL    HW310899   1.737   0.062   4.544 -0.5818 -1.3811 -1.5212
    1SOL    MW410900   1.692   0.124   4.504  0.0763 -0.0800 -0.3114
    1SOL     OW10901   1.329   0.713   4.461 -0.3064 -0.3135 -0.1350
    1SOL    HW210902   1.269   0.639   4.448 -1.8009  0.6437  1.2763
    1SOL    HW310903   1.322   0.764   4.380  0.5613 -1.5509 -1.0251
    1SOL    MW410904   1.320   0.710   4.448 -0.3891 -0.3505 -0.0663
    1SOL     OW10905   1.864   1.426   4.736 -0.3289  0.1453  0.0401
    1SOL    HW210906   1.896   1.365   4.670 -0.1417 -0.4701  0.7069
    1SOL    HW310907   1.874   1.381   4.819 -0.6334  0.8948  0.4948
    1SOL    MW410908   1.869   1.412   4.738 -0.3444  0.1630  0.1884
    1SOL     OW10909   0.940   0.607   4.621  0.1543 -0.1029  0.1131
    1SOL    HW210910   0.951   0.701   4.637  0.7700 -0.0808 -0.4290
    1SOL    HW310911   0.880   0.578   4.690 -2.3318  1.2402 -1.4049
    1SOL    MW410912   0.933   0.616   4.632 -0.0925  0.0772 -0.1588
    1SOL     OW10913   2.039   0.534   4.527 -0.3495 -0.3750  0.1198
    1SOL    HW210914   2.106   0.474   4.560 -0.2236 -0.1912  0.1964
    1SOL    HW310915   1.956   0.495   4.554 -0.3349 -1.3148 -1.1392
    1SOL    MW410916   2.037   0.521   4.535 -0.3307 -0.4748 -0.0367
    1SOL     OW10917   1.509   1.285   4.514  0.4005 -0.4274 -0.1259
    1SOL    HW210918   1.415   1.277   4.530  0.3192 -1.1752 -0.9061
    1SOL    HW310919   1.545   1.201   4.544  0.7049 -0.4621 -0.5809
    1SOL    MW410920   1.501   1.273   4.520  0.4299 -0.5307 -0.2890
    1SOL     OW10921   1.299   1.884   4.470 -0.2916 -0.2633 -0.5120
    1SOL    HW210922   1.264   1.834   4.544  0.7286 -0.5774 -0.2307
    1SOL    HW310923   1.336   1.817   4.411  0.9781  0.1431 -0.1854
    1SOL    MW410924   1.299   1.868   4.472  0.0104 -0.2511 -0.4320
    1SOL     OW10925   1.510   2.514   4.565 -0.7890 -0.0932 -0.3804
    1SOL    HW210926   1.583   2.545   4.511  0.3424 -1.1522  0.5181
    1SOL    HW310927   1.535   2.425   4.589 -1.3060  0.3434  1.8225
    1SOL    MW410928   1.523   2.506   4.561 -0.7079 -0.1755  0.0286
    1SOL     OW10929   2.135   2.219   4.308 -0.8593 -0.8639  0.2675
    1SOL    HW210930   2.056   2.178   4.272 -0.3904 -0.9581 -0.6533
    1SOL    HW310931   2.120   2.313   4.297 -1.2939 -0.8341  1.0501
    1SOL    MW410932   2.122   2.226   4.302 -0.8550 -0.8726  0.2489
    1SOL     OW10933   0.833   2.423   4.518  0.1230  0.3596  0.1136
    1SOL    HW210934   0.863   2.510   4.543  2.5168 -0.5524  0.5259
    1SOL    HW310935   0.845   2.420   4.423  1.1407  0.0946  0.2427
    1SOL    MW410936   0.838   2.434   4.509  0.5732  0.2043  0.1850
    1SOL     OW10937   1.322   3.942   4.506 -0.4467 -0.2440  0.3390
    1SOL    HW210938   1.327   3.846   4.513  1.5049 -0.3832 -2.2300
    1SOL    HW310939   1.411   3.971   4.527 -0.3163  0.7906 -1.5840
    1SOL    MW410940   1.335   3.933   4.510 -0.1719 -0.1261 -0.2542
    1SOL     OW10941   1.262   2.460   4.415  0.2933  0.3325 -0.3364
    1SOL    HW210942   1.268   2.476   4.321 -0.8457  1.3149 -0.2580
    1SOL    HW310943   1.353   2.451   4.444  0.7037  1.0259 -1.3662
    1SOL    MW410944   1.275   2.461   4.407  0.1971  0.5536 -0.4621
    1SOL     OW10945   1.711   2.660   4.383 -0.3552 -1.0349  0.2932
    1SOL    HW210946   1.688   2.730   4.444 -0.1071 -1.4332  0.8482
    1SOL    HW310947   1.805   2.671   4.368 -0.1167 -1.8198  1.1292
    1SOL    MW410948   1.720   2.671   4.389 -0.2911 -1.1914  0.4764
    1SOL     OW10949   1.389   3.160   4.494  0.6645  0.0775 -0.0956
    1SOL    HW210950   1.472   3.206   4.494  0.4913  0.3934  0.9926
    1SOL    HW310951   1.398   3.092   4.560  0.2913 -0.3045 -0.4326
    1SOL    MW410952   1.401   3.157   4.502  0.5925  0.0689  0.0033
    1SOL     OW10953   1.346   3.670   4.528 -0.0176  0.4270 -0.2379
    1SOL    HW210954   1.429   3.626   4.544 -0.2593  0.6467  1.7341
    1SOL    HW310955   1.297   3.609   4.473  1.2139  0.0451 -0.9334
    1SOL    MW410956   1.351   3.656   4.523  0.1130  0.4055 -0.0696
    1SOL     OW10957   0.569   3.683   4.538 -0.0935 -0.1252  0.0561
    1SOL    HW210958   0.554   3.775   4.519  1.1079  0.0626 -0.0503
    1SOL    HW310959   0.617   3.683   4.621 -0.1647 -0.6564  0.1014
    1SOL    MW410960   0.574   3.695   4.546  0.0557 -0.1705  0.0482
    1SOL     OW10961   2.046   3.533   4.495 -0.2904 -0.1890 -0.1332
    1SOL    HW210962   2.018   3.535   4.403  0.6224 -0.8679 -0.4342
    1SOL    HW310963   2.048   3.440   4.517 -0.7503 -0.0156  0.6598
    1SOL    MW410964   2.042   3.521   4.486 -0.2306 -0.2556 -0.0682
    1SOL     OW10965   1.644   3.277   4.484 -0.5057  0.7435 -0.8760
    1SOL    HW210966   1.701   3.259   4.559 -1.6351  1.4098  0.1566
    1SOL    HW310967   1.681   3.225   4.413  1.4184  1.1993 -0.2285
    1SOL    MW410968   1.656   3.268   4.484 -0.4008  0.8914 -0.6537
    1SOL     OW10969   2.189   3.680   4.709 -0.2065  0.3303 -0.0172
    1SOL    HW210970   2.174   3.647   4.798  0.3931  0.3946  0.1064
    1SOL    HW310971   2.126   3.633   4.655  0.1819 -0.5242  0.2677
    1SOL    MW410972   2.179   3.669   4.713 -0.0763  0.2260  0.0367
    1SOL     OW10973   1.123   4.102   4.641 -0.4477 -0.3934  0.0036
    1SOL    HW210974   1.041   4.052   4.637 -0.6995  0.1274 -1.6338
    1SOL    HW310975   1.191   4.038   4.621 -0.5987 -0.4769 -0.2406
    1SOL    MW410976   1.121   4.087   4.638 -0.5008 -0.3352 -0.2441
    1SOL     OW10977   1.795   4.350   4.807  0.3522  0.8001 -0.1546
    1SOL    HW210978   1.864   4.285   4.820 -0.6728 -0.1872  0.3741
    1SOL    HW310979   1.714   4.305   4.832 -0.2928  2.4816  0.8011
    1SOL    MW410980   1.794   4.335   4.812  0.1317  0.8917  0.0420
    1SOL     OW10981   2.264   0.341   4.635  0.3188 -0.0413  0.3788
    1SOL    HW210982   2.330   0.406   4.615 -0.9767  1.5502  1.1821
    1SOL    HW310983   2.259   0.339   4.731 -0.8057 -0.1157  0.3311
    1SOL    MW410984   2.272   0.349   4.645 -0.0007  0.1588  0.4787
    1SOL     OW10985   1.427   0.082   4.477  0.1025 -0.2031 -0.3159
    1SOL    HW210986   1.385   0.151   4.527 -0.2152 -1.0538  0.6196
    1SOL    HW310987   1.407   0.002   4.525  0.0564 -1.0059 -1.6490
    1SOL    MW410988   1.419   0.080   4.490  0.0545 -0.4213 -0.3681
    1SOL     OW10989   1.763   0.420   4.527 -0.3662  0.0659  0.0146
    1SOL    HW210990   1.736   0.329   4.524 -0.3670  0.0208  1.1439
    1SOL    HW310991   1.683   0.470   4.509 -0.5175 -0.1429  0.1081
    1SOL    MW410992   1.749   0.415   4.524 -0.3864  0.0324  0.1755
    1SOL     OW10993   2.358   0.095   4.508 -0.0066  0.1574 -0.2657
    1SOL    HW210994   2.332   0.105   4.417  1.8918  0.9347 -0.7393
    1SOL    HW310995   2.322   0.172   4.552  0.6212  0.7079 -0.7134
    1SOL    MW410996   2.350   0.107   4.502  0.3266  0.3326 -0.3872
    1SOL     OW10997   1.986   0.810   4.525  0.1804  0.1469  0.0461
    1SOL    HW210998   2.005   0.717   4.533 -1.3755 -0.1133  0.6676
    1SOL    HW310999   1.899   0.814   4.485  0.6466  1.3444 -0.9047
    1SOL    MW411000   1.977   0.798   4.521  0.0366  0.2706  0.0024
    1SOL     OW11001   1.584   0.623   4.428 -0.0900 -0.1694  0.3126
    1SOL    HW211002   1.648   0.692   4.442  0.9576 -1.3361  1.4059
    1SOL    HW311003   1.499   0.664   4.445  0.5506  0.7518  1.2677
    1SOL    MW411004   1.581   0.637   4.432  0.1327 -0.2018  0.5822
    1SOL     OW11005   2.103   1.568   4.862  0.2442  0.4700  0.2457
    1SOL    HW211006   2.023   1.552   4.812  0.6178 -0.5820 -0.0338
    1SOL    HW311007   2.164   1.607   4.799  0.6334 -0.6300 -0.0653
    1SOL    MW411008   2.101   1.571   4.847  0.3448  0.1860  0.1678
    1SOL     OW11009   1.067   2.040   4.476 -0.3175 -0.3165  0.1668
    1SOL    HW211010   1.154   2.004   4.463 -0.4407 -0.1730 -1.1354
    1SOL    HW311011   1.083   2.128   4.511  0.0948  0.1228 -1.0956
    1SOL    MW411012   1.081   2.047   4.479 -0.2794 -0.2398 -0.1717
    1SOL     OW11013   1.602   1.516   4.642 -0.0522 -0.0102 -0.1730
    1SOL    HW211014   1.588   1.430   4.604  0.1694  0.8062 -2.1822
    1SOL    HW311015   1.686   1.508   4.689  0.2040 -0.7454 -0.7458
    1SOL    MW411016   1.611   1.504   4.644  0.0107  0.0005 -0.5136
    1SOL     OW11017   1.536   1.939   4.570 -0.1926 -0.9354  0.0915
    1SOL    HW211018   1.446   1.924   4.542 -0.1658 -0.9396  0.0084
    1SOL    HW311019   1.572   1.851   4.584  0.3371 -1.0039 -1.5671
    1SOL    MW411020   1.529   1.926   4.568 -0.1191 -0.9450 -0.1378
    1SOL     OW11021   1.722   1.739   4.524 -0.3417 -0.1916 -0.2060
    1SOL    HW211022   1.676   1.661   4.556  0.0553 -0.9477 -1.4396
    1SOL    HW311023   1.726   1.726   4.429  1.3458  0.4596 -0.2251
    1SOL    MW411024   1.716   1.727   4.516 -0.0666 -0.2055 -0.3710
    1SOL     OW11025   1.779   2.025   4.434 -0.1778 -0.0329 -0.4174
    1SOL    HW211026   1.870   1.998   4.425  0.2443  0.8416  1.0408
    1SOL    HW311027   1.737   1.953   4.482  0.2197  0.4587  0.6866
    1SOL    MW411028   1.785   2.012   4.439 -0.0697  0.1476 -0.0792
    1SOL     OW11029   1.591   2.210   4.528  0.1983 -0.5669 -0.4041
    1SOL    HW211030   1.534   2.134   4.541 -1.2818  0.5302 -0.3387
    1SOL    HW311031   1.677   2.173   4.507 -0.4041 -2.2535  0.0451
    1SOL    MW411032   1.595   2.195   4.527 -0.0764 -0.6449 -0.3362
    1SOL     OW11033   2.417   2.467   4.343 -0.1142  0.0371 -0.1736
    1SOL    HW211034   2.335   2.510   4.368 -0.8952 -2.2018  1.2013
    1SOL    HW311035   2.402   2.435   4.254 -0.5361  0.0769 -0.1181
    1SOL    MW411036   2.405   2.469   4.335 -0.2728 -0.2532  0.0157
    1SOL     OW11037   2.237   2.911   4.425  0.2320 -0.2074  0.0404
    1SOL    HW211038   2.233   2.816   4.414  1.5186 -0.0902 -1.5362
    1SOL    HW311039   2.146   2.939   4.417 -0.2299 -1.3465  1.0182
    1SOL    MW411040   2.225   2.902   4.423  0.3409 -0.3419 -0.0381
    1SOL     OW11041   1.558   4.083   4.616  0.5026 -0.4175 -0.2400
    1SOL    HW211042   1.559   4.154   4.552 -1.2476  0.2295  0.3982
    1SOL    HW311043   1.562   4.127   4.701  0.4676 -1.1339  0.1359
    1SOL    MW411044   1.558   4.098   4.619  0.2671 -0.4263 -0.1068
    1SOL     OW11045   2.048   3.248   4.545 -0.5641 -0.2646  0.0959
    1SOL    HW211046   2.048   3.188   4.471  0.4676 -0.6276  0.3863
    1SOL    HW311047   2.116   3.215   4.603 -0.3150  0.9046  0.4822
    1SOL    MW411048   2.057   3.236   4.543 -0.3951 -0.1581  0.1855
    1SOL     OW11049   1.806   3.203   4.685 -0.4550 -0.7762  0.3709
    1SOL    HW211050   1.813   3.107   4.684  1.1212 -0.6860  1.3615
    1SOL    HW311051   1.888   3.233   4.647 -0.8765  0.1962  0.2173
    1SOL    MW411052   1.818   3.194   4.680 -0.3027 -0.6361  0.4816
    1SOL     OW11053   2.436   3.737   4.589 -0.2677  0.0809  0.1932
    1SOL    HW211054   2.353   3.718   4.633 -1.0712 -0.6905 -1.5968
    1SOL    HW311055   2.432   3.832   4.573 -0.7796  0.0595  0.1722
    1SOL    MW411056   2.425   3.747   4.592 -0.4416 -0.0238 -0.0458
    1SOL     OW11057   2.063   3.929   4.704  0.1076 -0.7789  0.6202
    1SOL    HW211058   1.977   3.916   4.663  1.0293 -1.0627 -1.2906
    1SOL    HW311059   2.107   3.845   4.693  0.8808 -0.4235  0.9715
    1SOL    MW411060   2.057   3.916   4.697  0.3312 -0.7691  0.4144
    1SOL     OW11061   2.019   3.858   4.957 -0.6421 -0.1058  0.0507
    1SOL    HW211062   2.054   3.888   4.873 -0.5587  1.3328  0.5889
    1SOL    HW311063   1.925   3.875   4.951 -0.8940 -1.6256 -0.4203
    1SOL    MW411064   2.011   3.864   4.945 -0.6645 -0.1163  0.0596
    1SOL     OW11065   1.819   3.989   4.536  0.3817 -0.1420  0.3220
    1SOL    HW211066   1.743   4.037   4.570  1.4670  1.2437  0.8188
    1SOL    HW311067   1.810   3.996   4.441  0.1831  0.4790  0.3861
    1SOL    MW411068   1.808   3.996   4.528  0.4987  0.1230  0.3958
    1SOL     OW11069   2.097   4.208   4.708 -0.2639 -0.6150  0.1717
    1SOL    HW211070   2.188   4.223   4.734 -0.0364 -0.5647 -0.6460
    1SOL    HW311071   2.090   4.113   4.697 -0.2594 -0.5988  0.0380
    1SOL    MW411072   2.108   4.198   4.710 -0.2332 -0.6061  0.0467
    1SOL     OW11073   1.788   4.538   4.600  0.0147 -0.0683 -0.4159
    1SOL    HW211074   1.874   4.531   4.558  0.8887  1.7568  0.9889
    1SOL    HW311075   1.796   4.484   4.679  0.0325  0.4879 -0.0385
    1SOL    MW411076   1.801   4.530   4.604  0.1323  0.2456 -0.1807
    1SOL     OW11077   2.057   4.376   4.477 -0.1564 -0.6105 -0.1156
    1SOL    HW211078   2.044   4.319   4.553 -0.5925  0.7544  0.8592
    1SOL    HW311079   2.152   4.392   4.475 -0.0883 -1.0176 -0.1323
    1SOL    MW411080   2.068   4.371   4.487 -0.2053 -0.4840  0.0110
    1SOL     OW11081   2.322   4.471   4.495  0.5018  0.0286  0.3352
    1SOL    HW211082   2.386   4.456   4.425  0.0516  1.9581 -0.5278
    1SOL    HW311083   2.321   4.566   4.506 -0.4124 -0.1682  2.0549
    1SOL    MW411084   2.331   4.482   4.487  0.3219  0.2580  0.4482
    1SOL     OW11085   1.325   1.515   4.712 -0.1408 -0.2110  0.0961
    1SOL    HW211086   1.419   1.504   4.701 -0.0350 -1.1184  1.7584
    1SOL    HW311087   1.286   1.443   4.663 -0.0173  0.6293 -1.2633
    1SOL    MW411088   1.332   1.504   4.705 -0.1105 -0.2197  0.1364
    1SOL     OW11089   2.641   0.132   4.443 -0.3811  0.1680  0.4417
    1SOL    HW211090   2.557   0.102   4.478 -0.2948  1.3352  1.6731
    1SOL    HW311091   2.631   0.125   4.348 -1.7631  0.0105  0.5940
    1SOL    MW411092   2.629   0.127   4.435 -0.5522  0.3012  0.6251
    1SOL     OW11093   2.460   0.769   4.630  0.1326  0.0135  0.0079
    1SOL    HW211094   2.381   0.796   4.584  0.4146  1.1959  0.1879
    1SOL    HW311095   2.531   0.818   4.587  0.6233 -0.2364  0.5202
    1SOL    MW411096   2.459   0.779   4.618  0.2341  0.1364  0.0992
    1SOL     OW11097   2.889   0.720   4.645  0.1443 -0.0469  0.2556
    1SOL    HW211098   2.963   0.775   4.618 -0.2360 -0.1286 -0.9875
    1SOL    HW311099   2.923   0.631   4.642 -0.0317 -0.0905 -0.3943
    1SOL    MW411100   2.903   0.716   4.641  0.0713 -0.0634  0.0057
    1SOL     OW11101   2.230   1.158   4.638  0.2125  0.2532 -0.2065
    1SOL    HW211102   2.269   1.105   4.707 -0.2233 -0.1186 -0.2397
    1SOL    HW311103   2.302   1.210   4.603  0.3051  0.9525  0.9954
    1SOL    MW411104   2.244   1.158   4.642  0.1671  0.2962 -0.0529
    1SOL     OW11105   2.454   1.281   4.544 -0.5309  0.1448  0.3062
    1SOL    HW211106   2.524   1.241   4.595 -1.3680  0.5565  1.8172
    1SOL    HW311107   2.453   1.373   4.571 -2.4497 -0.1273  1.2280
    1SOL    MW411108   2.463   1.288   4.554 -0.8948  0.1632  0.6270
    1SOL     OW11109   2.484   1.567   4.643 -0.2224  0.3739 -0.2817
    1SOL    HW211110   2.529   1.622   4.579  0.1482  0.2993 -0.0883
    1SOL    HW311111   2.400   1.610   4.658 -0.5960  0.0184 -1.3438
    1SOL    MW411112   2.479   1.580   4.637 -0.2227  0.3171 -0.3958
    1SOL     OW11113   2.160   1.479   4.532 -0.4462 -0.1682  0.0644
    1SOL    HW211114   2.121   1.566   4.529 -2.2035 -0.9413 -0.5970
    1SOL    HW311115   2.103   1.429   4.591 -1.8274 -1.9261 -2.6365
    1SOL    MW411116   2.148   1.484   4.539 -0.8602 -0.5020 -0.3791
    1SOL     OW11117   2.034   1.734   4.479 -0.1449  0.5926 -0.9672
    1SOL    HW211118   1.943   1.726   4.508 -0.0322  0.4428 -0.6577
    1SOL    HW311119   2.061   1.821   4.507  1.1009 -0.8227  2.5852
    1SOL    MW411120   2.025   1.744   4.486  0.0346  0.3862 -0.4573
    1SOL     OW11121   2.366   2.212   4.455 -0.0786  0.7064 -0.3333
    1SOL    HW211122   2.403   2.292   4.418 -0.7473  1.0252 -0.3190
    1SOL    HW311123   2.276   2.209   4.421 -0.6400  0.9028  1.1083
    1SOL    MW411124   2.359   2.222   4.446 -0.2408  0.7744 -0.1411
    1SOL     OW11125   2.757   2.499   4.459  0.3457 -0.1861  0.0096
    1SOL    HW211126   2.685   2.548   4.497  0.5446  0.0031  0.1476
    1SOL    HW311127   2.828   2.563   4.451  0.1898 -0.1347 -1.0224
    1SOL    MW411128   2.757   2.514   4.463  0.3517 -0.1540 -0.1087
    1SOL     OW11129   2.089   2.843   4.723 -0.6640 -0.2611 -0.2408
    1SOL    HW211130   2.153   2.785   4.763 -2.0776 -1.8202 -0.2236
    1SOL    HW311131   2.075   2.807   4.635 -0.9034  0.5751 -0.5604
    1SOL    MW411132   2.096   2.831   4.716 -0.8821 -0.3567 -0.2809
    1SOL     OW11133   1.967   2.950   4.469 -0.6518 -0.2803  0.4860
    1SOL    HW211134   1.872   2.961   4.480 -0.7485  0.2835 -0.7981
    1SOL    HW311135   1.976   2.869   4.419 -0.5398  0.3679 -0.5686
    1SOL    MW411136   1.956   2.941   4.464 -0.6498 -0.1204  0.1779
    1SOL     OW11137   2.478   3.189   4.440  0.9538  0.2079 -0.3678
    1SOL    HW211138   2.408   3.219   4.382  0.9171  1.7616  0.4515
    1SOL    HW311139   2.513   3.269   4.479  4.4406 -0.3276 -2.1566
    1SOL    MW411140   2.474   3.204   4.437  1.4091  0.3424 -0.4959
    1SOL     OW11141   2.292   3.117   4.649  0.3602  0.0161  0.0091
    1SOL    HW211142   2.366   3.150   4.599 -0.7022  2.5928  0.0893
    1SOL    HW311143   2.276   3.029   4.613  0.5232  1.2562 -3.1869
    1SOL    MW411144   2.299   3.109   4.638  0.2415  0.5198 -0.4020
    1SOL     OW11145   1.288   4.322   4.810 -0.1614  0.3576  0.6683
    1SOL    HW211146   1.292   4.386   4.739  0.0924  1.0707  1.3234
    1SOL    HW311147   1.219   4.261   4.783 -0.6208  1.0813  0.1889
    1SOL    MW411148   1.279   4.322   4.797 -0.1885  0.5474  0.6914
    1SOL     OW11149   2.686   4.067   4.567  0.1427 -0.1779  0.4112
    1SOL    HW211150   2.592   4.052   4.578 -0.1683  1.1623 -0.2806
    1SOL    HW311151   2.698   4.074   4.473  1.0567 -0.9895  0.4614
    1SOL    MW411152   2.675   4.066   4.556  0.2220 -0.1087  0.3266
    1SOL     OW11153   1.813   2.921   4.732  0.9147  0.5905 -0.0498
    1SOL    HW211154   1.815   2.959   4.820  2.8254 -2.4601  1.3231
    1SOL    HW311155   1.897   2.876   4.723 -0.2513 -1.2430 -2.4547
    1SOL    MW411156   1.824   2.920   4.742  1.0129 -0.0539 -0.1860
    1SOL     OW11157   3.431   3.987   4.833  0.0478  0.4749 -0.0068
    1SOL    HW211158   3.369   4.054   4.804 -0.6498 -0.0934  0.1878
    1SOL    HW311159   3.418   3.980   4.927 -1.1811 -1.2643 -0.2989
    1SOL    MW411160   3.421   3.995   4.841 -0.2065  0.1705 -0.0205
    1SOL     OW11161   3.136   3.979   4.500  0.0487  0.2197  0.1200
    1SOL    HW211162   3.065   3.918   4.518  0.8708 -1.1099 -0.9912
    1SOL    HW311163   3.215   3.934   4.529  0.5694  1.1715  0.2137
    1SOL    MW411164   3.137   3.965   4.506  0.2258  0.1700 -0.0138
    1SOL     OW11165   2.410   4.009   4.549  0.0541  0.2986 -0.2042
    1SOL    HW211166   2.400   4.075   4.617  1.6939  0.3311  0.0192
    1SOL    HW311167   2.348   4.035   4.480 -0.9913  0.7375  0.8889
    1SOL    MW411168   2.400   4.021   4.548  0.1323  0.3610 -0.0310
    1SOL     OW11169   2.402   4.252   4.715  0.1542  0.3841 -0.3695
    1SOL    HW211170   2.386   4.320   4.650 -0.9015  1.6775  1.2151
    1SOL    HW311171   2.481   4.280   4.760  0.5523 -0.2172 -0.6816
    1SOL    MW411172   2.410   4.264   4.712  0.0675  0.4754 -0.2012
    1SOL     OW11173   3.026   0.434   4.515 -0.0148  0.3603 -0.0742
    1SOL    HW211174   2.989   0.463   4.432 -0.6628  0.5880  0.2861
    1SOL    HW311175   3.097   0.496   4.534  0.1448  0.2964 -0.4634
    1SOL    MW411176   3.030   0.446   4.507 -0.0794  0.3819 -0.0782
    1SOL     OW11177   2.899   4.642   4.466  0.3368 -0.4149 -0.6951
    1SOL    HW211178   2.950   4.703   4.520  0.0687  0.2141 -1.1508
    1SOL    HW311179   2.813   4.684   4.457  1.0265  0.4692 -3.3203
    1SOL    MW411180   2.894   4.655   4.472  0.3924 -0.2155 -1.1010
    1SOL     OW11181   3.098   0.164   4.552  0.1408  0.0620 -0.0064
    1SOL    HW211182   3.086   0.259   4.553 -0.3627  0.0368 -1.4593
    1SOL    HW311183   3.160   0.146   4.622 -0.3039  1.3907  0.7382
    1SOL    MW411184   3.105   0.174   4.561  0.0157  0.2340 -0.1001
    1SOL     OW11185   2.690   0.905   4.555  0.1713  0.3522 -0.2940
    1SOL    HW211186   2.761   0.841   4.564 -2.3021 -2.7615 -1.6628
    1SOL    HW311187   2.683   0.918   4.460 -1.9388 -0.4929 -0.2811
    1SOL    MW411188   2.699   0.898   4.543 -0.4334 -0.1701 -0.4730
    1SOL     OW11189   3.520   0.642   4.826  0.1697  0.0921  0.6226
    1SOL    HW211190   3.600   0.684   4.795 -0.7490  0.6989 -1.0414
    1SOL    HW311191   3.517   0.559   4.779 -0.4715  0.3367  0.2240
    1SOL    MW411192   3.530   0.636   4.815 -0.0360  0.2044  0.3505
    1SOL     OW11193   2.242   0.913   4.495  0.0087  0.4282 -0.4385
    1SOL    HW211194   2.240   1.002   4.530 -1.0199  0.3584 -0.3084
    1SOL    HW311195   2.158   0.875   4.521  0.7290 -0.8210  0.1311
    1SOL    MW411196   2.231   0.919   4.503 -0.0319  0.2542 -0.3462
    1SOL     OW11197   2.665   1.146   4.678  0.0042 -0.3608 -0.1064
    1SOL    HW211198   2.737   1.195   4.639  0.2074 -0.4833  0.1198
    1SOL    HW311199   2.674   1.057   4.643 -0.8621 -0.0432 -1.1969
    1SOL    MW411200   2.675   1.141   4.668 -0.0834 -0.3351 -0.2203
    1SOL     OW11201   2.895   1.305   4.574 -0.1405  0.3020  0.0666
    1SOL    HW211202   2.907   1.398   4.594  0.9547  0.0694  0.5488
    1SOL    HW311203   2.877   1.303   4.480  0.2990  0.9672 -0.0379
    1SOL    MW411204   2.895   1.317   4.564  0.0618  0.3591  0.1163
    1SOL     OW11205   2.888   1.601   4.660 -0.1297  0.4177 -0.6306
    1SOL    HW211206   2.823   1.658   4.619 -0.6837 -0.7017 -1.3433
    1SOL    HW311207   2.843   1.563   4.735  0.0437  0.4560 -0.5060
    1SOL    MW411208   2.874   1.604   4.664 -0.1800  0.2749 -0.7081
    1SOL     OW11209   2.690   1.783   4.557 -0.1183 -0.7373 -0.3307
    1SOL    HW211210   2.675   1.877   4.567  0.1099 -0.7314 -0.0006
    1SOL    HW311211   2.675   1.765   4.464  0.6568 -0.2193 -0.5613
    1SOL    MW411212   2.686   1.793   4.546  0.0138 -0.6683 -0.3181
    1SOL     OW11213   2.593   2.060   4.540 -0.3363 -0.0921 -0.2688
    1SOL    HW211214   2.514   2.110   4.518 -0.9090 -1.7188 -2.0993
    1SOL    HW311215   2.665   2.117   4.517 -0.9786  0.4873 -0.8712
    1SOL    MW411216   2.592   2.074   4.534 -0.4964 -0.2301 -0.5894
    1SOL     OW11217   2.812   2.229   4.482 -0.2882 -0.1862  0.3748
    1SOL    HW211218   2.780   2.319   4.473 -0.1127 -0.0700  0.8966
    1SOL    HW311219   2.833   2.202   4.392  0.1833  0.4912  0.2738
    1SOL    MW411220   2.811   2.237   4.469 -0.2029 -0.0813  0.4306
    1SOL     OW11221   3.065   2.157   4.608  0.7429  0.2807 -0.1750
    1SOL    HW211222   3.042   2.131   4.697 -0.0291  0.3896 -0.3446
    1SOL    HW311223   2.985   2.195   4.572  0.4446 -1.7371 -1.6785
    1SOL    MW411224   3.052   2.159   4.615  0.6018  0.0286 -0.3958
    1SOL     OW11225   2.563   2.706   4.497 -0.1711  0.2289  0.3179
    1SOL    HW211226   2.494   2.751   4.545 -1.0088 -1.2781  0.5727
    1SOL    HW311227   2.517   2.637   4.448  1.1882 -1.1169  0.8801
    1SOL    MW411228   2.548   2.703   4.497 -0.1020 -0.1476  0.4258
    1SOL     OW11229   2.993   2.982   4.655 -0.2985  0.4361  0.2071
    1SOL    HW211230   3.061   3.042   4.623  0.2374  1.2881  2.8009
    1SOL    HW311231   3.037   2.896   4.657  0.1714  0.6757  0.2582
    1SOL    MW411232   3.008   2.978   4.651 -0.1657  0.5805  0.5560
    1SOL     OW11233   2.666   2.962   4.406 -0.7797  0.6927 -0.8240
    1SOL    HW211234   2.620   3.046   4.400 -0.6495  0.8301  0.0796
    1SOL    HW311235   2.607   2.905   4.455 -1.2295 -0.0087 -2.1431
    1SOL    MW411236   2.652   2.966   4.412 -0.8218  0.6182 -0.8793
    1SOL     OW11237   2.666   3.374   4.470 -0.0644  0.1332 -0.2221
    1SOL    HW211238   2.718   3.319   4.529  0.0362  0.3755 -0.0852
    1SOL    HW311239   2.669   3.328   4.386 -0.6604 -0.4864  0.0961
    1SOL    MW411240   2.673   3.360   4.467 -0.1302  0.0837 -0.1621
    1SOL     OW11241   2.773   3.150   4.604  0.6218  0.1652  0.0209
    1SOL    HW211242   2.858   3.107   4.618  0.4640 -0.0168  0.4419
    1SOL    HW311243   2.723   3.088   4.551 -0.0196 -0.7085  1.5976
    1SOL    MW411244   2.777   3.136   4.599  0.5164  0.0260  0.2847
    1SOL     OW11245   2.878   3.874   4.554 -0.5087  0.2533 -0.4976
    1SOL    HW211246   2.802   3.930   4.573 -0.6504  0.4502 -1.6110
    1SOL    HW311247   2.840   3.788   4.539 -0.4315  0.1720 -0.2248
    1SOL    MW411248   2.863   3.870   4.554 -0.5174  0.2685 -0.6080
    1SOL     OW11249   3.368   3.854   4.583  0.2190  0.0449  0.4652
    1SOL    HW211250   3.377   3.759   4.575 -0.2524  0.0682 -0.3691
    1SOL    HW311251   3.383   3.872   4.676 -0.6036 -0.9413  0.7884
    1SOL    MW411252   3.371   3.844   4.594  0.0484 -0.0820  0.3977
    1SOL     OW11253   3.861   3.823   4.679 -0.2690 -0.0230 -0.1743
    1SOL    HW211254   3.868   3.740   4.726 -1.0785 -0.1632 -0.2903
    1SOL    HW311255   3.801   3.805   4.606  0.8981  0.2169 -1.2161
    1SOL    MW411256   3.854   3.810   4.675 -0.2220 -0.0098 -0.3271
    1SOL     OW11257   2.717   3.650   4.491  0.1252  0.1804  0.3421
    1SOL    HW211258   2.635   3.677   4.533 -0.3176 -0.8786  0.1700
    1SOL    HW311259   2.711   3.555   4.485 -0.3771  0.3747 -3.2650
    1SOL    MW411260   2.706   3.641   4.496  0.0007  0.0663 -0.1564
    1SOL     OW11261   2.927   4.196   4.575 -0.1348  0.1256  0.0442
    1SOL    HW211262   2.840   4.157   4.586  0.0113 -0.5658 -1.1357
    1SOL    HW311263   2.985   4.122   4.559  0.1787  0.7671 -2.0566
    1SOL    MW411264   2.923   4.181   4.574 -0.0741  0.1192 -0.3886
    1SOL     OW11265   3.055   4.424   4.492  0.1934 -0.1731  0.4036
    1SOL    HW211266   3.005   4.354   4.535 -0.5862  1.3422  2.0649
    1SOL    HW311267   2.993   4.498   4.488  0.3758 -0.1510 -3.0533
    1SOL    MW411268   3.040   4.425   4.497  0.1144  0.0296  0.1664
    1SOL     OW11269   3.289   0.544   4.532 -0.1192  0.1171 -0.0286
    1SOL    HW211270   3.346   0.549   4.455 -0.1689 -1.6946 -0.2118
    1SOL    HW311271   3.311   0.622   4.583 -0.2522  1.4684 -1.9835
    1SOL    MW411272   3.300   0.555   4.528 -0.1435  0.0563 -0.3109
    1SOL     OW11273   2.480   0.502   4.566 -0.1184  0.3744  0.2088
    1SOL    HW211274   2.567   0.466   4.585  0.0944  0.9750  0.3810
    1SOL    HW311275   2.487   0.595   4.587 -1.0824  0.2453  1.1224
    1SOL    MW411276   2.492   0.510   4.571 -0.2172  0.4367  0.3524
    1SOL     OW11277   2.395   0.974   4.811  0.1818  0.6528 -0.5226
    1SOL    HW211278   2.423   0.888   4.781  1.2629 -0.0038  2.2672
    1SOL    HW311279   2.476   1.021   4.829 -0.4249  1.6410 -0.2920
    1SOL    MW411280   2.409   0.969   4.809  0.2444  0.6966 -0.1240
    1SOL     OW11281   2.730   0.358   4.591  0.3609 -0.2895 -0.0085
    1SOL    HW211282   2.730   0.283   4.532  0.7103  0.9025 -1.5530
    1SOL    HW311283   2.812   0.404   4.571 -1.0316  1.8825 -0.8983
    1SOL    MW411284   2.741   0.354   4.580  0.2234  0.1544 -0.3295
    1SOL     OW11285   3.378   0.795   4.653  0.5579 -0.4995  0.1234
    1SOL    HW211286   3.445   0.850   4.613  1.6857 -1.0631  1.2202
    1SOL    HW311287   3.424   0.744   4.720 -0.6735 -1.9816 -0.1149
    1SOL    MW411288   3.393   0.795   4.657  0.5443 -0.7694  0.2365
    1SOL     OW11289   3.413   1.299   4.560  0.2918  0.6158 -0.0516
    1SOL    HW211290   3.332   1.255   4.585  0.5583  0.9415  1.4315
    1SOL    HW311291   3.482   1.246   4.600  0.7401  1.0514 -0.2489
    1SOL    MW411292   3.411   1.286   4.569  0.3862  0.7161  0.1178
    1SOL     OW11293   2.693   1.423   4.793  0.0382  0.0460 -0.1032
    1SOL    HW211294   2.623   1.468   4.745  0.3629 -0.2184 -0.8342
    1SOL    HW311295   2.672   1.330   4.783  1.1107 -0.0820 -1.2910
    1SOL    MW411296   2.681   1.417   4.785  0.2224 -0.0057 -0.3562
    1SOL     OW11297   3.914   0.988   4.744  0.4589 -0.5454 -0.1225
    1SOL    HW211298   3.907   1.082   4.762 -2.1032 -0.5889 -0.6707
    1SOL    HW311299   3.994   0.980   4.692  1.0016  1.2652  0.3850
    1SOL    MW411300   3.924   1.000   4.739  0.1926 -0.3122 -0.1278
    1SOL     OW11301   3.402   1.572   4.611  0.1708  0.0541 -0.5299
    1SOL    HW211302   3.310   1.596   4.603 -0.0373 -1.0305 -1.4548
    1SOL    HW311303   3.404   1.477   4.603  1.1943 -0.1120  1.2503
    1SOL    MW411304   3.390   1.563   4.609  0.2782 -0.1109 -0.4172
    1SOL     OW11305   3.139   1.704   4.548 -0.0593  0.1379 -0.4103
    1SOL    HW211306   3.139   1.799   4.539 -1.3833  0.0675 -1.1984
    1SOL    HW311307   3.061   1.684   4.600  0.6513 -0.4640  0.4512
    1SOL    MW411308   3.129   1.714   4.554 -0.1400  0.0492 -0.4010
    1SOL     OW11309   3.251   1.976   4.518 -0.3382 -0.2535  0.1762
    1SOL    HW211310   3.182   2.037   4.542  1.2444  1.9181 -0.6879
    1SOL    HW311311   3.281   2.006   4.432  2.3550 -0.5583  0.9665
    1SOL    MW411312   3.246   1.988   4.510  0.2260 -0.0072  0.1664
    1SOL     OW11313   3.709   1.832   4.705 -0.0324 -0.3198  0.1899
    1SOL    HW211314   3.643   1.900   4.688 -0.4435 -1.0947 -1.4016
    1SOL    HW311315   3.663   1.769   4.760 -0.6914 -0.9359 -1.0431
    1SOL    MW411316   3.694   1.833   4.710 -0.1736 -0.5034 -0.1831
    1SOL     OW11317   2.894   2.760   4.460  0.5484 -0.1444  0.2696
    1SOL    HW211318   2.835   2.835   4.458  0.0242 -0.5399  0.7924
    1SOL    HW311319   2.961   2.783   4.525 -0.6885 -0.9190  1.8562
    1SOL    MW411320   2.895   2.773   4.468  0.3164 -0.2987  0.5484
    1SOL     OW11321   3.471   2.488   4.485  0.0528 -0.0192 -0.1792
    1SOL    HW211322   3.384   2.465   4.517 -0.5741  1.4636 -0.7620
    1SOL    HW311323   3.494   2.567   4.534  0.6241  0.2001 -0.7937
    1SOL    MW411324   3.463   2.495   4.496  0.0455  0.2058 -0.3371
    1SOL     OW11325   3.165   2.461   4.538 -0.0989 -0.2113  0.4112
    1SOL    HW211326   3.144   2.456   4.445  0.8577  0.5404  0.1461
    1SOL    HW311327   3.131   2.379   4.575 -0.7331 -0.3804 -0.5436
    1SOL    MW411328   3.158   2.450   4.531 -0.0563 -0.1345  0.2503
    1SOL     OW11329   3.577   2.721   4.590  0.4663  0.3035 -0.7382
    1SOL    HW211330   3.640   2.787   4.561 -0.2114  1.1226 -0.3531
    1SOL    HW311331   3.620   2.678   4.663  0.9178  0.2999 -1.0007
    1SOL    MW411332   3.591   2.724   4.596  0.4363  0.4110 -0.7224
    1SOL     OW11333   3.212   3.127   4.540  0.2211 -0.6616  0.1083
    1SOL    HW211334   3.282   3.064   4.521  1.3565  0.8450 -0.7688
    1SOL    HW311335   3.180   3.154   4.454 -1.4263 -1.2961  0.5080
    1SOL    MW411336   3.217   3.122   4.526  0.1533 -0.5467  0.0458
    1SOL     OW11337   3.348   2.874   4.531 -0.1700 -0.0948  0.1348
    1SOL    HW211338   3.339   2.853   4.438 -1.2850  0.1769  0.1810
    1SOL    HW311339   3.421   2.819   4.561 -0.7127 -1.2171 -0.5780
    1SOL    MW411340   3.356   2.864   4.523 -0.3889 -0.2069  0.0467
    1SOL     OW11341   3.892   2.599   4.472 -0.1241 -0.0138  0.0689
    1SOL    HW211342   3.882   2.553   4.388  2.3653 -1.5826  0.5854
    1SOL    HW311343   3.937   2.680   4.449 -0.7991  0.2548 -0.3132
    1SOL    MW411344   3.897   2.603   4.458  0.1154 -0.1855  0.0863
    1SOL     OW11345   3.740   3.182   4.549  0.6603 -0.2090 -0.1281
    1SOL    HW211346   3.784   3.259   4.584 -0.3924  0.8524 -1.1023
    1SOL    HW311347   3.707   3.209   4.463 -2.6230 -0.6287  0.9005
    1SOL    MW411348   3.741   3.196   4.542  0.0882 -0.1242 -0.1206
    1SOL     OW11349   3.522   4.086   4.505 -0.0346  0.4128  0.1107
    1SOL    HW211350   3.584   4.074   4.577  0.0961  0.7077  0.0485
    1SOL    HW311351   3.450   4.026   4.525  0.0362  0.4387  0.4479
    1SOL    MW411352   3.520   4.077   4.517 -0.0079  0.4549  0.1469
    1SOL     OW11353   3.252   4.209   4.776  0.1706  0.1219  0.3956
    1SOL    HW211354   3.290   4.294   4.753  0.3030  0.0983  0.5253
    1SOL    HW311355   3.164   4.212   4.739 -0.0698  0.5870  0.9991
    1SOL    MW411356   3.246   4.221   4.768  0.1564  0.1798  0.4921
    1SOL     OW11357   3.258   4.486   4.661  0.0423 -0.1103  0.3102
    1SOL    HW211358   3.336   4.446   4.623  0.3553 -0.9699  1.8006
    1SOL    HW311359   3.188   4.468   4.599  1.3137  2.0534 -1.8441
    1SOL    MW411360   3.259   4.478   4.648  0.2515  0.0615  0.2222
    1SOL     OW11361   3.491   4.345   4.573 -0.4355  0.1933 -0.3129
    1SOL    HW211362   3.492   4.251   4.551 -1.3489 -0.0153  0.5170
    1SOL    HW311363   3.583   4.370   4.575  0.0184 -1.4427  2.6086
    1SOL    MW411364   3.503   4.336   4.570 -0.4964 -0.0505  0.1822
    1SOL     OW11365   3.683   4.041   4.713  0.0761 -0.0366 -0.3428
    1SOL    HW211366   3.753   3.977   4.728  0.7003  1.1663  2.2480
    1SOL    HW311367   3.618   4.020   4.780  0.6494  2.4529  1.0698
    1SOL    MW411368   3.684   4.029   4.724  0.2339  0.4506  0.1855
    1SOL     OW11369   3.546   0.192   4.754 -0.7752 -0.0426 -0.3557
    1SOL    HW211370   3.592   0.171   4.835 -0.8794 -0.6324 -0.4494
    1SOL    HW311371   3.465   0.143   4.759 -0.1142 -1.2711 -1.4971
    1SOL    MW411372   3.542   0.183   4.765 -0.7017 -0.2825 -0.5188
    1SOL     OW11373   3.121   0.896   4.558  0.3426  0.2931  0.2967
    1SOL    HW211374   3.103   0.989   4.570 -3.3199 -0.5914  2.3931
    1SOL    HW311375   3.213   0.886   4.582  1.5649  3.7543 -2.6049
    1SOL    MW411376   3.131   0.907   4.563  0.0205  0.6331  0.1903
    1SOL     OW11377   3.138   1.172   4.610  0.0689  0.1668  0.3237
    1SOL    HW211378   3.156   1.179   4.704  0.6702 -0.2669  0.2480
    1SOL    HW311379   3.049   1.205   4.600  0.5480  1.6227  0.8292
    1SOL    MW411380   3.129   1.177   4.621  0.2115  0.3016  0.3805
    1SOL     OW11381   4.041   1.450   4.610 -0.3044  0.1201  0.2343
    1SOL    HW211382   4.100   1.391   4.564 -1.5163 -1.1250  0.2590
    1SOL    HW311383   3.956   1.440   4.566 -1.0681  0.1631  1.6539
    1SOL    MW411384   4.037   1.441   4.598 -0.5651 -0.0384  0.4249
    1SOL     OW11385   3.672   1.173   4.635 -0.1795 -0.3438  0.2880
    1SOL    HW211386   3.706   1.262   4.618 -1.8277  0.3231  0.4420
    1SOL    HW311387   3.728   1.140   4.705 -0.7470  1.3034  1.5554
    1SOL    MW411388   3.684   1.181   4.642 -0.4718 -0.0385  0.4749
    1SOL     OW11389   4.138   0.975   4.567 -0.5708  0.0065  0.4044
    1SOL    HW211390   4.226   0.938   4.570 -0.9967 -0.9794  0.9053
    1SOL    HW311391   4.112   0.965   4.476 -0.2215  0.1691  0.2849
    1SOL    MW411392   4.146   0.969   4.555 -0.5808 -0.1021  0.4544
    1SOL     OW11393   4.377   0.538   4.571 -0.3531  0.1040  0.0420
    1SOL    HW211394   4.306   0.497   4.620 -0.2597  0.3696  0.4063
    1SOL    HW311395   4.350   0.533   4.479 -1.5326  1.5025  0.2900
    1SOL    MW411396   4.364   0.532   4.565 -0.4964  0.3235  0.1230
    1SOL     OW11397   3.650   1.644   4.496  0.2780 -0.1194  0.2854
    1SOL    HW211398   3.686   1.708   4.557 -0.7483  0.8325 -0.0870
    1SOL    HW311399   3.567   1.617   4.535 -0.0339 -0.0560 -0.3239
    1SOL    MW411400   3.644   1.648   4.509  0.1016  0.0147  0.1559
    1SOL     OW11401   3.997   1.914   4.622 -0.1461  0.0307 -0.3088
    1SOL    HW211402   3.923   1.885   4.676  0.0550  0.3394  0.1243
    1SOL    HW311403   4.029   1.994   4.664 -0.0236  0.2991 -0.9113
    1SOL    MW411404   3.991   1.920   4.635 -0.1032  0.1068 -0.3314
    1SOL     OW11405   3.520   2.059   4.599  0.0782  0.2768  0.0151
    1SOL    HW211406   3.552   2.084   4.513  0.1908 -2.6766 -0.8662
    1SOL    HW311407   3.428   2.034   4.585 -0.0649  0.2914  0.8588
    1SOL    MW411408   3.512   2.059   4.586  0.0744 -0.1113  0.0100
    1SOL     OW11409   4.068   2.201   4.734 -0.3171  0.1836 -0.1060
    1SOL    HW211410   4.057   2.288   4.771  0.6899  0.1258  0.3377
    1SOL    HW311411   4.144   2.209   4.676  0.3626 -0.6355  0.6671
    1SOL    MW411412   4.076   2.213   4.731 -0.0944  0.0679  0.0544
    1SOL     OW11413   4.431   1.723   4.486  0.1729  0.2229  0.1533
    1SOL    HW211414   4.451   1.677   4.404  0.7408  1.7151 -0.5672
    1SOL    HW311415   4.338   1.707   4.500 -0.1672  0.7792 -1.3435
    1SOL    MW411416   4.421   1.715   4.477  0.2031  0.4932 -0.1388
    1SOL     OW11417   3.897   2.281   4.528 -0.2566  0.2646 -0.1572
    1SOL    HW211418   3.939   2.236   4.601 -1.6775 -2.0517 -0.7110
    1SOL    HW311419   3.807   2.297   4.559 -1.3794 -2.2570 -1.9370
    1SOL    MW411420   3.890   2.277   4.542 -0.5922 -0.3734 -0.4654
    1SOL     OW11421   3.760   2.560   4.727 -0.5272  0.6789 -0.4166
    1SOL    HW211422   3.720   2.473   4.732  0.3775  0.2455 -0.7078
    1SOL    HW311423   3.800   2.562   4.640  1.4747  0.5207  0.4913
    1SOL    MW411424   3.760   2.549   4.716 -0.1438  0.6011 -0.3352
    1SOL     OW11425   3.822   2.924   4.528 -0.3110 -0.2450  0.0882
    1SOL    HW211426   3.912   2.912   4.558  0.0604 -0.0776 -0.9688
    1SOL    HW311427   3.802   3.016   4.549  0.2028  0.0810 -0.8643
    1SOL    MW411428   3.831   2.935   4.535 -0.1941 -0.1798 -0.1764
    1SOL     OW11429   4.122   2.936   4.647  0.0043 -0.0046  0.2634
    1SOL    HW211430   4.126   2.897   4.735 -0.3290 -0.5655  0.0307
    1SOL    HW311431   4.147   2.865   4.588  1.3304  0.6782 -0.0196
    1SOL    MW411432   4.126   2.922   4.651  0.1359  0.0112  0.1950
    1SOL     OW11433   3.443   3.318   4.558  0.0852  0.1696 -0.0123
    1SOL    HW211434   3.364   3.268   4.577 -0.5277  0.1197 -2.4751
    1SOL    HW311435   3.514   3.255   4.569 -0.2638  0.0460  1.6010
    1SOL    MW411436   3.442   3.303   4.562 -0.0415  0.1471 -0.1249
    1SOL     OW11437   3.866   3.411   4.638  0.0251  0.1359  0.0615
    1SOL    HW211438   3.871   3.458   4.721 -0.2157  1.7854 -0.8515
    1SOL    HW311439   3.949   3.363   4.632  0.0155 -0.0399  1.2691
    1SOL    MW411440   3.877   3.411   4.648 -0.0076  0.3307  0.1001
    1SOL     OW11441   3.459   3.600   4.515 -0.3875 -0.1486  0.1985
    1SOL    HW211442   3.464   3.508   4.539 -1.2595 -0.3575 -0.4274
    1SOL    HW311443   3.550   3.630   4.516  0.0055 -1.2849 -0.6514
    1SOL    MW411444   3.472   3.592   4.518 -0.4506 -0.3259  0.0038
    1SOL     OW11445   3.757   3.646   4.485 -0.2041 -0.2618  0.2241
    1SOL    HW211446   3.769   3.648   4.390 -1.4517 -0.5247  0.0454
    1SOL    HW311447   3.792   3.562   4.513 -0.0890 -0.3017 -0.0462
    1SOL    MW411448   3.763   3.635   4.476 -0.3536 -0.3016  0.1650
    1SOL     OW11449   0.072   2.907   4.562  0.3321 -0.3007  0.0729
    1SOL    HW211450   0.031   2.994   4.563 -0.1477 -0.5257  0.0387
    1SOL    HW311451   0.100   2.894   4.471 -0.0959 -0.4183 -0.0398
    1SOL    MW411452   0.070   2.917   4.550  0.2123 -0.3459  0.0544
    1SOL     OW11453   4.074   3.960   4.541 -0.0902 -0.2284 -0.1948
    1SOL    HW211454   4.083   4.046   4.581 -0.0602  0.2588 -1.2157
    1SOL    HW311455   4.000   3.920   4.586 -0.0799  0.3173  0.3150
    1SOL    MW411456   4.065   3.966   4.552 -0.0844 -0.0920 -0.2623
    1SOL     OW11457   3.752   4.432   4.564 -0.1007  0.0901 -0.4061
    1SOL    HW211458   3.771   4.416   4.471 -0.1735  0.6552 -0.5197
    1SOL    HW311459   3.743   4.527   4.571  1.3236  0.1792  0.4521
    1SOL    MW411460   3.753   4.443   4.553  0.0775  0.1769 -0.3076
    1SOL     OW11461   3.276   0.082   4.778 -0.4351  0.4732 -0.0532
    1SOL    HW211462   3.262  -0.007   4.746 -0.5731  0.8521 -1.0841
    1SOL    HW311463   3.215   0.092   4.851 -0.3472 -0.3068  0.1245
    1SOL    MW411464   3.266   0.072   4.783 -0.4418  0.4203 -0.1655
    1SOL     OW11465   3.594   0.934   4.512 -0.2036  0.2963  0.5053
    1SOL    HW211466   3.631   1.022   4.518  1.7750 -0.4281 -0.8280
    1SOL    HW311467   3.591   0.915   4.418  0.0705 -1.3561  0.8227
    1SOL    MW411468   3.598   0.943   4.500  0.0937 -0.0173  0.3715
    1SOL     OW11469   3.734   0.771   4.707  0.0511  0.0452 -0.1316
    1SOL    HW211470   3.797   0.843   4.718  0.7640 -0.6691  0.5369
    1SOL    HW311471   3.670   0.804   4.644  0.2445  1.3506  0.3513
    1SOL    MW411472   3.734   0.785   4.700  0.1707  0.1231  0.0205
    1SOL     OW11473   0.151   0.438   4.505 -0.1450 -0.4504  0.2663
    1SOL    HW211474   0.059   0.455   4.526  0.3294  2.3228  0.3361
    1SOL    HW311475   0.158   0.457   4.412  0.1871 -1.5211  0.0681
    1SOL    MW411476   0.140   0.443   4.496 -0.0386 -0.2258  0.2489
    1SOL     OW11477   0.352   0.633   4.536 -0.0849  0.0848  0.0174
    1SOL    HW211478   0.435   0.589   4.551  0.4465  0.9000 -0.5189
    1SOL    HW311479   0.288   0.562   4.532  0.6490 -0.5789 -0.0073
    1SOL    MW411480   0.354   0.618   4.537  0.0820  0.1047 -0.0567
    1SOL     OW11481   4.141   0.377   4.642 -0.2473  0.1192  0.0868
    1SOL    HW211482   4.084   0.300   4.644 -1.0140  0.6506 -1.0046
    1SOL    HW311483   4.081   0.451   4.635  0.5287  0.7537  0.0488
    1SOL    MW411484   4.125   0.377   4.641 -0.2460  0.2730 -0.0620
    1SOL     OW11485   3.794   1.388   4.495 -0.5098 -0.0920 -0.2334
    1SOL    HW211486   3.800   1.359   4.404 -0.3525  0.0517 -0.2684
    1SOL    HW311487   3.740   1.466   4.492 -1.0567 -0.4595 -0.1216
    1SOL    MW411488   3.788   1.394   4.483 -0.5610 -0.1215 -0.2236
    1SOL     OW11489   0.013   1.209   4.584 -0.3417 -0.5429 -0.2177
    1SOL    HW211490   0.034   1.300   4.603 -0.8672 -0.4662 -0.0091
    1SOL    HW311491  -0.005   1.170   4.669  0.4589 -0.9877 -0.2477
    1SOL    MW411492   0.014   1.216   4.598 -0.3053 -0.5915 -0.1945
    1SOL     OW11493   0.334   1.574   4.609  0.0625 -0.4798 -0.3598
    1SOL    HW211494   0.364   1.575   4.700  0.7751 -0.5088 -0.5942
    1SOL    HW311495   0.355   1.661   4.575 -1.9482  0.1946  0.0574
    1SOL    MW411496   0.340   1.585   4.616 -0.1087 -0.3947 -0.3357
    1SOL     OW11497   4.152   1.688   4.506  0.1667 -0.4312 -0.4817
    1SOL    HW211498   4.119   1.609   4.547 -0.5076  0.0130 -0.1529
    1SOL    HW311499   4.115   1.760   4.558  0.8288  0.0968 -0.7229
    1SOL    MW411500   4.143   1.687   4.518  0.1650 -0.3028 -0.4702
    1SOL     OW11501   3.107   2.733   4.647 -0.2555  0.1033 -0.1975
    1SOL    HW211502   3.188   2.776   4.619 -0.9195  1.9289  0.5815
    1SOL    HW311503   3.119   2.641   4.625  1.2397  0.6799 -1.8764
    1SOL    MW411504   3.119   2.726   4.640 -0.1459  0.4201 -0.3161
    1SOL     OW11505   4.278   2.090   4.279  0.0214  0.1549 -0.0013
    1SOL    HW211506   4.207   2.032   4.251 -1.9017  1.6103  1.7256
    1SOL    HW311507   4.263   2.102   4.373  2.6253  0.4095  0.4028
    1SOL    MW411508   4.267   2.084   4.288  0.1111  0.3808  0.2799
    1SOL     OW11509   4.267   2.205   4.542  0.1387 -0.0916 -0.2142
    1SOL    HW211510   4.355   2.188   4.577 -0.0976  0.0815  0.4788
    1SOL    HW311511   4.260   2.300   4.540  0.2684 -0.0959 -1.0509
    1SOL    MW411512   4.278   2.215   4.546  0.1249 -0.0691 -0.2327
    1SOL     OW11513   3.933   2.028   4.381  0.1242 -0.0838  0.3254
    1SOL    HW211514   3.948   1.969   4.455 -0.2479 -0.1962  0.3122
    1SOL    HW311515   3.907   2.110   4.421  0.6275  0.0696  0.3421
    1SOL    MW411516   3.932   2.031   4.396  0.1414 -0.0784  0.3257
    1SOL     OW11517   3.645   2.313   4.650 -0.5410  0.3160 -0.0706
    1SOL    HW211518   3.583   2.370   4.605 -0.6030  0.4769  0.2180
    1SOL    HW311519   3.599   2.229   4.658 -0.2452  0.0566 -0.9844
    1SOL    MW411520   3.631   2.309   4.645 -0.5100  0.3030 -0.1531
    1SOL     OW11521   4.228   2.703   4.809  0.4093 -0.0537 -0.6493
    1SOL    HW211522   4.308   2.696   4.756  0.8926 -0.2014  0.1035
    1SOL    HW311523   4.259   2.699   4.899 -0.4195  0.2497 -0.3576
    1SOL    MW411524   4.243   2.701   4.814  0.3638 -0.0331 -0.5116
    1SOL     OW11525   4.206   2.729   4.466  0.2245 -0.0109  0.1875
    1SOL    HW211526   4.287   2.693   4.503 -0.3360 -1.6935 -0.2087
    1SOL    HW311527   4.229   2.755   4.377  1.0956  2.3534  1.0428
    1SOL    MW411528   4.220   2.728   4.459  0.2656  0.0789  0.2475
    1SOL     OW11529   4.083   3.248   4.574 -0.6508  0.0426  0.0922
    1SOL    HW211530   4.081   3.240   4.479 -0.2666  0.2116  0.0684
    1SOL    HW311531   4.112   3.162   4.604 -1.2468 -0.1638  0.0836
    1SOL    MW411532   4.087   3.236   4.565 -0.6790  0.0374  0.0882
    1SOL     OW11533   0.138   3.575   4.441 -0.0374  0.1427 -0.3809
    1SOL    HW211534   0.157   3.601   4.351 -0.9900  1.2230 -0.2681
    1SOL    HW311535   0.047   3.600   4.456  0.6448  1.6500  1.4741
    1SOL    MW411536   0.129   3.582   4.431 -0.0731  0.4842 -0.1216
    1SOL     OW11537   4.159   4.170   4.716  0.0178  0.1294 -0.1089
    1SOL    HW211538   4.202   4.122   4.787 -0.6246 -0.9118 -0.4072
    1SOL    HW311539   4.070   4.184   4.748 -0.4106 -0.7469 -0.8829
    1SOL    MW411540   4.153   4.165   4.730 -0.1235 -0.1235 -0.2503
    1SOL     OW11541   3.702   0.052   4.561  0.0772  0.0801  0.0103
    1SOL    HW211542   3.638   0.088   4.623  0.0289  2.8276 -1.5762
    1SOL    HW311543   3.661   0.062   4.476  2.0908  0.7158 -0.9143
    1SOL    MW411544   3.688   0.058   4.558  0.3366  0.5265 -0.3214
    1SOL     OW11545   4.218   3.659   4.831  0.5799  0.0950 -0.0740
    1SOL    HW211546   4.258   3.727   4.776 -1.2041 -0.3830 -2.0082
    1SOL    HW311547   4.263   3.579   4.807  2.4321  0.5116  1.9444
    1SOL    MW411548   4.229   3.658   4.820  0.5898  0.0870 -0.0634
    1SOL     OW11549   3.542   0.434   4.615 -0.0382 -0.0162 -0.0634
    1SOL    HW211550   3.450   0.442   4.588 -0.5829 -1.5503  1.2638
    1SOL    HW311551   3.547   0.349   4.657  1.4695  0.9746  1.8540
    1SOL    MW411552   3.530   0.424   4.617  0.0887 -0.0879  0.3648
    1SOL     OW11553   4.252   4.431   4.252  0.0886  0.0885 -0.0167
    1SOL    HW211554   4.338   4.395   4.228  0.6286  0.5521  1.2100
    1SOL    HW311555   4.244   4.416   4.346 -0.8287  0.7787  0.0271
    1SOL    MW411556   4.262   4.424   4.261  0.0381  0.2408  0.1507
    1NA      NA11557   2.636   4.315   0.417  0.4744  0.1821  0.3032
    1NA      NA11558   0.383   2.481   0.224  0.4651  0.0420 -0.0640
   4.49070   4.66690  10.00000
