Gromacs Runs On Most of All Computer Systems in water
11585
    1C      O5'    1   1.643   1.641   4.743  0.3636 -0.5305 -0.0939
    1C      H5T    2   1.630   1.670   4.652 -1.1203 -0.8774  0.0023
    1C      C5'    3   1.781   1.594   4.747  0.4456  0.1406  0.6747
    1C     H5'1    4   1.796   1.585   4.854  1.1214 -1.2021  0.4829
    1C     H5'2    5   1.852   1.665   4.705 -0.4196 -0.5868 -2.1221
    1C      C4'    6   1.807   1.454   4.684  0.1356 -0.0602  0.6647
    1C      H4'    7   1.914   1.451   4.665 -0.1778 -1.0144 -1.0986
    1C      O4'    8   1.763   1.345   4.768  0.3934  0.7662  0.8343
    1C      C1'    9   1.725   1.237   4.692  0.5347  0.0162 -0.7666
    1C      H1'   10   1.784   1.155   4.732 -0.6170 -0.4761 -0.0510
    1C       N1   11   1.583   1.207   4.724 -0.5248  0.3805 -0.1105
    1C       C6   12   1.495   1.292   4.788 -0.3267  0.0775 -0.4737
    1C       H6   13   1.534   1.387   4.822  0.1131 -0.7435  1.3971
    1C       C5   14   1.367   1.259   4.803  0.6221 -0.7757 -0.0816
    1C       H5   15   1.295   1.326   4.850 -1.5407 -1.5855 -2.1259
    1C       C4   16   1.327   1.135   4.755 -0.0838  0.0770 -0.1699
    1C       N4   17   1.205   1.092   4.768 -0.0460  0.0879  0.4618
    1C      H41   18   1.137   1.152   4.812  0.5062  0.5031  0.7633
    1C      H42   19   1.185   1.007   4.718 -0.7564 -0.3818  1.5401
    1C       N3   20   1.408   1.048   4.700  0.7147 -0.2775 -0.1871
    1C       C2   21   1.538   1.077   4.688  0.3378  0.0437  0.4508
    1C       O2   22   1.606   0.992   4.635 -0.1132 -0.6699 -0.0755
    1C      C3'   23   1.737   1.424   4.546  0.5377 -0.4042 -0.4931
    1C      H3'   24   1.631   1.450   4.544  0.6227  0.2460  2.1037
    1C      C2'   25   1.755   1.269   4.544  0.7774 -0.2873 -0.5247
    1C     H2'1   26   1.687   1.222   4.473 -1.5381 -2.1301  2.7617
    1C      O2'   27   1.895   1.235   4.526  0.0401 -0.1146 -0.0641
    1C     HO'2   28   1.934   1.292   4.459  0.7640  0.1131  0.5296
    1C      O3'   29   1.806   1.477   4.431  0.7025  0.1960 -0.0394
    2G        P   30   1.782   1.631   4.385  0.3015 -0.0419  0.1803
    2G      O1P   31   1.654   1.673   4.450 -0.0597  0.2822 -0.3261
    2G      O2P   32   1.791   1.626   4.237 -0.3753  0.1440 -0.2500
    2G      O5'   33   1.901   1.714   4.451  0.4137 -0.1769 -0.3791
    2G      C5'   34   2.028   1.709   4.389 -0.2398 -0.3213  0.6316
    2G     H5'1   35   2.016   1.737   4.284 -0.1760 -0.2905  0.6325
    2G     H5'2   36   2.067   1.607   4.390  0.9196  0.0893 -1.1520
    2G      C4'   37   2.132   1.801   4.450 -0.2801 -0.2750 -0.2968
    2G      H4'   38   2.225   1.785   4.395  0.3900  1.3379  0.3107
    2G      O4'   39   2.090   1.937   4.435  0.3738 -0.6671 -0.8038
    2G      C1'   40   2.161   2.008   4.533 -0.3847 -0.4502 -0.7657
    2G      H1'   41   2.240   2.056   4.475 -1.2410  1.8291 -0.1081
    2G       N9   42   2.069   2.117   4.580 -0.3827  0.0919 -0.4233
    2G       C8   43   1.931   2.117   4.590  0.3020  0.1267  0.4220
    2G       H8   44   1.868   2.030   4.583 -0.1526  0.5142 -0.3737
    2G       N7   45   1.881   2.236   4.612 -0.1156  0.0900 -0.4142
    2G       C5   46   1.994   2.326   4.606  0.8606  0.1915  0.2534
    2G       C6   47   2.008   2.467   4.601  0.3317 -0.2765  0.5261
    2G       O6   48   1.918   2.550   4.606 -0.1102 -0.5329 -0.8624
    2G       N1   49   2.135   2.509   4.592  0.1695 -0.3077 -0.0209
    2G       H1   50   2.153   2.607   4.576 -0.5990 -0.2472 -0.5176
    2G       C2   51   2.239   2.425   4.585  0.3729  0.4539 -0.3652
    2G       N2   52   2.353   2.480   4.544  0.5319  0.3536  0.1379
    2G      H21   53   2.356   2.580   4.530  1.2526  0.3334  0.1517
    2G      H22   54   2.430   2.421   4.514  0.0596 -1.1135  1.6809
    2G       N3   55   2.237   2.293   4.576  0.4725  0.6998 -0.2311
    2G       C4   56   2.108   2.249   4.590  0.1887 -0.1927 -0.5535
    2G      C3'   57   2.152   1.778   4.602 -0.4551 -0.6846  0.2053
    2G      H3'   58   2.060   1.775   4.660  0.7160  2.0135  2.3324
    2G      C2'   59   2.219   1.911   4.640  0.2140 -0.1323  0.6870
    2G     H2'1   60   2.207   1.944   4.743  0.4469  1.0712  0.3479
    2G      O2'   61   2.356   1.901   4.617 -0.4233 -0.1479  0.2346
    2G     HO'2   62   2.373   1.810   4.643 -0.4555 -0.4188 -0.6865
    2G      O3'   63   2.233   1.666   4.627 -0.1542  0.7924 -0.3662
    2G      H3T   64   2.187   1.587   4.599  1.3340  1.1140 -4.0134
    5SOL     OW   65   4.270   1.405   0.376  0.0914  0.0509  0.1233
    5SOL    HW2   66   4.344   1.353   0.408  1.4468  1.7679 -0.0850
    5SOL    HW3   67   4.197   1.380   0.431  0.3193 -3.1324 -0.9386
    5SOL    MW4   68   4.270   1.395   0.387  0.3004 -0.1426 -0.0442
    6SOL     OW   69   0.882   3.479   1.046 -0.0369  0.0727  0.1324
    6SOL    HW2   70   0.817   3.540   1.081 -1.6524 -0.8608 -1.1577
    6SOL    HW3   71   0.894   3.506   0.955  1.8240  0.5808  0.5093
    6SOL    MW4   72   0.875   3.490   1.039 -0.0045  0.0162  0.0119
    7SOL     OW   73   3.889   2.511   0.532  0.1704  0.4439 -0.4817
    7SOL    HW2   74   3.984   2.522   0.520  0.1529  1.4727  0.2401
    7SOL    HW3   75   3.854   2.600   0.524 -0.2322  0.7336  3.3638
    7SOL    MW4   76   3.897   2.525   0.529  0.1152  0.6180  0.1209
    8SOL     OW   77   4.357   3.189   0.347  0.0760 -0.2609 -0.3408
    8SOL    HW2   78   4.419   3.228   0.284  0.2598  0.8083  0.4933
    8SOL    HW3   79   4.411   3.131   0.400  0.6482  1.6011  1.1947
    8SOL    MW4   80   4.373   3.187   0.345  0.1760  0.1256 -0.0282
    9SOL     OW   81   4.112   3.112   0.670 -0.2447 -0.2315 -0.3525
    9SOL    HW2   82   4.149   3.184   0.721  0.2278 -0.4302 -0.4077
    9SOL    HW3   83   4.115   3.037   0.729 -0.8334 -0.1798 -0.2609
    9SOL    MW4   84   4.118   3.112   0.684 -0.2599 -0.2511 -0.3477
   10SOL     OW   85   1.385   1.935   0.844  0.7157 -0.4667  0.2288
   10SOL    HW2   86   1.392   2.026   0.812 -0.2959 -0.2617  0.5682
   10SOL    HW3   87   1.458   1.890   0.802  1.8920  0.7476  0.9051
   10SOL    MW4   88   1.395   1.941   0.834  0.7373 -0.2793  0.3628
   11SOL     OW   89   3.171   3.684   0.466  0.4401  0.0841 -0.4186
   11SOL    HW2   90   3.186   3.596   0.431  1.1694  0.4257 -0.9797
   11SOL    HW3   91   3.082   3.706   0.440 -0.5459 -1.3475  1.5906
   11SOL    MW4   92   3.161   3.675   0.458  0.4060 -0.0598 -0.2275
   12SOL     OW   93   1.542   3.109   0.792 -0.2944  0.0139 -0.5111
   12SOL    HW2   94   1.472   3.044   0.784 -0.9427  0.5964  0.2620
   12SOL    HW3   95   1.549   3.125   0.886  0.3748  0.5047 -0.6398
   12SOL    MW4   96   1.534   3.103   0.803 -0.2916  0.1554 -0.4261
   13SOL     OW   97   3.112   2.716   1.124 -0.2623  0.3170 -0.5029
   13SOL    HW2   98   3.114   2.637   1.178 -1.0547 -0.9175 -2.2646
   13SOL    HW3   99   3.048   2.772   1.167 -1.8513 -1.1867 -0.8724
   13SOL    MW4  100   3.104   2.713   1.137 -0.5763 -0.0443 -0.7840
   14SOL     OW  101   3.586   1.974   1.109  0.6273  0.3102 -0.0260
   14SOL    HW2  102   3.520   2.034   1.144  0.2607 -0.0069 -0.1685
   14SOL    HW3  103   3.571   1.892   1.156  1.7850  0.6117  0.9010
   14SOL    MW4  104   3.575   1.971   1.120  0.7317  0.3082  0.0775
   15SOL     OW  105   3.625   1.178   1.159 -0.6405  0.3498 -0.6952
   15SOL    HW2  106   3.617   1.145   1.070 -0.9252  0.6704 -0.7903
   15SOL    HW3  107   3.543   1.225   1.175 -1.0218 -0.5724  0.0992
   15SOL    MW4  108   3.613   1.180   1.149 -0.7286  0.2705 -0.6028
   16SOL     OW  109   4.153   2.322   0.280 -0.1731 -0.0799 -0.0727
   16SOL    HW2  110   4.083   2.279   0.328  0.2418  0.7743  1.3253
   16SOL    HW3  111   4.213   2.251   0.257  0.2975 -0.3326  1.8514
   16SOL    MW4  112   4.152   2.307   0.283 -0.0563 -0.0005  0.3656
   17SOL     OW  113   2.477   0.015   0.837  0.1989 -0.1514 -0.5475
   17SOL    HW2  114   2.417  -0.054   0.810 -0.1460 -0.2394  0.4223
   17SOL    HW3  115   2.564  -0.023   0.829  0.1636  0.1229 -2.3946
   17SOL    MW4  116   2.480   0.001   0.832  0.1488 -0.1268 -0.6632
   18SOL     OW  117   1.424   1.691   0.374 -0.2065  0.2490  0.2657
   18SOL    HW2  118   1.373   1.708   0.294  0.9570  0.4604 -0.4361
   18SOL    HW3  119   1.458   1.777   0.399 -1.1152  0.2963  1.3774
   18SOL    MW4  120   1.422   1.705   0.367 -0.1729  0.2831  0.3198
   19SOL     OW  121   2.733   1.948   1.119 -0.1516  0.0770  0.3497
   19SOL    HW2  122   2.668   1.970   1.186 -0.1503 -1.1991  0.7808
   19SOL    HW3  123   2.815   1.987   1.151 -0.3883  0.4209  0.5373
   19SOL    MW4  124   2.735   1.956   1.133 -0.1826 -0.0460  0.4313
   20SOL     OW  125   0.002   4.030   1.162 -0.3235 -0.1743  0.0290
   20SOL    HW2  126  -0.069   3.967   1.157 -0.6151  0.1717 -0.1791
   20SOL    HW3  127   0.015   4.045   1.256  0.1866 -1.0351  0.1064
   20SOL    MW4  128  -0.005   4.024   1.173 -0.2947 -0.2418  0.0119
   21SOL     OW  129   3.761   0.087   0.464 -0.2492  0.1148  0.1126
   21SOL    HW2  130   3.790   0.008   0.418 -0.8719  1.6659 -3.1433
   21SOL    HW3  131   3.665   0.079   0.467 -0.2229  0.1243  0.9583
   21SOL    MW4  132   3.752   0.076   0.458 -0.3276  0.3207 -0.2054
   22SOL     OW  133   1.328   2.935   0.763  0.0362  0.0272  0.1285
   22SOL    HW2  134   1.350   2.845   0.787  1.3540  0.3694  0.2550
   22SOL    HW3  135   1.301   2.930   0.672 -2.3681 -0.8765  0.8686
   22SOL    MW4  136   1.328   2.923   0.754 -0.1070 -0.0470  0.2428
   23SOL     OW  137   2.237   3.782   0.678 -0.5737 -0.1163 -0.1888
   23SOL    HW2  138   2.234   3.687   0.689  1.1674 -0.2521 -0.6061
   23SOL    HW3  139   2.300   3.811   0.745  0.2731  0.5227 -1.2491
   23SOL    MW4  140   2.245   3.773   0.689 -0.2322 -0.0501 -0.3838
   24SOL     OW  141   3.381   4.293   0.488  0.0894 -0.0944 -0.0502
   24SOL    HW2  142   3.351   4.372   0.534  0.1751  0.4268 -0.8924
   24SOL    HW3  143   3.471   4.313   0.462  0.2047 -0.5780 -0.0312
   24SOL    MW4  144   3.389   4.306   0.491  0.1161 -0.0896 -0.1588
   25SOL     OW  145   0.446   1.936   0.796  0.3671 -0.0977 -0.0427
   25SOL    HW2  146   0.532   1.913   0.762  0.0500  0.4136 -1.2276
   25SOL    HW3  147   0.457   1.937   0.891  1.6319 -0.1633 -0.1788
   25SOL    MW4  148   0.459   1.933   0.804  0.4921 -0.0389 -0.2169
   26SOL     OW  149   0.205   2.823   1.243 -0.0760 -0.2151 -0.1139
   26SOL    HW2  150   0.124   2.775   1.230  1.0449 -2.1350 -0.1495
   26SOL    HW3  151   0.215   2.828   1.338  0.4357 -1.1456 -0.1158
   26SOL    MW4  152   0.196   2.818   1.254  0.1394 -0.5910 -0.1189
   27SOL     OW  153   4.331   0.211   0.754  0.0835 -0.1483 -0.4683
   27SOL    HW2  154   4.389   0.255   0.815  0.0106 -0.4426 -0.1880
   27SOL    HW3  155   4.330   0.120   0.783 -1.3913  0.0682  0.2010
   27SOL    MW4  156   4.339   0.205   0.766 -0.1202 -0.1585 -0.3430
   28SOL     OW  157   1.560   2.280   1.104 -0.2602 -0.1452 -0.3255
   28SOL    HW2  158   1.485   2.325   1.143  0.8325  1.5205 -0.0760
   28SOL    HW3  159   1.560   2.308   1.013  0.7470  0.8490 -0.0408
   28SOL    MW4  160   1.550   2.290   1.097  0.0168  0.2060 -0.2551
   29SOL     OW  161   0.753   0.025   0.177  0.1694 -0.4677 -0.0211
   29SOL    HW2  162   0.668   0.068   0.176 -0.2206 -1.2446 -0.6125
   29SOL    HW3  163   0.738  -0.058   0.221  0.5487 -0.7665 -0.4494
   29SOL    MW4  164   0.740   0.020   0.183  0.1681 -0.6096 -0.1557
   30SOL     OW  165   0.883   1.047   0.328  0.0576  0.0957  0.0145
   30SOL    HW2  166   0.969   1.080   0.353 -1.3251  2.6655  1.5747
   30SOL    HW3  167   0.877   0.961   0.370  2.2852 -0.6273 -1.0763
   30SOL    MW4  168   0.893   1.040   0.337  0.1691  0.3394  0.0764
   31SOL     OW  169   0.467   2.922   0.440 -0.0525  0.1218 -0.0430
   31SOL    HW2  170   0.376   2.899   0.425 -0.2330  1.2285 -0.7443
   31SOL    HW3  171   0.471   2.945   0.533 -0.0674 -1.7566  0.4325
   31SOL    MW4  172   0.456   2.922   0.450 -0.0783  0.0203 -0.0728
   32SOL     OW  173   3.133   2.491   1.278  0.1000  0.5039  0.2336
   32SOL    HW2  174   3.114   2.493   1.372  1.1013 -0.5750  0.4636
   32SOL    HW3  175   3.073   2.425   1.243 -0.9313  1.5717 -0.0483
   32SOL    MW4  176   3.123   2.483   1.286  0.0958  0.5026  0.2267
   33SOL     OW  177   1.016   0.093   0.100  0.1791  0.2780  0.3372
   33SOL    HW2  178   1.004   0.146   0.021  1.2292 -1.1706 -0.8331
   33SOL    HW3  179   0.931   0.052   0.115  0.5994 -1.3655 -1.5119
   33SOL    MW4  180   1.003   0.095   0.092  0.3732 -0.1300 -0.0612
   34SOL     OW  181   0.444   3.208   0.380 -0.3678  0.4992  0.0486
   34SOL    HW2  182   0.451   3.113   0.383  0.3703  0.5399 -0.5014
   34SOL    HW3  183   0.358   3.226   0.418 -0.3681 -0.3634  0.4751
   34SOL    MW4  184   0.433   3.198   0.386 -0.2705  0.3910  0.0323
   35SOL     OW  185   4.035   2.004   1.059 -0.2639 -0.2031 -0.1541
   35SOL    HW2  186   4.040   1.916   1.096  0.3080 -0.2583 -0.3624
   35SOL    HW3  187   3.961   2.045   1.104 -0.4319 -0.7367  0.0546
   35SOL    MW4  188   4.026   1.998   1.070 -0.2103 -0.2807 -0.1540
   36SOL     OW  189   2.706   3.757   0.776 -0.4604 -0.3482 -0.5468
   36SOL    HW2  190   2.620   3.780   0.813  0.1007  0.1570  0.4563
   36SOL    HW3  191   2.710   3.661   0.784 -0.4880 -0.2778  0.3906
   36SOL    MW4  192   2.695   3.747   0.782 -0.3901 -0.2723 -0.2908
   37SOL     OW  193   2.461   1.819   0.764  0.6222  0.4321  0.1339
   37SOL    HW2  194   2.549   1.853   0.776  2.1291 -3.4462  0.7931
   37SOL    HW3  195   2.444   1.828   0.670  2.0788  0.3751 -0.1417
   37SOL    MW4  196   2.470   1.825   0.753  1.0130 -0.0871  0.1845
   38SOL     OW  197   0.666   2.078   1.164  0.1561  0.1837  0.0420
   38SOL    HW2  198   0.662   2.171   1.142  0.8270  0.6193  1.6740
   38SOL    HW3  199   0.677   2.077   1.259  0.3866 -1.5631  0.0049
   38SOL    MW4  200   0.667   2.090   1.174  0.2751  0.0110  0.2525
   39SOL     OW  201   0.008   1.417   0.740  0.5671  0.4796 -0.1869
   39SOL    HW2  202  -0.072   1.447   0.784  0.1755 -0.7544 -0.0362
   39SOL    HW3  203  -0.022   1.381   0.657  0.9569 -0.1220 -0.0663
   39SOL    MW4  204  -0.006   1.417   0.735  0.5670  0.2375 -0.1512
   40SOL     OW  205   0.967   0.114   0.379  0.7039  0.1367  0.3715
   40SOL    HW2  206   0.975   0.122   0.284 -0.4340 -0.3418  0.2334
   40SOL    HW3  207   1.045   0.158   0.413  0.6334  1.1603 -0.7486
   40SOL    MW4  208   0.978   0.121   0.371  0.5444  0.2086  0.2055
   41SOL     OW  209   3.552   2.753   0.363 -0.3136  0.4672  0.3862
   41SOL    HW2  210   3.572   2.721   0.275 -1.7135  0.3274  0.1163
   41SOL    HW3  211   3.638   2.760   0.405  0.1745 -2.0448 -0.1105
   41SOL    MW4  212   3.566   2.750   0.357 -0.4337  0.1173  0.2851
   42SOL     OW  213   3.679   1.844   0.453  0.0768  0.0689 -0.0168
   42SOL    HW2  214   3.717   1.823   0.538 -1.5528  1.2124  0.9922
   42SOL    HW3  215   3.686   1.939   0.446  0.2253 -0.0152 -1.1874
   42SOL    MW4  216   3.685   1.853   0.463 -0.1185  0.2086 -0.0381
   43SOL     OW  217   2.813   1.759   0.665  0.0013 -0.6845 -0.5339
   43SOL    HW2  218   2.852   1.690   0.720  0.2777 -0.3603 -0.3250
   43SOL    HW3  219   2.778   1.822   0.728  0.9579  0.0503 -0.7312
   43SOL    MW4  220   2.814   1.758   0.681  0.1640 -0.5449 -0.5323
   44SOL     OW  221   1.810   3.762   0.690 -0.0412 -0.5280 -0.3117
   44SOL    HW2  222   1.719   3.790   0.704  0.0214 -1.1445  1.5035
   44SOL    HW3  223   1.863   3.838   0.714 -0.0118 -0.9182  0.9127
   44SOL    MW4  224   1.805   3.775   0.695 -0.0290 -0.6607  0.0895
   45SOL     OW  225   2.175   1.669   0.391  0.2481  0.0682 -0.4723
   45SOL    HW2  226   2.212   1.581   0.399  2.2770  1.0310  1.4440
   45SOL    HW3  227   2.098   1.667   0.449 -1.2662 -1.1827 -2.4678
   45SOL    MW4  228   2.170   1.657   0.400  0.3159  0.0302 -0.4828
   46SOL     OW  229   2.423   1.554   0.861  0.1400 -0.0588 -0.1393
   46SOL    HW2  230   2.429   1.646   0.837  0.6922  0.3450  1.4621
   46SOL    HW3  231   2.509   1.518   0.841 -0.0671 -0.2143 -0.7407
   46SOL    MW4  232   2.435   1.562   0.855  0.1855 -0.0260 -0.0073
   47SOL     OW  233   2.498   2.323   1.157 -0.1445 -0.2418 -0.2902
   47SOL    HW2  234   2.560   2.390   1.184  1.6244 -2.3527  1.0558
   47SOL    HW3  235   2.413   2.356   1.185  0.5086  2.0692 -0.9336
   47SOL    MW4  236   2.495   2.336   1.164  0.1752 -0.2153 -0.1974
   48SOL     OW  237   2.050   4.410   1.207  0.2110  0.1509  0.1318
   48SOL    HW2  238   2.063   4.388   1.300  0.4923 -1.2465 -0.2300
   48SOL    HW3  239   1.977   4.355   1.179 -0.9538  1.7515 -0.0776
   48SOL    MW4  240   2.042   4.400   1.216  0.0947  0.1774  0.0565
   49SOL     OW  241   4.070   2.797   0.346 -0.4503  0.4382  0.1782
   49SOL    HW2  242   4.095   2.890   0.342  0.3235  0.1824 -1.3805
   49SOL    HW3  243   4.057   2.772   0.254 -1.4561 -0.7855  0.6419
   49SOL    MW4  244   4.072   2.806   0.333 -0.4811  0.2429  0.0337
   50SOL     OW  245   3.294   3.333   0.703  0.3086 -0.2121 -0.0179
   50SOL    HW2  246   3.223   3.304   0.646 -0.4564  1.9179 -0.2079
   50SOL    HW3  247   3.300   3.265   0.771 -1.7100 -0.5681 -0.1670
   50SOL    MW4  248   3.286   3.320   0.705 -0.0589  0.0219 -0.0626
   51SOL     OW  249   3.687   0.745   0.528 -0.2398  0.0735 -0.4379
   51SOL    HW2  250   3.743   0.686   0.477 -0.1438  0.5440 -0.8773
   51SOL    HW3  251   3.733   0.829   0.528  0.0100 -0.0484  0.8541
   51SOL    MW4  252   3.700   0.748   0.521 -0.1941  0.1195 -0.3254
   52SOL     OW  253   3.044   4.647   0.475 -0.0316  0.2632  0.2279
   52SOL    HW2  254   3.031   4.741   0.486  1.1034  0.5127 -0.4763
   52SOL    HW3  255   3.061   4.637   0.381 -1.1182 -0.7667  0.1252
   52SOL    MW4  256   3.045   4.658   0.464 -0.0253  0.1602  0.1215
   53SOL     OW  257   1.348   4.239   0.840 -0.1132  0.2296  0.4172
   53SOL    HW2  258   1.363   4.261   0.932 -0.1333  0.5770  0.3370
   53SOL    HW3  259   1.430   4.199   0.811 -0.5216 -1.0001  0.9243
   53SOL    MW4  260   1.361   4.236   0.849 -0.1698  0.1135  0.4736
   54SOL     OW  261   1.122   0.242   0.737  0.3546 -0.0870 -0.3428
   54SOL    HW2  262   1.143   0.259   0.645 -0.5042 -3.9142 -1.3536
   54SOL    HW3  263   1.052   0.303   0.758  1.3033  1.5729 -1.8946
   54SOL    MW4  264   1.116   0.252   0.727  0.3664 -0.3730 -0.6809
   55SOL     OW  265   2.960   0.254   0.536 -0.1457 -0.4610 -0.4911
   55SOL    HW2  266   2.978   0.341   0.501  2.1249 -1.1781 -1.1889
   55SOL    HW3  267   2.960   0.266   0.631  1.3830  0.1009 -0.5429
   55SOL    MW4  268   2.962   0.267   0.544  0.3557 -0.4815 -0.5901
   56SOL     OW  269   3.413   1.820   0.523 -0.1884  0.3059  0.2275
   56SOL    HW2  270   3.499   1.837   0.484  0.2790 -1.4152  0.4634
   56SOL    HW3  271   3.351   1.866   0.466  0.8484  1.2193 -0.1739
   56SOL    MW4  272   3.416   1.828   0.510  0.0103  0.1993  0.2057
   57SOL     OW  273   2.275   1.951   1.088  0.7624  0.0880 -0.0826
   57SOL    HW2  274   2.196   1.993   1.123  0.5750  0.6434 -1.1504
   57SOL    HW3  275   2.275   1.973   0.995  2.9582  1.3487  0.1622
   57SOL    MW4  276   2.265   1.960   1.080  1.0273  0.3276 -0.1912
   58SOL     OW  277   2.776   4.536   0.533 -0.1105  0.3757 -0.3748
   58SOL    HW2  278   2.776   4.441   0.527 -1.7080  0.2449  1.2550
   58SOL    HW3  279   2.863   4.562   0.504  0.4843 -1.6184 -0.4282
   58SOL    MW4  280   2.787   4.527   0.529 -0.2427  0.0954 -0.1668
   59SOL     OW  281   3.777   2.403   0.875 -0.0317  0.2906  0.6701
   59SOL    HW2  282   3.871   2.399   0.857 -0.1588 -2.5815  0.4550
   59SOL    HW3  283   3.769   2.377   0.967 -0.7192 -1.2349  0.2072
   59SOL    MW4  284   3.788   2.399   0.885 -0.1390 -0.2897  0.5807
   60SOL     OW  285   3.117   1.192   0.840 -0.4711 -0.4801 -0.1909
   60SOL    HW2  286   3.116   1.275   0.793  0.1857  0.1573  0.9077
   60SOL    HW3  287   3.196   1.148   0.809 -0.2325 -0.2184  0.0428
   60SOL    MW4  288   3.127   1.197   0.830 -0.3529 -0.3616 -0.0151
   61SOL     OW  289   0.190   3.844   0.773 -0.0414 -0.0363 -0.1137
   61SOL    HW2  290   0.269   3.792   0.758 -0.5923 -0.6496 -0.9050
   61SOL    HW3  291   0.185   3.853   0.868 -0.3189 -1.9979  0.0688
   61SOL    MW4  292   0.200   3.838   0.784 -0.1507 -0.3762 -0.1940
   62SOL     OW  293   0.638   3.586   0.299  0.5507 -0.3799 -0.4366
   62SOL    HW2  294   0.561   3.600   0.355 -0.2586 -1.2771 -1.2943
   62SOL    HW3  295   0.675   3.503   0.330  0.1922 -0.7982 -1.1075
   62SOL    MW4  296   0.633   3.577   0.310  0.3966 -0.5534 -0.6383
   63SOL     OW  297   2.726   0.903   1.239  0.4006 -0.3500  0.0889
   63SOL    HW2  298   2.803   0.885   1.185 -0.1586 -0.1917 -0.7663
   63SOL    HW3  299   2.654   0.860   1.193  0.0676 -1.0012  1.1952
   63SOL    MW4  300   2.727   0.895   1.226  0.2830 -0.4151  0.1221
   64SOL     OW  301   0.684   2.341   0.815 -0.4532 -0.1780 -0.0484
   64SOL    HW2  302   0.594   2.307   0.810 -0.3519 -0.3226 -1.1950
   64SOL    HW3  303   0.674   2.436   0.816 -0.6738 -0.2062  1.4592
   64SOL    MW4  304   0.671   2.349   0.814 -0.4689 -0.2010 -0.0008
   65SOL     OW  305   1.215   1.809   0.195  0.4719  0.4544  0.2319
   65SOL    HW2  306   1.190   1.843   0.109  0.7955  0.3802  0.1069
   65SOL    HW3  307   1.137   1.763   0.226  0.9624 -1.1708 -0.8655
   65SOL    MW4  308   1.201   1.807   0.188  0.5792  0.2302  0.0706
   66SOL     OW  309   1.122   0.806   1.067  0.0198 -0.2629 -0.0055
   66SOL    HW2  310   1.106   0.784   0.975  1.4403  0.9817 -0.5750
   66SOL    HW3  311   1.137   0.722   1.109 -0.1982 -0.8161 -1.0127
   66SOL    MW4  312   1.122   0.792   1.060  0.1785 -0.1717 -0.2136
   67SOL     OW  313   3.233   1.946   0.344  0.0795 -0.1962  0.1617
   67SOL    HW2  314   3.184   1.870   0.313  0.1725  0.1691 -0.8807
   67SOL    HW3  315   3.167   2.015   0.354  0.5545  0.6847 -2.5052
   67SOL    MW4  316   3.218   1.945   0.341  0.1543 -0.0317 -0.3277
   68SOL     OW  317   3.508   1.358   0.472 -0.8310  0.3788  0.0121
   68SOL    HW2  318   3.566   1.350   0.547 -1.2166  1.5541  0.4559
   68SOL    HW3  319   3.563   1.393   0.402 -0.6134 -0.1362 -0.0767
   68SOL    MW4  320   3.523   1.362   0.472 -0.8533  0.4659  0.0589
   69SOL     OW  321   2.035   0.735   0.402  0.3771 -0.2687 -0.1405
   69SOL    HW2  322   2.111   0.680   0.423  1.1476  0.8554  0.0110
   69SOL    HW3  323   2.066   0.794   0.334 -0.0446  0.9372  0.7091
   69SOL    MW4  324   2.049   0.735   0.396  0.4230  0.0387 -0.0084
   70SOL     OW  325   1.796   2.001   0.849  0.3637 -0.6741  0.0813
   70SOL    HW2  326   1.801   1.980   0.942 -0.4728  1.2773  0.6042
   70SOL    HW3  327   1.724   1.947   0.816  0.1622 -0.8075  0.7370
   70SOL    MW4  328   1.787   1.991   0.857  0.2267 -0.4342  0.2368
   71SOL     OW  329   3.230   2.480   0.345 -0.5568 -0.6606 -0.1250
   71SOL    HW2  330   3.292   2.454   0.276  0.0523 -1.2100  0.6319
   71SOL    HW3  331   3.169   2.539   0.300  0.0976 -0.6615 -1.0410
   71SOL    MW4  332   3.230   2.485   0.330 -0.3901 -0.7334 -0.1460
   72SOL     OW  333   3.847   2.869   0.779 -0.3391  0.2083 -0.0411
   72SOL    HW2  334   3.796   2.942   0.815 -1.2541 -0.9989  1.1346
   72SOL    HW3  335   3.801   2.790   0.807  1.1562 -0.8674 -0.5209
   72SOL    MW4  336   3.834   2.868   0.787 -0.2627 -0.0927  0.0507
   73SOL     OW  337   0.382   4.114   0.431  0.2901  0.3556  0.2285
   73SOL    HW2  338   0.458   4.129   0.375  0.3979 -0.3234  0.1906
   73SOL    HW3  339   0.348   4.202   0.450 -0.0740  0.5691 -1.3598
   73SOL    MW4  340   0.388   4.128   0.426  0.2563  0.2942  0.0139
   74SOL     OW  341   4.374   2.513   0.656  0.0946  0.1188  0.4314
   74SOL    HW2  342   4.385   2.418   0.662  0.3569  0.0836 -0.5943
   74SOL    HW3  343   4.291   2.525   0.611  0.5001  0.3715 -0.2566
   74SOL    MW4  344   4.365   2.502   0.651  0.1826  0.1476  0.2053
   75SOL     OW  345   0.901   0.747   0.403 -0.1287  0.0825  0.4560
   75SOL    HW2  346   0.894   0.738   0.498  0.5109  0.8734  0.5783
   75SOL    HW3  347   0.994   0.734   0.385  0.0402  1.6661  0.1261
   75SOL    MW4  348   0.913   0.744   0.413 -0.0220  0.3958  0.4286
   76SOL     OW  349   0.683   3.087   0.790 -0.0999 -0.3697  0.1148
   76SOL    HW2  350   0.682   3.180   0.769  1.3110 -0.7672 -1.9573
   76SOL    HW3  351   0.672   3.083   0.885 -0.3095  1.8827  0.2136
   76SOL    MW4  352   0.681   3.098   0.799  0.0586 -0.1249 -0.1456
   77SOL     OW  353   3.138   2.982   0.460 -0.6596  0.2650  0.0364
   77SOL    HW2  354   3.071   2.918   0.438 -0.1336 -0.2817  0.0312
   77SOL    HW3  355   3.150   2.973   0.555  0.5817 -0.7870 -0.2065
   77SOL    MW4  356   3.131   2.972   0.469 -0.4265  0.0544  0.0037
   78SOL     OW  357   1.560   3.880   0.769  0.4241 -0.0242  0.1970
   78SOL    HW2  358   1.574   3.884   0.864  0.6425  0.7938  0.1399
   78SOL    HW3  359   1.563   3.972   0.741  1.1902 -0.3217 -0.7179
   78SOL    MW4  360   1.562   3.893   0.778  0.5540  0.0443  0.0687
   79SOL     OW  361   3.222   2.696   0.855 -0.2662  0.1992  0.5963
   79SOL    HW2  362   3.198   2.775   0.807 -2.8154 -1.0069 -0.2055
   79SOL    HW3  363   3.186   2.708   0.942 -3.1163 -1.1978 -0.3264
   79SOL    MW4  364   3.214   2.708   0.860 -0.9787 -0.1442  0.3688
   80SOL     OW  365   1.069   3.565   0.409 -0.0092 -0.2611 -0.1790
   80SOL    HW2  366   0.994   3.624   0.405 -0.1015 -0.3618  0.0443
   80SOL    HW3  367   1.145   3.622   0.400 -0.1207 -0.1976 -0.7529
   80SOL    MW4  368   1.069   3.580   0.407 -0.0360 -0.2658 -0.2253
   81SOL     OW  369   2.312   2.255   0.763  0.1449  0.2720  0.1027
   81SOL    HW2  370   2.300   2.160   0.765  2.2559 -0.0340 -0.0578
   81SOL    HW3  371   2.397   2.269   0.806 -1.0167  2.2603  1.8278
   81SOL    MW4  372   2.322   2.244   0.769  0.2699  0.4940  0.3091
   82SOL     OW  373   0.993   4.504   0.392  0.2350  0.2528  0.2857
   82SOL    HW2  374   0.906   4.479   0.363 -0.4906  1.9093  0.9822
   82SOL    HW3  375   0.997   4.599   0.378  2.2161  0.0762 -0.5043
   82SOL    MW4  376   0.982   4.513   0.386  0.4006  0.4487  0.2734
   83SOL     OW  377   1.290   3.004   0.492  0.4739  0.4778 -0.3999
   83SOL    HW2  378   1.377   2.986   0.456  0.6911  2.1439 -0.7547
   83SOL    HW3  379   1.293   3.096   0.516 -1.2176  0.5631 -0.4608
   83SOL    MW4  380   1.302   3.013   0.490  0.2794  0.7088 -0.4548
   84SOL     OW  381   4.019   3.771   0.681 -0.0102  0.0739  0.0758
   84SOL    HW2  382   4.106   3.782   0.719  0.5884  0.3185 -1.3391
   84SOL    HW3  383   4.034   3.765   0.586 -1.4835 -0.3602 -0.1515
   84SOL    MW4  384   4.032   3.772   0.673 -0.1259  0.0489 -0.1409
   85SOL     OW  385   3.475   3.686   0.503 -0.3986 -0.2100  0.1189
   85SOL    HW2  386   3.479   3.597   0.465  1.7999  0.7031 -1.9512
   85SOL    HW3  387   3.388   3.718   0.478 -0.9495 -1.5296  0.2845
   85SOL    MW4  388   3.464   3.678   0.494 -0.1812 -0.2637 -0.1324
   86SOL     OW  389   3.468   0.857   0.389  0.3080  0.1883 -0.6821
   86SOL    HW2  390   3.529   0.807   0.442 -1.8282 -1.1665  0.5863
   86SOL    HW3  391   3.396   0.796   0.371 -0.1511  1.3772 -3.0863
   86SOL    MW4  392   3.467   0.843   0.393 -0.0343  0.1664 -0.8320
   87SOL     OW  393   2.163   3.880   0.419 -0.3504 -0.2211  0.3852
   87SOL    HW2  394   2.197   3.837   0.498 -0.0203 -0.1301  0.2922
   87SOL    HW3  395   2.080   3.835   0.401 -0.0216 -0.7985  0.3106
   87SOL    MW4  396   2.156   3.868   0.427 -0.2635 -0.2856  0.3631
   88SOL     OW  397   3.982   2.015   0.617  0.4242  0.4011  0.4477
   88SOL    HW2  398   3.908   1.965   0.653  0.2837  0.3075  0.0239
   88SOL    HW3  399   4.044   2.020   0.690  0.7287 -0.9780  0.3125
   88SOL    MW4  400   3.981   2.009   0.632  0.4463  0.2069  0.3740
   89SOL     OW  401   4.291   4.619   0.412  0.4538  0.2471 -0.3787
   89SOL    HW2  402   4.308   4.702   0.457 -0.8522 -0.5077  1.5912
   89SOL    HW3  403   4.220   4.639   0.351 -0.7258  0.3108  0.9921
   89SOL    MW4  404   4.284   4.633   0.410  0.1254  0.1559  0.0621
   90SOL     OW  405   0.876   2.743   1.102 -0.2878  0.6250  0.1455
   90SOL    HW2  406   0.875   2.753   1.007 -2.5892 -0.0580  0.0741
   90SOL    HW3  407   0.900   2.652   1.117  0.7779  0.9073  0.2780
   90SOL    MW4  408   0.879   2.733   1.092 -0.4508  0.5722  0.1537
   91SOL     OW  409   3.345   1.107   0.486  0.1306 -0.2417  0.3501
   91SOL    HW2  410   3.384   1.024   0.458  0.1493 -0.7034  1.7233
   91SOL    HW3  411   3.415   1.171   0.478  0.3451 -0.5107  0.0657
   91SOL    MW4  412   3.359   1.104   0.481  0.1614 -0.3382  0.4937
   92SOL     OW  413   4.059   1.154   1.173 -0.0671 -0.1264  0.3466
   92SOL    HW2  414   4.070   1.156   1.078  0.5855  1.9422  0.4427
   92SOL    HW3  415   3.985   1.213   1.189  1.2784  1.3292  1.2945
   92SOL    MW4  416   4.051   1.162   1.162  0.1974  0.3386  0.4845
   93SOL     OW  417   3.335   1.049   0.762 -0.3938  0.4215  0.2002
   93SOL    HW2  418   3.420   1.083   0.791  0.1135 -0.7195  0.0769
   93SOL    HW3  419   3.338   1.058   0.667  0.0798 -0.7166  0.0986
   93SOL    MW4  420   3.347   1.054   0.753 -0.2644  0.1209  0.1705
   94SOL     OW  421   4.115   1.863   0.386  0.1901  0.2683  0.1989
   94SOL    HW2  422   4.071   1.898   0.463  0.5897  0.6084  0.2721
   94SOL    HW3  423   4.171   1.934   0.356  2.0863 -0.7753  1.1970
   94SOL    MW4  424   4.116   1.877   0.393  0.4935  0.1754  0.3403
   95SOL     OW  425   3.846   0.975   0.569  0.1457  0.1977 -0.0989
   95SOL    HW2  426   3.845   1.052   0.511  0.0903  0.1164 -0.2070
   95SOL    HW3  427   3.934   0.939   0.559 -0.6537 -1.2884 -2.0910
   95SOL    MW4  428   3.857   0.981   0.560  0.0327 -0.0091 -0.3760
   96SOL     OW  429   1.052   0.767   0.774  0.3991  0.0343  0.1202
   96SOL    HW2  430   1.127   0.710   0.762  0.2387 -0.0620 -0.4504
   96SOL    HW3  431   1.088   0.856   0.766  0.7686  0.0349  1.7153
   96SOL    MW4  432   1.066   0.771   0.771  0.4267  0.0216  0.2553
   97SOL     OW  433   0.680   3.338   0.707 -0.3272 -0.4993  0.0153
   97SOL    HW2  434   0.656   3.349   0.615  0.0577  1.6511  0.1661
   97SOL    HW3  435   0.606   3.375   0.755  0.9653  1.4546  0.5290
   97SOL    MW4  436   0.667   3.344   0.701 -0.1059  0.0424  0.1030
   98SOL     OW  437   2.050   2.344   0.825 -0.1327  0.2110  0.3867
   98SOL    HW2  438   2.042   2.333   0.920 -0.0316  0.5599  0.4353
   98SOL    HW3  439   2.137   2.311   0.804 -0.2776 -0.1668  0.3680
   98SOL    MW4  440   2.060   2.338   0.835 -0.1385  0.2072  0.3906
   99SOL     OW  441   0.504   4.537   0.752  0.2999  0.6191 -0.1442
   99SOL    HW2  442   0.500   4.536   0.657 -0.2823 -1.9028 -0.1412
   99SOL    HW3  443   0.499   4.445   0.777 -0.1504  1.2774  2.3483
   99SOL    MW4  444   0.503   4.525   0.743  0.1637  0.3729  0.1850
  100SOL     OW  445   1.048   2.520   0.501  0.1265  0.3543  0.3694
  100SOL    HW2  446   1.130   2.473   0.485 -0.2448 -0.6457  1.2755
  100SOL    HW3  447   0.980   2.459   0.472 -0.3273  0.7700  0.5519
  100SOL    MW4  448   1.049   2.506   0.495  0.0176  0.2773  0.5130
  101SOL     OW  449   2.466   1.302   1.268 -0.3994  0.0671 -0.1317
  101SOL    HW2  450   2.472   1.391   1.234  0.2797 -0.3093 -1.0356
  101SOL    HW3  451   2.537   1.255   1.223 -1.1160 -1.0546 -0.0959
  101SOL    MW4  452   2.476   1.307   1.258 -0.4044 -0.1305 -0.2462
  102SOL     OW  453   1.578   0.245   0.719  0.1135 -0.6910  0.0544
  102SOL    HW2  454   1.570   0.151   0.736 -0.2108 -0.7648 -0.4877
  102SOL    HW3  455   1.614   0.250   0.631  0.8065 -0.3087  0.3643
  102SOL    MW4  456   1.581   0.233   0.710  0.1621 -0.6503  0.0238
  103SOL     OW  457   4.127   0.286   0.301  0.6253 -0.4250  0.0939
  103SOL    HW2  458   4.153   0.364   0.251  1.3697 -1.7800 -1.7102
  103SOL    HW3  459   4.210   0.252   0.335  0.1431  0.3409  2.0618
  103SOL    MW4  460   4.141   0.292   0.299  0.6599 -0.5027  0.1155
  104SOL     OW  461   2.505   4.117   0.758 -0.1592  0.6429  0.3623
  104SOL    HW2  462   2.560   4.182   0.800  0.3851  1.3781 -1.4639
  104SOL    HW3  463   2.511   4.136   0.665 -1.0303 -1.2053 -0.1001
  104SOL    MW4  464   2.513   4.128   0.752 -0.2022  0.4959  0.0604
  105SOL     OW  465   1.556   3.663   1.190  0.1768 -0.2881 -0.0134
  105SOL    HW2  466   1.573   3.744   1.141 -0.0722 -0.3982 -0.2728
  105SOL    HW3  467   1.482   3.622   1.146  0.3085 -0.6658  0.1138
  105SOL    MW4  468   1.549   3.669   1.178  0.1613 -0.3524 -0.0309
  106SOL     OW  469   2.953   0.022   0.885  0.2276 -0.0507  0.4259
  106SOL    HW2  470   2.871  -0.016   0.855 -0.1399  1.0765 -0.0171
  106SOL    HW3  471   2.940   0.039   0.978 -0.1987  0.5537  0.2530
  106SOL    MW4  472   2.941   0.019   0.894  0.1228  0.1778  0.3446
  107SOL     OW  473   3.174   2.004   0.842  0.1827  0.0249  0.1591
  107SOL    HW2  474   3.191   2.095   0.817  1.3416 -0.0140  0.7461
  107SOL    HW3  475   3.123   1.968   0.770  0.5779  0.8673 -0.5493
  107SOL    MW4  476   3.169   2.011   0.830  0.3879  0.1309  0.1431
  108SOL     OW  477   2.262   3.503   0.742 -0.5210  0.4515  0.4821
  108SOL    HW2  478   2.246   3.506   0.836  1.6791  0.3293  0.8717
  108SOL    HW3  479   2.336   3.443   0.731 -0.6443  0.5883 -1.3055
  108SOL    MW4  480   2.270   3.496   0.753 -0.2472  0.4532  0.2976
  109SOL     OW  481   3.823   2.096   1.217  0.2387  0.2118  0.1128
  109SOL    HW2  482   3.737   2.058   1.197 -0.9813  1.8361  2.1430
  109SOL    HW3  483   3.835   2.080   1.310  1.0043  2.2326  0.3673
  109SOL    MW4  484   3.813   2.089   1.226  0.1788  0.6926  0.4143
  110SOL     OW  485   2.436   0.785   0.670 -0.0330  0.2556  0.2079
  110SOL    HW2  486   2.478   0.747   0.593 -0.3846 -0.5816  0.4225
  110SOL    HW3  487   2.362   0.727   0.688 -1.0135  1.4605  0.0950
  110SOL    MW4  488   2.432   0.772   0.662 -0.2089  0.3041  0.2213
  111SOL     OW  489   0.007   0.886   1.235  0.3635 -0.2539 -0.2952
  111SOL    HW2  490  -0.064   0.830   1.207  1.2940 -1.8531  0.4774
  111SOL    HW3  491   0.000   0.887   1.331  1.6607 -0.8164 -0.1876
  111SOL    MW4  492  -0.003   0.879   1.244  0.6576 -0.5391 -0.1791
  112SOL     OW  493   0.858   1.934   0.474 -0.1167  0.1543 -0.1824
  112SOL    HW2  494   0.890   2.021   0.450 -0.2766  0.1368 -0.4651
  112SOL    HW3  495   0.911   1.874   0.420 -0.9840  0.1509 -1.0430
  112SOL    MW4  496   0.869   1.937   0.464 -0.2522  0.1514 -0.3332
  113SOL     OW  497   4.160   2.536   0.476  0.6561 -0.0712  0.1572
  113SOL    HW2  498   4.171   2.475   0.403 -0.8168  0.1708 -0.2753
  113SOL    HW3  499   4.152   2.622   0.435 -0.5464  0.0237  0.5639
  113SOL    MW4  500   4.161   2.539   0.461  0.3033 -0.0265  0.1538
  114SOL     OW  501   0.008   1.280   0.485  0.4187 -0.2342  0.2798
  114SOL    HW2  502   0.095   1.317   0.470  0.7599 -1.2896 -0.3516
  114SOL    HW3  503   0.019   1.186   0.469 -0.8082 -0.3829  0.3126
  114SOL    MW4  504   0.021   1.273   0.481  0.3018 -0.3933  0.2008
  115SOL     OW  505   0.078   0.372   1.173 -0.1380  0.2357 -0.5016
  115SOL    HW2  506   0.061   0.351   1.081  0.4174 -0.1110 -0.5277
  115SOL    HW3  507  -0.002   0.414   1.203 -0.7973 -0.7999 -0.7980
  115SOL    MW4  508   0.066   0.375   1.165 -0.1518  0.0533 -0.5441
  116SOL     OW  509   2.572   0.628   0.461  0.2786 -0.0670 -0.1216
  116SOL    HW2  510   2.662   0.659   0.475  0.2572  0.6406 -1.4589
  116SOL    HW3  511   2.581   0.532   0.455  0.6580 -0.1625  1.7215
  116SOL    MW4  512   2.585   0.619   0.462  0.3259  0.0137 -0.0549
  117SOL     OW  513   3.198   0.159   1.246 -0.0069 -0.4189 -0.1642
  117SOL    HW2  514   3.117   0.121   1.215  0.0429 -0.7543  0.1087
  117SOL    HW3  515   3.200   0.139   1.340  0.9666 -1.4754 -0.3938
  117SOL    MW4  516   3.188   0.152   1.254  0.1283 -0.6025 -0.1585
  118SOL     OW  517   1.118   3.629   1.161 -0.4818  0.1013  0.0596
  118SOL    HW2  518   1.054   3.577   1.113 -0.3591  0.4395 -0.4846
  118SOL    HW3  519   1.203   3.594   1.134 -0.3679  1.1931 -1.0459
  118SOL    MW4  520   1.120   3.618   1.151 -0.4506  0.2899 -0.1580
  119SOL     OW  521   1.208   0.253   0.461 -0.2224  0.0638  0.3524
  119SOL    HW2  522   1.281   0.196   0.435 -1.3165 -0.9812 -0.4792
  119SOL    HW3  523   1.240   0.342   0.445  0.4779 -0.4267 -1.0524
  119SOL    MW4  524   1.222   0.257   0.455 -0.2743 -0.1388  0.0573
  120SOL     OW  525   1.052   4.116   0.384 -0.4156  0.0775  0.0491
  120SOL    HW2  526   1.053   4.139   0.477 -0.9273  2.5107 -0.5165
  120SOL    HW3  527   1.097   4.189   0.341  1.4415 -1.8982 -1.4610
  120SOL    MW4  528   1.058   4.129   0.391 -0.2382  0.1378 -0.2247
  121SOL     OW  529   0.010   2.920   0.782 -0.4484  0.1819  0.2616
  121SOL    HW2  530  -0.072   2.949   0.823  0.4447 -0.0942  2.3360
  121SOL    HW3  531   0.075   2.983   0.813  0.2992 -0.1395 -0.6332
  121SOL    MW4  532   0.008   2.932   0.792 -0.2319  0.1030  0.4172
  122SOL     OW  533   0.006   3.897   0.345 -0.1247 -0.2527  0.0640
  122SOL    HW2  534   0.099   3.898   0.367 -0.1189  0.3519  0.0471
  122SOL    HW3  535  -0.010   3.984   0.308 -0.5231 -0.6301 -0.6706
  122SOL    MW4  536   0.016   3.909   0.343 -0.1765 -0.2227 -0.0352
  123SOL     OW  537   0.915   2.237   0.480 -0.5008 -0.6189  0.0984
  123SOL    HW2  538   0.832   2.286   0.475  0.1227  0.3842 -0.9195
  123SOL    HW3  539   0.918   2.203   0.569 -1.7284 -0.1468  0.3325
  123SOL    MW4  540   0.905   2.239   0.491 -0.5805 -0.4244 -0.0050
  124SOL     OW  541   1.482   4.496   0.430  0.0997 -0.1762 -0.3135
  124SOL    HW2  542   1.407   4.471   0.376  1.1552 -1.6551 -1.1590
  124SOL    HW3  543   1.454   4.478   0.520 -0.9782  0.4165 -0.5266
  124SOL    MW4  544   1.469   4.490   0.435  0.0967 -0.2928 -0.4532
  125SOL     OW  545   4.347   0.243   0.471 -0.0268  0.2228 -0.5286
  125SOL    HW2  546   4.440   0.267   0.466 -0.2853  1.2009 -0.7637
  125SOL    HW3  547   4.328   0.241   0.565 -0.1045  1.3944 -0.5098
  125SOL    MW4  548   4.357   0.246   0.483 -0.0706  0.5065 -0.5572
  126SOL     OW  549   1.378   2.693   1.111 -0.4241  0.3890  0.0379
  126SOL    HW2  550   1.289   2.718   1.137  0.1950  1.0826  1.5066
  126SOL    HW3  551   1.394   2.611   1.158 -0.1523  0.4460  0.0441
  126SOL    MW4  552   1.368   2.685   1.120 -0.3066  0.4878  0.2325
  127SOL     OW  553   4.269   1.318   1.238  0.1419  0.0668 -0.2631
  127SOL    HW2  554   4.199   1.260   1.208  0.7299 -0.6166 -0.3544
  127SOL    HW3  555   4.266   1.313   1.333 -1.0487  1.4083 -0.2199
  127SOL    MW4  556   4.259   1.310   1.246  0.0620  0.1537 -0.2693
  128SOL     OW  557   3.823   1.607   1.176  0.2412  0.4568  0.7389
  128SOL    HW2  558   3.839   1.526   1.225 -0.4100 -0.8778 -1.1707
  128SOL    HW3  559   3.909   1.648   1.168  0.4855  0.2656  2.2176
  128SOL    MW4  560   3.836   1.602   1.181  0.1876  0.2555  0.6820
  129SOL     OW  561   0.487   4.568   0.470  0.0778  0.1244 -0.0638
  129SOL    HW2  562   0.399   4.532   0.463 -0.0203  0.0214  1.4339
  129SOL    HW3  563   0.486   4.647   0.417 -0.8000 -0.0810 -0.3569
  129SOL    MW4  564   0.476   4.574   0.462 -0.0510  0.0834  0.0952
  130SOL     OW  565   2.054   0.305   0.442  0.0079  0.2836 -0.1227
  130SOL    HW2  566   2.080   0.230   0.389  2.4327  0.8513  0.1740
  130SOL    HW3  567   2.055   0.273   0.532  1.4754  0.7574  0.0426
  130SOL    MW4  568   2.058   0.291   0.447  0.5214  0.4210 -0.0618
  131SOL     OW  569   4.225   2.334   1.163 -0.2095 -0.0466 -0.2231
  131SOL    HW2  570   4.241   2.317   1.070 -1.3909  0.2216 -0.4860
  131SOL    HW3  571   4.134   2.363   1.166 -1.1340 -2.8728  1.3509
  131SOL    MW4  572   4.215   2.336   1.151 -0.4878 -0.3841 -0.0502
  132SOL     OW  573   1.809   0.619   0.744 -0.4067 -0.4910 -0.0451
  132SOL    HW2  574   1.873   0.682   0.777 -1.4653  0.3804  0.4055
  132SOL    HW3  575   1.835   0.603   0.654 -1.2408  2.1202 -0.7986
  132SOL    MW4  576   1.821   0.625   0.737 -0.6564 -0.0315 -0.0851
  133SOL     OW  577   0.242   1.537   0.852 -0.2159  0.0191 -0.0645
  133SOL    HW2  578   0.236   1.629   0.826  2.3970 -0.0893 -1.2056
  133SOL    HW3  579   0.158   1.499   0.827  0.0622  1.2626 -3.0336
  133SOL    MW4  580   0.230   1.544   0.846  0.1655  0.1688 -0.6068
  134SOL     OW  581   1.788   3.503   0.819  0.1895 -0.0481 -0.2428
  134SOL    HW2  582   1.862   3.448   0.793  0.2794  1.0044 -2.3156
  134SOL    HW3  583   1.808   3.589   0.781 -0.8739  0.9226  1.3329
  134SOL    MW4  584   1.800   3.507   0.810  0.0610  0.2189 -0.3083
  135SOL     OW  585   0.661   0.742   0.191  0.3820  0.3939  0.2627
  135SOL    HW2  586   0.700   0.670   0.241  0.0208 -1.5470 -2.1288
  135SOL    HW3  587   0.726   0.763   0.125 -0.1839  1.1592 -0.0574
  135SOL    MW4  588   0.675   0.735   0.189  0.2596  0.2388 -0.0950
  136SOL     OW  589   2.982   0.275   0.796 -0.1879 -0.7396  0.3742
  136SOL    HW2  590   2.898   0.320   0.808  0.2295 -0.9093  4.7065
  136SOL    HW3  591   2.968   0.188   0.833  1.4422 -1.3085 -0.3231
  136SOL    MW4  592   2.969   0.270   0.803  0.0823 -0.8371  0.8538
  137SOL     OW  593   0.257   0.809   0.850 -0.0347 -0.3053 -0.1862
  137SOL    HW2  594   0.242   0.813   0.945  0.4488  0.5088 -0.1444
  137SOL    HW3  595   0.242   0.898   0.819 -0.9834 -0.7381 -1.0052
  137SOL    MW4  596   0.253   0.821   0.859 -0.0961 -0.2550 -0.2887
  138SOL     OW  597   2.330   4.346   0.498 -0.4195 -0.1125  0.3238
  138SOL    HW2  598   2.335   4.433   0.458 -0.1402 -0.2927 -0.0490
  138SOL    HW3  599   2.246   4.310   0.469  0.1624 -0.5835 -0.8379
  138SOL    MW4  600   2.320   4.352   0.489 -0.3059 -0.1988  0.1213
  139SOL     OW  601   1.162   1.817   0.727  0.3187 -0.2174 -0.0967
  139SOL    HW2  602   1.085   1.860   0.763  0.2055  0.8998 -1.6248
  139SOL    HW3  603   1.236   1.862   0.767  0.2186 -1.4062  1.5070
  139SOL    MW4  604   1.162   1.828   0.737  0.2906 -0.2269 -0.0867
  140SOL     OW  605   0.734   4.667   0.836 -0.2641  0.0026  0.6006
  140SOL    HW2  606   0.806   4.636   0.780 -0.3787  0.8073  0.0052
  140SOL    HW3  607   0.656   4.627   0.799 -0.3622  0.6760  0.0720
  140SOL    MW4  608   0.734   4.657   0.824 -0.2922  0.1979  0.4523
  141SOL     OW  609   2.272   4.246   0.862  0.1687 -0.2686  0.6033
  141SOL    HW2  610   2.282   4.332   0.823  0.2258  0.1619  1.5376
  141SOL    HW3  611   2.346   4.195   0.829 -1.1131 -0.6795 -1.7587
  141SOL    MW4  612   2.283   4.250   0.853  0.0072 -0.2661  0.4148
  142SOL     OW  613   0.103   4.236   0.623 -0.7558  0.1818  0.3210
  142SOL    HW2  614   0.151   4.174   0.677 -0.8373  0.8469  1.1758
  142SOL    HW3  615   0.070   4.302   0.685 -1.0705  0.8179 -0.5026
  142SOL    MW4  616   0.105   4.237   0.638 -0.8081  0.3538  0.3252
  143SOL     OW  617   3.860   0.551   0.383 -0.1898 -0.2838 -0.1514
  143SOL    HW2  618   3.809   0.509   0.314 -0.4678  0.0125 -0.1336
  143SOL    HW3  619   3.889   0.480   0.439 -1.9873 -0.3414  0.7757
  143SOL    MW4  620   3.857   0.536   0.381 -0.4637 -0.2523 -0.0267
  144SOL     OW  621   3.211   1.964   1.108  0.5325  0.3686 -0.1012
  144SOL    HW2  622   3.222   1.870   1.121  1.6844  0.6081  0.7226
  144SOL    HW3  623   3.193   1.974   1.014 -0.5937 -0.7504 -0.0143
  144SOL    MW4  624   3.210   1.953   1.097  0.5355  0.2526  0.0190
  145SOL     OW  625   1.545   1.053   0.686  0.2134  0.3022 -0.1404
  145SOL    HW2  626   1.628   1.089   0.717 -0.4472  1.7182 -0.0219
  145SOL    HW3  627   1.538   0.969   0.732  0.6702  1.0372  1.3008
  145SOL    MW4  628   1.555   1.046   0.696  0.1866  0.5859  0.0654
  146SOL     OW  629   0.146   3.595   0.416 -0.1183  0.6139 -0.1566
  146SOL    HW2  630   0.174   3.686   0.412 -0.6173  0.8806  1.6839
  146SOL    HW3  631   0.063   3.598   0.465  0.3943 -0.9126  0.8543
  146SOL    MW4  632   0.138   3.607   0.422 -0.1165  0.4478  0.2196
  147SOL     OW  633   3.135   3.544   0.858 -0.0716  0.2577 -0.5082
  147SOL    HW2  634   3.120   3.628   0.814 -1.2794 -0.1694 -0.9475
  147SOL    HW3  635   3.194   3.497   0.799  1.6188  1.2455  0.3331
  147SOL    MW4  636   3.141   3.549   0.844 -0.0079  0.3319 -0.4551
  148SOL     OW  637   0.740   0.516   0.346  0.1658 -0.1421 -0.5239
  148SOL    HW2  638   0.800   0.580   0.384 -0.2623 -0.3914  0.5897
  148SOL    HW3  639   0.658   0.529   0.393 -0.0177 -1.2864 -0.5172
  148SOL    MW4  640   0.737   0.526   0.357  0.0851 -0.3260 -0.3761
  149SOL     OW  641   1.892   3.282   0.465  0.1547 -0.5786  0.5542
  149SOL    HW2  642   1.803   3.251   0.451 -0.2424 -0.1108  1.9601
  149SOL    HW3  643   1.948   3.209   0.437 -0.6460 -0.6320 -0.9355
  149SOL    MW4  644   1.888   3.268   0.459 -0.0033 -0.5240  0.5431
  150SOL     OW  645   4.474   2.665   0.873  0.4766 -0.2770 -0.6697
  150SOL    HW2  646   4.421   2.628   0.803  1.2065  0.2501 -1.5036
  150SOL    HW3  647   4.481   2.759   0.852  1.6913 -0.3300 -0.5466
  150SOL    MW4  648   4.468   2.673   0.861  0.7334 -0.2148 -0.7634
  151SOL     OW  649   2.904   3.713   0.375 -0.0981  0.4869  0.3445
  151SOL    HW2  650   2.900   3.771   0.299  0.3933 -0.9981 -0.8272
  151SOL    HW3  651   2.832   3.743   0.431  0.4719  2.5524  0.0121
  151SOL    MW4  652   2.894   3.724   0.372  0.0422  0.5636  0.1461
  152SOL     OW  653   0.697   4.448   0.327  0.2608  0.4414  0.0525
  152SOL    HW2  654   0.676   4.354   0.328  1.9712  0.0414 -0.4491
  152SOL    HW3  655   0.625   4.489   0.375 -0.6852 -1.0869 -0.0203
  152SOL    MW4  656   0.685   4.441   0.333  0.3617  0.1869 -0.0233
  153SOL     OW  657   3.448   2.433   0.886 -0.1059  0.0308 -0.2378
  153SOL    HW2  658   3.404   2.400   0.964 -0.1340 -0.5362 -0.4905
  153SOL    HW3  659   3.512   2.365   0.863 -0.8852 -0.3355 -1.3609
  153SOL    MW4  660   3.451   2.419   0.893 -0.2124 -0.0920 -0.4193
  154SOL     OW  661   3.234   0.385   0.870 -0.0973 -0.8506 -0.1188
  154SOL    HW2  662   3.151   0.347   0.840 -0.8223  0.6570 -0.0652
  154SOL    HW3  663   3.218   0.409   0.961  0.7156 -1.4189  0.1820
  154SOL    MW4  664   3.221   0.383   0.878 -0.0861 -0.7267 -0.0721
  155SOL     OW  665   0.905   0.160   1.169  0.0065  0.2544  0.2366
  155SOL    HW2  666   0.886   0.140   1.260  0.0979 -0.6034  0.0719
  155SOL    HW3  667   0.983   0.109   1.148 -0.0372  0.4137 -0.3339
  155SOL    MW4  668   0.913   0.151   1.178  0.0128  0.1623  0.1396
  156SOL     OW  669   1.761   1.167   0.803 -0.1339 -0.1216 -0.0850
  156SOL    HW2  670   1.742   1.257   0.776 -0.2429  0.1521  0.8847
  156SOL    HW3  671   1.772   1.172   0.898 -0.3898 -1.1771  0.0088
  156SOL    MW4  672   1.760   1.179   0.812 -0.1822 -0.2248  0.0554
  157SOL     OW  673   2.718   0.399   0.823  0.7314 -0.2175  0.1067
  157SOL    HW2  674   2.736   0.491   0.802 -0.4541  0.0471  0.2352
  157SOL    HW3  675   2.718   0.396   0.918 -2.5291  0.3284  0.1568
  157SOL    MW4  676   2.721   0.411   0.832  0.1447 -0.1105  0.1302
  158SOL     OW  677   3.839   3.213   0.627 -0.2359  0.3720  0.0571
  158SOL    HW2  678   3.927   3.182   0.645 -0.1998  0.7136  0.4667
  158SOL    HW3  679   3.835   3.220   0.531 -0.0999 -0.4537 -0.0048
  158SOL    MW4  680   3.850   3.210   0.616 -0.2131  0.3080  0.1030
  159SOL     OW  681   2.480   3.058   0.822  0.0630 -0.1023  0.1479
  159SOL    HW2  682   2.400   3.014   0.794  0.5465 -1.7033  1.2205
  159SOL    HW3  683   2.479   3.052   0.918  0.8464  0.9699  0.2364
  159SOL    MW4  684   2.469   3.051   0.831  0.2301 -0.1719  0.3010
  160SOL     OW  685   3.392   1.296   1.232  0.2287 -0.0933  0.0112
  160SOL    HW2  686   3.388   1.300   1.328  1.1684  1.0206  0.0135
  160SOL    HW3  687   3.309   1.256   1.207 -1.3570  2.3194  1.1501
  160SOL    MW4  688   3.381   1.291   1.242  0.1435  0.3721  0.1618
  161SOL     OW  689   3.385   3.873   1.120  0.5819 -0.3283 -0.4429
  161SOL    HW2  690   3.309   3.920   1.157 -0.2261  0.0571 -2.5058
  161SOL    HW3  691   3.388   3.791   1.168 -0.6012  0.0451  0.2962
  161SOL    MW4  692   3.375   3.869   1.131  0.3190 -0.2282 -0.6176
  162SOL     OW  693   2.790   4.244   0.490  0.0033 -0.5251 -0.0541
  162SOL    HW2  694   2.701   4.221   0.465  0.4700 -1.7300 -0.6299
  162SOL    HW3  695   2.845   4.203   0.424  1.0035  0.0226  0.4233
  162SOL    MW4  696   2.786   4.236   0.478  0.1969 -0.6123 -0.0671
  163SOL     OW  697   3.673   0.653   0.798  0.5149 -0.3510  0.3361
  163SOL    HW2  698   3.649   0.560   0.808  0.6090 -0.3602  0.4833
  163SOL    HW3  699   3.673   0.668   0.703  1.7396 -0.8309  0.2509
  163SOL    MW4  700   3.670   0.642   0.787  0.6888 -0.4156  0.3442
  164SOL     OW  701   1.330   3.495   0.785 -0.5330 -0.0214 -0.3560
  164SOL    HW2  702   1.307   3.584   0.761 -0.6972  0.1922  0.5540
  164SOL    HW3  703   1.403   3.472   0.728  0.9297  1.4686  0.8843
  164SOL    MW4  704   1.336   3.504   0.775 -0.3618  0.2036 -0.0722
  165SOL     OW  705   1.310   3.696   0.419  0.4300 -0.1200 -0.5946
  165SOL    HW2  706   1.324   3.710   0.513 -2.1740 -0.5064 -0.0932
  165SOL    HW3  707   1.381   3.638   0.393 -0.5120 -2.4772  1.8342
  165SOL    MW4  708   1.321   3.690   0.428 -0.0378 -0.4821 -0.2080
  166SOL     OW  709   2.010   3.370   0.711 -0.1560 -0.3581  0.4099
  166SOL    HW2  710   2.101   3.399   0.713 -0.1827 -0.3042  1.1486
  166SOL    HW3  711   1.990   3.359   0.618  0.3314  0.4776  0.1995
  166SOL    MW4  712   2.019   3.372   0.699 -0.0951 -0.2406  0.4796
  167SOL     OW  713   3.560   4.281   0.850 -0.3299 -0.0425 -0.0593
  167SOL    HW2  714   3.582   4.353   0.790  0.2908  1.0750  1.4642
  167SOL    HW3  715   3.485   4.238   0.809  0.8054 -0.0507 -2.2299
  167SOL    MW4  716   3.553   4.285   0.836 -0.0985  0.1040 -0.1447
  168SOL     OW  717   3.237   2.265   0.763  0.2798  0.3570 -0.5555
  168SOL    HW2  718   3.269   2.286   0.675  1.8979 -1.5834 -0.4524
  168SOL    HW3  719   3.298   2.310   0.821 -0.7305  1.5544 -0.3901
  168SOL    MW4  720   3.249   2.274   0.759  0.3600  0.2587 -0.5201
  169SOL     OW  721   1.569   3.368   0.688  0.1909  0.2035 -0.1568
  169SOL    HW2  722   1.570   3.290   0.743 -0.2546 -0.7316 -1.4476
  169SOL    HW3  723   1.651   3.413   0.709  0.5086 -0.6728  0.5130
  169SOL    MW4  724   1.580   3.363   0.698  0.1740 -0.0358 -0.2388
  170SOL     OW  725   0.198   2.849   0.390 -0.2723  0.0356  0.3396
  170SOL    HW2  726   0.166   2.762   0.411  2.4066 -0.8706  0.8029
  170SOL    HW3  727   0.208   2.849   0.295  1.5287 -0.8613  0.4962
  170SOL    MW4  728   0.195   2.838   0.380  0.3188 -0.2024  0.4214
  171SOL     OW  729   3.777   1.811   0.698 -0.0789 -0.4399 -0.6362
  171SOL    HW2  730   3.705   1.861   0.736  0.8851  1.1099 -0.8473
  171SOL    HW3  731   3.786   1.735   0.755 -1.7362 -0.5309 -0.4851
  171SOL    MW4  732   3.769   1.807   0.710 -0.1705 -0.2475 -0.6440
  172SOL     OW  733   4.465   3.675   0.748 -0.2165 -0.4490 -0.2334
  172SOL    HW2  734   4.547   3.724   0.749 -1.0713  1.0407 -0.9505
  172SOL    HW3  735   4.430   3.688   0.660 -1.9777  0.2309  0.5515
  172SOL    MW4  736   4.471   3.683   0.737 -0.5612 -0.1628 -0.2245
  173SOL     OW  737   3.355   2.392   1.155 -0.6429 -0.0440 -0.3399
  173SOL    HW2  738   3.273   2.418   1.197 -1.0370 -0.7766 -0.6642
  173SOL    HW3  739   3.423   2.431   1.211 -1.1785 -0.4784  0.6287
  173SOL    MW4  740   3.353   2.401   1.168 -0.7658 -0.1979 -0.2549
  174SOL     OW  741   1.122   0.554   1.173  0.5290  0.3147  0.3325
  174SOL    HW2  742   1.039   0.521   1.139  1.1332 -0.1778 -0.6795
  174SOL    HW3  743   1.116   0.540   1.267 -0.9363  1.1850  0.3751
  174SOL    MW4  744   1.111   0.548   1.181  0.4153  0.3645  0.2047
  175SOL     OW  745   0.208   1.584   1.136 -0.4941 -0.0682  0.4313
  175SOL    HW2  746   0.224   1.565   1.043 -1.8933  0.8883 -0.0383
  175SOL    HW3  747   0.219   1.500   1.180  0.3913 -0.4994 -0.5780
  175SOL    MW4  748   0.211   1.571   1.129 -0.5619  0.0011  0.2363
  176SOL     OW  749   0.895   2.722   0.827 -0.3668  0.5658  0.2414
  176SOL    HW2  750   0.808   2.684   0.816 -0.2308 -0.1829  1.5277
  176SOL    HW3  751   0.896   2.799   0.771 -1.3227 -0.2760 -0.9638
  176SOL    MW4  752   0.884   2.727   0.818 -0.4750  0.3557  0.2521
  177SOL     OW  753   0.678   3.880   1.073 -0.1055 -0.0398 -0.4134
  177SOL    HW2  754   0.747   3.932   1.115  0.1796 -1.3438  0.7893
  177SOL    HW3  755   0.596   3.915   1.108  0.0367  0.2244 -0.3448
  177SOL    MW4  756   0.676   3.891   1.083 -0.0492 -0.1771 -0.2457
  178SOL     OW  757   1.536   0.797   0.785  0.6555 -0.5110  0.3725
  178SOL    HW2  758   1.587   0.716   0.784  2.2326  0.4659  0.1252
  178SOL    HW3  759   1.539   0.826   0.876  0.3111 -0.5927  0.4106
  178SOL    MW4  760   1.543   0.790   0.797  0.8180 -0.3929  0.3449
  179SOL     OW  761   1.539   2.972   0.377 -0.1089 -0.1635  0.3094
  179SOL    HW2  762   1.490   2.994   0.298 -0.5177 -1.1493  0.2848
  179SOL    HW3  763   1.573   3.056   0.408 -0.4597  0.3090 -0.5701
  179SOL    MW4  764   1.537   2.986   0.370 -0.2091 -0.2313  0.1901
  180SOL     OW  765   3.245   3.443   0.345 -0.2707 -0.5991 -0.5039
  180SOL    HW2  766   3.190   3.376   0.385  0.0546 -0.2862  0.4922
  180SOL    HW3  767   3.335   3.414   0.363 -0.1266  0.1904  0.1087
  180SOL    MW4  768   3.250   3.431   0.353 -0.2089 -0.4537 -0.2916
  181SOL     OW  769   4.044   4.152   0.463  0.0052  0.2006  0.0417
  181SOL    HW2  770   4.049   4.246   0.484  0.0598  0.3285 -0.5440
  181SOL    HW3  771   3.950   4.134   0.460 -0.0048  0.0353  1.0270
  181SOL    MW4  772   4.032   4.162   0.466  0.0114  0.1955  0.0944
  182SOL     OW  773   0.424   2.225   0.764 -0.6263 -0.6480 -0.6554
  182SOL    HW2  774   0.421   2.131   0.779 -0.7036 -0.4801  0.3726
  182SOL    HW3  775   0.338   2.257   0.790  0.1378  0.0112  1.0958
  182SOL    MW4  776   0.412   2.217   0.769 -0.5357 -0.5386 -0.2887
  183SOL     OW  777   2.906   1.306   1.202  0.4130 -0.0576 -0.5714
  183SOL    HW2  778   2.828   1.260   1.171 -0.3269  0.5591  0.3467
  183SOL    HW3  779   2.903   1.297   1.297  0.9804  0.7364 -0.4739
  183SOL    MW4  780   2.896   1.299   1.211  0.3901  0.1284 -0.4375
  184SOL     OW  781   1.155   2.300   0.841 -0.3979  0.2860  0.0711
  184SOL    HW2  782   1.153   2.391   0.811 -0.1527  0.7819  1.5478
  184SOL    HW3  783   1.077   2.260   0.802 -1.3656  1.5305  0.7199
  184SOL    MW4  784   1.145   2.307   0.832 -0.4933  0.5159  0.3515
  185SOL     OW  785   1.513   3.892   0.190  0.1645  0.1021 -0.1394
  185SOL    HW2  786   1.438   3.931   0.235  0.2932 -0.4909  0.6068
  185SOL    HW3  787   1.487   3.800   0.177  1.4185 -0.5452  1.6678
  185SOL    MW4  788   1.499   3.885   0.195  0.3470 -0.0613  0.1975
  186SOL     OW  789   4.267   0.883   0.349 -0.3258 -0.3347  0.0842
  186SOL    HW2  790   4.347   0.932   0.369  0.3961 -1.1158 -0.8578
  186SOL    HW3  791   4.214   0.890   0.428  1.0960 -0.6379  1.0802
  186SOL    MW4  792   4.271   0.890   0.362 -0.0429 -0.4777  0.0913
  187SOL     OW  793   0.511   0.123   0.311 -0.4789  0.0024  0.0393
  187SOL    HW2  794   0.582   0.174   0.349 -0.8930  0.6699 -0.0578
  187SOL    HW3  795   0.447   0.189   0.282 -0.3631 -0.5032 -1.4256
  187SOL    MW4  796   0.512   0.139   0.312 -0.5182  0.0237 -0.1668
  188SOL     OW  797   4.449   3.228   1.189  0.1688 -0.0903 -0.0794
  188SOL    HW2  798   4.538   3.195   1.181 -0.3403 -1.4153 -0.4617
  188SOL    HW3  799   4.456   3.321   1.168  1.3203 -0.3609 -0.9664
  188SOL    MW4  800   4.462   3.236   1.185  0.2537 -0.3006 -0.2468
  189SOL     OW  801   0.478   0.833   0.391 -0.1485  0.0661 -0.1717
  189SOL    HW2  802   0.517   0.819   0.305 -1.2414  0.0012 -0.6724
  189SOL    HW3  803   0.528   0.906   0.428  1.3542 -0.9352 -0.2006
  189SOL    MW4  804   0.489   0.841   0.384 -0.0944 -0.0746 -0.2415
  190SOL     OW  805   0.044   0.354   0.894  0.2124  0.4288 -0.0059
  190SOL    HW2  806   0.057   0.442   0.857 -0.0179  1.2668  1.8621
  190SOL    HW3  807   0.111   0.300   0.851  2.1112  2.1048  0.7779
  190SOL    MW4  808   0.055   0.359   0.883  0.4326  0.7605  0.3439
  191SOL     OW  809   2.828   1.284   0.466  0.1068  0.0400 -0.1690
  191SOL    HW2  810   2.913   1.246   0.444  0.3683 -0.3013  1.4075
  191SOL    HW3  811   2.778   1.210   0.502 -0.4417  0.5100  0.0369
  191SOL    MW4  812   2.832   1.269   0.467  0.0689  0.0571  0.0661
  192SOL     OW  813   4.067   4.232   1.121 -0.2298  0.2977 -0.2318
  192SOL    HW2  814   4.064   4.252   1.027 -0.0491 -0.0942 -0.3206
  192SOL    HW3  815   3.980   4.257   1.153 -0.3983  0.1397 -0.5623
  192SOL    MW4  816   4.055   4.238   1.113 -0.2284  0.2251 -0.2872
  193SOL     OW  817   3.634   2.568   0.142  0.1574  0.3885  0.0873
  193SOL    HW2  818   3.665   2.572   0.051  1.4975  0.2947  0.5234
  193SOL    HW3  819   3.714   2.556   0.193 -0.7046 -0.7165  1.1956
  193SOL    MW4  820   3.649   2.567   0.136  0.2208  0.2301  0.2911
  194SOL     OW  821   0.930   2.761   0.451  0.0054 -0.6235 -0.5313
  194SOL    HW2  822   0.978   2.681   0.473 -1.0332 -1.3395 -0.7811
  194SOL    HW3  823   0.920   2.807   0.533  0.3588 -0.9021 -0.3307
  194SOL    MW4  824   0.935   2.756   0.465 -0.0851 -0.7544 -0.5378
  195SOL     OW  825   4.050   2.435   0.856  0.1024  0.0734  0.7688
  195SOL    HW2  826   4.067   2.526   0.830 -0.8391 -0.1142 -0.6016
  195SOL    HW3  827   4.136   2.399   0.875  0.5650  1.0427  0.5668
  195SOL    MW4  828   4.064   2.443   0.855  0.0386  0.1767  0.5613
  196SOL     OW  829   2.943   4.438   1.219  0.2165 -0.4908 -0.1742
  196SOL    HW2  830   2.867   4.398   1.178  1.0258 -2.5840  0.2755
  196SOL    HW3  831   3.017   4.384   1.189  1.4703  1.2068 -0.2294
  196SOL    MW4  832   2.943   4.425   1.210  0.4888 -0.5431 -0.1221
  197SOL     OW  833   3.391   1.502   0.849 -0.3815  0.0372 -0.0587
  197SOL    HW2  834   3.398   1.597   0.842  1.7264 -0.0204  0.7630
  197SOL    HW3  835   3.416   1.483   0.940 -0.2353 -1.3408 -0.3716
  197SOL    MW4  836   3.396   1.512   0.860 -0.0842 -0.1521  0.0084
  198SOL     OW  837   1.800   2.901   0.444  0.2058 -0.2930 -0.6465
  198SOL    HW2  838   1.803   2.923   0.537  3.4277 -1.1417 -0.4795
  198SOL    HW3  839   1.708   2.915   0.419 -0.2360  2.1632  2.0715
  198SOL    MW4  840   1.788   2.905   0.453  0.5726 -0.0808 -0.2659
  199SOL     OW  841   2.709   2.498   1.229 -0.5207 -0.2685 -0.3224
  199SOL    HW2  842   2.697   2.480   1.322 -1.0961  0.4652 -0.2524
  199SOL    HW3  843   2.785   2.446   1.205 -0.8699 -1.1123  0.3644
  199SOL    MW4  844   2.717   2.489   1.238 -0.6425 -0.2828 -0.2226
  200SOL     OW  845   0.172   2.373   0.425  0.0352  0.3158 -0.1459
  200SOL    HW2  846   0.137   2.286   0.410  0.2719  0.4128 -1.3195
  200SOL    HW3  847   0.266   2.359   0.442  0.6717  0.5355 -3.1431
  200SOL    MW4  848   0.180   2.360   0.425  0.1504  0.3576 -0.6962
  201SOL     OW  849   4.249   3.833   0.847  0.4554  0.7069  0.4421
  201SOL    HW2  850   4.259   3.921   0.811  0.2613 -0.1953 -1.9561
  201SOL    HW3  851   4.325   3.785   0.815 -0.9309 -0.7597 -0.7615
  201SOL    MW4  852   4.260   3.838   0.838  0.2470  0.3943 -0.0331
  202SOL     OW  853   0.078   1.841   0.471 -0.0593  0.0529  0.4657
  202SOL    HW2  854   0.119   1.807   0.551  1.8392 -0.8057 -0.8431
  202SOL    HW3  855   0.012   1.776   0.449  0.9549 -0.8760  0.1051
  202SOL    MW4  856   0.075   1.828   0.479  0.3250 -0.1829  0.2455
  203SOL     OW  857   1.388   2.191   0.740  0.0670 -0.4693 -0.0166
  203SOL    HW2  858   1.455   2.255   0.767 -0.9463  1.5473 -2.1627
  203SOL    HW3  859   1.308   2.221   0.782  0.1961 -2.2233  1.5842
  203SOL    MW4  860   1.387   2.203   0.749 -0.0496 -0.4346 -0.0886
  204SOL     OW  861   4.014   3.724   0.390  0.1464  0.3306 -0.0202
  204SOL    HW2  862   3.941   3.783   0.367 -0.9540 -0.8680  0.3295
  204SOL    HW3  863   4.090   3.764   0.349 -1.0554  0.5298 -2.1343
  204SOL    MW4  864   4.014   3.737   0.381 -0.1574  0.1988 -0.2530
  205SOL     OW  865   1.227   4.393   0.299 -0.7880  0.2183 -0.0571
  205SOL    HW2  866   1.228   4.437   0.214 -0.8302 -0.0708 -0.2106
  205SOL    HW3  867   1.162   4.440   0.350 -0.5737  0.5593 -0.0948
  205SOL    MW4  868   1.219   4.405   0.294 -0.7653  0.2246 -0.0823
  206SOL     OW  869   3.894   2.516   0.257 -0.5527 -0.1878  0.0879
  206SOL    HW2  870   3.967   2.456   0.244  0.4247  0.9442  0.3161
  206SOL    HW3  871   3.880   2.517   0.352  0.1681  0.7830  0.1982
  206SOL    MW4  872   3.902   2.508   0.268 -0.3285  0.0892  0.1325
  207SOL     OW  873   2.873   3.413   0.455 -0.2939 -0.2902  0.0214
  207SOL    HW2  874   2.888   3.499   0.415 -1.2748 -0.2345 -0.2404
  207SOL    HW3  875   2.894   3.426   0.548 -1.2945  0.4690  0.1488
  207SOL    MW4  876   2.878   3.426   0.462 -0.5553 -0.1829  0.0037
  208SOL     OW  877   2.487   0.015   1.113 -0.0471  0.2994 -0.3074
  208SOL    HW2  878   2.569   0.057   1.137 -0.5723  0.6303  0.9168
  208SOL    HW3  879   2.487   0.017   1.017  1.0781  0.8610 -0.3067
  208SOL    MW4  880   2.497   0.021   1.103  0.0322  0.4172 -0.1458
  209SOL     OW  881   2.210   1.174   0.362  0.2455 -0.2675  0.2467
  209SOL    HW2  882   2.119   1.170   0.390  0.3151  1.3448  0.7090
  209SOL    HW3  883   2.253   1.104   0.411 -0.8970 -1.6039 -0.6109
  209SOL    MW4  884   2.204   1.164   0.372  0.1037 -0.2313  0.1945
  210SOL     OW  885   4.480   4.220   0.351 -0.2199 -0.1140 -0.1646
  210SOL    HW2  886   4.508   4.224   0.442  0.7559 -0.0823 -0.4632
  210SOL    HW3  887   4.489   4.309   0.319  0.0314 -0.2464 -0.4666
  210SOL    MW4  888   4.485   4.232   0.359 -0.0572 -0.1268 -0.2438
  211SOL     OW  889   2.711   0.121   0.412  0.1413  0.1679 -0.0962
  211SOL    HW2  890   2.726   0.035   0.451  0.2448  0.5690  0.7745
  211SOL    HW3  891   2.789   0.171   0.436 -0.1092  0.6220 -0.2364
  211SOL    MW4  892   2.723   0.116   0.421  0.1221  0.2807  0.0002
  212SOL     OW  893   3.360   3.136   0.856 -0.2522  0.7507 -0.0369
  212SOL    HW2  894   3.450   3.130   0.823 -0.6455 -0.2174 -0.9431
  212SOL    HW3  895   3.368   3.121   0.950  0.5143  0.4135 -0.1517
  212SOL    MW4  896   3.373   3.133   0.864 -0.2029  0.5786 -0.1716
  213SOL     OW  897   2.706   2.959   0.465 -0.1106 -0.3482  0.2291
  213SOL    HW2  898   2.712   2.971   0.560 -1.0002  0.9740  0.1248
  213SOL    HW3  899   2.616   2.930   0.450  0.2447 -1.2692 -0.1420
  213SOL    MW4  900   2.695   2.957   0.476 -0.1812 -0.2954  0.1663
  214SOL     OW  901   2.706   2.766   1.142 -0.1403 -0.2549  0.4777
  214SOL    HW2  902   2.704   2.680   1.184 -2.3795 -1.0043 -1.1078
  214SOL    HW3  903   2.621   2.804   1.162  0.1715  0.8898 -0.3264
  214SOL    MW4  904   2.695   2.760   1.150 -0.3948 -0.2027  0.1625
  215SOL     OW  905   3.034   0.777   0.863 -0.0181 -0.3310 -0.0129
  215SOL    HW2  906   3.093   0.724   0.809  0.8086 -0.8593  1.3995
  215SOL    HW3  907   3.021   0.857   0.811  2.5748  0.1489 -0.0130
  215SOL    MW4  908   3.040   0.781   0.849  0.4330 -0.3374  0.1734
  216SOL     OW  909   1.580   1.228   0.294 -0.1982 -0.0926  0.0921
  216SOL    HW2  910   1.505   1.181   0.258  0.1849 -1.0765  0.5581
  216SOL    HW3  911   1.652   1.165   0.291  0.9383  1.2211 -1.5244
  216SOL    MW4  912   1.580   1.214   0.289  0.0024 -0.0492 -0.0597
  217SOL     OW  913   0.657   2.679   0.482 -0.2632 -0.0001 -0.0582
  217SOL    HW2  914   0.742   2.708   0.449 -0.4925 -0.2094 -0.8500
  217SOL    HW3  915   0.598   2.754   0.469 -0.3540 -0.0820 -0.1242
  217SOL    MW4  916   0.660   2.693   0.476 -0.3054 -0.0384 -0.1713
  218SOL     OW  917   2.245   1.983   0.813 -0.1987  0.4193 -0.4332
  218SOL    HW2  918   2.312   1.922   0.784 -0.9938  0.6305 -2.8307
  218SOL    HW3  919   2.165   1.931   0.815  0.0693  0.0377  2.9103
  218SOL    MW4  920   2.243   1.968   0.809 -0.2682  0.3968 -0.3085
  219SOL     OW  921   4.211   4.089   0.689 -0.1059  0.2488  0.2351
  219SOL    HW2  922   4.156   4.129   0.622 -0.3569 -2.0366 -0.9771
  219SOL    HW3  923   4.285   4.052   0.641 -0.3259 -1.5052  1.1932
  219SOL    MW4  924   4.214   4.089   0.674 -0.1683 -0.2842  0.2016
  220SOL     OW  925   3.778   4.113   0.494  0.4699 -0.2386  0.1933
  220SOL    HW2  926   3.774   4.125   0.589 -0.9162  0.7137  0.0307
  220SOL    HW3  927   3.750   4.022   0.480 -0.7084  0.0536  0.6059
  220SOL    MW4  928   3.774   4.103   0.505  0.1314 -0.0739  0.2263
  221SOL     OW  929   3.873   0.473   1.268  0.2358  0.0928 -0.6051
  221SOL    HW2  930   3.954   0.435   1.234 -0.5826 -0.2703 -2.2167
  221SOL    HW3  931   3.879   0.566   1.245  0.2701  0.0985 -0.5735
  221SOL    MW4  932   3.885   0.480   1.260  0.1323  0.0457 -0.8136
  222SOL     OW  933   1.160   4.628   0.798 -0.0511 -0.1671  0.5664
  222SOL    HW2  934   1.081   4.594   0.755  0.0938  0.6280 -0.3508
  222SOL    HW3  935   1.158   4.722   0.780  1.2453 -0.1777  0.3112
  222SOL    MW4  936   1.149   4.636   0.790  0.1391 -0.0634  0.4117
  223SOL     OW  937   3.839   2.869   1.166 -0.0558  0.7045 -0.0195
  223SOL    HW2  938   3.758   2.820   1.154 -0.6770  2.0984 -1.9892
  223SOL    HW3  939   3.840   2.893   1.258 -3.4023  3.1336 -0.5357
  223SOL    MW4  940   3.829   2.866   1.176 -0.5796  1.2088 -0.3475
  224SOL     OW  941   3.870   0.751   1.207  0.1223 -0.1071 -0.5311
  224SOL    HW2  942   3.947   0.794   1.245 -0.2611 -0.8337  1.1161
  224SOL    HW3  943   3.796   0.805   1.234  0.0062  0.3619 -1.7674
  224SOL    MW4  944   3.871   0.764   1.216  0.0565 -0.1411 -0.4770
  225SOL     OW  945   3.921   0.290   0.505 -0.4772  0.2799  0.5820
  225SOL    HW2  946   3.856   0.227   0.475  0.6307 -0.5523 -0.1301
  225SOL    HW3  947   3.989   0.288   0.437  0.0345  1.5137  1.0481
  225SOL    MW4  948   3.921   0.281   0.492 -0.2635  0.3329  0.5496
  226SOL     OW  949   3.448   0.805   1.110 -0.1460 -0.0933  0.5839
  226SOL    HW2  950   3.370   0.843   1.150  1.3101  1.5428  1.9698
  226SOL    HW3  951   3.437   0.819   1.016 -1.1615  0.8037  0.8402
  226SOL    MW4  952   3.436   0.812   1.103 -0.0880  0.2410  0.8006
  227SOL     OW  953   3.142   1.176   1.132  0.0266 -0.3074  0.0400
  227SOL    HW2  954   3.138   1.186   1.037  0.5081 -1.0594 -0.0579
  227SOL    HW3  955   3.056   1.207   1.162 -0.0282  0.1893 -0.6113
  227SOL    MW4  956   3.130   1.182   1.124  0.0832 -0.3411 -0.0590
  228SOL     OW  957   3.615   2.741   1.137  0.2877 -0.0185  0.1578
  228SOL    HW2  958   3.606   2.654   1.175  0.0375  0.2066  0.6225
  228SOL    HW3  959   3.541   2.790   1.174 -1.0593 -0.3170 -2.0403
  228SOL    MW4  960   3.604   2.736   1.147  0.0770 -0.0281 -0.0709
  229SOL     OW  961   3.088   1.167   0.404 -0.3281 -0.0256 -0.3196
  229SOL    HW2  962   3.094   1.195   0.313  0.8911  1.2843  0.1443
  229SOL    HW3  963   3.179   1.163   0.435 -0.6203 -2.0053  0.3998
  229SOL    MW4  964   3.101   1.170   0.396 -0.2060 -0.1140 -0.1635
  230SOL     OW  965   1.358   1.174   1.064 -0.1329  0.1851 -0.1121
  230SOL    HW2  966   1.362   1.079   1.078 -0.9561 -0.0768 -1.4789
  230SOL    HW3  967   1.360   1.184   0.968 -0.2470  1.5340  0.0119
  230SOL    MW4  968   1.359   1.163   1.053 -0.2565  0.3285 -0.2760
  231SOL     OW  969   2.709   1.949   0.834 -0.0689 -0.1571 -0.0292
  231SOL    HW2  970   2.748   2.033   0.811 -0.4469 -0.1470 -0.6256
  231SOL    HW3  971   2.703   1.951   0.930 -1.4456  1.0982 -0.1349
  231SOL    MW4  972   2.713   1.960   0.844 -0.3004  0.0098 -0.1219
  232SOL     OW  973   3.375   4.128   0.724 -0.4732 -0.2857 -0.1670
  232SOL    HW2  974   3.307   4.178   0.770 -0.9365 -0.0631 -1.0811
  232SOL    HW3  975   3.380   4.168   0.637  1.6172  0.4058  0.2484
  232SOL    MW4  976   3.366   4.140   0.718 -0.2587 -0.1650 -0.2328
  233SOL     OW  977   2.297   1.400   0.485 -0.0048 -0.0130  0.5997
  233SOL    HW2  978   2.391   1.397   0.500 -0.0565 -0.0857  0.9210
  233SOL    HW3  979   2.276   1.316   0.444 -0.1334 -0.5730  1.7676
  233SOL    MW4  980   2.306   1.388   0.482 -0.0286 -0.0964  0.7962
  234SOL     OW  981   1.879   0.532   0.461 -0.1117  0.3365 -0.0072
  234SOL    HW2  982   1.919   0.615   0.436 -0.7103  0.7196  0.2895
  234SOL    HW3  983   1.940   0.465   0.430 -0.0866  0.8549 -1.0846
  234SOL    MW4  984   1.892   0.534   0.454 -0.1875  0.4554 -0.1102
  235SOL     OW  985   0.514   3.439   0.045  0.1399 -0.0343  0.2728
  235SOL    HW2  986   0.570   3.408  -0.026 -0.2276  1.7128 -0.7975
  235SOL    HW3  987   0.574   3.473   0.111  0.4241 -0.4150  0.2091
  235SOL    MW4  988   0.529   3.440   0.045  0.1289  0.1459  0.1232
  236SOL     OW  989   1.143   3.091   1.127  0.0724 -0.0267  0.3486
  236SOL    HW2  990   1.148   3.001   1.158 -0.7294  0.5913  2.3490
  236SOL    HW3  991   1.113   3.083   1.036  1.1928 -1.8075  0.1069
  236SOL    MW4  992   1.139   3.078   1.119  0.1143 -0.1802  0.5808
  237SOL     OW  993   0.717   4.398   1.214 -0.1469  0.1541 -0.0492
  237SOL    HW2  994   0.713   4.392   1.309 -0.9146  0.5430 -0.0582
  237SOL    HW3  995   0.696   4.489   1.194 -1.7517 -0.3346 -0.6780
  237SOL    MW4  996   0.714   4.409   1.224 -0.4600  0.1411 -0.1333
  238SOL     OW  997   1.807   2.240   0.712 -0.0288  0.1379 -0.0207
  238SOL    HW2  998   1.895   2.271   0.733  0.1064  0.3523 -0.8745
  238SOL    HW3  999   1.801   2.155   0.754  0.3631  0.3942  0.5641
  238SOL    MW4 1000   1.818   2.233   0.720  0.0408  0.2000 -0.0562
  239SOL     OW 1001   4.247   4.088   0.289  0.0614 -0.5066  0.8874
  239SOL    HW2 1002   4.312   4.159   0.291  0.0741 -0.5243  1.0993
  239SOL    HW3 1003   4.180   4.116   0.352 -0.1711 -0.4554  0.6192
  239SOL    MW4 1004   4.247   4.101   0.298  0.0329 -0.5021  0.8800
  240SOL     OW 1005   2.029   3.912   1.081 -0.6476  0.0541  0.4032
  240SOL    HW2 1006   2.033   3.910   0.986 -1.6991  1.5548  0.3073
  240SOL    HW3 1007   2.044   3.821   1.108  3.7649  0.2555 -0.9860
  240SOL    MW4 1008   2.032   3.899   1.072 -0.2041  0.2787  0.2074
  241SOL     OW 1009   1.837   4.296   1.073 -0.3236 -0.1412 -0.2142
  241SOL    HW2 1010   1.835   4.210   1.114 -1.1058 -0.8669 -1.7442
  241SOL    HW3 1011   1.772   4.347   1.122 -0.1376 -0.5198  0.4417
  241SOL    MW4 1012   1.828   4.292   1.085 -0.4023 -0.2871 -0.3295
  242SOL     OW 1013   4.055   2.722   1.103  0.5815 -0.2032 -0.0092
  242SOL    HW2 1014   4.120   2.764   1.160  0.5580 -1.4102  0.9255
  242SOL    HW3 1015   3.975   2.773   1.118  0.9252  0.3495 -0.0207
  242SOL    MW4 1016   4.053   2.735   1.113  0.6242 -0.2894  0.1127
  243SOL     OW 1017   4.097   0.859   0.562  0.3058  0.3262  0.0741
  243SOL    HW2 1018   4.087   0.772   0.602 -2.5183  0.4580 -0.2483
  243SOL    HW3 1019   4.133   0.914   0.631  1.4497 -0.9216  0.4916
  243SOL    MW4 1020   4.100   0.854   0.576  0.0844  0.1789  0.0867
  244SOL     OW 1021   0.242   4.601   0.850  0.1017  0.3864  0.1487
  244SOL    HW2 1022   0.328   4.575   0.817  0.5964  0.7415  1.1458
  244SOL    HW3 1023   0.258   4.624   0.941 -0.8328  1.6054  0.0046
  244SOL    MW4 1024   0.256   4.601   0.857  0.0437  0.5946  0.2612
  245SOL     OW 1025   2.905   1.543   0.821 -0.6553  0.1646 -0.4133
  245SOL    HW2 1026   2.830   1.484   0.812 -1.2264  1.1379 -2.4034
  245SOL    HW3 1027   2.977   1.498   0.776 -0.2666 -0.3965  0.7679
  245SOL    MW4 1028   2.905   1.529   0.814 -0.6793  0.2190 -0.5200
  246SOL     OW 1029   0.216   3.072   0.869  0.2477  0.2206  0.1244
  246SOL    HW2 1030   0.197   3.074   0.962  1.0925 -0.9580  0.3300
  246SOL    HW3 1031   0.194   3.160   0.838  0.0571  0.6398  1.4475
  246SOL    MW4 1032   0.211   3.084   0.877  0.3340  0.1204  0.3261
  247SOL     OW 1033   3.655   3.104   0.812  0.1308 -0.7131 -0.6405
  247SOL    HW2 1034   3.714   3.115   0.886  0.0036  0.5455 -0.7186
  247SOL    HW3 1035   3.705   3.135   0.737 -0.4405 -0.1328 -0.7856
  247SOL    MW4 1036   3.670   3.109   0.812  0.0386 -0.4706 -0.6700
  248SOL     OW 1037   3.933   2.242   0.455  0.0246  0.0431 -0.0004
  248SOL    HW2 1038   3.961   2.178   0.520 -1.1653 -0.2765  0.2019
  248SOL    HW3 1039   3.927   2.325   0.503  1.1487  0.2338 -0.1691
  248SOL    MW4 1040   3.936   2.245   0.470  0.0157  0.0260  0.0040
  249SOL     OW 1041   1.761   3.520   0.381  0.4313 -0.0104 -0.1207
  249SOL    HW2 1042   1.819   3.595   0.399  1.1005 -0.9498  1.7980
  249SOL    HW3 1043   1.819   3.444   0.380 -0.3822 -0.6252 -1.0655
  249SOL    MW4 1044   1.776   3.520   0.383  0.4121 -0.2155  0.0078
  250SOL     OW 1045   1.348   3.010   0.172  0.3317  0.3216  0.0510
  250SOL    HW2 1046   1.266   2.963   0.185  1.3216 -1.5500 -0.2603
  250SOL    HW3 1047   1.361   3.011   0.077 -0.0442  1.9213 -0.0049
  250SOL    MW4 1048   1.339   3.004   0.161  0.4127  0.2854  0.0025
  251SOL     OW 1049   4.288   1.525   0.878  0.1951 -0.4951 -0.1674
  251SOL    HW2 1050   4.203   1.484   0.859  0.2806 -1.2942  1.1912
  251SOL    HW3 1051   4.287   1.542   0.972  0.2574  2.4249 -0.6459
  251SOL    MW4 1052   4.277   1.522   0.888  0.2151 -0.2152 -0.0513
  252SOL     OW 1053   3.911   0.752   0.932 -0.6046 -0.4770 -0.0634
  252SOL    HW2 1054   3.835   0.698   0.913  0.0821 -1.6639  0.4863
  252SOL    HW3 1055   3.917   0.753   1.028  0.6603 -1.2567 -0.1183
  252SOL    MW4 1056   3.902   0.745   0.942 -0.3471 -0.7365  0.0019
  253SOL     OW 1057   0.693   3.330   0.412  0.0832 -0.1502  0.7398
  253SOL    HW2 1058   0.608   3.289   0.395  0.6689 -1.2334  0.3013
  253SOL    HW3 1059   0.755   3.256   0.413  1.1952  0.7401 -0.2169
  253SOL    MW4 1060   0.690   3.315   0.410  0.3073 -0.1755  0.5557
  254SOL     OW 1061   1.168   0.712   0.346 -0.6297 -0.2299  0.2280
  254SOL    HW2 1062   1.199   0.637   0.398  1.5840  0.3295 -0.2179
  254SOL    HW3 1063   1.245   0.768   0.337 -1.3982  0.4826 -2.2666
  254SOL    MW4 1064   1.183   0.709   0.352 -0.4389 -0.0621 -0.1599
  255SOL     OW 1065   0.681   2.345   1.110 -0.4948 -0.1107  0.1726
  255SOL    HW2 1066   0.595   2.377   1.137 -0.0938  0.2413  1.0505
  255SOL    HW3 1067   0.679   2.348   1.015 -1.7036 -0.7569  0.1575
  255SOL    MW4 1068   0.669   2.349   1.101 -0.6014 -0.1495  0.2865
  256SOL     OW 1069   4.286   0.751   1.105 -0.1446 -0.2088 -0.1314
  256SOL    HW2 1070   4.211   0.781   1.155 -0.1459 -0.4847  0.0313
  256SOL    HW3 1071   4.303   0.663   1.137  0.6204  0.0742  0.2567
  256SOL    MW4 1072   4.278   0.744   1.116 -0.0434 -0.2079 -0.0585
  257SOL     OW 1073   1.600   3.131   1.061  0.0480 -0.0440  0.3337
  257SOL    HW2 1074   1.675   3.163   1.111 -0.5949  0.5973  0.9082
  257SOL    HW3 1075   1.525   3.180   1.096 -0.5021 -0.0167 -0.8622
  257SOL    MW4 1076   1.600   3.141   1.073 -0.1093  0.0441  0.2515
  258SOL     OW 1077   1.436   0.108   0.392  0.4787  0.3814 -0.4888
  258SOL    HW2 1078   1.518   0.158   0.393  1.4832 -1.2234 -0.5362
  258SOL    HW3 1079   1.464   0.016   0.394 -1.2668 -0.2267 -2.4526
  258SOL    MW4 1080   1.451   0.102   0.392  0.3809  0.0894 -0.7542
  259SOL     OW 1081   2.930   3.918   0.866  0.0797 -0.1049  0.4123
  259SOL    HW2 1082   2.850   3.873   0.839 -1.2457  2.7694 -0.5827
  259SOL    HW3 1083   2.999   3.879   0.812 -1.1524 -0.4042 -0.9518
  259SOL    MW4 1084   2.929   3.907   0.856 -0.2580  0.2346  0.1010
  260SOL     OW 1085   0.681   1.588   1.055 -0.0107 -0.5042 -0.3361
  260SOL    HW2 1086   0.750   1.609   1.118  0.3582  1.0388 -1.2140
  260SOL    HW3 1087   0.599   1.613   1.100  0.4238  3.1479 -1.3962
  260SOL    MW4 1088   0.679   1.594   1.069  0.0953  0.1813 -0.5919
  261SOL     OW 1089   3.216   0.643   0.739 -0.5837 -0.0724 -0.1996
  261SOL    HW2 1090   3.237   0.553   0.766 -1.8588 -0.0099  1.0636
  261SOL    HW3 1091   3.284   0.696   0.780 -0.3598 -0.3661 -0.1841
  261SOL    MW4 1092   3.228   0.638   0.748 -0.7224 -0.1029 -0.0309
  262SOL     OW 1093   3.368   1.784   0.798  0.3428  0.0915 -0.6053
  262SOL    HW2 1094   3.392   1.786   0.706 -0.9263  2.2229 -0.9121
  262SOL    HW3 1095   3.297   1.848   0.807 -1.4808 -2.0874  1.3280
  262SOL    MW4 1096   3.362   1.793   0.787 -0.0653  0.0854 -0.3907
  263SOL     OW 1097   1.802   4.278   0.797 -0.0111  0.4452  0.0302
  263SOL    HW2 1098   1.892   4.260   0.769 -0.2428 -0.5990 -0.0467
  263SOL    HW3 1099   1.806   4.276   0.893  0.2713  1.5172  0.0458
  263SOL    MW4 1100   1.815   4.276   0.806 -0.0044  0.4492  0.0221
  264SOL     OW 1101   0.439   2.445   1.226 -0.4005 -0.4950 -0.1016
  264SOL    HW2 1102   0.421   2.445   1.320  0.9580  1.5182  0.1852
  264SOL    HW3 1103   0.453   2.537   1.204  1.8951 -1.1917 -1.7614
  264SOL    MW4 1104   0.438   2.457   1.236  0.0816 -0.3211 -0.2828
  265SOL     OW 1105   3.484   2.153   0.321 -0.4146  0.4651 -0.5292
  265SOL    HW2 1106   3.546   2.137   0.392 -0.1926  1.4792 -0.4809
  265SOL    HW3 1107   3.451   2.066   0.297  0.4302  0.0040 -0.0233
  265SOL    MW4 1108   3.488   2.140   0.327 -0.2742  0.5381 -0.4561
  266SOL     OW 1109   0.093   2.621   0.516  0.5417  0.0971 -0.2915
  266SOL    HW2 1110   0.018   2.604   0.572 -0.2001  1.0325 -0.9895
  266SOL    HW3 1111   0.121   2.535   0.486  0.5765 -0.3640  1.0148
  266SOL    MW4 1112   0.087   2.607   0.520  0.4484  0.1595 -0.2112
  267SOL     OW 1113   2.592   1.425   0.525  0.2341 -0.3069  0.0246
  267SOL    HW2 1114   2.666   1.368   0.504  0.1352 -0.2548 -0.4711
  267SOL    HW3 1115   2.620   1.512   0.495 -0.4964 -0.5033 -1.2176
  267SOL    MW4 1116   2.606   1.429   0.519  0.1249 -0.3259 -0.2047
  268SOL     OW 1117   0.032   3.036   0.516 -0.0916  0.4164  0.3290
  268SOL    HW2 1118   0.092   2.974   0.476  1.7256  2.2034  0.1806
  268SOL    HW3 1119   0.007   2.995   0.599 -0.0559 -1.1355 -0.4199
  268SOL    MW4 1120   0.037   3.023   0.522  0.1529  0.4473  0.2106
  269SOL     OW 1121   1.356   0.417   1.110  0.0817 -0.2144 -0.2780
  269SOL    HW2 1122   1.341   0.411   1.015 -0.0521 -0.9204 -0.2141
  269SOL    HW3 1123   1.276   0.458   1.143 -0.5376 -1.4035 -0.2845
  269SOL    MW4 1124   1.343   0.422   1.102 -0.0178 -0.4644 -0.2706
  270SOL     OW 1125   1.075   1.412   0.501  0.3384 -0.1351  0.5789
  270SOL    HW2 1126   1.107   1.499   0.525  0.0762 -0.1283  0.9068
  270SOL    HW3 1127   1.032   1.425   0.417 -0.6261  0.2644  1.1172
  270SOL    MW4 1128   1.073   1.425   0.493  0.1765 -0.0815  0.6931
  271SOL     OW 1129   4.207   3.075   1.110  0.2829 -0.2464 -0.0469
  271SOL    HW2 1130   4.134   3.120   1.152  0.5273 -1.5475  1.8892
  271SOL    HW3 1131   4.282   3.133   1.124 -0.0367  0.2596 -0.4385
  271SOL    MW4 1132   4.208   3.088   1.118  0.2728 -0.3514  0.1570
  272SOL     OW 1133   3.758   3.492   0.556  0.3922 -0.3934 -0.0410
  272SOL    HW2 1134   3.669   3.459   0.541 -0.2809  0.7831  1.2526
  272SOL    HW3 1135   3.773   3.478   0.649  1.8143 -1.1547 -0.3820
  272SOL    MW4 1136   3.748   3.486   0.566  0.4914 -0.3386  0.0846
  273SOL     OW 1137   3.884   4.526   0.351  0.1156 -0.2063 -0.0664
  273SOL    HW2 1138   3.954   4.477   0.393 -0.1656 -0.9999 -0.5036
  273SOL    HW3 1139   3.805   4.476   0.370 -0.4100  0.9681  0.8682
  273SOL    MW4 1140   3.883   4.512   0.359  0.0091 -0.1559 -0.0008
  274SOL     OW 1141   1.592   0.887   0.466  0.1135 -0.0419 -0.1259
  274SOL    HW2 1142   1.512   0.917   0.424 -0.1141 -0.4002  0.0492
  274SOL    HW3 1143   1.602   0.943   0.543  0.7872  0.9303 -0.9182
  274SOL    MW4 1144   1.583   0.898   0.471  0.1724  0.0390 -0.2073
  275SOL     OW 1145   2.539   0.339   0.485 -0.6050  0.2159  0.0155
  275SOL    HW2 1146   2.515   0.317   0.575  0.5968  0.2217  0.3470
  275SOL    HW3 1147   2.601   0.271   0.460 -0.5060  0.5358 -0.6085
  275SOL    MW4 1148   2.544   0.327   0.494 -0.4332  0.2589 -0.0230
  276SOL     OW 1149   3.209   0.713   0.469 -0.2410  0.4661  0.3673
  276SOL    HW2 1150   3.179   0.628   0.437 -1.4364  0.6989  0.8629
  276SOL    HW3 1151   3.209   0.704   0.564 -0.7771  1.1523  0.4363
  276SOL    MW4 1152   3.205   0.700   0.477 -0.4692  0.5873  0.4418
  277SOL     OW 1153   1.567   2.611   0.443  0.0891  0.2472  0.3707
  277SOL    HW2 1154   1.638   2.560   0.403 -0.4208 -0.0811 -0.1197
  277SOL    HW3 1155   1.585   2.701   0.417 -0.7571 -0.0768 -1.4075
  277SOL    MW4 1156   1.579   2.616   0.434 -0.0900  0.1612  0.0713
  278SOL     OW 1157   0.196   1.311   1.207  0.2131  0.4153  0.4591
  278SOL    HW2 1158   0.124   1.253   1.180  1.4953 -1.3150  0.6698
  278SOL    HW3 1159   0.274   1.272   1.169  0.9954  2.6840 -0.3535
  278SOL    MW4 1160   0.197   1.298   1.199  0.4855  0.4864  0.3796
  279SOL     OW 1161   2.740   1.673   1.198  0.0187  0.1796 -0.1298
  279SOL    HW2 1162   2.740   1.766   1.175 -0.3306  0.0193 -0.8114
  279SOL    HW3 1163   2.808   1.635   1.143 -1.4809 -0.3803 -1.6524
  279SOL    MW4 1164   2.749   1.680   1.188 -0.2255  0.0845 -0.4206
  280SOL     OW 1165   3.128   3.795   0.722  0.8878 -0.0196  0.0403
  280SOL    HW2 1166   3.138   3.756   0.636  0.1449 -2.1676  0.8859
  280SOL    HW3 1167   3.217   3.821   0.748  1.3755 -1.0736 -0.5794
  280SOL    MW4 1168   3.141   3.794   0.714  0.8543 -0.4423  0.0702
  281SOL     OW 1169   4.079   4.495   0.772  0.4154  0.6384  0.2044
  281SOL    HW2 1170   4.053   4.408   0.803  0.9762  0.9963  1.6947
  281SOL    HW3 1171   4.004   4.551   0.793 -0.0034  0.4949 -0.8828
  281SOL    MW4 1172   4.065   4.491   0.779  0.4339  0.6671  0.2576
  282SOL     OW 1173   4.243   3.811   0.261  0.3752 -0.0119  0.3780
  282SOL    HW2 1174   4.337   3.801   0.252  0.7090  1.3039  2.0240
  282SOL    HW3 1175   4.228   3.906   0.253 -0.8356 -0.2457 -0.2574
  282SOL    MW4 1176   4.253   3.822   0.259  0.2594  0.1309  0.5113
  283SOL     OW 1177   4.273   2.283   0.895 -0.5264  0.1633 -0.7611
  283SOL    HW2 1178   4.351   2.282   0.840 -0.7126 -0.0857 -1.0228
  283SOL    HW3 1179   4.235   2.195   0.886 -0.2520 -0.0655  0.2135
  283SOL    MW4 1180   4.278   2.271   0.886 -0.5145  0.1004 -0.6671
  284SOL     OW 1181   2.679   3.486   1.121 -0.6205  0.3555 -0.0851
  284SOL    HW2 1182   2.688   3.465   1.028 -0.9651  0.2935 -0.1078
  284SOL    HW3 1183   2.758   3.534   1.143  0.2263 -1.0179 -0.0278
  284SOL    MW4 1184   2.690   3.489   1.112 -0.5541  0.1662 -0.0805
  285SOL     OW 1185   2.246   0.910   1.218 -0.0155  0.3659 -0.2702
  285SOL    HW2 1186   2.225   0.995   1.181  0.0727  0.3505 -0.3569
  285SOL    HW3 1187   2.180   0.851   1.182 -0.1400  0.4187 -0.1253
  285SOL    MW4 1188   2.235   0.913   1.208 -0.0203  0.3709 -0.2625
  286SOL     OW 1189   3.875   1.218   0.394  0.1265  0.2614 -0.1878
  286SOL    HW2 1190   3.952   1.180   0.351 -0.2656  0.0493 -0.7135
  286SOL    HW3 1191   3.819   1.245   0.322 -1.6365 -2.2850  0.1504
  286SOL    MW4 1192   3.878   1.216   0.379 -0.1578 -0.1028 -0.2126
  287SOL     OW 1193   0.258   0.019   1.120  0.6036 -0.0155 -0.2928
  287SOL    HW2 1194   0.195   0.068   1.173 -0.0482 -0.7120 -0.4250
  287SOL    HW3 1195   0.344   0.051   1.150  0.2071  0.5086  0.2927
  287SOL    MW4 1196   0.261   0.029   1.131  0.4653 -0.0386 -0.2329
  288SOL     OW 1197   2.489   2.609   0.506  0.2186 -0.2068  0.4908
  288SOL    HW2 1198   2.580   2.580   0.508  0.3237 -0.0485 -1.2687
  288SOL    HW3 1199   2.438   2.528   0.502  0.3873 -0.2607 -0.9219
  288SOL    MW4 1200   2.494   2.594   0.506  0.2551 -0.1931  0.0722
  289SOL     OW 1201   0.021   1.977   0.840 -0.4040 -0.3759  0.5089
  289SOL    HW2 1202   0.007   1.981   0.935  1.0124 -3.4416  0.9073
  289SOL    HW3 1203  -0.051   1.923   0.807 -0.2592 -0.2473 -0.0262
  289SOL    MW4 1204   0.010   1.971   0.848 -0.1979 -0.7634  0.4908
  290SOL     OW 1205   2.924   1.033   0.765  0.5597  0.1309 -0.6543
  290SOL    HW2 1206   2.944   1.023   0.672  0.6877  0.3316 -0.6483
  290SOL    HW3 1207   2.988   1.097   0.797  0.0433  0.6111 -0.5896
  290SOL    MW4 1208   2.935   1.040   0.757  0.5083  0.2205 -0.6450
  291SOL     OW 1209   3.801   3.393   0.852  0.3200  0.0824 -0.2151
  291SOL    HW2 1210   3.707   3.384   0.867  0.2691  0.4415 -0.3177
  291SOL    HW3 1211   3.821   3.325   0.787  0.1698 -0.1294 -0.0410
  291SOL    MW4 1212   3.791   3.383   0.845  0.2935  0.1018 -0.2057
  292SOL     OW 1213   1.628   2.607   0.719  0.0493  0.2778  0.0180
  292SOL    HW2 1214   1.621   2.611   0.624 -0.7928  0.4157  0.0863
  292SOL    HW3 1215   1.541   2.630   0.751 -0.3164 -2.0819  0.7838
  292SOL    MW4 1216   1.616   2.610   0.711 -0.1100 -0.0153  0.1280
  293SOL     OW 1217   1.812   1.022   0.319 -0.0152 -0.2034  0.2314
  293SOL    HW2 1218   1.751   0.952   0.343  0.0802 -0.7643 -1.1426
  293SOL    HW3 1219   1.891   0.976   0.290  0.4496  0.4957  0.3894
  293SOL    MW4 1220   1.815   1.007   0.318  0.0588 -0.1851  0.0710
  294SOL     OW 1221   3.662   0.928   1.255  0.2484 -0.4757 -0.4726
  294SOL    HW2 1222   3.666   1.019   1.224  1.9518 -0.8769 -1.4511
  294SOL    HW3 1223   3.590   0.889   1.205 -0.6165  0.3644  0.0897
  294SOL    MW4 1224   3.653   0.935   1.244  0.3591 -0.4178 -0.5274
  295SOL     OW 1225   4.228   1.014   0.761 -0.1200  0.3174  0.0498
  295SOL    HW2 1226   4.264   0.929   0.788  0.3771  0.8535  1.0554
  295SOL    HW3 1227   4.301   1.075   0.769 -0.4869  0.8612 -0.6523
  295SOL    MW4 1228   4.242   1.011   0.765 -0.1025  0.4599  0.0899
  296SOL     OW 1229   2.085   0.959   0.226 -0.2563 -0.1928  0.3091
  296SOL    HW2 1230   2.135   1.039   0.243 -0.8445  0.2990 -0.2743
  296SOL    HW3 1231   2.116   0.929   0.141 -0.1731 -0.4947  0.4432
  296SOL    MW4 1232   2.096   0.966   0.217 -0.3228 -0.1677  0.2498
  297SOL     OW 1233   2.028   4.655   1.108 -0.1500  0.5136 -0.1086
  297SOL    HW2 1234   2.035   4.564   1.134  0.2430  0.7638  0.6707
  297SOL    HW3 1235   1.950   4.687   1.153  0.0265  0.7092  0.0620
  297SOL    MW4 1236   2.019   4.647   1.118 -0.0749  0.5727  0.0167
  298SOL     OW 1237   1.106   1.568   0.834 -0.1096  0.2166  0.0199
  298SOL    HW2 1238   1.180   1.513   0.807  0.3886 -0.3148  2.3734
  298SOL    HW3 1239   1.124   1.653   0.795  0.8131 -0.3865 -0.9235
  298SOL    MW4 1240   1.118   1.572   0.825  0.0777  0.0669  0.2060
  299SOL     OW 1241   2.710   4.297   0.841 -0.2790 -0.1124  0.6122
  299SOL    HW2 1242   2.711   4.300   0.937  1.1055 -0.5297  0.6349
  299SOL    HW3 1243   2.790   4.249   0.819 -0.5369  0.0801 -0.7560
  299SOL    MW4 1244   2.721   4.291   0.851 -0.1307 -0.1416  0.4347
  300SOL     OW 1245   4.315   0.774   0.841 -0.2135  0.0912  0.0036
  300SOL    HW2 1246   4.394   0.721   0.835 -0.5613 -0.4896  0.4369
  300SOL    HW3 1247   4.295   0.777   0.935 -0.5348  0.4865 -0.0749
  300SOL    MW4 1248   4.323   0.767   0.853 -0.3018  0.0667  0.0504
  301SOL     OW 1249   0.434   2.289   0.494 -0.4811 -0.0177 -0.4325
  301SOL    HW2 1250   0.449   2.206   0.448 -2.3129 -0.0302 -1.0105
  301SOL    HW3 1251   0.418   2.263   0.585  1.2493 -0.1142 -0.1259
  301SOL    MW4 1252   0.434   2.274   0.500 -0.4945 -0.0322 -0.4683
  302SOL     OW 1253   2.473   0.495   1.195 -0.0518 -0.1185 -0.3551
  302SOL    HW2 1254   2.474   0.503   1.291 -2.7356  1.4145 -0.4254
  302SOL    HW3 1255   2.392   0.448   1.175 -0.1215  0.6583 -1.9667
  302SOL    MW4 1256   2.462   0.490   1.205 -0.4151  0.1862 -0.5770
  303SOL     OW 1257   0.671   4.658   1.116 -0.2921 -0.4449  0.5170
  303SOL    HW2 1258   0.687   4.657   1.021 -0.0323 -0.4536  0.5598
  303SOL    HW3 1259   0.743   4.710   1.152  1.8461 -3.6229  1.0873
  303SOL    MW4 1260   0.682   4.664   1.108  0.0243 -0.8654  0.5980
  304SOL     OW 1261   1.589   1.908   0.458 -0.0436 -0.2373 -0.3554
  304SOL    HW2 1262   1.548   1.995   0.458  0.2031 -0.0893  1.6574
  304SOL    HW3 1263   1.682   1.926   0.448 -0.1286 -0.3479 -1.3135
  304SOL    MW4 1264   1.596   1.922   0.457 -0.0222 -0.2323 -0.2163
  305SOL     OW 1265   4.459   1.129   1.101  0.1934  0.0436 -0.4093
  305SOL    HW2 1266   4.401   1.186   1.151  0.2808  0.9611 -1.3353
  305SOL    HW3 1267   4.462   1.048   1.152 -1.1721  0.3026  0.1136
  305SOL    MW4 1268   4.452   1.126   1.115  0.0243  0.1987 -0.4624
  306SOL     OW 1269   2.696   1.147   0.851  0.5985 -0.0834  0.0120
  306SOL    HW2 1270   2.779   1.112   0.818  0.4619 -0.5911  0.2022
  306SOL    HW3 1271   2.645   1.069   0.876  0.0224  0.2198 -0.2070
  306SOL    MW4 1272   2.700   1.132   0.850  0.5045 -0.1104  0.0082
  307SOL     OW 1273   0.467   1.691   1.225  0.2337  0.1331 -0.2563
  307SOL    HW2 1274   0.379   1.670   1.196  0.5680  0.0228 -1.2189
  307SOL    HW3 1275   0.464   1.683   1.321 -0.2699 -1.9273 -0.4195
  307SOL    MW4 1276   0.455   1.687   1.234  0.2113 -0.1532 -0.4048
  308SOL     OW 1277   2.555   2.315   0.872  0.1903  0.4088  0.0279
  308SOL    HW2 1278   2.536   2.312   0.966 -0.1170 -0.1786 -0.0500
  308SOL    HW3 1279   2.533   2.405   0.847 -2.2972 -0.1505 -0.0045
  308SOL    MW4 1280   2.549   2.327   0.881 -0.1783  0.2575  0.0133
  309SOL     OW 1281   3.792   4.147   0.763 -0.1118  0.1165 -0.0649
  309SOL    HW2 1282   3.714   4.189   0.799  0.2024 -0.7571  1.7259
  309SOL    HW3 1283   3.773   4.053   0.769  0.6070 -0.0697 -0.6929
  309SOL    MW4 1284   3.780   4.140   0.769  0.0246 -0.0238  0.0885
  310SOL     OW 1285   2.229   0.350   1.137 -0.3880  0.2580  0.3478
  310SOL    HW2 1286   2.217   0.274   1.193 -3.2153  0.3321 -0.0670
  310SOL    HW3 1287   2.156   0.408   1.160  0.0924  1.5676 -1.3379
  310SOL    MW4 1288   2.218   0.348   1.147 -0.6979  0.4405  0.0707
  311SOL     OW 1289   0.665   1.609   0.759  0.0145 -0.2880  0.0805
  311SOL    HW2 1290   0.745   1.567   0.727 -0.2048 -0.9922  0.4426
  311SOL    HW3 1291   0.679   1.617   0.853 -0.4406 -0.6311  0.1760
  311SOL    MW4 1292   0.678   1.604   0.767 -0.0744 -0.4264  0.1409
  312SOL     OW 1293   3.033   1.382   0.191  0.2172  0.0815 -0.1375
  312SOL    HW2 1294   3.079   1.416   0.115 -0.1062 -0.9849 -0.8176
  312SOL    HW3 1295   2.959   1.442   0.204  0.2183  0.2087 -0.7285
  312SOL    MW4 1296   3.029   1.394   0.183  0.1748 -0.0424 -0.3052
  313SOL     OW 1297   0.883   4.268   0.763 -0.0327  0.4364 -0.0279
  313SOL    HW2 1298   0.807   4.219   0.733  0.2708 -0.9133  1.4010
  313SOL    HW3 1299   0.958   4.216   0.733  0.2921  0.2597  1.0835
  313SOL    MW4 1300   0.883   4.255   0.755  0.0502  0.2356  0.3073
  314SOL     OW 1301   3.048   1.704   0.406 -0.0910 -0.4392  0.0070
  314SOL    HW2 1302   2.990   1.644   0.359  0.7665 -0.5539 -0.9194
  314SOL    HW3 1303   3.123   1.650   0.431  0.5408  0.1723 -0.5597
  314SOL    MW4 1304   3.050   1.689   0.403  0.1056 -0.3736 -0.1900
  315SOL     OW 1305   0.417   3.631   0.460  0.0270  0.0606  0.1213
  315SOL    HW2 1306   0.411   3.659   0.552  1.9481 -3.6351  1.4473
  315SOL    HW3 1307   0.336   3.582   0.445 -0.7083  1.4239 -0.4866
  315SOL    MW4 1308   0.405   3.628   0.470  0.1835 -0.2472  0.2160
  316SOL     OW 1309   1.154   1.142   0.469 -0.6526 -0.0751 -0.2355
  316SOL    HW2 1310   1.154   1.237   0.479  2.8601 -0.1121  0.8681
  316SOL    HW3 1311   1.133   1.108   0.556 -0.1970 -0.3145 -0.2182
  316SOL    MW4 1312   1.151   1.150   0.482 -0.1290 -0.1116 -0.0876
  317SOL     OW 1313   3.419   2.567   0.552 -0.0616  0.5899  0.2360
  317SOL    HW2 1314   3.341   2.523   0.519 -0.3848  0.1697  1.5262
  317SOL    HW3 1315   3.441   2.631   0.484 -0.7621 -0.1810 -0.7292
  317SOL    MW4 1316   3.412   2.570   0.538 -0.1965  0.4330  0.2789
  318SOL     OW 1317   1.954   1.705   0.550 -0.6595  0.1161 -0.1904
  318SOL    HW2 1318   1.971   1.737   0.639  0.6194 -0.9072 -0.0443
  318SOL    HW3 1319   1.910   1.777   0.506 -1.4522  0.5870  1.3230
  318SOL    MW4 1320   1.951   1.719   0.556 -0.5955  0.0434  0.0286
  319SOL     OW 1321   0.862   3.778   0.661  0.0227 -0.4511  0.0792
  319SOL    HW2 1322   0.843   3.779   0.567  0.7716  0.5495 -0.0589
  319SOL    HW3 1323   0.871   3.685   0.681  0.3177 -0.6521 -0.9284
  319SOL    MW4 1324   0.860   3.766   0.651  0.1603 -0.3455 -0.0720
  320SOL     OW 1325   0.427   2.752   0.854 -0.2842  0.3054 -0.0144
  320SOL    HW2 1326   0.351   2.705   0.819  1.3121 -1.4029 -1.2872
  320SOL    HW3 1327   0.442   2.824   0.793  0.6417 -0.8705 -1.2021
  320SOL    MW4 1328   0.419   2.755   0.841  0.0486 -0.0756 -0.3390
  321SOL     OW 1329   2.469   2.852   1.249  0.0715 -0.1496 -0.0019
  321SOL    HW2 1330   2.473   2.859   1.345 -1.0086 -0.3214  0.0599
  321SOL    HW3 1331   2.401   2.787   1.233 -0.4409  0.6121 -0.9156
  321SOL    MW4 1332   2.461   2.844   1.260 -0.1388 -0.0720 -0.1144
  322SOL     OW 1333   0.099   0.620   0.539  0.0116 -0.6007  0.3858
  322SOL    HW2 1334   0.156   0.694   0.516 -1.2386  1.1283  2.6458
  322SOL    HW3 1335   0.043   0.608   0.462  1.7252 -0.6776 -0.8768
  322SOL    MW4 1336   0.099   0.628   0.526  0.0727 -0.3827  0.5175
  323SOL     OW 1337   4.488   0.998   0.468  0.1094 -0.6200 -0.0320
  323SOL    HW2 1338   4.575   0.959   0.476  0.4487  0.3539  1.1640
  323SOL    HW3 1339   4.451   0.990   0.556 -0.5565  0.0500 -0.2519
  323SOL    MW4 1340   4.495   0.991   0.481  0.0668 -0.4031  0.0968
  324SOL     OW 1341   2.982   3.131   0.807 -0.1287 -0.7422  0.2889
  324SOL    HW2 1342   2.976   3.141   0.902  1.1544 -1.0890  0.4177
  324SOL    HW3 1343   2.899   3.089   0.782 -0.6200 -0.3351  1.2007
  324SOL    MW4 1344   2.970   3.127   0.816 -0.0243 -0.7341  0.4262
  325SOL     OW 1345   1.099   2.267   1.125  0.5537  0.4507  0.0123
  325SOL    HW2 1346   1.117   2.261   1.031 -0.9238  0.0084 -0.2490
  325SOL    HW3 1347   1.032   2.334   1.133 -0.6737 -0.8166  0.5521
  325SOL    MW4 1348   1.093   2.275   1.114  0.1969  0.2248  0.0490
  326SOL     OW 1349   3.734   3.828   0.491  0.0029  0.2519 -0.4855
  326SOL    HW2 1350   3.791   3.768   0.539  0.4615  1.4863  0.5397
  326SOL    HW3 1351   3.649   3.785   0.491  0.2737 -0.3021  0.4429
  326SOL    MW4 1352   3.730   3.814   0.498  0.0992  0.3419 -0.2277
  327SOL     OW 1353   2.481   3.312   0.699  0.3720  0.1642 -0.1888
  327SOL    HW2 1354   2.457   3.234   0.750 -0.0173  0.6235  0.3363
  327SOL    HW3 1355   2.511   3.277   0.615 -2.8374 -0.3963 -1.1519
  327SOL    MW4 1356   2.482   3.297   0.695 -0.1028  0.1509 -0.2466
  328SOL     OW 1357   3.434   2.382   0.158 -0.3355  0.7004  1.0429
  328SOL    HW2 1358   3.468   2.319   0.222 -0.2165 -1.5626 -1.1796
  328SOL    HW3 1359   3.509   2.437   0.136  0.1555  0.1402  1.2878
  328SOL    MW4 1360   3.448   2.381   0.163 -0.2553  0.3281  0.7820
  329SOL     OW 1361   1.341   1.188   0.797  0.4274 -0.2117  0.0354
  329SOL    HW2 1362   1.418   1.157   0.749 -0.0872 -1.1942 -0.1654
  329SOL    HW3 1363   1.326   1.277   0.764 -0.4608 -1.1953 -2.2889
  329SOL    MW4 1364   1.349   1.196   0.786  0.2422 -0.4712 -0.2978
  330SOL     OW 1365   2.619   1.096   0.574  0.2023  0.3624  0.5060
  330SOL    HW2 1366   2.628   1.108   0.669 -1.0475 -0.2288  0.7067
  330SOL    HW3 1367   2.525   1.080   0.561  0.2413  1.1879 -0.9141
  330SOL    MW4 1368   2.607   1.096   0.585  0.0424  0.3934  0.3451
  331SOL     OW 1369   4.484   2.223   0.696 -0.2676 -0.0430 -0.0427
  331SOL    HW2 1370   4.491   2.137   0.738 -2.0114 -0.7483 -1.0881
  331SOL    HW3 1371   4.553   2.275   0.735  1.0737 -2.0477  0.3470
  331SOL    MW4 1372   4.494   2.218   0.707 -0.3204 -0.4005 -0.1292
  332SOL     OW 1373   3.147   3.993   1.230 -0.0811 -0.0521  0.0680
  332SOL    HW2 1374   3.145   4.088   1.215 -1.3045 -0.0039  0.4621
  332SOL    HW3 1375   3.163   3.985   1.324  1.3586 -0.2540 -0.1986
  332SOL    MW4 1376   3.149   4.005   1.241 -0.0525 -0.0725  0.0848
  333SOL     OW 1377   0.886   1.191   0.798  0.0330  0.3282 -0.7663
  333SOL    HW2 1378   0.905   1.181   0.891  0.2646 -1.8176 -0.9993
  333SOL    HW3 1379   0.889   1.285   0.781  1.0599  0.6478  1.1586
  333SOL    MW4 1380   0.889   1.202   0.808  0.1991  0.0874 -0.5432
  334SOL     OW 1381   2.016   0.795   0.820  0.2981  0.2532  0.1259
  334SOL    HW2 1382   2.074   0.742   0.765 -1.5315 -0.8209 -0.8430
  334SOL    HW3 1383   2.014   0.881   0.778  0.5096  0.0326 -0.3417
  334SOL    MW4 1384   2.024   0.799   0.807  0.0844  0.0824 -0.0635
  335SOL     OW 1385   2.786   2.199   0.738 -0.1945 -0.0656  0.3274
  335SOL    HW2 1386   2.710   2.240   0.779  0.0088  0.1308  0.5082
  335SOL    HW3 1387   2.771   2.207   0.644 -1.0598 -1.2469  0.3540
  335SOL    MW4 1388   2.774   2.205   0.731 -0.2818 -0.1953  0.3548
  336SOL     OW 1389   1.298   3.974   0.369  0.5273 -0.2096 -0.3075
  336SOL    HW2 1390   1.305   3.884   0.401  1.4908  0.2787  0.8949
  336SOL    HW3 1391   1.207   3.998   0.384  0.5392 -0.6060  0.4002
  336SOL    MW4 1392   1.287   3.966   0.375  0.6561 -0.1976 -0.0555
  337SOL     OW 1393   4.174   2.011   0.812 -0.0132 -0.1227 -0.0249
  337SOL    HW2 1394   4.133   1.981   0.893  0.3400 -0.9597 -0.1501
  337SOL    HW3 1395   4.225   1.936   0.782  0.5998  0.4951 -0.5332
  337SOL    MW4 1396   4.175   1.997   0.818  0.1140 -0.1514 -0.1085
  338SOL     OW 1397   0.688   2.390   0.457  0.1852 -0.1645  0.4226
  338SOL    HW2 1398   0.598   2.361   0.472  0.0977  0.0934  0.4015
  338SOL    HW3 1399   0.682   2.485   0.453  0.1597 -0.2169 -1.4426
  338SOL    MW4 1400   0.675   2.399   0.458  0.1704 -0.1373  0.1737
  339SOL     OW 1401   2.247   4.021   1.242 -0.1966  0.1259 -0.4153
  339SOL    HW2 1402   2.176   4.000   1.181  0.1439 -0.1178 -0.7294
  339SOL    HW3 1403   2.266   4.113   1.226 -2.1365  0.8873  1.4203
  339SOL    MW4 1404   2.240   4.030   1.232 -0.4075  0.1945 -0.2147
  340SOL     OW 1405   3.248   4.526   0.629 -0.0046  0.2443  0.1751
  340SOL    HW2 1406   3.222   4.525   0.722 -2.0241 -2.4343 -0.3424
  340SOL    HW3 1407   3.171   4.561   0.584  0.0606 -0.7212 -0.6923
  340SOL    MW4 1408   3.234   4.530   0.636 -0.2625 -0.2365 -0.0076
  341SOL     OW 1409   3.913   0.240   0.779 -0.1564  0.9413 -0.4017
  341SOL    HW2 1410   3.918   0.247   0.684  2.8956  0.5199 -0.3027
  341SOL    HW3 1411   3.980   0.300   0.812 -0.3876  0.2273  1.4559
  341SOL    MW4 1412   3.922   0.249   0.771  0.2158  0.7915 -0.1436
  342SOL     OW 1413   1.824   1.456   0.505  0.4832  0.2623 -0.2361
  342SOL    HW2 1414   1.858   1.546   0.509 -0.7684  0.7525 -0.1879
  342SOL    HW3 1415   1.737   1.466   0.466  0.7973 -1.0717 -1.3238
  342SOL    MW4 1416   1.817   1.469   0.500  0.3595  0.1510 -0.3733
  343SOL     OW 1417   1.518   1.594   0.841  0.1442  0.3468  0.1477
  343SOL    HW2 1418   1.598   1.545   0.823  2.2483  3.4494  0.7779
  343SOL    HW3 1419   1.520   1.609   0.935 -0.0075  2.3871 -0.1593
  343SOL    MW4 1420   1.528   1.589   0.851  0.4019  1.0253  0.1904
  344SOL     OW 1421   4.435   0.564   0.323 -0.0639 -0.3597 -0.3322
  344SOL    HW2 1422   4.458   0.615   0.245  0.5007  1.1816  0.8099
  344SOL    HW3 1423   4.341   0.578   0.334  0.1518  0.7464  0.1785
  344SOL    MW4 1424   4.426   0.572   0.314  0.0386 -0.0104 -0.1141
  345SOL     OW 1425   2.128   0.080   0.276 -0.0900 -0.4062  0.2879
  345SOL    HW2 1426   2.148   0.086   0.183 -0.3874  0.8371  0.2932
  345SOL    HW3 1427   2.059   0.014   0.281 -1.1739  0.6256 -0.5686
  345SOL    MW4 1428   2.121   0.072   0.264 -0.2723 -0.1060  0.1756
  346SOL     OW 1429   3.857   4.644   0.817 -0.0094 -0.2410  0.3850
  346SOL    HW2 1430   3.894   4.733   0.809 -0.6341  0.0879  1.1444
  346SOL    HW3 1431   3.846   4.631   0.911 -1.4043 -0.5201  0.1938
  346SOL    MW4 1432   3.861   4.654   0.828 -0.2759 -0.2346  0.4599
  347SOL     OW 1433   2.353   2.077   0.376  0.5866 -0.2726 -0.2044
  347SOL    HW2 1434   2.341   2.164   0.416  0.8616  0.0252 -0.7683
  347SOL    HW3 1435   2.268   2.058   0.336  1.1240  0.6126 -1.7900
  347SOL    MW4 1436   2.340   2.086   0.376  0.6938 -0.1166 -0.4880
  348SOL     OW 1437   2.517   4.153   0.472  0.1920 -0.4046  0.1763
  348SOL    HW2 1438   2.447   4.219   0.472  0.8057  0.2578  0.1667
  348SOL    HW3 1439   2.476   4.074   0.437 -0.9357 -0.4342  1.5251
  348SOL    MW4 1440   2.503   4.151   0.468  0.1245 -0.3214  0.3530
  349SOL     OW 1441   3.136   3.499   1.136  0.3091 -0.4428 -0.3715
  349SOL    HW2 1442   3.140   3.517   1.042  0.2408  0.1553 -0.2612
  349SOL    HW3 1443   3.210   3.548   1.172  1.1051 -1.6866 -0.2727
  349SOL    MW4 1444   3.147   3.508   1.128  0.4053 -0.5281 -0.3438
  350SOL     OW 1445   0.645   3.890   0.781 -0.3253  0.1633  0.3517
  350SOL    HW2 1446   0.722   3.845   0.747 -0.4997  0.1506 -0.0271
  350SOL    HW3 1447   0.668   3.912   0.871 -0.0164 -0.1641  0.3540
  350SOL    MW4 1448   0.658   3.887   0.789 -0.3076  0.1187  0.3021
  351SOL     OW 1449   2.210   1.404   0.743 -0.1372  0.1306  0.3679
  351SOL    HW2 1450   2.236   1.392   0.652  0.5584  0.5896  0.5037
  351SOL    HW3 1451   2.269   1.471   0.776 -1.1997  0.8527  0.8113
  351SOL    MW4 1452   2.221   1.411   0.735 -0.1855  0.2863  0.4444
  352SOL     OW 1453   2.443   3.627   1.198  0.1047  0.7579 -0.3011
  352SOL    HW2 1454   2.448   3.639   1.293  0.2030  0.0915 -0.2261
  352SOL    HW3 1455   2.512   3.565   1.177 -0.6022  0.0791 -0.6712
  352SOL    MW4 1456   2.453   3.621   1.208  0.0248  0.5803 -0.3401
  353SOL     OW 1457   0.433   3.713   0.733 -0.2827 -0.1472 -0.3779
  353SOL    HW2 1458   0.441   3.628   0.777  0.6357 -0.9838 -2.1119
  353SOL    HW3 1459   0.511   3.762   0.762 -0.7299  0.0630  0.4972
  353SOL    MW4 1460   0.445   3.708   0.743 -0.2206 -0.2296 -0.4912
  354SOL     OW 1461   4.127   1.135   0.289 -0.8281 -0.0566  0.3054
  354SOL    HW2 1462   4.197   1.194   0.262 -0.9414  0.6806  1.5765
  354SOL    HW3 1463   4.166   1.048   0.285  0.3683  0.3994  1.5896
  354SOL    MW4 1464   4.141   1.132   0.285 -0.6857  0.1009  0.6426
  355SOL     OW 1465   4.036   1.410   0.800 -0.0539 -0.2067  0.2898
  355SOL    HW2 1466   4.021   1.320   0.828 -1.3672  0.0919  0.5918
  355SOL    HW3 1467   4.030   1.407   0.705  0.1548 -0.4807  0.2843
  355SOL    MW4 1468   4.033   1.398   0.791 -0.1998 -0.2035  0.3289
  356SOL     OW 1469   2.744   2.996   0.742 -0.3969  0.1445  0.0549
  356SOL    HW2 1470   2.736   2.909   0.781 -0.5268  0.6376  1.1280
  356SOL    HW3 1471   2.664   3.041   0.766 -0.8000  0.2285 -1.3794
  356SOL    MW4 1472   2.733   2.990   0.750 -0.4673  0.2208  0.0072
  357SOL     OW 1473   0.064   0.618   0.800 -0.6598 -0.1339 -0.3867
  357SOL    HW2 1474   0.114   0.696   0.826  0.3323 -0.1834 -2.0408
  357SOL    HW3 1475   0.076   0.614   0.705 -0.3492 -2.5734 -0.2517
  357SOL    MW4 1476   0.072   0.628   0.791 -0.4879 -0.4623 -0.5872
  358SOL     OW 1477   3.563   3.708   0.764 -0.0940  0.2212 -0.0241
  358SOL    HW2 1478   3.550   3.713   0.670 -0.9221  1.3985  0.1358
  358SOL    HW3 1479   3.493   3.762   0.801  1.0517  0.9158  1.2006
  358SOL    MW4 1480   3.552   3.716   0.757 -0.0520  0.4680  0.1585
  359SOL     OW 1481   3.583   1.953   0.838 -0.1854  0.5919 -0.1138
  359SOL    HW2 1482   3.584   1.962   0.933 -0.5577  2.0627 -0.2371
  359SOL    HW3 1483   3.501   1.907   0.819 -0.0738  0.2284  0.2735
  359SOL    MW4 1484   3.572   1.948   0.848 -0.2198  0.7380 -0.0790
  360SOL     OW 1485   3.165   2.950   0.730 -0.1806 -0.0253  0.0899
  360SOL    HW2 1486   3.241   3.003   0.753  0.3954 -0.0813 -1.5869
  360SOL    HW3 1487   3.090   3.000   0.760  0.3542  1.7589 -1.4230
  360SOL    MW4 1488   3.165   2.963   0.737 -0.0339  0.2029 -0.3309
  361SOL     OW 1489   0.905   3.138   0.437  0.2681 -0.1420  0.4193
  361SOL    HW2 1490   0.899   3.086   0.518 -0.7852 -0.5780  0.0781
  361SOL    HW3 1491   0.937   3.077   0.371  0.9446  0.1649  0.4614
  361SOL    MW4 1492   0.908   3.123   0.439  0.2183 -0.1590  0.3799
  362SOL     OW 1493   1.784   1.679   1.251 -0.0804  0.3651 -0.1892
  362SOL    HW2 1494   1.792   1.762   1.205  1.8259  0.6318  0.6113
  362SOL    HW3 1495   1.864   1.631   1.229  1.3219  0.8557  3.4910
  362SOL    MW4 1496   1.795   1.684   1.242  0.3561  0.4650  0.4020
  363SOL     OW 1497   0.894   1.895   1.134 -0.5138  0.0226 -0.2986
  363SOL    HW2 1498   0.829   1.962   1.156  0.4585  1.0244 -0.3903
  363SOL    HW3 1499   0.976   1.929   1.169 -0.0602 -1.2974 -0.0540
  363SOL    MW4 1500   0.896   1.909   1.141 -0.3257 -0.0194 -0.2786
  364SOL     OW 1501   1.443   2.156   0.467 -0.0514 -0.2112  0.6178
  364SOL    HW2 1502   1.421   2.166   0.560  1.4425  0.1585  0.9462
  364SOL    HW3 1503   1.364   2.121   0.427 -0.8142 -0.0683  1.9787
  364SOL    MW4 1504   1.430   2.153   0.474  0.0451 -0.1435  0.8407
  365SOL     OW 1505   3.178   1.691   1.182 -0.3948  0.0984 -0.1650
  365SOL    HW2 1506   3.093   1.658   1.153 -0.3123  0.0461 -0.3464
  365SOL    HW3 1507   3.172   1.692   1.278 -0.0757 -1.2894 -0.1224
  365SOL    MW4 1508   3.166   1.687   1.191 -0.3421 -0.0917 -0.1833
  366SOL     OW 1509   1.801   3.254   1.195  0.3269  0.3329  0.2113
  366SOL    HW2 1510   1.807   3.264   1.290  1.5272 -0.5788  0.2466
  366SOL    HW3 1511   1.788   3.343   1.163 -0.4300  0.6064  1.2564
  366SOL    MW4 1512   1.800   3.267   1.203  0.3854  0.2487  0.3539
  367SOL     OW 1513   2.005   1.816   0.805  0.2757  0.2053 -0.1822
  367SOL    HW2 1514   1.934   1.867   0.843  2.1461  1.3234  1.8813
  367SOL    HW3 1515   1.992   1.727   0.839 -0.5824  0.1938 -0.5054
  367SOL    MW4 1516   1.994   1.811   0.814  0.4095  0.3512  0.0474
  368SOL     OW 1517   2.704   2.740   0.874  0.0071  0.4019 -0.0675
  368SOL    HW2 1518   2.715   2.750   0.969  0.1703  0.5984 -0.1061
  368SOL    HW3 1519   2.790   2.711   0.843  0.2416  1.3189 -0.2878
  368SOL    MW4 1520   2.717   2.737   0.882  0.0596  0.5488 -0.1017
  369SOL     OW 1521   2.312   4.616   0.471  0.0202  0.4091 -0.0147
  369SOL    HW2 1522   2.376   4.683   0.495  0.6717 -0.1980 -0.0409
  369SOL    HW3 1523   2.251   4.661   0.413 -0.7582  1.5266  1.6341
  369SOL    MW4 1524   2.312   4.631   0.466  0.0033  0.4764  0.1994
  370SOL     OW 1525   4.236   3.338   0.774 -0.2929  0.2938 -0.3421
  370SOL    HW2 1526   4.182   3.394   0.830 -0.7604 -0.4127 -0.0823
  370SOL    HW3 1527   4.234   3.380   0.688  1.0256  1.7864  0.3336
  370SOL    MW4 1528   4.229   3.351   0.770 -0.1807  0.3974 -0.2186
  371SOL     OW 1529   4.103   4.411   0.507 -0.5649  0.2719 -0.0186
  371SOL    HW2 1530   4.171   4.471   0.476  1.8046 -2.1236  0.3687
  371SOL    HW3 1531   4.082   4.443   0.595  0.5503  0.6459  0.1204
  371SOL    MW4 1532   4.109   4.423   0.515 -0.1049  0.0057  0.0508
  372SOL     OW 1533   0.214   4.423   1.191 -0.1814 -0.2920 -0.6436
  372SOL    HW2 1534   0.228   4.415   1.285  0.4261 -0.3202 -0.7342
  372SOL    HW3 1535   0.201   4.517   1.176  2.3077  0.0549 -0.8708
  372SOL    MW4 1536   0.215   4.435   1.201  0.2271 -0.2499 -0.6855
  373SOL     OW 1537   1.589   3.909   1.050  0.0412  0.0441 -0.2331
  373SOL    HW2 1538   1.659   3.957   1.095 -0.6962 -0.1796  1.1889
  373SOL    HW3 1539   1.510   3.958   1.071 -0.6584 -1.5336  0.8651
  373SOL    MW4 1540   1.588   3.922   1.059 -0.1484 -0.1936  0.0994
  374SOL     OW 1541   4.037   1.156   0.891  0.1464 -0.0897 -0.2394
  374SOL    HW2 1542   4.110   1.108   0.853  0.5249  2.1052 -2.3490
  374SOL    HW3 1543   3.964   1.094   0.887  1.2214 -1.3692 -0.5697
  374SOL    MW4 1544   4.037   1.141   0.886  0.3381  0.0310 -0.5613
  375SOL     OW 1545   4.471   2.685   1.158  0.2607  0.0345  0.3911
  375SOL    HW2 1546   4.476   2.596   1.192  0.1275  0.2037  0.8656
  375SOL    HW3 1547   4.468   2.675   1.063  2.3719 -0.3721  0.3553
  375SOL    MW4 1548   4.471   2.672   1.150  0.5217  0.0031  0.4492
  376SOL     OW 1549   2.992   2.350   0.878  0.0886  0.1647  0.0514
  376SOL    HW2 1550   2.929   2.297   0.829  0.3517  0.5216 -0.6921
  376SOL    HW3 1551   3.078   2.320   0.846  0.2714  0.1614  0.5463
  376SOL    MW4 1552   2.995   2.339   0.867  0.1473  0.2112  0.0186
  377SOL     OW 1553   0.834   0.646   0.671  0.0504  0.3614 -0.4642
  377SOL    HW2 1554   0.908   0.701   0.695  0.6659 -0.6232 -0.0934
  377SOL    HW3 1555   0.760   0.682   0.720  0.7753 -0.1132  1.0086
  377SOL    MW4 1556   0.834   0.658   0.680  0.2273  0.1689 -0.2209
  378SOL     OW 1557   2.046   2.609   0.748 -0.5603 -0.3851  0.1850
  378SOL    HW2 1558   2.051   2.518   0.778  0.9286 -1.3352 -2.7429
  378SOL    HW3 1559   2.122   2.651   0.788 -0.7296 -0.6584  0.8006
  378SOL    MW4 1560   2.057   2.603   0.757 -0.3862 -0.5465 -0.1200
  379SOL     OW 1561   3.671   2.120   0.502  0.7193 -0.1492  0.1480
  379SOL    HW2 1562   3.649   2.163   0.584  0.9642 -0.2536  0.2699
  379SOL    HW3 1563   3.744   2.171   0.467  2.0651 -1.3897  1.0704
  379SOL    MW4 1564   3.678   2.132   0.508  0.9294 -0.3269  0.2858
  380SOL     OW 1565   2.343   1.028   0.606  0.3072  0.5105 -0.2024
  380SOL    HW2 1566   2.358   0.935   0.622 -2.1895 -0.0438 -0.8502
  380SOL    HW3 1567   2.320   1.064   0.691 -0.7557  0.1146 -0.3242
  380SOL    MW4 1568   2.342   1.020   0.619 -0.1624  0.3852 -0.3039
  381SOL     OW 1569   3.371   3.873   0.844  0.1381  0.5197 -0.0722
  381SOL    HW2 1570   3.367   3.880   0.939  0.5897  2.0311 -0.1481
  381SOL    HW3 1571   3.376   3.964   0.814 -1.4073  0.1195 -1.5993
  381SOL    MW4 1572   3.371   3.886   0.852 -0.0062  0.6661 -0.2837
  382SOL     OW 1573   4.061   0.095   1.204 -0.1755 -0.2985 -0.5330
  382SOL    HW2 1574   4.142   0.059   1.167 -0.7198 -1.6512 -0.4448
  382SOL    HW3 1575   4.071   0.085   1.298  0.4543  1.5055 -0.4076
  382SOL    MW4 1576   4.073   0.089   1.211 -0.1645 -0.2390 -0.5047
  383SOL     OW 1577   2.282   4.277   1.147  0.3405 -0.2916 -0.1515
  383SOL    HW2 1578   2.219   4.347   1.165  1.0415 -0.1394  1.7973
  383SOL    HW3 1579   2.275   4.263   1.052  0.0479  2.2600 -0.5456
  383SOL    MW4 1580   2.273   4.285   1.137  0.3946  0.0653  0.0538
  384SOL     OW 1581   3.650   4.510   0.692  0.2246  0.0423 -0.2575
  384SOL    HW2 1582   3.719   4.574   0.712  0.9907 -1.2970  1.4771
  384SOL    HW3 1583   3.588   4.559   0.637  1.3839  1.9305  0.0475
  384SOL    MW4 1584   3.651   4.525   0.688  0.4787  0.1149  0.0116
  385SOL     OW 1585   2.242   0.532   0.471  0.1979 -0.0527  0.2394
  385SOL    HW2 1586   2.337   0.527   0.458  0.0552 -0.7185 -0.5860
  385SOL    HW3 1587   2.212   0.442   0.461 -0.3687 -0.0399  1.7788
  385SOL    MW4 1588   2.251   0.520   0.468  0.1044 -0.1388  0.3336
  386SOL     OW 1589   1.219   2.071   0.326  0.1635 -0.0007 -0.2675
  386SOL    HW2 1590   1.132   2.109   0.330  0.5999  1.1035 -1.0086
  386SOL    HW3 1591   1.213   2.003   0.259 -0.3145 -0.4410  0.2193
  386SOL    MW4 1592   1.207   2.067   0.318  0.1581  0.0868 -0.3010
  387SOL     OW 1593   3.565   3.195   0.351 -0.1600 -0.4700  0.0306
  387SOL    HW2 1594   3.659   3.188   0.335  0.0348  0.7215  0.5931
  387SOL    HW3 1595   3.537   3.106   0.370  0.9385 -0.7681  0.2847
  387SOL    MW4 1596   3.573   3.182   0.351  0.0105 -0.3521  0.1383
  388SOL     OW 1597   3.433   0.198   0.837  0.2149 -0.0958 -0.0810
  388SOL    HW2 1598   3.420   0.136   0.910  1.4272 -0.8244 -0.4612
  388SOL    HW3 1599   3.376   0.272   0.858 -0.4710 -0.8884  0.9236
  388SOL    MW4 1600   3.424   0.199   0.850  0.2842 -0.2965  0.0014
  389SOL     OW 1601   1.106   3.089   0.832  0.1131  0.1998  0.1434
  389SOL    HW2 1602   1.125   3.182   0.817  0.1791  0.0480 -0.7356
  389SOL    HW3 1603   1.190   3.045   0.820 -0.2333 -0.1575 -1.0956
  389SOL    MW4 1604   1.120   3.096   0.828  0.0763  0.1328 -0.1360
  390SOL     OW 1605   3.591   2.218   0.741  0.5414 -0.3184 -0.3485
  390SOL    HW2 1606   3.594   2.128   0.771  0.7248  0.0557  0.7711
  390SOL    HW3 1607   3.669   2.259   0.779 -0.4444  0.7414  0.5776
  390SOL    MW4 1608   3.602   2.212   0.750  0.4354 -0.1292 -0.0786
  391SOL     OW 1609   2.024   1.056   0.723  0.1711  0.6568  1.0910
  391SOL    HW2 1610   2.024   1.095   0.636 -0.8809  0.2283  0.8921
  391SOL    HW3 1611   1.947   1.094   0.766 -0.4808 -0.6905  1.1218
  391SOL    MW4 1612   2.014   1.066   0.717 -0.0539  0.4226  1.0689
  392SOL     OW 1613   0.008   4.514   0.271 -0.3335 -0.1705  0.2666
  392SOL    HW2 1614  -0.016   4.521   0.179 -0.1717  0.7092  0.2918
  392SOL    HW3 1615  -0.064   4.557   0.318 -0.4516 -0.6773  0.5626
  392SOL    MW4 1616  -0.005   4.521   0.265 -0.3277 -0.1211  0.3090
  393SOL     OW 1617   0.290   3.290   0.146 -0.4108 -0.1859 -0.2653
  393SOL    HW2 1618   0.362   3.245   0.191  0.3200  1.5455  0.3492
  393SOL    HW3 1619   0.334   3.357   0.092 -1.5694  1.3268  0.6226
  393SOL    MW4 1620   0.305   3.293   0.145 -0.4673  0.2420 -0.0671
  394SOL     OW 1621   4.331   0.502   1.243  0.6388 -0.0209  0.1565
  394SOL    HW2 1622   4.303   0.518   1.333  0.8439  2.9971 -0.2816
  394SOL    HW3 1623   4.254   0.463   1.201 -0.3322  0.9881  0.9684
  394SOL    MW4 1624   4.317   0.499   1.249  0.5379  0.5104  0.2058
  395SOL     OW 1625   1.973   1.534   0.869  0.2075 -0.6025 -0.0833
  395SOL    HW2 1626   2.046   1.478   0.841  0.1470 -1.3133  1.1654
  395SOL    HW3 1627   1.990   1.550   0.962 -0.9305 -0.2865  0.0690
  395SOL    MW4 1628   1.985   1.529   0.877  0.0492 -0.6546  0.1016
  396SOL     OW 1629   1.820   2.745   0.857 -0.1509  0.2646  0.1755
  396SOL    HW2 1630   1.751   2.710   0.801 -1.3177 -0.2548  1.9024
  396SOL    HW3 1631   1.894   2.686   0.844 -1.3212 -1.4935  1.2625
  396SOL    MW4 1632   1.821   2.733   0.848 -0.4593 -0.0360  0.5468
  397SOL     OW 1633   3.105   3.260   0.497 -0.5908 -0.4841  0.3735
  397SOL    HW2 1634   3.020   3.287   0.461 -0.6465 -1.1435 -0.0039
  397SOL    HW3 1635   3.111   3.167   0.476  0.0765 -0.5171  0.7019
  397SOL    MW4 1636   3.095   3.252   0.489 -0.5102 -0.5755  0.3670
  398SOL     OW 1637   0.437   0.360   0.851 -0.0618  0.3199  0.1539
  398SOL    HW2 1638   0.518   0.334   0.808  1.0838  1.0854  1.7869
  398SOL    HW3 1639   0.423   0.450   0.823 -1.3367 -0.3889 -1.5489
  398SOL    MW4 1640   0.446   0.368   0.842 -0.0788  0.3274  0.1447
  399SOL     OW 1641   2.618   3.246   0.475 -0.0878  0.1398  0.1209
  399SOL    HW2 1642   2.682   3.316   0.458  0.4075 -0.6194 -1.2048
  399SOL    HW3 1643   2.664   3.166   0.452 -1.0236 -0.5478  0.6201
  399SOL    MW4 1644   2.633   3.245   0.470 -0.1462 -0.0513  0.0118
  400SOL     OW 1645   0.248   2.070   1.223 -0.4178 -0.4626  0.0041
  400SOL    HW2 1646   0.243   2.158   1.186 -0.2211 -0.3615  0.2170
  400SOL    HW3 1647   0.312   2.025   1.169  0.3739 -0.1068  0.6473
  400SOL    MW4 1648   0.255   2.076   1.211 -0.2874 -0.4025  0.1171
  401SOL     OW 1649   2.989   0.496   0.405  0.1172  0.1510 -0.2417
  401SOL    HW2 1650   2.938   0.566   0.446 -1.4348 -0.4153 -1.1353
  401SOL    HW3 1651   2.956   0.492   0.315  1.7079 -0.2866 -0.8132
  401SOL    MW4 1652   2.978   0.504   0.399  0.1223  0.0186 -0.4350
  402SOL     OW 1653   1.924   4.241   0.214 -0.2878 -0.4823 -0.3309
  402SOL    HW2 1654   1.876   4.159   0.232  0.9555 -1.1333  0.0958
  402SOL    HW3 1655   1.969   4.225   0.131 -0.7905  0.1190 -0.7205
  402SOL    MW4 1656   1.924   4.228   0.206 -0.1903 -0.4888 -0.3260
  403SOL     OW 1657   1.951   2.652   0.483 -0.2149 -0.3913 -0.3308
  403SOL    HW2 1658   1.899   2.732   0.489 -0.5992 -0.5199 -1.7222
  403SOL    HW3 1659   1.978   2.634   0.573  2.0352  2.7372 -0.2838
  403SOL    MW4 1660   1.948   2.660   0.495  0.0312  0.0045 -0.5082
  404SOL     OW 1661   0.438   2.986   0.721 -0.3427  0.6347 -0.5121
  404SOL    HW2 1662   0.359   3.021   0.762 -0.1301  1.3741 -0.7214
  404SOL    HW3 1663   0.509   3.039   0.757  0.0733 -0.0960 -0.2428
  404SOL    MW4 1664   0.437   2.998   0.731 -0.2598  0.6359 -0.5041
  405SOL     OW 1665   0.444   3.469   1.123  0.4510 -0.3720 -0.3766
  405SOL    HW2 1666   0.371   3.526   1.144 -0.1389 -1.0715 -0.4887
  405SOL    HW3 1667   0.522   3.520   1.143 -0.0606  0.7373 -1.1974
  405SOL    MW4 1668   0.445   3.483   1.128  0.3057 -0.3178 -0.4997
  406SOL     OW 1669   1.583   4.152   0.693  0.4012 -0.8132 -0.6012
  406SOL    HW2 1670   1.581   4.174   0.600 -0.4764 -0.7058 -0.5610
  406SOL    HW3 1671   1.647   4.212   0.730 -0.3493  0.1783 -0.8854
  406SOL    MW4 1672   1.591   4.163   0.686  0.1864 -0.6680 -0.6334
  407SOL     OW 1673   0.216   1.797   0.774 -0.1572  0.3546  0.0847
  407SOL    HW2 1674   0.297   1.842   0.795 -1.2018  2.1644  0.3845
  407SOL    HW3 1675   0.149   1.844   0.825 -1.5268 -0.4081 -0.9769
  407SOL    MW4 1676   0.218   1.809   0.783 -0.4757  0.4927 -0.0157
  408SOL     OW 1677   1.171   3.300   0.429  0.0814 -0.0861  0.1186
  408SOL    HW2 1678   1.091   3.248   0.429 -0.0433  0.0993 -0.5342
  408SOL    HW3 1679   1.141   3.390   0.411  0.6185 -0.3286 -2.1965
  408SOL    MW4 1680   1.156   3.305   0.426  0.1359 -0.0939 -0.2730
  409SOL     OW 1681   0.192   2.351   0.842  0.4138  0.1503 -0.3875
  409SOL    HW2 1682   0.199   2.441   0.810 -3.0756  1.0234  1.0298
  409SOL    HW3 1683   0.209   2.358   0.936  3.9842 -1.3538 -0.8447
  409SOL    MW4 1684   0.195   2.364   0.850  0.4245  0.0670 -0.2608
  410SOL     OW 1685   1.097   2.929   0.313 -0.3324 -0.2910  0.6213
  410SOL    HW2 1686   1.155   2.960   0.383  1.3717 -1.5268 -0.1879
  410SOL    HW3 1687   1.060   2.847   0.347  0.0230 -0.5752  0.3332
  410SOL    MW4 1688   1.100   2.922   0.327 -0.0606 -0.4916  0.4765
  411SOL     OW 1689   3.619   0.420   1.158  0.1878 -0.0409  0.2043
  411SOL    HW2 1690   3.701   0.443   1.203  0.3722  1.4121 -0.8446
  411SOL    HW3 1691   3.640   0.426   1.065 -0.5332 -1.8071 -0.0823
  411SOL    MW4 1692   3.632   0.424   1.152  0.1171 -0.0823  0.0281
  412SOL     OW 1693   1.896   3.808   0.428 -0.3902  0.2313 -0.0764
  412SOL    HW2 1694   1.857   3.780   0.511 -0.9058 -1.4059 -0.8585
  412SOL    HW3 1695   1.845   3.884   0.402 -0.7262  0.2851  0.7163
  412SOL    MW4 1696   1.884   3.814   0.436 -0.5026  0.0224 -0.0750
  413SOL     OW 1697   0.839   3.754   0.373  0.1670 -0.0620 -0.4359
  413SOL    HW2 1698   0.842   3.824   0.307 -0.4505  0.1318 -0.2602
  413SOL    HW3 1699   0.758   3.707   0.354  0.8991 -1.1396 -0.9647
  413SOL    MW4 1700   0.829   3.757   0.362  0.1822 -0.1786 -0.4825
  414SOL     OW 1701   3.485   3.402   0.493  0.0259 -0.1964  0.0313
  414SOL    HW2 1702   3.433   3.365   0.564 -1.4894  0.0936 -0.9097
  414SOL    HW3 1703   3.519   3.327   0.446 -0.7437 -0.3957 -0.2117
  414SOL    MW4 1704   3.483   3.387   0.496 -0.2759 -0.1843 -0.1249
  415SOL     OW 1705   2.239   0.401   0.870  0.3320  0.0068  0.0603
  415SOL    HW2 1706   2.226   0.360   0.956 -1.7016 -0.3533 -0.3731
  415SOL    HW3 1707   2.314   0.355   0.832  1.2471  0.1732  1.6427
  415SOL    MW4 1708   2.247   0.389   0.876  0.1845 -0.0187  0.2118
  416SOL     OW 1709   0.436   2.706   1.131  0.1996  0.0937 -0.0624
  416SOL    HW2 1710   0.348   2.737   1.154  0.5054  0.7120  0.2779
  416SOL    HW3 1711   0.444   2.722   1.037  0.3596  1.0533  0.1140
  416SOL    MW4 1712   0.426   2.712   1.122  0.2611  0.3018  0.0058
  417SOL     OW 1713   1.117   3.336   0.714  0.0696 -0.0173  0.0173
  417SOL    HW2 1714   1.122   3.329   0.619 -1.5659 -1.1061 -0.0005
  417SOL    HW3 1715   1.186   3.399   0.737 -1.4286  2.5289 -2.1541
  417SOL    MW4 1716   1.127   3.343   0.705 -0.3439  0.1750 -0.2715
  418SOL     OW 1717   1.330   1.648   1.235 -0.5036  0.8994 -0.0387
  418SOL    HW2 1718   1.261   1.599   1.191  0.2851 -1.1097  0.9074
  418SOL    HW3 1719   1.318   1.739   1.206 -3.3970  0.5446 -0.0340
  418SOL    MW4 1720   1.320   1.654   1.226 -0.7813  0.5875  0.0867
  419SOL     OW 1721   4.106   0.006   0.228  0.1052 -0.1183  0.2396
  419SOL    HW2 1722   4.099   0.101   0.218 -1.7892 -0.4673 -2.0418
  419SOL    HW3 1723   4.021  -0.022   0.261  0.8790 -0.9733  1.5637
  419SOL    MW4 1724   4.094   0.015   0.231 -0.0424 -0.2772  0.1133
  420SOL     OW 1725   0.637   0.771   0.837  0.1192 -0.0435 -0.4069
  420SOL    HW2 1726   0.664   0.777   0.929  0.5772  0.3066 -0.5626
  420SOL    HW3 1727   0.569   0.704   0.837 -1.0397  1.1146  0.4486
  420SOL    MW4 1728   0.632   0.763   0.849  0.0268  0.1554 -0.3146
  421SOL     OW 1729   1.788   3.529   1.103  0.1318 -0.0244 -0.0400
  421SOL    HW2 1730   1.791   3.535   1.007 -1.6680  1.0071 -0.0648
  421SOL    HW3 1731   1.705   3.570   1.126 -0.2578 -1.8367  1.8636
  421SOL    MW4 1732   1.778   3.535   1.093 -0.1571 -0.1278  0.2080
  422SOL     OW 1733   3.907   1.640   0.338  0.2038 -0.0572  0.8407
  422SOL    HW2 1734   3.976   1.707   0.335 -0.9212  1.0757 -0.2748
  422SOL    HW3 1735   3.833   1.683   0.381  0.4953 -1.5724  2.9188
  422SOL    MW4 1736   3.906   1.654   0.343  0.0935 -0.1075  0.9677
  423SOL     OW 1737   1.342   4.019   1.155 -0.1138 -0.0863 -0.2287
  423SOL    HW2 1738   1.273   3.978   1.104  1.4914 -2.3346 -0.6777
  423SOL    HW3 1739   1.357   4.103   1.112 -0.7494 -0.7169 -1.7253
  423SOL    MW4 1740   1.335   4.024   1.143  0.0141 -0.4659 -0.4855
  424SOL     OW 1741   0.230   0.865   0.508  0.0427  0.3043 -0.3686
  424SOL    HW2 1742   0.246   0.922   0.583  0.8419  0.5680 -0.7217
  424SOL    HW3 1743   0.315   0.862   0.462  0.2048 -1.6832 -0.0023
  424SOL    MW4 1744   0.244   0.872   0.512  0.1695  0.0769 -0.3667
  425SOL     OW 1745   2.667   1.700   0.453 -0.0749 -0.4079 -0.4545
  425SOL    HW2 1746   2.576   1.725   0.468 -0.1310 -0.2415 -1.0783
  425SOL    HW3 1747   2.711   1.721   0.535 -0.5391 -0.2187 -0.2503
  425SOL    MW4 1748   2.661   1.706   0.466 -0.1435 -0.3611 -0.5099
  426SOL     OW 1749   3.184   4.544   0.896 -0.1032 -0.5480  0.0065
  426SOL    HW2 1750   3.104   4.595   0.886 -0.4651 -1.1513 -0.2726
  426SOL    HW3 1751   3.239   4.595   0.955 -0.0273  0.6568 -1.0892
  426SOL    MW4 1752   3.181   4.557   0.902 -0.1409 -0.4687 -0.1748
  427SOL     OW 1753   2.043   2.049   1.201 -0.6853 -0.3456 -0.1148
  427SOL    HW2 1754   2.035   2.062   1.295  0.3857  0.9080 -0.1788
  427SOL    HW3 1755   2.043   2.138   1.165 -1.5855 -0.8289 -1.3437
  427SOL    MW4 1756   2.042   2.063   1.209 -0.6626 -0.2439 -0.2853
  428SOL     OW 1757   4.043   4.241   0.832 -0.1665 -0.3197 -0.1886
  428SOL    HW2 1758   4.107   4.180   0.796 -0.1535  0.1441 -0.9615
  428SOL    HW3 1759   3.958   4.204   0.809 -0.1839 -0.9048  0.7859
  428SOL    MW4 1760   4.040   4.228   0.825 -0.1669 -0.3357 -0.1620
  429SOL     OW 1761   3.171   0.447   1.129  0.3524  0.3105  0.3981
  429SOL    HW2 1762   3.191   0.383   1.197  1.3528  0.9377  0.7008
  429SOL    HW3 1763   3.229   0.521   1.147  0.3929  0.6227 -0.9328
  429SOL    MW4 1764   3.181   0.448   1.140  0.4900  0.4345  0.2624
  430SOL     OW 1765   2.726   4.573   0.806  0.1680 -0.1591 -0.2620
  430SOL    HW2 1766   2.710   4.484   0.837 -2.2771  1.0010  1.9198
  430SOL    HW3 1767   2.755   4.561   0.715  1.1209 -3.2253  0.3722
  430SOL    MW4 1768   2.728   4.560   0.798 -0.0291 -0.4106  0.1095
  431SOL     OW 1769   3.041   1.905   0.618  0.5428 -0.4949  0.5023
  431SOL    HW2 1770   2.953   1.877   0.642  0.3655  0.1524  0.6219
  431SOL    HW3 1771   3.068   1.844   0.550 -0.2772 -0.2577 -0.0465
  431SOL    MW4 1772   3.033   1.894   0.612  0.4113 -0.3783  0.4457
  432SOL     OW 1773   3.292   1.571   0.486  0.6268  0.2894  0.0248
  432SOL    HW2 1774   3.352   1.500   0.465  0.9030  0.7003 -0.5905
  432SOL    HW3 1775   3.348   1.647   0.501  0.3631  0.2659  1.1655
  432SOL    MW4 1776   3.307   1.572   0.485  0.6282  0.3405  0.0941
  433SOL     OW 1777   3.028   2.120   0.436 -0.0581  0.3080  0.1228
  433SOL    HW2 1778   3.012   2.047   0.496 -0.7124  0.7478  0.4782
  433SOL    HW3 1779   3.102   2.167   0.474 -0.4339  0.5524  0.5463
  433SOL    MW4 1780   3.036   2.116   0.449 -0.1941  0.3979  0.2256
  434SOL     OW 1781   2.632   2.020   0.355  0.1015 -0.0584 -0.0052
  434SOL    HW2 1782   2.660   1.928   0.344  1.2662  0.4471 -1.5467
  434SOL    HW3 1783   2.540   2.020   0.330  0.4198 -0.6101 -1.2610
  434SOL    MW4 1784   2.624   2.008   0.350  0.2973 -0.0646 -0.3743
  435SOL     OW 1785   2.839   0.708   0.519 -0.1076  0.3422  0.2002
  435SOL    HW2 1786   2.817   0.705   0.612 -2.6981  0.9961 -0.3357
  435SOL    HW3 1787   2.875   0.796   0.506 -0.8346  0.6752  0.3869
  435SOL    MW4 1788   2.841   0.719   0.530 -0.5457  0.4724  0.1542
  436SOL     OW 1789   0.253   3.874   0.429 -0.4100 -0.1707 -0.4556
  436SOL    HW2 1790   0.298   3.956   0.409 -1.0550  0.5619  0.9625
  436SOL    HW3 1791   0.323   3.809   0.431  0.2010  0.4555 -0.9852
  436SOL    MW4 1792   0.268   3.876   0.427 -0.4145  0.0086 -0.3384
  437SOL     OW 1793   2.028   3.914   0.813  0.3710 -0.1039  0.5030
  437SOL    HW2 1794   2.108   3.882   0.770  1.8898  2.0971  1.5966
  437SOL    HW3 1795   2.016   4.002   0.780 -1.0371 -0.0390  1.1539
  437SOL    MW4 1796   2.037   3.921   0.803  0.3853  0.1950  0.7331
  438SOL     OW 1797   1.802   2.980   0.699 -0.2318 -0.0357  0.2356
  438SOL    HW2 1798   1.725   3.025   0.734 -0.4177  0.1502 -0.4099
  438SOL    HW3 1799   1.818   2.909   0.761 -0.7221  0.1275  0.5543
  438SOL    MW4 1800   1.794   2.977   0.712 -0.3210  0.0105  0.1925
  439SOL     OW 1801   0.009   3.427   0.862  0.0364 -0.0062  0.3437
  439SOL    HW2 1802  -0.072   3.378   0.850 -0.0505  0.2853 -0.2662
  439SOL    HW3 1803  -0.005   3.509   0.815  1.2488 -0.5843 -1.0629
  439SOL    MW4 1804  -0.004   3.431   0.854  0.1850 -0.0441  0.0777
  440SOL     OW 1805   0.168   3.282   0.471 -0.1607 -0.2569 -0.3898
  440SOL    HW2 1806   0.120   3.200   0.485 -0.5144  0.0007 -0.0663
  440SOL    HW3 1807   0.134   3.317   0.389 -0.0597 -0.3991 -0.4920
  440SOL    MW4 1808   0.157   3.276   0.462 -0.1940 -0.2413 -0.3606
  441SOL     OW 1809   2.655   1.409   0.800  0.2410 -0.4880 -0.5923
  441SOL    HW2 1810   2.673   1.319   0.827 -1.1432 -0.7093 -0.4032
  441SOL    HW3 1811   2.627   1.402   0.709 -0.2928 -0.2960 -0.4449
  441SOL    MW4 1812   2.654   1.396   0.792 -0.0119 -0.4919 -0.5478
  442SOL     OW 1813   2.472   0.786   1.104 -0.2831 -0.1882  0.3571
  442SOL    HW2 1814   2.453   0.698   1.137 -0.1360 -0.2819  0.1931
  442SOL    HW3 1815   2.402   0.840   1.139  1.2331  0.1994  2.8910
  442SOL    MW4 1816   2.460   0.781   1.113 -0.0637 -0.1494  0.6696
  443SOL     OW 1817   3.958   3.463   0.370 -0.0475  0.0066  0.5586
  443SOL    HW2 1818   3.989   3.546   0.334  0.6439 -0.4743  0.0305
  443SOL    HW3 1819   3.893   3.488   0.436 -1.0337  0.9154 -0.7316
  443SOL    MW4 1820   3.953   3.477   0.374 -0.0865  0.0629  0.3187
  444SOL     OW 1821   0.963   1.921   0.866  0.0588 -0.1222 -0.1060
  444SOL    HW2 1822   0.882   1.896   0.820  0.2415 -0.7366 -0.0928
  444SOL    HW3 1823   0.940   1.916   0.958 -0.1866  0.7050 -0.1212
  444SOL    MW4 1824   0.949   1.917   0.872  0.0505 -0.0942 -0.1062
  445SOL     OW 1825   1.405   2.672   0.837 -0.3059  0.2627  0.4941
  445SOL    HW2 1826   1.398   2.667   0.933  0.2004 -1.8786  0.4435
  445SOL    HW3 1827   1.330   2.622   0.805  0.2492 -0.1375 -0.2062
  445SOL    MW4 1828   1.394   2.664   0.846 -0.1658 -0.0725  0.3950
  446SOL     OW 1829   1.619   1.837   0.721 -0.3075  0.2233  0.3898
  446SOL    HW2 1830   1.608   1.850   0.626  0.4403  0.9167  0.3913
  446SOL    HW3 1831   1.596   1.746   0.735 -1.0117  0.2717 -0.3762
  446SOL    MW4 1832   1.614   1.827   0.710 -0.3017  0.3211  0.2888
  447SOL     OW 1833   3.408   2.977   0.443  0.0429 -0.5344  0.6406
  447SOL    HW2 1834   3.452   2.906   0.396 -0.7820 -0.7674  0.2225
  447SOL    HW3 1835   3.318   2.976   0.411 -0.0200  0.6037  0.7309
  447SOL    MW4 1836   3.402   2.968   0.432 -0.0744 -0.4148  0.5973
  448SOL     OW 1837   0.665   4.131   0.655  0.1579  0.0995 -0.2844
  448SOL    HW2 1838   0.663   4.042   0.690  0.0051  0.2352  0.0516
  448SOL    HW3 1839   0.609   4.181   0.714  0.7066  0.5378 -0.1341
  448SOL    MW4 1840   0.657   4.126   0.668  0.2100  0.1755 -0.2204
  449SOL     OW 1841   2.931   4.177   0.738 -0.1465  0.3118 -0.0638
  449SOL    HW2 1842   2.926   4.092   0.782 -1.5301 -0.1501 -1.1188
  449SOL    HW3 1843   2.868   4.172   0.667  0.9044  1.6586 -1.1211
  449SOL    MW4 1844   2.922   4.165   0.735 -0.1903  0.4292 -0.3425
  450SOL     OW 1845   1.804   1.909   1.129  0.2054 -0.0675 -0.2736
  450SOL    HW2 1846   1.736   1.955   1.178  0.0916 -0.7467  0.2137
  450SOL    HW3 1847   1.886   1.942   1.167  0.1670  1.0181 -1.1053
  450SOL    MW4 1848   1.806   1.919   1.141  0.1851 -0.0139 -0.3190
  451SOL     OW 1849   3.781   3.872   0.799  0.5049 -0.4583  0.2008
  451SOL    HW2 1850   3.718   3.801   0.782  0.4538 -0.2801 -0.3898
  451SOL    HW3 1851   3.857   3.850   0.745  0.3660  0.0990 -0.2213
  451SOL    MW4 1852   3.783   3.860   0.789  0.4799 -0.3610  0.0672
  452SOL     OW 1853   3.551   4.280   1.130 -0.3166  0.2817 -0.2681
  452SOL    HW2 1854   3.541   4.185   1.137 -2.1782  0.4280 -0.7335
  452SOL    HW3 1855   3.574   4.295   1.039  0.1351  0.2736 -0.1577
  452SOL    MW4 1856   3.553   4.270   1.119 -0.5026  0.2999 -0.3150
  453SOL     OW 1857   1.801   0.366   1.110 -0.2133 -0.2119 -0.3586
  453SOL    HW2 1858   1.801   0.367   1.014  0.4455  2.9845 -0.3680
  453SOL    HW3 1859   1.732   0.428   1.134  1.5237  1.1400  1.2058
  453SOL    MW4 1860   1.792   0.374   1.100  0.1029  0.3882 -0.1535
  454SOL     OW 1861   0.646   4.156   0.362  0.3386 -0.3161 -0.0330
  454SOL    HW2 1862   0.705   4.102   0.309  0.2311 -0.5330  0.0700
  454SOL    HW3 1863   0.679   4.147   0.451  0.6530  0.2228 -0.0896
  454SOL    MW4 1864   0.658   4.148   0.367  0.3659 -0.2737 -0.0269
  455SOL     OW 1865   2.456   3.866   0.851  0.5091 -0.0519 -0.1427
  455SOL    HW2 1866   2.476   3.953   0.817  0.8088 -0.0899 -0.0682
  455SOL    HW3 1867   2.465   3.873   0.946 -0.5569  0.1095 -0.0478
  455SOL    MW4 1868   2.460   3.878   0.859  0.4079 -0.0355 -0.1203
  456SOL     OW 1869   2.012   0.515   1.192 -0.3589  0.1577 -0.1709
  456SOL    HW2 1870   1.942   0.463   1.153  0.0450 -0.9603  0.5903
  456SOL    HW3 1871   2.002   0.502   1.286  1.0178 -0.1985 -0.0671
  456SOL    MW4 1872   2.001   0.507   1.199 -0.1237 -0.0367 -0.0566
  457SOL     OW 1873   3.600   4.003   1.475  0.0528  0.5154 -0.2454
  457SOL    HW2 1874   3.550   3.943   1.530  0.1814 -0.8702 -1.5878
  457SOL    HW3 1875   3.592   4.088   1.518 -0.6064 -0.3512  1.3917
  457SOL    MW4 1876   3.592   4.006   1.488 -0.0172  0.2184 -0.2065
  458SOL     OW 1877   1.303   0.515   0.477 -0.2675  0.0152 -0.1666
  458SOL    HW2 1878   1.398   0.525   0.470 -0.1118 -1.6461 -0.6800
  458SOL    HW3 1879   1.284   0.524   0.570  0.3677  0.5902 -0.0945
  458SOL    MW4 1880   1.313   0.518   0.488 -0.1632 -0.1281 -0.2249
  459SOL     OW 1881   4.125   0.410   0.888  0.6513 -0.1456 -0.6446
  459SOL    HW2 1882   4.205   0.377   0.847 -0.2262 -0.0327 -2.5343
  459SOL    HW3 1883   4.104   0.489   0.838 -0.8210 -0.3553 -0.3941
  459SOL    MW4 1884   4.132   0.416   0.876  0.3419 -0.1584 -0.8609
  460SOL     OW 1885   4.262   2.836   1.247  0.2350  0.1278 -0.0159
  460SOL    HW2 1886   4.343   2.793   1.218 -0.1407  0.3766 -1.4912
  460SOL    HW3 1887   4.266   2.923   1.207  0.3511  1.0054  1.8525
  460SOL    MW4 1888   4.273   2.842   1.238  0.2007  0.2768  0.0359
  461SOL     OW 1889   1.793   0.367   0.845 -0.3093 -0.1985  0.0318
  461SOL    HW2 1890   1.801   0.456   0.810 -0.8487 -1.3382 -3.2079
  461SOL    HW3 1891   1.709   0.335   0.811 -0.3529 -1.8001  1.5472
  461SOL    MW4 1892   1.783   0.374   0.836 -0.3862 -0.5602 -0.1957
  462SOL     OW 1893   4.303   1.772   0.725  0.2736 -0.5342  0.2294
  462SOL    HW2 1894   4.315   1.742   0.635 -0.0737 -0.6198  0.2118
  462SOL    HW3 1895   4.331   1.699   0.779 -0.8548 -1.0061  0.1863
  462SOL    MW4 1896   4.308   1.759   0.720  0.0792 -0.6077  0.2214
  463SOL     OW 1897   4.325   4.604   0.865 -0.3513 -0.1658  0.4716
  463SOL    HW2 1898   4.393   4.537   0.852 -0.9298 -0.6179 -0.3268
  463SOL    HW3 1899   4.250   4.570   0.816 -0.4311  1.3997 -0.5083
  463SOL    MW4 1900   4.324   4.590   0.857 -0.4387 -0.0191  0.2369
  464SOL     OW 1901   0.884   4.026   1.180 -0.0003 -0.1027  0.3386
  464SOL    HW2 1902   0.889   4.118   1.154 -0.9182 -0.6830 -1.9692
  464SOL    HW3 1903   0.887   4.029   1.276  0.9628  2.2534  0.2854
  464SOL    MW4 1904   0.885   4.039   1.189  0.0057  0.1311  0.0271
  465SOL     OW 1905   4.353   3.636   0.516 -0.6894 -0.4053  0.6366
  465SOL    HW2 1906   4.308   3.699   0.460 -1.4436  0.3359  2.0494
  465SOL    HW3 1907   4.312   3.552   0.495 -0.6236 -0.2247 -0.2641
  465SOL    MW4 1908   4.342   3.634   0.506 -0.7806 -0.2837  0.7042
  466SOL     OW 1909   1.146   0.002   1.066  0.3230  0.1039 -0.7381
  466SOL    HW2 1910   1.116  -0.081   1.103  0.7614  0.5894  0.7516
  466SOL    HW3 1911   1.147  -0.013   0.972 -0.6813 -1.2206 -0.5595
  466SOL    MW4 1912   1.142  -0.011   1.059  0.2484 -0.0068 -0.5181
  467SOL     OW 1913   4.466   2.418   1.247  0.1532 -0.0828  0.1845
  467SOL    HW2 1914   4.462   2.424   1.343  0.4337  1.7410  0.0910
  467SOL    HW3 1915   4.377   2.392   1.222  0.0495 -0.4809  0.9387
  467SOL    MW4 1916   4.453   2.415   1.257  0.1769  0.1054  0.2717
  468SOL     OW 1917   1.608   3.236   0.438  0.0005 -0.4340  0.0341
  468SOL    HW2 1918   1.543   3.254   0.370  1.0812  0.5646 -0.7727
  468SOL    HW3 1919   1.579   3.287   0.514 -0.7494 -0.8629  0.0340
  468SOL    MW4 1920   1.596   3.245   0.439  0.0442 -0.3591 -0.0724
  469SOL     OW 1921   3.154   4.274   1.141  0.4143  0.1728  0.2725
  469SOL    HW2 1922   3.221   4.336   1.171  1.0410  0.7608 -2.2104
  469SOL    HW3 1923   3.158   4.280   1.046 -0.0062 -3.1752 -0.0022
  469SOL    MW4 1924   3.163   4.283   1.133  0.4413 -0.1912 -0.0914
  470SOL     OW 1925   2.689   3.837   0.493  0.2289  0.3322 -0.0731
  470SOL    HW2 1926   2.676   3.803   0.582 -1.4134  2.0025  0.3668
  470SOL    HW3 1927   2.600   3.852   0.460  0.8338  0.0807 -1.8776
  470SOL    MW4 1928   2.676   3.834   0.500  0.0916  0.5193 -0.2532
  471SOL     OW 1929   2.948   2.606   0.785  0.2229  0.3498 -0.4493
  471SOL    HW2 1930   2.950   2.521   0.829  0.8604 -0.5575 -2.1539
  471SOL    HW3 1931   3.029   2.649   0.810  0.1469  0.2388 -0.0081
  471SOL    MW4 1932   2.959   2.600   0.794  0.2968  0.2153 -0.6160
  472SOL     OW 1933   1.268   0.610   0.762 -0.2705  0.4007 -0.3253
  472SOL    HW2 1934   1.296   0.524   0.794 -0.2589  0.6130  0.2361
  472SOL    HW3 1935   1.348   0.662   0.759 -0.3204  0.4727 -0.4169
  472SOL    MW4 1936   1.282   0.605   0.766 -0.2756  0.4382 -0.2633
  473SOL     OW 1937   0.889   1.212   1.073 -0.3612  0.0935 -0.1638
  473SOL    HW2 1938   0.887   1.121   1.100 -0.5604 -0.2921 -1.4846
  473SOL    HW3 1939   0.967   1.248   1.117  0.3005 -0.9616 -0.4732
  473SOL    MW4 1940   0.899   1.205   1.083 -0.3001 -0.0966 -0.3788
  474SOL     OW 1941   2.465   1.561   1.163  0.2323 -0.1881  0.2759
  474SOL    HW2 1942   2.550   1.602   1.178  0.9582 -1.6530  0.2613
  474SOL    HW3 1943   2.449   1.571   1.069 -0.3162  1.3944  0.5215
  474SOL    MW4 1944   2.474   1.568   1.153  0.2558 -0.1726  0.3064
  475SOL     OW 1945   3.709   1.433   0.268  0.0884 -0.0135  0.1392
  475SOL    HW2 1946   3.696   1.445   0.174  0.9516 -0.7003 -0.0702
  475SOL    HW3 1947   3.779   1.495   0.290 -0.0956  0.1285  0.3333
  475SOL    MW4 1948   3.717   1.443   0.258  0.1779 -0.0855  0.1372
  476SOL     OW 1949   1.954   1.197   0.492 -0.2986 -0.5983 -0.7782
  476SOL    HW2 1950   1.911   1.282   0.483 -0.0693 -0.3962 -0.0025
  476SOL    HW3 1951   1.898   1.136   0.445 -0.2416  0.0570 -1.7045
  476SOL    MW4 1952   1.941   1.200   0.485 -0.2609 -0.4853 -0.7981
  477SOL     OW 1953   4.480   1.151   0.829  0.0688  0.1886  0.4683
  477SOL    HW2 1954   4.475   1.243   0.804  1.4352  0.2950  0.5533
  477SOL    HW3 1955   4.466   1.151   0.924 -1.6220  0.1265  0.2376
  477SOL    MW4 1956   4.477   1.163   0.838  0.0257  0.1944  0.4491
  478SOL     OW 1957   0.050   4.420   0.824 -0.1130 -0.4600  0.0983
  478SOL    HW2 1958   0.046   4.364   0.902 -0.2487 -0.5364  0.0364
  478SOL    HW3 1959   0.124   4.479   0.840  0.7193 -1.3825 -0.3235
  478SOL    MW4 1960   0.059   4.421   0.836 -0.0211 -0.5918  0.0344
  479SOL     OW 1961   4.081   0.649   0.736 -0.2679 -0.1056 -0.0023
  479SOL    HW2 1962   4.016   0.681   0.798 -0.0263  0.2836  0.0519
  479SOL    HW3 1963   4.165   0.682   0.769  0.0358 -1.1328  0.2730
  479SOL    MW4 1964   4.084   0.657   0.748 -0.1960 -0.1897  0.0412
  480SOL     OW 1965   1.157   2.830   1.242  0.5693  0.1194 -0.6681
  480SOL    HW2 1966   1.155   2.847   1.336  0.3851  1.6821 -0.9415
  480SOL    HW3 1967   1.073   2.788   1.223  0.3210  0.4319 -0.2491
  480SOL    MW4 1968   1.146   2.827   1.252  0.5122  0.3669 -0.6490
  481SOL     OW 1969   4.082   2.719   0.841 -0.0855  0.3749  0.1574
  481SOL    HW2 1970   4.028   2.789   0.802 -0.5580  0.9301  1.7871
  481SOL    HW3 1971   4.067   2.727   0.935  0.6734 -1.2790  0.4218
  481SOL    MW4 1972   4.073   2.730   0.848 -0.0477  0.2301  0.4072
  482SOL     OW 1973   2.169   2.850   0.506  0.2058 -0.2693  0.5397
  482SOL    HW2 1974   2.106   2.778   0.504 -0.7639  0.5986 -1.7073
  482SOL    HW3 1975   2.124   2.922   0.461  2.1649  0.8929  0.3986
  482SOL    MW4 1976   2.154   2.850   0.500  0.3362 -0.0014  0.2246
  483SOL     OW 1977   2.238   2.941   0.758  0.2862 -0.7013 -0.3968
  483SOL    HW2 1978   2.244   2.910   0.668  0.7068  0.3537 -0.7378
  483SOL    HW3 1979   2.161   2.998   0.759 -0.2721 -1.4482  0.1430
  483SOL    MW4 1980   2.229   2.944   0.746  0.2680 -0.6607 -0.3707
  484SOL     OW 1981   2.477   0.277   0.756 -0.4176  0.2710  0.0871
  484SOL    HW2 1982   2.563   0.309   0.783  0.2036 -0.1225 -1.3794
  484SOL    HW3 1983   2.473   0.187   0.788 -0.1477  0.1748 -0.1557
  484SOL    MW4 1984   2.488   0.270   0.764 -0.3002  0.2064 -0.1384
  485SOL     OW 1985   0.922   4.280   1.074 -0.1736 -0.3788 -0.4928
  485SOL    HW2 1986   0.862   4.341   1.118  0.9555  0.8198 -0.5988
  485SOL    HW3 1987   0.900   4.288   0.981  1.5359  1.6261 -0.7544
  485SOL    MW4 1988   0.911   4.289   1.068  0.2009  0.0448 -0.5414
  486SOL     OW 1989   0.067   0.111   1.278 -0.4373 -0.3064  0.1972
  486SOL    HW2 1990  -0.010   0.060   1.252 -1.1282  0.6837  0.2519
  486SOL    HW3 1991   0.058   0.194   1.230  0.8237 -0.3438 -0.1222
  486SOL    MW4 1992   0.055   0.115   1.268 -0.3621 -0.1807  0.1624
  487SOL     OW 1993   2.767   2.574   0.571 -0.6678  0.4185 -0.1832
  487SOL    HW2 1994   2.810   2.588   0.655 -2.0773  1.0607  0.4371
  487SOL    HW3 1995   2.808   2.495   0.535 -1.1264 -0.7366  1.7912
  487SOL    MW4 1996   2.778   2.565   0.577 -0.9143  0.3507  0.1591
  488SOL     OW 1997   0.245   0.560   1.283  0.2912  0.0758  0.0224
  488SOL    HW2 1998   0.184   0.497   1.244  1.8940 -1.0223 -0.7829
  488SOL    HW3 1999   0.238   0.637   1.227 -1.1346  0.3372  0.5620
  488SOL    MW4 2000   0.236   0.562   1.270  0.3146 -0.0346 -0.0126
  489SOL     OW 2001   0.432   0.932   1.187 -0.4858  0.3034 -0.3602
  489SOL    HW2 2002   0.431   0.946   1.281  0.2271 -1.6325 -0.0455
  489SOL    HW3 2003   0.427   1.021   1.149 -1.5484  1.0410  1.4620
  489SOL    MW4 2004   0.431   0.946   1.194 -0.5319  0.1453 -0.0783
  490SOL     OW 2005   0.903   3.501   0.764  0.0975  0.1200 -0.0573
  490SOL    HW2 2006   0.831   3.441   0.741  0.2501 -0.8840  1.9811
  490SOL    HW3 2007   0.981   3.461   0.725  0.0810 -0.6076  0.6537
  490SOL    MW4 2008   0.904   3.488   0.756  0.1155 -0.1087  0.3054
  491SOL     OW 2009   2.669   2.276   0.483  0.0099  0.6716  0.0798
  491SOL    HW2 2010   2.751   2.303   0.441 -0.2379 -0.4888 -1.2014
  491SOL    HW3 2011   2.652   2.188   0.448 -0.7820  0.1118  1.7986
  491SOL    MW4 2012   2.678   2.268   0.473 -0.1271  0.4444  0.1376
  492SOL     OW 2013   0.419   1.191   1.093 -0.2271  0.0395 -0.3059
  492SOL    HW2 2014   0.494   1.246   1.114  0.8968 -1.5133 -0.2597
  492SOL    HW3 2015   0.410   1.198   0.998  0.7107 -0.7038 -0.4571
  492SOL    MW4 2016   0.427   1.199   1.084  0.0449 -0.2636 -0.3197
  493SOL     OW 2017   0.142   0.333   0.503  0.0662 -0.0280 -0.7914
  493SOL    HW2 2018   0.175   0.304   0.588  0.6549  1.5749 -0.4611
  493SOL    HW3 2019   0.117   0.424   0.516  0.6366  0.3904 -2.4713
  493SOL    MW4 2020   0.143   0.341   0.516  0.2192  0.2387 -0.9695
  494SOL     OW 2021   4.484   1.975   1.113  0.2509 -0.1890 -0.2025
  494SOL    HW2 2022   4.557   2.030   1.144  0.5100 -1.2854  1.1882
  494SOL    HW3 2023   4.406   2.018   1.148  0.4258 -0.4542  0.5325
  494SOL    MW4 2024   4.484   1.988   1.122  0.3082 -0.3686  0.0778
  495SOL     OW 2025   2.214   0.633   0.728  0.6416  0.4757 -0.2978
  495SOL    HW2 2026   2.225   0.549   0.774 -0.7799  0.1049 -0.6183
  495SOL    HW3 2027   2.219   0.610   0.636 -0.3143  0.6622 -0.3969
  495SOL    MW4 2028   2.216   0.619   0.722  0.3281  0.4514 -0.3532
  496SOL     OW 2029   0.220   2.323   1.126  0.4972 -0.5622  0.3778
  496SOL    HW2 2030   0.148   2.374   1.164  0.7950  0.9977 -1.0517
  496SOL    HW3 2031   0.299   2.364   1.161  0.7696  0.7185 -1.6124
  496SOL    MW4 2032   0.221   2.335   1.135  0.5724 -0.1872 -0.0734
  497SOL     OW 2033   1.367   4.471   0.688  0.0806  0.2905  0.0162
  497SOL    HW2 2034   1.294   4.519   0.727 -1.2342 -0.5718 -1.3209
  497SOL    HW3 2035   1.371   4.389   0.738 -0.7682 -0.2460 -0.7580
  497SOL    MW4 2036   1.357   4.466   0.700 -0.2047  0.1063 -0.2624
  498SOL     OW 2037   3.163   4.278   0.858 -0.3204 -0.1388  0.0204
  498SOL    HW2 2038   3.174   4.372   0.871  2.9213 -0.1717 -1.9500
  498SOL    HW3 2039   3.075   4.269   0.819  0.0351  2.2725 -1.4448
  498SOL    MW4 2040   3.153   4.289   0.854  0.1543  0.1755 -0.4328
  499SOL     OW 2041   0.887   1.473   0.693 -0.2487  0.4342  0.3583
  499SOL    HW2 2042   0.931   1.434   0.617  0.0443  0.8561  0.3091
  499SOL    HW3 2043   0.959   1.492   0.754 -0.4256  0.6056  0.5130
  499SOL    MW4 2044   0.903   1.470   0.691 -0.2335  0.5125  0.3722
  500SOL     OW 2045   3.263   2.250   0.475 -0.7480 -0.0647 -0.3798
  500SOL    HW2 2046   3.234   2.323   0.421  0.5952  0.9827  0.2774
  500SOL    HW3 2047   3.341   2.217   0.432  1.0121  1.5156  1.4535
  500SOL    MW4 2048   3.269   2.255   0.462 -0.3388  0.2820 -0.0512
  501SOL     OW 2049   0.203   3.068   1.139  0.0924 -0.2236  0.1765
  501SOL    HW2 2050   0.208   2.980   1.177 -0.4065 -0.6215 -0.6373
  501SOL    HW3 2051   0.284   3.110   1.164  0.4023 -0.9774  0.4639
  501SOL    MW4 2052   0.214   3.062   1.147  0.0674 -0.3755  0.1070
  502SOL     OW 2053   4.028   1.416   0.512 -0.1574 -0.0695  0.7637
  502SOL    HW2 2054   3.961   1.356   0.480 -0.4844  1.0516 -0.6949
  502SOL    HW3 2055   4.002   1.501   0.478  1.6060  0.4943  0.7864
  502SOL    MW4 2056   4.016   1.419   0.503  0.0324  0.1528  0.5742
  503SOL     OW 2057   0.431   1.457   0.670 -0.0567 -0.1095  0.8229
  503SOL    HW2 2058   0.513   1.497   0.700 -0.0177  0.2147  0.2920
  503SOL    HW3 2059   0.364   1.493   0.727  0.1799 -0.4433  1.3179
  503SOL    MW4 2060   0.433   1.467   0.681 -0.0204 -0.1109  0.8181
  504SOL     OW 2061   0.229   3.619   1.222 -0.3246 -0.8079 -0.1496
  504SOL    HW2 2062   0.230   3.628   1.317  0.4535 -0.6974 -0.1674
  504SOL    HW3 2063   0.155   3.560   1.204 -1.2111  0.0934  0.4409
  504SOL    MW4 2064   0.219   3.613   1.232 -0.3389 -0.6740 -0.0740
  505SOL     OW 2065   2.850   1.559   0.293  0.3334  0.2362  0.6773
  505SOL    HW2 2066   2.834   1.475   0.337  2.2261 -0.2503  0.4709
  505SOL    HW3 2067   2.793   1.621   0.339 -1.9756 -1.3588  0.0758
  505SOL    MW4 2068   2.840   1.556   0.305  0.2787 -0.0384  0.5707
  506SOL     OW 2069   0.217   3.864   1.063  0.5021  0.1160 -0.5242
  506SOL    HW2 2070   0.139   3.904   1.103  0.4867 -0.1527 -0.2810
  506SOL    HW3 2071   0.228   3.782   1.111 -0.1131 -0.6975 -1.7550
  506SOL    MW4 2072   0.208   3.858   1.075  0.4189 -0.0267 -0.6546
  507SOL     OW 2073   4.487   4.292   1.080 -0.0052  0.2400 -0.2447
  507SOL    HW2 2074   4.568   4.327   1.118  0.1177  0.7857 -0.9900
  507SOL    HW3 2075   4.480   4.203   1.115  1.8333 -0.4413 -1.5150
  507SOL    MW4 2076   4.497   4.285   1.090  0.2536  0.2222 -0.5107
  508SOL     OW 2077   0.427   1.200   0.802 -0.0241  0.0968 -0.4805
  508SOL    HW2 2078   0.506   1.153   0.776  0.6265  0.1990  1.2740
  508SOL    HW3 2079   0.438   1.288   0.765  0.4680 -0.0249 -0.6211
  508SOL    MW4 2080   0.439   1.205   0.794  0.1267  0.0943 -0.2676
  509SOL     OW 2081   0.898   0.418   1.091 -0.4686  0.3477  0.1888
  509SOL    HW2 2082   0.885   0.325   1.107  0.0886 -0.0847 -1.6950
  509SOL    HW3 2083   0.893   0.427   0.996  1.5625  1.8990  0.1721
  509SOL    MW4 2084   0.896   0.407   1.080 -0.1271  0.4953 -0.0619
  510SOL     OW 2085   2.268   4.494   0.759 -0.5740 -0.2603 -0.0963
  510SOL    HW2 2086   2.266   4.484   0.663  0.0339  0.6111 -0.2051
  510SOL    HW3 2087   2.185   4.538   0.779 -1.4587 -1.9142 -0.0342
  510SOL    MW4 2088   2.257   4.499   0.749 -0.6106 -0.3638 -0.1025
  511SOL     OW 2089   0.461   0.432   1.136 -0.1327  0.4027 -0.2109
  511SOL    HW2 2090   0.379   0.475   1.162 -0.3659 -0.4255  0.4854
  511SOL    HW3 2091   0.446   0.404   1.046 -0.4611  0.6170 -0.2245
  511SOL    MW4 2092   0.448   0.434   1.128 -0.2068  0.3217 -0.1208
  512SOL     OW 2093   2.382   2.344   0.506  0.3547 -0.1185  0.3978
  512SOL    HW2 2094   2.474   2.319   0.508  0.8444  1.6895  1.2073
  512SOL    HW3 2095   2.344   2.304   0.584  0.9294  0.8663  1.1900
  512SOL    MW4 2096   2.389   2.336   0.517  0.4950  0.2499  0.6091
  513SOL     OW 2097   3.615   1.379   0.749 -0.0324  0.7640  0.2744
  513SOL    HW2 2098   3.684   1.433   0.788 -0.2534  0.8198  0.5967
  513SOL    HW3 2099   3.533   1.424   0.773 -0.2411  0.0529  0.9172
  513SOL    MW4 2100   3.613   1.392   0.758 -0.0892  0.6776  0.4017
  514SOL     OW 2101   0.434   0.939   1.476 -0.3292  0.0064  0.1285
  514SOL    HW2 2102   0.514   0.892   1.501 -0.0519  0.8760  0.9205
  514SOL    HW3 2103   0.437   1.019   1.528 -0.4672  1.2021 -1.6637
  514SOL    MW4 2104   0.445   0.943   1.486 -0.3108  0.2789 -0.0033
  515SOL     OW 2105   1.795   2.694   1.127 -0.5397 -0.1553  0.1538
  515SOL    HW2 2106   1.721   2.739   1.168 -0.4823 -1.9017  2.2914
  515SOL    HW3 2107   1.781   2.705   1.033 -1.8450  2.1578  0.5857
  515SOL    MW4 2108   1.783   2.701   1.120 -0.7044 -0.0806  0.4928
  516SOL     OW 2109   0.651   1.339   1.150  0.2937 -0.1083 -0.1327
  516SOL    HW2 2110   0.666   1.423   1.106 -0.4567 -0.9201 -1.9643
  516SOL    HW3 2111   0.733   1.291   1.140  0.8608  0.5405  1.2638
  516SOL    MW4 2112   0.664   1.344   1.143  0.2695 -0.1299 -0.1900
  517SOL     OW 2113   2.283   2.698   0.906 -0.3850 -0.0222 -0.0222
  517SOL    HW2 2114   2.364   2.665   0.867 -1.8437 -0.6114 -2.6291
  517SOL    HW3 2115   2.264   2.779   0.859 -2.0432 -0.6174 -0.3900
  517SOL    MW4 2116   2.291   2.704   0.895 -0.7963 -0.1783 -0.4147
  518SOL     OW 2117   0.437   1.945   1.071  0.0317 -0.1591 -0.1147
  518SOL    HW2 2118   0.459   1.858   1.102  0.0255  0.4449  1.6357
  518SOL    HW3 2119   0.504   2.002   1.109 -0.1854  0.6496 -0.9239
  518SOL    MW4 2120   0.449   1.941   1.080  0.0022  0.0273  0.0094
  519SOL     OW 2121   4.102   3.094   0.379 -0.4975  0.5768 -0.0294
  519SOL    HW2 2122   4.113   3.088   0.474 -0.2219  0.6039 -0.0584
  519SOL    HW3 2123   4.180   3.139   0.349 -0.3551  0.1417 -0.3213
  519SOL    MW4 2124   4.114   3.099   0.388 -0.4425  0.5229 -0.0717
  520SOL     OW 2125   0.917   2.188   0.752  0.4494  0.5542  0.6173
  520SOL    HW2 2126   0.829   2.216   0.776  0.5808  1.0796  0.4922
  520SOL    HW3 2127   0.929   2.104   0.796  0.2641  0.9687  1.4614
  520SOL    MW4 2128   0.907   2.181   0.761  0.4423  0.6785  0.7122
  521SOL     OW 2129   1.785   2.459   0.346 -0.1396  0.5617 -0.6118
  521SOL    HW2 2130   1.807   2.371   0.375  0.0083  0.3145 -1.4892
  521SOL    HW3 2131   1.852   2.515   0.387 -0.0905  0.2493 -0.2608
  521SOL    MW4 2132   1.797   2.455   0.355 -0.1135  0.4876 -0.6813
  522SOL     OW 2133   0.845   4.010   0.237 -0.3403 -0.2493 -0.1334
  522SOL    HW2 2134   0.916   4.053   0.285 -0.2855 -0.1122 -0.3328
  522SOL    HW3 2135   0.854   4.044   0.148 -0.8527  0.0054 -0.0868
  522SOL    MW4 2136   0.856   4.020   0.231 -0.4007 -0.1979 -0.1536
  523SOL     OW 2137   1.702   0.194   0.469 -0.2744 -0.1808  0.0379
  523SOL    HW2 2138   1.726   0.102   0.464  1.0875  0.1019  0.9541
  523SOL    HW3 2139   1.781   0.241   0.444 -1.0078  0.7485 -0.5930
  523SOL    MW4 2140   1.715   0.188   0.465 -0.1916 -0.0209  0.0756
  524SOL     OW 2141   0.655   2.873   1.239  0.1036  0.0800  0.0584
  524SOL    HW2 2142   0.736   2.833   1.208 -0.5721 -0.3927 -1.0802
  524SOL    HW3 2143   0.585   2.822   1.200 -0.7615  0.7282  0.7274
  524SOL    MW4 2144   0.657   2.861   1.230 -0.0997  0.1032 -0.0035
  525SOL     OW 2145   0.681   0.252   0.725 -0.1811  0.4323 -0.1660
  525SOL    HW2 2146   0.706   0.248   0.632  0.7469 -0.5639  0.1242
  525SOL    HW3 2147   0.688   0.162   0.756 -0.3638  0.7836  0.9128
  525SOL    MW4 2148   0.685   0.240   0.717 -0.0827  0.3472  0.0146
  526SOL     OW 2149   0.447   3.190   1.215  0.3247  0.8204 -0.1634
  526SOL    HW2 2150   0.444   3.280   1.182  1.1422  0.9084  0.0058
  526SOL    HW3 2151   0.532   3.157   1.188 -0.0350  0.0483 -0.3421
  526SOL    MW4 2152   0.458   3.198   1.207  0.3851  0.7303 -0.1646
  527SOL     OW 2153   2.615   0.872   0.862  0.0521 -0.3611  0.2771
  527SOL    HW2 2154   2.585   0.839   0.946  0.7573  0.0777  0.7076
  527SOL    HW3 2155   2.551   0.840   0.799 -0.2273 -1.0689  0.9217
  527SOL    MW4 2156   2.602   0.864   0.865  0.1082 -0.3966  0.4189
  528SOL     OW 2157   0.676   3.616   1.180 -0.1372  0.6566  0.2023
  528SOL    HW2 2158   0.662   3.626   1.275  0.2648 -0.5071  0.3878
  528SOL    HW3 2159   0.685   3.706   1.148 -1.8528  1.1461  1.0166
  528SOL    MW4 2160   0.675   3.629   1.189 -0.3105  0.5677  0.3344
  529SOL     OW 2161   1.339   1.448   0.687  0.1342 -0.1940 -0.2003
  529SOL    HW2 2162   1.399   1.499   0.741  0.5462 -0.2335 -0.6112
  529SOL    HW3 2163   1.390   1.429   0.608 -0.0960 -1.0327 -0.1499
  529SOL    MW4 2164   1.354   1.452   0.684  0.1582 -0.3101 -0.2479
  530SOL     OW 2165   3.808   2.780   0.477 -0.3408 -0.1007 -0.7562
  530SOL    HW2 2166   3.822   2.833   0.556  0.9823 -2.7155  0.8377
  530SOL    HW3 2167   3.889   2.788   0.427 -0.0008 -0.8772 -0.3382
  530SOL    MW4 2168   3.820   2.788   0.481 -0.1214 -0.5481 -0.4908
  531SOL     OW 2169   0.441   3.970   1.195 -0.2371 -0.1838 -0.1747
  531SOL    HW2 2170   0.368   3.933   1.145 -1.4504 -0.4769  1.7227
  531SOL    HW3 2171   0.437   4.064   1.179  0.2627 -0.4164 -1.7195
  531SOL    MW4 2172   0.431   3.977   1.187 -0.3312 -0.2532 -0.1281
  532SOL     OW 2173   1.351   1.040   0.318 -0.5506 -0.2231 -0.1664
  532SOL    HW2 2174   1.306   1.075   0.395 -0.5421 -2.1920  0.7750
  532SOL    HW3 2175   1.280   1.019   0.256 -0.7617 -0.9440  0.3067
  532SOL    MW4 2176   1.335   1.042   0.320 -0.5774 -0.5780  0.0202
  533SOL     OW 2177   1.398   4.287   1.096  0.4408 -0.2749  0.6342
  533SOL    HW2 2178   1.317   4.326   1.129  1.3156  2.3859 -0.1990
  533SOL    HW3 2179   1.467   4.341   1.134  1.6246  0.2548 -2.1053
  533SOL    MW4 2180   1.396   4.299   1.105  0.7124  0.1459  0.1628
  534SOL     OW 2181   0.733   1.886   0.721 -0.0227  0.0430 -0.7546
  534SOL    HW2 2182   0.771   1.900   0.634 -0.6095 -0.3266 -1.0775
  534SOL    HW3 2183   0.712   1.793   0.722 -1.0587  0.2756 -0.6443
  534SOL    MW4 2184   0.735   1.876   0.709 -0.2369  0.0249 -0.7827
  535SOL     OW 2185   4.321   0.002   1.149 -0.5706 -0.4903  0.0708
  535SOL    HW2 2186   4.303  -0.084   1.187 -0.1281 -0.7179 -0.2335
  535SOL    HW3 2187   4.320  -0.013   1.054 -1.2536 -0.0081 -0.0008
  535SOL    MW4 2188   4.319  -0.012   1.141 -0.6022 -0.4568  0.0212
  536SOL     OW 2189   0.261   4.388   0.449  0.1200  0.2531  0.0650
  536SOL    HW2 2190   0.211   4.443   0.389  0.6354  0.3379 -0.2892
  536SOL    HW3 2191   0.194   4.345   0.503 -0.4214 -0.8054 -1.4139
  536SOL    MW4 2192   0.245   4.390   0.449  0.1166  0.1245 -0.1768
  537SOL     OW 2193   0.902   0.951   1.173 -0.1709  0.1681  0.4476
  537SOL    HW2 2194   0.820   0.914   1.141 -0.4014  0.4316  0.7199
  537SOL    HW3 2195   0.970   0.901   1.129 -0.4396 -2.1671  2.5325
  537SOL    MW4 2196   0.900   0.940   1.163 -0.2368 -0.1052  0.7585
  538SOL     OW 2197   0.857   1.160   1.568  0.7986 -0.0725  0.3337
  538SOL    HW2 2198   0.791   1.216   1.527  0.3303 -1.0694 -0.3149
  538SOL    HW3 2199   0.852   1.078   1.519  0.5992 -1.1198  2.0717
  538SOL    MW4 2200   0.848   1.157   1.556  0.7105 -0.3420  0.4774
  539SOL     OW 2201   2.032   4.636   0.817  0.4247 -0.3896  0.2133
  539SOL    HW2 2202   2.007   4.647   0.908  1.2020  1.2732  0.2401
  539SOL    HW3 2203   2.041   4.725   0.783  0.1738 -0.9830 -1.4824
  539SOL    MW4 2204   2.030   4.649   0.824  0.4942 -0.2484 -0.0069
  540SOL     OW 2205   1.125   1.263   1.187 -0.2465  0.7181 -0.2526
  540SOL    HW2 2206   1.135   1.278   1.281 -0.3623  0.3364 -0.1812
  540SOL    HW3 2207   1.205   1.216   1.162 -0.9026 -0.5033 -0.0655
  540SOL    MW4 2208   1.137   1.259   1.196 -0.3483  0.5065 -0.2185
  541SOL     OW 2209   1.578   1.576   1.112 -0.3533  0.0380 -0.0510
  541SOL    HW2 2210   1.647   1.612   1.167  0.3672 -1.8097  0.3183
  541SOL    HW3 2211   1.497   1.600   1.155  0.0893  1.5403 -0.0492
  541SOL    MW4 2212   1.576   1.584   1.125 -0.1999 -0.0076 -0.0020
  542SOL     OW 2213   1.545   1.443   0.475  0.4018 -0.1759  0.2292
  542SOL    HW2 2214   1.490   1.507   0.428  0.6318  0.5215  0.9018
  542SOL    HW3 2215   1.572   1.381   0.407  0.1203  0.4061 -0.4263
  542SOL    MW4 2216   1.541   1.443   0.460  0.3951 -0.0072  0.2314
  543SOL     OW 2217   0.892   1.634   1.206  0.1732  0.0808  0.5399
  543SOL    HW2 2218   0.975   1.610   1.165 -0.5739 -1.6317 -0.0564
  543SOL    HW3 2219   0.887   1.729   1.198  2.3042  0.2416  1.0506
  543SOL    MW4 2220   0.902   1.643   1.199  0.3558 -0.1240  0.5286
  544SOL     OW 2221   1.354   1.910   1.122  0.6291 -0.1112  0.0031
  544SOL    HW2 2222   1.361   1.937   1.031  1.9795  2.0296  0.7052
  544SOL    HW3 2223   1.273   1.951   1.153  0.6078 -0.1371 -0.0194
  544SOL    MW4 2224   1.344   1.919   1.114  0.8044  0.1678  0.0926
  545SOL     OW 2225   1.123   2.017   1.231 -0.3379  0.6167  0.3162
  545SOL    HW2 2226   1.104   2.047   1.320 -2.6949 -0.6354  0.2857
  545SOL    HW3 2227   1.117   2.097   1.178 -1.8528  0.9204  0.8961
  545SOL    MW4 2228   1.120   2.031   1.236 -0.8488  0.4914  0.3886
  546SOL     OW 2229   0.259   1.433   0.445  0.3232  1.1449 -0.6730
  546SOL    HW2 2230   0.284   1.500   0.382  3.4813 -0.0537 -0.7922
  546SOL    HW3 2231   0.324   1.441   0.515  1.3096 -2.3100 -1.0974
  546SOL    MW4 2232   0.271   1.443   0.446  0.8700  0.5308 -0.7447
  547SOL     OW 2233   0.926   2.492   1.186  0.2676  0.5449  0.1629
  547SOL    HW2 2234   0.847   2.445   1.157  1.1580 -0.2228 -1.0498
  547SOL    HW3 2235   0.918   2.494   1.282 -0.1888 -1.3878  0.1887
  547SOL    MW4 2236   0.914   2.486   1.195  0.3248  0.1884  0.0062
  548SOL     OW 2237   0.671   3.116   1.094 -0.1963  0.2281 -0.0295
  548SOL    HW2 2238   0.738   3.174   1.133 -1.9516  1.5675  1.0992
  548SOL    HW3 2239   0.677   3.036   1.146  0.9605  0.0940 -0.3494
  548SOL    MW4 2240   0.681   3.113   1.106 -0.2753  0.3870  0.0771
  549SOL     OW 2241   0.899   3.236   1.197 -0.5356  0.2175 -0.5131
  549SOL    HW2 2242   0.980   3.191   1.172 -0.2691  0.2004  0.3637
  549SOL    HW3 2243   0.898   3.315   1.143  0.4939  0.6359  0.0796
  549SOL    MW4 2244   0.909   3.240   1.187 -0.3646  0.2708 -0.3191
  550SOL     OW 2245   3.406   0.797   0.837 -0.3107  0.5971 -0.3329
  550SOL    HW2 2246   3.494   0.763   0.827 -1.2417 -1.5992 -1.3200
  550SOL    HW3 2247   3.404   0.876   0.784  1.0711  0.6835 -0.2513
  550SOL    MW4 2248   3.417   0.803   0.829 -0.2515  0.3188 -0.4523
  551SOL     OW 2249   4.295   2.089   0.243 -0.3986  0.0120 -0.5082
  551SOL    HW2 2250   4.367   2.106   0.303 -1.9269 -0.4440  1.4804
  551SOL    HW3 2251   4.326   2.016   0.188 -0.1130 -1.5351  1.6630
  551SOL    MW4 2252   4.309   2.081   0.243 -0.5622 -0.2522  0.0406
  552SOL     OW 2253   3.659   2.668   0.881 -0.1162  0.4026 -0.2670
  552SOL    HW2 2254   3.692   2.579   0.876 -1.6739 -0.3124  1.3981
  552SOL    HW3 2255   3.633   2.679   0.973 -0.5675  2.3335 -0.5940
  552SOL    MW4 2256   3.660   2.658   0.892 -0.3815  0.5631 -0.0905
  553SOL     OW 2257   1.098   3.903   1.072  0.5498  0.3372  0.3463
  553SOL    HW2 2258   1.099   3.815   1.110 -0.0034  0.6655  1.1285
  553SOL    HW3 2259   1.032   3.950   1.122  0.4612  1.0453 -0.4280
  553SOL    MW4 2260   1.090   3.898   1.083  0.4652  0.4742  0.3474
  554SOL     OW 2261   3.649   4.366   0.440 -0.4274  0.2835  0.2170
  554SOL    HW2 2262   3.684   4.279   0.420  0.3464  0.8715 -1.0293
  554SOL    HW3 2263   3.675   4.382   0.531  0.2367 -0.3856  0.1506
  554SOL    MW4 2264   3.657   4.356   0.449 -0.2375  0.2728  0.0438
  555SOL     OW 2265   2.974   2.046   1.207 -0.0492  0.0241  0.3698
  555SOL    HW2 2266   3.055   2.001   1.184  0.4937  0.8476  0.6685
  555SOL    HW3 2267   2.970   2.041   1.303  0.9895  2.2754  0.5492
  555SOL    MW4 2268   2.984   2.039   1.217  0.1595  0.4299  0.4328
  556SOL     OW 2269   0.045   3.389   0.246 -0.3805 -0.1124 -0.2895
  556SOL    HW2 2270   0.122   3.362   0.195  1.2003 -0.7774  2.3613
  556SOL    HW3 2271   0.074   3.468   0.291 -1.5169  0.0574  0.1403
  556SOL    MW4 2272   0.059   3.396   0.245 -0.3218 -0.1779  0.1170
  557SOL     OW 2273   1.558   4.644   1.134  0.4424  0.4356  0.1344
  557SOL    HW2 2274   1.542   4.643   1.039  1.0487  1.1258  0.0196
  557SOL    HW3 2275   1.492   4.705   1.168 -0.2614 -0.3743  0.2601
  557SOL    MW4 2276   1.547   4.652   1.126  0.4295  0.4201  0.1358
  558SOL     OW 2277   1.332   0.147   1.219 -0.1207  0.3667  0.6821
  558SOL    HW2 2278   1.256   0.104   1.180  1.6608 -0.6654 -1.7926
  558SOL    HW3 2279   1.324   0.239   1.192 -0.9526  0.4485  1.1944
  558SOL    MW4 2280   1.321   0.154   1.210  0.0046  0.2413  0.4233
  559SOL     OW 2281   1.102   3.906   0.792  0.2614 -0.4310  0.0697
  559SOL    HW2 2282   1.025   3.877   0.743  1.0060 -1.5256 -0.4537
  559SOL    HW3 2283   1.080   3.890   0.884  0.0112 -1.0912 -0.1049
  559SOL    MW4 2284   1.089   3.900   0.798  0.3265 -0.6623 -0.0224
  560SOL     OW 2285   1.574   0.751   1.063 -0.3772 -0.7412 -0.3018
  560SOL    HW2 2286   1.648   0.804   1.092 -0.8248 -0.5623  0.5295
  560SOL    HW3 2287   1.579   0.671   1.116 -0.3448 -1.0595 -0.7733
  560SOL    MW4 2288   1.584   0.747   1.074 -0.4319 -0.7596 -0.2544
  561SOL     OW 2289   0.317   4.077   0.716 -0.5737 -0.0227  0.3196
  561SOL    HW2 2290   0.282   3.995   0.749 -0.1590 -0.9464 -1.4408
  561SOL    HW3 2291   0.337   4.059   0.624  0.0502  1.8808  0.0539
  561SOL    MW4 2292   0.315   4.064   0.708 -0.4366  0.1063  0.0523
  562SOL     OW 2293   1.362   0.921   1.143 -0.6537 -0.0802 -0.3104
  562SOL    HW2 2294   1.428   0.864   1.103 -0.4455  0.6280 -0.9946
  562SOL    HW3 2295   1.278   0.880   1.121 -0.4810 -0.4618 -0.2604
  562SOL    MW4 2296   1.360   0.908   1.135 -0.6034 -0.0370 -0.3940
  563SOL     OW 2297   0.969   1.730   0.286 -0.1485 -0.1208  0.7106
  563SOL    HW2 2298   1.004   1.706   0.372  3.2472 -1.4834 -0.9413
  563SOL    HW3 2299   0.907   1.660   0.265 -1.4837  0.5536  2.2686
  563SOL    MW4 2300   0.966   1.717   0.295  0.1234 -0.2116  0.6982
  564SOL     OW 2301   2.020   0.770   1.097 -0.0011 -0.5190  0.0941
  564SOL    HW2 2302   2.008   0.767   1.003 -0.2462 -0.3671  0.1205
  564SOL    HW3 2303   2.005   0.680   1.127 -0.0082 -0.5487 -0.0002
  564SOL    MW4 2304   2.017   0.758   1.089 -0.0341 -0.5029  0.0851
  565SOL     OW 2305   1.820   1.156   1.095  0.0111  0.1731  0.2431
  565SOL    HW2 2306   1.742   1.195   1.135  0.2402  1.7262 -0.7968
  565SOL    HW3 2307   1.815   1.064   1.119 -2.9837 -0.0808 -1.0913
  565SOL    MW4 2308   1.809   1.149   1.104 -0.3539  0.3445 -0.0702
  566SOL     OW 2309   1.129   1.527   1.100 -0.2497  0.1716 -0.0772
  566SOL    HW2 2310   1.114   1.548   1.008  0.0859 -0.7555 -0.3440
  566SOL    HW3 2311   1.155   1.435   1.100  1.5915  0.6644  0.7628
  566SOL    MW4 2312   1.131   1.518   1.088  0.0374  0.1142 -0.0017
  567SOL     OW 2313   2.409   1.789   0.487 -0.7373  0.0014  0.2134
  567SOL    HW2 2314   2.390   1.879   0.461 -0.4023 -0.8655 -3.2096
  567SOL    HW3 2315   2.335   1.739   0.455  0.0300 -1.2417  0.3582
  567SOL    MW4 2316   2.397   1.795   0.480 -0.5922 -0.2769 -0.2191
  568SOL     OW 2317   1.576   2.041   1.236  0.1606  0.5706  0.4244
  568SOL    HW2 2318   1.579   2.114   1.175 -1.9590 -0.5818 -1.0991
  568SOL    HW3 2319   1.502   1.988   1.208  0.2884 -1.0061  2.8512
  568SOL    MW4 2320   1.567   2.043   1.224 -0.1022  0.2105  0.5436
  569SOL     OW 2321   4.340   1.707   0.460  0.1850  0.2273 -0.0420
  569SOL    HW2 2322   4.261   1.753   0.430 -1.2465 -1.0103  1.7396
  569SOL    HW3 2323   4.329   1.618   0.426  0.6831 -0.0249  0.4643
  569SOL    MW4 2324   4.328   1.701   0.451  0.0615  0.0309  0.2598
  570SOL     OW 2325   1.345   2.405   1.215 -0.0253  0.2562  0.2408
  570SOL    HW2 2326   1.263   2.375   1.177 -0.5477  1.3875  0.4313
  570SOL    HW3 2327   1.333   2.394   1.310  0.7995 -1.4034  0.1668
  570SOL    MW4 2328   1.332   2.400   1.223  0.0144  0.1867  0.2562
  571SOL     OW 2329   1.574   2.869   1.208  0.3719  0.0695  0.4143
  571SOL    HW2 2330   1.498   2.826   1.168 -0.4745  1.0274  0.9691
  571SOL    HW3 2331   1.578   2.955   1.165  1.3353 -0.0860  0.1725
  571SOL    MW4 2332   1.565   2.874   1.197  0.3873  0.1755  0.4555
  572SOL     OW 2333   3.579   1.121   0.863  0.1899  0.0937  0.2511
  572SOL    HW2 2334   3.663   1.076   0.857  0.6995  0.9080  1.1545
  572SOL    HW3 2335   3.597   1.210   0.832 -0.6259 -0.0695 -0.7474
  572SOL    MW4 2336   3.592   1.127   0.858  0.1497  0.1798  0.2387
  573SOL     OW 2337   0.498   0.563   0.472 -0.0493 -0.1984 -0.1369
  573SOL    HW2 2338   0.439   0.496   0.436 -0.3611  0.2359 -0.4352
  573SOL    HW3 2339   0.481   0.640   0.419  0.7068 -0.0365 -0.1456
  573SOL    MW4 2340   0.488   0.564   0.460  0.0094 -0.1197 -0.1774
  574SOL     OW 2341   1.374   3.267   1.181 -0.3092  0.0597  0.2470
  574SOL    HW2 2342   1.374   3.283   1.276 -0.4121 -0.3406  0.3114
  574SOL    HW3 2343   1.292   3.222   1.164 -0.7938  1.0798 -0.1961
  574SOL    MW4 2344   1.363   3.263   1.191 -0.3868  0.1414  0.1971
  575SOL     OW 2345   3.655   0.356   0.870  0.2946 -0.2623  0.2302
  575SOL    HW2 2346   3.732   0.305   0.844  0.3196 -0.3750  0.5237
  575SOL    HW3 2347   3.581   0.298   0.852  0.2304  0.0936 -0.6702
  575SOL    MW4 2348   3.656   0.341   0.864  0.2894 -0.2302  0.1501
  576SOL     OW 2349   2.005   3.041   0.342  0.0449  0.0187 -0.0814
  576SOL    HW2 2350   1.922   2.995   0.355 -0.2271  0.3747 -0.5201
  576SOL    HW3 2351   2.011   3.052   0.247 -1.1990  3.2466  0.1436
  576SOL    MW4 2352   1.995   3.036   0.331 -0.1552  0.4914 -0.1096
  577SOL     OW 2353   1.312   3.746   0.700 -0.1994  0.0152  0.3497
  577SOL    HW2 2354   1.243   3.800   0.737 -0.2835 -1.3708  2.2799
  577SOL    HW3 2355   1.394   3.785   0.731 -0.1943  0.1821  0.1270
  577SOL    MW4 2356   1.314   3.758   0.709 -0.2098 -0.1457  0.5749
  578SOL     OW 2357   2.125   4.177   0.417 -0.1639 -0.4468 -0.1702
  578SOL    HW2 2358   2.154   4.086   0.409  0.8014 -0.1808  0.1925
  578SOL    HW3 2359   2.059   4.188   0.349 -0.0636 -1.3362 -0.4134
  578SOL    MW4 2360   2.120   4.167   0.407 -0.0231 -0.5293 -0.1544
  579SOL     OW 2361   0.869   1.457   0.305  0.1853 -0.1664 -0.2206
  579SOL    HW2 2362   0.870   1.412   0.220  0.4372 -2.0199  0.7577
  579SOL    HW3 2363   0.788   1.428   0.347  1.1326 -0.9409  1.0768
  579SOL    MW4 2364   0.858   1.447   0.299  0.3434 -0.5132  0.0796
  580SOL     OW 2365   1.158   4.387   1.178  0.5294 -0.6591  0.0133
  580SOL    HW2 2366   1.080   4.345   1.143  0.4969 -0.5014 -0.1007
  580SOL    HW3 2367   1.148   4.382   1.273 -0.4234  0.8660  0.0091
  580SOL    MW4 2368   1.146   4.381   1.186  0.3995 -0.4373 -0.0021
  581SOL     OW 2369   1.785   0.112   1.224 -0.0965  0.2923 -0.0378
  581SOL    HW2 2370   1.709   0.065   1.190  0.1423 -0.0211 -0.1454
  581SOL    HW3 2371   1.792   0.189   1.168  1.7793 -1.4653 -2.3755
  581SOL    MW4 2372   1.776   0.116   1.212  0.1824  0.0190 -0.3604
  582SOL     OW 2373   2.246   0.083   1.253  0.5485  0.1039 -0.0268
  582SOL    HW2 2374   2.180   0.032   1.206  1.1471 -1.1252  0.4430
  582SOL    HW3 2375   2.329   0.057   1.214  1.0372 -0.7796  1.5546
  582SOL    MW4 2376   2.248   0.073   1.241  0.6921 -0.1748  0.2439
  583SOL     OW 2377   1.601   0.524   1.206  0.4597 -0.2044 -0.1724
  583SOL    HW2 2378   1.593   0.503   1.299 -1.2858 -0.6938 -0.4054
  583SOL    HW3 2379   1.526   0.479   1.165  0.9026  0.4402 -1.7326
  583SOL    MW4 2380   1.590   0.515   1.213  0.2877 -0.1839 -0.4090
  584SOL     OW 2381   1.168   1.692   0.482 -0.2903  0.3382 -0.1821
  584SOL    HW2 2382   1.168   1.740   0.565 -1.3255  1.3618 -0.7670
  584SOL    HW3 2383   1.260   1.681   0.461 -0.0241  0.4831  0.8669
  584SOL    MW4 2384   1.180   1.697   0.490 -0.3918  0.4926 -0.1209
  585SOL     OW 2385   2.250   1.164   1.133  0.2572 -0.3373 -0.1468
  585SOL    HW2 2386   2.262   1.177   1.038 -0.4752  2.1506  0.0674
  585SOL    HW3 2387   2.322   1.213   1.173  1.6795 -2.9198  0.5828
  585SOL    MW4 2388   2.261   1.172   1.125  0.3479 -0.3498 -0.0222
  586SOL     OW 2389   3.520   3.447   0.876  0.1703 -0.3117 -0.0474
  586SOL    HW2 2390   3.538   3.532   0.837  0.9830 -0.5048 -0.1044
  586SOL    HW3 2391   3.435   3.421   0.839 -0.4374  0.7941  0.5452
  586SOL    MW4 2392   3.511   3.455   0.866  0.1972 -0.1912  0.0233
  587SOL     OW 2393   2.021   1.322   1.191  0.0526  0.2719 -0.1494
  587SOL    HW2 2394   1.955   1.279   1.137  0.5934 -0.2576 -0.3937
  587SOL    HW3 2395   2.102   1.275   1.172  0.8170  1.8799 -0.9774
  587SOL    MW4 2396   2.023   1.310   1.182  0.2248  0.4144 -0.2909
  588SOL     OW 2397   3.167   1.429   0.699 -0.1841 -0.0360  0.3549
  588SOL    HW2 2398   3.243   1.444   0.756  0.3130 -0.4966 -0.1751
  588SOL    HW3 2399   3.181   1.490   0.626 -1.2806  1.1990  1.1459
  588SOL    MW4 2400   3.179   1.439   0.697 -0.2635  0.0663  0.3893
  589SOL     OW 2401   1.779   0.893   1.162  0.7061  0.1816 -0.1578
  589SOL    HW2 2402   1.788   0.879   1.256 -1.5842  1.6916  0.3200
  589SOL    HW3 2403   1.860   0.858   1.125  0.2977 -3.3490  2.0419
  589SOL    MW4 2404   1.791   0.887   1.169  0.3500 -0.0851  0.1954
  590SOL     OW 2405   1.589   1.280   1.175  0.4926 -0.0707 -0.0918
  590SOL    HW2 2406   1.600   1.364   1.130  1.3056 -0.7860 -1.2726
  590SOL    HW3 2407   1.508   1.244   1.139  0.3948 -0.0040  0.0622
  590SOL    MW4 2408   1.580   1.286   1.164  0.5870 -0.1564 -0.2272
  591SOL     OW 2409   1.405   3.275   0.241  0.2015 -0.4786 -0.0006
  591SOL    HW2 2410   1.384   3.184   0.221 -0.5164 -0.6856  1.6341
  591SOL    HW3 2411   1.326   3.310   0.282  0.9616  0.4642  0.6920
  591SOL    MW4 2412   1.392   3.267   0.244  0.2071 -0.3819  0.3065
  592SOL     OW 2413   2.490   2.051   1.250 -0.8812  0.0401  0.2767
  592SOL    HW2 2414   2.423   2.023   1.188  0.0999  0.7006 -1.1175
  592SOL    HW3 2415   2.511   2.141   1.224  1.4307 -0.5659 -0.1390
  592SOL    MW4 2416   2.484   2.059   1.238 -0.4466  0.0472  0.0379
  593SOL     OW 2417   1.778   2.420   1.220 -0.1340  0.4552 -0.0434
  593SOL    HW2 2418   1.793   2.505   1.179 -1.2404  0.3591 -0.6678
  593SOL    HW3 2419   1.702   2.384   1.174  0.6380 -1.1010 -0.1411
  593SOL    MW4 2420   1.769   2.427   1.209 -0.1780  0.2372 -0.1388
  594SOL     OW 2421   4.435   3.938   0.611  0.0473 -0.2101  0.1917
  594SOL    HW2 2422   4.443   3.933   0.516 -0.5441 -1.3054  0.1965
  594SOL    HW3 2423   4.523   3.921   0.643  0.5069  1.3327 -0.1809
  594SOL    MW4 2424   4.447   3.935   0.603  0.0300 -0.1512  0.1432
  595SOL     OW 2425   4.029   3.538   0.859 -0.2465  0.0027 -0.0463
  595SOL    HW2 2426   3.943   3.495   0.855 -0.2955 -0.0428  1.1638
  595SOL    HW3 2427   4.022   3.610   0.797 -1.0944 -0.1272 -0.1168
  595SOL    MW4 2428   4.016   3.542   0.851 -0.3643 -0.0203  0.1041
  596SOL     OW 2429   3.016   0.918   0.518  0.2352 -0.8572  0.2107
  596SOL    HW2 2430   3.034   0.997   0.467  1.3651 -0.8688  0.5700
  596SOL    HW3 2431   3.084   0.856   0.491 -0.8472 -1.8237 -0.3121
  596SOL    MW4 2432   3.028   0.920   0.508  0.2415 -0.9863  0.1891
  597SOL     OW 2433   2.240   3.244   1.144  0.4899 -0.0956 -0.1711
  597SOL    HW2 2434   2.167   3.184   1.126  0.1598 -0.0254  0.9044
  597SOL    HW3 2435   2.220   3.322   1.092  0.6708 -0.7188 -1.1973
  597SOL    MW4 2436   2.227   3.246   1.135  0.4702 -0.1683 -0.1647
  598SOL     OW 2437   2.001   3.082   1.096 -0.0230  0.2248 -0.2092
  598SOL    HW2 2438   1.994   3.071   1.001  0.7056 -1.1111 -0.1299
  598SOL    HW3 2439   1.930   3.142   1.119  0.6540  1.6582 -1.7710
  598SOL    MW4 2440   1.991   3.088   1.086  0.1622  0.2377 -0.4047
  599SOL     OW 2441   1.353   3.514   1.066 -0.0136 -0.2289 -0.0671
  599SOL    HW2 2442   1.368   3.431   1.111 -0.4994 -0.5733 -0.5455
  599SOL    HW3 2443   1.361   3.493   0.973 -0.3838  0.2114 -0.1982
  599SOL    MW4 2444   1.356   3.500   1.060 -0.1265 -0.2165 -0.1475
  600SOL     OW 2445   2.232   3.509   1.036  0.3845 -0.3460 -0.4197
  600SOL    HW2 2446   2.152   3.546   1.074  0.8016  0.2712 -0.1450
  600SOL    HW3 2447   2.302   3.566   1.067  0.7439  0.1530 -2.0757
  600SOL    MW4 2448   2.230   3.521   1.045  0.4871 -0.1991 -0.6019
  601SOL     OW 2449   1.811   4.039   1.190 -0.3067  0.6054  0.3708
  601SOL    HW2 2450   1.885   3.991   1.152 -0.9738 -0.7151  0.6976
  601SOL    HW3 2451   1.821   4.027   1.285  0.9233  3.2423  0.6091
  601SOL    MW4 2452   1.822   4.031   1.198 -0.2325  0.7796  0.4455
  602SOL     OW 2453   2.036   3.644   1.197 -0.0030 -0.1596 -0.1511
  602SOL    HW2 2454   2.013   3.668   1.287  0.7910  0.2557 -0.0552
  602SOL    HW3 2455   1.956   3.605   1.161  0.3079 -2.2901  1.4111
  602SOL    MW4 2456   2.022   3.642   1.204  0.1428 -0.3860  0.0676
  603SOL     OW 2457   1.623   4.398   1.216  0.3316  0.4184  0.4289
  603SOL    HW2 2458   1.598   4.491   1.222 -1.3023 -0.0167  0.6494
  603SOL    HW3 2459   1.607   4.364   1.304  1.9067  0.1541  0.6168
  603SOL    MW4 2460   1.617   4.406   1.229  0.3238  0.3262  0.4828
  604SOL     OW 2461   2.787   0.662   0.801  0.1350 -0.1506 -0.4811
  604SOL    HW2 2462   2.718   0.721   0.833  0.1138 -0.2987 -0.2543
  604SOL    HW3 2463   2.867   0.696   0.840 -0.1165 -1.3500  1.1306
  604SOL    MW4 2464   2.789   0.674   0.811  0.0992 -0.3284 -0.2385
  605SOL     OW 2465   2.925   2.786   0.433 -0.0486 -0.2247 -0.1798
  605SOL    HW2 2466   2.882   2.718   0.486 -0.0435  0.0971  0.2455
  605SOL    HW3 2467   2.857   2.852   0.420 -0.9827 -1.7210 -3.2066
  605SOL    MW4 2468   2.910   2.785   0.438 -0.1709 -0.3798 -0.5231
  606SOL     OW 2469   0.725   0.255   0.440 -0.3996  0.1724  0.3391
  606SOL    HW2 2470   0.738   0.344   0.408  0.1637  0.1961  0.6304
  606SOL    HW3 2471   0.807   0.210   0.421 -0.3883 -0.0630  0.9105
  606SOL    MW4 2472   0.737   0.261   0.434 -0.3238  0.1445  0.4529
  607SOL     OW 2473   2.728   0.377   1.105 -0.3611  0.1830  0.0846
  607SOL    HW2 2474   2.649   0.423   1.134  0.1687  0.2973  1.3982
  607SOL    HW3 2475   2.801   0.430   1.139  0.2635 -1.0924  0.7872
  607SOL    MW4 2476   2.728   0.390   1.113 -0.2089  0.0298  0.3506
  608SOL     OW 2477   3.406   2.129   1.255 -0.0650 -0.1094 -0.3259
  608SOL    HW2 2478   3.374   2.216   1.232 -0.9315 -0.2593  0.2843
  608SOL    HW3 2479   3.341   2.069   1.216 -0.2732 -0.4301  0.5030
  608SOL    MW4 2480   3.393   2.132   1.247 -0.2069 -0.1717 -0.1360
  609SOL     OW 2481   2.027   0.233   0.766  0.2346 -0.2386 -0.0987
  609SOL    HW2 2482   2.095   0.283   0.811 -0.5516 -0.0869  0.9540
  609SOL    HW3 2483   1.946   0.278   0.787 -0.3470 -1.2347 -0.1568
  609SOL    MW4 2484   2.025   0.245   0.775  0.0541 -0.3500  0.0325
  610SOL     OW 2485   0.320   0.335   0.287 -0.0566 -0.4752 -0.5488
  610SOL    HW2 2486   0.245   0.329   0.345  1.4568 -0.2714  1.4787
  610SOL    HW3 2487   0.288   0.303   0.203 -2.5705  0.2531  0.1024
  610SOL    MW4 2488   0.306   0.330   0.283 -0.1886 -0.3522 -0.1954
  611SOL     OW 2489   1.727   4.046   0.298 -0.2477  0.3661  0.1833
  611SOL    HW2 2490   1.680   3.982   0.245 -0.0676  0.4190 -0.0442
  611SOL    HW3 2491   1.659   4.103   0.335 -0.2122  1.9626 -2.1132
  611SOL    MW4 2492   1.712   4.045   0.296 -0.2193  0.5832 -0.1497
  612SOL     OW 2493   0.916   4.534   0.662  0.5001 -0.0489 -0.4746
  612SOL    HW2 2494   0.884   4.445   0.679  1.6726 -0.5953 -1.1093
  612SOL    HW3 2495   0.946   4.532   0.571  1.6023  0.6740 -0.1367
  612SOL    MW4 2496   0.916   4.522   0.652  0.8001 -0.0257 -0.5138
  613SOL     OW 2497   1.109   1.021   0.719 -0.2570  0.2689 -0.3142
  613SOL    HW2 2498   1.179   1.074   0.756 -0.8730 -0.1574  1.5456
  613SOL    HW3 2499   1.028   1.068   0.743 -0.8570 -1.9467  2.1919
  613SOL    MW4 2500   1.107   1.034   0.727 -0.4175 -0.0796  0.2618
  614SOL     OW 2501   2.233   1.700   1.250  0.1329 -0.2356  0.2900
  614SOL    HW2 2502   2.321   1.663   1.242  1.0946  1.9758  0.2982
  614SOL    HW3 2503   2.235   1.779   1.197 -2.1894 -0.6999 -0.5588
  614SOL    MW4 2504   2.245   1.706   1.242 -0.0467 -0.0050  0.1791
  615SOL     OW 2505   2.672   3.461   0.843 -0.5027  0.0002 -0.3675
  615SOL    HW2 2506   2.604   3.422   0.788 -0.1571 -1.5431  0.2745
  615SOL    HW3 2507   2.754   3.435   0.801 -0.2722  0.1134  0.0110
  615SOL    MW4 2508   2.674   3.452   0.830 -0.4265 -0.1886 -0.2329
  616SOL     OW 2509   0.045   2.139   0.416 -0.6035  0.1235  0.0150
  616SOL    HW2 2510   0.029   2.176   0.503 -2.5518 -1.1819  0.2384
  616SOL    HW3 2511   0.075   2.049   0.433 -0.7901 -0.0690 -0.6441
  616SOL    MW4 2512   0.047   2.132   0.430 -0.8852 -0.0741 -0.0424
  617SOL     OW 2513   3.429   1.548   1.126  0.2783 -0.3753 -0.5561
  617SOL    HW2 2514   3.345   1.595   1.132  0.0072 -0.8506 -0.5512
  617SOL    HW3 2515   3.413   1.465   1.171  0.3364 -1.0441 -1.7405
  617SOL    MW4 2516   3.415   1.543   1.133  0.2503 -0.5262 -0.7118
  618SOL     OW 2517   2.030   2.297   1.113 -0.0438  0.0734  0.4376
  618SOL    HW2 2518   1.956   2.330   1.162  0.1953 -0.1205  0.9290
  618SOL    HW3 2519   2.107   2.335   1.156  0.0575  1.8769 -1.2754
  618SOL    MW4 2520   2.031   2.306   1.125  0.0010  0.2856  0.2764
  619SOL     OW 2521   2.248   2.410   1.257  0.0211  0.0374 -0.3953
  619SOL    HW2 2522   2.243   2.406   1.353 -2.5666  1.0458 -0.4542
  619SOL    HW3 2523   2.270   2.501   1.238 -1.0703  0.2226 -0.7970
  619SOL    MW4 2524   2.251   2.421   1.267 -0.4644  0.1950 -0.4562
  620SOL     OW 2525   3.819   1.000   0.838  0.2279  0.1179 -0.0888
  620SOL    HW2 2526   3.819   0.984   0.744 -1.3492 -0.7526  0.0497
  620SOL    HW3 2527   3.817   0.913   0.878  0.0117  0.4926  0.7418
  620SOL    MW4 2528   3.819   0.986   0.831 -0.0086  0.0525  0.0392
  621SOL     OW 2529   2.694   3.222   1.224  0.0024  0.0612  0.5330
  621SOL    HW2 2530   2.664   3.313   1.218  1.0095  0.3946  0.3866
  621SOL    HW3 2531   2.619   3.169   1.196 -0.2961  0.8855 -0.2248
  621SOL    MW4 2532   2.680   3.227   1.220  0.0956  0.2139  0.4139
  622SOL     OW 2533   1.760   2.203   0.446 -0.0229 -0.5071  0.7997
  622SOL    HW2 2534   1.773   2.214   0.541 -0.5403  0.9406  0.7219
  622SOL    HW3 2535   1.665   2.197   0.436 -0.0341  0.3756  0.2861
  622SOL    MW4 2536   1.749   2.204   0.457 -0.0925 -0.1996  0.7217
  623SOL     OW 2537   0.233   3.329   0.747  0.0803  0.1866 -0.0131
  623SOL    HW2 2538   0.212   3.319   0.654  1.0533  0.7005 -0.2931
  623SOL    HW3 2539   0.157   3.373   0.785 -0.2893  0.0378 -0.5794
  623SOL    MW4 2540   0.220   3.333   0.740  0.1599  0.2346 -0.1247
  624SOL     OW 2541   1.115   4.146   0.664  0.2947  0.0038  0.4420
  624SOL    HW2 2542   1.195   4.183   0.700  0.6148 -0.9749  0.7662
  624SOL    HW3 2543   1.099   4.067   0.717 -0.5569 -0.1220  0.0060
  624SOL    MW4 2544   1.123   4.140   0.676  0.2246 -0.1416  0.4272
  625SOL     OW 2545   2.489   3.908   1.144 -0.2151 -0.1450 -0.3121
  625SOL    HW2 2546   2.412   3.950   1.180  1.5133  1.5206  1.5695
  625SOL    HW3 2547   2.478   3.815   1.163 -1.6036  0.1182  0.1874
  625SOL    MW4 2548   2.478   3.902   1.151 -0.1702  0.1097  0.0020
  626SOL     OW 2549   2.248   1.148   0.853  0.1729 -0.2306  0.4864
  626SOL    HW2 2550   2.174   1.095   0.826  0.4745  0.8180 -2.5293
  626SOL    HW3 2551   2.239   1.230   0.804  2.6057  0.4216  1.0374
  626SOL    MW4 2552   2.237   1.152   0.843  0.5336 -0.0063  0.1612
  627SOL     OW 2553   3.481   2.866   0.691 -0.1854 -0.2606  0.0493
  627SOL    HW2 2554   3.522   2.941   0.733 -0.0426  0.1007 -0.7190
  627SOL    HW3 2555   3.451   2.900   0.606  0.2911 -1.1847 -0.4908
  627SOL    MW4 2556   3.482   2.881   0.685 -0.1035 -0.3347 -0.1234
  628SOL     OW 2557   2.497   4.436   1.237 -0.0193  0.1252 -0.2936
  628SOL    HW2 2558   2.425   4.388   1.197 -0.6304  0.7100  0.0908
  628SOL    HW3 2559   2.494   4.522   1.195 -0.2613  0.5292  0.5461
  628SOL    MW4 2560   2.487   4.441   1.226 -0.1318  0.2556 -0.1321
  629SOL     OW 2561   2.935   0.060   1.157 -0.0568 -0.5221 -0.3731
  629SOL    HW2 2562   2.849   0.097   1.179  0.3893 -0.0586  0.6478
  629SOL    HW3 2563   2.933  -0.029   1.193 -0.1775 -0.5723 -0.5049
  629SOL    MW4 2564   2.924   0.053   1.165 -0.0141 -0.4675 -0.2558
  630SOL     OW 2565   2.691   0.134   1.240  0.2732  0.5098 -0.6696
  630SOL    HW2 2566   2.688   0.226   1.215  1.5111  0.9932  0.8869
  630SOL    HW3 2567   2.701   0.135   1.335  1.7242 -1.2110 -0.7871
  630SOL    MW4 2568   2.692   0.146   1.249  0.6278  0.3465 -0.4797
  631SOL     OW 2569   2.917   3.408   0.745 -0.7413  0.4307 -0.2910
  631SOL    HW2 2570   2.983   3.462   0.789 -0.8443  0.0787  0.3032
  631SOL    HW3 2571   2.948   3.318   0.756 -1.5063  0.2380  0.3144
  631SOL    MW4 2572   2.930   3.403   0.752 -0.8559  0.3588 -0.1327
  632SOL     OW 2573   2.923   0.547   1.194  0.1411  0.2412  0.1347
  632SOL    HW2 2574   2.924   0.635   1.158  0.6797  0.3581  0.4293
  632SOL    HW3 2575   3.010   0.513   1.177  0.3208  0.2092  1.0978
  632SOL    MW4 2576   2.934   0.554   1.187  0.2358  0.2524  0.3006
  633SOL     OW 2577   2.042   4.184   0.698 -0.1221  0.2473 -0.5303
  633SOL    HW2 2578   2.118   4.199   0.754  0.8915 -0.1071 -1.7673
  633SOL    HW3 2579   2.079   4.178   0.609 -1.2444 -2.5525 -0.8682
  633SOL    MW4 2580   2.057   4.185   0.693 -0.1364 -0.1693 -0.7381
  634SOL     OW 2581   2.678   1.175   1.144 -0.0689 -0.1236 -0.2893
  634SOL    HW2 2582   2.667   1.088   1.183 -2.0671  0.2640  0.0501
  634SOL    HW3 2583   2.684   1.157   1.050 -2.7097 -0.5210 -0.4430
  634SOL    MW4 2584   2.677   1.161   1.136 -0.6807 -0.1249 -0.2646
  635SOL     OW 2585   4.279   1.578   1.131 -0.0048  0.3346 -0.1942
  635SOL    HW2 2586   4.293   1.494   1.176 -1.8192 -0.6292 -1.3722
  635SOL    HW3 2587   4.349   1.634   1.164  1.0569 -1.5407  0.8604
  635SOL    MW4 2588   4.290   1.574   1.141 -0.1040 -0.0399 -0.2104
  636SOL     OW 2589   1.748   4.588   0.467  0.4001  0.1111 -0.0284
  636SOL    HW2 2590   1.774   4.582   0.559 -0.9289  1.1428  0.4246
  636SOL    HW3 2591   1.662   4.546   0.463  0.3836  0.2082 -0.7697
  636SOL    MW4 2592   1.740   4.582   0.479  0.2227  0.2604 -0.0664
  637SOL     OW 2593   4.214   3.404   0.480  0.3781  0.1941 -0.2728
  637SOL    HW2 2594   4.122   3.418   0.458 -0.0532 -0.1600  1.3114
  637SOL    HW3 2595   4.244   3.340   0.415 -0.8659 -0.7951  0.1161
  637SOL    MW4 2596   4.206   3.398   0.468  0.1569  0.0167 -0.0124
  638SOL     OW 2597   2.444   2.876   0.435  0.2201 -0.1542 -0.0538
  638SOL    HW2 2598   2.351   2.893   0.449 -0.1490 -0.2449 -2.2424
  638SOL    HW3 2599   2.454   2.782   0.453 -0.0434 -0.0705  0.5298
  638SOL    MW4 2600   2.433   2.866   0.439  0.1369 -0.1554 -0.2656
  639SOL     OW 2601   1.507   3.565   0.231  0.3541  0.3814 -0.0317
  639SOL    HW2 2602   1.475   3.476   0.218  1.0599  0.0113  0.7258
  639SOL    HW3 2603   1.592   3.554   0.273  0.8416  1.3964 -0.7521
  639SOL    MW4 2604   1.514   3.552   0.235  0.5114  0.4666 -0.0268
  640SOL     OW 2605   2.107   1.941   0.298  0.3376  0.3543  0.1261
  640SOL    HW2 2606   2.134   1.850   0.309  1.3861  0.6205 -0.1849
  640SOL    HW3 2607   2.088   1.950   0.205  0.0387  0.4044  0.1909
  640SOL    MW4 2608   2.108   1.931   0.287  0.4368  0.3961  0.0935
  641SOL     OW 2609   0.900   0.405   0.802 -0.1296 -0.1396  0.2914
  641SOL    HW2 2610   0.823   0.352   0.782 -0.6870  0.8546 -0.2802
  641SOL    HW3 2611   0.889   0.484   0.749  1.9902 -0.5798 -0.8434
  641SOL    MW4 2612   0.888   0.409   0.793  0.0765 -0.0665  0.0663
  642SOL     OW 2613   2.028   2.827   1.214  0.2837  0.1992 -0.4833
  642SOL    HW2 2614   2.038   2.909   1.166 -1.7234  2.3347  2.5537
  642SOL    HW3 2615   1.945   2.791   1.184 -0.3476  0.8779  0.4438
  642SOL    MW4 2616   2.019   2.833   1.204 -0.0644  0.5705  0.0398
  643SOL     OW 2617   2.279   2.676   1.185 -0.2829 -0.7553 -0.3446
  643SOL    HW2 2618   2.279   2.662   1.090 -0.6993 -1.8184 -0.1929
  643SOL    HW3 2619   2.202   2.732   1.200  0.0493 -0.2029 -0.6840
  643SOL    MW4 2620   2.269   2.681   1.174 -0.2937 -0.8228 -0.3693
  644SOL     OW 2621   2.927   2.917   1.245  0.1427  0.2695  0.5168
  644SOL    HW2 2622   2.923   2.929   1.340 -0.3481 -1.2166  0.6970
  644SOL    HW3 2623   2.839   2.886   1.221  0.4975 -0.0952 -0.3236
  644SOL    MW4 2624   2.915   2.915   1.254  0.1247  0.0255  0.4296
  645SOL     OW 2625   1.501   4.171   0.406  0.2148 -0.3032 -0.3737
  645SOL    HW2 2626   1.439   4.099   0.403 -1.5109  1.1102  0.8387
  645SOL    HW3 2627   1.450   4.249   0.383  2.0155  0.5782 -1.5553
  645SOL    MW4 2628   1.486   4.172   0.402  0.2247  0.0000 -0.3696
  646SOL     OW 2629   2.020   3.110   0.814  0.1097  0.2633 -0.1074
  646SOL    HW2 2630   1.939   3.071   0.781  0.8615 -0.7607 -0.7951
  646SOL    HW3 2631   2.016   3.201   0.786 -0.9094  0.2757  0.0580
  646SOL    MW4 2632   2.009   3.117   0.806  0.0741  0.1299 -0.1763
  647SOL     OW 2633   2.461   3.094   1.122 -0.5635  0.1498  0.5967
  647SOL    HW2 2634   2.386   3.151   1.139 -0.8476  0.3442 -1.2601
  647SOL    HW3 2635   2.444   3.017   1.177 -1.6611  0.5740  0.8715
  647SOL    MW4 2636   2.449   3.091   1.132 -0.7458  0.2317  0.3880
  648SOL     OW 2637   2.906   3.620   1.232  0.2345 -0.3412  0.2866
  648SOL    HW2 2638   2.978   3.566   1.200 -0.0030 -0.9832  0.8443
  648SOL    HW3 2639   2.935   3.710   1.216  1.1843 -0.5972  0.5648
  648SOL    MW4 2640   2.919   3.625   1.226  0.3285 -0.4597  0.3970
  649SOL     OW 2641   0.667   0.804   1.109 -0.0606 -0.1876 -0.1461
  649SOL    HW2 2642   0.655   0.715   1.143 -0.6270 -0.1093 -0.1461
  649SOL    HW3 2643   0.587   0.850   1.132 -0.1904  0.0422 -1.0576
  649SOL    MW4 2644   0.655   0.799   1.117 -0.1524 -0.1469 -0.2663
  650SOL     OW 2645   2.707   4.037   1.223  0.2908  0.3646  0.6249
  650SOL    HW2 2646   2.626   3.995   1.195  0.3707  1.1613 -0.8320
  650SOL    HW3 2647   2.776   3.979   1.192  0.3344  0.5509  0.3732
  650SOL    MW4 2648   2.705   4.024   1.215  0.3071  0.4945  0.3996
  651SOL     OW 2649   2.709   4.305   1.129  0.1619  0.0043 -0.1706
  651SOL    HW2 2650   2.632   4.337   1.176 -1.2536 -1.7885 -1.2109
  651SOL    HW3 2651   2.719   4.214   1.159  1.6569  0.1015 -0.3213
  651SOL    MW4 2652   2.700   4.297   1.139  0.1721 -0.2198 -0.3277
  652SOL     OW 2653   1.323   2.430   0.472  0.3893 -0.0351 -0.0073
  652SOL    HW2 2654   1.363   2.346   0.453  0.5277  0.3393 -1.3851
  652SOL    HW3 2655   1.391   2.494   0.451 -0.1966  0.4920 -0.2937
  652SOL    MW4 2656   1.338   2.428   0.467  0.3302  0.0839 -0.2269
  653SOL     OW 2657   3.822   4.619   1.100  0.3056 -0.0146 -0.0241
  653SOL    HW2 2658   3.818   4.528   1.129  1.5102 -0.1140 -0.1483
  653SOL    HW3 2659   3.894   4.657   1.149 -1.7702  1.5704  1.8800
  653SOL    MW4 2660   3.831   4.612   1.110  0.1905  0.1812  0.2108
  654SOL     OW 2661   3.397   0.045   1.075  0.5160  1.0366 -0.2016
  654SOL    HW2 2662   3.476   0.078   1.118  0.6756  1.9960 -1.1944
  654SOL    HW3 2663   3.325   0.079   1.128  0.7091  2.1940 -0.6594
  654SOL    MW4 2664   3.398   0.054   1.088  0.5624  1.3159 -0.3930
  655SOL     OW 2665   1.947   4.541   0.294  0.3663  0.1200  0.2839
  655SOL    HW2 2666   1.944   4.446   0.286  1.3463  0.0531  0.6566
  655SOL    HW3 2667   1.868   4.564   0.343 -0.3087 -0.4224 -0.5412
  655SOL    MW4 2668   1.936   4.532   0.299  0.4066  0.0396  0.2242
  656SOL     OW 2669   3.404   0.571   1.250 -0.1470  0.1007  0.0379
  656SOL    HW2 2670   3.430   0.656   1.215 -1.0916 -0.0567 -1.0879
  656SOL    HW3 2671   3.467   0.509   1.214 -0.6310  0.0557 -0.7468
  656SOL    MW4 2672   3.416   0.574   1.241 -0.3355  0.0740 -0.2141
  657SOL     OW 2673   3.220   0.921   1.205 -0.8042  0.0590  0.0444
  657SOL    HW2 2674   3.195   1.010   1.182 -2.3232 -0.6685 -1.1509
  657SOL    HW3 2675   3.186   0.909   1.294  0.1197  0.9263  0.5329
  657SOL    MW4 2676   3.212   0.931   1.214 -0.8826  0.0775 -0.0489
  658SOL     OW 2677   2.960   0.818   1.133 -0.0089 -0.0727 -0.2016
  658SOL    HW2 2678   3.038   0.864   1.162  0.9628 -1.7022 -0.1639
  658SOL    HW3 2679   2.971   0.808   1.038  0.0209 -0.6795 -0.1321
  658SOL    MW4 2680   2.972   0.823   1.124  0.1228 -0.3678 -0.1873
  659SOL     OW 2681   2.969   1.542   1.094 -0.1682  0.0975  0.2178
  659SOL    HW2 2682   2.952   1.531   1.001 -0.3050 -0.5369  0.3139
  659SOL    HW3 2683   2.966   1.453   1.130  0.6173  0.2585  0.7028
  659SOL    MW4 2684   2.966   1.528   1.087 -0.0825  0.0350  0.2944
  660SOL     OW 2685   2.921   1.296   1.481 -0.0155  0.3727  0.2887
  660SOL    HW2 2686   2.997   1.246   1.513 -0.0992 -0.2591 -0.4849
  660SOL    HW3 2687   2.845   1.251   1.518 -0.1396 -0.7054 -1.2508
  660SOL    MW4 2688   2.921   1.284   1.490 -0.0432  0.1471 -0.0166
  661SOL     OW 2689   3.560   1.746   1.256 -0.5928 -0.6758 -0.1177
  661SOL    HW2 2690   3.497   1.683   1.221  0.7882 -1.4596 -1.2431
  661SOL    HW3 2691   3.646   1.708   1.234  0.2757  0.2197  1.6346
  661SOL    MW4 2692   3.563   1.732   1.249 -0.2961 -0.6610 -0.0349
  662SOL     OW 2693   0.628   1.376   0.434  0.2751  0.2314  0.4591
  662SOL    HW2 2694   0.572   1.424   0.495 -0.8272 -0.6743  0.1610
  662SOL    HW3 2695   0.621   1.285   0.461  1.5599  0.0910  0.3771
  662SOL    MW4 2696   0.620   1.371   0.446  0.2992  0.0935  0.4089
  663SOL     OW 2697   0.883   2.961   0.674  0.0951  0.2674  0.0710
  663SOL    HW2 2698   0.954   2.996   0.727 -0.1592 -0.1120  0.6706
  663SOL    HW3 2699   0.803   2.996   0.714 -0.1310 -0.5550  0.3586
  663SOL    MW4 2700   0.882   2.970   0.687  0.0317  0.1087  0.1881
  664SOL     OW 2701   3.574   2.502   1.280  0.3492  0.2332  0.2196
  664SOL    HW2 2702   3.598   2.496   1.373  1.1082  2.2293  0.1839
  664SOL    HW3 2703   3.634   2.441   1.236  1.1588  0.5532  0.8549
  664SOL    MW4 2704   3.585   2.493   1.287  0.5562  0.5386  0.2987
  665SOL     OW 2705   1.148   2.591   0.757  0.2734  0.0512 -0.2871
  665SOL    HW2 2706   1.126   2.583   0.664  0.5613 -0.2540 -0.3303
  665SOL    HW3 2707   1.071   2.632   0.797 -0.2204 -0.6547 -0.5025
  665SOL    MW4 2708   1.135   2.596   0.750  0.2463 -0.0823 -0.3211
  666SOL     OW 2709   2.935   2.338   1.152  0.6284 -0.3257 -0.2363
  666SOL    HW2 2710   2.927   2.244   1.171  1.1452 -0.2853  0.1830
  666SOL    HW3 2711   2.942   2.342   1.056  2.6019 -0.8674 -0.1382
  666SOL    MW4 2712   2.935   2.326   1.141  0.9573 -0.3920 -0.1680
  667SOL     OW 2713   2.500   2.581   0.779 -0.0967 -0.1113 -0.1822
  667SOL    HW2 2714   2.562   2.644   0.814 -1.2206  0.9478 -0.0419
  667SOL    HW3 2715   2.502   2.595   0.684 -0.8334  0.6130 -0.0972
  667SOL    MW4 2716   2.508   2.591   0.771 -0.3424  0.1240 -0.1525
  668SOL     OW 2717   3.337   2.842   1.241  0.0952  0.1799  0.3587
  668SOL    HW2 2718   3.343   2.929   1.201 -0.4585  0.2189  0.3463
  668SOL    HW3 2719   3.261   2.802   1.199  0.0025 -0.0925  0.7803
  668SOL    MW4 2720   3.328   2.848   1.230  0.0100  0.1493  0.4127
  669SOL     OW 2721   3.351   3.634   1.241  0.2443 -0.3340 -0.4296
  669SOL    HW2 2722   3.405   3.561   1.213 -0.4106 -1.0987  0.2841
  669SOL    HW3 2723   3.349   3.627   1.337 -0.9980 -0.2307 -0.4430
  669SOL    MW4 2724   3.358   3.624   1.250 -0.0062 -0.4213 -0.3372
  670SOL     OW 2725   2.919   3.134   1.082 -0.3087  0.0223  0.5234
  670SOL    HW2 2726   2.839   3.172   1.117 -0.2367 -0.1693  0.8909
  670SOL    HW3 2727   2.923   3.046   1.119  2.2623  1.4627  3.8788
  670SOL    MW4 2728   2.909   3.128   1.091  0.0398  0.1869  1.0147
  671SOL     OW 2729   3.162   3.220   1.193  0.2942  0.0731  0.5298
  671SOL    HW2 2730   3.148   3.313   1.179  0.7766  0.0811  0.0895
  671SOL    HW3 2731   3.086   3.178   1.152  0.0044  0.2714  0.8520
  671SOL    MW4 2732   3.150   3.226   1.186  0.3197  0.1004  0.5141
  672SOL     OW 2733   3.533   3.453   1.149  0.1434  0.2871 -0.2997
  672SOL    HW2 2734   3.529   3.459   1.053  0.8311  1.3455 -0.2780
  672SOL    HW3 2735   3.612   3.501   1.172 -0.1097  0.1772  0.8154
  672SOL    MW4 2736   3.543   3.460   1.139  0.2007  0.4122 -0.1497
  673SOL     OW 2737   4.151   0.613   0.324  0.5794 -0.0770  0.3844
  673SOL    HW2 2738   4.164   0.708   0.325  0.8245 -0.1100  1.8670
  673SOL    HW3 2739   4.060   0.601   0.350 -0.1323 -0.1771 -2.0319
  673SOL    MW4 2740   4.141   0.624   0.327  0.5178 -0.0946  0.2612
  674SOL     OW 2741   2.924   3.881   1.130 -0.0345  0.0830  0.1095
  674SOL    HW2 2742   2.945   3.895   1.037  0.0345 -0.4901  0.0408
  674SOL    HW3 2743   2.999   3.918   1.177  0.2127 -0.1707 -0.0823
  674SOL    MW4 2744   2.937   3.888   1.124  0.0072 -0.0262  0.0751
  675SOL     OW 2745   4.236   2.943   0.862 -0.4435  0.0014 -0.0619
  675SOL    HW2 2746   4.218   2.973   0.951 -0.1000 -0.2478  0.0952
  675SOL    HW3 2747   4.191   2.859   0.855  0.0622 -0.2910  0.1004
  675SOL    MW4 2748   4.228   2.936   0.873 -0.3319 -0.0699 -0.0198
  676SOL     OW 2749   1.780   4.548   0.736 -0.2852  0.2040  0.0228
  676SOL    HW2 2750   1.861   4.593   0.760 -0.0301  0.3710 -1.0797
  676SOL    HW3 2751   1.793   4.458   0.764  0.0525  0.3615  0.3720
  676SOL    MW4 2752   1.792   4.542   0.743 -0.2068  0.2470 -0.0765
  677SOL     OW 2753   3.825   4.345   1.223  0.3283 -0.4701 -0.0006
  677SOL    HW2 2754   3.743   4.297   1.211  0.5601 -0.6752 -0.7810
  677SOL    HW3 2755   3.822   4.375   1.314 -0.3731 -0.9252  0.1315
  677SOL    MW4 2756   3.814   4.342   1.233  0.2663 -0.5574 -0.0859
  678SOL     OW 2757   3.615   0.126   1.215  0.2288 -0.7811 -0.0505
  678SOL    HW2 2758   3.640   0.218   1.204  0.1407 -0.7116  0.3293
  678SOL    HW3 2759   3.675   0.078   1.157  1.2419 -0.6101  0.8259
  678SOL    MW4 2760   3.627   0.132   1.206  0.3510 -0.7493  0.1153
  679SOL     OW 2761   3.594   0.139   1.494 -0.3487  0.0216 -0.1809
  679SOL    HW2 2762   3.677   0.105   1.526 -0.8839 -1.3491 -0.2194
  679SOL    HW3 2763   3.596   0.124   1.399 -0.4842  0.3276 -0.2346
  679SOL    MW4 2764   3.605   0.133   1.485 -0.4370 -0.1189 -0.1931
  680SOL     OW 2765   0.427   0.609   0.760 -0.2561 -0.2104 -0.4038
  680SOL    HW2 2766   0.444   0.603   0.666 -0.0439  1.0483 -0.4577
  680SOL    HW3 2767   0.366   0.683   0.768 -1.2245 -1.0695  0.3340
  680SOL    MW4 2768   0.421   0.618   0.749 -0.3559 -0.1577 -0.3136
  681SOL     OW 2769   0.617   1.071   0.446 -0.2962 -0.4538  0.0457
  681SOL    HW2 2770   0.710   1.078   0.426 -0.2564  1.7978  0.8531
  681SOL    HW3 2771   0.613   1.068   0.541 -1.0877  0.1573  0.0352
  681SOL    MW4 2772   0.628   1.072   0.456 -0.3954 -0.0762  0.1508
  682SOL     OW 2773   3.798   3.875   1.083 -0.2564 -0.1337 -0.2234
  682SOL    HW2 2774   3.795   3.884   0.988  0.7445 -1.2590 -0.3758
  682SOL    HW3 2775   3.727   3.930   1.115  0.1362  1.1846 -1.5515
  682SOL    MW4 2776   3.789   3.884   1.075 -0.0725 -0.1082 -0.4188
  683SOL     OW 2777   0.235   0.206   0.758 -0.0883 -0.6645  0.1164
  683SOL    HW2 2778   0.238   0.116   0.792  0.9702 -0.5205  0.4183
  683SOL    HW3 2779   0.311   0.249   0.796 -0.9591  0.5641  0.4970
  683SOL    MW4 2780   0.245   0.200   0.767 -0.0635 -0.4834  0.2065
  684SOL     OW 2781   3.842   1.339   1.252  0.4625 -0.3121  0.5850
  684SOL    HW2 2782   3.769   1.296   1.206  0.8535 -0.6615  0.2921
  684SOL    HW3 2783   3.824   1.322   1.345 -0.1342  0.0864  0.5482
  684SOL    MW4 2784   3.830   1.331   1.258  0.4356 -0.3055  0.5414
  685SOL     OW 2785   2.430   3.877   0.352  0.0358 -0.4520 -0.0575
  685SOL    HW2 2786   2.334   3.868   0.358 -0.0868 -0.2120 -1.5095
  685SOL    HW3 2787   2.454   3.825   0.276  1.0831 -0.6024  0.3721
  685SOL    MW4 2788   2.420   3.869   0.342  0.1578 -0.4404 -0.1924
  686SOL     OW 2789   1.855   1.952   0.407  0.8185 -0.0815  0.1859
  686SOL    HW2 2790   1.941   1.946   0.365  0.4534  0.7294 -0.6976
  686SOL    HW3 2791   1.838   2.046   0.413  0.2949 -0.2276  0.9794
  686SOL    MW4 2792   1.864   1.964   0.402  0.7012  0.0063  0.1740
  687SOL     OW 2793   1.737   1.440   0.771 -0.5586 -0.2922  0.1184
  687SOL    HW2 2794   1.746   1.463   0.679 -0.9738 -0.3647  0.0601
  687SOL    HW3 2795   1.819   1.470   0.811  0.1846 -1.4540 -0.5168
  687SOL    MW4 2796   1.749   1.447   0.764 -0.5152 -0.4550  0.0268
  688SOL     OW 2797   3.749   2.352   1.141  0.0465 -0.1737  0.0144
  688SOL    HW2 2798   3.828   2.406   1.142 -0.5974  0.7868 -0.2793
  688SOL    HW3 2799   3.779   2.266   1.168  1.1850  0.2020 -0.0135
  688SOL    MW4 2800   3.764   2.348   1.144  0.1116  0.0026 -0.0281
  689SOL     OW 2801   3.834   2.068   1.492  0.3995 -0.1400  0.6843
  689SOL    HW2 2802   3.823   2.160   1.516 -0.4353  0.3944 -1.6041
  689SOL    HW3 2803   3.753   2.025   1.521  0.0110  0.2159  0.1348
  689SOL    MW4 2804   3.822   2.074   1.499  0.2382 -0.0226  0.3099
  690SOL     OW 2805   3.394   3.074   1.125 -0.1883  0.4431  0.0534
  690SOL    HW2 2806   3.322   3.133   1.148 -2.4693 -2.0962 -0.3313
  690SOL    HW3 2807   3.464   3.097   1.185 -2.4608  0.8419  2.6256
  690SOL    MW4 2808   3.394   3.085   1.136 -0.7889  0.1607  0.3420
  691SOL     OW 2809   3.860   3.209   0.297  0.1426  0.1098 -0.2347
  691SOL    HW2 2810   3.872   3.303   0.306  1.0482 -0.0120 -0.1631
  691SOL    HW3 2811   3.948   3.172   0.303 -0.3964 -0.9440  2.2307
  691SOL    MW4 2812   3.873   3.216   0.299  0.1912 -0.0453  0.1000
  692SOL     OW 2813   3.822   3.116   1.042 -0.3369  0.0526  0.1967
  692SOL    HW2 2814   3.875   3.172   1.099  0.4270 -1.0103  0.5460
  692SOL    HW3 2815   3.837   3.027   1.075 -0.8294 -0.4522 -0.9126
  692SOL    MW4 2816   3.831   3.112   1.054 -0.3016 -0.1540  0.0964
  693SOL     OW 2817   1.998   1.584   1.136 -0.0307  0.1171 -0.1469
  693SOL    HW2 2818   2.004   1.498   1.178 -1.6168  0.7259  1.4077
  693SOL    HW3 2819   2.081   1.626   1.155  0.1456 -0.4870  0.4625
  693SOL    MW4 2820   2.010   1.578   1.144 -0.2167  0.1178  0.1384
  694SOL     OW 2821   3.628   3.185   1.229  0.6252 -0.0719  0.2088
  694SOL    HW2 2822   3.686   3.165   1.155  0.1178 -0.5752 -0.0581
  694SOL    HW3 2823   3.599   3.274   1.213  0.4096 -0.2272 -0.2742
  694SOL    MW4 2824   3.632   3.194   1.217  0.5298 -0.1588  0.1099
  695SOL     OW 2825   0.651   2.606   0.782 -0.0865 -0.6027  0.0745
  695SOL    HW2 2826   0.568   2.641   0.815 -0.0844 -0.0661 -0.4927
  695SOL    HW3 2827   0.641   2.605   0.687  0.0660 -1.7771  0.0674
  695SOL    MW4 2828   0.639   2.610   0.774 -0.0661 -0.6866 -0.0012
  696SOL     OW 2829   3.761   3.615   1.228 -0.4449  0.3259 -0.3715
  696SOL    HW2 2830   3.756   3.624   1.323  0.8108 -0.2370 -0.2412
  696SOL    HW3 2831   3.783   3.702   1.195 -2.7669  0.9686 -0.3192
  696SOL    MW4 2832   3.763   3.627   1.236 -0.5853  0.3364 -0.3474
  697SOL     OW 2833   4.063   3.954   1.217 -0.0205 -0.2897  0.2722
  697SOL    HW2 2834   3.973   3.933   1.191 -0.2857 -1.2602  1.8696
  697SOL    HW3 2835   4.073   4.046   1.194 -2.1994  0.4521  1.9961
  697SOL    MW4 2836   4.052   3.964   1.211 -0.3433 -0.3200  0.7105
  698SOL     OW 2837   3.599   4.017   1.196 -0.0085  0.2443  0.0556
  698SOL    HW2 2838   3.526   3.964   1.166  1.1347 -0.7414 -1.0200
  698SOL    HW3 2839   3.601   4.003   1.291 -1.1944  0.2663  0.0904
  698SOL    MW4 2840   3.590   4.008   1.205 -0.0143  0.1173 -0.0818
  699SOL     OW 2841   1.542   4.661   0.838  0.4053 -0.1469  0.6687
  699SOL    HW2 2842   1.474   4.613   0.791 -0.2491  1.2806  0.1283
  699SOL    HW3 2843   1.622   4.612   0.820 -0.1951 -0.8510 -0.1277
  699SOL    MW4 2844   1.544   4.648   0.830  0.2397 -0.0515  0.4923
  700SOL     OW 2845   1.581   2.360   0.833  0.3096 -0.1908 -0.0987
  700SOL    HW2 2846   1.652   2.305   0.801  0.2787 -0.7664  0.8030
  700SOL    HW3 2847   1.608   2.450   0.813  0.3812 -0.5323 -1.5355
  700SOL    MW4 2848   1.594   2.365   0.826  0.3150 -0.3121 -0.1693
  701SOL     OW 2849   0.475   3.455   0.843 -0.4336 -0.2293  0.5597
  701SOL    HW2 2850   0.396   3.413   0.807 -1.2937  0.9023  1.1028
  701SOL    HW3 2851   0.464   3.450   0.938  0.2047 -0.1575  0.6372
  701SOL    MW4 2852   0.463   3.449   0.850 -0.4628 -0.0706  0.6415
  702SOL     OW 2853   4.107   0.350   1.158 -0.1807 -0.1006 -0.5982
  702SOL    HW2 2854   4.088   0.259   1.181 -2.1090  0.3176 -0.4417
  702SOL    HW3 2855   4.105   0.352   1.062 -0.5789 -0.1494 -0.5931
  702SOL    MW4 2856   4.104   0.338   1.148 -0.4878 -0.0518 -0.5770
  703SOL     OW 2857   0.218   2.611   0.760  0.1182  0.1214 -0.2039
  703SOL    HW2 2858   0.134   2.626   0.804 -0.0457 -0.4172 -0.3180
  703SOL    HW3 2859   0.198   2.619   0.667  0.5040  1.4417 -0.1719
  703SOL    MW4 2860   0.204   2.614   0.754  0.1475  0.2246 -0.2147
  704SOL     OW 2861   0.003   1.727   1.228  0.1051 -0.0432  0.3926
  704SOL    HW2 2862   0.079   1.691   1.181 -1.0948 -0.1000 -1.5473
  704SOL    HW3 2863  -0.001   1.818   1.200 -0.4279  0.0046  0.6314
  704SOL    MW4 2864   0.013   1.734   1.218 -0.1236 -0.0443  0.1681
  705SOL     OW 2865   0.227   0.776   1.114 -0.2947  0.1228 -0.0672
  705SOL    HW2 2866   0.312   0.808   1.142 -0.8199  1.0311  0.4998
  705SOL    HW3 2867   0.164   0.835   1.155 -1.2154 -0.7906 -0.1436
  705SOL    MW4 2868   0.230   0.788   1.123 -0.4854  0.1221 -0.0024
  706SOL     OW 2869   4.101   0.897   1.279  0.0265 -0.0123 -0.4499
  706SOL    HW2 2870   4.080   0.980   1.237 -1.0244 -0.7817 -1.4580
  706SOL    HW3 2871   4.131   0.922   1.367  0.2822  1.4584 -0.9373
  706SOL    MW4 2872   4.102   0.911   1.285 -0.0782  0.0802 -0.6472
  707SOL     OW 2873   0.645   1.042   0.727 -0.0924  0.1862  0.3327
  707SOL    HW2 2874   0.716   1.087   0.774 -0.7411  1.4123  0.1635
  707SOL    HW3 2875   0.647   0.953   0.761  1.7217  0.1182  0.1171
  707SOL    MW4 2876   0.655   1.037   0.738  0.0614  0.3390  0.2819
  708SOL     OW 2877   0.469   4.254   1.148  0.2800  0.1117  0.0989
  708SOL    HW2 2878   0.401   4.316   1.176 -0.9615 -0.9114 -0.5490
  708SOL    HW3 2879   0.551   4.296   1.172 -0.5378  1.8759 -0.0643
  708SOL    MW4 2880   0.471   4.268   1.155  0.0083  0.2098 -0.0082
  709SOL     OW 2881   3.487   0.045   0.602  0.1468 -0.1834  0.0082
  709SOL    HW2 2882   3.490   0.082   0.691  0.5533  0.8327 -0.4172
  709SOL    HW3 2883   3.396   0.017   0.592  0.7756 -3.0342  1.8075
  709SOL    MW4 2884   3.475   0.046   0.612  0.2835 -0.4254  0.1894
  710SOL     OW 2885   4.072   1.752   1.179  0.1344  0.2584  0.1235
  710SOL    HW2 2886   4.062   1.740   1.274  0.2882 -2.2931 -0.1309
  710SOL    HW3 2887   4.151   1.701   1.157  0.4541  1.3377 -1.2829
  710SOL    MW4 2888   4.081   1.744   1.189  0.1969  0.0640 -0.0957
  711SOL     OW 2889   0.512   4.276   0.833  0.0493  0.5366  0.3429
  711SOL    HW2 2890   0.438   4.227   0.797  1.9323 -1.4297 -0.9801
  711SOL    HW3 2891   0.511   4.255   0.926 -1.7130  1.4222  0.5400
  711SOL    MW4 2892   0.502   4.267   0.840  0.0652  0.3943  0.1944
  712SOL     OW 2893   4.239   2.076   1.250 -0.3007  0.4859  0.0634
  712SOL    HW2 2894   4.239   2.164   1.212 -0.5617  0.3848 -0.1662
  712SOL    HW3 2895   4.170   2.029   1.203 -0.1672  0.1608  0.1937
  712SOL    MW4 2896   4.230   2.081   1.239 -0.3176  0.4296  0.0502
  713SOL     OW 2897   2.921   2.379   0.403 -0.8907  0.1690  0.1482
  713SOL    HW2 2898   2.951   2.446   0.341  1.2624  1.3888  2.4148
  713SOL    HW3 2899   2.966   2.299   0.376  1.4256  1.0994  1.1686
  713SOL    MW4 2900   2.931   2.378   0.391 -0.3006  0.4525  0.5819
  714SOL     OW 2901   3.990   2.479   1.202 -0.0394 -0.2795 -0.1651
  714SOL    HW2 2902   4.004   2.485   1.297  1.1194 -0.3710 -0.3256
  714SOL    HW3 2903   4.015   2.566   1.169 -0.6391 -0.1812 -0.3619
  714SOL    MW4 2904   3.995   2.492   1.210  0.0343 -0.2785 -0.2122
  715SOL     OW 2905   1.585   0.585   0.468 -0.2815 -0.2318 -0.1651
  715SOL    HW2 2906   1.672   0.555   0.443 -0.2323 -1.1067  1.0021
  715SOL    HW3 2907   1.599   0.676   0.498  0.3422 -0.5730  0.6070
  715SOL    MW4 2908   1.599   0.593   0.469 -0.1926 -0.3923  0.0908
  716SOL     OW 2909   3.807   1.556   0.881  0.0608 -0.3231 -0.0503
  716SOL    HW2 2910   3.886   1.508   0.858  0.3588 -0.1876  0.6704
  716SOL    HW3 2911   3.808   1.558   0.977  0.8103  2.3601 -0.0847
  716SOL    MW4 2912   3.817   1.550   0.891  0.1991  0.0488  0.0402
  717SOL     OW 2913   4.474   3.485   1.134 -0.6812  0.3077 -0.3196
  717SOL    HW2 2914   4.389   3.527   1.148 -1.4679 -1.2118 -0.4541
  717SOL    HW3 2915   4.484   3.481   1.039 -0.4390  0.4950 -0.3048
  717SOL    MW4 2916   4.464   3.490   1.124 -0.7531  0.1321 -0.3355
  718SOL     OW 2917   4.032   3.259   1.223 -0.5020  0.4331 -0.4141
  718SOL    HW2 2918   4.057   3.347   1.193 -1.0932  0.6478 -0.2852
  718SOL    HW3 2919   4.020   3.269   1.318 -2.0669  0.5773 -0.6170
  718SOL    MW4 2920   4.034   3.272   1.232 -0.7868  0.4804 -0.4239
  719SOL     OW 2921   4.014   3.525   1.137 -0.6080 -0.3736  0.0079
  719SOL    HW2 2922   4.018   3.538   1.042  0.0780  0.3746  0.1364
  719SOL    HW3 2923   3.932   3.566   1.164  0.4999  1.8921  0.1052
  719SOL    MW4 2924   4.004   3.532   1.128 -0.3710  0.0241  0.0378
  720SOL     OW 2925   4.250   3.622   1.233 -0.6439 -0.0161 -0.1465
  720SOL    HW2 2926   4.160   3.602   1.211 -0.8255  0.9158 -0.2924
  720SOL    HW3 2927   4.270   3.701   1.183  0.7745 -1.1216 -1.3517
  720SOL    MW4 2928   4.241   3.630   1.224 -0.4807 -0.0391 -0.3247
  721SOL     OW 2929   4.287   3.856   1.117 -0.5546 -0.1360 -0.4442
  721SOL    HW2 2930   4.265   3.854   1.024  1.5451  0.5182 -0.9872
  721SOL    HW3 2931   4.208   3.890   1.160 -1.2544  0.3258 -2.0642
  721SOL    MW4 2932   4.274   3.860   1.110 -0.3700  0.0112 -0.7296
  722SOL     OW 2933   4.270   4.407   1.219  0.3624 -0.0494 -0.0039
  722SOL    HW2 2934   4.203   4.367   1.165  0.8353 -1.7566  0.6621
  722SOL    HW3 2935   4.353   4.381   1.180  0.6827  0.0141  0.6167
  722SOL    MW4 2936   4.272   4.399   1.207  0.4673 -0.2666  0.1659
  723SOL     OW 2937   1.348   0.366   0.838 -0.5237  0.2942  0.1864
  723SOL    HW2 2938   1.416   0.326   0.784  0.0975  0.4102  0.8810
  723SOL    HW3 2939   1.271   0.311   0.824 -0.3047  0.1975 -0.6475
  723SOL    MW4 2940   1.347   0.354   0.829 -0.4129  0.2967  0.1681
  724SOL     OW 2941   3.009   2.603   0.239 -0.4655  0.1469  0.1188
  724SOL    HW2 2942   2.984   2.626   0.150  3.4807  1.9171 -0.6160
  724SOL    HW3 2943   2.977   2.675   0.293  0.6354  1.0300 -0.4111
  724SOL    MW4 2944   3.001   2.615   0.234  0.2003  0.4971 -0.0481
  725SOL     OW 2945   0.253   4.653   1.601 -0.3803 -0.2533  0.6141
  725SOL    HW2 2946   0.326   4.711   1.578  0.2969 -1.1100  0.5610
  725SOL    HW3 2947   0.174   4.703   1.579  0.1679  1.2104  1.9758
  725SOL    MW4 2948   0.252   4.667   1.595 -0.2187 -0.1732  0.7868
  726SOL     OW 2949   0.019   0.127   1.552  0.3729  0.1897 -0.0827
  726SOL    HW2 2950  -0.064   0.078   1.550 -0.5553  1.7470 -1.2274
  726SOL    HW3 2951   0.052   0.120   1.463 -0.6366  3.0314 -0.7325
  726SOL    MW4 2952   0.012   0.120   1.540  0.1173  0.7701 -0.3195
  727SOL     OW 2953   0.003   0.404   1.635 -0.7525 -0.4605 -0.3544
  727SOL    HW2 2954  -0.011   0.410   1.730 -2.2013  1.9215 -0.7014
  727SOL    HW3 2955   0.033   0.314   1.622 -0.7873 -0.9176  2.3315
  727SOL    MW4 2956   0.005   0.393   1.646 -0.9483 -0.2065 -0.0458
  728SOL     OW 2957   0.232   0.539   1.561 -0.2455 -0.5502  0.1596
  728SOL    HW2 2958   0.149   0.498   1.585 -0.3606 -0.9002 -0.8028
  728SOL    HW3 2959   0.234   0.534   1.466  1.1923 -1.1573  0.2139
  728SOL    MW4 2960   0.221   0.533   1.552 -0.0710 -0.6765  0.0398
  729SOL     OW 2961   0.480   0.392   1.616 -0.3017 -0.3749 -0.0082
  729SOL    HW2 2962   0.553   0.443   1.581 -0.2462 -0.3677  0.1188
  729SOL    HW3 2963   0.402   0.440   1.589 -0.3195 -1.1883 -1.4498
  729SOL    MW4 2964   0.480   0.405   1.608 -0.2967 -0.4812 -0.1817
  730SOL     OW 2965   4.473   0.936   1.509  0.3900 -0.3698 -0.2949
  730SOL    HW2 2966   4.485   1.026   1.540 -0.0865 -0.8927  1.3938
  730SOL    HW3 2967   4.548   0.889   1.544 -0.9370 -1.2919  1.3539
  730SOL    MW4 2968   4.485   0.942   1.517  0.1516 -0.5605  0.1453
  731SOL     OW 2969   4.457   1.232   1.651 -0.1506 -0.3183 -0.7549
  731SOL    HW2 2970   4.463   1.222   1.746 -0.2789  0.3679 -0.6685
  731SOL    HW3 2971   4.548   1.243   1.623 -0.1580  0.0694 -0.6358
  731SOL    MW4 2972   4.470   1.232   1.660 -0.1683 -0.1765 -0.7279
  732SOL     OW 2973   0.197   1.271   1.499  0.1116 -0.2782  0.0511
  732SOL    HW2 2974   0.199   1.363   1.523 -0.9776 -0.2933  0.2324
  732SOL    HW3 2975   0.180   1.271   1.405 -1.3405 -0.3032  0.2973
  732SOL    MW4 2976   0.195   1.283   1.490 -0.2237 -0.2835  0.1075
  733SOL     OW 2977   0.255   1.513   1.632 -0.7484  0.1931  0.1451
  733SOL    HW2 2978   0.253   1.514   1.728 -0.7777 -1.7859  0.1898
  733SOL    HW3 2979   0.182   1.569   1.605  0.0721  1.8384  1.2598
  733SOL    MW4 2980   0.245   1.520   1.641 -0.6440  0.1491  0.2981
  734SOL     OW 2981   0.060   1.700   1.501 -0.5702 -0.0178 -0.2801
  734SOL    HW2 2982   0.061   1.788   1.539  0.6345 -1.0537  2.2031
  734SOL    HW3 2983   0.039   1.714   1.409 -0.6321  2.8520  0.1242
  734SOL    MW4 2984   0.057   1.714   1.494 -0.4195  0.2242  0.1010
  735SOL     OW 2985   0.050   1.969   1.588  0.2243  0.1738  0.2909
  735SOL    HW2 2986   0.048   1.956   1.683  0.4805 -0.3130  0.2320
  735SOL    HW3 2987  -0.036   2.004   1.567 -0.4561 -1.3188  0.4914
  735SOL    MW4 2988   0.038   1.972   1.598  0.1684 -0.0874  0.3096
  736SOL     OW 2989   0.268   2.131   1.503  0.4907  0.3583 -0.2733
  736SOL    HW2 2990   0.195   2.080   1.536  1.5084 -0.9171  0.0421
  736SOL    HW3 2991   0.266   2.118   1.408 -0.4136  1.3210 -0.3983
  736SOL    MW4 2992   0.258   2.123   1.495  0.5057  0.3169 -0.2483
  737SOL     OW 2993   0.226   2.383   1.581  0.1308 -0.4724 -0.1863
  737SOL    HW2 2994   0.203   2.367   1.673 -0.6396 -1.0586 -0.4752
  737SOL    HW3 2995   0.246   2.297   1.546 -1.4319 -0.4982 -1.0592
  737SOL    MW4 2996   0.226   2.370   1.589 -0.1771 -0.5531 -0.3396
  738SOL     OW 2997   4.475   2.480   1.524 -0.0721  0.3957 -0.2636
  738SOL    HW2 2998   4.400   2.432   1.558 -0.5845  2.2187  1.2063
  738SOL    HW3 2999   4.551   2.426   1.548 -0.7609 -0.5465 -0.1765
  738SOL    MW4 3000   4.475   2.466   1.531 -0.2303  0.5119 -0.0581
  739SOL     OW 3001   0.005   2.744   1.589  0.2105 -0.1137  0.0594
  739SOL    HW2 3002  -0.075   2.786   1.559 -0.3095 -1.0831  0.0691
  739SOL    HW3 3003   0.008   2.661   1.541  1.7299  0.3505 -0.6924
  739SOL    MW4 3004  -0.005   2.739   1.579  0.3428 -0.1802 -0.0385
  740SOL     OW 3005   0.250   2.860   1.512 -0.4057 -0.2591  0.0635
  740SOL    HW2 3006   0.322   2.810   1.552  0.2620 -0.3684 -1.2432
  740SOL    HW3 3007   0.171   2.816   1.543  0.1485 -1.3727 -0.0574
  740SOL    MW4 3008   0.249   2.847   1.521 -0.2445 -0.4203 -0.1249
  741SOL     OW 3009   0.242   3.108   1.599  0.4740 -0.5694 -0.2112
  741SOL    HW2 3010   0.162   3.152   1.568  0.8016 -0.7068 -1.2872
  741SOL    HW3 3011   0.238   3.021   1.559  0.3473 -1.1521  1.0706
  741SOL    MW4 3012   0.231   3.103   1.590  0.5005 -0.6645 -0.1841
  742SOL     OW 3013   0.011   3.219   1.485 -0.0843  0.4737 -0.0782
  742SOL    HW2 3014   0.014   3.310   1.515  0.5189  0.3848  0.1545
  742SOL    HW3 3015  -0.022   3.224   1.396 -1.7583  0.7651  0.5354
  742SOL    MW4 3016   0.007   3.232   1.477 -0.2260  0.5007  0.0334
  743SOL     OW 3017   4.470   3.474   1.578  0.7741  0.0612  0.1748
  743SOL    HW2 3018   4.484   3.482   1.673  2.0383  0.5525 -0.0511
  743SOL    HW3 3019   4.398   3.534   1.560  0.1115 -0.5010  0.9263
  743SOL    MW4 3020   4.462   3.483   1.588  0.8531  0.0517  0.2440
  744SOL     OW 3021   0.201   3.613   1.506  0.4671 -0.0224 -0.2744
  744SOL    HW2 3022   0.189   3.706   1.526 -0.0912  0.2578 -1.8474
  744SOL    HW3 3023   0.116   3.573   1.523  0.9228 -0.3993  1.1686
  744SOL    MW4 3024   0.188   3.620   1.511  0.4536 -0.0353 -0.2916
  745SOL     OW 3025   0.209   3.873   1.588 -0.3988  0.1425 -0.5948
  745SOL    HW2 3026   0.214   3.887   1.682 -1.0581  1.4694 -0.7474
  745SOL    HW3 3027   0.284   3.919   1.552 -0.2891 -0.1495 -0.7438
  745SOL    MW4 3028   0.219   3.881   1.595 -0.4713  0.2787 -0.6346
  746SOL     OW 3029   4.285   3.911   1.570 -0.3495 -0.2945  0.0147
  746SOL    HW2 3030   4.197   3.941   1.545 -0.7513 -0.6776  0.9270
  746SOL    HW3 3031   4.344   3.962   1.515 -1.1465 -0.0653 -0.6450
  746SOL    MW4 3032   4.281   3.922   1.560 -0.5074 -0.3150  0.0480
  747SOL     OW 3033   4.484   4.294   1.847  0.3398  0.0985  0.1288
  747SOL    HW2 3034   4.413   4.329   1.900 -0.1317  0.6181 -0.8374
  747SOL    HW3 3035   4.564   4.321   1.892 -0.0409  1.4652 -0.0064
  747SOL    MW4 3036   4.485   4.302   1.860  0.2273  0.3471 -0.0166
  748SOL     OW 3037   0.248   4.386   1.494  0.1851 -0.3654 -0.4196
  748SOL    HW2 3038   0.158   4.361   1.515  0.8396 -1.3015  1.3318
  748SOL    HW3 3039   0.251   4.480   1.515 -0.4600 -0.2516 -0.8004
  748SOL    MW4 3040   0.236   4.395   1.500  0.1863 -0.4735 -0.2388
  749SOL     OW 3041   0.688   0.007   1.614  0.0206 -0.1949 -0.5130
  749SOL    HW2 3042   0.756   0.049   1.560  0.0441 -0.4405 -0.6755
  749SOL    HW3 3043   0.606   0.040   1.578  0.0163 -0.8393 -1.1041
  749SOL    MW4 3044   0.686   0.017   1.602  0.0231 -0.3123 -0.6125
  750SOL     OW 3045   0.468   0.164   1.219  0.3412 -0.0094  0.0554
  750SOL    HW2 3046   0.465   0.258   1.201 -0.4694 -0.0520 -0.0183
  750SOL    HW3 3047   0.544   0.133   1.170  0.2324  0.4943 -0.4355
  750SOL    MW4 3048   0.478   0.172   1.210  0.2199  0.0515 -0.0191
  751SOL     OW 3049   0.460   0.130   1.505  0.0418  0.1406  0.3369
  751SOL    HW2 3050   0.465   0.143   1.410 -0.8139 -0.4256  0.2124
  751SOL    HW3 3051   0.485   0.215   1.542  0.6803  0.2791 -0.3847
  751SOL    MW4 3052   0.464   0.143   1.497  0.0132  0.0842  0.2252
  752SOL     OW 3053   0.684   0.548   1.226  0.4649  0.2437  0.2250
  752SOL    HW2 3054   0.755   0.498   1.187  0.2123 -0.7534  1.0211
  752SOL    HW3 3055   0.605   0.501   1.200  0.2816 -0.3249  1.7535
  752SOL    MW4 3056   0.683   0.535   1.217  0.4073  0.0372  0.5317
  753SOL     OW 3057   0.694   0.532   1.521 -0.1282 -0.5678 -0.5464
  753SOL    HW2 3058   0.680   0.625   1.542  1.5879 -0.6142  0.9317
  753SOL    HW3 3059   0.694   0.529   1.425  2.0674  1.3398 -0.6446
  753SOL    MW4 3060   0.692   0.544   1.511  0.3879 -0.3222 -0.3644
  754SOL     OW 3061   0.227   0.807   1.614  0.2179 -0.3749 -0.1437
  754SOL    HW2 3062   0.297   0.856   1.571 -0.0701  1.1004  1.0340
  754SOL    HW3 3063   0.239   0.717   1.585  1.4174  0.2009 -1.4885
  754SOL    MW4 3064   0.238   0.802   1.604  0.3381 -0.1042 -0.1657
  755SOL     OW 3065   0.438   1.194   1.596 -0.5432  0.5299 -0.0226
  755SOL    HW2 3066   0.499   1.236   1.535  0.5602  1.7412  1.8497
  755SOL    HW3 3067   0.355   1.238   1.581 -0.3136  0.7301 -0.7341
  755SOL    MW4 3068   0.435   1.206   1.586 -0.3673  0.7163  0.1305
  756SOL     OW 3069   0.683   1.324   1.444  0.5529  0.0641 -0.3914
  756SOL    HW2 3070   0.710   1.404   1.491 -0.9681  0.3639 -0.0234
  756SOL    HW3 3071   0.679   1.350   1.352  0.3778  0.3121 -0.3115
  756SOL    MW4 3072   0.686   1.338   1.438  0.3291  0.1364 -0.3322
  757SOL     OW 3073   0.700   1.538   1.610 -0.4399 -0.2445  0.5052
  757SOL    HW2 3074   0.772   1.587   1.569  0.5094 -0.7094  1.6161
  757SOL    HW3 3075   0.621   1.577   1.572  0.3856  0.2471 -0.7562
  757SOL    MW4 3076   0.699   1.550   1.599 -0.2057 -0.2410  0.4854
  758SOL     OW 3077   0.467   1.659   1.508  0.2301 -0.1336 -0.3434
  758SOL    HW2 3078   0.456   1.751   1.532 -0.1432 -0.1545 -0.4339
  758SOL    HW3 3079   0.395   1.614   1.553 -0.0999 -0.2612 -1.0018
  758SOL    MW4 3080   0.456   1.665   1.517  0.1374 -0.1532 -0.4421
  759SOL     OW 3081   0.461   1.951   1.561  0.0933 -0.0301  0.0392
  759SOL    HW2 3082   0.467   1.958   1.656 -0.2877  0.9888 -0.0035
  759SOL    HW3 3083   0.389   2.010   1.537  0.3919 -0.0433 -0.9123
  759SOL    MW4 3084   0.452   1.960   1.570  0.0825  0.1025 -0.0920
  760SOL     OW 3085   0.677   2.086   1.439  0.0080  0.0828 -0.2233
  760SOL    HW2 3086   0.745   2.027   1.471  0.7543  0.2859 -1.4174
  760SOL    HW3 3087   0.596   2.052   1.478  0.6532 -0.7561  0.3963
  760SOL    MW4 3088   0.675   2.074   1.448  0.1916 -0.0012 -0.2990
  761SOL     OW 3089   0.679   2.354   1.603 -0.1232 -0.4261  0.1674
  761SOL    HW2 3090   0.597   2.386   1.564  0.7330  1.0316 -0.4402
  761SOL    HW3 3091   0.692   2.268   1.563 -1.1686 -0.5066 -0.0153
  761SOL    MW4 3092   0.670   2.347   1.593 -0.1481 -0.2446  0.0631
  762SOL     OW 3093   0.460   2.497   1.510  0.4483  0.4089 -0.0763
  762SOL    HW2 3094   0.471   2.584   1.549  1.5828 -0.1617  0.9325
  762SOL    HW3 3095   0.374   2.468   1.539  0.1177  1.1449 -0.3140
  762SOL    MW4 3096   0.450   2.505   1.519  0.5544  0.4306  0.0255
  763SOL     OW 3097   0.465   2.748   1.637  0.3389 -0.0147 -0.2741
  763SOL    HW2 3098   0.466   2.758   1.732  2.8553 -0.3003 -0.2282
  763SOL    HW3 3099   0.552   2.778   1.609  0.7525 -2.7652 -2.1534
  763SOL    MW4 3100   0.477   2.753   1.646  0.7255 -0.4153 -0.5161
  764SOL     OW 3101   0.695   2.853   1.519  0.4048  0.2314 -0.1751
  764SOL    HW2 3102   0.675   2.943   1.544  0.3457  0.1358  0.1228
  764SOL    HW3 3103   0.678   2.850   1.425 -1.3936  0.0598  0.1247
  764SOL    MW4 3104   0.690   2.864   1.510  0.1597  0.1962 -0.0961
  765SOL     OW 3105   0.667   3.101   1.591 -0.0765  0.2320 -0.5316
  765SOL    HW2 3106   0.743   3.154   1.564  0.6792 -1.1841 -1.2199
  765SOL    HW3 3107   0.591   3.150   1.559  0.6353  0.6348 -1.6269
  765SOL    MW4 3108   0.667   3.115   1.584  0.1171  0.0987 -0.7670
  766SOL     OW 3109   0.462   3.247   1.506 -0.1474 -0.2683  0.6059
  766SOL    HW2 3110   0.389   3.190   1.532 -0.3199 -0.9940 -1.3983
  766SOL    HW3 3111   0.470   3.234   1.412  2.1308  0.3554  0.6923
  766SOL    MW4 3112   0.453   3.238   1.497  0.1305 -0.2818  0.3530
  767SOL     OW 3113   0.434   3.494   1.605  0.6408  0.2392 -0.0096
  767SOL    HW2 3114   0.441   3.407   1.565 -0.4774  0.5112 -0.8480
  767SOL    HW3 3115   0.350   3.527   1.573  0.5088  1.1479  1.2624
  767SOL    MW4 3116   0.424   3.487   1.595  0.4758  0.3953  0.0476
  768SOL     OW 3117   0.640   3.607   1.470 -0.4298  0.2071  0.1883
  768SOL    HW2 3118   0.724   3.576   1.504 -0.7932 -1.2097 -0.1324
  768SOL    HW3 3119   0.574   3.558   1.520 -1.0416  0.8996  0.0664
  768SOL    MW4 3120   0.642   3.596   1.481 -0.5585  0.1113  0.1298
  769SOL     OW 3121   0.671   3.877   1.569 -0.0595  0.8185  0.1736
  769SOL    HW2 3122   0.749   3.916   1.529 -0.3720  0.2583 -1.0154
  769SOL    HW3 3123   0.665   3.790   1.530 -0.7056  0.4713  1.0304
  769SOL    MW4 3124   0.680   3.871   1.558 -0.1860  0.6983  0.1297
  770SOL     OW 3125   0.435   3.994   1.480  0.1107 -0.2245 -0.3152
  770SOL    HW2 3126   0.444   3.965   1.389  0.6412 -1.2868  0.0590
  770SOL    HW3 3127   0.513   3.958   1.524  1.0788  2.2445  0.0666
  770SOL    MW4 3128   0.447   3.985   1.474  0.3084 -0.0386 -0.2154
  771SOL     OW 3129   0.470   4.250   1.568 -0.1427  0.5352  0.6097
  771SOL    HW2 3130   0.453   4.166   1.525 -0.3446  0.2838  1.1762
  771SOL    HW3 3131   0.389   4.300   1.555  0.8697  1.5887 -1.8893
  771SOL    MW4 3132   0.457   4.246   1.561 -0.0358  0.6409  0.3546
  772SOL     OW 3133   0.700   4.409   1.489  0.1592 -0.3337 -0.4825
  772SOL    HW2 3134   0.625   4.353   1.508  1.0844 -1.3095  0.3811
  772SOL    HW3 3135   0.683   4.490   1.537 -0.1154 -0.7364  0.0964
  772SOL    MW4 3136   0.688   4.412   1.498  0.2451 -0.5155 -0.2922
  773SOL     OW 3137   1.109   4.662   1.552  0.1031 -0.3440  0.1024
  773SOL    HW2 3138   1.103   4.668   1.647  2.2564 -0.6874  0.2883
  773SOL    HW3 3139   1.188   4.712   1.530 -1.8259  2.0062 -1.7818
  773SOL    MW4 3140   1.119   4.670   1.562  0.1327 -0.0792 -0.1217
  774SOL     OW 3141   0.900   0.135   1.458 -0.1576 -0.0613  0.0391
  774SOL    HW2 3142   0.897   0.215   1.512  1.8736 -0.5164  0.8702
  774SOL    HW3 3143   0.973   0.084   1.495 -0.3090 -1.4989 -1.6026
  774SOL    MW4 3144   0.909   0.139   1.470  0.0905 -0.3110 -0.0678
  775SOL     OW 3145   0.931   0.387   1.573 -0.0664 -0.1930 -0.1182
  775SOL    HW2 3146   0.922   0.388   1.668  1.3332  2.0896  0.0422
  775SOL    HW3 3147   0.860   0.443   1.542 -0.0377 -0.2919 -0.3611
  775SOL    MW4 3148   0.920   0.395   1.582  0.1220  0.0951 -0.1292
  776SOL     OW 3149   1.145   0.536   1.443  0.4076  0.2343 -0.2341
  776SOL    HW2 3150   1.082   0.483   1.492  1.1053 -0.1762  0.2381
  776SOL    HW3 3151   1.125   0.626   1.467  0.1749  0.0888  0.1168
  776SOL    MW4 3152   1.134   0.541   1.452  0.4689  0.1609 -0.1255
  777SOL     OW 3153   1.168   0.811   1.531  0.0172  0.0222 -0.0226
  777SOL    HW2 3154   1.181   0.795   1.625  0.6155  0.1091 -0.0842
  777SOL    HW3 3155   1.251   0.850   1.503  0.0507 -0.5384 -0.7084
  777SOL    MW4 3156   1.181   0.814   1.540  0.1005 -0.0403 -0.1214
  778SOL     OW 3157   0.658   0.793   1.552  0.3286  0.3399 -0.3379
  778SOL    HW2 3158   0.672   0.806   1.646 -0.3091  1.7612 -0.4202
  778SOL    HW3 3159   0.738   0.824   1.511  1.1350 -1.5176 -0.1974
  778SOL    MW4 3160   0.670   0.799   1.559  0.3508  0.2824 -0.3304
  779SOL     OW 3161   0.910   0.902   1.457  0.3991  0.5137 -0.0965
  779SOL    HW2 3162   0.914   0.920   1.363  1.3467  0.1814 -0.1235
  779SOL    HW3 3163   1.000   0.883   1.482 -0.0073 -0.4601  0.6741
  779SOL    MW4 3164   0.922   0.902   1.448  0.4704  0.3414  0.0015
  780SOL     OW 3165   1.096   1.306   1.478 -0.1235  0.1979  0.2791
  780SOL    HW2 3166   1.162   1.255   1.524  0.1065  0.0812 -0.1722
  780SOL    HW3 3167   1.013   1.262   1.497 -0.0215  0.1165  0.5326
  780SOL    MW4 3168   1.094   1.294   1.487 -0.0798  0.1717  0.2531
  781SOL     OW 3169   1.143   1.534   1.624 -0.1602  0.2088  0.3309
  781SOL    HW2 3170   1.223   1.567   1.584 -0.4330  1.2634  0.6390
  781SOL    HW3 3171   1.125   1.452   1.578  0.6746  0.3477 -0.2544
  781SOL    MW4 3172   1.151   1.528   1.613 -0.0859  0.3663  0.2944
  782SOL     OW 3173   0.904   1.650   1.485 -0.0712  0.4171 -0.6027
  782SOL    HW2 3174   0.982   1.611   1.525 -0.1445  0.9640  0.0855
  782SOL    HW3 3175   0.915   1.635   1.391  1.5461  1.7116 -0.6387
  782SOL    MW4 3176   0.916   1.643   1.478  0.1324  0.6601 -0.5165
  783SOL     OW 3177   0.849   1.929   1.551 -0.1679 -0.0269 -0.2330
  783SOL    HW2 3178   0.936   1.968   1.549 -0.6739  1.1064 -0.7414
  783SOL    HW3 3179   0.864   1.836   1.535  0.9240  0.2107 -0.6481
  783SOL    MW4 3180   0.862   1.922   1.548 -0.0906  0.1540 -0.3548
  784SOL     OW 3181   1.092   2.044   1.511 -0.0872 -0.2751 -0.4454
  784SOL    HW2 3182   1.179   2.008   1.527 -0.6224 -0.8138  1.4297
  784SOL    HW3 3183   1.088   2.124   1.563 -0.0737  0.7623 -1.9965
  784SOL    MW4 3184   1.103   2.049   1.520 -0.1562 -0.2091 -0.4028
  785SOL     OW 3185   1.052   2.313   1.613 -0.1162  0.0218  0.7330
  785SOL    HW2 3186   1.133   2.358   1.591  0.5010 -1.4998 -0.1915
  785SOL    HW3 3187   0.984   2.360   1.564  0.2793  0.9682  1.0914
  785SOL    MW4 3188   1.054   2.325   1.603  0.0175 -0.0541  0.6584
  786SOL     OW 3189   0.873   2.494   1.486 -0.1597  0.0783 -0.0019
  786SOL    HW2 3190   0.890   2.575   1.533 -0.6544  1.1348 -1.6165
  786SOL    HW3 3191   0.787   2.465   1.517 -0.3031  0.5498  0.0362
  786SOL    MW4 3192   0.864   2.501   1.496 -0.2438  0.2797 -0.2099
  787SOL     OW 3193   0.913   2.737   1.606 -0.2674  0.3061 -0.0929
  787SOL    HW2 3194   0.909   2.731   1.702  0.9507 -0.4897 -0.0842
  787SOL    HW3 3195   0.831   2.780   1.582 -1.0055 -0.3073  1.2429
  787SOL    MW4 3196   0.901   2.742   1.616 -0.2041  0.1202  0.0844
  788SOL     OW 3197   1.162   2.860   1.515  0.0265 -0.3917  0.2323
  788SOL    HW2 3198   1.162   2.954   1.531 -0.3530 -0.4995  0.8547
  788SOL    HW3 3199   1.080   2.828   1.553  0.0281 -0.9381 -0.2021
  788SOL    MW4 3200   1.151   2.868   1.522 -0.0232 -0.4778  0.2571
  789SOL     OW 3201   1.135   3.129   1.561 -0.2250  0.6045 -0.1258
  789SOL    HW2 3202   1.155   3.138   1.654 -1.3615 -0.0335  0.1948
  789SOL    HW3 3203   1.208   3.172   1.516 -0.7011  2.7697  1.1010
  789SOL    MW4 3204   1.147   3.136   1.568 -0.4377  0.8061  0.0782
  790SOL     OW 3205   0.880   3.230   1.479 -0.1857  0.2313 -0.1410
  790SOL    HW2 3206   0.967   3.194   1.497  0.3838  0.7662 -1.7638
  790SOL    HW3 3207   0.867   3.216   1.385 -1.0586  1.8605 -0.2739
  790SOL    MW4 3208   0.890   3.223   1.469 -0.2257  0.5169 -0.3726
  791SOL     OW 3209   0.870   3.496   1.560  0.0846  0.6502 -0.4237
  791SOL    HW2 3210   0.942   3.540   1.516  0.4647  0.7895  0.3274
  791SOL    HW3 3211   0.865   3.410   1.520  1.2261  0.3257  0.1169
  791SOL    MW4 3212   0.879   3.491   1.549  0.2853  0.6258 -0.2532
  792SOL     OW 3213   1.098   3.618   1.449 -0.1329 -0.4000 -0.0389
  792SOL    HW2 3214   1.184   3.584   1.472 -0.0714  1.1538  2.1689
  792SOL    HW3 3215   1.101   3.628   1.354  1.4952 -1.9905 -0.1770
  792SOL    MW4 3216   1.110   3.615   1.439  0.0901 -0.4051  0.2341
  793SOL     OW 3217   1.117   3.875   1.556  0.2171  0.1649 -0.0050
  793SOL    HW2 3218   1.198   3.914   1.522 -1.1911  1.4131 -2.0111
  793SOL    HW3 3219   1.119   3.785   1.524 -0.0320  0.7005 -1.5640
  793SOL    MW4 3220   1.128   3.868   1.547 -0.0015  0.4003 -0.4754
  794SOL     OW 3221   0.890   4.029   1.467  0.0348 -0.0137  0.2506
  794SOL    HW2 3222   0.896   4.114   1.510  0.7882  0.0486  0.0314
  794SOL    HW3 3223   0.972   3.984   1.490  0.5818  0.1271 -1.3120
  794SOL    MW4 3224   0.902   4.034   1.476  0.2064  0.0129  0.0155
  795SOL     OW 3225   0.930   4.281   1.585 -0.6424 -0.3793 -0.2657
  795SOL    HW2 3226   0.913   4.270   1.678  0.1320 -0.5312 -0.1407
  795SOL    HW3 3227   0.859   4.338   1.554  0.4585  1.7034  0.9219
  795SOL    MW4 3228   0.919   4.287   1.593 -0.3949 -0.1249 -0.0925
  796SOL     OW 3229   1.158   4.395   1.480  0.0691  0.0348 -0.2226
  796SOL    HW2 3230   1.078   4.356   1.516 -0.5201  1.1062 -0.3672
  796SOL    HW3 3231   1.160   4.483   1.517  0.7475  0.3006 -0.8925
  796SOL    MW4 3232   1.148   4.401   1.490  0.0808  0.2117 -0.3301
  797SOL     OW 3233   1.570   4.628   1.568  0.1178 -0.6727  0.3217
  797SOL    HW2 3234   1.572   4.640   1.662  0.4838 -0.4773  0.2874
  797SOL    HW3 3235   1.503   4.689   1.537  0.2227 -0.5075  0.4201
  797SOL    MW4 3236   1.561   4.637   1.576  0.1800 -0.6251  0.3301
  798SOL     OW 3237   1.378   0.137   1.492 -0.0866 -0.3723 -0.0170
  798SOL    HW2 3238   1.355   0.151   1.400 -0.8722 -0.7266  0.1281
  798SOL    HW3 3239   1.368   0.223   1.532  2.0870  0.2139 -0.6487
  798SOL    MW4 3240   1.374   0.150   1.485  0.0967 -0.3417 -0.0812
  799SOL     OW 3241   1.346   0.396   1.598  0.4540  0.3967 -0.0441
  799SOL    HW2 3242   1.342   0.397   1.694 -0.7111 -0.7451 -0.0699
  799SOL    HW3 3243   1.274   0.453   1.570 -1.7188 -2.3123 -0.2481
  799SOL    MW4 3244   1.336   0.404   1.607  0.0137 -0.1113 -0.0745
  800SOL     OW 3245   1.574   0.497   1.492  0.2673 -0.2254  0.1652
  800SOL    HW2 3246   1.494   0.456   1.525 -0.1538 -0.1859 -0.7887
  800SOL    HW3 3247   1.645   0.444   1.529 -0.2099 -0.4189  0.8029
  800SOL    MW4 3248   1.573   0.484   1.501  0.1488 -0.2457  0.1235
  801SOL     OW 3249   1.547   0.774   1.541 -0.4179 -0.0869  0.1217
  801SOL    HW2 3250   1.560   0.760   1.635 -1.7974 -0.9162  0.2116
  801SOL    HW3 3251   1.534   0.686   1.506 -0.9947  0.3088 -0.6668
  801SOL    MW4 3252   1.547   0.761   1.549 -0.6759 -0.1442  0.0296
  802SOL     OW 3253   1.388   0.964   1.419  0.1244  0.8553  0.4694
  802SOL    HW2 3254   1.455   0.899   1.441  1.3506  1.9356 -0.0083
  802SOL    HW3 3255   1.380   0.959   1.324 -0.3566  0.8617  0.5080
  802SOL    MW4 3256   1.396   0.955   1.409  0.2226  0.9987  0.4114
  803SOL     OW 3257   1.343   1.190   1.571 -0.0321  0.1762 -0.3227
  803SOL    HW2 3258   1.361   1.175   1.664 -2.0983  0.3506  0.1309
  803SOL    HW3 3259   1.363   1.106   1.530 -2.5214 -1.0220  0.8293
  803SOL    MW4 3260   1.348   1.177   1.578 -0.6330  0.0412 -0.1109
  804SOL     OW 3261   1.597   1.297   1.468 -0.0743  0.5821 -0.1744
  804SOL    HW2 3262   1.519   1.243   1.482 -0.7876  1.5007 -0.5694
  804SOL    HW3 3263   1.602   1.308   1.373  0.2131  1.0087 -0.1126
  804SOL    MW4 3264   1.588   1.291   1.457 -0.1304  0.7596 -0.2184
  805SOL     OW 3265   1.569   1.543   1.644 -0.2214  0.2133 -0.2361
  805SOL    HW2 3266   1.561   1.538   1.739 -0.6241  0.5851 -0.2484
  805SOL    HW3 3267   1.573   1.452   1.615 -1.7366  0.0709 -0.0057
  805SOL    MW4 3268   1.569   1.531   1.652 -0.4746  0.2435 -0.2073
  806SOL     OW 3269   1.357   1.655   1.516  0.0124 -0.2288  0.2582
  806SOL    HW2 3270   1.437   1.614   1.548  0.0263 -0.5191 -0.1441
  806SOL    HW3 3271   1.349   1.625   1.425 -0.7893 -0.5734  0.4312
  806SOL    MW4 3272   1.366   1.645   1.508 -0.0914 -0.3126  0.2280
  807SOL     OW 3273   1.313   1.919   1.585  0.3381  0.0258  0.4114
  807SOL    HW2 3274   1.298   1.919   1.680  0.8983 -1.7353  0.5146
  807SOL    HW3 3275   1.345   1.831   1.566 -1.2093 -0.1245 -1.6491
  807SOL    MW4 3276   1.315   1.907   1.595  0.2079 -0.2264  0.1531
  808SOL     OW 3277   1.552   2.041   1.505 -0.3217 -0.0865  0.2540
  808SOL    HW2 3278   1.465   2.002   1.515 -0.6708  0.2908 -1.0932
  808SOL    HW3 3279   1.563   2.049   1.410  1.9676 -1.8752  0.3302
  808SOL    MW4 3280   1.542   2.037   1.493 -0.0658 -0.2728  0.0863
  809SOL     OW 3281   1.563   2.291   1.619 -0.3114  0.2163 -0.2052
  809SOL    HW2 3282   1.640   2.330   1.580  0.0621  0.4825  0.7787
  809SOL    HW3 3283   1.556   2.204   1.579  0.4756  0.2086 -0.3230
  809SOL    MW4 3284   1.572   2.285   1.609 -0.1584  0.2503 -0.0910
  810SOL     OW 3285   1.316   2.400   1.507 -0.1263 -0.5180  0.1574
  810SOL    HW2 3286   1.310   2.492   1.535  0.1283 -0.5789  0.4122
  810SOL    HW3 3287   1.398   2.369   1.544  0.5932 -0.3900 -1.2928
  810SOL    MW4 3288   1.326   2.408   1.516  0.0024 -0.5093 -0.0004
  811SOL     OW 3289   1.372   2.686   1.555 -0.0423  0.5871  0.6821
  811SOL    HW2 3290   1.442   2.745   1.529  0.2106 -0.1856 -0.4340
  811SOL    HW3 3291   1.292   2.734   1.537  0.1022 -0.1492 -2.1798
  811SOL    MW4 3292   1.371   2.700   1.549  0.0101  0.3879  0.1574
  812SOL     OW 3293   1.592   2.848   1.498 -0.4291  0.1019  0.1892
  812SOL    HW2 3294   1.662   2.793   1.533 -0.1486  0.6866  0.5653
  812SOL    HW3 3295   1.608   2.850   1.403  1.1365  1.6596  0.4473
  812SOL    MW4 3296   1.604   2.841   1.490 -0.1855  0.3846  0.2729
  813SOL     OW 3297   1.570   3.125   1.609  0.3603 -0.1002 -0.2580
  813SOL    HW2 3298   1.638   3.179   1.567  0.3411 -0.1767 -0.3879
  813SOL    HW3 3299   1.582   3.038   1.572  0.2062 -0.1196 -0.2637
  813SOL    MW4 3300   1.580   3.121   1.598  0.3374 -0.1128 -0.2759
  814SOL     OW 3301   1.352   3.244   1.454  0.0495 -0.1418  0.2409
  814SOL    HW2 3302   1.349   3.339   1.465  1.2981  0.0746 -1.0663
  814SOL    HW3 3303   1.426   3.216   1.508 -0.8335 -0.4760  1.2780
  814SOL    MW4 3304   1.362   3.253   1.462  0.0976 -0.1574  0.2052
  815SOL     OW 3305   1.352   3.520   1.530  0.7131 -0.0605 -0.5317
  815SOL    HW2 3306   1.351   3.520   1.626 -0.5009  0.1817 -0.5342
  815SOL    HW3 3307   1.440   3.550   1.507  1.1456 -0.5054  0.5033
  815SOL    MW4 3308   1.364   3.524   1.539  0.6099 -0.0875 -0.3954
  816SOL     OW 3309   1.632   3.637   1.474  0.1093 -0.2062  0.0138
  816SOL    HW2 3310   1.620   3.725   1.509  1.4476 -0.3298  0.8551
  816SOL    HW3 3311   1.620   3.646   1.380  2.6404  1.3634 -0.2101
  816SOL    MW4 3312   1.629   3.649   1.467  0.6199 -0.0155  0.0952
  817SOL     OW 3313   1.606   3.895   1.567  0.1219 -0.7282  0.1713
  817SOL    HW2 3314   1.598   3.899   1.663  1.9515  2.8918  0.2329
  817SOL    HW3 3315   1.520   3.924   1.535 -0.3165 -1.4383  0.6764
  817SOL    MW4 3316   1.593   3.899   1.576  0.3054 -0.3443  0.2460
  818SOL     OW 3317   1.354   3.990   1.453  0.0074 -0.0615  0.5561
  818SOL    HW2 3318   1.338   4.076   1.491  0.0203 -0.6030  1.8191
  818SOL    HW3 3319   1.336   4.001   1.360 -4.0683  0.3101  1.2853
  818SOL    MW4 3320   1.349   4.003   1.446 -0.5287 -0.0839  0.8188
  819SOL     OW 3321   1.342   4.235   1.581  0.0417  0.8647  0.4195
  819SOL    HW2 3322   1.423   4.274   1.548  0.3482 -0.9617 -1.0941
  819SOL    HW3 3323   1.272   4.291   1.548  0.5051  0.4914 -1.2710
  819SOL    MW4 3324   1.343   4.247   1.572  0.1434  0.5746 -0.0031
  820SOL     OW 3325   1.569   4.356   1.494 -0.3567  0.0454  0.2254
  820SOL    HW2 3326   1.654   4.333   1.532 -0.1643  0.1424 -0.1345
  820SOL    HW3 3327   1.560   4.450   1.509  0.5010  0.4215 -1.4499
  820SOL    MW4 3328   1.579   4.365   1.501 -0.2182  0.1082 -0.0430
  821SOL     OW 3329   2.035   4.648   1.573  0.6952 -0.1060  0.0183
  821SOL    HW2 3330   2.041   4.655   1.668  1.1773  1.1278 -0.0891
  821SOL    HW3 3331   1.957   4.698   1.550 -0.5656 -2.1019 -0.0615
  821SOL    MW4 3332   2.026   4.656   1.582  0.5925 -0.2069 -0.0064
  822SOL     OW 3333   1.798   0.109   1.501 -0.3466 -0.4694  0.0117
  822SOL    HW2 3334   1.720   0.059   1.525 -0.8371 -0.1403 -0.8510
  822SOL    HW3 3335   1.793   0.116   1.405  0.5229 -0.0920 -0.0099
  822SOL    MW4 3336   1.787   0.104   1.491 -0.2966 -0.3762 -0.1050
  823SOL     OW 3337   1.787   0.360   1.602  0.4228 -0.2053  0.3372
  823SOL    HW2 3338   1.859   0.396   1.551  0.5849  0.8802  1.3068
  823SOL    HW3 3339   1.766   0.277   1.559 -0.0202  1.0589 -1.9871
  823SOL    MW4 3340   1.794   0.354   1.590  0.3856  0.1048  0.1585
  824SOL     OW 3341   2.013   0.481   1.475 -0.5220  0.2554  0.1805
  824SOL    HW2 3342   2.102   0.443   1.477 -0.7694 -0.3013  0.7333
  824SOL    HW3 3343   2.024   0.569   1.509  0.0542  0.6735 -1.0502
  824SOL    MW4 3344   2.026   0.487   1.480 -0.4785  0.2371  0.0911
  825SOL     OW 3345   2.017   0.736   1.576  0.5135  0.2463 -0.3155
  825SOL    HW2 3346   2.085   0.791   1.538  0.0562  0.3152 -1.0507
  825SOL    HW3 3347   1.937   0.763   1.531 -0.3274  1.4093  1.7815
  825SOL    MW4 3348   2.015   0.747   1.565  0.3424  0.4089 -0.1359
  826SOL     OW 3349   1.803   0.855   1.445 -0.4531 -0.0344  0.1873
  826SOL    HW2 3350   1.808   0.940   1.489  0.4636  0.6899 -1.2906
  826SOL    HW3 3351   1.709   0.837   1.440 -0.7299  1.5056 -0.6363
  826SOL    MW4 3352   1.792   0.864   1.450 -0.3688  0.2643 -0.1165
  827SOL     OW 3353   1.792   1.117   1.558 -0.1572 -0.2868  0.1245
  827SOL    HW2 3354   1.866   1.169   1.528 -0.4344 -0.0271 -0.1038
  827SOL    HW3 3355   1.715   1.169   1.536 -0.4170 -0.6317  0.2139
  827SOL    MW4 3356   1.791   1.131   1.551 -0.2280 -0.2980  0.1062
  828SOL     OW 3357   2.010   1.276   1.486  0.4015 -0.0797  0.3926
  828SOL    HW2 3358   2.015   1.365   1.521  0.1686 -0.6792  1.9777
  828SOL    HW3 3359   1.999   1.288   1.392  1.0198  1.5640  0.5127
  828SOL    MW4 3360   2.009   1.289   1.478  0.4523  0.0581  0.6177
  829SOL     OW 3361   2.026   1.530   1.629 -0.3285  0.3165  0.3454
  829SOL    HW2 3362   2.104   1.582   1.611 -0.4356  0.4991  0.4129
  829SOL    HW3 3363   1.954   1.581   1.593 -0.2941 -0.3685 -0.6987
  829SOL    MW4 3364   2.027   1.543   1.622 -0.3378  0.2502  0.2164
  830SOL     OW 3365   1.789   1.670   1.525 -0.2859 -0.2089 -0.6070
  830SOL    HW2 3366   1.785   1.676   1.429 -0.2716 -1.2934 -0.6810
  830SOL    HW3 3367   1.706   1.630   1.550 -0.2219 -0.0737 -0.1749
  830SOL    MW4 3368   1.777   1.666   1.516 -0.2755 -0.3341 -0.5596
  831SOL     OW 3369   1.796   1.929   1.601  0.4743  0.1763 -0.2270
  831SOL    HW2 3370   1.792   1.838   1.571  1.2573 -0.2169  0.8029
  831SOL    HW3 3371   1.719   1.971   1.564 -0.2240 -1.0743 -0.2067
  831SOL    MW4 3372   1.786   1.923   1.592  0.4857 -0.0407 -0.0885
  832SOL     OW 3373   2.025   2.074   1.468 -0.2881 -0.5285 -0.1235
  832SOL    HW2 3374   1.956   2.015   1.499 -0.2362 -0.3112  0.4012
  832SOL    HW3 3375   2.104   2.044   1.513 -0.1622 -0.3829 -0.2489
  832SOL    MW4 3376   2.026   2.062   1.478 -0.2649 -0.4809 -0.0708
  833SOL     OW 3377   2.030   2.329   1.599 -0.0465  0.5310  0.3542
  833SOL    HW2 3378   2.005   2.336   1.691 -0.2805  0.2849  0.3060
  833SOL    HW3 3379   2.027   2.236   1.579 -1.0598  0.6732 -0.2064
  833SOL    MW4 3380   2.027   2.318   1.608 -0.2110  0.5174  0.2739
  834SOL     OW 3381   1.774   2.434   1.489 -0.0927  0.2823  0.2610
  834SOL    HW2 3382   1.858   2.394   1.512 -0.4698  0.1248  1.4024
  834SOL    HW3 3383   1.765   2.419   1.395  0.9151 -0.1618  0.2311
  834SOL    MW4 3384   1.784   2.426   1.479 -0.0097  0.2029  0.4077
  835SOL     OW 3385   1.777   2.682   1.614 -0.8136  0.7257  0.4863
  835SOL    HW2 3386   1.852   2.729   1.578 -1.0087 -0.2408 -1.2625
  835SOL    HW3 3387   1.771   2.602   1.561 -1.8475 -0.1905  1.9270
  835SOL    MW4 3388   1.786   2.677   1.602 -0.9756  0.4773  0.4457
  836SOL     OW 3389   2.031   2.827   1.531 -0.0957 -0.0022 -0.3983
  836SOL    HW2 3390   2.031   2.921   1.551 -2.7964  0.0467 -0.4880
  836SOL    HW3 3391   2.032   2.823   1.435 -1.4989 -0.0383 -0.4140
  836SOL    MW4 3392   2.031   2.839   1.521 -0.6368 -0.0005 -0.4122
  837SOL     OW 3393   2.012   3.107   1.598 -0.6742  0.1138 -0.0392
  837SOL    HW2 3394   2.042   3.109   1.689 -0.0288 -0.2370 -0.2428
  837SOL    HW3 3395   2.079   3.154   1.549 -1.1766  0.5676 -0.2915
  837SOL    MW4 3396   2.025   3.113   1.604 -0.6554  0.1273 -0.0993
  838SOL     OW 3397   1.791   3.226   1.491 -0.3660 -0.4332  0.3658
  838SOL    HW2 3398   1.812   3.313   1.527  1.2244 -0.1231 -1.2507
  838SOL    HW3 3399   1.853   3.167   1.533  0.7152 -0.2516 -0.9277
  838SOL    MW4 3400   1.802   3.230   1.501 -0.0135 -0.3684 -0.0182
  839SOL     OW 3401   1.796   3.469   1.607 -0.4860  0.1194  0.1480
  839SOL    HW2 3402   1.802   3.490   1.700  0.0028  1.8207 -0.2546
  839SOL    HW3 3403   1.743   3.541   1.570  1.8114  1.0668 -1.3824
  839SOL    MW4 3404   1.790   3.482   1.615 -0.1184  0.4690 -0.1069
  840SOL     OW 3405   2.021   3.572   1.479 -0.5069 -0.0364  0.1170
  840SOL    HW2 3406   1.950   3.522   1.519 -0.1723 -0.7154 -0.1221
  840SOL    HW3 3407   2.093   3.510   1.473 -0.2664  0.3180 -0.7046
  840SOL    MW4 3408   2.021   3.557   1.484 -0.4311 -0.0792 -0.0230
  841SOL     OW 3409   2.056   3.820   1.570 -0.1813 -0.4701 -0.2417
  841SOL    HW2 3410   2.147   3.847   1.555  0.2767 -0.7882  1.7943
  841SOL    HW3 3411   2.047   3.739   1.522  0.8133 -0.7502  0.0239
  841SOL    MW4 3412   2.067   3.813   1.562  0.0107 -0.5491  0.0620
  842SOL     OW 3413   1.855   4.002   1.495 -0.0123 -0.2438 -0.0638
  842SOL    HW2 3414   1.924   3.942   1.524 -0.1515 -0.6243 -0.5225
  842SOL    HW3 3415   1.774   3.964   1.530 -0.2598 -1.0610 -1.4907
  842SOL    MW4 3416   1.853   3.989   1.504 -0.0634 -0.4015 -0.3127
  843SOL     OW 3417   1.820   4.252   1.578  0.0477 -0.0716  0.0872
  843SOL    HW2 3418   1.903   4.296   1.560  0.4459 -0.3040  1.3139
  843SOL    HW3 3419   1.829   4.166   1.538  0.2528  0.0394 -0.1040
  843SOL    MW4 3420   1.832   4.247   1.570  0.1274 -0.0873  0.2239
  844SOL     OW 3421   2.065   4.372   1.503 -0.1533  0.5206 -0.0444
  844SOL    HW2 3422   2.148   4.352   1.546  0.3306  1.5671 -0.4598
  844SOL    HW3 3423   2.051   4.465   1.521 -1.1031  0.4183 -0.2136
  844SOL    MW4 3424   2.074   4.382   1.511 -0.2151  0.6447 -0.1217
  845SOL     OW 3425   2.521   0.010   1.637 -0.2352 -0.1054 -0.0134
  845SOL    HW2 3426   2.515   0.003   1.732 -0.9690 -2.7076 -0.2086
  845SOL    HW3 3427   2.433   0.038   1.609 -0.2494 -0.1358  0.0017
  845SOL    MW4 3428   2.508   0.013   1.646 -0.3338 -0.4527 -0.0371
  846SOL     OW 3429   2.276   0.102   1.524 -0.1338  0.3973 -0.0454
  846SOL    HW2 3430   2.188   0.076   1.552 -0.9751  2.4209 -0.6429
  846SOL    HW3 3431   2.274   0.095   1.428  0.6562 -0.4180 -0.0063
  846SOL    MW4 3432   2.264   0.098   1.515 -0.1404  0.5567 -0.1190
  847SOL     OW 3433   2.273   0.375   1.524  0.0017  0.2962 -0.2588
  847SOL    HW2 3434   2.268   0.387   1.619  1.4377 -0.4619 -0.0708
  847SOL    HW3 3435   2.279   0.280   1.512 -1.3144  0.3151 -1.1783
  847SOL    MW4 3436   2.273   0.364   1.535  0.0176  0.1987 -0.3552
  848SOL     OW 3437   2.416   0.759   1.615 -0.2608 -0.3661 -0.5632
  848SOL    HW2 3438   2.430   0.683   1.559 -1.3565 -1.6679  0.8756
  848SOL    HW3 3439   2.346   0.808   1.572 -2.0554 -2.0755  0.3033
  848SOL    MW4 3440   2.408   0.756   1.602 -0.6421 -0.7634 -0.2590
  849SOL     OW 3441   2.490   0.548   1.465 -0.1468 -0.0611  0.2321
  849SOL    HW2 3442   2.418   0.493   1.498  1.0121 -1.2936  0.7362
  849SOL    HW3 3443   2.569   0.504   1.495  0.8393  0.9315 -0.8963
  849SOL    MW4 3444   2.491   0.535   1.473  0.1361 -0.0927  0.1497
  850SOL     OW 3445   2.204   0.897   1.504  0.0930 -0.4315 -0.5115
  850SOL    HW2 3446   2.197   0.989   1.530 -0.7382 -0.5893 -0.1305
  850SOL    HW3 3447   2.226   0.899   1.411  0.6594  0.1541 -0.3629
  850SOL    MW4 3448   2.206   0.910   1.495  0.0579 -0.3750 -0.4418
  851SOL     OW 3449   2.228   1.164   1.614 -0.2370 -0.4696 -0.0460
  851SOL    HW2 3450   2.203   1.165   1.707 -1.1371 -1.8123 -0.2540
  851SOL    HW3 3451   2.150   1.196   1.569 -0.0906 -0.5984 -0.3877
  851SOL    MW4 3452   2.214   1.168   1.621 -0.3364 -0.6639 -0.1186
  852SOL     OW 3453   2.497   1.263   1.557 -0.8074  0.6853  0.1472
  852SOL    HW2 3454   2.409   1.229   1.571 -0.1289 -2.6182 -2.6841
  852SOL    HW3 3455   2.498   1.288   1.465  1.2978  0.2903  0.0400
  852SOL    MW4 3456   2.486   1.261   1.547 -0.4404  0.1973 -0.2403
  853SOL     OW 3457   2.490   1.538   1.593  0.0417 -0.0655  0.4580
  853SOL    HW2 3458   2.570   1.572   1.552  0.6458  0.0699  1.7119
  853SOL    HW3 3459   2.507   1.445   1.606  1.0429  0.4198  3.0151
  853SOL    MW4 3460   2.503   1.530   1.589  0.2537  0.0165  0.9607
  854SOL     OW 3461   2.259   1.670   1.541  0.1161  0.0457  0.0863
  854SOL    HW2 3462   2.345   1.628   1.549  0.1254  0.1465  0.5323
  854SOL    HW3 3463   2.247   1.683   1.447  0.6750  0.2057  0.0367
  854SOL    MW4 3464   2.269   1.666   1.529  0.1910  0.0801  0.1386
  855SOL     OW 3465   2.212   1.926   1.628 -0.4116  0.0215 -0.3282
  855SOL    HW2 3466   2.225   1.832   1.614  1.2763  0.4885 -2.2558
  855SOL    HW3 3467   2.205   1.936   1.723 -0.4036 -2.0187 -0.0901
  855SOL    MW4 3468   2.213   1.915   1.638 -0.1879 -0.1860 -0.5511
  856SOL     OW 3469   2.448   2.008   1.524 -0.4819 -0.1124 -0.3666
  856SOL    HW2 3470   2.373   1.973   1.572 -0.4609  0.2543 -0.0715
  856SOL    HW3 3471   2.416   2.021   1.435 -1.0608  1.0459  0.0150
  856SOL    MW4 3472   2.434   2.005   1.519 -0.5553  0.0887 -0.2774
  857SOL     OW 3473   2.487   2.279   1.604  0.7842 -0.2297 -0.7750
  857SOL    HW2 3474   2.503   2.287   1.698  0.6738  1.7774 -0.9216
  857SOL    HW3 3475   2.481   2.184   1.589 -0.4683 -0.5331  1.4492
  857SOL    MW4 3476   2.489   2.267   1.614  0.6044 -0.0050 -0.5008
  858SOL     OW 3477   2.284   2.441   1.528  0.5546  0.1747  0.1850
  858SOL    HW2 3478   2.357   2.384   1.552  0.5592 -0.0104 -0.2828
  858SOL    HW3 3479   2.210   2.408   1.579  0.6627  0.0227  0.2444
  858SOL    MW4 3480   2.284   2.430   1.538  0.5696  0.1302  0.1311
  859SOL     OW 3481   2.252   2.699   1.616  0.4305  0.1918  0.0556
  859SOL    HW2 3482   2.260   2.606   1.597  2.1219  0.7374 -2.1184
  859SOL    HW3 3483   2.163   2.721   1.589 -0.9888 -1.3205  3.2228
  859SOL    MW4 3484   2.242   2.690   1.610  0.4663  0.0641  0.1866
  860SOL     OW 3485   2.478   2.854   1.534  0.4042 -0.0906  0.0974
  860SOL    HW2 3486   2.458   2.945   1.558 -0.7534 -0.2811 -0.1068
  860SOL    HW3 3487   2.396   2.807   1.550  0.9490 -1.0678  0.0354
  860SOL    MW4 3488   2.464   2.860   1.540  0.3235 -0.2446  0.0622
  861SOL     OW 3489   2.429   3.136   1.594  0.2125  0.2085 -0.3278
  861SOL    HW2 3490   2.509   3.184   1.572  0.3474  0.3597  0.4947
  861SOL    HW3 3491   2.365   3.165   1.528  0.8463  0.0282 -1.0365
  861SOL    MW4 3492   2.431   3.146   1.582  0.3142  0.2043 -0.3128
  862SOL     OW 3493   2.201   3.236   1.445 -0.2310 -0.4014  0.0328
  862SOL    HW2 3494   2.244   3.316   1.475 -1.5011  0.1651  0.4128
  862SOL    HW3 3495   2.198   3.244   1.350  1.3830 -0.9219 -0.0762
  862SOL    MW4 3496   2.206   3.248   1.437 -0.1855 -0.3953  0.0687
  863SOL     OW 3497   2.289   3.507   1.539  0.0241 -0.2966  0.0343
  863SOL    HW2 3498   2.257   3.544   1.622  2.6287  0.5217  0.7058
  863SOL    HW3 3499   2.360   3.566   1.512 -1.5577  0.1545 -3.4462
  863SOL    MW4 3500   2.294   3.520   1.547  0.1593 -0.1292 -0.3364
  864SOL     OW 3501   2.493   3.683   1.479  0.7492  0.2633 -0.1824
  864SOL    HW2 3502   2.561   3.631   1.520 -0.2170 -0.0774  1.0067
  864SOL    HW3 3503   2.507   3.772   1.511 -0.2636 -0.0808  1.2313
  864SOL    MW4 3504   2.503   3.688   1.488  0.4878  0.1729  0.1609
  865SOL     OW 3505   2.511   3.929   1.578 -0.2318  0.0583  0.1779
  865SOL    HW2 3506   2.515   3.926   1.673 -0.1623  0.0607  0.1748
  865SOL    HW3 3507   2.596   3.965   1.551 -0.7092  1.1932  0.1690
  865SOL    MW4 3508   2.523   3.934   1.587 -0.2854  0.2081  0.1762
  866SOL     OW 3509   2.270   4.038   1.539 -0.2816  0.1688 -0.0874
  866SOL    HW2 3510   2.362   4.013   1.545  0.3518  2.4746  0.4611
  866SOL    HW3 3511   2.252   4.040   1.445 -0.1627 -1.5433 -0.1629
  866SOL    MW4 3512   2.280   4.035   1.527 -0.1824  0.2475 -0.0250
  867SOL     OW 3513   2.288   4.302   1.635  0.0082 -0.2084  0.4057
  867SOL    HW2 3514   2.362   4.344   1.590 -1.0744 -0.4397 -1.6892
  867SOL    HW3 3515   2.292   4.210   1.608 -1.3597 -0.1073 -0.1928
  867SOL    MW4 3516   2.298   4.295   1.625 -0.3152 -0.2251  0.0504
  868SOL     OW 3517   2.525   4.435   1.510 -0.6497  0.3491 -0.0095
  868SOL    HW2 3518   2.528   4.528   1.531 -1.8095  0.1470  1.0986
  868SOL    HW3 3519   2.510   4.432   1.416 -1.7510  1.3014  0.1184
  868SOL    MW4 3520   2.523   4.447   1.500 -0.9480  0.4482  0.1535
  869SOL     OW 3521   2.978   0.004   1.584 -0.1322  0.0768  0.4860
  869SOL    HW2 3522   2.977  -0.025   1.675  0.3090  0.5824  0.6546
  869SOL    HW3 3523   2.895   0.050   1.572  0.1448  0.6734  0.8521
  869SOL    MW4 3524   2.967   0.006   1.594 -0.0374  0.2222  0.5565
  870SOL     OW 3525   2.715   0.138   1.512 -0.0228  0.1766  0.2854
  870SOL    HW2 3526   2.646   0.090   1.557 -0.2257  0.5308  0.3532
  870SOL    HW3 3527   2.702   0.230   1.538  0.9949  0.1330  0.9647
  870SOL    MW4 3528   2.704   0.144   1.521  0.0846  0.2176  0.3839
  871SOL     OW 3529   2.718   0.415   1.574  0.2729 -0.4997  0.7076
  871SOL    HW2 3530   2.716   0.407   1.670  0.4074  0.1430  0.7628
  871SOL    HW3 3531   2.806   0.449   1.555 -0.5616  1.6205  0.5230
  871SOL    MW4 3532   2.729   0.418   1.584  0.1805 -0.1352  0.6905
  872SOL     OW 3533   2.967   0.498   1.464 -0.0783  0.1638 -0.2365
  872SOL    HW2 3534   2.968   0.582   1.511 -2.3053 -0.1130  0.3587
  872SOL    HW3 3535   2.946   0.522   1.373  0.8862  0.3929 -0.4012
  872SOL    MW4 3536   2.964   0.512   1.458 -0.2449  0.1575 -0.1799
  873SOL     OW 3537   2.958   0.719   1.614  0.0081  0.0927  0.5412
  873SOL    HW2 3538   2.975   0.690   1.703  0.0990 -1.1406  0.1320
  873SOL    HW3 3539   2.880   0.775   1.622 -1.3491 -1.8006  1.1037
  873SOL    MW4 3540   2.950   0.722   1.627 -0.1588 -0.3198  0.5615
  874SOL     OW 3541   2.690   0.855   1.531 -0.6184  0.3048  0.0924
  874SOL    HW2 3542   2.599   0.836   1.556 -0.5839 -1.4033 -0.9895
  874SOL    HW3 3543   2.688   0.860   1.436  0.8513 -2.2702 -0.1222
  874SOL    MW4 3544   2.678   0.853   1.522 -0.4199 -0.2603 -0.0786
  875SOL     OW 3545   2.730   1.122   1.608  0.3629  0.3608  0.2825
  875SOL    HW2 3546   2.718   1.030   1.584 -0.0876  0.2785  0.8092
  875SOL    HW3 3547   2.644   1.162   1.592  1.1774  1.1992 -2.1679
  875SOL    MW4 3548   2.717   1.115   1.603  0.4106  0.4605  0.0286
  876SOL     OW 3549   2.919   1.540   1.589  0.3271 -0.1282  0.0112
  876SOL    HW2 3550   2.937   1.455   1.548  0.4683 -0.2109  0.2416
  876SOL    HW3 3551   2.841   1.572   1.544 -0.1718 -0.7285  0.4448
  876SOL    MW4 3552   2.911   1.533   1.578  0.2801 -0.2184  0.0988
  877SOL     OW 3553   3.122   1.681   1.462  0.6713  0.2157  0.2547
  877SOL    HW2 3554   3.052   1.637   1.510  1.0340 -0.1824  0.4202
  877SOL    HW3 3555   3.203   1.648   1.502  0.9618  0.3544 -0.2162
  877SOL    MW4 3556   3.124   1.671   1.474  0.7577  0.1816  0.2145
  878SOL     OW 3557   2.693   1.643   1.471 -0.1982  0.0229 -0.1657
  878SOL    HW2 3558   2.683   1.734   1.498 -1.9424 -0.0086 -0.6066
  878SOL    HW3 3559   2.720   1.648   1.379  0.1648  0.1066 -0.0521
  878SOL    MW4 3560   2.695   1.656   1.462 -0.3805  0.0297 -0.2089
  879SOL     OW 3561   2.694   1.896   1.561 -0.3849  0.3629 -0.1588
  879SOL    HW2 3562   2.707   1.899   1.656  0.0027  1.6329 -0.2496
  879SOL    HW3 3563   2.609   1.937   1.547 -0.4934  0.0758 -0.3597
  879SOL    MW4 3564   2.685   1.902   1.572 -0.3483  0.4925 -0.1972
  880SOL     OW 3565   2.916   2.026   1.472  0.0710  0.1860 -0.2203
  880SOL    HW2 3566   2.841   1.974   1.502 -0.7543  0.7475 -1.3146
  880SOL    HW3 3567   2.904   2.111   1.513  0.9643 -0.1915  0.8670
  880SOL    MW4 3568   2.904   2.030   1.482  0.0799  0.2103 -0.2214
  881SOL     OW 3569   2.907   2.278   1.585 -0.0876  0.3214  0.1292
  881SOL    HW2 3570   2.916   2.294   1.679  0.7281  0.9335 -0.0401
  881SOL    HW3 3571   2.834   2.334   1.559 -0.6293 -0.2146  0.4807
  881SOL    MW4 3572   2.899   2.288   1.594 -0.0517  0.3314  0.1532
  882SOL     OW 3573   2.694   2.447   1.502 -0.7153 -0.7808 -0.3659
  882SOL    HW2 3574   2.679   2.531   1.544  0.3080  0.2532 -2.0245
  882SOL    HW3 3575   2.613   2.397   1.518 -0.6871 -0.1210  2.0327
  882SOL    MW4 3576   2.681   2.451   1.510 -0.5767 -0.5574 -0.2682
  883SOL     OW 3577   2.696   2.697   1.632 -0.2686 -0.1125  0.3530
  883SOL    HW2 3578   2.765   2.745   1.585 -0.9965  1.0549  0.4567
  883SOL    HW3 3579   2.617   2.750   1.619 -0.7381 -0.4068  1.8922
  883SOL    MW4 3580   2.695   2.711   1.624 -0.4268  0.0029  0.5698
  884SOL     OW 3581   2.875   2.866   1.518  0.1976  0.1905 -0.6084
  884SOL    HW2 3582   2.955   2.835   1.561 -0.5770 -0.7367  0.1929
  884SOL    HW3 3583   2.868   2.958   1.542 -0.7359 -0.5534  2.0777
  884SOL    MW4 3584   2.884   2.874   1.527 -0.0279 -0.0298 -0.1483
  885SOL     OW 3585   2.912   3.158   1.612  0.6157 -0.1522 -0.5386
  885SOL    HW2 3586   2.944   3.144   1.701 -0.4456  1.7265  0.1648
  885SOL    HW3 3587   2.980   3.211   1.570  0.0579  0.9359 -0.1012
  885SOL    MW4 3588   2.925   3.163   1.618  0.4022  0.2391 -0.3880
  886SOL     OW 3589   2.657   3.259   1.512  0.2099 -0.1227 -0.4298
  886SOL    HW2 3590   2.732   3.224   1.560 -1.0842 -1.3231  0.7655
  886SOL    HW3 3591   2.683   3.255   1.420  2.0825  0.6475  0.0328
  886SOL    MW4 3592   2.670   3.254   1.506  0.2861 -0.1793 -0.2111
  887SOL     OW 3593   2.690   3.514   1.608 -0.3439  0.2953 -0.4673
  887SOL    HW2 3594   2.720   3.500   1.698  1.1593  1.5399 -0.7512
  887SOL    HW3 3595   2.667   3.426   1.577 -0.8347 -0.1493  1.1027
  887SOL    MW4 3596   2.691   3.500   1.615 -0.2103  0.4010 -0.2974
  888SOL     OW 3597   2.932   3.628   1.531  0.1496 -0.2085  0.4891
  888SOL    HW2 3598   2.855   3.586   1.569  0.4406 -1.2312 -0.0300
  888SOL    HW3 3599   2.922   3.613   1.436  1.0337 -0.4213  0.4299
  888SOL    MW4 3600   2.921   3.620   1.523  0.3045 -0.3717  0.4128
  889SOL     OW 3601   2.958   3.902   1.592  0.8301  0.0427 -0.7238
  889SOL    HW2 3602   2.886   3.941   1.543  1.5016  1.0306 -0.9325
  889SOL    HW3 3603   2.947   3.808   1.580  0.0710  0.2215 -1.4660
  889SOL    MW4 3604   2.947   3.895   1.584  0.8185  0.1967 -0.8492
  890SOL     OW 3605   2.746   4.030   1.489  0.2377  0.0316  0.0844
  890SOL    HW2 3606   2.732   4.116   1.529  2.6096  0.4445  0.1012
  890SOL    HW3 3607   2.740   4.045   1.395  0.6247  0.2223  0.0884
  890SOL    MW4 3608   2.744   4.043   1.482  0.6015  0.1116  0.0871
  891SOL     OW 3609   2.723   4.277   1.618  0.2964 -0.2099 -0.4539
  891SOL    HW2 3610   2.791   4.335   1.586 -1.1892  1.1388 -1.2491
  891SOL    HW3 3611   2.641   4.317   1.588 -0.7294 -3.0366 -1.6008
  891SOL    MW4 3612   2.721   4.290   1.610 -0.0350 -0.4053 -0.7100
  892SOL     OW 3613   2.941   4.411   1.482  0.1870  0.3416  0.0433
  892SOL    HW2 3614   2.962   4.502   1.503 -1.0628  0.5677  0.3349
  892SOL    HW3 3615   2.928   4.411   1.387 -2.8428  1.1084  0.4177
  892SOL    MW4 3616   2.942   4.423   1.472 -0.3777  0.4725  0.1312
  893SOL     OW 3617   3.363   4.410   1.483  0.0343  0.2171  0.0613
  893SOL    HW2 3618   3.371   4.436   1.391 -0.5770  1.2007  0.2782
  893SOL    HW3 3619   3.292   4.346   1.484 -0.9042  1.2391  0.0392
  893SOL    MW4 3620   3.355   4.405   1.471 -0.1702  0.4816  0.0871
  894SOL     OW 3621   3.206   0.145   1.511 -0.4421  0.0913 -0.0486
  894SOL    HW2 3622   3.273   0.091   1.551 -0.9571  0.2678  1.0764
  894SOL    HW3 3623   3.123   0.111   1.545 -0.7984  1.2422  0.2887
  894SOL    MW4 3624   3.204   0.134   1.521 -0.5569  0.2664  0.1444
  895SOL     OW 3625   3.199   0.402   1.591  0.1159  0.4983 -0.5100
  895SOL    HW2 3626   3.203   0.309   1.567 -1.7503  0.6007 -1.3150
  895SOL    HW3 3627   3.124   0.436   1.543 -0.4589  1.9659  1.3425
  895SOL    MW4 3628   3.190   0.394   1.582 -0.2062  0.7055 -0.3718
  896SOL     OW 3629   3.408   0.589   1.520  0.1513 -0.1599  0.1810
  896SOL    HW2 3630   3.340   0.532   1.554 -0.3056 -0.1894 -0.7766
  896SOL    HW3 3631   3.407   0.575   1.425 -0.4650  1.9741 -0.1622
  896SOL    MW4 3632   3.399   0.580   1.512  0.0100  0.1178  0.0094
  897SOL     OW 3633   3.394   0.841   1.604  0.3301 -0.5690  0.4142
  897SOL    HW2 3634   3.377   0.828   1.697  0.4113 -1.5169  0.3018
  897SOL    HW3 3635   3.402   0.753   1.568  0.7499 -0.2065 -0.4116
  897SOL    MW4 3636   3.393   0.828   1.611  0.3960 -0.6462  0.2905
  898SOL     OW 3637   3.147   0.910   1.471 -0.0222  0.1395  0.4755
  898SOL    HW2 3638   3.083   0.849   1.508 -0.9224  1.9100  1.9449
  898SOL    HW3 3639   3.231   0.879   1.505 -0.1473 -1.7966 -0.9091
  898SOL    MW4 3640   3.150   0.898   1.480 -0.1574  0.1177  0.4866
  899SOL     OW 3641   3.142   1.157   1.589 -0.6072 -0.2463  0.1547
  899SOL    HW2 3642   3.157   1.144   1.683 -0.1557 -0.5386  0.0432
  899SOL    HW3 3643   3.153   1.070   1.551  0.9003  0.1697 -0.3937
  899SOL    MW4 3644   3.145   1.144   1.597 -0.3488 -0.2301  0.0676
  900SOL     OW 3645   3.338   1.314   1.500  0.2261  0.2822  0.0773
  900SOL    HW2 3646   3.413   1.275   1.546  1.3900  1.4598 -0.7959
  900SOL    HW3 3647   3.265   1.256   1.522  0.6439  1.0008  3.7082
  900SOL    MW4 3648   3.339   1.301   1.509  0.4349  0.5325  0.4411
  901SOL     OW 3649   3.325   1.567   1.596  0.0841  0.1190  0.2057
  901SOL    HW2 3650   3.332   1.554   1.691 -0.5857  1.8014  0.5118
  901SOL    HW3 3651   3.311   1.479   1.561  0.3255 -0.5248  1.6716
  901SOL    MW4 3652   3.324   1.554   1.604  0.0277  0.2559  0.4395
  902SOL     OW 3653   0.219   1.054   0.735 -0.1845  0.3804 -0.1540
  902SOL    HW2 3654   0.292   1.110   0.761 -0.4315  1.0545 -0.8973
  902SOL    HW3 3655   0.141   1.100   0.765 -0.4282  0.7777 -1.3521
  902SOL    MW4 3656   0.219   1.067   0.742 -0.2492  0.5219 -0.4101
  903SOL     OW 3657   3.143   1.913   1.593  0.2607  0.1597 -0.2129
  903SOL    HW2 3658   3.133   1.822   1.565  0.3579  0.3810 -0.9936
  903SOL    HW3 3659   3.061   1.956   1.568  0.3683  0.3735 -0.2065
  903SOL    MW4 3660   3.131   1.907   1.586  0.2875  0.2172 -0.3151
  904SOL     OW 3661   3.366   2.084   1.511 -0.6353 -0.0648  0.1276
  904SOL    HW2 3662   3.287   2.031   1.512 -1.6122  1.3584  0.3047
  904SOL    HW3 3663   3.382   2.101   1.418  0.5405 -1.9129 -0.0147
  904SOL    MW4 3664   3.358   2.079   1.499 -0.6092 -0.1211  0.1321
  905SOL     OW 3665   3.341   2.355   1.620  0.5985  0.2009  0.1041
  905SOL    HW2 3666   3.410   2.411   1.585  0.4707  0.4517  0.2547
  905SOL    HW3 3667   3.345   2.276   1.566  0.8817  0.2887 -0.0072
  905SOL    MW4 3668   3.351   2.352   1.609  0.6189  0.2453  0.1093
  906SOL     OW 3669   3.096   2.480   1.561  0.4311  0.1566 -0.0435
  906SOL    HW2 3670   3.178   2.434   1.581  0.1851 -0.6643 -0.8583
  906SOL    HW3 3671   3.028   2.413   1.573 -0.1926  1.0305  1.3498
  906SOL    MW4 3672   3.098   2.465   1.565  0.3164  0.1638  0.0329
  907SOL     OW 3673   3.125   2.757   1.640  0.5477 -0.0798 -0.3749
  907SOL    HW2 3674   3.199   2.794   1.592  0.6247  0.9332  0.4991
  907SOL    HW3 3675   3.121   2.666   1.612  1.9784 -0.0808 -0.6099
  907SOL    MW4 3676   3.134   2.750   1.630  0.7465  0.0536 -0.2906
  908SOL     OW 3677   3.352   2.885   1.526  0.1087 -0.2960 -0.4118
  908SOL    HW2 3678   3.346   2.979   1.544  3.3509  0.3549 -2.2778
  908SOL    HW3 3679   3.350   2.879   1.430 -0.9819 -2.2324 -0.2966
  908SOL    MW4 3680   3.351   2.897   1.515  0.3922 -0.4656 -0.6428
  909SOL     OW 3681   3.359   3.157   1.596 -0.1442  0.5930 -0.2982
  909SOL    HW2 3682   3.353   3.160   1.692 -1.5688  0.5890 -0.3786
  909SOL    HW3 3683   3.449   3.183   1.577  0.2356  0.3227  1.0558
  909SOL    MW4 3684   3.370   3.161   1.606 -0.2820  0.5569 -0.1303
  910SOL     OW 3685   3.144   3.254   1.467  0.2067 -0.1307 -0.3456
  910SOL    HW2 3686   3.219   3.202   1.497  1.8114  2.1760 -0.2296
  910SOL    HW3 3687   3.135   3.233   1.374  2.1730  0.9403 -0.8008
  910SOL    MW4 3688   3.153   3.244   1.459  0.6776  0.3152 -0.3903
  911SOL     OW 3689   3.169   3.506   1.592 -0.3464  0.3165  1.1126
  911SOL    HW2 3690   3.162   3.421   1.549  0.4202  1.3634 -1.1654
  911SOL    HW3 3691   3.090   3.552   1.567  0.2467  1.0485  0.5742
  911SOL    MW4 3692   3.158   3.501   1.583 -0.1671  0.5510  0.7411
  912SOL     OW 3693   3.430   3.620   1.528 -0.0556  0.3801 -0.2968
  912SOL    HW2 3694   3.501   3.559   1.550  0.6429  0.8925 -1.0666
  912SOL    HW3 3695   3.353   3.585   1.573  0.2872 -1.1639 -0.8727
  912SOL    MW4 3696   3.429   3.607   1.537  0.0820  0.2439 -0.4742
  913SOL     OW 3697   3.422   3.873   1.629  0.7145 -0.7930  0.0218
  913SOL    HW2 3698   3.349   3.923   1.592  0.6628 -0.2780  0.8089
  913SOL    HW3 3699   3.416   3.787   1.587  2.1804  0.5519 -3.0787
  913SOL    MW4 3700   3.411   3.868   1.619  0.9015 -0.5474 -0.2835
  914SOL     OW 3701   3.204   3.981   1.499 -0.2844 -0.1055  0.2835
  914SOL    HW2 3702   3.200   4.076   1.513 -1.8442 -0.2695  1.0607
  914SOL    HW3 3703   3.125   3.947   1.541 -0.2926 -1.6423 -0.9145
  914SOL    MW4 3704   3.193   3.989   1.506 -0.4914 -0.3300  0.2280
  915SOL     OW 3705   3.150   4.240   1.535 -0.0348  0.1014  0.1017
  915SOL    HW2 3706   3.156   4.243   1.630  0.6734 -0.9623  0.0928
  915SOL    HW3 3707   3.072   4.292   1.515 -1.1489 -1.0216  1.3677
  915SOL    MW4 3708   3.140   4.247   1.545 -0.0885 -0.1874  0.2674
  916SOL     OW 3709   3.356   4.473   1.212 -0.3527  0.2699 -0.0751
  916SOL    HW2 3710   3.360   4.544   1.147  0.4988  0.6536  0.3832
  916SOL    HW3 3711   3.422   4.410   1.182 -0.7898 -0.1114 -0.2309
  916SOL    MW4 3712   3.365   4.474   1.200 -0.2980  0.2699 -0.0352
  917SOL     OW 3713   3.824   0.017   1.599  0.2884 -0.4841  0.5166
  917SOL    HW2 3714   3.844   0.016   1.692 -0.3357  0.6911  0.6625
  917SOL    HW3 3715   3.904   0.049   1.557  0.4405 -0.6524  0.6834
  917SOL    MW4 3716   3.837   0.021   1.605  0.2263 -0.3512  0.5579
  918SOL     OW 3717   3.394   4.651   1.610 -0.1531  0.2585 -0.2141
  918SOL    HW2 3718   3.469   4.682   1.558  0.2579 -0.2474  0.0782
  918SOL    HW3 3719   3.372   4.567   1.571  0.3002 -0.2260  0.5788
  918SOL    MW4 3720   3.401   4.644   1.598 -0.0391  0.1273 -0.0709
  919SOL     OW 3721   3.602   0.406   1.593 -0.0072 -0.1849 -0.4626
  919SOL    HW2 3722   3.578   0.321   1.555  0.5940 -0.3871 -0.4112
  919SOL    HW3 3723   3.530   0.464   1.571  0.3031 -0.3123 -1.8730
  919SOL    MW4 3724   3.590   0.402   1.585  0.1130 -0.2284 -0.6419
  920SOL     OW 3725   3.843   0.530   1.548 -0.0802 -0.8272  0.2342
  920SOL    HW2 3726   3.760   0.488   1.570 -0.4773 -0.1262  0.1021
  920SOL    HW3 3727   3.852   0.515   1.454  0.0851 -1.1518  0.3018
  920SOL    MW4 3728   3.833   0.523   1.538 -0.1106 -0.7775  0.2255
  921SOL     OW 3729   3.837   0.814   1.614  0.0129  0.0286  0.1204
  921SOL    HW2 3730   3.764   0.858   1.571 -0.5279  0.2502  1.2521
  921SOL    HW3 3731   3.824   0.721   1.596 -0.9711 -0.0013  0.9536
  921SOL    MW4 3732   3.826   0.808   1.606 -0.1881  0.0539  0.3798
  922SOL     OW 3733   3.640   0.984   1.515  0.0025  0.4490 -0.0514
  922SOL    HW2 3734   3.562   0.937   1.545  0.5031 -0.2764  0.1489
  922SOL    HW3 3735   3.641   0.970   1.420  2.0079 -2.9591  0.3497
  922SOL    MW4 3736   3.630   0.976   1.506  0.3331 -0.0964  0.0279
  923SOL     OW 3737   3.575   1.218   1.631  0.2188 -0.2234  0.0755
  923SOL    HW2 3738   3.651   1.267   1.599 -0.0342  1.1007  1.4393
  923SOL    HW3 3739   3.589   1.129   1.600  0.5565  0.7503 -2.6980
  923SOL    MW4 3740   3.587   1.213   1.623  0.2301  0.0798 -0.1106
  924SOL     OW 3741   3.799   1.339   1.526 -0.0368  0.0645  0.4337
  924SOL    HW2 3742   3.872   1.286   1.558  1.0145  0.9520 -0.4559
  924SOL    HW3 3743   3.818   1.427   1.558 -0.9023  0.2361  0.4916
  924SOL    MW4 3744   3.811   1.344   1.535 -0.0122  0.2042  0.3240
  925SOL     OW 3745   3.850   1.586   1.632 -0.5699 -0.4295  0.1667
  925SOL    HW2 3746   3.834   1.565   1.724 -0.6789  0.1819  0.2906
  925SOL    HW3 3747   3.763   1.603   1.596 -0.4166  0.7384  0.3053
  925SOL    MW4 3748   3.836   1.586   1.640 -0.5641 -0.1948  0.2015
  926SOL     OW 3749   3.599   1.686   1.541 -0.2342  0.2568 -0.0398
  926SOL    HW2 3750   3.516   1.640   1.559  0.4171 -0.8814  0.1039
  926SOL    HW3 3751   3.600   1.696   1.446 -1.3694  1.8790  0.1017
  926SOL    MW4 3752   3.588   1.681   1.531 -0.2983  0.3208 -0.0021
  927SOL     OW 3753   3.603   1.954   1.585 -0.5339  0.2147  0.0283
  927SOL    HW2 3754   3.599   1.859   1.570  1.6156  0.3871 -1.8148
  927SOL    HW3 3755   3.516   1.986   1.561 -1.5836 -1.3732  1.5536
  927SOL    MW4 3756   3.591   1.945   1.580 -0.3889  0.0279 -0.0137
  928SOL     OW 3757   3.801   2.341   1.570 -0.0414 -0.4280  0.0462
  928SOL    HW2 3758   3.874   2.400   1.557  0.2171 -0.8621 -0.4820
  928SOL    HW3 3759   3.796   2.329   1.665 -1.0322  1.6111  0.2649
  928SOL    MW4 3760   3.810   2.347   1.581 -0.1378 -0.2165  0.0055
  929SOL     OW 3761   3.773   2.336   1.844  0.5217 -0.0769 -0.1222
  929SOL    HW2 3762   3.707   2.388   1.890  0.9562  1.1850 -0.8822
  929SOL    HW3 3763   3.856   2.377   1.868  0.8725 -0.4407 -0.7107
  929SOL    MW4 3764   3.775   2.348   1.853  0.6251  0.0417 -0.3003
  930SOL     OW 3765   3.572   2.521   1.568 -0.1948 -0.7658 -0.0682
  930SOL    HW2 3766   3.579   2.616   1.564 -1.2313 -0.6585  0.4281
  930SOL    HW3 3767   3.661   2.491   1.586 -0.5030  0.3550  3.6787
  930SOL    MW4 3768   3.584   2.529   1.570 -0.3722 -0.6037  0.4915
  931SOL     OW 3769   3.593   2.790   1.573  0.1267 -0.1412 -0.0175
  931SOL    HW2 3770   3.599   2.785   1.669 -0.6045  0.9703  0.0948
  931SOL    HW3 3771   3.510   2.834   1.557  0.3575 -0.1255 -1.1661
  931SOL    MW4 3772   3.583   2.795   1.584  0.0608  0.0076 -0.1544
  932SOL     OW 3773   3.830   2.876   1.471 -0.0481  0.3028  0.2249
  932SOL    HW2 3774   3.892   2.813   1.509 -0.3301 -0.7796 -1.0841
  932SOL    HW3 3775   3.746   2.852   1.510 -0.0132  0.4164  0.3732
  932SOL    MW4 3776   3.827   2.865   1.481 -0.0811  0.1748  0.0718
  933SOL     OW 3777   3.843   3.108   1.628  0.1617 -0.0954  0.3281
  933SOL    HW2 3778   3.899   3.174   1.587  0.7205 -0.2263  0.8742
  933SOL    HW3 3779   3.846   3.034   1.568  1.3782 -0.4688  0.8340
  933SOL    MW4 3780   3.851   3.107   1.615  0.3963 -0.1621  0.4668
  934SOL     OW 3781   3.619   3.210   1.516 -0.1090 -0.2643  0.1187
  934SOL    HW2 3782   3.697   3.166   1.550  0.3033  0.2052 -0.2182
  934SOL    HW3 3783   3.623   3.195   1.421  1.1403  2.2351 -0.2720
  934SOL    MW4 3784   3.630   3.202   1.508  0.1101  0.1276  0.0228
  935SOL     OW 3785   3.641   3.473   1.607 -0.0715 -0.0401  0.3556
  935SOL    HW2 3786   3.715   3.522   1.572 -1.1885 -0.0358 -2.0663
  935SOL    HW3 3787   3.654   3.384   1.575 -1.4494  0.1082 -0.6562
  935SOL    MW4 3788   3.653   3.468   1.598 -0.4010 -0.0200 -0.0976
  936SOL     OW 3789   3.806   3.659   1.501 -0.4195  0.2207 -0.2948
  936SOL    HW2 3790   3.890   3.626   1.534 -0.3646  0.5499 -0.1011
  936SOL    HW3 3791   3.788   3.736   1.556 -1.2366 -0.3158  0.1977
  936SOL    MW4 3792   3.815   3.665   1.513 -0.5200  0.1934 -0.2043
  937SOL     OW 3793   3.807   3.904   1.650 -0.0421 -0.0277 -0.3416
  937SOL    HW2 3794   3.895   3.927   1.618 -0.3688  1.4833 -0.1693
  937SOL    HW3 3795   3.748   3.961   1.601 -0.5800  2.1642  2.6987
  937SOL    MW4 3796   3.811   3.914   1.639 -0.1562  0.4609  0.0824
  938SOL     OW 3797   3.588   4.282   1.583  0.2363  0.1880  0.2358
  938SOL    HW2 3798   3.506   4.328   1.563  0.1549  0.4091  1.0716
  938SOL    HW3 3799   3.597   4.288   1.678  1.5393  0.6927  0.0970
  938SOL    MW4 3800   3.578   4.289   1.593  0.3974  0.2842  0.3278
  939SOL     OW 3801   3.820   4.445   1.482 -0.3323  0.2439  0.6062
  939SOL    HW2 3802   3.812   4.533   1.518  1.0904 -0.2671  2.2808
  939SOL    HW3 3803   3.741   4.399   1.511 -1.3821  1.1244 -0.8035
  939SOL    MW4 3804   3.809   4.450   1.490 -0.2830  0.2923  0.6412
  940SOL     OW 3805   4.275   4.368   1.491  0.0561  0.2528 -0.3266
  940SOL    HW2 3806   4.258   4.373   1.397 -1.2473  1.3896 -0.0511
  940SOL    HW3 3807   4.198   4.323   1.527  0.5611 -0.2050  0.1917
  940SOL    MW4 3808   4.263   4.363   1.484 -0.0491  0.3419 -0.2220
  941SOL     OW 3809   4.267   4.640   1.599 -0.4437 -0.1408 -0.6052
  941SOL    HW2 3810   4.253   4.641   1.694  0.1034 -1.3951 -0.5088
  941SOL    HW3 3811   4.289   4.550   1.578  1.2333  0.4714 -1.6583
  941SOL    MW4 3812   4.268   4.629   1.609 -0.1507 -0.2251 -0.7315
  942SOL     OW 3813   4.062   0.111   1.489 -0.1618 -0.0569  0.1298
  942SOL    HW2 3814   4.062   0.196   1.533 -0.0715 -0.0207  0.0613
  942SOL    HW3 3815   4.136   0.065   1.529  0.6867  0.4344 -0.8641
  942SOL    MW4 3816   4.072   0.116   1.500 -0.0381  0.0127 -0.0105
  943SOL     OW 3817   4.065   0.357   1.619 -0.4934  0.1973 -0.3279
  943SOL    HW2 3818   4.065   0.346   1.714 -1.4269 -1.4088 -0.4986
  943SOL    HW3 3819   3.995   0.420   1.602 -0.4658  0.3250  0.0247
  943SOL    MW4 3820   4.055   0.364   1.629 -0.6132  0.0022 -0.3039
  944SOL     OW 3821   4.273   0.529   1.520  0.7018 -0.0002  0.6136
  944SOL    HW2 3822   4.201   0.478   1.557  0.5639  0.4195  0.9237
  944SOL    HW3 3823   4.352   0.480   1.543  0.7285  0.9725  2.6594
  944SOL    MW4 3824   4.274   0.516   1.528  0.6871  0.1835  0.9243
  945SOL     OW 3825   4.302   0.777   1.631 -0.4859  0.3045 -0.0706
  945SOL    HW2 3826   4.288   0.699   1.578  2.5979 -1.9686  2.3518
  945SOL    HW3 3827   4.360   0.832   1.579 -0.0452 -0.4833 -0.4104
  945SOL    MW4 3828   4.307   0.774   1.617 -0.0205 -0.0993  0.2043
  946SOL     OW 3829   4.088   0.948   1.584 -0.4918 -0.0012 -0.3748
  946SOL    HW2 3830   4.146   0.874   1.602 -0.0258  0.1695 -1.1420
  946SOL    HW3 3831   4.000   0.911   1.587 -0.2861 -0.4803 -0.2289
  946SOL    MW4 3832   4.084   0.934   1.586 -0.4034 -0.0420 -0.4569
  947SOL     OW 3833   4.032   1.222   1.608  0.3687  0.2686 -0.0352
  947SOL    HW2 3834   4.033   1.247   1.700 -1.2823 -1.7310  0.5769
  947SOL    HW3 3835   4.056   1.129   1.609 -0.3209  0.0655 -1.5493
  947SOL    MW4 3836   4.035   1.213   1.620  0.0601 -0.0219 -0.1543
  948SOL     OW 3837   4.258   1.348   1.521  0.5911 -0.8255  0.1036
  948SOL    HW2 3838   4.180   1.299   1.546  1.3106 -1.3934  1.2915
  948SOL    HW3 3839   4.330   1.301   1.564  1.5542 -0.1671 -0.7796
  948SOL    MW4 3840   4.257   1.335   1.530  0.8135 -0.8135  0.1438
  949SOL     OW 3841   4.280   1.616   1.591  0.4157  0.4378  0.0811
  949SOL    HW2 3842   4.279   1.520   1.585 -0.1709  0.5328 -1.8617
  949SOL    HW3 3843   4.368   1.640   1.563  0.0296  0.5346 -1.0765
  949SOL    MW4 3844   4.291   1.606   1.586  0.2875  0.4630 -0.3279
  950SOL     OW 3845   4.042   1.692   1.446  0.0130  0.0392  0.2718
  950SOL    HW2 3846   4.122   1.658   1.485  0.1557  1.1853  0.9965
  950SOL    HW3 3847   3.972   1.659   1.502  0.0399 -0.2297  0.1489
  950SOL    MW4 3848   4.043   1.683   1.459  0.0358  0.1550  0.3512
  951SOL     OW 3849   4.069   1.961   1.599 -0.3947 -0.2058  0.3083
  951SOL    HW2 3850   4.053   1.881   1.549 -0.2067  1.0757 -1.8922
  951SOL    HW3 3851   3.995   2.017   1.578  1.2916  1.5667 -1.1459
  951SOL    MW4 3852   4.057   1.958   1.589 -0.1473  0.1973 -0.1738
  952SOL     OW 3853   4.306   2.067   1.523 -0.3404  0.5744  0.9915
  952SOL    HW2 3854   4.218   2.041   1.550 -0.4388 -0.2574 -0.0900
  952SOL    HW3 3855   4.304   2.061   1.427  1.3070 -0.8699  1.0175
  952SOL    MW4 3856   4.294   2.063   1.514 -0.1369  0.2742  0.8521
  953SOL     OW 3857   4.219   2.341   1.589 -0.0031  0.3505  0.0914
  953SOL    HW2 3858   4.225   2.315   1.681 -0.9365  0.3116  0.1468
  953SOL    HW3 3859   4.252   2.266   1.540 -0.7663 -0.1596  0.3435
  953SOL    MW4 3860   4.224   2.328   1.595 -0.2270  0.2778  0.1321
  954SOL     OW 3861   4.018   2.509   1.474  0.4541  0.0100  0.4017
  954SOL    HW2 3862   4.020   2.590   1.525  1.6890  0.8422 -0.9396
  954SOL    HW3 3863   4.080   2.451   1.518  0.4490  0.2215  0.6849
  954SOL    MW4 3864   4.027   2.512   1.486  0.6166  0.1476  0.2620
  955SOL     OW 3865   4.009   2.722   1.632  0.8469  0.2070  0.5153
  955SOL    HW2 3866   4.010   2.741   1.726  1.6871  0.0519  0.5458
  955SOL    HW3 3867   4.093   2.755   1.600  0.3166  0.7880 -0.2950
  955SOL    MW4 3868   4.020   2.729   1.640  0.8883  0.2632  0.4125
  956SOL     OW 3869   4.237   2.846   1.521 -0.1755  0.4529 -0.5723
  956SOL    HW2 3870   4.230   2.940   1.539  0.4153  0.3075  0.4491
  956SOL    HW3 3871   4.226   2.839   1.426  0.8718  1.6638 -0.7944
  956SOL    MW4 3872   4.235   2.857   1.511  0.0405  0.5932 -0.4668
  957SOL     OW 3873   4.249   3.124   1.573  0.2388  0.4485 -0.2846
  957SOL    HW2 3874   4.260   3.106   1.667  0.0633 -0.9405 -0.5154
  957SOL    HW3 3875   4.336   3.151   1.544  0.7112 -0.7898 -0.0655
  957SOL    MW4 3876   4.262   3.125   1.582  0.2780  0.1018 -0.2862
  958SOL     OW 3877   4.029   3.262   1.495  0.0981  0.4115 -0.5512
  958SOL    HW2 3878   4.018   3.348   1.535  0.3654 -0.0468  0.5361
  958SOL    HW3 3879   4.115   3.232   1.526 -0.6835 -0.9153  0.3865
  958SOL    MW4 3880   4.039   3.269   1.504  0.0300  0.1757 -0.2842
  959SOL     OW 3881   4.025   3.519   1.573 -0.2778  0.0091  0.6998
  959SOL    HW2 3882   4.035   3.522   1.668  0.9557 -2.0601  0.6756
  959SOL    HW3 3883   4.103   3.565   1.540 -1.6167  2.3182  0.6824
  959SOL    MW4 3884   4.037   3.526   1.581 -0.2918  0.0405  0.6944
  960SOL     OW 3885   4.268   3.643   1.498 -0.3771  0.1625  0.2630
  960SOL    HW2 3886   4.277   3.736   1.519 -0.5837  0.6194 -1.6037
  960SOL    HW3 3887   4.268   3.640   1.402  1.2763 -1.9254  0.2972
  960SOL    MW4 3888   4.269   3.655   1.488 -0.1864 -0.0527  0.0212
  961SOL     OW 3889   0.020   4.021   1.438 -0.2520 -0.0794 -0.4154
  961SOL    HW2 3890   0.005   4.107   1.476  1.3551 -0.5217  1.2590
  961SOL    HW3 3891   0.085   3.980   1.495 -1.7910 -2.8190 -0.5267
  961SOL    MW4 3892   0.026   4.027   1.451 -0.2430 -0.4988 -0.2093
  962SOL     OW 3893   4.044   3.973   1.494  0.1190  0.0844 -0.3160
  962SOL    HW2 3894   4.044   4.066   1.518 -0.6877  0.3213 -1.2284
  962SOL    HW3 3895   4.041   3.973   1.398  0.9959 -0.8767 -0.3498
  962SOL    MW4 3896   4.044   3.985   1.484  0.1278 -0.0110 -0.4408
  963SOL     OW 3897   4.025   4.249   1.587  0.0538  0.0914  0.2862
  963SOL    HW2 3898   3.999   4.254   1.679  0.3980  1.6889  0.3122
  963SOL    HW3 3899   3.964   4.307   1.541  1.0410  0.7469 -0.2190
  963SOL    MW4 3900   4.014   4.257   1.593  0.2294  0.3886  0.2230
  964SOL     OW 3901   0.017   4.274   1.582  0.0150  0.1406  0.4844
  964SOL    HW2 3902   0.000   4.267   1.676 -1.1861 -2.8074  0.1032
  964SOL    HW3 3903  -0.065   4.309   1.546 -0.2035 -0.5318  0.3229
  964SOL    MW4 3904   0.004   4.278   1.590 -0.1721 -0.3371  0.4128
  965SOL     OW 3905   0.235   4.627   1.872 -0.0285  0.3838  0.1849
  965SOL    HW2 3906   0.294   4.694   1.908  0.4412 -0.0752  0.2797
  965SOL    HW3 3907   0.255   4.626   1.778  0.4775 -0.1207  0.2923
  965SOL    MW4 3908   0.246   4.636   1.864  0.1003  0.2570  0.2116
  966SOL     OW 3909   0.000   0.107   1.975  0.0766 -0.5298 -0.6241
  966SOL    HW2 3910   0.002   0.199   1.951  1.0354  0.1859  2.0321
  966SOL    HW3 3911   0.066   0.066   1.918  0.6591  0.6807 -0.8231
  966SOL    MW4 3912   0.009   0.114   1.964  0.2799 -0.2757 -0.2999
  967SOL     OW 3913   0.008   0.382   1.913  0.0953  0.1556  0.0242
  967SOL    HW2 3914  -0.062   0.409   1.973 -1.4994 -0.5659 -1.4600
  967SOL    HW3 3915   0.087   0.425   1.946 -1.3337  2.2137  0.8464
  967SOL    MW4 3916   0.009   0.391   1.925 -0.3036  0.3319 -0.0631
  968SOL     OW 3917   0.209   0.532   2.017  0.1549  0.2106 -0.2357
  968SOL    HW2 3918   0.286   0.488   1.982  0.4824  0.8587 -0.3441
  968SOL    HW3 3919   0.202   0.613   1.966 -0.3361  0.3669  0.0708
  968SOL    MW4 3920   0.218   0.537   2.006  0.1333  0.3167 -0.2096
  969SOL     OW 3921   0.185   0.778   1.884 -0.7138 -0.3974 -0.1497
  969SOL    HW2 3922   0.264   0.825   1.911 -1.3457  0.0123  0.9691
  969SOL    HW3 3923   0.190   0.777   1.788 -0.3527  1.3562 -0.1634
  969SOL    MW4 3924   0.196   0.784   1.875 -0.7495 -0.1121 -0.0039
  970SOL     OW 3925   4.472   0.933   1.974 -0.2003  0.1553  0.3102
  970SOL    HW2 3926   4.404   0.872   1.946  0.1964  0.1144 -0.5999
  970SOL    HW3 3927   4.553   0.898   1.935  0.2472  0.5105  0.9137
  970SOL    MW4 3928   4.474   0.920   1.965 -0.0892  0.1968  0.2697
  971SOL     OW 3929   4.461   1.195   1.920  0.3834 -0.4689  0.1439
  971SOL    HW2 3930   4.370   1.227   1.927  0.7599  0.3847  1.2724
  971SOL    HW3 3931   4.455   1.102   1.938 -0.4991 -0.7553 -1.4746
  971SOL    MW4 3932   4.448   1.187   1.923  0.3166 -0.3941  0.0792
  972SOL     OW 3933   0.231   1.285   2.007 -0.5757  0.8445  0.3207
  972SOL    HW2 3934   0.230   1.375   1.975  0.2222  0.8297  0.2493
  972SOL    HW3 3935   0.144   1.251   1.985 -0.4904  1.2412 -0.6564
  972SOL    MW4 3936   0.219   1.292   2.000 -0.4592  0.8949  0.1822
  973SOL     OW 3937   0.229   1.536   1.911 -0.0899 -0.2954 -0.1547
  973SOL    HW2 3938   0.305   1.580   1.949 -0.0877 -1.0198  0.7135
  973SOL    HW3 3939   0.154   1.589   1.939  0.0544  0.0751 -0.4871
  973SOL    MW4 3940   0.229   1.549   1.920 -0.0706 -0.3421 -0.0839
  974SOL     OW 3941   0.012   1.683   1.984  0.4593 -0.3191  0.0043
  974SOL    HW2 3942   0.012   1.673   2.079  0.1078 -2.1048 -0.1802
  974SOL    HW3 3943  -0.079   1.672   1.959  1.0300 -3.3152 -0.8836
  974SOL    MW4 3944   0.000   1.680   1.993  0.4878 -0.9500 -0.1371
  975SOL     OW 3945   0.024   1.933   1.867 -0.1484  0.1261 -0.4872
  975SOL    HW2 3946   0.014   1.846   1.906 -0.3994 -0.0100 -0.8452
  975SOL    HW3 3947  -0.056   1.979   1.890  0.6546  0.8029  1.0296
  975SOL    MW4 3948   0.012   1.927   1.875 -0.0756  0.1974 -0.3344
  976SOL     OW 3949   0.248   2.047   1.990  0.3415 -0.2874 -0.0590
  976SOL    HW2 3950   0.229   2.128   1.941  0.6327 -0.2940 -0.1835
  976SOL    HW3 3951   0.175   1.989   1.968  1.3253 -0.8878 -1.8258
  976SOL    MW4 3952   0.236   2.050   1.980  0.5097 -0.3676 -0.3085
  977SOL     OW 3953   0.185   2.314   1.853  1.0284 -0.0629  0.2349
  977SOL    HW2 3954   0.257   2.334   1.912 -0.3705  1.0166  1.6304
  977SOL    HW3 3955   0.111   2.366   1.887 -0.3334 -0.9708 -1.2683
  977SOL    MW4 3956   0.185   2.323   1.865  0.6642 -0.0403  0.2207
  978SOL     OW 3957   4.446   2.443   1.941 -0.6473 -0.1079  0.1994
  978SOL    HW2 3958   4.443   2.440   2.036 -1.7992  1.4430  0.2454
  978SOL    HW3 3959   4.454   2.537   1.921 -1.4308 -0.3295 -1.2325
  978SOL    MW4 3960   4.447   2.455   1.951 -0.9031  0.0675  0.0167
  979SOL     OW 3961   4.478   2.711   1.866  0.4231  0.4692 -0.2852
  979SOL    HW2 3962   4.394   2.752   1.887  0.9983  0.7297  1.5972
  979SOL    HW3 3963   4.475   2.696   1.771 -0.9629  2.2474 -0.5394
  979SOL    MW4 3964   4.467   2.715   1.856  0.3161  0.7384 -0.0703
  980SOL     OW 3965   0.206   2.820   2.013 -0.1372 -0.1739  0.1916
  980SOL    HW2 3966   0.198   2.907   1.974 -0.8797  0.6449  2.0821
  980SOL    HW3 3967   0.134   2.770   1.975  1.7824 -0.7456 -2.7991
  980SOL    MW4 3968   0.196   2.825   2.003  0.0181 -0.1414  0.0467
  981SOL     OW 3969   0.224   3.075   1.907  0.2329 -0.4935  0.1274
  981SOL    HW2 3970   0.294   3.136   1.931  0.2238 -0.2859 -0.3508
  981SOL    HW3 3971   0.227   3.073   1.811 -1.6216  0.9527  0.0027
  981SOL    MW4 3972   0.234   3.083   1.897 -0.0129 -0.2751  0.0479
  982SOL     OW 3973   0.014   3.241   1.999  0.0748 -0.0205 -0.1356
  982SOL    HW2 3974  -0.055   3.203   1.945  0.3718 -0.4119 -0.2412
  982SOL    HW3 3975   0.092   3.190   1.977  0.1049 -0.4567  0.9607
  982SOL    MW4 3976   0.015   3.229   1.989  0.1180 -0.1299 -0.0050
  983SOL     OW 3977   0.010   3.490   1.851 -0.3092 -0.0228  0.1285
  983SOL    HW2 3978   0.005   3.406   1.897 -0.4477  0.7284  1.5499
  983SOL    HW3 3979   0.089   3.532   1.886  0.5384 -0.1477 -1.6215
  983SOL    MW4 3980   0.019   3.485   1.862 -0.2157  0.0601  0.0851
  984SOL     OW 3981   0.261   3.619   1.956  0.0424  0.1749 -0.3092
  984SOL    HW2 3982   0.247   3.615   2.051 -0.3211  0.9788 -0.3304
  984SOL    HW3 3983   0.340   3.565   1.942 -0.1367 -0.2846  0.3936
  984SOL    MW4 3984   0.270   3.611   1.967 -0.0292  0.2203 -0.2192
  985SOL     OW 3985   0.220   3.901   1.864  0.2855  0.3282  0.4494
  985SOL    HW2 3986   0.232   3.807   1.880 -1.4165  0.3542  2.1520
  985SOL    HW3 3987   0.289   3.943   1.915  0.7032  0.0188  0.1397
  985SOL    MW4 3988   0.231   3.894   1.873  0.1161  0.2909  0.6332
  986SOL     OW 3989   4.471   4.046   1.972 -0.4102  0.5020 -0.1249
  986SOL    HW2 3990   4.459   4.136   1.941 -2.4163  0.2454 -0.1410
  986SOL    HW3 3991   4.540   4.011   1.916  0.2350  1.9602 -0.2736
  986SOL    MW4 3992   4.479   4.054   1.960 -0.5898  0.6599 -0.1467
  987SOL     OW 3993   0.225   4.364   1.975  0.0674 -0.0362 -0.4241
  987SOL    HW2 3994   0.236   4.458   1.958  1.2961  0.2526  1.7762
  987SOL    HW3 3995   0.218   4.357   2.070 -0.8231 -2.1066 -0.6113
  987SOL    MW4 3996   0.226   4.375   1.986  0.1120 -0.2713 -0.1585
  988SOL     OW 3997   0.204   4.366   2.268 -0.0805 -0.0034 -0.0629
  988SOL    HW2 3998   0.281   4.316   2.295 -0.8916 -0.6353  1.1473
  988SOL    HW3 3999   0.213   4.451   2.310  0.6707  0.4401 -1.1007
  988SOL    MW4 4000   0.215   4.371   2.277 -0.0884 -0.0281 -0.0401
  989SOL     OW 4001   0.658   0.035   1.892 -0.4203  0.4334 -0.4812
  989SOL    HW2 4002   0.637  -0.051   1.928 -1.8880  0.6101 -0.8856
  989SOL    HW3 4003   0.662   0.021   1.797  0.0805  0.6678 -0.4983
  989SOL    MW4 4004   0.656   0.022   1.884 -0.5478  0.4873 -0.5367
  990SOL     OW 4005   0.416   0.157   1.958 -0.1912  0.2929 -0.0507
  990SOL    HW2 4006   0.418   0.243   1.916 -0.2082  0.6401  0.6501
  990SOL    HW3 4007   0.500   0.117   1.936 -0.0000  0.6699 -0.0110
  990SOL    MW4 4008   0.427   0.163   1.950 -0.1682  0.3884  0.0470
  991SOL     OW 4009   0.422   0.432   1.884 -0.1589 -0.4346 -0.0892
  991SOL    HW2 4010   0.510   0.460   1.909 -0.3891  0.5214 -0.3510
  991SOL    HW3 4011   0.427   0.420   1.789 -0.2938 -0.4566 -0.0932
  991SOL    MW4 4012   0.434   0.434   1.875 -0.2071 -0.3113 -0.1243
  992SOL     OW 4013   0.682   0.543   1.949  0.3104  0.7860  0.2352
  992SOL    HW2 4014   0.673   0.513   2.040  1.6963  0.2877  0.2128
  992SOL    HW3 4015   0.762   0.501   1.918  0.5504  2.0092 -0.8065
  992SOL    MW4 4016   0.691   0.533   1.957  0.5249  0.8817  0.0948
  993SOL     OW 4017   0.660   0.791   1.825  0.0405  0.1097 -0.8410
  993SOL    HW2 4018   0.742   0.827   1.861 -0.6644  3.0054 -1.9888
  993SOL    HW3 4019   0.652   0.704   1.866  2.4661  0.7274  1.0926
  993SOL    MW4 4020   0.670   0.784   1.835  0.2675  0.5732 -0.7373
  994SOL     OW 4021   0.423   0.903   1.936 -0.0741  0.2747  0.1439
  994SOL    HW2 4022   0.435   0.995   1.910  0.8506  0.2044  0.2863
  994SOL    HW3 4023   0.501   0.859   1.901  0.2434 -0.1715  1.4035
  994SOL    MW4 4024   0.435   0.909   1.928  0.0898  0.2066  0.3290
  995SOL     OW 4025   0.464   1.169   1.882 -0.2266 -0.2536 -0.1367
  995SOL    HW2 4026   0.393   1.224   1.915  0.9613  0.8996  0.5258
  995SOL    HW3 4027   0.469   1.190   1.789 -0.8246 -0.4245 -0.2120
  995SOL    MW4 4028   0.455   1.179   1.874 -0.1488 -0.1241 -0.0591
  996SOL     OW 4029   0.682   1.314   2.002 -0.3489  0.0234  0.2549
  996SOL    HW2 4030   0.695   1.330   2.096  0.1601 -0.1016  0.2049
  996SOL    HW3 4031   0.609   1.253   1.998  0.8131 -1.4219  0.6575
  996SOL    MW4 4032   0.674   1.308   2.014 -0.1284 -0.1837  0.3016
  997SOL     OW 4033   0.687   1.585   1.864 -0.3691 -0.8937  0.1475
  997SOL    HW2 4034   0.688   1.497   1.901  2.3925 -0.7348  0.6050
  997SOL    HW3 4035   0.694   1.572   1.769 -0.9999 -1.1791  0.1395
  997SOL    MW4 4036   0.688   1.572   1.856 -0.0880 -0.9104  0.2068
  998SOL     OW 4037   0.450   1.693   1.970  0.3651 -0.3117 -0.1374
  998SOL    HW2 4038   0.483   1.714   2.058  0.4089  1.5590 -0.5679
  998SOL    HW3 4039   0.525   1.653   1.926  0.8274  0.1426  0.2085
  998SOL    MW4 4040   0.465   1.691   1.976  0.4319 -0.0050 -0.1487
  999SOL     OW 4041   0.453   1.947   1.844  0.2689  0.0267 -0.6667
  999SOL    HW2 4042   0.385   1.992   1.895  0.4786 -0.5107  0.0905
  999SOL    HW3 4043   0.456   1.859   1.881  1.6378  0.1560 -0.4657
  999SOL    MW4 4044   0.444   1.941   1.855  0.4772 -0.0272 -0.5403
 1000SOL     OW 4045   0.667   2.051   1.951 -0.0003  0.2300  0.5135
 1000SOL    HW2 4046   0.644   2.064   2.043  0.7291  0.0701  0.7238
 1000SOL    HW3 4047   0.592   2.005   1.913 -0.7093  1.1542  0.7985
 1000SOL    MW4 4048   0.654   2.047   1.958  0.0024  0.3312  0.5788
 1001SOL     OW 4049   0.677   2.338   1.899  0.1622 -0.2658 -0.0506
 1001SOL    HW2 4050   0.667   2.250   1.935 -0.7935 -0.3392 -0.4871
 1001SOL    HW3 4051   0.703   2.324   1.808 -1.9318 -0.1191 -0.6818
 1001SOL    MW4 4052   0.679   2.325   1.892 -0.2401 -0.2563 -0.1915
 1002SOL     OW 4053   0.420   2.455   1.948  0.4622  0.0248 -0.5910
 1002SOL    HW2 4054   0.411   2.461   2.044  0.4441 -0.1889 -0.5792
 1002SOL    HW3 4055   0.504   2.413   1.935  1.2357  1.5523 -0.6974
 1002SOL    MW4 4056   0.430   2.451   1.959  0.5618  0.1981 -0.6034
 1003SOL     OW 4057   0.443   2.732   1.904 -0.5594 -0.3425  0.0841
 1003SOL    HW2 4058   0.446   2.637   1.914 -0.9386 -0.2997  0.6185
 1003SOL    HW3 4059   0.357   2.757   1.939 -1.4804 -0.0752 -2.2526
 1003SOL    MW4 4060   0.432   2.722   1.910 -0.7310 -0.3018 -0.1538
 1004SOL     OW 4061   0.676   2.869   1.985  0.0869  0.0277  0.0871
 1004SOL    HW2 4062   0.669   2.875   2.080 -0.5942  1.0536 -0.0200
 1004SOL    HW3 4063   0.602   2.814   1.959  0.6874 -0.8443  0.2095
 1004SOL    MW4 4064   0.666   2.863   1.994  0.0763  0.0482  0.0890
 1005SOL     OW 4065   0.686   3.117   1.871  0.3250 -0.0932  0.0567
 1005SOL    HW2 4066   0.690   3.030   1.910  0.2067 -0.2347 -0.2494
 1005SOL    HW3 4067   0.675   3.102   1.777 -1.4489  0.2395  0.1740
 1005SOL    MW4 4068   0.685   3.104   1.864  0.0753 -0.0679  0.0317
 1006SOL     OW 4069   0.442   3.219   1.981  0.6889  0.0463  0.2069
 1006SOL    HW2 4070   0.453   3.306   1.943 -0.0516  0.5440  1.1044
 1006SOL    HW3 4071   0.521   3.172   1.955  2.1699  1.6764  1.5661
 1006SOL    MW4 4072   0.454   3.225   1.972  0.7866  0.3271  0.5046
 1007SOL     OW 4073   0.463   3.465   1.876 -0.2199  0.1423  0.3101
 1007SOL    HW2 4074   0.452   3.469   1.781 -0.6050  0.5684  0.3749
 1007SOL    HW3 4075   0.539   3.521   1.894 -1.2083  1.4481  0.4401
 1007SOL    MW4 4076   0.472   3.473   1.865 -0.4011  0.3705  0.3359
 1008SOL     OW 4077   0.665   3.638   1.950 -0.2563 -0.1504 -0.1423
 1008SOL    HW2 4078   0.752   3.603   1.932  0.0615  0.0146  1.0648
 1008SOL    HW3 4079   0.661   3.719   1.900  0.3586 -0.0562 -0.0399
 1008SOL    MW4 4080   0.676   3.644   1.941 -0.1333 -0.1163  0.0305
 1009SOL     OW 4081   0.656   3.901   1.852 -0.3041  0.0678 -0.2828
 1009SOL    HW2 4082   0.718   3.959   1.896  0.6661  0.2932 -1.9080
 1009SOL    HW3 4083   0.682   3.904   1.760 -2.7617  0.2283 -1.0091
 1009SOL    MW4 4084   0.668   3.909   1.845 -0.5004  0.1187 -0.5931
 1010SOL     OW 4085   0.450   4.028   1.989 -0.2689 -0.8757  0.4946
 1010SOL    HW2 4086   0.458   4.123   1.974 -0.3122 -0.4597  2.9067
 1010SOL    HW3 4087   0.517   3.989   1.933  1.3443  0.7663  1.2082
 1010SOL    MW4 4088   0.460   4.036   1.980 -0.0617 -0.6042  0.9069
 1011SOL     OW 4089   0.459   4.280   1.863  0.3612  0.2173 -0.1573
 1011SOL    HW2 4090   0.372   4.304   1.895  0.7207  0.6241  0.5439
 1011SOL    HW3 4091   0.450   4.275   1.768 -0.3782  0.4580 -0.1014
 1011SOL    MW4 4092   0.446   4.282   1.855  0.3111  0.3023 -0.0575
 1012SOL     OW 4093   0.664   4.426   1.966  0.3648  0.4843 -0.3413
 1012SOL    HW2 4094   0.737   4.375   1.930  0.1323 -1.2169  1.4396
 1012SOL    HW3 4095   0.586   4.382   1.932  0.1744  0.3991  0.1972
 1012SOL    MW4 4096   0.663   4.413   1.957  0.3090  0.2484 -0.0354
 1013SOL     OW 4097   1.092   0.011   1.820  0.2173 -0.1242  0.3547
 1013SOL    HW2 4098   1.177   0.046   1.849  0.6638 -1.7893  1.1083
 1013SOL    HW3 4099   1.093  -0.080   1.849 -0.3872 -1.1524 -2.7533
 1013SOL    MW4 4100   1.103   0.004   1.828  0.1966 -0.4795  0.0441
 1014SOL     OW 4101   0.902   0.155   1.960  0.2933 -0.3091 -0.5627
 1014SOL    HW2 4102   0.967   0.110   1.906  1.5241 -0.9048  1.3403
 1014SOL    HW3 4103   0.819   0.115   1.936  1.0552 -1.8701 -0.6760
 1014SOL    MW4 4104   0.900   0.144   1.950  0.5562 -0.5937 -0.3264
 1015SOL     OW 4105   0.893   0.402   1.844 -0.2233 -0.2473  0.4927
 1015SOL    HW2 4106   0.972   0.442   1.880 -0.0992  0.0161 -0.0574
 1015SOL    HW3 4107   0.882   0.321   1.893  1.3514 -1.1413 -0.5921
 1015SOL    MW4 4108   0.902   0.397   1.855  0.0008 -0.3305  0.2769
 1016SOL     OW 4109   1.105   0.537   1.950 -0.1094 -0.4365  0.1842
 1016SOL    HW2 4110   1.185   0.487   1.935  0.3671  0.2362  0.4641
 1016SOL    HW3 4111   1.110   0.610   1.888 -1.0589 -1.0281 -0.5957
 1016SOL    MW4 4112   1.116   0.540   1.940 -0.1718 -0.4258  0.1181
 1017SOL     OW 4113   1.140   0.752   1.796 -0.3511 -0.0888 -0.1420
 1017SOL    HW2 4114   1.194   0.813   1.846  0.7015 -0.1963 -1.1383
 1017SOL    HW3 4115   1.050   0.781   1.812  0.0514  0.6486  0.7923
 1017SOL    MW4 4116   1.135   0.764   1.804 -0.1591 -0.0057 -0.1502
 1018SOL     OW 4117   0.908   0.892   1.916 -0.2953 -0.1825 -0.1390
 1018SOL    HW2 4118   0.913   0.890   2.011  0.1949  0.3553 -0.1466
 1018SOL    HW3 4119   0.891   0.984   1.895 -0.9053 -0.3893 -0.5478
 1018SOL    MW4 4120   0.906   0.904   1.925 -0.3111 -0.1388 -0.1938
 1019SOL     OW 4121   0.890   1.168   1.844  0.1181  0.1772 -0.0343
 1019SOL    HW2 4122   0.812   1.210   1.879 -0.8649 -0.9085 -0.8777
 1019SOL    HW3 4123   0.877   1.166   1.749  0.7919 -0.7349 -0.1239
 1019SOL    MW4 4124   0.878   1.173   1.836  0.0773 -0.0863 -0.1574
 1020SOL     OW 4125   1.131   1.261   1.959  0.0387 -0.2757  0.4331
 1020SOL    HW2 4126   1.122   1.352   1.929  1.3318 -0.3037 -0.0520
 1020SOL    HW3 4127   1.055   1.216   1.921  0.5627  0.1372 -1.1369
 1020SOL    MW4 4128   1.119   1.267   1.950  0.2785 -0.2249  0.1619
 1021SOL     OW 4129   1.130   1.537   1.894  0.1414 -0.2413 -0.0111
 1021SOL    HW2 4130   1.063   1.602   1.914 -1.5586 -2.1239  0.5457
 1021SOL    HW3 4131   1.131   1.534   1.798  1.2279  1.5718 -0.0898
 1021SOL    MW4 4132   1.121   1.546   1.884  0.0604 -0.2505  0.0519
 1022SOL     OW 4133   0.907   1.694   1.977 -0.0841 -0.4065 -0.1778
 1022SOL    HW2 4134   0.911   1.782   1.938  0.6430 -0.0444  0.6891
 1022SOL    HW3 4135   0.824   1.658   1.946 -0.7953  0.9143  0.1414
 1022SOL    MW4 4136   0.897   1.701   1.968 -0.0820 -0.1847 -0.0212
 1023SOL     OW 4137   0.897   1.954   1.838 -0.0353  0.0279 -0.0441
 1023SOL    HW2 4138   0.826   1.979   1.898 -0.3626  1.7418 -1.1255
 1023SOL    HW3 4139   0.859   1.962   1.751  1.3563  0.5370 -0.6137
 1023SOL    MW4 4140   0.883   1.958   1.835  0.1052  0.3211 -0.2618
 1024SOL     OW 4141   1.146   2.045   1.994 -0.4156 -0.6845  0.0360
 1024SOL    HW2 4142   1.122   2.131   1.958  0.5772 -0.9100 -1.1948
 1024SOL    HW3 4143   1.080   1.985   1.960  0.2152 -0.8031 -1.0022
 1024SOL    MW4 4144   1.134   2.049   1.984 -0.2013 -0.7298 -0.2636
 1025SOL     OW 4145   1.104   2.302   1.885 -0.0659 -0.6056 -0.2775
 1025SOL    HW2 4146   1.187   2.348   1.899 -0.0579 -0.2747 -1.4402
 1025SOL    HW3 4147   1.087   2.308   1.791 -0.5105 -2.2223 -0.3183
 1025SOL    MW4 4148   1.112   2.309   1.875 -0.1235 -0.7753 -0.4362
 1026SOL     OW 4149   0.903   2.476   1.985  0.3855 -0.9858 -0.2040
 1026SOL    HW2 4150   0.971   2.423   1.944  0.6369  1.0172 -2.4698
 1026SOL    HW3 4151   0.822   2.428   1.966  0.5264 -0.2429 -2.8923
 1026SOL    MW4 4152   0.901   2.462   1.977  0.4372 -0.6235 -0.8576
 1027SOL     OW 4153   0.922   2.746   1.903  0.5158 -0.1091 -0.3802
 1027SOL    HW2 4154   0.909   2.656   1.933  0.3150 -0.8097 -2.4523
 1027SOL    HW3 4155   0.854   2.797   1.947 -0.3316 -1.2415 -0.3544
 1027SOL    MW4 4156   0.912   2.741   1.913  0.3775 -0.3507 -0.6500
 1028SOL     OW 4157   1.181   2.855   1.936 -0.3840 -0.0202 -0.2667
 1028SOL    HW2 4158   1.195   2.857   2.031  0.3538  0.2847 -0.3807
 1028SOL    HW3 4159   1.100   2.806   1.925  0.5171 -1.6978  0.3976
 1028SOL    MW4 4160   1.172   2.849   1.947 -0.1677 -0.2015 -0.1942
 1029SOL     OW 4161   1.144   3.137   1.859  0.4523  0.1693  0.5308
 1029SOL    HW2 4162   1.069   3.180   1.900 -0.6676 -1.3590  0.1218
 1029SOL    HW3 4163   1.137   3.045   1.886  0.8759 -0.4478 -1.3522
 1029SOL    MW4 4164   1.133   3.130   1.868  0.3604 -0.1137  0.2283
 1030SOL     OW 4165   0.905   3.259   1.943  0.4713  0.7199  0.4744
 1030SOL    HW2 4166   0.838   3.208   1.899  0.5675  0.9853  0.0141
 1030SOL    HW3 4167   0.887   3.248   2.036  1.3700 -1.3365  0.4138
 1030SOL    MW4 4168   0.894   3.251   1.949  0.6025  0.4835  0.4055
 1031SOL     OW 4169   0.890   3.516   1.840 -0.3189 -0.3198  0.1769
 1031SOL    HW2 4170   0.907   3.433   1.883  1.9867  0.2168  0.3699
 1031SOL    HW3 4171   0.902   3.498   1.747  0.3488 -0.1834  0.2317
 1031SOL    MW4 4172   0.894   3.503   1.834  0.0734 -0.2313  0.2096
 1032SOL     OW 4173   1.109   3.654   1.886 -0.0351  0.1230 -0.5363
 1032SOL    HW2 4174   1.111   3.660   1.981  0.0405 -2.1004 -0.3630
 1032SOL    HW3 4175   1.034   3.597   1.867  0.4693 -0.1710 -1.7432
 1032SOL    MW4 4176   1.099   3.647   1.896  0.0414 -0.2089 -0.6727
 1033SOL     OW 4177   1.094   3.924   1.831 -0.3666 -0.2714 -0.0125
 1033SOL    HW2 4178   1.101   3.833   1.861  0.5141  0.0689  0.8273
 1033SOL    HW3 4179   1.107   3.918   1.736 -1.6505 -1.1752 -0.1475
 1033SOL    MW4 4180   1.096   3.911   1.822 -0.4197 -0.3457  0.0805
 1034SOL     OW 4181   0.876   4.031   1.975 -0.3561 -0.1120  0.2671
 1034SOL    HW2 4182   0.875   3.995   2.063  0.2807  1.3163  0.8761
 1034SOL    HW3 4183   0.953   3.993   1.934 -0.8586 -1.0632  0.1982
 1034SOL    MW4 4184   0.886   4.021   1.981 -0.3384 -0.0491  0.3382
 1035SOL     OW 4185   0.897   4.276   1.855 -0.4680 -0.2839  0.5283
 1035SOL    HW2 4186   0.975   4.310   1.899 -0.4886  0.1413  0.2466
 1035SOL    HW3 4187   0.885   4.188   1.890  0.3580 -0.4943  0.3003
 1035SOL    MW4 4188   0.905   4.269   1.865 -0.3618 -0.2556  0.4610
 1036SOL     OW 4189   1.121   4.430   1.939 -0.0067 -0.0489 -0.1386
 1036SOL    HW2 4190   1.137   4.424   2.033 -0.4705 -2.6793 -0.2007
 1036SOL    HW3 4191   1.193   4.383   1.898 -0.7317 -0.4067 -1.0310
 1036SOL    MW4 4192   1.133   4.423   1.946 -0.1636 -0.4430 -0.2645
 1037SOL     OW 4193   1.576   4.646   1.835  0.0237 -0.0062  0.2834
 1037SOL    HW2 4194   1.657   4.686   1.867  0.0617  0.5083 -0.4456
 1037SOL    HW3 4195   1.586   4.553   1.856  1.1263 -0.0711 -0.4576
 1037SOL    MW4 4196   1.588   4.639   1.842  0.1742  0.0539  0.0894
 1038SOL     OW 4197   1.336   0.108   1.921 -0.5377  0.0688  0.2272
 1038SOL    HW2 4198   1.342   0.104   2.016 -1.1902 -0.4244  0.2528
 1038SOL    HW3 4199   1.421   0.078   1.890 -0.1617  0.6683  0.6547
 1038SOL    MW4 4200   1.348   0.104   1.929 -0.5744  0.0828  0.2869
 1039SOL     OW 4201   1.330   0.387   1.872 -0.1998 -0.4668 -0.0253
 1039SOL    HW2 4202   1.322   0.296   1.900  0.8995 -0.7482 -0.5952
 1039SOL    HW3 4203   1.424   0.405   1.873  0.0222 -0.7873 -4.2985
 1039SOL    MW4 4204   1.341   0.377   1.876 -0.0255 -0.5462 -0.6644
 1040SOL     OW 4205   1.578   0.473   1.938 -0.4295  0.0772 -0.8123
 1040SOL    HW2 4206   1.668   0.450   1.915 -0.0209  1.2964 -0.4319
 1040SOL    HW3 4207   1.580   0.489   2.032 -1.1105 -0.1894 -0.7479
 1040SOL    MW4 4208   1.590   0.472   1.947 -0.4655  0.2029 -0.7535
 1041SOL     OW 4209   1.560   0.720   1.826  0.1837 -0.0725 -0.0417
 1041SOL    HW2 4210   1.637   0.763   1.865  0.2683  1.5437 -1.9387
 1041SOL    HW3 4211   1.560   0.632   1.865  1.7922  0.5875  1.5510
 1041SOL    MW4 4212   1.570   0.714   1.837  0.4070  0.2277 -0.0820
 1042SOL     OW 4213   1.342   0.872   1.937  0.2564  0.1489  0.1468
 1042SOL    HW2 4214   1.350   0.871   2.033  0.1773 -0.8255  0.1502
 1042SOL    HW3 4215   1.421   0.829   1.906 -0.5239 -1.0943 -0.1573
 1042SOL    MW4 4216   1.353   0.866   1.946  0.1428 -0.1438  0.1070
 1043SOL     OW 4217   1.352   1.130   1.843 -0.7782  0.3527 -0.7881
 1043SOL    HW2 4218   1.360   1.042   1.880 -1.6445  0.1297 -1.1053
 1043SOL    HW3 4219   1.265   1.159   1.870 -1.3721  0.2450 -2.5191
 1043SOL    MW4 4220   1.341   1.122   1.851 -0.9711  0.3091 -1.0583
 1044SOL     OW 4221   1.588   1.252   1.969 -0.3947 -0.3196 -0.4889
 1044SOL    HW2 4222   1.585   1.347   1.959  0.5360 -0.2618 -0.2298
 1044SOL    HW3 4223   1.498   1.223   1.953 -0.8625  0.6971  0.2791
 1044SOL    MW4 4224   1.575   1.260   1.966 -0.3337 -0.1777 -0.3533
 1045SOL     OW 4225   1.589   1.516   1.934  0.1411  0.2794  0.1042
 1045SOL    HW2 4226   1.671   1.563   1.951  1.1535 -1.8613  1.3772
 1045SOL    HW3 4227   1.521   1.581   1.949  1.5802  1.9000 -0.2131
 1045SOL    MW4 4228   1.591   1.531   1.938  0.4646  0.2108  0.2302
 1046SOL     OW 4229   1.360   1.670   1.937 -0.1816  0.2091 -0.5225
 1046SOL    HW2 4230   1.369   1.676   2.032 -0.4649 -1.6492 -0.3575
 1046SOL    HW3 4231   1.276   1.625   1.924 -1.2886  2.5549 -1.7022
 1046SOL    MW4 4232   1.350   1.665   1.948 -0.3650  0.2736 -0.6562
 1047SOL     OW 4233   1.369   1.930   1.870  0.6169 -0.1599  0.0379
 1047SOL    HW2 4234   1.347   1.839   1.890 -0.4898  0.0846 -0.0408
 1047SOL    HW3 4235   1.304   1.981   1.918  1.3343  0.5910  0.2024
 1047SOL    MW4 4236   1.357   1.924   1.879  0.5655 -0.0285  0.0492
 1048SOL     OW 4237   1.579   2.006   2.010 -0.2248  0.5012  0.4482
 1048SOL    HW2 4238   1.575   2.095   1.974  1.5029  0.5980  0.4343
 1048SOL    HW3 4239   1.516   1.956   1.957 -0.2757  1.4326 -0.3889
 1048SOL    MW4 4240   1.570   2.011   1.998 -0.0037  0.6368  0.3359
 1049SOL     OW 4241   1.563   2.271   1.908 -0.7416 -0.2621  0.0567
 1049SOL    HW2 4242   1.632   2.331   1.936 -0.4679 -0.0741 -0.9841
 1049SOL    HW3 4243   1.566   2.274   1.812 -0.8209 -1.8221 -0.0150
 1049SOL    MW4 4244   1.573   2.279   1.899 -0.7160 -0.4430 -0.0901
 1050SOL     OW 4245   1.348   2.427   1.952  0.1816 -0.4530  0.1350
 1050SOL    HW2 4246   1.371   2.508   1.906 -0.1845  0.1077  0.9183
 1050SOL    HW3 4247   1.427   2.374   1.948  0.9759  0.6313  1.0617
 1050SOL    MW4 4248   1.361   2.431   1.946  0.2381 -0.2360  0.3607
 1051SOL     OW 4249   1.371   2.676   1.839  0.1863 -0.2526 -0.1127
 1051SOL    HW2 4250   1.318   2.747   1.876  3.1521  1.7616  0.4328
 1051SOL    HW3 4251   1.372   2.693   1.744  0.6715  0.2711 -0.0120
 1051SOL    MW4 4252   1.364   2.687   1.831  0.6416  0.0820 -0.0275
 1052SOL     OW 4253   1.588   2.849   1.944 -0.4088 -0.1930  0.2182
 1052SOL    HW2 4254   1.675   2.814   1.926 -0.5063 -0.6296  0.5731
 1052SOL    HW3 4255   1.528   2.781   1.913 -0.6378  0.4263 -0.6902
 1052SOL    MW4 4256   1.592   2.835   1.938 -0.4519 -0.1690  0.1451
 1053SOL     OW 4257   1.577   3.117   1.879 -0.3509 -0.0900  0.2673
 1053SOL    HW2 4258   1.570   3.025   1.902 -0.0158 -0.1192  0.2515
 1053SOL    HW3 4259   1.560   3.120   1.785 -1.2774 -0.0245  0.4348
 1053SOL    MW4 4260   1.574   3.105   1.870 -0.4290 -0.0851  0.2873
 1054SOL     OW 4261   1.340   3.304   1.938 -0.4879 -0.3041 -0.1971
 1054SOL    HW2 4262   1.414   3.245   1.945  0.7651  0.9082 -2.5459
 1054SOL    HW3 4263   1.274   3.255   1.889 -0.2033 -0.4261 -0.4546
 1054SOL    MW4 4264   1.341   3.290   1.932 -0.2850 -0.1600 -0.5410
 1055SOL     OW 4265   1.335   3.539   1.798 -0.9455 -0.2134  0.3971
 1055SOL    HW2 4266   1.327   3.453   1.840 -0.9356  0.6032  2.1127
 1055SOL    HW3 4267   1.253   3.584   1.821 -0.7758  0.3900 -0.1668
 1055SOL    MW4 4268   1.323   3.534   1.806 -0.9217 -0.0260  0.5490
 1056SOL     OW 4269   1.559   3.605   1.921  0.1005 -0.2314  0.0129
 1056SOL    HW2 4270   1.553   3.600   2.016  0.2760  3.3557  0.2854
 1056SOL    HW3 4271   1.469   3.593   1.891  0.0299 -1.2750  0.6320
 1056SOL    MW4 4272   1.546   3.603   1.930  0.1143  0.1040  0.1308
 1057SOL     OW 4273   1.588   3.878   1.848 -0.5594 -0.1273 -0.4878
 1057SOL    HW2 4274   1.669   3.912   1.887  0.2859 -1.7011 -0.8160
 1057SOL    HW3 4275   1.585   3.787   1.876 -2.5656  0.0882  0.0323
 1057SOL    MW4 4276   1.598   3.871   1.856 -0.7125 -0.3066 -0.4624
 1058SOL     OW 4277   1.346   3.997   1.931  0.1050  0.5302  0.0206
 1058SOL    HW2 4278   1.406   3.931   1.897 -1.3361 -0.9036  0.2027
 1058SOL    HW3 4279   1.261   3.976   1.891 -0.3297  2.3988 -0.0825
 1058SOL    MW4 4280   1.342   3.985   1.921 -0.1425  0.5872  0.0310
 1059SOL     OW 4281   1.327   4.280   1.845  0.0420 -0.1769 -0.3063
 1059SOL    HW2 4282   1.325   4.192   1.882  0.4727  0.1277  0.4457
 1059SOL    HW3 4283   1.335   4.266   1.750 -0.5164 -0.9515 -0.2473
 1059SOL    MW4 4284   1.327   4.267   1.837  0.0252 -0.2389 -0.1993
 1060SOL     OW 4285   1.590   4.388   1.920  0.0581 -0.4524  0.6584
 1060SOL    HW2 4286   1.588   4.415   2.012 -1.7607  2.1975 -0.1073
 1060SOL    HW3 4287   1.501   4.356   1.902 -0.5376  1.9860 -0.9702
 1060SOL    MW4 4288   1.578   4.387   1.930 -0.2606  0.2189  0.3425
 1061SOL     OW 4289   2.052   0.015   1.846  0.1784 -0.1496 -0.0677
 1061SOL    HW2 4290   2.141   0.039   1.873  0.2049  1.5414 -1.5328
 1061SOL    HW3 4291   2.033  -0.065   1.894  2.6848 -0.8147 -0.1020
 1061SOL    MW4 4292   2.061   0.008   1.856  0.5128 -0.0142 -0.2657
 1062SOL     OW 4293   1.805   0.097   1.944 -0.1550  0.1173 -0.2214
 1062SOL    HW2 4294   1.809   0.108   2.039 -0.5248 -1.9298  0.0566
 1062SOL    HW3 4295   1.897   0.087   1.917 -0.1922 -2.1204  0.3260
 1062SOL    MW4 4296   1.818   0.097   1.953 -0.2087 -0.4481 -0.1124
 1063SOL     OW 4297   1.833   0.370   1.881 -0.2659 -0.0691 -0.0107
 1063SOL    HW2 4298   1.819   0.282   1.914 -0.5850 -0.2759 -0.6988
 1063SOL    HW3 4299   1.820   0.364   1.787  2.6094  0.1156 -0.4683
 1063SOL    MW4 4300   1.829   0.358   1.873  0.0713 -0.0721 -0.1621
 1064SOL     OW 4301   2.065   0.512   1.937 -0.1382 -0.2059  0.1768
 1064SOL    HW2 4302   2.045   0.603   1.917 -0.1018  0.1310  1.5738
 1064SOL    HW3 4303   1.988   0.463   1.909 -0.8386  0.4609  0.8986
 1064SOL    MW4 4304   2.053   0.517   1.931 -0.2255 -0.0734  0.4563
 1065SOL     OW 4305   2.014   0.771   1.896 -0.0455 -0.8191 -0.0053
 1065SOL    HW2 4306   2.090   0.824   1.918  0.0950 -0.5241 -1.2058
 1065SOL    HW3 4307   1.995   0.791   1.804 -2.6992  0.5496  0.7646
 1065SOL    MW4 4308   2.021   0.780   1.887 -0.3769 -0.5997 -0.0621
 1066SOL     OW 4309   1.770   0.886   1.991  0.0770 -0.1918 -0.3474
 1066SOL    HW2 4310   1.770   0.961   1.932  1.0530  0.8222  0.9233
 1066SOL    HW3 4311   1.846   0.834   1.965  1.7611  1.3477  1.3430
 1066SOL    MW4 4312   1.780   0.889   1.980  0.4280  0.1451  0.0433
 1067SOL     OW 4313   1.805   1.124   1.842  0.4040  0.1173  0.1571
 1067SOL    HW2 4314   1.723   1.163   1.871  1.0495  1.5679  0.0360
 1067SOL    HW3 4315   1.795   1.113   1.748  0.4995  0.6537  0.0846
 1067SOL    MW4 4316   1.793   1.127   1.834  0.5018  0.3794  0.1316
 1068SOL     OW 4317   2.011   1.243   2.008  0.2672  0.1827  0.2655
 1068SOL    HW2 4318   2.088   1.197   1.973 -1.0705 -0.0715 -2.5217
 1068SOL    HW3 4319   1.936   1.199   1.967 -1.3640  0.7409  2.5467
 1068SOL    MW4 4320   2.011   1.231   1.998 -0.1245  0.2227  0.1987
 1069SOL     OW 4321   2.003   1.492   1.904 -0.2286  0.4730 -0.5787
 1069SOL    HW2 4322   2.013   1.400   1.929 -0.3258  0.6819  0.2432
 1069SOL    HW3 4323   2.007   1.491   1.809 -0.3103 -0.3968 -0.5822
 1069SOL    MW4 4324   2.005   1.479   1.895 -0.2520  0.3858 -0.4708
 1070SOL     OW 4325   1.804   1.667   2.011 -0.2059 -0.5769  0.3968
 1070SOL    HW2 4326   1.804   1.759   1.984  0.0326 -0.9166 -0.7998
 1070SOL    HW3 4327   1.890   1.634   1.984  0.7968 -0.4464  3.3082
 1070SOL    MW4 4328   1.816   1.674   2.004 -0.0421 -0.6044  0.6227
 1071SOL     OW 4329   1.821   1.928   1.906  0.0644  0.0376 -0.2550
 1071SOL    HW2 4330   1.738   1.964   1.939  0.9881  0.3513  1.8318
 1071SOL    HW3 4331   1.809   1.922   1.812 -2.9859 -1.5179  0.1530
 1071SOL    MW4 4332   1.808   1.932   1.898 -0.2162 -0.1261  0.0741
 1072SOL     OW 4333   2.030   2.073   1.986  0.1707  0.4777  0.0057
 1072SOL    HW2 4334   1.959   2.016   1.958 -0.3932  0.8498  0.6869
 1072SOL    HW3 4335   2.107   2.038   1.941 -0.4208  0.0361 -0.6841
 1072SOL    MW4 4336   2.031   2.061   1.976  0.0184  0.4685  0.0045
 1073SOL     OW 4337   2.009   2.322   1.860  0.1802 -0.3868 -0.5685
 1073SOL    HW2 4338   2.097   2.351   1.883  0.0609 -0.1918 -0.3635
 1073SOL    HW3 4339   1.999   2.238   1.904 -0.4887  0.5365  1.0706
 1073SOL    MW4 4340   2.019   2.315   1.869  0.0763 -0.2394 -0.3252
 1074SOL     OW 4341   1.786   2.432   1.969  0.2366 -0.5094 -0.3350
 1074SOL    HW2 4342   1.800   2.442   2.064 -0.1173  1.1598 -0.4464
 1074SOL    HW3 4343   1.858   2.376   1.940  1.2165  0.2155  0.6754
 1074SOL    MW4 4344   1.798   2.426   1.978  0.3191 -0.1934 -0.2165
 1075SOL     OW 4345   1.832   2.700   1.890  0.2578  0.3841  0.1425
 1075SOL    HW2 4346   1.824   2.608   1.914  0.7523  0.4662  0.6525
 1075SOL    HW3 4347   1.809   2.703   1.797 -1.9144  0.0821  0.6311
 1075SOL    MW4 4348   1.828   2.688   1.881  0.0365  0.3550  0.2744
 1076SOL     OW 4349   2.037   2.876   1.962 -0.0365 -0.0288  0.1495
 1076SOL    HW2 4350   2.042   2.880   2.058  1.6111  2.3589  0.0320
 1076SOL    HW3 4351   1.969   2.812   1.944 -0.4870 -0.4115  2.9291
 1076SOL    MW4 4352   2.029   2.868   1.972  0.1214  0.2358  0.5008
 1077SOL     OW 4353   2.063   3.122   1.857  0.1150 -0.1194  0.0306
 1077SOL    HW2 4354   1.978   3.165   1.868  1.0855  1.4935  1.4544
 1077SOL    HW3 4355   2.057   3.043   1.910 -0.6383 -0.2133 -0.1890
 1077SOL    MW4 4356   2.051   3.117   1.865  0.1435  0.0811  0.1895
 1078SOL     OW 4357   1.818   3.240   1.929  0.1534 -0.7785 -0.4433
 1078SOL    HW2 4358   1.816   3.227   2.024 -1.0465 -1.4746 -0.5577
 1078SOL    HW3 4359   1.739   3.197   1.897 -0.0500  0.4583 -1.6437
 1078SOL    MW4 4360   1.808   3.233   1.938 -0.0318 -0.7071 -0.6168
 1079SOL     OW 4361   1.824   3.507   1.882  0.2927  0.0931  0.3352
 1079SOL    HW2 4362   1.812   3.414   1.902  1.5325 -0.2506 -0.3911
 1079SOL    HW3 4363   1.747   3.550   1.917 -0.0328 -1.1472  1.1766
 1079SOL    MW4 4364   1.812   3.500   1.889  0.4134 -0.1159  0.3504
 1080SOL     OW 4365   2.015   3.862   1.844  0.0747  0.1387 -0.0531
 1080SOL    HW2 4366   2.097   3.907   1.865  1.2469 -2.1676  0.3860
 1080SOL    HW3 4367   2.019   3.851   1.749 -0.4162  1.2950 -0.2221
 1080SOL    MW4 4368   2.027   3.867   1.834  0.1645 -0.0129 -0.0175
 1081SOL     OW 4369   2.030   3.640   1.984  0.3923 -0.3514 -0.2085
 1081SOL    HW2 4370   2.026   3.715   1.925  0.9505 -0.4818 -0.4210
 1081SOL    HW3 4371   1.957   3.584   1.957 -0.5251  0.4975  0.4881
 1081SOL    MW4 4372   2.020   3.642   1.973  0.3445 -0.2565 -0.1446
 1082SOL     OW 4373   1.806   3.997   1.949 -0.3486 -0.3227  0.0914
 1082SOL    HW2 4374   1.832   4.087   1.926 -2.5366  0.3067 -0.0611
 1082SOL    HW3 4375   1.876   3.942   1.915  0.2277  1.2261 -1.2896
 1082SOL    MW4 4376   1.818   4.002   1.941 -0.5612 -0.0353 -0.1109
 1083SOL     OW 4377   1.836   4.265   1.853  0.0073  0.2522  0.2001
 1083SOL    HW2 4378   1.755   4.301   1.889 -0.1304 -0.3552  0.5024
 1083SOL    HW3 4379   1.822   4.264   1.759  0.4960  2.1630  0.0863
 1083SOL    MW4 4380   1.824   4.270   1.845  0.0535  0.4244  0.2249
 1084SOL     OW 4381   2.029   4.433   1.975 -0.1387 -0.4822  0.2728
 1084SOL    HW2 4382   2.112   4.393   1.949 -0.1263  1.3945 -2.8193
 1084SOL    HW3 4383   1.962   4.381   1.930 -0.4841 -0.3528  0.6310
 1084SOL    MW4 4384   2.031   4.421   1.966 -0.1826 -0.2174 -0.0880
 1085SOL     OW 4385   2.534   0.042   1.905  0.0853  0.4634  0.2905
 1085SOL    HW2 4386   2.529  -0.050   1.931  2.6718  0.2000 -0.0512
 1085SOL    HW3 4387   2.619   0.072   1.937  0.0649  2.2308 -1.2050
 1085SOL    MW4 4388   2.544   0.034   1.912  0.4239  0.6618  0.0482
 1086SOL     OW 4389   2.277   0.148   1.996 -0.2099 -0.2189 -0.3617
 1086SOL    HW2 4390   2.248   0.138   2.087  0.1548  0.9275 -0.1095
 1086SOL    HW3 4391   2.363   0.105   1.994 -0.9188 -1.6796 -0.5772
 1086SOL    MW4 4392   2.285   0.141   2.008 -0.2551 -0.2604 -0.3567
 1087SOL     OW 4393   2.265   0.393   1.807 -0.6220  0.2992  0.4655
 1087SOL    HW2 4394   2.256   0.301   1.833 -0.5937 -0.2228 -1.2964
 1087SOL    HW3 4395   2.193   0.437   1.851 -1.7929 -0.9210 -0.1712
 1087SOL    MW4 4396   2.255   0.387   1.816 -0.7730  0.0693  0.1490
 1088SOL     OW 4397   2.490   0.479   1.957 -0.3345  0.2299  0.0112
 1088SOL    HW2 4398   2.570   0.443   1.917  0.2002  0.7965  0.5606
 1088SOL    HW3 4399   2.419   0.436   1.910  0.2945 -0.2663 -0.5044
 1088SOL    MW4 4400   2.492   0.469   1.945 -0.1810  0.2392  0.0156
 1089SOL     OW 4401   2.456   0.751   1.911 -0.1690  0.0038  0.2057
 1089SOL    HW2 4402   2.461   0.662   1.945  2.1849 -0.8189 -2.1541
 1089SOL    HW3 4403   2.444   0.741   1.817 -1.7500  2.1997  0.1323
 1089SOL    MW4 4404   2.455   0.738   1.903 -0.0668  0.1850 -0.1154
 1090SOL     OW 4405   2.238   0.878   2.023  0.2183  0.2522 -0.1012
 1090SOL    HW2 4406   2.236   0.855   2.116  0.1632 -1.9910 -0.6326
 1090SOL    HW3 4407   2.320   0.842   1.991 -0.1693  0.2689 -1.1229
 1090SOL    MW4 4408   2.248   0.871   2.031  0.1600 -0.0415 -0.3061
 1091SOL     OW 4409   2.249   1.150   1.914  0.3040  0.0287  0.0887
 1091SOL    HW2 4410   2.337   1.186   1.925  0.3077  0.0302  0.0524
 1091SOL    HW3 4411   2.256   1.059   1.943  0.1505  0.2301  0.7650
 1091SOL    MW4 4412   2.262   1.143   1.919  0.2842  0.0554  0.1732
 1092SOL     OW 4413   2.486   1.284   1.970  0.0307 -0.0385  0.2916
 1092SOL    HW2 4414   2.503   1.276   2.064 -1.2383  0.6010  0.5758
 1092SOL    HW3 4415   2.461   1.375   1.957  0.4931 -0.0466 -0.7265
 1092SOL    MW4 4416   2.485   1.295   1.981 -0.0756  0.0448  0.1948
 1093SOL     OW 4417   2.460   1.551   1.891 -0.1699 -0.2017  0.3028
 1093SOL    HW2 4418   2.379   1.593   1.920  0.3762  0.6747  0.6042
 1093SOL    HW3 4419   2.465   1.571   1.797 -0.6343 -0.8316  0.1391
 1093SOL    MW4 4420   2.450   1.559   1.882 -0.1590 -0.1693  0.3210
 1094SOL     OW 4421   2.217   1.662   1.987 -0.0542  0.1345 -0.0861
 1094SOL    HW2 4422   2.227   1.642   2.080  1.2400 -0.4272 -0.3332
 1094SOL    HW3 4423   2.153   1.597   1.956  2.3573 -2.1883 -0.3743
 1094SOL    MW4 4424   2.210   1.651   1.995  0.4344 -0.2462 -0.1568
 1095SOL     OW 4425   2.245   1.926   1.898 -0.0737 -0.3059  0.0156
 1095SOL    HW2 4426   2.330   1.962   1.920 -0.8639  0.0904  2.6405
 1095SOL    HW3 4427   2.253   1.833   1.919 -0.2383 -0.2922  0.1402
 1095SOL    MW4 4428   2.257   1.918   1.904 -0.1998 -0.2519  0.3784
 1096SOL     OW 4429   2.490   2.027   1.952 -0.4650  0.2615  0.7272
 1096SOL    HW2 4430   2.566   1.990   1.907 -0.8092  0.5068 -0.0654
 1096SOL    HW3 4431   2.489   2.119   1.925 -1.1050  0.2324  0.6480
 1096SOL    MW4 4432   2.500   2.035   1.942 -0.5949  0.2899  0.6123
 1097SOL     OW 4433   2.497   2.300   1.877 -0.6038  0.1324  0.2394
 1097SOL    HW2 4434   2.568   2.329   1.935 -0.5032  0.1248  0.1194
 1097SOL    HW3 4435   2.420   2.348   1.908 -0.0293  2.1248 -1.2460
 1097SOL    MW4 4436   2.497   2.310   1.889 -0.5150  0.3943  0.0275
 1098SOL     OW 4437   2.265   2.429   1.932 -0.6420 -0.2991  0.0670
 1098SOL    HW2 4438   2.249   2.435   2.026  0.0716  1.8582  0.0763
 1098SOL    HW3 4439   2.268   2.520   1.902  0.4418 -0.9277 -1.8234
 1098SOL    MW4 4440   2.263   2.442   1.940 -0.4048 -0.0973 -0.1811
 1099SOL     OW 4441   2.266   2.727   1.901  0.3560 -0.1005 -0.0143
 1099SOL    HW2 4442   2.185   2.765   1.934  1.3978  0.7825  1.6039
 1099SOL    HW3 4443   2.260   2.738   1.806 -1.4341 -0.1058  0.0845
 1099SOL    MW4 4444   2.255   2.734   1.893  0.2573  0.0155  0.2123
 1100SOL     OW 4445   2.482   2.888   1.960  0.0804 -0.0754 -0.4726
 1100SOL    HW2 4446   2.465   2.976   1.927  1.8228  0.6841  0.5927
 1100SOL    HW3 4447   2.398   2.843   1.952 -0.7618  1.5886 -1.2769
 1100SOL    MW4 4448   2.469   2.894   1.954  0.1993  0.2444 -0.4381
 1101SOL     OW 4449   2.448   3.160   1.872  0.0676  0.1043  0.1867
 1101SOL    HW2 4450   2.367   3.202   1.899  1.0135  1.6115  0.7797
 1101SOL    HW3 4451   2.442   3.155   1.776 -0.1814  1.3787  0.1331
 1101SOL    MW4 4452   2.437   3.165   1.863  0.1597  0.4716  0.2578
 1102SOL     OW 4453   2.226   3.329   1.968  0.6732  0.5605  0.1673
 1102SOL    HW2 4454   2.238   3.290   2.055  0.7283 -0.7792 -0.4344
 1102SOL    HW3 4455   2.165   3.271   1.924  1.6788  0.4915 -1.1603
 1102SOL    MW4 4456   2.220   3.317   1.974  0.8130  0.3748 -0.0873
 1103SOL     OW 4457   2.227   3.557   1.814  0.3039  0.1441  0.4736
 1103SOL    HW2 4458   2.234   3.467   1.845 -2.6832 -0.3382 -0.1001
 1103SOL    HW3 4459   2.157   3.596   1.867 -0.1346  1.3490 -0.9365
 1103SOL    MW4 4460   2.218   3.550   1.825 -0.1481  0.2394  0.2118
 1104SOL     OW 4461   2.477   3.628   1.911 -0.5660 -0.0913 -0.1900
 1104SOL    HW2 4462   2.469   3.606   2.003  0.7670  0.8962  0.1766
 1104SOL    HW3 4463   2.388   3.616   1.875 -1.1429 -0.2195  1.2601
 1104SOL    MW4 4464   2.464   3.623   1.918 -0.4663  0.0222  0.0498
 1105SOL     OW 4465   2.516   3.911   1.860  0.5607  0.2305 -0.6494
 1105SOL    HW2 4466   2.434   3.945   1.895  1.1265  1.2098 -0.2609
 1105SOL    HW3 4467   2.510   3.816   1.872  0.0381  0.4146  0.5616
 1105SOL    MW4 4468   2.504   3.903   1.866  0.5665  0.3841 -0.4383
 1106SOL     OW 4469   2.245   3.990   1.918 -0.7798 -0.1714  0.0106
 1106SOL    HW2 4470   2.253   3.980   2.013  0.4263 -0.7722 -0.1513
 1106SOL    HW3 4471   2.221   4.082   1.905  1.6894  0.6148  0.7494
 1106SOL    MW4 4472   2.243   4.001   1.929 -0.2949 -0.1464  0.0868
 1107SOL     OW 4473   2.256   4.304   1.910  0.1343  0.4060  0.1642
 1107SOL    HW2 4474   2.339   4.335   1.943  0.7244  0.1164 -0.9949
 1107SOL    HW3 4475   2.269   4.299   1.815 -0.7448 -0.9587  0.1044
 1107SOL    MW4 4476   2.268   4.307   1.902  0.0961  0.1884  0.0035
 1108SOL     OW 4477   2.502   4.448   1.961 -0.2879 -0.1540 -0.0294
 1108SOL    HW2 4478   2.483   4.437   2.054  0.3501 -0.8409  0.0169
 1108SOL    HW3 4479   2.575   4.389   1.944 -1.3680 -1.1655 -1.2962
 1108SOL    MW4 4480   2.509   4.439   1.971 -0.3464 -0.3781 -0.1904
 1109SOL     OW 4481   2.921   4.652   1.860 -0.2948  0.0857  0.4576
 1109SOL    HW2 4482   2.996   4.700   1.894 -0.6557 -0.3781  1.9521
 1109SOL    HW3 4483   2.932   4.563   1.895 -0.9193 -0.2869 -0.2767
 1109SOL    MW4 4484   2.932   4.647   1.869 -0.4249 -0.0247  0.5578
 1110SOL     OW 4485   2.758   0.164   1.987  0.1462 -0.4998 -0.0202
 1110SOL    HW2 4486   2.769   0.152   2.082  0.6656 -0.7425 -0.1100
 1110SOL    HW3 4487   2.810   0.093   1.948  1.6620  0.8597 -0.5275
 1110SOL    MW4 4488   2.766   0.153   1.995  0.4148 -0.3524 -0.0989
 1111SOL     OW 4489   2.747   0.410   1.857 -0.0830 -0.3344 -0.3364
 1111SOL    HW2 4490   2.828   0.456   1.878 -0.2401 -0.4660  0.6086
 1111SOL    HW3 4491   2.751   0.329   1.909 -1.3517  0.2220  0.6589
 1111SOL    MW4 4492   2.758   0.405   1.867 -0.2708 -0.2783 -0.0805
 1112SOL     OW 4493   2.967   0.504   2.021 -0.0786 -0.2709 -0.0417
 1112SOL    HW2 4494   3.047   0.468   1.982 -0.9069 -0.9365 -1.1493
 1112SOL    HW3 4495   2.962   0.594   1.987  0.1962 -0.2325  0.0202
 1112SOL    MW4 4496   2.977   0.512   2.011 -0.1514 -0.3536 -0.1798
 1113SOL     OW 4497   2.945   0.739   1.893  0.1049 -0.0060  0.4247
 1113SOL    HW2 4498   3.020   0.795   1.914  1.2297 -1.1443 -0.5041
 1113SOL    HW3 4499   2.869   0.787   1.928  1.0414  2.0749 -0.2972
 1113SOL    MW4 4500   2.945   0.753   1.900  0.3767  0.1184  0.2069
 1114SOL     OW 4501   2.709   0.877   1.986 -0.0980 -0.0974 -0.3196
 1114SOL    HW2 4502   2.696   0.964   1.948 -0.4613  0.0022  0.0303
 1114SOL    HW3 4503   2.630   0.828   1.962 -0.5612  0.1249  0.7429
 1114SOL    MW4 4504   2.697   0.882   1.977 -0.2069 -0.0549 -0.1332
 1115SOL     OW 4505   2.701   1.134   1.884  0.1420  0.6120  0.1875
 1115SOL    HW2 4506   2.626   1.191   1.899 -0.1270  0.0684  0.8919
 1115SOL    HW3 4507   2.710   1.131   1.789 -0.1029  1.4917  0.1326
 1115SOL    MW4 4508   2.693   1.141   1.873  0.0741  0.6565  0.2732
 1116SOL     OW 4509   2.933   1.248   1.973  0.2711  0.0104 -0.0929
 1116SOL    HW2 4510   2.922   1.340   1.948  1.9987 -0.2743 -1.9892
 1116SOL    HW3 4511   2.854   1.204   1.942 -0.0098  0.6217 -0.2440
 1116SOL    MW4 4512   2.921   1.254   1.966  0.4618  0.0536 -0.3631
 1117SOL     OW 4513   2.927   1.494   1.867  0.1796 -0.3404 -0.3410
 1117SOL    HW2 4514   2.998   1.552   1.895  0.5950 -0.5559 -0.9350
 1117SOL    HW3 4515   2.913   1.515   1.775 -1.2414  0.4266  0.0403
 1117SOL    MW4 4516   2.935   1.504   1.859  0.0470 -0.2676 -0.3692
 1118SOL     OW 4517   2.704   1.652   1.988 -0.2792 -0.3395  0.4135
 1118SOL    HW2 4518   2.759   1.592   1.939 -0.5106 -0.2150  0.0010
 1118SOL    HW3 4519   2.615   1.622   1.971 -0.3609 -0.2953  0.7553
 1118SOL    MW4 4520   2.699   1.640   1.979 -0.3204 -0.3171  0.4041
 1119SOL     OW 4521   2.707   1.891   1.842  0.1193 -0.1173  0.1807
 1119SOL    HW2 4522   2.779   1.946   1.873 -0.2093 -0.2376  1.1677
 1119SOL    HW3 4523   2.712   1.813   1.896 -1.2607  0.2256  0.8300
 1119SOL    MW4 4524   2.717   1.888   1.853 -0.1061 -0.0879  0.3967
 1120SOL     OW 4525   2.902   2.048   1.958  0.8552 -0.0179 -0.1591
 1120SOL    HW2 4526   2.893   2.058   2.053  0.9111  0.4537 -0.2015
 1120SOL    HW3 4527   2.992   2.018   1.945  0.8467 -0.0850 -0.0657
 1120SOL    MW4 4528   2.912   2.045   1.969  0.8612  0.0353 -0.1525
 1121SOL     OW 4529   2.935   2.320   1.865 -0.1573  0.1161 -0.1564
 1121SOL    HW2 4530   3.005   2.368   1.909 -1.6323  0.6295  1.6879
 1121SOL    HW3 4531   2.944   2.230   1.896 -0.3896  0.2132  0.2016
 1121SOL    MW4 4532   2.945   2.314   1.875 -0.3827  0.1967  0.1340
 1122SOL     OW 4533   2.731   2.482   1.988 -0.1181  0.5674 -0.1009
 1122SOL    HW2 4534   2.745   2.574   1.968  1.2001  0.5824  0.8764
 1122SOL    HW3 4535   2.801   2.436   1.941  0.4024  0.2391  0.9767
 1122SOL    MW4 4536   2.742   2.488   1.979  0.1249  0.5257  0.1702
 1123SOL     OW 4537   2.705   2.739   1.914 -0.1056  0.0854  0.2367
 1123SOL    HW2 4538   2.632   2.800   1.921  0.2668  0.3572  2.0436
 1123SOL    HW3 4539   2.708   2.716   1.821 -0.8932  2.0107 -0.2961
 1123SOL    MW4 4540   2.696   2.744   1.903 -0.1602  0.3753  0.4047
 1124SOL     OW 4541   2.922   2.862   2.012  0.2391 -0.1524 -0.8421
 1124SOL    HW2 4542   2.922   2.952   1.979  2.5902  0.3730  0.4732
 1124SOL    HW3 4543   2.838   2.826   1.983 -0.8217  2.5111 -1.2508
 1124SOL    MW4 4544   2.911   2.869   2.004  0.4096  0.2682 -0.7224
 1125SOL     OW 4545   2.938   3.106   1.884 -0.2388  0.0126 -0.1431
 1125SOL    HW2 4546   3.010   3.152   1.928 -0.4861  1.6348 -1.3762
 1125SOL    HW3 4547   2.862   3.162   1.899 -0.8289 -0.7047 -0.4894
 1125SOL    MW4 4548   2.938   3.120   1.891 -0.3490  0.1318 -0.3514
 1126SOL     OW 4549   2.706   3.248   1.936  0.1045 -0.1708 -0.0938
 1126SOL    HW2 4550   2.716   3.338   1.904  1.8670 -0.6277 -0.9299
 1126SOL    HW3 4551   2.619   3.222   1.907 -0.3137  1.1733 -0.0895
 1126SOL    MW4 4552   2.696   3.257   1.928  0.2818 -0.0536 -0.2035
 1127SOL     OW 4553   2.736   3.517   1.881 -0.2744  0.2981  0.2686
 1127SOL    HW2 4554   2.808   3.577   1.905 -0.2857  0.9002 -1.1512
 1127SOL    HW3 4555   2.657   3.571   1.889 -0.4007  0.1312  0.1340
 1127SOL    MW4 4556   2.735   3.532   1.886 -0.2925  0.3555  0.0635
 1128SOL     OW 4557   2.948   3.676   1.951  0.1679 -0.0964 -0.4728
 1128SOL    HW2 4558   2.939   3.661   2.045 -0.3624  1.0253 -0.3281
 1128SOL    HW3 4559   3.008   3.608   1.921  0.4772 -0.3573  0.7055
 1128SOL    MW4 4560   2.955   3.665   1.960  0.1388  0.0172 -0.2983
 1129SOL     OW 4561   2.976   3.965   1.875  0.3932  0.0111  0.0369
 1129SOL    HW2 4562   2.985   3.876   1.907  0.3556 -0.2688 -0.7240
 1129SOL    HW3 4563   2.954   3.956   1.782 -0.8609  0.7816  0.2278
 1129SOL    MW4 4564   2.974   3.952   1.867  0.2229  0.0756 -0.0384
 1130SOL     OW 4565   2.722   4.041   1.980 -0.0526  0.0292  0.2105
 1130SOL    HW2 4566   2.805   3.997   1.964 -0.8216 -0.7014 -1.9890
 1130SOL    HW3 4567   2.658   3.991   1.929 -1.4891  1.7496  0.2809
 1130SOL    MW4 4568   2.724   4.029   1.971 -0.3436  0.1597 -0.0703
 1131SOL     OW 4569   2.734   4.301   1.889  0.2267  0.1326  0.6307
 1131SOL    HW2 4570   2.740   4.214   1.929  2.3553  0.8205  1.8693
 1131SOL    HW3 4571   2.724   4.283   1.795  0.1460 -1.4339  0.9163
 1131SOL    MW4 4572   2.733   4.287   1.882  0.4969  0.0167  0.8320
 1132SOL     OW 4573   2.972   4.405   1.969  0.6679 -0.5676  0.2147
 1132SOL    HW2 4574   2.963   4.409   2.065  0.9322 -0.2803  0.2268
 1132SOL    HW3 4575   2.887   4.372   1.939  0.3363  0.0143  0.4999
 1132SOL    MW4 4576   2.959   4.401   1.978  0.6588 -0.4525  0.2540
 1133SOL     OW 4577   3.388   4.665   1.920 -0.4418 -0.0601 -0.2239
 1133SOL    HW2 4578   3.364   4.578   1.951 -2.5317  0.5550 -0.0615
 1133SOL    HW3 4579   3.388   4.658   1.825 -0.7483 -0.2124 -0.2127
 1133SOL    MW4 4580   3.385   4.653   1.912 -0.7579  0.0010 -0.2009
 1134SOL     OW 4581   3.141   0.131   1.970  0.0796 -0.3329 -0.2473
 1134SOL    HW2 4582   3.128   0.133   2.065 -0.3378  2.5420 -0.3165
 1134SOL    HW3 4583   3.228   0.093   1.958 -0.2498 -1.5992  1.2132
 1134SOL    MW4 4584   3.150   0.126   1.981 -0.0191 -0.1207 -0.0637
 1135SOL     OW 4585   3.167   0.396   1.874 -0.5285 -0.0164  0.1431
 1135SOL    HW2 4586   3.170   0.307   1.910 -0.7387 -0.0342  0.1197
 1135SOL    HW3 4587   3.174   0.383   1.780  0.3405  0.0514  0.2000
 1135SOL    MW4 4588   3.168   0.382   1.866 -0.4416 -0.0098  0.1475
 1136SOL     OW 4589   3.385   0.518   2.010 -0.0272 -0.5168 -0.5643
 1136SOL    HW2 4590   3.458   0.475   1.966  0.4598 -1.3385  1.0490
 1136SOL    HW3 4591   3.308   0.491   1.960  0.6933 -0.0916 -1.9351
 1136SOL    MW4 4592   3.384   0.509   1.997  0.1323 -0.5691 -0.5323
 1137SOL     OW 4593   3.399   0.760   1.857 -0.0398 -0.0260  0.4646
 1137SOL    HW2 4594   3.315   0.794   1.887  0.8475  1.8377  0.8773
 1137SOL    HW3 4595   3.403   0.672   1.895 -1.5156  0.1092  0.9780
 1137SOL    MW4 4596   3.388   0.753   1.866 -0.1175  0.2377  0.5867
 1138SOL     OW 4597   3.156   0.875   1.962  0.2855 -0.2249  0.1721
 1138SOL    HW2 4598   3.164   0.884   2.057  0.6420  0.1811  0.1116
 1138SOL    HW3 4599   3.149   0.965   1.931  2.0630 -0.2386 -0.3323
 1138SOL    MW4 4600   3.156   0.888   1.970  0.5670 -0.1731  0.0976
 1139SOL     OW 4601   3.153   1.141   1.858 -0.0754 -0.1303 -0.1402
 1139SOL    HW2 4602   3.217   1.192   1.907 -0.3643 -0.5917  0.7218
 1139SOL    HW3 4603   3.068   1.171   1.890 -0.2461 -1.1571  0.3861
 1139SOL    MW4 4604   3.150   1.152   1.869 -0.1361 -0.3266  0.0430
 1140SOL     OW 4605   3.356   1.292   1.991 -0.5704 -0.2358  0.3822
 1140SOL    HW2 4606   3.357   1.305   2.086 -1.2171  0.9572  0.2422
 1140SOL    HW3 4607   3.363   1.380   1.955 -0.9908 -0.6248 -0.6753
 1140SOL    MW4 4608   3.357   1.305   1.999 -0.7110 -0.1297  0.2242
 1141SOL     OW 4609   3.343   1.549   1.872  0.7556 -0.2461 -0.1269
 1141SOL    HW2 4610   3.413   1.609   1.896  0.3628  0.0810  0.2214
 1141SOL    HW3 4611   3.262   1.598   1.891  0.4352 -0.6971 -0.3125
 1141SOL    MW4 4612   3.341   1.564   1.878  0.6614 -0.2625 -0.1053
 1142SOL     OW 4613   3.103   1.686   1.957  0.0665  0.0529 -0.4064
 1142SOL    HW2 4614   3.122   1.701   2.049  2.2493 -0.9224 -0.6674
 1142SOL    HW3 4615   3.119   1.771   1.915 -1.3829  0.6191  0.1555
 1142SOL    MW4 4616   3.108   1.700   1.964  0.1633 -0.0011 -0.3668
 1143SOL     OW 4617   3.150   1.949   1.861  0.2292  0.0163 -0.5987
 1143SOL    HW2 4618   3.231   1.984   1.896  0.3737 -1.3546  0.4978
 1143SOL    HW3 4619   3.160   1.955   1.766  0.9746  1.2344 -0.4585
 1143SOL    MW4 4620   3.162   1.954   1.853  0.3467 -0.0039 -0.4356
 1144SOL     OW 4621   3.374   2.063   1.974  0.0257 -0.1949 -0.1041
 1144SOL    HW2 4622   3.454   2.021   1.943  0.9486 -0.4196  2.4365
 1144SOL    HW3 4623   3.385   2.156   1.954  0.8090 -0.2685 -0.0091
 1144SOL    MW4 4624   3.386   2.070   1.967  0.2506 -0.2344  0.2437
 1145SOL     OW 4625   3.382   2.338   1.889 -0.6409  0.4001 -0.1837
 1145SOL    HW2 4626   3.305   2.389   1.915 -0.3258  0.8114 -0.0665
 1145SOL    HW3 4627   3.380   2.340   1.793 -0.8590  0.2865 -0.1824
 1145SOL    MW4 4628   3.372   2.345   1.880 -0.6278  0.4392 -0.1681
 1146SOL     OW 4629   3.157   2.468   1.982 -0.4943 -0.2541 -0.3390
 1146SOL    HW2 4630   3.151   2.466   2.078  0.0733 -1.0310 -0.3191
 1146SOL    HW3 4631   3.164   2.562   1.961  1.1466 -0.1680  0.5010
 1146SOL    MW4 4632   3.157   2.480   1.992 -0.2029 -0.3452 -0.2255
 1147SOL     OW 4633   3.180   2.742   1.932  0.1436 -0.4372  0.1176
 1147SOL    HW2 4634   3.093   2.771   1.957  0.4205 -0.1322  0.7469
 1147SOL    HW3 4635   3.184   2.756   1.837 -0.8039 -1.3060 -0.0499
 1147SOL    MW4 4636   3.169   2.748   1.922  0.0551 -0.5114  0.1785
 1148SOL     OW 4637   3.399   2.901   1.987  0.1240 -0.5265 -0.2360
 1148SOL    HW2 4638   3.413   2.902   2.081 -1.2875  2.1903 -0.0048
 1148SOL    HW3 4639   3.320   2.848   1.974 -1.4727  1.6207  0.4388
 1148SOL    MW4 4640   3.390   2.894   1.998 -0.2728  0.1156 -0.1165
 1149SOL     OW 4641   3.391   3.158   1.882 -0.6264 -0.5687 -0.0796
 1149SOL    HW2 4642   3.473   3.197   1.912 -0.2099 -0.3400 -1.4895
 1149SOL    HW3 4643   3.398   3.066   1.904 -0.4640 -0.3499  0.8057
 1149SOL    MW4 4644   3.403   3.151   1.889 -0.5498 -0.5097 -0.1490
 1150SOL     OW 4645   3.141   3.247   2.002 -0.0153 -0.4400  0.1601
 1150SOL    HW2 4646   3.135   3.333   1.961  0.5300  0.0767  1.1152
 1150SOL    HW3 4647   3.226   3.213   1.973 -1.0701 -1.4941 -1.7527
 1150SOL    MW4 4648   3.152   3.254   1.993 -0.0825 -0.5107  0.0339
 1151SOL     OW 4649   3.143   3.497   1.871  0.1053 -0.1760  0.3535
 1151SOL    HW2 4650   3.212   3.552   1.910 -0.3695 -0.1644  1.1907
 1151SOL    HW3 4651   3.164   3.495   1.778 -0.6002  2.4776  0.1035
 1151SOL    MW4 4652   3.155   3.504   1.864 -0.0503  0.1757  0.4308
 1152SOL     OW 4653   3.362   3.638   1.973 -0.1734  0.0928  0.2897
 1152SOL    HW2 4654   3.434   3.580   1.950 -0.5423 -0.3124  0.1369
 1152SOL    HW3 4655   3.393   3.726   1.950  0.3772 -0.0437  0.4998
 1152SOL    MW4 4656   3.375   3.642   1.967 -0.1495  0.0215  0.2973
 1153SOL     OW 4657   3.432   3.890   1.909 -0.3835 -0.2565  0.3551
 1153SOL    HW2 4658   3.352   3.942   1.922 -0.5691 -0.2560 -0.7197
 1153SOL    HW3 4659   3.442   3.885   1.814  1.3585  0.4271  0.4962
 1153SOL    MW4 4660   3.423   3.896   1.898 -0.1779 -0.1662  0.2317
 1154SOL     OW 4661   3.230   4.071   1.995 -0.5070  0.1184 -0.4586
 1154SOL    HW2 4662   3.211   4.063   2.088 -0.1412  1.9724 -0.2126
 1154SOL    HW3 4663   3.153   4.032   1.952  0.3840 -2.9879  0.5736
 1154SOL    MW4 4664   3.217   4.065   2.001 -0.3412 -0.0472 -0.2902
 1155SOL     OW 4665   3.175   4.271   1.835 -0.4729 -0.2282  0.2442
 1155SOL    HW2 4666   3.202   4.196   1.889  1.8172 -0.3349 -1.0027
 1155SOL    HW3 4667   3.110   4.316   1.888  1.3331 -0.6304  2.8979
 1155SOL    MW4 4668   3.170   4.267   1.849  0.0677 -0.2952  0.4297
 1156SOL     OW 4669   3.355   4.404   1.999  0.1746  0.1500  0.0269
 1156SOL    HW2 4670   3.441   4.365   1.984 -0.1883 -1.0042  0.8611
 1156SOL    HW3 4671   3.296   4.358   1.940 -0.1577 -0.2092  0.6292
 1156SOL    MW4 4672   3.358   4.393   1.990  0.0827 -0.0501  0.2164
 1157SOL     OW 4673   3.835   0.029   1.891 -0.0418  0.2852  0.3793
 1157SOL    HW2 4674   3.818  -0.060   1.920 -2.1261  0.2294 -0.9132
 1157SOL    HW3 4675   3.765   0.081   1.933 -1.2250  0.6761 -1.9874
 1157SOL    MW4 4676   3.823   0.024   1.901 -0.4730  0.3294 -0.1034
 1158SOL     OW 4677   3.606   0.147   1.984 -0.1138  0.1026 -0.0748
 1158SOL    HW2 4678   3.587   0.159   2.077  1.4039  1.2282  0.0976
 1158SOL    HW3 4679   3.541   0.082   1.955 -0.6776 -0.1698  1.7248
 1158SOL    MW4 4680   3.595   0.140   1.993  0.0122  0.2152  0.1854
 1159SOL     OW 4681   3.576   0.396   1.872  0.6178  0.1299  0.0495
 1159SOL    HW2 4682   3.592   0.305   1.899 -1.2996  0.2074  1.5766
 1159SOL    HW3 4683   3.572   0.392   1.777 -1.7432 -1.8263  0.1752
 1159SOL    MW4 4684   3.578   0.383   1.863  0.0534 -0.1180  0.2676
 1160SOL     OW 4685   3.815   0.496   1.981 -0.3458  0.0864 -0.0153
 1160SOL    HW2 4686   3.807   0.590   1.963 -1.1330  0.1163  0.5095
 1160SOL    HW3 4687   3.747   0.456   1.928  0.5406 -0.2781 -0.9049
 1160SOL    MW4 4688   3.805   0.503   1.971 -0.3326  0.0423 -0.0635
 1161SOL     OW 4689   3.836   0.768   1.909 -0.0615  0.1146  0.7370
 1161SOL    HW2 4690   3.755   0.813   1.933  0.2422  0.4641  1.1237
 1161SOL    HW3 4691   3.845   0.783   1.815 -0.3218  0.2742  0.7367
 1161SOL    MW4 4692   3.827   0.776   1.900 -0.0560  0.1817  0.7881
 1162SOL     OW 4693   3.571   0.911   2.010 -0.4900  0.2578  0.5867
 1162SOL    HW2 4694   3.576   0.999   1.973 -1.0807 -0.1029 -0.3689
 1162SOL    HW3 4695   3.508   0.865   1.955  0.2123 -0.9286  0.7445
 1162SOL    MW4 4696   3.564   0.917   1.998 -0.4752  0.0536  0.4815
 1163SOL     OW 4697   3.562   1.152   1.897  0.1134  0.1017 -0.2685
 1163SOL    HW2 4698   3.493   1.208   1.934  0.5293  0.2005  0.3527
 1163SOL    HW3 4699   3.570   1.182   1.807  0.6056  1.3135  0.1719
 1163SOL    MW4 4700   3.554   1.163   1.890  0.2332  0.2745 -0.1286
 1164SOL     OW 4701   3.824   1.247   2.000  0.1456 -0.3061 -0.4492
 1164SOL    HW2 4702   3.830   1.264   2.094  0.0883  1.3509 -0.7262
 1164SOL    HW3 4703   3.747   1.191   1.990 -0.6158  0.5750  0.3646
 1164SOL    MW4 4704   3.815   1.242   2.011  0.0377  0.0287 -0.3781
 1165SOL     OW 4705   3.793   1.534   1.896  0.1037  0.0564  0.5925
 1165SOL    HW2 4706   3.867   1.586   1.926  1.0499  0.2217 -1.8998
 1165SOL    HW3 4707   3.812   1.445   1.926  1.5438  0.0142 -0.3908
 1165SOL    MW4 4708   3.805   1.529   1.904  0.4187  0.0727  0.1338
 1166SOL     OW 4709   3.575   1.690   1.952  0.0592  0.6049 -0.1510
 1166SOL    HW2 4710   3.598   1.775   1.914  1.5905  1.0594  1.7466
 1166SOL    HW3 4711   3.650   1.634   1.932 -0.6604 -0.1275 -0.8174
 1166SOL    MW4 4712   3.588   1.694   1.944  0.1664  0.5683  0.0116
 1167SOL     OW 4713   3.609   1.968   1.868  0.1397  0.3150 -0.0317
 1167SOL    HW2 4714   3.688   2.007   1.906  0.7238 -0.9123  0.0442
 1167SOL    HW3 4715   3.621   1.976   1.774  0.4529 -0.0772 -0.0226
 1167SOL    MW4 4716   3.621   1.974   1.861  0.2580  0.1014 -0.0205
 1168SOL     OW 4717   3.810   2.083   1.989 -0.1706  0.7128  0.0611
 1168SOL    HW2 4718   3.887   2.050   1.941 -0.6178  0.4405 -0.4872
 1168SOL    HW3 4719   3.799   2.172   1.957 -1.0085  0.2307 -1.0397
 1168SOL    MW4 4720   3.819   2.090   1.978 -0.3400  0.6132 -0.1564
 1169SOL     OW 4721   3.594   2.479   1.984  0.2467 -0.1320  0.5000
 1169SOL    HW2 4722   3.531   2.418   1.946  2.6909 -1.2136 -1.9397
 1169SOL    HW3 4723   3.585   2.559   1.931  0.4386 -0.0560  0.5805
 1169SOL    MW4 4724   3.584   2.482   1.972  0.5944 -0.2646  0.1887
 1170SOL     OW 4725   3.609   2.450   2.271  0.2573  0.1404  0.1974
 1170SOL    HW2 4726   3.593   2.471   2.179 -0.3943  0.2198  0.3307
 1170SOL    HW3 4727   3.528   2.409   2.301  0.6345 -0.3057  0.6104
 1170SOL    MW4 4728   3.596   2.447   2.262  0.2210  0.0920  0.2699
 1171SOL     OW 4729   3.588   2.741   1.871  0.0122 -0.3944 -0.2389
 1171SOL    HW2 4730   3.665   2.781   1.912 -1.3097  2.1698 -0.1723
 1171SOL    HW3 4731   3.514   2.788   1.908 -1.5906 -2.3990 -0.7860
 1171SOL    MW4 4732   3.588   2.752   1.881 -0.3736 -0.3204 -0.3022
 1172SOL     OW 4733   3.831   2.873   1.998  0.0779  0.7632 -0.4256
 1172SOL    HW2 4734   3.834   2.895   2.091  1.4770 -0.1734 -0.2448
 1172SOL    HW3 4735   3.865   2.951   1.953  1.2682  0.4775 -0.0285
 1172SOL    MW4 4736   3.836   2.886   2.004  0.4196  0.6018 -0.3495
 1173SOL     OW 4737   3.867   3.135   1.914 -0.0862 -0.4258  0.0210
 1173SOL    HW2 4738   3.787   3.183   1.934  0.4265  0.7228 -0.6141
 1173SOL    HW3 4739   3.864   3.119   1.820  1.3110  1.3452 -0.3696
 1173SOL    MW4 4740   3.856   3.140   1.905  0.1659 -0.0408 -0.1143
 1174SOL     OW 4741   3.624   3.261   1.977  0.2577 -0.1448  0.2376
 1174SOL    HW2 4742   3.596   3.260   2.068 -1.3546  1.1521 -0.2021
 1174SOL    HW3 4743   3.621   3.354   1.952  1.0995 -0.4368 -0.9926
 1174SOL    MW4 4744   3.620   3.273   1.985  0.1562 -0.0122  0.0173
 1175SOL     OW 4745   3.620   3.529   1.875  0.1297 -0.6021  0.1026
 1175SOL    HW2 4746   3.708   3.536   1.911  0.5261 -1.8615 -0.5950
 1175SOL    HW3 4747   3.634   3.513   1.781 -0.8679  2.6221 -0.6556
 1175SOL    MW4 4748   3.633   3.528   1.867  0.0503 -0.3428 -0.0895
 1176SOL     OW 4749   3.853   3.607   2.004 -0.0317  0.3015 -0.4206
 1176SOL    HW2 4750   3.930   3.567   1.963  0.2415  1.2845 -0.8969
 1176SOL    HW3 4751   3.859   3.699   1.979 -1.4172  0.3646 -0.5271
 1176SOL    MW4 4752   3.864   3.614   1.995 -0.1783  0.4394 -0.4975
 1177SOL     OW 4753   3.830   3.879   1.935 -0.5011 -0.3292 -0.0727
 1177SOL    HW2 4754   3.751   3.930   1.952 -0.4823 -0.4040  0.2413
 1177SOL    HW3 4755   3.840   3.881   1.840 -0.1325  0.7997 -0.0122
 1177SOL    MW4 4756   3.821   3.886   1.925 -0.4497 -0.1898 -0.0232
 1178SOL     OW 4757   3.617   4.072   1.997  0.3888 -0.3720 -0.1921
 1178SOL    HW2 4758   3.612   4.070   2.092  0.9665 -0.4146 -0.1582
 1178SOL    HW3 4759   3.540   4.024   1.967  0.2847 -0.4855  0.2541
 1178SOL    MW4 4760   3.606   4.066   2.005  0.4513 -0.3929 -0.1285
 1179SOL     OW 4761   3.584   4.329   1.872 -0.0430 -0.0147  0.1913
 1179SOL    HW2 4762   3.663   4.374   1.904  0.6312 -0.6809 -0.5076
 1179SOL    HW3 4763   3.586   4.244   1.914 -0.7877  0.2349  0.7382
 1179SOL    MW4 4764   3.595   4.324   1.882 -0.0525 -0.0696  0.1713
 1180SOL     OW 4765   3.819   4.430   1.989  0.1976 -0.5688  0.3421
 1180SOL    HW2 4766   3.819   4.431   2.085  1.0085 -1.2643  0.3500
 1180SOL    HW3 4767   3.887   4.367   1.965 -0.5070 -0.9542 -0.6882
 1180SOL    MW4 4768   3.828   4.422   1.998  0.2115 -0.7110  0.2072
 1181SOL     OW 4769   4.254   4.656   1.885  0.3378  0.2736  0.1078
 1181SOL    HW2 4770   4.186   4.706   1.931  0.7366  0.0144  0.9927
 1181SOL    HW3 4771   4.336   4.688   1.923  0.5948 -1.0110  0.6438
 1181SOL    MW4 4772   4.256   4.667   1.896  0.4239  0.0701  0.2952
 1182SOL     OW 4773   4.060   0.126   2.013 -0.2358 -0.3734 -0.0149
 1182SOL    HW2 4774   4.059   0.110   2.107  0.0396 -1.0801 -0.1242
 1182SOL    HW3 4775   3.980   0.084   1.980 -0.6368  0.3858 -0.0219
 1182SOL    MW4 4776   4.049   0.118   2.021 -0.2518 -0.3665 -0.0300
 1183SOL     OW 4777   4.056   0.376   1.908  0.0746 -0.0161 -0.2710
 1183SOL    HW2 4778   4.061   0.286   1.938  0.3467  0.4827  1.2245
 1183SOL    HW3 4779   3.977   0.411   1.949  1.1803  1.0697  1.0352
 1183SOL    MW4 4780   4.046   0.369   1.917  0.2565  0.1930  0.0986
 1184SOL     OW 4781   4.288   0.481   2.035  0.1213 -0.0135  0.0679
 1184SOL    HW2 4782   4.274   0.501   2.127  0.9054  1.5371 -0.1275
 1184SOL    HW3 4783   4.203   0.449   2.004 -0.4954  0.6892  1.0234
 1184SOL    MW4 4784   4.275   0.480   2.043  0.1431  0.2838  0.1681
 1185SOL     OW 4785   4.259   0.758   1.921 -0.2456  0.3795  0.0354
 1185SOL    HW2 4786   4.257   0.665   1.945 -0.9298  0.1615 -0.8371
 1185SOL    HW3 4787   4.270   0.758   1.826  0.1518  1.2013  0.0775
 1185SOL    MW4 4788   4.260   0.746   1.911 -0.2832  0.4591 -0.0743
 1186SOL     OW 4789   4.043   0.902   2.010  0.1550 -0.1899  0.4309
 1186SOL    HW2 4790   4.116   0.845   1.988 -0.2719 -0.1302 -1.1556
 1186SOL    HW3 4791   3.966   0.858   1.976 -0.5046  0.0173  1.6101
 1186SOL    MW4 4792   4.043   0.889   2.003  0.0119 -0.1547  0.3772
 1187SOL     OW 4793   4.035   1.158   1.876  0.0209 -0.2347  0.0666
 1187SOL    HW2 4794   4.049   1.071   1.914 -0.1104  0.1860  1.1163
 1187SOL    HW3 4795   3.958   1.192   1.922 -0.4486  0.0998 -0.9460
 1187SOL    MW4 4796   4.026   1.151   1.887 -0.0582 -0.1351  0.0714
 1188SOL     OW 4797   4.229   1.357   1.930  0.4667  0.1928  0.4254
 1188SOL    HW2 4798   4.243   1.350   2.025  0.9082  0.7418  0.4078
 1188SOL    HW3 4799   4.158   1.296   1.911 -0.7129  1.2359  1.3622
 1188SOL    MW4 4800   4.222   1.348   1.940  0.3686  0.4028  0.5467
 1189SOL     OW 4801   4.236   1.637   1.876 -0.5242  0.1522  0.1272
 1189SOL    HW2 4802   4.238   1.542   1.890 -0.8537  0.1583  0.2135
 1189SOL    HW3 4803   4.247   1.647   1.781 -0.3288  0.0359  0.1353
 1189SOL    MW4 4804   4.238   1.626   1.865 -0.5422  0.1377  0.1396
 1190SOL     OW 4805   4.020   1.709   2.004  0.5472 -0.0661  0.5116
 1190SOL    HW2 4806   4.038   1.711   2.098  0.6167 -0.2047  0.5022
 1190SOL    HW3 4807   4.105   1.693   1.964  0.4577 -0.3773  0.4455
 1190SOL    MW4 4808   4.033   1.707   2.012  0.5445 -0.1255  0.5016
 1191SOL     OW 4809   4.038   1.965   1.879  0.2775 -0.0915 -0.2765
 1191SOL    HW2 4810   4.017   1.877   1.909 -1.4529  0.6282  0.6262
 1191SOL    HW3 4811   4.048   1.956   1.784  1.9458 -1.6007  0.0111
 1191SOL    MW4 4812   4.037   1.952   1.870  0.2694 -0.1955 -0.1194
 1192SOL     OW 4813   4.288   2.052   1.952 -0.2637  0.0773 -0.0736
 1192SOL    HW2 4814   4.293   2.081   2.043 -2.6395 -1.4847  0.5893
 1192SOL    HW3 4815   4.195   2.035   1.937  0.1560 -0.1864 -2.6551
 1192SOL    MW4 4816   4.277   2.054   1.962 -0.5221 -0.1636 -0.3269
 1193SOL     OW 4817   4.224   2.297   1.864 -0.1315  0.3518  0.0689
 1193SOL    HW2 4818   4.256   2.208   1.877 -0.2076  0.1527 -1.0621
 1193SOL    HW3 4819   4.298   2.353   1.888 -0.6522  0.0570  2.4837
 1193SOL    MW4 4820   4.238   2.293   1.869 -0.2108  0.2868  0.2383
 1194SOL     OW 4821   4.001   2.455   1.946  0.0653  0.1215 -0.1743
 1194SOL    HW2 4822   4.009   2.467   2.041  3.3233 -0.2428 -0.3646
 1194SOL    HW3 4823   4.074   2.398   1.922 -0.8144  0.0630 -2.8958
 1194SOL    MW4 4824   4.012   2.449   1.956  0.3791  0.0656 -0.5585
 1195SOL     OW 4825   4.042   2.714   1.897  0.0546  0.1057 -0.7782
 1195SOL    HW2 4826   4.028   2.619   1.903  0.9830  0.0554  1.1754
 1195SOL    HW3 4827   3.967   2.752   1.943  0.3638  0.2570 -0.3942
 1195SOL    MW4 4828   4.030   2.707   1.904  0.2174  0.1190 -0.4697
 1196SOL     OW 4829   4.273   2.839   1.986  0.3750 -0.1124  0.0442
 1196SOL    HW2 4830   4.282   2.833   2.081  0.5962 -1.0289 -0.0241
 1196SOL    HW3 4831   4.188   2.800   1.967 -0.2440  1.2662 -0.0211
 1196SOL    MW4 4832   4.263   2.833   1.996  0.3223 -0.0517  0.0265
 1197SOL     OW 4833   4.302   3.091   1.841 -0.3392  0.3133 -0.2191
 1197SOL    HW2 4834   4.241   3.139   1.898 -0.8686 -1.0243  0.3547
 1197SOL    HW3 4835   4.310   3.005   1.882  0.1860 -0.2690 -1.5367
 1197SOL    MW4 4836   4.295   3.086   1.854 -0.3395  0.0601 -0.3173
 1198SOL     OW 4837   4.114   3.266   1.978  0.0287  0.0579 -0.9843
 1198SOL    HW2 4838   4.122   3.273   2.074  0.1453  0.3492 -1.0124
 1198SOL    HW3 4839   4.031   3.221   1.964  0.2440 -0.4200 -0.7350
 1198SOL    MW4 4840   4.104   3.261   1.989  0.0730  0.0331 -0.9551
 1199SOL     OW 4841   4.071   3.509   1.850 -0.4097  0.2842  0.1959
 1199SOL    HW2 4842   4.154   3.551   1.876  0.1207 -0.2658 -0.5795
 1199SOL    HW3 4843   4.087   3.416   1.862 -1.1784  0.2245  0.7497
 1199SOL    MW4 4844   4.084   3.503   1.855 -0.4406  0.2036  0.1665
 1200SOL     OW 4845   4.285   3.620   1.969 -0.3690 -0.4184 -0.2423
 1200SOL    HW2 4846   4.285   3.701   1.919 -0.3243  1.0115  2.0067
 1200SOL    HW3 4847   4.367   3.577   1.944  0.1875  0.8096 -0.5744
 1200SOL    MW4 4848   4.296   3.625   1.959 -0.2899 -0.0679  0.0106
 1201SOL     OW 4849   4.259   3.883   1.838 -0.0381  0.2141  0.5629
 1201SOL    HW2 4850   4.338   3.927   1.870  1.4594 -0.8384 -1.5326
 1201SOL    HW3 4851   4.270   3.880   1.743 -1.1652 -2.5529  0.4583
 1201SOL    MW4 4852   4.271   3.888   1.830  0.0105 -0.2899  0.2726
 1202SOL     OW 4853   4.061   4.004   1.990 -0.0770  0.3702 -0.0011
 1202SOL    HW2 4854   4.127   3.953   1.942 -0.3967 -0.7104  0.6906
 1202SOL    HW3 4855   3.978   3.960   1.970 -0.0536 -0.9677  2.6586
 1202SOL    MW4 4856   4.059   3.992   1.981 -0.1168  0.0508  0.4411
 1203SOL     OW 4857   4.011   4.273   1.874 -0.3499 -0.0518 -0.0805
 1203SOL    HW2 4858   4.087   4.324   1.905 -1.2613  0.9557  0.5475
 1203SOL    HW3 4859   4.023   4.186   1.912 -0.3076  0.5491  1.3034
 1203SOL    MW4 4860   4.023   4.269   1.883 -0.4644  0.1602  0.1849
 1204SOL     OW 4861   4.247   4.399   1.964 -0.5705  0.2200 -0.0667
 1204SOL    HW2 4862   4.247   4.421   2.057  1.1623  1.5045 -0.3435
 1204SOL    HW3 4863   4.255   4.484   1.919  1.2331 -0.5723 -1.3017
 1204SOL    MW4 4864   4.248   4.413   1.970 -0.1040  0.2851 -0.2662
 1205SOL     OW 4865   0.238   4.613   2.357  0.1900  0.6222 -0.6397
 1205SOL    HW2 4866   0.233   4.625   2.452  2.0722  0.9868 -0.5612
 1205SOL    HW3 4867   0.299   4.681   2.328  1.1254 -0.7111 -1.8494
 1205SOL    MW4 4868   0.246   4.624   2.366  0.5617  0.4945 -0.7889
 1206SOL     OW 4869   0.013   0.127   2.285 -0.5258 -0.0981  0.0090
 1206SOL    HW2 4870   0.091   0.087   2.323 -1.0270 -0.8788  0.2318
 1206SOL    HW3 4871   0.020   0.109   2.192  0.0237  0.6291 -0.0863
 1206SOL    MW4 4872   0.024   0.119   2.278 -0.5194 -0.1052  0.0257
 1207SOL     OW 4873   4.479   0.392   2.394 -0.2317 -0.1488 -0.0262
 1207SOL    HW2 4874   4.554   0.439   2.357 -1.0879  0.9929 -0.3351
 1207SOL    HW3 4875   4.479   0.307   2.348  1.3782 -0.5100  0.6173
 1207SOL    MW4 4876   4.489   0.387   2.383 -0.1321 -0.0458  0.0179
 1208SOL     OW 4877   0.210   0.510   2.291  0.3134  0.0433 -0.3517
 1208SOL    HW2 4878   0.287   0.465   2.325  2.0375  2.2865 -1.1396
 1208SOL    HW3 4879   0.218   0.503   2.196 -0.3737  0.3995 -0.4410
 1208SOL    MW4 4880   0.221   0.503   2.283  0.4502  0.3863 -0.4673
 1209SOL     OW 4881   0.253   0.778   2.344 -0.1814  0.4230  0.5619
 1209SOL    HW2 4882   0.245   0.782   2.439 -0.6183 -1.5335  0.6200
 1209SOL    HW3 4883   0.243   0.685   2.322 -0.0869  0.8428 -1.3937
 1209SOL    MW4 4884   0.251   0.766   2.354 -0.2266  0.2202  0.3114
 1210SOL     OW 4885   0.023   0.907   2.249  0.1219 -0.2941 -0.4164
 1210SOL    HW2 4886   0.099   0.849   2.263  1.1431  1.1238  0.0263
 1210SOL    HW3 4887   0.022   0.920   2.154  0.5974 -0.1057 -0.3996
 1210SOL    MW4 4888   0.033   0.901   2.238  0.3194 -0.0821 -0.3557
 1211SOL     OW 4889   4.481   1.169   2.322  0.2823  0.0900  0.1479
 1211SOL    HW2 4890   4.490   1.162   2.417 -0.5834  1.2880  0.3223
 1211SOL    HW3 4891   4.489   1.078   2.291 -0.4029 -0.4323  1.4468
 1211SOL    MW4 4892   4.483   1.156   2.330  0.0777  0.1793  0.3424
 1212SOL     OW 4893   0.250   1.312   2.272 -0.3450 -0.3841 -0.1527
 1212SOL    HW2 4894   0.179   1.256   2.304 -1.1076  0.1137 -0.9505
 1212SOL    HW3 4895   0.252   1.296   2.177  0.6175 -0.4010 -0.1321
 1212SOL    MW4 4896   0.241   1.302   2.263 -0.3186 -0.3206 -0.2551
 1213SOL     OW 4897   0.237   1.595   2.364  0.0902 -0.0323  0.2206
 1213SOL    HW2 4898   0.234   1.590   2.459  2.8588 -1.9836  0.2845
 1213SOL    HW3 4899   0.238   1.504   2.335  1.8209  0.4928 -1.5156
 1213SOL    MW4 4900   0.237   1.582   2.372  0.6839 -0.2205 -0.0002
 1214SOL     OW 4901   0.017   1.696   2.257 -0.3713  0.0908 -0.0176
 1214SOL    HW2 4902   0.013   1.786   2.290  0.6201 -0.4270  1.5749
 1214SOL    HW3 4903   0.092   1.657   2.301 -1.5075 -1.8903  0.2652
 1214SOL    MW4 4904   0.026   1.703   2.267 -0.3910 -0.2388  0.2298
 1215SOL     OW 4905   0.017   1.947   2.335 -0.2275  0.2864  0.4035
 1215SOL    HW2 4906  -0.053   1.997   2.294  0.4142 -1.0431 -2.4430
 1215SOL    HW3 4907   0.097   1.993   2.310  0.1424 -0.2236  0.6321
 1215SOL    MW4 4908   0.018   1.960   2.326 -0.0939  0.0437  0.0582
 1216SOL     OW 4909   0.251   2.077   2.265  0.5669 -0.5398  0.4098
 1216SOL    HW2 4910   0.323   2.028   2.305  2.0345  1.3993  0.2382
 1216SOL    HW3 4911   0.261   2.063   2.171  2.0373  1.4271  0.2443
 1216SOL    MW4 4912   0.262   2.069   2.258  0.9546 -0.0246  0.3653
 1217SOL     OW 4913   0.193   2.329   2.344  0.2677  0.3591 -0.5875
 1217SOL    HW2 4914   0.167   2.319   2.436  1.4807 -1.1658 -0.3838
 1217SOL    HW3 4915   0.196   2.239   2.311  0.4512  0.8630 -1.9468
 1217SOL    MW4 4916   0.190   2.316   2.352  0.4519  0.2246 -0.7401
 1218SOL     OW 4917   4.489   2.473   2.224 -0.2457  0.0942 -0.2954
 1218SOL    HW2 4918   4.499   2.558   2.267 -1.6582 -0.0475  0.3479
 1218SOL    HW3 4919   4.561   2.420   2.259  2.0069  1.6727 -2.3899
 1218SOL    MW4 4920   4.500   2.477   2.235 -0.1349  0.2840 -0.4871
 1219SOL     OW 4921   4.473   2.704   2.366 -0.3969 -0.2607 -0.4257
 1219SOL    HW2 4922   4.477   2.679   2.459 -0.4536 -0.0859 -0.3752
 1219SOL    HW3 4923   4.559   2.744   2.349 -0.8256  0.8048 -0.1272
 1219SOL    MW4 4924   4.485   2.706   2.376 -0.4606 -0.0973 -0.3798
 1220SOL     OW 4925   0.235   2.819   2.294  0.2682 -0.4440 -0.3179
 1220SOL    HW2 4926   0.326   2.793   2.305  0.3340 -0.5637 -1.0858
 1220SOL    HW3 4927   0.217   2.805   2.201 -0.5000 -0.3142 -0.1956
 1220SOL    MW4 4928   0.244   2.814   2.283  0.1755 -0.4425 -0.4029
 1221SOL     OW 4929   0.245   3.071   2.405  0.1694  0.1651  0.6496
 1221SOL    HW2 4930   0.174   3.122   2.366 -0.7129 -1.2529  0.3974
 1221SOL    HW3 4931   0.235   2.983   2.370  0.5104 -0.6784  2.5840
 1221SOL    MW4 4932   0.234   3.066   2.395  0.0980 -0.1333  0.8717
 1222SOL     OW 4933   0.007   3.211   2.280  0.3261  0.2270  0.1554
 1222SOL    HW2 4934  -0.003   3.301   2.313 -0.9607 -0.3714  1.4094
 1222SOL    HW3 4935   0.005   3.221   2.185  0.8772  1.5994  0.2637
 1222SOL    MW4 4936   0.005   3.224   2.272  0.2289  0.3288  0.3352
 1223SOL     OW 4937   4.472   3.477   2.367 -0.6319 -0.1134 -0.0389
 1223SOL    HW2 4938   4.458   3.495   2.460 -0.4159  0.7957 -0.1785
 1223SOL    HW3 4939   4.403   3.528   2.323 -1.1410 -1.0523 -0.3417
 1223SOL    MW4 4940   4.461   3.486   2.373 -0.6706 -0.1173 -0.0973
 1224SOL     OW 4941   0.209   3.607   2.257 -0.1868  0.3602 -0.1563
 1224SOL    HW2 4942   0.290   3.573   2.294  0.7160  0.3253 -2.0862
 1224SOL    HW3 4943   0.140   3.550   2.291  0.6417  0.1838  1.2207
 1224SOL    MW4 4944   0.210   3.595   2.266  0.0416  0.3324 -0.2291
 1225SOL     OW 4945   0.229   3.871   2.358 -0.1805  0.6276 -0.2357
 1225SOL    HW2 4946   0.152   3.923   2.332  0.0965  0.7801 -0.7635
 1225SOL    HW3 4947   0.216   3.787   2.314 -0.1199  0.6038 -0.2078
 1225SOL    MW4 4948   0.217   3.867   2.349 -0.1360  0.6447 -0.3018
 1226SOL     OW 4949   0.009   4.023   2.253 -0.1683  0.0500  0.1354
 1226SOL    HW2 4950  -0.022   4.107   2.285  3.1981  0.7364  1.7229
 1226SOL    HW3 4951  -0.005   4.027   2.158 -2.7553  1.1813  0.5214
 1226SOL    MW4 4952   0.003   4.034   2.244 -0.0654  0.2899  0.3955
 1227SOL     OW 4953   4.443   4.279   2.365 -0.3087  0.3939  0.1965
 1227SOL    HW2 4954   4.448   4.286   2.460  2.1146  1.0100  0.0726
 1227SOL    HW3 4955   4.529   4.308   2.334 -0.7102 -0.7014 -2.1272
 1227SOL    MW4 4956   4.455   4.284   2.373 -0.0420  0.3304 -0.1264
 1228SOL     OW 4957   0.447   4.241   2.350  0.4084  0.0161  0.0466
 1228SOL    HW2 4958   0.450   4.153   2.312 -1.0758  0.3806 -1.0110
 1228SOL    HW3 4959   0.516   4.289   2.305  0.1986 -0.1973 -0.5112
 1228SOL    MW4 4960   0.456   4.236   2.339  0.1849  0.0362 -0.1664
 1229SOL     OW 4961   0.680   4.656   2.339  0.4396 -0.2966 -0.3409
 1229SOL    HW2 4962   0.686   4.661   2.434 -0.5337  0.5707 -0.3116
 1229SOL    HW3 4963   0.760   4.698   2.307  0.8480 -0.7481  0.0973
 1229SOL    MW4 4964   0.691   4.662   2.347  0.3651 -0.2418 -0.2794
 1230SOL     OW 4965   0.434   0.141   2.247 -0.7014  0.6338 -0.0577
 1230SOL    HW2 4966   0.518   0.096   2.259 -1.6899 -0.9314  1.2646
 1230SOL    HW3 4967   0.422   0.144   2.152  0.4241  0.0440 -0.2374
 1230SOL    MW4 4968   0.444   0.135   2.236 -0.6834  0.3494  0.0927
 1231SOL     OW 4969   0.463   0.406   2.342 -0.8584  0.4869  0.6085
 1231SOL    HW2 4970   0.449   0.399   2.436 -1.1941 -0.0980  0.5144
 1231SOL    HW3 4971   0.455   0.316   2.309 -1.2552  0.7584 -0.0466
 1231SOL    MW4 4972   0.460   0.393   2.350 -0.9550  0.4455  0.5097
 1232SOL     OW 4973   0.704   0.508   2.235  0.1152 -0.4519 -0.2933
 1232SOL    HW2 4974   0.713   0.603   2.243 -1.2159 -0.3942  0.6454
 1232SOL    HW3 4975   0.630   0.486   2.292  1.4161 -2.2639  0.7104
 1232SOL    MW4 4976   0.695   0.518   2.243  0.1112 -0.6833 -0.0372
 1233SOL     OW 4977   0.734   0.782   2.308 -0.4144  0.0272 -0.4840
 1233SOL    HW2 4978   0.732   0.777   2.403  0.8837 -1.9714 -0.5473
 1233SOL    HW3 4979   0.652   0.826   2.285 -1.2571 -0.4764  1.4829
 1233SOL    MW4 4980   0.723   0.787   2.318 -0.3543 -0.3030 -0.2329
 1234SOL     OW 4981   0.486   0.908   2.208  0.1090  0.1401  0.3116
 1234SOL    HW2 4982   0.413   0.858   2.243  0.2736 -0.7195 -0.5692
 1234SOL    HW3 4983   0.466   0.921   2.116 -0.2367  2.2624  0.6631
 1234SOL    MW4 4984   0.474   0.903   2.201  0.0851  0.3067  0.2418
 1235SOL     OW 4985   0.489   1.164   2.342  0.1605 -0.0730 -0.2745
 1235SOL    HW2 4986   0.488   1.081   2.294 -1.4637  0.0695 -0.5430
 1235SOL    HW3 4987   0.409   1.209   2.314 -0.3430  0.4275  1.8370
 1235SOL    MW4 4988   0.478   1.159   2.332 -0.1202  0.0119 -0.0315
 1236SOL     OW 4989   0.706   1.321   2.265  0.6046  0.1357 -0.1311
 1236SOL    HW2 4990   0.697   1.402   2.316 -0.9778 -0.6429  0.8237
 1236SOL    HW3 4991   0.640   1.262   2.300  0.6915 -1.0428 -1.8948
 1236SOL    MW4 4992   0.696   1.324   2.276  0.4073 -0.1225 -0.2379
 1237SOL     OW 4993   0.691   1.560   2.384  0.0551  0.3252  0.1265
 1237SOL    HW2 4994   0.689   1.580   2.477  2.4091  0.2117  0.2289
 1237SOL    HW3 4995   0.773   1.599   2.353 -0.3720 -0.2268 -1.7538
 1237SOL    MW4 4996   0.701   1.568   2.392  0.3093  0.2373 -0.1080
 1238SOL     OW 4997   0.482   1.673   2.266 -0.1653  0.0828 -0.3491
 1238SOL    HW2 4998   0.547   1.626   2.318 -0.3514 -0.2078 -0.3737
 1238SOL    HW3 4999   0.397   1.643   2.300 -0.2857  0.7082 -0.0960
 1238SOL    MW4 5000   0.479   1.663   2.277 -0.2058  0.1270 -0.3188
 1239SOL     OW 5001   0.451   1.923   2.374 -0.2555  0.2781 -0.1839
 1239SOL    HW2 5002   0.535   1.961   2.350 -1.5391  1.5371 -2.9415
 1239SOL    HW3 5003   0.454   1.834   2.341 -0.1548  0.4611 -0.6692
 1239SOL    MW4 5004   0.462   1.917   2.367 -0.4116  0.4684 -0.6118
 1240SOL     OW 5005   0.658   2.070   2.246  0.1757  0.3627  0.0258
 1240SOL    HW2 5006   0.744   2.032   2.264 -1.0214 -1.5106  2.0344
 1240SOL    HW3 5007   0.664   2.159   2.281  1.0289 -0.0315  0.9133
 1240SOL    MW4 5008   0.670   2.077   2.253  0.1303  0.0639  0.4077
 1241SOL     OW 5009   0.652   2.328   2.328  0.0304 -0.3577  0.1923
 1241SOL    HW2 5010   0.654   2.330   2.423 -0.8689  0.4519  0.2060
 1241SOL    HW3 5011   0.737   2.363   2.301 -0.4586  1.2606  0.7022
 1241SOL    MW4 5012   0.664   2.333   2.337 -0.1528 -0.0374  0.2613
 1242SOL     OW 5013   0.418   2.469   2.240  0.7982 -0.0057  0.8287
 1242SOL    HW2 5014   0.496   2.428   2.280  0.7674  0.2265  1.1324
 1242SOL    HW3 5015   0.344   2.422   2.279  0.7661  0.2590  1.0922
 1242SOL    MW4 5016   0.419   2.457   2.251  0.7899  0.0598  0.9036
 1243SOL     OW 5017   0.487   2.737   2.366  0.1386 -0.3101  0.1504
 1243SOL    HW2 5018   0.454   2.727   2.455  0.6647 -0.9988  0.2702
 1243SOL    HW3 5019   0.469   2.653   2.323 -0.2321  0.0625 -0.4365
 1243SOL    MW4 5020   0.480   2.725   2.372  0.1591 -0.3517  0.0887
 1244SOL     OW 5021   0.715   2.849   2.270 -0.2279  0.4100  0.3291
 1244SOL    HW2 5022   0.800   2.806   2.283 -0.3165  0.3438  0.7006
 1244SOL    HW3 5023   0.652   2.793   2.315 -0.4929  0.3826 -0.0670
 1244SOL    MW4 5024   0.718   2.836   2.278 -0.2746  0.3974  0.3262
 1245SOL     OW 5025   0.694   3.095   2.378 -0.3326 -0.1042  0.1735
 1245SOL    HW2 5026   0.608   3.133   2.359 -0.7684 -0.7257  0.8936
 1245SOL    HW3 5027   0.699   3.016   2.325 -0.0091  0.1855 -0.2306
 1245SOL    MW4 5028   0.683   3.090   2.369 -0.3474 -0.1481  0.2151
 1246SOL     OW 5029   0.455   3.212   2.264  0.1041  0.2558 -0.0146
 1246SOL    HW2 5030   0.377   3.166   2.295  1.0469 -0.6065  1.1186
 1246SOL    HW3 5031   0.457   3.196   2.169 -0.8506 -0.0734  0.0181
 1246SOL    MW4 5032   0.445   3.204   2.255  0.1025  0.0982  0.1392
 1247SOL     OW 5033   0.435   3.477   2.354 -0.3786  0.6839 -0.1785
 1247SOL    HW2 5034   0.526   3.507   2.347 -0.2415  0.6088  1.1045
 1247SOL    HW3 5035   0.434   3.393   2.309  0.2869  0.4955  0.1578
 1247SOL    MW4 5036   0.447   3.470   2.348 -0.2727  0.6490  0.0350
 1248SOL     OW 5037   0.707   3.600   2.243 -0.0551  0.0934 -0.4528
 1248SOL    HW2 5038   0.685   3.680   2.290 -0.4072 -0.2873  0.0365
 1248SOL    HW3 5039   0.697   3.622   2.150  1.1351  1.0005 -0.3845
 1248SOL    MW4 5040   0.703   3.613   2.237  0.0555  0.1628 -0.3791
 1249SOL     OW 5041   0.683   3.850   2.367 -0.2622 -0.2263  0.4120
 1249SOL    HW2 5042   0.680   3.865   2.462  0.6234 -0.7713  0.5376
 1249SOL    HW3 5043   0.624   3.916   2.330 -1.0346 -0.3590  1.3799
 1249SOL    MW4 5044   0.675   3.861   2.375 -0.2473 -0.3154  0.5565
 1250SOL     OW 5045   0.478   3.994   2.254  0.7507 -0.4911  0.1969
 1250SOL    HW2 5046   0.403   3.942   2.284 -0.2246  0.6946 -0.1252
 1250SOL    HW3 5047   0.472   3.992   2.159  1.0530 -0.2887  0.1739
 1250SOL    MW4 5048   0.467   3.987   2.246  0.6619 -0.3080  0.1516
 1251SOL     OW 5049   0.453   4.302   2.669  0.5497  0.2545 -0.0010
 1251SOL    HW2 5050   0.530   4.350   2.699  2.0033 -2.2012  0.2854
 1251SOL    HW3 5051   0.463   4.295   2.574 -1.3935  3.4105 -0.5159
 1251SOL    MW4 5052   0.464   4.308   2.661  0.4851  0.3471 -0.0310
 1252SOL     OW 5053   0.647   4.399   2.238 -0.1872  0.2759 -0.1081
 1252SOL    HW2 5054   0.654   4.490   2.265  0.6400  0.5208 -1.1345
 1252SOL    HW3 5055   0.653   4.401   2.142 -0.6986 -0.7988 -0.1755
 1252SOL    MW4 5056   0.649   4.411   2.229 -0.1455  0.1669 -0.2522
 1253SOL     OW 5057   1.159   4.662   2.340 -0.1211  0.2863  0.0858
 1253SOL    HW2 5058   1.172   4.669   2.434  0.4676 -1.3297  0.1494
 1253SOL    HW3 5059   1.082   4.716   2.322 -0.6962  0.0081  1.6167
 1253SOL    MW4 5060   1.151   4.670   2.350 -0.1193  0.0362  0.2964
 1254SOL     OW 5061   0.910   0.126   2.231  0.4368 -0.2650  0.1629
 1254SOL    HW2 5062   0.918   0.213   2.270 -0.4542 -0.0246 -0.1809
 1254SOL    HW3 5063   0.916   0.141   2.137 -0.4907 -0.4737  0.0597
 1254SOL    MW4 5064   0.912   0.139   2.224  0.1969 -0.2608  0.1040
 1255SOL     OW 5065   0.912   0.366   2.342  0.1899 -0.3105 -0.2512
 1255SOL    HW2 5066   0.985   0.419   2.309 -0.0436  1.4538  1.9366
 1255SOL    HW3 5067   0.836   0.397   2.292  0.2997  0.4323  0.0352
 1255SOL    MW4 5068   0.911   0.377   2.331  0.1736  0.0203  0.0751
 1256SOL     OW 5069   1.122   0.525   2.256 -0.4517 -0.0486  0.1237
 1256SOL    HW2 5070   1.203   0.479   2.278 -0.6401 -0.2707  0.3494
 1256SOL    HW3 5071   1.132   0.546   2.163 -0.7703 -1.3709 -0.2199
 1256SOL    MW4 5072   1.134   0.522   2.247 -0.5186 -0.2524  0.1082
 1257SOL     OW 5073   1.149   0.770   2.346 -0.0704 -0.4513 -0.0659
 1257SOL    HW2 5074   1.071   0.802   2.301 -0.3695 -1.0918 -0.0109
 1257SOL    HW3 5075   1.147   0.675   2.333  0.8012 -0.4495 -0.2260
 1257SOL    MW4 5076   1.138   0.761   2.339  0.0050 -0.5357 -0.0799
 1258SOL     OW 5077   0.949   0.909   2.186  0.3566 -0.1115  0.4183
 1258SOL    HW2 5078   0.953   0.990   2.236 -0.1747 -0.4273  0.9827
 1258SOL    HW3 5079   0.874   0.862   2.223  0.8284 -0.9794  0.2925
 1258SOL    MW4 5080   0.940   0.913   2.198  0.3487 -0.2677  0.4764
 1259SOL     OW 5081   0.910   1.148   2.342 -0.2125 -0.4773  0.0031
 1259SOL    HW2 5082   0.985   1.197   2.307 -1.3437  1.2827 -0.0589
 1259SOL    HW3 5083   0.834   1.205   2.324 -1.5098 -2.0514  0.3888
 1259SOL    MW4 5084   0.910   1.162   2.335 -0.5330 -0.4528  0.0455
 1260SOL     OW 5085   1.151   1.288   2.259 -0.5356  0.5210 -0.2317
 1260SOL    HW2 5086   1.143   1.380   2.283 -0.3360  0.4540  0.0949
 1260SOL    HW3 5087   1.144   1.287   2.163  1.1708  1.0618 -0.3783
 1260SOL    MW4 5088   1.149   1.300   2.249 -0.2841  0.5836 -0.2077
 1261SOL     OW 5089   1.151   1.567   2.345 -0.0809 -0.4578  0.3085
 1261SOL    HW2 5090   1.067   1.609   2.328  0.4190  0.6017  0.4416
 1261SOL    HW3 5091   1.153   1.556   2.441  0.6059  0.9734  0.4769
 1261SOL    MW4 5092   1.141   1.571   2.356  0.0756 -0.1292  0.3483
 1262SOL     OW 5093   0.904   1.674   2.247  0.1452 -0.5319 -0.3549
 1262SOL    HW2 5094   0.902   1.768   2.265 -0.6732 -0.3659 -1.3154
 1262SOL    HW3 5095   0.893   1.667   2.152  0.3131 -1.5941 -0.3044
 1262SOL    MW4 5096   0.903   1.685   2.237  0.0594 -0.6502 -0.4747
 1263SOL     OW 5097   0.901   1.947   2.336 -0.2928  0.6982  0.2473
 1263SOL    HW2 5098   0.903   1.920   2.427 -0.3751 -1.5947 -0.4147
 1263SOL    HW3 5099   0.989   1.981   2.319  0.3889 -0.8505  0.6093
 1263SOL    MW4 5100   0.913   1.948   2.345 -0.2138  0.1915  0.2074
 1264SOL     OW 5101   1.129   2.077   2.261 -0.7990  0.1402  0.0285
 1264SOL    HW2 5102   1.197   2.021   2.297 -0.8972 -1.4277 -2.1181
 1264SOL    HW3 5103   1.138   2.068   2.166 -1.3766  3.1223 -0.3655
 1264SOL    MW4 5104   1.139   2.069   2.253 -0.8881  0.3269 -0.3066
 1265SOL     OW 5105   1.136   2.325   2.370 -0.2403  0.1472 -0.0527
 1265SOL    HW2 5106   1.200   2.378   2.322 -0.7375  0.6289 -0.1823
 1265SOL    HW3 5107   1.128   2.245   2.319 -0.6967  0.6185 -0.7204
 1265SOL    MW4 5108   1.144   2.321   2.357 -0.3662  0.2730 -0.1578
 1266SOL     OW 5109   0.906   2.453   2.269  0.4306 -0.2120  0.2052
 1266SOL    HW2 5110   0.981   2.405   2.303  1.5476  0.3126 -1.4500
 1266SOL    HW3 5111   0.923   2.462   2.176 -1.2584  0.7136 -0.0444
 1266SOL    MW4 5112   0.918   2.448   2.261  0.3551 -0.0207 -0.0463
 1267SOL     OW 5113   0.951   2.715   2.358  0.5880  0.2433 -0.1312
 1267SOL    HW2 5114   0.909   2.730   2.442  1.4034  0.1052  0.2996
 1267SOL    HW3 5115   0.931   2.624   2.336 -0.0003  0.4114 -0.3039
 1267SOL    MW4 5116   0.943   2.705   2.366  0.6180  0.2472 -0.0970
 1268SOL     OW 5117   1.156   2.836   2.221  0.1486 -0.3312  0.2084
 1268SOL    HW2 5118   1.225   2.795   2.273 -0.7064 -1.0797  0.7764
 1268SOL    HW3 5119   1.076   2.791   2.248 -0.4156 -0.2140 -1.2245
 1268SOL    MW4 5120   1.155   2.825   2.232 -0.0387 -0.4146  0.0942
 1269SOL     OW 5121   1.112   3.084   2.345 -0.2668  0.1997  0.2555
 1269SOL    HW2 5122   1.030   3.122   2.312 -0.0906  0.8134  0.5179
 1269SOL    HW3 5123   1.110   2.993   2.315 -0.3770  0.5965 -0.9432
 1269SOL    MW4 5124   1.101   3.077   2.337 -0.2580  0.3326  0.1318
 1270SOL     OW 5125   0.895   3.213   2.229 -0.4961 -0.4010  0.3194
 1270SOL    HW2 5126   0.920   3.302   2.254 -0.7798 -0.1622 -0.2460
 1270SOL    HW3 5127   0.825   3.190   2.290  0.1927 -0.5840  1.0594
 1270SOL    MW4 5128   0.889   3.222   2.240 -0.4426 -0.3939  0.3424
 1271SOL     OW 5129   0.925   3.470   2.340  0.0183  0.5851 -0.0928
 1271SOL    HW2 5130   0.913   3.454   2.433  0.0465  0.2529 -0.1460
 1271SOL    HW3 5131   0.840   3.501   2.309 -0.4391 -0.8120 -0.2717
 1271SOL    MW4 5132   0.913   3.472   2.348 -0.0383  0.3569 -0.1233
 1272SOL     OW 5133   1.099   3.635   2.195 -0.0447  0.4411 -0.3678
 1272SOL    HW2 5134   1.177   3.586   2.223  0.5744  1.0102 -1.0492
 1272SOL    HW3 5135   1.026   3.589   2.234  0.6297 -0.2271  0.1219
 1272SOL    MW4 5136   1.100   3.623   2.204  0.1259  0.4282 -0.3929
 1273SOL     OW 5137   1.149   3.868   2.324 -0.2096  0.1871 -0.2480
 1273SOL    HW2 5138   1.210   3.913   2.266 -1.5699 -0.2510 -2.0847
 1273SOL    HW3 5139   1.130   3.785   2.280 -0.5822 -0.5558  1.2728
 1273SOL    MW4 5140   1.154   3.863   2.311 -0.4383  0.0312 -0.2897
 1274SOL     OW 5141   0.888   3.984   2.245 -0.1190  0.1606 -0.0132
 1274SOL    HW2 5142   0.968   3.933   2.255  0.2848  0.8480  0.2889
 1274SOL    HW3 5143   0.820   3.931   2.286  0.1569 -0.4866 -0.3876
 1274SOL    MW4 5144   0.890   3.970   2.251 -0.0293  0.1659 -0.0224
 1275SOL     OW 5145   0.867   4.262   2.341  0.3582  0.1454 -0.3219
 1275SOL    HW2 5146   0.858   4.170   2.315  1.1317  0.2405 -0.9708
 1275SOL    HW3 5147   0.802   4.309   2.289 -0.6896 -0.1512  0.7051
 1275SOL    MW4 5148   0.857   4.256   2.331  0.3220  0.1192 -0.2723
 1276SOL     OW 5149   1.116   4.385   2.227  0.3718  0.2613 -0.3467
 1276SOL    HW2 5150   1.038   4.347   2.268  0.1898 -0.5381 -1.3960
 1276SOL    HW3 5151   1.119   4.475   2.259 -1.3565  0.5017 -0.7927
 1276SOL    MW4 5152   1.106   4.392   2.237  0.1198  0.1869 -0.5441
 1277SOL     OW 5153   1.573   0.036   2.304 -0.2699 -0.2550 -0.0529
 1277SOL    HW2 5154   1.658   0.071   2.275 -0.5619  0.2366 -0.3117
 1277SOL    HW3 5155   1.509   0.098   2.270 -0.6989 -0.3321  0.6153
 1277SOL    MW4 5156   1.576   0.049   2.296 -0.3650 -0.2003  0.0010
 1278SOL     OW 5157   1.332   0.141   2.201  0.1348  0.3403 -0.2733
 1278SOL    HW2 5158   1.335   0.226   2.244  1.4381 -0.3817  1.1417
 1278SOL    HW3 5159   1.264   0.092   2.248  2.2702 -0.8089  1.7774
 1278SOL    MW4 5160   1.324   0.146   2.213  0.5884  0.0934  0.1841
 1279SOL     OW 5161   1.340   0.395   2.332  0.3559 -0.0350  0.0627
 1279SOL    HW2 5162   1.342   0.376   2.426 -0.8877  1.0346  0.3141
 1279SOL    HW3 5163   1.412   0.456   2.317  0.4694 -0.1046  0.3330
 1279SOL    MW4 5164   1.350   0.400   2.342  0.2067  0.0969  0.1314
 1280SOL     OW 5165   1.578   0.523   2.236 -0.1123  0.0530 -0.2747
 1280SOL    HW2 5166   1.645   0.469   2.278 -0.6175  1.1827  2.0535
 1280SOL    HW3 5167   1.579   0.605   2.286 -1.5009  1.0305 -1.8072
 1280SOL    MW4 5168   1.587   0.527   2.248 -0.3622  0.3310 -0.1698
 1281SOL     OW 5169   1.576   0.756   2.376 -0.4620 -0.0597 -0.4833
 1281SOL    HW2 5170   1.659   0.790   2.341 -0.9462  0.0730 -1.5399
 1281SOL    HW3 5171   1.509   0.796   2.320 -1.2475 -0.1329  0.3870
 1281SOL    MW4 5172   1.578   0.766   2.364 -0.6294 -0.0518 -0.5081
 1282SOL     OW 5173   1.374   0.868   2.211 -0.1254  0.3966  0.4872
 1282SOL    HW2 5174   1.386   0.954   2.251 -0.0740  1.6911 -2.1640
 1282SOL    HW3 5175   1.292   0.836   2.246 -0.0305  1.4241  1.6894
 1282SOL    MW4 5176   1.365   0.875   2.221 -0.1062  0.7030  0.2961
 1283SOL     OW 5177   1.366   1.127   2.337 -0.2164 -0.3391 -0.7308
 1283SOL    HW2 5178   1.370   1.124   2.433  0.5293 -0.8236 -0.7767
 1283SOL    HW3 5179   1.296   1.190   2.318  0.0455  0.2236  0.1296
 1283SOL    MW4 5180   1.357   1.135   2.347 -0.0833 -0.3288 -0.6235
 1284SOL     OW 5181   1.583   1.267   2.260  0.4108  0.2322 -0.0451
 1284SOL    HW2 5182   1.500   1.225   2.284 -0.7796  1.5406 -1.7048
 1284SOL    HW3 5183   1.591   1.251   2.166  3.5506 -2.4171  0.6152
 1284SOL    MW4 5184   1.573   1.260   2.250  0.6679  0.0553 -0.1769
 1285SOL     OW 5185   1.536   1.521   2.353 -0.1115 -0.3502 -0.0100
 1285SOL    HW2 5186   1.619   1.566   2.335 -0.5153  0.2344 -0.4725
 1285SOL    HW3 5187   1.552   1.430   2.328  0.3341 -0.2027 -0.2711
 1285SOL    MW4 5188   1.549   1.515   2.347 -0.1060 -0.2537 -0.1054
 1286SOL     OW 5189   1.366   1.694   2.230  0.5149 -0.0742 -0.0784
 1286SOL    HW2 5190   1.444   1.647   2.259 -0.2191 -1.0441  0.3591
 1286SOL    HW3 5191   1.294   1.647   2.271 -0.4335 -0.3722 -2.0391
 1286SOL    MW4 5192   1.367   1.682   2.240  0.2929 -0.2414 -0.2794
 1287SOL     OW 5193   1.318   1.908   2.373 -0.0090  0.0406 -0.2080
 1287SOL    HW2 5194   1.395   1.956   2.342  0.3300 -0.1878  0.2724
 1287SOL    HW3 5195   1.324   1.823   2.329 -0.3767  0.2810 -0.7266
 1287SOL    MW4 5196   1.329   1.903   2.363 -0.0128  0.0421 -0.2131
 1288SOL     OW 5197   1.574   2.020   2.299  0.1164 -0.2119  0.3520
 1288SOL    HW2 5198   1.657   1.981   2.328 -0.2332  0.0912  1.8204
 1288SOL    HW3 5199   1.572   2.004   2.205  2.0103  0.1057  0.2331
 1288SOL    MW4 5200   1.585   2.013   2.290  0.3201 -0.1302  0.5302
 1289SOL     OW 5201   1.543   2.290   2.333 -0.1588  0.1009 -0.4026
 1289SOL    HW2 5202   1.537   2.302   2.428  3.0375  1.9851 -0.3932
 1289SOL    HW3 5203   1.550   2.195   2.322 -0.1683 -0.1098  1.2592
 1289SOL    MW4 5204   1.543   2.279   2.344  0.2615  0.3216 -0.1824
 1290SOL     OW 5205   1.341   2.473   2.233 -0.3809  0.1195  0.1504
 1290SOL    HW2 5206   1.395   2.399   2.259 -1.1230 -0.6346 -0.4414
 1290SOL    HW3 5207   1.345   2.474   2.138 -0.3464  0.8668  0.1516
 1290SOL    MW4 5208   1.349   2.464   2.224 -0.4742  0.1187  0.0725
 1291SOL     OW 5209   1.370   2.729   2.350 -0.3207  0.3860 -0.5922
 1291SOL    HW2 5210   1.456   2.763   2.326  0.3375  1.0551  2.5048
 1291SOL    HW3 5211   1.370   2.638   2.320  0.9769  0.7483 -1.7166
 1291SOL    MW4 5212   1.381   2.722   2.343 -0.0626  0.5219 -0.3321
 1292SOL     OW 5213   1.602   2.847   2.224 -0.5152 -0.2201  0.2964
 1292SOL    HW2 5214   1.610   2.936   2.258 -0.4675 -0.0912 -0.0561
 1292SOL    HW3 5215   1.607   2.856   2.129  0.5016 -0.6934  0.2891
 1292SOL    MW4 5216   1.604   2.860   2.216 -0.3748 -0.2656  0.2489
 1293SOL     OW 5217   1.585   3.108   2.331 -0.2788  0.6243 -0.2656
 1293SOL    HW2 5218   1.584   3.113   2.426  0.1274 -2.0436 -0.0986
 1293SOL    HW3 5219   1.496   3.135   2.305 -1.4150 -1.6725  1.0706
 1293SOL    MW4 5220   1.573   3.112   2.340 -0.3752 -0.0308 -0.0672
 1294SOL     OW 5221   1.347   3.223   2.249  0.3693  0.6727 -0.4553
 1294SOL    HW2 5222   1.271   3.176   2.285  0.2185  1.8485  0.7878
 1294SOL    HW3 5223   1.324   3.238   2.157  0.1322 -1.0832 -0.6982
 1294SOL    MW4 5224   1.334   3.219   2.242  0.3182  0.5958 -0.3235
 1295SOL     OW 5225   1.350   3.511   2.286 -0.4466 -0.4627  0.5706
 1295SOL    HW2 5226   1.337   3.516   2.381  0.9838  0.0730  0.7505
 1295SOL    HW3 5227   1.362   3.418   2.268  0.6761 -0.4269  1.1116
 1295SOL    MW4 5228   1.350   3.500   2.297 -0.1098 -0.3874  0.6654
 1296SOL     OW 5229   1.587   3.637   2.206 -0.4758  0.1207 -0.2525
 1296SOL    HW2 5230   1.595   3.724   2.245  0.2111 -0.6643  1.4046
 1296SOL    HW3 5231   1.507   3.601   2.245  1.1601 -1.3517  1.8620
 1296SOL    MW4 5232   1.577   3.643   2.217 -0.1693 -0.1774  0.2449
 1297SOL     OW 5233   1.577   3.887   2.348  0.4794  0.5097  0.0466
 1297SOL    HW2 5234   1.589   3.866   2.440 -0.6931  0.9233  0.3111
 1297SOL    HW3 5235   1.655   3.938   2.325  1.6744 -1.1539  0.2923
 1297SOL    MW4 5236   1.589   3.891   2.357  0.4824  0.3450  0.1140
 1298SOL     OW 5237   1.354   4.039   2.201 -0.2813  0.3498  0.4067
 1298SOL    HW2 5238   1.429   3.984   2.223 -1.4080 -0.0968  3.2973
 1298SOL    HW3 5239   1.342   4.026   2.107  2.5828 -0.3999  0.0913
 1298SOL    MW4 5240   1.363   4.030   2.191 -0.0521  0.1922  0.7465
 1299SOL     OW 5241   1.371   4.292   2.321  0.3161  0.2518 -0.5292
 1299SOL    HW2 5242   1.371   4.206   2.279 -0.2035 -0.0515  0.0895
 1299SOL    HW3 5243   1.288   4.331   2.296  0.2236  0.2717 -0.1997
 1299SOL    MW4 5244   1.360   4.286   2.312  0.2352  0.2146 -0.4041
 1300SOL     OW 5245   1.575   4.436   2.193 -0.0267  0.5148 -0.2850
 1300SOL    HW2 5246   1.495   4.389   2.219  0.3779 -0.1121 -0.1580
 1300SOL    HW3 5247   1.567   4.522   2.233 -1.3542  0.9928 -1.5120
 1300SOL    MW4 5248   1.563   4.441   2.201 -0.1484  0.4950 -0.4303
 1301SOL     OW 5249   2.028   4.637   2.351  0.1620  0.0597  0.5760
 1301SOL    HW2 5250   2.111   4.673   2.319 -0.3064  0.7234  0.1029
 1301SOL    HW3 5251   2.035   4.543   2.333  0.7640  0.1280  0.4235
 1301SOL    MW4 5252   2.040   4.629   2.344  0.1798  0.1559  0.4935
 1302SOL     OW 5253   1.809   0.127   2.234 -0.0244  0.0189  0.7884
 1302SOL    HW2 5254   1.801   0.217   2.266  0.3361  0.4287 -0.2607
 1302SOL    HW3 5255   1.875   0.087   2.291  0.0926  0.5336  1.0163
 1302SOL    MW4 5256   1.817   0.134   2.246  0.0385  0.1409  0.6800
 1303SOL     OW 5257   1.805   0.382   2.332  0.0393  0.2389 -0.4503
 1303SOL    HW2 5258   1.822   0.385   2.426  0.0625  0.9605 -0.4727
 1303SOL    HW3 5259   1.888   0.408   2.292  0.1887 -0.6129 -0.6833
 1303SOL    MW4 5260   1.818   0.386   2.339  0.0621  0.2217 -0.4840
 1304SOL     OW 5261   2.022   0.473   2.218 -0.0507 -0.5271  0.2110
 1304SOL    HW2 5262   2.016   0.564   2.250  0.1484 -0.6733  0.6644
 1304SOL    HW3 5263   2.047   0.482   2.126 -0.4359 -0.1102  0.1417
 1304SOL    MW4 5264   2.024   0.487   2.210 -0.0756 -0.4914  0.2618
 1305SOL     OW 5265   2.006   0.712   2.353  0.5242 -0.2472 -0.0392
 1305SOL    HW2 5266   2.086   0.763   2.351  0.4975 -0.1885  0.3897
 1305SOL    HW3 5267   1.941   0.767   2.310  0.3200  0.3896  1.0590
 1305SOL    MW4 5268   2.008   0.726   2.347  0.4938 -0.1554  0.1621
 1306SOL     OW 5269   1.794   0.868   2.265  0.1971  0.0143  0.1826
 1306SOL    HW2 5270   1.788   0.960   2.292 -1.4908 -0.3238  1.0670
 1306SOL    HW3 5271   1.771   0.869   2.172  0.2302  0.4964  0.1783
 1306SOL    MW4 5272   1.790   0.880   2.256 -0.0213  0.0333  0.2987
 1307SOL     OW 5273   1.792   1.128   2.379  0.4040  0.5580  0.1572
 1307SOL    HW2 5274   1.867   1.169   2.337  0.5139 -0.1082 -0.2913
 1307SOL    HW3 5275   1.716   1.162   2.331  0.5204 -0.0827 -0.4825
 1307SOL    MW4 5276   1.792   1.138   2.367  0.4339  0.3856  0.0136
 1308SOL     OW 5277   2.015   1.256   2.277 -0.0656 -0.1875  0.2383
 1308SOL    HW2 5278   2.012   1.349   2.299 -1.8151 -0.4019  0.9766
 1308SOL    HW3 5279   2.017   1.255   2.181 -2.3142  0.5935  0.1525
 1308SOL    MW4 5280   2.015   1.268   2.267 -0.5932 -0.1128  0.3245
 1309SOL     OW 5281   2.016   1.525   2.353  0.4148  0.0043 -0.3860
 1309SOL    HW2 5282   2.020   1.532   2.448 -1.1996 -2.1355 -0.1318
 1309SOL    HW3 5283   1.934   1.569   2.329  1.0994  1.0437 -0.8606
 1309SOL    MW4 5284   2.005   1.532   2.362  0.2921 -0.1408 -0.4153
 1310SOL     OW 5285   1.775   1.638   2.281  0.5716 -0.5819  0.4075
 1310SOL    HW2 5286   1.807   1.724   2.308 -0.2932 -0.1334  0.0323
 1310SOL    HW3 5287   1.789   1.636   2.186 -1.6850  0.1478  0.0279
 1310SOL    MW4 5288   1.781   1.649   2.272  0.1597 -0.4263  0.3080
 1311SOL     OW 5289   1.841   1.898   2.352 -0.1527  0.2590 -0.0694
 1311SOL    HW2 5290   1.856   1.918   2.445 -0.0584  0.1985 -0.0708
 1311SOL    HW3 5291   1.916   1.938   2.308  1.1037 -1.7992  0.1290
 1311SOL    MW4 5292   1.853   1.906   2.359  0.0255 -0.0205 -0.0436
 1312SOL     OW 5293   2.029   2.065   2.260  0.0275  0.1314  0.1935
 1312SOL    HW2 5294   2.111   2.027   2.293 -0.8810 -1.4468  0.7042
 1312SOL    HW3 5295   2.041   2.069   2.165  0.3057 -1.0595  0.1754
 1312SOL    MW4 5296   2.041   2.060   2.252 -0.0556 -0.2339  0.2584
 1313SOL     OW 5297   1.981   2.320   2.350 -0.3661  0.3042 -0.6462
 1313SOL    HW2 5298   2.067   2.338   2.313  0.6179 -0.4679  1.1961
 1313SOL    HW3 5299   1.962   2.230   2.325 -0.9307  0.6811 -1.5914
 1313SOL    MW4 5300   1.990   2.311   2.342 -0.3108  0.2522 -0.5279
 1314SOL     OW 5301   1.752   2.458   2.265 -0.6924 -0.3876 -0.1609
 1314SOL    HW2 5302   1.824   2.418   2.315 -0.3093  1.1455  0.5432
 1314SOL    HW3 5303   1.677   2.400   2.280 -0.6820  0.2567  2.5105
 1314SOL    MW4 5304   1.752   2.445   2.273 -0.6405 -0.1001  0.2847
 1315SOL     OW 5305   1.814   2.701   2.317  0.0623  0.0575 -0.1676
 1315SOL    HW2 5306   1.792   2.611   2.292  0.9435 -0.0973 -0.3876
 1315SOL    HW3 5307   1.745   2.754   2.277  0.5788 -0.3362 -1.6088
 1315SOL    MW4 5308   1.802   2.696   2.308  0.2469 -0.0148 -0.3865
 1316SOL     OW 5309   2.035   2.832   2.252 -0.3528  0.4352  0.3541
 1316SOL    HW2 5310   2.112   2.782   2.277 -0.1990  0.4940 -0.0080
 1316SOL    HW3 5311   1.961   2.777   2.279 -0.1871 -0.2665 -0.6146
 1316SOL    MW4 5312   2.035   2.818   2.259 -0.3109  0.3502  0.1786
 1317SOL     OW 5313   2.027   3.109   2.357 -0.0058  0.6851 -0.2140
 1317SOL    HW2 5314   2.111   3.152   2.345  0.5918 -0.4534 -0.1207
 1317SOL    HW3 5315   2.039   3.020   2.323 -0.4097 -0.3060  2.1173
 1317SOL    MW4 5316   2.039   3.103   2.351  0.0200  0.4044  0.1059
 1318SOL     OW 5317   1.824   3.211   2.202 -0.1074  0.1289  0.3795
 1318SOL    HW2 5318   1.895   3.166   2.247  0.1989 -0.7452 -0.9438
 1318SOL    HW3 5319   1.744   3.177   2.244  0.1994  0.1002  0.9472
 1318SOL    MW4 5320   1.823   3.201   2.214 -0.0266  0.0100  0.2797
 1319SOL     OW 5321   1.827   3.474   2.296  0.3546 -0.1107 -0.1795
 1319SOL    HW2 5322   1.837   3.390   2.251 -0.3010 -0.1372 -0.2836
 1319SOL    HW3 5323   1.751   3.515   2.254  0.0432  0.0836  0.5665
 1319SOL    MW4 5324   1.819   3.468   2.284  0.2270 -0.0887 -0.0949
 1320SOL     OW 5325   2.027   3.635   2.266  0.0492  0.2342 -0.0380
 1320SOL    HW2 5326   1.957   3.572   2.286  1.5035 -0.8874  1.7240
 1320SOL    HW3 5327   2.032   3.637   2.171 -1.9925 -0.0954 -0.1735
 1320SOL    MW4 5328   2.018   3.627   2.256 -0.0284  0.0427  0.1767
 1321SOL     OW 5329   2.008   3.910   2.327  0.0171  0.0709  0.2309
 1321SOL    HW2 5330   2.004   3.914   2.423  0.3038  1.8563  0.1991
 1321SOL    HW3 5331   2.009   3.817   2.306 -1.3493 -0.3331  1.9057
 1321SOL    MW4 5332   2.008   3.898   2.337 -0.1252  0.2534  0.4475
 1322SOL     OW 5333   1.766   4.040   2.212  0.5031 -0.4448 -0.1431
 1322SOL    HW2 5334   1.852   4.006   2.238  0.3368 -0.7043  0.0710
 1322SOL    HW3 5335   1.758   4.016   2.119  0.8781  0.0301 -0.3001
 1322SOL    MW4 5336   1.776   4.032   2.203  0.5306 -0.4158 -0.1357
 1323SOL     OW 5337   1.780   4.287   2.329 -0.5917 -0.4215  0.2405
 1323SOL    HW2 5338   1.775   4.201   2.288 -0.0970  0.2836 -1.3125
 1323SOL    HW3 5339   1.703   4.334   2.296  0.7364  0.7400 -1.2829
 1323SOL    MW4 5340   1.769   4.282   2.319 -0.3512 -0.1755 -0.1652
 1324SOL     OW 5341   2.053   4.380   2.260  0.2693  0.4823  0.2172
 1324SOL    HW2 5342   1.967   4.358   2.298  0.1741  0.1086 -0.2123
 1324SOL    HW3 5343   2.034   4.402   2.169  0.7869 -0.7752 -0.2016
 1324SOL    MW4 5344   2.039   4.380   2.253  0.3247  0.2675  0.1051
 1325SOL     OW 5345   2.505   4.659   2.348 -0.2577 -0.1276 -0.4340
 1325SOL    HW2 5346   2.588   4.700   2.321  0.3945 -1.1629 -0.0441
 1325SOL    HW3 5347   2.513   4.568   2.318 -0.8279 -0.4856  0.4974
 1325SOL    MW4 5348   2.517   4.652   2.340 -0.2468 -0.3114 -0.2599
 1326SOL     OW 5349   2.262   0.080   2.260 -1.0961 -0.0520  0.0182
 1326SOL    HW2 5350   2.259   0.165   2.304 -0.0779  0.0976 -0.1871
 1326SOL    HW3 5351   2.343   0.039   2.291 -1.0824 -0.5334 -0.6354
 1326SOL    MW4 5352   2.273   0.086   2.270 -0.9599 -0.0958 -0.0951
 1327SOL     OW 5353   2.243   0.342   2.367 -0.0167 -0.0928  0.3321
 1327SOL    HW2 5354   2.316   0.382   2.320 -0.2855  0.5825  0.4833
 1327SOL    HW3 5355   2.166   0.393   2.339 -0.2564 -0.0440  1.0784
 1327SOL    MW4 5356   2.242   0.354   2.357 -0.0839  0.0027  0.4504
 1328SOL     OW 5357   2.453   0.484   2.245 -0.4491  0.6858  0.0650
 1328SOL    HW2 5358   2.533   0.437   2.268 -0.0381  1.1214 -0.4853
 1328SOL    HW3 5359   2.446   0.475   2.150 -1.1247  0.5301  0.1265
 1328SOL    MW4 5360   2.463   0.476   2.236 -0.4842  0.7228  0.0002
 1329SOL     OW 5361   2.467   0.738   2.380 -0.1643 -0.2130 -0.3189
 1329SOL    HW2 5362   2.537   0.776   2.327 -0.5090  0.0983 -0.5650
 1329SOL    HW3 5363   2.444   0.657   2.335 -0.5009  0.0841 -0.6877
 1329SOL    MW4 5364   2.473   0.733   2.367 -0.2542 -0.1327 -0.4001
 1330SOL     OW 5365   2.240   0.873   2.317  0.2399  0.1458 -0.3594
 1330SOL    HW2 5366   2.248   0.968   2.325  0.4476  0.1514 -0.6283
 1330SOL    HW3 5367   2.325   0.839   2.345  0.9864  0.1658 -2.5057
 1330SOL    MW4 5368   2.252   0.881   2.322  0.3662  0.1491 -0.6778
 1331SOL     OW 5369   2.261   1.161   2.359  0.0530  0.1505 -0.6641
 1331SOL    HW2 5370   2.335   1.212   2.325 -0.6031  1.7227  0.1816
 1331SOL    HW3 5371   2.184   1.202   2.319 -0.3460 -1.7165 -1.8329
 1331SOL    MW4 5372   2.261   1.173   2.349 -0.0863  0.1117 -0.7067
 1332SOL     OW 5373   2.471   1.265   2.250  0.5445 -0.0418  0.2222
 1332SOL    HW2 5374   2.543   1.209   2.281  0.8065  0.4686  0.5280
 1332SOL    HW3 5375   2.492   1.352   2.283  0.3993  0.3404 -0.7014
 1332SOL    MW4 5376   2.483   1.269   2.259  0.5600  0.0759  0.1407
 1333SOL     OW 5377   2.505   1.521   2.354  0.0642 -0.0101  0.4587
 1333SOL    HW2 5378   2.511   1.526   2.450 -0.0658  1.3825  0.3991
 1333SOL    HW3 5379   2.585   1.564   2.323  1.3751 -2.7245 -0.0456
 1333SOL    MW4 5380   2.516   1.527   2.363  0.2198 -0.1845  0.3843
 1334SOL     OW 5381   2.255   1.653   2.277 -0.1401  0.1321  0.2277
 1334SOL    HW2 5382   2.330   1.600   2.303 -0.9416 -1.0349  0.2018
 1334SOL    HW3 5383   2.180   1.611   2.319 -1.0903 -0.1452 -1.6825
 1334SOL    MW4 5384   2.255   1.640   2.286 -0.3710 -0.0584 -0.0277
 1335SOL     OW 5385   2.253   1.929   2.357 -0.9126  0.0319 -0.0654
 1335SOL    HW2 5386   2.334   1.972   2.330 -1.5194 -0.1123 -2.1483
 1335SOL    HW3 5387   2.266   1.837   2.334 -0.9341 -0.3277  1.3246
 1335SOL    MW4 5388   2.266   1.922   2.351 -0.9956 -0.0345 -0.1569
 1336SOL     OW 5389   2.491   2.047   2.246  0.0274 -0.1052 -0.0052
 1336SOL    HW2 5390   2.582   2.033   2.271  0.0467  1.2936  0.7758
 1336SOL    HW3 5391   2.487   2.019   2.155  1.4529  0.5805 -0.3021
 1336SOL    MW4 5392   2.502   2.042   2.237  0.2177  0.1700  0.0584
 1337SOL     OW 5393   2.475   2.309   2.324 -0.1568 -0.1470 -0.7089
 1337SOL    HW2 5394   2.557   2.348   2.296  0.3385 -0.4846  0.2444
 1337SOL    HW3 5395   2.481   2.218   2.298  0.1324 -0.3672  0.1069
 1337SOL    MW4 5396   2.486   2.302   2.317 -0.0532 -0.2205 -0.4756
 1338SOL     OW 5397   2.233   2.395   2.222  0.4091  0.4532 -0.4437
 1338SOL    HW2 5398   2.253   2.487   2.240 -0.2087  0.6739 -0.8728
 1338SOL    HW3 5399   2.301   2.347   2.269  0.3225  1.0989  0.3727
 1338SOL    MW4 5400   2.245   2.401   2.231  0.3161  0.5677 -0.3927
 1339SOL     OW 5401   2.272   2.702   2.299  0.2175 -0.1042  0.0328
 1339SOL    HW2 5402   2.272   2.695   2.395  0.0966  0.8729  0.1083
 1339SOL    HW3 5403   2.355   2.744   2.278 -0.0431  0.2700 -0.2477
 1339SOL    MW4 5404   2.283   2.706   2.309  0.1669  0.0741  0.0060
 1340SOL     OW 5405   2.499   2.860   2.236 -0.0287  0.5824 -0.1519
 1340SOL    HW2 5406   2.584   2.827   2.265 -0.5828 -1.4409 -0.6900
 1340SOL    HW3 5407   2.503   2.857   2.141 -0.7599  0.2754 -0.1781
 1340SOL    MW4 5408   2.511   2.855   2.227 -0.1986  0.2749 -0.2265
 1341SOL     OW 5409   2.470   3.121   2.355 -0.6577 -0.0756  0.0490
 1341SOL    HW2 5410   2.538   3.165   2.304 -2.8172  1.5834 -1.5167
 1341SOL    HW3 5411   2.451   3.041   2.306 -0.0847 -0.3757  0.3101
 1341SOL    MW4 5412   2.477   3.116   2.342 -0.8671  0.1035 -0.1233
 1342SOL     OW 5413   2.255   3.235   2.240 -0.1627 -0.3685 -0.2791
 1342SOL    HW2 5414   2.242   3.326   2.266 -0.8533 -0.4646 -0.2890
 1342SOL    HW3 5415   2.332   3.207   2.291 -1.3401 -0.4737  1.4817
 1342SOL    MW4 5416   2.264   3.243   2.251 -0.4091 -0.3951 -0.0482
 1343SOL     OW 5417   2.253   3.509   2.310 -0.2221  0.0185 -0.4081
 1343SOL    HW2 5418   2.268   3.504   2.405  0.0178 -0.8571 -0.4822
 1343SOL    HW3 5419   2.173   3.560   2.300 -0.5306 -0.3239  0.2938
 1343SOL    MW4 5420   2.245   3.515   2.321 -0.2310 -0.1421 -0.3252
 1344SOL     OW 5421   2.484   3.625   2.192  0.1257 -0.6909  0.4901
 1344SOL    HW2 5422   2.495   3.718   2.212 -0.7835 -0.3710 -0.4393
 1344SOL    HW3 5423   2.413   3.597   2.249 -1.1446 -0.2509 -0.8456
 1344SOL    MW4 5424   2.476   3.633   2.202 -0.1616 -0.5906  0.1910
 1345SOL     OW 5425   2.500   3.879   2.304 -0.0780 -0.4595  0.2625
 1345SOL    HW2 5426   2.481   3.868   2.397 -0.0175  0.7469  0.4265
 1345SOL    HW3 5427   2.422   3.921   2.267  0.0307 -0.6261 -0.1706
 1345SOL    MW4 5428   2.487   3.883   2.311 -0.0556 -0.3221  0.2270
 1346SOL     OW 5429   2.235   4.016   2.221  0.3103 -0.0100  0.3173
 1346SOL    HW2 5430   2.251   4.094   2.273  0.7024 -0.2320  0.5287
 1346SOL    HW3 5431   2.166   3.970   2.269 -1.4957  1.2973 -0.9707
 1346SOL    MW4 5432   2.228   4.020   2.234  0.1240  0.1335  0.1750
 1347SOL     OW 5433   2.275   4.254   2.346  0.4368  0.2827 -0.0620
 1347SOL    HW2 5434   2.261   4.264   2.440  1.1498  1.1085 -0.0297
 1347SOL    HW3 5435   2.193   4.286   2.307 -0.4181 -1.3833  0.2983
 1347SOL    MW4 5436   2.262   4.260   2.353  0.4179  0.1717 -0.0100
 1348SOL     OW 5437   2.465   4.410   2.228 -0.1437 -0.1024 -0.5196
 1348SOL    HW2 5438   2.537   4.351   2.249 -0.4851 -0.3229  0.0388
 1348SOL    HW3 5439   2.387   4.366   2.262 -0.4076  0.6240 -0.1775
 1348SOL    MW4 5440   2.465   4.397   2.236 -0.2234 -0.0353 -0.4005
 1349SOL     OW 5441   2.961   4.655   2.374  0.3464  0.7010 -0.1208
 1349SOL    HW2 5442   3.025   4.723   2.354 -0.0543  1.1131 -0.0144
 1349SOL    HW3 5443   2.972   4.591   2.304 -0.9949  2.1001 -1.6482
 1349SOL    MW4 5444   2.971   4.656   2.362  0.1166  0.9398 -0.3083
 1350SOL     OW 5445   2.725   0.112   2.261  0.0609 -0.3226  0.1711
 1350SOL    HW2 5446   2.716   0.202   2.293 -2.0743 -0.7163  0.7636
 1350SOL    HW3 5447   2.794   0.074   2.316  1.8341  1.2718 -0.8880
 1350SOL    MW4 5448   2.733   0.119   2.273  0.0129 -0.1641  0.1094
 1351SOL     OW 5449   2.664   0.367   2.347 -0.8818 -0.0367 -0.8883
 1351SOL    HW2 5450   2.667   0.362   2.442 -2.4296  1.1119 -0.7484
 1351SOL    HW3 5451   2.726   0.436   2.324 -0.0594 -0.7304 -0.7671
 1351SOL    MW4 5452   2.672   0.375   2.356 -0.9778  0.0233 -0.8540
 1352SOL     OW 5453   2.890   0.508   2.280 -0.6241  0.1671  0.0671
 1352SOL    HW2 5454   2.900   0.598   2.313  0.3383 -0.3382  1.1764
 1352SOL    HW3 5455   2.927   0.510   2.192 -1.0251  0.9576 -0.0907
 1352SOL    MW4 5456   2.896   0.520   2.273 -0.5500  0.2048  0.1929
 1353SOL     OW 5457   2.924   0.769   2.382 -0.3727 -0.2929 -0.2412
 1353SOL    HW2 5458   2.897   0.757   2.473 -1.2321  1.1617 -0.2915
 1353SOL    HW3 5459   2.844   0.795   2.336  0.0176 -1.1974 -1.4590
 1353SOL    MW4 5460   2.910   0.771   2.388 -0.4346 -0.2203 -0.4084
 1354SOL     OW 5461   2.693   0.877   2.262  0.4635  0.3790 -0.6722
 1354SOL    HW2 5462   2.683   0.966   2.297  0.1644  0.1930 -0.2732
 1354SOL    HW3 5463   2.695   0.889   2.167 -2.1117  0.6118 -0.7463
 1354SOL    MW4 5464   2.692   0.890   2.255  0.0844  0.3852 -0.6292
 1355SOL     OW 5465   2.673   1.145   2.360  0.1861 -0.5454  0.1915
 1355SOL    HW2 5466   2.674   1.140   2.456  0.3693 -0.4020  0.1972
 1355SOL    HW3 5467   2.758   1.183   2.337 -0.2965  0.4362  0.0235
 1355SOL    MW4 5468   2.684   1.149   2.370  0.1466 -0.3970  0.1702
 1356SOL     OW 5469   2.902   1.271   2.259  0.4111  0.0233 -0.3500
 1356SOL    HW2 5470   2.983   1.236   2.298  0.3711  0.0130 -0.2768
 1356SOL    HW3 5471   2.910   1.250   2.166  0.1078 -0.7119 -0.2120
 1356SOL    MW4 5472   2.914   1.263   2.252  0.3657 -0.0751 -0.3221
 1357SOL     OW 5473   2.986   1.539   2.335 -0.1805  0.4563  0.0460
 1357SOL    HW2 5474   2.990   1.533   2.431 -1.4965 -0.2375  0.0692
 1357SOL    HW3 5475   2.961   1.451   2.307 -1.5554  1.1033 -0.8268
 1357SOL    MW4 5476   2.983   1.526   2.344 -0.5355  0.4503 -0.0660
 1358SOL     OW 5477   2.742   1.662   2.276  0.2234  0.3614  0.3696
 1358SOL    HW2 5478   2.824   1.621   2.303 -0.5969 -0.6507  1.3707
 1358SOL    HW3 5479   2.750   1.672   2.181  0.9361 -1.0300  0.2690
 1358SOL    MW4 5480   2.754   1.658   2.267  0.2091  0.0443  0.4883
 1359SOL     OW 5481   2.729   1.941   2.356 -0.1385  0.3057 -0.3338
 1359SOL    HW2 5482   2.729   1.947   2.452  0.6324  0.5899 -0.3535
 1359SOL    HW3 5483   2.741   1.848   2.338  0.8526  0.4013 -0.1667
 1359SOL    MW4 5484   2.730   1.929   2.366  0.0937  0.3557 -0.3145
 1360SOL     OW 5485   2.920   2.076   2.233 -0.2004  0.4345  0.5340
 1360SOL    HW2 5486   2.997   2.035   2.272 -0.0163 -0.7238 -0.9958
 1360SOL    HW3 5487   2.846   2.042   2.283  0.2197  1.1251  1.6524
 1360SOL    MW4 5488   2.921   2.066   2.244 -0.1209  0.3729  0.4797
 1361SOL     OW 5489   2.929   2.337   2.328 -0.5379 -0.1500  0.3874
 1361SOL    HW2 5490   2.962   2.322   2.417  1.0291  0.2619 -0.1123
 1361SOL    HW3 5491   2.923   2.250   2.290  1.0667 -0.1411  0.1047
 1361SOL    MW4 5492   2.932   2.324   2.335 -0.1194 -0.0944  0.2842
 1362SOL     OW 5493   2.686   2.470   2.255  0.4753 -0.3174  0.1921
 1362SOL    HW2 5494   2.775   2.445   2.283  0.5699 -0.7357 -0.4711
 1362SOL    HW3 5495   2.692   2.476   2.160  0.2888  1.6587  0.2985
 1362SOL    MW4 5496   2.699   2.467   2.246  0.4632 -0.1121  0.1187
 1363SOL     OW 5497   2.726   2.766   2.333 -0.0388  0.2057  0.4514
 1363SOL    HW2 5498   2.746   2.677   2.303 -0.2753 -0.0372  1.0039
 1363SOL    HW3 5499   2.810   2.812   2.329  0.0640 -0.0115  0.0637
 1363SOL    MW4 5500   2.740   2.760   2.328 -0.0567  0.1450  0.4730
 1364SOL     OW 5501   2.976   2.866   2.282  0.2812  0.0043 -0.1875
 1364SOL    HW2 5502   2.951   2.955   2.309 -0.3253 -0.2918  0.2341
 1364SOL    HW3 5503   2.945   2.859   2.192 -0.9074 -0.2572  0.2375
 1364SOL    MW4 5504   2.969   2.877   2.274  0.0446 -0.0696 -0.0761
 1365SOL     OW 5505   2.910   3.131   2.361 -0.6662  0.3057  0.0818
 1365SOL    HW2 5506   2.989   3.172   2.326 -1.0200  0.4630 -0.5180
 1365SOL    HW3 5507   2.838   3.169   2.312 -1.1351  0.2812  0.7462
 1365SOL    MW4 5508   2.911   3.141   2.350 -0.7751  0.3233  0.0901
 1366SOL     OW 5509   2.697   3.231   2.199  0.1673  0.2207 -0.1701
 1366SOL    HW2 5510   2.710   3.321   2.230  2.9827 -0.1538 -0.1583
 1366SOL    HW3 5511   2.710   3.236   2.104 -1.0958  0.0570 -0.3632
 1366SOL    MW4 5512   2.700   3.244   2.190  0.3722  0.1497 -0.1941
 1367SOL     OW 5513   2.693   3.505   2.301  0.2664 -0.0963 -0.2740
 1367SOL    HW2 5514   2.763   3.568   2.287 -0.3711  0.1663 -2.4146
 1367SOL    HW3 5515   2.614   3.548   2.266 -0.2492 -1.8845 -1.3998
 1367SOL    MW4 5516   2.692   3.519   2.295  0.1144 -0.2973 -0.7048
 1368SOL     OW 5517   2.907   3.644   2.220 -0.1831  0.3987 -0.1666
 1368SOL    HW2 5518   2.985   3.590   2.235  0.1676  0.5040 -1.5482
 1368SOL    HW3 5519   2.931   3.731   2.250 -0.0574  0.2432  0.1836
 1368SOL    MW4 5520   2.920   3.648   2.226 -0.1204  0.3917 -0.3028
 1369SOL     OW 5521   2.964   3.911   2.341  0.0799 -0.3606  0.1366
 1369SOL    HW2 5522   2.971   3.885   2.433 -0.8262  0.7906  0.5423
 1369SOL    HW3 5523   2.880   3.957   2.336  0.8047  0.8463 -0.9541
 1369SOL    MW4 5524   2.954   3.914   2.353  0.0558 -0.0494  0.0460
 1370SOL     OW 5525   2.725   4.016   2.271 -0.0244  0.5445  0.5568
 1370SOL    HW2 5526   2.648   3.961   2.283  0.5123 -0.1586  0.8378
 1370SOL    HW3 5527   2.729   4.030   2.176 -1.2714  1.7370  0.6627
 1370SOL    MW4 5528   2.716   4.010   2.260 -0.1183  0.6089  0.6080
 1371SOL     OW 5529   2.689   4.296   2.332 -0.1816 -0.0191  0.3020
 1371SOL    HW2 5530   2.686   4.306   2.428 -1.3391  0.7207  0.2056
 1371SOL    HW3 5531   2.687   4.202   2.318  0.5766 -0.1555  1.0179
 1371SOL    MW4 5532   2.688   4.285   2.343 -0.2344  0.0606  0.3839
 1372SOL     OW 5533   2.940   4.417   2.254  0.2747 -0.3085  0.0980
 1372SOL    HW2 5534   2.996   4.362   2.310 -1.4791 -0.5570  1.6527
 1372SOL    HW3 5535   2.851   4.388   2.273 -0.5659  1.8424 -0.4218
 1372SOL    MW4 5536   2.936   4.405   2.264 -0.0675 -0.0577  0.2348
 1373SOL     OW 5537   3.368   0.033   2.373  0.0931 -0.3591 -0.1344
 1373SOL    HW2 5538   3.380   0.030   2.468  0.8171  1.8211 -0.1238
 1373SOL    HW3 5539   3.448   0.074   2.340 -0.6106 -0.1175 -1.5685
 1373SOL    MW4 5540   3.380   0.038   2.381  0.0958 -0.0396 -0.3219
 1374SOL     OW 5541   3.147   0.149   2.255 -0.0948  0.0376  0.1155
 1374SOL    HW2 5542   3.147   0.239   2.288  0.4343  0.9054 -2.1878
 1374SOL    HW3 5543   3.225   0.110   2.294  0.3573  0.9412  0.1275
 1374SOL    MW4 5544   3.157   0.156   2.265  0.0348  0.2713 -0.1872
 1375SOL     OW 5545   3.135   0.383   2.386 -0.0693  0.0328 -0.2080
 1375SOL    HW2 5546   3.200   0.447   2.358 -0.7777  1.4330  1.3002
 1375SOL    HW3 5547   3.052   0.418   2.355 -0.3848 -0.4973  0.0380
 1375SOL    MW4 5548   3.133   0.396   2.378 -0.2046  0.1476  0.0236
 1376SOL     OW 5549   3.338   0.539   2.294 -0.3203  0.8782  0.2101
 1376SOL    HW2 5550   3.419   0.508   2.334 -0.2490  1.0178  0.1738
 1376SOL    HW3 5551   3.357   0.539   2.200 -0.5933  0.2434  0.1540
 1376SOL    MW4 5552   3.351   0.535   2.287 -0.3467  0.8129  0.1979
 1377SOL     OW 5553   3.331   0.808   2.374 -0.1593 -0.3465 -0.1160
 1377SOL    HW2 5554   3.412   0.841   2.335 -1.4649  0.5453 -2.1239
 1377SOL    HW3 5555   3.326   0.717   2.345 -0.9988  0.2408 -1.8714
 1377SOL    MW4 5556   3.341   0.801   2.365 -0.4423 -0.1513 -0.6127
 1378SOL     OW 5557   3.122   0.914   2.240 -0.1075 -0.2534  0.1977
 1378SOL    HW2 5558   3.194   0.870   2.286 -0.4011 -0.1475  0.7622
 1378SOL    HW3 5559   3.043   0.871   2.272 -0.3256 -0.1035 -0.1315
 1378SOL    MW4 5560   3.121   0.902   2.250 -0.1750 -0.2196  0.2286
 1379SOL     OW 5561   3.137   1.169   2.355 -0.0579 -0.2584 -0.1124
 1379SOL    HW2 5562   3.226   1.201   2.336 -0.5044 -0.0267 -1.9370
 1379SOL    HW3 5563   3.132   1.085   2.310 -1.0851  0.1777 -0.8335
 1379SOL    MW4 5564   3.148   1.162   2.346 -0.2525 -0.1702 -0.4485
 1380SOL     OW 5565   3.378   1.287   2.260  0.8558  0.0259  0.5265
 1380SOL    HW2 5566   3.468   1.259   2.276  0.8556  0.5720  1.5457
 1380SOL    HW3 5567   3.374   1.376   2.295  0.0430  0.1707  0.0794
 1380SOL    MW4 5568   3.389   1.295   2.267  0.7484  0.1169  0.6018
 1381SOL     OW 5569   3.365   1.543   2.348 -0.4112 -0.5761 -0.1465
 1381SOL    HW2 5570   3.341   1.568   2.437  0.9468 -0.3552  0.1569
 1381SOL    HW3 5571   3.313   1.601   2.292  0.0453  0.4773  0.5132
 1381SOL    MW4 5572   3.355   1.554   2.352 -0.1719 -0.4079 -0.0193
 1382SOL     OW 5573   3.162   1.712   2.217  0.0939 -0.4306  0.0563
 1382SOL    HW2 5574   3.149   1.795   2.264 -0.0245 -0.4357  0.0342
 1382SOL    HW3 5575   3.098   1.653   2.256  0.2963 -0.5608  0.1902
 1382SOL    MW4 5576   3.152   1.715   2.228  0.1051 -0.4485  0.0710
 1383SOL     OW 5577   3.136   1.936   2.363 -0.3784 -0.2777 -0.4489
 1383SOL    HW2 5578   3.132   1.919   2.457 -0.6114 -2.6931 -0.8738
 1383SOL    HW3 5579   3.220   1.982   2.351 -0.0722 -0.4677  0.8470
 1383SOL    MW4 5580   3.147   1.940   2.374 -0.3686 -0.6216 -0.3340
 1384SOL     OW 5581   3.348   2.076   2.254  0.3737  0.2761 -0.0236
 1384SOL    HW2 5582   3.426   2.027   2.283 -0.2157 -0.8121 -0.2396
 1384SOL    HW3 5583   3.352   2.072   2.159  0.0187  0.1789 -0.0317
 1384SOL    MW4 5584   3.359   2.069   2.246  0.2489  0.1197 -0.0532
 1385SOL     OW 5585   3.376   2.326   2.373 -0.4534  0.0612  0.2311
 1385SOL    HW2 5586   3.303   2.372   2.331 -0.9608 -0.9064  0.0442
 1385SOL    HW3 5587   3.383   2.244   2.324  0.8990  0.2448  0.1168
 1385SOL    MW4 5588   3.367   2.322   2.361 -0.3417 -0.0424  0.1912
 1386SOL     OW 5589   3.163   2.457   2.264  0.0143  0.1012  0.0348
 1386SOL    HW2 5590   3.180   2.529   2.324 -0.1957  0.5651 -0.4517
 1386SOL    HW3 5591   3.080   2.419   2.293  1.2363 -1.4023  1.6783
 1386SOL    MW4 5592   3.155   2.461   2.276  0.1481 -0.0362  0.1874
 1387SOL     OW 5593   3.177   2.705   2.409 -0.0654 -0.3694  0.3136
 1387SOL    HW2 5594   3.160   2.696   2.503 -0.3750 -1.2116  0.1806
 1387SOL    HW3 5595   3.102   2.755   2.376  0.3060  0.3876  0.5968
 1387SOL    MW4 5596   3.164   2.711   2.417 -0.0575 -0.3805  0.3335
 1388SOL     OW 5597   3.386   2.853   2.267  0.1391  0.2008 -0.0437
 1388SOL    HW2 5598   3.378   2.939   2.308 -1.0324  0.4717 -0.7923
 1388SOL    HW3 5599   3.320   2.799   2.310  1.6365 -0.6589  1.2107
 1388SOL    MW4 5600   3.376   2.857   2.278  0.1822  0.1230  0.0231
 1389SOL     OW 5601   3.385   3.102   2.379  0.3397  0.1316  0.2252
 1389SOL    HW2 5602   3.448   3.164   2.339  0.1340  0.9411  1.1320
 1389SOL    HW3 5603   3.299   3.140   2.360  0.1883 -0.1463  0.3558
 1389SOL    MW4 5604   3.382   3.116   2.371  0.2928  0.2019  0.3619
 1390SOL     OW 5605   3.155   3.239   2.278  0.4236 -0.5535  0.0975
 1390SOL    HW2 5606   3.160   3.330   2.305  0.9243 -0.6979  0.4998
 1390SOL    HW3 5607   3.145   3.242   2.183 -2.0420 -0.0238  0.3345
 1390SOL    MW4 5608   3.154   3.251   2.269  0.1643 -0.5026  0.1819
 1391SOL     OW 5609   3.142   3.508   2.320 -0.2000  0.1716  0.3427
 1391SOL    HW2 5610   3.143   3.520   2.415 -1.2682  0.8596  0.2827
 1391SOL    HW3 5611   3.205   3.571   2.287 -0.4839  0.5643  0.5436
 1391SOL    MW4 5612   3.150   3.518   2.328 -0.3784  0.3145  0.3614
 1392SOL     OW 5613   3.361   3.656   2.257 -0.3560  0.2480 -0.1034
 1392SOL    HW2 5614   3.421   3.592   2.296 -0.7063 -0.4658 -0.7271
 1392SOL    HW3 5615   3.374   3.647   2.163 -0.7941  0.7304 -0.2133
 1392SOL    MW4 5616   3.370   3.647   2.250 -0.4601  0.2172 -0.2000
 1393SOL     OW 5617   3.412   3.888   2.397  0.3019  0.2671  0.0638
 1393SOL    HW2 5618   3.487   3.931   2.356 -0.8473 -0.1858 -2.6198
 1393SOL    HW3 5619   3.390   3.816   2.339 -1.8800  0.0558  1.0768
 1393SOL    MW4 5620   3.419   3.885   2.384 -0.1376  0.1793 -0.1566
 1394SOL     OW 5621   3.197   4.028   2.251  0.8423  0.1626  0.1005
 1394SOL    HW2 5622   3.264   3.974   2.293 -0.9675 -0.9436  1.6432
 1394SOL    HW3 5623   3.114   3.990   2.280 -0.4886  3.2116  0.4339
 1394SOL    MW4 5624   3.194   4.016   2.260  0.4277  0.4187  0.3481
 1395SOL     OW 5625   3.140   4.257   2.376 -0.2662  0.1106 -0.2149
 1395SOL    HW2 5626   3.204   4.323   2.350  0.7092 -0.1885  1.3309
 1395SOL    HW3 5627   3.164   4.179   2.326  0.2277  0.1668 -0.0688
 1395SOL    MW4 5628   3.152   4.256   2.366 -0.0725  0.0787  0.0083
 1396SOL     OW 5629   3.371   4.415   2.281 -0.4525  0.4505  0.4614
 1396SOL    HW2 5630   3.376   4.508   2.304 -0.4366  0.8168 -0.9355
 1396SOL    HW3 5631   3.371   4.415   2.185  1.1931 -1.0835  0.4442
 1396SOL    MW4 5632   3.371   4.427   2.271 -0.2332  0.2966  0.2747
 1397SOL     OW 5633   3.771   0.001   2.384  0.2948  0.0698 -0.3186
 1397SOL    HW2 5634   3.786  -0.010   2.478 -0.6966  0.7005 -0.0744
 1397SOL    HW3 5635   3.846   0.052   2.353 -0.1489  1.1887  0.4261
 1397SOL    MW4 5636   3.783   0.007   2.392  0.1054  0.3006 -0.1879
 1398SOL     OW 5637   3.590   0.184   2.274  0.1968  0.2368 -0.0037
 1398SOL    HW2 5638   3.578   0.267   2.320  0.6527  1.1491 -1.4939
 1398SOL    HW3 5639   3.659   0.139   2.323 -1.0225  0.1065  1.6351
 1398SOL    MW4 5640   3.598   0.189   2.286  0.0963  0.3399  0.0160
 1399SOL     OW 5641   3.563   0.428   2.412  0.1101  0.3906 -0.5540
 1399SOL    HW2 5642   3.560   0.411   2.506 -0.8756  2.6254 -0.1414
 1399SOL    HW3 5643   3.650   0.466   2.398  0.5755 -0.7100 -0.7028
 1399SOL    MW4 5644   3.574   0.431   2.423  0.0415  0.5402 -0.5193
 1400SOL     OW 5645   3.813   0.533   2.295  0.1870 -0.3147  0.0356
 1400SOL    HW2 5646   3.812   0.626   2.316 -1.1978 -0.4608  0.6576
 1400SOL    HW3 5647   3.813   0.530   2.199  2.1290  0.3156 -0.0130
 1400SOL    MW4 5648   3.813   0.545   2.285  0.2606 -0.2509  0.1111
 1401SOL     OW 5649   3.811   0.803   2.351  0.1745  0.3697  0.1389
 1401SOL    HW2 5650   3.808   0.796   2.447  0.4632  2.1878  0.2998
 1401SOL    HW3 5651   3.898   0.838   2.332  0.7866 -1.6359 -0.9337
 1401SOL    MW4 5652   3.822   0.806   2.361  0.2933  0.3450  0.0184
 1402SOL     OW 5653   3.569   0.900   2.279  0.5685 -0.1803  0.0457
 1402SOL    HW2 5654   3.658   0.871   2.298 -0.1908 -2.8577 -0.2752
 1402SOL    HW3 5655   3.570   0.922   2.186  0.9314 -0.0159  0.0887
 1402SOL    MW4 5656   3.581   0.899   2.269  0.5162 -0.5118  0.0091
 1403SOL     OW 5657   3.637   1.185   2.646  0.1638  0.8710 -0.3052
 1403SOL    HW2 5658   3.559   1.227   2.682  0.4301  0.4646  0.7629
 1403SOL    HW3 5659   3.710   1.231   2.686  0.4598 -0.2636  0.4928
 1403SOL    MW4 5660   3.636   1.196   2.656  0.2379  0.6677 -0.0589
 1404SOL     OW 5661   3.600   1.171   2.357 -0.1358  0.0650 -0.4205
 1404SOL    HW2 5662   3.622   1.169   2.450  1.9739  1.1551 -0.8697
 1404SOL    HW3 5663   3.587   1.079   2.333 -0.0672 -0.2712  0.8091
 1404SOL    MW4 5664   3.601   1.159   2.366  0.1516  0.1646 -0.3173
 1405SOL     OW 5665   3.824   1.291   2.264  0.2293  0.0445  0.0319
 1405SOL    HW2 5666   3.743   1.259   2.304  0.6001 -1.4772 -0.4038
 1405SOL    HW3 5667   3.832   1.381   2.296 -1.2539 -0.0197  0.6509
 1405SOL    MW4 5668   3.814   1.299   2.274  0.0825 -0.1647  0.0563
 1406SOL     OW 5669   3.595   1.656   2.235 -0.7458  0.2274  0.2295
 1406SOL    HW2 5670   3.512   1.617   2.261  0.0668 -2.1097 -0.5537
 1406SOL    HW3 5671   3.587   1.670   2.140 -1.0630  2.1120  0.5121
 1406SOL    MW4 5672   3.583   1.653   2.226 -0.6804  0.1677  0.1633
 1407SOL     OW 5673   3.559   1.928   2.343 -0.3353  0.0668  0.1690
 1407SOL    HW2 5674   3.644   1.971   2.329 -1.0787  1.7320  0.7607
 1407SOL    HW3 5675   3.572   1.840   2.308  1.8411  0.0926  0.8005
 1407SOL    MW4 5676   3.572   1.922   2.337 -0.1464  0.2900  0.3307
 1408SOL     OW 5677   3.803   2.080   2.274  0.1971  0.3767 -0.1027
 1408SOL    HW2 5678   3.883   2.035   2.300  0.5983  1.0398 -0.1954
 1408SOL    HW3 5679   3.814   2.097   2.180 -0.9222 -1.3410 -0.5799
 1408SOL    MW4 5680   3.815   2.076   2.265  0.1023  0.2372 -0.1779
 1409SOL     OW 5681   3.864   2.346   2.656 -0.1343  0.0119 -0.6331
 1409SOL    HW2 5682   3.851   2.343   2.561  0.6839 -1.7126 -0.7027
 1409SOL    HW3 5683   3.841   2.258   2.686  0.2676  0.3491  0.6884
 1409SOL    MW4 5684   3.859   2.334   2.648  0.0269 -0.1714 -0.4678
 1410SOL     OW 5685   3.833   2.345   2.378 -0.0984 -0.2783  0.0346
 1410SOL    HW2 5686   3.825   2.254   2.351 -0.7499 -0.1087 -0.3439
 1410SOL    HW3 5687   3.751   2.386   2.351  0.5138  0.6041 -0.5314
 1410SOL    MW4 5688   3.821   2.338   2.371 -0.1035 -0.1397 -0.0899
 1411SOL     OW 5689   3.609   2.708   2.353 -0.2180  0.2540 -0.0820
 1411SOL    HW2 5690   3.604   2.630   2.299  0.3531 -0.2121  0.5442
 1411SOL    HW3 5691   3.525   2.753   2.337  0.3918  0.6853 -2.1859
 1411SOL    MW4 5692   3.597   2.704   2.344 -0.0622  0.2496 -0.2770
 1412SOL     OW 5693   3.845   2.909   2.300  0.1476 -0.2843  0.8979
 1412SOL    HW2 5694   3.830   3.003   2.307  1.1953 -0.0199 -0.2826
 1412SOL    HW3 5695   3.758   2.870   2.308 -0.4959  0.8873 -0.2881
 1412SOL    MW4 5696   3.832   2.916   2.302  0.2010 -0.0951  0.5856
 1413SOL     OW 5697   3.811   3.181   2.344 -0.1427  0.3691 -0.2850
 1413SOL    HW2 5698   3.808   3.184   2.439 -0.2743  0.7888 -0.3037
 1413SOL    HW3 5699   3.902   3.203   2.322 -0.2757  0.9265 -0.2830
 1413SOL    MW4 5700   3.823   3.184   2.353 -0.1776  0.4978 -0.2873
 1414SOL     OW 5701   3.574   3.277   2.266  0.1450  0.0492  0.2708
 1414SOL    HW2 5702   3.582   3.370   2.288  1.1618 -0.0260  0.2405
 1414SOL    HW3 5703   3.661   3.241   2.283 -0.4551 -1.0577  1.0288
 1414SOL    MW4 5704   3.587   3.284   2.271  0.2000 -0.1070  0.3667
 1415SOL     OW 5705   3.601   3.543   2.358 -0.1587  0.1129 -0.1483
 1415SOL    HW2 5706   3.603   3.540   2.454  0.7115  0.3764 -0.1618
 1415SOL    HW3 5707   3.682   3.587   2.333 -0.7528  0.7590 -0.9807
 1415SOL    MW4 5708   3.612   3.548   2.368 -0.1221  0.2327 -0.2599
 1416SOL     OW 5709   3.855   3.630   2.287 -0.3996  0.2162  0.1267
 1416SOL    HW2 5710   3.874   3.720   2.311 -0.9894  0.4990 -0.4523
 1416SOL    HW3 5711   3.850   3.631   2.191  1.1307 -0.7435  0.0174
 1416SOL    MW4 5712   3.857   3.642   2.277 -0.2754  0.1268  0.0360
 1417SOL     OW 5713   3.850   3.891   2.344 -0.4771  0.3617 -0.4238
 1417SOL    HW2 5714   3.844   3.898   2.439 -1.2586 -0.2055 -0.4253
 1417SOL    HW3 5715   3.934   3.931   2.322 -0.5410  0.9867  0.4493
 1417SOL    MW4 5716   3.860   3.897   2.354 -0.5889  0.3691 -0.3090
 1418SOL     OW 5717   3.626   4.017   2.257 -0.0976 -0.0895  0.2329
 1418SOL    HW2 5718   3.622   4.108   2.287  0.4764  0.8712 -2.4263
 1418SOL    HW3 5719   3.715   3.989   2.278  0.2183  0.4871 -0.3005
 1418SOL    MW4 5720   3.638   4.025   2.264  0.0200  0.1135 -0.1881
 1419SOL     OW 5721   3.579   4.272   2.382 -0.2803 -0.5302  0.0760
 1419SOL    HW2 5722   3.651   4.327   2.351 -1.1818  1.3049  1.1607
 1419SOL    HW3 5723   3.502   4.306   2.337 -1.1909  0.5634  2.3937
 1419SOL    MW4 5724   3.579   4.284   2.372 -0.5193 -0.1440  0.5245
 1420SOL     OW 5725   3.777   4.418   2.258  0.0218  0.2175 -0.6450
 1420SOL    HW2 5726   3.858   4.375   2.283 -0.3133 -0.5255 -0.8355
 1420SOL    HW3 5727   3.774   4.497   2.312  1.2434  0.6390 -1.1691
 1420SOL    MW4 5728   3.787   4.423   2.268  0.1390  0.1750 -0.7393
 1421SOL     OW 5729   4.254   0.013   2.366 -0.2132  0.2130 -0.1195
 1421SOL    HW2 5730   4.250  -0.012   2.458  0.2814 -0.7903 -0.3719
 1421SOL    HW3 5731   4.344   0.042   2.353 -0.0314 -0.5328 -0.5203
 1421SOL    MW4 5732   4.265   0.014   2.376 -0.1245 -0.0178 -0.2055
 1422SOL     OW 5733   4.006   0.102   2.286  0.0159 -0.7239  0.3716
 1422SOL    HW2 5734   4.004   0.196   2.303  0.6713 -0.3447 -1.5204
 1422SOL    HW3 5735   4.094   0.074   2.312 -0.5010 -0.9981  1.8361
 1422SOL    MW4 5736   4.018   0.111   2.291  0.0343 -0.7100  0.3150
 1423SOL     OW 5737   4.022   0.380   2.356 -0.4870  0.2005 -0.8577
 1423SOL    HW2 5738   4.102   0.430   2.339 -0.2271  0.8867  2.1118
 1423SOL    HW3 5739   3.951   0.439   2.330 -0.0939  0.1955 -1.9926
 1423SOL    MW4 5740   4.024   0.394   2.350 -0.4010  0.2903 -0.6156
 1424SOL     OW 5741   4.252   0.515   2.311 -0.4168 -0.1629  0.0787
 1424SOL    HW2 5742   4.272   0.605   2.336 -2.0986  0.4348 -0.6585
 1424SOL    HW3 5743   4.332   0.467   2.330  1.1894  1.8435 -1.3985
 1424SOL    MW4 5744   4.265   0.521   2.317 -0.4268  0.1806 -0.2134
 1425SOL     OW 5745   4.275   0.791   2.371  0.1279  0.4266  0.2117
 1425SOL    HW2 5746   4.198   0.839   2.342 -0.0359  0.1360  0.1664
 1425SOL    HW3 5747   4.348   0.833   2.326 -0.0894  0.1738 -0.3839
 1425SOL    MW4 5748   4.275   0.803   2.362  0.0777  0.3549  0.1268
 1426SOL     OW 5749   4.054   0.905   2.280 -0.4056  0.6793  0.1882
 1426SOL    HW2 5750   4.049   0.998   2.304  0.7913  0.4880  1.2437
 1426SOL    HW3 5751   4.045   0.904   2.185 -1.4539  1.7864  0.2578
 1426SOL    MW4 5752   4.052   0.917   2.271 -0.3858  0.8001  0.3366
 1427SOL     OW 5753   4.060   1.168   2.338 -0.3434  0.2138 -0.0776
 1427SOL    HW2 5754   4.044   1.151   2.430 -0.0769 -2.0285 -0.4153
 1427SOL    HW3 5755   3.984   1.219   2.309 -1.7594 -1.3799  0.7533
 1427SOL    MW4 5756   4.048   1.172   2.346 -0.4950 -0.2923 -0.0124
 1428SOL     OW 5757   4.277   1.312   2.199 -0.1532  0.2630 -0.4068
 1428SOL    HW2 5758   4.213   1.244   2.218 -0.1828  0.9930  2.2626
 1428SOL    HW3 5759   4.358   1.282   2.240  1.0414 -0.2240 -2.9966
 1428SOL    MW4 5760   4.279   1.299   2.207  0.0005  0.2950 -0.3965
 1429SOL     OW 5761   4.297   1.545   2.337  0.3832  0.3061 -0.4763
 1429SOL    HW2 5762   4.300   1.465   2.285  2.6134  0.4627 -0.6393
 1429SOL    HW3 5763   4.362   1.603   2.297 -1.4267  2.3496 -0.5676
 1429SOL    MW4 5764   4.306   1.542   2.325  0.4387  0.5964 -0.5100
 1430SOL     OW 5765   4.067   1.681   2.293 -0.1405 -0.1200 -0.2037
 1430SOL    HW2 5766   4.143   1.630   2.323  1.1427  1.3702 -0.8271
 1430SOL    HW3 5767   3.991   1.630   2.320  1.0889 -1.4909  0.7239
 1430SOL    MW4 5768   4.067   1.668   2.301  0.1907 -0.1042 -0.1636
 1431SOL     OW 5769   4.072   1.955   2.346 -0.5795 -0.2076 -0.3391
 1431SOL    HW2 5770   4.082   1.948   2.441  0.5274  0.7505 -0.3626
 1431SOL    HW3 5771   4.080   1.865   2.314 -2.4857 -0.7239  0.5935
 1431SOL    MW4 5772   4.075   1.942   2.354 -0.6852 -0.1493 -0.2191
 1432SOL     OW 5773   4.300   2.101   2.239  0.1481 -0.0443  0.0051
 1432SOL    HW2 5774   4.289   2.183   2.286  0.4275  0.2388 -0.4208
 1432SOL    HW3 5775   4.228   2.046   2.269  0.1395  0.2500  0.5195
 1432SOL    MW4 5776   4.289   2.104   2.249  0.1841  0.0319  0.0167
 1433SOL     OW 5777   4.271   2.348   2.354 -0.1363  0.1246 -0.1248
 1433SOL    HW2 5778   4.194   2.382   2.308 -0.7668 -0.1705  0.6976
 1433SOL    HW3 5779   4.346   2.386   2.308 -0.7834  0.7459 -0.6723
 1433SOL    MW4 5780   4.271   2.357   2.342 -0.3042  0.1676 -0.0887
 1434SOL     OW 5781   4.052   2.480   2.242  0.2765 -0.3907  0.0601
 1434SOL    HW2 5782   3.977   2.442   2.289 -1.4289 -0.0685 -2.3235
 1434SOL    HW3 5783   4.060   2.569   2.277 -1.8314  0.3059 -1.1652
 1434SOL    MW4 5784   4.043   2.487   2.253 -0.2265 -0.2563 -0.4160
 1435SOL     OW 5785   4.054   2.733   2.377  0.1901  0.1166  0.2662
 1435SOL    HW2 5786   4.052   2.722   2.472  0.6168  1.4875  0.4425
 1435SOL    HW3 5787   3.994   2.805   2.359 -2.3146 -2.1712 -0.8357
 1435SOL    MW4 5788   4.046   2.741   2.387 -0.0839 -0.0045  0.1440
 1436SOL     OW 5789   4.275   2.847   2.261 -0.4117 -0.6887  0.1532
 1436SOL    HW2 5790   4.196   2.805   2.297 -0.1181  0.6511  2.4390
 1436SOL    HW3 5791   4.348   2.800   2.302 -0.0566 -0.3489 -0.0881
 1436SOL    MW4 5792   4.274   2.835   2.271 -0.3262 -0.4668  0.4230
 1437SOL     OW 5793   4.297   3.069   2.427 -0.3764 -0.3133 -0.2461
 1437SOL    HW2 5794   4.281   2.994   2.370 -1.2923  0.2955 -0.8122
 1437SOL    HW3 5795   4.378   3.108   2.393 -0.9761  0.1141 -1.2283
 1437SOL    MW4 5796   4.305   3.064   2.415 -0.5765 -0.1767 -0.4501
 1438SOL     OW 5797   4.080   3.199   2.265  0.5400  0.3083 -0.3977
 1438SOL    HW2 5798   4.094   3.293   2.280 -0.3336  0.3849 -0.0346
 1438SOL    HW3 5799   4.145   3.156   2.319  1.3687  0.7143 -1.0484
 1438SOL    MW4 5800   4.090   3.206   2.274  0.5341  0.3719 -0.4356
 1439SOL     OW 5801   4.085   3.471   2.350  0.4238  0.2732 -0.0202
 1439SOL    HW2 5802   4.150   3.531   2.314 -0.8831  1.2759 -0.8071
 1439SOL    HW3 5803   4.001   3.516   2.335 -0.5287 -1.4670 -0.0385
 1439SOL    MW4 5804   4.082   3.485   2.343  0.1249  0.1762 -0.1264
 1440SOL     OW 5805   4.276   3.619   2.243  0.0967 -0.3317  0.2090
 1440SOL    HW2 5806   4.279   3.710   2.274 -0.1806 -0.3897  0.4136
 1440SOL    HW3 5807   4.269   3.626   2.148 -0.6019 -0.1289  0.2732
 1440SOL    MW4 5808   4.275   3.632   2.235 -0.0315 -0.3126  0.2441
 1441SOL     OW 5809   4.278   3.883   2.361  0.1780  0.2780  0.0888
 1441SOL    HW2 5810   4.286   3.900   2.455 -0.2696  1.8138 -0.1397
 1441SOL    HW3 5811   4.364   3.905   2.326  0.0658  0.5862  0.0082
 1441SOL    MW4 5812   4.291   3.888   2.369  0.1044  0.5214  0.0482
 1442SOL     OW 5813   4.073   4.040   2.272 -0.1579 -0.0872  0.4604
 1442SOL    HW2 5814   4.149   3.989   2.299  0.4805 -0.1299 -1.3563
 1442SOL    HW3 5815   4.069   4.029   2.177 -2.4794 -0.1551  0.5204
 1442SOL    MW4 5816   4.082   4.032   2.263 -0.3805 -0.1016  0.2286
 1443SOL     OW 5817   4.022   4.305   2.331 -0.1304  0.2598  0.0804
 1443SOL    HW2 5818   4.085   4.352   2.276  0.4845 -0.4189  0.1771
 1443SOL    HW3 5819   4.035   4.213   2.306 -1.5002  0.1696 -0.3016
 1443SOL    MW4 5820   4.032   4.299   2.320 -0.2294  0.1583  0.0429
 1444SOL     OW 5821   4.257   4.445   2.232 -0.3675 -0.4055  0.2539
 1444SOL    HW2 5822   4.257   4.534   2.267 -0.4060  0.1991 -1.2138
 1444SOL    HW3 5823   4.329   4.402   2.277 -0.8980  0.1038  1.6105
 1444SOL    MW4 5824   4.267   4.451   2.242 -0.4425 -0.2589  0.2396
 1445SOL     OW 5825   0.218   4.651   2.645 -0.0187 -0.2191  0.2523
 1445SOL    HW2 5826   0.227   4.562   2.680 -0.6847 -0.6748 -0.7387
 1445SOL    HW3 5827   0.143   4.687   2.691 -1.4977 -1.1574 -1.3826
 1445SOL    MW4 5828   0.210   4.644   2.656 -0.3017 -0.4034 -0.0944
 1446SOL     OW 5829   0.007   0.103   3.037 -0.1989 -0.4218 -0.2160
 1446SOL    HW2 5830  -0.085   0.086   3.058 -0.8873 -0.1392 -2.8295
 1446SOL    HW3 5831   0.019   0.196   3.056 -0.2046 -0.6590  0.9630
 1446SOL    MW4 5832  -0.003   0.113   3.042 -0.2904 -0.4158 -0.4055
 1447SOL     OW 5833   4.478   0.090   2.771 -0.7334 -0.2957  0.0151
 1447SOL    HW2 5834   4.485   0.182   2.746 -0.0700  0.1970  1.8846
 1447SOL    HW3 5835   4.489   0.090   2.866 -1.5805 -2.2255  0.1523
 1447SOL    MW4 5836   4.480   0.102   2.781 -0.7586 -0.4853  0.2801
 1448SOL     OW 5837   0.218   0.485   2.710 -0.5442 -0.4108  0.7496
 1448SOL    HW2 5838   0.244   0.503   2.800 -0.9337  1.0879  0.5810
 1448SOL    HW3 5839   0.291   0.436   2.673  0.5549  0.8275  1.2464
 1448SOL    MW4 5840   0.231   0.481   2.717 -0.4506 -0.0497  0.7927
 1449SOL     OW 5841   0.207   0.764   2.623  0.5230  0.1913  0.2560
 1449SOL    HW2 5842   0.126   0.808   2.650  0.4507 -0.0152  0.3700
 1449SOL    HW3 5843   0.196   0.673   2.648  0.2645 -0.1031 -0.8859
 1449SOL    MW4 5844   0.195   0.758   2.630  0.4793  0.1252  0.1202
 1450SOL     OW 5845   4.473   0.911   2.732 -0.4145  0.1367 -0.1047
 1450SOL    HW2 5846   4.392   0.868   2.705 -0.9307  0.7085  0.5113
 1450SOL    HW3 5847   4.478   0.990   2.678  0.2723 -0.4336 -0.8808
 1450SOL    MW4 5848   4.463   0.916   2.722 -0.3920  0.1370 -0.1256
 1451SOL     OW 5849   4.262   1.261   2.723 -0.1603 -0.1539 -0.0517
 1451SOL    HW2 5850   4.286   1.249   2.815 -0.8031 -0.7326  0.0406
 1451SOL    HW3 5851   4.258   1.356   2.712 -1.3463 -0.0816  0.8617
 1451SOL    MW4 5852   4.264   1.272   2.734 -0.4015 -0.2205  0.0811
 1452SOL     OW 5853   0.225   1.264   2.705 -0.3464 -0.2745  0.4315
 1452SOL    HW2 5854   0.307   1.228   2.670  0.2348  2.1732 -0.8265
 1452SOL    HW3 5855   0.224   1.355   2.676 -2.3545  0.4229  2.5087
 1452SOL    MW4 5856   0.236   1.271   2.696 -0.5347  0.1404  0.5395
 1453SOL     OW 5857   0.220   1.532   2.635 -0.3637 -0.1066 -0.0270
 1453SOL    HW2 5858   0.292   1.577   2.679 -0.8453 -1.0173  1.7326
 1453SOL    HW3 5859   0.141   1.574   2.670 -0.7382  1.3683 -2.4536
 1453SOL    MW4 5860   0.219   1.544   2.645 -0.4767 -0.0322 -0.1152
 1454SOL     OW 5861   4.484   1.653   2.725 -0.0246  0.1963  0.3608
 1454SOL    HW2 5862   4.511   1.659   2.817  0.1507  2.0171  0.2083
 1454SOL    HW3 5863   4.489   1.743   2.692 -3.9989  0.2531 -0.3534
 1454SOL    MW4 5864   4.489   1.666   2.733 -0.5264  0.4441  0.2465
 1455SOL     OW 5865   4.476   1.911   2.611  0.1693  0.2683  0.1500
 1455SOL    HW2 5866   4.552   1.959   2.643  1.1973 -0.8058 -0.6183
 1455SOL    HW3 5867   4.465   1.941   2.521  0.3763 -0.4026 -0.1006
 1455SOL    MW4 5868   4.485   1.921   2.603  0.3328  0.0380  0.0160
 1456SOL     OW 5869   0.199   2.034   2.720  0.4309 -0.4811 -0.2973
 1456SOL    HW2 5870   0.284   1.997   2.698  0.9425  0.3221  0.3338
 1456SOL    HW3 5871   0.200   2.122   2.682 -0.6970 -1.0045 -1.5952
 1456SOL    MW4 5872   0.210   2.040   2.712  0.3496 -0.4442 -0.3853
 1457SOL     OW 5873   0.174   2.298   2.609  0.2540  0.5284  0.2279
 1457SOL    HW2 5874   0.256   2.332   2.646 -0.0207  1.3383  0.0980
 1457SOL    HW3 5875   0.106   2.330   2.669  0.1027 -0.8609  0.8221
 1457SOL    MW4 5876   0.176   2.306   2.622  0.1978  0.4520  0.2892
 1458SOL     OW 5877   4.475   2.457   2.742  0.1434 -0.0841 -0.1722
 1458SOL    HW2 5878   4.469   2.426   2.832  0.4004 -0.3150 -0.2320
 1458SOL    HW3 5879   4.402   2.416   2.696 -0.0304  0.0914 -0.0532
 1458SOL    MW4 5880   4.465   2.448   2.748  0.1545 -0.0916 -0.1643
 1459SOL     OW 5881   0.023   2.698   2.638 -0.0475 -0.8051 -0.2220
 1459SOL    HW2 5882  -0.053   2.740   2.678  0.5291 -0.1039  0.1341
 1459SOL    HW3 5883   0.024   2.610   2.676 -0.5354 -0.7419 -0.0517
 1459SOL    MW4 5884   0.013   2.692   2.648 -0.0353 -0.7043 -0.1526
 1460SOL     OW 5885   0.234   2.789   2.767  0.4187  0.2781 -0.0728
 1460SOL    HW2 5886   0.238   2.882   2.744 -0.0038  0.2672 -0.1947
 1460SOL    HW3 5887   0.158   2.756   2.719  1.0960 -0.3295 -0.7504
 1460SOL    MW4 5888   0.224   2.797   2.758  0.4523  0.1965 -0.1783
 1461SOL     OW 5889   0.211   3.058   2.676  0.2135 -0.4957 -0.1456
 1461SOL    HW2 5890   0.272   3.131   2.686 -0.3236  0.0191 -0.5365
 1461SOL    HW3 5891   0.199   3.050   2.581 -3.5479  2.1979 -0.0433
 1461SOL    MW4 5892   0.217   3.067   2.665 -0.3536 -0.0722 -0.1833
 1462SOL     OW 5893   0.018   3.246   2.752 -0.3024  0.0797 -0.0100
 1462SOL    HW2 5894  -0.062   3.199   2.730  0.0045 -0.2675 -0.4038
 1462SOL    HW3 5895   0.089   3.187   2.723  0.0940  0.2676  0.5613
 1462SOL    MW4 5896   0.017   3.232   2.746 -0.2096  0.0587  0.0136
 1463SOL     OW 5897   4.475   3.480   2.636 -0.0811 -0.0049 -0.2454
 1463SOL    HW2 5898   4.538   3.544   2.667  1.0180 -0.6661 -1.1009
 1463SOL    HW3 5899   4.504   3.397   2.673 -0.8926 -0.1802  0.0018
 1463SOL    MW4 5900   4.487   3.478   2.645 -0.0432 -0.1152 -0.3259
 1464SOL     OW 5901   0.175   3.637   2.733 -0.0976  0.0225  0.0593
 1464SOL    HW2 5902   0.172   3.632   2.828 -1.4876 -1.6354 -0.0437
 1464SOL    HW3 5903   0.244   3.576   2.707 -1.5168 -1.5543 -0.0988
 1464SOL    MW4 5904   0.184   3.629   2.742 -0.4683 -0.4041  0.0248
 1465SOL     OW 5905   0.454   4.054   3.037 -0.0842  0.0442  0.1276
 1465SOL    HW2 5906   0.372   4.014   3.067 -0.4964  1.3706  0.8448
 1465SOL    HW3 5907   0.448   4.050   2.942 -1.8592  1.7420  0.1187
 1465SOL    MW4 5908   0.442   4.049   3.029 -0.3728  0.4435  0.2210
 1466SOL     OW 5909   0.247   3.913   2.638 -0.2396  0.0395 -0.1264
 1466SOL    HW2 5910   0.245   3.910   2.543  1.5364 -0.7648 -0.1541
 1466SOL    HW3 5911   0.239   3.822   2.666 -1.5328  0.3390  0.5220
 1466SOL    MW4 5912   0.246   3.901   2.629 -0.1759 -0.0272 -0.0448
 1467SOL     OW 5913   4.478   4.273   2.647  0.1825  0.0943  0.6484
 1467SOL    HW2 5914   4.399   4.317   2.679  0.6413  1.5480 -0.1959
 1467SOL    HW3 5915   4.550   4.319   2.688  0.6175 -1.1914  1.3598
 1467SOL    MW4 5916   4.477   4.285   2.656  0.3004  0.1163  0.6311
 1468SOL     OW 5917   0.215   4.394   2.753  0.1072  0.0272 -0.0720
 1468SOL    HW2 5918   0.224   4.385   2.848  1.9222 -0.0023 -0.2230
 1468SOL    HW3 5919   0.298   4.360   2.718 -0.6272 -0.1465 -1.6760
 1468SOL    MW4 5920   0.227   4.388   2.761  0.2498  0.0005 -0.3037
 1469SOL     OW 5921   0.666   4.664   2.620 -0.0906  0.1418  0.2319
 1469SOL    HW2 5922   0.745   4.712   2.646  0.3547 -0.5568  0.1835
 1469SOL    HW3 5923   0.594   4.713   2.661  0.2866  1.3310 -0.5049
 1469SOL    MW4 5924   0.667   4.677   2.629  0.0179  0.2060  0.1283
 1470SOL     OW 5925   0.433   0.114   2.736  0.2587 -0.1992 -0.3136
 1470SOL    HW2 5926   0.423   0.100   2.830 -2.9336  0.5523 -0.4714
 1470SOL    HW3 5927   0.368   0.056   2.696  1.7579 -0.6983 -2.0951
 1470SOL    MW4 5928   0.423   0.105   2.743  0.0353 -0.1659 -0.5693
 1471SOL     OW 5929   0.436   0.361   2.600  0.2629 -0.2268  0.3231
 1471SOL    HW2 5930   0.511   0.411   2.633  0.6416 -0.3543 -0.3119
 1471SOL    HW3 5931   0.438   0.279   2.649  0.5904 -0.2587  0.2591
 1471SOL    MW4 5932   0.446   0.357   2.611  0.3560 -0.2479  0.2308
 1472SOL     OW 5933   0.673   0.498   2.671  0.0039 -0.0273 -0.3172
 1472SOL    HW2 5934   0.665   0.496   2.766 -0.5704  1.5958 -0.3093
 1472SOL    HW3 5935   0.681   0.591   2.650 -0.1385 -0.3547 -1.8804
 1472SOL    MW4 5936   0.673   0.510   2.681 -0.0907  0.1436 -0.5226
 1473SOL     OW 5937   0.677   0.776   2.599 -0.3824  0.1786  0.5351
 1473SOL    HW2 5938   0.752   0.823   2.633 -0.0745 -1.7427  2.5721
 1473SOL    HW3 5939   0.602   0.813   2.645 -0.3985  0.3048  0.4071
 1473SOL    MW4 5940   0.677   0.787   2.609 -0.3439 -0.0582  0.7868
 1474SOL     OW 5941   0.440   0.880   2.691 -0.3752  0.1965 -0.0019
 1474SOL    HW2 5942   0.448   0.967   2.651  0.5272  0.4490  0.7110
 1474SOL    HW3 5943   0.351   0.852   2.670  0.2329  0.0971 -2.6084
 1474SOL    MW4 5944   0.429   0.888   2.683 -0.1759  0.2167 -0.2518
 1475SOL     OW 5945   0.461   1.139   2.600 -0.0249 -0.2756 -0.0537
 1475SOL    HW2 5946   0.521   1.206   2.631 -2.5776  1.7413  0.6750
 1475SOL    HW3 5947   0.465   1.145   2.505  0.6767  0.0756 -0.0030
 1475SOL    MW4 5948   0.469   1.148   2.592 -0.2691  0.0370  0.0489
 1476SOL     OW 5949   0.647   1.319   2.715  0.0357 -0.1149 -0.4489
 1476SOL    HW2 5950   0.654   1.306   2.809  0.5850  0.2637 -0.4342
 1476SOL    HW3 5951   0.724   1.274   2.679  0.0576  0.1092 -0.6810
 1476SOL    MW4 5952   0.658   1.311   2.722  0.1110 -0.0354 -0.4773
 1477SOL     OW 5953   0.664   1.594   2.656 -0.1464  0.0953 -0.2320
 1477SOL    HW2 5954   0.586   1.633   2.695 -0.8346  0.3528 -1.8328
 1477SOL    HW3 5955   0.664   1.503   2.687 -0.4154  0.4224  0.7349
 1477SOL    MW4 5956   0.654   1.587   2.666 -0.2726  0.1724 -0.3157
 1478SOL     OW 5957   0.442   1.664   2.766  0.4820  0.4594  0.1353
 1478SOL    HW2 5958   0.471   1.663   2.857 -1.2532 -0.1414  0.7002
 1478SOL    HW3 5959   0.429   1.757   2.746  3.4507  0.8059 -0.3760
 1478SOL    MW4 5960   0.444   1.677   2.775  0.6447  0.4257  0.1426
 1479SOL     OW 5961   0.440   1.924   2.655 -0.2550 -0.2334  0.9545
 1479SOL    HW2 5962   0.524   1.960   2.683 -0.6477  0.7835  0.8442
 1479SOL    HW3 5963   0.442   1.932   2.559  0.0494 -1.3989  0.8546
 1479SOL    MW4 5964   0.451   1.930   2.646 -0.2667 -0.2530  0.9270
 1480SOL     OW 5965   0.695   2.019   2.694 -0.1202  0.3332 -0.2054
 1480SOL    HW2 5966   0.721   2.023   2.787  0.2660  0.5395 -0.3202
 1480SOL    HW3 5967   0.759   1.959   2.655 -1.5353 -1.4036  0.0699
 1480SOL    MW4 5968   0.707   2.011   2.701 -0.2560  0.1311 -0.1841
 1481SOL     OW 5969   0.664   2.279   2.606 -0.5564  0.3432  0.1792
 1481SOL    HW2 5970   0.727   2.326   2.659  1.3174 -0.1004 -1.5680
 1481SOL    HW3 5971   0.681   2.186   2.624  0.7350  0.1553 -1.8414
 1481SOL    MW4 5972   0.674   2.273   2.615 -0.1388  0.2599 -0.3181
 1482SOL     OW 5973   0.407   2.397   2.728  0.1331 -0.1699 -0.1550
 1482SOL    HW2 5974   0.432   2.486   2.705 -0.1977  0.0839  0.4574
 1482SOL    HW3 5975   0.473   2.341   2.686 -0.9045  0.2248 -2.4007
 1482SOL    MW4 5976   0.419   2.401   2.719 -0.0474 -0.0844 -0.3705
 1483SOL     OW 5977   0.444   2.670   2.629  0.0384  0.2676 -0.0389
 1483SOL    HW2 5978   0.512   2.713   2.680 -0.9865  0.7172  0.9739
 1483SOL    HW3 5979   0.362   2.703   2.666 -0.7324  0.3154 -1.7222
 1483SOL    MW4 5980   0.442   2.680   2.641 -0.1985  0.3333 -0.1276
 1484SOL     OW 5981   0.659   2.790   2.755  0.1713 -0.1784  0.1758
 1484SOL    HW2 5982   0.658   2.797   2.850 -0.6829 -0.5045  0.1995
 1484SOL    HW3 5983   0.656   2.881   2.724 -1.4302 -0.1192  0.4664
 1484SOL    MW4 5984   0.658   2.803   2.763 -0.1527 -0.2134  0.2172
 1485SOL     OW 5985   0.687   3.057   2.650 -0.0163  0.2916  0.0472
 1485SOL    HW2 5986   0.763   3.101   2.687 -0.4072  0.9734  0.0539
 1485SOL    HW3 5987   0.699   3.064   2.555  1.4980 -2.3399 -0.0091
 1485SOL    MW4 5988   0.698   3.063   2.642  0.1319  0.0343  0.0408
 1486SOL     OW 5989   0.457   3.222   2.716 -0.1814  0.3739  0.5874
 1486SOL    HW2 5990   0.458   3.239   2.810 -0.1097 -0.5034  0.7516
 1486SOL    HW3 5991   0.533   3.165   2.701  0.4513  1.4030 -0.1747
 1486SOL    MW4 5992   0.467   3.216   2.726 -0.0885  0.3939  0.5085
 1487SOL     OW 5993   0.430   3.483   2.627 -0.2871 -0.5768  0.3991
 1487SOL    HW2 5994   0.441   3.392   2.658  0.0161 -0.3708  0.9049
 1487SOL    HW3 5995   0.412   3.474   2.533 -0.0409 -1.1539  0.4024
 1487SOL    MW4 5996   0.429   3.469   2.619 -0.2146 -0.6258  0.4663
 1488SOL     OW 5997   0.674   3.610   2.695 -0.6946  0.7679  0.1514
 1488SOL    HW2 5998   0.686   3.607   2.790 -0.1119  0.1400  0.0644
 1488SOL    HW3 5999   0.601   3.551   2.677  0.2751 -0.4342  0.0548
 1488SOL    MW4 6000   0.666   3.602   2.705 -0.4899  0.5269  0.1268
 1489SOL     OW 6001   0.683   3.875   2.634  0.9342  0.0706 -0.1247
 1489SOL    HW2 6002   0.598   3.914   2.659  0.8670  0.6896 -1.2881
 1489SOL    HW3 6003   0.677   3.784   2.663  0.3818  0.4551  0.9942
 1489SOL    MW4 6004   0.671   3.868   2.641  0.8525  0.2029 -0.1304
 1490SOL     OW 6005   0.480   4.315   3.097  0.3766 -0.2165  0.1405
 1490SOL    HW2 6006   0.396   4.353   3.071  1.2662  1.7121 -0.0146
 1490SOL    HW3 6007   0.472   4.222   3.076 -1.5769  0.0053 -0.2211
 1490SOL    MW4 6008   0.468   4.308   3.091  0.2363  0.0672  0.0722
 1491SOL     OW 6009   0.470   4.029   2.760 -0.3110  0.3226  0.0930
 1491SOL    HW2 6010   0.470   4.123   2.745 -0.5230  0.2909 -0.1115
 1491SOL    HW3 6011   0.388   3.998   2.720  0.6439 -0.2081 -1.5207
 1491SOL    MW4 6012   0.459   4.037   2.753 -0.2131  0.2484 -0.1469
 1492SOL     OW 6013   0.695   4.413   2.757 -0.3654  0.2570  0.0135
 1492SOL    HW2 6014   0.756   4.353   2.714 -0.4587  0.6933 -0.7362
 1492SOL    HW3 6015   0.701   4.494   2.706 -2.1342  0.0583 -0.5412
 1492SOL    MW4 6016   0.704   4.415   2.745 -0.6111  0.2880 -0.1585
 1493SOL     OW 6017   1.150   4.653   2.618 -0.1988  0.3500  0.1681
 1493SOL    HW2 6018   1.062   4.678   2.645 -0.2784 -0.4824  0.6881
 1493SOL    HW3 6019   1.157   4.560   2.640 -0.5786 -0.6185 -3.3698
 1493SOL    MW4 6020   1.139   4.644   2.624 -0.2595  0.1121 -0.2301
 1494SOL     OW 6021   0.889   0.113   2.707  0.5318 -0.1983  0.3768
 1494SOL    HW2 6022   0.894   0.126   2.802 -0.8354  1.2595  0.2535
 1494SOL    HW3 6023   0.909   0.199   2.670 -0.4821 -0.3881 -0.6293
 1494SOL    MW4 6024   0.893   0.126   2.714  0.2177 -0.0310  0.2282
 1495SOL     OW 6025   0.920   0.365   2.611  0.1635 -0.2531 -0.2723
 1495SOL    HW2 6026   0.832   0.400   2.627  0.2682 -0.2184  0.2460
 1495SOL    HW3 6027   0.926   0.356   2.516 -1.5386 -3.1374 -0.1763
 1495SOL    MW4 6028   0.909   0.368   2.601 -0.0472 -0.6291 -0.1910
 1496SOL     OW 6029   1.151   0.480   2.688 -0.2511  0.2255  0.2824
 1496SOL    HW2 6030   1.143   0.572   2.666 -1.6029  0.3678  1.3068
 1496SOL    HW3 6031   1.073   0.439   2.652  0.2100 -0.4812  0.0565
 1496SOL    MW4 6032   1.140   0.487   2.680 -0.3686  0.1510  0.3877
 1497SOL     OW 6033   1.144   0.743   2.629  0.3700 -0.1645  0.2686
 1497SOL    HW2 6034   1.209   0.807   2.658  2.7125 -2.5193  0.4397
 1497SOL    HW3 6035   1.149   0.746   2.533  0.9189 -0.4610  0.2803
 1497SOL    MW4 6036   1.153   0.752   2.620  0.7514 -0.5144  0.2925
 1498SOL     OW 6037   0.910   0.881   2.689 -0.0843 -0.0964 -0.1268
 1498SOL    HW2 6038   0.923   0.884   2.784  1.1591  0.6604 -0.3083
 1498SOL    HW3 6039   0.973   0.817   2.657 -0.8908 -0.7746 -0.3992
 1498SOL    MW4 6040   0.920   0.873   2.697 -0.0266 -0.0859 -0.1867
 1499SOL     OW 6041   0.889   1.163   2.621  0.4775  0.2913  0.3098
 1499SOL    HW2 6042   0.890   1.071   2.648  0.1431 -0.3816 -1.8696
 1499SOL    HW3 6043   0.899   1.160   2.526  1.9093  2.5876  0.3581
 1499SOL    MW4 6044   0.891   1.151   2.612  0.6223  0.5054  0.0286
 1500SOL     OW 6045   1.152   1.247   2.681  0.9301 -0.1461  0.0984
 1500SOL    HW2 6046   1.235   1.215   2.645  0.0930 -2.8615  0.4503
 1500SOL    HW3 6047   1.085   1.196   2.636 -0.5675  1.8740 -0.0323
 1500SOL    MW4 6048   1.154   1.236   2.670  0.6219 -0.2378  0.1271
 1501SOL     OW 6049   1.117   1.517   2.612 -0.3274 -0.1462  0.2585
 1501SOL    HW2 6050   1.127   1.422   2.623 -0.6090 -0.0371  1.5220
 1501SOL    HW3 6051   1.047   1.541   2.672 -1.0527  0.6978 -0.9103
 1501SOL    MW4 6052   1.109   1.507   2.621 -0.4601 -0.0205  0.2708
 1502SOL     OW 6053   0.945   1.632   2.774  0.4111  0.1628  0.3028
 1502SOL    HW2 6054   0.957   1.655   2.866  1.1002 -0.5638  0.4013
 1502SOL    HW3 6055   0.853   1.605   2.769  0.9298 -1.9527  1.2899
 1502SOL    MW4 6056   0.934   1.631   2.785  0.5705 -0.2121  0.4458
 1503SOL     OW 6057   0.897   1.862   2.589 -0.0230  0.2525  0.0077
 1503SOL    HW2 6058   0.963   1.922   2.623 -0.5281  0.0507  1.3411
 1503SOL    HW3 6059   0.920   1.777   2.626  0.9603 -0.5122 -2.2279
 1503SOL    MW4 6060   0.908   1.859   2.598  0.0402  0.1251 -0.1111
 1504SOL     OW 6061   1.086   2.039   2.704 -0.2041 -0.1380 -0.3451
 1504SOL    HW2 6062   1.172   2.003   2.685 -0.5073 -1.1064  0.1023
 1504SOL    HW3 6063   1.092   2.131   2.678  0.2519 -0.7385 -2.4207
 1504SOL    MW4 6064   1.098   2.047   2.698 -0.1839 -0.3448 -0.5600
 1505SOL     OW 6065   1.113   2.325   2.646 -0.0148  0.3274 -0.2878
 1505SOL    HW2 6066   1.184   2.370   2.693  0.6213 -0.4255 -0.5249
 1505SOL    HW3 6067   1.144   2.320   2.556 -0.3612 -0.0267 -0.3852
 1505SOL    MW4 6068   1.126   2.330   2.640  0.0235  0.1812 -0.3319
 1506SOL     OW 6069   0.862   2.432   2.726 -0.0902 -0.4167  0.1322
 1506SOL    HW2 6070   0.858   2.520   2.689 -0.2151 -0.9343 -1.1186
 1506SOL    HW3 6071   0.948   2.399   2.700  0.0166 -0.6021  0.7253
 1506SOL    MW4 6072   0.873   2.439   2.718 -0.0926 -0.5095  0.0453
 1507SOL     OW 6073   0.880   2.701   2.618 -0.1616 -0.3133 -0.0962
 1507SOL    HW2 6074   0.959   2.745   2.650 -0.1938 -0.3900  0.0893
 1507SOL    HW3 6075   0.808   2.740   2.669 -0.0833 -1.2788  0.7742
 1507SOL    MW4 6076   0.881   2.712   2.629 -0.1556 -0.4506  0.0432
 1508SOL     OW 6077   1.101   2.818   2.721  0.0545  0.1968 -0.1927
 1508SOL    HW2 6078   1.109   2.807   2.815 -1.1442  0.1352 -0.0804
 1508SOL    HW3 6079   1.183   2.785   2.685 -0.0547 -1.1039  0.7330
 1508SOL    MW4 6080   1.113   2.813   2.728 -0.1180  0.0169 -0.0558
 1509SOL     OW 6081   1.148   3.096   2.630  0.0000  0.0000 -0.3695
 1509SOL    HW2 6082   1.122   3.007   2.653  0.0000  0.0000 -0.3759
 1509SOL    HW3 6083   1.136   3.101   2.536  0.0000  0.0000 -0.3698
 1509SOL    MW4 6084   1.143   3.085   2.621  0.0000  0.0000 -0.3707
 1510SOL     OW 6085   0.919   3.208   2.729  0.0000  0.0000 -0.0004
 1510SOL    HW2 6086   0.903   3.287   2.677  0.0000  0.0000 -0.0013
 1510SOL    HW3 6087   1.006   3.179   2.700  0.0000  0.0000 -0.0009
 1510SOL    MW4 6088   0.928   3.215   2.718  0.0000  0.0000 -0.0002
 1511SOL     OW 6089   0.887   3.462   2.612  0.0000  0.0000  0.0185
 1511SOL    HW2 6090   0.961   3.508   2.653  0.0000  0.0000  0.0278
 1511SOL    HW3 6091   0.810   3.512   2.640  0.0000  0.0000 -0.0377
 1511SOL    MW4 6092   0.887   3.475   2.621  0.0000  0.0000  0.0124
 1512SOL     OW 6093   1.102   3.599   2.704  0.0000  0.0000 -0.6899
 1512SOL    HW2 6094   1.101   3.626   2.796  0.0000  0.0000 -0.6910
 1512SOL    HW3 6095   1.100   3.681   2.655  0.0000  0.0000 -0.6937
 1512SOL    MW4 6096   1.102   3.613   2.710  0.0000  0.0000 -0.6902
 1513SOL     OW 6097   1.098   3.851   2.604  0.0000  0.0000  0.1894
 1513SOL    HW2 6098   1.178   3.889   2.642  0.0000  0.0000  0.1875
 1513SOL    HW3 6099   1.110   3.859   2.509  0.0000  0.0000  0.1889
 1513SOL    MW4 6100   1.110   3.857   2.596  0.0000  0.0000  0.1891
 1514SOL     OW 6101   0.893   4.008   2.723  0.0000  0.0000 -0.0206
 1514SOL    HW2 6102   0.958   3.963   2.669  0.0000  0.0000 -0.0113
 1514SOL    HW3 6103   0.809   3.969   2.696  0.0000  0.0000 -0.0426
 1514SOL    MW4 6104   0.890   3.997   2.712  0.0000  0.0000 -0.0224
 1515SOL     OW 6105   0.888   4.266   2.625  0.0000  0.0000  0.9852
 1515SOL    HW2 6106   0.892   4.173   2.650  0.0000  0.0000  0.9913
 1515SOL    HW3 6107   0.884   4.265   2.530  0.0000  0.0000  0.9852
 1515SOL    MW4 6108   0.888   4.254   2.616  0.0000  0.0000  0.9861
 1516SOL     OW 6109   1.144   4.351   2.689  0.0000  0.0000  0.4224
 1516SOL    HW2 6110   1.137   4.378   2.780  0.0000  0.0000  0.4245
 1516SOL    HW3 6111   1.055   4.327   2.664  0.0000  0.0000  0.4406
 1516SOL    MW4 6112   1.131   4.351   2.697  0.0000  0.0000  0.4253
 1517SOL     OW 6113   1.593   4.643   2.586  0.0000  0.0000  0.6403
 1517SOL    HW2 6114   1.588   4.549   2.603  0.0000  0.0000  0.6442
 1517SOL    HW3 6115   1.581   4.652   2.492  0.0000  0.0000  0.6399
 1517SOL    MW4 6116   1.591   4.632   2.576  0.0000  0.0000  0.6406
 1518SOL     OW 6117   1.386   0.079   2.762 -0.3640  0.4537 -0.0031
 1518SOL    HW2 6118   1.312   0.058   2.705 -0.2082 -2.4777  0.8234
 1518SOL    HW3 6119   1.462   0.046   2.715  0.2486  1.7951  0.0170
 1518SOL    MW4 6120   1.386   0.072   2.748 -0.2626  0.2439  0.1087
 1519SOL     OW 6121   1.367   0.326   2.604 -0.0122 -0.5407 -0.3187
 1519SOL    HW2 6122   1.385   0.253   2.663  0.5588 -0.4214 -0.3380
 1519SOL    HW3 6123   1.298   0.376   2.648 -1.0951 -1.6252 -0.7758
 1519SOL    MW4 6124   1.361   0.323   2.618 -0.0798 -0.6680 -0.3815
 1520SOL     OW 6125   1.578   0.465   2.725 -0.0743  0.3173  0.1921
 1520SOL    HW2 6126   1.503   0.420   2.685  0.2542  1.4302 -1.7299
 1520SOL    HW3 6127   1.654   0.421   2.689  0.2327  1.6236 -0.7893
 1520SOL    MW4 6128   1.578   0.453   2.715  0.0097  0.6365 -0.1910
 1521SOL     OW 6129   1.586   0.734   2.649 -0.0896  0.3984 -0.1362
 1521SOL    HW2 6130   1.595   0.642   2.674 -1.3897 -0.0022 -1.1409
 1521SOL    HW3 6131   1.571   0.733   2.555  0.5844  1.6869 -0.2731
 1521SOL    MW4 6132   1.585   0.722   2.640 -0.1723  0.5156 -0.2871
 1522SOL     OW 6133   1.362   0.877   2.738 -0.2338 -0.2201 -0.2085
 1522SOL    HW2 6134   1.361   0.875   2.833  2.0228  0.0061 -0.1628
 1522SOL    HW3 6135   1.427   0.812   2.712 -0.6051 -0.0738 -1.5861
 1522SOL    MW4 6136   1.370   0.868   2.747  0.0148 -0.1709 -0.3841
 1523SOL     OW 6137   1.382   1.131   2.607 -0.5809 -0.1089  0.1278
 1523SOL    HW2 6138   1.370   1.044   2.644  2.1479  0.0467  1.5029
 1523SOL    HW3 6139   1.428   1.180   2.675  1.0008  1.3917 -1.9582
 1523SOL    MW4 6140   1.386   1.126   2.621 -0.0123  0.1097  0.0341
 1524SOL     OW 6141   1.549   1.276   2.744 -0.7030  0.3624  0.1832
 1524SOL    HW2 6142   1.557   1.278   2.840 -1.2646  1.6112  0.2213
 1524SOL    HW3 6143   1.636   1.250   2.713 -0.6055 -0.3572  1.0446
 1524SOL    MW4 6144   1.561   1.273   2.753 -0.7641  0.4323  0.3018
 1525SOL     OW 6145   1.569   1.547   2.629  0.3664  0.1779 -0.0342
 1525SOL    HW2 6146   1.561   1.457   2.661 -1.4958  0.8302  1.3920
 1525SOL    HW3 6147   1.542   1.542   2.537 -0.3297 -0.6248  0.2074
 1525SOL    MW4 6148   1.564   1.534   2.621  0.0287  0.1580  0.1857
 1526SOL     OW 6149   1.322   1.642   2.751  0.0069  0.3439  0.0999
 1526SOL    HW2 6150   1.405   1.627   2.706  0.5410 -1.4347  1.6185
 1526SOL    HW3 6151   1.258   1.590   2.702  0.0884  0.4554 -0.1250
 1526SOL    MW4 6152   1.324   1.634   2.739  0.0880  0.1241  0.2708
 1527SOL     OW 6153   1.316   1.911   2.642  0.4130 -0.0052 -0.2345
 1527SOL    HW2 6154   1.296   1.821   2.668 -0.1719  0.1436 -0.1530
 1527SOL    HW3 6155   1.317   1.907   2.546  1.4030 -0.3076 -0.2166
 1527SOL    MW4 6156   1.313   1.898   2.633  0.4665 -0.0255 -0.2215
 1528SOL     OW 6157   1.563   2.075   2.692  0.3166  0.5812  0.1190
 1528SOL    HW2 6158   1.638   2.027   2.658 -0.2363 -0.7207  0.7192
 1528SOL    HW3 6159   1.493   2.010   2.699 -0.5373  1.5344  0.6429
 1528SOL    MW4 6160   1.564   2.060   2.689  0.1310  0.5352  0.2675
 1529SOL     OW 6161   1.540   2.344   2.599 -0.0317 -0.2970 -0.1673
 1529SOL    HW2 6162   1.618   2.386   2.636 -0.9130  0.8439  0.4540
 1529SOL    HW3 6163   1.547   2.252   2.626  0.5182  0.0426  0.8668
 1529SOL    MW4 6164   1.551   2.337   2.608 -0.0755 -0.1018  0.0513
 1530SOL     OW 6165   1.339   2.467   2.746  0.2656  0.1874 -0.2548
 1530SOL    HW2 6166   1.337   2.555   2.708  0.0874  0.3894  0.2173
 1530SOL    HW3 6167   1.400   2.419   2.691  1.4354  0.9980  0.3251
 1530SOL    MW4 6168   1.347   2.472   2.734  0.3964  0.3209 -0.1161
 1531SOL     OW 6169   1.342   2.708   2.634  0.0873  0.3361 -0.2337
 1531SOL    HW2 6170   1.424   2.749   2.663 -0.2160  1.8726 -1.4707
 1531SOL    HW3 6171   1.352   2.700   2.539 -1.0380  0.1830 -0.3470
 1531SOL    MW4 6172   1.354   2.713   2.625 -0.1012  0.5186 -0.4117
 1532SOL     OW 6173   1.603   2.827   2.703  0.0955  0.1656 -0.2360
 1532SOL    HW2 6174   1.608   2.818   2.799 -1.1648  0.7392 -0.1011
 1532SOL    HW3 6175   1.667   2.764   2.670 -0.3200 -0.9179  0.9574
 1532SOL    MW4 6176   1.612   2.818   2.712 -0.1258  0.0985 -0.0606
 1533SOL     OW 6177   1.628   3.100   2.611 -0.3773 -0.7146  0.3737
 1533SOL    HW2 6178   1.691   3.143   2.669 -1.3154 -0.5455  1.2867
 1533SOL    HW3 6179   1.632   3.007   2.636  0.1030 -0.8244 -0.1248
 1533SOL    MW4 6180   1.637   3.093   2.622 -0.4377 -0.7069  0.4282
 1534SOL     OW 6181   1.385   3.217   2.729  0.2653  0.3006  0.0752
 1534SOL    HW2 6182   1.458   3.165   2.695  0.5413 -2.7524  4.8887
 1534SOL    HW3 6183   1.307   3.167   2.707  0.3432 -0.9677  2.5791
 1534SOL    MW4 6184   1.384   3.204   2.721  0.3120 -0.2694  1.0405
 1535SOL     OW 6185   1.319   3.457   2.579  0.5200  0.5043 -0.1486
 1535SOL    HW2 6186   1.339   3.381   2.633  1.1161 -0.9862 -2.3988
 1535SOL    HW3 6187   1.248   3.501   2.626  0.1231 -1.4469  1.1705
 1535SOL    MW4 6188   1.312   3.453   2.593  0.5465  0.0501 -0.2713
 1536SOL     OW 6189   1.549   3.573   2.672 -0.2870 -0.0915  0.3037
 1536SOL    HW2 6190   1.630   3.535   2.638 -0.1488  0.8052 -0.3894
 1536SOL    HW3 6191   1.480   3.524   2.628 -0.1079  1.1877 -1.4517
 1536SOL    MW4 6192   1.550   3.562   2.662 -0.2451  0.1957 -0.0193
 1537SOL     OW 6193   1.572   3.855   2.619 -0.1594 -0.3624  0.1092
 1537SOL    HW2 6194   1.490   3.889   2.655 -0.0253 -0.2555  0.3132
 1537SOL    HW3 6195   1.566   3.760   2.632 -0.9322 -0.5169 -1.2761
 1537SOL    MW4 6196   1.560   3.847   2.625 -0.2437 -0.3691 -0.0467
 1538SOL     OW 6197   1.323   3.972   2.693  0.3705  0.3361  0.4894
 1538SOL    HW2 6198   1.324   4.003   2.783 -1.5484  0.4213  0.5133
 1538SOL    HW3 6199   1.346   4.049   2.641 -0.0240  0.6722  0.8130
 1538SOL    MW4 6200   1.326   3.987   2.698  0.0652  0.3917  0.5352
 1539SOL     OW 6201   1.381   4.226   2.593 -0.0650 -0.5581  0.7311
 1539SOL    HW2 6202   1.298   4.257   2.629 -0.3955 -0.1796 -0.3177
 1539SOL    HW3 6203   1.386   4.268   2.506  1.7142  0.2678  1.2003
 1539SOL    MW4 6204   1.370   4.236   2.586  0.1261 -0.3991  0.6549
 1540SOL     OW 6205   1.582   4.388   2.676  0.1216  0.1560  0.3655
 1540SOL    HW2 6206   1.571   4.391   2.772  0.6551 -0.6293  0.4542
 1540SOL    HW3 6207   1.518   4.323   2.647  0.4535 -0.1216  0.2599
 1540SOL    MW4 6208   1.572   4.380   2.685  0.2357  0.0167  0.3629
 1541SOL     OW 6209   2.053   4.627   2.617 -0.2437  0.0493  0.3043
 1541SOL    HW2 6210   2.131   4.680   2.634  0.2528 -0.5085 -0.1926
 1541SOL    HW3 6211   2.046   4.625   2.521 -0.6613 -0.1953  0.3391
 1541SOL    MW4 6212   2.063   4.634   2.606 -0.2332 -0.0563  0.2432
 1542SOL     OW 6213   1.808   0.093   2.705 -0.0879 -0.0024  0.0298
 1542SOL    HW2 6214   1.887   0.040   2.693  1.1604  2.0220 -0.8629
 1542SOL    HW3 6215   1.742   0.050   2.650  0.2931 -1.8338  0.9580
 1542SOL    MW4 6216   1.809   0.080   2.696  0.1271  0.0230  0.0346
 1543SOL     OW 6217   1.827   0.347   2.601  0.1940 -0.1931  0.0769
 1543SOL    HW2 6218   1.895   0.388   2.655  1.1035 -0.7186 -0.6533
 1543SOL    HW3 6219   1.817   0.259   2.638  0.2236 -0.2675 -0.0934
 1543SOL    MW4 6220   1.835   0.341   2.613  0.3179 -0.2722 -0.0420
 1544SOL     OW 6221   2.008   0.485   2.756  0.1710  0.5276  0.2922
 1544SOL    HW2 6222   2.085   0.432   2.735 -1.2205 -1.4145 -0.0742
 1544SOL    HW3 6223   2.012   0.558   2.694  0.4511 -0.8441 -1.3504
 1544SOL    MW4 6224   2.019   0.487   2.745  0.0246  0.0904  0.0269
 1545SOL     OW 6225   1.990   0.718   2.624 -0.4561  0.2744  0.0986
 1545SOL    HW2 6226   1.921   0.775   2.658 -1.1950  0.5102 -1.7345
 1545SOL    HW3 6227   1.977   0.718   2.529  1.2356 -0.7625 -0.1618
 1545SOL    MW4 6228   1.979   0.725   2.616 -0.3306  0.1687 -0.1776
 1546SOL     OW 6229   1.806   0.877   2.753  0.3164  0.0608 -0.4377
 1546SOL    HW2 6230   1.726   0.830   2.728  0.4557 -0.0116 -0.7508
 1546SOL    HW3 6231   1.795   0.965   2.715 -0.4070  0.6156  1.0201
 1546SOL    MW4 6232   1.794   0.883   2.745  0.2393  0.1244 -0.2866
 1547SOL     OW 6233   1.803   1.156   2.660 -0.2917  0.6904  0.5247
 1547SOL    HW2 6234   1.887   1.189   2.691 -0.5631  1.0655  0.8547
 1547SOL    HW3 6235   1.814   1.146   2.565  1.3068 -2.6540  0.9860
 1547SOL    MW4 6236   1.815   1.159   2.652 -0.1166  0.2986  0.6292
 1548SOL     OW 6237   2.035   1.278   2.759 -0.9519  0.2233  0.0175
 1548SOL    HW2 6238   2.031   1.262   2.854 -1.0016  2.2122  0.3754
 1548SOL    HW3 6239   2.113   1.230   2.730 -0.7912 -0.1993  1.1108
 1548SOL    MW4 6240   2.045   1.269   2.768 -0.9375  0.4299  0.2091
 1549SOL     OW 6241   2.033   1.542   2.636 -0.8498  0.5209 -0.1387
 1549SOL    HW2 6242   1.965   1.588   2.686  0.7142  1.0184  1.5844
 1549SOL    HW3 6243   2.038   1.456   2.677 -0.5568  0.4254 -0.3780
 1549SOL    MW4 6244   2.024   1.537   2.648 -0.6049  0.5740  0.0572
 1550SOL     OW 6245   1.797   1.675   2.725 -0.0442 -0.2010 -0.8279
 1550SOL    HW2 6246   1.796   1.674   2.821 -0.3416  1.2302 -0.8084
 1550SOL    HW3 6247   1.712   1.639   2.700  1.1096 -3.2070 -0.6048
 1550SOL    MW4 6248   1.785   1.670   2.734  0.0688 -0.4088 -0.7963
 1551SOL     OW 6249   1.808   1.938   2.644  0.6056  0.4153 -0.0837
 1551SOL    HW2 6250   1.893   1.973   2.670 -0.2749  1.1508  1.9083
 1551SOL    HW3 6251   1.806   1.850   2.681 -0.1579  1.0206  1.3726
 1551SOL    MW4 6252   1.819   1.931   2.652  0.3889  0.5922  0.3710
 1552SOL     OW 6253   2.053   2.059   2.726  0.3906  0.2485 -0.4036
 1552SOL    HW2 6254   2.067   2.052   2.820  1.0803  1.4587 -0.4033
 1552SOL    HW3 6255   2.031   2.151   2.712  0.2317  0.0603 -1.4134
 1552SOL    MW4 6256   2.052   2.071   2.737  0.4606  0.3834 -0.5367
 1553SOL     OW 6257   2.016   2.319   2.641  0.2665  0.2476  0.0975
 1553SOL    HW2 6258   2.107   2.349   2.646 -0.0421  1.0535  1.0977
 1553SOL    HW3 6259   1.999   2.307   2.548  1.8121 -1.1880 -0.0162
 1553SOL    MW4 6260   2.026   2.322   2.630  0.4299  0.1643  0.2146
 1554SOL     OW 6261   1.777   2.437   2.720 -0.2009  0.0150 -0.5983
 1554SOL    HW2 6262   1.791   2.448   2.814  0.3136  0.0863 -0.6813
 1554SOL    HW3 6263   1.856   2.394   2.689  0.5025  1.8193 -1.3401
 1554SOL    MW4 6264   1.789   2.433   2.729 -0.0401  0.2625 -0.7074
 1555SOL     OW 6265   1.798   2.677   2.599 -0.2683 -0.2273 -0.0551
 1555SOL    HW2 6266   1.791   2.591   2.641  0.1940 -0.1362  0.2147
 1555SOL    HW3 6267   1.801   2.658   2.505  3.3603 -0.7701  0.0958
 1555SOL    MW4 6268   1.797   2.663   2.592  0.2713 -0.2871  0.0005
 1556SOL     OW 6269   2.007   2.806   2.717 -0.0257  0.3833 -0.5116
 1556SOL    HW2 6270   2.069   2.750   2.671  0.2537  0.8578 -0.7228
 1556SOL    HW3 6271   1.922   2.781   2.682 -0.1241 -1.3639  0.9186
 1556SOL    MW4 6272   2.004   2.795   2.706 -0.0019  0.2155 -0.3507
 1557SOL     OW 6273   2.044   3.092   2.640 -0.0750  0.0718  0.3613
 1557SOL    HW2 6274   2.043   2.999   2.664 -0.6804  0.4079  1.7347
 1557SOL    HW3 6275   2.015   3.094   2.549 -0.2486 -1.0758  0.3822
 1557SOL    MW4 6276   2.040   3.080   2.631 -0.1776 -0.0353  0.5450
 1558SOL     OW 6277   1.845   3.229   2.760  0.2731  0.1968 -0.0692
 1558SOL    HW2 6278   1.825   3.305   2.705  0.0299  0.0033 -0.2478
 1558SOL    HW3 6279   1.917   3.185   2.714 -0.8068 -0.6911 -0.9193
 1558SOL    MW4 6280   1.852   3.233   2.746  0.0986  0.0539 -0.2048
 1559SOL     OW 6281   1.798   3.463   2.576  0.0028  0.2662 -0.3037
 1559SOL    HW2 6282   1.817   3.461   2.482 -0.7155  1.5128 -0.4840
 1559SOL    HW3 6283   1.875   3.505   2.615 -0.2892  0.9965 -0.4992
 1559SOL    MW4 6284   1.811   3.468   2.568 -0.1304  0.5271 -0.3531
 1560SOL     OW 6285   2.025   3.595   2.664 -0.0421  0.4069  0.0505
 1560SOL    HW2 6286   2.019   3.582   2.758 -0.5745 -0.6079 -0.1104
 1560SOL    HW3 6287   2.108   3.556   2.639 -0.4556 -0.4194 -0.0632
 1560SOL    MW4 6288   2.035   3.588   2.673 -0.1671  0.1640  0.0143
 1561SOL     OW 6289   2.001   3.869   2.619  0.1093 -0.5024  0.0612
 1561SOL    HW2 6290   1.921   3.905   2.658 -0.3363  0.8019 -2.0094
 1561SOL    HW3 6291   2.007   3.780   2.655 -1.0770  0.1458  1.9197
 1561SOL    MW4 6292   1.991   3.862   2.629 -0.1061 -0.2449  0.0331
 1562SOL     OW 6293   1.781   3.996   2.735 -0.1694  0.3674 -0.6118
 1562SOL    HW2 6294   1.790   4.080   2.689 -0.5643 -0.1265 -1.5951
 1562SOL    HW3 6295   1.702   3.957   2.698 -0.6825  0.0998  0.7169
 1562SOL    MW4 6296   1.772   4.002   2.724 -0.2892  0.2666 -0.5662
 1563SOL     OW 6297   1.819   4.254   2.606  0.2285 -0.0684 -0.4660
 1563SOL    HW2 6298   1.746   4.307   2.636  0.5401 -0.5838  1.2282
 1563SOL    HW3 6299   1.804   4.245   2.512 -0.4151  2.0754 -0.5917
 1563SOL    MW4 6300   1.807   4.260   2.597  0.1845  0.1464 -0.2592
 1564SOL     OW 6301   2.032   4.385   2.739  0.1630 -0.7872 -0.1584
 1564SOL    HW2 6302   1.951   4.343   2.712 -0.1290 -0.8597  0.7942
 1564SOL    HW3 6303   2.037   4.465   2.688 -0.8652 -0.4338  0.3057
 1564SOL    MW4 6304   2.022   4.390   2.729 -0.0110 -0.7501  0.0284
 1565SOL     OW 6305   2.497   4.620   2.637  0.3987 -0.1645 -0.3393
 1565SOL    HW2 6306   2.580   4.664   2.655  0.7383 -1.2299  0.7819
 1565SOL    HW3 6307   2.482   4.633   2.543  2.9081 -1.7458 -1.0002
 1565SOL    MW4 6308   2.506   4.628   2.627  0.7746 -0.5140 -0.2785
 1566SOL     OW 6309   2.274   0.097   2.703  0.3569 -0.4213  0.3201
 1566SOL    HW2 6310   2.271   0.089   2.798 -0.2458 -1.2512  0.2360
 1566SOL    HW3 6311   2.353   0.050   2.677  0.9572  0.4909  0.4720
 1566SOL    MW4 6312   2.284   0.090   2.712  0.3567 -0.4105  0.3290
 1567SOL     OW 6313   2.231   0.382   2.660 -0.7270  0.6020 -0.0130
 1567SOL    HW2 6314   2.249   0.290   2.680 -2.2823  0.1977 -0.3551
 1567SOL    HW3 6315   2.246   0.389   2.565 -1.1373  0.5462 -0.0868
 1567SOL    MW4 6316   2.235   0.370   2.650 -0.9863  0.5413 -0.0679
 1568SOL     OW 6317   2.459   0.490   2.788  0.2629 -0.6982  0.0166
 1568SOL    HW2 6318   2.461   0.581   2.759 -0.1828 -0.1895  1.5311
 1568SOL    HW3 6319   2.385   0.452   2.741  0.4091 -0.2568 -0.5737
 1568SOL    MW4 6320   2.449   0.497   2.778  0.2234 -0.5729  0.1383
 1569SOL     OW 6321   2.445   0.758   2.685  0.1515  0.2000  0.5886
 1569SOL    HW2 6322   2.359   0.798   2.698  0.7365  1.5557  0.3599
 1569SOL    HW3 6323   2.458   0.758   2.590  1.3939  2.1847  0.7244
 1569SOL    MW4 6324   2.435   0.763   2.674  0.3927  0.6407  0.5763
 1570SOL     OW 6325   2.209   0.880   2.729  0.0528  0.3300 -0.0519
 1570SOL    HW2 6326   2.217   0.875   2.824  0.7236  0.7654 -0.0825
 1570SOL    HW3 6327   2.127   0.835   2.709  0.9568 -1.6111  0.5321
 1570SOL    MW4 6328   2.199   0.873   2.739  0.2606  0.1314  0.0212
 1571SOL     OW 6329   2.271   1.145   2.659  0.3071  0.4812 -0.0612
 1571SOL    HW2 6330   2.260   1.051   2.671  0.2183  0.3540 -1.0872
 1571SOL    HW3 6331   2.281   1.156   2.564  1.9904  1.3260  0.1913
 1571SOL    MW4 6332   2.271   1.134   2.648  0.5174  0.5759 -0.1633
 1572SOL     OW 6333   2.485   1.309   2.732  0.2160 -0.2510 -0.5442
 1572SOL    HW2 6334   2.564   1.267   2.699  0.5300  1.2036 -1.6898
 1572SOL    HW3 6335   2.416   1.244   2.720  0.9543 -0.9728 -0.9191
 1572SOL    MW4 6336   2.486   1.295   2.726  0.3550 -0.1543 -0.7448
 1573SOL     OW 6337   2.506   1.553   2.638 -0.1206  0.1767  0.3530
 1573SOL    HW2 6338   2.424   1.589   2.673 -1.1940 -1.0819 -0.8251
 1573SOL    HW3 6339   2.513   1.467   2.680 -0.1376 -0.3084 -0.6421
 1573SOL    MW4 6340   2.496   1.547   2.648 -0.2646 -0.0533  0.0663
 1574SOL     OW 6341   2.258   1.656   2.749 -0.7521 -0.4358  0.3576
 1574SOL    HW2 6342   2.251   1.751   2.737  0.1395 -0.4235 -0.1080
 1574SOL    HW3 6343   2.185   1.621   2.699 -0.1080 -0.0819 -0.8508
 1574SOL    MW4 6344   2.247   1.664   2.741 -0.5498 -0.3874  0.1364
 1575SOL     OW 6345   2.288   1.942   2.631 -0.3744  0.3960 -0.1935
 1575SOL    HW2 6346   2.209   1.991   2.654 -1.2874 -1.2112  0.1477
 1575SOL    HW3 6347   2.282   1.929   2.536 -0.8548 -0.3097 -0.0656
 1575SOL    MW4 6348   2.277   1.947   2.621 -0.5584  0.0908 -0.1316
 1576SOL     OW 6349   2.498   2.055   2.750  0.3707 -0.3574  0.2387
 1576SOL    HW2 6350   2.489   2.144   2.716  2.5254  0.4853  1.7722
 1576SOL    HW3 6351   2.425   2.007   2.711 -0.1546  1.7910 -1.5271
 1576SOL    MW4 6352   2.488   2.060   2.740  0.5856  0.0374  0.2081
 1577SOL     OW 6353   2.476   2.299   2.603 -0.0578  0.2864 -0.0625
 1577SOL    HW2 6354   2.547   2.359   2.625 -0.1770  0.1293  0.7812
 1577SOL    HW3 6355   2.489   2.279   2.510  0.3652  1.0963 -0.1782
 1577SOL    MW4 6356   2.487   2.304   2.594 -0.0179  0.3726  0.0336
 1578SOL     OW 6357   2.261   2.435   2.682  0.0248 -0.0943 -0.0518
 1578SOL    HW2 6358   2.266   2.449   2.777  0.2727 -1.0854  0.0862
 1578SOL    HW3 6359   2.344   2.392   2.660  0.4695  1.1522 -0.9021
 1578SOL    MW4 6360   2.273   2.432   2.692  0.1159 -0.0606 -0.1459
 1579SOL     OW 6361   2.279   2.697   2.583 -0.4689  0.2432 -0.2008
 1579SOL    HW2 6362   2.347   2.745   2.631  1.0822 -1.0280 -1.0985
 1579SOL    HW3 6363   2.286   2.607   2.616 -1.3547 -0.0092 -0.7002
 1579SOL    MW4 6364   2.289   2.691   2.594 -0.3812  0.0422 -0.3853
 1580SOL     OW 6365   2.470   2.853   2.723  0.3873  0.1139 -0.2268
 1580SOL    HW2 6366   2.557   2.821   2.699  0.6503  0.3040  0.4406
 1580SOL    HW3 6367   2.465   2.941   2.685  0.6846  0.2941  0.1355
 1580SOL    MW4 6368   2.481   2.861   2.715  0.4613  0.1628 -0.0906
 1581SOL     OW 6369   2.459   3.111   2.632 -0.0601  0.2969  0.3671
 1581SOL    HW2 6370   2.376   3.156   2.652 -1.2508 -1.3725 -0.7001
 1581SOL    HW3 6371   2.464   3.112   2.536  0.3369 -1.0587  0.3683
 1581SOL    MW4 6372   2.448   3.117   2.622 -0.1647 -0.1023  0.2263
 1582SOL     OW 6373   2.248   3.254   2.731 -0.1959  0.3978  0.1783
 1582SOL    HW2 6374   2.253   3.244   2.826  1.6228 -0.4952 -0.0002
 1582SOL    HW3 6375   2.181   3.191   2.703  0.4367 -0.4968  0.6872
 1582SOL    MW4 6376   2.240   3.244   2.740  0.1273  0.1621  0.2222
 1583SOL     OW 6377   2.287   3.485   2.600 -0.1273 -0.0610  0.5568
 1583SOL    HW2 6378   2.354   3.543   2.637 -0.6447 -0.1004  1.5984
 1583SOL    HW3 6379   2.280   3.413   2.664 -1.5403  0.2240  0.7475
 1583SOL    MW4 6380   2.295   3.483   2.614 -0.3822 -0.0284  0.7193
 1584SOL     OW 6381   2.497   3.620   2.689  0.3265  0.1257 -0.1466
 1584SOL    HW2 6382   2.477   3.640   2.780  0.2595  0.2070 -0.1788
 1584SOL    HW3 6383   2.483   3.703   2.643  0.0087 -0.0040 -0.2878
 1584SOL    MW4 6384   2.492   3.634   2.695  0.2759  0.1192 -0.1695
 1585SOL     OW 6385   2.452   3.861   2.584 -0.0526  0.0171 -0.2343
 1585SOL    HW2 6386   2.527   3.900   2.629  0.3420  0.0946 -0.9518
 1585SOL    HW3 6387   2.378   3.915   2.610 -0.1931 -1.2604  2.0521
 1585SOL    MW4 6388   2.452   3.873   2.593 -0.0191 -0.1414 -0.0274
 1586SOL     OW 6389   2.228   4.012   2.703 -0.3738 -0.0471  0.4086
 1586SOL    HW2 6390   2.241   4.010   2.798 -0.4634  0.1990  0.4253
 1586SOL    HW3 6391   2.151   3.958   2.688 -1.0710  0.8833  0.5910
 1586SOL    MW4 6392   2.219   4.004   2.713 -0.4778  0.1082  0.4349
 1587SOL     OW 6393   2.260   4.279   2.616 -0.0381  0.6938 -0.4766
 1587SOL    HW2 6394   2.254   4.192   2.656  1.4626  0.7488 -0.1074
 1587SOL    HW3 6395   2.188   4.328   2.654  0.6560  0.3792  1.2858
 1587SOL    MW4 6396   2.250   4.274   2.626  0.2515  0.6599 -0.1955
 1588SOL     OW 6397   2.497   4.360   2.747  0.3569 -0.3287 -0.0640
 1588SOL    HW2 6398   2.427   4.314   2.700  1.8506 -0.5578 -2.1391
 1588SOL    HW3 6399   2.503   4.445   2.704  0.1114  0.4153  1.3401
 1588SOL    MW4 6400   2.489   4.365   2.735  0.5217 -0.2604 -0.1523
 1589SOL     OW 6401   2.942   0.012   2.641  0.2356 -0.7165  0.1575
 1589SOL    HW2 6402   3.016   0.067   2.667 -0.6714 -0.0346  1.3985
 1589SOL    HW3 6403   2.947   0.007   2.546  0.7865  0.8826  0.0874
 1589SOL    MW4 6404   2.952   0.019   2.632  0.1888 -0.4156  0.3116
 1590SOL     OW 6405   2.712   0.120   2.738 -0.3521  0.2318  0.1335
 1590SOL    HW2 6406   2.701   0.114   2.833  0.2856 -0.8995  0.1488
 1590SOL    HW3 6407   2.800   0.085   2.722 -0.0760  1.2855 -0.7874
 1590SOL    MW4 6408   2.722   0.115   2.748 -0.2317  0.2215  0.0138
 1591SOL     OW 6409   2.667   0.373   2.632 -0.2341  0.0969  0.0137
 1591SOL    HW2 6410   2.669   0.279   2.650 -0.6355  0.0616 -0.1204
 1591SOL    HW3 6411   2.596   0.406   2.687  0.5406  0.4760  0.7807
 1591SOL    MW4 6412   2.658   0.365   2.642 -0.1850  0.1423  0.0973
 1592SOL     OW 6413   2.882   0.492   2.756 -0.1460 -0.2784 -0.0665
 1592SOL    HW2 6414   2.889   0.578   2.714  0.1729  0.3539  1.2296
 1592SOL    HW3 6415   2.803   0.453   2.720 -0.6340  0.8336 -0.2113
 1592SOL    MW4 6416   2.872   0.498   2.746 -0.1683 -0.0482  0.0854
 1593SOL     OW 6417   2.885   0.744   2.669 -0.4939  0.4218  0.3067
 1593SOL    HW2 6418   2.959   0.804   2.674 -0.1798  0.1183 -0.5285
 1593SOL    HW3 6419   2.809   0.798   2.689 -0.2192  1.1283 -0.5398
 1593SOL    MW4 6420   2.884   0.759   2.672 -0.4163  0.4749  0.0849
 1594SOL     OW 6421   2.674   0.906   2.748  0.4347  0.3449 -0.3528
 1594SOL    HW2 6422   2.700   0.899   2.840 -0.4953  1.0229 -0.0369
 1594SOL    HW3 6423   2.593   0.856   2.742 -0.6921  2.1692 -0.3273
 1594SOL    MW4 6424   2.667   0.898   2.759  0.1633  0.6750 -0.3078
 1595SOL     OW 6425   2.686   1.146   2.638 -0.4352 -0.1554  0.4008
 1595SOL    HW2 6426   2.777   1.164   2.663 -0.1919 -0.7596 -0.0260
 1595SOL    HW3 6427   2.666   1.063   2.680 -0.8080 -0.0018  0.5267
 1595SOL    MW4 6428   2.695   1.138   2.647 -0.4520 -0.2148  0.3612
 1596SOL     OW 6429   2.954   1.255   2.713  0.1050 -0.0208 -0.1229
 1596SOL    HW2 6430   2.936   1.252   2.807 -1.2066  0.4090 -0.3458
 1596SOL    HW3 6431   3.039   1.212   2.703  0.6833  0.7538  1.3631
 1596SOL    MW4 6432   2.962   1.249   2.724  0.0081  0.1379  0.0436
 1597SOL     OW 6433   2.975   1.525   2.607 -0.5744 -0.4478 -0.0624
 1597SOL    HW2 6434   2.901   1.576   2.640 -0.2402 -0.0057  0.0171
 1597SOL    HW3 6435   2.956   1.435   2.632 -0.7067 -0.2265  0.6459
 1597SOL    MW4 6436   2.963   1.520   2.615 -0.5476 -0.3603  0.0415
 1598SOL     OW 6437   2.750   1.676   2.700  0.0360  0.0208  0.5507
 1598SOL    HW2 6438   2.767   1.686   2.793  0.5413 -0.9530  0.5773
 1598SOL    HW3 6439   2.660   1.644   2.695 -0.6757  2.0103  0.5940
 1598SOL    MW4 6440   2.741   1.673   2.711  0.0091  0.1549  0.5598
 1599SOL     OW 6441   2.725   1.949   2.648 -0.0293  0.0191  0.2848
 1599SOL    HW2 6442   2.720   1.858   2.677  0.1919 -0.4847 -1.1892
 1599SOL    HW3 6443   2.641   1.987   2.673 -0.3728 -0.7721  0.3301
 1599SOL    MW4 6444   2.713   1.942   2.655 -0.0453 -0.1519  0.0963
 1600SOL     OW 6445   2.937   2.088   2.745 -0.2257  0.1792  0.3374
 1600SOL    HW2 6446   2.944   2.177   2.709 -1.3856 -0.0693 -0.5442
 1600SOL    HW3 6447   2.856   2.054   2.708  0.2972 -1.3200  0.5346
 1600SOL    MW4 6448   2.927   2.095   2.735 -0.3099 -0.0515  0.2470
 1601SOL     OW 6449   2.980   2.329   2.594 -0.3372  0.2106  0.4484
 1601SOL    HW2 6450   3.045   2.369   2.652 -0.0023  1.5001 -0.7912
 1601SOL    HW3 6451   2.897   2.368   2.622 -0.3535 -0.1384  0.8971
 1601SOL    MW4 6452   2.978   2.339   2.605 -0.2949  0.3350  0.3438
 1602SOL     OW 6453   2.730   2.431   2.685  0.4394  0.3006 -0.4728
 1602SOL    HW2 6454   2.735   2.437   2.781 -2.8500 -0.4455 -0.1695
 1602SOL    HW3 6455   2.698   2.517   2.657 -0.4105 -0.0685 -0.6795
 1602SOL    MW4 6456   2.726   2.443   2.694 -0.1070  0.1538 -0.4601
 1603SOL     OW 6457   2.716   2.697   2.600 -0.0500 -0.8244 -0.4921
 1603SOL    HW2 6458   2.797   2.741   2.627  0.5092 -2.5560  0.7173
 1603SOL    HW3 6459   2.705   2.723   2.509  0.2285  1.8645  0.1923
 1603SOL    MW4 6460   2.726   2.706   2.592  0.0603 -0.6983 -0.2422
 1604SOL     OW 6461   2.946   2.833   2.695  0.0098  0.1568 -0.1069
 1604SOL    HW2 6462   2.941   2.820   2.789 -0.6710 -1.0113 -0.2957
 1604SOL    HW3 6463   2.942   2.928   2.683  0.1531  0.3060  1.0353
 1604SOL    MW4 6464   2.945   2.844   2.706 -0.0608  0.0224  0.0188
 1605SOL     OW 6465   2.934   3.121   2.671 -0.3315  0.4263  0.0735
 1605SOL    HW2 6466   2.855   3.168   2.697 -0.5303 -0.0763  0.3890
 1605SOL    HW3 6467   2.940   3.132   2.576 -0.5375  0.8399  0.1111
 1605SOL    MW4 6468   2.924   3.128   2.662 -0.3848  0.4144  0.1202
 1606SOL     OW 6469   2.699   3.251   2.697 -0.3067  0.1714 -0.2076
 1606SOL    HW2 6470   2.704   3.334   2.650  1.3409  0.2467  0.0765
 1606SOL    HW3 6471   2.614   3.214   2.672 -0.6485  1.5063 -1.0498
 1606SOL    MW4 6472   2.688   3.257   2.688 -0.1342  0.3572 -0.2813
 1607SOL     OW 6473   2.722   3.491   2.574  0.4772  0.1346  0.2428
 1607SOL    HW2 6474   2.631   3.513   2.594  0.6624  0.2357  1.0142
 1607SOL    HW3 6475   2.724   3.480   2.479 -0.0566  1.4554  0.0719
 1607SOL    MW4 6476   2.710   3.493   2.564  0.4313  0.3223  0.3221
 1608SOL     OW 6477   2.947   3.606   2.688  0.1369 -0.2066  0.4922
 1608SOL    HW2 6478   2.940   3.587   2.781  0.0703  1.5526  0.8651
 1608SOL    HW3 6479   2.860   3.587   2.653 -0.1084  0.0524  0.9650
 1608SOL    MW4 6480   2.935   3.601   2.696  0.0956  0.0598  0.6034
 1609SOL     OW 6481   2.945   3.880   2.627 -0.3300  0.1050 -0.3412
 1609SOL    HW2 6482   3.017   3.927   2.669 -1.4923  1.9905 -0.4319
 1609SOL    HW3 6483   2.950   3.792   2.663  1.4710  0.4543  0.3264
 1609SOL    MW4 6484   2.955   3.875   2.637 -0.2458  0.3996 -0.2649
 1610SOL     OW 6485   2.677   3.988   2.678 -0.2206 -0.1808 -0.4387
 1610SOL    HW2 6486   2.703   4.075   2.649 -0.9328 -0.2541 -1.3163
 1610SOL    HW3 6487   2.753   3.933   2.661  0.2286  0.2616  0.1142
 1610SOL    MW4 6488   2.691   3.992   2.672 -0.2553 -0.1323 -0.4816
 1611SOL     OW 6489   2.729   4.262   2.634  0.0136 -0.0018  0.0453
 1611SOL    HW2 6490   2.799   4.317   2.670 -0.2388  0.7389 -0.5796
 1611SOL    HW3 6491   2.650   4.289   2.681 -0.1177  0.2019 -0.2886
 1611SOL    MW4 6492   2.728   4.273   2.645 -0.0370  0.1225 -0.0813
 1612SOL     OW 6493   3.175   4.279   2.652 -0.5606  0.0219  0.0759
 1612SOL    HW2 6494   3.099   4.323   2.688  0.2504  1.5004  0.0274
 1612SOL    HW3 6495   3.163   4.283   2.557  0.1508  1.3326  0.0295
 1612SOL    MW4 6496   3.164   4.285   2.644 -0.3595  0.3901  0.0634
 1613SOL     OW 6497   3.395   0.010   2.678 -0.2402 -0.0378  0.3752
 1613SOL    HW2 6498   3.385  -0.078   2.713 -0.6718  0.3452  1.2062
 1613SOL    HW3 6499   3.319   0.059   2.710  0.8879  1.1145  1.3835
 1613SOL    MW4 6500   3.384   0.005   2.686 -0.1483  0.1648  0.6180
 1614SOL     OW 6501   3.166   0.136   2.747  0.4064  0.1409 -0.1123
 1614SOL    HW2 6502   3.170   0.134   2.842  2.0656 -1.3016 -0.2021
 1614SOL    HW3 6503   3.148   0.228   2.726  0.4665  0.5470  1.5561
 1614SOL    MW4 6504   3.164   0.148   2.756  0.6332  0.0041  0.0961
 1615SOL     OW 6505   3.131   0.392   2.676  0.2590 -0.0887  0.0754
 1615SOL    HW2 6506   3.064   0.445   2.719 -0.9777 -1.5738  0.0298
 1615SOL    HW3 6507   3.115   0.405   2.582  1.0741  0.8311  0.0619
 1615SOL    MW4 6508   3.120   0.400   2.669  0.2034 -0.1633  0.0677
 1616SOL     OW 6509   3.345   0.525   2.779  0.1922  0.2975 -0.0591
 1616SOL    HW2 6510   3.351   0.614   2.744  2.1311 -0.1513 -0.9197
 1616SOL    HW3 6511   3.274   0.484   2.730 -0.9340  1.4493  0.5680
 1616SOL    MW4 6512   3.337   0.532   2.768  0.2992  0.3902 -0.0899
 1617SOL     OW 6513   3.365   0.793   2.662 -0.3616  0.1844 -0.0962
 1617SOL    HW2 6514   3.451   0.832   2.679 -0.9517  1.7847 -0.6163
 1617SOL    HW3 6515   3.352   0.805   2.568 -1.4711  0.6280  0.1125
 1617SOL    MW4 6516   3.375   0.800   2.652 -0.5856  0.4541 -0.1371
 1618SOL     OW 6517   3.113   0.875   2.720  0.1656 -0.4890  0.0023
 1618SOL    HW2 6518   3.106   0.879   2.816  0.4732 -0.3291  0.0194
 1618SOL    HW3 6519   3.204   0.852   2.704  0.1757 -0.2620 -0.2588
 1618SOL    MW4 6520   3.124   0.873   2.731  0.2074 -0.4380 -0.0298
 1619SOL     OW 6521   3.181   1.134   2.638  0.5811  0.0028 -0.5485
 1619SOL    HW2 6522   3.150   1.047   2.663  1.3994 -0.3936 -0.8791
 1619SOL    HW3 6523   3.161   1.141   2.545 -2.1072  1.3232  0.0681
 1619SOL    MW4 6524   3.174   1.123   2.629  0.3345  0.1247 -0.5109
 1620SOL     OW 6525   3.396   1.284   2.730 -0.1265  0.2276 -0.5264
 1620SOL    HW2 6526   3.401   1.282   2.826  0.7745 -1.2331 -0.5958
 1620SOL    HW3 6527   3.319   1.231   2.709 -0.3115  0.5294 -0.6061
 1620SOL    MW4 6528   3.387   1.277   2.740 -0.0319  0.0747 -0.5462
 1621SOL     OW 6529   3.364   1.564   2.632 -0.2164  0.1922 -0.3608
 1621SOL    HW2 6530   3.294   1.585   2.693 -0.5194  0.2391 -0.7231
 1621SOL    HW3 6531   3.363   1.468   2.626 -0.3568  0.2030 -0.4948
 1621SOL    MW4 6532   3.355   1.554   2.639 -0.2747  0.1998 -0.4261
 1622SOL     OW 6533   3.148   1.678   2.766 -0.3301  0.3373  0.6369
 1622SOL    HW2 6534   3.153   1.764   2.726  2.6792  0.1748  0.5391
 1622SOL    HW3 6535   3.096   1.625   2.705 -2.3139  2.0885  0.7802
 1622SOL    MW4 6536   3.142   1.682   2.753 -0.1950  0.5471  0.6428
 1623SOL     OW 6537   3.174   1.924   2.644 -0.4584  0.0484  0.1469
 1623SOL    HW2 6538   3.257   1.958   2.678  0.0705 -1.2625  0.2264
 1623SOL    HW3 6539   3.109   1.991   2.666  0.1830  0.0449  2.1445
 1623SOL    MW4 6540   3.177   1.937   2.652 -0.3040 -0.1249  0.4208
 1624SOL     OW 6541   3.378   2.052   2.759 -0.1362 -0.3680 -0.0872
 1624SOL    HW2 6542   3.348   2.047   2.850  0.1727 -1.2151 -0.0306
 1624SOL    HW3 6543   3.386   2.146   2.742 -2.3262 -0.1240  0.0593
 1624SOL    MW4 6544   3.375   2.064   2.769 -0.3843 -0.4475 -0.0603
 1625SOL     OW 6545   3.423   2.311   2.666  0.3408  0.0830 -0.4242
 1625SOL    HW2 6546   3.499   2.364   2.689 -0.6165  1.3692 -0.1678
 1625SOL    HW3 6547   3.424   2.306   2.571 -0.0745  1.3526 -0.5032
 1625SOL    MW4 6548   3.433   2.317   2.657  0.1595  0.4199 -0.4008
 1626SOL     OW 6549   3.196   2.416   2.770 -0.1122  0.1294  0.1606
 1626SOL    HW2 6550   3.186   2.509   2.754  1.3080  0.2948  0.1445
 1626SOL    HW3 6551   3.284   2.396   2.739 -0.9604 -1.5429 -1.2578
 1626SOL    MW4 6552   3.206   2.425   2.764 -0.0370 -0.0696 -0.0286
 1627SOL     OW 6553   3.169   2.684   2.698  0.5585  0.6675 -0.5725
 1627SOL    HW2 6554   3.245   2.734   2.726  0.4651  0.7183 -0.4043
 1627SOL    HW3 6555   3.094   2.740   2.719  0.3838 -0.0078  0.6895
 1627SOL    MW4 6556   3.169   2.698   2.705  0.5229  0.5848 -0.3839
 1628SOL     OW 6557   3.392   2.858   2.746 -0.3941 -0.0341 -0.0811
 1628SOL    HW2 6558   3.400   2.855   2.842 -0.5730  0.1405 -0.0597
 1628SOL    HW3 6559   3.467   2.808   2.714 -0.1513  0.1884  0.1422
 1628SOL    MW4 6560   3.403   2.851   2.755 -0.3858  0.0184 -0.0489
 1629SOL     OW 6561   3.393   3.121   2.641  0.0199  0.3301 -0.6772
 1629SOL    HW2 6562   3.387   3.030   2.669 -0.8480  0.4893 -0.3374
 1629SOL    HW3 6563   3.410   3.116   2.547  2.9893 -0.2039 -0.1667
 1629SOL    MW4 6564   3.394   3.108   2.632  0.2973  0.2804 -0.5648
 1630SOL     OW 6565   3.188   3.257   2.772  0.2204  0.0108  0.0605
 1630SOL    HW2 6566   3.262   3.200   2.749  0.5478 -0.8300  2.9785
 1630SOL    HW3 6567   3.111   3.210   2.740  0.6638 -1.0056  0.4754
 1630SOL    MW4 6568   3.188   3.243   2.764  0.3219 -0.2341  0.5002
 1631SOL     OW 6569   3.172   3.464   2.595  0.8862 -1.0776  0.1197
 1631SOL    HW2 6570   3.190   3.394   2.657 -0.6593 -1.2138  0.4115
 1631SOL    HW3 6571   3.099   3.513   2.632  0.6867 -0.4684 -1.0311
 1631SOL    MW4 6572   3.165   3.461   2.608  0.6564 -1.0152  0.0064
 1632SOL     OW 6573   3.353   3.610   2.747  0.1942  0.2550  0.0792
 1632SOL    HW2 6574   3.344   3.611   2.842  0.4242 -0.0008  0.1054
 1632SOL    HW3 6575   3.276   3.562   2.715  1.4581 -2.0098  0.3030
 1632SOL    MW4 6576   3.342   3.604   2.755  0.3912 -0.0777  0.1123
 1633SOL     OW 6577   3.408   3.880   2.669 -0.2544  0.1933 -0.5523
 1633SOL    HW2 6578   3.395   3.789   2.693 -0.4432  0.2123 -0.5847
 1633SOL    HW3 6579   3.396   3.882   2.574 -1.0616  0.3985 -0.4461
 1633SOL    MW4 6580   3.405   3.869   2.659 -0.3860  0.2227 -0.5426
 1634SOL     OW 6581   3.175   4.013   2.731  0.0162 -0.1400 -0.2178
 1634SOL    HW2 6582   3.179   4.107   2.711  1.2330 -0.2590 -0.5321
 1634SOL    HW3 6583   3.261   3.979   2.708 -0.0800 -1.1600  0.8722
 1634SOL    MW4 6584   3.187   4.021   2.725  0.1640 -0.2899 -0.1154
 1635SOL     OW 6585   2.949   4.419   2.731  0.0603 -0.2548 -0.0267
 1635SOL    HW2 6586   2.928   4.425   2.825 -1.2520  1.3262 -0.4197
 1635SOL    HW3 6587   2.955   4.509   2.702  0.6099 -0.7492 -1.4524
 1635SOL    MW4 6588   2.947   4.432   2.740 -0.0403 -0.1121 -0.2663
 1636SOL     OW 6589   3.386   4.422   2.761  0.0533 -0.1574  0.6824
 1636SOL    HW2 6590   3.361   4.406   2.852 -1.1405  1.6200  0.7079
 1636SOL    HW3 6591   3.315   4.384   2.710  0.2121 -0.2663  0.5436
 1636SOL    MW4 6592   3.373   4.415   2.766 -0.0832  0.0625  0.6676
 1637SOL     OW 6593   3.821   0.018   2.669  0.6240 -0.0443 -0.0367
 1637SOL    HW2 6594   3.817  -0.071   2.706 -0.0788  0.0023 -0.0013
 1637SOL    HW3 6595   3.752   0.066   2.714  1.7571  0.8493  0.7926
 1637SOL    MW4 6596   3.811   0.012   2.680  0.6809  0.0801  0.0775
 1638SOL     OW 6597   3.610   0.131   2.815 -0.3484 -0.1779 -0.3597
 1638SOL    HW2 6598   3.606   0.222   2.788  0.1918  0.2811  1.0661
 1638SOL    HW3 6599   3.535   0.090   2.772 -1.1027  1.1215 -0.3066
 1638SOL    MW4 6600   3.599   0.137   2.806 -0.3769  0.0541 -0.1645
 1639SOL     OW 6601   3.537   0.377   2.664 -0.6207  0.1677 -0.1155
 1639SOL    HW2 6602   3.617   0.409   2.707 -0.6411  0.3234 -0.1932
 1639SOL    HW3 6603   3.468   0.432   2.699 -1.0358 -1.4307  1.6757
 1639SOL    MW4 6604   3.539   0.388   2.675 -0.6781 -0.0226  0.1109
 1640SOL     OW 6605   3.772   0.500   2.778  0.2523 -0.0436  0.3504
 1640SOL    HW2 6606   3.801   0.497   2.870  0.6178 -2.6076  0.1927
 1640SOL    HW3 6607   3.846   0.463   2.729 -0.0319  1.1104 -0.9613
 1640SOL    MW4 6608   3.786   0.494   2.784  0.2635 -0.2296  0.1562
 1641SOL     OW 6609   3.801   0.760   2.633 -0.2771  0.4032 -0.4405
 1641SOL    HW2 6610   3.717   0.794   2.664 -0.0770 -0.2045  0.7865
 1641SOL    HW3 6611   3.815   0.680   2.683  0.8597  0.2949 -0.9115
 1641SOL    MW4 6612   3.791   0.754   2.644 -0.1006  0.3087 -0.3409
 1642SOL     OW 6613   3.598   0.911   2.745  0.4744 -0.1828 -0.4254
 1642SOL    HW2 6614   3.605   0.899   2.839 -0.4170  0.6096 -0.2486
 1642SOL    HW3 6615   3.609   1.006   2.732 -0.2943 -0.1678 -1.0142
 1642SOL    MW4 6616   3.600   0.922   2.756  0.2556 -0.0762 -0.4797
 1643SOL     OW 6617   3.860   1.319   2.771  0.3710 -0.2790  0.5206
 1643SOL    HW2 6618   3.933   1.273   2.731  0.5605  0.3243  0.1679
 1643SOL    HW3 6619   3.852   1.400   2.720 -1.1990 -0.8152 -0.1197
 1643SOL    MW4 6620   3.868   1.324   2.759  0.1888 -0.2701  0.3896
 1644SOL     OW 6621   3.836   1.288   3.051 -0.5058  0.1526 -0.2549
 1644SOL    HW2 6622   3.848   1.281   2.956 -0.7806  1.5342 -0.3918
 1644SOL    HW3 6623   3.836   1.382   3.068  0.1042 -0.1045  1.1906
 1644SOL    MW4 6624   3.838   1.299   3.040 -0.4616  0.3010 -0.0820
 1645SOL     OW 6625   3.834   1.555   2.348 -0.9659  0.1576  0.3556
 1645SOL    HW2 6626   3.826   1.571   2.443 -0.9807  1.8371  0.0991
 1645SOL    HW3 6627   3.752   1.588   2.312 -0.0414  1.5907 -0.4731
 1645SOL    MW4 6628   3.822   1.562   2.356 -0.8457  0.5684  0.2124
 1646SOL     OW 6629   3.826   1.563   2.631  0.0362 -0.0783  0.0606
 1646SOL    HW2 6630   3.884   1.613   2.688 -0.0177  1.9482 -1.6096
 1646SOL    HW3 6631   3.738   1.589   2.658  0.0146  1.3594 -1.2898
 1646SOL    MW4 6632   3.822   1.573   2.642  0.0262  0.3787 -0.3378
 1647SOL     OW 6633   3.590   1.692   2.735 -0.3158  0.3486 -0.1899
 1647SOL    HW2 6634   3.604   1.779   2.699 -0.8444  0.9154  0.9269
 1647SOL    HW3 6635   3.517   1.656   2.684  0.2580  0.3460 -1.0088
 1647SOL    MW4 6636   3.582   1.699   2.724 -0.3097  0.4231 -0.1507
 1648SOL     OW 6637   3.599   1.959   2.618 -0.0739  0.1079 -0.2364
 1648SOL    HW2 6638   3.566   1.958   2.528 -0.0646  0.9597 -0.2534
 1648SOL    HW3 6639   3.525   1.990   2.670 -0.2585 -0.9196  0.1309
 1648SOL    MW4 6640   3.585   1.963   2.613 -0.0970  0.0846 -0.1903
 1649SOL     OW 6641   3.836   2.072   2.739  0.1395 -0.0854 -0.3664
 1649SOL    HW2 6642   3.765   2.027   2.693  0.6234 -0.3497 -0.8619
 1649SOL    HW3 6643   3.916   2.032   2.704  0.5760  1.2441 -0.8828
 1649SOL    MW4 6644   3.838   2.061   2.728  0.2611  0.0551 -0.5000
 1650SOL     OW 6645   3.626   2.479   2.757 -0.6332 -0.4381  0.4071
 1650SOL    HW2 6646   3.617   2.463   2.851 -0.2945 -1.4271  0.2831
 1650SOL    HW3 6647   3.718   2.461   2.738 -0.7165 -0.3183 -0.1310
 1650SOL    MW4 6648   3.637   2.474   2.767 -0.5996 -0.5524  0.3200
 1651SOL     OW 6649   3.612   2.734   2.622 -0.2506 -0.1610 -0.1402
 1651SOL    HW2 6650   3.626   2.646   2.657  1.7974 -0.4142 -1.4714
 1651SOL    HW3 6651   3.610   2.722   2.527 -2.2257  0.9475 -0.2573
 1651SOL    MW4 6652   3.614   2.721   2.614 -0.2410 -0.0484 -0.3312
 1652SOL     OW 6653   3.825   2.890   2.741  0.4751 -0.3947 -0.3738
 1652SOL    HW2 6654   3.904   2.857   2.697  2.1842  3.1412 -0.1394
 1652SOL    HW3 6655   3.753   2.844   2.699  2.4862 -1.7683 -2.4537
 1652SOL    MW4 6656   3.826   2.879   2.730  0.9661 -0.1094 -0.6173
 1653SOL     OW 6657   3.817   3.147   2.609  0.8273  0.1054 -0.0445
 1653SOL    HW2 6658   3.740   3.181   2.656  0.8342  1.1340 -0.7736
 1653SOL    HW3 6659   3.829   3.059   2.644 -0.0227  0.3471  0.8746
 1653SOL    MW4 6660   3.808   3.140   2.620  0.7160  0.2732 -0.0198
 1654SOL     OW 6661   3.612   3.249   2.738  0.5569  0.2658 -0.4709
 1654SOL    HW2 6662   3.604   3.336   2.697  0.0657  0.5289  0.1824
 1654SOL    HW3 6663   3.538   3.199   2.702 -0.6507  0.8981  1.0734
 1654SOL    MW4 6664   3.601   3.254   2.728  0.3328  0.3836 -0.1810
 1655SOL     OW 6665   3.579   3.500   2.636 -0.0630 -0.2812  0.1094
 1655SOL    HW2 6666   3.644   3.558   2.677 -0.4388 -0.2692  0.6877
 1655SOL    HW3 6667   3.495   3.527   2.673 -0.2559 -1.1176  0.2982
 1655SOL    MW4 6668   3.577   3.511   2.646 -0.1380 -0.3901  0.2105
 1656SOL     OW 6669   3.803   3.618   2.731  0.3956  0.3819 -0.8310
 1656SOL    HW2 6670   3.826   3.706   2.704  0.3153  0.1026 -1.8162
 1656SOL    HW3 6671   3.873   3.562   2.697 -0.4725 -0.1564 -1.7544
 1656SOL    MW4 6672   3.815   3.622   2.723  0.2701  0.2742 -1.0829
 1657SOL     OW 6673   3.832   3.893   2.630  0.4915  0.1226  0.2034
 1657SOL    HW2 6674   3.894   3.956   2.668  0.5448 -0.3495  0.9121
 1657SOL    HW3 6675   3.749   3.913   2.673  0.6903 -0.8208  1.0314
 1657SOL    MW4 6676   3.829   3.904   2.641  0.5245 -0.0639  0.4060
 1658SOL     OW 6677   3.621   3.987   2.778  0.2927  0.1850  0.3044
 1658SOL    HW2 6678   3.612   4.079   2.753 -0.2002  0.6776  2.1712
 1658SOL    HW3 6679   3.545   3.944   2.740 -0.5318  0.9400  1.0762
 1658SOL    MW4 6680   3.610   3.994   2.770  0.1187  0.3495  0.6526
 1659SOL     OW 6681   3.596   4.244   2.672 -0.3326 -0.1701  0.0846
 1659SOL    HW2 6682   3.535   4.309   2.709  0.9343  1.1903 -0.1739
 1659SOL    HW3 6683   3.584   4.252   2.578  2.0431  1.9402 -0.0958
 1659SOL    MW4 6684   3.586   4.254   2.665  0.1478  0.2885  0.0267
 1660SOL     OW 6685   3.798   4.430   2.749 -0.5197  0.2630 -0.2806
 1660SOL    HW2 6686   3.874   4.414   2.693 -0.2665  0.5812 -0.0350
 1660SOL    HW3 6687   3.740   4.356   2.733  0.0132 -0.1828 -0.1823
 1660SOL    MW4 6688   3.800   4.418   2.739 -0.4158  0.2465 -0.2353
 1661SOL     OW 6689   4.250   4.662   2.655  0.1708  0.7166  0.4724
 1661SOL    HW2 6690   4.186   4.720   2.695  0.8921  1.6342  0.3076
 1661SOL    HW3 6691   4.335   4.695   2.685  0.7378  1.4374 -1.7894
 1661SOL    MW4 6692   4.253   4.674   2.664  0.3409  0.9328  0.1519
 1662SOL     OW 6693   3.991   0.394   2.644  0.1343 -0.6710 -0.0968
 1662SOL    HW2 6694   4.011   0.302   2.665 -2.5145 -1.6031 -1.4078
 1662SOL    HW3 6695   4.013   0.402   2.551 -0.7420 -0.3045 -0.2741
 1662SOL    MW4 6696   3.996   0.383   2.635 -0.3307 -0.7456 -0.2935
 1663SOL     OW 6697   4.227   0.505   2.723 -0.6753  0.4863  0.2949
 1663SOL    HW2 6698   4.155   0.452   2.688 -1.2373  0.5041  1.3821
 1663SOL    HW3 6699   4.306   0.458   2.700 -1.1929 -1.2359  1.8652
 1663SOL    MW4 6700   4.228   0.492   2.716 -0.8183  0.2614  0.6459
 1664SOL     OW 6701   4.468   0.372   2.669  0.3454 -0.1763  0.1801
 1664SOL    HW2 6702   4.473   0.367   2.574  0.0550  1.0227  0.0934
 1664SOL    HW3 6703   4.550   0.414   2.696  0.3875 -0.4279  0.4524
 1664SOL    MW4 6704   4.479   0.377   2.660  0.3127 -0.0513  0.2048
 1665SOL     OW 6705   4.241   0.773   2.661 -0.3966  0.7423  0.0443
 1665SOL    HW2 6706   4.231   0.684   2.694 -0.7664  1.0546  0.7724
 1665SOL    HW3 6707   4.237   0.763   2.566 -0.5057 -0.0097  0.1211
 1665SOL    MW4 6708   4.239   0.760   2.653 -0.4597  0.6844  0.1504
 1666SOL     OW 6709   4.006   0.906   2.754 -0.3812 -0.5088 -0.1454
 1666SOL    HW2 6710   4.087   0.867   2.723  0.0021 -1.3630  1.8347
 1666SOL    HW3 6711   3.937   0.859   2.708  0.1813 -1.3844 -0.1085
 1666SOL    MW4 6712   4.008   0.895   2.744 -0.2565 -0.7371  0.1206
 1667SOL     OW 6713   4.038   1.136   2.625  0.4426 -0.2319 -0.6547
 1667SOL    HW2 6714   4.118   1.173   2.661 -0.1354 -0.1582  0.5783
 1667SOL    HW3 6715   4.027   1.052   2.670 -0.0532 -0.3441 -0.9732
 1667SOL    MW4 6716   4.047   1.130   2.636  0.3009 -0.2370 -0.5338
 1668SOL     OW 6717   4.489   1.154   2.593 -0.0552  0.3542  0.4179
 1668SOL    HW2 6718   4.565   1.192   2.638  0.5828 -0.7193  0.2749
 1668SOL    HW3 6719   4.414   1.187   2.640  0.5219  1.1831  0.7652
 1668SOL    MW4 6720   4.489   1.163   2.605  0.1054  0.3219  0.4449
 1669SOL     OW 6721   4.251   1.531   2.625  0.4614  0.7043 -0.1403
 1669SOL    HW2 6722   4.319   1.585   2.666  1.1121 -0.8979  0.9471
 1669SOL    HW3 6723   4.277   1.526   2.533  0.6314  1.8737 -0.1620
 1669SOL    MW4 6724   4.263   1.537   2.618  0.5698  0.6473  0.0002
 1670SOL     OW 6725   4.038   1.688   2.746  0.4423  0.2965 -0.1214
 1670SOL    HW2 6726   4.040   1.680   2.841  0.4489 -1.1992 -0.2397
 1670SOL    HW3 6727   4.109   1.632   2.715  0.5019  0.8529 -1.0002
 1670SOL    MW4 6728   4.047   1.680   2.754  0.4511  0.1726 -0.2530
 1671SOL     OW 6729   4.066   1.943   2.630 -0.0860  0.3650  0.3151
 1671SOL    HW2 6730   4.129   2.004   2.668 -1.3580  0.7719  1.8391
 1671SOL    HW3 6731   4.068   1.867   2.688 -0.8539  0.3172  0.2928
 1671SOL    MW4 6732   4.074   1.941   2.643 -0.3557  0.4125  0.5133
 1672SOL     OW 6733   4.290   2.068   2.740 -0.3393 -0.0004 -0.3018
 1672SOL    HW2 6734   4.295   2.148   2.688  1.7785  0.4838  0.6079
 1672SOL    HW3 6735   4.345   2.005   2.693  0.7182  0.1179  0.7545
 1672SOL    MW4 6736   4.298   2.070   2.727  0.0796  0.0792 -0.0424
 1673SOL     OW 6737   4.263   2.338   2.627  0.2046  0.0018  0.3898
 1673SOL    HW2 6738   4.197   2.399   2.656  1.0213  1.3252 -0.4569
 1673SOL    HW3 6739   4.252   2.334   2.532 -0.6725 -2.1711  0.5383
 1673SOL    MW4 6740   4.253   2.345   2.618  0.1965 -0.1104  0.2980
 1674SOL     OW 6741   4.072   2.490   2.745  0.1286 -0.4746 -0.0420
 1674SOL    HW2 6742   4.074   2.469   2.838  0.6685 -1.4535 -0.2729
 1674SOL    HW3 6743   4.000   2.437   2.710  0.0095 -0.2045 -0.2159
 1674SOL    MW4 6744   4.063   2.481   2.752  0.1841 -0.5679 -0.0954
 1675SOL     OW 6745   4.051   2.745   2.649 -0.1208  0.1866 -0.5539
 1675SOL    HW2 6746   4.135   2.788   2.666 -1.5031  1.6328  3.3874
 1675SOL    HW3 6747   4.066   2.653   2.671  0.1225  0.6953  1.5389
 1675SOL    MW4 6748   4.064   2.739   2.654 -0.2708  0.4447  0.2425
 1676SOL     OW 6749   4.296   2.832   2.743  0.3246  0.0356  0.1437
 1676SOL    HW2 6750   4.286   2.816   2.837 -0.2277 -0.7954 -0.0538
 1676SOL    HW3 6751   4.273   2.925   2.732  0.8605  0.2557  0.8945
 1676SOL    MW4 6752   4.291   2.842   2.754  0.3228 -0.0451  0.2165
 1677SOL     OW 6753   4.281   3.111   2.713 -0.1121 -0.0251 -0.6019
 1677SOL    HW2 6754   4.202   3.164   2.720 -1.3871 -1.9762  0.3462
 1677SOL    HW3 6755   4.280   3.076   2.624 -0.2998 -0.0144 -0.6032
 1677SOL    MW4 6756   4.270   3.113   2.702 -0.3052 -0.2813 -0.4768
 1678SOL     OW 6757   4.043   3.257   2.758  0.1050  0.0687 -0.3413
 1678SOL    HW2 6758   4.053   3.348   2.729  1.5838 -0.0350 -0.2051
 1678SOL    HW3 6759   3.970   3.223   2.705 -1.2010  1.6426  0.4126
 1678SOL    MW4 6760   4.035   3.265   2.747  0.1273  0.2627 -0.2241
 1679SOL     OW 6761   4.041   3.519   2.620 -0.0436 -0.0281  0.0166
 1679SOL    HW2 6762   4.110   3.573   2.657  0.4452 -0.6682  0.0465
 1679SOL    HW3 6763   4.072   3.498   2.532 -1.3971  1.8476 -0.9379
 1679SOL    MW4 6764   4.054   3.524   2.613 -0.1578  0.1349 -0.1056
 1680SOL     OW 6765   4.262   3.652   2.731 -0.3090  0.2931 -0.5967
 1680SOL    HW2 6766   4.324   3.580   2.722 -1.5699 -0.7520 -1.0324
 1680SOL    HW3 6767   4.250   3.663   2.825 -0.7060 -0.5989 -0.5364
 1680SOL    MW4 6768   4.268   3.644   2.742 -0.5279  0.0377 -0.6459
 1681SOL     OW 6769   4.264   3.918   2.641 -0.2578 -0.2777  0.5318
 1681SOL    HW2 6770   4.256   3.824   2.654 -0.6587 -0.3400 -0.1483
 1681SOL    HW3 6771   4.350   3.940   2.677 -0.8273 -0.6346  2.1630
 1681SOL    MW4 6772   4.275   3.909   2.648 -0.3858 -0.3331  0.6573
 1682SOL     OW 6773   4.023   4.047   2.731  0.4029 -0.2719  0.0071
 1682SOL    HW2 6774   4.017   4.034   2.826  0.8693 -0.3189  0.0287
 1682SOL    HW3 6775   4.104   4.004   2.706  0.3057 -0.2123 -0.4093
 1682SOL    MW4 6776   4.033   4.040   2.740  0.4516 -0.2699 -0.0448
 1683SOL     OW 6777   4.022   4.297   2.620 -0.3630 -0.0977  0.0868
 1683SOL    HW2 6778   4.015   4.205   2.647  0.6692 -0.4063 -0.6801
 1683SOL    HW3 6779   4.026   4.293   2.524 -1.3398  0.8190 -0.0016
 1683SOL    MW4 6780   4.021   4.284   2.611 -0.3557 -0.0172 -0.0260
 1684SOL     OW 6781   4.249   4.406   2.755  0.3187 -0.7323 -0.0077
 1684SOL    HW2 6782   4.178   4.354   2.717  0.5372 -0.4176 -0.8496
 1684SOL    HW3 6783   4.240   4.492   2.715  1.0364 -0.6201  0.0613
 1684SOL    MW4 6784   4.238   4.410   2.745  0.4430 -0.6757 -0.1097
 1685SOL     OW 6785   0.470   0.066   3.016  0.1807  0.6109 -0.0067
 1685SOL    HW2 6786   0.458   0.158   3.039  1.1679  0.5941  0.6056
 1685SOL    HW3 6787   0.392   0.022   3.051 -0.6527  1.3251 -0.9608
 1685SOL    MW4 6788   0.458   0.072   3.024  0.2010  0.7029 -0.0520
 1686SOL     OW 6789   0.230   4.621   3.149  0.5127 -0.3611 -0.0976
 1686SOL    HW2 6790   0.158   4.668   3.107  0.4945 -1.3231 -1.1771
 1686SOL    HW3 6791   0.218   4.637   3.242 -1.2219 -0.6544 -0.2530
 1686SOL    MW4 6792   0.219   4.629   3.156  0.2815 -0.5269 -0.2604
 1687SOL     OW 6793   0.008   0.400   3.099  0.2208 -0.4853  0.3496
 1687SOL    HW2 6794   0.016   0.398   3.195  1.5139  1.1829  0.2954
 1687SOL    HW3 6795  -0.080   0.433   3.083  0.8389  1.5717  0.9969
 1687SOL    MW4 6796  -0.002   0.404   3.110  0.4725  0.0062  0.4277
 1688SOL     OW 6797   0.243   0.500   2.988  0.0049  0.6242  0.0125
 1688SOL    HW2 6798   0.310   0.438   3.018  1.1244  1.6675 -0.2650
 1688SOL    HW3 6799   0.160   0.462   3.017  0.8665  0.3572  2.2637
 1688SOL    MW4 6800   0.241   0.487   2.996  0.2663  0.7267  0.2730
 1689SOL     OW 6801   0.242   0.758   3.085 -0.5079 -0.1301  0.3202
 1689SOL    HW2 6802   0.225   0.762   3.179  0.6021  0.2813  0.5184
 1689SOL    HW3 6803   0.243   0.664   3.064 -0.6544 -0.2245  0.7401
 1689SOL    MW4 6804   0.240   0.746   3.094 -0.3808 -0.0883  0.4017
 1690SOL     OW 6805   4.489   0.880   3.006  0.7001  0.0090 -0.2216
 1690SOL    HW2 6806   4.466   0.873   2.913  0.2449 -2.3978  0.0283
 1690SOL    HW3 6807   4.573   0.834   3.013  0.1409 -0.8948  0.7396
 1690SOL    MW4 6808   4.497   0.873   2.995  0.5665 -0.4278 -0.0618
 1691SOL     OW 6809   0.035   1.135   3.110 -0.2965  0.8147  0.0161
 1691SOL    HW2 6810  -0.046   1.182   3.091 -1.1584  0.1441  1.8395
 1691SOL    HW3 6811   0.027   1.052   3.063 -2.0255 -0.4853  2.4963
 1691SOL    MW4 6812   0.023   1.131   3.102 -0.6384  0.5547  0.5839
 1692SOL     OW 6813   0.241   1.260   2.972  0.3533 -0.6640  0.3573
 1692SOL    HW2 6814   0.160   1.225   3.009 -0.2296  2.3791  2.1393
 1692SOL    HW3 6815   0.226   1.259   2.878 -1.4003 -0.9880  0.6142
 1692SOL    MW4 6816   0.228   1.255   2.965  0.0450 -0.3053  0.6263
 1693SOL     OW 6817   0.027   1.627   3.001  0.2982 -0.5532 -0.0059
 1693SOL    HW2 6818   0.102   1.586   3.045  0.9664  0.8654  0.2090
 1693SOL    HW3 6819  -0.050   1.587   3.041  0.9345 -1.1735  0.6038
 1693SOL    MW4 6820   0.027   1.616   3.012  0.4703 -0.4480  0.1028
 1694SOL     OW 6821   4.490   1.905   3.099 -0.1217  0.1322 -0.3347
 1694SOL    HW2 6822   4.578   1.932   3.073  0.4104 -0.5645  0.6960
 1694SOL    HW3 6823   4.484   1.814   3.072  0.7322 -0.8513  2.5841
 1694SOL    MW4 6824   4.501   1.897   3.092  0.0610 -0.0894  0.1864
 1695SOL     OW 6825   0.025   1.913   3.372 -0.0206  0.3028  0.5320
 1695SOL    HW2 6826   0.026   1.822   3.404 -3.1192  0.6855  1.8748
 1695SOL    HW3 6827  -0.010   1.907   3.284  1.7561  0.0190 -0.1848
 1695SOL    MW4 6828   0.021   1.900   3.365 -0.1950  0.3158  0.6149
 1696SOL     OW 6829   0.244   2.020   3.005  0.0006 -0.0389 -0.4533
 1696SOL    HW2 6830   0.235   2.111   3.035 -0.9378 -0.3351  0.1883
 1696SOL    HW3 6831   0.230   2.024   2.910 -0.2130  0.4646 -0.4015
 1696SOL    MW4 6832   0.241   2.033   2.997 -0.1514 -0.0114 -0.3617
 1697SOL     OW 6833   0.208   2.289   3.086  0.0704  0.9130  0.2388
 1697SOL    HW2 6834   0.207   2.282   3.182 -0.3602 -0.4550  0.1315
 1697SOL    HW3 6835   0.297   2.317   3.066  1.0650 -1.6784  0.8443
 1697SOL    MW4 6836   0.220   2.292   3.096  0.1449  0.3908  0.3045
 1698SOL     OW 6837   4.451   2.408   3.030  0.3578  0.1407 -0.0183
 1698SOL    HW2 6838   4.441   2.495   3.068 -1.5738  0.1041 -0.4104
 1698SOL    HW3 6839   4.534   2.375   3.066  0.6731  1.7885  0.7901
 1698SOL    MW4 6840   4.461   2.415   3.040  0.1445  0.3533  0.0367
 1699SOL     OW 6841   4.460   2.651   3.155  0.3746 -0.1184  0.6270
 1699SOL    HW2 6842   4.477   2.649   3.249  0.5135 -2.6656  0.5954
 1699SOL    HW3 6843   4.535   2.696   3.117  1.0165 -0.3514  1.6159
 1699SOL    MW4 6844   4.472   2.657   3.162  0.4778 -0.4852  0.7532
 1700SOL     OW 6845   0.193   2.795   3.043 -0.0662 -0.0065 -0.0637
 1700SOL    HW2 6846   0.204   2.881   3.084 -1.0706 -0.7500  1.8484
 1700SOL    HW3 6847   0.205   2.811   2.949 -0.6373  2.2739  0.2286
 1700SOL    MW4 6848   0.196   2.809   3.036 -0.2741  0.1965  0.2272
 1701SOL     OW 6849   0.213   3.080   3.106 -0.3086 -0.1149 -0.9958
 1701SOL    HW2 6850   0.133   3.128   3.085 -0.9967 -0.4951  0.6335
 1701SOL    HW3 6851   0.279   3.114   3.045 -1.5920  0.5361 -2.0382
 1701SOL    MW4 6852   0.211   3.091   3.095 -0.5687 -0.0794 -0.9186
 1702SOL     OW 6853   4.478   3.216   3.041 -0.0633  0.2744  0.1351
 1702SOL    HW2 6854   4.406   3.157   3.062  0.7385 -0.3383  1.1900
 1702SOL    HW3 6855   4.477   3.223   2.945 -0.8861 -0.5233  0.0887
 1702SOL    MW4 6856   4.469   3.209   3.031 -0.0660  0.0882  0.2682
 1703SOL     OW 6857   4.488   3.491   3.127  0.0256  0.3119 -0.0136
 1703SOL    HW2 6858   4.407   3.528   3.092 -0.4333  0.0266  0.7311
 1703SOL    HW3 6859   4.491   3.402   3.092 -0.9339 -0.3132  1.4135
 1703SOL    MW4 6860   4.478   3.484   3.118 -0.1616  0.1917  0.2730
 1704SOL     OW 6861   0.210   3.638   2.997  0.1298  0.0224 -0.1589
 1704SOL    HW2 6862   0.145   3.595   3.053 -0.6387  0.4732 -0.6961
 1704SOL    HW3 6863   0.294   3.603   3.027 -0.4246 -1.2934 -0.1002
 1704SOL    MW4 6864   0.212   3.628   3.008 -0.0447 -0.0916 -0.2220
 1705SOL     OW 6865   0.015   3.991   2.758  1.0431  0.4054 -0.0044
 1705SOL    HW2 6866   0.084   3.953   2.705  0.8546  0.3164 -0.1838
 1705SOL    HW3 6867   0.015   4.084   2.735  0.0492  0.1291 -1.1729
 1705SOL    MW4 6868   0.024   3.999   2.748  0.8864  0.3572 -0.1822
 1706SOL     OW 6869   4.456   3.935   3.039 -0.0577 -0.2025  0.1254
 1706SOL    HW2 6870   4.538   3.910   3.080  0.7860 -0.0874 -1.4539
 1706SOL    HW3 6871   4.475   3.935   2.945 -1.8133 -0.0146 -0.2472
 1706SOL    MW4 6872   4.469   3.932   3.032 -0.1783 -0.1628 -0.1321
 1707SOL     OW 6873   4.305   4.407   3.049  0.2629  0.0919 -0.4397
 1707SOL    HW2 6874   4.377   4.358   3.088  0.8201  2.2241  1.3658
 1707SOL    HW3 6875   4.314   4.394   2.955  2.2978 -0.6137 -0.1596
 1707SOL    MW4 6876   4.316   4.399   3.042  0.6051  0.2804 -0.1645
 1708SOL     OW 6877   0.021   4.220   3.130  0.0144 -0.2916 -0.4036
 1708SOL    HW2 6878   0.033   4.126   3.119  0.8834 -0.3123  0.6397
 1708SOL    HW3 6879   0.009   4.231   3.225  0.8259  0.7509 -0.4165
 1708SOL    MW4 6880   0.021   4.209   3.141  0.2360 -0.1569 -0.2677
 1709SOL     OW 6881   0.725   0.003   3.120  0.0410 -0.1067  0.3704
 1709SOL    HW2 6882   0.715  -0.090   3.098 -2.1017  0.0427  0.5838
 1709SOL    HW3 6883   0.647   0.045   3.081  0.8561  1.5611  0.4871
 1709SOL    MW4 6884   0.713  -0.003   3.112 -0.1342  0.1331  0.4139
 1710SOL     OW 6885   0.448   0.347   3.074 -0.6146 -0.4670  0.2098
 1710SOL    HW2 6886   0.520   0.390   3.029  0.2081 -2.3307 -0.3141
 1710SOL    HW3 6887   0.465   0.362   3.167 -0.5906  0.7124  0.0150
 1710SOL    MW4 6888   0.460   0.355   3.080 -0.5029 -0.5573  0.1149
 1711SOL     OW 6889   0.459   0.346   3.370 -0.0648  0.5815  0.2622
 1711SOL    HW2 6890   0.463   0.256   3.403 -1.5422  0.1747 -0.6343
 1711SOL    HW3 6891   0.534   0.390   3.412  0.1248 -0.8089  1.4286
 1711SOL    MW4 6892   0.470   0.340   3.380 -0.2347  0.3443  0.2978
 1712SOL     OW 6893   0.671   0.469   2.944  0.2695  0.2891  0.4442
 1712SOL    HW2 6894   0.745   0.421   2.980 -0.1950  0.7906  2.1206
 1712SOL    HW3 6895   0.683   0.559   2.976 -0.4061  0.6387 -0.2681
 1712SOL    MW4 6896   0.682   0.475   2.953  0.1190  0.4014  0.5715
 1713SOL     OW 6897   0.697   0.740   3.016  0.0219 -0.2786 -0.0520
 1713SOL    HW2 6898   0.692   0.741   3.112  0.1497 -1.0903 -0.0289
 1713SOL    HW3 6899   0.624   0.795   2.987  0.2545  0.3304  0.5215
 1713SOL    MW4 6900   0.687   0.747   3.025  0.0694 -0.3054  0.0267
 1714SOL     OW 6901   0.476   0.904   2.973  0.1753 -0.0625 -0.5948
 1714SOL    HW2 6902   0.408   0.847   3.010  0.0510  0.6971  0.3675
 1714SOL    HW3 6903   0.459   0.903   2.879 -0.9358 -0.1922 -0.4068
 1714SOL    MW4 6904   0.465   0.896   2.965  0.0123  0.0206 -0.4430
 1715SOL     OW 6905   0.456   1.150   3.106  0.0860 -0.2545  0.1454
 1715SOL    HW2 6906   0.470   1.069   3.056 -1.4867 -0.2471 -0.3556
 1715SOL    HW3 6907   0.373   1.184   3.073  0.7972  1.6586  0.2557
 1715SOL    MW4 6908   0.447   1.144   3.095 -0.0277 -0.0012  0.0937
 1716SOL     OW 6909   0.680   1.280   2.999 -0.3878  0.2094  0.1115
 1716SOL    HW2 6910   0.611   1.231   3.042 -1.3980 -0.1359 -1.8510
 1716SOL    HW3 6911   0.760   1.232   3.020 -1.2384 -1.7180 -0.9354
 1716SOL    MW4 6912   0.682   1.268   3.007 -0.6334 -0.0905 -0.2856
 1717SOL     OW 6913   0.721   1.515   3.155 -0.4254  0.1182  0.2598
 1717SOL    HW2 6914   0.715   1.504   3.250 -0.1996 -1.7723  0.0697
 1717SOL    HW3 6915   0.696   1.430   3.119 -1.2157  1.0355 -1.4101
 1717SOL    MW4 6916   0.717   1.502   3.163 -0.4998 -0.0101  0.0143
 1718SOL     OW 6917   0.521   1.661   3.023  0.3588 -0.0091  0.3361
 1718SOL    HW2 6918   0.589   1.634   3.085  0.4759 -0.0263  0.1988
 1718SOL    HW3 6919   0.488   1.743   3.059  0.3021 -0.1128  0.5196
 1718SOL    MW4 6920   0.526   1.668   3.036  0.3667 -0.0250  0.3419
 1719SOL     OW 6921   0.471   1.911   3.128  0.3008  0.3174  0.4565
 1719SOL    HW2 6922   0.549   1.948   3.086  0.2752 -1.1822 -0.9698
 1719SOL    HW3 6923   0.398   1.942   3.074 -0.1310  1.7465  1.8091
 1719SOL    MW4 6924   0.471   1.920   3.115  0.2404  0.3082  0.4466
 1720SOL     OW 6925   0.693   2.035   3.003 -0.2627  0.3915  0.1865
 1720SOL    HW2 6926   0.773   2.006   3.045  0.9966 -0.0154 -2.3640
 1720SOL    HW3 6927   0.680   2.125   3.034  1.5891  0.7156  0.0551
 1720SOL    MW4 6928   0.702   2.043   3.012  0.1478  0.3803 -0.1674
 1721SOL     OW 6929   0.686   2.292   3.083 -0.0753 -0.6452  0.2331
 1721SOL    HW2 6930   0.682   2.306   3.178 -1.0089 -1.5085  0.3356
 1721SOL    HW3 6931   0.762   2.342   3.054 -0.3833  0.4756  1.2926
 1721SOL    MW4 6932   0.695   2.301   3.092 -0.2391 -0.6113  0.3867
 1722SOL     OW 6933   0.450   2.417   3.000  0.1428  0.0661 -0.2625
 1722SOL    HW2 6934   0.532   2.370   3.012  1.0136  1.3486 -1.0128
 1722SOL    HW3 6935   0.430   2.405   2.907  1.0118  2.1812 -0.7325
 1722SOL    MW4 6936   0.458   2.409   2.989  0.3724  0.5143 -0.4234
 1723SOL     OW 6937   0.423   2.661   3.154 -0.0731 -0.1406  0.0149
 1723SOL    HW2 6938   0.420   2.577   3.107  0.2722 -0.2255  0.1471
 1723SOL    HW3 6939   0.352   2.712   3.115 -1.0123 -0.9014  0.7071
 1723SOL    MW4 6940   0.413   2.657   3.143 -0.1515 -0.2520  0.1235
 1724SOL     OW 6941   0.643   2.792   3.037  0.2428 -0.5821  0.3115
 1724SOL    HW2 6942   0.561   2.760   3.075  0.2584 -0.0408  0.8127
 1724SOL    HW3 6943   0.640   2.887   3.049 -0.3930 -0.2255 -2.3331
 1724SOL    MW4 6944   0.632   2.800   3.044  0.1609 -0.4637  0.0288
 1725SOL     OW 6945   0.668   3.080   3.094 -0.7458  0.6010 -0.2295
 1725SOL    HW2 6946   0.678   3.083   3.189  0.5768 -1.9241 -0.2458
 1725SOL    HW3 6947   0.751   3.115   3.061 -0.2107 -0.8565 -0.4397
 1725SOL    MW4 6948   0.681   3.085   3.102 -0.5007  0.0756 -0.2594
 1726SOL     OW 6949   0.432   3.211   2.985 -0.3101 -0.1829  0.2709
 1726SOL    HW2 6950   0.498   3.152   3.023  0.0375 -0.8716 -1.3592
 1726SOL    HW3 6951   0.457   3.298   3.016  1.2124 -0.4766 -0.0978
 1726SOL    MW4 6952   0.444   3.215   2.994 -0.0634 -0.3126  0.0072
 1727SOL     OW 6953   0.463   3.474   3.072  0.1125 -0.4292 -0.4188
 1727SOL    HW2 6954   0.453   3.482   3.167  1.1467 -1.7759 -0.1824
 1727SOL    HW3 6955   0.541   3.527   3.052 -0.6715  0.6548 -0.6686
 1727SOL    MW4 6956   0.472   3.482   3.082  0.1455 -0.4640 -0.4208
 1728SOL     OW 6957   0.678   3.625   2.970 -0.0374  0.1034 -0.3554
 1728SOL    HW2 6958   0.764   3.595   3.001 -0.4500 -0.7309 -0.0102
 1728SOL    HW3 6959   0.665   3.708   3.015 -0.1111 -0.5404  0.8344
 1728SOL    MW4 6960   0.688   3.632   2.980 -0.1015 -0.0916 -0.1526
 1729SOL     OW 6961   0.667   3.865   3.084  0.3558  0.0282  0.7156
 1729SOL    HW2 6962   0.590   3.918   3.064  0.0945 -0.4538  0.4628
 1729SOL    HW3 6963   0.666   3.858   3.180 -0.4716 -0.8246  0.6473
 1729SOL    MW4 6964   0.657   3.871   3.094  0.2121 -0.1478  0.6731
 1730SOL     OW 6965   0.230   3.902   3.104 -0.0323 -0.4822  0.1752
 1730SOL    HW2 6966   0.242   3.875   3.195 -0.5078 -1.6334 -0.0871
 1730SOL    HW3 6967   0.232   3.820   3.054 -1.6009 -0.0462 -0.6411
 1730SOL    MW4 6968   0.232   3.888   3.109 -0.3020 -0.5767  0.0327
 1731SOL     OW 6969   0.224   4.384   3.027 -0.2905  0.0639 -0.1359
 1731SOL    HW2 6970   0.232   4.463   3.080  1.6336 -0.6944  0.7733
 1731SOL    HW3 6971   0.167   4.326   3.078  0.0205  0.0647  0.2184
 1731SOL    MW4 6972   0.218   4.387   3.041  0.0044 -0.0362  0.0308
 1732SOL     OW 6973   0.718   4.407   3.023  0.0093 -0.4970  0.6204
 1732SOL    HW2 6974   0.630   4.385   3.053 -0.2410 -0.3839 -0.0214
 1732SOL    HW3 6975   0.714   4.398   2.928  0.3184  0.8284  0.4721
 1732SOL    MW4 6976   0.706   4.403   3.014  0.0170 -0.3076  0.5162
 1733SOL     OW 6977   1.120   4.643   3.104  0.4562  0.0631 -0.3652
 1733SOL    HW2 6978   1.200   4.681   3.069  0.4582  0.4813  0.0833
 1733SOL    HW3 6979   1.049   4.693   3.064  0.4621  0.6292  0.3208
 1733SOL    MW4 6980   1.121   4.655   3.094  0.4570  0.1936 -0.2153
 1734SOL     OW 6981   0.912   0.140   2.980  0.2231 -0.0635  0.6028
 1734SOL    HW2 6982   0.922   0.216   3.037  1.3080  0.0474  0.2608
 1734SOL    HW3 6983   0.843   0.088   3.022  0.8605  0.1283  1.8962
 1734SOL    MW4 6984   0.904   0.143   2.993  0.4504 -0.0236  0.7284
 1735SOL     OW 6985   1.126   0.532   2.976 -0.3185 -0.1270  0.3191
 1735SOL    HW2 6986   1.184   0.470   3.022 -0.3371  0.3706  1.0281
 1735SOL    HW3 6987   1.147   0.520   2.884 -1.9485 -2.8465  0.2458
 1735SOL    MW4 6988   1.137   0.522   2.970 -0.5362 -0.4200  0.4032
 1736SOL     OW 6989   1.319   0.366   3.114 -0.1642  0.0359  0.2316
 1736SOL    HW2 6990   1.320   0.346   3.208 -1.0621  0.5733  0.3675
 1736SOL    HW3 6991   1.402   0.411   3.099 -0.6725  1.2983  1.0921
 1736SOL    MW4 6992   1.330   0.370   3.124 -0.3496  0.2733  0.3631
 1737SOL     OW 6993   1.087   0.770   3.110 -0.4623  0.3869  0.0764
 1737SOL    HW2 6994   1.069   0.750   3.202  1.1843 -0.1645  0.2940
 1737SOL    HW3 6995   1.101   0.684   3.069  1.7050  0.7922 -0.0614
 1737SOL    MW4 6996   1.086   0.756   3.117  0.0409  0.3676  0.0870
 1738SOL     OW 6997   0.911   0.929   2.975  0.0329  0.3133  0.2369
 1738SOL    HW2 6998   0.991   0.903   3.020  0.1592  0.8381  0.3162
 1738SOL    HW3 6999   0.851   0.855   2.988  0.9356 -0.6695 -0.9314
 1738SOL    MW4 7000   0.914   0.916   2.982  0.1687  0.2530  0.0932
 1739SOL     OW 7001   0.919   1.179   3.090  0.5809 -0.3655 -0.1259
 1739SOL    HW2 7002   0.995   1.225   3.053  0.9972 -1.2380 -0.3917
 1739SOL    HW3 7003   0.923   1.092   3.049  0.2680 -0.8910  0.9625
 1739SOL    MW4 7004   0.930   1.173   3.079  0.5946 -0.5500 -0.0172
 1740SOL     OW 7005   1.120   1.285   2.948 -0.0431 -0.1556  0.3481
 1740SOL    HW2 7006   1.195   1.235   2.979  0.9878  1.8650  1.1725
 1740SOL    HW3 7007   1.117   1.267   2.854 -0.5734 -2.8600  0.8206
 1740SOL    MW4 7008   1.129   1.276   2.939  0.0229 -0.2458  0.5193
 1741SOL     OW 7009   1.153   1.496   3.133  0.1202 -0.3531  0.2020
 1741SOL    HW2 7010   1.218   1.556   3.096 -1.3359  0.9147 -0.3578
 1741SOL    HW3 7011   1.143   1.428   3.067 -1.1048  0.9101 -0.9344
 1741SOL    MW4 7012   1.160   1.495   3.120 -0.2334 -0.0192 -0.0219
 1742SOL     OW 7013   0.927   1.652   3.035 -0.1849 -0.3636 -0.5984
 1742SOL    HW2 7014   1.008   1.604   3.044  0.2629  0.3994 -0.4806
 1742SOL    HW3 7015   0.861   1.598   3.079  0.4603 -0.4764  0.2284
 1742SOL    MW4 7016   0.929   1.639   3.042 -0.0407 -0.2778 -0.4737
 1743SOL     OW 7017   0.927   1.927   3.119 -0.0385  0.3527 -0.2894
 1743SOL    HW2 7018   0.925   1.927   3.215  2.3586  1.1751 -0.2135
 1743SOL    HW3 7019   0.924   1.834   3.095 -1.7193  0.1745  0.5198
 1743SOL    MW4 7020   0.926   1.915   3.129  0.0561  0.4377 -0.1726
 1744SOL     OW 7021   1.136   2.048   2.978  0.3161  0.1154  0.3959
 1744SOL    HW2 7022   1.061   2.007   3.020  0.0915  0.6269  0.5004
 1744SOL    HW3 7023   1.119   2.040   2.885 -0.1573  0.7665  0.4289
 1744SOL    MW4 7024   1.124   2.042   2.972  0.2240  0.2689  0.4139
 1745SOL     OW 7025   1.132   2.315   3.056  0.1947 -0.4210 -0.2489
 1745SOL    HW2 7026   1.049   2.355   3.031  0.4562 -0.0240 -0.4854
 1745SOL    HW3 7027   1.129   2.228   3.018  0.5107  0.1130 -1.5257
 1745SOL    MW4 7028   1.121   2.309   3.048  0.2708 -0.2983 -0.4487
 1746SOL     OW 7029   0.886   2.432   2.997  0.5210  0.1010  0.2737
 1746SOL    HW2 7030   0.863   2.514   3.041 -0.6729  0.0751 -0.2623
 1746SOL    HW3 7031   0.860   2.446   2.906 -0.8876 -1.3311  0.4364
 1746SOL    MW4 7032   0.880   2.445   2.990  0.1777 -0.0916  0.2244
 1747SOL     OW 7033   0.872   2.672   3.130 -0.1268 -0.2445  0.5561
 1747SOL    HW2 7034   0.879   2.679   3.225  1.0033  0.2778  0.4478
 1747SOL    HW3 7035   0.793   2.720   3.107  0.1309  0.4558  1.1351
 1747SOL    MW4 7036   0.863   2.679   3.139  0.0563 -0.0834  0.6182
 1748SOL     OW 7037   1.128   2.787   2.998  0.0997 -0.1275  0.0599
 1748SOL    HW2 7038   1.102   2.875   3.024  0.9127  0.1478 -0.0520
 1748SOL    HW3 7039   1.068   2.729   3.044  0.0557  0.4524  0.7277
 1748SOL    MW4 7040   1.117   2.791   3.007  0.2010 -0.0145  0.1330
 1749SOL     OW 7041   1.113   3.083   3.062 -0.0855  0.0643 -0.2806
 1749SOL    HW2 7042   1.193   3.133   3.047 -0.1854  0.4830  0.5103
 1749SOL    HW3 7043   1.042   3.142   3.037 -0.2631  0.8669  1.9475
 1749SOL    MW4 7044   1.114   3.097   3.057 -0.1220  0.2253  0.1175
 1750SOL     OW 7045   0.880   3.209   3.000 -0.3582  0.2519  0.3944
 1750SOL    HW2 7046   0.883   3.301   3.027  1.6551  0.2947  0.0627
 1750SOL    HW3 7047   0.885   3.212   2.905 -0.3226 -0.2012  0.3809
 1750SOL    MW4 7048   0.881   3.221   2.991 -0.0880  0.1979  0.3486
 1751SOL     OW 7049   0.896   3.486   3.064  0.7057  0.3301 -0.2085
 1751SOL    HW2 7050   0.977   3.517   3.024  0.4942  1.2011  0.0347
 1751SOL    HW3 7051   0.914   3.484   3.158  0.2391  1.1738 -0.0921
 1751SOL    MW4 7052   0.909   3.490   3.071  0.6162  0.5565 -0.1609
 1752SOL     OW 7053   1.141   3.614   2.983 -0.3280 -0.4052 -0.0973
 1752SOL    HW2 7054   1.230   3.588   3.007  0.2989  0.6016 -1.3292
 1752SOL    HW3 7055   1.132   3.703   3.016 -1.0591 -0.6748  0.4540
 1752SOL    MW4 7056   1.152   3.622   2.991 -0.3418 -0.3078 -0.1869
 1753SOL     OW 7057   1.128   3.876   3.073  0.2239 -0.1499  0.0028
 1753SOL    HW2 7058   1.141   3.895   3.165 -0.5678 -0.1149  0.1161
 1753SOL    HW3 7059   1.043   3.915   3.052 -2.1446 -4.6095  0.5596
 1753SOL    MW4 7060   1.118   3.884   3.082 -0.1930 -0.7336  0.0911
 1754SOL     OW 7061   0.888   4.011   3.003 -0.5222 -0.3228 -0.0309
 1754SOL    HW2 7062   0.819   3.949   3.028 -0.7933 -0.1466 -0.3472
 1754SOL    HW3 7063   0.893   4.003   2.908 -0.4128 -0.0095 -0.0501
 1754SOL    MW4 7064   0.879   4.001   2.994 -0.5435 -0.2584 -0.0751
 1755SOL     OW 7065   0.950   4.257   3.106  0.4484  0.2474 -0.3016
 1755SOL    HW2 7066   0.917   4.176   3.067  0.9999  0.5602 -1.4243
 1755SOL    HW3 7067   0.879   4.320   3.095 -0.4430 -0.3708  1.6154
 1755SOL    MW4 7068   0.936   4.255   3.099  0.4035  0.2069 -0.1969
 1756SOL     OW 7069   1.124   4.393   2.962 -0.1824 -0.3559 -0.4175
 1756SOL    HW2 7070   1.062   4.341   3.012 -0.3054  0.8682  0.7270
 1756SOL    HW3 7071   1.129   4.477   3.008  1.7341 -0.1581 -0.9146
 1756SOL    MW4 7072   1.117   4.398   2.975  0.0541 -0.1683 -0.3321
 1757SOL     OW 7073   1.811   0.151   2.975 -0.1581  0.0430 -0.3317
 1757SOL    HW2 7074   1.745   0.088   3.004  0.1362 -0.4239 -0.6603
 1757SOL    HW3 7075   1.822   0.133   2.881 -0.3385  0.8309 -0.5060
 1757SOL    MW4 7076   1.804   0.140   2.966 -0.1431  0.0854 -0.3982
 1758SOL     OW 7077   1.595   4.649   3.076  0.0082 -0.2269 -0.3693
 1758SOL    HW2 7078   1.597   4.620   3.167 -0.1029  0.2004 -0.2332
 1758SOL    HW3 7079   1.508   4.687   3.064  0.0003 -0.3346 -0.6716
 1758SOL    MW4 7080   1.584   4.650   3.086 -0.0075 -0.1850 -0.3910
 1759SOL     OW 7081   1.357   0.104   3.051  0.3911  0.1646  0.2653
 1759SOL    HW2 7082   1.343   0.196   3.073 -0.7744  0.5087 -1.7468
 1759SOL    HW3 7083   1.371   0.104   2.956  0.5499 -1.7144  0.2664
 1759SOL    MW4 7084   1.357   0.116   3.041  0.2583 -0.0379  0.0002
 1760SOL     OW 7085   1.562   0.501   3.018  0.6019  1.0360  0.1835
 1760SOL    HW2 7086   1.543   0.592   3.042  0.3856  1.2507 -0.7805
 1760SOL    HW3 7087   1.572   0.503   2.923 -1.5636 -0.3153 -0.1095
 1760SOL    MW4 7088   1.560   0.513   3.009  0.2875  0.8861  0.0176
 1761SOL     OW 7089   1.543   0.745   3.118  0.6517 -0.1080 -0.1669
 1761SOL    HW2 7090   1.529   0.731   3.211  1.5686  0.4130  0.0538
 1761SOL    HW3 7091   1.469   0.800   3.091 -0.6397 -1.7967 -0.1571
 1761SOL    MW4 7092   1.531   0.750   3.127  0.6022 -0.2621 -0.1366
 1762SOL     OW 7093   1.320   0.880   3.012  0.1316 -0.2600 -0.3548
 1762SOL    HW2 7094   1.317   0.971   3.042 -0.8922  0.0783 -1.4340
 1762SOL    HW3 7095   1.232   0.846   3.030 -0.1164 -0.4132 -1.8440
 1762SOL    MW4 7096   1.308   0.888   3.019 -0.0362 -0.2356 -0.6938
 1763SOL     OW 7097   1.325   1.165   3.096 -0.5279  0.3037 -0.2963
 1763SOL    HW2 7098   1.325   1.168   3.192  0.6405 -2.6494 -0.1559
 1763SOL    HW3 7099   1.408   1.207   3.071 -0.7657  0.9422 -0.0265
 1763SOL    MW4 7100   1.336   1.171   3.105 -0.4052 -0.0018 -0.2420
 1764SOL     OW 7101   1.580   1.285   3.019  0.0901 -0.1087 -0.2476
 1764SOL    HW2 7102   1.659   1.240   3.048 -0.6900 -0.8223  0.8305
 1764SOL    HW3 7103   1.594   1.376   3.044  0.0743 -0.4463  1.0511
 1764SOL    MW4 7104   1.592   1.291   3.027 -0.0149 -0.2475  0.0663
 1765SOL     OW 7105   1.558   1.560   3.120 -0.2280  0.0235  0.0634
 1765SOL    HW2 7106   1.629   1.617   3.089 -0.3136 -0.1971 -0.5436
 1765SOL    HW3 7107   1.481   1.591   3.072 -0.2284 -0.7545 -0.4380
 1765SOL    MW4 7108   1.557   1.572   3.110 -0.2394 -0.1081 -0.0827
 1766SOL     OW 7109   1.318   1.673   3.027  0.0906 -0.3625  0.3070
 1766SOL    HW2 7110   1.350   1.761   3.048  1.3017 -0.5198 -0.7993
 1766SOL    HW3 7111   1.299   1.676   2.933  0.3296 -1.3390  0.2209
 1766SOL    MW4 7112   1.320   1.685   3.017  0.2819 -0.5121  0.1500
 1767SOL     OW 7113   1.370   1.940   3.091  0.1875 -0.2840 -0.3237
 1767SOL    HW2 7114   1.358   1.938   3.186 -0.1409 -1.3472 -0.3776
 1767SOL    HW3 7115   1.296   1.992   3.059 -0.9046 -1.6992 -0.1583
 1767SOL    MW4 7116   1.359   1.947   3.100  0.0000 -0.6111 -0.3088
 1768SOL     OW 7117   1.583   2.100   2.970 -0.0144 -0.5087  0.0609
 1768SOL    HW2 7118   1.507   2.050   2.999  0.8735 -2.6487 -1.1734
 1768SOL    HW3 7119   1.582   2.091   2.874 -0.5644  2.9613 -0.3589
 1768SOL    MW4 7120   1.573   2.092   2.961  0.0300 -0.3333 -0.1574
 1769SOL     OW 7121   1.566   2.354   3.108 -0.4570 -0.1500 -0.2443
 1769SOL    HW2 7122   1.489   2.406   3.085 -0.0215  0.7508  0.3046
 1769SOL    HW3 7123   1.563   2.279   3.049 -0.7892  0.7874 -1.4348
 1769SOL    MW4 7124   1.556   2.351   3.097 -0.4433  0.0925 -0.3290
 1770SOL     OW 7125   1.346   2.495   3.024 -0.2715 -0.5846  0.0185
 1770SOL    HW2 7126   1.273   2.437   3.048  1.3921 -3.3874 -1.4653
 1770SOL    HW3 7127   1.356   2.482   2.929  1.8508  0.1154  0.1365
 1770SOL    MW4 7128   1.337   2.485   3.014  0.2279 -0.8616 -0.1619
 1771SOL     OW 7129   1.362   2.733   3.146  0.2390 -0.0026  0.0489
 1771SOL    HW2 7130   1.355   2.647   3.104 -0.5608  0.0425  0.0980
 1771SOL    HW3 7131   1.303   2.789   3.097 -0.5922  0.0857  1.1474
 1771SOL    MW4 7132   1.354   2.729   3.134  0.0238  0.0153  0.2003
 1772SOL     OW 7133   1.598   2.834   2.981 -0.5891  0.4990 -0.0599
 1772SOL    HW2 7134   1.678   2.790   3.008 -0.6102  0.2201 -0.4528
 1772SOL    HW3 7135   1.528   2.782   3.021 -0.5500  1.1533  0.8744
 1772SOL    MW4 7136   1.599   2.821   2.990 -0.5869  0.5484  0.0117
 1773SOL     OW 7137   1.573   3.084   3.089 -0.9142  0.0772 -0.1392
 1773SOL    HW2 7138   1.578   3.065   3.183  2.2015  1.3642  0.0157
 1773SOL    HW3 7139   1.598   3.003   3.046  0.5076  0.2793  0.2567
 1773SOL    MW4 7140   1.577   3.071   3.096 -0.3155  0.2739 -0.0665
 1774SOL     OW 7141   1.346   3.227   2.998  0.5743 -0.0228 -0.0649
 1774SOL    HW2 7142   1.415   3.171   3.035  0.9084 -0.6773 -1.6293
 1774SOL    HW3 7143   1.373   3.241   2.907 -0.2478  1.5220 -0.0788
 1774SOL    MW4 7144   1.359   3.221   2.991  0.5099  0.0949 -0.2732
 1775SOL     OW 7145   1.384   3.501   3.068  0.4161 -0.2124  0.5537
 1775SOL    HW2 7146   1.382   3.502   3.163 -1.4052 -0.1027  0.5338
 1775SOL    HW3 7147   1.366   3.410   3.044 -0.0102 -0.0741  0.3222
 1775SOL    MW4 7148   1.381   3.489   3.077  0.1196 -0.1798  0.5205
 1776SOL     OW 7149   1.598   3.631   2.949  0.2053 -0.1866 -0.7708
 1776SOL    HW2 7150   1.518   3.594   2.986  0.0833 -0.0945 -0.9435
 1776SOL    HW3 7151   1.588   3.621   2.855 -0.3307  1.3012 -0.8828
 1776SOL    MW4 7152   1.586   3.625   2.942  0.1185  0.0219 -0.8085
 1777SOL     OW 7153   1.586   3.902   3.089 -0.1235  0.4229 -0.1771
 1777SOL    HW2 7154   1.661   3.947   3.051  0.7093  1.0601  2.1067
 1777SOL    HW3 7155   1.591   3.813   3.055  1.0923  0.7327 -0.8356
 1777SOL    MW4 7156   1.596   3.896   3.080  0.1466  0.5476  0.0372
 1778SOL     OW 7157   1.343   3.998   2.970  0.0034  0.1035  0.0866
 1778SOL    HW2 7158   1.415   3.964   3.023  0.9120  0.1559 -1.0942
 1778SOL    HW3 7159   1.267   3.947   2.998  0.8129 -1.0652  0.2240
 1778SOL    MW4 7160   1.343   3.987   2.980  0.2301 -0.0436 -0.0508
 1779SOL     OW 7161   1.379   4.251   3.075 -0.0360 -0.1049 -0.3300
 1779SOL    HW2 7162   1.362   4.169   3.028  2.3673 -0.5646 -0.4392
 1779SOL    HW3 7163   1.307   4.308   3.050 -1.4784 -2.0085 -0.6558
 1779SOL    MW4 7164   1.367   4.247   3.066  0.0908 -0.4168 -0.3874
 1780SOL     OW 7165   1.589   4.398   2.966 -0.1889  0.3021  0.1248
 1780SOL    HW2 7166   1.576   4.491   2.985  1.4984  0.3088  1.3185
 1780SOL    HW3 7167   1.521   4.354   3.017 -1.5497  0.8951 -1.1086
 1780SOL    MW4 7168   1.578   4.404   2.975 -0.1458  0.3815  0.1197
 1781SOL     OW 7169   2.034   4.383   3.007 -0.1377  0.1181 -0.2512
 1781SOL    HW2 7170   2.029   4.476   3.028 -3.3715  0.2672 -1.3405
 1781SOL    HW3 7171   2.057   4.380   2.914  0.8020 -0.1983 -0.0125
 1781SOL    MW4 7172   2.036   4.395   2.997 -0.4404  0.0963 -0.3633
 1782SOL     OW 7173   2.012   4.652   3.077  0.1335  0.0757  0.1691
 1782SOL    HW2 7174   2.010   4.661   3.173  0.7362  2.3625 -0.0005
 1782SOL    HW3 7175   1.946   4.714   3.046  0.1162 -0.4778 -0.8929
 1782SOL    MW4 7176   2.003   4.662   3.086  0.2108  0.3047  0.0067
 1783SOL     OW 7177   1.783   0.389   3.136 -0.5152  0.1904  0.0602
 1783SOL    HW2 7178   1.770   0.310   3.085  1.4073  0.0609 -0.2373
 1783SOL    HW3 7179   1.706   0.443   3.116 -1.8614 -1.5754  0.2965
 1783SOL    MW4 7180   1.771   0.386   3.127 -0.4392 -0.0597  0.0522
 1784SOL     OW 7181   2.024   0.534   3.058  0.1385  0.1718  0.0138
 1784SOL    HW2 7182   1.945   0.482   3.073 -0.5073  0.8806 -0.9004
 1784SOL    HW3 7183   2.030   0.543   2.963  0.8248  0.8800  0.1154
 1784SOL    MW4 7184   2.015   0.528   3.047  0.1438  0.3587 -0.0935
 1785SOL     OW 7185   2.000   0.792   3.152 -0.3769 -0.3985  0.2985
 1785SOL    HW2 7186   1.910   0.814   3.128 -0.0007  0.2704 -0.5168
 1785SOL    HW3 7187   2.017   0.709   3.108 -0.5967 -0.5195  0.4430
 1785SOL    MW4 7188   1.991   0.784   3.143 -0.3562 -0.3262  0.2098
 1786SOL     OW 7189   1.778   0.876   3.035  0.5683 -0.6962 -0.3412
 1786SOL    HW2 7190   1.698   0.826   3.051 -0.9806  2.0324  0.7532
 1786SOL    HW3 7191   1.794   0.867   2.941 -1.1074 -1.1658 -0.5945
 1786SOL    MW4 7192   1.770   0.868   3.024  0.1428 -0.3982 -0.2303
 1787SOL     OW 7193   1.809   1.134   3.134  0.1408 -0.0949  0.4653
 1787SOL    HW2 7194   1.795   1.131   3.229  0.5125  0.9845  0.5607
 1787SOL    HW3 7195   1.793   1.045   3.105 -0.2790 -0.3690  1.5054
 1787SOL    MW4 7196   1.805   1.122   3.143  0.1345  0.0114  0.6154
 1788SOL     OW 7197   2.025   1.259   3.037 -0.1355 -0.1391 -0.2144
 1788SOL    HW2 7198   2.107   1.214   3.060 -0.5871 -0.6767  0.3753
 1788SOL    HW3 7199   1.956   1.201   3.070 -0.7314  1.0066  0.5805
 1788SOL    MW4 7200   2.027   1.245   3.044 -0.2739 -0.0589 -0.0317
 1789SOL     OW 7201   2.006   1.549   3.137 -0.1956 -0.2591  0.1336
 1789SOL    HW2 7202   2.000   1.555   3.233  1.7720 -0.0189  0.2486
 1789SOL    HW3 7203   2.016   1.456   3.120 -2.9497 -0.5835 -0.0191
 1789SOL    MW4 7204   2.006   1.538   3.148 -0.2992 -0.2700  0.1285
 1790SOL     OW 7205   1.810   1.698   3.004 -0.3125 -0.2058  0.0599
 1790SOL    HW2 7206   1.806   1.783   3.047 -0.7810 -0.7273  1.0673
 1790SOL    HW3 7207   1.871   1.647   3.057 -0.3320 -0.6256 -0.3161
 1790SOL    MW4 7208   1.817   1.702   3.016 -0.3769 -0.3301  0.1433
 1791SOL     OW 7209   1.810   1.975   3.100 -0.3412 -0.3396  0.4663
 1791SOL    HW2 7210   1.898   2.005   3.075 -0.6776  0.1466 -0.1569
 1791SOL    HW3 7211   1.751   2.025   3.043 -0.9253 -2.2966 -0.6757
 1791SOL    MW4 7212   1.814   1.986   3.089 -0.4628 -0.5337  0.2337
 1792SOL     OW 7213   2.054   2.047   3.004 -0.3325 -0.3523  0.6250
 1792SOL    HW2 7214   2.116   2.005   3.065 -0.3722  0.2352  1.0784
 1792SOL    HW3 7215   2.051   2.138   3.033 -0.6856 -0.1667  0.0022
 1792SOL    MW4 7216   2.062   2.053   3.016 -0.3843 -0.2503  0.6030
 1793SOL     OW 7217   2.031   2.304   3.101 -0.0780 -0.1078 -0.4612
 1793SOL    HW2 7218   2.100   2.358   3.063 -0.6922 -0.3721 -1.9836
 1793SOL    HW3 7219   1.950   2.345   3.073 -0.5613  0.0422  1.0918
 1793SOL    MW4 7220   2.030   2.317   3.092 -0.2227 -0.1225 -0.4573
 1794SOL     OW 7221   1.820   2.448   3.018 -0.2210  0.3324  0.2542
 1794SOL    HW2 7222   1.847   2.533   3.054  1.1349  0.1131 -0.2067
 1794SOL    HW3 7223   1.746   2.421   3.072  0.4616  0.9815  1.5383
 1794SOL    MW4 7224   1.814   2.456   3.029  0.0480  0.3893  0.3629
 1795SOL     OW 7225   1.847   2.701   3.115 -0.0437  0.0008  0.0046
 1795SOL    HW2 7226   1.825   2.723   3.205  1.7062  1.2177  0.1530
 1795SOL    HW3 7227   1.921   2.758   3.093  0.0061 -0.7714 -1.9634
 1795SOL    MW4 7228   1.854   2.711   3.124  0.1938  0.0596 -0.2356
 1796SOL     OW 7229   2.067   2.825   3.008  0.0231 -0.1583  0.0587
 1796SOL    HW2 7230   2.060   2.916   3.039  1.3355  0.6166 -1.8087
 1796SOL    HW3 7231   2.055   2.832   2.913 -1.5934 -2.1735  0.0825
 1796SOL    MW4 7232   2.064   2.838   3.000 -0.0169 -0.3219 -0.1841
 1797SOL     OW 7233   2.030   3.085   3.094  0.3312 -0.2196  0.1067
 1797SOL    HW2 7234   2.027   3.078   3.189 -1.2323  1.5522  0.2297
 1797SOL    HW3 7235   1.951   3.134   3.071  1.4136  0.6540 -1.9767
 1797SOL    MW4 7236   2.019   3.091   3.104  0.2675  0.1297 -0.1521
 1798SOL     OW 7237   1.801   3.228   3.047  0.2756  0.1702 -0.2297
 1798SOL    HW2 7238   1.721   3.180   3.068  0.6403 -0.2246  0.2675
 1798SOL    HW3 7239   1.811   3.217   2.953 -1.4269  2.0261 -0.6824
 1798SOL    MW4 7240   1.791   3.220   3.037  0.0989  0.3629 -0.2239
 1799SOL     OW 7241   1.788   3.502   3.096 -0.5437  0.3281  0.5134
 1799SOL    HW2 7242   1.763   3.411   3.081  0.7466  0.0645 -0.1902
 1799SOL    HW3 7243   1.725   3.553   3.046 -1.0165 -0.2052  0.5609
 1799SOL    MW4 7244   1.777   3.496   3.087 -0.4359  0.2232  0.4268
 1800SOL     OW 7245   2.021   3.595   2.941  0.2539  0.8789  0.1791
 1800SOL    HW2 7246   2.030   3.687   2.969 -1.7807  1.7821 -1.9454
 1800SOL    HW3 7247   1.935   3.569   2.974 -1.0476  1.1509 -2.8605
 1800SOL    MW4 7248   2.011   3.604   2.949 -0.1862  1.0340 -0.5021
 1801SOL     OW 7249   2.047   3.850   3.063 -0.4562  0.0057 -0.1337
 1801SOL    HW2 7250   2.051   3.849   3.159 -0.6763  0.2925 -0.1169
 1801SOL    HW3 7251   1.977   3.913   3.044  0.8415  1.3452 -0.5183
 1801SOL    MW4 7252   2.038   3.858   3.073 -0.3142  0.2205 -0.1824
 1802SOL     OW 7253   1.828   4.022   3.004 -0.3741  0.6743 -0.9021
 1802SOL    HW2 7254   1.825   4.115   3.025  0.3150  0.6236 -0.5472
 1802SOL    HW3 7255   1.810   4.018   2.911  1.0257  1.2931 -1.2103
 1802SOL    MW4 7256   1.825   4.034   2.995 -0.0985  0.7491 -0.8962
 1803SOL     OW 7257   1.807   4.273   3.097 -0.0896 -0.3788  0.1988
 1803SOL    HW2 7258   1.881   4.323   3.061  0.4173 -1.8409 -0.8434
 1803SOL    HW3 7259   1.730   4.311   3.054  0.3213 -0.6697 -0.8207
 1803SOL    MW4 7260   1.806   4.285   3.086  0.0315 -0.6104 -0.0730
 1804SOL     OW 7261   2.236   4.220   3.120  0.4558 -0.0462 -0.1100
 1804SOL    HW2 7262   2.154   4.252   3.083  0.0439  0.6783  1.3793
 1804SOL    HW3 7263   2.246   4.132   3.082 -0.7075  0.0860 -0.7574
 1804SOL    MW4 7264   2.226   4.212   3.110  0.2480  0.0672  0.0010
 1805SOL     OW 7265   2.466   4.650   3.103  0.5865 -0.0922 -0.7296
 1805SOL    HW2 7266   2.474   4.563   3.065  1.4896 -0.0193 -0.7284
 1805SOL    HW3 7267   2.382   4.683   3.071  0.0895 -1.0822 -0.4660
 1805SOL    MW4 7268   2.456   4.643   3.094  0.6402 -0.2131 -0.6948
 1806SOL     OW 7269   2.241   0.095   2.989 -0.3985 -0.4689  0.1717
 1806SOL    HW2 7270   2.237   0.184   3.025  1.3928 -0.2056 -0.2168
 1806SOL    HW3 7271   2.159   0.054   3.017 -1.2306  1.2877  0.3906
 1806SOL    MW4 7272   2.230   0.102   2.997 -0.2720 -0.2024  0.1493
 1807SOL     OW 7273   2.233   0.361   3.105  0.1818 -0.0026 -0.0003
 1807SOL    HW2 7274   2.232   0.359   3.200  0.1934 -0.2721 -0.0049
 1807SOL    HW3 7275   2.160   0.418   3.081 -0.7380 -1.1004  0.1400
 1807SOL    MW4 7276   2.223   0.368   3.114  0.0620 -0.1830  0.0172
 1808SOL     OW 7277   2.449   0.531   3.056  0.1468 -0.4883 -0.1203
 1808SOL    HW2 7278   2.373   0.483   3.089 -0.5725  0.0770 -0.9502
 1808SOL    HW3 7279   2.449   0.515   2.962  0.1278  0.8161 -0.3520
 1808SOL    MW4 7280   2.439   0.523   3.048  0.0496 -0.2416 -0.2601
 1809SOL     OW 7281   2.473   0.785   3.122  0.3898  0.2011  0.1032
 1809SOL    HW2 7282   2.553   0.822   3.085  0.7736  0.7692  1.4968
 1809SOL    HW3 7283   2.484   0.690   3.114  1.3392  0.2703  0.6171
 1809SOL    MW4 7284   2.485   0.777   3.116  0.5658  0.2851  0.3550
 1810SOL     OW 7285   2.209   0.888   3.000  0.2181 -0.1801  0.0746
 1810SOL    HW2 7286   2.272   0.842   3.056  0.6868  1.7179  1.1640
 1810SOL    HW3 7287   2.131   0.897   3.054  0.1402  0.3099 -0.1162
 1810SOL    MW4 7288   2.207   0.884   3.015  0.2699  0.1349  0.1936
 1811SOL     OW 7289   2.276   1.148   3.081 -0.1344 -0.2801  0.3412
 1811SOL    HW2 7290   2.276   1.137   3.176 -0.7787 -0.0308  0.3706
 1811SOL    HW3 7291   2.259   1.060   3.047  0.2146 -0.3923  0.4529
 1811SOL    MW4 7292   2.274   1.135   3.089 -0.1733 -0.2620  0.3598
 1812SOL     OW 7293   2.496   1.287   3.013  0.0470  0.5995  0.1523
 1812SOL    HW2 7294   2.418   1.236   3.037 -0.1306  0.6112 -0.3880
 1812SOL    HW3 7295   2.491   1.295   2.918  0.5907  0.7962  0.1377
 1812SOL    MW4 7296   2.485   1.281   3.003  0.0951  0.6270  0.0794
 1813SOL     OW 7297   2.489   1.550   3.125  0.7402 -0.2716 -0.4568
 1813SOL    HW2 7298   2.410   1.598   3.102  0.4766 -1.3950 -1.9701
 1813SOL    HW3 7299   2.483   1.468   3.075  2.5994 -0.5990 -0.1847
 1813SOL    MW4 7300   2.477   1.545   3.116  0.9506 -0.4629 -0.6208
 1814SOL     OW 7301   2.254   1.659   3.032 -0.1026 -0.0495  0.1656
 1814SOL    HW2 7302   2.174   1.622   3.069  0.2125 -0.3638  0.5361
 1814SOL    HW3 7303   2.248   1.641   2.938 -1.0787  1.0710  0.0034
 1814SOL    MW4 7304   2.242   1.652   3.025 -0.1900  0.0569  0.1931
 1815SOL     OW 7305   2.278   1.926   3.143 -0.1477  0.4120 -0.2998
 1815SOL    HW2 7306   2.338   1.989   3.102  1.8993 -0.6776  0.9252
 1815SOL    HW3 7307   2.284   1.848   3.089  0.0299  0.0788  0.2037
 1815SOL    MW4 7308   2.287   1.924   3.130  0.1457  0.2244 -0.0715
 1816SOL     OW 7309   2.467   2.098   3.029 -0.5444  0.3799  0.0839
 1816SOL    HW2 7310   2.545   2.056   3.066 -0.3680  1.6792  1.2486
 1816SOL    HW3 7311   2.473   2.081   2.935  0.2280 -1.0230  0.3627
 1816SOL    MW4 7312   2.478   2.091   3.022 -0.4191  0.3662  0.2742
 1817SOL     OW 7313   2.491   2.354   3.119 -0.1413  0.1040  0.4191
 1817SOL    HW2 7314   2.477   2.337   3.212 -0.1479 -1.6121  0.1155
 1817SOL    HW3 7315   2.480   2.269   3.077  0.9578  0.6578 -1.0362
 1817SOL    MW4 7316   2.487   2.341   3.125  0.0031 -0.0494  0.1872
 1818SOL     OW 7317   2.261   2.431   2.976  0.3873  0.0249 -0.5033
 1818SOL    HW2 7318   2.249   2.518   3.015  0.6931  0.2366 -0.8884
 1818SOL    HW3 7319   2.327   2.390   3.031 -1.4467 -0.8439  1.1285
 1818SOL    MW4 7320   2.268   2.437   2.989  0.1857 -0.0615 -0.3388
 1819SOL     OW 7321   2.286   2.692   3.111  0.0858 -0.4429  0.3430
 1819SOL    HW2 7322   2.368   2.732   3.082 -0.6454  0.1780 -0.8997
 1819SOL    HW3 7323   2.218   2.752   3.082 -0.9027 -1.5988  0.2300
 1819SOL    MW4 7324   2.288   2.705   3.104 -0.1411 -0.5133  0.1640
 1820SOL     OW 7325   2.507   2.817   2.986  0.0991 -0.5147 -0.0467
 1820SOL    HW2 7326   2.515   2.902   3.028 -0.3363 -0.7990  0.6110
 1820SOL    HW3 7327   2.489   2.838   2.894 -0.2055  0.1020  0.1482
 1820SOL    MW4 7328   2.506   2.831   2.979  0.0014 -0.4706  0.0658
 1821SOL     OW 7329   2.516   3.077   3.100  0.3427  0.0988 -0.5104
 1821SOL    HW2 7330   2.577   3.140   3.062 -0.1080 -0.2504 -1.8441
 1821SOL    HW3 7331   2.430   3.107   3.071  0.0464 -0.5612 -0.3202
 1821SOL    MW4 7332   2.512   3.089   3.092  0.2441 -0.0343 -0.6614
 1822SOL     OW 7333   2.267   3.203   2.996  0.4720  0.1381  0.2655
 1822SOL    HW2 7334   2.277   3.295   3.020 -0.1663  0.9634 -2.4931
 1822SOL    HW3 7335   2.189   3.174   3.045  0.3014  1.2313  0.6571
 1822SOL    MW4 7336   2.258   3.211   3.006  0.3653  0.3912 -0.0470
 1823SOL     OW 7337   2.239   3.463   3.055  0.6104 -0.0248 -0.1185
 1823SOL    HW2 7338   2.311   3.500   3.004  0.7251 -0.9212 -0.6238
 1823SOL    HW3 7339   2.160   3.504   3.019  0.8174  0.4416 -0.0336
 1823SOL    MW4 7340   2.238   3.473   3.043  0.6530 -0.0815 -0.1738
 1824SOL     OW 7341   2.454   3.592   2.954  0.6460 -0.3724  0.2407
 1824SOL    HW2 7342   2.529   3.541   2.983  0.2031 -1.2586 -0.1586
 1824SOL    HW3 7343   2.463   3.676   2.999  0.7546 -1.2041  1.8284
 1824SOL    MW4 7344   2.465   3.597   2.964  0.6020 -0.5989  0.3977
 1825SOL     OW 7345   2.491   3.839   3.074 -0.1528 -0.5040  0.7929
 1825SOL    HW2 7346   2.494   3.848   3.169  0.4700 -0.4947  0.7745
 1825SOL    HW3 7347   2.574   3.876   3.043 -1.3134  1.6073  0.0784
 1825SOL    MW4 7348   2.503   3.845   3.082 -0.2234 -0.2241  0.6962
 1826SOL     OW 7349   2.277   3.987   2.981  0.2989  0.1413  0.3119
 1826SOL    HW2 7350   2.357   3.937   2.995  0.4101  0.2763  0.1542
 1826SOL    HW3 7351   2.207   3.928   3.010  0.5419  0.4984  1.6571
 1826SOL    MW4 7352   2.278   3.972   2.987  0.3455  0.2060  0.4685
 1827SOL     OW 7353   2.243   4.266   3.396  0.6344  0.4101 -0.1764
 1827SOL    HW2 7354   2.241   4.258   3.301 -0.3361 -0.6997 -0.0604
 1827SOL    HW3 7355   2.167   4.320   3.418  0.7526  0.5094  0.0002
 1827SOL    MW4 7356   2.233   4.272   3.386  0.5219  0.2766 -0.1378
 1828SOL     OW 7357   2.499   4.368   3.019  0.2046 -0.1745  0.2207
 1828SOL    HW2 7358   2.420   4.325   3.051  1.5662 -1.9951  1.2656
 1828SOL    HW3 7359   2.493   4.363   2.924 -0.4555 -1.1954  0.3148
 1828SOL    MW4 7360   2.488   4.362   3.011  0.2973 -0.5493  0.3710
 1829SOL     OW 7361   2.898   4.660   3.147 -0.3087 -0.2560 -0.2547
 1829SOL    HW2 7362   2.972   4.709   3.112  0.9706 -0.9951  1.3826
 1829SOL    HW3 7363   2.909   4.572   3.113  0.8764 -0.9486  1.8850
 1829SOL    MW4 7364   2.909   4.655   3.138  0.0165 -0.4449  0.2437
 1830SOL     OW 7365   2.688   0.129   3.010 -0.0834  0.0821 -0.2745
 1830SOL    HW2 7366   2.761   0.083   3.052 -0.1297  2.0542  2.0571
 1830SOL    HW3 7367   2.610   0.079   3.036  0.0762  0.1703  0.3735
 1830SOL    MW4 7368   2.687   0.116   3.019 -0.0684  0.3539  0.1185
 1831SOL     OW 7369   2.691   0.389   3.125 -0.1488  0.5349 -0.3223
 1831SOL    HW2 7370   2.681   0.304   3.083 -1.7459  0.4050  0.2842
 1831SOL    HW3 7371   2.612   0.438   3.099  0.1282  1.3655  0.3858
 1831SOL    MW4 7372   2.679   0.384   3.116 -0.3228  0.6273 -0.1488
 1832SOL     OW 7373   2.901   0.520   3.052 -0.0264  0.3785 -0.0375
 1832SOL    HW2 7374   2.820   0.478   3.081  0.2513 -0.7591 -0.8676
 1832SOL    HW3 7375   2.898   0.514   2.956  1.4878 -0.5485 -0.0414
 1832SOL    MW4 7376   2.890   0.513   3.043  0.2100  0.1062 -0.1478
 1833SOL     OW 7377   2.950   0.794   3.119 -0.3133  0.7897  0.3277
 1833SOL    HW2 7378   2.963   0.789   3.214 -0.5599  0.1448  0.3363
 1833SOL    HW3 7379   2.919   0.706   3.095 -1.6703  1.3767 -0.1222
 1833SOL    MW4 7380   2.947   0.781   3.129 -0.5248  0.7820  0.2694
 1834SOL     OW 7381   2.710   0.901   3.014 -0.0849  0.2485  0.1205
 1834SOL    HW2 7382   2.699   0.985   3.058  1.4491  1.6173 -2.0433
 1834SOL    HW3 7383   2.792   0.866   3.048  0.5055  0.7643 -0.7547
 1834SOL    MW4 7384   2.719   0.907   3.024  0.1955  0.4972 -0.2804
 1835SOL     OW 7385   2.701   1.146   3.122 -0.3173 -0.8304  0.4574
 1835SOL    HW2 7386   2.627   1.181   3.072  0.4054 -0.4484 -0.3541
 1835SOL    HW3 7387   2.774   1.204   3.101  0.2279 -1.2351  1.2156
 1835SOL    MW4 7388   2.700   1.159   3.113 -0.1502 -0.8333  0.4501
 1836SOL     OW 7389   2.917   1.282   3.008  0.4928  0.1915 -0.4110
 1836SOL    HW2 7390   3.006   1.256   3.032  0.0611  1.1378  2.4189
 1836SOL    HW3 7391   2.913   1.376   3.028 -1.1422  0.1474 -0.4593
 1836SOL    MW4 7392   2.928   1.291   3.014  0.2201  0.3105 -0.0439
 1837SOL     OW 7393   2.924   1.540   3.118  0.1366 -0.4761  0.2211
 1837SOL    HW2 7394   2.925   1.529   3.213  0.0697  0.3963  0.3340
 1837SOL    HW3 7395   2.996   1.601   3.101 -0.5795  0.2677 -0.1646
 1837SOL    MW4 7396   2.934   1.547   3.129  0.0331 -0.2629  0.1848
 1838SOL     OW 7397   2.703   1.674   3.014  0.0736  0.1084 -0.0387
 1838SOL    HW2 7398   2.778   1.633   3.057 -1.5812 -0.7811  2.0676
 1838SOL    HW3 7399   2.626   1.631   3.053 -1.5785  2.1122 -1.0007
 1838SOL    MW4 7400   2.702   1.663   3.025 -0.3629  0.2553  0.1121
 1839SOL     OW 7401   2.682   1.934   3.114 -0.1209  0.2647 -0.3189
 1839SOL    HW2 7402   2.766   1.967   3.081 -0.1546  0.8186  0.1515
 1839SOL    HW3 7403   2.679   1.843   3.084  0.7996  0.1446 -0.0705
 1839SOL    MW4 7404   2.693   1.926   3.106 -0.0041  0.3219 -0.2241
 1840SOL     OW 7405   2.929   2.036   3.033  0.1036 -0.2939  0.4307
 1840SOL    HW2 7406   2.910   2.122   3.072 -0.0051 -0.7839  1.4869
 1840SOL    HW3 7407   2.925   2.051   2.939  0.7515  1.0225  0.5890
 1840SOL    MW4 7408   2.926   2.049   3.026  0.1748 -0.1848  0.5910
 1841SOL     OW 7409   2.897   2.292   3.110  0.1444 -0.0988  0.2440
 1841SOL    HW2 7410   2.972   2.335   3.071  0.1191 -0.4272 -0.1758
 1841SOL    HW3 7411   2.821   2.337   3.072  0.1090 -0.8949 -0.6543
 1841SOL    MW4 7412   2.897   2.303   3.100  0.1364 -0.2472  0.0701
 1842SOL     OW 7413   2.703   2.429   2.957 -0.3452 -0.2937 -0.4555
 1842SOL    HW2 7414   2.727   2.520   2.976  0.3114  0.4346 -4.2798
 1842SOL    HW3 7415   2.635   2.408   3.021  0.8807  2.1828  1.7852
 1842SOL    MW4 7416   2.697   2.438   2.968 -0.0968  0.1290 -0.6645
 1843SOL     OW 7417   2.730   2.667   3.078  0.0212  0.1390 -0.3661
 1843SOL    HW2 7418   2.745   2.678   3.172  1.0137 -0.3023 -0.4595
 1843SOL    HW3 7419   2.648   2.712   3.061 -0.5966 -0.5020  0.8667
 1843SOL    MW4 7420   2.721   2.675   3.089  0.0706 -0.0036 -0.2155
 1844SOL     OW 7421   2.930   2.840   2.978 -0.0208 -0.0086  0.3095
 1844SOL    HW2 7422   3.012   2.816   3.021  0.4086  1.3170  0.2664
 1844SOL    HW3 7423   2.864   2.785   3.020  0.9979 -1.6924 -0.2264
 1844SOL    MW4 7424   2.932   2.830   2.989  0.1698 -0.0560  0.2334
 1845SOL     OW 7425   2.893   3.078   3.122 -0.1088 -0.4473  0.0159
 1845SOL    HW2 7426   2.821   3.130   3.086  0.2049 -0.9012 -1.2977
 1845SOL    HW3 7427   2.895   2.999   3.069  1.2300 -0.5276  0.1637
 1845SOL    MW4 7428   2.884   3.075   3.110  0.1094 -0.5176 -0.1380
 1846SOL     OW 7429   2.702   3.221   2.968  0.3556  0.2095  0.3375
 1846SOL    HW2 7430   2.699   3.312   2.997 -1.1705  0.3891 -0.3142
 1846SOL    HW3 7431   2.683   3.225   2.874  1.5487 -0.6785  0.0396
 1846SOL    MW4 7432   2.699   3.233   2.959  0.3116  0.1159  0.2124
 1847SOL     OW 7433   2.695   3.477   3.050 -0.5261  0.0618 -0.1124
 1847SOL    HW2 7434   2.776   3.521   3.026 -0.9319  0.3545 -0.9540
 1847SOL    HW3 7435   2.697   3.474   3.146  0.0538  0.8546 -0.0939
 1847SOL    MW4 7436   2.706   3.482   3.060 -0.5033  0.2050 -0.2210
 1848SOL     OW 7437   2.947   3.580   2.976  0.3039  0.0351 -0.6360
 1848SOL    HW2 7438   3.002   3.533   3.038  0.4334  1.6730  0.5398
 1848SOL    HW3 7439   2.951   3.671   3.006 -1.8733  0.4092 -1.3899
 1848SOL    MW4 7440   2.955   3.586   2.988  0.0336  0.3004 -0.5808
 1849SOL     OW 7441   2.940   3.837   3.059 -0.1402  0.3827  0.4348
 1849SOL    HW2 7442   2.927   3.858   3.151  0.1431  1.9558  0.1265
 1849SOL    HW3 7443   2.867   3.879   3.013 -1.0483 -1.5344  0.0663
 1849SOL    MW4 7444   2.929   3.845   3.065 -0.2229  0.3376  0.3455
 1850SOL     OW 7445   2.710   3.961   2.953 -0.2896  0.2618 -0.6831
 1850SOL    HW2 7446   2.721   4.048   2.989  0.7588  0.3128 -1.0986
 1850SOL    HW3 7447   2.690   3.976   2.860 -0.2225  0.0661 -0.7301
 1850SOL    MW4 7448   2.709   3.974   2.945 -0.1421  0.2427 -0.7441
 1851SOL     OW 7449   2.736   4.207   3.068  0.0696 -0.0600  0.1222
 1851SOL    HW2 7450   2.737   4.209   3.164  0.3296  0.6138  0.1087
 1851SOL    HW3 7451   2.655   4.253   3.045 -0.0836 -0.3822  0.0234
 1851SOL    MW4 7452   2.725   4.214   3.078  0.0839 -0.0138  0.1075
 1852SOL     OW 7453   2.917   4.412   3.012 -0.1939  0.1369  0.1716
 1852SOL    HW2 7454   2.999   4.369   3.036 -1.3274 -3.0795 -1.3960
 1852SOL    HW3 7455   2.850   4.345   3.025 -2.1186  1.5508 -1.9809
 1852SOL    MW4 7456   2.919   4.397   3.017 -0.5975 -0.1001 -0.3192
 1853SOL     OW 7457   3.344   4.640   3.196  0.1685  0.2325 -0.0833
 1853SOL    HW2 7458   3.417   4.691   3.160  0.6391 -0.5021 -0.1780
 1853SOL    HW3 7459   3.342   4.560   3.143  0.8700 -0.8663  1.4859
 1853SOL    MW4 7460   3.353   4.636   3.184  0.3231 -0.0095  0.1111
 1854SOL     OW 7461   3.130   0.098   3.053 -0.2239  0.0383 -0.5191
 1854SOL    HW2 7462   3.121   0.190   3.075  0.2656  0.3301 -1.5074
 1854SOL    HW3 7463   3.216   0.073   3.086 -0.5816 -0.2117  0.2347
 1854SOL    MW4 7464   3.140   0.107   3.060 -0.2067  0.0438 -0.5500
 1855SOL     OW 7465   3.119   0.384   3.143  0.1314 -0.5478 -0.2964
 1855SOL    HW2 7466   3.190   0.445   3.123  0.2431 -0.0475  1.5855
 1855SOL    HW3 7467   3.040   0.431   3.119  0.3333 -0.4776 -0.8422
 1855SOL    MW4 7468   3.118   0.398   3.137  0.1726 -0.4725 -0.1199
 1856SOL     OW 7469   3.338   0.528   3.061 -0.5101 -0.1337 -0.1201
 1856SOL    HW2 7470   3.422   0.492   3.089 -0.4872  0.4812  0.6097
 1856SOL    HW3 7471   3.338   0.516   2.966  0.2496 -0.4624 -0.0862
 1856SOL    MW4 7472   3.349   0.522   3.052 -0.4070 -0.0960 -0.0193
 1857SOL     OW 7473   3.388   0.786   3.116 -0.2769 -0.2059 -0.0202
 1857SOL    HW2 7474   3.377   0.778   3.211 -1.8858  1.1939 -0.0679
 1857SOL    HW3 7475   3.360   0.702   3.081 -0.5543 -0.4081  0.6904
 1857SOL    MW4 7476   3.383   0.774   3.124 -0.5260 -0.0479  0.0672
 1858SOL     OW 7477   3.170   0.903   2.996 -0.2267 -0.3727 -0.1829
 1858SOL    HW2 7478   3.247   0.871   3.042  0.6853  1.4053 -0.4302
 1858SOL    HW3 7479   3.097   0.853   3.033  0.7921 -0.6835  1.4430
 1858SOL    MW4 7480   3.170   0.892   3.007  0.0284 -0.1791 -0.0012
 1859SOL     OW 7481   3.159   1.168   3.084 -0.5261 -0.2438  0.2355
 1859SOL    HW2 7482   3.242   1.205   3.055 -1.0216  0.0330 -0.8530
 1859SOL    HW3 7483   3.160   1.078   3.050 -0.6088 -0.2889  0.3513
 1859SOL    MW4 7484   3.170   1.161   3.075 -0.6027 -0.2133  0.1073
 1860SOL     OW 7485   3.410   1.275   3.033  0.0547 -0.4033 -0.3511
 1860SOL    HW2 7486   3.484   1.235   3.079 -0.4403  0.3137  1.1018
 1860SOL    HW3 7487   3.397   1.359   3.078 -0.5706  0.2310 -1.6851
 1860SOL    MW4 7488   3.418   1.281   3.045 -0.0930 -0.2252 -0.3355
 1861SOL     OW 7489   3.407   1.568   3.109  0.1606  0.1637 -0.1952
 1861SOL    HW2 7490   3.403   1.573   3.205  0.7023 -0.4007 -0.1395
 1861SOL    HW3 7491   3.482   1.621   3.086  0.7920 -0.7242 -0.2119
 1861SOL    MW4 7492   3.416   1.575   3.119  0.3152 -0.0279 -0.1900
 1862SOL     OW 7493   3.160   1.682   3.043  0.3460  0.1389  0.1032
 1862SOL    HW2 7494   3.248   1.645   3.047  0.8634  1.3526  0.0100
 1862SOL    HW3 7495   3.142   1.692   2.949  0.7794  1.4586  0.1495
 1862SOL    MW4 7496   3.169   1.678   3.031  0.4714  0.4731  0.0968
 1863SOL     OW 7497   3.135   1.930   3.181 -0.0206  0.0722  0.3238
 1863SOL    HW2 7498   3.145   1.839   3.153  0.7233  0.6167 -1.2470
 1863SOL    HW3 7499   3.065   1.964   3.126 -1.4456  0.0125  2.0480
 1863SOL    MW4 7500   3.127   1.922   3.170 -0.1106  0.1361  0.3440
 1864SOL     OW 7501   3.346   2.076   3.059  0.4321  0.2241 -0.1259
 1864SOL    HW2 7502   3.424   2.022   3.074 -0.3602 -1.0712 -0.5122
 1864SOL    HW3 7503   3.274   2.025   3.097 -0.2803  1.1818 -0.1828
 1864SOL    MW4 7504   3.347   2.062   3.066  0.2339  0.1795 -0.1845
 1865SOL     OW 7505   3.375   2.341   3.130  0.1102  0.1515 -0.1175
 1865SOL    HW2 7506   3.370   2.321   3.223  0.3975 -0.3352 -0.2016
 1865SOL    HW3 7507   3.372   2.255   3.087 -2.7367  0.4652 -0.6822
 1865SOL    MW4 7508   3.374   2.327   3.136 -0.2272  0.1285 -0.2031
 1866SOL     OW 7509   3.133   2.435   3.038 -0.2922 -0.7162  0.3275
 1866SOL    HW2 7510   3.207   2.391   3.081 -0.2756 -1.4690 -0.4595
 1866SOL    HW3 7511   3.146   2.418   2.945 -0.2005  1.1030 -0.0182
 1866SOL    MW4 7512   3.144   2.427   3.032 -0.2780 -0.5753  0.1776
 1867SOL     OW 7513   3.151   2.725   3.103 -0.2201 -0.0011  0.0898
 1867SOL    HW2 7514   3.246   2.739   3.096 -0.3955  1.0729 -0.1625
 1867SOL    HW3 7515   3.141   2.630   3.096  0.5971  0.0672 -2.9147
 1867SOL    MW4 7516   3.163   2.714   3.101 -0.1354  0.1495 -0.3400
 1868SOL     OW 7517   3.402   2.789   3.019  0.2904 -0.1435  0.0349
 1868SOL    HW2 7518   3.407   2.871   3.068  0.7381 -0.0385 -0.1792
 1868SOL    HW3 7519   3.476   2.738   3.050 -0.8829 -1.1151  1.3024
 1868SOL    MW4 7520   3.412   2.793   3.030  0.1943 -0.2580  0.1738
 1869SOL     OW 7521   3.361   3.025   3.143  0.0165 -0.5061  0.0785
 1869SOL    HW2 7522   3.348   3.038   3.237 -0.3130 -0.8640  0.0810
 1869SOL    HW3 7523   3.279   3.054   3.104  0.4214  0.3366 -0.1571
 1869SOL    MW4 7524   3.348   3.031   3.151  0.0265 -0.4420  0.0477
 1870SOL     OW 7525   3.150   3.165   3.039 -0.0211 -0.3518 -0.1959
 1870SOL    HW2 7526   3.055   3.149   3.043  0.0001 -0.3627  0.3679
 1870SOL    HW3 7527   3.165   3.198   2.951 -0.3015 -1.9451 -0.8653
 1870SOL    MW4 7528   3.139   3.167   3.028 -0.0553 -0.5634 -0.2100
 1871SOL     OW 7529   3.114   3.432   3.113 -0.2607 -0.3817  0.1397
 1871SOL    HW2 7530   3.200   3.462   3.086  0.1775 -2.2128 -0.5815
 1871SOL    HW3 7531   3.115   3.338   3.097 -1.9961 -0.6154  1.2008
 1871SOL    MW4 7532   3.125   3.424   3.108 -0.4320 -0.6542  0.1845
 1872SOL     OW 7533   3.340   3.563   3.019 -0.2844 -0.5293  0.6204
 1872SOL    HW2 7534   3.426   3.540   3.052  0.4896 -0.1956 -1.1237
 1872SOL    HW3 7535   3.327   3.654   3.048  0.6234 -0.0514 -0.4335
 1872SOL    MW4 7536   3.349   3.572   3.027 -0.0622 -0.4220  0.2513
 1873SOL     OW 7537   3.383   3.834   3.105 -0.0958  0.0586  0.3775
 1873SOL    HW2 7538   3.376   3.834   3.201  2.1065  0.6801  0.5714
 1873SOL    HW3 7539   3.320   3.900   3.077 -1.2567 -0.6142  1.3421
 1873SOL    MW4 7540   3.374   3.843   3.114  0.0415  0.0520  0.5305
 1874SOL     OW 7541   3.188   3.978   3.013 -0.0089 -0.3259 -0.2771
 1874SOL    HW2 7542   3.109   3.925   3.029  0.1863 -0.2908  0.8603
 1874SOL    HW3 7543   3.191   3.988   2.918 -2.8402  1.8928 -0.2087
 1874SOL    MW4 7544   3.178   3.972   3.003 -0.3567 -0.0286 -0.1180
 1875SOL     OW 7545   3.123   4.238   3.100  0.7263 -0.1529  0.0022
 1875SOL    HW2 7546   3.130   4.229   3.195 -0.2747 -1.2482 -0.0030
 1875SOL    HW3 7547   3.135   4.149   3.067  1.4336  0.2800 -0.9225
 1875SOL    MW4 7548   3.125   4.225   3.109  0.6876 -0.2398 -0.1204
 1876SOL     OW 7549   3.334   4.418   3.035 -0.4034 -0.1240 -0.5614
 1876SOL    HW2 7550   3.416   4.377   3.065 -0.6838  0.8039  1.5998
 1876SOL    HW3 7551   3.265   4.359   3.065 -0.7804  1.5707  2.1499
 1876SOL    MW4 7552   3.336   4.405   3.043 -0.4904  0.2222  0.0813
 1877SOL     OW 7553   3.818   4.648   3.120 -0.2812 -0.1506  0.1206
 1877SOL    HW2 7554   3.811   4.558   3.086  0.8182  0.1297 -0.8406
 1877SOL    HW3 7555   3.742   4.693   3.083 -1.0357 -0.7623  0.8851
 1877SOL    MW4 7556   3.807   4.642   3.111 -0.2358 -0.1943  0.0947
 1878SOL     OW 7557   3.555   0.105   3.073  0.3008  0.6605  0.0459
 1878SOL    HW2 7558   3.550   0.199   3.092 -1.2551  0.7100 -0.5337
 1878SOL    HW3 7559   3.557   0.101   2.977 -1.0243  0.0583  0.0338
 1878SOL    MW4 7560   3.555   0.117   3.063 -0.0792  0.5876 -0.0322
 1879SOL     OW 7561   3.567   0.395   3.130  0.7252 -0.2660 -0.0086
 1879SOL    HW2 7562   3.577   0.384   3.224  1.8847 -0.5988 -0.1744
 1879SOL    HW3 7563   3.650   0.431   3.100  0.5326 -0.6145 -0.9838
 1879SOL    MW4 7564   3.579   0.399   3.138  0.8526 -0.3558 -0.1590
 1880SOL     OW 7565   3.806   0.498   3.041 -0.2568  0.4197  0.1559
 1880SOL    HW2 7566   3.883   0.453   3.075 -0.5104  0.5063  0.8451
 1880SOL    HW3 7567   3.814   0.588   3.072  0.1707  0.8312 -1.0894
 1880SOL    MW4 7568   3.817   0.504   3.049 -0.2341  0.4855  0.0825
 1881SOL     OW 7569   3.798   0.758   3.435 -0.9298  0.4970  0.3782
 1881SOL    HW2 7570   3.792   0.672   3.476 -0.5907  0.1040 -0.3840
 1881SOL    HW3 7571   3.879   0.796   3.470  0.1742 -0.4663 -1.0969
 1881SOL    MW4 7572   3.808   0.752   3.445 -0.7396  0.3180  0.0827
 1882SOL     OW 7573   3.632   0.908   3.020  0.1406 -0.1702  0.2684
 1882SOL    HW2 7574   3.702   0.850   3.048 -0.4558 -0.0983  1.9761
 1882SOL    HW3 7575   3.553   0.872   3.059 -0.3712  1.2604  0.5980
 1882SOL    MW4 7576   3.631   0.896   3.029 -0.0055  0.0281  0.5372
 1883SOL     OW 7577   3.642   1.133   3.171  0.5128 -0.3363  0.0241
 1883SOL    HW2 7578   3.704   1.196   3.136 -0.5118  0.3784 -0.5469
 1883SOL    HW3 7579   3.643   1.061   3.109 -0.8145  0.6398 -1.1819
 1883SOL    MW4 7580   3.650   1.132   3.159  0.2024 -0.1132 -0.2103
 1884SOL     OW 7581   4.069   1.161   3.127  0.0883  0.7936 -0.1493
 1884SOL    HW2 7582   4.062   1.161   3.223 -1.5979 -1.2527 -0.2269
 1884SOL    HW3 7583   3.996   1.214   3.097  1.2042  2.2644 -0.2890
 1884SOL    MW4 7584   4.058   1.168   3.136  0.0129  0.7176 -0.1779
 1885SOL     OW 7585   3.846   1.552   3.121 -0.3432 -0.0999 -0.1937
 1885SOL    HW2 7586   3.836   1.560   3.216  0.3150  2.0780 -0.2827
 1885SOL    HW3 7587   3.782   1.613   3.085  0.9905  0.8211 -1.0793
 1885SOL    MW4 7588   3.836   1.561   3.129 -0.0806  0.3090 -0.3226
 1886SOL     OW 7589   3.638   1.689   3.000 -0.2051  0.2222 -0.0411
 1886SOL    HW2 7590   3.629   1.782   3.020  1.9771  0.4255  0.0627
 1886SOL    HW3 7591   3.622   1.683   2.906 -0.0476  0.7286 -0.0975
 1886SOL    MW4 7592   3.634   1.700   2.990  0.1037  0.3158 -0.0350
 1887SOL     OW 7593   3.579   1.943   3.106  0.3332 -0.4417  0.3699
 1887SOL    HW2 7594   3.583   1.939   3.202  0.3081  0.2759  0.4066
 1887SOL    HW3 7595   3.667   1.969   3.079  0.8303 -2.3993  0.0868
 1887SOL    MW4 7596   3.591   1.946   3.115  0.3955 -0.6053  0.3374
 1888SOL     OW 7597   3.839   2.016   3.013 -0.0395 -0.6192 -0.3590
 1888SOL    HW2 7598   3.833   2.107   3.043  2.9733 -0.6589  0.4489
 1888SOL    HW3 7599   3.856   2.022   2.919  0.1855 -0.3621 -0.2997
 1888SOL    MW4 7600   3.840   2.029   3.004  0.3879 -0.5903 -0.2444
 1889SOL     OW 7601   3.828   2.290   3.113 -0.0088 -0.2838  0.0040
 1889SOL    HW2 7602   3.838   2.286   3.208  1.4003 -0.6450 -0.1345
 1889SOL    HW3 7603   3.910   2.330   3.082  0.2793 -1.7217 -1.1621
 1889SOL    MW4 7604   3.840   2.294   3.121  0.2151 -0.5214 -0.1681
 1890SOL     OW 7605   3.602   2.457   3.036  0.3274  0.1835 -0.2592
 1890SOL    HW2 7606   3.666   2.389   3.056 -0.7590 -1.1991 -1.3811
 1890SOL    HW3 7607   3.518   2.421   3.065 -0.4246  0.5191 -1.9515
 1890SOL    MW4 7608   3.600   2.444   3.042  0.0851  0.0455 -0.6304
 1891SOL     OW 7609   3.632   2.706   3.130 -0.1647 -0.6217  0.4038
 1891SOL    HW2 7610   3.702   2.755   3.087 -1.4927 -1.6953 -3.1488
 1891SOL    HW3 7611   3.635   2.619   3.091 -2.2659 -1.2507  1.5471
 1891SOL    MW4 7612   3.641   2.701   3.119 -0.6173 -0.8464  0.0858
 1892SOL     OW 7613   3.855   2.845   3.017  0.0534 -0.2781  0.2701
 1892SOL    HW2 7614   3.854   2.928   3.065 -2.2507 -0.9562  1.5357
 1892SOL    HW3 7615   3.844   2.869   2.925 -0.9376  0.8401  0.6668
 1892SOL    MW4 7616   3.853   2.859   3.011 -0.3815 -0.2201  0.4895
 1893SOL     OW 7617   4.045   3.215   3.034 -0.6533 -0.1910 -0.1481
 1893SOL    HW2 7618   4.024   3.212   2.941 -0.1496 -0.0496 -0.2697
 1893SOL    HW3 7619   4.033   3.307   3.058  0.8302  0.0901 -0.4601
 1893SOL    MW4 7620   4.041   3.227   3.025 -0.3905 -0.1352 -0.2050
 1894SOL     OW 7621   3.547   3.217   3.016  0.4868 -0.3861 -0.2051
 1894SOL    HW2 7622   3.473   3.160   3.037  0.7093 -1.1270 -1.3926
 1894SOL    HW3 7623   3.547   3.222   2.921  2.0426 -0.5116 -0.2293
 1894SOL    MW4 7624   3.538   3.210   3.006  0.7215 -0.5004 -0.3650
 1895SOL     OW 7625   3.571   3.470   3.142 -0.0205 -0.0216 -0.2209
 1895SOL    HW2 7626   3.640   3.523   3.101 -0.3490  0.3668 -0.2759
 1895SOL    HW3 7627   3.569   3.389   3.091  0.7828 -0.2740  0.1329
 1895SOL    MW4 7628   3.580   3.466   3.130  0.0422 -0.0038 -0.1817
 1896SOL     OW 7629   3.783   3.639   3.043 -0.2458  0.1271  0.1066
 1896SOL    HW2 7630   3.803   3.722   3.088  1.8125 -0.2741 -0.0501
 1896SOL    HW3 7631   3.810   3.654   2.952  0.4629 -0.8318  0.1574
 1896SOL    MW4 7632   3.789   3.652   3.037  0.1192 -0.0522  0.0925
 1897SOL     OW 7633   3.828   3.889   3.150 -0.1847 -0.3709  0.3393
 1897SOL    HW2 7634   3.824   3.899   3.245 -0.9345  0.6234  0.2159
 1897SOL    HW3 7635   3.758   3.947   3.118  0.1566 -0.6037 -0.8141
 1897SOL    MW4 7636   3.818   3.898   3.159 -0.2387 -0.2706  0.1709
 1898SOL     OW 7637   3.601   3.998   3.043  0.0903 -0.4391  0.0245
 1898SOL    HW2 7638   3.536   3.934   3.072  0.7927 -0.5980  1.2922
 1898SOL    HW3 7639   3.597   3.996   2.947 -1.0738 -1.1492  0.0802
 1898SOL    MW4 7640   3.592   3.990   3.034  0.0296 -0.5536  0.1991
 1899SOL     OW 7641   3.549   4.268   3.119 -0.2101 -0.1551 -0.3913
 1899SOL    HW2 7642   3.625   4.323   3.100  0.8153 -0.8038  1.6568
 1899SOL    HW3 7643   3.573   4.181   3.087 -0.3481 -0.2167 -0.3286
 1899SOL    MW4 7644   3.562   4.264   3.113 -0.0930 -0.2494 -0.1128
 1900SOL     OW 7645   3.774   4.388   3.020  0.0983 -0.0561 -0.1120
 1900SOL    HW2 7646   3.857   4.353   3.054  0.8090  1.8236  0.1319
 1900SOL    HW3 7647   3.788   4.394   2.925 -0.0232 -0.4037 -0.1538
 1900SOL    MW4 7648   3.787   4.384   3.012  0.1762  0.1459 -0.0851
 1901SOL     OW 7649   4.019   0.134   3.021  0.0397 -0.1641  0.6771
 1901SOL    HW2 7650   4.094   0.085   3.054  0.1089 -0.2780  0.3549
 1901SOL    HW3 7651   3.943   0.085   3.051  0.1215 -0.9286 -0.3468
 1901SOL    MW4 7652   4.019   0.121   3.029  0.0596 -0.2800  0.4995
 1902SOL     OW 7653   4.049   0.151   2.740  0.5347  0.0718  0.5168
 1902SOL    HW2 7654   4.037   0.156   2.835  0.5706 -0.5439  0.5581
 1902SOL    HW3 7655   3.976   0.098   2.709  0.3579  0.5185  0.1609
 1902SOL    MW4 7656   4.038   0.145   2.749  0.5155  0.0495  0.4752
 1903SOL     OW 7657   4.047   0.377   3.137  0.6210 -0.0086  0.2315
 1903SOL    HW2 7658   4.118   0.413   3.084 -0.1789 -0.1275 -0.9313
 1903SOL    HW3 7659   4.032   0.289   3.101  0.9437 -0.6021  1.5026
 1903SOL    MW4 7660   4.055   0.370   3.125  0.5579 -0.1026  0.2458
 1904SOL     OW 7661   4.263   0.501   3.016  0.0310 -0.0134  0.1366
 1904SOL    HW2 7662   4.271   0.591   3.048 -0.3838  0.4576 -1.0609
 1904SOL    HW3 7663   4.251   0.510   2.921 -1.5258 -1.2557  0.1894
 1904SOL    MW4 7664   4.262   0.514   3.008 -0.2294 -0.1151 -0.0145
 1905SOL     OW 7665   4.253   0.757   3.126  0.5161 -0.4688 -0.0547
 1905SOL    HW2 7666   4.184   0.804   3.079  1.0122  0.7806  0.4727
 1905SOL    HW3 7667   4.335   0.794   3.094  0.8710  0.0467  1.4146
 1905SOL    MW4 7668   4.254   0.768   3.115  0.6280 -0.2359  0.2089
 1906SOL     OW 7669   3.839   0.762   3.135  0.1108  0.0892 -0.4471
 1906SOL    HW2 7670   3.853   0.748   3.228  0.7697 -0.7667 -0.6643
 1906SOL    HW3 7671   3.909   0.822   3.109  0.4942 -0.4131 -0.5769
 1906SOL    MW4 7672   3.850   0.768   3.144  0.2484 -0.0901 -0.4926
 1907SOL     OW 7673   4.045   0.892   3.023  0.0838  0.0442  0.1778
 1907SOL    HW2 7674   4.053   0.984   3.050 -3.0895  0.2642  0.5291
 1907SOL    HW3 7675   4.023   0.896   2.930  0.9931 -0.3978 -0.0585
 1907SOL    MW4 7676   4.043   0.905   3.014 -0.2151  0.0150  0.1931
 1908SOL     OW 7677   4.299   1.237   3.006  0.1269 -0.4540 -0.2153
 1908SOL    HW2 7678   4.291   1.330   3.029  2.7086 -0.2273 -0.1086
 1908SOL    HW3 7679   4.214   1.200   3.028 -0.7973  1.8003  0.1663
 1908SOL    MW4 7680   4.287   1.245   3.012  0.3452 -0.1267 -0.1509
 1909SOL     OW 7681   4.284   1.511   3.098  0.0757  0.2204 -0.2769
 1909SOL    HW2 7682   4.211   1.569   3.076  0.0079 -0.0437 -0.7455
 1909SOL    HW3 7683   4.282   1.506   3.194 -1.2615 -0.7331 -0.3391
 1909SOL    MW4 7684   4.274   1.518   3.108 -0.1101  0.0597 -0.3467
 1910SOL     OW 7685   4.079   1.685   3.042 -0.3779 -0.2213  0.2197
 1910SOL    HW2 7686   4.066   1.774   3.076  0.2815 -0.2526  0.5735
 1910SOL    HW3 7687   3.997   1.640   3.061  0.1661 -0.4025  2.3002
 1910SOL    MW4 7688   4.067   1.691   3.049 -0.2193 -0.2495  0.5410
 1911SOL     OW 7689   4.056   1.922   3.158  0.0971 -0.1612 -0.0224
 1911SOL    HW2 7690   4.126   1.962   3.106 -0.1655 -0.1963 -0.4031
 1911SOL    HW3 7691   3.976   1.962   3.125 -0.0185  0.3116  0.8096
 1911SOL    MW4 7692   4.055   1.932   3.147  0.0477 -0.1036  0.0374
 1912SOL     OW 7693   4.263   2.029   3.015  0.1269 -0.3790 -0.2284
 1912SOL    HW2 7694   4.341   1.981   3.041 -0.1567 -0.2035  0.9969
 1912SOL    HW3 7695   4.282   2.061   2.927  1.5888 -0.0054  0.2126
 1912SOL    MW4 7696   4.276   2.027   3.007  0.2823 -0.3066 -0.0086
 1913SOL     OW 7697   4.255   2.272   3.155  0.4195  0.3955 -0.0343
 1913SOL    HW2 7698   4.257   2.187   3.112 -1.7376  0.2093  0.1796
 1913SOL    HW3 7699   4.328   2.320   3.116  0.6592 -0.9771 -1.3396
 1913SOL    MW4 7700   4.265   2.267   3.144  0.1659  0.1898 -0.1783
 1914SOL     OW 7701   4.051   2.409   3.025 -0.1698  0.2832 -0.5157
 1914SOL    HW2 7702   4.046   2.499   3.059  0.5624  0.3104 -0.4669
 1914SOL    HW3 7703   4.124   2.370   3.074 -0.7974 -0.4901 -0.1841
 1914SOL    MW4 7704   4.060   2.416   3.036 -0.1564  0.1845 -0.4654
 1915SOL     OW 7705   4.053   2.677   3.116  0.4520  0.3929 -0.3895
 1915SOL    HW2 7706   4.041   2.678   3.211  0.3826  0.7252 -0.4024
 1915SOL    HW3 7707   3.985   2.735   3.083  0.9787  0.8992 -0.5861
 1915SOL    MW4 7708   4.042   2.685   3.124  0.5121  0.5035 -0.4172
 1916SOL     OW 7709   4.274   2.816   3.019  0.1172  0.1386 -0.0306
 1916SOL    HW2 7710   4.191   2.786   3.054  0.9622  0.7050  2.5589
 1916SOL    HW3 7711   4.340   2.769   3.070  1.3904  1.5656 -0.3218
 1916SOL    MW4 7712   4.272   2.806   3.030  0.3967  0.4017  0.2730
 1917SOL     OW 7713   4.279   3.066   3.407 -0.0816 -0.1688  0.6005
 1917SOL    HW2 7714   4.277   3.056   3.311  0.8831  0.7705  0.4737
 1917SOL    HW3 7715   4.269   2.977   3.441 -1.5302 -0.3844 -0.3669
 1917SOL    MW4 7716   4.277   3.053   3.399 -0.1454 -0.0734  0.4561
 1918SOL     OW 7717   4.266   3.070   3.137  0.2232 -0.3545  0.1884
 1918SOL    HW2 7718   4.184   3.111   3.109 -0.0184 -0.3973  0.8197
 1918SOL    HW3 7719   4.266   2.985   3.093 -0.8035 -0.9791  1.3784
 1918SOL    MW4 7720   4.255   3.064   3.127  0.0553 -0.4425  0.4284
 1919SOL     OW 7721   4.007   3.485   3.131 -0.1906  0.2437  0.0475
 1919SOL    HW2 7722   3.997   3.480   3.226  1.0582 -0.1647  0.1739
 1919SOL    HW3 7723   3.935   3.541   3.102 -0.3467  0.7011  1.2752
 1919SOL    MW4 7724   3.996   3.492   3.140 -0.0460  0.2501  0.2260
 1920SOL     OW 7725   4.250   3.620   3.039  0.3153  0.2074  0.0962
 1920SOL    HW2 7726   4.241   3.713   3.061 -0.7287 -0.0082  0.5892
 1920SOL    HW3 7727   4.173   3.579   3.077  1.5313 -1.1097  1.1532
 1920SOL    MW4 7728   4.238   3.627   3.047  0.3386  0.0052  0.3006
 1921SOL     OW 7729   4.223   3.880   3.159  0.0034 -0.0145 -0.2022
 1921SOL    HW2 7730   4.307   3.906   3.121  1.2494 -0.6797  1.9813
 1921SOL    HW3 7731   4.162   3.950   3.134  2.1475  2.5860  1.5805
 1921SOL    MW4 7732   4.226   3.893   3.151  0.4501  0.2406  0.3214
 1922SOL     OW 7733   4.026   4.037   3.012  0.3402  0.1339 -0.1666
 1922SOL    HW2 7734   4.028   4.129   3.037  0.4745 -0.0464  0.4928
 1922SOL    HW3 7735   3.951   4.001   3.058  2.0136 -0.7500  1.9381
 1922SOL    MW4 7736   4.016   4.044   3.021  0.5789 -0.0067  0.1981
 1923SOL     OW 7737   4.024   4.291   3.116  0.0140 -0.0300 -0.5200
 1923SOL    HW2 7738   4.016   4.297   3.211  0.1700  0.5411 -0.5427
 1923SOL    HW3 7739   4.102   4.342   3.095 -1.1344  1.5332 -1.1383
 1923SOL    MW4 7740   4.033   4.299   3.126 -0.1168  0.2513 -0.6049
 1924SOL     OW 7741   4.255   0.015   3.095  0.5922  0.4645 -0.1575
 1924SOL    HW2 7742   4.256   0.014   3.191  0.3043  1.5207 -0.1370
 1924SOL    HW3 7743   4.272  -0.076   3.070  1.4459  0.3245  0.8843
 1924SOL    MW4 7744   4.257   0.003   3.105  0.6666  0.5851 -0.0172
 1925SOL     OW 7745   0.209   4.655   3.432  0.2403  0.7756 -0.2312
 1925SOL    HW2 7746   0.294   4.688   3.461  0.0908 -0.4227  1.6728
 1925SOL    HW3 7747   0.211   4.561   3.452 -0.9061  0.4120 -1.6996
 1925SOL    MW4 7748   0.220   4.647   3.439  0.0694  0.5693 -0.1738
 1926SOL     OW 7749   0.022   0.115   3.751 -0.4506  0.1622 -0.0403
 1926SOL    HW2 7750   0.033   0.203   3.786  1.2137  0.4704 -1.2683
 1926SOL    HW3 7751   0.017   0.127   3.656  0.7533 -1.1242 -0.2882
 1926SOL    MW4 7752   0.023   0.128   3.743 -0.0721  0.0331 -0.2351
 1927SOL     OW 7753   4.467   0.118   3.490  0.2901 -0.3280 -0.8615
 1927SOL    HW2 7754   4.492   0.199   3.447 -0.9139  0.6743  0.2953
 1927SOL    HW3 7755   4.536   0.056   3.467  0.2163  0.4713 -3.3530
 1927SOL    MW4 7756   4.479   0.120   3.481  0.1216 -0.0903 -1.0376
 1928SOL     OW 7757   4.481   0.388   3.377  0.2096  0.1851  0.0704
 1928SOL    HW2 7758   4.410   0.435   3.421 -0.0251 -0.2170  0.1213
 1928SOL    HW3 7759   4.561   0.418   3.421 -0.0030 -0.0205  0.5962
 1928SOL    MW4 7760   4.482   0.398   3.389  0.1512  0.1049  0.1464
 1929SOL     OW 7761   0.235   0.484   3.492 -0.1991 -0.3753 -0.1623
 1929SOL    HW2 7762   0.304   0.446   3.437  0.9694  0.3736  0.7427
 1929SOL    HW3 7763   0.218   0.570   3.453 -0.0311 -0.2221  0.1016
 1929SOL    MW4 7764   0.242   0.491   3.480 -0.0227 -0.2563 -0.0081
 1930SOL     OW 7765   4.489   0.871   3.499  0.2915  0.3604  0.0167
 1930SOL    HW2 7766   4.498   0.879   3.594  0.1420 -0.3679  0.0944
 1930SOL    HW3 7767   4.496   0.961   3.466 -0.4415  0.7023  0.7840
 1930SOL    MW4 7768   4.491   0.884   3.507  0.1751  0.3094  0.1283
 1931SOL     OW 7769   0.002   1.117   3.385  0.4622  0.3230 -0.0408
 1931SOL    HW2 7770   0.078   1.158   3.426  1.0976 -0.6219 -0.2649
 1931SOL    HW3 7771   0.021   1.120   3.291 -0.6609  1.8352 -0.2410
 1931SOL    MW4 7772   0.014   1.123   3.378  0.3986  0.3979 -0.0968
 1932SOL     OW 7773   0.455   0.842   3.397  0.7307 -0.3174  0.0808
 1932SOL    HW2 7774   0.459   0.826   3.492  0.5014  0.9048  0.3031
 1932SOL    HW3 7775   0.440   0.936   3.389  0.4445 -0.4594 -1.1713
 1932SOL    MW4 7776   0.453   0.852   3.409  0.6627 -0.1749 -0.0548
 1933SOL     OW 7777   0.213   1.240   3.510  0.4972 -0.6042 -0.1058
 1933SOL    HW2 7778   0.215   1.333   3.488  1.7667 -0.6718 -0.3601
 1933SOL    HW3 7779   0.300   1.209   3.485  0.3325 -1.6955  0.6671
 1933SOL    MW4 7780   0.225   1.248   3.504  0.6430 -0.7571 -0.0377
 1934SOL     OW 7781   0.022   1.630   3.447 -0.2821  0.1031 -0.1968
 1934SOL    HW2 7782   0.031   1.611   3.541 -2.7922 -2.1213 -0.3483
 1934SOL    HW3 7783   0.096   1.586   3.406 -0.2220 -0.5259  0.5788
 1934SOL    MW4 7784   0.033   1.622   3.454 -0.6054 -0.2733 -0.1142
 1935SOL     OW 7785   0.253   2.019   3.482 -0.5013  0.3668  0.6209
 1935SOL    HW2 7786   0.240   2.016   3.576 -0.3794  0.1972  0.6322
 1935SOL    HW3 7787   0.173   1.982   3.445 -0.5160  0.3603  0.6593
 1935SOL    MW4 7788   0.241   2.014   3.489 -0.4872  0.3436  0.6273
 1936SOL     OW 7789   0.478   1.909   3.413  0.5265  0.0570  0.2444
 1936SOL    HW2 7790   0.394   1.951   3.434  0.7242  1.5819 -1.8214
 1936SOL    HW3 7791   0.482   1.911   3.317  1.5818 -2.7158  0.2036
 1936SOL    MW4 7792   0.467   1.915   3.403  0.6918 -0.1076 -0.0331
 1937SOL     OW 7793   0.234   2.268   3.363 -0.3681 -0.3130  0.1220
 1937SOL    HW2 7794   0.166   2.316   3.411 -2.1155  0.0026 -2.5263
 1937SOL    HW3 7795   0.216   2.176   3.382 -1.3839 -0.2171 -0.3194
 1937SOL    MW4 7796   0.223   2.262   3.372 -0.7327 -0.2589 -0.2859
 1938SOL     OW 7797   0.013   2.376   3.500  0.1668 -0.5674 -0.3975
 1938SOL    HW2 7798   0.029   2.386   3.594  0.9649  0.4342 -0.6198
 1938SOL    HW3 7799  -0.077   2.345   3.494  0.0935 -0.5956  0.7016
 1938SOL    MW4 7800   0.004   2.374   3.511  0.2624 -0.4392 -0.2818
 1939SOL     OW 7801   0.031   2.649   3.441  0.4196  0.3055 -0.5249
 1939SOL    HW2 7802   0.114   2.689   3.465  1.0026 -1.4604  0.5261
 1939SOL    HW3 7803   0.041   2.556   3.464 -1.2657 -0.2489 -1.8634
 1939SOL    MW4 7804   0.043   2.642   3.447  0.2742 -0.0007 -0.5627
 1940SOL     OW 7805   0.254   2.788   3.530  0.0400 -0.3350  0.0979
 1940SOL    HW2 7806   0.334   2.760   3.485 -0.5469 -0.8247 -0.6623
 1940SOL    HW3 7807   0.247   2.882   3.512  1.3765  0.0781  1.6446
 1940SOL    MW4 7808   0.263   2.797   3.522  0.1389 -0.3450  0.2015
 1941SOL     OW 7809   0.212   3.059   3.408  0.0982 -0.1124  0.1535
 1941SOL    HW2 7810   0.138   3.108   3.443 -1.0721 -1.3464 -0.5383
 1941SOL    HW3 7811   0.206   3.070   3.313  1.1192  0.2203  0.1206
 1941SOL    MW4 7812   0.201   3.067   3.400  0.0785 -0.2313  0.0577
 1942SOL     OW 7813   4.476   3.211   3.541  0.1477 -0.2515  0.1939
 1942SOL    HW2 7814   4.405   3.153   3.512  0.1661  0.2878 -0.9740
 1942SOL    HW3 7815   4.464   3.291   3.490  1.0570  0.1839  0.6493
 1942SOL    MW4 7816   4.465   3.214   3.530  0.2704 -0.1230  0.0997
 1943SOL     OW 7817   4.459   3.459   3.397  0.0330  0.2564  0.0640
 1943SOL    HW2 7818   4.384   3.507   3.430 -0.0071 -0.2119  0.6658
 1943SOL    HW3 7819   4.458   3.473   3.302 -0.1574  1.1720  0.2020
 1943SOL    MW4 7820   4.449   3.467   3.389  0.0024  0.3154  0.1616
 1944SOL     OW 7821   0.183   3.623   3.471  0.3536  0.3415 -0.1740
 1944SOL    HW2 7822   0.212   3.586   3.554  2.6987 -1.9940 -1.9698
 1944SOL    HW3 7823   0.111   3.566   3.444  0.8128 -0.0259 -0.6293
 1944SOL    MW4 7824   0.177   3.610   3.478  0.7236 -0.0150 -0.4711
 1945SOL     OW 7825   0.254   3.863   3.372 -0.2141 -0.0803 -0.0616
 1945SOL    HW2 7826   0.168   3.904   3.381 -0.2134 -0.0769 -0.0693
 1945SOL    HW3 7827   0.240   3.771   3.396 -0.8676 -0.7881 -2.8913
 1945SOL    MW4 7828   0.241   3.856   3.376 -0.3003 -0.1731 -0.4358
 1946SOL     OW 7829   0.009   3.994   3.477  0.1055 -0.5713 -0.0429
 1946SOL    HW2 7830   0.022   3.983   3.571  0.5251  0.3596  0.0194
 1946SOL    HW3 7831   0.032   4.086   3.461  1.5897 -1.1475 -1.3037
 1946SOL    MW4 7832   0.014   4.005   3.487  0.3567 -0.5245 -0.2015
 1947SOL     OW 7833   0.024   4.260   3.413  0.4255  0.1334  0.2706
 1947SOL    HW2 7834  -0.053   4.313   3.432 -0.1092 -1.0077  1.3686
 1947SOL    HW3 7835   0.097   4.310   3.448  0.1640  1.0699 -0.4920
 1947SOL    MW4 7836   0.024   4.273   3.420  0.3204  0.1059  0.3145
 1948SOL     OW 7837   0.235   4.394   3.515  0.3912 -0.3874  0.5179
 1948SOL    HW2 7838   0.241   4.387   3.610 -0.5426 -0.4706  0.5743
 1948SOL    HW3 7839   0.314   4.352   3.482  1.6733  1.3625  1.3237
 1948SOL    MW4 7840   0.246   4.388   3.523  0.4372 -0.1674  0.6316
 1949SOL     OW 7841   0.701   4.626   3.392 -0.1504 -0.3266 -0.1263
 1949SOL    HW2 7842   0.736   4.628   3.302 -0.7593 -0.9351 -0.3825
 1949SOL    HW3 7843   0.752   4.692   3.439 -1.0115  1.2554 -1.3587
 1949SOL    MW4 7844   0.712   4.635   3.386 -0.3443 -0.1974 -0.3226
 1950SOL     OW 7845   0.472   0.085   3.464 -0.1674 -0.4164  1.0997
 1950SOL    HW2 7846   0.496   0.105   3.555  1.7943  2.5152  0.0228
 1950SOL    HW3 7847   0.549   0.039   3.430  0.2107  0.8308  0.2254
 1950SOL    MW4 7848   0.485   0.082   3.472  0.1414  0.1349  0.8423
 1951SOL     OW 7849   0.670   0.501   3.439 -0.2970  0.5865  0.2816
 1951SOL    HW2 7850   0.694   0.522   3.530 -0.6374  0.4064  0.4148
 1951SOL    HW3 7851   0.746   0.456   3.404 -0.2743  0.3979  0.5701
 1951SOL    MW4 7852   0.683   0.498   3.447 -0.3389  0.5379  0.3369
 1952SOL     OW 7853   0.882   0.388   3.089 -0.4499 -0.3558  0.0542
 1952SOL    HW2 7854   0.957   0.437   3.055 -0.5673 -0.0247  0.2729
 1952SOL    HW3 7855   0.891   0.393   3.184 -1.0221  0.1101  0.0876
 1952SOL    MW4 7856   0.893   0.395   3.097 -0.5410 -0.2506  0.0873
 1953SOL     OW 7857   0.697   0.770   3.305  0.0785  0.6135  0.3809
 1953SOL    HW2 7858   0.615   0.805   3.340  0.6482  1.0431  1.2960
 1953SOL    HW3 7859   0.707   0.686   3.350 -0.6479 -0.1798 -0.8904
 1953SOL    MW4 7860   0.687   0.763   3.316  0.0578  0.5655  0.3338
 1954SOL     OW 7861   0.194   0.736   3.371 -0.0272 -0.0993 -0.1026
 1954SOL    HW2 7862   0.278   0.770   3.400 -0.0077 -0.3834  0.1740
 1954SOL    HW3 7863   0.130   0.777   3.429 -0.0132 -0.4511  0.1617
 1954SOL    MW4 7864   0.196   0.746   3.382 -0.0228 -0.1832 -0.0315
 1955SOL     OW 7865   0.691   1.227   3.504 -0.1655 -0.1375 -0.0729
 1955SOL    HW2 7866   0.681   1.319   3.480 -0.8867 -0.4004 -0.7984
 1955SOL    HW3 7867   0.772   1.199   3.461 -1.0832 -0.4166 -1.6541
 1955SOL    MW4 7868   0.700   1.235   3.495 -0.3818 -0.2089 -0.3772
 1956SOL     OW 7869   0.907   1.129   3.366 -0.6559 -0.0182 -0.5973
 1956SOL    HW2 7870   0.906   1.133   3.270 -0.8079  0.6157 -0.5727
 1956SOL    HW3 7871   0.973   1.193   3.391 -0.9448  0.1507 -0.2640
 1956SOL    MW4 7872   0.916   1.138   3.356 -0.7141  0.0876 -0.5503
 1957SOL     OW 7873   0.663   1.490   3.446 -0.0009 -0.0072 -0.2600
 1957SOL    HW2 7874   0.734   1.547   3.477 -1.1223  1.5847 -0.5600
 1957SOL    HW3 7875   0.586   1.546   3.446 -0.8834 -1.1923 -1.7874
 1957SOL    MW4 7876   0.662   1.505   3.450 -0.2653  0.0465 -0.5012
 1958SOL     OW 7877   0.271   1.499   3.091 -0.2750 -0.3290  0.7964
 1958SOL    HW2 7878   0.362   1.527   3.082 -0.1989 -0.8515 -0.1744
 1958SOL    HW3 7879   0.266   1.418   3.040 -1.5667  0.3144 -0.1325
 1958SOL    MW4 7880   0.283   1.492   3.083 -0.4354 -0.3130  0.5457
 1959SOL     OW 7881   0.229   1.473   3.364 -0.1220 -0.2369  0.0374
 1959SOL    HW2 7882   0.293   1.537   3.395  0.5343 -0.9672  0.2016
 1959SOL    HW3 7883   0.233   1.478   3.269  0.2926 -0.4042  0.0486
 1959SOL    MW4 7884   0.238   1.483   3.356  0.0193 -0.3554  0.0606
 1960SOL     OW 7885   0.685   2.066   3.511 -0.2018  0.2889 -0.5502
 1960SOL    HW2 7886   0.678   2.084   3.605  0.6162 -2.0448 -0.0021
 1960SOL    HW3 7887   0.611   2.007   3.492 -1.0351  1.6535 -1.6191
 1960SOL    MW4 7888   0.674   2.060   3.521 -0.2038  0.1607 -0.6189
 1961SOL     OW 7889   0.709   2.301   3.368 -0.1172 -0.6678  0.3884
 1961SOL    HW2 7890   0.776   2.348   3.418 -0.4402 -0.9192  1.0758
 1961SOL    HW3 7891   0.700   2.217   3.415 -1.2528 -0.4384  0.5896
 1961SOL    MW4 7892   0.717   2.296   3.381 -0.3096 -0.6707  0.5059
 1962SOL     OW 7893   0.469   2.400   3.505 -0.1523 -0.2407  0.2793
 1962SOL    HW2 7894   0.552   2.365   3.472 -1.0176 -2.2244  0.1312
 1962SOL    HW3 7895   0.402   2.346   3.463 -1.4814  0.7828  1.0570
 1962SOL    MW4 7896   0.471   2.388   3.496 -0.4418 -0.3672  0.3622
 1963SOL     OW 7897   0.502   2.665   3.432 -0.0491  0.2770 -0.5646
 1963SOL    HW2 7898   0.497   2.582   3.479 -1.6033  0.5498 -0.2259
 1963SOL    HW3 7899   0.494   2.641   3.340 -1.4453  0.1315 -0.4076
 1963SOL    MW4 7900   0.500   2.651   3.426 -0.4383  0.2937 -0.4992
 1964SOL     OW 7901   0.697   2.862   3.493 -0.3337  0.2076  0.1127
 1964SOL    HW2 7902   0.779   2.824   3.464  0.1092  1.2353 -0.0313
 1964SOL    HW3 7903   0.629   2.808   3.453  0.2709 -0.4697 -0.0012
 1964SOL    MW4 7904   0.699   2.850   3.484 -0.1956  0.2542  0.0784
 1965SOL     OW 7905   0.653   3.113   3.387 -0.5423 -0.1096  0.1961
 1965SOL    HW2 7906   0.566   3.145   3.409 -0.7762 -0.7041  0.1420
 1965SOL    HW3 7907   0.654   3.023   3.418 -0.1709 -0.3135 -0.3983
 1965SOL    MW4 7908   0.642   3.105   3.394 -0.5242 -0.2151  0.1104
 1966SOL     OW 7909   0.416   3.251   3.467 -0.0820 -0.2317 -0.0739
 1966SOL    HW2 7910   0.391   3.252   3.559 -0.4386  0.0485 -0.1722
 1966SOL    HW3 7911   0.354   3.191   3.425 -0.0696 -0.1779 -0.1720
 1966SOL    MW4 7912   0.405   3.244   3.473 -0.1274 -0.1879 -0.0999
 1967SOL     OW 7913   0.422   3.496   3.341 -0.0427  0.2538 -0.1580
 1967SOL    HW2 7914   0.441   3.425   3.402  1.6127  0.6338 -0.1988
 1967SOL    HW3 7915   0.341   3.535   3.373  0.5252  0.1028  1.4777
 1967SOL    MW4 7916   0.414   3.492   3.353  0.2506  0.2837  0.0525
 1968SOL     OW 7917   0.648   3.596   3.449  0.4324 -0.1699 -0.1441
 1968SOL    HW2 7918   0.578   3.558   3.396  0.5932  1.0065 -1.2494
 1968SOL    HW3 7919   0.729   3.567   3.407  0.6007 -0.8996  0.6740
 1968SOL    MW4 7920   0.649   3.587   3.436  0.4759 -0.1111 -0.1819
 1969SOL     OW 7921   0.709   3.860   3.361  0.1139  0.6580  0.5137
 1969SOL    HW2 7922   0.696   3.774   3.403 -1.6439  0.9361  0.5484
 1969SOL    HW3 7923   0.788   3.894   3.403  0.4572 -0.6541  0.9820
 1969SOL    MW4 7924   0.718   3.853   3.372 -0.0727  0.5217  0.5801
 1970SOL     OW 7925   0.500   4.012   3.428 -0.6170 -0.1738 -0.7904
 1970SOL    HW2 7926   0.580   3.979   3.388 -0.6602 -0.8445 -0.3268
 1970SOL    HW3 7927   0.432   3.950   3.404 -0.1176 -2.1862  2.6144
 1970SOL    MW4 7928   0.502   4.000   3.420 -0.5568 -0.5276 -0.2799
 1971SOL     OW 7929   0.444   4.277   3.392 -0.0553 -0.0615 -0.2551
 1971SOL    HW2 7930   0.457   4.183   3.400 -1.2936 -0.1921  0.4187
 1971SOL    HW3 7931   0.455   4.296   3.299  1.5352 -0.6571 -0.1911
 1971SOL    MW4 7932   0.447   4.267   3.381 -0.0089 -0.1574 -0.1578
 1972SOL     OW 7933   0.707   4.365   3.471 -0.4927 -0.3658  0.2888
 1972SOL    HW2 7934   0.621   4.333   3.442  0.6861 -1.2763 -2.4153
 1972SOL    HW3 7935   0.712   4.454   3.437 -0.5384 -0.1771  0.7846
 1972SOL    MW4 7936   0.696   4.372   3.463 -0.3432 -0.4611 -0.0026
 1973SOL     OW 7937   1.111   4.660   3.415 -0.2978 -0.1509  0.3945
 1973SOL    HW2 7938   1.199   4.691   3.437 -0.4483 -0.3769  1.3578
 1973SOL    HW3 7939   1.119   4.625   3.327  0.8119 -1.0615  0.8472
 1973SOL    MW4 7940   1.123   4.660   3.407 -0.1713 -0.3009  0.5810
 1974SOL     OW 7941   0.875   0.361   3.857  0.5050  0.3636 -0.0884
 1974SOL    HW2 7942   0.848   0.350   3.949 -0.7746  1.5080 -0.3112
 1974SOL    HW3 7943   0.883   0.272   3.824 -0.5504 -0.0455  0.7161
 1974SOL    MW4 7944   0.872   0.348   3.865  0.1969  0.4606 -0.0114
 1975SOL     OW 7945   0.873   0.134   3.525 -0.0068  0.5886  0.1105
 1975SOL    HW2 7946   0.955   0.098   3.490 -1.0910 -1.3391 -0.5523
 1975SOL    HW3 7947   0.876   0.113   3.619 -0.2564 -0.5758 -0.1242
 1975SOL    MW4 7948   0.884   0.126   3.533 -0.1828  0.1806 -0.0079
 1976SOL     OW 7949   1.102   0.476   3.540 -0.5754  0.5343  0.4357
 1976SOL    HW2 7950   1.098   0.477   3.636 -0.8568 -0.8093  0.4464
 1976SOL    HW3 7951   1.098   0.568   3.515  3.3222  1.1792  1.8415
 1976SOL    MW4 7952   1.101   0.488   3.549 -0.0982  0.4421  0.6227
 1977SOL     OW 7953   1.077   0.742   3.399  0.1255 -0.0868  0.5126
 1977SOL    HW2 7954   1.157   0.789   3.423  0.1417  0.4687 -0.5998
 1977SOL    HW3 7955   1.006   0.803   3.419 -0.0517 -0.7144  1.8327
 1977SOL    MW4 7956   1.078   0.756   3.405  0.1042 -0.0963  0.5400
 1978SOL     OW 7957   0.861   0.890   3.485  0.4062 -0.2720 -0.0553
 1978SOL    HW2 7958   0.866   0.975   3.441 -0.6417 -0.3235 -0.3039
 1978SOL    HW3 7959   0.793   0.843   3.437  1.1295 -1.3371 -0.0604
 1978SOL    MW4 7960   0.853   0.895   3.473  0.3633 -0.4193 -0.0885
 1979SOL     OW 7961   1.095   1.281   3.465  0.1119  0.1539 -0.0076
 1979SOL    HW2 7962   1.079   1.275   3.559 -0.2711 -1.0086 -0.1293
 1979SOL    HW3 7963   1.116   1.373   3.450 -1.4421  0.6950  0.9603
 1979SOL    MW4 7964   1.096   1.292   3.476 -0.1436  0.0720  0.1037
 1980SOL     OW 7965   1.089   1.279   3.737 -0.6100  0.1072 -0.2492
 1980SOL    HW2 7966   1.157   1.219   3.768 -0.3420 -0.1404 -1.2950
 1980SOL    HW3 7967   1.120   1.366   3.764  0.7480  0.1332 -1.7311
 1980SOL    MW4 7968   1.102   1.283   3.744 -0.3954  0.0781 -0.5829
 1981SOL     OW 7969   1.119   1.543   3.403 -0.1872 -0.1156 -0.6509
 1981SOL    HW2 7970   1.205   1.579   3.425 -1.1887  1.5802  0.5847
 1981SOL    HW3 7971   1.124   1.525   3.309  1.6234 -0.3558 -0.5215
 1981SOL    MW4 7972   1.131   1.545   3.393 -0.0806  0.0764 -0.4711
 1982SOL     OW 7973   0.883   1.668   3.503  0.2108  0.1583 -0.2472
 1982SOL    HW2 7974   0.876   1.752   3.457 -0.6786 -0.8765 -2.1071
 1982SOL    HW3 7975   0.963   1.628   3.469 -1.0006 -1.0700 -1.7538
 1982SOL    MW4 7976   0.892   1.674   3.492 -0.0664 -0.1404 -0.6914
 1983SOL     OW 7977   0.896   1.925   3.403  0.5096 -0.6837  0.4455
 1983SOL    HW2 7978   0.966   1.964   3.456 -0.0042  0.9781 -0.0558
 1983SOL    HW3 7979   0.816   1.963   3.439  0.0272 -0.8829 -0.4092
 1983SOL    MW4 7980   0.895   1.935   3.415  0.3781 -0.4908  0.2668
 1984SOL     OW 7981   1.140   2.058   3.467  0.6818 -0.8176 -0.4806
 1984SOL    HW2 7982   1.208   2.009   3.420  1.5155 -0.1535  0.0289
 1984SOL    HW3 7983   1.146   2.147   3.431 -0.4473 -0.9368 -0.9924
 1984SOL    MW4 7984   1.150   2.063   3.456  0.6428 -0.7458 -0.4809
 1985SOL     OW 7985   1.142   2.298   3.349  0.4250  0.2172  0.1326
 1985SOL    HW2 7986   1.215   2.356   3.371 -0.1764  0.5708  1.2595
 1985SOL    HW3 7987   1.135   2.303   3.254  1.2692  0.9068  0.1016
 1985SOL    MW4 7988   1.151   2.306   3.339  0.4570  0.3550  0.2773
 1986SOL     OW 7989   0.914   2.453   3.459  0.0766  0.3570 -0.1472
 1986SOL    HW2 7990   0.919   2.439   3.553 -0.7728  1.0219  0.0054
 1986SOL    HW3 7991   0.987   2.403   3.423  0.2686 -0.0829  0.8409
 1986SOL    MW4 7992   0.924   2.445   3.466 -0.0102  0.3867  0.0029
 1987SOL     OW 7993   0.919   2.724   3.396  0.0822 -0.0634  0.3613
 1987SOL    HW2 7994   1.002   2.762   3.425  1.1995 -0.7984 -1.7836
 1987SOL    HW3 7995   0.925   2.632   3.421  0.4233 -0.3705 -0.8024
 1987SOL    MW4 7996   0.931   2.717   3.403  0.2745 -0.2010 -0.0753
 1988SOL     OW 7997   1.157   2.844   3.462  0.1153 -0.6068 -0.0922
 1988SOL    HW2 7998   1.149   2.832   3.557 -1.9023  0.9399 -0.0132
 1988SOL    HW3 7999   1.234   2.794   3.437  1.0801 -0.4626  2.4758
 1988SOL    MW4 8000   1.166   2.836   3.471 -0.0236 -0.3839  0.2568
 1989SOL     OW 8001   1.127   3.116   3.365 -0.3133  0.4043  0.0700
 1989SOL    HW2 8002   1.141   3.024   3.386 -1.1374  0.7069  1.9856
 1989SOL    HW3 8003   1.092   3.115   3.276 -0.1340 -1.1011  0.0008
 1989SOL    MW4 8004   1.124   3.104   3.356 -0.3985  0.2453  0.3133
 1990SOL     OW 8005   0.878   3.261   3.504 -0.0495  0.3472 -0.0678
 1990SOL    HW2 8006   0.949   3.214   3.460 -0.6512  0.6605 -1.4043
 1990SOL    HW3 8007   0.798   3.216   3.475 -0.4495  0.5603  0.7061
 1990SOL    MW4 8008   0.877   3.248   3.494 -0.1816  0.4165 -0.1421
 1991SOL     OW 8009   0.902   3.499   3.366 -0.4054 -0.5180 -0.4077
 1991SOL    HW2 8010   0.894   3.422   3.422  0.5727  1.0643  2.0374
 1991SOL    HW3 8011   0.992   3.529   3.380 -1.2544  1.9760 -0.0079
 1991SOL    MW4 8012   0.913   3.493   3.375 -0.3883  0.0200 -0.0324
 1992SOL     OW 8013   1.157   3.623   3.447  0.4503  0.2067  0.3664
 1992SOL    HW2 8014   1.168   3.627   3.541 -1.0829 -1.2927  0.6391
 1992SOL    HW3 8015   1.164   3.714   3.418  0.5701  0.7173  1.9564
 1992SOL    MW4 8016   1.159   3.636   3.455  0.2638  0.0761  0.6123
 1993SOL     OW 8017   1.183   3.883   3.370  0.1836  0.3624  0.4896
 1993SOL    HW2 8018   1.257   3.934   3.404  0.1615  1.3395 -0.8912
 1993SOL    HW3 8019   1.106   3.925   3.408  0.2537  0.2886  0.7168
 1993SOL    MW4 8020   1.183   3.896   3.380  0.1899  0.4816  0.3374
 1994SOL     OW 8021   0.942   3.968   3.455  0.0566  0.1098 -0.3365
 1994SOL    HW2 8022   0.924   4.056   3.421 -1.0543  0.1300  0.2852
 1994SOL    HW3 8023   0.937   3.978   3.550  2.1424 -0.1602 -0.1811
 1994SOL    MW4 8024   0.939   3.981   3.463  0.1853  0.0768 -0.2339
 1995SOL     OW 8025   0.953   4.253   3.399  0.5302 -0.0645  0.5545
 1995SOL    HW2 8026   0.868   4.294   3.415  0.0824 -0.1447 -1.4740
 1995SOL    HW3 8027   0.959   4.246   3.304  2.3281 -1.0886  0.7120
 1995SOL    MW4 8028   0.943   4.257   3.389  0.7084 -0.2103  0.3073
 1996SOL     OW 8029   1.153   4.384   3.509  0.3306  0.1601  0.0272
 1996SOL    HW2 8030   1.081   4.331   3.476  1.0026 -0.6915 -0.1001
 1996SOL    HW3 8031   1.126   4.474   3.495 -1.0502 -0.1341  0.6966
 1996SOL    MW4 8032   1.140   4.389   3.503  0.2371  0.0091  0.0989
 1997SOL     OW 8033   1.563   4.591   3.342 -0.5826 -0.2800  0.2182
 1997SOL    HW2 8034   1.575   4.512   3.395  0.1700  0.3486  0.9951
 1997SOL    HW3 8035   1.492   4.638   3.385 -0.3118 -0.0154  0.3775
 1997SOL    MW4 8036   1.555   4.587   3.355 -0.4475 -0.1626  0.3417
 1998SOL     OW 8037   1.359   0.055   3.496 -0.4600  0.4931 -0.1589
 1998SOL    HW2 8038   1.358   0.047   3.592  0.7318  0.6288 -0.1217
 1998SOL    HW3 8039   1.340   0.148   3.480  1.0972  0.8620  0.0291
 1998SOL    MW4 8040   1.357   0.067   3.507 -0.0974  0.5597 -0.1292
 1999SOL     OW 8041   1.311   0.315   3.420  0.1492 -0.0644  0.0474
 1999SOL    HW2 8042   1.388   0.367   3.446  0.0808 -0.8177  1.8586
 1999SOL    HW3 8043   1.238   0.356   3.466 -0.3475 -0.1104 -0.6940
 1999SOL    MW4 8044   1.312   0.327   3.430  0.0745 -0.1698  0.1886
 2000SOL     OW 8045   1.534   0.435   3.513  0.0609 -0.1502 -0.6060
 2000SOL    HW2 8046   1.549   0.458   3.605 -2.2795  0.2815 -0.2805
 2000SOL    HW3 8047   1.621   0.425   3.476  1.0406 -0.6744  1.7499
 2000SOL    MW4 8048   1.547   0.437   3.520 -0.1185 -0.1624 -0.2522
 2001SOL     OW 8049   1.542   0.724   3.399 -0.1624  0.1294 -0.1338
 2001SOL    HW2 8050   1.470   0.784   3.418 -0.1038  0.3680 -0.6541
 2001SOL    HW3 8051   1.516   0.641   3.441 -0.4886  0.3638  0.1289
 2001SOL    MW4 8052   1.529   0.721   3.407 -0.1976  0.1917 -0.1678
 2002SOL     OW 8053   1.310   0.879   3.475 -0.1184  0.8816  0.1724
 2002SOL    HW2 8054   1.322   0.876   3.570  2.0390 -0.5302 -0.1093
 2002SOL    HW3 8055   1.312   0.972   3.453 -0.7512  1.2225  1.5192
 2002SOL    MW4 8056   1.312   0.890   3.485  0.0826  0.7403  0.3130
 2003SOL     OW 8057   1.324   1.134   3.376  0.6094 -0.1253 -0.3602
 2003SOL    HW2 8058   1.397   1.174   3.424  1.0992 -0.2409 -1.0103
 2003SOL    HW3 8059   1.247   1.182   3.406  0.8109 -0.6525  1.0857
 2003SOL    MW4 8060   1.323   1.146   3.386  0.7007 -0.2100 -0.2551
 2004SOL     OW 8061   1.523   1.258   3.494  0.5037  0.3986 -0.2077
 2004SOL    HW2 8062   1.527   1.258   3.589  0.0066  0.6847 -0.1870
 2004SOL    HW3 8063   1.604   1.214   3.466  0.2862 -0.3715  0.3605
 2004SOL    MW4 8064   1.535   1.252   3.503  0.4094  0.3347 -0.1302
 2005SOL     OW 8065   1.580   1.529   3.396 -0.2485 -0.0076 -0.2129
 2005SOL    HW2 8066   1.562   1.437   3.414  0.1794 -0.0321  0.0970
 2005SOL    HW3 8067   1.583   1.535   3.301  1.1749 -0.5986 -0.2202
 2005SOL    MW4 8068   1.578   1.518   3.386 -0.0044 -0.0887 -0.1731
 2006SOL     OW 8069   1.348   1.665   3.460  0.4903  0.1520 -0.1445
 2006SOL    HW2 8070   1.351   1.660   3.555  0.4275 -0.9486 -0.1992
 2006SOL    HW3 8071   1.434   1.633   3.432  0.3568  0.0842 -0.4765
 2006SOL    MW4 8072   1.360   1.660   3.469  0.4642 -0.0021 -0.1955
 2007SOL     OW 8073   1.349   1.919   3.375  0.1266 -0.4277  0.6256
 2007SOL    HW2 8074   1.430   1.958   3.408  0.4993  0.1525 -0.9177
 2007SOL    HW3 8075   1.345   1.833   3.416 -0.1555  0.7991  3.2522
 2007SOL    MW4 8076   1.360   1.913   3.384  0.1386 -0.1893  0.7687
 2008SOL     OW 8077   1.585   2.042   3.500  0.1651 -0.1468 -0.1152
 2008SOL    HW2 8078   1.643   1.984   3.451  0.5331 -0.3450  0.5608
 2008SOL    HW3 8079   1.600   2.129   3.462 -0.0465 -0.4054 -0.8102
 2008SOL    MW4 8080   1.594   2.046   3.488  0.1858 -0.2067 -0.1175
 2009SOL     OW 8081   1.584   2.277   3.373  0.2844 -0.3645 -0.3009
 2009SOL    HW2 8082   1.504   2.315   3.410 -0.2325 -0.5437 -1.2202
 2009SOL    HW3 8083   1.581   2.302   3.280  1.6870  0.2955 -0.1797
 2009SOL    MW4 8084   1.573   2.285   3.366  0.4011 -0.3009 -0.4063
 2010SOL     OW 8085   1.367   2.414   3.474  0.3914 -0.5952 -0.0994
 2010SOL    HW2 8086   1.345   2.413   3.567  1.0789  0.2814  0.0835
 2010SOL    HW3 8087   1.352   2.505   3.446 -0.5704 -1.0257 -1.0378
 2010SOL    MW4 8088   1.362   2.426   3.482  0.3552 -0.5367 -0.1991
 2011SOL     OW 8089   1.363   2.687   3.408  0.0725 -0.4487 -0.0071
 2011SOL    HW2 8090   1.440   2.715   3.457  0.0421 -1.2114  0.4988
 2011SOL    HW3 8091   1.388   2.696   3.316  0.7654 -0.6704  0.1519
 2011SOL    MW4 8092   1.376   2.692   3.403  0.1599 -0.5786  0.0806
 2012SOL     OW 8093   1.590   2.820   3.518 -0.1219  0.2527  0.2946
 2012SOL    HW2 8094   1.675   2.808   3.477 -0.8004 -0.0807 -1.0577
 2012SOL    HW3 8095   1.561   2.906   3.490 -0.2885  0.3229  0.6689
 2012SOL    MW4 8096   1.597   2.830   3.509 -0.2334  0.2182  0.1655
 2013SOL     OW 8097   1.571   3.065   3.374  0.1437 -0.2292 -0.1824
 2013SOL    HW2 8098   1.648   3.121   3.385 -0.2326  0.7997 -2.4406
 2013SOL    HW3 8099   1.498   3.116   3.410  0.0037  0.2220 -1.0877
 2013SOL    MW4 8100   1.571   3.079   3.380  0.0756 -0.0339 -0.5994
 2014SOL     OW 8101   1.346   3.239   3.443 -0.3553 -0.0179  0.0346
 2014SOL    HW2 8102   1.348   3.229   3.538  2.0148  0.8113  0.1062
 2014SOL    HW3 8103   1.262   3.202   3.416 -1.0435 -0.2492  2.4468
 2014SOL    MW4 8104   1.336   3.233   3.452 -0.1334  0.0610  0.3624
 2015SOL     OW 8105   1.385   3.501   3.342 -0.0734 -0.0971  0.4385
 2015SOL    HW2 8106   1.388   3.416   3.386  1.3521 -0.8904 -1.1452
 2015SOL    HW3 8107   1.306   3.543   3.376 -0.0771 -1.5100  2.2293
 2015SOL    MW4 8108   1.375   3.496   3.352  0.1142 -0.3881  0.4659
 2016SOL     OW 8109   1.601   3.628   3.463  0.4259 -0.2910 -0.1412
 2016SOL    HW2 8110   1.581   3.633   3.556 -0.8619 -0.3845 -0.4036
 2016SOL    HW3 8111   1.530   3.576   3.426  0.4808  0.4465 -1.3093
 2016SOL    MW4 8112   1.589   3.622   3.470  0.2632 -0.2060 -0.3300
 2017SOL     OW 8113   1.612   3.882   3.359  0.0179  0.3294  0.3936
 2017SOL    HW2 8114   1.604   3.787   3.372 -0.0149  0.4616  1.3350
 2017SOL    HW3 8115   1.580   3.896   3.270  0.2903 -0.5829  0.1469
 2017SOL    MW4 8116   1.607   3.871   3.349  0.0494  0.2263  0.4852
 2018SOL     OW 8117   1.389   4.007   3.488 -0.4404 -0.5305 -0.4005
 2018SOL    HW2 8118   1.379   4.095   3.451  1.5147 -0.5601 -1.0979
 2018SOL    HW3 8119   1.461   3.969   3.438 -0.4256 -2.0633  0.7643
 2018SOL    MW4 8120   1.397   4.014   3.476 -0.1805 -0.7372 -0.3390
 2019SOL     OW 8121   1.373   4.261   3.364 -0.2706  0.2341 -0.1915
 2019SOL    HW2 8122   1.286   4.292   3.390 -0.9318 -1.5807 -0.1976
 2019SOL    HW3 8123   1.375   4.271   3.269 -0.7041 -0.3227 -0.2575
 2019SOL    MW4 8124   1.362   4.267   3.355 -0.4151 -0.0782 -0.2010
 2020SOL     OW 8125   1.600   4.361   3.481 -0.0519 -0.2592 -0.4436
 2020SOL    HW2 8126   1.680   4.325   3.443 -0.6326 -0.8312 -1.1506
 2020SOL    HW3 8127   1.529   4.312   3.438 -0.8445  1.3262 -1.0092
 2020SOL    MW4 8128   1.601   4.350   3.470 -0.2332 -0.1259 -0.6113
 2021SOL     OW 8129   1.995   4.658   3.352  0.4416  0.3381 -0.2079
 2021SOL    HW2 8130   2.059   4.713   3.397 -0.2885  2.0000 -1.1337
 2021SOL    HW3 8131   1.910   4.696   3.376 -0.0955 -0.6187 -0.5804
 2021SOL    MW4 8132   1.992   4.670   3.361  0.2744  0.4311 -0.3796
 2022SOL     OW 8133   1.758   0.118   3.460 -0.3661 -0.2133 -0.2072
 2022SOL    HW2 8134   1.769   0.085   3.550 -0.7639  0.8933  0.2646
 2022SOL    HW3 8135   1.712   0.048   3.414 -1.1378 -0.3558  0.7549
 2022SOL    MW4 8136   1.753   0.104   3.466 -0.5203 -0.0861 -0.0181
 2023SOL     OW 8137   1.776   0.408   3.406 -0.0124  0.7693 -0.0029
 2023SOL    HW2 8138   1.781   0.315   3.430  1.1283  0.8415  0.0998
 2023SOL    HW3 8139   1.782   0.408   3.311 -2.2907  0.6177 -0.1790
 2023SOL    MW4 8140   1.778   0.396   3.397 -0.1625  0.7589 -0.0126
 2024SOL     OW 8141   2.012   0.495   3.519  0.1062 -0.3036  0.0199
 2024SOL    HW2 8142   2.029   0.585   3.491  0.2753 -0.2440  0.3040
 2024SOL    HW3 8143   1.933   0.469   3.472  0.6641 -0.3853 -0.8871
 2024SOL    MW4 8144   2.004   0.504   3.509  0.2022 -0.3065 -0.0620
 2025SOL     OW 8145   2.002   0.759   3.428  0.1714 -0.1745  0.2307
 2025SOL    HW2 8146   2.083   0.809   3.437  0.2452 -0.5463  1.9516
 2025SOL    HW3 8147   1.989   0.749   3.334  1.3957  1.0629 -0.0760
 2025SOL    MW4 8148   2.011   0.764   3.417  0.3426 -0.0603  0.4175
 2026SOL     OW 8149   1.749   0.880   3.516  0.0933 -0.2100  0.6928
 2026SOL    HW2 8150   1.828   0.854   3.470 -0.3101  0.5253 -0.4397
 2026SOL    HW3 8151   1.683   0.815   3.490 -0.3252  0.6247 -0.3592
 2026SOL    MW4 8152   1.750   0.868   3.507 -0.0151 -0.0028  0.4046
 2027SOL     OW 8153   1.748   1.123   3.413 -0.0597  0.2198  0.4596
 2027SOL    HW2 8154   1.834   1.156   3.440 -0.6412  0.9159  1.5100
 2027SOL    HW3 8155   1.745   1.033   3.445 -0.0879  0.5038  1.2622
 2027SOL    MW4 8156   1.759   1.116   3.421 -0.1402  0.3492  0.7041
 2028SOL     OW 8157   2.014   1.254   3.464 -0.3649  0.1415  0.2438
 2028SOL    HW2 8158   2.027   1.242   3.558 -0.5264  2.0126  0.5242
 2028SOL    HW3 8159   2.012   1.349   3.452  1.6360 -0.0446 -1.9292
 2028SOL    MW4 8160   2.016   1.265   3.475 -0.1223  0.3638 -0.0057
 2029SOL     OW 8161   2.038   1.524   3.434 -0.0926  0.5489 -0.0919
 2029SOL    HW2 8162   2.114   1.576   3.461 -0.7167  0.5856  1.6624
 2029SOL    HW3 8163   1.963   1.582   3.450 -0.6233 -0.1116 -0.1752
 2029SOL    MW4 8164   2.038   1.538   3.439 -0.2451  0.4666  0.1285
 2030SOL     OW 8165   1.814   1.676   3.475  0.0116 -0.3957 -0.2624
 2030SOL    HW2 8166   1.805   1.766   3.445  0.2305  0.4829  2.2001
 2030SOL    HW3 8167   1.741   1.629   3.434 -0.6250  1.0933 -0.8423
 2030SOL    MW4 8168   1.803   1.681   3.466 -0.0435 -0.0834 -0.0138
 2031SOL     OW 8169   1.787   1.925   3.371  0.9578  0.0324 -0.2713
 2031SOL    HW2 8170   1.850   1.987   3.408 -0.3742  1.5394 -0.4927
 2031SOL    HW3 8171   1.792   1.939   3.276 -0.7873  1.2368 -0.2021
 2031SOL    MW4 8172   1.796   1.935   3.363  0.5517  0.3901 -0.2913
 2032SOL     OW 8173   1.995   2.073   3.486  0.1581  0.0254  0.2743
 2032SOL    HW2 8174   2.081   2.041   3.460  0.0555 -0.1126  0.1011
 2032SOL    HW3 8175   1.990   2.161   3.449 -1.4424 -1.5240 -3.3908
 2032SOL    MW4 8176   2.006   2.080   3.478 -0.0668 -0.1972 -0.2322
 2033SOL     OW 8177   2.003   2.332   3.384 -0.1718  0.2848  0.3611
 2033SOL    HW2 8178   2.082   2.375   3.417  0.2478 -0.5224  0.4238
 2033SOL    HW3 8179   2.017   2.326   3.289  0.3800 -0.9128  0.5047
 2033SOL    MW4 8180   2.015   2.337   3.375 -0.0436  0.0200  0.3884
 2034SOL     OW 8181   1.783   2.447   3.476  0.1616  0.0064  0.2392
 2034SOL    HW2 8182   1.862   2.404   3.443  0.8656 -0.4568  2.4327
 2034SOL    HW3 8183   1.711   2.394   3.443  0.7965 -0.1228 -0.9880
 2034SOL    MW4 8184   1.784   2.435   3.467  0.3383 -0.0718  0.3664
 2035SOL     OW 8185   1.821   2.723   3.383  0.1471  0.2319 -0.5587
 2035SOL    HW2 8186   1.909   2.735   3.418  0.7924 -0.4475 -1.9155
 2035SOL    HW3 8187   1.797   2.634   3.408 -1.6216  1.5870  2.9264
 2035SOL    MW4 8188   1.829   2.713   3.391 -0.0010  0.3211 -0.2778
 2036SOL     OW 8189   2.087   2.794   3.432  0.3479 -0.6456  0.5390
 2036SOL    HW2 8190   2.078   2.795   3.527  2.2443  0.5368  0.7393
 2036SOL    HW3 8191   2.055   2.879   3.404  0.0430 -0.8924  0.1247
 2036SOL    MW4 8192   2.082   2.805   3.441  0.5579 -0.5221  0.5107
 2037SOL     OW 8193   2.040   3.062   3.382 -0.3603 -0.1216 -0.5423
 2037SOL    HW2 8194   2.105   3.116   3.427  0.5251 -0.6416 -1.1859
 2037SOL    HW3 8195   1.956   3.093   3.416  0.2641 -0.1360  1.0508
 2037SOL    MW4 8196   2.038   3.073   3.392 -0.1612 -0.1922 -0.4168
 2038SOL     OW 8197   1.800   3.196   3.487 -0.0237  0.0196 -0.0072
 2038SOL    HW2 8198   1.811   3.184   3.581 -0.3219 -0.2625 -0.0026
 2038SOL    HW3 8199   1.780   3.289   3.476 -0.4975 -0.0459  0.2649
 2038SOL    MW4 8200   1.799   3.206   3.498 -0.1256 -0.0262  0.0293
 2039SOL     OW 8201   1.805   3.462   3.385  0.1869  0.2495  0.3994
 2039SOL    HW2 8202   1.737   3.519   3.420  0.4691  1.0270 -0.2879
 2039SOL    HW3 8203   1.793   3.467   3.290  0.6800 -0.2547  0.3079
 2039SOL    MW4 8204   1.794   3.470   3.377  0.2892  0.2856  0.2966
 2040SOL     OW 8205   2.041   3.597   3.478 -0.1620 -0.1008  0.4003
 2040SOL    HW2 8206   2.121   3.557   3.444  0.7334  1.9076  0.0324
 2040SOL    HW3 8207   1.971   3.546   3.439  0.9351 -2.3102  1.2547
 2040SOL    MW4 8208   2.043   3.585   3.468  0.1006 -0.1278  0.4647
 2041SOL     OW 8209   2.066   3.841   3.328 -0.0371 -0.6505 -0.0323
 2041SOL    HW2 8210   1.991   3.873   3.379  1.6266 -0.4550  2.3417
 2041SOL    HW3 8211   2.073   3.748   3.351  0.4751 -0.6602 -0.2155
 2041SOL    MW4 8212   2.057   3.833   3.338  0.2499 -0.6261  0.2565
 2042SOL     OW 8213   1.860   3.973   3.467  0.0704 -0.1686 -0.1451
 2042SOL    HW2 8214   1.840   3.990   3.559 -0.5939  0.9293 -0.4834
 2042SOL    HW3 8215   1.776   3.945   3.429 -0.6214  3.2884 -1.3074
 2042SOL    MW4 8216   1.846   3.971   3.474 -0.1086  0.4323 -0.3433
 2043SOL     OW 8217   1.831   4.245   3.366  0.0963 -0.0134  0.0403
 2043SOL    HW2 8218   1.841   4.154   3.394 -2.8411 -0.3283  0.2266
 2043SOL    HW3 8219   1.825   4.240   3.270 -1.7872 -0.2234  0.1559
 2043SOL    MW4 8220   1.832   4.233   3.357 -0.5399 -0.0825  0.0801
 2044SOL     OW 8221   2.020   4.414   3.761  1.1264 -0.1011  0.2649
 2044SOL    HW2 8222   2.013   4.428   3.667 -1.4395  0.2610  0.4819
 2044SOL    HW3 8223   2.032   4.502   3.797  0.5065 -0.0668  0.3943
 2044SOL    MW4 8224   2.021   4.428   3.753  0.7060 -0.0491  0.3104
 2045SOL     OW 8225   2.439   4.641   3.374 -0.5264 -0.5203 -0.1086
 2045SOL    HW2 8226   2.447   4.549   3.401 -0.7321 -0.6161 -0.3739
 2045SOL    HW3 8227   2.442   4.638   3.279  1.6601 -0.0427 -0.0862
 2045SOL    MW4 8228   2.440   4.628   3.365 -0.2649 -0.4702 -0.1409
 2046SOL     OW 8229   2.217   0.126   3.437  0.2195 -0.2350 -0.2148
 2046SOL    HW2 8230   2.229   0.220   3.423  0.1470 -0.0114  1.1346
 2046SOL    HW3 8231   2.305   0.089   3.432  0.3859  0.0754  0.4280
 2046SOL    MW4 8232   2.230   0.133   3.434  0.2322 -0.1645  0.0479
 2047SOL     OW 8233   2.251   0.383   3.398 -0.2220  0.2245 -0.1765
 2047SOL    HW2 8234   2.327   0.422   3.440  0.3947 -0.4001 -0.7054
 2047SOL    HW3 8235   2.176   0.420   3.444  0.3770  1.4909 -0.2120
 2047SOL    MW4 8236   2.251   0.393   3.410 -0.0615  0.3092 -0.2511
 2048SOL     OW 8237   2.491   0.490   3.499  0.0320  0.3581 -1.0637
 2048SOL    HW2 8238   2.566   0.450   3.454  0.2539  0.4685 -0.7968
 2048SOL    HW3 8239   2.493   0.582   3.471 -0.1473  0.3072 -1.2443
 2048SOL    MW4 8240   2.501   0.497   3.490  0.0379  0.3659 -1.0521
 2049SOL     OW 8241   2.475   0.770   3.411 -0.2053 -0.4337  0.3117
 2049SOL    HW2 8242   2.562   0.806   3.429 -1.0488  1.3248  0.9454
 2049SOL    HW3 8243   2.457   0.796   3.320 -0.3275 -0.2557  0.3863
 2049SOL    MW4 8244   2.484   0.778   3.401 -0.3326 -0.1782  0.4053
 2050SOL     OW 8245   2.236   0.893   3.542  0.2160  0.4028 -0.8275
 2050SOL    HW2 8246   2.225   0.970   3.486  0.3215  0.1192 -1.2389
 2050SOL    HW3 8247   2.323   0.861   3.522  0.0242 -0.0502 -0.9384
 2050SOL    MW4 8248   2.246   0.899   3.532  0.2046  0.3056 -0.8965
 2051SOL     OW 8249   2.245   1.111   3.351  0.0586  0.1733 -0.0044
 2051SOL    HW2 8250   2.168   1.165   3.369  0.1360  0.3545 -0.2208
 2051SOL    HW3 8251   2.316   1.152   3.400 -0.0628 -0.2139  0.5061
 2051SOL    MW4 8252   2.244   1.123   3.360  0.0527  0.1462  0.0343
 2052SOL     OW 8253   2.420   1.272   3.498  0.4503  0.2713  0.2363
 2052SOL    HW2 8254   2.434   1.270   3.593 -1.1377  0.4663  0.4847
 2052SOL    HW3 8255   2.500   1.234   3.461  1.6260  1.3883  1.5863
 2052SOL    MW4 8256   2.433   1.266   3.506  0.3958  0.4445  0.4470
 2053SOL     OW 8257   2.473   1.520   3.412 -0.2171 -0.5116 -0.1479
 2053SOL    HW2 8258   2.451   1.428   3.429  1.4853 -0.9389 -0.1985
 2053SOL    HW3 8259   2.492   1.523   3.318 -1.4830  0.1659 -0.4011
 2053SOL    MW4 8260   2.472   1.508   3.402 -0.1597 -0.4786 -0.1881
 2054SOL     OW 8261   2.261   1.676   3.516 -0.0618 -0.0301 -0.5500
 2054SOL    HW2 8262   2.249   1.638   3.603  1.6654  1.3081  0.3153
 2054SOL    HW3 8263   2.320   1.616   3.471 -0.7633 -0.5977 -0.7132
 2054SOL    MW4 8264   2.267   1.663   3.521  0.0737  0.0714 -0.4575
 2055SOL     OW 8265   2.220   1.937   3.418  0.8517  0.1679  0.5091
 2055SOL    HW2 8266   2.238   1.853   3.460  0.6722  0.0998  0.4480
 2055SOL    HW3 8267   2.220   1.919   3.325 -0.2814  0.0205  0.5311
 2055SOL    MW4 8268   2.222   1.924   3.412  0.6785  0.1395  0.5040
 2056SOL     OW 8269   2.492   2.044   3.464 -0.3457 -0.1627 -0.2648
 2056SOL    HW2 8270   2.510   2.027   3.556 -0.4420 -0.1200 -0.2381
 2056SOL    HW3 8271   2.407   2.003   3.448 -0.6406  0.4120 -0.1672
 2056SOL    MW4 8272   2.483   2.036   3.474 -0.3974 -0.0811 -0.2487
 2057SOL     OW 8273   2.483   2.324   3.386  0.5658 -0.0500  0.1286
 2057SOL    HW2 8274   2.552   2.380   3.422  0.0762  0.4853  0.2299
 2057SOL    HW3 8275   2.508   2.236   3.414  1.8383 -0.0112 -0.8270
 2057SOL    MW4 8276   2.495   2.320   3.395  0.6690  0.0260  0.0157
 2058SOL     OW 8277   2.245   2.434   3.484  0.0089 -0.5428 -0.3760
 2058SOL    HW2 8278   2.263   2.522   3.450 -0.0881  0.0194  0.9624
 2058SOL    HW3 8279   2.329   2.388   3.476 -0.3391 -0.8439 -2.5222
 2058SOL    MW4 8280   2.259   2.440   3.479 -0.0501 -0.5083 -0.4826
 2059SOL     OW 8281   2.321   2.672   3.381  0.3248  0.1714  0.0451
 2059SOL    HW2 8282   2.239   2.721   3.391  0.1761  0.2687 -1.6092
 2059SOL    HW3 8283   2.325   2.650   3.288  1.0893 -1.7393  0.4996
 2059SOL    MW4 8284   2.311   2.676   3.370  0.4060 -0.0679 -0.1130
 2060SOL     OW 8285   2.510   2.843   3.477  0.1763 -0.0491  0.1507
 2060SOL    HW2 8286   2.489   2.932   3.452  0.7259 -0.3964 -1.6078
 2060SOL    HW3 8287   2.431   2.792   3.459  0.4003 -0.2103 -0.3704
 2060SOL    MW4 8288   2.497   2.848   3.472  0.2785 -0.1163 -0.1502
 2061SOL     OW 8289   2.491   3.120   3.383 -0.0728  0.5124  0.0374
 2061SOL    HW2 8290   2.573   3.160   3.413  0.0409  0.0245  0.3804
 2061SOL    HW3 8291   2.503   3.109   3.289  0.9809 -1.2261  0.3532
 2061SOL    MW4 8292   2.504   3.124   3.374  0.0813  0.2186  0.1245
 2062SOL     OW 8293   2.246   3.222   3.470  0.0398  0.0929 -0.3802
 2062SOL    HW2 8294   2.245   3.226   3.566  1.2646  0.8871 -0.3904
 2062SOL    HW3 8295   2.325   3.173   3.449 -0.8426 -1.0812 -0.9647
 2062SOL    MW4 8296   2.256   3.216   3.480  0.0851  0.0429 -0.4585
 2063SOL     OW 8297   2.253   3.473   3.336  0.0056 -0.5451  0.3893
 2063SOL    HW2 8298   2.237   3.384   3.365  1.0302 -0.2829  1.7967
 2063SOL    HW3 8299   2.237   3.471   3.241 -1.4942 -1.8385  0.6670
 2063SOL    MW4 8300   2.249   3.461   3.327 -0.0572 -0.6812  0.6115
 2064SOL     OW 8301   2.482   3.583   3.459  0.5175 -0.2879 -0.0611
 2064SOL    HW2 8302   2.487   3.671   3.420  0.7519  0.3023  1.2673
 2064SOL    HW3 8303   2.407   3.542   3.415  0.3541  0.5991 -0.6392
 2064SOL    MW4 8304   2.473   3.589   3.448  0.5269 -0.0932  0.0381
 2065SOL     OW 8305   2.477   3.847   3.354 -0.3680 -0.4594  0.5086
 2065SOL    HW2 8306   2.550   3.879   3.407  0.9834 -0.1394 -1.5025
 2065SOL    HW3 8307   2.401   3.894   3.387  0.8358  1.4462  0.6521
 2065SOL    MW4 8308   2.476   3.857   3.365 -0.0308 -0.1659  0.2623
 2066SOL     OW 8309   2.266   3.981   3.454  0.2237 -0.4479 -0.3256
 2066SOL    HW2 8310   2.186   3.942   3.419 -0.5739 -0.0960  1.0622
 2066SOL    HW3 8311   2.249   4.075   3.455  0.1211 -0.4586  1.1922
 2066SOL    MW4 8312   2.253   3.988   3.450  0.1049 -0.4029  0.0577
 2067SOL     OW 8313   2.028   4.414   3.481 -0.2432 -0.4496  0.2771
 2067SOL    HW2 8314   2.021   4.490   3.423  1.3970  1.2607  2.2709
 2067SOL    HW3 8315   1.958   4.355   3.451 -2.0154  2.1198 -0.8611
 2067SOL    MW4 8316   2.018   4.416   3.469 -0.2604  0.1149  0.3901
 2068SOL     OW 8317   2.489   4.362   3.471  0.2288 -0.0213 -0.4594
 2068SOL    HW2 8318   2.484   4.356   3.566  0.3450  0.8717 -0.3945
 2068SOL    HW3 8319   2.413   4.313   3.439  1.3643 -2.1761  0.0341
 2068SOL    MW4 8320   2.479   4.355   3.479  0.3941 -0.1879 -0.3860
 2069SOL     OW 8321   2.899   4.634   3.430  0.0383 -0.0916  0.5354
 2069SOL    HW2 8322   2.823   4.675   3.470  0.9485  0.1728  2.0304
 2069SOL    HW3 8323   2.891   4.654   3.337 -2.4481 -1.2449  0.4542
 2069SOL    MW4 8324   2.888   4.642   3.423 -0.1695 -0.2089  0.7219
 2070SOL     OW 8325   2.675   0.094   3.504 -0.3060 -0.1708  0.2486
 2070SOL    HW2 8326   2.681   0.181   3.464  1.8643 -0.7642 -0.8565
 2070SOL    HW3 8327   2.610   0.048   3.451 -0.2999  0.2987 -0.1759
 2070SOL    MW4 8328   2.667   0.100   3.492 -0.0188 -0.1871  0.0470
 2071SOL     OW 8329   2.702   0.364   3.399  0.2586  0.1525  0.1963
 2071SOL    HW2 8330   2.770   0.412   3.447 -0.0069  0.6604  0.0651
 2071SOL    HW3 8331   2.723   0.380   3.307 -0.4499  0.8868  0.1607
 2071SOL    MW4 8332   2.714   0.373   3.393  0.1302  0.3164  0.1740
 2072SOL     OW 8333   2.917   0.509   3.504  0.2579  0.1410 -0.2194
 2072SOL    HW2 8334   2.928   0.502   3.599  0.2363 -0.4384 -0.2559
 2072SOL    HW3 8335   2.932   0.601   3.485 -1.0830  0.5216  0.5263
 2072SOL    MW4 8336   2.921   0.520   3.514  0.0784  0.1149 -0.1259
 2073SOL     OW 8337   2.938   0.777   3.415  0.1657 -0.0863 -0.1331
 2073SOL    HW2 8338   2.997   0.850   3.430  0.1250  0.0674 -0.7020
 2073SOL    HW3 8339   2.852   0.810   3.439  0.4529 -0.6347  1.6727
 2073SOL    MW4 8340   2.934   0.791   3.420  0.1984 -0.1384  0.0300
 2074SOL     OW 8341   2.710   0.897   3.454 -0.4612  0.2230 -0.1267
 2074SOL    HW2 8342   2.726   0.891   3.548  0.9081 -0.1481 -0.3771
 2074SOL    HW3 8343   2.699   0.991   3.438  0.6813  0.4225  0.1917
 2074SOL    MW4 8344   2.711   0.909   3.465 -0.1297  0.2005 -0.1175
 2075SOL     OW 8345   2.656   1.156   3.396 -0.0629 -0.1258  0.1342
 2075SOL    HW2 8346   2.732   1.193   3.440 -0.4386  2.0540 -0.9842
 2075SOL    HW3 8347   2.675   1.165   3.303 -0.9471 -1.1504 -0.1578
 2075SOL    MW4 8348   2.669   1.162   3.390 -0.2291  0.0267 -0.0520
 2076SOL     OW 8349   2.905   1.248   3.483  0.0037 -1.0528  0.0682
 2076SOL    HW2 8350   2.920   1.241   3.577 -1.6039 -2.0760  0.2564
 2076SOL    HW3 8351   2.986   1.213   3.444  0.4786 -1.0795  1.0587
 2076SOL    MW4 8352   2.918   1.243   3.490 -0.1457 -1.1911  0.2236
 2077SOL     OW 8353   2.936   1.511   3.394 -0.0748 -0.3005  0.3728
 2077SOL    HW2 8354   2.864   1.570   3.420 -0.2778 -0.7165  0.7604
 2077SOL    HW3 8355   2.903   1.424   3.414  0.9326 -0.4321  1.4807
 2077SOL    MW4 8356   2.922   1.508   3.400  0.0312 -0.3728  0.5701
 2078SOL     OW 8357   2.718   1.646   3.484  0.0815  0.0745 -0.1596
 2078SOL    HW2 8358   2.716   1.734   3.448 -1.2340 -0.2906 -1.0043
 2078SOL    HW3 8359   2.633   1.608   3.461  0.0605 -0.9037  1.4753
 2078SOL    MW4 8360   2.706   1.652   3.476 -0.0947 -0.1028 -0.0553
 2079SOL     OW 8361   2.714   1.900   3.384  0.5150 -0.9435 -0.5406
 2079SOL    HW2 8362   2.643   1.958   3.411  0.0077 -0.5617 -2.5545
 2079SOL    HW3 8363   2.712   1.904   3.288  2.6870 -1.6309 -0.6339
 2079SOL    MW4 8364   2.704   1.908   3.375  0.7343 -0.9838 -0.8190
 2080SOL     OW 8365   2.893   2.083   3.502  0.0757  0.3635  0.3912
 2080SOL    HW2 8366   2.880   2.075   3.596 -0.5787  0.7707  0.3315
 2080SOL    HW3 8367   2.850   2.006   3.465 -0.0591  0.4419  0.3865
 2080SOL    MW4 8368   2.886   2.072   3.510 -0.0284  0.4275  0.3827
 2081SOL     OW 8369   2.883   2.343   3.394  0.0712 -0.1377  0.5839
 2081SOL    HW2 8370   2.870   2.252   3.421 -1.7774 -0.0568  0.0501
 2081SOL    HW3 8371   2.890   2.340   3.299 -0.7306  0.3543  0.5058
 2081SOL    MW4 8372   2.882   2.331   3.385 -0.2785 -0.0622  0.5028
 2082SOL     OW 8373   2.675   2.465   3.533 -0.0206 -0.3287 -0.2653
 2082SOL    HW2 8374   2.745   2.427   3.480 -0.2477 -0.7053 -0.3074
 2082SOL    HW3 8375   2.679   2.559   3.516  0.0887 -0.4158 -0.7370
 2082SOL    MW4 8376   2.685   2.472   3.524 -0.0360 -0.3903 -0.3328
 2083SOL     OW 8377   2.735   2.719   3.358  0.3921  0.1482 -0.3000
 2083SOL    HW2 8378   2.650   2.758   3.378  0.1503 -0.2088 -0.6413
 2083SOL    HW3 8379   2.793   2.754   3.426 -0.2691 -0.4667  0.5935
 2083SOL    MW4 8380   2.732   2.729   3.370  0.2730  0.0198 -0.2272
 2084SOL     OW 8381   2.925   2.817   3.528  0.1908  0.6828 -0.0316
 2084SOL    HW2 8382   2.946   2.827   3.621 -0.3621  1.7226 -0.0128
 2084SOL    HW3 8383   3.003   2.779   3.490 -0.1711 -1.3183  1.1575
 2084SOL    MW4 8384   2.938   2.813   3.535  0.0701  0.5555  0.1280
 2085SOL     OW 8385   2.929   3.068   3.405  0.0268  0.3449 -0.3653
 2085SOL    HW2 8386   2.922   2.987   3.455  2.3276  0.3526  0.0086
 2085SOL    HW3 8387   2.898   3.045   3.317 -1.8036 -0.2562  0.4147
 2085SOL    MW4 8388   2.924   3.054   3.400  0.0889  0.2663 -0.2129
 2086SOL     OW 8389   2.730   3.231   3.501  0.6191 -0.4048 -0.1682
 2086SOL    HW2 8390   2.719   3.220   3.595 -1.2695 -1.0564 -0.4396
 2086SOL    HW3 8391   2.800   3.170   3.478 -0.2574 -1.7144  0.5353
 2086SOL    MW4 8392   2.738   3.221   3.510  0.2542 -0.6635 -0.1109
 2087SOL     OW 8393   2.697   3.472   3.339  0.5186 -0.7197  0.0127
 2087SOL    HW2 8394   2.717   3.393   3.389 -0.8467 -1.3387 -0.4037
 2087SOL    HW3 8395   2.616   3.505   3.378 -0.1244 -0.7632 -1.2668
 2087SOL    MW4 8396   2.689   3.466   3.351  0.2534 -0.8073 -0.2112
 2088SOL     OW 8397   2.891   3.648   3.466  0.0230 -0.0249  0.3200
 2088SOL    HW2 8398   2.910   3.730   3.421 -1.8618  0.6918  0.8056
 2088SOL    HW3 8399   2.823   3.606   3.412  1.8762 -1.9093 -0.6487
 2088SOL    MW4 8400   2.884   3.653   3.453  0.0186 -0.1791  0.2563
 2089SOL     OW 8401   2.905   3.891   3.332 -0.3203 -0.2467 -0.0237
 2089SOL    HW2 8402   2.974   3.934   3.383 -0.5729 -1.4910  1.3996
 2089SOL    HW3 8403   2.823   3.923   3.369 -0.5042 -0.7373  0.0040
 2089SOL    MW4 8404   2.904   3.901   3.343 -0.3779 -0.4754  0.1678
 2090SOL     OW 8405   2.679   3.981   3.472 -0.2396  0.2285  0.7025
 2090SOL    HW2 8406   2.680   3.986   3.568  0.0818  0.3506  0.6922
 2090SOL    HW3 8407   2.688   4.072   3.444 -1.3569  0.3032  0.5636
 2090SOL    MW4 8408   2.680   3.994   3.481 -0.3448  0.2546  0.6828
 2091SOL     OW 8409   2.712   4.232   3.364  0.0359  0.0877 -0.0538
 2091SOL    HW2 8410   2.796   4.269   3.391  0.3805 -0.7995  0.1128
 2091SOL    HW3 8411   2.646   4.285   3.408  0.5597 -0.5151  1.4823
 2091SOL    MW4 8412   2.714   4.244   3.373  0.1504 -0.1097  0.1707
 2092SOL     OW 8413   2.926   4.368   3.494  0.5607  0.0168  0.0465
 2092SOL    HW2 8414   2.916   4.370   3.589  0.4054  0.6021  0.0223
 2092SOL    HW3 8415   2.946   4.459   3.470  1.2777 -0.2593 -0.4099
 2092SOL    MW4 8416   2.927   4.381   3.503  0.6349  0.0577 -0.0167
 2093SOL     OW 8417   3.344   0.005   3.474 -0.3143  0.5797  0.0467
 2093SOL    HW2 8418   3.270   0.055   3.509  0.8567  1.1130  1.8635
 2093SOL    HW3 8419   3.335   0.012   3.379 -1.7978  1.8276  0.2529
 2093SOL    MW4 8420   3.333   0.012   3.466 -0.3557  0.8144  0.3135
 2094SOL     OW 8421   3.109   0.125   3.550  0.4698 -0.0811 -0.3030
 2094SOL    HW2 8422   3.102   0.208   3.503 -0.2710  0.7549  1.2361
 2094SOL    HW3 8423   3.051   0.065   3.502 -0.3194  0.7738 -0.4325
 2094SOL    MW4 8424   3.100   0.128   3.537  0.2682  0.1420 -0.1173
 2095SOL     OW 8425   3.151   0.386   3.420  0.2730  0.7649 -0.3979
 2095SOL    HW2 8426   3.072   0.438   3.435  0.8015  1.3999  0.2108
 2095SOL    HW3 8427   3.157   0.378   3.325 -0.4985  0.7419 -0.4487
 2095SOL    MW4 8428   3.142   0.392   3.409  0.2410  0.8456 -0.3245
 2096SOL     OW 8429   3.364   0.529   3.523  0.3573 -0.5152  0.2692
 2096SOL    HW2 8430   3.359   0.519   3.618  0.1344 -1.0068  0.2056
 2096SOL    HW3 8431   3.286   0.485   3.490  1.0633 -1.4136 -0.2264
 2096SOL    MW4 8432   3.353   0.522   3.531  0.4213 -0.6987  0.1953
 2097SOL     OW 8433   3.365   0.766   3.387  0.0572  0.0199 -0.7477
 2097SOL    HW2 8434   3.436   0.818   3.425 -1.7999  1.5356  0.7420
 2097SOL    HW3 8435   3.362   0.687   3.441  0.0971  0.3146 -0.3072
 2097SOL    MW4 8436   3.374   0.763   3.399 -0.1824  0.2587 -0.4933
 2098SOL     OW 8437   3.163   0.921   3.526  0.5463 -0.2449 -0.2192
 2098SOL    HW2 8438   3.147   1.001   3.476 -0.8373 -0.2477  0.1746
 2098SOL    HW3 8439   3.229   0.873   3.476  1.1377  0.9911 -0.6230
 2098SOL    MW4 8440   3.169   0.925   3.513  0.4416 -0.0823 -0.2205
 2099SOL     OW 8441   3.141   1.138   3.369  0.5197 -0.3303 -0.0420
 2099SOL    HW2 8442   3.208   1.202   3.394 -1.2911  1.5533  0.1613
 2099SOL    HW3 8443   3.141   1.139   3.273  2.0084 -1.6852 -0.0719
 2099SOL    MW4 8444   3.150   1.147   3.359  0.4773 -0.2606 -0.0193
 2100SOL     OW 8445   3.342   1.299   3.487 -0.4013  0.0157  0.2380
 2100SOL    HW2 8446   3.422   1.249   3.468 -0.5445  0.0750 -0.5325
 2100SOL    HW3 8447   3.359   1.386   3.452 -0.5486  0.2144  0.6620
 2100SOL    MW4 8448   3.355   1.304   3.480 -0.4394  0.0498  0.1922
 2101SOL     OW 8449   3.362   1.578   3.378 -0.2846  0.2766  0.1194
 2101SOL    HW2 8450   3.431   1.634   3.415 -0.7971 -0.8067  2.8438
 2101SOL    HW3 8451   3.283   1.603   3.426 -1.1428 -0.6907 -0.7750
 2101SOL    MW4 8452   3.361   1.589   3.389 -0.4652  0.0062  0.3610
 2102SOL     OW 8453   3.144   1.641   3.533 -0.0142 -0.1678  0.1229
 2102SOL    HW2 8454   3.125   1.731   3.509  1.6458  0.2314  0.2669
 2102SOL    HW3 8455   3.076   1.590   3.490 -1.6217  1.2425  0.9552
 2102SOL    MW4 8456   3.133   1.646   3.524 -0.0072  0.0710  0.2518
 2103SOL     OW 8457   3.110   1.912   3.450 -0.4663  0.0755 -0.1020
 2103SOL    HW2 8458   3.049   1.982   3.472 -1.5159 -1.1555  0.9689
 2103SOL    HW3 8459   3.113   1.912   3.354  1.1221  2.9004 -0.1157
 2103SOL    MW4 8460   3.103   1.921   3.440 -0.3951  0.2859  0.0372
 2104SOL     OW 8461   3.366   2.035   3.464  0.1892 -0.1751 -0.4929
 2104SOL    HW2 8462   3.339   2.121   3.432 -1.3367 -0.3923  0.1652
 2104SOL    HW3 8463   3.287   1.981   3.457  1.0445 -1.4330 -0.5939
 2104SOL    MW4 8464   3.352   2.039   3.459  0.1009 -0.3698 -0.4194
 2105SOL     OW 8465   3.369   2.312   3.405 -0.1709  0.0000  0.1123
 2105SOL    HW2 8466   3.456   2.344   3.426 -0.0663 -0.0463 -0.2541
 2105SOL    HW3 8467   3.311   2.358   3.466  0.0429  0.4596 -0.0333
 2105SOL    MW4 8468   3.373   2.322   3.416 -0.1290  0.0546  0.0443
 2106SOL     OW 8469   3.150   2.474   3.513  0.0897 -0.2270 -0.0712
 2106SOL    HW2 8470   3.161   2.557   3.465  1.3604 -1.0384 -1.2099
 2106SOL    HW3 8471   3.063   2.444   3.489 -0.8851  1.3979  1.3364
 2106SOL    MW4 8472   3.140   2.481   3.504  0.1287 -0.1197 -0.0355
 2107SOL     OW 8473   3.166   2.718   3.383  0.1506  0.3051  0.1902
 2107SOL    HW2 8474   3.252   2.754   3.405  1.4992 -1.5214 -1.8748
 2107SOL    HW3 8475   3.158   2.730   3.289 -0.4904 -2.2796 -0.1285
 2107SOL    MW4 8476   3.176   2.724   3.374  0.2437 -0.2770 -0.1245
 2108SOL     OW 8477   3.411   2.801   3.551  0.5406 -0.3466 -0.1609
 2108SOL    HW2 8478   3.488   2.764   3.508  0.8771  0.1223  0.0349
 2108SOL    HW3 8479   3.406   2.891   3.519  1.1996  0.2303  1.2991
 2108SOL    MW4 8480   3.420   2.808   3.541  0.6719 -0.2089  0.0577
 2109SOL     OW 8481   3.361   3.061   3.422  0.5123  0.3318  0.1092
 2109SOL    HW2 8482   3.441   3.108   3.443  0.4926  0.5366 -0.2908
 2109SOL    HW3 8483   3.293   3.106   3.472  0.3289  1.3348 -1.0294
 2109SOL    MW4 8484   3.362   3.073   3.432  0.4857  0.4909 -0.0937
 2110SOL     OW 8485   3.135   3.205   3.531  0.4884  0.1793 -0.1832
 2110SOL    HW2 8486   3.126   3.289   3.485  0.5514  0.1442 -0.2588
 2110SOL    HW3 8487   3.076   3.146   3.485  0.5995  0.1274 -0.2579
 2110SOL    MW4 8488   3.126   3.208   3.519  0.5114  0.1678 -0.2031
 2111SOL     OW 8489   3.114   3.481   3.418 -0.4129  0.5558 -0.4384
 2111SOL    HW2 8490   3.042   3.544   3.416 -0.9174 -0.0510 -1.4997
 2111SOL    HW3 8491   3.122   3.450   3.328  0.4893 -0.1630 -0.1210
 2111SOL    MW4 8492   3.105   3.485   3.406 -0.3603  0.3810 -0.5367
 2112SOL     OW 8493   3.356   3.601   3.517  0.3476  0.0821  0.2125
 2112SOL    HW2 8494   3.349   3.684   3.470 -0.0821  0.5522  1.0950
 2112SOL    HW3 8495   3.273   3.557   3.501  0.1422  0.3082  0.6482
 2112SOL    MW4 8496   3.344   3.606   3.508  0.2637  0.1738  0.3862
 2113SOL     OW 8497   3.354   3.863   3.386  0.5633  0.1387 -0.3710
 2113SOL    HW2 8498   3.413   3.929   3.422 -0.6371  1.1864 -0.2874
 2113SOL    HW3 8499   3.266   3.898   3.402 -0.1096 -1.6335 -0.0242
 2113SOL    MW4 8500   3.350   3.876   3.393  0.3164  0.0432 -0.3140
 2114SOL     OW 8501   3.115   3.997   3.471  0.2739 -0.3247 -0.3414
 2114SOL    HW2 8502   3.115   3.988   3.567  1.9802 -0.7710 -0.3569
 2114SOL    HW3 8503   3.122   4.091   3.456  0.1190 -0.2607 -0.0210
 2114SOL    MW4 8504   3.116   4.008   3.482  0.4787 -0.3753 -0.3014
 2115SOL     OW 8505   3.146   4.246   3.382 -0.2899  0.3405 -0.2391
 2115SOL    HW2 8506   3.221   4.297   3.412  0.1877  0.2608 -1.2502
 2115SOL    HW3 8507   3.070   4.290   3.420  0.3320 -0.1785  1.6173
 2115SOL    MW4 8508   3.145   4.259   3.391 -0.1445  0.2613 -0.1280
 2116SOL     OW 8509   3.352   4.406   3.513 -0.3909  0.0553 -0.1818
 2116SOL    HW2 8510   3.361   4.393   3.607 -1.9970 -0.2008 -0.0422
 2116SOL    HW3 8511   3.354   4.501   3.501  0.0027  0.0797  0.0928
 2116SOL    MW4 8512   3.353   4.417   3.524 -0.5507  0.0248 -0.1271
 2117SOL     OW 8513   3.796   4.630   3.385 -0.1157 -0.4164  0.0873
 2117SOL    HW2 8514   3.731   4.693   3.416  2.0038  2.1039 -0.4152
 2117SOL    HW3 8515   3.811   4.654   3.294  0.8692 -1.5286 -0.0552
 2117SOL    MW4 8516   3.790   4.642   3.377  0.2940 -0.2303  0.0021
 2118SOL     OW 8517   3.598   0.116   3.511 -0.0326  0.1636  0.0207
 2118SOL    HW2 8518   3.596   0.205   3.476 -1.1191 -0.3731 -1.3574
 2118SOL    HW3 8519   3.509   0.084   3.498  0.1061 -0.8040  1.3757
 2118SOL    MW4 8520   3.586   0.124   3.505 -0.1576 -0.0349  0.0174
 2119SOL     OW 8521   3.568   0.371   3.411  0.0259  0.1504 -0.4932
 2119SOL    HW2 8522   3.654   0.405   3.436 -0.0054 -0.2693  0.1852
 2119SOL    HW3 8523   3.506   0.431   3.452 -0.0085  0.6386 -1.2436
 2119SOL    MW4 8524   3.571   0.384   3.420  0.0174  0.1594 -0.5026
 2120SOL     OW 8525   3.834   0.520   4.291 -0.0212 -0.4393  0.0105
 2120SOL    HW2 8526   3.846   0.615   4.298  2.2301 -0.5654 -1.6798
 2120SOL    HW3 8527   3.849   0.488   4.380 -0.6740  0.7404  0.5729
 2120SOL    MW4 8528   3.837   0.528   4.304  0.1898 -0.3002 -0.1378
 2121SOL     OW 8529   3.785   0.470   3.528  0.3587  0.2831 -0.2336
 2121SOL    HW2 8530   3.861   0.424   3.494  0.1140 -1.3578  1.3633
 2121SOL    HW3 8531   3.799   0.474   3.623 -2.4705 -1.8723  0.3347
 2121SOL    MW4 8532   3.797   0.465   3.536 -0.0467 -0.2177  0.0522
 2122SOL     OW 8533   3.580   0.881   3.537  0.0005 -0.0862  0.1151
 2122SOL    HW2 8534   3.589   0.866   3.631 -0.4120  0.0280  0.1748
 2122SOL    HW3 8535   3.658   0.840   3.499  0.4990  0.4286  0.5610
 2122SOL    MW4 8536   3.592   0.874   3.544  0.0119 -0.0032  0.1819
 2123SOL     OW 8537   3.563   1.139   3.448 -0.0346 -0.2769 -0.2555
 2123SOL    HW2 8538   3.588   1.055   3.488  0.3104 -0.5145 -0.9615
 2123SOL    HW3 8539   3.573   1.124   3.354 -0.6161  0.3528 -0.4175
 2123SOL    MW4 8540   3.568   1.126   3.441 -0.0658 -0.2251 -0.3698
 2124SOL     OW 8541   3.797   1.268   3.510 -0.0756 -0.0074 -0.2637
 2124SOL    HW2 8542   3.807   1.279   3.605  0.5712 -2.5098  0.0090
 2124SOL    HW3 8543   3.715   1.219   3.501 -0.6072  1.0270 -1.0639
 2124SOL    MW4 8544   3.788   1.263   3.521 -0.0603 -0.2010 -0.3333
 2125SOL     OW 8545   3.809   1.538   3.409  0.2652 -0.6141  0.4245
 2125SOL    HW2 8546   3.880   1.578   3.459 -0.6689  0.7943  0.6777
 2125SOL    HW3 8547   3.809   1.447   3.437  1.9632 -0.6348  0.4150
 2125SOL    MW4 8548   3.818   1.532   3.419  0.3662 -0.4309  0.4566
 2126SOL     OW 8549   3.589   1.691   3.507  0.3468  0.1525 -0.1034
 2126SOL    HW2 8550   3.607   1.761   3.444  2.7683 -0.1566  0.2352
 2126SOL    HW3 8551   3.659   1.627   3.494 -0.6385 -1.2007  1.0729
 2126SOL    MW4 8552   3.600   1.692   3.497  0.5364 -0.0668  0.0966
 2127SOL     OW 8553   3.610   1.929   3.379  0.0431 -0.2356  0.3065
 2127SOL    HW2 8554   3.682   1.988   3.402  0.0583 -0.9897  2.2397
 2127SOL    HW3 8555   3.534   1.968   3.421 -0.5786  0.2085 -1.2038
 2127SOL    MW4 8556   3.610   1.942   3.388 -0.0370 -0.2763  0.3622
 2128SOL     OW 8557   3.853   2.033   3.465 -0.7258  0.2039  0.1725
 2128SOL    HW2 8558   3.843   2.025   3.560  0.4970  0.1234  0.3139
 2128SOL    HW3 8559   3.939   1.994   3.447 -1.4135 -0.7846 -1.1105
 2128SOL    MW4 8560   3.863   2.027   3.475 -0.6552  0.0627  0.0219
 2129SOL     OW 8561   3.848   2.313   3.377  0.1450 -0.2350 -0.0560
 2129SOL    HW2 8562   3.914   2.357   3.431 -0.2934  0.5983 -0.1911
 2129SOL    HW3 8563   3.847   2.223   3.409  0.9543 -0.1147  0.3217
 2129SOL    MW4 8564   3.857   2.307   3.388  0.1938 -0.1094 -0.0241
 2130SOL     OW 8565   3.605   2.416   3.486 -0.2002  0.0525 -0.4750
 2130SOL    HW2 8566   3.617   2.505   3.454 -1.3210  0.7670  1.0270
 2130SOL    HW3 8567   3.682   2.369   3.455  2.0723  2.3552  1.5122
 2130SOL    MW4 8568   3.616   2.422   3.478 -0.0484  0.4506 -0.0148
 2131SOL     OW 8569   3.624   2.697   3.408 -1.0458  0.3966  0.1200
 2131SOL    HW2 8570   3.704   2.741   3.439 -0.2834 -0.5476 -0.4761
 2131SOL    HW3 8571   3.634   2.694   3.313 -0.4636 -2.2092  0.2333
 2131SOL    MW4 8572   3.636   2.702   3.399 -0.8686 -0.0718  0.0563
 2132SOL     OW 8573   3.872   2.813   3.502  0.3808 -0.5055  0.2904
 2132SOL    HW2 8574   3.883   2.814   3.597  1.4309 -0.6654  0.1765
 2132SOL    HW3 8575   3.849   2.903   3.480  2.1767  0.0331  0.4868
 2132SOL    MW4 8576   3.871   2.825   3.512  0.7565 -0.4556  0.3014
 2133SOL     OW 8577   3.790   3.108   3.138 -0.0966 -0.5938 -0.1912
 2133SOL    HW2 8578   3.849   3.162   3.085  0.0608 -0.9751 -0.4053
 2133SOL    HW3 8579   3.702   3.136   3.111 -0.0721  2.2410  2.4156
 2133SOL    MW4 8580   3.786   3.119   3.127 -0.0727 -0.2701  0.1245
 2134SOL     OW 8581   3.611   3.195   3.525  0.5632  0.3737  0.0699
 2134SOL    HW2 8582   3.592   3.275   3.475 -2.8812 -0.9203 -0.8507
 2134SOL    HW3 8583   3.691   3.160   3.486  0.1046  1.4901 -1.9307
 2134SOL    MW4 8584   3.619   3.201   3.513  0.0482  0.3505 -0.3152
 2135SOL     OW 8585   3.581   3.452   3.425 -0.3370 -0.3004  0.5330
 2135SOL    HW2 8586   3.509   3.499   3.468  0.2176  0.9304  0.1211
 2135SOL    HW3 8587   3.570   3.470   3.332  0.6942  0.1643  0.4929
 2135SOL    MW4 8588   3.570   3.461   3.418 -0.1278 -0.0768  0.4735
 2136SOL     OW 8589   3.790   3.623   3.492 -0.1262 -0.0087 -0.3011
 2136SOL    HW2 8590   3.817   3.607   3.582  0.6740 -2.3979 -0.9230
 2136SOL    HW3 8591   3.724   3.557   3.474  0.1425  0.0807 -1.6601
 2136SOL    MW4 8592   3.785   3.612   3.501  0.0148 -0.3123 -0.5622
 2137SOL     OW 8593   3.817   3.898   3.416  0.2118 -0.0477  0.2704
 2137SOL    HW2 8594   3.736   3.947   3.432  0.5739  0.9203 -0.7421
 2137SOL    HW3 8595   3.798   3.809   3.444 -1.6187 -0.1119 -1.1013
 2137SOL    MW4 8596   3.804   3.893   3.422  0.0181  0.0715 -0.0443
 2138SOL     OW 8597   3.561   4.011   3.483 -0.2080  0.3078 -0.3507
 2138SOL    HW2 8598   3.557   4.000   3.578  0.1809 -1.8663 -0.5589
 2138SOL    HW3 8599   3.585   4.103   3.471 -1.9144  1.0571  1.6107
 2138SOL    MW4 8600   3.564   4.021   3.494 -0.3817  0.1202 -0.1192
 2139SOL     OW 8601   3.561   4.274   3.418  0.3452  0.4511  0.5239
 2139SOL    HW2 8602   3.555   4.254   3.325  1.0622 -1.3206  0.8321
 2139SOL    HW3 8603   3.480   4.322   3.437 -1.2988 -1.8480 -0.3877
 2139SOL    MW4 8604   3.549   4.277   3.408  0.2229 -0.0858  0.4447
 2140SOL     OW 8605   3.801   4.398   3.520 -0.3999  0.0813  0.1194
 2140SOL    HW2 8606   3.722   4.351   3.493 -1.1984  1.0256  0.7982
 2140SOL    HW3 8607   3.795   4.482   3.474  0.6978 -0.2264 -0.5894
 2140SOL    MW4 8608   3.790   4.403   3.510 -0.3605  0.1650  0.1152
 2141SOL     OW 8609   4.240   0.007   3.372  0.3013 -0.1638  0.0449
 2141SOL    HW2 8610   4.265  -0.082   3.398  0.1933 -0.3099 -0.3606
 2141SOL    HW3 8611   4.307   0.063   3.413  2.1070 -0.6569 -2.1768
 2141SOL    MW4 8612   4.252   0.003   3.381  0.5255 -0.2482 -0.3014
 2142SOL     OW 8613   4.016   0.123   3.477  0.8276 -0.0261  0.1760
 2142SOL    HW2 8614   4.083   0.071   3.432  1.3005 -0.0257  0.8919
 2142SOL    HW3 8615   3.939   0.065   3.478  1.1945 -0.5138  0.4972
 2142SOL    MW4 8616   4.014   0.108   3.471  0.9384 -0.0904  0.3128
 2143SOL     OW 8617   4.038   0.388   3.403  0.1632 -0.4983 -0.0670
 2143SOL    HW2 8618   4.045   0.296   3.429  2.4478 -0.5142 -0.6844
 2143SOL    HW3 8619   4.051   0.388   3.309 -1.6226  0.2948 -0.3426
 2143SOL    MW4 8620   4.041   0.376   3.394  0.2289 -0.3958 -0.1845
 2144SOL     OW 8621   4.271   0.512   3.490  0.1917 -0.3665  0.0779
 2144SOL    HW2 8622   4.273   0.605   3.465 -0.5914 -0.3972 -0.0881
 2144SOL    HW3 8623   4.182   0.483   3.471  0.3658 -1.0968  0.3509
 2144SOL    MW4 8624   4.260   0.521   3.484  0.1116 -0.4669  0.0920
 2145SOL     OW 8625   4.237   0.786   3.404 -0.1557 -0.6659  0.2667
 2145SOL    HW2 8626   4.323   0.816   3.433 -0.6610 -0.4734  1.6105
 2145SOL    HW3 8627   4.250   0.760   3.313  1.6493 -1.9393  0.8484
 2145SOL    MW4 8628   4.250   0.786   3.396  0.0157 -0.8085  0.5207
 2146SOL     OW 8629   4.019   0.902   3.550  0.1544  0.0266 -0.2093
 2146SOL    HW2 8630   4.007   0.986   3.506  1.0652  0.4908  0.4180
 2146SOL    HW3 8631   4.096   0.863   3.507 -0.8395 -0.9224 -1.1571
 2146SOL    MW4 8632   4.028   0.908   3.539  0.1435 -0.0373 -0.2515
 2147SOL     OW 8633   4.017   1.147   3.395 -0.2730 -0.0271  0.2085
 2147SOL    HW2 8634   4.094   1.181   3.440 -0.3804  0.5985 -0.0653
 2147SOL    HW3 8635   3.944   1.199   3.429 -0.5585 -0.5504  0.3945
 2147SOL    MW4 8636   4.017   1.159   3.405 -0.3252 -0.0137  0.1972
 2148SOL     OW 8637   4.257   1.240   3.481  0.4306 -0.1002  0.1423
 2148SOL    HW2 8638   4.328   1.206   3.426  0.9856  0.2960  0.6047
 2148SOL    HW3 8639   4.250   1.332   3.457 -0.0317 -0.1742 -0.0104
 2148SOL    MW4 8640   4.266   1.248   3.471  0.4430 -0.0578  0.1833
 2149SOL     OW 8641   4.282   1.489   3.383 -0.6891 -0.3519  0.1360
 2149SOL    HW2 8642   4.203   1.528   3.421 -0.2787 -0.2637  0.9080
 2149SOL    HW3 8643   4.353   1.548   3.408 -0.1684 -1.1933  0.6725
 2149SOL    MW4 8644   4.281   1.502   3.391 -0.5665 -0.4512  0.3088
 2150SOL     OW 8645   4.049   1.618   3.521  0.1291 -0.2147  0.4893
 2150SOL    HW2 8646   4.080   1.619   3.612  2.0643 -0.3404 -0.1366
 2150SOL    HW3 8647   4.062   1.708   3.490 -0.7489 -0.1151  0.4049
 2150SOL    MW4 8648   4.055   1.630   3.529  0.2689 -0.2180  0.3955
 2151SOL     OW 8649   4.078   1.861   3.411  0.1502 -0.3663  0.0252
 2151SOL    HW2 8650   4.152   1.906   3.451 -1.2259  1.9444  0.0719
 2151SOL    HW3 8651   4.081   1.887   3.319 -0.3972 -0.5484 -0.0443
 2151SOL    MW4 8652   4.088   1.870   3.404 -0.1035 -0.0856  0.0224
 2152SOL     OW 8653   4.266   2.239   3.430 -0.2241  0.0825 -0.7205
 2152SOL    HW2 8654   4.201   2.301   3.461  1.2441  1.9031 -1.2328
 2152SOL    HW3 8655   4.274   2.256   3.336  1.3879  0.2831 -0.5681
 2152SOL    MW4 8656   4.258   2.249   3.421  0.1822  0.3493 -0.7682
 2153SOL     OW 8657   4.068   2.425   3.512  0.1430  0.1111  0.3993
 2153SOL    HW2 8658   4.101   2.421   3.602 -1.4338 -0.1538  0.9734
 2153SOL    HW3 8659   4.073   2.517   3.489  1.2109  0.0876  0.5059
 2153SOL    MW4 8660   4.073   2.437   3.521  0.0763  0.0732  0.4892
 2154SOL     OW 8661   0.008   2.410   3.785  0.0252 -0.5757  0.3494
 2154SOL    HW2 8662  -0.004   2.500   3.815 -1.0611 -0.7145  0.3584
 2154SOL    HW3 8663  -0.041   2.357   3.848 -0.7474 -1.0233 -0.6154
 2154SOL    MW4 8664  -0.000   2.415   3.797 -0.2200 -0.6530  0.2232
 2155SOL     OW 8665   4.096   2.674   3.406  0.4076  0.1939  0.0001
 2155SOL    HW2 8666   4.176   2.718   3.434 -0.4686  1.2205  0.9682
 2155SOL    HW3 8667   4.026   2.735   3.431 -0.8550 -1.7957  1.4669
 2155SOL    MW4 8668   4.097   2.688   3.413  0.1259  0.0668  0.3216
 2156SOL     OW 8669   4.310   2.802   3.494 -0.0817 -0.5947  0.3791
 2156SOL    HW2 8670   4.300   2.813   3.589  0.9310  1.2059  0.3034
 2156SOL    HW3 8671   4.388   2.747   3.484 -0.6094 -1.3918  0.5971
 2156SOL    MW4 8672   4.319   2.796   3.506 -0.0176 -0.4623  0.3977
 2157SOL     OW 8673   3.831   3.074   3.412  0.2109 -0.1143 -0.0129
 2157SOL    HW2 8674   3.903   3.133   3.435 -0.3910  0.2646  0.9230
 2157SOL    HW3 8675   3.824   3.080   3.316  0.3389  1.1124  0.0546
 2157SOL    MW4 8676   3.839   3.082   3.402  0.1483  0.0973  0.1194
 2158SOL     OW 8677   4.060   3.226   3.504 -0.0004 -0.1731  0.5247
 2158SOL    HW2 8678   4.138   3.197   3.456 -0.5370  0.2061 -0.5880
 2158SOL    HW3 8679   4.050   3.318   3.481 -0.8700 -0.2597  0.5226
 2158SOL    MW4 8680   4.069   3.234   3.495 -0.1860 -0.1345  0.3777
 2159SOL     OW 8681   4.029   3.480   3.408 -0.5019  0.6613 -0.2078
 2159SOL    HW2 8682   4.095   3.544   3.434 -0.2730  0.2466  0.2238
 2159SOL    HW3 8683   3.946   3.519   3.436 -0.3505  0.7033  0.1829
 2159SOL    MW4 8684   4.027   3.494   3.415 -0.4516  0.6123 -0.0994
 2160SOL     OW 8685   4.248   3.617   3.507 -0.2779  0.0434  0.1359
 2160SOL    HW2 8686   4.265   3.618   3.601  0.5108  0.5077 -0.0074
 2160SOL    HW3 8687   4.233   3.709   3.484 -1.9995 -0.2317  0.0733
 2160SOL    MW4 8688   4.248   3.629   3.516 -0.4005  0.0684  0.1090
 2161SOL     OW 8689   4.248   3.885   3.429  0.4792 -0.0813 -0.3573
 2161SOL    HW2 8690   4.332   3.919   3.461  1.5315 -1.1812 -1.9195
 2161SOL    HW3 8691   4.257   3.884   3.334 -0.8838 -1.3062 -0.4874
 2161SOL    MW4 8692   4.260   3.890   3.421  0.4382 -0.3881 -0.5805
 2162SOL     OW 8693   4.030   4.022   3.540 -0.1121  0.1605  0.2207
 2162SOL    HW2 8694   4.090   3.953   3.511 -0.2631 -0.2747  0.9459
 2162SOL    HW3 8695   3.945   3.997   3.503  0.0391  0.4820 -0.3425
 2162SOL    MW4 8696   4.027   4.010   3.531 -0.1121  0.1454  0.2420
 2163SOL     OW 8697   4.043   4.281   3.399 -0.5622 -0.3399 -0.2656
 2163SOL    HW2 8698   4.055   4.196   3.441 -0.4566  0.3437  1.1261
 2163SOL    HW3 8699   3.965   4.318   3.440  0.2887  0.8994  0.2998
 2163SOL    MW4 8700   4.035   4.275   3.410 -0.4358 -0.0858 -0.0074
 2164SOL     OW 8701   4.284   4.420   3.451  0.1505  0.3009 -0.0687
 2164SOL    HW2 8702   4.283   4.409   3.546 -0.4913  2.8408  0.2609
 2164SOL    HW3 8703   4.205   4.375   3.421  0.1537 -0.1913  0.6373
 2164SOL    MW4 8704   4.273   4.413   3.460  0.0668  0.5708  0.0679
 2165SOL     OW 8705   0.489   0.148   3.732 -0.3600 -0.2522 -0.3522
 2165SOL    HW2 8706   0.563   0.100   3.768  0.6030  0.7497 -0.9623
 2165SOL    HW3 8707   0.412   0.104   3.768  0.4898 -2.0664 -0.6815
 2165SOL    MW4 8708   0.489   0.136   3.742 -0.1208 -0.3594 -0.4761
 2166SOL     OW 8709   0.015   0.369   3.862  0.1930  0.1769 -0.1480
 2166SOL    HW2 8710   0.021   0.360   3.957 -1.3503 -0.9678 -0.1413
 2166SOL    HW3 8711   0.098   0.408   3.836 -0.6432  3.7060  2.0559
 2166SOL    MW4 8712   0.026   0.373   3.871 -0.1209  0.4915  0.1435
 2167SOL     OW 8713   4.297   0.523   3.756  0.1123  0.5245 -0.2925
 2167SOL    HW2 8714   4.368   0.470   3.792 -1.4788 -1.1509  0.4533
 2167SOL    HW3 8715   4.309   0.518   3.661 -0.0382 -1.2273 -0.2310
 2167SOL    MW4 8716   4.308   0.515   3.748 -0.1178  0.0722 -0.1860
 2168SOL     OW 8717   0.254   0.457   3.772 -0.1704 -0.1193  0.1570
 2168SOL    HW2 8718   0.261   0.451   3.677  0.7641 -0.5307  0.2468
 2168SOL    HW3 8719   0.342   0.436   3.804 -0.3458  0.5320  1.0884
 2168SOL    MW4 8720   0.267   0.454   3.764 -0.0703 -0.0877  0.2918
 2169SOL     OW 8721   0.268   0.728   3.837 -0.2713  0.1405  0.6147
 2169SOL    HW2 8722   0.196   0.783   3.807 -0.6380 -0.8022 -0.2692
 2169SOL    HW3 8723   0.244   0.640   3.810 -0.2418 -0.6472  3.0260
 2169SOL    MW4 8724   0.255   0.724   3.829 -0.3158 -0.0879  0.8163
 2170SOL     OW 8725   0.035   0.891   3.785  0.9505  0.8808 -0.2738
 2170SOL    HW2 8726  -0.048   0.859   3.820  1.7941  0.8403  1.7604
 2170SOL    HW3 8727   0.051   0.973   3.831  0.8883  2.1014 -2.3850
 2170SOL    MW4 8728   0.026   0.898   3.796  1.0533  1.0366 -0.2840
 2171SOL     OW 8729   1.623   4.339   4.287 -0.1354  0.3294  0.2492
 2171SOL    HW2 8730   1.564   4.269   4.315  1.4718 -0.7080  1.1276
 2171SOL    HW3 8731   1.675   4.298   4.217 -1.5644  1.7483 -1.7068
 2171SOL    MW4 8732   1.622   4.324   4.281 -0.1119  0.3796  0.1073
 2172SOL     OW 8733   0.448   1.123   3.387 -0.1908  0.2584  0.6381
 2172SOL    HW2 8734   0.449   1.148   3.295 -0.0112  1.0317  0.8401
 2172SOL    HW3 8735   0.528   1.160   3.423 -0.4422  0.2829  1.1825
 2172SOL    MW4 8736   0.459   1.131   3.380 -0.2003  0.3637  0.7367
 2173SOL     OW 8737   2.006   1.532   4.107  0.0084 -0.3360 -0.7074
 2173SOL    HW2 8738   2.002   1.529   4.012  0.6466  1.3022 -0.8029
 2173SOL    HW3 8739   1.925   1.575   4.133  0.7037  0.9907 -0.6499
 2173SOL    MW4 8740   1.995   1.537   4.098  0.1845  0.0553 -0.7129
 2174SOL     OW 8741   0.001   1.856   3.847  0.1064  0.1181  0.2835
 2174SOL    HW2 8742  -0.079   1.908   3.840 -0.3500 -0.3540  1.8534
 2174SOL    HW3 8743   0.022   1.857   3.940  0.9818 -1.1973  0.1089
 2174SOL    MW4 8744  -0.006   1.863   3.858  0.1621 -0.1177  0.4673
 2175SOL     OW 8745   0.906   2.702   4.185  0.2779  0.2856 -0.0768
 2175SOL    HW2 8746   0.929   2.612   4.207  1.3291  0.1157 -1.8361
 2175SOL    HW3 8747   0.892   2.701   4.091 -2.1706  1.4401  0.2126
 2175SOL    MW4 8748   0.907   2.690   4.176  0.0935  0.4156 -0.2708
 2176SOL     OW 8749   0.197   2.005   3.744 -0.2348 -0.0307  0.1384
 2176SOL    HW2 8750   0.196   2.092   3.784  0.0438 -0.1122  0.3261
 2176SOL    HW3 8751   0.119   1.962   3.778 -0.6856  0.3569 -0.4210
 2176SOL    MW4 8752   0.187   2.010   3.754 -0.2575  0.0098  0.0894
 2177SOL     OW 8753   0.207   2.272   4.167  0.6233 -0.3173  0.2944
 2177SOL    HW2 8754   0.268   2.328   4.216  2.1495 -2.2767  0.6925
 2177SOL    HW3 8755   0.253   2.188   4.158 -1.3156 -1.2878 -0.9361
 2177SOL    MW4 8756   0.221   2.268   4.172  0.5688 -0.7041  0.1845
 2178SOL     OW 8757   4.319   2.258   3.921 -0.3466 -0.4611 -0.5114
 2178SOL    HW2 8758   4.304   2.285   4.012  1.1578  1.0386 -0.6899
 2178SOL    HW3 8759   4.250   2.302   3.872 -1.3604 -1.5292 -0.0734
 2178SOL    MW4 8760   4.308   2.268   3.927 -0.2813 -0.4041 -0.4773
 2179SOL     OW 8761   0.001   2.689   3.840  0.1464  0.1228  0.0249
 2179SOL    HW2 8762   0.012   2.717   3.931 -0.5893 -0.2101  0.2212
 2179SOL    HW3 8763   0.078   2.724   3.795 -0.4647  1.9827  0.3684
 2179SOL    MW4 8764   0.012   2.697   3.846 -0.0313  0.3242  0.0961
 2180SOL     OW 8765   0.264   2.827   3.796 -0.5648 -0.4239 -0.4300
 2180SOL    HW2 8766   0.330   2.778   3.845  1.2840  3.3901  1.1803
 2180SOL    HW3 8767   0.281   2.806   3.704  2.1726 -0.4677  0.0289
 2180SOL    MW4 8768   0.275   2.818   3.790  0.0403  0.0737 -0.1571
 2181SOL     OW 8769   0.199   3.099   3.871  0.0837  0.4620  0.2421
 2181SOL    HW2 8770   0.232   3.101   3.961  1.2924  0.6508 -0.1840
 2181SOL    HW3 8771   0.195   3.006   3.849  1.7816  0.4601 -0.1862
 2181SOL    MW4 8772   0.203   3.087   3.880  0.4672  0.4866  0.1295
 2182SOL     OW 8773   4.491   3.270   3.811  0.9657 -0.5625  0.1384
 2182SOL    HW2 8774   4.562   3.215   3.843 -0.4465 -2.8690 -0.5240
 2182SOL    HW3 8775   4.492   3.258   3.716  0.0868 -0.1221  0.0677
 2182SOL    MW4 8776   4.500   3.261   3.803  0.6633 -0.8090  0.0415
 2183SOL     OW 8777   0.017   3.546   3.850  0.5256 -0.1322  0.3787
 2183SOL    HW2 8778   0.005   3.552   3.944 -0.5451  0.5308  0.2128
 2183SOL    HW3 8779   0.004   3.453   3.830  0.1249 -0.1695  0.8020
 2183SOL    MW4 8780   0.014   3.534   3.859  0.3315 -0.0496  0.4129
 2184SOL     OW 8781   0.263   3.554   3.729 -0.3678  0.0673 -0.1506
 2184SOL    HW2 8782   0.177   3.539   3.768 -0.5782 -0.5814 -0.8542
 2184SOL    HW3 8783   0.321   3.492   3.773 -0.3702  0.1478 -0.0361
 2184SOL    MW4 8784   0.259   3.544   3.740 -0.3959 -0.0076 -0.2284
 2185SOL     OW 8785   1.814   0.840   4.578 -0.0357 -0.2154 -0.3289
 2185SOL    HW2 8786   1.732   0.886   4.595  0.9251  1.0502  0.9357
 2185SOL    HW3 8787   1.795   0.748   4.597 -0.5619  0.3774  2.0867
 2185SOL    MW4 8788   1.801   0.834   4.582  0.0217  0.0298  0.1569
 2186SOL     OW 8789   0.034   3.971   3.750 -0.4527  0.5728  0.3696
 2186SOL    HW2 8790  -0.040   3.918   3.779 -0.5238  0.5654  0.1760
 2186SOL    HW3 8791   0.111   3.917   3.769 -0.5092  0.5025  0.3993
 2186SOL    MW4 8792   0.035   3.957   3.756 -0.4696  0.5624  0.3483
 2187SOL     OW 8793   0.008   4.241   3.856 -0.4130 -0.3326 -0.2569
 2187SOL    HW2 8794   0.082   4.297   3.831 -1.2081  0.6806 -0.3529
 2187SOL    HW3 8795   0.028   4.156   3.816  1.0167 -0.2444  0.2535
 2187SOL    MW4 8796   0.021   4.238   3.847 -0.3293 -0.1874 -0.2022
 2188SOL     OW 8797   0.259   0.004   3.824  0.2354 -0.1921  0.0664
 2188SOL    HW2 8798   0.175   0.037   3.795  1.0454  0.7062 -1.2870
 2188SOL    HW3 8799   0.276   0.049   3.907 -0.7724 -0.6647  0.5396
 2188SOL    MW4 8800   0.250   0.014   3.831  0.2093 -0.1359 -0.0498
 2189SOL     OW 8801   0.692   0.749   3.902  0.1089 -0.1828  0.7098
 2189SOL    HW2 8802   0.765   0.805   3.874  0.8473 -0.9091  1.1594
 2189SOL    HW3 8803   0.620   0.773   3.844  0.8659  0.1622 -0.1011
 2189SOL    MW4 8804   0.693   0.759   3.891  0.3062 -0.2331  0.6623
 2190SOL     OW 8805   0.899   0.091   3.809 -0.4997  0.5077  0.5966
 2190SOL    HW2 8806   0.971   0.035   3.838 -1.5269 -0.6883  0.8814
 2190SOL    HW3 8807   0.820   0.037   3.819 -1.2111  1.0080 -1.7839
 2190SOL    MW4 8808   0.898   0.077   3.814 -0.7291  0.4159  0.3200
 2191SOL     OW 8809   0.742   0.556   3.706  0.3303 -0.8551  0.0538
 2191SOL    HW2 8810   0.731   0.632   3.762 -0.3708 -0.5440 -0.4954
 2191SOL    HW3 8811   0.810   0.504   3.748  2.1952  1.0106 -0.5546
 2191SOL    MW4 8812   0.750   0.559   3.719  0.4838 -0.5678 -0.0992
 2192SOL     OW 8813   0.893   0.374   3.360 -0.1378 -0.2939  0.1050
 2192SOL    HW2 8814   0.964   0.417   3.408  0.2735 -1.9252  1.0109
 2192SOL    HW3 8815   0.884   0.289   3.403 -1.4368 -0.8093 -1.1620
 2192SOL    MW4 8816   0.902   0.368   3.372 -0.2549 -0.5772  0.0575
 2193SOL     OW 8817   4.207   0.662   4.261 -0.1324 -0.1944 -0.2165
 2193SOL    HW2 8818   4.125   0.711   4.261  0.9130  1.5723 -0.2873
 2193SOL    HW3 8819   4.239   0.669   4.351  0.5498  0.1399 -0.4865
 2193SOL    MW4 8820   4.200   0.669   4.273  0.0958  0.0828 -0.2613
 2194SOL     OW 8821   0.460   0.873   3.710 -0.0926 -0.0564 -0.2953
 2194SOL    HW2 8822   0.457   0.948   3.769  0.2143 -0.6001  0.4143
 2194SOL    HW3 8823   0.395   0.812   3.744 -0.2904 -0.1470 -0.8254
 2194SOL    MW4 8824   0.451   0.875   3.722 -0.0782 -0.1401 -0.2716
 2195SOL     OW 8825   0.207   1.276   3.798  0.2527  0.5704 -0.1920
 2195SOL    HW2 8826   0.206   1.270   3.702 -0.1451  1.4333 -0.2478
 2195SOL    HW3 8827   0.240   1.364   3.816  0.4792  0.3521  0.4673
 2195SOL    MW4 8828   0.211   1.287   3.788  0.2301  0.6553 -0.1123
 2196SOL     OW 8829   0.656   1.264   3.783 -0.1550  0.1314 -0.3059
 2196SOL    HW2 8830   0.740   1.235   3.819  0.3598  1.2677 -0.5717
 2196SOL    HW3 8831   0.660   1.242   3.690 -0.8217 -1.3055 -0.0053
 2196SOL    MW4 8832   0.668   1.257   3.776 -0.1751  0.0917 -0.3016
 2197SOL     OW 8833   0.475   1.655   3.723 -0.1967  0.4175  0.3385
 2197SOL    HW2 8834   0.469   1.746   3.749 -3.6890  0.7409 -1.3273
 2197SOL    HW3 8835   0.398   1.613   3.763  0.6677 -1.5089  0.0476
 2197SOL    MW4 8836   0.464   1.661   3.732 -0.5434  0.2059  0.0803
 2198SOL     OW 8837   0.417   1.633   3.466 -0.6826  0.4130 -0.2052
 2198SOL    HW2 8838   0.422   1.646   3.561  0.7527  0.4273 -0.2735
 2198SOL    HW3 8839   0.436   1.720   3.430 -1.4489  0.4578 -0.5153
 2198SOL    MW4 8840   0.420   1.646   3.474 -0.5943  0.4208 -0.2549
 2199SOL     OW 8841   0.024   1.594   3.720 -0.6415  0.1927  0.0474
 2199SOL    HW2 8842   0.010   1.685   3.745 -0.2866  0.0116  0.9550
 2199SOL    HW3 8843  -0.048   1.546   3.761  0.5658 -0.2561  1.7023
 2199SOL    MW4 8844   0.013   1.600   3.729 -0.4354  0.1096  0.3855
 2200SOL     OW 8845   3.399   3.093   4.153 -0.3643  0.1585 -0.0894
 2200SOL    HW2 8846   3.376   3.066   4.064 -0.6841 -1.3950  0.4379
 2200SOL    HW3 8847   3.317   3.126   4.190 -0.8735 -1.6067  0.4503
 2200SOL    MW4 8848   3.385   3.094   4.146 -0.4733 -0.2792  0.0515
 2201SOL     OW 8849   0.870   2.431   3.764  0.4040  0.1720 -0.5551
 2201SOL    HW2 8850   0.943   2.393   3.813 -0.4457 -0.6824  0.0734
 2201SOL    HW3 8851   0.792   2.399   3.809 -0.3652  0.8127 -1.4122
 2201SOL    MW4 8852   0.869   2.422   3.776  0.1903  0.1438 -0.5853
 2202SOL     OW 8853   0.415   2.438   3.783 -0.3643  0.2790  0.1087
 2202SOL    HW2 8854   0.357   2.369   3.816  2.2240 -1.4770  1.1964
 2202SOL    HW3 8855   0.408   2.432   3.687 -0.6798 -1.0624  0.2065
 2202SOL    MW4 8856   0.407   2.428   3.775 -0.0644 -0.1295  0.2651
 2203SOL     OW 8857   0.468   2.676   3.889  0.1237 -0.6775  0.0494
 2203SOL    HW2 8858   0.449   2.596   3.839  1.0925 -1.4154  0.8487
 2203SOL    HW3 8859   0.555   2.703   3.858 -0.2859  0.1867 -0.3622
 2203SOL    MW4 8860   0.477   2.669   3.878  0.1975 -0.6609  0.1006
 2204SOL     OW 8861   0.691   2.802   3.769 -0.2324  0.4181 -0.0834
 2204SOL    HW2 8862   0.778   2.768   3.793 -0.5282 -0.4292 -0.1924
 2204SOL    HW3 8863   0.699   2.824   3.676 -0.4678 -0.7570 -0.3905
 2204SOL    MW4 8864   0.704   2.800   3.760 -0.3025  0.1514 -0.1380
 2205SOL     OW 8865   0.644   3.069   3.858 -0.6082  0.0185  0.0858
 2205SOL    HW2 8866   0.660   3.078   3.952 -0.6919  1.4147 -0.0312
 2205SOL    HW3 8867   0.667   2.978   3.839  0.8722  0.1402  1.1701
 2205SOL    MW4 8868   0.649   3.058   3.868 -0.4239  0.2189  0.2136
 2206SOL     OW 8869   0.421   3.186   3.743 -0.2205 -0.1363  0.1258
 2206SOL    HW2 8870   0.498   3.133   3.764  0.7592  0.8151 -0.9860
 2206SOL    HW3 8871   0.349   3.143   3.789  0.7125 -1.9081 -0.0308
 2206SOL    MW4 8872   0.422   3.174   3.752  0.0319 -0.2446 -0.0415
 2207SOL     OW 8873   0.237   3.098   4.142  0.5326 -0.0532  0.0130
 2207SOL    HW2 8874   0.322   3.131   4.169  1.1812 -1.2811 -0.4921
 2207SOL    HW3 8875   0.233   3.009   4.177 -0.3546 -0.1549 -0.3266
 2207SOL    MW4 8876   0.247   3.090   4.150  0.5011 -0.2286 -0.0978
 2208SOL     OW 8877   2.781   1.666   4.266  0.2098  0.3103 -0.4116
 2208SOL    HW2 8878   2.853   1.612   4.233 -0.4282 -0.7936 -0.0316
 2208SOL    HW3 8879   2.702   1.623   4.234 -0.4277 -0.8525  2.5369
 2208SOL    MW4 8880   2.780   1.653   4.258  0.0415  0.0112  0.0277
 2209SOL     OW 8881   0.657   4.369   3.751 -0.2813 -0.0290  0.4819
 2209SOL    HW2 8882   0.660   4.364   3.655  2.0746  0.5717  0.5042
 2209SOL    HW3 8883   0.730   4.315   3.780 -0.5487  0.3678  1.9254
 2209SOL    MW4 8884   0.667   4.361   3.742 -0.0057  0.1030  0.6754
 2210SOL     OW 8885   0.273   3.858   3.825  0.2217  0.0648  0.2538
 2210SOL    HW2 8886   0.347   3.888   3.772  1.7531 -1.3964  1.4860
 2210SOL    HW3 8887   0.273   3.763   3.815 -0.4074 -0.0979  1.6414
 2210SOL    MW4 8888   0.283   3.849   3.817  0.3407 -0.1493  0.5996
 2211SOL     OW 8889   1.965   2.987   4.676  0.1210  0.4361  0.5581
 2211SOL    HW2 8890   1.941   2.932   4.602  0.4202  1.5377 -0.3723
 2211SOL    HW3 8891   1.881   3.009   4.717 -0.0604 -0.0105  0.4316
 2211SOL    MW4 8892   1.951   2.983   4.672  0.1365  0.5224  0.4187
 2212SOL     OW 8893   0.419   2.441   4.244 -0.2141  0.4386  0.0531
 2212SOL    HW2 8894   0.506   2.411   4.218 -0.5419  1.6307 -2.5210
 2212SOL    HW3 8895   0.419   2.534   4.223 -1.3652  0.9337  2.1322
 2212SOL    MW4 8896   0.431   2.449   4.238 -0.4092  0.6614 -0.0129
 2213SOL     OW 8897   3.223   2.609   4.600 -0.3511 -0.3514  0.6610
 2213SOL    HW2 8898   3.200   2.639   4.512 -0.2580 -1.0877  0.3805
 2213SOL    HW3 8899   3.202   2.683   4.656 -1.1851 -0.1592  0.1158
 2213SOL    MW4 8900   3.217   2.623   4.595 -0.4487 -0.4230  0.5522
 2214SOL     OW 8901   0.489   0.128   4.392 -0.4162  0.3694  0.0886
 2214SOL    HW2 8902   0.402   0.168   4.404 -0.0296  1.0454  0.6801
 2214SOL    HW3 8903   0.549   0.202   4.386  0.1355 -0.1001 -0.2337
 2214SOL    MW4 8904   0.485   0.143   4.393 -0.2925  0.3967  0.1240
 2215SOL     OW 8905   2.263   3.506   4.103  0.2008  0.1042 -0.2266
 2215SOL    HW2 8906   2.178   3.533   4.138  0.2091  0.5698 -0.5652
 2215SOL    HW3 8907   2.270   3.413   4.126  0.4613  0.5339  1.5421
 2215SOL    MW4 8908   2.252   3.497   4.111  0.2360  0.2224 -0.0381
 2216SOL     OW 8909   1.122   0.476   3.824 -0.2389 -0.4872  0.3733
 2216SOL    HW2 8910   1.048   0.417   3.841 -0.3424 -0.6279 -0.5523
 2216SOL    HW3 8911   1.199   0.424   3.846 -0.3860 -0.5648  0.7065
 2216SOL    MW4 8912   1.122   0.461   3.829 -0.2719 -0.5160  0.2949
 2217SOL     OW 8913   1.128   0.755   3.881 -0.2891 -0.1915 -0.0956
 2217SOL    HW2 8914   1.052   0.805   3.851  0.2315  0.3921 -0.4349
 2217SOL    HW3 8915   1.115   0.668   3.842 -0.8993 -0.1600  0.0301
 2217SOL    MW4 8916   1.116   0.750   3.872 -0.3008 -0.1103 -0.1237
 2218SOL     OW 8917   0.918   0.899   3.777  0.1226 -0.0397  0.1860
 2218SOL    HW2 8918   0.902   0.989   3.808  0.6397 -0.3327  1.3478
 2218SOL    HW3 8919   0.905   0.903   3.683  2.1220  1.7151 -0.0457
 2218SOL    MW4 8920   0.914   0.912   3.769  0.4547  0.1532  0.3088
 2219SOL     OW 8921   3.375   0.887   4.483  0.4614  0.7071 -0.4822
 2219SOL    HW2 8922   3.438   0.874   4.412 -0.1309 -1.9763 -0.5594
 2219SOL    HW3 8923   3.313   0.814   4.475  0.0516  0.6578  2.4440
 2219SOL    MW4 8924   3.375   0.876   4.473  0.3293  0.3465 -0.1054
 2220SOL     OW 8925   1.300   1.143   3.862  0.3075  0.2553  0.3685
 2220SOL    HW2 8926   1.373   1.198   3.835 -1.7228  2.3153 -1.1091
 2220SOL    HW3 8927   1.314   1.060   3.818  1.8031  0.5904  0.1960
 2220SOL    MW4 8928   1.311   1.139   3.853  0.2369  0.5714  0.1509
 2221SOL     OW 8929   1.133   1.538   3.829 -0.3779 -0.0218 -0.2641
 2221SOL    HW2 8930   1.055   1.593   3.822  1.2817  2.9766  2.8311
 2221SOL    HW3 8931   1.205   1.593   3.796  0.9172 -1.4036  0.1804
 2221SOL    MW4 8932   1.132   1.553   3.824  0.0119  0.1916  0.2031
 2222SOL     OW 8933   0.909   1.661   3.776 -0.0854 -0.4229  0.0923
 2222SOL    HW2 8934   0.830   1.621   3.812  0.4658 -1.9452 -0.3647
 2222SOL    HW3 8935   0.898   1.656   3.681  0.9526 -1.4919  0.0128
 2222SOL    MW4 8936   0.897   1.655   3.769  0.1242 -0.7650  0.0215
 2223SOL     OW 8937   0.439   1.905   3.807  0.2545  0.4403  0.3981
 2223SOL    HW2 8938   0.499   1.979   3.797  1.2040 -0.4979 -0.8625
 2223SOL    HW3 8939   0.353   1.942   3.785  0.4413  1.6120  1.5363
 2223SOL    MW4 8940   0.436   1.920   3.803  0.4045  0.4711  0.3819
 2224SOL     OW 8941   1.079   2.316   3.884 -0.2035 -0.0575  0.2260
 2224SOL    HW2 8942   1.057   2.231   3.847  1.7119 -0.3554 -0.2775
 2224SOL    HW3 8943   1.112   2.296   3.972  1.5485  0.0119 -0.3982
 2224SOL    MW4 8944   1.081   2.302   3.891  0.2804 -0.0875  0.0768
 2225SOL     OW 8945   1.980   0.446   4.534 -0.2229 -0.5475  0.2491
 2225SOL    HW2 8946   1.967   0.352   4.542 -0.4192 -0.6769 -1.4450
 2225SOL    HW3 8947   1.898   0.485   4.565 -1.2634 -1.0497 -1.7966
 2225SOL    MW4 8948   1.968   0.439   4.539 -0.3861 -0.6308 -0.2446
 2226SOL     OW 8949   0.277   3.561   4.516  0.1930  0.1689  0.2198
 2226SOL    HW2 8950   0.265   3.599   4.429  0.1259 -3.4491 -1.4398
 2226SOL    HW3 8951   0.197   3.511   4.533  0.8106 -0.3488  1.7485
 2226SOL    MW4 8952   0.265   3.559   4.507  0.2656 -0.3767  0.2027
 2227SOL     OW 8953   3.676   0.604   4.657 -0.4179 -0.0832 -0.1642
 2227SOL    HW2 8954   3.672   0.627   4.750 -0.7911 -2.1226  0.3420
 2227SOL    HW3 8955   3.585   0.591   4.631 -0.2971  0.2146 -0.7469
 2227SOL    MW4 8956   3.663   0.605   4.666 -0.4511 -0.3130 -0.1740
 2228SOL     OW 8957   3.349   3.617   4.234 -0.7584  0.1163 -0.1122
 2228SOL    HW2 8958   3.297   3.554   4.186  0.2747  0.0820 -1.2195
 2228SOL    HW3 8959   3.440   3.593   4.215 -0.3299  0.5857  1.2310
 2228SOL    MW4 8960   3.354   3.606   4.226 -0.5655  0.1738 -0.0815
 2229SOL     OW 8961   1.113   2.789   3.725  0.0170 -0.2394  0.2841
 2229SOL    HW2 8962   1.198   2.749   3.743 -0.4956 -1.0122  1.0254
 2229SOL    HW3 8963   1.124   2.881   3.749  0.5108 -0.4334  0.8152
 2229SOL    MW4 8964   1.126   2.795   3.731  0.0144 -0.3669  0.4523
 2230SOL     OW 8965   0.884   3.196   3.774 -0.3420 -0.1327  0.2748
 2230SOL    HW2 8966   0.803   3.153   3.802  0.4680 -1.8203  0.1310
 2230SOL    HW3 8967   0.868   3.219   3.682 -0.5752 -0.6866  0.1731
 2230SOL    MW4 8968   0.871   3.193   3.766 -0.2660 -0.4282  0.2425
 2231SOL     OW 8969   0.674   3.548   3.728  0.2959  0.5141 -0.1507
 2231SOL    HW2 8970   0.662   3.557   3.634  1.1619  1.1498 -0.2072
 2231SOL    HW3 8971   0.592   3.510   3.759 -0.9025  2.4702 -0.8337
 2231SOL    MW4 8972   0.661   3.544   3.720  0.2520  0.8564 -0.2482
 2232SOL     OW 8973   1.124   3.575   3.730  0.7076  0.2702 -0.0367
 2232SOL    HW2 8974   1.040   3.540   3.760  0.5528  0.6783 -0.0025
 2232SOL    HW3 8975   1.133   3.659   3.774  1.6874 -0.3064  0.8773
 2232SOL    MW4 8976   1.114   3.581   3.740  0.8165  0.2480  0.0880
 2233SOL     OW 8977   1.383   3.865   4.269  0.6373 -0.3282 -0.1465
 2233SOL    HW2 8978   1.451   3.830   4.212  0.6439  0.7726 -0.8273
 2233SOL    HW3 8979   1.404   3.958   4.278 -0.8524  0.0617 -0.5036
 2233SOL    MW4 8980   1.395   3.873   4.263  0.4417 -0.1314 -0.2837
 2234SOL     OW 8981   1.312   3.983   3.738  0.1162  0.1875 -0.1915
 2234SOL    HW2 8982   1.355   4.004   3.655  1.9761  1.4858  1.0418
 2234SOL    HW3 8983   1.317   4.065   3.788 -0.9558 -0.5823  1.2001
 2234SOL    MW4 8984   1.318   3.997   3.733  0.2204  0.2573  0.1547
 2235SOL     OW 8985   1.743   0.562   4.650  0.7875 -0.0323  0.2634
 2235SOL    HW2 8986   1.660   0.555   4.602 -0.0866  2.5013  1.3275
 2235SOL    HW3 8987   1.718   0.564   4.742  2.0864  0.0930  0.6318
 2235SOL    MW4 8988   1.729   0.561   4.655  0.8435  0.3184  0.4525
 2236SOL     OW 8989   0.880   4.223   3.823  0.2094 -0.0400 -0.8237
 2236SOL    HW2 8990   0.861   4.211   3.916  1.2258 -1.2128 -0.7446
 2236SOL    HW3 8991   0.956   4.281   3.821  0.7360 -0.7174 -0.8729
 2236SOL    MW4 8992   0.887   4.229   3.835  0.4130 -0.2837 -0.8197
 2237SOL     OW 8993   1.566   4.643   3.876 -0.3501 -0.0430  0.0263
 2237SOL    HW2 8994   1.560   4.612   3.967 -0.6378 -0.1123 -0.0156
 2237SOL    HW3 8995   1.555   4.565   3.823 -0.1851 -0.0006 -0.0706
 2237SOL    MW4 8996   1.564   4.629   3.881 -0.3662 -0.0467  0.0081
 2238SOL     OW 8997   1.333   0.068   3.777 -0.1838 -0.7633 -0.3362
 2238SOL    HW2 8998   1.414   0.036   3.816  0.3344 -0.3787 -1.0884
 2238SOL    HW3 8999   1.336   0.163   3.790 -0.8954 -0.8335  0.3529
 2238SOL    MW4 9000   1.344   0.077   3.784 -0.2092 -0.7218 -0.3448
 2239SOL     OW 9001   1.348   0.340   3.848  0.2895 -0.0961 -0.0209
 2239SOL    HW2 9002   1.353   0.329   3.943  0.4458  0.3255  0.0216
 2239SOL    HW3 9003   1.422   0.396   3.827 -1.6817  2.6559  0.0576
 2239SOL    MW4 9004   1.358   0.346   3.858  0.0499  0.3226 -0.0048
 2240SOL     OW 9005   1.562   0.509   3.781  0.1942 -0.7522  0.5640
 2240SOL    HW2 9006   1.565   0.601   3.809 -0.1659 -0.2379 -1.0170
 2240SOL    HW3 9007   1.635   0.468   3.827 -0.0021  0.1858  1.7618
 2240SOL    MW4 9008   1.572   0.516   3.791  0.1206 -0.5606  0.5133
 2241SOL     OW 9009   1.571   0.784   3.870  0.4799 -0.0842  0.0042
 2241SOL    HW2 9010   1.644   0.837   3.837 -0.0229  0.4286 -0.3003
 2241SOL    HW3 9011   1.586   0.779   3.965  0.0157  1.4179  0.1651
 2241SOL    MW4 9012   1.583   0.790   3.878  0.3523  0.1817 -0.0148
 2242SOL     OW 9013   1.332   0.900   3.760  0.2863  0.2486 -0.4349
 2242SOL    HW2 9014   1.262   0.858   3.811 -0.6678  1.5066 -0.6985
 2242SOL    HW3 9015   1.412   0.863   3.797 -0.4853 -0.8445  0.2085
 2242SOL    MW4 9016   1.333   0.889   3.772  0.0587  0.2703 -0.3846
 2243SOL     OW 9017   0.311   0.370   4.698 -0.2103  0.0927 -1.3007
 2243SOL    HW2 9018   0.396   0.341   4.730 -0.7766  0.0495  0.1962
 2243SOL    HW3 9019   0.314   0.352   4.604  0.9165 -1.1637 -1.0436
 2243SOL    MW4 9020   0.323   0.364   4.690 -0.1363 -0.0787 -1.0695
 2244SOL     OW 9021   1.532   1.286   3.788 -0.2230  0.2115 -0.0337
 2244SOL    HW2 9022   1.609   1.249   3.832  0.4989  1.5508 -0.1390
 2244SOL    HW3 9023   1.541   1.381   3.800 -2.5313  0.3382  1.0835
 2244SOL    MW4 9024   1.543   1.294   3.795 -0.4321  0.4051  0.0997
 2245SOL     OW 9025   1.363   1.682   3.753  0.0231  0.0792  0.5722
 2245SOL    HW2 9026   1.349   1.767   3.793 -0.6761  0.0916  0.3237
 2245SOL    HW3 9027   1.436   1.643   3.801 -0.9828 -0.0216  2.0547
 2245SOL    MW4 9028   1.371   1.688   3.764 -0.2018  0.0676  0.7353
 2246SOL     OW 9029   4.125   3.252   4.553  0.2325  0.0770 -0.0970
 2246SOL    HW2 9030   4.219   3.238   4.555  0.1317 -1.1582 -2.5818
 2246SOL    HW3 9031   4.087   3.168   4.579 -0.2042  0.9574  2.2342
 2246SOL    MW4 9032   4.132   3.239   4.556  0.1616  0.0300 -0.1178
 2247SOL     OW 9033   2.490   3.665   4.225 -0.0541 -0.0504  0.0490
 2247SOL    HW2 9034   2.514   3.743   4.175 -0.0062  1.0272  1.7089
 2247SOL    HW3 9035   2.423   3.622   4.172  0.1693  0.9225 -1.0457
 2247SOL    MW4 9036   2.484   3.670   4.212 -0.0184  0.2201  0.1240
 2248SOL     OW 9037   0.250   0.566   4.288  0.1729  0.5952 -0.0711
 2248SOL    HW2 9038   0.248   0.636   4.221  0.9519  0.7422  0.0495
 2248SOL    HW3 9039   0.199   0.601   4.361 -0.5911  0.4798 -0.5489
 2248SOL    MW4 9040   0.243   0.580   4.289  0.1749  0.5994 -0.1183
 2249SOL     OW 9041   4.391   2.930   4.473 -0.6133  0.1325  0.5426
 2249SOL    HW2 9042   4.475   2.897   4.505 -0.3334  0.5565  0.2515
 2249SOL    HW3 9043   4.391   2.909   4.380 -0.7667  0.2666  0.5115
 2249SOL    MW4 9044   4.402   2.923   4.465 -0.5970  0.2062  0.4997
 2250SOL     OW 9045   1.308   2.411   3.758  0.1668 -0.6855  0.4853
 2250SOL    HW2 9046   1.378   2.355   3.791  0.0153 -0.4816  1.1581
 2250SOL    HW3 9047   1.229   2.381   3.803  0.1256  0.2199  1.0408
 2250SOL    MW4 9048   1.307   2.400   3.768  0.1411 -0.5388  0.6473
 2251SOL     OW 9049   1.595   2.816   3.781  0.0521  0.1058 -0.2767
 2251SOL    HW2 9050   1.592   2.819   3.685  1.2175  0.3226 -0.3121
 2251SOL    HW3 9051   1.513   2.774   3.806 -0.4916  0.5004 -1.3471
 2251SOL    MW4 9052   1.584   2.811   3.772  0.1341  0.1867 -0.4225
 2252SOL     OW 9053   1.567   3.093   3.881  0.1121 -0.2274  0.0421
 2252SOL    HW2 9054   1.510   3.123   3.811  0.8226  0.4604 -0.2480
 2252SOL    HW3 9055   1.578   2.999   3.865  1.4317  0.1920 -1.6037
 2252SOL    MW4 9056   1.561   3.085   3.870  0.3799 -0.0813 -0.2131
 2253SOL     OW 9057   2.950   1.185   4.554  0.6427 -0.1505 -0.3022
 2253SOL    HW2 9058   2.913   1.201   4.467  0.2109 -2.3206 -0.5693
 2253SOL    HW3 9059   2.884   1.216   4.615 -0.9393 -2.4642 -0.7819
 2253SOL    MW4 9060   2.937   1.191   4.550  0.3767 -0.7422 -0.4005
 2254SOL     OW 9061   1.341   3.182   3.716  0.1618 -0.1548  0.1515
 2254SOL    HW2 9062   1.260   3.134   3.734  0.4808 -0.9029 -0.3831
 2254SOL    HW3 9063   1.331   3.264   3.764 -0.5415 -0.6091  0.7997
 2254SOL    MW4 9064   1.329   3.187   3.725  0.1112 -0.3138  0.1667
 2255SOL     OW 9065   1.774   1.889   4.120 -0.0093 -0.0833 -0.3599
 2255SOL    HW2 9066   1.771   1.805   4.165  1.4044 -0.1467 -0.3626
 2255SOL    HW3 9067   1.861   1.924   4.139  0.3709  0.1987 -2.4471
 2255SOL    MW4 9068   1.785   1.883   4.128  0.2273 -0.0544 -0.6356
 2256SOL     OW 9069   1.529   3.835   3.833  0.1615 -0.5640 -0.0266
 2256SOL    HW2 9070   1.450   3.878   3.801  0.6684 -0.3255 -0.9645
 2256SOL    HW3 9071   1.525   3.747   3.797 -0.2821 -0.9395  0.9249
 2256SOL    MW4 9072   1.518   3.829   3.824  0.1699 -0.5820 -0.0248
 2257SOL     OW 9073   2.392   4.640   4.755 -0.2713 -0.3926  0.1854
 2257SOL    HW2 9074   2.336   4.637   4.677  0.1135 -1.8377 -0.0314
 2257SOL    HW3 9075   2.385   4.731   4.785 -0.8257  0.0475 -1.2321
 2257SOL    MW4 9076   2.383   4.652   4.749 -0.2937 -0.5252 -0.0300
 2258SOL     OW 9077   1.141   3.816   3.877 -0.3523  0.2164 -0.3784
 2258SOL    HW2 9078   1.136   3.804   3.972 -0.8559 -0.2051 -0.4574
 2258SOL    HW3 9079   1.218   3.872   3.864  1.0421 -1.5277  0.1248
 2258SOL    MW4 9080   1.151   3.822   3.888 -0.2347 -0.0694 -0.3226
 2259SOL     OW 9081   1.132   4.325   3.782  0.4523 -0.2658  0.2884
 2259SOL    HW2 9082   1.135   4.351   3.690 -0.4012  0.4139  0.4562
 2259SOL    HW3 9083   1.135   4.407   3.831 -1.4329 -0.4946  0.8259
 2259SOL    MW4 9084   1.133   4.339   3.776  0.0908 -0.2060  0.3812
 2260SOL     OW 9085   1.541   4.404   3.763 -0.2169  0.3842  0.1142
 2260SOL    HW2 9086   1.618   4.362   3.801  0.3741  1.2570 -0.0849
 2260SOL    HW3 9087   1.562   4.410   3.669 -0.3596  0.9680  0.1171
 2260SOL    MW4 9088   1.554   4.399   3.755 -0.1578  0.5765  0.0882
 2261SOL     OW 9089   0.494   0.776   4.646 -0.2711 -0.0334 -0.6090
 2261SOL    HW2 9090   0.553   0.701   4.644 -2.0514 -1.4595 -0.5055
 2261SOL    HW3 9091   0.410   0.740   4.675 -0.9748  2.1190  0.1311
 2261SOL    MW4 9092   0.491   0.762   4.650 -0.5988  0.0624 -0.4978
 2262SOL     OW 9093   1.792   0.101   3.764  0.4525  0.0099  0.0679
 2262SOL    HW2 9094   1.866   0.064   3.812  1.1737 -0.3932 -1.3515
 2262SOL    HW3 9095   1.715   0.072   3.814  1.1891 -0.3467  1.0188
 2262SOL    MW4 9096   1.791   0.092   3.777  0.6449 -0.0903  0.0060
 2263SOL     OW 9097   1.996   0.752   3.923 -0.3266 -0.5217 -0.2085
 2263SOL    HW2 9098   2.083   0.791   3.916 -0.3460 -0.4640 -0.1300
 2263SOL    HW3 9099   2.004   0.666   3.883  0.2906 -1.3508  1.6311
 2263SOL    MW4 9100   2.008   0.746   3.917 -0.2480 -0.6234  0.0446
 2264SOL     OW 9101   2.036   0.495   3.806  0.2973 -0.1840  0.4307
 2264SOL    HW2 9102   2.024   0.502   3.711 -0.4044 -1.9696  0.3632
 2264SOL    HW3 9103   1.963   0.439   3.835  0.7968 -0.0716  1.9500
 2264SOL    MW4 9104   2.025   0.489   3.797  0.2708 -0.4048  0.6225
 2265SOL     OW 9105   4.321   2.889   4.218  0.6163 -0.5900 -0.3545
 2265SOL    HW2 9106   4.239   2.848   4.191 -0.6066  1.1909  0.5863
 2265SOL    HW3 9107   4.306   2.983   4.208  1.9834 -0.1652  1.3160
 2265SOL    MW4 9108   4.308   2.896   4.213  0.6356 -0.2987 -0.0100
 2266SOL     OW 9109   1.809   0.921   3.784 -0.2937 -0.1357  0.1672
 2266SOL    HW2 9110   1.862   0.854   3.828  1.0488  0.6655 -0.1749
 2266SOL    HW3 9111   1.803   0.891   3.693 -2.6687 -1.5510  0.7495
 2266SOL    MW4 9112   1.815   0.908   3.778 -0.4300 -0.2168  0.1988
 2267SOL     OW 9113   1.797   1.184   3.876 -0.4966  0.3362  0.3545
 2267SOL    HW2 9114   1.825   1.205   3.965  0.7141  0.5618 -0.0795
 2267SOL    HW3 9115   1.812   1.089   3.868 -0.3033  0.3725  0.2837
 2267SOL    MW4 9116   1.802   1.174   3.887 -0.3114  0.3706  0.2880
 2268SOL     OW 9117   2.021   1.233   3.739  0.3438  0.0737  0.2659
 2268SOL    HW2 9118   2.089   1.207   3.802  0.4318  0.0148  0.1474
 2268SOL    HW3 9119   1.939   1.214   3.783  0.4076 -0.2912  0.2307
 2268SOL    MW4 9120   2.019   1.227   3.753  0.3638  0.0179  0.2460
 2269SOL     OW 9121   1.804   1.644   3.766  0.0527 -0.1273 -0.4051
 2269SOL    HW2 9122   1.812   1.731   3.803 -0.0990  0.0275 -0.7371
 2269SOL    HW3 9123   1.791   1.658   3.672 -0.5961 -0.4832 -0.3724
 2269SOL    MW4 9124   1.803   1.657   3.759 -0.0529 -0.1539 -0.4447
 2270SOL     OW 9125   1.552   1.516   4.140  0.0153 -0.0720 -0.0274
 2270SOL    HW2 9126   1.630   1.556   4.180 -0.7641  0.8192  0.6289
 2270SOL    HW3 9127   1.481   1.578   4.160 -0.6454 -0.3190 -1.5949
 2270SOL    MW4 9128   1.553   1.530   4.148 -0.1748  0.0130 -0.1478
 2271SOL     OW 9129   3.262   2.767   4.377  0.0638  0.0542  0.0641
 2271SOL    HW2 9130   3.353   2.773   4.348  0.3944 -1.2575  0.8181
 2271SOL    HW3 9131   3.215   2.734   4.301  0.2031  0.7458 -0.3314
 2271SOL    MW4 9132   3.268   2.764   4.363  0.1256 -0.0274  0.1116
 2272SOL     OW 9133   2.064   2.029   3.750  0.2536 -0.1797  0.0988
 2272SOL    HW2 9134   2.060   2.117   3.789  2.3778  0.2351 -0.6039
 2272SOL    HW3 9135   2.038   2.042   3.659 -0.3683 -0.4434  0.2360
 2272SOL    MW4 9136   2.060   2.043   3.743  0.4518 -0.1597  0.0241
 2273SOL     OW 9137   2.213   2.391   3.745 -0.0519 -0.1144 -0.0607
 2273SOL    HW2 9138   2.199   2.399   3.651 -1.9536 -1.0181  0.1196
 2273SOL    HW3 9139   2.132   2.352   3.778  1.2298 -1.3905  1.7088
 2273SOL    MW4 9140   2.200   2.387   3.737 -0.1338 -0.4022  0.1965
 2274SOL     OW 9141   1.543   2.269   3.848  0.8264 -0.0427 -0.3932
 2274SOL    HW2 9142   1.616   2.321   3.814  1.9210 -0.8452  0.6791
 2274SOL    HW3 9143   1.562   2.180   3.820  0.7201 -0.3998  0.6490
 2274SOL    MW4 9144   1.555   2.264   3.840  0.9568 -0.1957 -0.1140
 2275SOL     OW 9145   2.280   2.656   3.810 -0.2177 -0.5539  0.3551
 2275SOL    HW2 9146   2.262   2.563   3.794 -0.6162 -0.3926 -0.1385
 2275SOL    HW3 9147   2.259   2.669   3.903 -0.4691 -0.8814  0.3439
 2275SOL    MW4 9148   2.275   2.646   3.820 -0.3037 -0.5760  0.2887
 2276SOL     OW 9149   3.615   1.660   4.306 -0.0616 -0.5078 -0.0289
 2276SOL    HW2 9150   3.608   1.750   4.274 -0.2379 -0.3964  0.3137
 2276SOL    HW3 9151   3.685   1.621   4.254 -0.6929 -0.4906 -0.9195
 2276SOL    MW4 9152   3.623   1.667   4.295 -0.1681 -0.4909 -0.1016
 2277SOL     OW 9153   2.070   2.790   3.707  0.2213 -0.0509 -0.3824
 2277SOL    HW2 9154   2.150   2.742   3.731  0.3464 -0.6813 -1.9806
 2277SOL    HW3 9155   1.998   2.733   3.734  0.3148  0.1858  0.3838
 2277SOL    MW4 9156   2.071   2.776   3.713  0.2503 -0.1028 -0.4921
 2278SOL     OW 9157   1.779   3.453   3.830 -0.4982 -0.1903 -0.5546
 2278SOL    HW2 9158   1.851   3.505   3.794  1.0924 -0.9286  1.4815
 2278SOL    HW3 9159   1.780   3.372   3.779 -0.2355  0.0160 -0.8815
 2278SOL    MW4 9160   1.789   3.449   3.818 -0.2539 -0.2604 -0.3290
 2279SOL     OW 9161   1.992   3.590   3.734 -0.3299 -0.6978  0.1951
 2279SOL    HW2 9162   2.071   3.547   3.766  0.0358 -1.6458 -1.8541
 2279SOL    HW3 9163   2.004   3.593   3.639 -0.9251  2.8413  0.1832
 2279SOL    MW4 9164   2.004   3.584   3.725 -0.3600 -0.3560 -0.0770
 2280SOL     OW 9165   1.999   3.828   3.864  0.2257 -0.0026 -0.4618
 2280SOL    HW2 9166   2.068   3.880   3.823  1.5866 -1.0680  0.4550
 2280SOL    HW3 9167   1.999   3.745   3.815  0.5694 -0.5505  0.4579
 2280SOL    MW4 9168   2.008   3.824   3.852  0.4508 -0.2155 -0.2196
 2281SOL     OW 9169   2.755   3.932   4.234  0.0471  0.0768  0.0643
 2281SOL    HW2 9170   2.767   4.024   4.209  0.2415  0.1920  0.5742
 2281SOL    HW3 9171   2.672   3.907   4.193 -0.9293  1.0254  1.4271
 2281SOL    MW4 9172   2.745   3.941   4.225 -0.0558  0.2172  0.3109
 2282SOL     OW 9173   1.772   3.983   3.751  0.2032  0.0018 -0.4324
 2282SOL    HW2 9174   1.826   3.915   3.792 -1.1686 -0.8025  0.0844
 2282SOL    HW3 9175   1.682   3.951   3.761 -0.3711  1.3286 -1.2575
 2282SOL    MW4 9176   1.767   3.970   3.758 -0.0535  0.0708 -0.4733
 2283SOL     OW 9177   1.562   0.489   4.237  0.2304  0.0255 -0.1196
 2283SOL    HW2 9178   1.499   0.441   4.184  0.2715 -1.1894  0.8835
 2283SOL    HW3 9179   1.579   0.570   4.189 -1.6574  0.1054 -0.6719
 2283SOL    MW4 9180   1.556   0.493   4.224 -0.0134 -0.1242 -0.0601
 2284SOL     OW 9181   3.091   2.352   4.549  0.3557 -0.0329 -0.0418
 2284SOL    HW2 9182   3.116   2.352   4.456  0.9254 -2.3217  0.0876
 2284SOL    HW3 9183   3.122   2.436   4.582  1.6912  0.0752 -1.5196
 2284SOL    MW4 9184   3.098   2.363   4.541  0.6073 -0.3204 -0.2198
 2285SOL     OW 9185   2.472   4.575   3.847  0.3581  0.0656  0.0956
 2285SOL    HW2 9186   2.544   4.634   3.826 -0.5369  0.7526 -1.1230
 2285SOL    HW3 9187   2.393   4.625   3.825 -0.4825 -0.7796  1.1253
 2285SOL    MW4 9188   2.471   4.589   3.841  0.1290  0.0443  0.0708
 2286SOL     OW 9189   2.231   4.237   3.858  0.0189  0.4928  0.3323
 2286SOL    HW2 9190   2.203   4.150   3.830  1.2740  0.1791  0.0302
 2286SOL    HW3 9191   2.158   4.294   3.834 -0.7085 -0.4250  0.2968
 2286SOL    MW4 9192   2.217   4.233   3.851  0.0887  0.3304  0.2880
 2287SOL     OW 9193   2.264   0.087   3.747 -0.1740  0.1234  0.1974
 2287SOL    HW2 9194   2.281   0.180   3.764 -1.6995  0.2624  1.1035
 2287SOL    HW3 9195   2.245   0.084   3.653 -1.8479  1.0344  0.4774
 2287SOL    MW4 9196   2.264   0.099   3.737 -0.5963  0.2619  0.3538
 2288SOL     OW 9197   2.470   0.512   3.792 -0.0434 -0.0855  0.0216
 2288SOL    HW2 9198   2.405   0.445   3.814  0.7557 -0.7977  0.2168
 2288SOL    HW3 9199   2.475   0.509   3.697  1.1996 -1.4647  0.1140
 2288SOL    MW4 9200   2.462   0.503   3.782  0.2260 -0.3614  0.0594
 2289SOL     OW 9201   2.707   0.871   3.731 -0.0596 -0.1640 -0.7077
 2289SOL    HW2 9202   2.633   0.818   3.762 -0.3029  0.1794 -0.7028
 2289SOL    HW3 9203   2.782   0.836   3.779 -0.0414 -1.1910 -1.4663
 2289SOL    MW4 9204   2.707   0.859   3.742 -0.0894 -0.2543 -0.8070
 2290SOL     OW 9205   2.229   0.905   3.833  0.2740 -0.2028  0.1041
 2290SOL    HW2 9206   2.311   0.861   3.857  1.0502  1.1338 -0.0362
 2290SOL    HW3 9207   2.230   0.906   3.737  0.6958  0.8905  0.1113
 2290SOL    MW4 9208   2.240   0.900   3.823  0.4325  0.1178  0.0865
 2291SOL     OW 9209   2.219   1.170   3.921 -0.0663 -0.0816  0.0764
 2291SOL    HW2 9210   2.218   1.169   4.017  0.2597  1.8318  0.1221
 2291SOL    HW3 9211   2.207   1.078   3.896  1.3585 -0.8121  1.9541
 2291SOL    MW4 9212   2.217   1.158   3.930  0.1647  0.0745  0.3302
 2292SOL     OW 9213   2.446   1.245   3.768 -0.1897  0.3047 -0.3519
 2292SOL    HW2 9214   2.483   1.330   3.794 -0.2213  0.5060 -0.9490
 2292SOL    HW3 9215   2.376   1.229   3.831  0.6844  0.0878  0.5742
 2292SOL    MW4 9216   2.442   1.254   3.780 -0.0787  0.3027 -0.3088
 2293SOL     OW 9217   2.539   1.519   3.862  0.0331  0.2187  0.2623
 2293SOL    HW2 9218   2.598   1.581   3.820  0.6956 -1.3361 -1.1806
 2293SOL    HW3 9219   2.451   1.546   3.834  0.2626  0.9376  0.2339
 2293SOL    MW4 9220   2.535   1.530   3.853  0.1509  0.1084  0.0679
 2294SOL     OW 9221   2.279   1.597   3.806  0.2690 -0.1687  0.0651
 2294SOL    HW2 9222   2.277   1.692   3.817  1.8845 -0.2264  1.0577
 2294SOL    HW3 9223   2.188   1.569   3.819 -0.1159  1.1717  0.3287
 2294SOL    MW4 9224   2.267   1.606   3.809  0.4315  0.0005  0.2310
 2295SOL     OW 9225   2.293   1.877   3.832  0.5601  0.0308  0.3001
 2295SOL    HW2 9226   2.219   1.925   3.795  1.6513  1.2957 -0.3162
 2295SOL    HW3 9227   2.291   1.896   3.926  1.0357  1.3872  0.0467
 2295SOL    MW4 9228   2.283   1.886   3.839  0.7668  0.3767  0.1855
 2296SOL     OW 9229   2.496   2.032   3.733  0.2386 -0.4100 -0.2805
 2296SOL    HW2 9230   2.469   2.107   3.786 -0.2633 -0.2811 -0.7205
 2296SOL    HW3 9231   2.428   1.966   3.747  0.3459 -0.5483 -0.4027
 2296SOL    MW4 9232   2.484   2.033   3.742  0.1864 -0.4113 -0.3545
 2297SOL     OW 9233   2.021   3.862   4.136 -0.1888  0.0435  0.1100
 2297SOL    HW2 9234   2.105   3.907   4.151  0.3687 -0.5678 -1.1515
 2297SOL    HW3 9235   2.020   3.844   4.042 -1.3619 -0.7037  0.2653
 2297SOL    MW4 9236   2.032   3.866   4.126 -0.2699 -0.1357 -0.0358
 2298SOL     OW 9237   2.419   2.249   3.874 -0.0483  0.0084 -0.4687
 2298SOL    HW2 9238   2.364   2.285   3.805 -0.0445 -0.6693 -0.8282
 2298SOL    HW3 9239   2.505   2.287   3.858 -0.1101  0.0589 -0.6825
 2298SOL    MW4 9240   2.423   2.259   3.863 -0.0558 -0.0744 -0.5443
 2299SOL     OW 9241   2.527   2.818   3.774 -0.3542  0.3567 -0.0036
 2299SOL    HW2 9242   2.452   2.759   3.779 -1.3606  1.6434  0.3306
 2299SOL    HW3 9243   2.539   2.834   3.680 -0.3854  0.0205 -0.0662
 2299SOL    MW4 9244   2.518   2.812   3.762 -0.4911  0.4823  0.0322
 2300SOL     OW 9245   2.217   0.565   4.556  0.0395  0.0074  0.0591
 2300SOL    HW2 9246   2.124   0.547   4.564 -0.0258  0.2957 -0.0393
 2300SOL    HW3 9247   2.226   0.608   4.471  0.1968  0.4126  0.2793
 2300SOL    MW4 9248   2.206   0.568   4.546  0.0515  0.0989  0.0749
 2301SOL     OW 9249   4.400   1.302   4.821 -0.0691  0.1137 -0.3621
 2301SOL    HW2 9250   4.406   1.300   4.916  0.2171 -1.2870 -0.4041
 2301SOL    HW3 9251   4.485   1.334   4.792  1.1713 -3.0087 -0.2790
 2301SOL    MW4 9252   4.412   1.306   4.829  0.1321 -0.4830 -0.3572
 2302SOL     OW 9253   2.227   3.206   3.762 -0.8716  0.2401  0.4220
 2302SOL    HW2 9254   2.214   3.297   3.789 -2.5374 -0.2314  1.2636
 2302SOL    HW3 9255   2.315   3.185   3.792 -0.3055  1.7011 -0.1466
 2302SOL    MW4 9256   2.237   3.216   3.770 -1.0169  0.3705  0.4580
 2303SOL     OW 9257   2.213   3.474   3.832 -0.3982 -0.2600 -0.4737
 2303SOL    HW2 9258   2.283   3.527   3.794 -0.6436 -0.0050 -0.5713
 2303SOL    HW3 9259   2.232   3.473   3.926  1.2745 -2.4592 -0.8113
 2303SOL    MW4 9260   2.224   3.481   3.839 -0.2098 -0.5167 -0.5310
 2304SOL     OW 9261   2.439   3.884   3.809  0.3084  0.0701  0.0871
 2304SOL    HW2 9262   2.451   3.792   3.785 -0.0831  0.2792 -0.9347
 2304SOL    HW3 9263   2.519   3.927   3.779  0.8153 -0.0509  1.2232
 2304SOL    MW4 9264   2.451   3.877   3.802  0.3235  0.0818  0.1018
 2305SOL     OW 9265   2.453   3.381   4.559  0.0357 -0.0237  0.4713
 2305SOL    HW2 9266   2.451   3.394   4.653  1.5304  3.1564  0.1308
 2305SOL    HW3 9267   2.534   3.334   4.542  0.5009  0.7183  0.6373
 2305SOL    MW4 9268   2.463   3.377   4.569  0.2944  0.4940  0.4482
 2306SOL     OW 9269   2.187   3.987   3.735  0.4671 -0.0006  0.0474
 2306SOL    HW2 9270   2.257   3.938   3.779  0.8326  0.0693 -0.4492
 2306SOL    HW3 9271   2.196   3.963   3.643 -0.4714 -0.3608  0.0436
 2306SOL    MW4 9272   2.198   3.977   3.729  0.3917 -0.0391 -0.0188
 2307SOL     OW 9273   0.410   2.712   4.587  0.0363  0.2403 -0.5231
 2307SOL    HW2 9274   0.425   2.623   4.555  0.1561 -0.5287  1.6172
 2307SOL    HW3 9275   0.494   2.756   4.574  0.2887 -0.2647 -0.6143
 2307SOL    MW4 9276   0.423   2.706   4.581  0.0854  0.0722 -0.2527
 2308SOL     OW 9277   2.477   4.313   3.743  0.0473 -0.3966 -0.3647
 2308SOL    HW2 9278   2.395   4.270   3.768 -0.6269  1.4925  0.7474
 2308SOL    HW3 9279   2.476   4.396   3.790  2.1885  0.0491 -1.0566
 2308SOL    MW4 9280   2.466   4.318   3.752  0.2408 -0.0892 -0.3095
 2309SOL     OW 9281   2.917   4.659   3.902  0.2484  0.0268 -0.4485
 2309SOL    HW2 9282   2.914   4.653   3.997 -1.5759  2.1247 -0.3259
 2309SOL    HW3 9283   2.989   4.719   3.884  1.2697 -1.1859 -0.4577
 2309SOL    MW4 9284   2.926   4.666   3.912  0.1426  0.1431 -0.4334
 2310SOL     OW 9285   2.669   0.102   3.802 -0.3638 -0.2545  0.5906
 2310SOL    HW2 9286   2.749   0.064   3.838  0.5739  1.8315  0.7705
 2310SOL    HW3 9287   2.695   0.132   3.714 -1.4042 -1.0992 -0.0131
 2310SOL    MW4 9288   2.683   0.101   3.795 -0.3774 -0.0907  0.5348
 2311SOL     OW 9289   2.701   0.368   3.868 -0.4041 -0.3361  0.4364
 2311SOL    HW2 9290   2.682   0.274   3.866 -0.4358 -0.3062 -0.6065
 2311SOL    HW3 9291   2.617   0.410   3.850  0.2991 -0.1825 -2.7005
 2311SOL    MW4 9292   2.688   0.361   3.865 -0.3157 -0.3119 -0.1149
 2312SOL     OW 9293   2.925   0.527   3.774  0.5195 -0.0816 -0.1948
 2312SOL    HW2 9294   3.001   0.489   3.819 -0.0415  0.4361  1.2275
 2312SOL    HW3 9295   2.850   0.477   3.808  0.1145  0.1454 -0.7578
 2312SOL    MW4 9296   2.925   0.515   3.784  0.3920  0.0167 -0.0815
 2313SOL     OW 9297   2.928   0.797   3.891 -0.6520 -0.4012 -0.1988
 2313SOL    HW2 9298   3.000   0.852   3.860 -1.5209  0.5802 -0.5127
 2313SOL    HW3 9299   2.945   0.711   3.852  0.5210 -0.2709  0.0007
 2313SOL    MW4 9300   2.940   0.793   3.882 -0.6120 -0.2546 -0.2136
 2314SOL     OW 9301   2.930   1.267   3.761 -0.3431 -1.0664  0.5560
 2314SOL    HW2 9302   2.853   1.215   3.784  0.2151 -0.9484  2.7638
 2314SOL    HW3 9303   2.918   1.350   3.807  0.8136 -0.8153  0.4311
 2314SOL    MW4 9304   2.918   1.271   3.770 -0.1168 -1.0177  0.8309
 2315SOL     OW 9305   2.021   1.497   3.827  0.4790  0.6191 -0.0521
 2315SOL    HW2 9306   1.940   1.539   3.799  0.7645  0.4449 -1.1416
 2315SOL    HW3 9307   2.011   1.405   3.800  1.1715  0.6658 -0.4701
 2315SOL    MW4 9308   2.009   1.490   3.820  0.6080  0.6021 -0.2508
 2316SOL     OW 9309   2.891   1.510   3.890  0.2714  0.0563  0.1255
 2316SOL    HW2 9310   2.979   1.544   3.875  0.5684  0.1083  1.8920
 2316SOL    HW3 9311   2.890   1.487   3.983 -2.1319  1.7078  0.5493
 2316SOL    MW4 9312   2.903   1.511   3.901 -0.0064  0.2811  0.4144
 2317SOL     OW 9313   0.400   1.652   4.171 -0.0229  0.2685  0.0731
 2317SOL    HW2 9314   0.395   1.646   4.266  0.5896  1.1962  0.1668
 2317SOL    HW3 9315   0.494   1.645   4.152 -0.1327  0.2130 -0.4541
 2317SOL    MW4 9316   0.412   1.650   4.181  0.0434  0.3834  0.0162
 2318SOL     OW 9317   2.738   1.699   3.760  0.2423  0.0748  0.2122
 2318SOL    HW2 9318   2.803   1.641   3.799  0.2825 -0.2975 -0.3948
 2318SOL    HW3 9319   2.739   1.676   3.667 -1.7386 -0.8968  0.4120
 2318SOL    MW4 9320   2.747   1.688   3.753 -0.0138 -0.1024  0.1583
 2319SOL     OW 9321   2.694   1.937   3.899  0.0474  0.0967  0.4018
 2319SOL    HW2 9322   2.708   1.849   3.864  1.2312  0.6945 -0.6920
 2319SOL    HW3 9323   2.625   1.974   3.844 -0.4068 -0.1287  0.8217
 2319SOL    MW4 9324   2.687   1.930   3.887  0.1440  0.1458  0.3130
 2320SOL     OW 9325   2.927   2.061   3.788 -0.5854 -0.5733  0.0888
 2320SOL    HW2 9326   2.943   2.152   3.814 -0.1430 -0.4924 -0.4441
 2320SOL    HW3 9327   2.852   2.034   3.840 -1.4751  0.4915 -0.6213
 2320SOL    MW4 9328   2.919   2.070   3.798 -0.6444 -0.4222 -0.0753
 2321SOL     OW 9329   2.909   2.320   3.883 -0.1670  0.2512 -0.3810
 2321SOL    HW2 9330   2.927   2.305   3.976  0.3265 -1.6516 -0.7646
 2321SOL    HW3 9331   2.985   2.370   3.852 -0.0258  0.3384  0.0931
 2321SOL    MW4 9332   2.921   2.325   3.891 -0.0832  0.0117 -0.3691
 2322SOL     OW 9333   2.650   2.403   3.812 -0.1305 -0.7551  0.1900
 2322SOL    HW2 9334   2.659   2.414   3.718  0.3684  2.4133  0.5614
 2322SOL    HW3 9335   2.737   2.377   3.842 -0.1916 -1.3739 -0.1768
 2322SOL    MW4 9336   2.662   2.401   3.804 -0.0727 -0.4184  0.1905
 2323SOL     OW 9337   2.478   3.069   3.883 -0.3968 -0.1796  0.0879
 2323SOL    HW2 9338   2.479   3.053   3.977  0.8616 -0.5589  0.0199
 2323SOL    HW3 9339   2.487   2.982   3.843  0.1563  0.0826 -0.3641
 2323SOL    MW4 9340   2.479   3.055   3.890 -0.1578 -0.1950  0.0193
 2324SOL     OW 9341   2.907   3.093   3.914 -0.5992  0.1668 -0.3062
 2324SOL    HW2 9342   2.986   3.135   3.881  0.6650  0.3791  2.8482
 2324SOL    HW3 9343   2.836   3.131   3.863  1.1820  1.1055 -2.1177
 2324SOL    MW4 9344   2.908   3.103   3.903 -0.1974  0.3188 -0.1290
 2325SOL     OW 9345   2.910   3.134   4.194  0.0934 -0.2532 -0.3806
 2325SOL    HW2 9346   3.003   3.155   4.205  0.6047 -3.0972  1.4457
 2325SOL    HW3 9347   2.902   3.106   4.103  1.0570 -0.1889 -0.4914
 2325SOL    MW4 9348   2.921   3.133   4.184  0.2880 -0.6199 -0.1545
 2326SOL     OW 9349   3.162   3.204   4.243  0.3564  0.0771  0.2528
 2326SOL    HW2 9350   3.178   3.293   4.211  1.3406 -0.3820 -0.5704
 2326SOL    HW3 9351   3.172   3.211   4.338  0.9690  0.7444  0.1487
 2326SOL    MW4 9352   3.166   3.217   4.251  0.5672  0.1049  0.1302
 2327SOL     OW 9353   2.437   3.614   3.734  0.4248  0.3324 -0.2562
 2327SOL    HW2 9354   2.448   3.605   3.640 -0.6063  0.3935 -0.3912
 2327SOL    HW3 9355   2.521   3.587   3.771  1.4661  2.0741 -1.2833
 2327SOL    MW4 9356   2.449   3.609   3.727  0.4261  0.5703 -0.4096
 2328SOL     OW 9357   2.908   3.591   3.743  0.5242 -0.2296 -0.5975
 2328SOL    HW2 9358   2.995   3.560   3.770  0.3886 -1.6601 -1.7225
 2328SOL    HW3 9359   2.916   3.607   3.649 -0.6723 -1.2995 -0.8970
 2328SOL    MW4 9360   2.920   3.589   3.734  0.3483 -0.5596 -0.7854
 2329SOL     OW 9361   2.916   3.840   3.847  0.4996  0.0147 -0.5254
 2329SOL    HW2 9362   2.926   3.842   3.942 -2.9002  0.7784 -0.1071
 2329SOL    HW3 9363   2.912   3.747   3.825 -0.5573 -0.1545  0.3460
 2329SOL    MW4 9364   2.917   3.828   3.856 -0.0882  0.0932 -0.3552
 2330SOL     OW 9365   2.692   3.982   3.759 -0.0116 -0.3938  0.3578
 2330SOL    HW2 9366   2.701   4.075   3.780  1.7402 -0.4740  0.0797
 2330SOL    HW3 9367   2.771   3.942   3.796 -0.4779 -1.6840 -0.0122
 2330SOL    MW4 9368   2.704   3.989   3.767  0.1581 -0.5748  0.2723
 2331SOL     OW 9369   2.715   4.250   3.862 -0.3738 -0.4306 -0.4840
 2331SOL    HW2 9370   2.640   4.284   3.813  0.2473  0.1942 -1.0180
 2331SOL    HW3 9371   2.790   4.298   3.827  0.4403 -1.8639 -0.7802
 2331SOL    MW4 9372   2.715   4.260   3.851 -0.1845 -0.5374 -0.5934
 2332SOL     OW 9373   2.940   4.404   3.767 -0.1215  0.2692 -0.0550
 2332SOL    HW2 9374   3.007   4.358   3.817 -0.6614  0.1503  0.5668
 2332SOL    HW3 9375   2.939   4.493   3.804  0.1607  0.4733 -0.5234
 2332SOL    MW4 9376   2.949   4.410   3.779 -0.1554  0.2804 -0.0348
 2333SOL     OW 9377   3.869   0.416   4.531  0.0729  0.3472 -0.1065
 2333SOL    HW2 9378   3.832   0.330   4.553  0.1677  0.1740 -0.6190
 2333SOL    HW3 9379   3.817   0.478   4.582  1.3498 -0.1725  1.9106
 2333SOL    MW4 9380   3.857   0.413   4.541  0.2537  0.2557  0.0916
 2334SOL     OW 9381   3.131   0.139   3.836  0.3271 -0.0584  0.1480
 2334SOL    HW2 9382   3.202   0.083   3.868  1.4504  0.4971 -1.3395
 2334SOL    HW3 9383   3.125   0.120   3.743 -2.2422 -0.9102  0.4493
 2334SOL    MW4 9384   3.139   0.129   3.828  0.1364 -0.0975 -0.0088
 2335SOL     OW 9385   3.146   0.404   3.905  0.1323  0.3747  0.3307
 2335SOL    HW2 9386   3.151   0.318   3.863  0.7596  0.1671  0.8253
 2335SOL    HW3 9387   3.225   0.449   3.878  1.0066 -0.1032  2.0076
 2335SOL    MW4 9388   3.157   0.398   3.896  0.3304  0.2843  0.6170
 2336SOL     OW 9389   2.436   3.986   4.774  0.1874  0.5436 -0.1072
 2336SOL    HW2 9390   2.525   3.984   4.809 -0.0589  1.2781  0.5710
 2336SOL    HW3 9391   2.439   4.053   4.705 -0.1596  1.5722  0.8445
 2336SOL    MW4 9392   2.448   3.995   4.769  0.1092  0.7763  0.1082
 2337SOL     OW 9393   3.331   0.732   3.897 -0.1175 -0.1764  0.0961
 2337SOL    HW2 9394   3.297   0.729   3.987 -0.5527  0.5613 -0.0455
 2337SOL    HW3 9395   3.273   0.792   3.851  0.3334 -0.2621 -0.5904
 2337SOL    MW4 9396   3.319   0.739   3.903 -0.1156 -0.0903 -0.0131
 2338SOL     OW 9397   3.168   0.948   3.811 -0.1070  0.0378  0.2327
 2338SOL    HW2 9398   3.167   1.036   3.848 -2.0084 -0.0927  0.5182
 2338SOL    HW3 9399   3.177   0.961   3.717  0.4946  0.5062  0.3539
 2338SOL    MW4 9400   3.169   0.961   3.804 -0.2782  0.0824  0.2863
 2339SOL     OW 9401   3.177   1.208   3.878 -0.7423 -0.4647  0.4072
 2339SOL    HW2 9402   3.154   1.187   3.969 -1.7712  0.6320  0.4033
 2339SOL    HW3 9403   3.095   1.232   3.837  0.1514  2.0561 -0.0094
 2339SOL    MW4 9404   3.163   1.208   3.885 -0.7601  0.0125  0.3519
 2340SOL     OW 9405   3.422   1.304   3.749  0.1791  0.2406  0.1772
 2340SOL    HW2 9406   3.340   1.272   3.788 -0.2074 -0.8408 -1.5050
 2340SOL    HW3 9407   3.402   1.317   3.657  2.0708 -0.5967 -0.3771
 2340SOL    MW4 9408   3.408   1.301   3.742  0.3779 -0.0125 -0.1178
 2341SOL     OW 9409   3.403   1.535   3.888 -0.0207 -0.4177  0.4084
 2341SOL    HW2 9410   3.410   1.451   3.842 -0.7477  0.6092 -1.6300
 2341SOL    HW3 9411   3.320   1.572   3.858  0.0441  0.7972  1.6921
 2341SOL    MW4 9412   3.393   1.529   3.878 -0.1082 -0.1220  0.3090
 2342SOL     OW 9413   3.142   1.621   3.810  0.0119 -0.0351 -0.4744
 2342SOL    HW2 9414   3.147   1.715   3.825  0.2553 -0.2979  1.2011
 2342SOL    HW3 9415   3.127   1.612   3.716  1.5628  1.6268 -0.9006
 2342SOL    MW4 9416   3.140   1.632   3.800  0.2482  0.1496 -0.3097
 2343SOL     OW 9417   3.152   1.911   3.812  0.6224 -0.3343  0.0920
 2343SOL    HW2 9418   3.161   1.899   3.907  1.6505 -0.3678 -0.0092
 2343SOL    HW3 9419   3.070   1.958   3.802  0.8737  0.3186  1.0458
 2343SOL    MW4 9420   3.142   1.915   3.823  0.7913 -0.2525  0.2041
 2344SOL     OW 9421   3.404   2.279   3.785  0.3636 -0.0009 -0.3146
 2344SOL    HW2 9422   3.384   2.188   3.764  0.5516 -0.0581 -0.2536
 2344SOL    HW3 9423   3.324   2.328   3.764  0.4586 -0.0964 -0.8971
 2344SOL    MW4 9424   3.391   2.274   3.780  0.4010 -0.0212 -0.3834
 2345SOL     OW 9425   2.927   1.240   4.286  0.0782 -0.0669  0.7040
 2345SOL    HW2 9426   2.862   1.190   4.237 -0.1465  0.3330  0.5951
 2345SOL    HW3 9427   3.011   1.216   4.245 -0.0394 -0.2778  0.5888
 2345SOL    MW4 9428   2.930   1.230   4.274  0.0329 -0.0420  0.6747
 2346SOL     OW 9429   3.163   2.409   3.773  0.2274  0.2571 -0.0347
 2346SOL    HW2 9430   3.176   2.494   3.816 -0.4497  0.4777 -0.2516
 2346SOL    HW3 9431   3.149   2.431   3.680 -3.0249  0.1978  0.3615
 2346SOL    MW4 9432   3.163   2.423   3.766 -0.2913  0.2782 -0.0110
 2347SOL     OW 9433   2.944   2.827   3.810  0.1702  0.1592  0.2623
 2347SOL    HW2 9434   2.878   2.772   3.853  0.0904 -1.0717 -1.4051
 2347SOL    HW3 9435   2.919   2.916   3.834 -0.6488 -0.4279  1.6777
 2347SOL    MW4 9436   2.932   2.831   3.819  0.0517 -0.0806  0.2291
 2348SOL     OW 9437   3.421   2.792   3.837  0.1857  0.6843  0.4864
 2348SOL    HW2 9438   3.336   2.755   3.862  0.6175  0.6420  1.9737
 2348SOL    HW3 9439   3.413   2.809   3.744 -1.0359 -0.4715  0.3531
 2348SOL    MW4 9440   3.409   2.789   3.828  0.0815  0.5262  0.6652
 2349SOL     OW 9441   3.348   3.064   3.878  0.0668  0.0781 -0.2685
 2349SOL    HW2 9442   3.377   2.973   3.865  0.6114 -0.5481  4.6060
 2349SOL    HW3 9443   3.426   3.117   3.862  0.8195 -0.6503  0.9862
 2349SOL    MW4 9444   3.362   3.059   3.874  0.2384 -0.1006  0.5403
 2350SOL     OW 9445   3.135   3.232   3.800 -0.0351  0.1380 -0.4080
 2350SOL    HW2 9446   3.209   3.179   3.830 -1.3038 -0.5745  1.5428
 2350SOL    HW3 9447   3.153   3.248   3.707  1.3791 -2.0316 -0.5403
 2350SOL    MW4 9448   3.147   3.227   3.792 -0.0160 -0.2422 -0.1683
 2351SOL     OW 9449   3.160   3.502   3.833  0.0485 -0.0207  0.2690
 2351SOL    HW2 9450   3.162   3.407   3.828  0.7478 -0.0250  0.5589
 2351SOL    HW3 9451   3.249   3.530   3.811 -0.3832  0.6193 -0.7472
 2351SOL    MW4 9452   3.172   3.493   3.829  0.0837  0.0634  0.1731
 2352SOL     OW 9453   3.418   3.611   3.804  0.4500  0.0596  0.0946
 2352SOL    HW2 9454   3.397   3.694   3.846  0.5345 -0.1994  0.6557
 2352SOL    HW3 9455   3.415   3.630   3.711 -1.4064  0.2508  0.1702
 2352SOL    MW4 9456   3.415   3.624   3.798  0.2160  0.0510  0.1788
 2353SOL     OW 9457   3.372   3.874   3.868 -0.1227 -0.0486  0.0424
 2353SOL    HW2 9458   3.447   3.909   3.819  1.0378 -1.6139  0.6605
 2353SOL    HW3 9459   3.296   3.916   3.829  1.0241  1.0259 -1.0755
 2353SOL    MW4 9460   3.372   3.884   3.857  0.1817 -0.1135 -0.0234
 2354SOL     OW 9461   3.148   3.994   3.765 -0.1145  0.6104 -0.0581
 2354SOL    HW2 9462   3.130   4.079   3.804  0.9485  0.3172  1.1194
 2354SOL    HW3 9463   3.072   3.940   3.787  0.1937  0.6306  1.0901
 2354SOL    MW4 9464   3.136   3.998   3.773  0.0668  0.5744  0.2487
 2355SOL     OW 9465   3.122   4.257   3.896 -0.4861  0.0248 -0.2929
 2355SOL    HW2 9466   3.128   4.259   3.991  0.0176 -1.2314 -0.2830
 2355SOL    HW3 9467   3.209   4.285   3.866 -0.5088  0.0030 -0.3786
 2355SOL    MW4 9468   3.135   4.261   3.904 -0.4225 -0.1435 -0.3030
 2356SOL     OW 9469   3.378   4.379   3.785 -0.3157  0.1525  0.9090
 2356SOL    HW2 9470   3.466   4.351   3.811  0.0604  1.6915  1.3490
 2356SOL    HW3 9471   3.372   4.470   3.815 -1.7667  0.3108  0.1754
 2356SOL    MW4 9472   3.389   4.387   3.792 -0.4575  0.3767  0.8702
 2357SOL     OW 9473   1.620   4.068   4.642  0.5378 -0.5128  0.8260
 2357SOL    HW2 9474   1.677   4.055   4.566  1.5639 -0.2830  1.5575
 2357SOL    HW3 9475   1.625   3.986   4.691 -1.5071 -1.3333 -0.2485
 2357SOL    MW4 9476   1.628   4.055   4.638  0.4034 -0.5913  0.7806
 2358SOL     OW 9477   3.577   0.076   3.776 -0.1427 -0.0243 -0.1142
 2358SOL    HW2 9478   3.588   0.082   3.681 -0.5455 -0.6758 -0.2052
 2358SOL    HW3 9479   3.574   0.167   3.805  0.1556  0.1810 -0.7048
 2358SOL    MW4 9480   3.578   0.089   3.767 -0.1566 -0.0832 -0.2043
 2359SOL     OW 9481   3.613   0.324   3.889 -0.5437  0.4197  0.1882
 2359SOL    HW2 9482   3.619   0.336   3.984  0.3219  0.8378  0.0814
 2359SOL    HW3 9483   3.688   0.372   3.854  0.5411 -1.7166 -0.5233
 2359SOL    MW4 9484   3.624   0.332   3.897 -0.2866  0.1931  0.0803
 2360SOL     OW 9485   4.055   0.135   3.759 -0.1460 -0.3061  0.0486
 2360SOL    HW2 9486   4.043   0.154   3.666 -0.1620 -0.5625  0.0004
 2360SOL    HW3 9487   4.061   0.222   3.800  0.1078 -0.1950 -0.2218
 2360SOL    MW4 9488   4.054   0.149   3.752 -0.1144 -0.3252  0.0067
 2361SOL     OW 9489   3.822   0.492   3.791  0.0531  0.0782 -0.4350
 2361SOL    HW2 9490   3.909   0.458   3.809  0.8940  2.1174 -0.4805
 2361SOL    HW3 9491   3.816   0.572   3.844 -1.3549  0.5585 -1.2893
 2361SOL    MW4 9492   3.832   0.498   3.800 -0.0219  0.4106 -0.5536
 2362SOL     OW 9493   3.580   0.859   3.828  0.0250 -0.3811  0.1014
 2362SOL    HW2 9494   3.581   0.951   3.853  0.3108 -0.7263  1.3841
 2362SOL    HW3 9495   3.491   0.829   3.846  0.1255 -0.5363  0.3371
 2362SOL    MW4 9496   3.569   0.867   3.833  0.0758 -0.4471  0.3021
 2363SOL     OW 9497   3.609   1.135   3.869  0.0871 -0.6852  0.0241
 2363SOL    HW2 9498   3.550   1.190   3.818  0.0055 -0.2103  0.6344
 2363SOL    HW3 9499   3.697   1.165   3.844  0.0218  1.5456  2.3409
 2363SOL    MW4 9500   3.613   1.146   3.859  0.0679 -0.3284  0.4101
 2364SOL     OW 9501   3.855   1.252   3.785 -0.1396  0.1535  0.0378
 2364SOL    HW2 9502   3.941   1.220   3.811 -0.6415 -0.0526  1.4781
 2364SOL    HW3 9503   3.853   1.343   3.813 -0.2591  0.2613 -0.3152
 2364SOL    MW4 9504   3.866   1.260   3.792 -0.2217  0.1405  0.1812
 2365SOL     OW 9505   2.453   0.410   4.502  0.0241  0.1637  0.1829
 2365SOL    HW2 9506   2.440   0.422   4.408 -1.0396 -1.6323  0.0779
 2365SOL    HW3 9507   2.373   0.446   4.541  0.1301  0.2088  0.3564
 2365SOL    MW4 9508   2.441   0.417   4.494 -0.1023 -0.0673  0.1917
 2366SOL     OW 9509   3.611   1.915   3.908 -0.6324  0.5921 -0.1005
 2366SOL    HW2 9510   3.624   1.828   3.871  0.3670  0.9199 -0.5211
 2366SOL    HW3 9511   3.539   1.952   3.856 -1.5072 -0.2185  0.5107
 2366SOL    MW4 9512   3.603   1.908   3.896 -0.6161  0.5283 -0.0753
 2367SOL     OW 9513   3.410   1.993   3.733 -0.1601 -0.1676 -0.0068
 2367SOL    HW2 9514   3.324   1.960   3.756 -0.2596 -0.0284 -0.1788
 2367SOL    HW3 9515   3.400   2.028   3.644  0.0436 -0.0473  0.0160
 2367SOL    MW4 9516   3.398   1.993   3.724 -0.1462 -0.1333 -0.0262
 2368SOL     OW 9517   4.032   1.908   3.855  0.5328  0.0561 -0.4260
 2368SOL    HW2 9518   4.115   1.953   3.838  0.9892 -0.2514  0.9135
 2368SOL    HW3 9519   4.033   1.890   3.949 -1.7424  1.4000 -0.1095
 2368SOL    MW4 9520   4.043   1.911   3.865  0.2923  0.1928 -0.2074
 2369SOL     OW 9521   3.646   2.423   3.768  0.0411  0.2888  0.0553
 2369SOL    HW2 9522   3.639   2.445   3.674  0.8480  0.5215  0.0457
 2369SOL    HW3 9523   3.570   2.369   3.785  0.5258 -0.7583 -1.0227
 2369SOL    MW4 9524   3.635   2.419   3.758  0.2115  0.1817 -0.0882
 2370SOL     OW 9525   3.642   2.664   3.877 -0.1322  0.6818 -0.0894
 2370SOL    HW2 9526   3.557   2.703   3.859 -0.9299 -0.6552  0.7254
 2370SOL    HW3 9527   3.635   2.575   3.844  0.2940 -0.0417  1.7192
 2370SOL    MW4 9528   3.630   2.658   3.870 -0.1814  0.4098  0.2563
 2371SOL     OW 9529   0.407   1.653   4.453  0.0306 -0.4005 -0.3117
 2371SOL    HW2 9530   0.488   1.664   4.503  0.0627 -0.0961 -0.4306
 2371SOL    HW3 9531   0.357   1.732   4.471 -0.9499 -1.3139  1.0623
 2371SOL    MW4 9532   0.411   1.665   4.462 -0.0945 -0.4809 -0.1459
 2372SOL     OW 9533   3.861   2.798   3.771  0.1568  0.1098 -0.3702
 2372SOL    HW2 9534   3.793   2.752   3.820  3.1815 -0.1811  3.9322
 2372SOL    HW3 9535   3.857   2.888   3.803  0.5215  0.5350 -1.5134
 2372SOL    MW4 9536   3.852   2.803   3.782  0.6039  0.1276  0.0467
 2373SOL     OW 9537   3.862   4.658   3.877  0.2914 -0.4240  0.2510
 2373SOL    HW2 9538   3.778   4.701   3.860  0.1508 -0.0291  1.8312
 2373SOL    HW3 9539   3.927   4.721   3.847  0.0637  0.4657  1.5793
 2373SOL    MW4 9540   3.859   4.672   3.871  0.2429 -0.2546  0.6349
 2374SOL     OW 9541   3.577   3.194   3.798 -0.2878 -0.5424 -0.0859
 2374SOL    HW2 9542   3.602   3.282   3.827  0.6738 -1.2854  1.4125
 2374SOL    HW3 9543   3.579   3.199   3.703 -1.2559  1.3370 -0.0333
 2374SOL    MW4 9544   3.581   3.207   3.789 -0.2890 -0.3924  0.1187
 2375SOL     OW 9545   3.640   3.479   3.882 -0.6813 -0.4072  0.2932
 2375SOL    HW2 9546   3.704   3.515   3.820 -1.6674 -0.7686 -0.9499
 2375SOL    HW3 9547   3.558   3.521   3.858 -0.5446  1.7395  3.3048
 2375SOL    MW4 9548   3.638   3.490   3.871 -0.7935 -0.1717  0.5264
 2376SOL     OW 9549   3.837   3.865   4.141 -0.1414 -0.1304 -0.1351
 2376SOL    HW2 9550   3.764   3.918   4.171 -0.7129 -0.1984 -1.4006
 2376SOL    HW3 9551   3.914   3.903   4.184 -0.8084  0.4405  0.5558
 2376SOL    MW4 9552   3.838   3.877   4.151 -0.3049 -0.0641 -0.2108
 2377SOL     OW 9553   3.841   2.272   4.105 -0.1647  0.1959  0.3337
 2377SOL    HW2 9554   3.896   2.344   4.137 -1.4139  1.4551 -0.3067
 2377SOL    HW3 9555   3.842   2.282   4.010 -1.4851  0.2235  0.3195
 2377SOL    MW4 9556   3.848   2.283   4.097 -0.5038  0.3657  0.2470
 2378SOL     OW 9557   3.585   3.997   3.754 -0.2005  0.2262  0.3154
 2378SOL    HW2 9558   3.610   4.078   3.800  0.9109  0.5664 -0.8571
 2378SOL    HW3 9559   3.652   3.934   3.779 -1.3133 -0.4786  1.5765
 2378SOL    MW4 9560   3.597   4.000   3.763 -0.2007  0.1783  0.3271
 2379SOL     OW 9561   3.854   4.393   3.782  0.4224 -0.1399  0.6892
 2379SOL    HW2 9562   3.841   4.408   3.689 -0.1292 -1.3583  0.5688
 2379SOL    HW3 9563   3.869   4.481   3.818  1.6668  0.2387 -0.6868
 2379SOL    MW4 9564   3.854   4.407   3.775  0.5140 -0.2508  0.4916
 2380SOL     OW 9565   4.098   4.288   3.888 -0.5640 -0.0800  0.1306
 2380SOL    HW2 9566   4.017   4.322   3.851  0.1147  1.9199  0.4115
 2380SOL    HW3 9567   4.167   4.335   3.842  0.3737  0.2429  1.8173
 2380SOL    MW4 9568   4.097   4.299   3.877 -0.3505  0.2265  0.3903
 2381SOL     OW 9569   4.278   4.655   3.840  0.2843 -0.3630  0.0806
 2381SOL    HW2 9570   4.354   4.687   3.792  0.6106  1.5211  1.7912
 2381SOL    HW3 9571   4.206   4.712   3.813  0.2529  0.0653  1.0281
 2381SOL    MW4 9572   4.279   4.666   3.830  0.3228 -0.0577  0.4313
 2382SOL     OW 9573   3.803   0.737   3.946  0.2509 -0.1520 -0.3192
 2382SOL    HW2 9574   3.884   0.778   3.915  0.5374  0.8370  1.7040
 2382SOL    HW3 9575   3.733   0.782   3.899  0.6688  1.4980  0.6233
 2382SOL    MW4 9576   3.805   0.748   3.935  0.3440  0.1962  0.0722
 2383SOL     OW 9577   0.531   0.335   4.087 -0.2341  0.2145  0.7197
 2383SOL    HW2 9578   0.532   0.378   4.002  1.0876 -0.4139  0.4129
 2383SOL    HW3 9579   0.467   0.264   4.078 -1.1514  1.0201  0.7089
 2383SOL    MW4 9580   0.522   0.332   4.075 -0.1807  0.2379  0.6776
 2384SOL     OW 9581   4.074   0.390   3.875  0.3306  0.4204 -0.2433
 2384SOL    HW2 9582   4.060   0.425   3.963 -1.0337 -0.5488 -0.0592
 2384SOL    HW3 9583   4.152   0.435   3.844  0.3912  1.3395  1.1710
 2384SOL    MW4 9584   4.082   0.401   3.882  0.1593  0.4138 -0.0324
 2385SOL     OW 9585   4.260   4.375   4.235 -0.2989 -0.0865  0.0730
 2385SOL    HW2 9586   4.186   4.322   4.205  0.6178 -0.8006 -1.0053
 2385SOL    HW3 9587   4.246   4.461   4.195 -1.2518  0.1876  0.9849
 2385SOL    MW4 9588   4.249   4.379   4.226 -0.3037 -0.1440  0.0510
 2386SOL     OW 9589   4.024   0.879   3.825  0.4547  0.0593  0.1976
 2386SOL    HW2 9590   4.036   0.971   3.847 -1.8443  0.3354  0.4725
 2386SOL    HW3 9591   4.015   0.878   3.730 -1.3989  0.3954  0.3439
 2386SOL    MW4 9592   4.024   0.891   3.815 -0.0930  0.1401  0.2530
 2387SOL     OW 9593   4.088   1.136   3.875 -0.3318  0.3890  0.4378
 2387SOL    HW2 9594   4.097   1.128   3.970  0.2121 -1.6085  0.2382
 2387SOL    HW3 9595   4.175   1.158   3.844 -0.6429  1.6699  0.4470
 2387SOL    MW4 9596   4.100   1.138   3.883 -0.3014  0.2943  0.4127
 2388SOL     OW 9597   4.314   1.222   3.761 -0.0709  0.2106 -0.1034
 2388SOL    HW2 9598   4.311   1.317   3.770 -0.2461  0.1382  0.5957
 2388SOL    HW3 9599   4.317   1.207   3.666  0.2568  0.9193 -0.2035
 2388SOL    MW4 9600   4.314   1.232   3.750 -0.0505  0.2947 -0.0241
 2389SOL     OW 9601   4.294   1.499   3.829  0.0736  0.5574 -0.3566
 2389SOL    HW2 9602   4.296   1.495   3.925  1.0601  1.0291 -0.3471
 2389SOL    HW3 9603   4.216   1.550   3.809 -0.8494 -0.6518  0.1534
 2389SOL    MW4 9604   4.284   1.505   3.839  0.0820  0.4601 -0.2882
 2390SOL     OW 9605   3.841   1.539   3.880 -0.3276  0.3170  0.3871
 2390SOL    HW2 9606   3.823   1.558   3.972 -3.0099 -2.1605  0.4035
 2390SOL    HW3 9607   3.767   1.577   3.832  1.0444  1.5860 -0.8139
 2390SOL    MW4 9608   3.829   1.547   3.886 -0.5004  0.1576  0.2308
 2391SOL     OW 9609   4.073   1.652   3.797 -0.3068  0.2649 -0.2948
 2391SOL    HW2 9610   4.063   1.743   3.826  0.5821 -0.5334  2.6648
 2391SOL    HW3 9611   3.988   1.612   3.814 -1.0750  0.7875 -2.7017
 2391SOL    MW4 9612   4.061   1.659   3.803 -0.2913  0.2286 -0.2217
 2392SOL     OW 9613   4.282   1.992   3.507 -0.3888  0.7146  0.6527
 2392SOL    HW2 9614   4.270   2.080   3.471 -0.2275  0.4419 -0.0689
 2392SOL    HW3 9615   4.370   1.966   3.481 -0.7944 -0.0477  0.0312
 2392SOL    MW4 9616   4.292   2.000   3.499 -0.4206  0.5780  0.4756
 2393SOL     OW 9617   4.271   2.028   3.801 -0.0181 -0.0523  0.4577
 2393SOL    HW2 9618   4.293   2.112   3.839 -0.5370  0.0364  0.5603
 2393SOL    HW3 9619   4.294   2.037   3.708  1.2104 -0.2597  0.7318
 2393SOL    MW4 9620   4.277   2.040   3.794  0.0753 -0.0677  0.5074
 2394SOL     OW 9621   3.877   2.282   3.829  0.0833  0.1297 -0.2478
 2394SOL    HW2 9622   3.801   2.338   3.812 -0.0864  0.3137  1.0342
 2394SOL    HW3 9623   3.857   2.200   3.784  0.4368  1.1587 -2.3421
 2394SOL    MW4 9624   3.864   2.279   3.821  0.1075  0.2897 -0.3550
 2395SOL     OW 9625   4.134   2.386   3.770  0.0390 -0.0166  0.4909
 2395SOL    HW2 9626   4.053   2.344   3.801  0.0229 -0.3115  0.0588
 2395SOL    HW3 9627   4.118   2.480   3.781  0.2583 -0.1467  1.9025
 2395SOL    MW4 9628   4.121   2.393   3.775  0.0658 -0.0727  0.6201
 2396SOL     OW 9629   4.279   2.849   3.755  0.3424  0.2860  0.0418
 2396SOL    HW2 9630   4.276   2.936   3.796  0.3714  0.2773  0.0629
 2396SOL    HW3 9631   4.350   2.804   3.801  0.2090  0.1897  0.1559
 2396SOL    MW4 9632   4.288   2.854   3.767  0.3285  0.2723  0.0596
 2397SOL     OW 9633   4.268   3.109   3.869 -0.0855 -0.0275  0.3032
 2397SOL    HW2 9634   4.190   3.149   3.831  0.5927  0.6762 -0.3635
 2397SOL    HW3 9635   4.339   3.169   3.846  1.2000 -2.3861 -2.0251
 2397SOL    MW4 9636   4.267   3.123   3.861  0.1740 -0.2458 -0.0918
 2398SOL     OW 9637   3.822   3.075   3.880 -0.0559 -0.6483  0.0572
 2398SOL    HW2 9638   3.731   3.101   3.866  0.1562 -0.3402 -0.7791
 2398SOL    HW3 9639   3.838   3.094   3.972 -1.3735 -2.3748  0.6740
 2398SOL    MW4 9640   3.812   3.081   3.890 -0.2019 -0.8354  0.0279
 2399SOL     OW 9641   4.016   3.250   3.775 -0.5653 -0.4182 -0.1540
 2399SOL    HW2 9642   3.944   3.193   3.802 -2.6036  2.0767 -0.0973
 2399SOL    HW3 9643   4.028   3.230   3.682  0.1490 -2.3549  0.3272
 2399SOL    MW4 9644   4.008   3.239   3.766 -0.7401 -0.3445 -0.0830
 2400SOL     OW 9645   4.259   3.631   3.772 -0.1052  0.2377 -0.5058
 2400SOL    HW2 9646   4.206   3.590   3.840 -0.4835  0.8263 -0.4432
 2400SOL    HW3 9647   4.349   3.621   3.802 -0.3057  1.0670  0.4085
 2400SOL    MW4 9648   4.264   3.624   3.785 -0.1817  0.4244 -0.3769
 2401SOL     OW 9649   4.262   3.903   3.846  0.1935 -0.1321 -0.2393
 2401SOL    HW2 9650   4.255   3.816   3.806  0.5905 -0.5080  0.5045
 2401SOL    HW3 9651   4.176   3.944   3.831 -0.1820 -0.8634 -0.0772
 2401SOL    MW4 9652   4.250   3.897   3.839  0.1965 -0.2782 -0.1197
 2402SOL     OW 9653   3.792   3.862   3.870 -0.5440 -0.4390 -0.4852
 2402SOL    HW2 9654   3.814   3.870   3.963 -1.0726  0.1340 -0.4103
 2402SOL    HW3 9655   3.852   3.922   3.826 -2.2107  1.4571 -0.2397
 2402SOL    MW4 9656   3.803   3.871   3.876 -0.8335 -0.1132 -0.4430
 2403SOL     OW 9657   4.307   3.863   4.115 -0.1373 -0.1343 -0.3493
 2403SOL    HW2 9658   4.386   3.906   4.148  0.3888 -0.4648 -1.1806
 2403SOL    HW3 9659   4.301   3.890   4.024 -0.6846 -0.5420 -0.4319
 2403SOL    MW4 9660   4.317   3.872   4.108 -0.1402 -0.2317 -0.4697
 2404SOL     OW 9661   4.317   4.383   3.725 -0.0486 -0.1171  0.2493
 2404SOL    HW2 9662   4.322   4.469   3.768  2.4732  0.9264 -2.0111
 2404SOL    HW3 9663   4.387   4.333   3.765  0.1721 -0.2532 -0.3159
 2404SOL    MW4 9664   4.327   4.388   3.736  0.3133  0.0029 -0.1235
 2405SOL     OW 9665   1.282   1.945   3.841 -0.2595  0.1622 -0.4949
 2405SOL    HW2 9666   1.367   1.983   3.818 -0.8371  2.1636  0.4856
 2405SOL    HW3 9667   1.281   1.945   3.937 -1.4621  0.4022 -0.5014
 2405SOL    MW4 9668   1.293   1.950   3.851 -0.4945  0.4579 -0.3662
 2406SOL     OW 9669   0.494   3.997   3.712 -0.1131  0.4821 -0.2834
 2406SOL    HW2 9670   0.501   4.002   3.616  0.5227  0.2109 -0.2454
 2406SOL    HW3 9671   0.557   3.931   3.738  0.4075  1.2518  0.4176
 2406SOL    MW4 9672   0.503   3.989   3.703  0.0395  0.5479 -0.1857
 2407SOL     OW 9673   1.206   3.651   4.488 -0.1126  0.1556  0.3756
 2407SOL    HW2 9674   1.178   3.644   4.396  1.1174 -2.1490  0.1469
 2407SOL    HW3 9675   1.299   3.672   4.483 -0.1764  0.6231  1.1101
 2407SOL    MW4 9676   1.214   3.653   4.475  0.0412 -0.0870  0.4425
 2408SOL     OW 9677   4.369   0.662   4.525  0.1044 -0.2968 -0.3155
 2408SOL    HW2 9678   4.379   0.576   4.566  3.0767  0.0349 -0.1737
 2408SOL    HW3 9679   4.384   0.725   4.595  0.4935  0.3002 -0.9190
 2408SOL    MW4 9680   4.373   0.659   4.539  0.5474 -0.1743 -0.3762
 2409SOL     OW 9681   3.060   0.885   4.257 -0.1275  0.4433 -0.1370
 2409SOL    HW2 9682   3.140   0.835   4.239 -0.7732 -1.4194  1.9670
 2409SOL    HW3 9683   2.990   0.834   4.219 -0.7436 -0.0694  1.6229
 2409SOL    MW4 9684   3.061   0.872   4.250 -0.2940  0.1299  0.3729
 2410SOL     OW 9685   1.113   3.048   3.791 -0.3142 -0.1107 -0.1624
 2410SOL    HW2 9686   1.028   3.092   3.785 -0.3142 -0.0879  0.0092
 2410SOL    HW3 9687   1.128   3.038   3.884  0.0694  0.2604 -0.1847
 2410SOL    MW4 9688   1.104   3.052   3.802 -0.2636 -0.0589 -0.1428
 2411SOL     OW 9689   1.482   3.563   4.795  0.1479  0.2173  0.0186
 2411SOL    HW2 9690   1.451   3.533   4.880 -0.8499  0.5262 -0.2246
 2411SOL    HW3 9691   1.435   3.507   4.732  0.0195  0.7457 -0.3587
 2411SOL    MW4 9692   1.471   3.551   4.798 -0.0007  0.3278 -0.0629
 2412SOL     OW 9693   0.536   4.602   4.573  0.1006 -0.3428 -0.4193
 2412SOL    HW2 9694   0.613   4.610   4.630  0.7558  0.8751 -1.4513
 2412SOL    HW3 9695   0.547   4.671   4.508 -1.7844 -0.2598 -0.6860
 2412SOL    MW4 9696   0.548   4.612   4.572 -0.0617 -0.1712 -0.5908
 2413SOL     OW 9697   1.357   2.685   3.824  0.4778 -0.2572  0.6999
 2413SOL    HW2 9698   1.352   2.594   3.794 -1.6924 -0.4311  1.4883
 2413SOL    HW3 9699   1.350   2.679   3.920  0.9119  0.7043  0.8004
 2413SOL    MW4 9700   1.356   2.672   3.833  0.2488 -0.1533  0.8173
 2414SOL     OW 9701   2.706   0.345   4.163  0.3637  0.1250  0.2855
 2414SOL    HW2 9702   2.723   0.366   4.071 -0.2449  1.5535  0.4918
 2414SOL    HW3 9703   2.782   0.379   4.210 -0.5135  1.7153  0.5921
 2414SOL    MW4 9704   2.718   0.352   4.157  0.1676  0.5233  0.3533
 2415SOL     OW 9705   3.386   4.645   4.141  0.5453 -0.0460 -0.3168
 2415SOL    HW2 9706   3.455   4.711   4.140  1.0781 -0.6044 -1.2624
 2415SOL    HW3 9707   3.321   4.679   4.203  1.9447  0.2083  1.0460
 2415SOL    MW4 9708   3.387   4.658   4.149  0.8001 -0.0854 -0.2618
 2416SOL     OW 9709   1.802   3.184   4.237 -0.0150  0.2858 -0.1235
 2416SOL    HW2 9710   1.719   3.144   4.210  0.4469  0.8044 -2.4116
 2416SOL    HW3 9711   1.792   3.277   4.217  1.4199  0.2233 -1.2509
 2416SOL    MW4 9712   1.790   3.191   4.231  0.2354  0.3462 -0.5746
 2417SOL     OW 9713   2.459   1.335   4.495 -0.6165 -0.0699 -0.4400
 2417SOL    HW2 9714   2.456   1.269   4.564 -0.3791  0.3935  0.0144
 2417SOL    HW3 9715   2.524   1.398   4.525  2.0144 -1.6066 -2.6636
 2417SOL    MW4 9716   2.467   1.334   4.508 -0.2379 -0.2116 -0.6733
 2418SOL     OW 9717   2.023   4.155   4.494 -0.0087  0.0985  0.3841
 2418SOL    HW2 9718   2.033   4.215   4.420 -1.1885  1.2822  1.1532
 2418SOL    HW3 9719   2.107   4.111   4.502  1.2079  2.4131  0.4495
 2418SOL    MW4 9720   2.035   4.157   4.485 -0.0038  0.5598  0.4945
 2419SOL     OW 9721   2.026   3.396   4.451  0.3946  0.0367  0.3760
 2419SOL    HW2 9722   1.946   3.347   4.469  0.4448 -0.0132  0.4656
 2419SOL    HW3 9723   2.001   3.458   4.383 -0.1413  1.1500  1.5759
 2419SOL    MW4 9724   2.012   3.397   4.445  0.3304  0.1769  0.5465
 2420SOL     OW 9725   1.069   2.077   3.749 -0.3862  0.0013 -0.5074
 2420SOL    HW2 9726   1.150   2.033   3.778 -0.9443 -0.5140  0.2825
 2420SOL    HW3 9727   1.078   2.082   3.654  0.8091  0.3959 -0.3776
 2420SOL    MW4 9728   1.081   2.072   3.740 -0.3022 -0.0143 -0.3860
 2421SOL     OW 9729   1.312   3.188   4.481 -0.2535 -0.2015  0.5172
 2421SOL    HW2 9730   1.217   3.198   4.487 -0.3374 -0.7992  0.2214
 2421SOL    HW3 9731   1.335   3.130   4.554 -0.5035 -2.4718 -1.1328
 2421SOL    MW4 9732   1.303   3.181   4.492 -0.2975 -0.5798  0.2608
 2422SOL     OW 9733   2.678   1.166   4.152  0.2564  0.2657  0.6495
 2422SOL    HW2 9734   2.680   1.173   4.056 -0.9637 -1.2879  0.4768
 2422SOL    HW3 9735   2.614   1.232   4.179  1.4307  1.4925  0.5101
 2422SOL    MW4 9736   2.670   1.176   4.143  0.2501  0.2224  0.6080
 2423SOL     OW 9737   0.027   3.442   4.585 -0.3579  0.2237 -0.2241
 2423SOL    HW2 9738  -0.016   3.476   4.663  1.7948 -0.0576  1.1275
 2423SOL    HW3 9739   0.003   3.350   4.582 -0.3037  0.1927  0.2241
 2423SOL    MW4 9740   0.018   3.434   4.595 -0.0667  0.1824  0.0134
 2424SOL     OW 9741   3.593   0.399   4.173  0.2912 -0.1522 -0.1794
 2424SOL    HW2 9742   3.671   0.446   4.201 -0.2299  0.0101  1.0251
 2424SOL    HW3 9743   3.601   0.312   4.214 -0.2417 -0.0731  0.1022
 2424SOL    MW4 9744   3.604   0.394   4.182  0.1521 -0.1203  0.0167
 2425SOL     OW 9745   1.383   2.503   4.533  0.1367  0.1534 -0.0164
 2425SOL    HW2 9746   1.331   2.424   4.546 -0.8189  1.0480  1.8267
 2425SOL    HW3 9747   1.474   2.475   4.544 -0.0736 -1.0385 -1.2612
 2425SOL    MW4 9748   1.388   2.489   4.536 -0.0172  0.1142  0.0625
 2426SOL     OW 9749   2.961   0.893   4.543 -0.1579 -0.6021 -0.3404
 2426SOL    HW2 9750   2.994   0.885   4.453  0.5012  1.3534 -0.2979
 2426SOL    HW3 9751   2.957   0.987   4.559  0.8585 -0.9236  2.0874
 2426SOL    MW4 9752   2.965   0.904   4.533  0.0629 -0.3865 -0.0143
 2427SOL     OW 9753   2.952   3.651   4.525  0.2232  0.2830  0.6260
 2427SOL    HW2 9754   2.944   3.556   4.513 -0.3089  0.5318 -1.3014
 2427SOL    HW3 9755   3.033   3.663   4.573  1.1340 -1.0839 -0.5246
 2427SOL    MW4 9756   2.961   3.640   4.530  0.2730  0.1357  0.2198
 2428SOL     OW 9757   4.182   1.154   4.137  0.2987  0.0514  0.3634
 2428SOL    HW2 9758   4.267   1.124   4.169  0.8144  1.1555  0.0856
 2428SOL    HW3 9759   4.128   1.164   4.216  0.6404 -0.0184  0.6056
 2428SOL    MW4 9760   4.186   1.152   4.151  0.4115  0.1879  0.3591
 2429SOL     OW 9761   4.437   1.056   4.193 -0.1750  0.1951  0.3674
 2429SOL    HW2 9762   4.492   1.092   4.123 -0.3820  1.8846  1.0431
 2429SOL    HW3 9763   4.424   0.964   4.169  2.0233  0.0640 -0.3595
 2429SOL    MW4 9764   4.442   1.049   4.180  0.0877  0.4008  0.3610
 2430SOL     OW 9765   1.096   1.560   4.103  0.1317  0.0921 -0.3218
 2430SOL    HW2 9766   1.107   1.556   4.008 -1.1924  0.7451 -0.5202
 2430SOL    HW3 9767   1.092   1.469   4.131 -0.1837 -0.1021 -0.9824
 2430SOL    MW4 9768   1.097   1.548   4.094 -0.0848  0.1527 -0.4354
 2431SOL     OW 9769   4.076   3.970   4.256  0.4614  0.3182  0.5432
 2431SOL    HW2 9770   4.071   4.056   4.213 -0.7627  0.4531  0.9299
 2431SOL    HW3 9771   4.145   3.924   4.209 -0.1947  0.8117 -0.9573
 2431SOL    MW4 9772   4.084   3.975   4.244  0.2131  0.4010  0.3958
 2432SOL     OW 9773   2.242   3.229   4.470  0.0450  0.7703 -0.1275
 2432SOL    HW2 9774   2.300   3.296   4.507  2.2715 -1.0044 -0.3248
 2432SOL    HW3 9775   2.155   3.268   4.477  0.6653  1.7405  4.3256
 2432SOL    MW4 9776   2.238   3.243   4.476  0.4206  0.6642  0.4344
 2433SOL     OW 9777   1.887   2.808   4.470 -0.4473  0.6936  0.3767
 2433SOL    HW2 9778   1.916   2.721   4.499  0.5235  1.6170  2.2834
 2433SOL    HW3 9779   1.942   2.827   4.394  0.3850  0.2681  0.8665
 2433SOL    MW4 9780   1.898   2.799   4.464 -0.2095  0.7589  0.6933
 2434SOL     OW 9781   4.363   3.504   4.814 -0.2117  0.1621 -0.7008
 2434SOL    HW2 9782   4.329   3.540   4.896  1.1292  0.6014 -0.3125
 2434SOL    HW3 9783   4.291   3.513   4.752 -0.7304  1.2631  0.0363
 2434SOL    MW4 9784   4.349   3.510   4.817 -0.1030  0.3655 -0.5527
 2435SOL     OW 9785   3.590   2.147   4.607 -0.1982  0.1598  0.2984
 2435SOL    HW2 9786   3.545   2.196   4.676 -0.5435 -0.0937  0.2495
 2435SOL    HW3 9787   3.523   2.091   4.570  0.2358 -0.4508  0.4386
 2435SOL    MW4 9788   3.576   2.146   4.611 -0.1867  0.0455  0.3109
 2436SOL     OW 9789   2.263   0.317   4.125 -0.2588 -0.5833 -0.2626
 2436SOL    HW2 9790   2.202   0.377   4.169  1.3655  0.2708  0.8786
 2436SOL    HW3 9791   2.274   0.244   4.187 -0.1975 -0.7819 -0.5052
 2436SOL    MW4 9792   2.256   0.315   4.139 -0.0365 -0.4968 -0.1435
 2437SOL     OW 9793   2.764   1.277   4.733 -0.1841 -0.0652 -0.8814
 2437SOL    HW2 9794   2.677   1.240   4.749  0.4660 -1.3451 -0.1958
 2437SOL    HW3 9795   2.804   1.281   4.820  0.4124  0.5956 -1.1837
 2437SOL    MW4 9796   2.758   1.272   4.747 -0.0196 -0.1469 -0.8311
 2438SOL     OW 9797   1.145   2.316   4.163 -0.0163 -0.2166  0.1918
 2438SOL    HW2 9798   1.134   2.231   4.207  2.5424 -0.5726  0.2304
 2438SOL    HW3 9799   1.225   2.352   4.201 -0.1773  1.4763 -1.0313
 2438SOL    MW4 9800   1.154   2.309   4.174  0.3000 -0.0403  0.0358
 2439SOL     OW 9801   4.448   4.654   4.342 -0.3206 -0.6662 -0.2824
 2439SOL    HW2 9802   4.385   4.629   4.275 -0.1032 -0.4399 -0.5722
 2439SOL    HW3 9803   4.534   4.642   4.300 -0.1746 -0.8927  0.0808
 2439SOL    MW4 9804   4.451   4.649   4.327 -0.2732 -0.6661 -0.2732
 2440SOL     OW 9805   0.520   0.888   4.372 -0.0545  0.1994 -0.6629
 2440SOL    HW2 9806   0.436   0.922   4.340 -0.2846 -0.4889 -0.7982
 2440SOL    HW3 9807   0.502   0.858   4.461  0.2188  0.7003 -0.4362
 2440SOL    MW4 9808   0.507   0.888   4.380 -0.0489  0.1746 -0.6509
 2441SOL     OW 9809   4.244   2.308   4.183  0.2464 -0.3381  0.0984
 2441SOL    HW2 9810   4.242   2.216   4.209  0.9921 -0.1210  0.9304
 2441SOL    HW3 9811   4.155   2.339   4.201  0.6582 -0.2635  2.1898
 2441SOL    MW4 9812   4.232   2.300   4.189  0.3986 -0.2995  0.4845
 2442SOL     OW 9813   0.284   0.318   4.409  0.3079 -0.2316  0.6803
 2442SOL    HW2 9814   0.295   0.403   4.366  2.7970 -0.9157 -0.1123
 2442SOL    HW3 9815   0.199   0.287   4.379  0.4121  0.9485 -0.8888
 2442SOL    MW4 9816   0.274   0.325   4.399  0.6501 -0.1662  0.3686
 2443SOL     OW 9817   0.797   4.190   4.089  0.4186  0.1619  0.0293
 2443SOL    HW2 9818   0.761   4.103   4.071 -1.1642  0.4877  1.6203
 2443SOL    HW3 9819   0.878   4.172   4.137  0.4378 -0.4302 -0.2101
 2443SOL    MW4 9820   0.803   4.176   4.093  0.2124  0.1268  0.2079
 2444SOL     OW 9821   3.144   2.942   4.573 -0.6203 -0.0706 -0.4369
 2444SOL    HW2 9822   3.192   2.900   4.502  0.2407  0.1774  0.0035
 2444SOL    HW3 9823   3.055   2.952   4.538  0.2855  1.9437 -2.2821
 2444SOL    MW4 9824   3.138   2.938   4.559 -0.3870  0.2279 -0.6227
 2445SOL     OW 9825   2.439   4.134   4.524  0.0554  0.0642 -0.0146
 2445SOL    HW2 9826   2.431   4.227   4.502 -0.1471 -0.1877 -1.0267
 2445SOL    HW3 9827   2.531   4.114   4.509  0.3439  0.3800  1.3228
 2445SOL    MW4 9828   2.450   4.144   4.519  0.0668  0.0730  0.0281
 2446SOL     OW 9829   0.029   3.487   4.129 -0.0109 -0.1723 -0.0934
 2446SOL    HW2 9830  -0.052   3.526   4.161  0.3943  0.1397  0.5602
 2446SOL    HW3 9831   0.030   3.399   4.167  0.8672  0.4784  1.4639
 2446SOL    MW4 9832   0.019   3.480   4.138  0.1588 -0.0453  0.1984
 2447SOL     OW 9833   0.251   4.280   4.441  0.4002 -0.3845 -0.0096
 2447SOL    HW2 9834   0.201   4.299   4.362 -0.2220 -0.6268  0.3169
 2447SOL    HW3 9835   0.189   4.233   4.498  0.5355  0.6421  1.0100
 2447SOL    MW4 9836   0.236   4.276   4.438  0.3360 -0.2809  0.1688
 2448SOL     OW 9837   0.987   2.097   4.632 -0.7050 -0.3928 -0.1436
 2448SOL    HW2 9838   0.898   2.086   4.599 -0.7618 -2.7487  0.7157
 2448SOL    HW3 9839   1.011   2.011   4.667  1.9279  0.1804 -0.4004
 2448SOL    MW4 9840   0.978   2.084   4.632 -0.3651 -0.6282 -0.0648
 2449SOL     OW 9841   0.282   1.102   4.854 -0.0217 -0.0572 -0.0960
 2449SOL    HW2 9842   0.235   1.027   4.890 -1.5431  0.7375 -0.3826
 2449SOL    HW3 9843   0.368   1.100   4.897  0.3579 -2.5876 -0.9194
 2449SOL    MW4 9844   0.287   1.092   4.864 -0.1724 -0.2860 -0.2418
 2450SOL     OW 9845   1.520   0.569   4.507 -0.1156  0.5363 -0.0978
 2450SOL    HW2 9846   1.532   0.538   4.417  0.0643 -0.7027  0.3409
 2450SOL    HW3 9847   1.471   0.651   4.498 -0.6022  0.1255 -1.2896
 2450SOL    MW4 9848   1.515   0.576   4.494 -0.1560  0.3186 -0.1974
 2451SOL     OW 9849   0.838   0.084   4.228  0.0348 -0.2578  0.0989
 2451SOL    HW2 9850   0.826   0.176   4.205 -1.8400 -0.2134  1.1252
 2451SOL    HW3 9851   0.762   0.040   4.190  0.2739 -1.1904  0.6703
 2451SOL    MW4 9852   0.826   0.090   4.220 -0.1810 -0.3750  0.3095
 2452SOL     OW 9853   0.674   2.103   4.267 -0.0603  0.1216 -0.2709
 2452SOL    HW2 9854   0.739   2.053   4.219  2.7548  2.8579  0.4748
 2452SOL    HW3 9855   0.705   2.101   4.358 -1.6528  0.4814  0.2902
 2452SOL    MW4 9856   0.687   2.096   4.273  0.1010  0.5300 -0.0987
 2453SOL     OW 9857   1.356   4.225   3.885  0.5137 -0.1537  0.1327
 2453SOL    HW2 9858   1.273   4.249   3.843  0.4243  1.1177  0.9879
 2453SOL    HW3 9859   1.417   4.294   3.858  0.8525 -0.1865  0.8005
 2453SOL    MW4 9860   1.353   4.238   3.876  0.5466  0.0095  0.3333
 2454SOL     OW 9861   0.015   2.522   4.466 -0.2457 -0.1158 -0.6787
 2454SOL    HW2 9862  -0.073   2.526   4.503 -0.4912 -0.4526 -1.2206
 2454SOL    HW3 9863   0.001   2.516   4.372  0.3657  0.2513 -0.7960
 2454SOL    MW4 9864   0.001   2.522   4.459 -0.1974 -0.1121 -0.7663
 2455SOL     OW 9865   1.801   3.980   4.450 -0.1837 -0.1974 -0.4314
 2455SOL    HW2 9866   1.878   4.036   4.446 -0.5032  0.1968 -1.1502
 2455SOL    HW3 9867   1.834   3.895   4.480  0.4160  0.1620 -0.0708
 2455SOL    MW4 9868   1.815   3.976   4.453 -0.1467 -0.0980 -0.4787
 2456SOL     OW 9869   1.368   0.830   4.507 -0.6776 -0.2338 -0.0030
 2456SOL    HW2 9870   1.346   0.869   4.422 -0.1384 -0.4554 -0.2467
 2456SOL    HW3 9871   1.401   0.902   4.560 -0.6255 -0.1755 -0.1159
 2456SOL    MW4 9872   1.369   0.844   4.503 -0.5995 -0.2553 -0.0496
 2457SOL     OW 9873   1.563   1.259   4.214 -0.1511 -0.0923  0.0167
 2457SOL    HW2 9874   1.652   1.236   4.188 -0.2609 -0.5392  0.0407
 2457SOL    HW3 9875   1.553   1.350   4.187  0.6064  0.2226  0.7681
 2457SOL    MW4 9876   1.573   1.268   4.207 -0.0656 -0.1099  0.1192
 2458SOL     OW 9877   0.723   2.116   4.538  0.1270  0.0205  0.0474
 2458SOL    HW2 9878   0.657   2.047   4.551  0.2008  0.0141  0.3937
 2458SOL    HW3 9879   0.685   2.194   4.578 -0.0898  0.2623 -0.6195
 2458SOL    MW4 9880   0.709   2.117   4.545  0.1081  0.0515  0.0048
 2459SOL     OW 9881   3.586   3.237   4.301  0.0411  0.0014  0.0053
 2459SOL    HW2 9882   3.516   3.192   4.253 -1.0597 -0.2527  1.8100
 2459SOL    HW3 9883   3.594   3.322   4.257 -1.7158  0.2063  0.0493
 2459SOL    MW4 9884   3.578   3.242   4.289 -0.3362 -0.0048  0.2494
 2460SOL     OW 9885   0.685   3.635   4.174 -0.1421  0.1540 -0.6669
 2460SOL    HW2 9886   0.687   3.622   4.268  0.1071  0.9222 -0.5643
 2460SOL    HW3 9887   0.750   3.573   4.140  1.5749  1.6192 -0.1236
 2460SOL    MW4 9888   0.694   3.625   4.182  0.1173  0.4485 -0.5817
 2461SOL     OW 9889   0.234   4.621   4.241 -0.0625 -0.6208  0.0316
 2461SOL    HW2 9890   0.192   4.538   4.217  0.3494 -1.0893  0.8952
 2461SOL    HW3 9891   0.259   4.609   4.332 -0.1775  0.5380  0.2235
 2461SOL    MW4 9892   0.232   4.608   4.250 -0.0233 -0.5302  0.1707
 2462SOL     OW 9893   0.196   0.772   4.098 -0.2293  0.4685  0.0301
 2462SOL    HW2 9894   0.216   0.752   4.007 -0.3283  0.6860 -0.0399
 2462SOL    HW3 9895   0.101   0.781   4.100 -0.2781 -0.0708  0.2618
 2462SOL    MW4 9896   0.186   0.770   4.087 -0.2488  0.4262  0.0515
 2463SOL     OW 9897   0.832   1.920   3.833 -1.2443 -0.6814  0.5525
 2463SOL    HW2 9898   0.848   1.839   3.786  0.1549 -0.1987  0.1707
 2463SOL    HW3 9899   0.913   1.971   3.822 -1.0563 -0.3404  3.0153
 2463SOL    MW4 9900   0.845   1.916   3.826 -1.0349 -0.5727  0.8271
 2464SOL     OW 9901   2.035   0.435   4.248 -0.7048  0.0072  0.6309
 2464SOL    HW2 9902   2.021   0.528   4.233  0.4066  0.2264  0.9193
 2464SOL    HW3 9903   2.013   0.422   4.341 -1.5738 -0.1630  0.4051
 2464SOL    MW4 9904   2.030   0.445   4.259 -0.6728  0.0137  0.6394
 2465SOL     OW 9905   3.619   1.670   3.780  0.0547  0.1261  0.0512
 2465SOL    HW2 9906   3.540   1.638   3.822 -0.4054  0.6981 -0.3774
 2465SOL    HW3 9907   3.596   1.679   3.688  0.3944  0.9806  0.0405
 2465SOL    MW4 9908   3.606   1.667   3.773  0.0389  0.3144 -0.0067
 2466SOL     OW 9909   1.378   1.320   4.440 -0.1140 -0.5603  0.8199
 2466SOL    HW2 9910   1.297   1.269   4.437 -0.0417 -0.6729  0.7603
 2466SOL    HW3 9911   1.433   1.281   4.372  0.0156 -0.5289  0.9067
 2466SOL    MW4 9912   1.375   1.308   4.431 -0.0873 -0.5711  0.8235
 2467SOL     OW 9913   0.590   4.374   4.210  0.4584 -0.2784 -0.1676
 2467SOL    HW2 9914   0.510   4.334   4.176  0.5319  0.1629 -0.8854
 2467SOL    HW3 9915   0.660   4.331   4.162  0.6177 -0.3087  0.0957
 2467SOL    MW4 9916   0.588   4.363   4.199  0.4891 -0.2236 -0.2275
 2468SOL     OW 9917   0.905   3.461   3.846 -0.0267 -0.2686  0.1601
 2468SOL    HW2 9918   0.906   3.367   3.828 -1.6170 -0.6074  1.7845
 2468SOL    HW3 9919   0.823   3.492   3.807  0.1270  0.3313  0.3052
 2468SOL    MW4 9920   0.895   3.453   3.838 -0.2162 -0.2344  0.3934
 2469SOL     OW 9921   0.635   2.093   3.781 -0.0274 -0.3426  0.6275
 2469SOL    HW2 9922   0.630   2.175   3.831 -0.0283 -0.8677  1.4975
 2469SOL    HW3 9923   0.700   2.041   3.827 -0.6688 -1.1870  0.5866
 2469SOL    MW4 9924   0.643   2.097   3.793 -0.1122 -0.5233  0.7365
 2470SOL     OW 9925   0.129   4.655   4.737 -0.7041 -0.0085  0.0313
 2470SOL    HW2 9926   0.195   4.676   4.804 -0.0085  0.4600 -0.7882
 2470SOL    HW3 9927   0.180   4.644   4.657 -1.6363  0.4670 -0.6322
 2470SOL    MW4 9928   0.145   4.657   4.736 -0.7353  0.1159 -0.1650
 2471SOL     OW 9929   3.886   1.647   4.471 -0.4812  0.0286 -0.3954
 2471SOL    HW2 9930   3.917   1.556   4.478 -0.6414  0.0627  0.9985
 2471SOL    HW3 9931   3.794   1.642   4.498 -1.1341  0.2494 -2.5112
 2471SOL    MW4 9932   3.878   1.634   4.475 -0.5889  0.0620 -0.4911
 2472SOL     OW 9933   0.409   1.168   4.126  0.0795  0.5928 -0.6386
 2472SOL    HW2 9934   0.429   1.149   4.034 -0.6950  0.5903 -0.8075
 2472SOL    HW3 9935   0.375   1.085   4.160  0.9053  0.4331 -0.1977
 2472SOL    MW4 9936   0.407   1.154   4.118  0.0863  0.5716 -0.6032
 2473SOL     OW 9937   3.912   4.431   4.511  0.3902 -0.2413  0.1434
 2473SOL    HW2 9938   3.821   4.421   4.541 -0.0727 -0.8092 -1.3844
 2473SOL    HW3 9939   3.958   4.356   4.547 -0.0776 -0.7320 -0.2729
 2473SOL    MW4 9940   3.906   4.420   4.519  0.2673 -0.3810 -0.1125
 2474SOL     OW 9941   1.394   1.586   4.505  0.3083 -0.1415 -0.2296
 2474SOL    HW2 9942   1.481   1.619   4.486 -0.3425  2.5492  1.2393
 2474SOL    HW3 9943   1.401   1.491   4.491  3.1280  0.1688 -1.2448
 2474SOL    MW4 9944   1.406   1.578   4.501  0.5945  0.2545 -0.1698
 2475SOL     OW 9945   1.119   0.737   4.160  0.3445 -0.5854 -0.0039
 2475SOL    HW2 9946   1.103   0.745   4.065  0.9741 -1.9307 -0.2322
 2475SOL    HW3 9947   1.031   0.733   4.198  0.0881 -0.3506 -0.5597
 2475SOL    MW4 9948   1.105   0.738   4.152  0.3936 -0.7319 -0.1078
 2476SOL     OW 9949   2.014   3.592   4.240  0.2314 -0.1052  0.1567
 2476SOL    HW2 9950   1.948   3.545   4.188 -0.3164 -0.0156  0.7657
 2476SOL    HW3 9951   2.010   3.681   4.207  0.5458 -0.2544 -0.2912
 2476SOL    MW4 9952   2.004   3.597   4.229  0.2007 -0.1130  0.1779
 2477SOL     OW 9953   3.597   0.139   4.840  0.0363  0.4130 -0.0097
 2477SOL    HW2 9954   3.518   0.161   4.791 -0.9971  1.2299  1.9966
 2477SOL    HW3 9955   3.648   0.220   4.840  1.1438 -0.2571 -1.7477
 2477SOL    MW4 9956   3.593   0.153   4.833  0.0460  0.4324  0.0262
 2478SOL     OW 9957   0.614   3.260   4.641 -0.2490 -0.3612 -0.4740
 2478SOL    HW2 9958   0.555   3.209   4.584  0.3002 -1.0495 -0.4253
 2478SOL    HW3 9959   0.593   3.351   4.620  1.2992 -0.5645 -3.2565
 2478SOL    MW4 9960   0.603   3.265   4.631  0.0277 -0.4787 -0.8349
 2479SOL     OW 9961   0.250   3.613   4.234  0.6750  0.1099  0.4062
 2479SOL    HW2 9962   0.168   3.572   4.207  0.3340  0.8820  0.2637
 2479SOL    HW3 9963   0.257   3.692   4.180  1.3361  0.2319  0.6626
 2479SOL    MW4 9964   0.240   3.618   4.223  0.7172  0.2279  0.4206
 2480SOL     OW 9965   0.233   4.402   3.805  0.0100 -0.4738  0.1150
 2480SOL    HW2 9966   0.246   4.496   3.823 -0.6340 -0.4014  0.2240
 2480SOL    HW3 9967   0.311   4.360   3.842  1.3914  0.2213 -1.9052
 2480SOL    MW4 9968   0.245   4.409   3.813  0.1073 -0.3724 -0.1371
 2481SOL     OW 9969   0.604   4.647   4.142  0.1310  0.1878 -0.3768
 2481SOL    HW2 9970   0.553   4.695   4.207  0.4554 -0.1469  0.1292
 2481SOL    HW3 9971   0.594   4.555   4.167  0.0555  0.0407 -0.9478
 2481SOL    MW4 9972   0.596   4.641   4.154  0.1639  0.1245 -0.3858
 2482SOL     OW 9973   4.260   2.047   4.497 -0.2574  0.3974  0.4154
 2482SOL    HW2 9974   4.195   1.979   4.515 -0.2272 -0.5734 -2.7008
 2482SOL    HW3 9975   4.209   2.128   4.492 -1.4183 -0.4359 -2.5783
 2482SOL    MW4 9976   4.245   2.049   4.498 -0.4067  0.1593 -0.3905
 2483SOL     OW 9977   1.779   2.407   4.260 -0.3100 -0.4776 -0.9398
 2483SOL    HW2 9978   1.734   2.422   4.343  0.1307  0.3912 -0.8500
 2483SOL    HW3 9979   1.710   2.375   4.201 -0.8281 -0.1458 -0.5198
 2483SOL    MW4 9980   1.764   2.405   4.263 -0.3202 -0.3192 -0.8721
 2484SOL     OW 9981   4.121   3.955   4.543 -0.2203 -0.1311  0.0152
 2484SOL    HW2 9982   4.216   3.946   4.550 -0.3917 -2.3851 -0.0130
 2484SOL    HW3 9983   4.104   3.957   4.449 -0.2228 -0.2763  0.0111
 2484SOL    MW4 9984   4.131   3.954   4.531 -0.2441 -0.4475  0.0110
 2485SOL     OW 9985   0.960   4.080   4.503  0.6094 -0.6244  0.3218
 2485SOL    HW2 9986   0.980   4.071   4.410  0.2704  1.0781  0.0679
 2485SOL    HW3 9987   1.040   4.054   4.548  1.7761  1.3835 -0.5504
 2485SOL    MW4 9988   0.973   4.075   4.497  0.7187 -0.1345  0.1736
 2486SOL     OW 9989   1.327   0.342   4.493  0.1552  0.1665 -0.2227
 2486SOL    HW2 9990   1.371   0.257   4.494 -0.7559 -0.3193 -0.5859
 2486SOL    HW3 9991   1.397   0.405   4.510  0.6207 -0.7453  1.3813
 2486SOL    MW4 9992   1.342   0.339   4.495  0.0964 -0.0178 -0.0591
 2487SOL     OW 9993   1.789   4.269   3.830 -0.3630  0.2612  0.2889
 2487SOL    HW2 9994   1.785   4.178   3.802  0.3661 -0.0337  1.1069
 2487SOL    HW3 9995   1.873   4.301   3.798  0.2005  0.0985  1.5778
 2487SOL    MW4 9996   1.799   4.262   3.822 -0.1925  0.2003  0.5667
 2488SOL     OW 9997   3.369   2.017   4.508  0.1167 -0.3008  0.2424
 2488SOL    HW2 9998   3.363   2.005   4.413  0.5655  0.7054  0.0855
 2488SOL    HW3 9999   3.279   2.033   4.536 -0.0890 -1.1039  0.0576
 2488SOL    MW410000   3.357   2.017   4.499  0.1485 -0.2739  0.1974
 2489SOL     OW10001   3.389   3.579   4.524  0.8870 -0.5033  0.4107
 2489SOL    HW210002   3.371   3.575   4.431  0.3381 -1.2111  0.5446
 2489SOL    HW310003   3.420   3.491   4.547 -2.5429 -1.5130  1.5970
 2489SOL    MW410004   3.390   3.567   4.515  0.3622 -0.7300  0.5846
 2490SOL     OW10005   0.144   4.370   4.200  0.3481  0.2995 -0.3162
 2490SOL    HW210006   0.080   4.327   4.144  0.0778 -0.0372  0.2519
 2490SOL    HW310007   0.229   4.344   4.163  0.2168 -1.7456  0.7700
 2490SOL    MW410008   0.147   4.361   4.188  0.2951 -0.0143 -0.0973
 2491SOL     OW10009   1.813   3.731   4.585 -0.1700 -0.1244  0.5090
 2491SOL    HW210010   1.782   3.670   4.519 -1.5770  1.2042 -0.0721
 2491SOL    HW310011   1.881   3.682   4.632 -1.4764 -2.2398  0.2764
 2491SOL    MW410012   1.818   3.717   4.582 -0.5280 -0.2284  0.4015
 2492SOL     OW10013   3.972   3.730   4.638  0.0706 -0.0679  0.1774
 2492SOL    HW210014   3.879   3.722   4.614  0.1681  0.1668 -0.2801
 2492SOL    HW310015   3.998   3.815   4.604  0.5928 -0.3570 -0.1482
 2492SOL    MW410016   3.963   3.740   4.630  0.1526 -0.0751  0.0739
 2493SOL     OW10017   3.582   3.484   4.157  0.3338  0.1464 -0.0142
 2493SOL    HW210018   3.655   3.532   4.196  1.2435 -0.8316 -0.4758
 2493SOL    HW310019   3.601   3.482   4.064  0.1012 -0.7245 -0.0552
 2493SOL    MW410020   3.594   3.490   4.150  0.4230 -0.0975 -0.0811
 2494SOL     OW10021   0.401   2.023   4.285 -0.0920 -0.0948  0.2345
 2494SOL    HW210022   0.491   2.054   4.282  0.0847 -0.4468  1.4192
 2494SOL    HW310023   0.386   1.982   4.200  0.3461  1.3809 -0.5653
 2494SOL    MW410024   0.411   2.022   4.273 -0.0109  0.0539  0.2856
 2495SOL     OW10025   2.632   2.383   4.205  0.0815  0.1095  0.1694
 2495SOL    HW210026   2.658   2.469   4.173 -1.0445 -0.2307 -1.7283
 2495SOL    HW310027   2.621   2.395   4.300  0.5764  1.8841  0.0113
 2495SOL    MW410028   2.634   2.396   4.213 -0.0017  0.2990 -0.1016
 2496SOL     OW10029   2.459   0.910   4.608  0.0091 -1.3120 -0.2676
 2496SOL    HW210030   2.432   0.827   4.648  0.5010 -1.1872  0.3233
 2496SOL    HW310031   2.546   0.892   4.573  1.3706 -0.2234  2.4350
 2496SOL    MW410032   2.467   0.897   4.609  0.2537 -1.1520  0.1674
 2497SOL     OW10033   2.560   2.063   4.530  0.2834 -0.2857 -0.0440
 2497SOL    HW210034   2.520   2.043   4.445 -2.0491  0.1573  0.9208
 2497SOL    HW310035   2.493   2.040   4.594  1.4712  0.7853  1.6163
 2497SOL    MW410036   2.546   2.057   4.527  0.1323 -0.0858  0.3018
 2498SOL     OW10037   4.356   4.604   4.592  0.3510 -0.4100  0.4371
 2498SOL    HW210038   4.430   4.585   4.650  0.7707 -0.0561  0.0211
 2498SOL    HW310039   4.396   4.639   4.513 -0.2417 -0.6030  0.0498
 2498SOL    MW410040   4.371   4.606   4.590  0.3285 -0.3886  0.3309
 2499SOL     OW10041   1.265   1.890   4.442  0.3015  0.5395  0.3936
 2499SOL    HW210042   1.229   1.955   4.382  0.5306  0.4125  0.1219
 2499SOL    HW310043   1.250   1.806   4.399 -0.5132  0.3661  1.0036
 2499SOL    MW410044   1.258   1.887   4.429  0.2242  0.4997  0.4382
 2500SOL     OW10045   2.835   2.467   4.573 -0.6068 -0.1860 -0.3310
 2500SOL    HW210046   2.922   2.428   4.564 -0.4635 -0.3162  1.4152
 2500SOL    HW310047   2.837   2.544   4.517  0.7624  0.0131 -0.0221
 2500SOL    MW410048   2.846   2.472   4.564 -0.4070 -0.1769 -0.0601
 2501SOL     OW10049   0.925   2.437   4.255 -0.8269 -0.7389 -0.6169
 2501SOL    HW210050   1.010   2.406   4.223 -0.3062 -0.8120  0.7992
 2501SOL    HW310051   0.931   2.430   4.350 -2.0671  0.1884 -0.4546
 2501SOL    MW410052   0.937   2.432   4.264 -0.9218 -0.6263 -0.4082
 2502SOL     OW10053   1.283   3.467   4.118 -0.2279  0.5157 -0.4469
 2502SOL    HW210054   1.306   3.380   4.150  0.1083  1.1406  1.0995
 2502SOL    HW310055   1.360   3.521   4.139 -1.1413  1.5582  0.2689
 2502SOL    MW410056   1.296   3.463   4.125 -0.3041  0.7358 -0.1488
 2503SOL     OW10057   1.301   1.898   4.108  0.2156  0.0105 -0.0943
 2503SOL    HW210058   1.378   1.942   4.144 -0.3309  0.6469  0.3028
 2503SOL    HW310059   1.301   1.812   4.150  0.3049  0.2732  0.4505
 2503SOL    MW410060   1.312   1.893   4.118  0.1552  0.1292  0.0296
 2504SOL     OW10061   4.220   1.668   4.431  0.8463 -0.5187 -0.5933
 2504SOL    HW210062   4.167   1.744   4.456  1.0465 -0.1500 -1.2870
 2504SOL    HW310063   4.196   1.601   4.495  0.3235 -0.0235 -0.2576
 2504SOL    MW410064   4.210   1.669   4.443  0.8035 -0.4047 -0.6404
 2505SOL     OW10065   2.564   2.993   4.507  0.4303 -0.1268  0.2215
 2505SOL    HW210066   2.532   2.962   4.422  2.7368 -0.7243 -0.4480
 2505SOL    HW310067   2.484   3.001   4.560 -0.9659 -0.4312 -1.7588
 2505SOL    MW410068   2.549   2.990   4.503  0.5505 -0.2458 -0.1287
 2506SOL     OW10069   1.978   0.716   4.201 -0.0649 -0.1665 -0.3034
 2506SOL    HW210070   1.989   0.721   4.106  0.0059 -1.2111 -0.3584
 2506SOL    HW310071   2.064   0.738   4.236  0.2857 -1.1734 -0.5254
 2506SOL    MW410072   1.991   0.719   4.193 -0.0093 -0.4372 -0.3395
 2507SOL     OW10073   2.935   0.491   4.547  0.2850 -0.6234 -0.1828
 2507SOL    HW210074   2.847   0.517   4.576  0.6731 -0.5318  0.9281
 2507SOL    HW310075   2.933   0.503   4.452 -0.5619  0.4240 -0.0501
 2507SOL    MW410076   2.923   0.496   4.538  0.2244 -0.4732 -0.0181
 2508SOL     OW10077   4.011   1.868   4.543 -0.3946  0.0333  0.1200
 2508SOL    HW210078   3.954   1.792   4.531 -0.7503  0.3160  0.0157
 2508SOL    HW310079   3.951   1.941   4.556 -0.0662  0.4517 -0.6800
 2508SOL    MW410080   3.996   1.868   4.543 -0.3982  0.1258  0.0005
 2509SOL     OW10081   1.109   0.427   4.173 -0.1047  0.3203  0.1916
 2509SOL    HW210082   1.101   0.419   4.268  1.0818  1.5192  0.4212
 2509SOL    HW310083   1.133   0.519   4.159  2.2249 -0.4353 -1.0743
 2509SOL    MW410084   1.111   0.438   4.184  0.3591  0.3788  0.0548
 2510SOL     OW10085   2.873   2.682   4.372 -0.1798  0.0265 -0.3576
 2510SOL    HW210086   2.799   2.675   4.311  0.1402  0.4792 -0.8023
 2510SOL    HW310087   2.876   2.774   4.395 -0.7279 -0.2642  0.8895
 2510SOL    MW410088   2.863   2.693   4.367 -0.2100  0.0477 -0.2518
 2511SOL     OW10089   2.487   0.786   3.870  0.0371  0.8077  0.3574
 2511SOL    HW210090   2.480   0.785   3.966 -1.6519  1.0937  0.2642
 2511SOL    HW310091   2.475   0.695   3.844 -0.4712  0.8684  0.3717
 2511SOL    MW410092   2.484   0.774   3.879 -0.2527  0.8534  0.3469
 2512SOL     OW10093   4.093   0.166   4.221 -0.2390 -0.2648 -0.3549
 2512SOL    HW210094   4.122   0.164   4.312  3.9483 -1.4141 -1.5722
 2512SOL    HW310095   4.083   0.259   4.200  2.3902  0.1993  0.2934
 2512SOL    MW410096   4.096   0.178   4.230  0.6609 -0.3552 -0.4301
 2513SOL     OW10097   1.664   2.450   4.524 -0.4711  0.3553  0.4609
 2513SOL    HW210098   1.741   2.483   4.570 -0.3804 -0.1785  0.7040
 2513SOL    HW310099   1.660   2.357   4.548 -0.4460  0.0835 -0.5904
 2513SOL    MW410100   1.673   2.442   4.533 -0.4559  0.2489  0.3543
 2514SOL     OW10101   0.717   3.894   4.072 -0.5459  0.0538  0.2927
 2514SOL    HW210102   0.711   3.879   3.978 -0.9855 -0.6582  0.4294
 2514SOL    HW310103   0.720   3.807   4.110  0.4324  0.3505  0.8914
 2514SOL    MW410104   0.716   3.881   4.064 -0.4749 -0.0012  0.3901
 2515SOL     OW10105   2.187   1.368   4.554  0.3062 -0.3567  0.1439
 2515SOL    HW210106   2.277   1.364   4.521  0.4565  1.0478  0.3724
 2515SOL    HW310107   2.133   1.375   4.475  0.4004 -0.9454  0.0204
 2515SOL    MW410108   2.192   1.368   4.539  0.3386 -0.2490  0.1578
 2516SOL     OW10109   4.277   2.014   4.207 -0.1177 -0.2100  0.5715
 2516SOL    HW210110   4.299   2.009   4.300  1.9039  0.7813  0.1762
 2516SOL    HW310111   4.357   1.986   4.162 -0.3265  1.4324 -0.8880
 2516SOL    MW410112   4.291   2.010   4.214  0.1211  0.1376  0.3266
 2517SOL     OW10113   1.789   3.170   3.757  0.2978 -0.2174 -0.4499
 2517SOL    HW210114   1.853   3.116   3.803 -0.4966 -3.1606 -2.6848
 2517SOL    HW310115   1.706   3.149   3.799  0.2825  0.9629  0.1295
 2517SOL    MW410116   1.787   3.160   3.769  0.1910 -0.4501 -0.6680
 2518SOL     OW10117   3.357   1.773   4.648 -0.5961  0.6765 -0.4591
 2518SOL    HW210118   3.324   1.809   4.730 -0.0207  1.0429 -0.3849
 2518SOL    HW310119   3.363   1.848   4.589 -2.6094  0.1453 -1.3904
 2518SOL    MW410120   3.354   1.787   4.651 -0.7858  0.6547 -0.5727
 2519SOL     OW10121   0.515   3.517   4.628  0.5189  0.0312 -0.0522
 2519SOL    HW210122   0.430   3.534   4.588  0.8106 -0.3645 -0.8327
 2519SOL    HW310123   0.495   3.509   4.722 -0.3278 -0.2462 -0.2462
 2519SOL    MW410124   0.501   3.519   4.635  0.4457 -0.0577 -0.1802
 2520SOL     OW10125   1.359   0.075   4.201 -0.3104  0.4241  0.2364
 2520SOL    HW210126   1.268   0.052   4.181 -0.7185  1.9552  0.2666
 2520SOL    HW310127   1.411   0.002   4.167 -1.4084  0.4575 -1.5368
 2520SOL    MW410128   1.354   0.062   4.194 -0.5091  0.6305  0.0062
 2521SOL     OW10129   3.592   1.921   4.174  0.4314 -0.0863  0.0267
 2521SOL    HW210130   3.509   1.965   4.188  0.4945 -0.1868  0.7461
 2521SOL    HW310131   3.602   1.917   4.079 -0.1199  0.4149 -0.0509
 2521SOL    MW410132   3.582   1.926   4.163  0.3669 -0.0335  0.1116
 2522SOL     OW10133   3.139   2.357   4.282  0.5210 -0.1355  0.3969
 2522SOL    HW210134   3.066   2.318   4.232 -0.6006  1.8357  0.4676
 2522SOL    HW310135   3.216   2.336   4.230 -0.3018 -0.6824 -0.6388
 2522SOL    MW410136   3.139   2.349   4.268  0.2642  0.0522  0.2694
 2523SOL     OW10137   2.038   3.062   4.129  0.0437 -0.1041  0.1724
 2523SOL    HW210138   2.026   3.047   4.035  0.6941  0.3240  0.0209
 2523SOL    HW310139   1.955   3.102   4.157 -0.2853 -0.5519 -0.1430
 2523SOL    MW410140   2.025   3.065   4.120  0.0861 -0.1066  0.1106
 2524SOL     OW10141   1.576   1.540   3.869 -0.3562  0.2303  0.3039
 2524SOL    HW210142   1.579   1.524   3.963 -0.5289  0.3401  0.3279
 2524SOL    HW310143   1.660   1.582   3.849 -0.9994  1.7275  0.6929
 2524SOL    MW410144   1.588   1.543   3.879 -0.4638  0.4424  0.3583
 2525SOL     OW10145   0.336   0.144   4.034 -0.2324 -0.2110  0.1124
 2525SOL    HW210146   0.339   0.072   4.097  0.2508  0.7338  1.1956
 2525SOL    HW310147   0.266   0.201   4.066  0.5526  0.6871  0.2784
 2525SOL    MW410148   0.327   0.142   4.047 -0.0650  0.0322  0.2775
 2526SOL     OW10149   2.647   0.874   4.257 -0.4635 -0.6221 -0.7417
 2526SOL    HW210150   2.649   0.970   4.251 -0.5844 -0.6007 -0.4236
 2526SOL    HW310151   2.655   0.855   4.350 -0.3576 -0.9256 -0.8107
 2526SOL    MW410152   2.648   0.884   4.268 -0.4654 -0.6593 -0.7086
 2527SOL     OW10153   0.638   2.878   4.548 -0.2118 -0.4858 -0.1888
 2527SOL    HW210154   0.645   2.860   4.454 -2.1772 -0.3945 -0.3744
 2527SOL    HW310155   0.586   2.958   4.553  1.0756  0.2985  0.9404
 2527SOL    MW410156   0.632   2.886   4.536 -0.3012 -0.3700 -0.0639
 2528SOL     OW10157   2.270   0.340   3.842  0.5212  0.1607 -0.3090
 2528SOL    HW210158   2.281   0.331   3.936  0.2006 -0.0176 -0.2889
 2528SOL    HW310159   2.183   0.379   3.831  0.5392  0.1400 -0.5312
 2528SOL    MW410160   2.260   0.344   3.853  0.4814  0.1345 -0.3357
 2529SOL     OW10161   3.173   4.047   4.247 -0.1153 -0.4973 -0.1287
 2529SOL    HW210162   3.157   4.026   4.340 -1.2127 -0.8124 -0.3792
 2529SOL    HW310163   3.252   3.997   4.225  0.0103 -0.6219  0.5629
 2529SOL    MW410164   3.181   4.037   4.257 -0.2437 -0.5546 -0.0710
 2530SOL     OW10165   3.391   0.235   4.677 -0.2702 -0.2072 -0.8199
 2530SOL    HW210166   3.297   0.225   4.692 -0.0625 -1.2304 -0.1851
 2530SOL    HW310167   3.399   0.319   4.633 -1.6246 -0.7297 -2.1184
 2530SOL    MW410168   3.380   0.245   4.673 -0.4215 -0.4112 -0.9074
 2531SOL     OW10169   1.566   3.060   4.152 -0.5209  0.5801  0.0080
 2531SOL    HW210170   1.562   3.050   4.057 -1.3632 -0.7520  0.1817
 2531SOL    HW310171   1.575   2.971   4.186 -1.0387  0.9697  1.2111
 2531SOL    MW410172   1.567   3.047   4.144 -0.7004  0.4556  0.1898
 2532SOL     OW10173   4.437   4.189   4.110 -0.2728  0.2713  0.5417
 2532SOL    HW210174   4.374   4.244   4.158  0.6640  2.6456 -0.8813
 2532SOL    HW310175   4.431   4.219   4.020  1.3196 -0.9994 -0.0062
 2532SOL    MW410176   4.428   4.200   4.105  0.0606  0.4172  0.2823
 2533SOL     OW10177   2.644   1.504   4.608 -0.0793 -0.0197 -0.2621
 2533SOL    HW210178   2.703   1.563   4.560  0.2060  0.3434  0.5194
 2533SOL    HW310179   2.702   1.449   4.660 -0.4281  0.4499  0.6416
 2533SOL    MW410180   2.659   1.505   4.609 -0.0877  0.0901 -0.0396
 2534SOL     OW10181   0.671   2.355   4.175 -0.4146  0.1278  0.1848
 2534SOL    HW210182   0.758   2.390   4.195 -1.1695  0.7842  2.5335
 2534SOL    HW310183   0.680   2.261   4.187  0.5376 -0.0760 -1.9021
 2534SOL    MW410184   0.684   2.347   4.179 -0.3886  0.1876  0.2189
 2535SOL     OW10185   0.571   1.159   4.945  0.4447 -0.1474  0.2490
 2535SOL    HW210186   0.596   1.097   4.876 -0.8631  0.9963 -1.2944
 2535SOL    HW310187   0.597   1.245   4.911 -0.0355  0.4186  1.2724
 2535SOL    MW410188   0.578   1.162   4.931  0.2088  0.0782  0.1802
 2536SOL     OW10189   2.252   4.609   4.518 -0.0301  0.1658  0.2661
 2536SOL    HW210190   2.268   4.659   4.437 -2.0995 -0.0992 -0.3402
 2536SOL    HW310191   2.160   4.583   4.512  0.2667 -1.3380  1.9127
 2536SOL    MW410192   2.242   4.612   4.506 -0.2637 -0.0677  0.4039
 2537SOL     OW10193   0.630   4.355   4.487 -0.0992  0.3473  0.0244
 2537SOL    HW210194   0.620   4.362   4.392  1.7233  0.1628 -0.1919
 2537SOL    HW310195   0.583   4.431   4.521 -0.3558  0.6816 -1.0433
 2537SOL    MW410196   0.623   4.366   4.479  0.1074  0.3672 -0.1454
 2538SOL     OW10197   3.409   0.524   4.550 -0.2817 -0.1225 -0.2898
 2538SOL    HW210198   3.393   0.512   4.456 -0.8258  0.4474 -0.2763
 2538SOL    HW310199   3.325   0.554   4.585  0.0509  0.1321  0.3001
 2538SOL    MW410200   3.396   0.526   4.542 -0.3095 -0.0137 -0.2103
 2539SOL     OW10201   1.834   2.660   3.837 -0.7566 -0.4810 -0.6889
 2539SOL    HW210202   1.760   2.712   3.806 -2.3359 -0.6471  2.5315
 2539SOL    HW310203   1.833   2.673   3.932  2.5750 -1.5505 -0.4631
 2539SOL    MW410204   1.824   2.669   3.846 -0.5256 -0.6440 -0.2341
 2540SOL     OW10205   2.041   2.810   4.216 -0.1206 -0.6831  0.1417
 2540SOL    HW210206   1.979   2.765   4.159  0.2403  0.1876 -0.9683
 2540SOL    HW310207   2.035   2.902   4.189  0.3105 -0.3116  1.2777
 2540SOL    MW410208   2.032   2.816   4.205 -0.0162 -0.5190  0.1454
 2541SOL     OW10209   4.096   2.750   4.114  0.2696 -0.4614 -0.0241
 2541SOL    HW210210   4.006   2.777   4.130  0.0860 -1.8889  1.4657
 2541SOL    HW310211   4.101   2.735   4.019 -0.6478  1.0169 -0.3131
 2541SOL    MW410212   4.085   2.751   4.103  0.1249 -0.4547  0.1345
 2542SOL     OW10213   4.270   3.157   4.150 -0.6299  0.1609  0.0611
 2542SOL    HW210214   4.180   3.171   4.181 -0.2702 -0.5260  1.4731
 2542SOL    HW310215   4.260   3.133   4.058 -1.8527  0.6070  0.0622
 2542SOL    MW410216   4.257   3.156   4.142 -0.7434  0.1295  0.2480
 2543SOL     OW10217   1.437   4.123   4.311  0.0216 -0.4739 -0.0165
 2543SOL    HW210218   1.360   4.150   4.261  0.5197 -0.3384 -0.7204
 2543SOL    HW310219   1.409   4.126   4.402 -0.4312  0.7903 -0.1913
 2543SOL    MW410220   1.423   4.127   4.316  0.0275 -0.2894 -0.1321
 2544SOL     OW10221   0.274   4.554   4.516  0.6954 -0.3222 -0.0958
 2544SOL    HW210222   0.260   4.460   4.513 -0.0800 -0.3087  1.8917
 2544SOL    HW310223   0.367   4.563   4.540  0.7646 -0.5820 -0.2642
 2544SOL    MW410224   0.285   4.543   4.519  0.6023 -0.3548  0.1445
 2545SOL     OW10225   0.118   0.864   4.883  0.2182  0.2691 -0.2436
 2545SOL    HW210226   0.055   0.874   4.812  0.5379 -0.5012 -0.6557
 2545SOL    HW310227   0.160   0.779   4.865 -0.9960 -0.8148  1.8897
 2545SOL    MW410228   0.115   0.854   4.871  0.1002  0.0245 -0.0167
 2546SOL     OW10229   3.817   1.550   4.162  0.1494 -0.5619 -0.0122
 2546SOL    HW210230   3.790   1.461   4.183 -0.9228  0.0762  1.4184
 2546SOL    HW310231   3.906   1.558   4.196  0.0555 -0.9269  0.3218
 2546SOL    MW410232   3.825   1.539   4.169 -0.0045 -0.5261  0.2198
 2547SOL     OW10233   2.225   0.733   4.325  0.2491  0.4474  0.3197
 2547SOL    HW210234   2.222   0.819   4.366  0.3208  0.1888  0.8719
 2547SOL    HW310235   2.298   0.739   4.262  0.3216  0.7553  0.4344
 2547SOL    MW410236   2.234   0.745   4.322  0.2680  0.4538  0.4072
 2548SOL     OW10237   1.247   4.217   4.148  0.1839  0.0542 -0.1768
 2548SOL    HW210238   1.292   4.241   4.067 -0.4436 -0.2598 -0.6221
 2548SOL    HW310239   1.231   4.300   4.192  0.8355  0.2012 -0.2042
 2548SOL    MW410240   1.251   4.231   4.143  0.1870  0.0319 -0.2389
 2549SOL     OW10241   2.711   2.666   3.923 -0.4779  0.6186  0.2908
 2549SOL    HW210242   2.687   2.585   3.879  1.5556  0.2505 -0.1888
 2549SOL    HW310243   2.660   2.733   3.879 -1.0596 -0.2156 -0.3130
 2549SOL    MW410244   2.701   2.664   3.912 -0.2863  0.4599  0.1478
 2550SOL     OW10245   2.047   1.341   4.310  0.0130  0.6126  0.0816
 2550SOL    HW210246   2.117   1.289   4.271  0.4251  0.7298  0.6552
 2550SOL    HW310247   2.033   1.414   4.250  0.5459  0.7164  0.0823
 2550SOL    MW410248   2.054   1.344   4.297  0.1378  0.6418  0.1578
 2551SOL     OW10249   4.020   1.184   4.354  0.6036 -0.6289 -0.3737
 2551SOL    HW210250   4.005   1.104   4.404 -2.3713 -0.2120 -0.5039
 2551SOL    HW310251   4.056   1.246   4.418  1.8507 -1.6928 -0.0168
 2551SOL    MW410252   4.023   1.182   4.369  0.3753 -0.7143 -0.3438
 2552SOL     OW10253   1.142   3.188   4.776 -0.1604 -0.2956 -0.2800
 2552SOL    HW210254   1.193   3.262   4.743  1.4781 -0.9425  0.7382
 2552SOL    HW310255   1.051   3.219   4.775  0.3236  1.1549 -1.3683
 2552SOL    MW410256   1.137   3.202   4.772  0.1196 -0.1895 -0.2894
 2553SOL     OW10257   1.120   1.233   4.467  0.5978  0.6179 -0.4579
 2553SOL    HW210258   1.056   1.164   4.485  0.5558  0.6916 -0.3249
 2553SOL    HW310259   1.096   1.304   4.526  1.0630  0.4864 -0.0984
 2553SOL    MW410260   1.109   1.233   4.477  0.6536  0.6102 -0.3924
 2554SOL     OW10261   4.397   3.933   4.489  0.2570  0.6923  0.2467
 2554SOL    HW210262   4.436   3.958   4.406 -1.5799  0.9980 -0.5432
 2554SOL    HW310263   4.400   3.837   4.490 -1.0718  0.6384 -0.8364
 2554SOL    MW410264   4.403   3.924   4.478 -0.1602  0.7260 -0.0005
 2555SOL     OW10265   1.084   1.292   4.189 -0.1174  0.7852  0.3094
 2555SOL    HW210266   1.112   1.277   4.279 -1.5538 -1.1037  0.4647
 2555SOL    HW310267   1.149   1.247   4.135 -0.0503  0.7069  0.4573
 2555SOL    MW410268   1.096   1.284   4.193 -0.2981  0.5256  0.3495
 2556SOL     OW10269   1.126   4.578   3.891 -0.0407 -0.1735 -0.0496
 2556SOL    HW210270   1.135   4.606   3.983  0.8594  1.2007 -0.5440
 2556SOL    HW310271   1.193   4.628   3.844  0.0418 -1.4712 -1.3379
 2556SOL    MW410272   1.136   4.588   3.897  0.0889 -0.1636 -0.2849
 2557SOL     OW10273   3.856   2.105   4.514 -0.1223 -0.4377 -0.4499
 2557SOL    HW210274   3.763   2.101   4.536  0.0426 -1.6966  0.1194
 2557SOL    HW310275   3.860   2.082   4.421 -0.5241  1.3427 -0.9140
 2557SOL    MW410276   3.845   2.101   4.505 -0.1538 -0.3691 -0.4363
 2558SOL     OW10277   1.056   0.357   4.438  0.1863  0.5999  0.4880
 2558SOL    HW210278   1.006   0.284   4.475  0.7062 -0.4441 -0.8245
 2558SOL    HW310279   1.146   0.341   4.466 -0.0083  1.8174  1.8349
 2558SOL    MW410280   1.061   0.345   4.447  0.2292  0.6228  0.4916
 2559SOL     OW10281   4.079   1.605   4.210  0.1588 -0.3214 -0.1694
 2559SOL    HW210282   4.078   1.689   4.164  0.5183 -0.4196 -0.3559
 2559SOL    HW310283   4.119   1.625   4.295 -0.3198 -0.1806  0.0222
 2559SOL    MW410284   4.084   1.619   4.215  0.1435 -0.3158 -0.1688
 2560SOL     OW10285   4.228   1.111   4.676  0.0564 -0.5387  0.0351
 2560SOL    HW210286   4.281   1.115   4.596  1.8450  0.3767  1.2333
 2560SOL    HW310287   4.260   1.183   4.730 -2.1733 -0.2169  0.9752
 2560SOL    MW410288   4.239   1.121   4.673 -0.0019 -0.3755  0.3171
 2561SOL     OW10289   0.458   3.435   3.878  0.2761  0.2713 -0.0443
 2561SOL    HW210290   0.438   3.345   3.853 -3.4887  1.1094 -0.3188
 2561SOL    HW310291   0.470   3.431   3.973  1.0559 -0.6744 -0.1811
 2561SOL    MW410292   0.457   3.422   3.887 -0.1177  0.2568 -0.0987
 2562SOL     OW10293   1.541   3.554   4.220 -0.1610  0.6474  0.2165
 2562SOL    HW210294   1.593   3.544   4.299 -0.9576  0.5504  0.7339
 2562SOL    HW310295   1.565   3.640   4.186  0.7645  0.3627  0.1317
 2562SOL    MW410296   1.551   3.564   4.226 -0.1439  0.5970  0.2742
 2563SOL     OW10297   4.065   3.497   3.916  0.7439  0.1761  0.4445
 2563SOL    HW210298   4.072   3.482   4.010 -2.1671 -1.0094  0.5162
 2563SOL    HW310299   4.053   3.409   3.879 -2.0150  0.9527 -0.6058
 2563SOL    MW410300   4.065   3.483   3.924 -0.0048  0.1221  0.3152
 2564SOL     OW10301   3.597   1.605   4.582  0.2338  0.0371 -0.2184
 2564SOL    HW210302   3.526   1.653   4.624  0.9876  2.5445 -1.7090
 2564SOL    HW310303   3.593   1.633   4.490  2.3408 -0.7899 -0.5828
 2564SOL    MW410304   3.587   1.615   4.575  0.6111  0.2589 -0.4630
 2565SOL     OW10305   3.152   0.342   4.172  0.4056  0.1366 -0.6468
 2565SOL    HW210306   3.167   0.353   4.078  0.5666 -0.1985 -0.6582
 2565SOL    HW310307   3.153   0.248   4.186  0.4488  0.1890 -0.2959
 2565SOL    MW410308   3.154   0.331   4.161  0.4325  0.0994 -0.6018
 2566SOL     OW10309   3.519   0.046   4.486 -0.3078  0.3366  0.3284
 2566SOL    HW210310   3.475   0.118   4.532  0.1113  0.2903  0.8117
 2566SOL    HW310311   3.472  -0.033   4.515 -0.1597  0.3257  0.5489
 2566SOL    MW410312   3.507   0.045   4.496 -0.2327  0.3291  0.4215
 2567SOL     OW10313   0.936   3.805   4.745 -0.2363 -0.5837  0.1514
 2567SOL    HW210314   0.866   3.853   4.701 -1.6095 -0.4523  2.4375
 2567SOL    HW310315   0.928   3.716   4.713 -0.3517 -0.2024 -0.8917
 2567SOL    MW410316   0.926   3.800   4.735 -0.4327 -0.5159  0.3152
 2568SOL     OW10317   1.175   3.906   4.602 -0.4306 -0.3977 -0.6668
 2568SOL    HW210318   1.115   3.879   4.671 -0.9439  0.1244 -0.9034
 2568SOL    HW310319   1.185   3.828   4.547 -2.1065 -0.0358 -1.4934
 2568SOL    MW410320   1.169   3.892   4.604 -0.7194 -0.2809 -0.8068
 2569SOL     OW10321   1.792   0.368   3.872  0.0891 -0.1205 -0.1626
 2569SOL    HW210322   1.804   0.334   3.960 -0.2296 -0.1810 -0.1426
 2569SOL    HW310323   1.784   0.289   3.817  1.0213 -0.0899 -0.3483
 2569SOL    MW410324   1.793   0.353   3.876  0.1701 -0.1244 -0.1845
 2570SOL     OW10325   4.268   4.632   4.127 -0.0479 -0.1568 -0.1631
 2570SOL    HW210326   4.281   4.639   4.032  1.4413  2.1998  0.1788
 2570SOL    HW310327   4.201   4.697   4.147  0.6825  0.3708  0.5853
 2570SOL    MW410328   4.261   4.641   4.117  0.2446  0.2236 -0.0196
 2571SOL     OW10329   2.478   1.329   4.219 -0.4442 -0.2321  0.0036
 2571SOL    HW210330   2.481   1.336   4.315  0.4494  1.5409 -0.1253
 2571SOL    HW310331   2.507   1.415   4.188  0.7767 -1.2795 -1.8617
 2571SOL    MW410332   2.483   1.342   4.228 -0.1650 -0.1361 -0.2594
 2572SOL     OW10333   1.689   3.523   4.450  0.6008 -0.0996 -0.0287
 2572SOL    HW210334   1.611   3.553   4.496 -0.7208 -0.5164 -1.9223
 2572SOL    HW310335   1.722   3.451   4.503 -0.1329  0.2644  0.9360
 2572SOL    MW410336   1.683   3.518   4.463  0.3297 -0.1066 -0.1507
 2573SOL     OW10337   4.079   2.265   4.532 -0.1163  0.1169 -0.6842
 2573SOL    HW210338   4.040   2.345   4.497  0.3654  1.2824  1.4225
 2573SOL    HW310339   4.007   2.201   4.532 -1.2146  1.3299  0.1823
 2573SOL    MW410340   4.064   2.267   4.527 -0.1979  0.4311 -0.2918
 2574SOL     OW10341   0.683   0.579   4.703  0.4619  0.3085 -0.0287
 2574SOL    HW210342   0.719   0.638   4.769  0.0984  0.3809  0.1014
 2574SOL    HW310343   0.751   0.576   4.635  0.9220  0.0731  0.4403
 2574SOL    MW410344   0.697   0.586   4.703  0.4746  0.2870  0.0501
 2575SOL     OW10345   2.481   1.150   4.745 -0.1574  0.2524 -0.3736
 2575SOL    HW210346   2.473   1.068   4.697 -0.8765  0.8122 -1.2286
 2575SOL    HW310347   2.393   1.168   4.778 -0.0856  0.8610 -0.5046
 2575SOL    MW410348   2.468   1.142   4.743 -0.2427  0.4065 -0.5040
 2576SOL     OW10349   3.656   2.388   4.455  0.9888  0.2815  0.0831
 2576SOL    HW210350   3.636   2.308   4.503 -0.4684  0.3514 -0.3966
 2576SOL    HW310351   3.627   2.370   4.366  1.7251  0.9322 -0.2978
 2576SOL    MW410352   3.650   2.375   4.450  0.8941  0.3765 -0.0310
 2577SOL     OW10353   4.041   3.193   4.302  0.1863  0.1721 -0.1352
 2577SOL    HW210354   4.073   3.189   4.391  0.7755  0.5094 -0.3317
 2577SOL    HW310355   4.047   3.286   4.278 -0.7886  0.2234 -0.2268
 2577SOL    MW410356   4.046   3.205   4.310  0.1354  0.2234 -0.1736
 2578SOL     OW10357   0.840   0.154   4.498 -1.1279  0.3607  0.1171
 2578SOL    HW210358   0.863   0.116   4.413 -0.2885 -0.1841  0.5681
 2578SOL    HW310359   0.790   0.232   4.478 -0.4061  0.5665 -0.8951
 2578SOL    MW410360   0.837   0.159   4.484 -0.9219  0.3160  0.0429
 2579SOL     OW10361   3.141   0.659   4.584 -0.2398 -0.1732 -0.4736
 2579SOL    HW210362   3.103   0.743   4.607 -0.4227 -0.4824  0.3789
 2579SOL    HW310363   3.069   0.597   4.590  0.6690 -1.0319  2.7126
 2579SOL    MW410364   3.127   0.662   4.587 -0.1440 -0.3273  0.0596
 2580SOL     OW10365   0.647   2.340   3.896  0.0193  0.3467  0.2972
 2580SOL    HW210366   0.653   2.347   3.991 -0.4182 -0.6031  0.4102
 2580SOL    HW310367   0.563   2.381   3.875  0.5180  1.3315  0.2247
 2580SOL    MW410368   0.636   2.346   3.906  0.0273  0.3512  0.3026
 2581SOL     OW10369   3.604   1.112   4.157  0.0985 -0.0735  0.3313
 2581SOL    HW210370   3.666   1.174   4.195  0.7380 -1.1624  1.0894
 2581SOL    HW310371   3.612   1.124   4.063  1.0748  0.1678  0.4479
 2581SOL    MW410372   3.613   1.122   4.150  0.3116 -0.1855  0.4468
 2582SOL     OW10373   0.782   1.002   4.369 -0.0457 -0.3273 -0.3716
 2582SOL    HW210374   0.689   0.980   4.376 -0.3964  1.5360  1.2302
 2582SOL    HW310375   0.786   1.072   4.304  0.4216 -1.4002 -1.5090
 2582SOL    MW410376   0.770   1.008   4.361 -0.0303 -0.2230 -0.3099
 2583SOL     OW10377   2.749   4.186   4.137 -0.2584 -0.1329 -0.0382
 2583SOL    HW210378   2.756   4.192   4.042 -0.8019  3.4034  0.0824
 2583SOL    HW310379   2.662   4.221   4.157 -0.8083 -2.3920  1.6498
 2583SOL    MW410380   2.738   4.192   4.127 -0.4029  0.0353  0.1998
 2584SOL     OW10381   2.518   3.887   4.090 -0.2466 -0.3780  0.5474
 2584SOL    HW210382   2.433   3.925   4.111  0.1433  0.8106  0.0173
 2584SOL    HW310383   2.521   3.888   3.994  0.4962 -0.1329  0.5743
 2584SOL    MW410384   2.507   3.892   4.080 -0.0973 -0.1891  0.4811
 2585SOL     OW10385   1.809   0.047   4.208 -0.1117  0.5077 -0.1243
 2585SOL    HW210386   1.789   0.135   4.176  0.7885  0.7833  0.0583
 2585SOL    HW310387   1.776   0.047   4.298  0.5687  0.9116  0.1284
 2585SOL    MW410388   1.802   0.059   4.216  0.0969  0.5974 -0.0668
 2586SOL     OW10389   2.257   2.757   4.517 -0.0018 -0.2590  0.6752
 2586SOL    HW210390   2.296   2.800   4.441 -0.5706  0.9483  1.0416
 2586SOL    HW310391   2.245   2.828   4.581  0.4293 -1.2414  1.8717
 2586SOL    MW410392   2.260   2.772   4.516 -0.0203 -0.2294  0.8807
 2587SOL     OW10393   1.079   3.573   4.241  0.0230 -0.7003  0.0067
 2587SOL    HW210394   1.155   3.519   4.218  0.1373 -0.4632 -0.1782
 2587SOL    HW310395   1.006   3.530   4.197 -0.0675 -1.3309  0.7634
 2587SOL    MW410396   1.079   3.560   4.232  0.0261 -0.7522  0.0820
 2588SOL     OW10397   3.631   4.006   4.514  0.0163  0.0646  0.8341
 2588SOL    HW210398   3.541   4.030   4.538 -0.1957  0.0611  0.0407
 2588SOL    HW310399   3.686   4.054   4.576 -0.5664 -0.6327  1.9061
 2588SOL    MW410400   3.626   4.015   4.525 -0.0885 -0.0281  0.8707
 2589SOL     OW10401   2.435   0.737   4.142 -0.0253 -0.0067  0.1096
 2589SOL    HW210402   2.467   0.649   4.162  2.5749  0.4258 -2.0105
 2589SOL    HW310403   2.491   0.795   4.194  0.2504  0.5598 -0.8223
 2589SOL    MW410404   2.446   0.733   4.152  0.3541  0.1251 -0.2933
 2590SOL     OW10405   0.032   3.237   4.247  0.2397  0.1763 -0.4048
 2590SOL    HW210406   0.095   3.180   4.204  0.4643 -0.0591  0.2352
 2590SOL    HW310407  -0.053   3.206   4.215  0.4379  0.5097 -1.2851
 2590SOL    MW410408   0.029   3.226   4.237  0.2955  0.1888 -0.4363
 2591SOL     OW10409   3.636   2.866   4.529  0.0516  0.3369 -0.2659
 2591SOL    HW210410   3.602   2.889   4.443  1.2187 -0.4230 -0.9442
 2591SOL    HW310411   3.596   2.781   4.549  0.4876  0.0840 -0.4634
 2591SOL    MW410412   3.626   2.857   4.521  0.2632  0.2034 -0.3815
 2592SOL     OW10413   3.806   2.035   3.742  0.0976 -0.3338 -0.2790
 2592SOL    HW210414   3.727   2.001   3.785 -0.8142 -0.6289 -2.1709
 2592SOL    HW310415   3.878   1.993   3.789 -0.8341 -0.0340  1.5006
 2592SOL    MW410416   3.805   2.025   3.754 -0.1457 -0.3333 -0.2940
 2593SOL     OW10417   3.348   4.630   3.883  0.5447 -0.0583 -0.3819
 2593SOL    HW210418   3.424   4.673   3.843  1.4701  0.0703  1.4584
 2593SOL    HW310419   3.361   4.641   3.977 -2.0046  0.3856 -0.0407
 2593SOL    MW410420   3.360   4.637   3.890  0.3304  0.0172 -0.0944
 2594SOL     OW10421   3.527   2.610   4.554  0.1771  0.2250  0.0014
 2594SOL    HW210422   3.567   2.527   4.528  1.2476  1.1851 -1.5405
 2594SOL    HW310423   3.434   2.591   4.562  0.2693 -0.8838 -1.4092
 2594SOL    MW410424   3.520   2.596   4.551  0.3307  0.2053 -0.3881
 2595SOL     OW10425   3.176   1.367   4.576 -0.4032 -0.1783 -0.6197
 2595SOL    HW210426   3.254   1.312   4.560  0.6307  0.5394  1.7128
 2595SOL    HW310427   3.102   1.308   4.561  0.6849 -2.1163  1.3975
 2595SOL    MW410428   3.177   1.352   4.572 -0.1235 -0.3392 -0.0463
 2596SOL     OW10429   1.120   3.832   4.149 -0.1231 -0.0058  0.1506
 2596SOL    HW210430   1.207   3.849   4.187 -0.5570  0.1433  1.0882
 2596SOL    HW310431   1.099   3.743   4.177 -0.6974  0.3147  0.7594
 2596SOL    MW410432   1.129   3.822   4.158 -0.2562  0.0563  0.3548
 2597SOL     OW10433   2.658   0.575   4.639  0.3460  0.1697  0.7432
 2597SOL    HW210434   2.601   0.618   4.702  0.0316 -0.2121  0.7254
 2597SOL    HW310435   2.599   0.521   4.586  0.7409 -0.3809  0.8521
 2597SOL    MW410436   2.643   0.573   4.640  0.3564  0.0467  0.7553
 2598SOL     OW10437   2.891   4.472   4.549 -0.3665  0.0636  0.1193
 2598SOL    HW210438   2.875   4.439   4.461  1.1041  0.7455 -0.4380
 2598SOL    HW310439   2.804   4.489   4.585 -1.1216 -3.3055  0.0449
 2598SOL    MW410440   2.878   4.470   4.542 -0.2718 -0.2913  0.0358
 2599SOL     OW10441   3.381   0.487   3.803  0.3606 -0.4018 -0.3773
 2599SOL    HW210442   3.389   0.578   3.832  0.7363 -0.2984 -0.7856
 2599SOL    HW310443   3.450   0.441   3.850  1.1682 -0.1740 -1.3344
 2599SOL    MW410444   3.391   0.493   3.813  0.5169 -0.3581 -0.5574
 2600SOL     OW10445   0.054   1.525   4.508  0.3328 -0.3647  0.0329
 2600SOL    HW210446   0.138   1.488   4.537 -0.2798 -1.3075  0.6083
 2600SOL    HW310447   0.047   1.499   4.416  0.8217 -0.0094 -0.1073
 2600SOL    MW410448   0.064   1.517   4.499  0.3165 -0.4421  0.0901
 2601SOL     OW10449   0.873   1.947   4.157 -0.0472  0.0283  0.0937
 2601SOL    HW210450   0.885   1.929   4.063  3.0249 -0.8930  0.6076
 2601SOL    HW310451   0.865   1.860   4.197  0.2231  0.3630  0.8699
 2601SOL    MW410452   0.874   1.933   4.150  0.3939 -0.0490  0.2642
 2602SOL     OW10453   2.017   4.663   3.888 -0.3140  0.2511 -0.5871
 2602SOL    HW210454   2.030   4.632   3.977 -0.6599  1.8609  0.0351
 2602SOL    HW310455   2.102   4.698   3.862 -0.7099  1.4725 -0.2224
 2602SOL    MW410456   2.030   4.663   3.896 -0.4117  0.6247 -0.4570
 2603SOL     OW10457   4.490   0.255   4.331  0.2170  0.2582  0.4606
 2603SOL    HW210458   4.463   0.164   4.325  0.3709  0.2100  0.4787
 2603SOL    HW310459   4.450   0.287   4.412  2.5574 -0.6369  2.0569
 2603SOL    MW410460   4.481   0.247   4.341  0.5465  0.1338  0.6738
 2604SOL     OW10461   4.443   3.190   4.503 -0.2405 -0.4483  0.1825
 2604SOL    HW210462   4.412   3.100   4.497 -0.1007 -0.5443  0.8179
 2604SOL    HW310463   4.481   3.209   4.418 -0.4934 -0.9082 -0.0326
 2604SOL    MW410464   4.444   3.181   4.491 -0.2551 -0.5219  0.2384
 2605SOL     OW10465   3.168   0.079   4.282  0.2890 -0.2299 -0.2221
 2605SOL    HW210466   3.082   0.044   4.259  1.1748 -0.6228 -3.1376
 2605SOL    HW310467   3.169   0.079   4.378 -2.1545 -2.1777 -0.1491
 2605SOL    MW410468   3.157   0.074   4.292  0.0834 -0.5387 -0.5970
 2606SOL     OW10469   3.636   4.012   4.240  0.3043 -0.4627  0.7680
 2606SOL    HW210470   3.550   3.976   4.218  0.3250  0.4712 -0.8693
 2606SOL    HW310471   3.637   4.012   4.336 -2.0874  0.7924  0.8494
 2606SOL    MW410472   3.625   4.007   4.250 -0.0088 -0.1740  0.5627
 2607SOL     OW10473   0.920   1.259   4.781  0.2487 -0.2063  0.6422
 2607SOL    HW210474   0.933   1.203   4.704  1.1317 -0.2615  0.8280
 2607SOL    HW310475   0.976   1.334   4.766 -0.9715  0.6664  0.3759
 2607SOL    MW410476   0.929   1.261   4.769  0.2043 -0.0985  0.6313
 2608SOL     OW10477   2.463   2.002   4.272  0.5365 -0.0574  0.0519
 2608SOL    HW210478   2.540   1.969   4.226 -0.7078  0.4781 -2.4931
 2608SOL    HW310479   2.453   2.092   4.241 -2.0953 -0.6606 -1.0069
 2608SOL    MW410480   2.472   2.010   4.262  0.0250 -0.0660 -0.4239
 2609SOL     OW10481   2.977   3.613   4.240 -0.3920 -0.0261  0.0310
 2609SOL    HW210482   2.970   3.627   4.334  0.1797  0.2451  0.0352
 2609SOL    HW310483   2.988   3.701   4.204  1.6852 -0.3259 -0.0877
 2609SOL    MW410484   2.977   3.627   4.248 -0.0429 -0.0298  0.0162
 2610SOL     OW10485   2.721   3.985   4.843 -0.6565 -0.1595  0.2080
 2610SOL    HW210486   2.738   3.916   4.779  0.3592  0.1731  0.1078
 2610SOL    HW310487   2.722   3.941   4.928  0.2688 -0.2387  0.1662
 2610SOL    MW410488   2.724   3.970   4.846 -0.4003 -0.1261  0.1898
 2611SOL     OW10489   0.275   1.421   4.096  0.3231 -0.0067  0.1900
 2611SOL    HW210490   0.339   1.477   4.140  0.3941 -0.3507  0.5255
 2611SOL    HW310491   0.307   1.332   4.111 -0.8456 -0.2451  1.3134
 2611SOL    MW410492   0.288   1.416   4.104  0.1782 -0.0837  0.3824
 2612SOL     OW10493   2.670   3.468   3.857  0.1165  0.0624 -0.3597
 2612SOL    HW210494   2.683   3.489   3.950 -0.0076 -0.1469 -0.2937
 2612SOL    HW310495   2.750   3.500   3.814 -1.2222  3.1161 -0.6849
 2612SOL    MW410496   2.683   3.475   3.864 -0.0765  0.4377 -0.3939
 2613SOL     OW10497   1.363   2.683   4.088  0.0138 -0.1829 -0.0714
 2613SOL    HW210498   1.305   2.744   4.133 -0.0278 -0.2077 -0.0912
 2613SOL    HW310499   1.350   2.600   4.133  2.2521  0.4675  1.9122
 2613SOL    MW410500   1.354   2.680   4.100  0.3037 -0.1004  0.1869
 2614SOL     OW10501   4.120   0.236   4.504  0.6309  0.0365 -0.0521
 2614SOL    HW210502   4.046   0.294   4.524  1.6465  1.2322  0.2580
 2614SOL    HW310503   4.108   0.161   4.563 -0.3316  0.2038 -0.0160
 2614SOL    MW410504   4.108   0.234   4.514  0.6375  0.2164 -0.0062
 2615SOL     OW10505   2.421   2.821   4.259 -0.4906  0.0612 -0.2781
 2615SOL    HW210506   2.365   2.769   4.201  2.8638 -2.8847 -1.0280
 2615SOL    HW310507   2.443   2.899   4.207 -1.0896 -0.4275 -1.2754
 2615SOL    MW410508   2.416   2.825   4.244 -0.1268 -0.3917 -0.5083
 2616SOL     OW10509   2.920   1.988   4.256 -0.0804 -0.1101 -0.0118
 2616SOL    HW210510   2.842   1.963   4.207 -1.4080  0.9220  1.5615
 2616SOL    HW310511   2.892   1.990   4.347  1.6929  0.6153  0.5343
 2616SOL    MW410512   2.906   1.985   4.262 -0.0219  0.1217  0.2680
 2617SOL     OW10513   1.134   4.444   4.352  0.1267  0.0610 -0.1856
 2617SOL    HW210514   1.056   4.420   4.401  0.4899 -1.8203 -0.4782
 2617SOL    HW310515   1.205   4.439   4.415  0.3938 -0.9511 -0.5635
 2617SOL    MW410516   1.133   4.440   4.367  0.2099 -0.3209 -0.2737
 2618SOL     OW10517   3.524   2.880   4.269 -0.0199  0.0458  0.1538
 2618SOL    HW210518   3.498   2.951   4.210 -0.4207  1.4204  1.9493
 2618SOL    HW310519   3.563   2.814   4.211 -1.1999  0.9642 -1.7505
 2618SOL    MW410520   3.526   2.881   4.253 -0.2286  0.3479  0.1392
 2619SOL     OW10521   3.343   2.020   4.215  0.1246  0.5106 -0.5032
 2619SOL    HW210522   3.347   2.095   4.156 -0.9451  0.6367 -0.4150
 2619SOL    HW310523   3.270   1.967   4.183  1.0053 -0.6105 -0.6998
 2619SOL    MW410524   3.334   2.023   4.203  0.0997  0.3793 -0.5174
 2620SOL     OW10525   1.588   2.791   4.226  0.3699  0.1077  0.4737
 2620SOL    HW210526   1.517   2.747   4.179  0.1402 -0.7879  1.6168
 2620SOL    HW310527   1.570   2.772   4.319  1.8301  0.2899  0.8032
 2620SOL    MW410528   1.576   2.783   4.232  0.5323  0.0136  0.6680
 2621SOL     OW10529   4.243   2.495   4.562  0.6926  0.3112 -0.4222
 2621SOL    HW210530   4.185   2.555   4.609  2.2738  1.2153  0.4425
 2621SOL    HW310531   4.214   2.408   4.590  0.0279  0.7581  0.3277
 2621SOL    MW410532   4.232   2.491   4.572  0.8135  0.4892 -0.2093
 2622SOL     OW10533   3.103   2.055   4.583 -0.2601 -0.2433  0.0843
 2622SOL    HW210534   3.013   2.026   4.572 -0.4389  0.5138 -0.4653
 2622SOL    HW310535   3.097   2.147   4.607  0.3461 -0.3283  0.5831
 2622SOL    MW410536   3.091   2.063   4.584 -0.2036 -0.1547  0.0777
 2623SOL     OW10537   4.476   2.441   4.183 -0.0730  0.6699  0.1862
 2623SOL    HW210538   4.394   2.394   4.195 -0.0791  0.2530 -1.4435
 2623SOL    HW310539   4.542   2.373   4.176  0.1282  0.9346 -0.5802
 2623SOL    MW410540   4.474   2.426   4.184 -0.0477  0.6495 -0.1302
 2624SOL     OW10541   1.825   2.686   4.115  0.0965  0.0319  0.1967
 2624SOL    HW210542   1.817   2.599   4.154  0.1268  0.4581  1.1601
 2624SOL    HW310543   1.742   2.729   4.136  0.2702  0.4026  0.1213
 2624SOL    MW410544   1.813   2.680   4.123  0.1234  0.1371  0.3142
 2625SOL     OW10545   3.822   3.122   4.159 -0.4378  0.2003 -0.0275
 2625SOL    HW210546   3.742   3.149   4.204 -0.2467  0.2113  0.3107
 2625SOL    HW310547   3.893   3.150   4.217 -0.1183  1.5019 -1.0198
 2625SOL    MW410548   3.821   3.129   4.173 -0.3703  0.3734 -0.1135
 2626SOL     OW10549   2.675   0.085   4.263  0.1042 -0.7801  0.1716
 2626SOL    HW210550   2.695   0.168   4.221  0.6212 -1.0260 -0.0626
 2626SOL    HW310551   2.631   0.110   4.345  1.2862 -0.2494  0.6536
 2626SOL    MW410552   2.672   0.099   4.268  0.3283 -0.7425  0.2041
 2627SOL     OW10553   0.621   0.996   4.736  0.2725 -0.1430 -0.2688
 2627SOL    HW210554   0.697   0.946   4.767  0.9952  0.5457 -0.9027
 2627SOL    HW310555   0.561   0.930   4.702  1.0343 -0.6147 -0.7136
 2627SOL    MW410556   0.623   0.981   4.736  0.4684 -0.1144 -0.4115
 2628SOL     OW10557   2.548   1.572   4.134  0.3663 -0.4821 -0.5626
 2628SOL    HW210558   2.539   1.562   4.039 -1.2724 -1.0199 -0.3641
 2628SOL    HW310559   2.460   1.592   4.164  0.8553 -0.4701  0.8765
 2628SOL    MW410560   2.535   1.573   4.125  0.2146 -0.5515 -0.3467
 2629SOL     OW10561   0.202   2.312   4.555  0.1468 -0.1164 -0.0728
 2629SOL    HW210562   0.166   2.231   4.519  0.0493 -0.1007 -0.0122
 2629SOL    HW310563   0.138   2.380   4.532 -0.1009 -0.1691  0.4433
 2629SOL    MW410564   0.189   2.310   4.547  0.1012 -0.1216  0.0033
 2630SOL     OW10565   2.600   2.344   4.484  0.1985  0.1993  0.0953
 2630SOL    HW210566   2.612   2.253   4.512 -0.2044  0.7410  2.1215
 2630SOL    HW310567   2.670   2.392   4.528 -1.2354  1.2819  1.2496
 2630SOL    MW410568   2.610   2.338   4.494 -0.0436  0.4134  0.5145
 2631SOL     OW10569   3.358   1.250   4.222  0.0685 -0.2866  0.0623
 2631SOL    HW210570   3.375   1.343   4.210  1.4863 -0.4940  0.3047
 2631SOL    HW310571   3.434   1.207   4.182 -0.8642 -1.3660 -0.5990
 2631SOL    MW410572   3.370   1.257   4.215  0.1326 -0.4565  0.0067
 2632SOL     OW10573   2.701   4.041   4.488  0.0730 -0.0443 -0.8279
 2632SOL    HW210574   2.693   3.974   4.556  2.9811 -0.7026 -1.0779
 2632SOL    HW310575   2.703   3.992   4.406 -1.2613  0.6081 -1.2743
 2632SOL    MW410576   2.700   4.026   4.486  0.2809 -0.0448 -0.9198
 2633SOL     OW10577   2.231   3.976   4.480 -0.4328 -0.1786  0.5844
 2633SOL    HW210578   2.235   3.908   4.548 -1.4461  0.3439  1.1720
 2633SOL    HW310579   2.309   4.030   4.497 -0.2356 -0.5305  0.8186
 2633SOL    MW410580   2.242   3.974   4.492 -0.5405 -0.1559  0.6933
 2634SOL     OW10581   1.235   2.215   4.525 -0.2205 -0.1371  0.1589
 2634SOL    HW210582   1.228   2.200   4.430  1.4994 -0.5391  0.0936
 2634SOL    HW310583   1.170   2.156   4.563 -0.9021  0.0058 -0.7549
 2634SOL    MW410584   1.225   2.206   4.517 -0.0836 -0.1714  0.0300
 2635SOL     OW10585   2.421   0.660   4.743 -0.2837 -0.1305  0.1749
 2635SOL    HW210586   2.344   0.634   4.692 -1.0779  1.1411  0.7111
 2635SOL    HW310587   2.397   0.641   4.834  0.7734 -1.5078  0.1877
 2635SOL    MW410588   2.408   0.654   4.748 -0.2489 -0.1444  0.2475
 2636SOL     OW10589   1.093   0.815   4.621  0.0449  0.1880  0.3388
 2636SOL    HW210590   1.040   0.745   4.584  1.2571  0.0514 -1.2179
 2636SOL    HW310591   1.180   0.802   4.582  0.2132  2.7253 -0.2247
 2636SOL    MW410592   1.098   0.804   4.611  0.2271  0.5048  0.0587
 2637SOL     OW10593   0.508   4.116   4.455  0.1173 -0.4064  0.2263
 2637SOL    HW210594   0.415   4.138   4.461  0.1561 -0.3980  0.8551
 2637SOL    HW310595   0.553   4.200   4.465  0.1954 -0.4122 -0.0634
 2637SOL    MW410596   0.502   4.130   4.457  0.1327 -0.4067  0.2713
 2638SOL     OW10597   1.544   1.935   4.466  0.5576  0.0299  0.6329
 2638SOL    HW210598   1.453   1.914   4.486  0.4306  0.2093  0.2438
 2638SOL    HW310599   1.591   1.852   4.475  0.4369  0.0257  1.2845
 2638SOL    MW410600   1.539   1.922   4.470  0.5250  0.0529  0.6676
 2639SOL     OW10601   4.024   3.450   4.238 -0.3748  0.0086 -0.3739
 2639SOL    HW210602   4.095   3.514   4.240  0.1948 -0.5689 -1.7561
 2639SOL    HW310603   3.946   3.502   4.258  0.5666  0.3988  2.5921
 2639SOL    MW410604   4.023   3.465   4.241 -0.1755 -0.0162 -0.1645
 2640SOL     OW10605   3.847   4.413   4.248 -0.1019  0.0816  0.3396
 2640SOL    HW210606   3.854   4.499   4.208  0.1417  0.0145  0.2368
 2640SOL    HW310607   3.880   4.425   4.338 -1.0141  0.3172  0.6456
 2640SOL    MW410608   3.852   4.426   4.255 -0.1903  0.1040  0.3662
 2641SOL     OW10609   0.672   3.821   3.809 -0.8114 -0.1550  0.3266
 2641SOL    HW210610   0.677   3.727   3.795 -0.1758 -0.4201  2.2215
 2641SOL    HW310611   0.751   3.856   3.768 -1.0866 -0.4222 -0.4480
 2641SOL    MW410612   0.683   3.813   3.802 -0.7638 -0.2253  0.4745
 2642SOL     OW10613   2.010   3.026   3.850  0.2934 -0.3000  0.0754
 2642SOL    HW210614   2.027   2.947   3.798 -0.4048 -0.0892 -0.4672
 2642SOL    HW310615   2.078   3.088   3.823  0.4311 -0.4781  0.0136
 2642SOL    MW410616   2.021   3.024   3.840  0.2191 -0.2959 -0.0043
 2643SOL     OW10617   2.693   1.125   3.855 -0.1493  0.1741  0.2024
 2643SOL    HW210618   2.698   1.034   3.825 -1.0599  0.3856 -0.6085
 2643SOL    HW310619   2.609   1.156   3.823 -0.4263  0.9093  1.6078
 2643SOL    MW410620   2.683   1.117   3.847 -0.3059  0.2991  0.2809
 2644SOL     OW10621   0.940   3.512   4.559 -0.0734 -0.0285  0.2481
 2644SOL    HW210622   1.000   3.546   4.494  0.3393  0.3585  0.8245
 2644SOL    HW310623   0.853   3.531   4.524  0.1481  0.1579 -0.1958
 2644SOL    MW410624   0.936   3.519   4.546  0.0102  0.0472  0.2666
 2645SOL     OW10625   0.937   1.066   4.582  0.1529 -0.2644  0.2613
 2645SOL    HW210626   0.983   0.987   4.611 -0.2901 -0.4302  0.5164
 2645SOL    HW310627   0.870   1.033   4.521 -0.9554 -0.2391  1.4390
 2645SOL    MW410628   0.934   1.051   4.577 -0.0517 -0.2829  0.4497
 2646SOL     OW10629   3.768   1.296   4.288  0.0145 -0.0341  0.5826
 2646SOL    HW210630   3.860   1.272   4.296  0.1007 -0.0686 -0.4253
 2646SOL    HW310631   3.734   1.294   4.377  0.6897 -1.2114  0.8218
 2646SOL    MW410632   3.775   1.293   4.301  0.1152 -0.1941  0.4811
 2647SOL     OW10633   1.826   4.274   4.651  0.3527 -0.4106  0.3743
 2647SOL    HW210634   1.749   4.218   4.663 -0.0164 -0.2739 -1.2812
 2647SOL    HW310635   1.892   4.216   4.613  0.2106  0.0810 -0.6444
 2647SOL    MW410636   1.825   4.259   4.648  0.2853 -0.3276  0.0215
 2648SOL     OW10637   2.233   2.451   4.266  0.3539  0.3643  0.0976
 2648SOL    HW210638   2.252   2.477   4.356 -0.2617 -0.0388  0.3469
 2648SOL    HW310639   2.295   2.380   4.247 -0.3777 -0.4217  0.6408
 2648SOL    MW410640   2.244   2.445   4.275  0.1762  0.2074  0.2022
 2649SOL     OW10641   0.048   2.036   4.548 -0.2287 -0.1713 -0.2698
 2649SOL    HW210642  -0.047   2.029   4.539 -0.4756 -0.0852  2.0022
 2649SOL    HW310643   0.062   2.053   4.641  2.0208 -0.2481 -0.5696
 2649SOL    MW410644   0.037   2.037   4.559  0.0356 -0.1700 -0.0095
 2650SOL     OW10645   1.119   2.053   4.247  0.1049  0.0161  0.3962
 2650SOL    HW210646   1.171   1.995   4.191 -0.1966 -0.6637  0.8078
 2650SOL    HW310647   1.029   2.033   4.225 -0.0510 -0.9702  1.7982
 2650SOL    MW410648   1.114   2.043   4.237  0.0445 -0.2036  0.6356
 2651SOL     OW10649   4.065   1.869   4.124  0.5890 -0.4476  0.6275
 2651SOL    HW210650   4.138   1.915   4.164  0.8592 -1.1840  0.9769
 2651SOL    HW310651   3.990   1.890   4.180  0.9170 -1.2789  1.3921
 2651SOL    MW410652   4.065   1.878   4.137  0.6676 -0.6545  0.7749
 2652SOL     OW10653   3.653   2.658   4.154  0.4148 -0.2024  0.1811
 2652SOL    HW210654   3.730   2.703   4.189  0.7714 -0.4798 -0.2456
 2652SOL    HW310655   3.658   2.670   4.060 -1.3121  1.7659  0.3058
 2652SOL    MW410656   3.664   2.666   4.146  0.2341  0.0207  0.1411
 2653SOL     OW10657   0.032   3.977   4.259  0.1348 -0.1160 -0.1340
 2653SOL    HW210658   0.011   4.062   4.221  0.8043  0.5389  0.9306
 2653SOL    HW310659   0.114   3.952   4.216 -0.1074 -0.2661 -0.5110
 2653SOL    MW410660   0.040   3.985   4.248  0.1912 -0.0496 -0.0434
 2654SOL     OW10661   1.366   4.146   4.580 -0.1723 -0.5385  0.0900
 2654SOL    HW210662   1.311   4.068   4.588  0.6000 -0.9282  1.7337
 2654SOL    HW310663   1.453   4.118   4.609  0.8417  0.1720 -2.1548
 2654SOL    MW410664   1.370   4.132   4.585  0.0634 -0.4964  0.0110
 2655SOL     OW10665   0.459   2.701   4.175 -0.6614 -0.3306 -0.7441
 2655SOL    HW210666   0.450   2.688   4.080 -0.8170 -0.1123 -0.7586
 2655SOL    HW310667   0.381   2.751   4.200 -0.3290  0.1098 -0.5944
 2655SOL    MW410668   0.448   2.706   4.166 -0.6380 -0.2437 -0.7267
 2656SOL     OW10669   0.308   1.878   4.053 -0.4110  0.0772  0.2179
 2656SOL    HW210670   0.347   1.807   4.103 -0.9003 -1.1804 -1.1510
 2656SOL    HW310671   0.357   1.878   3.970 -0.7181  1.0229  0.0324
 2656SOL    MW410672   0.320   1.869   4.048 -0.5160  0.0361  0.0129
 2657SOL     OW10673   2.246   2.677   4.087 -0.3277  0.1665  0.1469
 2657SOL    HW210674   2.179   2.735   4.125 -1.2887 -0.1080 -1.0965
 2657SOL    HW310675   2.237   2.595   4.136  0.1538  0.6288  1.0254
 2657SOL    MW410676   2.236   2.674   4.099 -0.3908  0.1915  0.0987
 2658SOL     OW10677   4.383   0.376   4.560 -0.4489 -0.4111  0.3209
 2658SOL    HW210678   4.296   0.337   4.553 -1.0152  0.8572  0.1304
 2658SOL    HW310679   4.422   0.336   4.638 -1.3876 -0.6159  0.6837
 2658SOL    MW410680   4.377   0.366   4.569 -0.6475 -0.2708  0.3443
 2659SOL     OW10681   3.115   0.180   4.726 -0.1596 -0.0385 -0.5522
 2659SOL    HW210682   3.083   0.156   4.814  0.9350  0.2457 -0.0704
 2659SOL    HW310683   3.136   0.097   4.685  1.5412 -0.0519  0.3156
 2659SOL    MW410684   3.113   0.166   4.732  0.2091 -0.0028 -0.3743
 2660SOL     OW10685   1.286   1.641   4.752  0.0969  0.1442  0.4710
 2660SOL    HW210686   1.361   1.661   4.808  0.3081 -0.4478  0.3998
 2660SOL    HW310687   1.325   1.605   4.672 -0.1794  1.2661 -0.1853
 2660SOL    MW410688   1.301   1.639   4.749  0.0883  0.2141  0.3753
 2661SOL     OW10689   4.279   1.413   4.106 -0.3093  0.6847  0.5061
 2661SOL    HW210690   4.230   1.331   4.104  0.1347  0.4346 -0.9075
 2661SOL    HW310691   4.216   1.479   4.133 -1.1466  0.1875 -0.2230
 2661SOL    MW410692   4.264   1.411   4.109 -0.3610  0.5862  0.2232
 2662SOL     OW10693   0.479   3.185   4.246 -0.7865 -0.4353  0.2878
 2662SOL    HW210694   0.561   3.157   4.204 -1.9859 -1.6390 -1.3045
 2662SOL    HW310695   0.474   3.279   4.226 -0.0396 -0.4545 -0.0308
 2662SOL    MW410696   0.489   3.194   4.238 -0.8462 -0.5968  0.0358
 2663SOL     OW10697   0.693   3.071   4.145  0.3987  0.7729  0.1717
 2663SOL    HW210698   0.783   3.103   4.158  0.1071  1.4251  0.6226
 2663SOL    HW310699   0.694   2.983   4.182  0.3356  1.5358  2.0376
 2663SOL    MW410700   0.705   3.063   4.152  0.3520  0.9594  0.4778
 2664SOL     OW10701   1.812   0.940   4.275  0.2423 -0.2021  0.4141
 2664SOL    HW210702   1.810   0.925   4.369 -0.0667 -2.1747  0.1104
 2664SOL    HW310703   1.879   0.880   4.242 -0.8957 -0.8245 -0.8312
 2664SOL    MW410704   1.821   0.930   4.283  0.0515 -0.5445  0.2103
 2665SOL     OW10705   1.608   0.783   4.149  0.2393 -0.1926 -0.5280
 2665SOL    HW210706   1.528   0.813   4.193 -0.1799 -0.2439 -1.2496
 2665SOL    HW310707   1.678   0.834   4.190 -0.0395 -0.8316  0.7817
 2665SOL    MW410708   1.607   0.794   4.160  0.1471 -0.2837 -0.4506
 2666SOL     OW10709   2.987   3.859   4.111 -0.5798  0.2287 -0.1835
 2666SOL    HW210710   2.905   3.877   4.158 -0.4423 -1.9879  0.9760
 2666SOL    HW310711   3.049   3.922   4.146 -1.5227  1.2466 -0.3116
 2666SOL    MW410712   2.984   3.869   4.122 -0.6862  0.0708 -0.0472
 2667SOL     OW10713   0.472   3.447   4.163 -0.2478 -0.1412  0.0754
 2667SOL    HW210714   0.390   3.487   4.194  0.8508  2.5118 -0.3091
 2667SOL    HW310715   0.532   3.521   4.154  2.2576 -2.0754  0.5160
 2667SOL    MW410716   0.469   3.462   4.166  0.2277 -0.0463  0.0825
 2668SOL     OW10717   1.526   2.195   4.576  0.1113  0.0314  0.5643
 2668SOL    HW210718   1.439   2.197   4.616 -1.1152  0.7024 -1.9980
 2668SOL    HW310719   1.541   2.103   4.555 -0.6213  0.1044 -0.2943
 2668SOL    MW410720   1.517   2.183   4.579 -0.1472  0.1295  0.1135
 2669SOL     OW10721   3.627   1.314   4.533 -0.0659  0.7245 -0.3996
 2669SOL    HW210722   3.544   1.269   4.546 -0.4257  1.2892 -0.6995
 2669SOL    HW310723   3.609   1.404   4.559  0.5202  0.7967 -0.2403
 2669SOL    MW410724   3.613   1.320   4.538 -0.0360  0.8086 -0.4177
 2670SOL     OW10725   3.603   2.376   4.185  0.4635 -0.5110 -0.4204
 2670SOL    HW210726   3.679   2.344   4.136 -0.2699  0.6482 -2.3713
 2670SOL    HW310727   3.610   2.471   4.181 -0.0596 -0.3968  1.0522
 2670SOL    MW410728   3.614   2.384   4.178  0.2975 -0.3431 -0.4835
 2671SOL     OW10729   1.071   1.841   4.636 -0.5601 -0.2564  0.1090
 2671SOL    HW210730   1.139   1.792   4.682 -0.1548  0.9245  0.7867
 2671SOL    HW310731   1.116   1.883   4.563 -0.3221  1.3226  1.1191
 2671SOL    MW410732   1.086   1.840   4.633 -0.4752  0.1078  0.3314
 2672SOL     OW10733   2.466   4.612   4.128  0.1611  0.1778 -0.1359
 2672SOL    HW210734   2.472   4.626   4.034  1.0075  0.8549  0.0099
 2672SOL    HW310735   2.538   4.664   4.165 -0.4513  0.2968  0.9224
 2672SOL    MW410736   2.477   4.621   4.121  0.1919  0.2832  0.0234
 2673SOL     OW10737   4.283   3.594   4.221 -0.0068  0.1730 -0.3954
 2673SOL    HW210738   4.287   3.680   4.180 -0.1326  0.3764  0.0189
 2673SOL    HW310739   4.319   3.608   4.309  2.0474 -0.6451 -1.0724
 2673SOL    MW410740   4.288   3.607   4.227  0.2480  0.0918 -0.4296
 2674SOL     OW10741   0.882   0.754   4.279  0.1010  0.0313  0.3430
 2674SOL    HW210742   0.824   0.700   4.224 -1.8874  0.8634  1.5469
 2674SOL    HW310743   0.832   0.835   4.293  0.8860  0.1351  2.7399
 2674SOL    MW410744   0.867   0.758   4.274 -0.0578  0.1547  0.8178
 2675SOL     OW10745   2.508   3.665   4.509 -0.1641  0.4087 -0.2780
 2675SOL    HW210746   2.482   3.575   4.530 -0.8779  0.5410 -0.5794
 2675SOL    HW310747   2.516   3.667   4.414  0.4935  0.4996 -0.2257
 2675SOL    MW410748   2.506   3.653   4.500 -0.1714  0.4382 -0.3114
 2676SOL     OW10749   2.252   0.976   4.430 -0.1614  0.0986  0.0036
 2676SOL    HW210750   2.186   0.992   4.497 -1.6021 -0.6439 -1.2121
 2676SOL    HW310751   2.329   0.946   4.479 -0.9840  0.1512  1.3617
 2676SOL    MW410752   2.253   0.974   4.446 -0.4599  0.0076  0.0224
 2677SOL     OW10753   2.931   0.478   4.273  0.2298 -0.4360  0.1202
 2677SOL    HW210754   2.923   0.563   4.229 -0.3139 -0.9267 -0.7502
 2677SOL    HW310755   3.018   0.447   4.248  0.9864  0.4816  1.5728
 2677SOL    MW410756   2.941   0.485   4.264  0.2577 -0.3797  0.1974
 2678SOL     OW10757   2.863   1.674   4.533  0.6247 -0.4099 -0.0442
 2678SOL    HW210758   2.958   1.670   4.544  0.6667 -0.6567 -0.4816
 2678SOL    HW310759   2.848   1.652   4.440  0.2462  1.1353 -0.3708
 2678SOL    MW410760   2.873   1.671   4.522  0.5805 -0.2388 -0.1450
 2679SOL     OW10761   1.073   1.463   4.651  0.1433  0.3917 -0.2664
 2679SOL    HW210762   1.136   1.506   4.709 -0.7062  1.0816  0.1653
 2679SOL    HW310763   1.005   1.529   4.637 -0.9489 -0.6454  0.0465
 2679SOL    MW410764   1.072   1.478   4.657 -0.1129  0.3458 -0.1678
 2680SOL     OW10765   0.280   1.904   4.497  0.3426 -0.1882 -0.0394
 2680SOL    HW210766   0.190   1.933   4.509  0.3736 -0.8411  2.1539
 2680SOL    HW310767   0.312   1.952   4.421 -1.4586  0.9696 -0.0831
 2680SOL    MW410768   0.272   1.914   4.489  0.1090 -0.1216  0.2446
 2681SOL     OW10769   0.039   1.910   4.116 -0.4570  0.1269 -0.1374
 2681SOL    HW210770   0.019   1.864   4.198  0.1062 -1.5605 -0.9039
 2681SOL    HW310771   0.132   1.891   4.102 -0.7283 -0.1800 -1.5178
 2681SOL    MW410772   0.049   1.901   4.125 -0.4185 -0.1363 -0.4210
 2682SOL     OW10773   2.475   0.470   4.223  0.2240  0.3535 -0.6775
 2682SOL    HW210774   2.417   0.426   4.161  0.4693 -0.2064 -0.5054
 2682SOL    HW310775   2.563   0.438   4.201  0.4794  1.2314 -0.9686
 2682SOL    MW410776   2.479   0.460   4.212  0.2902  0.3955 -0.6933
 2683SOL     OW10777   4.009   2.484   4.189  0.1522  0.1464  0.5936
 2683SOL    HW210778   4.041   2.570   4.163  0.4310  0.2397  1.2408
 2683SOL    HW310779   3.983   2.494   4.281  1.0945 -0.6957  0.9638
 2683SOL    MW410780   4.010   2.496   4.198  0.3133  0.0474  0.7277
 2684SOL     OW10781   3.624   4.276   4.119  0.0564  0.0479  0.3010
 2684SOL    HW210782   3.626   4.185   4.148 -0.3764 -0.2011 -0.4266
 2684SOL    HW310783   3.693   4.319   4.169  0.1595 -0.6447  0.7625
 2684SOL    MW410784   3.633   4.269   4.129  0.0131 -0.0758  0.2656
 2685SOL     OW10785   1.621   2.749   4.513  0.3278  0.1710  0.2420
 2685SOL    HW210786   1.715   2.753   4.493  1.2390 -0.5024  3.9185
 2685SOL    HW310787   1.606   2.658   4.538 -1.1060  0.4916  0.5699
 2685SOL    MW410788   1.632   2.738   4.514  0.2588  0.1242  0.7706
 2686SOL     OW10789   1.031   3.193   4.476  0.0688  0.2932  1.0575
 2686SOL    HW210790   1.033   3.101   4.501  0.7199  0.1200  0.3783
 2686SOL    HW310791   0.983   3.236   4.547 -0.2599 -0.5687  1.3622
 2686SOL    MW410792   1.025   3.187   4.489  0.1113  0.1564  1.0076
 2687SOL     OW10793   0.306   1.435   4.581  0.0221 -0.8737  0.2277
 2687SOL    HW210794   0.275   1.433   4.672 -0.3256 -0.1136  0.1256
 2687SOL    HW310795   0.347   1.520   4.570  0.2460 -1.0405 -0.2717
 2687SOL    MW410796   0.307   1.446   4.591  0.0058 -0.7956  0.1488
 2688SOL     OW10797   3.359   2.290   4.086 -0.3177  0.2177 -0.6042
 2688SOL    HW210798   3.366   2.308   3.993  2.8136 -3.0731 -1.0799
 2688SOL    HW310799   3.441   2.321   4.124  0.5787 -2.9832  0.2130
 2688SOL    MW410800   3.371   2.296   4.079  0.2136 -0.6387 -0.5589
 2689SOL     OW10801   3.419   1.520   4.176  0.1046 -0.1661  0.2766
 2689SOL    HW210802   3.485   1.578   4.214  0.6081 -0.0604 -0.7474
 2689SOL    HW310803   3.432   1.527   4.082 -1.6924  0.2216  0.0420
 2689SOL    MW410804   3.429   1.529   4.169 -0.0660 -0.1010  0.1106
 2690SOL     OW10805   3.140   1.122   4.139  0.1062  0.3625  0.0679
 2690SOL    HW210806   3.220   1.155   4.178 -0.0914 -0.0081  0.7861
 2690SOL    HW310807   3.134   1.031   4.169 -1.5444  0.9404  1.5295
 2690SOL    MW410808   3.150   1.114   4.148 -0.1373  0.3899  0.3557
 2691SOL     OW10809   3.174   3.452   4.120  0.2630  0.1970  0.2369
 2691SOL    HW210810   3.171   3.460   4.025  0.3199  0.4657  0.2585
 2691SOL    HW310811   3.104   3.510   4.151  0.4132  0.3056  0.3703
 2691SOL    MW410812   3.164   3.461   4.112  0.2904  0.2468  0.2575
 2692SOL     OW10813   2.654   2.689   4.201 -0.1852  0.4732  0.2853
 2692SOL    HW210814   2.663   2.695   4.106  0.2246  0.5692  0.3267
 2692SOL    HW310815   2.570   2.730   4.221  0.0277  1.0312  0.0244
 2692SOL    MW410816   2.644   2.695   4.191 -0.1030  0.5593  0.2565
 2693SOL     OW10817   0.652   0.379   4.468 -0.1676  0.2801 -0.5322
 2693SOL    HW210818   0.605   0.456   4.435 -0.4542  0.8995  1.2898
 2693SOL    HW310819   0.625   0.372   4.560  2.4860  0.0290  0.2535
 2693SOL    MW410820   0.642   0.389   4.476  0.1447  0.3287 -0.1884
 2694SOL     OW10821   0.923   2.683   3.906 -0.3237 -0.1142 -0.6230
 2694SOL    HW210822   1.005   2.708   3.863 -1.5017  0.7365 -2.4309
 2694SOL    HW310823   0.899   2.600   3.865 -1.0153  0.2736 -1.0032
 2694SOL    MW410824   0.931   2.675   3.895 -0.5704  0.0494 -0.9120
 2695SOL     OW10825   3.205   3.759   4.630  0.0067 -0.1487 -0.1111
 2695SOL    HW210826   3.243   3.735   4.715 -0.4228  0.4508  0.2507
 2695SOL    HW310827   3.263   3.717   4.566  1.8471  1.4943  0.3944
 2695SOL    MW410828   3.218   3.750   4.633  0.1931  0.1473  0.0033
 2696SOL     OW10829   2.392   2.248   4.150  0.1743 -0.4586  0.0509
 2696SOL    HW210830   2.387   2.230   4.056  0.3089 -0.9328  0.1313
 2696SOL    HW310831   2.471   2.302   4.160  0.7124 -1.2309  0.0115
 2696SOL    MW410832   2.402   2.253   4.139  0.2632 -0.6235  0.0563
 2697SOL     OW10833   4.354   3.638   4.490  0.0512 -0.3350  0.4590
 2697SOL    HW210834   4.433   3.596   4.524  0.9391  0.8184 -0.1510
 2697SOL    HW310835   4.282   3.599   4.541  1.1896  0.0222  2.3826
 2697SOL    MW410836   4.355   3.627   4.501  0.3190 -0.1359  0.6323
 2698SOL     OW10837   0.930   0.606   4.514 -0.4500  0.3598 -0.0274
 2698SOL    HW210838   0.969   0.520   4.494 -0.1832  0.2958  0.7500
 2698SOL    HW310839   0.911   0.644   4.428  3.1711  1.2554 -0.4997
 2698SOL    MW410840   0.933   0.599   4.500  0.0629  0.4694  0.0129
 2699SOL     OW10841   0.919   1.688   4.278  0.2688  0.2935  0.1345
 2699SOL    HW210842   0.832   1.659   4.248 -0.0299  1.3919 -0.1044
 2699SOL    HW310843   0.979   1.657   4.210  0.1544 -1.0762  0.6521
 2699SOL    MW410844   0.915   1.680   4.265  0.2143  0.2577  0.1712
 2700SOL     OW10845   0.943   3.171   4.205 -0.4901  0.4467  0.7316
 2700SOL    HW210846   0.970   3.179   4.297  0.6666  1.0419  0.3429
 2700SOL    HW310847   1.019   3.131   4.161 -0.1508  2.3044 -0.4109
 2700SOL    MW410848   0.957   3.167   4.211 -0.2928  0.7701  0.5293
 2701SOL     OW10849   3.781   4.602   4.780  0.4090 -0.2037  0.2248
 2701SOL    HW210850   3.711   4.666   4.793  1.8064  1.6524 -1.2010
 2701SOL    HW310851   3.839   4.614   4.855 -0.4345 -1.3146  1.0802
 2701SOL    MW410852   3.779   4.612   4.792  0.4821 -0.1059  0.1497
 2702SOL     OW10853   1.360   0.338   4.112 -0.1699  0.1463 -0.3880
 2702SOL    HW210854   1.279   0.382   4.137  0.9321  2.4511 -0.8312
 2702SOL    HW310855   1.352   0.251   4.153 -2.0699  0.9372  1.0474
 2702SOL    MW410856   1.348   0.332   4.121 -0.2753  0.5548 -0.2575
 2703SOL     OW10857   2.063   4.588   4.154 -0.5921  0.0033 -0.3780
 2703SOL    HW210858   2.046   4.505   4.198 -0.0516  0.2596  0.3203
 2703SOL    HW310859   1.989   4.644   4.179  0.3540  0.5618  1.2635
 2703SOL    MW410860   2.051   4.585   4.163 -0.3960  0.1106 -0.0691
 2704SOL     OW10861   0.578   0.317   4.741 -0.1659  0.2629  0.1594
 2704SOL    HW210862   0.653   0.258   4.752 -1.9446 -2.1261 -0.1460
 2704SOL    HW310863   0.616   0.405   4.743  2.6973 -0.9063 -0.3934
 2704SOL    MW410864   0.593   0.321   4.743 -0.0228 -0.2066  0.0467
 2705SOL     OW10865   2.906   4.634   4.186  0.0216  0.5360  0.1187
 2705SOL    HW210866   2.895   4.545   4.218  0.8100  0.6041  0.6128
 2705SOL    HW310867   2.835   4.683   4.227 -0.9710 -0.0529 -0.9030
 2705SOL    MW410868   2.895   4.629   4.196 -0.0055  0.4678  0.0491
 2706SOL     OW10869   0.251   3.865   4.111  0.4710 -0.1348 -0.2025
 2706SOL    HW210870   0.257   3.863   4.016  0.0120  0.4153 -0.2420
 2706SOL    HW310871   0.333   3.905   4.140 -0.4097  1.9241 -0.4796
 2706SOL    MW410872   0.263   3.870   4.103  0.2942  0.2093 -0.2441
 2707SOL     OW10873   0.265   0.639   4.730 -0.0882  0.3747  0.3215
 2707SOL    HW210874   0.209   0.660   4.656  0.6274 -0.6263 -0.5253
 2707SOL    HW310875   0.283   0.546   4.721  0.5538  0.3801  1.3871
 2707SOL    MW410876   0.260   0.630   4.719  0.0909  0.2433  0.3500
 2708SOL     OW10877   2.275   3.981   4.184  0.2868  0.2006 -0.1877
 2708SOL    HW210878   2.262   3.982   4.279 -0.2278 -0.9716 -0.2373
 2708SOL    HW310879   2.274   4.073   4.159 -0.5579  0.4757  0.8142
 2708SOL    MW410880   2.273   3.993   4.193  0.1073  0.0825 -0.0615
 2709SOL     OW10881   0.499   4.020   4.187 -0.0820  0.0013  0.0957
 2709SOL    HW210882   0.577   3.978   4.150 -0.3606 -0.1872 -0.2821
 2709SOL    HW310883   0.521   4.036   4.278 -0.3924 -2.0219  0.5504
 2709SOL    MW410884   0.512   4.017   4.194 -0.1598 -0.2899  0.1054
 2710SOL     OW10885   0.883   2.897   4.645  0.3382  0.3680  0.3849
 2710SOL    HW210886   0.879   2.954   4.722 -0.2629  0.5311  0.2396
 2710SOL    HW310887   0.795   2.901   4.608  0.7212  0.5669 -0.5130
 2710SOL    MW410888   0.871   2.905   4.651  0.3095  0.4160  0.2475
 2711SOL     OW10889   0.828   1.057   4.946 -0.3676  0.2813  0.2330
 2711SOL    HW210890   0.853   1.126   4.885 -1.2076  0.0490 -0.3766
 2711SOL    HW310891   0.757   1.094   4.998  0.5083  0.5687  1.2542
 2711SOL    MW410892   0.822   1.071   4.945 -0.3629  0.2885  0.2871
 2712SOL     OW10893   3.146   2.665   3.930 -0.1586  0.5152  0.1122
 2712SOL    HW210894   3.086   2.723   3.883  0.0283  0.5931 -0.0322
 2712SOL    HW310895   3.112   2.664   4.020 -0.7304  0.0688 -0.1053
 2712SOL    MW410896   3.134   2.673   3.936 -0.2093  0.4666  0.0644
 2713SOL     OW10897   2.873   0.225   4.579 -0.4552  0.1268 -0.0906
 2713SOL    HW210898   2.943   0.192   4.635 -0.3904  0.8887  0.2739
 2713SOL    HW310899   2.899   0.315   4.558  0.4789 -0.7240 -2.8804
 2713SOL    MW410900   2.886   0.232   4.584 -0.3235  0.1150 -0.4106
 2714SOL     OW10901   2.939   4.161   4.552 -0.0493  0.5300 -0.5671
 2714SOL    HW210902   2.931   4.255   4.540  0.5196  0.4969 -1.3045
 2714SOL    HW310903   2.852   4.126   4.532 -0.2910  0.9107 -0.1729
 2714SOL    MW410904   2.927   4.169   4.547 -0.0062  0.5760 -0.6123
 2715SOL     OW10905   3.946   0.781   4.309  0.0605  0.0263 -0.3334
 2715SOL    HW210906   3.913   0.839   4.240 -1.0036 -0.3283 -0.1281
 2715SOL    HW310907   3.882   0.789   4.380 -0.3393 -1.7163 -0.4726
 2715SOL    MW410908   3.933   0.790   4.309 -0.1323 -0.2504 -0.3247
 2716SOL     OW10909   0.015   1.125   3.932  0.0414 -0.0158 -0.5634
 2716SOL    HW210910  -0.068   1.148   3.890  0.4210  0.2650 -1.1744
 2716SOL    HW310911   0.079   1.183   3.892  0.3100  0.6886  0.8741
 2716SOL    MW410912   0.012   1.135   3.921  0.1269  0.1141 -0.4542
 2717SOL     OW10913   2.262   3.226   4.181  0.0710  0.2178  0.3163
 2717SOL    HW210914   2.186   3.170   4.167  0.2484  0.2614 -0.8269
 2717SOL    HW310915   2.257   3.250   4.273 -2.0992  1.4259 -0.1042
 2717SOL    MW410916   2.252   3.221   4.191 -0.1919  0.3829  0.1101
 2718SOL     OW10917   0.551   1.918   4.613  0.2398  0.1229  0.1930
 2718SOL    HW210918   0.577   1.831   4.645  0.5681  0.1452 -0.0189
 2718SOL    HW310919   0.456   1.912   4.605  0.2377 -0.1510  0.3797
 2718SOL    MW410920   0.542   1.906   4.616  0.2828  0.0896  0.1898
 2719SOL     OW10921   3.793   3.618   4.281 -0.1161  0.0838  0.3858
 2719SOL    HW210922   3.807   3.688   4.217 -2.3020 -0.2107 -0.4722
 2719SOL    HW310923   3.759   3.663   4.359 -4.1001 -0.1660 -1.0553
 2719SOL    MW410924   3.790   3.633   4.283 -0.9303  0.0117  0.0820
 2720SOL     OW10925   4.162   3.512   4.641  0.0284  0.2814  0.0521
 2720SOL    HW210926   4.116   3.434   4.609  0.5585  1.1147 -2.8768
 2720SOL    HW310927   4.097   3.581   4.638  0.0444  0.3318  0.9304
 2720SOL    MW410928   4.148   3.511   4.636  0.1006  0.3979 -0.2184
 2721SOL     OW10929   2.704   3.530   4.138  0.2687  0.0570  0.2991
 2721SOL    HW210930   2.786   3.559   4.178  0.0731 -1.0489  1.5192
 2721SOL    HW310931   2.636   3.576   4.187  0.0403 -1.0749  1.0384
 2721SOL    MW410932   2.706   3.540   4.150  0.2127 -0.2382  0.5579
 2722SOL     OW10933   0.661   4.624   3.875 -0.5142 -0.2857  0.2505
 2722SOL    HW210934   0.656   4.533   3.847  0.6246 -0.4009  0.3644
 2722SOL    HW310935   0.641   4.621   3.969 -0.5906 -0.4082  0.2308
 2722SOL    MW410936   0.658   4.611   3.884 -0.3740 -0.3171  0.2630
 2723SOL     OW10937   1.314   1.140   4.138 -0.4030  0.5152 -0.0981
 2723SOL    HW210938   1.401   1.178   4.147 -0.4391  0.7398 -0.6560
 2723SOL    HW310939   1.304   1.124   4.044 -0.6542 -0.2441  0.0524
 2723SOL    MW410940   1.324   1.143   4.127 -0.4410  0.4448 -0.1526
 2724SOL     OW10941   0.839   1.190   4.154  0.1885  0.0048 -0.2140
 2724SOL    HW210942   0.773   1.256   4.174  0.6452  0.4144 -0.0533
 2724SOL    HW310943   0.923   1.233   4.172  0.4693 -0.8029  0.4737
 2724SOL    MW410944   0.842   1.204   4.159  0.2858 -0.0477 -0.1020
 2725SOL     OW10945   3.114   4.305   4.156  0.0514  0.0285 -0.1881
 2725SOL    HW210946   3.131   4.215   4.185 -0.9362 -1.0339 -2.7514
 2725SOL    HW310947   3.199   4.348   4.163  0.6327 -1.2064  0.6540
 2725SOL    MW410948   3.127   4.298   4.161 -0.0021 -0.2747 -0.4148
 2726SOL     OW10949   0.890   1.155   3.873  0.0916  0.6449 -0.2025
 2726SOL    HW210950   0.963   1.205   3.837 -0.4126  2.2102  0.8669
 2726SOL    HW310951   0.900   1.164   3.968 -0.1339 -1.1369  0.0100
 2726SOL    MW410952   0.901   1.163   3.881 -0.0047  0.6162 -0.0334
 2727SOL     OW10953   0.443   3.096   4.510  0.3700 -0.0954  0.3312
 2727SOL    HW210954   0.458   3.129   4.421 -0.0416  0.6070  0.5183
 2727SOL    HW310955   0.350   3.072   4.511  0.1250  0.8448  0.8709
 2727SOL    MW410956   0.433   3.097   4.498  0.2834  0.1211  0.4272
 2728SOL     OW10957   1.781   2.419   3.746  0.6079  0.0960  0.4095
 2728SOL    HW210958   1.785   2.424   3.650 -0.1488  0.7336  0.4070
 2728SOL    HW310959   1.797   2.509   3.775  0.3560 -0.0035  0.8634
 2728SOL    MW410960   1.784   2.431   3.737  0.4748  0.1669  0.4690
 2729SOL     OW10961   3.914   2.483   4.480 -0.3677 -0.2513  0.1547
 2729SOL    HW210962   3.909   2.578   4.492 -0.3222 -0.2444  0.1182
 2729SOL    HW310963   3.824   2.456   4.463 -0.1246  0.0307 -1.6886
 2729SOL    MW410964   3.902   2.492   4.480 -0.3295 -0.2131 -0.0930
 2730SOL     OW10965   0.944   2.403   4.543 -0.2339  0.1659 -0.2677
 2730SOL    HW210966   0.862   2.379   4.585 -1.2951  0.9615 -1.8534
 2730SOL    HW310967   1.010   2.346   4.583 -1.5063 -0.2640  1.2196
 2730SOL    MW410968   0.942   2.392   4.554 -0.5417  0.2143 -0.2804
 2731SOL     OW10969   1.488   3.723   4.517 -0.1666  0.8087  0.1616
 2731SOL    HW210970   1.498   3.801   4.463 -0.1193  0.5950 -0.1377
 2731SOL    HW310971   1.533   3.744   4.599 -1.1117  1.5148  0.5114
 2731SOL    MW410972   1.495   3.736   4.521 -0.2850  0.8736  0.1683
 2732SOL     OW10973   2.975   1.476   4.163 -0.4967  0.2387  0.1789
 2732SOL    HW210974   3.052   1.520   4.199  0.4427  0.5211 -2.0619
 2732SOL    HW310975   2.971   1.393   4.209  1.2588  0.1582  0.2371
 2732SOL    MW410976   2.985   1.471   4.174 -0.1409  0.2654 -0.1097
 2733SOL     OW10977   1.086   4.644   4.173  0.6603  0.1040  0.1710
 2733SOL    HW210978   0.996   4.677   4.174  0.9351  0.8663  1.6575
 2733SOL    HW310979   1.085   4.570   4.235  0.9430 -0.1825 -0.1681
 2733SOL    MW410980   1.074   4.638   4.182  0.7339  0.1664  0.3223
 2734SOL     OW10981   2.707   0.827   4.516  0.0586 -0.4571 -0.0975
 2734SOL    HW210982   2.796   0.853   4.540 -0.1000 -0.6623  0.7425
 2734SOL    HW310983   2.699   0.736   4.547 -0.1771 -0.7030 -0.8760
 2734SOL    MW410984   2.717   0.818   4.523  0.0062 -0.5167 -0.0896
 2735SOL     OW10985   0.927   3.961   3.731 -0.4701 -0.3848 -0.2531
 2735SOL    HW210986   0.994   3.924   3.788 -1.1894 -0.3256  0.6377
 2735SOL    HW310987   0.932   4.056   3.746  0.7517 -0.1891 -1.8490
 2735SOL    MW410988   0.936   3.969   3.741 -0.4038 -0.3512 -0.3459
 2736SOL     OW10989   4.155   2.952   4.607  0.5193  0.1218 -0.2106
 2736SOL    HW210990   4.196   3.006   4.674  0.4612  0.6988 -0.6345
 2736SOL    HW310991   4.228   2.919   4.555  0.4862  0.7846 -0.6906
 2736SOL    MW410992   4.170   2.955   4.609  0.5074  0.2856 -0.3295
 2737SOL     OW10993   0.700   3.648   4.453  0.2839  0.1080  0.6316
 2737SOL    HW210994   0.708   3.738   4.484 -0.0112  0.6374 -0.7932
 2737SOL    HW310995   0.630   3.610   4.507 -0.1243  0.9630  0.7047
 2737SOL    MW410996   0.692   3.655   4.464  0.1912  0.2906  0.4525
 2738SOL     OW10997   2.031   2.275   4.164 -0.2040  0.1944 -0.2887
 2738SOL    HW210998   2.108   2.324   4.193  0.7137 -1.8119  0.8454
 2738SOL    HW310999   1.959   2.310   4.216  0.3216  0.7540  0.0631
 2738SOL    MW411000   2.031   2.286   4.175 -0.0134  0.0036 -0.0925
 2739SOL     OW11001   0.529   0.605   4.347  0.7392  0.6849 -0.3887
 2739SOL    HW211002   0.550   0.696   4.330 -0.9145  1.0364 -0.6042
 2739SOL    HW311003   0.434   0.599   4.337  0.6243 -0.7093  1.2549
 2739SOL    MW411004   0.520   0.616   4.344  0.5059  0.5473 -0.2003
 2740SOL     OW11005   2.250   0.074   4.270  0.1668 -0.7353  0.2569
 2740SOL    HW211006   2.171   0.039   4.229 -0.3529  1.6085 -0.8114
 2740SOL    HW311007   2.322   0.025   4.230 -0.4567  0.2587 -2.1797
 2740SOL    MW411008   2.249   0.063   4.259  0.0157 -0.2949 -0.2060
 2741SOL     OW11009   0.888   3.441   4.118 -0.3210 -0.3962  0.1471
 2741SOL    HW211010   0.907   3.445   4.024  0.2975  0.1092  0.2877
 2741SOL    HW311011   0.911   3.351   4.143  0.0640 -0.3559 -0.0669
 2741SOL    MW411012   0.894   3.429   4.109 -0.1886 -0.3240  0.1373
 2742SOL     OW11013   3.604   0.121   4.218 -0.3697 -0.0956  0.5923
 2742SOL    HW211014   3.581   0.095   4.307  0.9701 -0.7480  0.7658
 2742SOL    HW311015   3.685   0.073   4.199 -0.5126  0.2194 -0.8858
 2742SOL    MW411016   3.612   0.111   4.227 -0.2117 -0.1401  0.4201
 2743SOL     OW11017   0.037   0.258   4.771 -0.4612 -0.3189 -0.2588
 2743SOL    HW211018   0.053   0.165   4.755 -1.7807 -0.4150 -1.0849
 2743SOL    HW311019   0.123   0.295   4.788  0.0676 -1.7024  0.1180
 2743SOL    MW411020   0.050   0.251   4.771 -0.5655 -0.5141 -0.3181
 2744SOL     OW11021   3.167   1.641   4.242 -0.2750  0.0786  0.5578
 2744SOL    HW211022   3.168   1.642   4.337 -1.3386 -1.6021  0.6194
 2744SOL    HW311023   3.252   1.605   4.217 -0.3641 -0.3671  0.8980
 2744SOL    MW411024   3.178   1.636   4.251 -0.4270 -0.2019  0.6108
 2745SOL     OW11025   1.338   0.887   4.232 -0.1242 -0.0279  0.2211
 2745SOL    HW211026   1.264   0.834   4.202 -0.2355  0.0393  0.3794
 2745SOL    HW311027   1.320   0.975   4.199  0.4291 -0.2459 -0.6766
 2745SOL    MW411028   1.326   0.892   4.224 -0.0659 -0.0477  0.1235
 2746SOL     OW11029   0.742   3.926   4.581 -0.1074  0.1525  0.5075
 2746SOL    HW211030   0.810   3.968   4.529 -0.0290  0.1403  0.6020
 2746SOL    HW311031   0.666   3.985   4.573 -0.0032  0.3023  0.6259
 2746SOL    MW411032   0.741   3.939   4.573 -0.0833  0.1707  0.5360
 2747SOL     OW11033   1.760   3.244   4.545  0.0815 -0.1170  0.2478
 2747SOL    HW211034   1.720   3.184   4.609  1.5518 -0.0775  1.2414
 2747SOL    HW311035   1.773   3.191   4.467  0.9024 -0.9704  0.9515
 2747SOL    MW411036   1.756   3.229   4.543  0.3839 -0.2244  0.4711
 2748SOL     OW11037   2.024   2.001   4.185 -0.2659 -0.1696 -0.7430
 2748SOL    HW211038   2.027   2.096   4.194 -2.4297 -0.0148 -1.3953
 2748SOL    HW311039   2.032   1.968   4.275 -1.0313  0.6816 -0.3596
 2748SOL    MW411040   2.025   2.009   4.198 -0.6523 -0.0370 -0.7787
 2749SOL     OW11041   3.859   2.837   4.225 -0.0656 -0.0487  0.1028
 2749SOL    HW211042   3.885   2.838   4.317 -0.4429  0.6972  0.2055
 2749SOL    HW311043   3.830   2.926   4.207  0.1595 -0.1475 -0.7877
 2749SOL    MW411044   3.858   2.849   4.235 -0.0858  0.0367 -0.0019
 2750SOL     OW11045   3.758   0.173   4.605 -0.1331  0.0157 -0.2045
 2750SOL    HW211046   3.829   0.114   4.629 -0.8143 -0.6405  0.1868
 2750SOL    HW311047   3.691   0.117   4.567 -0.1868  0.7127 -1.1771
 2750SOL    MW411048   3.758   0.158   4.603 -0.2301  0.0211 -0.2813
 2751SOL     OW11049   1.365   3.030   4.708 -0.4050  0.2002  0.0685
 2751SOL    HW211050   1.292   3.061   4.761  0.4387  0.4222  1.1139
 2751SOL    HW311051   1.354   2.935   4.704  0.0335  0.0914  1.4030
 2751SOL    MW411052   1.354   3.021   4.714 -0.2358  0.2151  0.3824
 2752SOL     OW11053   0.263   1.540   3.850 -0.0720 -0.3633 -0.5217
 2752SOL    HW211054   0.252   1.501   3.936  0.2045 -0.8558 -0.7128
 2752SOL    HW311055   0.174   1.563   3.823 -0.1079  0.3152  0.1343
 2752SOL    MW411056   0.250   1.538   3.858 -0.0403 -0.3388 -0.4604
 2753SOL     OW11057   0.019   4.179   4.553  0.2904 -0.1715 -0.4518
 2753SOL    HW211058  -0.053   4.241   4.544 -0.5518 -0.6807  2.1873
 2753SOL    HW311059  -0.024   4.093   4.557  1.0141 -0.4956  0.9559
 2753SOL    MW411060   0.004   4.176   4.553  0.2747 -0.2809  0.0815
 2754SOL     OW11061   3.348   0.485   4.271  0.1804 -0.5407 -0.1372
 2754SOL    HW211062   3.286   0.419   4.241  0.5095 -0.3136 -1.3357
 2754SOL    HW311063   3.432   0.459   4.234  0.7198 -0.5843  1.0913
 2754SOL    MW411064   3.351   0.473   4.262  0.2949 -0.5165 -0.1330
 2755SOL     OW11065   1.526   2.010   4.198 -0.1015  0.8295 -0.3300
 2755SOL    HW211066   1.604   1.971   4.158  0.5635  1.0449  0.7501
 2755SOL    HW311067   1.529   1.984   4.290 -2.5187 -1.0624 -0.7138
 2755SOL    MW411068   1.536   2.002   4.205 -0.3328  0.6082 -0.2379
 2756SOL     OW11069   2.301   3.012   4.638 -0.1090  0.1100  0.1160
 2756SOL    HW211070   2.272   3.080   4.577 -0.8590 -1.1452 -0.9364
 2756SOL    HW311071   2.246   3.024   4.715  0.1029  1.0101  0.1350
 2756SOL    MW411072   2.290   3.023   4.640 -0.1800  0.0629 -0.0200
 2757SOL     OW11073   3.619   4.275   3.851 -0.4229 -0.5732  0.3432
 2757SOL    HW211074   3.691   4.326   3.814 -0.1505 -0.8561  0.4836
 2757SOL    HW311075   3.630   4.284   3.945 -0.5615 -0.6329  0.3641
 2757SOL    MW411076   3.630   4.283   3.858 -0.4053 -0.6189  0.3643
 2758SOL     OW11077   2.278   1.644   4.184  0.3027  0.2017 -0.4056
 2758SOL    HW211078   2.276   1.732   4.146  1.0626  0.0218 -0.8625
 2758SOL    HW311079   2.209   1.596   4.139  0.5023  0.2968 -0.8116
 2758SOL    MW411080   2.269   1.649   4.173  0.4294  0.1905 -0.5193
 2759SOL     OW11081   0.918   4.357   4.507 -0.5651  0.1284 -0.8112
 2759SOL    HW211082   0.919   4.262   4.506 -0.4191  0.0691  1.4512
 2759SOL    HW311083   0.826   4.380   4.523 -0.3310  0.2977  0.3792
 2759SOL    MW411084   0.906   4.348   4.509 -0.5150  0.1431 -0.3552
 2760SOL     OW11085   0.131   0.984   4.492  0.4056  0.6609  0.6563
 2760SOL    HW211086   0.212   1.020   4.527  1.1507  0.5019 -0.8923
 2760SOL    HW311087   0.080   1.060   4.465  0.8525  0.6714 -0.1540
 2760SOL    MW411088   0.135   0.999   4.493  0.5628  0.6413  0.3452
 2761SOL     OW11089   1.558   2.001   3.783  0.0960  0.0121 -0.2000
 2761SOL    HW211090   1.646   1.977   3.811  1.1437  2.5724 -1.1382
 2761SOL    HW311091   1.564   2.009   3.688 -0.8830  1.1081 -0.1874
 2761SOL    MW411092   1.570   1.999   3.774  0.1050  0.4945 -0.3219
 2762SOL     OW11093   0.639   1.372   4.770  0.1128 -0.1644  0.1624
 2762SOL    HW211094   0.731   1.365   4.799 -0.1765 -1.2827  0.8594
 2762SOL    HW311095   0.635   1.316   4.692 -0.2533 -1.0795  0.8339
 2762SOL    MW411096   0.651   1.364   4.763  0.0263 -0.4327  0.3428
 2763SOL     OW11097   0.618   1.645   4.660 -0.3480  0.6227  0.2633
 2763SOL    HW211098   0.628   1.560   4.702 -1.8489 -0.4016 -1.3983
 2763SOL    HW311099   0.701   1.661   4.615 -0.3061 -0.2854  0.0125
 2763SOL    MW411100   0.630   1.636   4.660 -0.5405  0.3678  0.0110
 2764SOL     OW11101   1.333   3.205   4.196  0.4479 -0.2547  0.7321
 2764SOL    HW211102   1.332   3.180   4.288  1.2035  0.6748  1.0015
 2764SOL    HW311103   1.421   3.180   4.165 -0.4300 -2.2603 -0.2247
 2764SOL    MW411104   1.345   3.199   4.204  0.4318 -0.3965  0.6413
 2765SOL     OW11105   1.804   3.452   4.118 -0.0261 -0.6044  0.2063
 2765SOL    HW211106   1.727   3.493   4.155  0.9657 -0.0154  1.6600
 2765SOL    HW311107   1.783   3.439   4.026 -0.7128  2.3117 -0.0838
 2765SOL    MW411108   1.791   3.455   4.111  0.0141 -0.1419  0.3600
 2766SOL     OW11109   1.638   4.437   4.538 -0.2575  0.2362  0.4753
 2766SOL    HW211110   1.711   4.387   4.574  0.1463 -0.6508 -1.4951
 2766SOL    HW311111   1.624   4.400   4.451 -1.9960  1.4911  0.1812
 2766SOL    MW411112   1.646   4.425   4.532 -0.4337  0.2842  0.1764
 2767SOL     OW11113   2.270   1.908   4.106  0.1737 -0.5088 -0.1425
 2767SOL    HW211114   2.189   1.957   4.120  0.9127  0.7889 -0.2812
 2767SOL    HW311115   2.328   1.937   4.177  1.6647  1.1399 -1.9513
 2767SOL    MW411116   2.267   1.919   4.117  0.4680 -0.1199 -0.3991
 2768SOL     OW11117   0.867   0.823   4.818 -0.1445  0.0711 -0.0415
 2768SOL    HW211118   0.887   0.903   4.867 -0.0168  0.4029 -0.6334
 2768SOL    HW311119   0.946   0.805   4.768 -0.4377 -0.0131 -0.4761
 2768SOL    MW411120   0.880   0.831   4.818 -0.1663  0.1038 -0.1769
 2769SOL     OW11121   2.929   3.380   4.465 -0.3662 -0.0887 -0.0905
 2769SOL    HW211122   2.849   3.332   4.489 -0.1319 -0.2593  0.3598
 2769SOL    HW311123   3.000   3.325   4.499  0.0334 -0.9735 -2.3087
 2769SOL    MW411124   2.928   3.366   4.473 -0.2825 -0.2279 -0.3233
 2770SOL     OW11125   4.289   0.788   3.867 -0.0173 -0.1968  0.0173
 2770SOL    HW211126   4.201   0.822   3.849 -0.0513 -0.2330  0.1124
 2770SOL    HW311127   4.288   0.699   3.832  0.2010  0.0375 -0.5955
 2770SOL    MW411128   4.277   0.781   3.860  0.0067 -0.1706 -0.0508
 2771SOL     OW11129   2.685   1.905   4.154  0.0112 -0.2116  0.0107
 2771SOL    HW211130   2.693   1.910   4.059 -1.7046 -1.2553 -0.2187
 2771SOL    HW311131   2.691   1.811   4.173 -0.7598 -0.1081  0.8021
 2771SOL    MW411132   2.686   1.893   4.144 -0.3166 -0.3358  0.0844
 2772SOL     OW11133   3.390   3.888   4.145  0.2035  0.1102  0.1143
 2772SOL    HW211134   3.372   3.795   4.159  3.3966 -0.5920 -0.0745
 2772SOL    HW311135   3.396   3.897   4.050  1.2582  0.1826  0.1739
 2772SOL    MW411136   3.389   3.877   4.135  0.7639  0.0272  0.0973
 2773SOL     OW11137   4.015   4.023   3.815  0.1180 -0.1211  0.7468
 2773SOL    HW211138   4.036   4.110   3.848 -0.7189  0.9398 -1.4061
 2773SOL    HW311139   4.012   4.033   3.719 -1.3213 -2.2025  0.5273
 2773SOL    MW411140   4.018   4.036   3.806 -0.1826 -0.2561  0.4342
 2774SOL     OW11141   0.875   1.656   4.563 -0.1266 -0.1633  0.2289
 2774SOL    HW211142   0.932   1.725   4.596 -0.8558  0.8845 -0.6895
 2774SOL    HW311143   0.887   1.658   4.468 -0.9265 -0.6108  0.1125
 2774SOL    MW411144   0.884   1.665   4.555 -0.3284 -0.0842  0.0925
 2775SOL     OW11145   0.672   1.596   4.165  0.2826  0.0844  0.1961
 2775SOL    HW211146   0.684   1.565   4.075 -1.2652  0.4336 -0.1409
 2775SOL    HW311147   0.661   1.516   4.217  1.2244 -0.1190  0.0833
 2775SOL    MW411148   0.672   1.582   4.160  0.2027  0.1036  0.1364
 2776SOL     OW11149   3.955   1.035   4.614  0.2864  0.0993  0.2422
 2776SOL    HW211150   3.917   1.117   4.645  0.2301  0.2512 -0.2214
 2776SOL    HW311151   4.048   1.041   4.637 -0.0835 -0.5717  1.9993
 2776SOL    MW411152   3.962   1.046   4.621  0.2301  0.0308  0.4129
 2777SOL     OW11153   0.631   1.344   4.258  0.5608  0.0448 -0.4526
 2777SOL    HW211154   0.565   1.298   4.206 -0.0152  1.3830 -0.9219
 2777SOL    HW311155   0.630   1.298   4.342 -0.1880 -0.6411 -0.8176
 2777SOL    MW411156   0.622   1.332   4.262  0.3861  0.1308 -0.5627
 2778SOL     OW11157   0.678   2.364   4.659  0.1268  0.4016  0.3823
 2778SOL    HW211158   0.650   2.404   4.741 -0.6114  1.6925 -0.4993
 2778SOL    HW311159   0.608   2.384   4.597 -0.0502 -1.8513 -0.2037
 2778SOL    MW411160   0.665   2.372   4.662  0.0060  0.2747  0.1884
 2779SOL     OW11161   3.177   3.237   4.522  0.7278 -0.5082 -0.0238
 2779SOL    HW211162   3.161   3.148   4.554  1.4833 -1.4329 -2.1753
 2779SOL    HW311163   3.271   3.250   4.535  0.3440  0.6352  1.8461
 2779SOL    MW411164   3.187   3.227   4.528  0.7770 -0.4795 -0.0610
 2780SOL     OW11165   2.293   3.767   4.662  0.2624  0.1548  0.4504
 2780SOL    HW211166   2.357   3.752   4.592  0.0775 -1.9687  0.6882
 2780SOL    HW311167   2.335   3.831   4.719  1.8483 -0.5711  0.1540
 2780SOL    MW411168   2.307   3.773   4.660  0.4473 -0.2213  0.4430
 2781SOL     OW11169   2.058   4.344   4.274  0.2853 -0.0408 -0.2433
 2781SOL    HW211170   1.994   4.310   4.212  0.2816 -0.9708  0.2594
 2781SOL    HW311171   2.143   4.322   4.235  0.2813 -0.7765  0.1650
 2781SOL    MW411172   2.060   4.337   4.261  0.2840 -0.2608 -0.1230
 2782SOL     OW11173   2.868   0.718   4.160 -0.3001  0.2963  0.4931
 2782SOL    HW211174   2.787   0.766   4.177 -1.1004 -0.1921 -1.7208
 2782SOL    HW311175   2.896   0.748   4.073  3.2558  2.2823  2.2108
 2782SOL    MW411176   2.861   0.728   4.151  0.0637  0.4938  0.4282
 2783SOL     OW11177   1.359   4.442   4.521 -0.1928  0.1064 -0.2308
 2783SOL    HW211178   1.338   4.358   4.562 -0.0732  0.2882  0.2102
 2783SOL    HW311179   1.454   4.449   4.532 -0.3219  0.7299  0.5721
 2783SOL    MW411180   1.369   4.432   4.528 -0.1941  0.2127 -0.0668
 2784SOL     OW11181   3.848   0.012   4.166  0.2500  0.2382 -0.0412
 2784SOL    HW211182   3.921   0.066   4.194 -1.1072  1.9824  0.2232
 2784SOL    HW311183   3.848   0.018   4.071  1.0047 -0.4965 -0.0824
 2784SOL    MW411184   3.857   0.020   4.157  0.1707  0.3714 -0.0119
 2785SOL     OW11185   1.572   4.567   4.153  0.1634 -0.2627  0.1067
 2785SOL    HW211186   1.573   4.490   4.210  0.8505 -0.5811 -0.3201
 2785SOL    HW311187   1.663   4.596   4.151  0.2160 -0.4538 -1.0719
 2785SOL    MW411188   1.584   4.560   4.160  0.2611 -0.3300 -0.1049
 2786SOL     OW11189   3.387   1.181   4.524  0.0508 -0.0618 -0.0215
 2786SOL    HW211190   3.376   1.210   4.433  0.1834  1.5593  0.4611
 2786SOL    HW311191   3.385   1.086   4.519 -0.8217  0.0197 -1.6201
 2786SOL    MW411192   3.386   1.172   4.511 -0.0465  0.1630 -0.1683
 2787SOL     OW11193   1.567   2.284   4.119 -0.1020 -0.2355 -0.1293
 2787SOL    HW211194   1.571   2.193   4.151 -1.0534 -0.0991  0.3931
 2787SOL    HW311195   1.557   2.275   4.024  0.7050 -0.6653 -0.1788
 2787SOL    MW411196   1.566   2.271   4.111 -0.1211 -0.2739 -0.0668
 2788SOL     OW11197   0.847   0.349   4.147  0.3405  0.3489  0.3216
 2788SOL    HW211198   0.937   0.382   4.151  0.2277  0.6663  0.2383
 2788SOL    HW311199   0.792   0.426   4.158  0.0531  0.4749 -1.7864
 2788SOL    MW411200   0.852   0.363   4.149  0.2877  0.4074  0.0324
 2789SOL     OW11201   4.044   4.221   4.139  0.4570 -0.1594 -0.3482
 2789SOL    HW211202   4.071   4.243   4.050  0.4549 -0.3715 -0.4016
 2789SOL    HW311203   3.969   4.278   4.156  1.0877  0.6122 -0.1066
 2789SOL    MW411204   4.037   4.232   4.129  0.5403 -0.0858 -0.3228
 2790SOL     OW11205   0.130   0.337   4.109  0.0522  0.1291 -0.1811
 2790SOL    HW211206   0.064   0.310   4.172 -0.4517 -0.0420 -0.7692
 2790SOL    HW311207   0.178   0.407   4.152 -1.2900  1.0758 -0.1794
 2790SOL    MW411208   0.128   0.343   4.123 -0.1914  0.2314 -0.2589
 2791SOL     OW11209   4.418   0.790   4.118 -0.3840  0.3735 -0.7376
 2791SOL    HW211210   4.373   0.785   4.034  0.9079  0.8958 -1.4632
 2791SOL    HW311211   4.362   0.739   4.177 -1.8663  0.9132 -1.6351
 2791SOL    MW411212   4.405   0.782   4.115 -0.4091  0.5136 -0.9518
 2792SOL     OW11213   1.801   0.336   4.150 -0.0259  0.5393 -0.2097
 2792SOL    HW211214   1.735   0.396   4.184 -0.3525 -0.1773  0.4345
 2792SOL    HW311215   1.884   0.373   4.180 -0.1041  1.5089 -1.1234
 2792SOL    MW411216   1.804   0.349   4.158 -0.0793  0.5727 -0.2451
 2793SOL     OW11217   3.758   0.854   4.502 -0.2143  0.3392 -0.1808
 2793SOL    HW211218   3.826   0.902   4.549 -1.8668  1.2659  1.3079
 2793SOL    HW311219   3.726   0.789   4.565 -1.1717  0.3524 -0.6448
 2793SOL    MW411220   3.763   0.852   4.516 -0.5589  0.4631 -0.0458
 2794SOL     OW11221   3.851   1.270   4.704  0.0920  0.3313  0.2084
 2794SOL    HW211222   3.824   1.228   4.786  0.8808 -1.5486 -0.4712
 2794SOL    HW311223   3.770   1.276   4.652  0.2266 -1.7042 -0.2651
 2794SOL    MW411224   3.837   1.265   4.708  0.2136 -0.1854  0.0563
 2795SOL     OW11225   2.491   3.067   4.154 -0.0541  0.1127 -0.0133
 2795SOL    HW211226   2.410   3.117   4.162 -0.7204 -0.7141 -1.3890
 2795SOL    HW311227   2.560   3.127   4.183 -0.9975  1.3185 -0.2567
 2795SOL    MW411228   2.490   3.081   4.159 -0.2666  0.1626 -0.2265
 2796SOL     OW11229   2.456   4.420   4.481 -0.4010 -0.1188 -0.0421
 2796SOL    HW211230   2.535   4.467   4.507  0.0140 -0.5975 -0.4139
 2796SOL    HW311231   2.384   4.481   4.498  0.0986  0.5192 -0.2067
 2796SOL    MW411232   2.457   4.434   4.487 -0.2801 -0.0978 -0.1130
 2797SOL     OW11233   0.046   1.410   4.267  0.2515 -0.3472  0.2655
 2797SOL    HW211234   0.115   1.442   4.210  0.5979 -0.3278  0.6960
 2797SOL    HW311235  -0.033   1.411   4.212  0.3822  0.6280  0.0874
 2797SOL    MW411236   0.045   1.414   4.252  0.3145 -0.2160  0.2985
 2798SOL     OW11237   2.827   1.971   4.537  0.4720  0.5588  0.2083
 2798SOL    HW211238   2.831   1.886   4.581  2.1722  1.5677  2.0869
 2798SOL    HW311239   2.736   1.999   4.547 -0.0687 -0.9912 -0.3284
 2798SOL    MW411240   2.815   1.964   4.544  0.6249  0.4874  0.3853
 2799SOL     OW11241   4.413   0.904   4.688  0.2560  0.6470 -0.4750
 2799SOL    HW211242   4.343   0.968   4.695  0.1485  0.5919 -1.0308
 2799SOL    HW311243   4.470   0.937   4.618  0.4450  0.3721 -0.4533
 2799SOL    MW411244   4.412   0.917   4.679  0.2666  0.6034 -0.5455
 2800SOL     OW11245   0.150   0.701   4.496  0.0559  0.0590  0.6161
 2800SOL    HW211246   0.162   0.795   4.484  0.5542  0.0797  1.2500
 2800SOL    HW311247   0.055   0.690   4.504 -0.0304  0.4633  0.1836
 2800SOL    MW411248   0.139   0.712   4.495  0.1103  0.1151  0.6428
 2801SOL     OW11249   2.068   3.612   4.652 -0.0310  0.1590 -0.4569
 2801SOL    HW211250   2.081   3.551   4.579 -0.4139  0.3294 -0.6733
 2801SOL    HW311251   2.151   3.659   4.660 -0.9839  2.4083 -2.9002
 2801SOL    MW411252   2.081   3.610   4.643 -0.2072  0.4780 -0.8073
 2802SOL     OW11253   3.141   1.879   4.095  0.1786 -0.5611  0.0175
 2802SOL    HW211254   3.157   1.798   4.142 -0.8759 -0.4897  0.5196
 2802SOL    HW311255   3.060   1.913   4.133  0.1837  0.3149 -0.7370
 2802SOL    MW411256   3.132   1.873   4.106  0.0401 -0.4361 -0.0153
 2803SOL     OW11257   4.058   4.222   4.616 -0.1843  0.1809 -0.0661
 2803SOL    HW211258   4.137   4.275   4.607 -0.2571  0.1410 -0.9634
 2803SOL    HW311259   4.081   4.137   4.579 -0.0712 -0.4359  1.3670
 2803SOL    MW411260   4.071   4.218   4.610 -0.1788  0.0939  0.0048
 2804SOL     OW11261   2.700   3.205   3.778 -0.2063  0.1766  0.1669
 2804SOL    HW211262   2.636   3.149   3.820 -0.4567  2.0601  2.3783
 2804SOL    HW311263   2.672   3.294   3.799  2.1091  1.0706 -0.3399
 2804SOL    MW411264   2.688   3.209   3.786  0.0660  0.5431  0.3917
 2805SOL     OW11265   1.603   3.789   4.090  0.0822 -0.2460  0.1780
 2805SOL    HW211266   1.670   3.855   4.102 -0.5236  0.3119  0.5290
 2805SOL    HW311267   1.575   3.799   3.998  0.0867 -0.1006  0.1922
 2805SOL    MW411268   1.608   3.799   4.079  0.0029 -0.1531  0.2265
 2806SOL     OW11269   2.867   2.982   4.434  0.2135  0.3453 -0.1530
 2806SOL    HW211270   2.862   3.045   4.362 -0.8429  0.9463  0.4408
 2806SOL    HW311271   2.775   2.962   4.455  0.4998  0.6967  1.4956
 2806SOL    MW411272   2.854   2.988   4.427  0.1118  0.4709  0.1431
 2807SOL     OW11273   1.603   3.800   4.753  0.0719 -0.3553 -0.1062
 2807SOL    HW211274   1.690   3.767   4.729  0.7498  1.0721  0.2925
 2807SOL    HW311275   1.558   3.724   4.789  1.8750 -0.7188  1.5315
 2807SOL    MW411276   1.609   3.786   4.755  0.3992 -0.2151  0.1631
 2808SOL     OW11277   1.373   2.450   4.247 -0.2577 -0.4706 -0.3828
 2808SOL    HW211278   1.439   2.383   4.229 -0.6731 -0.7786 -0.7601
 2808SOL    HW311279   1.374   2.460   4.342  1.7176  0.9278 -0.5256
 2808SOL    MW411280   1.382   2.443   4.257 -0.0517 -0.3269 -0.4511
 2809SOL     OW11281   0.714   0.584   4.129 -0.1862  0.3005  0.3269
 2809SOL    HW211282   0.685   0.636   4.053 -1.6254 -0.4995  0.3248
 2809SOL    HW311283   0.636   0.573   4.182  0.5290 -0.2915  1.2631
 2809SOL    MW411284   0.700   0.590   4.126 -0.2818  0.1169  0.4501
 2810SOL     OW11285   0.677   2.831   4.264 -0.2772 -0.2110  0.0437
 2810SOL    HW211286   0.753   2.788   4.226 -0.8068 -1.6060  0.5298
 2810SOL    HW311287   0.603   2.778   4.236 -1.0217  0.8149  0.0366
 2810SOL    MW411288   0.677   2.819   4.255 -0.4453 -0.2596  0.1068
 2811SOL     OW11289   3.162   1.621   4.512  0.3490  0.3317 -0.3421
 2811SOL    HW211290   3.236   1.668   4.550  0.5147  0.2084 -0.5129
 2811SOL    HW311291   3.166   1.534   4.552  1.9111 -0.5760 -2.3735
 2811SOL    MW411292   3.172   1.616   4.523  0.5765  0.1956 -0.6328
 2812SOL     OW11293   1.989   2.287   3.874 -0.2430 -0.3007  0.2210
 2812SOL    HW211294   1.910   2.334   3.845  0.2666  0.4597  0.0450
 2812SOL    HW311295   1.993   2.304   3.968  0.9241  1.5215 -0.1368
 2812SOL    MW411296   1.979   2.295   3.882 -0.0219  0.0403  0.1507
 2813SOL     OW11297   0.341   1.136   4.581  0.3623 -0.5784  0.2348
 2813SOL    HW211298   0.334   1.119   4.675 -0.7886 -0.6543  0.1428
 2813SOL    HW311299   0.287   1.213   4.566 -0.3866 -1.2479 -0.5445
 2813SOL    MW411300   0.333   1.144   4.591  0.1117 -0.6766  0.1202
 2814SOL     OW11301   0.617   1.225   4.527 -0.4971 -0.3123  0.0720
 2814SOL    HW211302   0.523   1.213   4.539 -0.6543 -0.0273 -0.8107
 2814SOL    HW311303   0.656   1.144   4.560 -1.0149 -0.2176  0.9083
 2814SOL    MW411304   0.610   1.213   4.533 -0.5862 -0.2621  0.0658
 2815SOL     OW11305   4.061   0.444   4.135 -0.1561  0.2149 -0.5787
 2815SOL    HW211306   4.130   0.502   4.168  0.2815 -0.1525 -0.8321
 2815SOL    HW311307   3.983   0.468   4.185  0.9856 -1.7612  2.2486
 2815SOL    MW411308   4.060   0.455   4.146  0.0520 -0.0943 -0.2394
 2816SOL     OW11309   0.180   1.349   4.812 -0.2963  0.5207 -0.4528
 2816SOL    HW211310   0.226   1.265   4.812 -1.5071 -0.1490  0.9217
 2816SOL    HW311311   0.189   1.382   4.901 -1.3927  0.9977 -0.5155
 2816SOL    MW411312   0.188   1.342   4.824 -0.6007  0.4952 -0.2804
 2817SOL     OW11313   0.442   4.236   3.852  0.1486 -0.0027  0.0962
 2817SOL    HW211314   0.522   4.282   3.825 -0.6251  1.5395  0.3841
 2817SOL    HW311315   0.440   4.158   3.797  1.8715 -0.0762  0.1085
 2817SOL    MW411316   0.452   4.232   3.841  0.2738  0.1907  0.1359
 2818SOL     OW11317   0.282   0.978   4.271  0.1008  0.5438 -0.1300
 2818SOL    HW211318   0.245   0.918   4.207 -0.2548  2.0603 -1.3925
 2818SOL    HW311319   0.216   0.984   4.340  0.4453 -1.0288  0.3533
 2818SOL    MW411320   0.269   0.971   4.272  0.0993  0.5364 -0.2332
 2819SOL     OW11321   2.196   1.203   4.762 -0.4614  0.3259 -0.2945
 2819SOL    HW211322   2.142   1.134   4.723 -0.5875  0.2903 -0.0545
 2819SOL    HW311323   2.198   1.272   4.695 -0.6566  0.2547 -0.3741
 2819SOL    MW411324   2.189   1.203   4.748 -0.5035  0.3117 -0.2737
 2820SOL     OW11325   1.927   0.173   4.533 -0.3288 -0.0593  0.2375
 2820SOL    HW211326   1.958   0.083   4.539 -1.0230 -0.2034  1.9772
 2820SOL    HW311327   1.834   0.165   4.513 -0.1968  0.2858 -0.5135
 2820SOL    MW411328   1.919   0.160   4.532 -0.4029 -0.0328  0.3681
 2821SOL     OW11329   4.290   1.465   4.625  0.6073  0.0054 -0.0917
 2821SOL    HW211330   4.365   1.511   4.587 -0.4097  1.2673 -0.6081
 2821SOL    HW311331   4.326   1.418   4.700  1.7715  1.2096  0.1285
 2821SOL    MW411332   4.304   1.465   4.630  0.6266  0.3309 -0.1307
 2822SOL     OW11333   2.735   3.794   4.647 -0.6952 -0.2008 -0.1658
 2822SOL    HW211334   2.808   3.746   4.608 -0.8069 -0.1794 -0.4022
 2822SOL    HW311335   2.657   3.753   4.610 -0.8477 -1.2429  1.2680
 2822SOL    MW411336   2.734   3.782   4.637 -0.7303 -0.3355 -0.0081
 2823SOL     OW11337   0.370   4.247   4.105 -0.2399 -0.6686  0.1046
 2823SOL    HW211338   0.396   4.165   4.147 -1.8258 -0.4917  1.4841
 2823SOL    HW311339   0.390   4.234   4.012  3.4013 -1.0492  0.8747
 2823SOL    MW411340   0.376   4.235   4.098  0.0312 -0.6952  0.3877
 2824SOL     OW11341   3.558   0.860   4.281  0.1495 -0.3767  0.5146
 2824SOL    HW211342   3.568   0.941   4.232  0.5706 -1.3123 -0.9512
 2824SOL    HW311343   3.630   0.861   4.344  0.5653  0.0515  0.0344
 2824SOL    MW411344   3.569   0.870   4.283  0.2599 -0.4438  0.2575
 2825SOL     OW11345   2.532   4.364   4.213  0.0286  0.0966 -0.2807
 2825SOL    HW211346   2.501   4.361   4.303  0.7058  0.1876 -0.0505
 2825SOL    HW311347   2.510   4.452   4.183 -1.4412 -0.3721 -0.6465
 2825SOL    MW411348   2.525   4.375   4.221 -0.0758  0.0463 -0.2990
 2826SOL     OW11349   3.160   4.014   4.518  0.1391 -0.0828 -0.6268
 2826SOL    HW211350   3.085   4.066   4.545  0.1928 -0.2133 -0.2246
 2826SOL    HW311351   3.153   3.932   4.567  0.5864 -0.0634 -0.5214
 2826SOL    MW411352   3.149   4.010   4.528  0.2055 -0.0968 -0.5598
 2827SOL     OW11353   2.245   1.179   4.209 -0.3201 -0.0826 -0.7234
 2827SOL    HW211354   2.250   1.114   4.279 -0.7288 -0.2951 -0.8865
 2827SOL    HW311355   2.327   1.227   4.214 -0.8698  0.7365  0.7153
 2827SOL    MW411356   2.256   1.176   4.219 -0.4466 -0.0026 -0.5555
 2828SOL     OW11357   1.165   3.044   4.069  0.0338  0.5438  0.3858
 2828SOL    HW211358   1.158   2.965   4.123 -0.8589  1.1774  1.2165
 2828SOL    HW311359   1.230   3.097   4.114  0.2027  0.5319  0.1529
 2828SOL    MW411360   1.172   3.040   4.082 -0.0616  0.6258  0.4654
 2829SOL     OW11361   1.275   3.420   4.672  0.3766 -0.1740 -0.1263
 2829SOL    HW211362   1.232   3.499   4.639  0.6368 -0.4014 -1.0062
 2829SOL    HW311363   1.295   3.368   4.594  1.0984 -0.6596  0.3719
 2829SOL    MW411364   1.272   3.423   4.658  0.5062 -0.2680 -0.1760
 2830SOL     OW11365   3.908   2.811   4.488 -0.1887 -0.5239 -0.1929
 2830SOL    HW211366   3.962   2.856   4.553  0.1830 -0.7452 -0.3421
 2830SOL    HW311367   3.818   2.834   4.510  0.0378  0.9394 -0.7597
 2830SOL    MW411368   3.903   2.820   4.500 -0.1099 -0.3600 -0.2875
 2831SOL     OW11369   1.035   2.636   4.696 -0.0754 -0.2700  0.0434
 2831SOL    HW211370   0.970   2.706   4.694  0.9536  0.6773 -0.7555
 2831SOL    HW311371   0.990   2.560   4.660 -0.7892  0.3342 -0.3476
 2831SOL    MW411372   1.020   2.635   4.691 -0.0337 -0.0651 -0.1135
 2832SOL     OW11373   0.218   2.853   4.256 -0.0839  0.1925  0.2171
 2832SOL    HW211374   0.146   2.806   4.215 -0.9728  1.5820  0.1882
 2832SOL    HW311375   0.207   2.836   4.350  0.6161 -1.0789  0.0834
 2832SOL    MW411376   0.207   2.844   4.263 -0.1088  0.2081  0.1955
 2833SOL     OW11377   3.407   4.427   4.483 -0.3725  0.2273  0.8650
 2833SOL    HW211378   3.495   4.408   4.517  0.4930  1.3214 -0.7324
 2833SOL    HW311379   3.412   4.406   4.390 -1.6249  0.8995  0.6365
 2833SOL    MW411380   3.420   4.422   4.475 -0.4237  0.4601  0.6242
 2834SOL     OW11381   4.066   4.648   4.617  0.0861 -0.2997 -0.2919
 2834SOL    HW211382   4.147   4.597   4.625 -0.7282 -1.4881  0.5380
 2834SOL    HW311383   4.000   4.583   4.591 -0.9170  0.3831  0.5441
 2834SOL    MW411384   4.068   4.633   4.615 -0.1535 -0.3662 -0.0720
 2835SOL     OW11385   2.031   1.004   4.595  0.2297  0.1522 -0.2109
 2835SOL    HW211386   1.977   1.075   4.560 -1.9541 -1.4944 -0.2364
 2835SOL    HW311387   1.972   0.930   4.603  1.3417 -0.4346  4.1286
 2835SOL    MW411388   2.016   1.004   4.592  0.0885 -0.1426  0.3586
 2836SOL     OW11389   0.782   0.018   4.726  0.3511  0.0301  0.0467
 2836SOL    HW211390   0.861  -0.031   4.750  0.0548 -0.8340 -0.6934
 2836SOL    HW311391   0.803   0.055   4.640 -0.2719 -0.6959 -0.4175
 2836SOL    MW411392   0.795   0.017   4.718  0.2299 -0.1797 -0.1121
 2837SOL     OW11393   1.337   3.440   3.844 -0.0326  0.2615 -0.4318
 2837SOL    HW211394   1.314   3.454   3.936  0.3451 -0.2282 -0.2592
 2837SOL    HW311395   1.263   3.476   3.795 -0.6230 -0.2360  0.0810
 2837SOL    MW411396   1.324   3.447   3.850 -0.0607  0.1314 -0.3417
 2838SOL     OW11397   1.794   3.985   4.172  0.2016  0.0628  0.2106
 2838SOL    HW211398   1.878   3.938   4.169  1.3368  2.0331  0.1835
 2838SOL    HW311399   1.780   4.003   4.265 -0.1086 -0.0932  0.1955
 2838SOL    MW411400   1.803   3.981   4.184  0.3105  0.3021  0.2050
 2839SOL     OW11401   1.857   4.247   4.121 -0.0468 -0.3970 -0.1143
 2839SOL    HW211402   1.833   4.243   4.028 -0.6783 -1.1882  0.0847
 2839SOL    HW311403   1.838   4.160   4.155  1.3962 -0.4951  0.4681
 2839SOL    MW411404   1.851   4.235   4.113  0.0601 -0.5140 -0.0114
 2840SOL     OW11405   1.016   4.071   4.240 -0.1396  0.2790  0.1852
 2840SOL    HW211406   1.094   4.122   4.219 -0.2844  0.5722  0.3490
 2840SOL    HW311407   1.036   3.983   4.210  0.4781  0.2210  0.7535
 2840SOL    MW411408   1.029   4.066   4.233 -0.0771  0.3095  0.2818
 2841SOL     OW11409   2.871   4.397   4.266  0.3431  0.0284  0.5177
 2841SOL    HW211410   2.960   4.370   4.243  0.3076  1.9014 -1.9444
 2841SOL    HW311411   2.814   4.335   4.221  0.3688  0.6555 -0.3930
 2841SOL    MW411412   2.875   4.385   4.257  0.3419  0.3576  0.0725
 2842SOL     OW11413   0.036   2.725   4.114  0.3828  0.2496  0.5406
 2842SOL    HW211414  -0.044   2.762   4.151  0.7909  1.1642  0.5110
 2842SOL    HW311415   0.032   2.632   4.138 -0.9305  0.1759  0.1000
 2842SOL    MW411416   0.025   2.718   4.122  0.2637  0.3605  0.4787
 2843SOL     OW11417   1.650   3.007   4.662 -0.4476 -0.1050  0.2872
 2843SOL    HW211418   1.644   2.919   4.625 -0.0942  0.2882 -0.7025
 2843SOL    HW311419   1.561   3.028   4.690 -0.6420 -0.5402 -0.0040
 2843SOL    MW411420   1.638   2.998   4.661 -0.4265 -0.1106  0.1183
 2844SOL     OW11421   4.412   1.168   4.451  0.1256 -0.1266  0.1725
 2844SOL    HW211422   4.433   1.261   4.463  0.2600 -0.2745  1.1227
 2844SOL    HW311423   4.427   1.152   4.358  3.4675 -0.0285  0.6280
 2844SOL    MW411424   4.416   1.178   4.440  0.5841 -0.1332  0.3581
 2845SOL     OW11425   2.637   4.581   4.605  0.2968  0.1679 -0.3853
 2845SOL    HW211426   2.632   4.671   4.575  0.3253  0.6480  1.0301
 2845SOL    HW311427   2.579   4.577   4.682 -0.7381 -1.3338 -1.1937
 2845SOL    MW411428   2.628   4.592   4.611  0.1638  0.0334 -0.3047
 2846SOL     OW11429   3.699   3.735   4.529 -0.1942  0.6281 -0.3459
 2846SOL    HW211430   3.677   3.829   4.529 -1.4665  0.3421 -0.4430
 2846SOL    HW311431   3.628   3.695   4.579  0.1099 -0.3449 -0.6948
 2846SOL    MW411432   3.687   3.742   4.536 -0.3219  0.4623 -0.4048
 2847SOL     OW11433   2.891   2.275   4.168  0.2153 -0.2250  0.2791
 2847SOL    HW211434   2.889   2.189   4.209 -0.6775 -1.1694 -1.6712
 2847SOL    HW311435   2.801   2.307   4.177 -0.3629 -1.0673 -2.1585
 2847SOL    MW411436   2.879   2.268   4.175  0.0212 -0.4609 -0.2999
 2848SOL     OW11437   1.298   1.664   4.248 -0.3506  0.2447  0.3590
 2848SOL    HW211438   1.236   1.601   4.210 -0.8417  0.3992  0.8874
 2848SOL    HW311439   1.320   1.627   4.333 -1.1012  1.0629  0.9310
 2848SOL    MW411440   1.293   1.651   4.254 -0.5144  0.3730  0.5040
 2849SOL     OW11441   3.655   4.409   4.609 -0.8008  0.1987 -0.0062
 2849SOL    HW211442   3.665   4.322   4.649  0.3031  0.1083 -0.4673
 2849SOL    HW311443   3.700   4.468   4.669 -0.2068  0.2322 -0.4793
 2849SOL    MW411444   3.662   4.405   4.623 -0.5767  0.1907 -0.1292
 2850SOL     OW11445   0.660   1.550   3.888 -0.0639 -0.3337 -0.0236
 2850SOL    HW211446   0.646   1.458   3.863  0.3798 -0.7750  1.3339
 2850SOL    HW311447   0.605   1.599   3.828 -0.8535 -1.5337 -0.3012
 2850SOL    MW411448   0.651   1.544   3.877 -0.1095 -0.5503  0.1187
 2851SOL     OW11449   0.525   0.405   3.799 -0.3285 -0.1651  0.2395
 2851SOL    HW211450   0.524   0.316   3.763 -0.5042 -0.6910  1.4983
 2851SOL    HW311451   0.600   0.447   3.758  0.2764 -1.1815  0.2871
 2851SOL    MW411452   0.535   0.399   3.789 -0.2719 -0.3686  0.4120
 2852SOL     OW11453   3.859   0.943   4.117  0.2440  0.1674 -0.0765
 2852SOL    HW211454   3.790   1.010   4.116 -0.5518 -0.6369  0.3770
 2852SOL    HW311455   3.834   0.882   4.047  0.3134 -0.3091  0.3135
 2852SOL    MW411456   3.846   0.944   4.107  0.1481 -0.0016  0.0353
 2853SOL     OW11457   4.283   4.350   4.519  0.4362 -0.3662 -0.3018
 2853SOL    HW211458   4.304   4.440   4.542  2.2508 -0.8254 -0.0316
 2853SOL    HW311459   4.283   4.349   4.423  1.3337 -0.2669 -0.3083
 2853SOL    MW411460   4.286   4.362   4.509  0.7944 -0.4134 -0.2680
 2854SOL     OW11461   1.141   2.816   4.218  0.0001  0.0072  0.5103
 2854SOL    HW211462   1.057   2.786   4.184  0.7713 -0.8507 -0.6788
 2854SOL    HW311463   1.123   2.839   4.309 -1.5792  0.1143  0.1985
 2854SOL    MW411464   1.127   2.815   4.226 -0.1065 -0.0918  0.3123
 2855SOL     OW11465   0.226   2.264   3.880 -0.1362 -0.1706 -0.2568
 2855SOL    HW211466   0.232   2.278   3.974  0.8769  0.7948 -0.4498
 2855SOL    HW311467   0.140   2.298   3.855  0.4154  1.4836  0.0159
 2855SOL    MW411468   0.215   2.270   3.889  0.0702  0.1755 -0.2460
 2856SOL     OW11469   1.551   3.580   3.729 -0.4019 -0.0382 -0.3386
 2856SOL    HW211470   1.482   3.525   3.765  0.0890 -0.0507  0.6035
 2856SOL    HW311471   1.632   3.536   3.755  0.0083  1.3427  0.7690
 2856SOL    MW411472   1.553   3.567   3.737 -0.2830  0.1426 -0.0679
 2857SOL     OW11473   0.441   1.118   3.842 -0.2649 -0.1816 -0.1126
 2857SOL    HW211474   0.367   1.172   3.817 -0.0630  0.4719  0.6677
 2857SOL    HW311475   0.518   1.174   3.828 -0.1193  0.0666  1.5367
 2857SOL    MW411476   0.442   1.132   3.837 -0.2190 -0.0626  0.2077
 2858SOL     OW11477   1.866   1.190   4.156 -0.4967 -0.1436  0.2583
 2858SOL    HW211478   1.853   1.109   4.207  1.9128 -1.6474 -1.4234
 2858SOL    HW311479   1.932   1.238   4.206  1.5637 -1.4321 -1.1348
 2858SOL    MW411480   1.873   1.185   4.170  0.0930 -0.5119 -0.1473
 2859SOL     OW11481   4.089   2.682   3.842  0.3137 -0.0873 -0.0027
 2859SOL    HW211482   4.004   2.717   3.817  0.3283  0.0373  0.1239
 2859SOL    HW311483   4.153   2.746   3.809  0.3581 -0.1767 -0.0918
 2859SOL    MW411484   4.087   2.695   3.834  0.3214 -0.0825  0.0021
 2860SOL     OW11485   1.401   0.070   4.474  0.2607  0.1346  0.3866
 2860SOL    HW211486   1.406   0.060   4.379 -0.1661 -0.2017  0.3984
 2860SOL    HW311487   1.374  -0.016   4.505  0.4175  0.2409  0.8161
 2860SOL    MW411488   1.398   0.057   4.466  0.2252  0.1042  0.4449
 2861SOL     OW11489   3.459   3.294   4.528 -0.0382  0.2743 -0.3134
 2861SOL    HW211490   3.460   3.225   4.595 -0.1396  1.0681  0.5263
 2861SOL    HW311491   3.517   3.262   4.460 -1.4239 -1.4210 -0.7402
 2861SOL    MW411492   3.467   3.280   4.528 -0.2341  0.1554 -0.2580
 2862SOL     OW11493   3.293   0.750   4.175 -0.5099 -0.2872 -0.3967
 2862SOL    HW211494   3.296   0.659   4.203  0.6918 -0.3897 -0.8577
 2862SOL    HW311495   3.382   0.783   4.187 -0.6638  0.5048 -1.2961
 2862SOL    MW411496   3.305   0.743   4.180 -0.3715 -0.1962 -0.5755
 2863SOL     OW11497   1.986   4.523   4.478 -0.2524  0.2022  0.5858
 2863SOL    HW211498   2.005   4.453   4.415 -1.4516  0.6636 -0.3153
 2863SOL    HW311499   1.939   4.479   4.549 -1.1106  0.0905 -0.0367
 2863SOL    MW411500   1.982   4.508   4.479 -0.5239  0.2480  0.3853
 2864SOL     OW11501   2.301   4.243   4.129 -0.2001 -0.2872 -0.1169
 2864SOL    HW211502   2.389   4.280   4.131 -1.2479  2.2416  0.2292
 2864SOL    HW311503   2.274   4.251   4.037  0.4548 -2.4425 -0.5386
 2864SOL    MW411504   2.309   4.249   4.117 -0.2518 -0.2379 -0.1273
 2865SOL     OW11505   2.658   3.269   4.238  0.0762  0.3539 -0.2132
 2865SOL    HW211506   2.746   3.233   4.228 -0.2465 -0.8248  0.9674
 2865SOL    HW311507   2.661   3.353   4.193  2.6863  1.7376  2.3843
 2865SOL    MW411508   2.670   3.275   4.231  0.3779  0.3810  0.2856
 2866SOL     OW11509   3.385   4.381   4.205 -0.1185  0.3645 -0.7492
 2866SOL    HW211510   3.397   4.473   4.179  2.3730  0.3902  0.3010
 2866SOL    HW311511   3.467   4.338   4.178 -0.3510 -1.0562  0.7413
 2866SOL    MW411512   3.398   4.388   4.198  0.1795  0.1807 -0.4148
 2867SOL     OW11513   3.779   4.164   4.701 -0.0834  0.1805 -0.2446
 2867SOL    HW211514   3.772   4.146   4.794  1.5209  1.4840  0.1439
 2867SOL    HW311515   3.872   4.174   4.685 -0.2454 -1.1677 -2.2285
 2867SOL    MW411516   3.790   4.163   4.711  0.1068  0.1745 -0.4549
 2868SOL     OW11517   2.593   0.176   4.514  0.3555 -0.1440  0.4016
 2868SOL    HW211518   2.681   0.199   4.544  0.6112 -0.2592 -0.2547
 2868SOL    HW311519   2.540   0.254   4.533  0.5685 -0.1213  0.9082
 2868SOL    MW411520   2.597   0.189   4.521  0.4175 -0.1562  0.3810
 2869SOL     OW11521   2.692   3.245   4.528  0.0932  0.4872 -0.6080
 2869SOL    HW211522   2.685   3.268   4.436  0.0912  1.6229 -0.3208
 2869SOL    HW311523   2.666   3.153   4.531  1.4518  0.0363 -1.9368
 2869SOL    MW411524   2.688   3.236   4.516  0.2723  0.5772 -0.7448
 2870SOL     OW11525   3.872   3.625   3.758  0.1403 -0.1947  0.0462
 2870SOL    HW211526   3.937   3.581   3.812  0.7900  0.4421 -0.2205
 2870SOL    HW311527   3.846   3.702   3.809  0.1743 -0.0204 -0.2008
 2870SOL    MW411528   3.877   3.630   3.772  0.2306 -0.0877 -0.0217
 2871SOL     OW11529   3.141   4.586   4.615  0.2822 -0.3522 -0.5620
 2871SOL    HW211530   3.055   4.543   4.609  0.6986 -1.1532 -0.9969
 2871SOL    HW311531   3.201   4.523   4.575  1.1601 -0.0314  0.2395
 2871SOL    MW411532   3.138   4.572   4.609  0.4530 -0.4158 -0.5136
 2872SOL     OW11533   4.487   1.742   4.337 -0.2439  0.1486  0.1964
 2872SOL    HW211534   4.399   1.715   4.363 -0.4146  0.8168  0.3302
 2872SOL    HW311535   4.545   1.705   4.403 -0.4297 -0.2514  0.1354
 2872SOL    MW411536   4.483   1.734   4.349 -0.2918  0.1841  0.2065
 2873SOL     OW11537   1.827   1.904   3.853  0.3602  0.0290 -0.1089
 2873SOL    HW211538   1.826   1.924   3.946 -2.2116  1.6340 -0.4310
 2873SOL    HW311539   1.907   1.944   3.820  0.0278  1.5971  0.9734
 2873SOL    MW411540   1.838   1.912   3.861 -0.0229  0.4475 -0.0086
 2874SOL     OW11541   3.382   4.166   4.579 -0.2032  0.5668 -0.3124
 2874SOL    HW211542   3.361   4.245   4.528 -1.6805  1.0174  0.9494
 2874SOL    HW311543   3.307   4.109   4.566  0.5293 -0.3347 -0.6112
 2874SOL    MW411544   3.369   4.169   4.571 -0.3016  0.5074 -0.1845
 2875SOL     OW11545   1.296   2.754   4.667 -0.5166 -0.2477  0.0745
 2875SOL    HW211546   1.218   2.729   4.716 -0.9266 -0.7451 -0.8056
 2875SOL    HW311547   1.318   2.675   4.616 -0.1871  0.2943 -0.6344
 2875SOL    MW411548   1.288   2.740   4.667 -0.5270 -0.2415 -0.1359
 2876SOL     OW11549   1.117   2.913   4.471 -0.3850  0.2299 -0.0554
 2876SOL    HW211550   1.200   2.871   4.491 -0.5865 -0.1463  0.0099
 2876SOL    HW311551   1.059   2.888   4.543 -0.4710  0.7264  0.0481
 2876SOL    MW411552   1.120   2.904   4.483 -0.4228  0.2458 -0.0329
 2877SOL     OW11553   3.096   2.636   4.212 -0.1366 -0.3336 -0.7543
 2877SOL    HW211554   3.023   2.658   4.270 -0.4406  1.6286 -1.8347
 2877SOL    HW311555   3.118   2.546   4.233 -0.5660  0.1822  2.0684
 2877SOL    MW411556   3.090   2.627   4.222 -0.2334 -0.0064 -0.5245
 2878SOL     OW11557   0.141   2.774   4.514 -0.0462 -0.0771 -0.2147
 2878SOL    HW211558   0.226   2.751   4.551  0.0395 -0.5344 -0.6870
 2878SOL    HW311559   0.098   2.690   4.499 -1.2052  0.1872  1.4334
 2878SOL    MW411560   0.146   2.760   4.517 -0.1878 -0.1025 -0.0596
 2879SOL     OW11561   3.849   2.039   4.252 -0.0335 -0.3235  0.3285
 2879SOL    HW211562   3.762   1.999   4.240 -0.0015  0.1527 -1.7368
 2879SOL    HW311563   3.851   2.109   4.187  1.3856  0.5535  1.3157
 2879SOL    MW411564   3.837   2.043   4.242  0.1578 -0.1450  0.1864
 2880SOL     OW11565   0.446   2.445   4.522  0.4936 -0.2720 -0.3159
 2880SOL    HW211566   0.451   2.436   4.427 -0.2258 -0.4295 -0.3413
 2880SOL    HW311567   0.373   2.389   4.548 -0.6594  1.3901  0.1050
 2880SOL    MW411568   0.437   2.436   4.513  0.2466 -0.0737 -0.2642
 2881SOL     OW11569   1.683   0.039   4.467  0.5558  0.0321  0.0049
 2881SOL    HW211570   1.695  -0.047   4.506  1.5105  0.0470 -0.2545
 2881SOL    HW311571   1.589   0.055   4.474  0.3220 -1.1742 -0.2657
 2881SOL    MW411572   1.672   0.030   4.473  0.6509 -0.1251 -0.0653
 2882SOL     OW11573   4.023   1.414   4.546 -0.4663 -0.1010 -0.4846
 2882SOL    HW211574   4.090   1.438   4.610 -0.9561  0.1350 -0.0553
 2882SOL    HW311575   3.961   1.360   4.595 -1.3763  0.9095 -0.5000
 2882SOL    MW411576   4.023   1.410   4.560 -0.6504  0.0634 -0.4301
 2883SOL     OW11577   3.438   3.058   4.683 -0.1967  0.0446  0.2030
 2883SOL    HW211578   3.355   3.009   4.682 -0.0458 -0.3226  2.1316
 2883SOL    HW311579   3.499   3.002   4.636 -0.8185 -0.1181 -0.4224
 2883SOL    MW411580   3.435   3.044   4.677 -0.2589 -0.0257  0.3748
 2884SOL     OW11581   0.871   3.286   4.743  0.2344  0.5101  0.1005
 2884SOL    HW211582   0.783   3.270   4.708  0.3375  0.3034 -0.0648
 2884SOL    HW311583   0.893   3.375   4.715 -0.0372  0.6666  0.3827
 2884SOL    MW411584   0.862   3.296   4.735  0.2121  0.5035  0.1159
 2885NA      NA11585   3.439   2.643   0.780 -0.0923 -0.0795 -0.1463
   4.49070   4.66690  10.00000
