Gromacs Runs On Most of All Computer Systems in water
11558
    1RG35     P    1   2.253   2.405   4.398 -0.1100 -0.1306 -0.3153
    1RG35   O1P    2   2.374   2.449   4.468  0.1465  0.3690 -0.0099
    1RG35   O2P    3   2.214   2.264   4.429  0.3288 -0.3977 -0.0006
    1RG35   O5'    4   2.134   2.483   4.464 -0.0869 -0.3348  0.4002
    1RG35   C5'    5   2.103   2.621   4.434 -0.2173  0.1237  0.0493
    1RG35  H5'1    6   2.063   2.629   4.333  3.5654  1.4354 -1.3941
    1RG35  H5'2    7   2.190   2.684   4.450  0.8874 -1.0519 -1.2620
    1RG35   C4'    8   1.996   2.672   4.534 -0.1194  0.6997 -0.1035
    1RG35   H4'    9   1.990   2.780   4.525  1.9338  0.8006 -0.5020
    1RG35   O4'   10   1.866   2.618   4.516  0.0395  0.3144 -0.5338
    1RG35   C1'   11   1.803   2.635   4.638  0.5818 -0.0261 -0.1308
    1RG35   H1'   12   1.739   2.723   4.629  0.2138 -0.3975 -1.2242
    1RG35    N9   13   1.697   2.526   4.667  0.0298 -0.3042  0.1510
    1RG35    C8   14   1.563   2.527   4.654  0.2151 -0.1392 -0.2123
    1RG35    H8   15   1.510   2.613   4.615  1.5394  0.3781 -0.8692
    1RG35    N7   16   1.499   2.414   4.683 -0.2689  0.3874 -0.2050
    1RG35    C5   17   1.607   2.334   4.720  0.3778  0.2355  0.3281
    1RG35    C6   18   1.613   2.198   4.762 -0.4079 -0.1830 -0.1081
    1RG35    O6   19   1.523   2.118   4.766  0.1812  0.0902 -0.2392
    1RG35    N1   20   1.743   2.154   4.794  0.5047 -0.1053 -0.1715
    1RG35    H1   21   1.764   2.057   4.815 -0.5111 -0.3305 -0.1621
    1RG35    C2   22   1.851   2.223   4.767  0.2341  0.3415  0.2316
    1RG35    N2   23   1.962   2.157   4.774 -0.1877  0.1641  0.0179
    1RG35   H21   24   1.969   2.056   4.785  0.9000  0.3040  0.6909
    1RG35   H22   25   2.051   2.199   4.753 -0.3500  1.2110  1.3479
    1RG35    N3   26   1.849   2.347   4.722 -0.5787  0.1144  0.2366
    1RG35    C4   27   1.726   2.401   4.707  0.0586 -0.1168  0.1145
    1RG35   C3'   28   2.034   2.644   4.679  0.5527 -0.4670  0.7225
    1RG35   H3'   29   2.049   2.537   4.693 -1.0339 -0.9411 -0.9958
    1RG35   C2'   30   1.900   2.667   4.752 -0.2358  0.5290  0.0102
    1RG35  H2'1   31   1.895   2.599   4.837  1.7316  0.6363  0.2367
    1RG35   O2'   32   1.889   2.807   4.799 -0.7087 -0.0620  0.0844
    1RG35  HO'2   33   1.980   2.833   4.816 -0.9649  0.7598  0.2365
    1RG35   O3'   34   2.144   2.722   4.739  0.0226  0.6332 -0.3279
    1RG35   H3T   35   2.209   2.659   4.770 -0.5677 -0.7781 -1.8483
    1RG35   O3P   36   2.251   2.441   4.256  0.0285 -0.1607  0.3294
    2SOL     OW   37   2.352   1.646   0.479 -0.4538 -0.1002 -0.0973
    2SOL    HW2   38   2.377   1.554   0.470  0.5015  0.1199  0.2623
    2SOL    HW3   39   2.331   1.657   0.572  0.2804  0.2467  0.0345
    2SOL    MW4   40   2.353   1.636   0.490 -0.2309 -0.0254 -0.0325
    3SOL     OW   41   4.290   3.599   0.784  0.1952 -0.2028 -0.5172
    3SOL    HW2   42   4.277   3.681   0.832  1.2814 -1.3599  1.8937
    3SOL    HW3   43   4.220   3.542   0.816 -0.3379 -0.3482 -1.9175
    3SOL    MW4   44   4.279   3.602   0.795  0.2682 -0.3747 -0.3838
    4SOL     OW   45   2.704   0.512   0.264 -0.3764  0.1255  0.0175
    4SOL    HW2   46   2.790   0.522   0.303 -0.3458 -0.0945  0.0051
    4SOL    HW3   47   2.697   0.419   0.244 -0.4820  0.2004 -0.2953
    4SOL    MW4   48   2.714   0.501   0.267 -0.3863  0.1064 -0.0254
    5SOL     OW   49   2.422   2.465   0.183 -0.0876 -0.2466 -0.1773
    5SOL    HW2   50   2.462   2.495   0.265 -0.6291  0.4100 -0.1420
    5SOL    HW3   51   2.448   2.374   0.176 -0.1401 -0.3495  0.8026
    5SOL    MW4   52   2.430   2.457   0.193 -0.1660 -0.1736 -0.0433
    6SOL     OW   53   0.023   3.387   0.507  0.1973  0.3968  0.3726
    6SOL    HW2   54   0.085   3.454   0.478 -0.0514  0.4877  0.0421
    6SOL    HW3   55  -0.059   3.410   0.464  0.1035 -0.1044  0.2772
    6SOL    MW4   56   0.020   3.399   0.497  0.1521  0.3427  0.3164
    7SOL     OW   57   0.002   2.491   0.747  0.5820 -0.2615  0.5497
    7SOL    HW2   58  -0.020   2.483   0.655  0.7889  1.0114  0.3819
    7SOL    HW3   59  -0.009   2.584   0.767 -0.9011 -0.7456  2.1785
    7SOL    MW4   60  -0.002   2.502   0.738  0.4136 -0.1574  0.7425
    8SOL     OW   61   1.286   0.099   0.423  0.4698  0.0492 -0.4842
    8SOL    HW2   62   1.318   0.116   0.512  0.0088 -1.3370 -0.0472
    8SOL    HW3   63   1.363   0.112   0.368  1.0530 -0.2531  0.2447
    8SOL    MW4   64   1.301   0.103   0.428  0.4860 -0.1736 -0.3304
    9SOL     OW   65   4.223   0.285   0.522 -0.1729 -0.1495  0.5685
    9SOL    HW2   66   4.193   0.245   0.604 -0.1378  0.0230  0.6645
    9SOL    HW3   67   4.166   0.247   0.455 -1.0884  0.7320  0.8448
    9SOL    MW4   68   4.211   0.275   0.524 -0.2891 -0.0104  0.6176
   10SOL     OW   69   2.770   1.661   0.410  0.3372 -0.0845 -0.4351
   10SOL    HW2   70   2.694   1.718   0.396  1.6730  1.6305 -0.7985
   10SOL    HW3   71   2.746   1.579   0.367 -1.4914  0.2706 -0.1649
   10SOL    MW4   72   2.757   1.658   0.403  0.2722  0.1886 -0.4474
   11SOL     OW   73   2.223   0.144   0.743  0.5133  0.1868 -0.5442
   11SOL    HW2   74   2.302   0.098   0.770  0.6466  1.0124  0.5382
   11SOL    HW3   75   2.218   0.132   0.648  1.0169 -1.2797 -0.3879
   11SOL    MW4   76   2.232   0.137   0.734  0.5973  0.1022 -0.3808
   12SOL     OW   77   4.082   1.165   0.818  0.0583  0.1323 -0.4078
   12SOL    HW2   78   4.060   1.147   0.909  0.1264 -1.1370 -0.6359
   12SOL    HW3   79   4.001   1.200   0.780 -0.0433  0.4152  0.0686
   12SOL    MW4   80   4.068   1.167   0.825  0.0539  0.0022 -0.3751
   13SOL     OW   81   0.437   2.465   0.768 -0.0035  0.1464  0.1280
   13SOL    HW2   82   0.442   2.445   0.674  0.4362  0.1640  0.1461
   13SOL    HW3   83   0.369   2.407   0.802  0.4592 -0.4963 -0.0335
   13SOL    MW4   84   0.429   2.455   0.760  0.1156  0.0639  0.1091
   14SOL     OW   85   4.088   0.729   0.531 -0.1388  0.1046  0.4564
   14SOL    HW2   86   4.101   0.804   0.590 -0.4979 -0.8911  1.8250
   14SOL    HW3   87   4.173   0.684   0.531  0.3213  0.9517 -1.0042
   14SOL    MW4   88   4.101   0.733   0.539 -0.1255  0.0850  0.4443
   15SOL     OW   89   4.055   1.951   0.887  0.1073  0.0710 -0.4160
   15SOL    HW2   90   4.057   1.861   0.854 -0.6115 -0.3608  0.6718
   15SOL    HW3   91   4.050   1.941   0.982  0.4912  1.2703 -0.2650
   15SOL    MW4   92   4.054   1.938   0.895  0.0631  0.1722 -0.2526
   16SOL     OW   93   3.901   3.303   0.505 -0.3246  0.0710 -0.4508
   16SOL    HW2   94   3.977   3.280   0.451  0.2536  1.7749 -0.4280
   16SOL    HW3   95   3.881   3.394   0.480 -1.6599  0.0175  0.3547
   16SOL    MW4   96   3.908   3.312   0.494 -0.4245  0.2888 -0.3415
   17SOL     OW   97   0.900   1.149   0.214  0.0633  0.0948  0.3634
   17SOL    HW2   98   0.899   1.233   0.260  1.2796  0.4685 -0.2681
   17SOL    HW3   99   0.815   1.144   0.171 -0.2884  0.6807  0.9733
   17SOL    MW4  100   0.889   1.160   0.214  0.1774  0.2214  0.3605
   18SOL     OW  101   3.290   4.612   0.365 -0.0907  0.1934 -0.3002
   18SOL    HW2  102   3.216   4.662   0.398 -0.6179  0.4102 -1.7946
   18SOL    HW3  103   3.295   4.634   0.272  1.2095 -0.6120 -0.4337
   18SOL    MW4  104   3.281   4.621   0.357  0.0113  0.1158 -0.5150
   19SOL     OW  105   1.847   0.521   0.357  0.0345 -0.3918  0.1361
   19SOL    HW2  106   1.822   0.598   0.407  1.7995  0.6540 -0.5405
   19SOL    HW3  107   1.941   0.531   0.342  0.0557 -2.0467 -1.0364
   19SOL    MW4  108   1.856   0.532   0.361  0.2701 -0.4722 -0.1079
   20SOL     OW  109   2.506   2.548   0.449 -0.1181  0.1570 -0.2836
   20SOL    HW2  110   2.590   2.509   0.471 -0.4976  0.0153  0.9417
   20SOL    HW3  111   2.516   2.641   0.466 -0.9811 -0.1992  2.3162
   20SOL    MW4  112   2.518   2.555   0.454 -0.2820  0.0913  0.2211
   21SOL     OW  113   0.203   0.556   0.790  0.5246 -0.0335 -0.1090
   21SOL    HW2  114   0.210   0.644   0.828  1.8910 -0.3359  0.3510
   21SOL    HW3  115   0.173   0.571   0.700 -1.6235  0.7517  0.7203
   21SOL    MW4  116   0.200   0.570   0.783  0.4215  0.0302  0.0611
   22SOL     OW  117   2.865   2.153   0.448  0.0604 -0.2480 -0.3543
   22SOL    HW2  118   2.877   2.120   0.537  0.5378 -1.1436 -0.7500
   22SOL    HW3  119   2.947   2.131   0.403  1.1177  2.9347 -0.1773
   22SOL    MW4  120   2.877   2.146   0.454  0.2629  0.0537 -0.3831
   23SOL     OW  121   0.508   0.239   0.348  0.2074  0.1709  0.4056
   23SOL    HW2  122   0.512   0.333   0.329 -0.6156  0.0936 -0.2050
   23SOL    HW3  123   0.519   0.233   0.443 -1.5587  1.0378  0.6944
   23SOL    MW4  124   0.510   0.251   0.358 -0.1342  0.2751  0.3632
   24SOL     OW  125   3.819   1.316   0.724 -0.3064  0.0169 -0.0482
   24SOL    HW2  126   3.830   1.358   0.639  2.2865 -0.9752 -0.2292
   24SOL    HW3  127   3.737   1.267   0.716 -0.2072  0.1415 -1.8628
   24SOL    MW4  128   3.809   1.315   0.712  0.0488 -0.0976 -0.3115
   25SOL     OW  129   0.443   4.007   0.746 -0.1389 -0.5359 -0.3154
   25SOL    HW2  130   0.424   4.026   0.654  0.0467 -0.8137 -0.4118
   25SOL    HW3  131   0.444   4.092   0.789 -0.1521 -0.3998 -0.5850
   25SOL    MW4  132   0.440   4.021   0.739 -0.1161 -0.5546 -0.3637
   26SOL     OW  133   0.145   4.649   0.858 -0.0879  0.1306 -0.2825
   26SOL    HW2  134   0.053   4.666   0.838 -0.9792 -4.6270 -0.6930
   26SOL    HW3  135   0.193   4.700   0.792 -2.3294  3.4042  0.5142
   26SOL    MW4  136   0.139   4.658   0.846 -0.5012 -0.0652 -0.2316
   27SOL     OW  137   4.463   1.913   0.393  0.0782  0.1823 -0.1002
   27SOL    HW2  138   4.387   1.970   0.404 -0.5186 -0.4565 -0.8659
   27SOL    HW3  139   4.434   1.829   0.427  0.0928 -0.3299 -1.3168
   27SOL    MW4  140   4.449   1.910   0.399  0.0014  0.0304 -0.3617
   28SOL     OW  141   2.041   2.337   0.850  0.1134 -0.0997  0.0564
   28SOL    HW2  142   2.027   2.334   0.945 -0.4567 -0.8957 -0.0525
   28SOL    HW3  143   1.964   2.384   0.816 -1.5497 -3.0252 -0.3713
   28SOL    MW4  144   2.029   2.343   0.858 -0.1812 -0.5907 -0.0144
   29SOL     OW  145   4.217   4.440   0.498  0.0068 -0.5620  0.3412
   29SOL    HW2  146   4.224   4.453   0.592  0.6488 -1.3173  0.4022
   29SOL    HW3  147   4.303   4.406   0.472  0.4177  1.2548 -0.7789
   29SOL    MW4  148   4.230   4.437   0.507  0.1457 -0.4219  0.2014
   30SOL     OW  149   0.800   3.993   0.503  0.1612 -0.6583 -0.0382
   30SOL    HW2  150   0.762   4.074   0.470  0.6376 -0.7389 -0.7873
   30SOL    HW3  151   0.807   4.006   0.597 -0.3329 -0.0703 -0.0786
   30SOL    MW4  152   0.796   4.005   0.511  0.1589 -0.5913 -0.1423
   31SOL     OW  153   1.578   2.341   0.853  0.3687  0.2265 -0.3221
   31SOL    HW2  154   1.501   2.386   0.819 -1.5429 -0.7776  2.4359
   31SOL    HW3  155   1.578   2.256   0.809 -0.2015  0.1750 -0.2238
   31SOL    MW4  156   1.568   2.336   0.843  0.0412  0.0872  0.0547
   32SOL     OW  157   2.024   3.134   0.901 -0.0729 -0.3261  0.6569
   32SOL    HW2  158   2.050   3.059   0.847 -1.6390 -0.8821  0.6353
   32SOL    HW3  159   1.955   3.176   0.850  0.1213  0.5677  1.1270
   32SOL    MW4  160   2.018   3.130   0.887 -0.2539 -0.2815  0.7160
   33SOL     OW  161   2.742   2.412   0.466  0.4759  0.1186 -0.6644
   33SOL    HW2  162   2.789   2.329   0.457  0.5887  0.1218 -0.1384
   33SOL    HW3  163   2.744   2.430   0.560 -1.8166 -0.6071 -0.4421
   33SOL    MW4  164   2.749   2.403   0.478  0.1883  0.0233 -0.5657
   34SOL     OW  165   0.269   0.088   0.616  0.2457  0.1390  0.2296
   34SOL    HW2  166   0.289   0.020   0.552 -0.6185 -1.3274  1.4666
   34SOL    HW3  167   0.176   0.107   0.602 -0.0543 -0.4855  1.2935
   34SOL    MW4  168   0.259   0.082   0.605  0.0921 -0.1369  0.5331
   35SOL     OW  169   1.824   3.148   0.496  0.0713  0.0061 -0.1032
   35SOL    HW2  170   1.756   3.180   0.437  1.2200  0.2537 -1.3386
   35SOL    HW3  171   1.821   3.052   0.485 -1.7824 -0.1953  1.8102
   35SOL    MW4  172   1.815   3.139   0.487 -0.0217  0.0122 -0.0138
   36SOL     OW  173   2.760   4.480   0.442 -0.2337 -0.1785  0.2697
   36SOL    HW2  174   2.794   4.555   0.393 -0.5491  0.5289  1.1148
   36SOL    HW3  175   2.838   4.433   0.473 -0.0172  0.8605  1.3328
   36SOL    MW4  176   2.775   4.484   0.440 -0.2467  0.0519  0.5215
   37SOL     OW  177   0.551   1.363   0.481 -0.0425 -0.4105 -0.1479
   37SOL    HW2  178   0.518   1.453   0.478 -0.9686 -0.7858 -1.3628
   37SOL    HW3  179   0.475   1.309   0.459  0.6227 -1.4679  0.1339
   37SOL    MW4  180   0.537   1.368   0.478 -0.0769 -0.5996 -0.2710
   38SOL     OW  181   3.396   0.786   0.828  0.0055  0.1054 -0.1752
   38SOL    HW2  182   3.388   0.705   0.777  0.8210  0.4264 -0.7983
   38SOL    HW3  183   3.486   0.815   0.814 -0.0055  0.6345  0.7911
   38SOL    MW4  184   3.407   0.779   0.820  0.1117  0.2176 -0.1299
   39SOL     OW  185   1.813   3.239   0.760  0.2287  0.5759  0.3195
   39SOL    HW2  186   1.821   3.197   0.675  0.9634  1.6694 -0.1620
   39SOL    HW3  187   1.735   3.200   0.799 -0.9987  1.1806 -1.4957
   39SOL    MW4  188   1.804   3.229   0.754  0.1637  0.8000  0.0165
   40SOL     OW  189   2.071   2.868   0.769  0.1015  0.0854  0.2604
   40SOL    HW2  190   2.053   2.841   0.678 -0.0148 -0.4779  0.4490
   40SOL    HW3  191   2.133   2.803   0.801 -1.1896 -0.7238  1.1399
   40SOL    MW4  192   2.077   2.856   0.761 -0.0842 -0.0957  0.4014
   41SOL     OW  193   2.019   2.084   0.441 -0.0627  0.0448  0.2688
   41SOL    HW2  194   2.082   2.146   0.405 -0.5883 -0.1564 -1.0709
   41SOL    HW3  195   2.035   2.083   0.535  0.2370  1.8833  0.2521
   41SOL    MW4  196   2.029   2.092   0.448 -0.0925  0.2608  0.0899
   42SOL     OW  197   3.592   1.937   0.866  0.0800  0.1731 -0.0489
   42SOL    HW2  198   3.669   1.989   0.841 -1.2603  2.3270  0.2039
   42SOL    HW3  199   3.588   1.867   0.800  1.1927  1.1034 -1.1300
   42SOL    MW4  200   3.602   1.934   0.854  0.0500  0.5800 -0.1582
   43SOL     OW  201   0.225   2.863   0.772  0.2021  0.0566 -0.0688
   43SOL    HW2  202   0.275   2.806   0.831 -1.6171 -0.7993  0.7114
   43SOL    HW3  203   0.243   2.952   0.803  0.2507 -0.3142  1.0067
   43SOL    MW4  204   0.234   2.867   0.784 -0.0315 -0.1053  0.1760
   44SOL     OW  205   1.547   4.443   0.460 -0.1681 -0.4800  0.4249
   44SOL    HW2  206   1.477   4.460   0.397  0.7293 -0.0898 -0.4738
   44SOL    HW3  207   1.604   4.519   0.455  1.6915 -1.9120 -0.6991
   44SOL    MW4  208   1.545   4.455   0.451  0.1956 -0.6174  0.1580
   45SOL     OW  209   4.294   3.015   0.498 -0.6730  0.4261  0.5682
   45SOL    HW2  210   4.384   2.982   0.496 -0.2014  1.6543  0.8420
   45SOL    HW3  211   4.241   2.940   0.523  0.1281 -0.6248 -0.8440
   45SOL    MW4  212   4.299   3.001   0.501 -0.5051  0.4495  0.4180
   46SOL     OW  213   2.521   2.083   0.700  0.2580 -0.3380  0.1301
   46SOL    HW2  214   2.542   2.091   0.607  1.6298  0.1180  0.4556
   46SOL    HW3  215   2.526   2.172   0.734  1.8974 -0.7518  1.0492
   46SOL    MW4  216   2.525   2.095   0.693  0.6553 -0.3324  0.2943
   47SOL     OW  217   2.934   3.130   0.899 -0.6355 -0.2069  0.6245
   47SOL    HW2  218   2.853   3.164   0.861  0.5187 -0.0832 -1.8024
   47SOL    HW3  219   2.937   3.038   0.870 -1.2461 -1.0008  2.9866
   47SOL    MW4  220   2.923   3.122   0.890 -0.5638 -0.2954  0.6160
   48SOL     OW  221   0.838   4.302   0.841  0.0192 -0.3294  0.1294
   48SOL    HW2  222   0.844   4.211   0.811 -0.1083 -0.9571  1.9643
   48SOL    HW3  223   0.921   4.342   0.812 -0.2676 -0.7951 -1.3858
   48SOL    MW4  224   0.850   4.295   0.833 -0.0355 -0.4737  0.1716
   49SOL     OW  225   2.915   1.255   0.437  0.0367  0.5839 -0.5527
   49SOL    HW2  226   2.982   1.306   0.392  0.0654  1.3010  0.2992
   49SOL    HW3  227   2.934   1.266   0.530 -0.4918 -0.2524 -0.3387
   49SOL    MW4  228   2.926   1.263   0.443 -0.0293  0.5682 -0.4121
   50SOL     OW  229   1.201   3.450   0.319 -0.0618 -0.1784 -0.1696
   50SOL    HW2  230   1.276   3.496   0.281  1.5656 -0.0945  3.0784
   50SOL    HW3  231   1.150   3.520   0.361 -0.0380 -0.7117  0.7514
   50SOL    MW4  232   1.204   3.465   0.319  0.1561 -0.2377  0.3805
   51SOL     OW  233   2.000   4.518   0.464 -0.2324  0.2452 -0.2691
   51SOL    HW2  234   2.057   4.595   0.460 -1.9922  1.5102 -1.2334
   51SOL    HW3  235   2.034   4.460   0.396  1.4826 -0.1562  0.8664
   51SOL    MW4  236   2.012   4.520   0.455 -0.2383  0.3591 -0.2465
   52SOL     OW  237   0.388   4.085   0.492  0.3312 -0.3258 -0.2558
   52SOL    HW2  238   0.312   4.143   0.485  0.2638 -0.4889 -0.9720
   52SOL    HW3  239   0.461   4.137   0.460  0.2241 -0.7065 -1.1639
   52SOL    MW4  240   0.387   4.099   0.487  0.3082 -0.3976 -0.4701
   53SOL     OW  241   0.470   2.433   0.487 -0.2982  0.4274  0.3798
   53SOL    HW2  242   0.421   2.502   0.442  1.0511  0.5801 -0.9036
   53SOL    HW3  243   0.475   2.361   0.424  1.6914  0.6737  0.2106
   53SOL    MW4  244   0.464   2.433   0.473  0.1423  0.4801  0.1881
   54SOL     OW  245   1.237   0.854   0.448 -0.2194  0.0157  0.4348
   54SOL    HW2  246   1.208   0.762   0.447 -0.2853  0.0357  0.4724
   54SOL    HW3  247   1.262   0.870   0.539  1.7260 -0.5607  0.0284
   54SOL    MW4  248   1.236   0.844   0.460  0.0286 -0.0577  0.3861
   55SOL     OW  249   0.210   3.876   0.821 -0.1425 -0.1275  0.0114
   55SOL    HW2  250   0.202   3.875   0.916 -1.4565  1.0204 -0.0714
   55SOL    HW3  251   0.293   3.920   0.804  0.1993 -0.5339  0.6307
   55SOL    MW4  252   0.220   3.882   0.831 -0.2708 -0.0297  0.0822
   56SOL     OW  253   2.327   0.920   0.468  0.1746 -0.7719 -0.1406
   56SOL    HW2  254   2.281   0.885   0.392  0.4316  1.8478 -1.5381
   56SOL    HW3  255   2.419   0.924   0.441  0.2466  0.2855  0.2376
   56SOL    MW4  256   2.333   0.916   0.454  0.2180 -0.2868 -0.2751
   57SOL     OW  257   0.436   0.974   0.784 -0.5546  0.4032  0.3046
   57SOL    HW2  258   0.520   0.927   0.784 -0.2071  1.0159  1.1356
   57SOL    HW3  259   0.375   0.914   0.826 -0.2386  0.4499  0.8449
   57SOL    MW4  260   0.439   0.960   0.790 -0.4670  0.4902  0.4855
   58SOL     OW  261   2.899   4.112   0.419 -0.3052  0.3712  0.4491
   58SOL    HW2  262   2.919   4.200   0.452 -0.9516  0.5922  0.2717
   58SOL    HW3  263   2.806   4.101   0.439 -0.9202  0.8218 -2.0000
   58SOL    MW4  264   2.889   4.122   0.426 -0.4716  0.4598  0.1026
   59SOL     OW  265   1.318   1.394   0.420 -0.3282  0.3425  0.1233
   59SOL    HW2  266   1.238   1.362   0.462 -1.3282 -0.3715 -2.2528
   59SOL    HW3  267   1.367   1.315   0.397  0.3978  0.7388  0.2971
   59SOL    MW4  268   1.314   1.379   0.422 -0.3644  0.3006 -0.1672
   60SOL     OW  269   1.337   3.231   0.725  0.4273 -0.4170  0.0665
   60SOL    HW2  270   1.338   3.223   0.630 -0.7483 -0.6919  0.0665
   60SOL    HW3  271   1.263   3.177   0.753 -1.1768  2.1382  0.9098
   60SOL    MW4  272   1.327   3.222   0.716  0.0605 -0.1162  0.1778
   61SOL     OW  273   0.087   0.610   0.522  0.5841 -0.2067  0.3242
   61SOL    HW2  274   0.127   0.541   0.469  0.0243  0.4103 -0.9043
   61SOL    HW3  275   0.115   0.692   0.481  0.6141  0.2928  1.3238
   61SOL    MW4  276   0.096   0.612   0.510  0.5142 -0.0594  0.2940
   62SOL     OW  277   2.463   0.203   0.415 -0.4125  0.1892  0.1184
   62SOL    HW2  278   2.516   0.196   0.494  2.3321  0.1202 -1.6560
   62SOL    HW3  279   2.425   0.291   0.419  1.1107  0.8405  0.6811
   62SOL    MW4  280   2.465   0.214   0.426  0.1506  0.2660 -0.0415
   63SOL     OW  281   1.125   3.091   0.825  0.3619  0.0191  0.2400
   63SOL    HW2  282   1.053   3.145   0.792 -0.3594 -0.1929  1.4348
   63SOL    HW3  283   1.097   3.001   0.810  0.4163 -0.0626  0.6043
   63SOL    MW4  284   1.112   3.086   0.819  0.2739 -0.0197  0.4457
   64SOL     OW  285   1.407   2.630   0.275 -0.2829  0.1394 -0.3744
   64SOL    HW2  286   1.371   2.606   0.360 -0.6012  0.2852 -0.4681
   64SOL    HW3  287   1.451   2.550   0.244  0.9113  0.4478  0.4749
   64SOL    MW4  288   1.408   2.616   0.282 -0.1673  0.1994 -0.2747
   65SOL     OW  289   2.217   1.753   0.251 -0.1478  0.3210 -0.2665
   65SOL    HW2  290   2.132   1.796   0.256  0.0466  0.6322  0.4885
   65SOL    HW3  291   2.226   1.707   0.335  0.4453  0.3351 -0.3167
   65SOL    MW4  292   2.207   1.752   0.263 -0.0439  0.3640 -0.1735
   66SOL     OW  293   0.662   3.130   0.836  0.2903 -0.2674  0.0602
   66SOL    HW2  294   0.589   3.188   0.815  0.0732 -0.5708 -0.0303
   66SOL    HW3  295   0.661   3.124   0.932 -0.7702 -1.5022 -0.0191
   66SOL    MW4  296   0.652   3.137   0.846  0.1217 -0.4703  0.0378
   67SOL     OW  297   0.785   3.737   0.369 -0.6149  0.4651 -0.4234
   67SOL    HW2  298   0.787   3.825   0.408 -1.3977  0.2064  0.2042
   67SOL    HW3  299   0.874   3.704   0.382 -0.4880  0.9188 -0.0903
   67SOL    MW4  300   0.797   3.745   0.376 -0.7015  0.4908 -0.2967
   68SOL     OW  301   1.023   3.233   0.291 -0.1450 -0.1682  0.1949
   68SOL    HW2  302   1.089   3.164   0.292 -0.1248 -0.2636 -2.8081
   68SOL    HW3  303   1.072   3.314   0.280 -0.4415 -0.1045 -0.6747
   68SOL    MW4  304   1.038   3.235   0.290 -0.1815 -0.1724 -0.3160
   69SOL     OW  305   1.803   0.914   0.696 -0.1581 -0.0458  0.0724
   69SOL    HW2  306   1.793   1.001   0.735 -1.7301 -0.7157  1.1968
   69SOL    HW3  307   1.878   0.876   0.741 -1.7652 -0.6971  2.2874
   69SOL    MW4  308   1.811   0.921   0.707 -0.5775 -0.2201  0.5130
   70SOL     OW  309   4.445   3.989   0.756  0.3770  0.6198  0.2576
   70SOL    HW2  310   4.386   3.930   0.802  0.5402 -0.4658 -0.8900
   70SOL    HW3  311   4.532   3.950   0.768  0.7235  1.6419  1.0673
   70SOL    MW4  312   4.449   3.976   0.763  0.4442  0.6114  0.2130
   71SOL     OW  313   3.318   4.644   0.809 -0.0509  0.0732 -0.2135
   71SOL    HW2  314   3.331   4.631   0.903  0.7684  0.7879 -0.2164
   71SOL    HW3  315   3.394   4.695   0.781 -0.3212 -0.0724 -1.2551
   71SOL    MW4  316   3.330   4.649   0.817  0.0215  0.1483 -0.3513
   72SOL     OW  317   4.467   2.362   0.497  0.2880  0.2359 -0.3410
   72SOL    HW2  318   4.393   2.334   0.443  0.6182  0.3249 -0.8324
   72SOL    HW3  319   4.534   2.295   0.484 -0.1652 -0.5272  1.0907
   72SOL    MW4  320   4.466   2.349   0.488  0.2718  0.1470 -0.2169
   73SOL     OW  321   0.644   2.100   0.490  0.4265  0.0885 -0.1245
   73SOL    HW2  322   0.555   2.129   0.471  0.2921 -0.2095  0.0372
   73SOL    HW3  323   0.645   2.008   0.466  0.6444  0.0511  0.0206
   73SOL    MW4  324   0.633   2.092   0.485  0.4375  0.0442 -0.0841
   74SOL     OW  325   2.471   4.411   0.734  0.4231  0.4344  0.4124
   74SOL    HW2  326   2.388   4.366   0.753  0.2753  0.3558 -0.3666
   74SOL    HW3  327   2.483   4.398   0.640  0.8289  1.2874  0.3464
   74SOL    MW4  328   2.462   4.403   0.724  0.4571  0.5366  0.3009
   75SOL     OW  329   2.850   3.486   0.459  0.2612  0.0278  0.1401
   75SOL    HW2  330   2.860   3.536   0.540 -2.3508 -0.6782  0.9425
   75SOL    HW3  331   2.934   3.440   0.449  1.5995  2.2050  0.9651
   75SOL    MW4  332   2.862   3.486   0.469  0.0932  0.2219  0.3548
   76SOL     OW  333   2.638   4.068   0.503 -0.2669  0.8161 -0.4834
   76SOL    HW2  334   2.645   4.041   0.595  0.7565  1.5653 -0.3217
   76SOL    HW3  335   2.603   3.992   0.458 -1.0430  0.5272  0.5746
   76SOL    MW4  336   2.634   4.054   0.509 -0.2343  0.8768 -0.3225
   77SOL     OW  337   4.374   1.267   0.762 -0.3094  0.0558  0.5122
   77SOL    HW2  338   4.424   1.191   0.793  0.3425  0.2950  0.0660
   77SOL    HW3  339   4.284   1.236   0.758  0.0749 -0.9609 -0.4994
   77SOL    MW4  340   4.369   1.253   0.766 -0.1727 -0.0468  0.3198
   78SOL     OW  341   2.024   1.272   0.482 -0.1356 -0.2656  0.5106
   78SOL    HW2  342   1.987   1.348   0.436 -0.8042 -1.0371 -0.2271
   78SOL    HW3  343   1.969   1.199   0.455  1.4698 -1.2980 -0.0146
   78SOL    MW4  344   2.012   1.273   0.472 -0.0120 -0.5036  0.3440
   79SOL     OW  345   2.067   2.435   0.154  0.2946  0.2412 -0.4656
   79SOL    HW2  346   2.092   2.373   0.222 -1.3416  0.7630  0.6287
   79SOL    HW3  347   2.133   2.422   0.085  1.7226 -0.5849  1.0089
   79SOL    MW4  348   2.079   2.425   0.154  0.2671  0.2011 -0.1267
   80SOL     OW  349   0.467   3.152   0.530  0.3470 -0.0664  0.2659
   80SOL    HW2  350   0.372   3.156   0.519  0.2629 -0.8762  0.6668
   80SOL    HW3  351   0.487   3.058   0.529  0.9959  0.0520  1.4590
   80SOL    MW4  352   0.457   3.140   0.528  0.4215 -0.1576  0.4762
   81SOL     OW  353   0.393   2.858   0.542  0.1502 -0.4340  0.5785
   81SOL    HW2  354   0.350   2.799   0.480 -1.1537  0.7306  0.3343
   81SOL    HW3  355   0.329   2.869   0.613 -0.5852  2.3823 -0.4257
   81SOL    MW4  356   0.379   2.852   0.543 -0.1188  0.0912  0.4138
   82SOL     OW  357   2.495   2.838   0.800 -0.6435 -0.0288 -0.4302
   82SOL    HW2  358   2.502   2.929   0.828 -0.9159 -0.1442  0.0115
   82SOL    HW3  359   2.583   2.802   0.814 -0.6784  0.0194 -0.1033
   82SOL    MW4  360   2.508   2.845   0.805 -0.6840 -0.0377 -0.3288
   83SOL     OW  361   3.580   4.204   0.338  0.2196  0.3606 -0.4434
   83SOL    HW2  362   3.526   4.229   0.263  0.1709  1.0536 -0.1840
   83SOL    HW3  363   3.650   4.270   0.340  0.1194  0.4539  0.2235
   83SOL    MW4  364   3.582   4.216   0.328  0.1999  0.4643 -0.3212
   84SOL     OW  365   3.336   3.082   0.906 -0.0997 -0.3218  0.0858
   84SOL    HW2  366   3.265   3.138   0.876  0.0366 -0.9170 -1.3870
   84SOL    HW3  367   3.315   3.065   0.998 -1.3411  0.3115 -0.0622
   84SOL    MW4  368   3.324   3.087   0.914 -0.2455 -0.3167 -0.1280
   85SOL     OW  369   2.543   1.137   0.091 -0.3432  0.2410 -0.2077
   85SOL    HW2  370   2.449   1.154   0.099 -0.5306 -1.4839  1.7231
   85SOL    HW3  371   2.560   1.140  -0.003 -2.6025 -0.7302 -0.6795
   85SOL    MW4  372   2.533   1.140   0.080 -0.6660 -0.1147 -0.0152
   86SOL     OW  373   4.283   2.087   0.761  0.0652  0.0361  0.4400
   86SOL    HW2  374   4.362   2.035   0.775 -0.1048 -0.4505 -0.3439
   86SOL    HW3  375   4.215   2.042   0.811  0.1771  0.1775  0.7198
   86SOL    MW4  376   4.285   2.074   0.769  0.0575 -0.0094  0.3735
   87SOL     OW  377   0.273   0.147   0.263 -0.3461  0.1822  0.1150
   87SOL    HW2  378   0.277   0.053   0.281  1.9406 -0.1036 -1.6976
   87SOL    HW3  379   0.360   0.180   0.286 -0.2594  1.3563 -1.7721
   87SOL    MW4  380   0.285   0.139   0.268 -0.0329  0.2994 -0.3732
   88SOL     OW  381   4.262   3.128   0.861  0.7709 -0.5153 -0.7387
   88SOL    HW2  382   4.180   3.165   0.830  0.9013  1.5460  1.2447
   88SOL    HW3  383   4.330   3.181   0.820  1.0707 -0.8993 -0.7497
   88SOL    MW4  384   4.260   3.140   0.852  0.8277 -0.2940 -0.4785
   89SOL     OW  385   0.203   2.067   0.747  0.1774  0.2157  0.2047
   89SOL    HW2  386   0.282   2.025   0.782  0.3426  0.4933  0.1656
   89SOL    HW3  387   0.194   2.147   0.798 -0.8011 -0.4396  1.0827
   89SOL    MW4  388   0.212   2.072   0.759  0.0701  0.1659  0.3153
   90SOL     OW  389   4.412   4.260   0.826  0.2167 -0.1507 -0.4273
   90SOL    HW2  390   4.411   4.260   0.922  1.9258  0.8861 -0.3909
   90SOL    HW3  391   4.428   4.168   0.802  1.4512 -0.1332  0.3091
   90SOL    MW4  392   4.414   4.248   0.836  0.6050 -0.0116 -0.3253
   91SOL     OW  393   2.062   2.722   0.521 -0.1164 -0.2234  0.6014
   91SOL    HW2  394   2.126   2.651   0.521 -0.3818 -0.4586  1.0289
   91SOL    HW3  395   1.977   2.678   0.520 -0.2808  0.0785 -1.3673
   91SOL    MW4  396   2.059   2.707   0.521 -0.1731 -0.2146  0.3980
   92SOL     OW  397   2.909   2.073   0.714  0.1785  0.3542  0.5209
   92SOL    HW2  398   2.994   2.037   0.738  0.0923 -0.2505 -0.0676
   92SOL    HW3  399   2.846   2.016   0.759  0.0612  0.2280  0.1955
   92SOL    MW4  400   2.912   2.060   0.723  0.1516  0.2578  0.4004
   93SOL     OW  401   1.764   0.127   0.707 -0.2334 -0.2925  0.3431
   93SOL    HW2  402   1.695   0.078   0.753 -0.5027 -0.8610 -0.6446
   93SOL    HW3  403   1.844   0.079   0.727 -0.1029  0.4471  1.6057
   93SOL    MW4  404   1.765   0.114   0.716 -0.2517 -0.2699  0.3793
   94SOL     OW  405   2.227   0.031   0.434 -0.2985  0.5823 -0.1855
   94SOL    HW2  406   2.250  -0.050   0.389 -1.1503 -0.1654  0.7010
   94SOL    HW3  407   2.308   0.083   0.434  0.7014 -0.9506  0.6453
   94SOL    MW4  408   2.241   0.028   0.428 -0.2789  0.2814  0.0411
   95SOL     OW  409   1.565   2.075   0.737 -0.4021 -0.6640  0.1761
   95SOL    HW2  410   1.536   2.084   0.646  0.1420  1.0865  0.1676
   95SOL    HW3  411   1.498   2.020   0.778 -1.5934  0.0014 -0.8497
   95SOL    MW4  412   1.552   2.069   0.731 -0.4875 -0.3452  0.0397
   96SOL     OW  413   1.585   0.974   0.163  0.0400 -0.1818 -0.2411
   96SOL    HW2  414   1.536   0.992   0.082  0.5407  1.1405 -0.2637
   96SOL    HW3  415   1.660   0.922   0.134  1.3276  1.9976 -0.9636
   96SOL    MW4  416   1.588   0.969   0.148  0.2760  0.2802 -0.3394
   97SOL     OW  417   1.700   3.695   0.469  0.0273 -0.3508  0.4511
   97SOL    HW2  418   1.755   3.772   0.483 -1.4316  0.9632 -0.8592
   97SOL    HW3  419   1.759   3.631   0.429  1.1398  0.2383  1.1083
   97SOL    MW4  420   1.715   3.697   0.466 -0.0184 -0.0997  0.3649
   98SOL     OW  421   1.468   3.820   0.339  0.3358 -0.0909 -0.3980
   98SOL    HW2  422   1.461   3.909   0.304  0.5298 -0.4530 -1.3698
   98SOL    HW3  423   1.551   3.819   0.387  0.6508  0.0660 -0.9398
   98SOL    MW4  424   1.478   3.832   0.341  0.4030 -0.1180 -0.5977
   99SOL     OW  425   1.106   1.550   0.844 -0.1947 -0.1945  0.0850
   99SOL    HW2  426   1.101   1.460   0.812 -0.7175  0.2355 -1.0788
   99SOL    HW3  427   1.196   1.577   0.826 -0.0992 -0.4082  0.2353
   99SOL    MW4  428   1.117   1.542   0.837 -0.2511 -0.1660 -0.0487
  100SOL     OW  429   1.367   0.144   0.689 -0.2727 -0.0946 -0.4864
  100SOL    HW2  430   1.438   0.101   0.736 -0.9950 -0.5205  0.2514
  100SOL    HW3  431   1.360   0.231   0.729 -0.2964 -0.1265 -0.4209
  100SOL    MW4  432   1.375   0.150   0.700 -0.3711 -0.1550 -0.3804
  101SOL     OW  433   4.009   1.899   0.416  0.4009 -0.3511 -0.1477
  101SOL    HW2  434   4.082   1.957   0.433 -0.1087  0.3393 -0.2923
  101SOL    HW3  435   4.044   1.811   0.429  0.7484  0.0465  1.6792
  101SOL    MW4  436   4.023   1.895   0.420  0.3795 -0.2075  0.0742
  102SOL     OW  437   1.799   0.818   0.081 -0.1670 -0.3485  0.0506
  102SOL    HW2  438   1.880   0.868   0.079 -1.0434  1.1937  1.5186
  102SOL    HW3  439   1.814   0.750   0.147  0.1287 -0.4133 -0.0847
  102SOL    MW4  440   1.812   0.816   0.089 -0.2436 -0.1536  0.2265
  103SOL     OW  441   0.847   4.026   0.775  0.0222  0.0478 -0.4553
  103SOL    HW2  442   0.782   3.971   0.819 -0.0956  2.3375  2.4049
  103SOL    HW3  443   0.930   3.978   0.785 -0.1754  0.0722  1.4981
  103SOL    MW4  444   0.850   4.012   0.782 -0.0194  0.3531  0.1798
  104SOL     OW  445   4.036   2.753   0.826 -0.3118  0.2878 -0.4256
  104SOL    HW2  446   4.056   2.662   0.802 -0.9843 -0.3847  1.4574
  104SOL    HW3  447   4.119   2.799   0.813  0.5757 -1.0066  0.4272
  104SOL    MW4  448   4.050   2.747   0.822 -0.2834  0.0283 -0.0647
  105SOL     OW  449   4.089   3.762   0.391  0.1017  0.1744 -0.3320
  105SOL    HW2  450   4.103   3.808   0.308 -0.7273 -0.1900 -0.6791
  105SOL    HW3  451   4.106   3.827   0.458  1.7523  0.2222 -0.7676
  105SOL    MW4  452   4.093   3.776   0.389  0.2101  0.1327 -0.4353
  106SOL     OW  453   0.941   0.412   0.401  0.0479  0.0511 -0.0846
  106SOL    HW2  454   1.013   0.476   0.400  0.8898 -0.8849 -1.3280
  106SOL    HW3  455   0.862   0.465   0.394  0.7659  0.9530 -1.7855
  106SOL    MW4  456   0.940   0.427   0.400  0.2537  0.0466 -0.4731
  107SOL     OW  457   2.721   0.952   0.680  0.0210 -0.1605  0.8650
  107SOL    HW2  458   2.720   1.033   0.731 -0.0116 -0.4367  1.3049
  107SOL    HW3  459   2.795   0.902   0.715  0.3689 -0.0937  0.2360
  107SOL    MW4  460   2.731   0.956   0.691  0.0626 -0.1881  0.8401
  108SOL     OW  461   1.810   1.952   0.791  0.0333  0.4113 -0.1252
  108SOL    HW2  462   1.725   1.994   0.780  0.1985  0.9535  0.6589
  108SOL    HW3  463   1.800   1.867   0.747 -0.8554  0.5393 -0.1850
  108SOL    MW4  464   1.797   1.946   0.784 -0.0622  0.4997 -0.0296
  109SOL     OW  465   1.623   0.382   0.255 -0.1368 -0.3791  0.1214
  109SOL    HW2  466   1.707   0.411   0.290 -0.6288  1.4865 -0.2028
  109SOL    HW3  467   1.643   0.357   0.164  0.6383 -2.8484  0.9211
  109SOL    MW4  468   1.637   0.383   0.248 -0.0994 -0.4587  0.1841
  110SOL     OW  469   0.884   3.436   0.888  0.1633 -0.4205 -0.2663
  110SOL    HW2  470   0.889   3.353   0.841 -0.1935  0.0002 -1.0637
  110SOL    HW3  471   0.830   3.492   0.832 -1.4997 -0.3764  1.3527
  110SOL    MW4  472   0.877   3.433   0.874 -0.1032 -0.3592 -0.1579
  111SOL     OW  473   2.008   1.289   0.756  0.3754  0.3197 -0.1209
  111SOL    HW2  474   2.017   1.296   0.661  0.9504  0.3218 -0.0722
  111SOL    HW3  475   2.076   1.226   0.781 -0.7530 -0.8169  0.1250
  111SOL    MW4  476   2.018   1.282   0.746  0.3024  0.1700 -0.0821
  112SOL     OW  477   4.272   3.552   0.490 -0.4857 -0.1844  0.3790
  112SOL    HW2  478   4.214   3.609   0.439  1.0261  0.3482 -0.7602
  112SOL    HW3  479   4.255   3.577   0.581 -1.4750  0.5210  0.0165
  112SOL    MW4  480   4.262   3.563   0.495 -0.4167 -0.0211  0.1809
  113SOL     OW  481   0.454   1.684   0.789 -0.1329 -0.2486 -0.6224
  113SOL    HW2  482   0.538   1.654   0.823 -0.3167  0.0647  0.1295
  113SOL    HW3  483   0.451   1.777   0.814 -0.5539 -0.1780 -0.9421
  113SOL    MW4  484   0.465   1.692   0.797 -0.2127 -0.1980 -0.5654
  114SOL     OW  485   1.112   4.390   0.132  0.0141  0.2310 -0.2915
  114SOL    HW2  486   1.176   4.437   0.186 -0.9058  0.6271  0.4661
  114SOL    HW3  487   1.139   4.409   0.042  0.1772  1.4990  0.0066
  114SOL    MW4  488   1.124   4.399   0.127 -0.0857  0.4505 -0.1523
  115SOL     OW  489   1.332   2.475   0.769  0.1217  0.1034  0.3784
  115SOL    HW2  490   1.342   2.470   0.674  2.0890 -0.3622  0.5928
  115SOL    HW3  491   1.325   2.569   0.787  2.1179  0.3530 -0.0246
  115SOL    MW4  492   1.332   2.487   0.759  0.6446  0.0749  0.3535
  116SOL     OW  493   1.716   2.867   0.487  0.2374 -0.8563 -0.2544
  116SOL    HW2  494   1.666   2.893   0.410 -0.0675 -0.1949  0.1588
  116SOL    HW3  495   1.650   2.859   0.557  0.7998  1.0061  0.5395
  116SOL    MW4  496   1.701   2.870   0.486  0.2714 -0.5233 -0.0952
  117SOL     OW  497   3.096   0.117   0.432 -0.2250  0.0596 -0.0128
  117SOL    HW2  498   3.002   0.106   0.415 -0.1929  1.0656 -0.9071
  117SOL    HW3  499   3.101   0.154   0.520 -0.6141 -1.0192  0.4686
  117SOL    MW4  500   3.084   0.120   0.441 -0.2721  0.0500 -0.0672
  118SOL     OW  501   2.893   4.406   0.773  0.5463  0.2953 -0.1060
  118SOL    HW2  502   2.891   4.502   0.776  1.3953  0.3085 -0.0538
  118SOL    HW3  503   2.800   4.381   0.771  0.3243  1.1312 -0.6856
  118SOL    MW4  504   2.880   4.416   0.773  0.6290  0.4074 -0.1756
  119SOL     OW  505   0.233   1.751   0.381  0.1531  0.1781  0.5044
  119SOL    HW2  506   0.185   1.676   0.346  1.6998 -0.2968 -0.6686
  119SOL    HW3  507   0.170   1.823   0.380 -1.0416 -0.8476  0.6761
  119SOL    MW4  508   0.218   1.750   0.377  0.1995 -0.0198  0.3723
  120SOL     OW  509   1.528   1.295   0.716  0.3921 -0.3618 -0.1115
  120SOL    HW2  510   1.519   1.250   0.632 -0.5498 -0.0512 -0.1916
  120SOL    HW3  511   1.456   1.260   0.769  0.0522  0.5494  0.0468
  120SOL    MW4  512   1.517   1.284   0.712  0.2230 -0.2006 -0.1012
  121SOL     OW  513   1.337   3.489   0.814 -0.2999 -0.1369  0.0802
  121SOL    HW2  514   1.404   3.538   0.767 -0.5753  0.4864  0.3390
  121SOL    HW3  515   1.343   3.400   0.778  1.5327 -0.4115  1.0119
  121SOL    MW4  516   1.346   3.484   0.803 -0.0944 -0.0909  0.2373
  122SOL     OW  517   3.792   2.354   0.924  0.1951 -0.1657  0.3782
  122SOL    HW2  518   3.714   2.374   0.873  2.2812  1.6352 -2.2307
  122SOL    HW3  519   3.814   2.264   0.901 -0.1211 -0.0920 -0.2092
  122SOL    MW4  520   3.785   2.344   0.915  0.4286  0.0816 -0.0435
  123SOL     OW  521   1.991   0.005   0.819  0.1939 -0.3228 -0.1004
  123SOL    HW2  522   2.064   0.063   0.798  0.4191 -0.3276  0.6604
  123SOL    HW3  523   2.023  -0.083   0.799  0.4715 -0.3445  0.4349
  123SOL    MW4  524   2.005   0.001   0.814  0.2602 -0.3263  0.0706
  124SOL     OW  525   2.651   0.199   0.209  0.4552 -0.1286 -0.1520
  124SOL    HW2  526   2.582   0.190   0.274  2.1826 -1.6148  1.5281
  124SOL    HW3  527   2.623   0.143   0.136 -0.2858 -0.4234  0.3583
  124SOL    MW4  528   2.639   0.190   0.208  0.5853 -0.3636  0.1370
  125SOL     OW  529   0.984   0.137   0.441 -0.3848  0.1777 -0.1889
  125SOL    HW2  530   1.077   0.120   0.428 -0.6545 -0.4607 -1.3657
  125SOL    HW3  531   0.974   0.230   0.419  0.0168  0.3152  0.1979
  125SOL    MW4  532   0.995   0.147   0.436 -0.3674  0.1116 -0.2932
  126SOL     OW  533   0.661   2.077   0.775  0.2736 -0.0784 -0.3264
  126SOL    HW2  534   0.662   2.079   0.679  0.3085 -0.3231 -0.3320
  126SOL    HW3  535   0.666   2.168   0.801 -1.6142  0.1277 -0.5729
  126SOL    MW4  536   0.661   2.089   0.766  0.0291 -0.0835 -0.3596
  127SOL     OW  537   2.239   2.498   0.490 -0.1369  0.3086  0.2802
  127SOL    HW2  538   2.324   2.527   0.456  0.2569 -1.7201 -0.5490
  127SOL    HW3  539   2.260   2.464   0.577 -0.0882 -0.2085  0.0685
  127SOL    MW4  540   2.253   2.497   0.497 -0.0785 -0.0273  0.1429
  128SOL     OW  541   2.556   1.814   0.363  0.1922 -0.1754  0.4827
  128SOL    HW2  542   2.483   1.773   0.409 -0.4099  0.4383  0.0816
  128SOL    HW3  543   2.523   1.830   0.274  0.9048 -0.1447  0.2142
  128SOL    MW4  544   2.542   1.810   0.357  0.2068 -0.0904  0.3944
  129SOL     OW  545   3.774   4.406   0.417  0.1843 -0.0126  0.5729
  129SOL    HW2  546   3.854   4.357   0.438  0.3661  0.6079  1.3538
  129SOL    HW3  547   3.804   4.486   0.374  0.0196  0.4587  1.3248
  129SOL    MW4  548   3.789   4.410   0.414  0.1866  0.1314  0.7751
  130SOL     OW  549   2.205   2.267   0.336 -0.1385 -0.3644  0.2537
  130SOL    HW2  550   2.240   2.346   0.376 -0.8069  1.2062 -2.1457
  130SOL    HW3  551   2.274   2.238   0.275 -0.9719 -0.0661 -0.8551
  130SOL    MW4  552   2.218   2.273   0.333 -0.3366 -0.1179 -0.2092
  131SOL     OW  553   2.959   0.546   0.407  0.5947 -0.2500 -0.3396
  131SOL    HW2  554   2.929   0.541   0.498 -0.1944 -0.2732 -0.5909
  131SOL    HW3  555   2.999   0.632   0.399  1.7228 -0.6961  0.3373
  131SOL    MW4  556   2.960   0.556   0.418  0.6394 -0.3119 -0.2835
  132SOL     OW  557   4.218   4.458   0.780  0.5674  0.2482 -0.2236
  132SOL    HW2  558   4.287   4.392   0.784  1.0071  0.4741 -3.1819
  132SOL    HW3  559   4.256   4.536   0.820  1.8452  0.2123 -1.3549
  132SOL    MW4  560   4.232   4.459   0.786  0.7940  0.2733 -0.7632
  133SOL     OW  561   1.555   0.770   0.749  0.8354 -0.2800  0.1392
  133SOL    HW2  562   1.624   0.837   0.744  0.5557  0.1138  1.3919
  133SOL    HW3  563   1.474   0.819   0.735  0.7163 -0.5503 -0.1215
  133SOL    MW4  564   1.554   0.786   0.746  0.7828 -0.2637  0.2701
  134SOL     OW  565   0.622   3.864   0.880 -0.2188 -0.4404 -0.3554
  134SOL    HW2  566   0.554   3.875   0.813 -0.0095  0.9671 -0.3484
  134SOL    HW3  567   0.655   3.775   0.866 -0.3577 -0.2563 -1.9725
  134SOL    MW4  568   0.618   3.854   0.869 -0.2095 -0.2304 -0.5678
  135SOL     OW  569   1.069   3.660   0.475 -0.4407 -0.1009 -0.3452
  135SOL    HW2  570   1.075   3.627   0.565 -2.0385  1.9569  0.5607
  135SOL    HW3  571   1.117   3.743   0.477 -2.7742  1.2889 -0.6743
  135SOL    MW4  572   1.076   3.667   0.487 -0.9594  0.3540 -0.2691
  136SOL     OW  573   0.883   1.696   0.739  0.3571  0.3619  0.2195
  136SOL    HW2  574   0.894   1.785   0.772 -0.0936 -0.0474  1.5137
  136SOL    HW3  575   0.955   1.647   0.778 -0.7525 -0.3472  1.4307
  136SOL    MW4  576   0.894   1.701   0.749  0.1513  0.2143  0.5500
  137SOL     OW  577   0.103   1.500   0.346  0.0650  0.2652  0.0896
  137SOL    HW2  578   0.114   1.446   0.424  1.4631  1.0548  0.4585
  137SOL    HW3  579   0.143   1.450   0.275  0.6543  0.4641  0.2813
  137SOL    MW4  580   0.110   1.487   0.347  0.3272  0.3956  0.1636
  138SOL     OW  581   0.637   0.027   0.809  0.3123  0.0787  0.3125
  138SOL    HW2  582   0.624   0.040   0.902  2.5433 -0.1520  0.6985
  138SOL    HW3  583   0.612  -0.065   0.794 -0.5345  0.2638  0.5734
  138SOL    MW4  584   0.632   0.016   0.819  0.4949  0.0727  0.3979
  139SOL     OW  585   0.247   3.621   0.711 -0.0655 -0.2528  0.5907
  139SOL    HW2  586   0.219   3.704   0.748  1.5552  0.5549  0.0374
  139SOL    HW3  587   0.323   3.595   0.763 -0.0134 -0.9464  0.1812
  139SOL    MW4  588   0.253   3.629   0.723  0.1552 -0.2378  0.4636
  140SOL     OW  589   0.197   3.179   0.508  0.1162 -0.2826  0.3850
  140SOL    HW2  590   0.145   3.255   0.484  0.9613  0.2332  0.1998
  140SOL    HW3  591   0.136   3.105   0.498 -0.2864  0.2000 -0.8253
  140SOL    MW4  592   0.182   3.179   0.504  0.1746 -0.1509  0.2009
  141SOL     OW  593   2.599   0.942   0.312  0.0807 -0.0817  0.0324
  141SOL    HW2  594   2.688   0.945   0.347  0.3856  1.2564 -0.8100
  141SOL    HW3  595   2.596   1.014   0.248 -1.5859 -0.1364  0.0277
  141SOL    MW4  596   2.610   0.952   0.308 -0.0989  0.0876 -0.0793
  142SOL     OW  597   3.878   3.581   0.464 -0.0474 -0.1937 -0.1078
  142SOL    HW2  598   3.795   3.626   0.446  0.0939 -0.4787 -1.5781
  142SOL    HW3  599   3.945   3.644   0.436  0.3126  0.9360  3.1584
  142SOL    MW4  600   3.876   3.596   0.458  0.0188 -0.0823  0.1291
  143SOL     OW  601   2.709   1.908   0.808  0.5982 -0.1598  0.3008
  143SOL    HW2  602   2.633   1.962   0.784  1.5104  0.5603 -1.0564
  143SOL    HW3  603   2.716   1.917   0.903  0.3852  1.6725  0.1714
  143SOL    MW4  604   2.700   1.917   0.817  0.6905  0.1770  0.1046
  144SOL     OW  605   1.311   4.254   0.873  0.0708  0.0039  0.2360
  144SOL    HW2  606   1.240   4.313   0.849 -0.4065 -0.7867 -0.2863
  144SOL    HW3  607   1.388   4.291   0.831 -0.2236  0.2694 -0.0689
  144SOL    MW4  608   1.312   4.267   0.865 -0.0310 -0.0653  0.1269
  145SOL     OW  609   2.345   3.626   0.346  0.1196 -0.5939  0.0870
  145SOL    HW2  610   2.365   3.610   0.253  0.2533 -0.3096  0.0642
  145SOL    HW3  611   2.376   3.548   0.391  1.8148  0.0725  0.1171
  145SOL    MW4  612   2.352   3.614   0.339  0.3609 -0.4685  0.0880
  146SOL     OW  613   2.857   0.013   0.802 -0.0965 -0.3835  0.2427
  146SOL    HW2  614   2.926   0.058   0.753  0.2602 -0.7242  0.4298
  146SOL    HW3  615   2.777   0.034   0.754  0.4650 -2.2892 -1.6443
  146SOL    MW4  616   2.856   0.021   0.789  0.0247 -0.6799  0.0184
  147SOL     OW  617   2.553   3.791   0.468  0.1076 -0.4149  0.5953
  147SOL    HW2  618   2.485   3.753   0.413 -0.4180 -0.0552  0.9988
  147SOL    HW3  619   2.539   3.753   0.554 -0.1569  0.3743  0.8977
  147SOL    MW4  620   2.542   3.781   0.472  0.0033 -0.2633  0.6885
  148SOL     OW  621   2.396   3.860   0.808  0.5181  0.0532  0.5806
  148SOL    HW2  622   2.323   3.903   0.762  1.1774  0.5421 -0.0244
  148SOL    HW3  623   2.392   3.769   0.779  0.7486  0.2959 -0.2178
  148SOL    MW4  624   2.386   3.854   0.798  0.6355  0.1497  0.3954
  149SOL     OW  625   2.731   3.015   0.399 -0.1762  0.0525  0.2140
  149SOL    HW2  626   2.679   2.948   0.445  0.7737  0.1958  1.5110
  149SOL    HW3  627   2.733   2.985   0.309 -0.5053 -1.2198  0.6131
  149SOL    MW4  628   2.724   3.002   0.393 -0.0943 -0.0964  0.4378
  150SOL     OW  629   0.814   1.382   0.383  0.1732  0.3348  0.6879
  150SOL    HW2  630   0.719   1.370   0.396 -0.0201 -0.1817 -1.1032
  150SOL    HW3  631   0.826   1.477   0.388 -0.3131  0.3472  1.7509
  150SOL    MW4  632   0.803   1.393   0.385  0.0836  0.2683  0.5918
  151SOL     OW  633   4.098   1.641   0.512 -0.2616  0.1169 -0.0286
  151SOL    HW2  634   4.193   1.642   0.512 -0.2557  0.1755  1.2707
  151SOL    HW3  635   4.073   1.669   0.600 -1.5099  1.8486 -0.9040
  151SOL    MW4  636   4.107   1.645   0.524 -0.4255  0.3531  0.0273
  152SOL     OW  637   4.279   2.684   0.531 -0.7927 -0.1339  0.1261
  152SOL    HW2  638   4.253   2.755   0.589  0.3190  0.5602 -0.2077
  152SOL    HW3  639   4.200   2.631   0.520 -0.9561 -0.4096  2.4404
  152SOL    MW4  640   4.265   2.686   0.537 -0.6675 -0.0787  0.3874
  153SOL     OW  641   3.498   1.717   0.412 -0.0682  0.2068  0.0895
  153SOL    HW2  642   3.472   1.625   0.420 -0.4486  0.3117  0.0565
  153SOL    HW3  643   3.586   1.713   0.373 -0.3951 -0.1175 -0.6277
  153SOL    MW4  644   3.506   1.704   0.408 -0.1615  0.1779 -0.0095
  154SOL     OW  645   2.635   0.125   0.650  0.3712 -0.0932 -0.1635
  154SOL    HW2  646   2.658   0.200   0.705  1.5497 -1.6087  1.4614
  154SOL    HW3  647   2.561   0.084   0.694 -0.4878  0.2793 -1.2280
  154SOL    MW4  648   2.628   0.129   0.663  0.4133 -0.2440 -0.0895
  155SOL     OW  649   3.098   1.442   0.321  0.2928  0.0288  0.0354
  155SOL    HW2  650   3.187   1.442   0.357  0.3916  1.4584 -0.1465
  155SOL    HW3  651   3.079   1.535   0.306 -0.5835 -0.3865 -1.5156
  155SOL    MW4  652   3.107   1.455   0.324  0.1902  0.1626 -0.1933
  156SOL     OW  653   1.326   1.921   0.805 -0.1889  0.2620  0.0736
  156SOL    HW2  654   1.333   1.828   0.783 -0.7354  0.4448 -0.8770
  156SOL    HW3  655   1.343   1.924   0.899 -1.9310 -1.0108  0.4624
  156SOL    MW4  656   1.329   1.909   0.815 -0.4909  0.1182 -0.0005
  157SOL     OW  657   0.415   1.954   0.858 -0.1790 -0.0661 -0.1079
  157SOL    HW2  658   0.500   1.998   0.845 -0.0251 -0.2951  0.1316
  157SOL    HW3  659   0.401   1.956   0.952 -0.4075 -0.0966 -0.1407
  157SOL    MW4  660   0.425   1.960   0.869 -0.1888 -0.1004 -0.0806
  158SOL     OW  661   4.440   4.272   0.400  0.2510 -0.5499 -0.5119
  158SOL    HW2  662   4.421   4.267   0.307  2.2310 -1.9430 -0.8800
  158SOL    HW3  663   4.421   4.184   0.434  0.6981 -0.3985  0.1484
  158SOL    MW4  664   4.435   4.260   0.392  0.5712 -0.7138 -0.4733
  159SOL     OW  665   0.900   3.219   0.722 -0.2898 -0.2675 -0.2164
  159SOL    HW2  666   0.875   3.272   0.646 -0.8961  0.5736  0.5581
  159SOL    HW3  667   0.817   3.196   0.763 -0.0039 -1.5416 -0.3559
  159SOL    MW4  668   0.886   3.223   0.717 -0.3321 -0.3247 -0.1327
  160SOL     OW  669   1.727   3.471   0.146 -0.0378  0.0921 -0.3144
  160SOL    HW2  670   1.735   3.523   0.065  0.4948  1.0363  0.3323
  160SOL    HW3  671   1.807   3.490   0.194 -0.2994 -0.5722  0.3870
  160SOL    MW4  672   1.738   3.481   0.141 -0.0020  0.1291 -0.1366
  161SOL     OW  673   2.873   3.826   0.816  0.0771 -0.2596 -0.4055
  161SOL    HW2  674   2.796   3.879   0.793 -0.5344 -0.9447  0.0229
  161SOL    HW3  675   2.884   3.840   0.910  0.0544 -0.7051 -0.3354
  161SOL    MW4  676   2.864   3.835   0.825 -0.0066 -0.4087 -0.3397
  162SOL     OW  677   1.038   1.039   0.442 -0.2001  0.2280 -0.4078
  162SOL    HW2  678   0.989   1.033   0.360 -0.1450  0.4870 -0.4595
  162SOL    HW3  679   1.116   0.985   0.428  0.0727  0.7018 -0.7147
  162SOL    MW4  680   1.042   1.031   0.430 -0.1568  0.3247 -0.4551
  163SOL     OW  681   1.565   3.640   0.713  0.5850  0.4951 -0.3951
  163SOL    HW2  682   1.623   3.578   0.757 -1.8131 -1.9052 -0.4683
  163SOL    HW3  683   1.597   3.644   0.623  1.8851  0.8576  0.0621
  163SOL    MW4  684   1.577   3.632   0.707  0.4401  0.2262 -0.3444
  164SOL     OW  685   2.255   4.441   0.328 -0.2711  0.5498  0.5663
  164SOL    HW2  686   2.339   4.402   0.351  0.1386  0.8276 -0.4367
  164SOL    HW3  687   2.202   4.367   0.299  0.3578  0.6687 -0.9073
  164SOL    MW4  688   2.259   4.426   0.328 -0.1341  0.6021  0.2396
  165SOL     OW  689   0.198   0.358   0.418  0.1504 -0.2853  0.0079
  165SOL    HW2  690   0.131   0.324   0.478 -1.2596  0.4742 -1.0993
  165SOL    HW3  691   0.210   0.288   0.354 -1.4766  0.5682 -1.2644
  165SOL    MW4  692   0.190   0.344   0.418 -0.2503 -0.0725 -0.3061
  166SOL     OW  693   3.987   4.600   0.368 -0.2699  0.1823 -0.0045
  166SOL    HW2  694   4.009   4.690   0.346  1.3926 -0.4320 -0.9870
  166SOL    HW3  695   4.070   4.561   0.396 -1.0495 -0.9179  0.8184
  166SOL    MW4  696   4.001   4.607   0.369 -0.1534 -0.0439 -0.0256
  167SOL     OW  697   2.531   2.334   0.832 -0.0050 -0.0484 -0.2945
  167SOL    HW2  698   2.604   2.387   0.799  0.7835 -0.3187  0.9787
  167SOL    HW3  699   2.453   2.383   0.807  0.7007  1.6222  0.6576
  167SOL    MW4  700   2.530   2.347   0.824  0.1921  0.1364 -0.0009
  168SOL     OW  701   4.455   3.752   0.442 -0.2850  0.0438 -0.3792
  168SOL    HW2  702   4.410   3.672   0.469  1.1159 -0.7032 -0.2395
  168SOL    HW3  703   4.548   3.729   0.440  0.2258  1.8812  0.4592
  168SOL    MW4  704   4.461   3.739   0.446 -0.0327  0.1876 -0.2501
  169SOL     OW  705   3.128   1.979   0.843 -0.3903  0.1644  0.4859
  169SOL    HW2  706   3.131   1.979   0.939  0.1113 -0.8083  0.4755
  169SOL    HW3  707   3.214   2.012   0.817 -0.8878  1.3882  0.3728
  169SOL    MW4  708   3.140   1.983   0.853 -0.3898  0.1976  0.4696
  170SOL     OW  709   2.441   3.404   0.507 -0.3912  0.2418 -0.0685
  170SOL    HW2  710   2.376   3.335   0.500  0.2133 -0.1312 -2.8991
  170SOL    HW3  711   2.524   3.358   0.518  0.0472  0.4481 -2.2275
  170SOL    MW4  712   2.444   3.389   0.507 -0.2536  0.2198 -0.7268
  171SOL     OW  713   1.187   4.123   0.220  0.0055  0.0571  0.5533
  171SOL    HW2  714   1.159   4.206   0.181 -0.5771 -1.0060 -1.3856
  171SOL    HW3  715   1.133   4.114   0.299  0.9680  2.0983  1.4822
  171SOL    MW4  716   1.176   4.133   0.225  0.0556  0.1862  0.4201
  172SOL     OW  717   3.146   2.679   0.859 -0.1456 -0.1734 -0.7252
  172SOL    HW2  718   3.142   2.598   0.810  1.9279 -1.6208  1.3650
  172SOL    HW3  719   3.233   2.716   0.839 -0.5682  0.8848 -0.6748
  172SOL    MW4  720   3.157   2.673   0.850  0.0722 -0.2247 -0.4428
  173SOL     OW  721   2.688   0.360   0.769  0.5950 -0.1305  0.2003
  173SOL    HW2  722   2.698   0.369   0.864  0.4240 -1.0814  0.3175
  173SOL    HW3  723   2.756   0.416   0.732  0.8819 -0.0174  0.8873
  173SOL    MW4  724   2.698   0.368   0.777  0.6102 -0.2410  0.3064
  174SOL     OW  725   3.170   2.451   0.708  0.2760  0.6679  0.0800
  174SOL    HW2  726   3.230   2.412   0.772  0.4727 -0.6700 -0.9053
  174SOL    HW3  727   3.086   2.409   0.727  0.5087 -0.3099 -1.0510
  174SOL    MW4  728   3.167   2.440   0.719  0.3327  0.3624 -0.1992
  175SOL     OW  729   1.526   2.374   0.173  0.1168  0.1548 -0.1617
  175SOL    HW2  730   1.618   2.384   0.195  0.3655 -2.0848 -0.1418
  175SOL    HW3  731   1.526   2.326   0.090 -1.0482 -0.0641 -0.0491
  175SOL    MW4  732   1.538   2.369   0.165 -0.0041 -0.1696 -0.1442
  176SOL     OW  733   0.571   3.624   0.484  0.0156  0.0878 -0.2936
  176SOL    HW2  734   0.508   3.691   0.459  1.1504  0.8674 -1.1159
  176SOL    HW3  735   0.654   3.655   0.449  0.7547 -1.2133  0.2688
  176SOL    MW4  736   0.574   3.637   0.476  0.2628  0.0190 -0.3279
  177SOL     OW  737   1.846   2.732   0.872 -0.2162 -0.0950 -0.5305
  177SOL    HW2  738   1.770   2.777   0.835  0.6048  1.8087  0.0509
  177SOL    HW3  739   1.921   2.777   0.835  0.6323 -0.3291  0.8733
  177SOL    MW4  740   1.846   2.744   0.862  0.0040  0.1253 -0.2685
  178SOL     OW  741   2.480   3.606   0.694  0.0975  0.0512  0.1632
  178SOL    HW2  742   2.461   3.536   0.632  0.5299  1.1986 -1.2720
  178SOL    HW3  743   2.553   3.572   0.746  0.6880 -0.3408 -0.9102
  178SOL    MW4  744   2.487   3.592   0.693  0.2325  0.1509 -0.1678
  179SOL     OW  745   2.707   3.266   0.818  0.3067  0.3900 -0.2453
  179SOL    HW2  746   2.693   3.269   0.723 -0.2327 -0.2176 -0.1838
  179SOL    HW3  747   2.698   3.357   0.846 -0.1833  0.4805 -0.6853
  179SOL    MW4  748   2.704   3.279   0.809  0.1708  0.3218 -0.2953
  180SOL     OW  749   2.673   4.253   0.837 -0.1589 -0.5128 -0.4496
  180SOL    HW2  750   2.672   4.255   0.933 -0.1276 -1.6623 -0.4213
  180SOL    HW3  751   2.594   4.302   0.812 -0.1155 -0.1238  0.1609
  180SOL    MW4  752   2.662   4.260   0.846 -0.1490 -0.6131 -0.3653
  181SOL     OW  753   0.383   3.826   0.376  0.3553  0.2566  0.1768
  181SOL    HW2  754   0.394   3.903   0.432 -1.1792  0.3635  0.3468
  181SOL    HW3  755   0.439   3.844   0.300 -1.2491  2.3555 -0.5928
  181SOL    MW4  756   0.392   3.839   0.373 -0.0588  0.5476  0.0977
  182SOL     OW  757   1.527   4.388   0.743 -0.5878 -0.3042 -0.0912
  182SOL    HW2  758   1.537   4.398   0.648  0.0345  0.9941  0.0998
  182SOL    HW3  759   1.602   4.334   0.769 -1.0466 -1.0917 -0.4137
  182SOL    MW4  760   1.539   4.382   0.734 -0.5662 -0.2368 -0.1086
  183SOL     OW  761   1.114   1.834   0.381 -0.1965 -0.0740  0.0294
  183SOL    HW2  762   1.117   1.875   0.294 -0.8158 -0.0733  0.0061
  183SOL    HW3  763   1.111   1.908   0.442  0.3642 -0.0731  0.0600
  183SOL    MW4  764   1.114   1.850   0.378 -0.2042 -0.0738  0.0303
  184SOL     OW  765   2.299   2.902   0.425 -0.2641  0.2588 -0.1354
  184SOL    HW2  766   2.248   2.833   0.468  1.7541  0.0926  2.0745
  184SOL    HW3  767   2.313   2.869   0.336 -0.9400 -1.3282  0.3232
  184SOL    MW4  768   2.294   2.888   0.419 -0.0870  0.0275  0.2167
  185SOL     OW  769   0.862   3.347   0.474  0.5909 -0.0336  0.4437
  185SOL    HW2  770   0.916   3.302   0.408 -0.1142  0.8229 -0.7359
  185SOL    HW3  771   0.780   3.366   0.428 -0.8020 -1.4539  2.2644
  185SOL    MW4  772   0.859   3.343   0.459  0.3141 -0.1080  0.5283
  186SOL     OW  773   2.067   2.715   0.223  0.3067 -0.0661 -0.0281
  186SOL    HW2  774   2.056   2.624   0.198 -0.8330 -0.0117  0.2123
  186SOL    HW3  775   2.057   2.715   0.318  0.4914  0.2733 -0.0093
  186SOL    MW4  776   2.064   2.703   0.232  0.1807 -0.0141  0.0061
  187SOL     OW  777   3.408   3.271   0.430 -0.7539 -0.3178 -0.3686
  187SOL    HW2  778   3.322   3.237   0.454 -0.3654 -0.8029  0.3551
  187SOL    HW3  779   3.399   3.366   0.436 -1.0253 -0.3941  0.4240
  187SOL    MW4  780   3.395   3.279   0.434 -0.7385 -0.3919 -0.1685
  188SOL     OW  781   1.285   4.502   0.330 -0.4424 -0.2792 -0.2565
  188SOL    HW2  782   1.237   4.449   0.394 -1.7752  1.4155  0.1605
  188SOL    HW3  783   1.287   4.590   0.367 -0.0996  0.4420 -1.9442
  188SOL    MW4  784   1.279   4.506   0.343 -0.5730  0.0396 -0.4241
  189SOL     OW  785   0.762   3.149   0.241  0.0380  0.2573 -0.0113
  189SOL    HW2  786   0.848   3.188   0.224 -0.3095  0.3113 -1.8509
  189SOL    HW3  787   0.708   3.223   0.269  0.7779  0.0779  1.9627
  189SOL    MW4  788   0.766   3.164   0.242  0.0898  0.2407  0.0064
  190SOL     OW  789   4.154   0.164   0.759 -0.1063 -0.0395 -0.0040
  190SOL    HW2  790   4.076   0.110   0.744 -0.3717 -0.3536  2.2355
  190SOL    HW3  791   4.119   0.249   0.785  0.2777 -0.3790  1.6622
  190SOL    MW4  792   4.139   0.168   0.761 -0.0907 -0.1257  0.5113
  191SOL     OW  793   0.662   0.873   0.450 -0.2159  0.1461  0.2441
  191SOL    HW2  794   0.747   0.899   0.485  0.2400 -0.0432 -0.7340
  191SOL    HW3  795   0.670   0.779   0.434 -0.7033  0.0727  0.4264
  191SOL    MW4  796   0.674   0.864   0.453 -0.2200  0.1114  0.1391
  192SOL     OW  797   2.132   0.568   0.417  0.1443 -0.2603  0.5692
  192SOL    HW2  798   2.218   0.538   0.447 -0.6473 -1.8027  1.3736
  192SOL    HW3  799   2.076   0.559   0.493 -0.7721  0.5664 -0.0020
  192SOL    MW4  800   2.136   0.563   0.431 -0.0811 -0.3547  0.5999
  193SOL     OW  801   0.699   0.577   0.441  0.4133 -0.5500 -0.2480
  193SOL    HW2  802   0.681   0.548   0.530 -0.9065 -0.7675 -0.5707
  193SOL    HW3  803   0.619   0.556   0.393  0.5488  0.9414 -1.1430
  193SOL    MW4  804   0.686   0.570   0.446  0.2570 -0.3820 -0.4087
  194SOL     OW  805   2.235   0.422   0.800 -0.7258  0.5129  0.0896
  194SOL    HW2  806   2.213   0.331   0.780  1.3248  0.2923 -1.3415
  194SOL    HW3  807   2.175   0.474   0.747 -0.3365 -0.0337 -0.8930
  194SOL    MW4  808   2.224   0.417   0.791 -0.4039  0.4117 -0.2288
  195SOL     OW  809   3.303   4.387   0.714  0.0117 -0.7216  0.2930
  195SOL    HW2  810   3.294   4.481   0.728  0.2378 -0.5015 -0.9481
  195SOL    HW3  811   3.247   4.347   0.781 -0.6130  0.3085  0.3925
  195SOL    MW4  812   3.294   4.394   0.725 -0.0409 -0.5566  0.1424
  196SOL     OW  813   3.540   4.263   0.829  0.1471 -0.0652  0.0096
  196SOL    HW2  814   3.467   4.314   0.793 -0.8865 -0.8791  0.9135
  196SOL    HW3  815   3.528   4.175   0.792  0.3287 -0.3492  0.6258
  196SOL    MW4  816   3.528   4.258   0.819  0.0347 -0.2101  0.2102
  197SOL     OW  817   0.691   4.254   0.392 -0.1388 -0.1053  0.0068
  197SOL    HW2  818   0.643   4.332   0.419  0.1588 -0.2869  1.1070
  197SOL    HW3  819   0.758   4.286   0.333 -1.0018  0.2696 -0.7840
  197SOL    MW4  820   0.693   4.268   0.388 -0.2134 -0.0798  0.0476
  198SOL     OW  821   2.334   2.757   0.156  0.1512  0.0582 -0.2354
  198SOL    HW2  822   2.369   2.669   0.141  0.1899 -0.0114  0.2518
  198SOL    HW3  823   2.239   2.743   0.164  0.3503 -0.2424  1.9801
  198SOL    MW4  824   2.326   2.744   0.155  0.1826  0.0093  0.1212
  199SOL     OW  825   3.362   0.520   0.733  0.1262  0.1010 -0.0412
  199SOL    HW2  826   3.398   0.496   0.648  0.1283 -0.3368  0.0824
  199SOL    HW3  827   3.417   0.473   0.796 -1.9148 -2.2083  0.0692
  199SOL    MW4  828   3.374   0.511   0.730 -0.1428 -0.2615 -0.0103
  200SOL     OW  829   0.726   2.533   0.549  0.4249  0.0352  0.5278
  200SOL    HW2  830   0.720   2.628   0.553  0.7755  0.1777 -1.7625
  200SOL    HW3  831   0.637   2.505   0.527  0.2819 -0.1863  1.3734
  200SOL    MW4  832   0.713   2.542   0.546  0.4523  0.0248  0.3372
  201SOL     OW  833   0.207   4.292   0.492 -0.0660 -0.6613 -0.8287
  201SOL    HW2  834   0.197   4.316   0.584  0.4314  0.5215 -1.0704
  201SOL    HW3  835   0.117   4.284   0.460 -0.2547  0.9286 -0.7378
  201SOL    MW4  836   0.194   4.294   0.500 -0.0253 -0.2954 -0.8486
  202SOL     OW  837   0.430   0.525   0.372 -0.5356  0.0751  0.1318
  202SOL    HW2  838   0.380   0.602   0.347 -1.4982 -0.1875  1.2206
  202SOL    HW3  839   0.367   0.468   0.417  1.0856  0.5127  3.0909
  202SOL    MW4  840   0.415   0.527   0.375 -0.4487  0.0982  0.6658
  203SOL     OW  841   2.031   3.661   0.753 -0.5137  0.1645 -0.4615
  203SOL    HW2  842   2.105   3.607   0.782 -0.8309  0.0318  0.1075
  203SOL    HW3  843   1.954   3.607   0.769 -0.7750  0.5102 -0.5446
  203SOL    MW4  844   2.031   3.647   0.759 -0.5900  0.1926 -0.3974
  204SOL     OW  845   4.047   0.426   0.817  0.0529 -0.1838 -0.0587
  204SOL    HW2  846   4.113   0.495   0.807  0.7752 -1.1104 -1.8700
  204SOL    HW3  847   3.964   0.468   0.792  0.6942 -0.3231 -2.5248
  204SOL    MW4  848   4.045   0.441   0.813  0.2328 -0.3244 -0.6230
  205SOL     OW  849   3.024   1.760   0.327 -0.1195  0.1914 -0.2547
  205SOL    HW2  850   3.024   1.856   0.328  0.2526  0.1778  0.8594
  205SOL    HW3  851   2.938   1.735   0.360  0.2582  0.1281  0.6865
  205SOL    MW4  852   3.013   1.769   0.331 -0.0206  0.1813  0.0165
  206SOL     OW  853   1.234   3.015   0.363 -0.2457 -0.3383 -0.0966
  206SOL    HW2  854   1.280   2.977   0.288 -0.2156 -2.7624  1.0881
  206SOL    HW3  855   1.277   3.099   0.378  2.2175 -1.4878 -0.5055
  206SOL    MW4  856   1.246   3.021   0.355  0.0833 -0.8098  0.0057
  207SOL     OW  857   1.043   2.557   0.532  0.0311  0.5790  0.0039
  207SOL    HW2  858   1.002   2.508   0.461  0.4740 -0.3718  0.3944
  207SOL    HW3  859   1.044   2.647   0.501  0.1499  0.1851 -1.1675
  207SOL    MW4  860   1.038   2.562   0.519  0.1052  0.4016 -0.0992
  208SOL     OW  861   1.653   4.205   0.435  0.0201 -0.2086  0.0098
  208SOL    HW2  862   1.633   4.299   0.445  1.2788  0.0254  0.3878
  208SOL    HW3  863   1.576   4.169   0.390 -0.4081  1.0327 -0.2769
  208SOL    MW4  864   1.640   4.213   0.431  0.1297 -0.0140  0.0219
  209SOL     OW  865   3.356   1.481   0.468 -0.3168  0.2720  0.2068
  209SOL    HW2  866   3.335   1.413   0.532  0.7178 -1.1612 -0.9311
  209SOL    HW3  867   3.314   1.560   0.502 -0.7837 -0.7249  2.0263
  209SOL    MW4  868   3.348   1.483   0.481 -0.2419 -0.0486  0.2968
  210SOL     OW  869   0.697   2.371   0.847  0.4187  0.0997  0.1557
  210SOL    HW2  870   0.678   2.364   0.941 -0.2957 -3.1997 -0.1740
  210SOL    HW3  871   0.614   2.395   0.807  0.3947  0.1553  0.2386
  210SOL    MW4  872   0.684   2.373   0.854  0.3213 -0.3282  0.1231
  211SOL     OW  873   0.219   3.579   0.434 -0.4474 -0.0174 -0.3287
  211SOL    HW2  874   0.266   3.652   0.393 -0.2060 -0.0218 -0.0555
  211SOL    HW3  875   0.245   3.581   0.526 -0.5078 -0.3949 -0.3006
  211SOL    MW4  876   0.229   3.589   0.441 -0.4235 -0.0678 -0.2889
  212SOL     OW  877   3.357   2.841   0.778 -0.5143 -0.2886  0.0412
  212SOL    HW2  878   3.344   2.929   0.814 -0.2520 -0.0596 -0.4080
  212SOL    HW3  879   3.440   2.811   0.814  0.6397  0.6571 -1.7315
  212SOL    MW4  880   3.366   2.849   0.787 -0.3274 -0.1336 -0.2519
  213SOL     OW  881   0.421   2.721   0.904 -1.1248  0.1426  0.0580
  213SOL    HW2  882   0.502   2.769   0.886 -1.2569  0.9392  1.5493
  213SOL    HW3  883   0.430   2.640   0.853  0.1706  0.6592 -0.5653
  213SOL    MW4  884   0.433   2.717   0.895 -0.9713  0.3159  0.1725
  214SOL     OW  885   3.181   0.383   0.411 -0.3930  0.1680 -0.1236
  214SOL    HW2  886   3.163   0.290   0.393  0.2859 -0.1249  0.6711
  214SOL    HW3  887   3.097   0.427   0.397 -0.8687 -0.6583  0.1197
  214SOL    MW4  888   3.168   0.376   0.406 -0.3662  0.0204  0.0134
  215SOL     OW  889   2.179   4.000   0.709 -0.2649  0.0053 -0.0333
  215SOL    HW2  890   2.124   4.022   0.633  0.0162 -0.5172 -0.3895
  215SOL    HW3  891   2.117   3.968   0.775 -0.4729  0.1292 -0.1683
  215SOL    MW4  892   2.163   3.999   0.708 -0.2552 -0.0473 -0.0981
  216SOL     OW  893   1.286   3.992   0.755  0.2199 -0.0700 -0.3040
  216SOL    HW2  894   1.210   3.949   0.794  0.5044 -0.4689 -0.1847
  216SOL    HW3  895   1.286   4.079   0.794  1.1584 -0.8362  1.5020
  216SOL    MW4  896   1.276   3.998   0.765  0.3813 -0.2238 -0.0499
  217SOL     OW  897   3.571   0.698   0.474 -0.1505 -0.2973  0.0908
  217SOL    HW2  898   3.503   0.762   0.456  0.8493  0.8666  0.3801
  217SOL    HW3  899   3.526   0.614   0.471 -1.5866  0.4469  0.2311
  217SOL    MW4  900   3.556   0.695   0.472 -0.2081 -0.0455  0.1474
  218SOL     OW  901   4.488   1.927   0.867  0.0794 -0.2036  0.5824
  218SOL    HW2  902   4.565   1.962   0.821 -0.4027 -0.2363 -0.2635
  218SOL    HW3  903   4.486   1.834   0.843 -0.8670  0.0372 -0.3204
  218SOL    MW4  904   4.498   1.919   0.858 -0.1090 -0.1761  0.3517
  219SOL     OW  905   0.034   1.044   0.843 -0.5722 -0.3935  0.1997
  219SOL    HW2  906   0.033   1.068   0.936  0.2491 -2.7278  0.8662
  219SOL    HW3  907  -0.034   0.977   0.836 -0.3921 -0.4681 -0.8125
  219SOL    MW4  908   0.025   1.038   0.855 -0.4401 -0.7113  0.1541
  220SOL     OW  909   3.174   3.070   0.524  0.2188  0.1781 -0.0653
  220SOL    HW2  910   3.244   3.008   0.506  1.3999  1.0487  1.4033
  220SOL    HW3  911   3.095   3.016   0.527  1.2526 -1.3206  1.4607
  220SOL    MW4  912   3.173   3.055   0.522  0.5110  0.0952  0.3298
  221SOL     OW  913   1.787   2.435   0.261 -0.4119 -0.7970  0.1428
  221SOL    HW2  914   1.881   2.427   0.244 -0.3398  0.8335 -0.3060
  221SOL    HW3  915   1.780   2.507   0.324 -1.2311 -2.1595  1.6571
  221SOL    MW4  916   1.799   2.443   0.267 -0.5105 -0.7617  0.2834
  222SOL     OW  917   3.153   1.147   0.830 -0.3605 -0.5185  0.2254
  222SOL    HW2  918   3.230   1.191   0.795 -0.4952 -0.0038  0.5778
  222SOL    HW3  919   3.167   1.147   0.925 -0.4333 -1.1015  0.2425
  222SOL    MW4  920   3.165   1.153   0.838 -0.3878 -0.5275  0.2742
  223SOL     OW  921   2.689   3.265   0.533 -0.2296 -0.5537 -0.1411
  223SOL    HW2  922   2.700   3.190   0.474 -0.3386 -1.0517  0.4653
  223SOL    HW3  923   2.751   3.330   0.501  0.3917 -1.1830 -0.2346
  223SOL    MW4  924   2.699   3.263   0.521 -0.1620 -0.7024 -0.0734
  224SOL     OW  925   1.312   0.906   0.721  0.0391 -0.3094  0.1335
  224SOL    HW2  926   1.337   0.988   0.764 -0.8415 -0.0721  0.2153
  224SOL    HW3  927   1.239   0.874   0.773 -0.4084 -0.5194 -0.6158
  224SOL    MW4  928   1.305   0.913   0.733 -0.1361 -0.3058  0.0454
  225SOL     OW  929   3.838   0.574   0.494 -0.2339 -0.3949 -0.0664
  225SOL    HW2  930   3.761   0.624   0.467 -0.4100 -0.6792 -0.1055
  225SOL    HW3  931   3.909   0.637   0.497 -0.6505  0.0535  0.8090
  225SOL    MW4  932   3.837   0.589   0.491 -0.3121 -0.3733  0.0439
  226SOL     OW  933   4.013   2.471   0.771  0.2693  0.2919 -0.3299
  226SOL    HW2  934   4.095   2.430   0.799  0.3171 -0.8010 -2.0011
  226SOL    HW3  935   3.946   2.430   0.825  0.4398 -1.3328 -1.3071
  226SOL    MW4  936   4.015   2.460   0.782  0.2981 -0.0667 -0.6793
  227SOL     OW  937   1.786   1.686   0.373  0.6692 -0.2422  0.3376
  227SOL    HW2  938   1.850   1.746   0.335  1.4301 -1.0296  0.3460
  227SOL    HW3  939   1.802   1.690   0.467 -0.7680  1.2045  0.5317
  227SOL    MW4  940   1.796   1.694   0.380  0.5800 -0.1552  0.3643
  228SOL     OW  941   1.507   0.836   0.391 -0.1740 -0.8084 -0.5342
  228SOL    HW2  942   1.413   0.848   0.400 -0.0897  0.3379 -1.0933
  228SOL    HW3  943   1.530   0.881   0.310  1.0035 -0.2437  0.0953
  228SOL    MW4  944   1.498   0.843   0.381 -0.0075 -0.5827 -0.5249
  229SOL     OW  945   1.781   0.798   0.438  0.1723  0.6342  0.0152
  229SOL    HW2  946   1.686   0.806   0.440  0.0228 -0.8015 -0.9394
  229SOL    HW3  947   1.809   0.818   0.527 -1.1634 -0.6383  0.7296
  229SOL    MW4  948   1.772   0.802   0.450 -0.0237  0.2769 -0.0165
  230SOL     OW  949   4.065   0.890   0.806 -0.6702  0.1472 -0.1435
  230SOL    HW2  950   4.068   0.986   0.810 -1.5478  0.1061  2.0637
  230SOL    HW3  951   4.156   0.863   0.816 -0.7077  0.6864  1.7596
  230SOL    MW4  952   4.078   0.899   0.808 -0.7909  0.2129  0.3988
  231SOL     OW  953   0.851   1.677   0.430 -0.0319  0.2058  0.0815
  231SOL    HW2  954   0.925   1.718   0.385 -0.6604  2.3672  0.9550
  231SOL    HW3  955   0.872   1.686   0.523 -1.4854  1.0599  0.3400
  231SOL    MW4  956   0.864   1.684   0.436 -0.3066  0.6037  0.2309
  232SOL     OW  957   0.601   3.340   0.358 -0.1367  0.0936  0.2440
  232SOL    HW2  958   0.554   3.279   0.415 -0.3669  0.4215  0.4038
  232SOL    HW3  959   0.561   3.425   0.376  0.6994  0.4210  0.5863
  232SOL    MW4  960   0.589   3.343   0.368 -0.0568  0.1801  0.3102
  233SOL     OW  961   1.791   2.770   0.181 -0.3667  0.1987  0.1902
  233SOL    HW2  962   1.766   2.680   0.162 -0.6540  0.4829 -0.7769
  233SOL    HW3  963   1.887   2.768   0.186 -0.2789  0.1412 -1.3838
  233SOL    MW4  964   1.801   2.758   0.179 -0.3930  0.2286 -0.1451
  234SOL     OW  965   1.314   2.253   0.337  0.3245 -0.0085  0.1280
  234SOL    HW2  966   1.361   2.289   0.262  0.0895  0.9222  0.4292
  234SOL    HW3  967   1.378   2.196   0.380  1.5715  2.2040  1.2472
  234SOL    MW4  968   1.328   2.250   0.333  0.4580  0.4062  0.3154
  235SOL     OW  969   3.349   0.884   0.483  0.0132 -0.0197 -0.1335
  235SOL    HW2  970   3.265   0.878   0.439 -0.5256  2.0000  0.5244
  235SOL    HW3  971   3.328   0.920   0.570  1.4262 -0.4761  0.4129
  235SOL    MW4  972   3.335   0.888   0.489  0.1285  0.1866  0.0254
  236SOL     OW  973   1.718   1.985   0.182 -0.1576 -0.1811  0.2914
  236SOL    HW2  974   1.658   1.920   0.219 -0.6499  0.2514  0.2670
  236SOL    HW3  975   1.734   2.046   0.255  0.7654 -0.6484  0.4893
  236SOL    MW4  976   1.712   1.984   0.197 -0.1008 -0.1857  0.3143
  237SOL     OW  977   4.227   2.066   0.489  0.2034  0.4388  0.1353
  237SOL    HW2  978   4.234   2.075   0.584  0.6200 -0.3594  0.1840
  237SOL    HW3  979   4.221   2.156   0.457  0.2231  0.7188  0.9033
  237SOL    MW4  980   4.227   2.079   0.497  0.2609  0.3704  0.2430
  238SOL     OW  981   3.671   3.152   0.503  0.4971 -0.6127  0.1519
  238SOL    HW2  982   3.601   3.216   0.487 -0.0922 -0.8481  1.6481
  238SOL    HW3  983   3.752   3.202   0.496  0.1160 -0.0566 -0.2987
  238SOL    MW4  984   3.672   3.167   0.500  0.3690 -0.5704  0.2899
  239SOL     OW  985   1.359   2.748   0.817  0.0897 -0.1932 -0.0566
  239SOL    HW2  986   1.362   2.737   0.912 -0.2234  0.3905  0.0225
  239SOL    HW3  987   1.272   2.784   0.800  0.8844  1.6119 -0.3502
  239SOL    MW4  988   1.348   2.751   0.828  0.1532  0.1220 -0.0849
  240SOL     OW  989   3.532   0.176   0.497 -0.2401 -0.5213  0.7257
  240SOL    HW2  990   3.477   0.111   0.452  0.8375 -1.5356  0.8438
  240SOL    HW3  991   3.528   0.151   0.589  0.7439 -0.8531  0.6819
  240SOL    MW4  992   3.524   0.164   0.503  0.0319 -0.6989  0.7355
  241SOL     OW  993   4.053   3.489   0.873 -0.1617  0.1198 -0.2013
  241SOL    HW2  994   4.058   3.402   0.835 -0.0364 -0.1437  0.4044
  241SOL    HW3  995   4.043   3.473   0.967 -0.6793  0.7499 -0.1454
  241SOL    MW4  996   4.052   3.475   0.881 -0.2135  0.1682 -0.1140
  242SOL     OW  997   0.439   0.406   0.811 -0.4601  0.4573 -0.2040
  242SOL    HW2  998   0.354   0.440   0.782 -0.7561 -1.3516 -1.5820
  242SOL    HW3  999   0.456   0.332   0.752 -0.0607 -2.0202  2.8978
  242SOL    MW4 1000   0.430   0.401   0.799 -0.4464 -0.1082  0.0234
  243SOL     OW 1001   2.055   4.240   0.300 -0.3131 -0.1817  0.0972
  243SOL    HW2 1002   2.008   4.217   0.219 -1.7209  0.7977  0.6208
  243SOL    HW3 1003   2.057   4.159   0.350 -0.5680 -0.4773 -0.3644
  243SOL    MW4 1004   2.049   4.226   0.296 -0.5324 -0.0915  0.1054
  244SOL     OW 1005   4.479   0.374   0.855 -0.4686  0.5240  0.1561
  244SOL    HW2 1006   4.554   0.431   0.838 -0.0765 -0.1218 -0.3320
  244SOL    HW3 1007   4.479   0.362   0.950 -0.5351  1.3092  0.2576
  244SOL    MW4 1008   4.489   0.380   0.865 -0.4257  0.5424  0.1051
  245SOL     OW 1009   1.977   1.869   0.280  0.1957 -0.3330 -0.4424
  245SOL    HW2 1010   1.996   1.938   0.344 -1.1575 -1.6215  1.3868
  245SOL    HW3 1011   1.906   1.906   0.227  1.7863  1.0128 -1.6896
  245SOL    MW4 1012   1.970   1.883   0.281  0.2270 -0.3254 -0.3656
  246SOL     OW 1013   0.212   0.832   0.882  0.2885 -0.2395  0.5301
  246SOL    HW2 1014   0.199   0.804   0.973  0.2825 -0.6978  0.3896
  246SOL    HW3 1015   0.145   0.899   0.868  0.0818 -0.3929  0.7681
  246SOL    MW4 1016   0.202   0.837   0.892  0.2605 -0.3202  0.5429
  247SOL     OW 1017   0.244   0.812   0.342 -0.1567 -0.3762 -0.2746
  247SOL    HW2 1018   0.288   0.864   0.410 -0.3501 -1.4179  0.6599
  247SOL    HW3 1019   0.262   0.860   0.261  0.8312  0.4111  0.3819
  247SOL    MW4 1020   0.252   0.825   0.340 -0.0519 -0.4098 -0.0647
  248SOL     OW 1021   0.438   1.607   0.511  0.3810  0.2085  0.6450
  248SOL    HW2 1022   0.442   1.629   0.604 -0.5050 -0.1929  0.7830
  248SOL    HW3 1023   0.350   1.636   0.483  0.8728  0.9068 -0.2110
  248SOL    MW4 1024   0.427   1.614   0.519  0.3290  0.2477  0.5503
  249SOL     OW 1025   0.119   1.347   0.598 -0.5315  0.2145 -0.1914
  249SOL    HW2 1026   0.170   1.390   0.667 -1.5394  1.1067  0.0101
  249SOL    HW3 1027   0.046   1.305   0.644 -0.6721 -0.0116 -0.6132
  249SOL    MW4 1028   0.116   1.347   0.613 -0.6831  0.3024 -0.2204
  250SOL     OW 1029   0.251   1.493   0.821 -0.4380 -0.4184  0.3272
  250SOL    HW2 1030   0.298   1.410   0.829 -0.1413 -0.3953 -1.0711
  250SOL    HW3 1031   0.321   1.558   0.812 -0.7018 -0.3093 -1.0730
  250SOL    MW4 1032   0.267   1.490   0.821 -0.4336 -0.4010 -0.0420
  251SOL     OW 1033   1.091   2.829   0.767 -0.2384  0.3691 -0.3388
  251SOL    HW2 1034   1.019   2.769   0.789  0.6878 -0.2668  1.0749
  251SOL    HW3 1035   1.091   2.832   0.671 -0.9334 -1.1263 -0.4083
  251SOL    MW4 1036   1.081   2.821   0.757 -0.2079  0.0879 -0.1615
  252SOL     OW 1037   4.045   2.512   0.487  0.5389  0.7339  0.4270
  252SOL    HW2 1038   3.956   2.513   0.451  1.5294 -1.1005 -2.1636
  252SOL    HW3 1039   4.032   2.503   0.582 -2.0155 -2.4228 -0.1591
  252SOL    MW4 1040   4.031   2.511   0.495  0.3326  0.0754  0.0079
  253SOL     OW 1041   1.075   2.377   0.831  0.3760  0.3751  0.3354
  253SOL    HW2 1042   1.099   2.286   0.812  0.9140  0.8796 -1.4964
  253SOL    HW3 1043   1.157   2.425   0.827  0.3396  0.6965  2.9642
  253SOL    MW4 1044   1.089   2.371   0.828  0.4422  0.4841  0.4405
  254SOL     OW 1045   0.658   2.804   0.546  0.0019 -0.2216  0.1524
  254SOL    HW2 1046   0.565   2.818   0.530  0.0330  1.4144  1.3587
  254SOL    HW3 1047   0.701   2.881   0.511  0.8397 -0.5987  0.3318
  254SOL    MW4 1048   0.651   2.816   0.539  0.1165 -0.0555  0.3352
  255SOL     OW 1049   4.257   2.358   0.860 -0.3038  0.0420  0.4662
  255SOL    HW2 1050   4.268   2.274   0.814 -0.4867 -0.2129  0.8911
  255SOL    HW3 1051   4.332   2.410   0.830  0.2267 -0.5293  0.7658
  255SOL    MW4 1052   4.269   2.354   0.850 -0.2579 -0.0671  0.5618
  256SOL     OW 1053   0.309   1.224   0.443 -0.1021  0.1444 -0.3624
  256SOL    HW2 1054   0.248   1.257   0.509  0.5304 -0.0403  0.3147
  256SOL    HW3 1055   0.332   1.136   0.473  0.8264  0.3734 -0.4021
  256SOL    MW4 1056   0.304   1.217   0.455  0.1038  0.1502 -0.2783
  257SOL     OW 1057   4.044   1.675   0.777  0.1507 -0.0102 -0.0932
  257SOL    HW2 1058   3.964   1.641   0.816  0.4081 -0.9786 -0.3965
  257SOL    HW3 1059   4.113   1.616   0.807  0.8071  0.9716  0.3890
  257SOL    MW4 1060   4.043   1.663   0.786  0.2713 -0.0084 -0.0696
  258SOL     OW 1061   0.222   3.128   0.847 -0.4906  0.4610 -0.2801
  258SOL    HW2 1062   0.236   3.123   0.942 -0.4329  0.7758 -0.2711
  258SOL    HW3 1063   0.139   3.174   0.837 -0.2752  0.8228 -0.3936
  258SOL    MW4 1064   0.213   3.133   0.858 -0.4546  0.5503 -0.2939
  259SOL     OW 1065   1.728   1.225   0.248 -0.2065  0.5851  0.0382
  259SOL    HW2 1066   1.667   1.181   0.189 -1.5242  0.5390  1.4107
  259SOL    HW3 1067   1.781   1.154   0.284 -0.6349  0.4026  0.3148
  259SOL    MW4 1068   1.727   1.209   0.245 -0.4369  0.5550  0.2558
  260SOL     OW 1069   0.033   2.630   0.415 -0.4795  0.2799  0.1414
  260SOL    HW2 1070   0.020   2.541   0.450 -1.1351 -0.3066 -1.5168
  260SOL    HW3 1071  -0.056   2.666   0.409 -0.3560  0.4446 -0.7061
  260SOL    MW4 1072   0.019   2.623   0.419 -0.5497  0.2243 -0.1892
  261SOL     OW 1073   4.478   3.292   0.787  0.1656  0.3787  0.0589
  261SOL    HW2 1074   4.481   3.303   0.692 -1.8539  1.8507  0.1422
  261SOL    HW3 1075   4.518   3.372   0.822  0.1855  0.1919  0.4768
  261SOL    MW4 1076   4.484   3.304   0.779 -0.0982  0.5483  0.1251
  262SOL     OW 1077   0.446   3.533   0.865 -0.1092  0.0627 -0.0643
  262SOL    HW2 1078   0.445   3.532   0.961  0.9940 -0.6743 -0.0617
  262SOL    HW3 1079   0.445   3.441   0.840  2.4561  0.1767 -0.7235
  262SOL    MW4 1080   0.445   3.521   0.875  0.3748 -0.0195 -0.1509
  263SOL     OW 1081   0.313   2.633   0.376  0.1108  0.0944 -0.0796
  263SOL    HW2 1082   0.322   2.630   0.281  0.4205 -0.9107 -0.0245
  263SOL    HW3 1083   0.219   2.644   0.390  0.3206  2.7934 -0.5215
  263SOL    MW4 1084   0.301   2.634   0.365  0.1794  0.3179 -0.1306
  264SOL     OW 1085   0.415   1.253   0.858 -0.4233 -0.1579  0.4216
  264SOL    HW2 1086   0.392   1.166   0.824 -0.5119  0.7050 -1.8010
  264SOL    HW3 1087   0.506   1.267   0.829 -0.3148  0.3797  1.0106
  264SOL    MW4 1088   0.424   1.243   0.849 -0.4207  0.0269  0.2061
  265SOL     OW 1089   0.507   0.206   0.640 -0.3746 -0.7446 -0.3189
  265SOL    HW2 1090   0.424   0.159   0.626  0.3910 -2.6544  1.2331
  265SOL    HW3 1091   0.551   0.155   0.708  2.1926  0.1178 -1.2987
  265SOL    MW4 1092   0.502   0.193   0.647  0.0651 -0.8828 -0.2434
  266SOL     OW 1093   0.441   0.368   1.091  0.0158 -0.5356  0.0229
  266SOL    HW2 1094   0.420   0.364   0.997 -0.7664 -1.1789  0.2202
  266SOL    HW3 1095   0.364   0.410   1.131  0.9461  1.0390  0.1997
  266SOL    MW4 1096   0.428   0.373   1.084  0.0354 -0.4127  0.0723
  267SOL     OW 1097   2.033   2.089   0.706  0.3342 -0.1249  0.0344
  267SOL    HW2 1098   2.032   2.166   0.763 -0.5974 -0.2597  0.2064
  267SOL    HW3 1099   1.948   2.047   0.721  0.5957 -0.8544 -0.5089
  267SOL    MW4 1100   2.021   2.093   0.716  0.2458 -0.2389 -0.0146
  268SOL     OW 1101   3.325   1.294   0.682  0.0368  0.2399  0.0417
  268SOL    HW2 1102   3.408   1.248   0.681 -0.0634  0.0635 -0.7420
  268SOL    HW3 1103   3.339   1.368   0.741  0.4442 -0.3336  0.6775
  268SOL    MW4 1104   3.337   1.298   0.690  0.0773  0.1409  0.0222
  269SOL     OW 1105   3.601   1.688   0.692 -0.3846  0.0119 -0.3641
  269SOL    HW2 1106   3.521   1.649   0.728  0.3759 -1.3206 -0.0822
  269SOL    HW3 1107   3.589   1.683   0.597  0.2959 -2.2160 -0.3596
  269SOL    MW4 1108   3.589   1.682   0.684 -0.1945 -0.4578 -0.3264
  270SOL     OW 1109   0.905   0.100   0.706  0.2263 -0.0845  0.0408
  270SOL    HW2 1110   0.926   0.113   0.613 -0.0486  0.8271  0.1013
  270SOL    HW3 1111   0.817   0.064   0.706  0.4849 -0.7232 -0.0771
  270SOL    MW4 1112   0.896   0.097   0.694  0.2242 -0.0485  0.0332
  271SOL     OW 1113   0.657   2.847   0.808  0.1937 -0.2127 -0.5105
  271SOL    HW2 1114   0.660   2.942   0.819  1.5369 -0.3395  0.4296
  271SOL    HW3 1115   0.670   2.833   0.714  0.9021  0.5131 -0.5305
  271SOL    MW4 1116   0.659   2.858   0.797  0.4644 -0.1337 -0.3891
  272SOL     OW 1117   1.547   0.099   0.309 -0.1639 -0.0764 -0.5570
  272SOL    HW2 1118   1.570   0.192   0.310 -1.1303  0.2007 -2.1613
  272SOL    HW3 1119   1.619   0.056   0.354  0.2996  1.4539  0.1968
  272SOL    MW4 1120   1.559   0.105   0.315 -0.2303  0.1621 -0.6692
  273SOL     OW 1121   0.436   3.280   0.780 -0.0934  0.5465  0.1609
  273SOL    HW2 1122   0.440   3.273   0.684 -0.8312  0.9570  0.1007
  273SOL    HW3 1123   0.361   3.227   0.805  0.0838  0.4600  0.5165
  273SOL    MW4 1124   0.427   3.272   0.770 -0.1674  0.5892  0.1999
  274SOL     OW 1125   0.653   1.310   0.746  0.1803 -0.7187  0.1417
  274SOL    HW2 1126   0.633   1.336   0.656  2.4918 -0.5351 -0.3398
  274SOL    HW3 1127   0.667   1.393   0.792  1.5017 -0.8990  0.0667
  274SOL    MW4 1128   0.652   1.325   0.741  0.6596 -0.7183  0.0683
  275SOL     OW 1129   2.923   1.548   0.850 -0.7992  0.2997 -0.0355
  275SOL    HW2 1130   2.855   1.594   0.802  0.3185  0.0284 -1.9332
  275SOL    HW3 1131   3.000   1.604   0.843 -0.6311  0.3036  1.5473
  275SOL    MW4 1132   2.924   1.561   0.843 -0.6296  0.2644 -0.0770
  276SOL     OW 1133   4.481   1.648   0.775 -0.2574  0.2074  0.2377
  276SOL    HW2 1134   4.416   1.614   0.836 -0.0516 -1.7513 -0.5949
  276SOL    HW3 1135   4.553   1.584   0.780 -0.1574  0.1394 -1.8723
  276SOL    MW4 1136   4.482   1.635   0.784 -0.2171 -0.0600 -0.1506
  277SOL     OW 1137   1.227   3.886   0.503  0.3521  0.1831  0.0740
  277SOL    HW2 1138   1.274   3.923   0.578  0.8281 -0.2369 -0.0144
  277SOL    HW3 1139   1.296   3.862   0.442  0.0238 -0.6257  0.0255
  277SOL    MW4 1140   1.242   3.888   0.505  0.3716  0.0209  0.0559
  278SOL     OW 1141   0.869   2.258   0.587 -0.2995 -0.5245 -0.1719
  278SOL    HW2 1142   0.925   2.181   0.589 -0.3928 -0.5698  2.0819
  278SOL    HW3 1143   0.798   2.235   0.529  0.4724 -1.5673 -0.7178
  278SOL    MW4 1144   0.867   2.245   0.580 -0.2100 -0.6681  0.0534
  279SOL     OW 1145   2.823   0.096   0.416 -0.2094  0.5485 -0.1108
  279SOL    HW2 1146   2.759   0.084   0.487 -0.0142  1.3914  0.2188
  279SOL    HW3 1147   2.771   0.135   0.345  0.0224  1.6957  0.3307
  279SOL    MW4 1148   2.807   0.100   0.416 -0.1530  0.8111 -0.0091
  280SOL     OW 1149   0.842   3.021   0.519 -0.0342  0.1042 -0.7006
  280SOL    HW2 1150   0.870   3.088   0.582 -2.1025  0.0287  0.3506
  280SOL    HW3 1151   0.822   3.070   0.439 -0.9641  0.6928 -0.1219
  280SOL    MW4 1152   0.843   3.037   0.517 -0.4297  0.1719 -0.4856
  281SOL     OW 1153   0.131   2.128   0.487 -0.4897  0.2412 -0.2590
  281SOL    HW2 1154   0.158   2.093   0.572  0.4267 -0.6087 -0.8870
  281SOL    HW3 1155   0.076   2.059   0.449 -1.2515  0.8007 -0.1662
  281SOL    MW4 1156   0.128   2.114   0.493 -0.4693  0.2029 -0.3296
  282SOL     OW 1157   3.291   3.859   0.791  0.4155 -0.3569  0.1937
  282SOL    HW2 1158   3.319   3.770   0.769  1.1841 -0.2432  0.6760
  282SOL    HW3 1159   3.314   3.869   0.884 -0.2833  0.1088  0.3188
  282SOL    MW4 1160   3.298   3.849   0.800  0.4247 -0.2804  0.2738
  283SOL     OW 1161   3.581   2.447   0.770  0.2030 -0.2171 -0.6388
  283SOL    HW2 1162   3.574   2.539   0.797  0.0912 -0.2704 -0.4879
  283SOL    HW3 1163   3.507   2.404   0.812  1.9111 -0.9460  1.7237
  283SOL    MW4 1164   3.571   2.453   0.779  0.4136 -0.3203 -0.3072
  284SOL     OW 1165   0.053   3.529   0.894 -0.5381 -0.3022 -0.0902
  284SOL    HW2 1166   0.124   3.552   0.835 -1.0446  0.7264 -0.3022
  284SOL    HW3 1167  -0.025   3.567   0.855 -1.0544 -0.5625  0.6639
  284SOL    MW4 1168   0.052   3.537   0.881 -0.6730 -0.2008 -0.0187
  285SOL     OW 1169   0.688   3.603   0.742  0.0921 -0.1284 -0.5788
  285SOL    HW2 1170   0.612   3.577   0.794  0.6091  1.2345  0.9135
  285SOL    HW3 1171   0.651   3.632   0.659 -0.9050 -0.7798 -0.3761
  285SOL    MW4 1172   0.673   3.604   0.738  0.0287 -0.0346 -0.3552
  286SOL     OW 1173   1.768   3.962   0.514  0.0993  0.0902 -0.4976
  286SOL    HW2 1174   1.774   3.955   0.609 -0.2987  0.2412 -0.4608
  286SOL    HW3 1175   1.729   4.048   0.499  3.1001  1.4298 -0.8741
  286SOL    MW4 1176   1.763   3.972   0.525  0.4427  0.2869 -0.5425
  287SOL     OW 1177   0.316   4.563   0.419 -0.2058  0.2629  0.0406
  287SOL    HW2 1178   0.400   4.539   0.456  0.0411  0.8837 -0.1092
  287SOL    HW3 1179   0.272   4.480   0.402  1.0908 -0.1139 -1.5285
  287SOL    MW4 1180   0.321   4.549   0.422 -0.0022  0.2951 -0.1862
  288SOL     OW 1181   0.422   4.262   0.861  0.2054  0.1404 -0.1529
  288SOL    HW2 1182   0.421   4.246   0.955 -0.0950 -1.1415 -0.3687
  288SOL    HW3 1183   0.331   4.275   0.837  0.0960 -1.3667 -0.5692
  288SOL    MW4 1184   0.410   4.262   0.870  0.1514 -0.2276 -0.2363
  289SOL     OW 1185   0.593   4.416   0.729  0.2984  0.7277  0.0358
  289SOL    HW2 1186   0.674   4.374   0.758 -0.6393 -0.7606  0.5645
  289SOL    HW3 1187   0.524   4.355   0.756 -0.8691  1.1457 -1.9236
  289SOL    MW4 1188   0.594   4.402   0.736  0.0207  0.5865 -0.1529
  290SOL     OW 1189   2.266   1.190   0.135  0.1843  0.1673  0.0838
  290SOL    HW2 1190   2.228   1.275   0.112 -0.3697  0.2812  1.3806
  290SOL    HW3 1191   2.249   1.181   0.228  2.0900 -0.4387  0.3911
  290SOL    MW4 1192   2.259   1.200   0.144  0.3626  0.1024  0.2954
  291SOL     OW 1193   1.754   1.161   0.808 -0.3315  0.4114 -0.1766
  291SOL    HW2 1194   1.686   1.221   0.778  1.0606  2.5500  0.8445
  291SOL    HW3 1195   1.836   1.208   0.792  0.8210 -1.4020  0.2407
  291SOL    MW4 1196   1.756   1.175   0.802  0.0043  0.4543  0.0132
  292SOL     OW 1197   1.462   0.556   0.420  0.1303 -0.5057  0.4301
  292SOL    HW2 1198   1.456   0.643   0.383 -1.8605 -0.8662 -0.1933
  292SOL    HW3 1199   1.496   0.501   0.350  1.1511 -0.2738  0.7448
  292SOL    MW4 1200   1.465   0.560   0.406  0.0023 -0.5227  0.3894
  293SOL     OW 1201   1.093   0.775   0.814 -0.1742 -0.0012 -0.4725
  293SOL    HW2 1202   1.102   0.778   0.909  0.3134  0.3654 -0.5280
  293SOL    HW3 1203   1.109   0.683   0.791  0.0614 -0.0204 -0.2310
  293SOL    MW4 1204   1.097   0.763   0.823 -0.0788  0.0447 -0.4480
  294SOL     OW 1205   3.796   0.528   0.757  0.6323 -0.5025  0.2981
  294SOL    HW2 1206   3.785   0.545   0.663 -1.7501 -0.3206  0.5557
  294SOL    HW3 1207   3.808   0.615   0.795 -2.7244 -0.1012  0.6065
  294SOL    MW4 1208   3.796   0.542   0.750 -0.1249 -0.4256  0.3728
  295SOL     OW 1209   2.070   0.982   0.153 -0.2868 -0.1254 -0.0979
  295SOL    HW2 1210   2.121   0.909   0.189  0.4369  0.6689  0.5334
  295SOL    HW3 1211   2.135   1.035   0.107 -0.5475  0.8446  0.6321
  295SOL    MW4 1212   2.086   0.979   0.152 -0.2257  0.1074  0.0817
  296SOL     OW 1213   1.068   1.296   0.512 -0.2136 -0.1160 -0.2639
  296SOL    HW2 1214   0.987   1.340   0.487  1.1280  1.4165 -2.0159
  296SOL    HW3 1215   1.058   1.207   0.479 -0.8158  0.3203 -1.2806
  296SOL    MW4 1216   1.056   1.290   0.504 -0.1160  0.1437 -0.6292
  297SOL     OW 1217   0.690   0.816   0.788 -0.1990  0.3205 -0.0515
  297SOL    HW2 1218   0.761   0.846   0.732 -0.3421 -0.4838 -0.6796
  297SOL    HW3 1219   0.670   0.728   0.756  0.3066 -0.5078  1.8399
  297SOL    MW4 1220   0.697   0.808   0.777 -0.1512  0.1051  0.1152
  298SOL     OW 1221   0.684   1.547   0.884  0.0938  0.5014  0.4530
  298SOL    HW2 1222   0.750   1.611   0.857 -0.5272  1.4862  1.1950
  298SOL    HW3 1223   0.684   1.552   0.980 -1.9412  1.4750  0.4331
  298SOL    MW4 1224   0.693   1.556   0.893 -0.2566  0.7598  0.5482
  299SOL     OW 1225   3.826   2.088   0.835 -0.7991  0.7095  0.1782
  299SOL    HW2 1226   3.813   2.078   0.741  0.8820 -0.6278  0.0621
  299SOL    HW3 1227   3.908   2.041   0.853 -0.7264  1.5550  2.1865
  299SOL    MW4 1228   3.835   2.081   0.825 -0.5677  0.6447  0.4279
  300SOL     OW 1229   1.308   2.475   0.488  0.4259 -0.1868 -0.0165
  300SOL    HW2 1230   1.316   2.391   0.442  0.1185 -1.4143  2.0971
  300SOL    HW3 1231   1.214   2.495   0.486  0.5798  0.4722 -1.1136
  300SOL    MW4 1232   1.297   2.466   0.481  0.4057 -0.2618  0.1176
  301SOL     OW 1233   2.905   0.540   0.677  0.3309  0.1594  0.3792
  301SOL    HW2 1234   2.893   0.625   0.718  2.1975  0.0335  1.2492
  301SOL    HW3 1235   2.977   0.500   0.726  0.5913 -1.2327 -1.1038
  301SOL    MW4 1236   2.913   0.546   0.689  0.6116 -0.0409  0.2983
  302SOL     OW 1237   3.146   3.716   0.477 -0.4500  0.0131 -0.0111
  302SOL    HW2 1238   3.230   3.678   0.453 -0.4293  0.0596 -0.0118
  302SOL    HW3 1239   3.103   3.649   0.531 -0.5088 -0.1039 -0.2010
  302SOL    MW4 1240   3.151   3.702   0.481 -0.4550  0.0038 -0.0363
  303SOL     OW 1241   0.176   4.345   0.776 -0.3400  0.3508  0.3231
  303SOL    HW2 1242   0.171   4.437   0.800 -0.1567  1.1389 -2.4598
  303SOL    HW3 1243   0.087   4.312   0.789 -0.5862  1.1316  0.6114
  303SOL    MW4 1244   0.163   4.353   0.781 -0.3483  0.5578 -0.0060
  304SOL     OW 1245   1.331   1.673   0.456 -0.1504 -0.2688 -0.3394
  304SOL    HW2 1246   1.315   1.583   0.430  0.7489  0.1460 -2.5088
  304SOL    HW3 1247   1.249   1.719   0.436 -0.3354 -0.4590 -0.0052
  304SOL    MW4 1248   1.318   1.667   0.450 -0.0562 -0.2392 -0.5816
  305SOL     OW 1249   0.744   0.025   0.338 -0.1002 -0.3163 -0.0799
  305SOL    HW2 1250   0.821   0.078   0.361 -0.2162 -0.8016  1.4115
  305SOL    HW3 1251   0.685   0.087   0.295  0.8637  0.1907 -0.7023
  305SOL    MW4 1252   0.747   0.041   0.335  0.0117 -0.3134  0.0348
  306SOL     OW 1253   0.391   2.168   0.380 -0.1378  0.4515  0.3615
  306SOL    HW2 1254   0.406   2.094   0.321 -1.4271  1.6822 -1.5533
  306SOL    HW3 1255   0.303   2.153   0.414 -0.2267  0.8791  0.3133
  306SOL    MW4 1256   0.382   2.156   0.377 -0.3196  0.6703  0.1025
  307SOL     OW 1257   1.622   2.976   0.235  0.2225 -0.3882  0.0291
  307SOL    HW2 1258   1.543   2.941   0.192 -0.9897  0.8987  1.1626
  307SOL    HW3 1259   1.691   2.914   0.211 -0.9801 -1.1659 -1.5536
  307SOL    MW4 1260   1.621   2.963   0.226 -0.0961 -0.3210 -0.0302
  308SOL     OW 1261   2.461   1.387   0.514  0.4537 -0.2529 -0.1110
  308SOL    HW2 1262   2.420   1.321   0.458 -0.6124  0.8204 -0.6212
  308SOL    HW3 1263   2.543   1.409   0.469  0.6001 -0.9133 -0.1648
  308SOL    MW4 1264   2.466   1.382   0.501  0.3324 -0.1984 -0.1854
  309SOL     OW 1265   2.526   4.326   0.474 -0.1263  0.1526  0.3663
  309SOL    HW2 1266   2.601   4.372   0.436 -0.8514  0.7462 -0.3715
  309SOL    HW3 1267   2.554   4.234   0.479 -0.3504 -0.1257 -2.5696
  309SOL    MW4 1268   2.540   4.320   0.469 -0.2516  0.1942 -0.1184
  310SOL     OW 1269   3.365   3.615   0.719  0.2820  0.1476  0.2599
  310SOL    HW2 1270   3.435   3.597   0.781  0.0674  1.0183  0.7585
  310SOL    HW3 1271   3.290   3.564   0.751  0.5482 -0.4200 -0.0149
  310SOL    MW4 1272   3.364   3.606   0.731  0.2888  0.1876  0.2894
  311SOL     OW 1273   4.399   1.656   0.506 -0.5533 -0.1974 -0.4627
  311SOL    HW2 1274   4.455   1.587   0.472 -1.0736 -1.2575  0.7884
  311SOL    HW3 1275   4.422   1.663   0.599 -0.9805  0.8420 -0.4197
  311SOL    MW4 1276   4.410   1.648   0.514 -0.6783 -0.2002 -0.2920
  312SOL     OW 1277   1.094   4.415   0.801 -0.2385 -0.5711  0.3105
  312SOL    HW2 1278   1.118   4.407   0.709  1.9434  0.8154  0.7119
  312SOL    HW3 1279   1.104   4.508   0.820  0.1460 -0.9682  2.1593
  312SOL    MW4 1280   1.098   4.426   0.791  0.1001 -0.4406  0.6074
  313SOL     OW 1281   1.810   2.482   0.746 -0.0900 -0.3450  0.1839
  313SOL    HW2 1282   1.828   2.564   0.792 -0.4267 -0.2389  0.1278
  313SOL    HW3 1283   1.733   2.446   0.790 -0.2223 -0.4003 -0.0905
  313SOL    MW4 1284   1.802   2.488   0.758 -0.1519 -0.3383  0.1403
  314SOL     OW 1285   1.563   4.656   0.828  0.2022  0.0014  0.0151
  314SOL    HW2 1286   1.570   4.650   0.923  0.0310  0.2665  0.0436
  314SOL    HW3 1287   1.534   4.569   0.801 -0.7083  0.2177  0.2899
  314SOL    MW4 1288   1.560   4.644   0.837  0.0595  0.0649  0.0551
  315SOL     OW 1289   1.127   0.030   0.859  0.3410 -0.3808 -0.0758
  315SOL    HW2 1290   1.192   0.093   0.829 -0.6770  0.7224  0.0138
  315SOL    HW3 1291   1.048   0.052   0.810 -0.3351 -0.8777  0.7715
  315SOL    MW4 1292   1.125   0.041   0.848  0.1175 -0.3008  0.0478
  316SOL     OW 1293   1.345   0.387   0.810 -0.2919 -0.3563 -0.5682
  316SOL    HW2 1294   1.362   0.407   0.902 -1.0140  1.5894 -0.8267
  316SOL    HW3 1295   1.412   0.436   0.762 -2.2184  1.7416 -1.2293
  316SOL    MW4 1296   1.356   0.396   0.815 -0.6414  0.1772 -0.6895
  317SOL     OW 1297   1.566   0.505   0.671 -0.0966  0.0550  0.1499
  317SOL    HW2 1298   1.551   0.506   0.577  0.9374  0.5105 -0.0130
  317SOL    HW3 1299   1.563   0.597   0.697 -0.6404 -0.0866  0.6063
  317SOL    MW4 1300   1.564   0.518   0.662 -0.0319  0.0964  0.1886
  318SOL     OW 1301   3.211   1.699   0.515  0.3913 -0.0170  0.2981
  318SOL    HW2 1302   3.139   1.703   0.451 -0.1881 -1.1527  0.8597
  318SOL    HW3 1303   3.267   1.773   0.493  0.6861 -0.9113 -2.1250
  318SOL    MW4 1304   3.209   1.709   0.503  0.3537 -0.2848  0.0525
  319SOL     OW 1305   0.923   0.959   0.687 -0.2061 -0.0422 -0.4925
  319SOL    HW2 1306   0.959   0.992   0.605  0.4770 -0.8748 -0.5319
  319SOL    HW3 1307   0.981   0.886   0.711 -1.0937 -0.5511  0.1162
  319SOL    MW4 1308   0.935   0.954   0.679 -0.2331 -0.2192 -0.4174
  320SOL     OW 1309   1.347   1.168   0.876 -0.0244 -0.0766  0.6381
  320SOL    HW2 1310   1.352   1.175   0.971  0.3681  1.3373  0.5169
  320SOL    HW3 1311   1.258   1.197   0.854  0.0669  0.1212  0.5275
  320SOL    MW4 1312   1.336   1.173   0.885  0.0395  0.1361  0.6075
  321SOL     OW 1313   3.371   2.074   0.767 -0.2274 -0.6989  0.3604
  321SOL    HW2 1314   3.401   2.101   0.680 -0.3631 -3.2335 -0.5240
  321SOL    HW3 1315   3.449   2.038   0.809 -0.8706 -2.6207 -0.0331
  321SOL    MW4 1316   3.385   2.072   0.761 -0.3301 -1.2869  0.1918
  322SOL     OW 1317   0.589   3.825   0.189  0.1739 -0.3898  0.2271
  322SOL    HW2 1318   0.672   3.793   0.223 -0.0748 -2.0678 -0.7072
  322SOL    HW3 1319   0.587   3.796   0.098 -1.9889 -1.4407  0.5814
  322SOL    MW4 1320   0.599   3.817   0.181 -0.1443 -0.7498  0.1506
  323SOL     OW 1321   3.768   1.707   0.407 -0.0117 -0.2560  0.6951
  323SOL    HW2 1322   3.842   1.768   0.404  0.0833 -0.3317  1.3684
  323SOL    HW3 1323   3.809   1.622   0.425 -0.3083 -0.2086  1.6099
  323SOL    MW4 1324   3.783   1.704   0.409 -0.0383 -0.2597  0.9047
  324SOL     OW 1325   1.928   1.470   0.280  0.0877 -0.1433 -0.0975
  324SOL    HW2 1326   1.873   1.542   0.311 -0.3238 -0.9028  0.9580
  324SOL    HW3 1327   1.867   1.408   0.241  0.4956  0.3072 -1.4817
  324SOL    MW4 1328   1.913   1.471   0.279  0.0872 -0.1841 -0.1409
  325SOL     OW 1329   3.505   2.151   0.535  0.1838 -0.2337 -0.1135
  325SOL    HW2 1330   3.587   2.103   0.523  1.0385  0.9173  1.0576
  325SOL    HW3 1331   3.522   2.237   0.496 -0.8441 -0.3627 -0.8612
  325SOL    MW4 1332   3.518   2.156   0.528  0.1610 -0.0988 -0.0577
  326SOL     OW 1333   3.503   3.956   0.477  0.0321  0.3726 -0.2392
  326SOL    HW2 1334   3.513   3.972   0.571 -1.1645  1.1300 -0.2288
  326SOL    HW3 1335   3.525   4.040   0.436 -2.0877  0.8517 -0.4519
  326SOL    MW4 1336   3.507   3.969   0.484 -0.4054  0.5357 -0.2659
  327SOL     OW 1337   1.086   3.589   0.760  0.2171  0.1579 -0.3425
  327SOL    HW2 1338   1.170   3.548   0.780 -0.7903 -1.8569 -0.1270
  327SOL    HW3 1339   1.024   3.547   0.820 -1.1020  1.0040 -1.0877
  327SOL    MW4 1340   1.089   3.578   0.771 -0.0899  0.0037 -0.4124
  328SOL     OW 1341   0.883   2.650   0.842 -0.2056  0.5113 -0.4751
  328SOL    HW2 1342   0.883   2.652   0.938  0.9995 -0.0510 -0.4640
  328SOL    HW3 1343   0.814   2.712   0.817 -0.2696  0.9435  0.7474
  328SOL    MW4 1344   0.874   2.659   0.852 -0.0551  0.4941 -0.3124
  329SOL     OW 1345   1.629   2.833   0.736  0.2538  0.6598  0.2383
  329SOL    HW2 1346   1.595   2.916   0.771 -0.2210  0.3658  0.4758
  329SOL    HW3 1347   1.560   2.770   0.753  0.3618  0.3381 -0.4952
  329SOL    MW4 1348   1.615   2.836   0.742  0.2054  0.5785  0.1729
  330SOL     OW 1349   2.983   4.360   0.519  0.2408 -0.1201 -0.0103
  330SOL    HW2 1350   3.075   4.372   0.495  0.1071 -0.4560 -0.7240
  330SOL    HW3 1351   2.981   4.370   0.614  0.6088  2.4394 -0.2318
  330SOL    MW4 1352   2.995   4.363   0.528  0.2717  0.1733 -0.1337
  331SOL     OW 1353   4.015   4.268   0.399  0.3066 -0.1670  0.0388
  331SOL    HW2 1354   4.016   4.265   0.304 -0.7699 -0.5113  0.0304
  331SOL    HW3 1355   4.086   4.328   0.422  0.6047 -0.1228 -0.9738
  331SOL    MW4 1356   4.025   4.276   0.390  0.2039 -0.2066 -0.0959
  332SOL     OW 1357   1.051   3.850   0.861 -0.0933 -0.2155 -0.5907
  332SOL    HW2 1358   1.060   3.766   0.818  0.4744 -0.2298 -0.4560
  332SOL    HW3 1359   1.073   3.833   0.953 -1.2270 -0.1741 -0.3100
  332SOL    MW4 1360   1.055   3.837   0.867 -0.1680 -0.2119 -0.5359
  333SOL     OW 1361   4.027   4.255   0.821 -0.5314  1.1895  0.0018
  333SOL    HW2 1362   3.945   4.291   0.786  0.4895  1.4714 -2.2164
  333SOL    HW3 1363   4.090   4.326   0.812  0.3440  0.4512  0.2064
  333SOL    MW4 1364   4.025   4.269   0.815 -0.2812  1.1293 -0.2639
  334SOL     OW 1365   2.252   3.212   0.763  0.0062  0.5901  0.4319
  334SOL    HW2 1366   2.182   3.202   0.827  0.8877  0.8069  1.4572
  334SOL    HW3 1367   2.326   3.165   0.802  1.2672  2.7432  0.6922
  334SOL    MW4 1368   2.253   3.205   0.777  0.2889  0.9028  0.6015
  335SOL     OW 1369   2.281   1.701   0.742  0.2567 -0.7794  0.0987
  335SOL    HW2 1370   2.342   1.654   0.799 -0.9239 -0.7690  1.4000
  335SOL    HW3 1371   2.271   1.787   0.784 -1.3415 -1.0980  0.4281
  335SOL    MW4 1372   2.288   1.706   0.755 -0.1099 -0.8201  0.3138
  336SOL     OW 1373   2.033   4.412   0.718  0.4050  0.0077  0.0616
  336SOL    HW2 1374   2.024   4.428   0.624 -1.8666  2.0745  0.5940
  336SOL    HW3 1375   1.957   4.360   0.742  0.0263  1.0034  1.0757
  336SOL    MW4 1376   2.022   4.408   0.709  0.0554  0.4117  0.2657
  337SOL     OW 1377   2.039   3.998   0.465 -0.2966  0.1059  0.9118
  337SOL    HW2 1378   1.944   3.985   0.472 -0.5594  1.6675  0.3713
  337SOL    HW3 1379   2.074   3.909   0.461 -1.7597 -0.4938  0.8245
  337SOL    MW4 1380   2.031   3.984   0.465 -0.5243  0.2328  0.8290
  338SOL     OW 1381   2.444   4.663   0.808 -0.3613  0.2606 -0.0124
  338SOL    HW2 1382   2.465   4.665   0.901  1.4347  0.3766 -0.4048
  338SOL    HW3 1383   2.455   4.572   0.783  1.2962  0.6056 -0.5741
  338SOL    MW4 1384   2.448   4.652   0.817  0.0944  0.3214 -0.1383
  339SOL     OW 1385   2.043   3.306   0.398  0.1547 -0.4096  0.1715
  339SOL    HW2 1386   2.130   3.268   0.413 -0.3604 -0.8032  2.3588
  339SOL    HW3 1387   1.985   3.255   0.455 -1.0979  1.4589  0.6190
  339SOL    MW4 1388   2.047   3.294   0.408 -0.0785 -0.2150  0.5191
  340SOL     OW 1389   1.805   0.406   0.813  0.1091  0.5329  0.2042
  340SOL    HW2 1390   1.730   0.447   0.771 -0.3118  0.9437  1.3328
  340SOL    HW3 1391   1.794   0.313   0.796 -1.8351  0.3647  2.1950
  340SOL    MW4 1392   1.794   0.399   0.805 -0.2030  0.5649  0.6158
  341SOL     OW 1393   3.263   4.331   0.432  0.1747  0.0141 -0.4060
  341SOL    HW2 1394   3.284   4.418   0.397 -1.8400  1.0761  0.9018
  341SOL    HW3 1395   3.281   4.338   0.526 -1.3744 -0.4990 -0.0481
  341SOL    MW4 1396   3.268   4.344   0.440 -0.2955  0.0865 -0.1862
  342SOL     OW 1397   3.234   4.027   0.453 -0.1778  0.2658 -0.2635
  342SOL    HW2 1398   3.234   4.123   0.446 -0.5706  0.2995  0.1816
  342SOL    HW3 1399   3.326   4.003   0.459 -0.0951  0.6474 -0.0030
  342SOL    MW4 1400   3.246   4.037   0.453 -0.2187  0.3206 -0.1704
  343SOL     OW 1401   1.584   3.106   0.848  0.2529 -0.2723  0.6649
  343SOL    HW2 1402   1.578   3.086   0.941 -1.6550  1.2780  0.9099
  343SOL    HW3 1403   1.498   3.143   0.826  1.1854  0.7415 -1.3689
  343SOL    MW4 1404   1.572   3.108   0.857  0.1242  0.0660  0.4289
  344SOL     OW 1405   3.632   3.727   0.368  0.1691  0.0568  0.3037
  344SOL    HW2 1406   3.593   3.809   0.398 -0.9357 -0.5678  0.5868
  344SOL    HW3 1407   3.638   3.737   0.272 -2.2187 -0.4874  0.0692
  344SOL    MW4 1408   3.628   3.739   0.359 -0.2917 -0.0974  0.3101
  345SOL     OW 1409   1.625   3.248   0.324  0.1301 -0.2678  0.0544
  345SOL    HW2 1410   1.612   3.166   0.276  0.1484  0.0045 -0.4156
  345SOL    HW3 1411   1.666   3.307   0.261  0.1290  0.1032  0.3963
  345SOL    MW4 1412   1.629   3.245   0.310  0.1324 -0.1829  0.0375
  346SOL     OW 1413   2.496   1.547   0.847  0.0223 -0.0760 -0.2768
  346SOL    HW2 1414   2.479   1.455   0.827 -1.8890  0.7476 -2.6666
  346SOL    HW3 1415   2.564   1.573   0.784  1.1990 -0.0653  0.9813
  346SOL    MW4 1416   2.503   1.538   0.836 -0.0746  0.0341 -0.4261
  347SOL     OW 1417   4.020   3.971   0.769 -0.2969  0.1443  0.1623
  347SOL    HW2 1418   4.054   3.989   0.681 -1.8591  1.2065 -0.2660
  347SOL    HW3 1419   4.014   4.058   0.810 -0.9648 -0.1853  0.7773
  347SOL    MW4 1420   4.024   3.985   0.763 -0.5911  0.2410  0.1869
  348SOL     OW 1421   1.360   2.882   0.137 -0.0805 -0.5160  0.9633
  348SOL    HW2 1422   1.341   2.856   0.048  0.6995  0.0144  0.6291
  348SOL    HW3 1423   1.383   2.801   0.183  1.2815 -0.5716  0.2152
  348SOL    MW4 1424   1.361   2.868   0.132  0.2022 -0.4534  0.8205
  349SOL     OW 1425   3.895   1.449   0.470 -0.4259 -0.3848  0.1679
  349SOL    HW2 1426   3.896   1.405   0.386 -0.0431  1.3775 -0.7757
  349SOL    HW3 1427   3.976   1.500   0.472 -0.6569 -0.0373  1.3939
  349SOL    MW4 1428   3.906   1.450   0.459 -0.4058 -0.1064  0.2052
  350SOL     OW 1429   1.498   2.091   0.459  0.3934 -0.3336 -0.3591
  350SOL    HW2 1430   1.589   2.105   0.432  0.4039 -0.4637 -0.3949
  350SOL    HW3 1431   1.479   2.001   0.432 -0.1748  0.1339 -1.5508
  350SOL    MW4 1432   1.508   2.081   0.452  0.3198 -0.2891 -0.5210
  351SOL     OW 1433   3.589   1.167   0.751  0.4668 -0.7097  0.2005
  351SOL    HW2 1434   3.599   1.077   0.719  2.9426 -0.2630 -0.4148
  351SOL    HW3 1435   3.590   1.159   0.846  1.5753 -1.2682  0.1507
  351SOL    MW4 1436   3.591   1.154   0.759  0.9397 -0.7245  0.1128
  352SOL     OW 1437   1.057   4.101   0.460  0.3930  0.4709 -0.4362
  352SOL    HW2 1438   0.969   4.061   0.459  0.5983 -0.0284  0.9458
  352SOL    HW3 1439   1.116   4.028   0.478  0.8927  1.1745  0.8355
  352SOL    MW4 1440   1.053   4.086   0.462  0.4860  0.4979 -0.0861
  353SOL     OW 1441   1.104   2.098   0.777 -0.0348  0.1457  0.3182
  353SOL    HW2 1442   1.028   2.056   0.816 -0.2981  0.1281 -0.2149
  353SOL    HW3 1443   1.173   2.032   0.782 -0.0217  0.1966  0.8924
  353SOL    MW4 1444   1.103   2.084   0.783 -0.0678  0.1501  0.3236
  354SOL     OW 1445   3.458   0.445   0.488 -0.1855  0.1178  1.0196
  354SOL    HW2 1446   3.490   0.355   0.489  1.5014  0.6481 -1.1039
  354SOL    HW3 1447   3.369   0.438   0.453 -0.3597 -0.7886  1.6173
  354SOL    MW4 1448   3.451   0.432   0.484  0.0141  0.0681  0.8183
  355SOL     OW 1449   2.950   2.915   0.526 -0.2941 -0.3964 -0.1979
  355SOL    HW2 1450   2.880   2.948   0.470 -0.1876 -1.7245 -1.1542
  355SOL    HW3 1451   2.959   2.823   0.501 -0.1374 -0.9722  1.9281
  355SOL    MW4 1452   2.942   2.907   0.515 -0.2594 -0.6476 -0.0436
  356SOL     OW 1453   1.805   3.511   0.830 -0.7730  0.1845 -0.3709
  356SOL    HW2 1454   1.787   3.506   0.923  0.2952  0.8912 -0.1054
  356SOL    HW3 1455   1.811   3.420   0.801  1.2277 -0.0733  0.7480
  356SOL    MW4 1456   1.804   3.498   0.838 -0.3681  0.2437 -0.1882
  357SOL     OW 1457   0.078   2.908   0.529  0.2332 -0.0406 -0.2954
  357SOL    HW2 1458   0.073   2.820   0.493  0.1761  0.3449 -1.2404
  357SOL    HW3 1459   0.111   2.896   0.618  0.3028 -1.0072 -0.4512
  357SOL    MW4 1460   0.082   2.895   0.536  0.2349 -0.1173 -0.4406
  358SOL     OW 1461   2.174   1.482   0.149 -0.7262  0.4260 -0.0129
  358SOL    HW2 1462   2.202   1.569   0.177 -0.1092 -0.4705  2.2188
  358SOL    HW3 1463   2.085   1.473   0.185 -1.0375  0.3675 -0.7799
  358SOL    MW4 1464   2.166   1.493   0.157 -0.6859  0.3000  0.1804
  359SOL     OW 1465   0.861   0.347   0.841 -0.0026  0.2819 -0.3260
  359SOL    HW2 1466   0.872   0.259   0.804 -0.5232 -0.2564  0.7960
  359SOL    HW3 1467   0.861   0.334   0.936 -0.5628  1.4398 -0.1591
  359SOL    MW4 1468   0.862   0.334   0.848 -0.1452  0.3636 -0.1559
  360SOL     OW 1469   4.386   4.018   0.484 -0.0224  0.2703  0.1427
  360SOL    HW2 1470   4.408   4.011   0.577  0.8326  0.3181 -0.0476
  360SOL    HW3 1471   4.418   3.936   0.446  1.1888  0.9745 -0.3977
  360SOL    MW4 1472   4.393   4.006   0.491  0.2502  0.3695  0.0463
  361SOL     OW 1473   1.742   4.644   0.445 -0.6316  0.0625  0.2991
  361SOL    HW2 1474   1.749   4.702   0.522  0.1349 -1.4300  1.3627
  361SOL    HW3 1475   1.827   4.603   0.438 -0.7613  0.0400 -1.2684
  361SOL    MW4 1476   1.754   4.646   0.454 -0.5476 -0.1374  0.2326
  362SOL     OW 1477   0.415   1.901   0.252  0.5208 -0.2939 -0.3192
  362SOL    HW2 1478   0.341   1.847   0.280  0.6291  0.5245  1.6349
  362SOL    HW3 1479   0.492   1.859   0.293  0.5959  1.3175  1.2722
  362SOL    MW4 1480   0.416   1.888   0.261  0.5450  0.0267  0.1485
  363SOL     OW 1481   2.240   0.350   1.115 -0.3157  0.3245 -0.3697
  363SOL    HW2 1482   2.228   0.343   1.021 -1.7237 -0.3147 -0.1622
  363SOL    HW3 1483   2.159   0.391   1.146 -0.0871  0.0328  0.6244
  363SOL    MW4 1484   2.228   0.355   1.107 -0.4713  0.2017 -0.2111
  364SOL     OW 1485   4.291   0.553   0.785 -0.1274  0.3978  0.5120
  364SOL    HW2 1486   4.300   0.570   0.691  1.9726 -0.4610  0.5426
  364SOL    HW3 1487   4.362   0.492   0.806  0.0817  1.3821  2.8541
  364SOL    MW4 1488   4.302   0.548   0.776  0.1772  0.4144  0.8251
  365SOL     OW 1489   2.478   0.688   0.273 -0.2907  0.0984  0.2343
  365SOL    HW2 1490   2.548   0.628   0.246 -0.2292  0.0652  0.4621
  365SOL    HW3 1491   2.524   0.769   0.295 -0.2293 -0.1837  1.1876
  365SOL    MW4 1492   2.494   0.691   0.273 -0.2745  0.0568  0.3901
  366SOL     OW 1493   2.693   1.407   0.353 -0.2786 -0.5007  0.2426
  366SOL    HW2 1494   2.675   1.374   0.264  0.7494 -0.2459 -0.0700
  366SOL    HW3 1495   2.767   1.354   0.383 -0.1678 -0.1019  0.6768
  366SOL    MW4 1496   2.700   1.395   0.345 -0.1283 -0.4144  0.2586
  367SOL     OW 1497   2.486   1.278   0.763 -0.2807  0.4312 -0.1410
  367SOL    HW2 1498   2.490   1.315   0.675  0.0237  1.3405  0.2558
  367SOL    HW3 1499   2.398   1.240   0.770 -0.1207 -0.1011 -1.0161
  367SOL    MW4 1500   2.475   1.278   0.753 -0.2194  0.4810 -0.2041
  368SOL     OW 1501   2.223   1.133   0.832 -0.6358  0.3967 -0.3190
  368SOL    HW2 1502   2.238   1.039   0.821 -1.4843  0.1633  0.4619
  368SOL    HW3 1503   2.231   1.147   0.926  1.0644  1.3933 -0.5849
  368SOL    MW4 1504   2.226   1.123   0.843 -0.5234  0.4974 -0.2511
  369SOL     OW 1505   1.618   1.553   0.782 -0.0783 -0.3991 -0.0643
  369SOL    HW2 1506   1.616   1.557   0.878 -0.6971 -0.4410 -0.0701
  369SOL    HW3 1507   1.608   1.461   0.761  0.9669 -0.4990 -0.1607
  369SOL    MW4 1508   1.616   1.542   0.792 -0.0220 -0.4178 -0.0778
  370SOL     OW 1509   3.163   0.892   0.720 -0.0201  0.4614 -0.4007
  370SOL    HW2 1510   3.243   0.868   0.767  0.7247  0.1115 -1.8087
  370SOL    HW3 1511   3.162   0.987   0.722  0.1571  0.4571  0.0624
  370SOL    MW4 1512   3.173   0.901   0.727  0.1016  0.4147 -0.5254
  371SOL     OW 1513   1.177   0.573   0.478  0.1337  0.6349  0.2757
  371SOL    HW2 1514   1.156   0.547   0.568 -0.3161  0.2212  0.0571
  371SOL    HW3 1515   1.265   0.538   0.463 -0.3587 -0.5652  0.0782
  371SOL    MW4 1516   1.185   0.565   0.488  0.0094  0.4220  0.2208
  372SOL     OW 1517   2.256   1.977   0.839 -0.1368 -0.1634  0.1000
  372SOL    HW2 1518   2.182   2.023   0.800 -0.0342  0.7646  0.9832
  372SOL    HW3 1519   2.330   1.996   0.782 -0.2899  0.0454 -0.0273
  372SOL    MW4 1520   2.256   1.985   0.827 -0.1434 -0.0134  0.1997
  373SOL     OW 1521   2.079   3.704   0.472 -0.4385  0.2589 -0.2530
  373SOL    HW2 1522   2.082   3.676   0.563 -0.3737  0.9912 -0.0288
  373SOL    HW3 1523   2.170   3.698   0.442 -0.0315  2.4246  0.4686
  373SOL    MW4 1524   2.091   3.699   0.480 -0.3763  0.6412 -0.1282
  374SOL     OW 1525   3.370   2.833   0.510 -0.4504 -0.6008 -0.0108
  374SOL    HW2 1526   3.358   2.834   0.605 -2.4676  1.1755 -0.2677
  374SOL    HW3 1527   3.353   2.742   0.485 -1.9333 -0.6455  1.0948
  374SOL    MW4 1528   3.366   2.821   0.520 -0.9122 -0.3723  0.1012
  375SOL     OW 1529   2.283   2.456   0.762  0.0854 -0.5120  0.3413
  375SOL    HW2 1530   2.205   2.414   0.798 -0.0697 -0.4871  0.0424
  375SOL    HW3 1531   2.287   2.541   0.806 -1.1118  0.2521 -0.9800
  375SOL    MW4 1532   2.273   2.462   0.772 -0.0930 -0.4079  0.1275
  376SOL     OW 1533   2.257   2.708   0.872  0.1665 -0.0106 -0.2323
  376SOL    HW2 1534   2.246   2.713   0.967  0.5100 -1.2987 -0.1124
  376SOL    HW3 1535   2.336   2.759   0.855  0.4561 -0.2908  0.2502
  376SOL    MW4 1536   2.266   2.716   0.882  0.2500 -0.2175 -0.1528
  377SOL     OW 1537   1.451   4.077   0.263  0.3835  0.0192 -0.1851
  377SOL    HW2 1538   1.481   4.073   0.172  0.4207  2.4324 -0.3110
  377SOL    HW3 1539   1.356   4.081   0.257  0.4167  0.8366 -0.1390
  377SOL    MW4 1540   1.442   4.077   0.250  0.3928  0.4454 -0.1956
  378SOL     OW 1541   1.783   4.291   0.809 -0.5617  0.3103  0.4796
  378SOL    HW2 1542   1.789   4.305   0.904 -0.3348  0.0816  0.4988
  378SOL    HW3 1543   1.791   4.196   0.798  1.3304  0.5045  0.0764
  378SOL    MW4 1544   1.785   4.280   0.820 -0.2821  0.3057  0.4290
  379SOL     OW 1545   2.270   3.175   0.498 -0.0297 -0.0575 -0.1402
  379SOL    HW2 1546   2.285   3.082   0.484 -1.4839 -0.3596  0.2815
  379SOL    HW3 1547   2.245   3.182   0.590 -0.8847  0.6176 -0.4140
  379SOL    MW4 1548   2.269   3.164   0.508 -0.3344 -0.0083 -0.1207
  380SOL     OW 1549   2.983   2.642   0.477 -0.1315 -0.3529 -0.0836
  380SOL    HW2 1550   2.922   2.576   0.446 -0.0928 -1.4089  2.0052
  380SOL    HW3 1551   3.068   2.598   0.479  0.0098 -0.0692  0.6686
  380SOL    MW4 1552   2.987   2.628   0.473 -0.1078 -0.4548  0.2912
  381SOL     OW 1553   1.452   3.565   0.235  0.2974  0.2941 -0.1371
  381SOL    HW2 1554   1.473   3.653   0.264  1.0572  0.2109 -0.4328
  381SOL    HW3 1555   1.536   3.527   0.209 -0.0338 -0.4836 -0.0937
  381SOL    MW4 1556   1.466   3.571   0.235  0.3540  0.1805 -0.1704
  382SOL     OW 1557   1.759   4.003   0.791 -0.1853  0.3443 -0.3454
  382SOL    HW2 1558   1.825   3.944   0.826  0.8166  1.2896 -0.6178
  382SOL    HW3 1559   1.677   3.974   0.832  0.6458  0.1764  1.2442
  382SOL    MW4 1560   1.757   3.992   0.801  0.0565  0.4469 -0.1716
  383SOL     OW 1561   3.060   3.994   0.698  0.7598  0.8188 -0.1565
  383SOL    HW2 1562   3.002   3.937   0.749  0.1405 -0.0197 -1.7725
  383SOL    HW3 1563   3.147   3.957   0.712  0.6250  0.7192  0.4501
  383SOL    MW4 1564   3.064   3.982   0.707  0.6603  0.6951 -0.2897
  384SOL     OW 1565   2.435   2.173   0.219 -0.1369  0.3693  0.2715
  384SOL    HW2 1566   2.478   2.159   0.303 -1.1394 -0.5107  0.6508
  384SOL    HW3 1567   2.421   2.085   0.184 -2.3826  0.5753  0.5630
  384SOL    MW4 1568   2.439   2.160   0.225 -0.5655  0.2803  0.3600
  385SOL     OW 1569   2.273   1.190   0.408  0.1695 -0.0953 -0.1853
  385SOL    HW2 1570   2.182   1.204   0.435  0.4113 -0.0804  0.6355
  385SOL    HW3 1571   2.296   1.105   0.446  0.1897 -0.5534 -1.2137
  385SOL    MW4 1572   2.264   1.181   0.416  0.2040 -0.1538 -0.2127
  386SOL     OW 1573   2.910   0.796   0.809  0.3638 -0.2973 -0.1435
  386SOL    HW2 1574   2.904   0.772   0.901  0.7949 -0.7070 -0.2199
  386SOL    HW3 1575   2.998   0.833   0.800  0.9989 -1.8916 -0.7558
  386SOL    MW4 1576   2.921   0.798   0.820  0.5044 -0.5617 -0.2344
  387SOL     OW 1577   2.828   3.793   0.447 -0.3715  0.1676 -0.2615
  387SOL    HW2 1578   2.834   3.702   0.418 -0.3611 -0.3984  1.4743
  387SOL    HW3 1579   2.736   3.805   0.471  0.1217 -0.1522  1.8931
  387SOL    MW4 1580   2.817   3.783   0.446 -0.3051  0.0508  0.2518
  388SOL     OW 1581   2.537   0.791   0.833 -0.0738  0.4369 -0.5506
  388SOL    HW2 1582   2.590   0.855   0.786  0.3734  0.3000 -0.2285
  388SOL    HW3 1583   2.533   0.716   0.774  2.1925 -0.5201  0.4907
  388SOL    MW4 1584   2.543   0.790   0.819  0.2842  0.2926 -0.3707
  389SOL     OW 1585   1.894   1.047   0.367 -0.0196  0.3039 -0.5248
  389SOL    HW2 1586   1.858   0.962   0.393 -0.3673  0.3566 -0.8270
  389SOL    HW3 1587   1.958   1.026   0.298  0.3159  0.2368 -0.1945
  389SOL    MW4 1588   1.898   1.033   0.361 -0.0212  0.3020 -0.5211
  390SOL     OW 1589   3.078   0.798   0.476 -0.7449 -0.0714 -0.4251
  390SOL    HW2 1590   2.995   0.840   0.452 -0.8205  0.0733  0.0870
  390SOL    HW3 1591   3.098   0.833   0.563  0.4754  0.8586 -1.0493
  390SOL    MW4 1592   3.070   0.808   0.484 -0.5938  0.0704 -0.4399
  391SOL     OW 1593   1.043   2.836   0.493  0.4493  0.4606  0.1205
  391SOL    HW2 1594   0.966   2.893   0.493 -0.2405 -0.4245 -2.3094
  391SOL    HW3 1595   1.112   2.888   0.453  0.7506  0.7603  1.0160
  391SOL    MW4 1596   1.042   2.850   0.488  0.3980  0.3834 -0.0819
  392SOL     OW 1597   3.301   2.566   0.481  0.5151  0.1912  0.0702
  392SOL    HW2 1598   3.267   2.532   0.564 -0.3696 -0.3517 -0.5132
  392SOL    HW3 1599   3.384   2.519   0.469  0.0316 -0.6621  0.0191
  392SOL    MW4 1600   3.308   2.555   0.490  0.3345  0.0070 -0.0135
  393SOL     OW 1601   2.711   1.660   0.696  0.2946  0.0413  0.2579
  393SOL    HW2 1602   2.738   1.664   0.604 -1.2108 -0.6204 -0.2217
  393SOL    HW3 1603   2.704   1.752   0.723  0.0027  0.2500 -0.5132
  393SOL    MW4 1604   2.714   1.673   0.687  0.0575 -0.0184  0.0929
  394SOL     OW 1605   3.156   1.713   0.796  0.1460  0.3529  0.2630
  394SOL    HW2 1606   3.184   1.720   0.704  0.5495  0.9295  0.4265
  394SOL    HW3 1607   3.134   1.803   0.821  1.1764  0.3799  1.0839
  394SOL    MW4 1608   3.157   1.726   0.787  0.3352  0.4325  0.3929
  395SOL     OW 1609   0.002   0.219   0.603  0.1473  0.4896  0.7891
  395SOL    HW2 1610  -0.082   0.235   0.560  0.4133  0.3549  0.2061
  395SOL    HW3 1611  -0.001   0.272   0.683  0.2992  2.0476 -0.2120
  395SOL    MW4 1612  -0.009   0.228   0.608  0.2025  0.6774  0.5801
  396SOL     OW 1613   1.796   2.602   0.484 -0.5083 -0.1134  0.1219
  396SOL    HW2 1614   1.783   2.560   0.569  1.5607 -0.0919  0.4734
  396SOL    HW3 1615   1.754   2.687   0.493 -0.1748 -0.0486  1.1886
  396SOL    MW4 1616   1.789   2.607   0.496 -0.1914 -0.1020  0.3090
  397SOL     OW 1617   2.714   1.179   0.867  0.1827 -0.0321 -0.3272
  397SOL    HW2 1618   2.794   1.217   0.831  1.0087 -0.5512  0.9383
  397SOL    HW3 1619   2.643   1.227   0.824  1.1571  0.0321 -1.8908
  397SOL    MW4 1620   2.715   1.191   0.856  0.4202 -0.0921 -0.3665
  398SOL     OW 1621   2.939   2.335   0.807  0.0932  0.1560 -0.2500
  398SOL    HW2 1622   2.936   2.323   0.902  0.3037  0.2750 -0.2276
  398SOL    HW3 1623   2.946   2.246   0.772 -0.9375  0.0524 -0.1983
  398SOL    MW4 1624   2.940   2.322   0.815 -0.0151  0.1581 -0.2402
  399SOL     OW 1625   2.729   2.488   0.720  0.1947 -0.0688  0.5346
  399SOL    HW2 1626   2.803   2.456   0.771 -0.2323  0.2744  1.3697
  399SOL    HW3 1627   2.729   2.583   0.734 -0.8543 -0.1530  1.1520
  399SOL    MW4 1628   2.739   2.496   0.728 -0.0001 -0.0346  0.7262
  400SOL     OW 1629   2.748   2.757   0.855 -0.0788  0.3455 -0.2109
  400SOL    HW2 1630   2.832   2.803   0.848 -0.6791  1.2628 -1.6331
  400SOL    HW3 1631   2.737   2.742   0.949  0.7435  2.0035  0.1845
  400SOL    MW4 1632   2.758   2.761   0.867 -0.0495  0.6853 -0.3464
  401SOL     OW 1633   1.112   1.280   0.790  0.3322 -0.3718 -0.0982
  401SOL    HW2 1634   1.025   1.261   0.824 -0.4767  1.7724 -0.8645
  401SOL    HW3 1635   1.100   1.287   0.695  0.8582  2.1498 -0.0233
  401SOL    MW4 1636   1.099   1.279   0.782  0.2949  0.2438 -0.1894
  402SOL     OW 1637   1.527   1.140   0.473 -0.0632 -0.0279 -0.5366
  402SOL    HW2 1638   1.589   1.172   0.409  0.0261  0.6700 -0.1060
  402SOL    HW3 1639   1.534   1.045   0.468  1.6282  0.0475  0.0864
  402SOL    MW4 1640   1.536   1.132   0.464  0.1717  0.0741 -0.3976
  403SOL     OW 1641   2.478   3.100   0.899 -0.3984 -0.3327 -0.0922
  403SOL    HW2 1642   2.555   3.150   0.876 -0.6166 -0.5606 -1.3579
  403SOL    HW3 1643   2.473   3.106   0.995  1.1188 -0.2474 -0.0086
  403SOL    MW4 1644   2.487   3.107   0.909 -0.2270 -0.3516 -0.2482
  404SOL     OW 1645   2.708   3.529   0.835  0.7439  0.2682  0.4719
  404SOL    HW2 1646   2.797   3.553   0.810  0.4927  0.6781 -0.0440
  404SOL    HW3 1647   2.705   3.543   0.930  0.7979  1.6758  0.2708
  404SOL    MW4 1648   2.720   3.534   0.844  0.7179  0.5080  0.3773
  405SOL     OW 1649   2.950   3.600   0.687 -0.4762  0.2464 -0.0192
  405SOL    HW2 1650   3.019   3.567   0.744 -0.2820  0.0230 -0.3762
  405SOL    HW3 1651   2.929   3.686   0.721  1.3374  1.1308 -1.0467
  405SOL    MW4 1652   2.957   3.607   0.699 -0.2113  0.3336 -0.2019
  406SOL     OW 1653   2.545   2.845   0.522 -0.0438  0.2214  0.1722
  406SOL    HW2 1654   2.546   2.859   0.617 -0.3873 -0.8840  0.3414
  406SOL    HW3 1655   2.462   2.883   0.493  0.1518  0.7399  0.2808
  406SOL    MW4 1656   2.534   2.852   0.531 -0.0633  0.1440  0.2089
  407SOL     OW 1657   0.587   4.514   0.457 -0.4437 -0.1688 -0.0825
  407SOL    HW2 1658   0.643   4.584   0.425 -0.7835  0.6374  1.0690
  407SOL    HW3 1659   0.615   4.499   0.547 -1.8942  0.0766  0.4319
  407SOL    MW4 1660   0.598   4.521   0.464 -0.6799 -0.0301  0.1373
  408SOL     OW 1661   2.651   3.983   0.767  0.0446 -0.4494  0.3328
  408SOL    HW2 1662   2.651   4.074   0.796 -0.0738 -0.5918  0.7876
  408SOL    HW3 1663   2.567   3.948   0.798 -1.1850  0.0598 -2.3049
  408SOL    MW4 1664   2.639   3.990   0.775 -0.1332 -0.4010  0.0448
  409SOL     OW 1665   2.947   1.278   0.720 -0.9366  0.2131  0.1286
  409SOL    HW2 1666   2.961   1.366   0.754  0.8719 -0.0157  0.0243
  409SOL    HW3 1667   3.018   1.226   0.759 -1.0338 -0.8467 -1.0709
  409SOL    MW4 1668   2.958   1.283   0.730 -0.7108  0.0430 -0.0435
  410SOL     OW 1669   2.010   0.541   0.685 -0.1985  0.0477  0.1982
  410SOL    HW2 1670   1.941   0.489   0.726  0.8044 -0.0271  1.8321
  410SOL    HW3 1671   1.998   0.629   0.720  1.2915 -0.2394  1.4966
  410SOL    MW4 1672   1.999   0.545   0.695  0.1304 -0.0000  0.5851
  411SOL     OW 1673   2.392   0.479   0.464 -0.0973  0.0788 -0.2204
  411SOL    HW2 1674   2.422   0.545   0.401 -0.2437  0.0619 -0.3087
  411SOL    HW3 1675   2.427   0.509   0.548  0.6208 -0.2317 -0.4026
  411SOL    MW4 1676   2.401   0.492   0.467 -0.0218  0.0356 -0.2561
  412SOL     OW 1677   1.118   2.077   0.500 -0.0266 -0.0410  0.3145
  412SOL    HW2 1678   1.157   2.159   0.469 -0.3387 -0.0963 -0.2319
  412SOL    HW3 1679   1.119   2.085   0.596 -0.1239  0.6377  0.2671
  412SOL    MW4 1680   1.123   2.089   0.509 -0.0806  0.0412  0.2362
  413SOL     OW 1681   3.103   0.398   0.806 -0.3094 -0.1452  0.4151
  413SOL    HW2 1682   3.094   0.393   0.901  0.1579  0.0738  0.4776
  413SOL    HW3 1683   3.193   0.428   0.793  0.5525 -2.8523 -0.1580
  413SOL    MW4 1684   3.114   0.401   0.817 -0.1340 -0.4735  0.3478
  414SOL     OW 1685   2.585   2.079   0.426  0.3701 -0.0271 -0.2097
  414SOL    HW2 1686   2.678   2.100   0.434  0.3168 -0.1422  0.7354
  414SOL    HW3 1687   2.582   1.985   0.412  0.4436  0.1225 -1.2884
  414SOL    MW4 1688   2.597   2.069   0.425  0.3727 -0.0226 -0.2274
  415SOL     OW 1689   2.478   0.540   0.719  0.0116  0.4597  0.2510
  415SOL    HW2 1690   2.399   0.508   0.762  0.3626 -0.6692  0.0637
  415SOL    HW3 1691   2.546   0.478   0.744  0.5291  0.6129 -0.7560
  415SOL    MW4 1692   2.476   0.528   0.728  0.1262  0.3310  0.0935
  416SOL     OW 1693   3.771   4.366   0.724 -0.1706  0.0844  0.7268
  416SOL    HW2 1694   3.692   4.326   0.761 -0.6088 -0.0602 -0.3551
  416SOL    HW3 1695   3.756   4.367   0.629  1.0553  0.2071  0.5219
  416SOL    MW4 1696   3.759   4.361   0.716 -0.0666  0.0815  0.5571
  417SOL     OW 1697   3.375   1.553   0.806  0.3321 -0.2837  0.1116
  417SOL    HW2 1698   3.309   1.622   0.798 -0.0482 -0.6908 -0.2435
  417SOL    HW3 1699   3.385   1.540   0.900 -0.0007 -0.1333  0.1680
  417SOL    MW4 1700   3.368   1.561   0.817  0.2380 -0.3175  0.0722
  418SOL     OW 1701   2.283   0.883   0.730 -0.5979  0.3867  0.1084
  418SOL    HW2 1702   2.293   0.902   0.637 -0.0035 -2.3529 -0.4406
  418SOL    HW3 1703   2.372   0.864   0.760 -1.0885 -1.1755  0.6278
  418SOL    MW4 1704   2.296   0.883   0.722 -0.5843 -0.1809  0.1045
  419SOL     OW 1705   3.627   0.909   0.679 -0.1407  0.0064  0.0398
  419SOL    HW2 1706   3.621   0.840   0.613  0.6433  1.4966 -1.6035
  419SOL    HW3 1707   3.697   0.878   0.738  1.5030  0.2369 -1.7305
  419SOL    MW4 1708   3.636   0.896   0.678  0.1796  0.2334 -0.4105
  420SOL     OW 1709   3.529   2.426   0.503  0.4494  0.1029 -0.2747
  420SOL    HW2 1710   3.537   2.423   0.599 -1.1697  0.2487 -0.1241
  420SOL    HW3 1711   3.611   2.466   0.474 -0.3732  3.1018  1.3148
  420SOL    MW4 1712   3.541   2.431   0.512  0.1273  0.5178 -0.0451
  421SOL     OW 1713   1.512   3.878   0.852 -0.2335  0.2463  0.5738
  421SOL    HW2 1714   1.429   3.907   0.813  0.4235  0.9138 -0.3157
  421SOL    HW3 1715   1.526   3.790   0.816 -1.6976 -0.8141  2.4779
  421SOL    MW4 1716   1.503   3.870   0.842 -0.3400  0.1945  0.7077
  422SOL     OW 1717   3.832   0.277   0.423  0.0458 -0.1687 -0.2461
  422SOL    HW2 1718   3.839   0.362   0.465  0.2959  0.6662 -1.9290
  422SOL    HW3 1719   3.740   0.252   0.433 -0.3195  0.9152 -0.9220
  422SOL    MW4 1720   3.821   0.285   0.430  0.0306  0.0845 -0.5573
  423SOL     OW 1721   3.667   2.867   0.484  0.3142  0.0048  0.0313
  423SOL    HW2 1722   3.682   2.958   0.458 -0.0668  0.1398  0.2895
  423SOL    HW3 1723   3.572   2.860   0.493  0.4659  0.0606  1.8073
  423SOL    MW4 1724   3.656   2.878   0.481  0.2840  0.0299  0.2997
  424SOL     OW 1725   2.983   2.879   0.789  0.2078  0.3325  0.0993
  424SOL    HW2 1726   3.050   2.812   0.805  1.0892  0.6672 -1.9654
  424SOL    HW3 1727   2.973   2.880   0.694 -1.4959  1.5119  0.2701
  424SOL    MW4 1728   2.990   2.870   0.779  0.0993  0.5323 -0.1506
  425SOL     OW 1729   1.831   1.694   0.690  0.1176  0.0865  0.4130
  425SOL    HW2 1730   1.757   1.641   0.720 -0.2709  0.0570 -0.5810
  425SOL    HW3 1731   1.903   1.670   0.748 -0.4979 -0.3023  1.0291
  425SOL    MW4 1732   1.831   1.684   0.702 -0.0149  0.0313  0.3631
  426SOL     OW 1733   1.360   3.264   0.425 -0.2063 -0.1019 -0.0806
  426SOL    HW2 1734   1.446   3.283   0.388 -0.1743  0.1254  0.1157
  426SOL    HW3 1735   1.306   3.339   0.401 -0.2827 -0.1242  0.0207
  426SOL    MW4 1736   1.364   3.276   0.417 -0.2122 -0.0749 -0.0413
  427SOL     OW 1737   3.153   3.239   0.770  0.3744 -0.0360  0.5107
  427SOL    HW2 1738   3.069   3.205   0.800 -0.2378  1.8932  1.0436
  427SOL    HW3 1739   3.169   3.193   0.687 -1.3187 -0.2470  0.2797
  427SOL    MW4 1740   3.144   3.229   0.763  0.0702  0.1907  0.5506
  428SOL     OW 1741   3.165   3.500   0.853  0.1661 -0.0865  0.2410
  428SOL    HW2 1742   3.181   3.406   0.848  1.4773 -0.0151  2.6157
  428SOL    HW3 1743   3.178   3.522   0.945  2.0074  2.8034 -0.6523
  428SOL    MW4 1744   3.169   3.490   0.864  0.5821  0.3042  0.4364
  429SOL     OW 1745   3.402   3.560   0.455 -0.8049  0.3315 -0.5752
  429SOL    HW2 1746   3.397   3.579   0.549  0.4946 -0.3259 -0.3545
  429SOL    HW3 1747   3.482   3.604   0.426 -0.1110 -1.1271 -0.9403
  429SOL    MW4 1748   3.412   3.568   0.464 -0.5419  0.0523 -0.5942
  430SOL     OW 1749   3.530   4.010   0.748 -0.1674  0.0363  0.4799
  430SOL    HW2 1750   3.460   3.949   0.772  0.5536 -1.4085 -0.9970
  430SOL    HW3 1751   3.609   3.970   0.783  0.3587 -0.0584 -0.7881
  430SOL    MW4 1752   3.531   3.997   0.756 -0.0029 -0.1668  0.1177
  431SOL     OW 1753   4.300   0.573   0.518  0.3250  0.5683  0.5618
  431SOL    HW2 1754   4.394   0.588   0.507  0.1395  1.4475  0.0768
  431SOL    HW3 1755   4.284   0.488   0.478  0.7665  0.8204 -0.1627
  431SOL    MW4 1756   4.310   0.564   0.511  0.3588  0.7175  0.4022
  432SOL     OW 1757   3.097   4.249   0.853  0.2893  0.1213  0.1636
  432SOL    HW2 1758   3.022   4.305   0.832  0.9753 -0.0959 -3.1399
  432SOL    HW3 1759   3.071   4.162   0.822  1.3499 -0.2580  0.3282
  432SOL    MW4 1760   3.084   4.245   0.846  0.5198  0.0426 -0.2505
  433SOL     OW 1761   2.856   0.966   0.445  0.0779  0.6729 -0.0884
  433SOL    HW2 1762   2.791   0.958   0.514 -0.7946  1.6322 -0.7837
  433SOL    HW3 1763   2.863   1.060   0.429  1.0908  0.5298 -0.5196
  433SOL    MW4 1764   2.848   0.977   0.452  0.0964  0.7806 -0.2370
  434SOL     OW 1765   2.046   1.578   0.840  0.4119 -0.2174 -0.1595
  434SOL    HW2 1766   2.037   1.485   0.817 -1.0646  0.1277 -1.0616
  434SOL    HW3 1767   2.112   1.611   0.779 -0.1856 -0.3331 -0.8775
  434SOL    MW4 1768   2.053   1.570   0.829  0.1383 -0.1871 -0.3732
  435SOL     OW 1769   3.099   0.126   0.728 -0.5314  0.1318 -0.0110
  435SOL    HW2 1770   3.104   0.217   0.757 -0.4408 -0.2571  1.2140
  435SOL    HW3 1771   3.167   0.081   0.778 -1.2099 -0.7965  0.0862
  435SOL    MW4 1772   3.109   0.132   0.739 -0.6090 -0.0419  0.1634
  436SOL     OW 1773   3.546   0.378   0.864  0.0714  0.0696 -0.1585
  436SOL    HW2 1774   3.615   0.429   0.822  0.5800  0.1292  0.7196
  436SOL    HW3 1775   3.569   0.380   0.957 -0.7292 -0.5058  0.0559
  436SOL    MW4 1776   3.558   0.385   0.871  0.0328  0.0016 -0.0144
  437SOL     OW 1777   0.675   0.524   0.733 -0.5907 -0.2897 -0.1201
  437SOL    HW2 1778   0.588   0.497   0.762 -0.8681  1.0092  0.2877
  437SOL    HW3 1779   0.735   0.462   0.776 -1.2793 -0.9837 -0.1495
  437SOL    MW4 1780   0.672   0.512   0.742 -0.7181 -0.2099 -0.0702
  438SOL     OW 1781   3.820   0.777   0.864  0.7664  0.3992 -0.1156
  438SOL    HW2 1782   3.815   0.782   0.959  0.2673 -1.0251 -0.0651
  438SOL    HW3 1783   3.903   0.820   0.842  1.3896 -0.2196  1.0294
  438SOL    MW4 1784   3.830   0.784   0.873  0.7828  0.1297  0.0421
  439SOL     OW 1785   1.541   1.826   0.357 -0.1409  0.0305 -0.8131
  439SOL    HW2 1786   1.469   1.767   0.379 -0.5233  0.6060 -0.5028
  439SOL    HW3 1787   1.619   1.771   0.356 -0.6795 -0.7366 -1.8184
  439SOL    MW4 1788   1.542   1.811   0.360 -0.2624  0.0052 -0.9048
  440SOL     OW 1789   3.794   1.561   0.849  0.0418  0.1536  0.1433
  440SOL    HW2 1790   3.802   1.480   0.799 -0.1092 -0.0953  0.5231
  440SOL    HW3 1791   3.731   1.614   0.800 -0.7788 -0.4484  0.5449
  440SOL    MW4 1792   3.787   1.558   0.836 -0.0864  0.0414  0.2464
  441SOL     OW 1793   3.089   2.068   0.301 -0.4408 -0.1270 -0.1224
  441SOL    HW2 1794   3.098   2.118   0.220 -1.7186 -0.5952 -0.5682
  441SOL    HW3 1795   3.174   2.027   0.314 -0.1484  0.1847 -1.0765
  441SOL    MW4 1796   3.101   2.069   0.292 -0.5708 -0.1476 -0.3071
  442SOL     OW 1797   4.262   2.865   0.749  0.1168 -0.3520 -0.3566
  442SOL    HW2 1798   4.336   2.834   0.801 -0.0648 -0.6997 -0.3011
  442SOL    HW3 1799   4.255   2.958   0.771 -0.0940 -0.5399  0.4119
  442SOL    MW4 1800   4.271   2.873   0.759  0.0650 -0.4227 -0.2479
  443SOL     OW 1801   1.102   0.504   0.733 -0.1061  0.3673 -0.2442
  443SOL    HW2 1802   1.168   0.453   0.780  0.1265  0.0548 -0.9015
  443SOL    HW3 1803   1.023   0.448   0.733  0.0632  0.1188 -0.7115
  443SOL    MW4 1804   1.100   0.490   0.739 -0.0531  0.2933 -0.3926
  444SOL     OW 1805   3.769   2.586   0.383  0.3632 -0.2743 -0.3498
  444SOL    HW2 1806   3.728   2.669   0.407  0.8673 -0.2832  0.5380
  444SOL    HW3 1807   3.762   2.583   0.288 -0.0520  0.5779 -0.3508
  444SOL    MW4 1808   3.762   2.596   0.374  0.3749 -0.1630 -0.2328
  445SOL     OW 1809   3.348   2.349   0.874 -0.1720 -0.0360 -0.4678
  445SOL    HW2 1810   3.334   2.337   0.968 -0.9468 -1.7369 -0.7776
  445SOL    HW3 1811   3.342   2.260   0.838 -2.0321  0.8512 -2.4127
  445SOL    MW4 1812   3.346   2.335   0.882 -0.5197 -0.1433 -0.7653
  446SOL     OW 1813   3.797   2.343   1.210 -0.1678 -0.4675  0.1038
  446SOL    HW2 1814   3.877   2.391   1.231 -0.5022 -0.1114  0.5915
  446SOL    HW3 1815   3.792   2.346   1.114 -1.2616  2.2962  0.1865
  446SOL    MW4 1816   3.807   2.350   1.200 -0.3562 -0.0559  0.1790
  447SOL     OW 1817   1.756   2.175   0.376 -0.1225  0.1826 -0.0223
  447SOL    HW2 1818   1.758   2.270   0.363 -0.4244  0.4095  1.4776
  447SOL    HW3 1819   1.843   2.153   0.408 -0.2965  0.0786  0.3877
  447SOL    MW4 1820   1.768   2.185   0.379 -0.1853  0.1988  0.2297
  448SOL     OW 1821   3.566   2.707   0.885 -0.2635 -0.1213  0.1312
  448SOL    HW2 1822   3.575   2.713   0.980  1.1761  0.4875 -0.0228
  448SOL    HW3 1823   3.637   2.761   0.851 -0.4218 -0.7819 -1.2915
  448SOL    MW4 1824   3.577   2.715   0.893 -0.0944 -0.1282 -0.0768
  449SOL     OW 1825   1.908   3.532   0.342  0.0581  0.5077 -0.2665
  449SOL    HW2 1826   1.953   3.450   0.360  0.1563  1.0515  2.0411
  449SOL    HW3 1827   1.969   3.600   0.369 -1.1742  1.2902  0.6199
  449SOL    MW4 1828   1.922   3.530   0.348 -0.0915  0.6826  0.1549
  450SOL     OW 1829   3.806   3.119   0.870  0.0709  0.1776 -0.4383
  450SOL    HW2 1830   3.718   3.154   0.854 -0.4723 -1.5047 -1.2932
  450SOL    HW3 1831   3.805   3.033   0.828  1.5134 -0.6683  1.1888
  450SOL    MW4 1832   3.794   3.112   0.862  0.1895 -0.1560 -0.3364
  451SOL     OW 1833   4.205   2.310   0.379  0.1647  0.3857  0.0854
  451SOL    HW2 1834   4.169   2.297   0.291  1.2123  1.3252 -0.4910
  451SOL    HW3 1835   4.159   2.387   0.412  0.1045  0.3069  0.1869
  451SOL    MW4 1836   4.194   2.318   0.372  0.2950  0.4993  0.0227
  452SOL     OW 1837   3.554   3.258   0.810  0.0309 -0.0791 -0.5862
  452SOL    HW2 1838   3.564   3.225   0.721  2.3582 -1.4871  0.1652
  452SOL    HW3 1839   3.481   3.209   0.847 -1.4060  1.0120 -1.9207
  452SOL    MW4 1840   3.545   3.247   0.804  0.1484 -0.1209 -0.6631
  453SOL     OW 1841   4.125   4.038   0.524  0.0279 -0.2522 -0.2631
  453SOL    HW2 1842   4.219   4.049   0.508 -0.0345  1.1450  0.2274
  453SOL    HW3 1843   4.087   4.122   0.499 -0.9711 -0.4701  0.4955
  453SOL    MW4 1844   4.133   4.051   0.518 -0.1122 -0.0966 -0.0983
  454SOL     OW 1845   3.827   3.591   0.735 -0.3295 -0.4449 -0.0480
  454SOL    HW2 1846   3.901   3.551   0.781  1.6545  2.8120 -0.2287
  454SOL    HW3 1847   3.856   3.594   0.643 -0.8432  0.4559 -0.1885
  454SOL    MW4 1848   3.841   3.586   0.729 -0.1355  0.1037 -0.0904
  455SOL     OW 1849   0.613   1.814   0.435  0.0793 -0.3163 -0.2151
  455SOL    HW2 1850   0.699   1.773   0.435  0.6802  0.9018  0.8532
  455SOL    HW3 1851   0.555   1.749   0.474  1.1209 -0.0059  1.9554
  455SOL    MW4 1852   0.616   1.800   0.440  0.2960 -0.1146  0.2123
  456SOL     OW 1853   2.252   3.504   0.848  0.2261 -0.1945  0.0763
  456SOL    HW2 1854   2.245   3.413   0.818  1.5445 -0.5142  0.7035
  456SOL    HW3 1855   2.324   3.540   0.797  0.1141  0.3140  0.2766
  456SOL    MW4 1856   2.261   3.497   0.837  0.3852 -0.1696  0.1855
  457SOL     OW 1857   1.091   4.373   0.495 -0.3950  0.1639  0.2269
  457SOL    HW2 1858   1.089   4.280   0.472 -0.0111  0.3358 -0.5566
  457SOL    HW3 1859   1.042   4.416   0.424  0.2508  0.6493  0.0698
  457SOL    MW4 1860   1.084   4.366   0.482 -0.2592  0.2506  0.1028
  458SOL     OW 1861   4.359   0.014   0.862 -0.1558 -0.6529  0.3432
  458SOL    HW2 1862   4.343  -0.000   0.955 -0.4562 -0.9449  0.2455
  458SOL    HW3 1863   4.286   0.067   0.832  1.6627  2.3665  1.0128
  458SOL    MW4 1864   4.347   0.019   0.871  0.0445 -0.2930  0.4187
  459SOL     OW 1865   3.556   0.121   0.751 -0.1829  0.5094 -0.2060
  459SOL    HW2 1866   3.571   0.205   0.794 -1.6772  0.5080  0.3223
  459SOL    HW3 1867   3.634   0.069   0.773 -0.3805  0.9162  1.5357
  459SOL    MW4 1868   3.569   0.125   0.759 -0.4061  0.5629  0.0935
  460SOL     OW 1869   4.066   0.182   0.309  0.0938  0.2384  0.0970
  460SOL    HW2 1870   3.981   0.226   0.321 -0.3222 -0.1752 -1.2353
  460SOL    HW3 1871   4.108   0.230   0.237  0.4016 -0.4207 -0.1661
  460SOL    MW4 1872   4.060   0.194   0.301  0.0795  0.0968 -0.1135
  461SOL     OW 1873   4.486   2.745   0.860 -0.1010  0.2231 -0.5452
  461SOL    HW2 1874   4.508   2.717   0.949  0.8190 -0.6458 -1.0252
  461SOL    HW3 1875   4.562   2.797   0.832 -0.0949 -0.0509 -1.0466
  461SOL    MW4 1876   4.499   2.748   0.868  0.0212  0.0723 -0.6747
  462SOL     OW 1877   4.332   0.824   0.838  0.2639  0.0270  0.3844
  462SOL    HW2 1878   4.315   0.828   0.932 -1.3659 -0.5475  0.1361
  462SOL    HW3 1879   4.331   0.731   0.818  0.4308  0.1597 -0.2377
  462SOL    MW4 1880   4.329   0.813   0.848  0.0709 -0.0313  0.2695
  463SOL     OW 1881   4.165   3.272   0.407 -0.0672 -0.3753  0.4004
  463SOL    HW2 1882   4.207   3.197   0.449 -1.7156  0.6663  4.0430
  463SOL    HW3 1883   4.197   3.348   0.455 -1.8192  0.8872 -0.3902
  463SOL    MW4 1884   4.175   3.272   0.419 -0.5158 -0.0713  0.7767
  464SOL     OW 1885   1.349   1.653   0.753 -0.0076 -0.3254 -0.4956
  464SOL    HW2 1886   1.423   1.599   0.778 -0.0888 -0.4040 -0.4272
  464SOL    HW3 1887   1.352   1.655   0.657  0.0375 -0.3913 -0.4954
  464SOL    MW4 1888   1.359   1.646   0.744 -0.0123 -0.3445 -0.4866
  465SOL     OW 1889   2.254   4.252   0.801 -0.4439  0.3374  0.3202
  465SOL    HW2 1890   2.193   4.310   0.755  0.0541  0.3929 -0.2876
  465SOL    HW3 1891   2.228   4.164   0.772 -0.7537  0.3012  0.7000
  465SOL    MW4 1892   2.242   4.248   0.791 -0.4190  0.3400  0.2901
  466SOL     OW 1893   4.248   1.500   0.891  0.0413 -0.4973  0.2276
  466SOL    HW2 1894   4.272   1.411   0.863  0.9063 -0.2126  0.0475
  466SOL    HW3 1895   4.226   1.491   0.984 -0.9965 -1.1084 -0.0745
  466SOL    MW4 1896   4.248   1.487   0.900  0.0185 -0.5404  0.1640
  467SOL     OW 1897   0.860   1.177   0.867  0.0120  0.1379 -0.2234
  467SOL    HW2 1898   0.783   1.218   0.829 -0.0941 -0.0885 -0.2540
  467SOL    HW3 1899   0.872   1.096   0.817 -0.7317 -0.6819  0.8676
  467SOL    MW4 1900   0.851   1.171   0.856 -0.1001 -0.0001 -0.0835
  468SOL     OW 1901   0.886   4.457   0.298 -0.0858 -0.4102 -0.2622
  468SOL    HW2 1902   0.830   4.532   0.277 -1.2931 -1.6070 -1.4409
  468SOL    HW3 1903   0.944   4.448   0.223  0.8635  0.0756  0.4148
  468SOL    MW4 1904   0.886   4.466   0.286 -0.1198 -0.5040 -0.3284
  469SOL     OW 1905   4.004   3.254   0.752 -0.0756 -0.3744  0.1439
  469SOL    HW2 1906   3.936   3.202   0.795  1.1458 -1.6643  0.5746
  469SOL    HW3 1907   3.965   3.279   0.668 -1.9206  0.8890  1.3361
  469SOL    MW4 1908   3.990   3.250   0.747 -0.1579 -0.3779  0.3580
  470SOL     OW 1909   0.163   2.309   1.157 -0.0429  0.4265 -0.0281
  470SOL    HW2 1910   0.099   2.379   1.171 -0.6195 -0.1064  0.0154
  470SOL    HW3 1911   0.246   2.346   1.187 -0.1767  1.4039 -0.8156
  470SOL    MW4 1912   0.166   2.323   1.163 -0.1366  0.4851 -0.1263
  471SOL     OW 1913   2.002   3.895   0.886 -0.3679  0.0003 -0.3629
  471SOL    HW2 1914   2.003   3.886   0.981  0.3788  1.2639 -0.2374
  471SOL    HW3 1915   2.016   3.806   0.853  0.6683 -0.2506  0.7169
  471SOL    MW4 1916   2.004   3.882   0.894 -0.1327  0.1339 -0.2039
  472SOL     OW 1917   3.788   2.862   0.763  1.1310 -0.2664  0.0557
  472SOL    HW2 1918   3.870   2.814   0.777  1.4516 -0.1709 -1.4127
  472SOL    HW3 1919   3.769   2.851   0.670 -0.9547 -0.9233  0.5457
  472SOL    MW4 1920   3.797   2.854   0.753  0.8981 -0.3405 -0.0734
  473SOL     OW 1921   0.883   1.946   0.852  0.5385 -0.8561  0.5719
  473SOL    HW2 1922   0.808   2.003   0.836  0.4418 -1.1492 -0.0427
  473SOL    HW3 1923   0.883   1.932   0.947  0.4766  0.0374  0.7036
  473SOL    MW4 1924   0.873   1.952   0.862  0.5176 -0.7768  0.5082
  474SOL     OW 1925   2.209   0.773   0.250  0.2053 -0.4839  0.1343
  474SOL    HW2 1926   2.296   0.754   0.216  1.5422 -0.6923  3.5753
  474SOL    HW3 1927   2.186   0.697   0.304 -1.9077 -0.2084 -0.3221
  474SOL    MW4 1928   2.217   0.761   0.252  0.1029 -0.4750  0.5281
  475SOL     OW 1929   3.754   2.000   0.559  0.0787  0.1871  0.2832
  475SOL    HW2 1930   3.816   2.021   0.488 -0.0984 -0.4374 -0.0582
  475SOL    HW3 1931   3.738   1.906   0.550 -1.4425  0.4636 -0.0470
  475SOL    MW4 1932   3.760   1.991   0.548 -0.1453  0.1412  0.1946
  476SOL     OW 1933   3.590   3.535   0.854 -0.1360 -0.9876  0.4360
  476SOL    HW2 1934   3.675   3.558   0.816 -0.7034 -1.1046 -0.9504
  476SOL    HW3 1935   3.583   3.441   0.838 -1.4300 -0.6151 -1.3591
  476SOL    MW4 1936   3.600   3.525   0.847 -0.3816 -0.9539  0.0163
  477SOL     OW 1937   4.259   3.863   0.902  0.4245 -0.0749  0.3265
  477SOL    HW2 1938   4.171   3.887   0.871  0.3716 -0.8302 -0.1268
  477SOL    HW3 1939   4.249   3.854   0.997 -0.0201 -0.2606  0.2681
  477SOL    MW4 1940   4.246   3.865   0.910  0.3589 -0.1991  0.2590
  478SOL     OW 1941   0.407   0.953   0.506 -0.0705 -0.1173  0.0601
  478SOL    HW2 1942   0.489   0.919   0.470 -0.5592 -0.5307 -0.6892
  478SOL    HW3 1943   0.418   0.948   0.601  1.5390  1.6972 -0.0142
  478SOL    MW4 1944   0.420   0.948   0.514  0.0773  0.0675 -0.0486
  479SOL     OW 1945   3.776   3.868   0.833 -0.0862  0.1211 -0.0550
  479SOL    HW2 1946   3.861   3.908   0.817 -0.3016  0.5057 -0.2485
  479SOL    HW3 1947   3.785   3.778   0.802 -0.2301  0.6026 -1.5826
  479SOL    MW4 1948   3.788   3.862   0.827 -0.1336  0.2354 -0.2821
  480SOL     OW 1949   3.929   0.062   0.611  0.0289 -0.8177 -0.1043
  480SOL    HW2 1950   3.929   0.006   0.533 -1.3675 -0.0345 -0.6971
  480SOL    HW3 1951   3.893   0.145   0.580 -0.4963 -0.4877  1.3646
  480SOL    MW4 1952   3.924   0.066   0.597 -0.2247 -0.6708  0.0113
  481SOL     OW 1953   3.783   4.631   0.822 -0.1153 -0.1598  0.1290
  481SOL    HW2 1954   3.770   4.541   0.791  0.3667 -0.3753  0.5511
  481SOL    HW3 1955   3.837   4.672   0.755  0.8775 -0.6079  0.6539
  481SOL    MW4 1956   3.788   4.624   0.810  0.0793 -0.2473  0.2539
  482SOL     OW 1957   0.228   4.627   1.149  0.2595 -0.1065  0.2440
  482SOL    HW2 1958   0.298   4.685   1.179  0.7423 -0.6067  0.0972
  482SOL    HW3 1959   0.216   4.651   1.057  0.5433 -0.3189  0.1499
  482SOL    MW4 1960   0.236   4.638   1.141  0.3607 -0.2005  0.2122
  483SOL     OW 1961   0.002   0.110   1.225 -0.3307 -0.3585 -0.4711
  483SOL    HW2 1962  -0.075   0.059   1.199  0.2151 -1.5552  0.2297
  483SOL    HW3 1963   0.076   0.061   1.190  0.3336 -1.2299  2.0531
  483SOL    MW4 1964   0.001   0.097   1.217 -0.1711 -0.6313 -0.0456
  484SOL     OW 1965   0.016   0.367   1.119 -0.1104 -0.6183 -0.1827
  484SOL    HW2 1966  -0.064   0.414   1.143  0.8559  0.2494  1.4552
  484SOL    HW3 1967   0.003   0.278   1.153 -0.1449 -0.3263  0.5680
  484SOL    MW4 1968   0.004   0.361   1.127  0.0126 -0.4653  0.1324
  485SOL     OW 1969   0.232   0.467   1.243 -0.0030 -0.4167  0.5343
  485SOL    HW2 1970   0.244   0.557   1.215 -0.5223 -0.3657  0.4829
  485SOL    HW3 1971   0.160   0.433   1.190  0.8570 -1.1775 -0.1668
  485SOL    MW4 1972   0.224   0.474   1.232  0.0419 -0.5104  0.4350
  486SOL     OW 1973   0.243   0.729   1.139  0.0365  0.3388  0.1054
  486SOL    HW2 1974   0.314   0.790   1.155 -0.2610  0.2264  1.9302
  486SOL    HW3 1975   0.166   0.770   1.179 -0.8490  0.2677 -1.4694
  486SOL    MW4 1976   0.242   0.742   1.146 -0.1195  0.3146  0.1384
  487SOL     OW 1977   0.033   0.873   1.239  0.7447  0.1713 -0.5665
  487SOL    HW2 1978   0.008   0.875   1.331 -0.1260  0.2465 -0.7950
  487SOL    HW3 1979   0.023   0.964   1.210 -1.4218 -0.2966 -1.3520
  487SOL    MW4 1980   0.028   0.885   1.247  0.3440  0.1195 -0.7003
  488SOL     OW 1981   4.486   1.125   1.127  0.1176  0.0430  0.2295
  488SOL    HW2 1982   4.406   1.164   1.163  0.9663  0.5835  1.5958
  488SOL    HW3 1983   4.554   1.189   1.148  1.2333 -1.3334  0.8391
  488SOL    MW4 1984   4.484   1.139   1.135  0.3768 -0.0673  0.4902
  489SOL     OW 1985   0.197   1.282   1.174  0.3432 -0.1656  0.1510
  489SOL    HW2 1986   0.193   1.287   1.269  1.1427 -0.6951  0.2199
  489SOL    HW3 1987   0.271   1.223   1.156  0.7803  0.6626 -0.8107
  489SOL    MW4 1988   0.206   1.275   1.184  0.5064 -0.1262  0.0332
  490SOL     OW 1989   0.213   1.558   1.096 -0.5100  0.4051  0.5932
  490SOL    HW2 1990   0.210   1.468   1.128  1.0498 -0.2882 -1.1301
  490SOL    HW3 1991   0.242   1.551   1.005  0.3373  2.6924  0.6368
  490SOL    MW4 1992   0.216   1.545   1.088 -0.1924  0.6154  0.3716
  491SOL     OW 1993   4.477   1.649   1.218  0.0670  0.3624  0.5247
  491SOL    HW2 1994   4.463   1.738   1.187  0.2693 -0.2218 -1.3180
  491SOL    HW3 1995   4.558   1.621   1.176 -0.0233 -0.7100  1.0441
  491SOL    MW4 1996   4.486   1.657   1.208  0.0818  0.1438  0.3501
  492SOL     OW 1997   4.482   1.928   1.137  0.1606 -0.0049  0.7302
  492SOL    HW2 1998   4.406   1.982   1.160  0.5626  1.2492 -0.7649
  492SOL    HW3 1999   4.498   1.948   1.044  2.0987 -0.5169  0.9355
  492SOL    MW4 2000   4.474   1.938   1.128  0.4694  0.0930  0.5601
  493SOL     OW 2001   0.219   2.050   1.256  0.3188 -0.0978 -0.2394
  493SOL    HW2 2002   0.193   2.137   1.225  0.9043  0.2063  0.1036
  493SOL    HW3 2003   0.151   1.991   1.224 -0.9041  0.7142  0.8283
  493SOL    MW4 2004   0.207   2.054   1.248  0.2347  0.0494 -0.0533
  494SOL     OW 2005   0.199   2.323   0.875  0.1853 -0.1073  0.0297
  494SOL    HW2 2006   0.129   2.381   0.844  0.0507 -0.1328  0.2923
  494SOL    HW3 2007   0.185   2.315   0.969  0.0043 -0.8376 -0.0620
  494SOL    MW4 2008   0.188   2.330   0.883  0.1436 -0.2070  0.0522
  495SOL     OW 2009   4.463   2.486   1.237 -0.1331  0.1106 -0.1901
  495SOL    HW2 2010   4.464   2.474   1.332 -0.8683  0.1155 -0.1759
  495SOL    HW3 2011   4.384   2.440   1.209 -0.7981  1.5071 -0.6173
  495SOL    MW4 2012   4.453   2.478   1.246 -0.3178  0.2955 -0.2446
  496SOL     OW 2013   4.463   2.751   1.156  0.2409  0.1797  0.0634
  496SOL    HW2 2014   4.379   2.792   1.174 -0.3423  0.1095 -2.3262
  496SOL    HW3 2015   4.457   2.664   1.194 -0.3716  0.5286  0.7782
  496SOL    MW4 2016   4.451   2.745   1.164  0.0831  0.2164 -0.1576
  497SOL     OW 2017   0.228   2.832   1.245  0.0845 -0.0476  0.4299
  497SOL    HW2 2018   0.228   2.837   1.341 -0.3212 -0.4431  0.4553
  497SOL    HW3 2019   0.137   2.813   1.223  0.3883 -1.0681  0.0280
  497SOL    MW4 2020   0.216   2.830   1.255  0.0710 -0.2344  0.3802
  498SOL     OW 2021   0.238   3.093   1.139 -0.2877  0.1341  0.1485
  498SOL    HW2 2022   0.312   3.144   1.171  0.7583 -0.7975 -0.7367
  498SOL    HW3 2023   0.257   3.003   1.165 -0.5253 -0.2973 -1.0918
  498SOL    MW4 2024   0.250   3.088   1.146 -0.1810 -0.0457 -0.1319
  499SOL     OW 2025   0.013   3.216   1.247  0.1493  0.2943  0.3990
  499SOL    HW2 2026  -0.062   3.166   1.217  0.9177 -0.4338 -0.3434
  499SOL    HW3 2027   0.088   3.177   1.200  0.9733  1.0200  1.0990
  499SOL    MW4 2028   0.013   3.204   1.237  0.3594  0.2940  0.3934
  500SOL     OW 2029   0.012   3.477   1.171 -0.0870  0.1268 -0.2184
  500SOL    HW2 2030   0.020   3.383   1.190 -1.3488  0.0823  0.1219
  500SOL    HW3 2031   0.023   3.483   1.076 -0.1953 -0.3837 -0.2673
  500SOL    MW4 2032   0.014   3.465   1.161 -0.2678  0.0536 -0.1800
  501SOL     OW 2033   0.245   3.620   1.268 -0.3475  0.1760 -0.0144
  501SOL    HW2 2034   0.248   3.626   1.363  0.1152 -0.0473 -0.0139
  501SOL    HW3 2035   0.170   3.564   1.250 -0.2658 -0.0111  0.2294
  501SOL    MW4 2036   0.235   3.614   1.278 -0.2757  0.1218  0.0178
  502SOL     OW 2037   0.170   3.838   1.099 -0.1587  0.2346 -0.2770
  502SOL    HW2 2038   0.115   3.902   1.145  0.1994  1.0852 -1.0227
  502SOL    HW3 2039   0.185   3.769   1.164 -0.2846  1.0588  0.6423
  502SOL    MW4 2040   0.165   3.837   1.114 -0.1281  0.4556 -0.2541
  503SOL     OW 2041   4.480   4.000   1.227  0.1816  0.4771  0.5203
  503SOL    HW2 2042   4.475   4.016   1.321  1.3255 -1.9401  1.0317
  503SOL    HW3 2043   4.424   3.924   1.212  3.3232 -1.8516 -0.0129
  503SOL    MW4 2044   4.472   3.992   1.237  0.7470 -0.1491  0.5174
  504SOL     OW 2045   4.453   4.266   1.108 -0.1250  0.3747  0.5994
  504SOL    HW2 2046   4.541   4.298   1.130  0.8909 -0.5887 -1.9286
  504SOL    HW3 2047   4.451   4.177   1.144  0.0863  0.2599  0.3333
  504SOL    MW4 2048   4.464   4.258   1.116  0.0369  0.2324  0.2307
  505SOL     OW 2049   0.208   4.361   1.239 -0.0979  0.5696  0.4518
  505SOL    HW2 2050   0.216   4.360   1.334 -0.0575 -0.0641  0.4409
  505SOL    HW3 2051   0.215   4.454   1.215  0.3540  0.6833  1.0231
  505SOL    MW4 2052   0.210   4.373   1.248 -0.0330  0.5010  0.5258
  506SOL     OW 2053   0.622   0.009   1.102 -0.0541  0.0589 -0.0466
  506SOL    HW2 2054   0.698   0.049   1.144 -1.0939  1.7260  0.2644
  506SOL    HW3 2055   0.633  -0.085   1.118  2.5196  0.1688 -0.9936
  506SOL    MW4 2056   0.633   0.002   1.109  0.1483  0.2933 -0.1305
  507SOL     OW 2057   0.427   0.130   1.251 -0.0849 -0.4445 -0.1518
  507SOL    HW2 2058   0.415   0.222   1.229  1.0172 -0.1718  0.3676
  507SOL    HW3 2059   0.490   0.097   1.187  1.6846 -0.1176  1.3968
  507SOL    MW4 2060   0.434   0.138   1.240  0.2940 -0.3654  0.1211
  508SOL     OW 2061   2.422   1.896   0.126 -0.4997 -0.0790 -0.4366
  508SOL    HW2 2062   2.347   1.847   0.159  0.1928 -1.0376 -0.2809
  508SOL    HW3 2063   2.432   1.866   0.035  0.5372 -0.9751 -0.0371
  508SOL    MW4 2064   2.414   1.886   0.118 -0.2715 -0.3237 -0.3633
  509SOL     OW 2065   0.653   0.503   1.193 -0.2908 -0.3907  0.1663
  509SOL    HW2 2066   0.659   0.585   1.143  0.9990 -0.0846  0.7986
  509SOL    HW3 2067   0.583   0.454   1.150 -0.8832  0.9248 -0.4027
  509SOL    MW4 2068   0.645   0.508   1.181 -0.1988 -0.1767  0.1747
  510SOL     OW 2069   0.690   0.776   1.066  0.1596  0.4240  0.3575
  510SOL    HW2 2070   0.612   0.824   1.093  0.8477  1.2844  0.8244
  510SOL    HW3 2071   0.698   0.794   0.972 -0.0541  0.5429  0.3620
  510SOL    MW4 2072   0.681   0.784   1.057  0.2222  0.5532  0.4197
  511SOL     OW 2073   0.458   0.894   1.201 -0.1180  0.8411  0.1647
  511SOL    HW2 2074   0.455   0.885   1.296  1.3207 -1.1209  0.0666
  511SOL    HW3 2075   0.433   0.985   1.184 -1.7412  0.8254  2.3141
  511SOL    MW4 2076   0.454   0.905   1.211 -0.1423  0.5802  0.4354
  512SOL     OW 2077   0.441   1.160   1.123  0.3642  0.1621  0.4244
  512SOL    HW2 2078   0.520   1.196   1.163  1.0283 -1.6328  0.7911
  512SOL    HW3 2079   0.448   1.184   1.031  1.8688 -0.8239  0.2554
  512SOL    MW4 2080   0.453   1.168   1.116  0.6503 -0.2048  0.4505
  513SOL     OW 2081   0.661   1.256   1.232 -0.5501 -0.5643  0.1239
  513SOL    HW2 2082   0.734   1.214   1.187  0.4960  0.0579  1.2134
  513SOL    HW3 2083   0.672   1.350   1.213 -1.5127 -0.5387 -0.3445
  513SOL    MW4 2084   0.672   1.263   1.224 -0.5391 -0.4788  0.2058
  514SOL     OW 2085   0.681   1.521   1.168 -0.0482 -0.5591  0.0402
  514SOL    HW2 2086   0.756   1.568   1.205 -0.6990 -1.4402  2.5456
  514SOL    HW3 2087   0.605   1.566   1.202 -0.6691 -1.5842  0.0327
  514SOL    MW4 2088   0.681   1.533   1.177 -0.2159 -0.8106  0.3697
  515SOL     OW 2089   0.437   1.661   1.220  0.3374 -0.2524 -0.2663
  515SOL    HW2 2090   0.429   1.668   1.315  0.8238  1.0244 -0.3084
  515SOL    HW3 2091   0.348   1.644   1.190  0.1459 -0.4550  0.4078
  515SOL    MW4 2092   0.424   1.660   1.229  0.3763 -0.1107 -0.1829
  516SOL     OW 2093   0.454   1.937   1.137  0.0401 -0.2052  0.4560
  516SOL    HW2 2094   0.448   1.851   1.179 -0.8286 -0.0503  0.6761
  516SOL    HW3 2095   0.384   1.988   1.179  0.0715  0.3793 -0.1982
  516SOL    MW4 2096   0.444   1.932   1.148 -0.0704 -0.1076  0.3987
  517SOL     OW 2097   0.685   2.093   1.179 -0.1326  0.6053 -0.1327
  517SOL    HW2 2098   0.688   2.078   1.274  1.8297  0.5797 -0.1731
  517SOL    HW3 2099   0.607   2.046   1.150  0.0098 -0.5649  1.2890
  517SOL    MW4 2100   0.675   2.085   1.188  0.1451  0.4476  0.0495
  518SOL     OW 2101   0.647   2.370   1.136  0.1020 -0.3383 -0.4710
  518SOL    HW2 2102   0.562   2.369   1.178  0.1959 -0.5366 -0.2853
  518SOL    HW3 2103   0.683   2.282   1.151  0.1514 -0.3958 -0.9270
  518SOL    MW4 2104   0.641   2.358   1.143  0.1209 -0.3720 -0.5067
  519SOL     OW 2105   0.392   2.413   1.256  0.0717  0.1932  0.2634
  519SOL    HW2 2106   0.405   2.407   1.350 -2.5930 -0.5624  0.6330
  519SOL    HW3 2107   0.418   2.502   1.233  0.1166  0.5942  1.8162
  519SOL    MW4 2108   0.397   2.424   1.265 -0.2740  0.1464  0.5171
  520SOL     OW 2109   0.452   2.675   1.177  0.4993  0.1008  0.2390
  520SOL    HW2 2110   0.378   2.721   1.217  0.0569 -1.4352  1.2191
  520SOL    HW3 2111   0.444   2.693   1.084 -0.5160  0.7877  0.4573
  520SOL    MW4 2112   0.441   2.683   1.170  0.3069 -0.0112  0.3971
  521SOL     OW 2113   0.669   2.827   1.231  0.4965 -0.3529  0.2614
  521SOL    HW2 2114   0.671   2.834   1.326 -1.9053  0.2017  0.3139
  521SOL    HW3 2115   0.594   2.770   1.213  1.4182 -1.1105 -1.2679
  521SOL    MW4 2116   0.659   2.821   1.241  0.3012 -0.3797  0.0666
  522SOL     OW 2117   0.656   3.082   1.115 -0.0237 -0.4602  0.4379
  522SOL    HW2 2118   0.738   3.123   1.143 -0.6036 -0.1650  1.7598
  522SOL    HW3 2119   0.657   2.996   1.158  0.3203 -1.0986 -0.8237
  522SOL    MW4 2120   0.667   3.076   1.125 -0.0548 -0.5055  0.4458
  523SOL     OW 2121   0.474   3.237   1.238 -0.3772  0.1434  0.0263
  523SOL    HW2 2122   0.461   3.326   1.205 -1.4453  0.2328  0.6757
  523SOL    HW3 2123   0.549   3.204   1.189  0.7817  1.8257  0.6308
  523SOL    MW4 2124   0.482   3.244   1.227 -0.3652  0.3771  0.1918
  524SOL     OW 2125   0.460   3.508   1.154  0.0135  0.1375 -0.0407
  524SOL    HW2 2126   0.534   3.567   1.165  0.4677 -0.4613  0.1154
  524SOL    HW3 2127   0.385   3.557   1.188  0.3246  0.7754 -0.2863
  524SOL    MW4 2128   0.460   3.522   1.160  0.1144  0.1427 -0.0525
  525SOL     OW 2129   0.688   3.679   1.165 -0.2290  0.1361  0.0436
  525SOL    HW2 2130   0.699   3.668   1.260  0.6634  0.8431  0.0329
  525SOL    HW3 2131   0.693   3.774   1.152 -1.6295  0.1340 -0.5579
  525SOL    MW4 2132   0.690   3.690   1.176 -0.2960  0.2291 -0.0372
  526SOL     OW 2133   0.695   3.942   1.133 -0.0720 -0.2314 -0.3218
  526SOL    HW2 2134   0.617   3.950   1.189 -0.8549  0.9730 -1.5562
  526SOL    HW3 2135   0.660   3.919   1.047  1.0429 -0.9046 -0.6013
  526SOL    MW4 2136   0.680   3.940   1.129 -0.0282 -0.1613 -0.5216
  527SOL     OW 2137   0.413   3.948   1.220 -0.2296 -0.0072  0.1768
  527SOL    HW2 2138   0.417   4.040   1.193  1.0152 -0.1355 -0.1211
  527SOL    HW3 2139   0.345   3.909   1.165 -0.9452  0.7889  0.4855
  527SOL    MW4 2140   0.405   3.955   1.210 -0.1598  0.0809  0.1782
  528SOL     OW 2141   0.416   4.219   1.128 -0.3492 -0.0898 -0.2017
  528SOL    HW2 2142   0.501   4.254   1.152 -0.6034  1.7146 -1.7545
  528SOL    HW3 2143   0.353   4.277   1.172 -0.7691 -0.5305 -0.2200
  528SOL    MW4 2144   0.419   4.231   1.137 -0.4381  0.0901 -0.4090
  529SOL     OW 2145   0.633   4.388   1.200  0.4067 -0.1138 -0.5787
  529SOL    HW2 2146   0.644   4.403   1.294 -1.4258 -1.7209 -0.0830
  529SOL    HW3 2147   0.718   4.356   1.171  1.0719  0.6720  0.4660
  529SOL    MW4 2148   0.646   4.386   1.209  0.2526 -0.2222 -0.3754
  530SOL     OW 2149   1.126   0.030   1.131 -0.8674 -0.2342  0.0404
  530SOL    HW2 2150   1.136  -0.063   1.151  0.9882  0.1317  0.9028
  530SOL    HW3 2151   1.120   0.033   1.035 -1.3142 -1.2668  0.0250
  530SOL    MW4 2152   1.126   0.018   1.121 -0.6815 -0.3222  0.1522
  531SOL     OW 2153   0.860   0.109   1.206 -0.0088 -0.2699 -0.4256
  531SOL    HW2 2154   0.868   0.108   1.301  0.3548  1.6256 -0.4217
  531SOL    HW3 2155   0.940   0.066   1.175 -0.3320 -1.2826  0.1225
  531SOL    MW4 2156   0.872   0.103   1.214 -0.0035 -0.1534 -0.3527
  532SOL     OW 2157   0.886   0.376   1.113  0.2253 -0.0591 -0.0841
  532SOL    HW2 2158   0.883   0.292   1.158  2.4912  0.7564  1.7362
  532SOL    HW3 2159   0.803   0.418   1.134 -1.1520 -2.0229 -1.4689
  532SOL    MW4 2160   0.875   0.371   1.122  0.3426 -0.2106 -0.0266
  533SOL     OW 2161   1.130   0.511   1.181  0.1956 -0.2712 -0.2394
  533SOL    HW2 2162   1.139   0.509   1.277  0.4112 -2.6498 -0.2743
  533SOL    HW3 2163   1.038   0.490   1.165  0.0435  0.6311 -0.5335
  533SOL    MW4 2164   1.119   0.508   1.192  0.2040 -0.4660 -0.2828
  534SOL     OW 2165   1.137   0.772   1.088 -0.2711 -0.5957  0.1431
  534SOL    HW2 2166   1.063   0.824   1.118 -0.0517 -0.2569  0.0998
  534SOL    HW3 2167   1.133   0.691   1.140 -0.4317 -0.4080  0.4214
  534SOL    MW4 2168   1.127   0.768   1.098 -0.2633 -0.5262  0.1741
  535SOL     OW 2169   0.910   0.878   1.211 -0.1459  0.4051  0.2630
  535SOL    HW2 2170   0.922   0.967   1.179 -1.4542  0.1888 -0.9026
  535SOL    HW3 2171   0.831   0.848   1.167 -0.3339 -0.9499  1.4954
  535SOL    MW4 2172   0.901   0.886   1.201 -0.3433  0.1978  0.2718
  536SOL     OW 2173   0.893   1.139   1.130  0.1081  0.4825 -0.0482
  536SOL    HW2 2174   0.961   1.197   1.163  0.5993 -0.8771  1.4153
  536SOL    HW3 2175   0.900   1.144   1.035  2.1940  0.4256  0.0912
  536SOL    MW4 2176   0.903   1.147   1.122  0.4481  0.2956  0.1633
  537SOL     OW 2177   1.096   1.309   1.237 -0.2214 -0.2063  0.2906
  537SOL    HW2 2178   1.080   1.320   1.330  0.8455 -1.2852  0.6231
  537SOL    HW3 2179   1.180   1.262   1.232  0.0326  0.3517 -1.2193
  537SOL    MW4 2180   1.105   1.304   1.248 -0.0471 -0.2751  0.1353
  538SOL     OW 2181   1.142   1.558   1.123  0.2195  0.1175  0.1056
  538SOL    HW2 2182   1.129   1.467   1.150 -0.0788  0.7119  2.0487
  538SOL    HW3 2183   1.112   1.561   1.032 -1.7083 -1.2792  0.6763
  538SOL    MW4 2184   1.136   1.547   1.114 -0.0742  0.0116  0.4373
  539SOL     OW 2185   0.900   1.678   1.230 -0.3978  0.0772 -0.2065
  539SOL    HW2 2186   0.911   1.767   1.198  0.0773 -0.3267 -1.1764
  539SOL    HW3 2187   0.985   1.636   1.216 -0.4880 -0.4089  0.6420
  539SOL    MW4 2188   0.913   1.684   1.224 -0.3470 -0.0403 -0.2225
  540SOL     OW 2189   0.918   1.933   1.136  0.0321 -0.2623  0.2707
  540SOL    HW2 2190   0.993   1.990   1.153 -0.4916  0.0842  1.4781
  540SOL    HW3 2191   0.842   1.989   1.149 -0.4478 -0.7758 -0.3214
  540SOL    MW4 2192   0.918   1.948   1.140 -0.1003 -0.2843  0.3519
  541SOL     OW 2193   1.145   2.079   1.173  0.3072 -0.5385 -0.6731
  541SOL    HW2 2194   1.153   2.084   1.268  0.0909 -0.1608 -0.6734
  541SOL    HW3 2195   1.132   2.170   1.145  0.3000 -0.6550 -1.0557
  541SOL    MW4 2196   1.144   2.092   1.182  0.2777 -0.5041 -0.7236
  542SOL     OW 2197   1.085   2.334   1.090  0.4860  0.3956 -0.0469
  542SOL    HW2 2198   1.164   2.382   1.116  2.2427 -1.9021 -0.9417
  542SOL    HW3 2199   1.072   2.358   0.998  0.0922  0.8016  0.1103
  542SOL    MW4 2200   1.094   2.344   1.081  0.6658  0.1460 -0.1442
  543SOL     OW 2201   0.897   2.473   1.232  1.0321 -0.0707  0.0577
  543SOL    HW2 2202   0.966   2.419   1.194  1.4452 -0.5359  1.4392
  543SOL    HW3 2203   0.816   2.438   1.196  1.5064  0.4262 -1.5168
  543SOL    MW4 2204   0.896   2.461   1.222  1.1491 -0.0665  0.0322
  544SOL     OW 2205   0.895   2.715   1.114  0.8819 -0.2424  0.3313
  544SOL    HW2 2206   0.895   2.636   1.167  1.1853 -0.5383 -0.1081
  544SOL    HW3 2207   0.830   2.772   1.155  1.3132 -0.3610  1.1774
  544SOL    MW4 2208   0.886   2.712   1.126  0.9788 -0.2971  0.3849
  545SOL     OW 2209   1.137   2.827   1.181 -0.2281 -0.0006 -0.7249
  545SOL    HW2 2210   1.115   2.821   1.274 -0.0758 -2.0796 -0.7800
  545SOL    HW3 2211   1.063   2.785   1.137 -0.2160  0.8203 -1.5257
  545SOL    MW4 2212   1.124   2.820   1.188 -0.2064 -0.1666 -0.8378
  546SOL     OW 2213   1.143   3.101   1.117 -0.1439  0.1935 -0.3556
  546SOL    HW2 2214   1.139   3.009   1.144 -0.0021  0.0104 -0.9534
  546SOL    HW3 2215   1.142   3.098   1.021 -1.5093  0.8764 -0.3757
  546SOL    MW4 2216   1.143   3.088   1.108 -0.3054  0.2594 -0.4372
  547SOL     OW 2217   0.897   3.211   1.166  0.4350  0.2850  0.0836
  547SOL    HW2 2218   0.908   3.306   1.160 -1.5423  0.4968 -0.6097
  547SOL    HW3 2219   0.983   3.175   1.144  0.6613  1.8651 -1.7378
  547SOL    MW4 2220   0.910   3.219   1.162  0.2040  0.5214 -0.2482
  548SOL     OW 2221   0.908   3.481   1.162 -0.2767  0.2594 -0.0749
  548SOL    HW2 2222   0.832   3.536   1.182 -0.7960 -0.0663 -1.1273
  548SOL    HW3 2223   0.908   3.473   1.067  1.9283  1.4587 -0.2250
  548SOL    MW4 2224   0.898   3.488   1.152 -0.0543  0.3747 -0.2335
  549SOL     OW 2225   1.130   3.610   1.222  0.2087  0.2700 -0.3177
  549SOL    HW2 2226   1.207   3.576   1.176 -0.0229  1.9229 -1.9832
  549SOL    HW3 2227   1.061   3.547   1.202  0.7011 -0.2990 -0.2445
  549SOL    MW4 2228   1.131   3.597   1.213  0.2431  0.4130 -0.5278
  550SOL     OW 2229   1.136   3.879   1.147  0.0029  0.3935  0.4896
  550SOL    HW2 2230   1.063   3.936   1.172 -0.7329 -0.2531 -0.1873
  550SOL    HW3 2231   1.115   3.794   1.186 -0.2839 -0.1508 -0.8291
  550SOL    MW4 2232   1.123   3.876   1.156 -0.1321  0.2364  0.2263
  551SOL     OW 2233   0.938   4.040   1.232 -0.0906 -0.4671 -0.1388
  551SOL    HW2 2234   0.920   4.040   1.326  1.1940 -1.3458  0.1127
  551SOL    HW3 2235   0.854   4.015   1.192 -0.4480 -0.8316  0.8138
  551SOL    MW4 2236   0.924   4.037   1.239  0.0318 -0.6312  0.0201
  552SOL     OW 2237   0.899   4.303   1.119  0.1675 -0.1884  0.6771
  552SOL    HW2 2238   0.944   4.222   1.143 -0.7608 -0.5718  1.1248
  552SOL    HW3 2239   0.867   4.287   1.030 -1.3760 -0.9133  1.3418
  552SOL    MW4 2240   0.901   4.291   1.110 -0.1586 -0.3346  0.8239
  553SOL     OW 2241   1.118   4.442   1.197  0.0124  0.3091 -0.0048
  553SOL    HW2 2242   1.131   4.425   1.290 -1.0468  0.0653  0.1076
  553SOL    HW3 2243   1.042   4.389   1.173 -0.0909  0.8286 -0.8655
  553SOL    MW4 2244   1.109   4.433   1.206 -0.1410  0.3455 -0.1035
  554SOL     OW 2245   1.598   0.013   1.097  0.0696 -0.1646 -0.6434
  554SOL    HW2 2246   1.661   0.060   1.152 -0.6963 -0.6382  0.6556
  554SOL    HW3 2247   1.608  -0.079   1.121  0.7935 -0.5607 -2.3966
  554SOL    MW4 2248   1.608   0.007   1.108  0.0641 -0.2794 -0.7033
  555SOL     OW 2249   1.363   0.118   1.218 -0.1005 -0.1924  0.2318
  555SOL    HW2 2250   1.420   0.069   1.159 -0.0042 -0.2736  0.3931
  555SOL    HW3 2251   1.276   0.080   1.204 -0.0835 -0.1891  0.1180
  555SOL    MW4 2252   1.359   0.106   1.208 -0.0856 -0.2026  0.2380
  556SOL     OW 2253   1.353   0.377   1.092 -0.7412  0.1604 -0.1269
  556SOL    HW2 2254   1.358   0.289   1.129 -0.9688 -0.4871 -1.5881
  556SOL    HW3 2255   1.267   0.410   1.119 -1.5357 -0.8816 -1.2762
  556SOL    MW4 2256   1.342   0.370   1.100 -0.8761 -0.0625 -0.4713
  557SOL     OW 2257   1.559   0.538   1.184  0.5317  0.0939 -0.5262
  557SOL    HW2 2258   1.554   0.615   1.127  0.6934  0.1177 -0.5090
  557SOL    HW3 2259   1.493   0.478   1.150 -0.8550  0.9714  0.5614
  557SOL    MW4 2260   1.550   0.540   1.172  0.3701  0.2128 -0.3805
  558SOL     OW 2261   1.565   0.753   1.025 -0.1993  0.2204  0.1479
  558SOL    HW2 2262   1.644   0.802   1.048 -0.0770 -0.8113  2.0806
  558SOL    HW3 2263   1.562   0.754   0.930  1.0857  1.9301  0.1027
  558SOL    MW4 2264   1.575   0.760   1.016 -0.0136  0.3098  0.3969
  559SOL     OW 2265   1.370   0.897   1.153 -0.1363 -0.2586 -0.4180
  559SOL    HW2 2266   1.432   0.854   1.094 -0.3122 -0.7476 -0.2554
  559SOL    HW3 2267   1.285   0.857   1.131 -0.2365 -0.2775  0.0036
  559SOL    MW4 2268   1.367   0.886   1.142 -0.1727 -0.3256 -0.3410
  560SOL     OW 2269   1.337   1.180   1.180 -0.1870  0.2877 -0.1519
  560SOL    HW2 2270   1.353   1.085   1.178  0.0546  0.3186 -4.0454
  560SOL    HW3 2271   1.425   1.219   1.179 -0.2909  0.5318  0.5075
  560SOL    MW4 2272   1.351   1.172   1.179 -0.1688  0.3240 -0.5786
  561SOL     OW 2273   1.591   1.317   1.210  0.2343  0.1149 -0.0909
  561SOL    HW2 2274   1.658   1.249   1.202  0.8011  0.6739 -0.1246
  561SOL    HW3 2275   1.576   1.324   1.304 -0.8398 -1.0330 -0.1626
  561SOL    MW4 2276   1.598   1.309   1.221  0.1673  0.0372 -0.1048
  562SOL     OW 2277   1.602   1.544   1.067  0.4291 -0.6980  0.1733
  562SOL    HW2 2278   1.672   1.595   1.108  0.6116 -1.2983  0.6304
  562SOL    HW3 2279   1.603   1.461   1.115 -1.1065 -0.4225  0.7124
  562SOL    MW4 2280   1.612   1.539   1.079  0.2505 -0.7409  0.3047
  563SOL     OW 2281   1.377   1.681   1.197  0.0678 -0.1500 -0.0633
  563SOL    HW2 2282   1.448   1.636   1.150  1.3020 -0.2558  1.8605
  563SOL    HW3 2283   1.298   1.632   1.174  1.0636 -1.8954  0.1572
  563SOL    MW4 2284   1.376   1.668   1.188  0.3620 -0.3943  0.2196
  564SOL     OW 2285   1.375   1.946   1.096  0.1683  0.1494  0.3901
  564SOL    HW2 2286   1.369   1.859   1.135  0.7650  0.3355  0.9090
  564SOL    HW3 2287   1.299   1.994   1.129 -0.6338 -0.4313 -0.5709
  564SOL    MW4 2288   1.364   1.941   1.105  0.1412  0.0974  0.3318
  565SOL     OW 2289   1.609   2.088   1.178  0.0428 -0.0715  0.0185
  565SOL    HW2 2290   1.589   2.181   1.167  0.4199 -0.2076 -1.9678
  565SOL    HW3 2291   1.533   2.043   1.141  0.2343 -0.5601  0.2242
  565SOL    MW4 2292   1.596   2.094   1.172  0.1178 -0.1539 -0.2165
  566SOL     OW 2293   1.557   2.360   1.128 -0.6576  0.1305  0.5534
  566SOL    HW2 2294   1.466   2.389   1.132 -0.4218  1.1494 -1.0820
  566SOL    HW3 2295   1.573   2.346   1.035  0.7076 -0.5352  0.8855
  566SOL    MW4 2296   1.547   2.362   1.116 -0.4464  0.1771  0.3814
  567SOL     OW 2297   1.300   2.465   1.209 -0.1663  0.2906 -0.3105
  567SOL    HW2 2298   1.316   2.476   1.302 -2.7012 -0.0982  0.2112
  567SOL    HW3 2299   1.326   2.548   1.169  1.3075  0.3112  0.6553
  567SOL    MW4 2300   1.306   2.477   1.216 -0.3063  0.2420 -0.1143
  568SOL     OW 2301   1.366   2.722   1.091 -0.0051 -0.4431 -0.6761
  568SOL    HW2 2302   1.445   2.740   1.142 -1.4613 -0.5369  1.7214
  568SOL    HW3 2303   1.299   2.776   1.133 -1.7071 -2.0841 -1.2385
  568SOL    MW4 2304   1.367   2.732   1.103 -0.4218 -0.6720 -0.4339
  569SOL     OW 2305   1.596   2.819   1.229 -0.3923  0.2579  0.1589
  569SOL    HW2 2306   1.685   2.798   1.200 -0.0841 -0.1319  1.3333
  569SOL    HW3 2307   1.578   2.905   1.193  0.6866  0.5822  0.3705
  569SOL    MW4 2308   1.605   2.828   1.221 -0.2093  0.2493  0.3418
  570SOL     OW 2309   1.562   3.079   1.116  0.5182 -0.4091 -0.3319
  570SOL    HW2 2310   1.642   3.121   1.149  0.3564 -0.2755 -0.1078
  570SOL    HW3 2311   1.494   3.146   1.127  0.2087 -0.8258  0.2722
  570SOL    MW4 2312   1.563   3.094   1.122  0.4560 -0.4465 -0.2226
  571SOL     OW 2313   1.364   3.232   1.217  0.0683 -0.4830  0.0970
  571SOL    HW2 2314   1.362   3.211   1.311 -0.8195  0.9573  0.4330
  571SOL    HW3 2315   1.277   3.207   1.186  0.1918 -0.4904 -0.2413
  571SOL    MW4 2316   1.352   3.226   1.226 -0.0325 -0.2939  0.0967
  572SOL     OW 2317   1.369   3.519   1.095  0.3250  0.2134 -0.4501
  572SOL    HW2 2318   1.365   3.432   1.135 -1.4000  0.1787 -0.6605
  572SOL    HW3 2319   1.362   3.503   1.001 -1.0628  0.6114 -0.4410
  572SOL    MW4 2320   1.367   3.506   1.088 -0.0857  0.2613 -0.4767
  573SOL     OW 2321   1.555   3.670   1.214  0.3823  0.1498  0.6890
  573SOL    HW2 2322   1.564   3.757   1.174 -0.0964 -0.1150 -0.0051
  573SOL    HW3 2323   1.487   3.627   1.162  0.0450 -0.3524  1.5392
  573SOL    MW4 2324   1.547   3.676   1.202  0.2746  0.0486  0.7096
  574SOL     OW 2325   1.582   3.939   1.110  0.0447  0.3652  0.1151
  574SOL    HW2 2326   1.504   3.969   1.156 -1.5902 -2.7282 -0.5131
  574SOL    HW3 2327   1.552   3.921   1.021  1.4626 -0.8670 -0.1372
  574SOL    MW4 2328   1.567   3.940   1.104  0.0161 -0.2055 -0.0011
  575SOL     OW 2329   1.351   4.052   1.228  0.2798 -0.2015 -0.3774
  575SOL    HW2 2330   1.343   4.143   1.200  1.1360 -0.6001 -1.9521
  575SOL    HW3 2331   1.287   4.005   1.175 -1.3168 -0.3010  1.5748
  575SOL    MW4 2332   1.341   4.058   1.217  0.1821 -0.2672 -0.3275
  576SOL     OW 2333   1.354   4.322   1.143  0.4327  0.2013 -0.2829
  576SOL    HW2 2334   1.272   4.368   1.160  0.2366 -0.3747  0.3833
  576SOL    HW3 2335   1.352   4.301   1.050 -0.5364 -0.4696 -0.1181
  576SOL    MW4 2336   1.343   4.325   1.133  0.2790  0.0368 -0.1732
  577SOL     OW 2337   1.604   4.411   1.219 -0.1707 -0.1856  0.2516
  577SOL    HW2 2338   1.609   4.402   1.314  0.4692 -0.5595  0.1873
  577SOL    HW3 2339   1.514   4.387   1.197  0.0962 -1.5639  0.6175
  577SOL    MW4 2340   1.593   4.407   1.228 -0.0510 -0.4168  0.2914
  578SOL     OW 2341   2.018   0.027   1.090  0.0599  0.0179  0.0680
  578SOL    HW2 2342   2.032  -0.066   1.104  0.4855  0.1291  0.4042
  578SOL    HW3 2343   1.997   0.035   0.997 -1.7553 -0.6113  0.3946
  578SOL    MW4 2344   2.017   0.016   1.079 -0.1234 -0.0505  0.1555
  579SOL     OW 2345   1.795   0.144   1.228 -0.4378  0.0373  0.1836
  579SOL    HW2 2346   1.796   0.231   1.188  0.2258 -0.0438  0.0058
  579SOL    HW3 2347   1.877   0.104   1.198 -0.5311 -0.4832  0.6209
  579SOL    MW4 2348   1.806   0.150   1.219 -0.3626 -0.0421  0.2178
  580SOL     OW 2349   1.785   0.383   1.098 -0.0816  0.4071  0.4368
  580SOL    HW2 2350   1.724   0.450   1.128  0.1004  1.5917 -1.7782
  580SOL    HW3 2351   1.800   0.402   1.006  3.0919 -0.2676  0.7331
  580SOL    MW4 2352   1.779   0.394   1.090  0.3611  0.4744  0.1836
  581SOL     OW 2353   2.018   0.769   1.091  0.2550 -0.1600 -0.5410
  581SOL    HW2 2354   2.092   0.811   1.134 -0.2094 -0.3782  0.4927
  581SOL    HW3 2355   2.023   0.677   1.118 -0.0342 -0.3085 -0.9793
  581SOL    MW4 2356   2.028   0.762   1.100  0.1555 -0.2084 -0.4624
  582SOL     OW 2357   2.030   0.797   0.799 -0.0394  0.2025 -0.3952
  582SOL    HW2 2358   2.119   0.824   0.775  0.5451 -0.0999  1.3769
  582SOL    HW3 2359   2.036   0.772   0.891 -1.7337 -0.8666 -0.5475
  582SOL    MW4 2360   2.043   0.798   0.808 -0.1858  0.0216 -0.1815
  583SOL     OW 2361   1.768   0.868   1.151  0.2937 -0.1032 -0.0927
  583SOL    HW2 2362   1.750   0.881   1.244  0.0363 -0.2351 -0.1232
  583SOL    HW3 2363   1.857   0.833   1.148 -0.3427 -1.7823  0.2202
  583SOL    MW4 2364   1.777   0.865   1.163  0.1758 -0.3421 -0.0555
  584SOL     OW 2365   1.761   1.136   1.090 -0.5958 -0.1553  0.3195
  584SOL    HW2 2366   1.771   1.044   1.115 -1.0102 -0.0413  0.9035
  584SOL    HW3 2367   1.755   1.134   0.995  0.7298 -0.6139  0.2292
  584SOL    MW4 2368   1.762   1.124   1.081 -0.4756 -0.2008  0.3846
  585SOL     OW 2369   2.001   1.286   1.174  0.2623  0.6074 -0.2577
  585SOL    HW2 2370   2.080   1.242   1.143 -0.7839 -1.4225 -0.0857
  585SOL    HW3 2371   1.929   1.231   1.144 -1.0646  1.9493  0.3850
  585SOL    MW4 2372   2.002   1.273   1.166 -0.0508  0.5166 -0.1502
  586SOL     OW 2373   2.044   1.550   1.112  0.1214 -0.0704  0.0085
  586SOL    HW2 2374   2.023   1.463   1.146 -0.6203  0.0868 -0.0480
  586SOL    HW3 2375   2.064   1.535   1.020 -0.8624 -0.0624 -0.2155
  586SOL    MW4 2376   2.044   1.536   1.104 -0.1063 -0.0486 -0.0285
  587SOL     OW 2377   1.815   1.674   1.199  0.0372  0.5417  0.5001
  587SOL    HW2 2378   1.806   1.758   1.154 -2.1694  0.3414  0.5236
  587SOL    HW3 2379   1.895   1.636   1.162  0.0785  1.8496 -0.8089
  587SOL    MW4 2380   1.825   1.680   1.188 -0.2485  0.6879  0.3305
  588SOL     OW 2381   1.826   1.929   1.075 -0.0112 -0.0517 -0.1366
  588SOL    HW2 2382   1.760   1.989   1.108 -0.7834 -0.5207 -0.7951
  588SOL    HW3 2383   1.816   1.933   0.979 -0.2967 -1.4773 -0.1695
  588SOL    MW4 2384   1.816   1.937   1.066 -0.1508 -0.3017 -0.2278
  589SOL     OW 2385   2.033   2.082   1.201 -0.0999  0.0097  0.5999
  589SOL    HW2 2386   2.025   2.074   1.296  0.7529 -0.5304  0.6364
  589SOL    HW3 2387   1.970   2.019   1.167 -0.8378  0.6372  0.8035
  589SOL    MW4 2388   2.024   2.073   1.209 -0.0848  0.0212  0.6316
  590SOL     OW 2389   2.017   2.346   1.125  0.0058 -0.3271 -0.2936
  590SOL    HW2 2390   2.103   2.385   1.139 -0.7468  0.9966  0.8060
  590SOL    HW3 2391   2.026   2.256   1.156  0.9672 -0.1744 -0.1089
  590SOL    MW4 2392   2.029   2.339   1.131  0.0333 -0.1323 -0.1241
  591SOL     OW 2393   1.818   2.489   1.256  0.2317 -0.1878  0.2643
  591SOL    HW2 2394   1.892   2.452   1.207 -0.4653  0.5361 -1.3831
  591SOL    HW3 2395   1.741   2.443   1.221 -0.2386  0.0665  0.9636
  591SOL    MW4 2396   1.818   2.478   1.245  0.0777 -0.0587  0.1392
  592SOL     OW 2397   1.844   2.750   1.154 -0.6365 -0.0468 -0.0986
  592SOL    HW2 2398   1.827   2.662   1.187  0.8012 -0.7171 -1.0977
  592SOL    HW3 2399   1.851   2.740   1.059  1.2182  0.8394 -0.0844
  592SOL    MW4 2400   1.843   2.737   1.146 -0.2021 -0.0183 -0.2286
  593SOL     OW 2401   2.074   2.828   1.302  0.1770  0.6664 -0.3155
  593SOL    HW2 2402   2.076   2.919   1.272 -1.0138  0.6288 -0.5604
  593SOL    HW3 2403   1.992   2.793   1.265  0.6686 -0.5233 -0.2981
  593SOL    MW4 2404   2.063   2.836   1.293  0.0847  0.5045 -0.3455
  594SOL     OW 2405   2.034   3.091   1.177  0.0875 -0.7382  0.0243
  594SOL    HW2 2406   1.949   3.123   1.208  0.2432 -1.1241  0.8576
  594SOL    HW3 2407   2.032   3.105   1.082 -0.4211  0.3815  0.1939
  594SOL    MW4 2408   2.023   3.097   1.168  0.0410 -0.6414  0.1567
  595SOL     OW 2409   1.789   3.204   1.227 -0.0082  0.3505  0.0337
  595SOL    HW2 2410   1.791   3.201   1.322  2.1466  0.5884  0.0286
  595SOL    HW3 2411   1.778   3.296   1.205 -0.8928  0.2477  0.0614
  595SOL    MW4 2412   1.788   3.215   1.236  0.1594  0.3683  0.0367
  596SOL     OW 2413   1.738   3.458   1.130 -0.1013 -0.3615 -0.4864
  596SOL    HW2 2414   1.827   3.484   1.154 -0.0619  1.2559 -2.2488
  596SOL    HW3 2415   1.682   3.524   1.170 -0.6424 -2.1250  1.7408
  596SOL    MW4 2416   1.742   3.470   1.138 -0.1675 -0.3808 -0.4251
  597SOL     OW 2417   2.002   3.557   1.199  0.1448 -0.0503 -0.2914
  597SOL    HW2 2418   2.005   3.571   1.293  1.0859  1.9404 -0.6050
  597SOL    HW3 2419   2.092   3.535   1.174  0.0306  0.0880 -0.8361
  597SOL    MW4 2420   2.014   3.556   1.208  0.2539  0.2306 -0.4046
  598SOL     OW 2421   2.032   3.876   1.162  0.1349  0.0078  0.2252
  598SOL    HW2 2422   1.955   3.919   1.200  0.0360  0.7069 -0.7703
  598SOL    HW3 2423   2.034   3.790   1.205 -3.0315 -1.2529 -1.9551
  598SOL    MW4 2424   2.022   3.870   1.173 -0.2959 -0.0663 -0.1938
  599SOL     OW 2425   1.834   4.040   1.234 -0.1409  0.3153  0.2348
  599SOL    HW2 2426   1.809   4.044   1.326  1.3824  0.8994  0.6263
  599SOL    HW3 2427   1.755   4.008   1.189 -0.8736  0.0034  1.7327
  599SOL    MW4 2428   1.820   4.036   1.240 -0.0366  0.3512  0.4841
  600SOL     OW 2429   1.823   4.284   1.115  0.0785  0.1909 -0.2494
  600SOL    HW2 2430   1.837   4.197   1.153  0.0263  0.3045  0.0329
  600SOL    HW3 2431   1.745   4.317   1.159 -1.6053 -0.7919 -2.4243
  600SOL    MW4 2432   1.815   4.277   1.126 -0.1506  0.0762 -0.4991
  601SOL     OW 2433   2.059   4.434   1.178 -0.1076  0.2530  0.0098
  601SOL    HW2 2434   2.070   4.440   1.273 -1.8610 -0.3923  0.2505
  601SOL    HW3 2435   1.978   4.386   1.165  0.0070  0.5113 -1.8251
  601SOL    MW4 2436   2.050   4.429   1.189 -0.3238  0.2019 -0.2006
  602SOL     OW 2437   2.453   4.645   1.087 -0.4045  0.1237 -0.0876
  602SOL    HW2 2438   2.540   4.674   1.115  0.0029 -0.6337 -0.5420
  602SOL    HW3 2439   2.392   4.704   1.132  0.3551  0.8505 -0.0017
  602SOL    MW4 2440   2.457   4.657   1.097 -0.2505  0.1196 -0.1362
  603SOL     OW 2441   2.252   0.098   1.228 -0.2258 -0.4645 -0.3076
  603SOL    HW2 2442   2.258   0.186   1.191 -0.2506  0.0382  0.8379
  603SOL    HW3 2443   2.177   0.059   1.185 -1.7050  0.9510  0.9081
  603SOL    MW4 2444   2.243   0.105   1.218 -0.4243 -0.2114  0.0039
  604SOL     OW 2445   2.018   0.500   1.181  0.0107 -0.0722 -0.0041
  604SOL    HW2 2446   2.018   0.495   1.277 -0.9916 -0.1762 -0.0037
  604SOL    HW3 2447   1.937   0.455   1.155 -0.1591  0.7285 -0.8545
  604SOL    MW4 2448   2.007   0.493   1.190 -0.1440  0.0197 -0.1163
  605SOL     OW 2449   2.476   0.503   1.163  0.4744  0.2165 -0.1485
  605SOL    HW2 2450   2.492   0.519   1.256  1.9070  0.4030 -0.4257
  605SOL    HW3 2451   2.388   0.465   1.161  0.0428  1.0799  1.1948
  605SOL    MW4 2452   2.466   0.500   1.175  0.6065  0.3550 -0.0078
  606SOL     OW 2453   2.491   0.775   1.100 -0.3220  0.3048  0.0372
  606SOL    HW2 2454   2.495   0.681   1.117  0.0941  0.3551  0.2344
  606SOL    HW3 2455   2.511   0.784   1.007  2.0822  0.3675  0.5190
  606SOL    MW4 2456   2.495   0.764   1.090  0.0501  0.3197  0.1268
  607SOL     OW 2457   2.264   0.923   1.194  0.4245 -0.2399  0.4356
  607SOL    HW2 2458   2.268   0.918   1.289  3.0681  1.7643  0.4962
  607SOL    HW3 2459   2.343   0.878   1.164  0.1891  0.1245 -0.7555
  607SOL    MW4 2460   2.275   0.917   1.202  0.7422  0.0726  0.2865
  608SOL     OW 2461   2.242   1.192   1.097 -0.3882 -0.1080  0.6705
  608SOL    HW2 2462   2.312   1.236   1.145 -0.0139 -0.2077  0.2156
  608SOL    HW3 2463   2.240   1.104   1.135  0.9886 -0.7051 -0.5816
  608SOL    MW4 2464   2.251   1.186   1.109 -0.1571 -0.2000  0.4453
  609SOL     OW 2465   2.492   1.303   1.211  0.3769 -0.1635 -0.0157
  609SOL    HW2 2466   2.565   1.251   1.179 -0.9575 -1.0828 -1.6779
  609SOL    HW3 2467   2.505   1.390   1.172 -0.2707 -0.7783 -1.6541
  609SOL    MW4 2468   2.503   1.308   1.202  0.1154 -0.3659 -0.4511
  610SOL     OW 2469   2.520   1.567   1.116  0.0207 -0.4094 -0.1357
  610SOL    HW2 2470   2.428   1.586   1.136  0.4822 -0.3528  2.0796
  610SOL    HW3 2471   2.524   1.565   1.021 -2.3566 -0.8082 -0.2538
  610SOL    MW4 2472   2.508   1.570   1.106 -0.2320 -0.4545  0.1410
  611SOL     OW 2473   2.277   1.660   1.183  0.1331  0.8452 -1.1066
  611SOL    HW2 2474   2.281   1.749   1.148 -0.7241  1.7629  1.0307
  611SOL    HW3 2475   2.189   1.629   1.159  0.1429  0.8641 -1.1666
  611SOL    MW4 2476   2.266   1.668   1.175  0.0213  0.9688 -0.8325
  612SOL     OW 2477   2.261   1.931   1.114 -0.7192 -0.7204 -0.0028
  612SOL    HW2 2478   2.178   1.966   1.145 -0.7958 -0.4623 -0.4870
  612SOL    HW3 2479   2.270   1.966   1.025  1.1514  1.3296  0.9659
  612SOL    MW4 2480   2.251   1.940   1.106 -0.4825 -0.4159  0.0611
  613SOL     OW 2481   2.518   2.043   1.196 -0.3261  0.1537 -0.3213
  613SOL    HW2 2482   2.598   2.000   1.165 -0.8828 -1.6620  0.6659
  613SOL    HW3 2483   2.447   1.985   1.166 -1.2366  1.4583 -0.7220
  613SOL    MW4 2484   2.519   2.029   1.188 -0.5197  0.0862 -0.2439
  614SOL     OW 2485   2.479   2.312   1.124  0.0700  0.4060 -0.0754
  614SOL    HW2 2486   2.475   2.217   1.140  0.6951  0.5434  0.9452
  614SOL    HW3 2487   2.495   2.320   1.030 -0.4404 -0.4910 -0.2464
  614SOL    MW4 2488   2.480   2.300   1.113  0.0851  0.3058  0.0367
  615SOL     OW 2489   2.259   2.459   1.211 -0.3322 -0.3717  0.5072
  615SOL    HW2 2490   2.252   2.453   1.307 -0.1383 -0.9277  0.4899
  615SOL    HW3 2491   2.329   2.397   1.189  0.1624  0.3298  0.0811
  615SOL    MW4 2492   2.267   2.450   1.221 -0.2413 -0.3525  0.4487
  616SOL     OW 2493   2.290   2.730   1.162 -0.5035  0.1815 -0.3518
  616SOL    HW2 2494   2.275   2.637   1.178  1.0713  0.1278  0.8386
  616SOL    HW3 2495   2.219   2.774   1.209 -1.1166 -0.3831 -0.7285
  616SOL    MW4 2496   2.278   2.723   1.170 -0.3766  0.0999 -0.2444
  617SOL     OW 2497   2.507   2.861   1.238  0.1879 -0.3629 -0.0899
  617SOL    HW2 2498   2.492   2.851   1.332  0.4481  1.0292  0.1023
  617SOL    HW3 2499   2.430   2.823   1.197  0.0928 -1.0180  0.6830
  617SOL    MW4 2500   2.495   2.854   1.245  0.2097 -0.2657  0.0374
  618SOL     OW 2501   2.481   3.154   1.176  0.1727 -0.2227 -0.5410
  618SOL    HW2 2502   2.390   3.169   1.201  0.1966 -0.9670 -0.0034
  618SOL    HW3 2503   2.500   3.065   1.205  1.3747  0.2831  0.2684
  618SOL    MW4 2504   2.472   3.144   1.183  0.3345 -0.2541 -0.3633
  619SOL     OW 2505   2.238   3.257   1.259  0.0695  0.2674  0.0876
  619SOL    HW2 2506   2.236   3.343   1.215 -1.1320 -0.9293 -2.3095
  619SOL    HW3 2507   2.164   3.209   1.220  0.9157 -1.9627  1.1731
  619SOL    MW4 2508   2.228   3.262   1.248  0.0226 -0.1847 -0.0855
  620SOL     OW 2509   2.273   3.484   1.120 -0.5081 -0.4747 -0.3511
  620SOL    HW2 2510   2.355   3.524   1.147 -0.8060 -0.6319  0.8184
  620SOL    HW3 2511   2.274   3.489   1.025  0.3187  0.5973 -0.2969
  620SOL    MW4 2512   2.284   3.490   1.111 -0.4383 -0.3540 -0.1897
  621SOL     OW 2513   2.484   3.646   1.211  0.2760  0.0999 -0.0652
  621SOL    HW2 2514   2.445   3.643   1.298  0.6290  1.1055  0.1375
  621SOL    HW3 2515   2.477   3.738   1.185 -0.2366 -0.2753 -1.2891
  621SOL    MW4 2516   2.478   3.658   1.219  0.2549  0.1831 -0.1999
  622SOL     OW 2517   2.472   3.890   1.077  0.1423  0.3647 -0.0652
  622SOL    HW2 2518   2.400   3.924   1.132 -0.3381 -0.4945 -0.1538
  622SOL    HW3 2519   2.438   3.894   0.988  0.7064  1.2045 -0.2482
  622SOL    MW4 2520   2.458   3.895   1.073  0.1533  0.3622 -0.1010
  623SOL     OW 2521   2.269   3.996   1.214  0.2211  0.4122 -0.3410
  623SOL    HW2 2522   2.272   4.086   1.179 -0.7488 -0.2687 -2.2271
  623SOL    HW3 2523   2.182   3.965   1.191 -0.4216 -0.0964  2.6945
  623SOL    MW4 2524   2.258   4.004   1.206  0.0084  0.2553 -0.1894
  624SOL     OW 2525   2.244   4.256   1.098  0.1311  0.0885 -0.1360
  624SOL    HW2 2526   2.176   4.315   1.128  2.0907  2.1902  0.2822
  624SOL    HW3 2527   2.247   4.269   1.003  1.1881  1.3761  0.0634
  624SOL    MW4 2528   2.236   4.265   1.089  0.5291  0.5357 -0.0545
  625SOL     OW 2529   2.464   4.392   1.224  0.2295 -0.4929 -0.3988
  625SOL    HW2 2530   2.398   4.344   1.174 -1.3606  0.6464  0.5718
  625SOL    HW3 2531   2.462   4.480   1.188  1.0027 -0.3647 -0.1454
  625SOL    MW4 2532   2.455   4.397   1.213  0.1217 -0.3257 -0.2374
  626SOL     OW 2533   2.909   0.012   1.066  0.1706  0.3681  0.1861
  626SOL    HW2 2534   2.903  -0.080   1.091  0.3525  0.0548 -0.9060
  626SOL    HW3 2535   2.885   0.014   0.974 -0.8305  1.5587  0.4552
  626SOL    MW4 2536   2.905   0.000   1.057  0.0625  0.4839  0.0775
  627SOL     OW 2537   2.669   0.117   1.179 -0.0286 -0.6358 -0.0628
  627SOL    HW2 2538   2.679   0.120   1.274 -1.1395  0.5545  0.0263
  627SOL    HW3 2539   2.750   0.077   1.148  0.9865  0.3157  1.2889
  627SOL    MW4 2540   2.681   0.112   1.188 -0.0413 -0.3532  0.1273
  628SOL     OW 2541   2.683   0.358   1.047 -0.3847 -0.0378 -0.2214
  628SOL    HW2 2542   2.681   0.276   1.096 -1.1417 -0.5632 -1.1072
  628SOL    HW3 2543   2.617   0.413   1.087 -1.3059 -0.6275 -0.9129
  628SOL    MW4 2544   2.674   0.355   1.058 -0.6061 -0.1849 -0.4295
  629SOL     OW 2545   2.872   0.483   1.187 -0.0862  0.8369  0.2789
  629SOL    HW2 2546   2.864   0.569   1.147  0.7313  0.3257 -1.0160
  629SOL    HW3 2547   2.807   0.429   1.143  1.3742  0.0642 -0.9475
  629SOL    MW4 2548   2.863   0.487   1.176  0.2143  0.6675 -0.0537
  630SOL     OW 2549   2.900   0.750   1.092  0.1670  0.1165  0.5322
  630SOL    HW2 2550   2.982   0.766   1.140 -0.0641  0.1741  0.9038
  630SOL    HW3 2551   2.831   0.783   1.150 -0.0698  0.7282 -0.0848
  630SOL    MW4 2552   2.902   0.757   1.106  0.1053  0.2048  0.4998
  631SOL     OW 2553   2.707   0.908   1.229 -0.2380 -0.5128 -0.5419
  631SOL    HW2 2554   2.723   0.999   1.202  0.8517 -0.5284  0.0431
  631SOL    HW3 2555   2.631   0.881   1.176 -1.9188  1.4235  0.7782
  631SOL    MW4 2556   2.699   0.917   1.218 -0.3160 -0.2594 -0.2905
  632SOL     OW 2557   2.714   1.174   1.133  0.2986 -0.0735 -0.0143
  632SOL    HW2 2558   2.721   1.166   1.038  0.3759 -1.3664  0.0920
  632SOL    HW3 2559   2.796   1.216   1.160  1.1196 -1.4465 -0.3273
  632SOL    MW4 2560   2.726   1.179   1.124  0.4171 -0.4252 -0.0416
  633SOL     OW 2561   2.973   1.278   1.223 -0.3842  0.0171  0.5607
  633SOL    HW2 2562   2.977   1.285   1.318  1.1314 -1.1880  0.6159
  633SOL    HW3 2563   2.970   1.368   1.192  0.6186  0.4647  1.7079
  633SOL    MW4 2564   2.973   1.291   1.231 -0.0520 -0.0828  0.7193
  634SOL     OW 2565   2.938   1.540   1.130  0.2374 -0.4367  0.3268
  634SOL    HW2 2566   3.019   1.589   1.143 -0.0273  0.0310  0.2222
  634SOL    HW3 2567   2.926   1.540   1.035  0.0172 -0.3437  0.3545
  634SOL    MW4 2568   2.947   1.546   1.119  0.1734 -0.3627  0.3167
  635SOL     OW 2569   2.733   1.704   1.222  0.2609  0.1914 -0.2856
  635SOL    HW2 2570   2.802   1.640   1.201  0.0886 -0.5696  1.3804
  635SOL    HW3 2571   2.653   1.666   1.186  0.2256 -0.3497  0.3589
  635SOL    MW4 2572   2.732   1.690   1.214  0.2335  0.0196  0.0193
  636SOL     OW 2573   2.756   1.941   1.081  0.0698  0.0354  0.2998
  636SOL    HW2 2574   2.826   1.994   1.119  0.5804 -0.7499  0.4652
  636SOL    HW3 2575   2.753   1.863   1.136 -0.4545 -0.2549 -0.1439
  636SOL    MW4 2576   2.765   1.938   1.093  0.0680 -0.1065  0.2631
  637SOL     OW 2577   2.944   2.093   1.210 -0.0250  0.8072  0.2649
  637SOL    HW2 2578   2.933   2.117   1.302 -0.0616  1.8276  0.0014
  637SOL    HW3 2579   2.921   2.172   1.162 -1.3000 -0.1351 -0.6828
  637SOL    MW4 2580   2.940   2.107   1.216 -0.1980  0.8175  0.1051
  638SOL     OW 2581   2.915   2.324   1.088  0.0244 -0.1556 -0.0529
  638SOL    HW2 2582   2.969   2.353   1.161 -0.1649 -0.1844  0.0998
  638SOL    HW3 2583   2.831   2.370   1.101 -0.0455 -0.2453 -0.1886
  638SOL    MW4 2584   2.911   2.334   1.099 -0.0098 -0.1713 -0.0507
  639SOL     OW 2585   2.701   2.464   1.223  0.3288  0.0260  0.4042
  639SOL    HW2 2586   2.713   2.459   1.318  0.2350 -2.2448  0.3214
  639SOL    HW3 2587   2.619   2.419   1.206 -0.4714  1.8079 -0.6205
  639SOL    MW4 2588   2.692   2.457   1.233  0.2108 -0.0385  0.2581
  640SOL     OW 2589   2.723   2.727   1.133  0.1491  0.4002  0.1352
  640SOL    HW2 2590   2.712   2.637   1.163  0.3877  0.3590  0.0967
  640SOL    HW3 2591   2.648   2.774   1.170  0.8768  0.5253  1.4712
  640SOL    MW4 2592   2.712   2.722   1.142  0.2766  0.4113  0.3064
  641SOL     OW 2593   2.961   2.851   1.240  0.2824 -0.0709 -0.2101
  641SOL    HW2 2594   2.951   2.840   1.335  0.3263  0.8976 -0.0835
  641SOL    HW3 2595   2.879   2.818   1.203 -0.1555  0.4716  0.2485
  641SOL    MW4 2596   2.949   2.845   1.248  0.2304  0.1284 -0.1329
  642SOL     OW 2597   2.904   3.108   1.178  0.3486  0.1241 -0.1120
  642SOL    HW2 2598   2.945   3.028   1.213  0.0728 -0.6022 -1.4437
  642SOL    HW3 2599   2.914   3.101   1.083 -0.6843  1.1382 -0.3006
  642SOL    MW4 2600   2.911   3.097   1.170  0.1759  0.1621 -0.3126
  643SOL     OW 2601   2.708   3.291   1.264 -0.0532  0.4162 -0.2264
  643SOL    HW2 2602   2.778   3.234   1.231  0.4958 -0.6697  2.6672
  643SOL    HW3 2603   2.627   3.250   1.234  0.3941 -1.0788  0.5740
  643SOL    MW4 2604   2.707   3.278   1.255  0.0782  0.0757  0.2610
  644SOL     OW 2605   2.705   3.531   1.105  0.5502  0.0337 -0.3435
  644SOL    HW2 2606   2.708   3.440   1.135 -0.1340  0.1548  0.1089
  644SOL    HW3 2607   2.627   3.567   1.147  1.2154  1.0337  0.0298
  644SOL    MW4 2608   2.695   3.524   1.114  0.5477  0.1817 -0.2346
  645SOL     OW 2609   2.928   3.650   1.237  0.2113  0.0463  0.3086
  645SOL    HW2 2610   3.009   3.624   1.193  0.1710  1.1543 -0.4431
  645SOL    HW3 2611   2.860   3.599   1.192  0.5000 -0.9690  1.0167
  645SOL    MW4 2612   2.930   3.640   1.225  0.2441  0.0585  0.3028
  646SOL     OW 2613   2.913   3.895   1.109  0.2135 -0.4319 -0.2490
  646SOL    HW2 2614   2.991   3.940   1.142  0.0303  0.4254 -0.9666
  646SOL    HW3 2615   2.902   3.820   1.168  0.5940  0.3881  0.8841
  646SOL    MW4 2616   2.922   3.891   1.121  0.2395 -0.2106 -0.1942
  647SOL     OW 2617   2.676   4.020   1.206 -0.0379  0.0892 -0.0589
  647SOL    HW2 2618   2.751   3.976   1.167  0.0654 -1.4042  1.6961
  647SOL    HW3 2619   2.600   3.979   1.165  0.0929  0.6824 -0.8935
  647SOL    MW4 2620   2.676   4.008   1.196 -0.0070 -0.0296  0.0625
  648SOL     OW 2621   2.693   4.281   1.109  0.4703 -0.1805 -0.0329
  648SOL    HW2 2622   2.702   4.188   1.132 -0.8994 -0.2226  0.3523
  648SOL    HW3 2623   2.607   4.306   1.141 -0.0524  0.6835 -2.0525
  648SOL    MW4 2624   2.683   4.272   1.117  0.2206 -0.0721 -0.2485
  649SOL     OW 2625   2.894   4.440   1.196 -0.1966 -0.3787 -0.0492
  649SOL    HW2 2626   2.964   4.386   1.158 -0.8768  0.7314 -3.0860
  649SOL    HW3 2627   2.815   4.388   1.182 -0.4131 -0.1063  0.1769
  649SOL    MW4 2628   2.893   4.426   1.189 -0.3149 -0.1963 -0.4200
  650SOL     OW 2629   3.356   4.630   1.071  0.4867  0.4864 -0.5979
  650SOL    HW2 2630   3.432   4.684   1.096  0.0571  1.3939 -1.2080
  650SOL    HW3 2631   3.281   4.673   1.112  0.1695  0.2045 -0.8753
  650SOL    MW4 2632   3.356   4.643   1.079  0.3882  0.5690 -0.7150
  651SOL     OW 2633   3.146   0.122   1.174  0.1204  0.1842  0.0540
  651SOL    HW2 2634   3.136   0.115   1.269  0.5265 -0.4337  0.0533
  651SOL    HW3 2635   3.061   0.095   1.140  0.0175  0.2705  0.2394
  651SOL    MW4 2636   3.134   0.118   1.182  0.1604  0.1140  0.0784
  652SOL     OW 2637   3.122   0.373   1.097 -0.2877 -0.2587  0.0572
  652SOL    HW2 2638   3.117   0.282   1.126 -0.8744  0.2001  1.4549
  652SOL    HW3 2639   3.047   0.416   1.139 -0.7357  0.5960 -1.5949
  652SOL    MW4 2640   3.111   0.367   1.107 -0.4242 -0.0854  0.0237
  653SOL     OW 2641   3.321   0.539   1.243  0.0423  0.4978  0.0615
  653SOL    HW2 2642   3.329   0.630   1.213 -0.4396  0.5067 -0.0425
  653SOL    HW3 2643   3.274   0.495   1.172 -0.5668  0.3804  0.5402
  653SOL    MW4 2644   3.316   0.546   1.229 -0.1016  0.4835  0.1109
  654SOL     OW 2645   3.379   0.773   1.116  0.5899  0.1660 -0.1173
  654SOL    HW2 2646   3.357   0.781   1.023 -0.1133  1.3333  0.1380
  654SOL    HW3 2647   3.314   0.828   1.161  2.4925  1.6817  0.8441
  654SOL    MW4 2648   3.367   0.781   1.110  0.7482  0.5200  0.0432
  655SOL     OW 2649   3.138   0.865   1.224 -0.0483 -0.1734  0.4612
  655SOL    HW2 2650   3.146   0.872   1.319  1.3430  0.0526  0.3319
  655SOL    HW3 2651   3.144   0.955   1.193 -0.6836 -0.2297  0.1596
  655SOL    MW4 2652   3.140   0.878   1.233  0.0514 -0.1510  0.4044
  656SOL     OW 2653   3.171   1.124   1.122 -0.2552 -0.0709  0.2200
  656SOL    HW2 2654   3.256   1.155   1.155 -0.1139  0.8023 -0.9356
  656SOL    HW3 2655   3.107   1.177   1.170 -0.0652  0.8888 -0.5653
  656SOL    MW4 2656   3.174   1.135   1.133 -0.2114  0.1709 -0.0361
  657SOL     OW 2657   3.400   1.264   1.186  0.1924  0.0124  0.1656
  657SOL    HW2 2658   3.382   1.273   1.279 -0.4387 -0.4457  0.0888
  657SOL    HW3 2659   3.404   1.353   1.153 -0.0722  0.1628  0.5408
  657SOL    MW4 2660   3.398   1.277   1.194  0.0742 -0.0282  0.2049
  658SOL     OW 2661   3.374   1.547   1.108  0.2189 -0.1057  0.0108
  658SOL    HW2 2662   3.450   1.585   1.152  0.4455  0.8407 -1.1701
  658SOL    HW3 2663   3.299   1.584   1.154  0.4528 -1.1419  1.2651
  658SOL    MW4 2664   3.374   1.557   1.120  0.2797 -0.1175  0.0205
  659SOL     OW 2665   3.138   1.691   1.220 -0.0110 -0.3364  0.0242
  659SOL    HW2 2666   3.147   1.701   1.315  1.4004 -0.2947 -0.1094
  659SOL    HW3 2667   3.151   1.779   1.185 -0.9596 -0.2731 -0.1860
  659SOL    MW4 2668   3.141   1.704   1.228  0.0501 -0.3226 -0.0212
  660SOL     OW 2669   3.169   1.959   1.140 -0.1317  0.2459 -0.0882
  660SOL    HW2 2670   3.241   1.965   1.204 -0.2078  0.5696 -0.0272
  660SOL    HW3 2671   3.097   2.007   1.182 -0.0193  0.9063 -0.6345
  660SOL    MW4 2672   3.169   1.966   1.154 -0.1269  0.3757 -0.1522
  661SOL     OW 2673   3.402   2.042   1.259 -0.3033 -0.0355 -0.1100
  661SOL    HW2 2674   3.473   2.002   1.208 -0.0109  0.0824  0.2048
  661SOL    HW3 2675   3.376   2.118   1.208 -1.5164 -1.1584 -1.2026
  661SOL    MW4 2676   3.408   2.047   1.246 -0.4248 -0.1681 -0.2126
  662SOL     OW 2677   3.328   2.303   1.146  0.1875 -0.1654 -0.2747
  662SOL    HW2 2678   3.406   2.342   1.187  0.7814 -0.1934 -1.3809
  662SOL    HW3 2679   3.255   2.339   1.196  0.7892  1.6260 -0.6596
  662SOL    MW4 2680   3.328   2.313   1.158  0.3452  0.0672 -0.4715
  663SOL     OW 2681   3.105   2.397   1.278 -0.0554 -0.1041 -0.2826
  663SOL    HW2 2682   3.128   2.395   1.371 -0.7169  0.3521 -0.1042
  663SOL    HW3 2683   3.112   2.489   1.254 -1.1523 -0.0353 -0.3566
  663SOL    MW4 2684   3.109   2.409   1.287 -0.2874 -0.0348 -0.2689
  664SOL     OW 2685   3.119   2.651   1.154  0.2919 -0.2998  0.0884
  664SOL    HW2 2686   3.062   2.720   1.188  0.3831 -0.5219  0.6896
  664SOL    HW3 2687   3.121   2.667   1.060 -0.7627 -0.2840  0.0585
  664SOL    MW4 2688   3.112   2.662   1.146  0.1648 -0.3270  0.1637
  665SOL     OW 2689   3.316   2.817   1.253 -0.4006 -0.2036  0.0300
  665SOL    HW2 2690   3.295   2.910   1.240 -0.2043 -0.0629  0.6865
  665SOL    HW3 2691   3.241   2.770   1.216 -1.7182  0.2835  1.9626
  665SOL    MW4 2692   3.303   2.823   1.246 -0.5485 -0.1208  0.3716
  666SOL     OW 2693   3.296   3.076   1.174  0.0056 -0.5015 -0.2550
  666SOL    HW2 2694   3.379   3.120   1.191 -0.1657 -0.5906  0.8500
  666SOL    HW3 2695   3.231   3.147   1.176 -0.0673 -0.5724 -0.0894
  666SOL    MW4 2696   3.299   3.091   1.177 -0.0267 -0.5226 -0.0874
  667SOL     OW 2697   3.123   3.285   1.204 -0.1609  0.3181  0.1131
  667SOL    HW2 2698   3.137   3.269   1.298  0.9843 -1.6094 -0.3627
  667SOL    HW3 2699   3.046   3.233   1.182  0.7676 -0.8571 -0.4270
  667SOL    MW4 2700   3.115   3.276   1.214  0.1127 -0.0912 -0.0209
  668SOL     OW 2701   3.150   3.539   1.115  0.4832  0.1796  0.6762
  668SOL    HW2 2702   3.234   3.577   1.140  1.2588 -1.3317  0.4015
  668SOL    HW3 2703   3.154   3.448   1.145 -0.8980 -0.0154  0.3153
  668SOL    MW4 2704   3.161   3.532   1.122  0.4033 -0.0455  0.5923
  669SOL     OW 2705   3.400   3.649   1.176 -0.2960 -0.3411 -0.1791
  669SOL    HW2 2706   3.408   3.645   1.271 -1.0446  0.3536 -0.0817
  669SOL    HW3 2707   3.470   3.592   1.144 -0.0894 -0.6459  0.7843
  669SOL    MW4 2708   3.410   3.641   1.184 -0.3675 -0.2897 -0.0391
  670SOL     OW 2709   3.363   3.886   1.052 -0.1137  0.0314  0.1042
  670SOL    HW2 2710   3.374   3.804   1.100 -1.9364 -1.0449 -1.2421
  670SOL    HW3 2711   3.287   3.928   1.094  0.4346  0.7541  0.3894
  670SOL    MW4 2712   3.354   3.881   1.064 -0.2818 -0.0152 -0.0358
  671SOL     OW 2713   3.146   4.007   1.169  0.1626  0.0302 -0.0550
  671SOL    HW2 2714   3.156   3.992   1.263 -0.7644 -2.1997 -0.2922
  671SOL    HW3 2715   3.131   4.101   1.161 -0.5834  0.1081  2.1122
  671SOL    MW4 2716   3.145   4.017   1.180 -0.0582 -0.2537  0.1997
  672SOL     OW 2717   3.110   4.287   1.113  0.3973  0.1960  0.2195
  672SOL    HW2 2718   3.193   4.323   1.144  0.9465 -0.4079 -0.5279
  672SOL    HW3 2719   3.123   4.278   1.018 -0.2103 -0.7412  0.2298
  672SOL    MW4 2720   3.123   4.291   1.104  0.3896 -0.0073  0.1223
  673SOL     OW 2721   3.351   4.382   1.198  0.4575  0.3349  0.3880
  673SOL    HW2 2722   3.426   4.339   1.158  0.7160  0.2216  0.9780
  673SOL    HW3 2723   3.347   4.468   1.156  0.7411  0.2306  0.1471
  673SOL    MW4 2724   3.360   4.388   1.187  0.5290  0.3062  0.4341
  674SOL     OW 2725   3.791   4.623   1.092  0.1206 -0.1183 -0.3573
  674SOL    HW2 2726   3.801   4.531   1.119 -0.3754 -0.1426 -0.2541
  674SOL    HW3 2727   3.789   4.619   0.996  0.9204 -0.1285 -0.3787
  674SOL    MW4 2728   3.792   4.610   1.083  0.1607 -0.1229 -0.3465
  675SOL     OW 2729   3.588   0.135   1.189  0.1062 -0.6997  0.4229
  675SOL    HW2 2730   3.603   0.228   1.173 -0.2093 -0.2950  2.3185
  675SOL    HW3 2731   3.664   0.091   1.151  0.3878  0.3594 -0.2418
  675SOL    MW4 2732   3.600   0.141   1.182  0.1017 -0.5066  0.5853
  676SOL     OW 2733   3.569   0.412   1.139 -0.1834  0.1667  0.3771
  676SOL    HW2 2734   3.644   0.460   1.174  0.1217 -0.4082  0.5154
  676SOL    HW3 2735   3.493   0.459   1.173  0.1108  0.7958  0.1771
  676SOL    MW4 2736   3.569   0.424   1.148 -0.1043  0.1739  0.3689
  677SOL     OW 2737   3.810   0.528   1.233 -0.2648 -0.1757  0.0127
  677SOL    HW2 2738   3.871   0.476   1.181 -0.1480  0.1109 -0.1380
  677SOL    HW3 2739   3.813   0.615   1.193 -1.9927 -0.5727 -1.0124
  677SOL    MW4 2740   3.819   0.533   1.221 -0.4773 -0.1903 -0.1424
  678SOL     OW 2741   3.808   0.789   1.131  0.2882  0.0393  0.3134
  678SOL    HW2 2742   3.892   0.827   1.157  0.4968 -0.2140  0.0109
  678SOL    HW3 2743   3.744   0.857   1.151  0.7176  0.7489 -0.6931
  678SOL    MW4 2744   3.811   0.803   1.137  0.3723  0.0995  0.1407
  679SOL     OW 2745   3.592   0.935   1.226 -0.1919  0.1059  0.4294
  679SOL    HW2 2746   3.572   1.007   1.165 -1.0914 -0.3127  0.2296
  679SOL    HW3 2747   3.532   0.865   1.200 -0.4422 -0.1421  1.6841
  679SOL    MW4 2748   3.582   0.935   1.214 -0.3436  0.0179  0.5686
  680SOL     OW 2749   3.593   1.152   1.026  0.3073  0.3598 -0.0033
  680SOL    HW2 2750   3.672   1.159   1.079 -0.2642 -0.8349  1.0470
  680SOL    HW3 2751   3.523   1.183   1.084 -0.0858  0.6705 -0.6479
  680SOL    MW4 2752   3.594   1.157   1.041  0.1800  0.2432  0.0502
  681SOL     OW 2753   3.795   1.217   1.208 -0.0274  0.7435 -0.9218
  681SOL    HW2 2754   3.779   1.236   1.301 -1.5396  0.4686 -1.1039
  681SOL    HW3 2755   3.818   1.302   1.170  0.0216  0.9673 -0.3975
  681SOL    MW4 2756   3.796   1.231   1.216 -0.2205  0.7368 -0.8767
  682SOL     OW 2757   3.833   1.494   1.131  0.3392  0.4355 -0.1521
  682SOL    HW2 2758   3.885   1.565   1.168 -1.1754  0.8574  1.2197
  682SOL    HW3 2759   3.824   1.516   1.038  1.5316  1.0086 -0.1322
  682SOL    MW4 2760   3.839   1.506   1.123  0.2967  0.5668  0.0315
  683SOL     OW 2761   3.604   1.634   1.227  0.0251  0.5735  0.1029
  683SOL    HW2 2762   3.617   1.721   1.189 -1.8552  0.3570 -1.1002
  683SOL    HW3 2763   3.679   1.583   1.195  0.2122  1.2853 -0.6119
  683SOL    MW4 2764   3.616   1.639   1.217 -0.1983  0.6389 -0.1501
  684SOL     OW 2765   3.608   1.895   1.137 -0.1666  0.0730 -0.1805
  684SOL    HW2 2766   3.678   1.950   1.171 -0.8409  1.1112 -0.4670
  684SOL    HW3 2767   3.612   1.907   1.042 -0.2988 -0.3967 -0.2475
  684SOL    MW4 2768   3.617   1.903   1.129 -0.2730  0.1480 -0.2271
  685SOL     OW 2769   4.031   1.942   1.158  0.0461  0.1399  0.1365
  685SOL    HW2 2770   3.945   1.986   1.157  0.0441  0.1278 -0.8275
  685SOL    HW3 2771   4.012   1.854   1.191 -0.1458  0.4663  0.9131
  685SOL    MW4 2772   4.017   1.936   1.163  0.0205  0.1814  0.1118
  686SOL     OW 2773   3.799   2.074   1.240  0.4241  0.1497  0.2380
  686SOL    HW2 2774   3.798   2.170   1.237 -1.3322  0.1365  0.1642
  686SOL    HW3 2775   3.808   2.054   1.333 -0.1583  0.3820  0.3452
  686SOL    MW4 2776   3.800   2.084   1.252  0.1155  0.1786  0.2424
  687SOL     OW 2777   3.545   2.432   1.260  0.0717  0.1015  0.1446
  687SOL    HW2 2778   3.541   2.437   1.355 -0.8399 -1.2808  0.1951
  687SOL    HW3 2779   3.633   2.399   1.242 -0.6733 -2.2534  0.6561
  687SOL    MW4 2780   3.556   2.428   1.270 -0.1469 -0.3916  0.2187
  688SOL     OW 2781   3.536   2.717   1.161  0.8061  0.3320  0.6179
  688SOL    HW2 2782   3.535   2.624   1.186  0.3504  0.2297  0.2338
  688SOL    HW3 2783   3.455   2.752   1.198  0.9391  0.5565  0.6919
  688SOL    MW4 2784   3.525   2.709   1.169  0.7635  0.3481  0.5770
  689SOL     OW 2785   3.785   2.848   1.227  0.1826 -0.1533  0.0169
  689SOL    HW2 2786   3.800   2.847   1.321  0.2327 -0.1096  0.0091
  689SOL    HW3 2787   3.694   2.821   1.217  0.4289 -1.0171  0.0321
  689SOL    MW4 2788   3.775   2.844   1.238  0.2217 -0.2615  0.0178
  690SOL     OW 2789   3.782   3.106   1.150 -0.2978 -0.0200  0.3146
  690SOL    HW2 2790   3.782   3.014   1.173 -1.0855 -0.1940 -0.3279
  690SOL    HW3 2791   3.806   3.107   1.057 -0.1136  0.4334  0.3656
  690SOL    MW4 2792   3.785   3.094   1.140 -0.3774  0.0169  0.2366
  691SOL     OW 2793   3.532   3.202   1.226  0.0761 -0.1447 -0.9123
  691SOL    HW2 2794   3.542   3.284   1.177  1.9747  1.5617  2.1560
  691SOL    HW3 2795   3.613   3.154   1.208 -0.1051 -0.4138 -1.0152
  691SOL    MW4 2796   3.544   3.207   1.217  0.3027  0.0449 -0.5210
  692SOL     OW 2797   3.590   3.449   1.115  0.7537 -0.6705 -0.3286
  692SOL    HW2 2798   3.655   3.500   1.164 -1.1845  1.7059 -0.1350
  692SOL    HW3 2799   3.589   3.489   1.028 -0.0084 -1.0676 -0.5044
  692SOL    MW4 2800   3.598   3.461   1.110  0.3974 -0.4093 -0.3263
  693SOL     OW 2801   3.811   3.580   1.221 -0.3928 -0.0465 -0.4213
  693SOL    HW2 2802   3.823   3.591   1.315  0.2616  0.5086 -0.5591
  693SOL    HW3 2803   3.811   3.670   1.187  0.3254 -0.2782 -1.0514
  693SOL    MW4 2804   3.813   3.594   1.229 -0.2117 -0.0038 -0.5226
  694SOL     OW 2805   3.807   3.844   1.112  0.3669 -0.4613  0.0540
  694SOL    HW2 2806   3.727   3.881   1.149  0.3780 -0.8309  0.4587
  694SOL    HW3 2807   3.801   3.861   1.018  0.3726  0.5530  0.2316
  694SOL    MW4 2808   3.796   3.851   1.105  0.3691 -0.3762  0.1309
  695SOL     OW 2809   3.579   3.994   1.173  0.0771 -0.9416 -0.3440
  695SOL    HW2 2810   3.545   3.983   1.261 -0.8909  0.5994 -0.4935
  695SOL    HW3 2811   3.510   3.960   1.116  0.3504 -1.1804 -0.5345
  695SOL    MW4 2812   3.565   3.988   1.177 -0.0146 -0.7698 -0.3889
  696SOL     OW 2813   3.573   4.251   1.117  0.2731  0.2341  0.1476
  696SOL    HW2 2814   3.575   4.160   1.146  1.8890  0.2035 -0.0012
  696SOL    HW3 2815   3.555   4.247   1.023  0.3383  0.0604  0.1436
  696SOL    MW4 2816   3.571   4.239   1.108  0.4949  0.2072  0.1275
  697SOL     OW 2817   3.807   4.366   1.179  0.5443 -0.3090  0.2690
  697SOL    HW2 2818   3.810   4.367   1.275 -0.1960 -2.5624  0.3504
  697SOL    HW3 2819   3.721   4.330   1.158 -0.0638  1.9460 -1.2939
  697SOL    MW4 2820   3.796   4.361   1.189  0.3664 -0.3088  0.0736
  698SOL     OW 2821   4.264   4.635   1.107  0.1455  0.5145  0.1385
  698SOL    HW2 2822   4.261   4.545   1.140 -1.5899  0.7998  0.8298
  698SOL    HW3 2823   4.175   4.669   1.122  0.8634  2.4406  0.1865
  698SOL    MW4 2824   4.252   4.628   1.113  0.0113  0.8063  0.2360
  699SOL     OW 2825   4.021   0.114   1.182  0.5032  0.0848 -0.0006
  699SOL    HW2 2826   4.036   0.100   1.275  0.2541 -0.4857 -0.0458
  699SOL    HW3 2827   3.946   0.058   1.161 -0.0704  0.9582 -0.3250
  699SOL    MW4 2828   4.013   0.105   1.191  0.3947  0.1248 -0.0493
  700SOL     OW 2829   4.030   0.400   1.106  0.3814  0.1568 -0.1142
  700SOL    HW2 2830   4.040   0.306   1.119  1.7560  0.3544  0.3788
  700SOL    HW3 2831   4.039   0.412   1.011  1.6430 -0.0681 -0.0367
  700SOL    MW4 2832   4.033   0.389   1.095  0.7292  0.1532 -0.0389
  701SOL     OW 2833   4.268   0.498   1.194  0.4141  0.8075  0.4551
  701SOL    HW2 2834   4.261   0.496   1.290 -1.8141  1.2172  0.3290
  701SOL    HW3 2835   4.178   0.483   1.163  1.3839 -0.9504 -1.6027
  701SOL    MW4 2836   4.255   0.496   1.203  0.2480  0.6296  0.1670
  702SOL     OW 2837   4.290   0.771   1.110  0.3055  0.5143  0.1288
  702SOL    HW2 2838   4.278   0.677   1.127  0.1275  0.3276 -0.9407
  702SOL    HW3 2839   4.380   0.789   1.136  0.7758 -0.2672 -0.8947
  702SOL    MW4 2840   4.301   0.761   1.115  0.3441  0.3865 -0.1473
  703SOL     OW 2841   4.049   0.898   1.217 -0.4128  0.1251 -0.3173
  703SOL    HW2 2842   4.035   0.894   1.311 -1.4560 -1.2031 -0.5096
  703SOL    HW3 2843   4.124   0.841   1.200  0.4035  1.1429 -0.1902
  703SOL    MW4 2844   4.057   0.890   1.227 -0.4427  0.0842 -0.3259
  704SOL     OW 2845   4.055   1.134   1.097  0.0007 -0.0747 -0.1434
  704SOL    HW2 2846   4.066   1.043   1.123  0.6217 -0.0308 -0.2332
  704SOL    HW3 2847   3.987   1.169   1.155  1.0479 -0.0950  1.1137
  704SOL    MW4 2848   4.048   1.127   1.108  0.2208 -0.0716  0.0106
  705SOL     OW 2849   4.264   1.251   1.236  0.1044 -0.2664  0.3416
  705SOL    HW2 2850   4.234   1.256   1.327 -1.3329  0.9341 -0.1925
  705SOL    HW3 2851   4.197   1.200   1.191  0.5576 -0.4195 -0.1632
  705SOL    MW4 2852   4.251   1.245   1.242 -0.0255 -0.1282  0.2045
  706SOL     OW 2853   4.233   1.515   1.185 -0.3821 -0.2090 -0.1123
  706SOL    HW2 2854   4.250   1.422   1.203 -1.8552 -0.3264  0.8021
  706SOL    HW3 2855   4.314   1.559   1.207 -0.1762 -1.1017  0.9818
  706SOL    MW4 2856   4.246   1.508   1.190 -0.5493 -0.3423  0.1527
  707SOL     OW 2857   4.014   1.677   1.244 -0.4386 -0.2715  0.5878
  707SOL    HW2 2858   4.019   1.693   1.338 -1.0534  1.0305  0.4107
  707SOL    HW3 2859   4.088   1.621   1.225  0.1745  0.1432  1.7141
  707SOL    MW4 2860   4.024   1.672   1.254 -0.4388 -0.0450  0.7131
  708SOL     OW 2861   3.336   1.958   0.373 -0.4466  0.4472  0.6072
  708SOL    HW2 2862   3.395   2.020   0.416  0.3795  0.4183 -0.4609
  708SOL    HW3 2863   3.391   1.882   0.354 -1.0319  0.0870  0.3370
  708SOL    MW4 2864   3.351   1.956   0.377 -0.4148  0.3959  0.4306
  709SOL     OW 2865   4.258   2.065   1.242 -0.3035 -0.1807  0.0019
  709SOL    HW2 2866   4.250   2.152   1.204  0.3913  0.5554  1.5079
  709SOL    HW3 2867   4.174   2.023   1.225 -0.9676  1.1041  0.0983
  709SOL    MW4 2868   4.246   2.071   1.235 -0.2995  0.0859  0.2134
  710SOL     OW 2869   4.265   2.335   1.142 -0.2866 -0.4687  0.4453
  710SOL    HW2 2870   4.178   2.369   1.162  0.7766  1.6618  1.6043
  710SOL    HW3 2871   4.271   2.339   1.047 -1.4755 -0.6921  0.3544
  710SOL    MW4 2872   4.254   2.340   1.132 -0.3032 -0.2171  0.5862
  711SOL     OW 2873   4.028   2.472   1.236 -0.5715 -0.4898 -0.0077
  711SOL    HW2 2874   4.036   2.492   1.329 -0.1451 -1.0836  0.0890
  711SOL    HW3 2875   4.028   2.557   1.193  0.8709 -0.2527  0.4230
  711SOL    MW4 2876   4.029   2.486   1.243 -0.3250 -0.5369  0.0619
  712SOL     OW 2877   4.021   2.744   1.108  0.6527 -0.1698 -0.1410
  712SOL    HW2 2878   3.943   2.788   1.143 -0.2816 -0.8039 -1.3879
  712SOL    HW3 2879   4.013   2.752   1.013  0.8194 -2.4218 -0.3729
  712SOL    MW4 2880   4.010   2.751   1.100  0.5514 -0.5506 -0.3361
  713SOL     OW 2881   4.237   2.870   1.280 -0.0301 -0.0447  0.2436
  713SOL    HW2 2882   4.234   2.961   1.249  1.5256  0.0390  0.3132
  713SOL    HW3 2883   4.169   2.826   1.230 -0.3941  1.0246 -0.2314
  713SOL    MW4 2884   4.228   2.876   1.270  0.1271  0.1074  0.1901
  714SOL     OW 2885   4.269   3.105   1.153 -0.3480  0.0295 -0.2603
  714SOL    HW2 2886   4.181   3.142   1.156 -0.5061 -0.3325 -0.4256
  714SOL    HW3 2887   4.282   3.082   1.061  0.3025  1.0063 -0.4240
  714SOL    MW4 2888   4.259   3.107   1.141 -0.2830  0.1106 -0.3037
  715SOL     OW 2889   4.025   3.188   1.233 -0.1612  0.2117 -0.5915
  715SOL    HW2 2890   4.022   3.188   1.329  0.5921  0.1535 -0.5646
  715SOL    HW3 2891   3.947   3.139   1.207 -0.0921 -0.2275  0.0075
  715SOL    MW4 2892   4.014   3.181   1.242 -0.0527  0.1461 -0.5089
  716SOL     OW 2893   4.026   3.459   1.143  0.1146  0.2894  0.1188
  716SOL    HW2 2894   4.024   3.367   1.170 -0.1717 -0.4437 -2.2893
  716SOL    HW3 2895   3.946   3.497   1.180 -0.3575 -0.7119  0.1322
  716SOL    MW4 2896   4.015   3.452   1.152  0.0146  0.0606 -0.1972
  717SOL     OW 2897   4.269   3.571   1.271  0.2947  0.0637  0.1209
  717SOL    HW2 2898   4.195   3.536   1.223  0.3124 -0.4916  0.4992
  717SOL    HW3 2899   4.345   3.526   1.235  0.3066 -0.3613  0.6757
  717SOL    MW4 2900   4.270   3.561   1.260  0.2986 -0.0656  0.2440
  718SOL     OW 2901   4.260   3.846   1.187  0.3669 -0.2103 -0.4364
  718SOL    HW2 2902   4.173   3.885   1.194  0.9280  1.0242 -0.3070
  718SOL    HW3 2903   4.249   3.757   1.222 -0.3622  0.6562  1.6271
  718SOL    MW4 2904   4.247   3.839   1.192  0.3448  0.0669 -0.1471
  719SOL     OW 2905   4.031   4.002   1.218  0.4951 -0.2702 -0.2919
  719SOL    HW2 2906   4.030   4.081   1.164  0.6939 -1.8159 -2.6096
  719SOL    HW3 2907   3.961   3.947   1.184  0.3993 -1.1453  1.2402
  719SOL    MW4 2908   4.022   4.005   1.207  0.5087 -0.5896 -0.3956
  720SOL     OW 2909   4.036   4.257   1.108 -0.6291  0.3066  0.2474
  720SOL    HW2 2910   3.949   4.286   1.134 -1.2189 -1.2544  0.0828
  720SOL    HW3 2911   4.032   4.248   1.013 -0.0423  0.9729  0.1493
  720SOL    MW4 2912   4.024   4.259   1.099 -0.6295  0.1886  0.2127
  721SOL     OW 2913   4.239   4.390   1.235  0.1410 -0.9859  0.5616
  721SOL    HW2 2914   4.165   4.347   1.192  0.3836 -0.6479 -0.2154
  721SOL    HW3 2915   4.315   4.339   1.206  0.6030  0.8579 -1.6147
  721SOL    MW4 2916   4.239   4.377   1.225  0.2339 -0.6980  0.1719
  722SOL     OW 2917   0.251   4.642   1.618 -0.1639 -0.3437 -0.0329
  722SOL    HW2 2918   0.329   4.683   1.581  0.5875 -1.1048  0.6849
  722SOL    HW3 2919   0.177   4.686   1.575  0.6504  0.7522 -0.3148
  722SOL    MW4 2920   0.251   4.653   1.607  0.0427 -0.2995  0.0246
  723SOL     OW 2921   0.051   0.086   1.500 -0.2415  0.2809  0.2957
  723SOL    HW2 2922  -0.037   0.050   1.514  0.6836 -2.2807 -0.2762
  723SOL    HW3 2923   0.052   0.111   1.408 -0.6950  1.3173  0.5579
  723SOL    MW4 2924   0.040   0.085   1.490 -0.1793  0.0797  0.2548
  724SOL     OW 2925   4.468   0.364   1.625  0.2045 -0.1616 -0.4064
  724SOL    HW2 2926   4.497   0.378   1.715  0.6533  1.4395 -0.7764
  724SOL    HW3 2927   4.482   0.271   1.609 -1.1364 -0.7500  1.6133
  724SOL    MW4 2928   4.474   0.354   1.635  0.0868 -0.0280 -0.1888
  725SOL     OW 2929   0.221   0.487   1.510  0.5056  0.3616 -0.3312
  725SOL    HW2 2930   0.142   0.439   1.533  0.1224  1.2706  0.2540
  725SOL    HW3 2931   0.231   0.473   1.416 -0.0912 -0.1414 -0.3218
  725SOL    MW4 2932   0.212   0.479   1.500  0.3763  0.4152 -0.2528
  726SOL     OW 2933   0.191   0.747   1.588 -0.2517  0.3701 -0.0893
  726SOL    HW2 2934   0.201   0.654   1.566 -0.2692  0.4877 -0.6073
  726SOL    HW3 2935   0.267   0.789   1.547  0.3824  0.4248  1.1279
  726SOL    MW4 2936   0.202   0.740   1.580 -0.1703  0.3928  0.0029
  727SOL     OW 2937   4.458   0.878   1.507 -0.4716 -0.0279 -0.0215
  727SOL    HW2 2938   4.463   0.966   1.543 -0.5378 -0.2580  0.5472
  727SOL    HW3 2939   4.537   0.834   1.540 -0.7662 -0.3765  0.2184
  727SOL    MW4 2940   4.469   0.884   1.516 -0.5192 -0.1042  0.0852
  728SOL     OW 2941   4.449   1.165   1.583 -0.3044 -0.0678  0.3274
  728SOL    HW2 2942   4.465   1.172   1.677 -1.0888 -0.8792  0.5242
  728SOL    HW3 2943   4.532   1.192   1.543 -0.3129  1.3195  1.2190
  728SOL    MW4 2944   4.462   1.169   1.590 -0.4090  0.0082  0.4710
  729SOL     OW 2945   0.191   1.273   1.450  0.5997 -0.2493  0.2515
  729SOL    HW2 2946   0.266   1.229   1.490 -0.7850 -1.4615  1.5920
  729SOL    HW3 2947   0.183   1.356   1.499 -0.3158 -1.1597  1.7016
  729SOL    MW4 2948   0.200   1.278   1.462  0.2962 -0.5293  0.6197
  730SOL     OW 2949   0.224   1.516   1.606  0.5855  0.1837 -0.3842
  730SOL    HW2 2950   0.221   1.542   1.698 -0.5425  0.6812 -0.5472
  730SOL    HW3 2951   0.155   1.568   1.565  0.2093 -1.0027 -1.2660
  730SOL    MW4 2952   0.214   1.526   1.613  0.3871  0.0928 -0.5221
  731SOL     OW 2953   0.032   1.688   1.501  0.2829 -0.0423  0.1634
  731SOL    HW2 2954   0.035   1.781   1.522 -1.0760 -0.0678  0.5273
  731SOL    HW3 2955   0.024   1.685   1.406  0.7254  0.2035  0.1186
  731SOL    MW4 2956   0.031   1.700   1.492  0.1620 -0.0132  0.2055
  732SOL     OW 2957   0.011   1.933   1.607 -0.1732  0.0132 -0.1064
  732SOL    HW2 2958  -0.007   1.929   1.701 -0.0318 -0.6604 -0.1039
  732SOL    HW3 2959  -0.069   1.969   1.569 -0.3375  0.0225  0.2450
  732SOL    MW4 2960  -0.002   1.937   1.615 -0.1762 -0.0744 -0.0597
  733SOL     OW 2961   0.247   2.046   1.550  0.5216 -0.5155 -0.1183
  733SOL    HW2 2962   0.171   2.000   1.584  0.2536  0.7120  0.9967
  733SOL    HW3 2963   0.237   2.043   1.455 -1.4142  0.4534  0.0349
  733SOL    MW4 2964   0.236   2.039   1.542  0.2308 -0.2258  0.0490
  734SOL     OW 2965   0.193   2.319   1.606  0.7724  0.1113 -0.2562
  734SOL    HW2 2966   0.188   2.316   1.701  0.3880 -0.7982 -0.3005
  734SOL    HW3 2967   0.209   2.228   1.579  0.5127  0.2970 -1.0742
  734SOL    MW4 2968   0.194   2.307   1.615  0.6874  0.0158 -0.3700
  735SOL     OW 2969   4.456   2.447   1.492 -0.4503  0.3284  0.3145
  735SOL    HW2 2970   4.383   2.395   1.526 -0.6206 -0.3037 -1.0113
  735SOL    HW3 2971   4.534   2.397   1.516 -0.3643  1.4091  2.4626
  735SOL    MW4 2972   4.457   2.434   1.500 -0.4614  0.3876  0.4230
  736SOL     OW 2973   0.015   2.676   1.644  0.0793 -0.5387  0.0698
  736SOL    HW2 2974  -0.065   2.724   1.623 -0.4786 -1.6800 -0.4663
  736SOL    HW3 2975   0.013   2.600   1.587  0.5740 -1.5803  1.4131
  736SOL    MW4 2976   0.004   2.672   1.634  0.0710 -0.8267  0.1763
  737SOL     OW 2977   0.208   2.829   1.522  0.0458 -0.3043  0.7198
  737SOL    HW2 2978   0.288   2.779   1.541 -0.4612 -1.3399  0.1858
  737SOL    HW3 2979   0.138   2.777   1.562 -0.9202 -1.9607 -2.8746
  737SOL    MW4 2980   0.210   2.815   1.529 -0.1485 -0.6595  0.1751
  738SOL     OW 2981   0.251   3.078   1.638 -0.2578 -0.1546  0.1907
  738SOL    HW2 2982   0.167   3.115   1.612 -0.5509 -0.8199  0.1725
  738SOL    HW3 2983   0.249   2.988   1.604  0.5659 -0.0909 -0.0390
  738SOL    MW4 2984   0.240   3.071   1.630 -0.1878 -0.2340  0.1580
  739SOL     OW 2985   0.018   3.209   1.537  0.2601  0.4028 -0.2156
  739SOL    HW2 2986   0.035   3.298   1.568  1.8134 -0.0523  0.2489
  739SOL    HW3 2987   0.017   3.217   1.441  0.6550  0.8668 -0.1812
  739SOL    MW4 2988   0.020   3.222   1.528  0.5171  0.4039 -0.1498
  740SOL     OW 2989   0.048   3.477   1.624 -0.6170  0.1592 -0.0007
  740SOL    HW2 2990   0.044   3.493   1.718 -0.3955  1.1768 -0.1648
  740SOL    HW3 2991  -0.026   3.525   1.588 -0.5432 -0.0079 -0.3832
  740SOL    MW4 2992   0.038   3.485   1.632 -0.5780  0.2714 -0.0728
  741SOL     OW 2993   0.271   3.631   1.538  0.4266  0.0983  0.2371
  741SOL    HW2 2994   0.237   3.718   1.559  0.5250  0.0507  0.5890
  741SOL    HW3 2995   0.206   3.571   1.574  0.5035  0.0218  0.2476
  741SOL    MW4 2996   0.258   3.635   1.546  0.4498  0.0819  0.2849
  742SOL     OW 2997   0.205   3.884   1.585  0.3625 -0.3915 -0.3480
  742SOL    HW2 2998   0.199   3.877   1.681 -0.9655 -0.7777 -0.4613
  742SOL    HW3 2999   0.291   3.925   1.570  0.9583 -1.1231  0.9695
  742SOL    MW4 3000   0.216   3.889   1.596  0.2659 -0.5390 -0.1891
  743SOL     OW 3001   4.459   3.995   1.495  0.0518  0.0398 -0.1382
  743SOL    HW2 3002   4.460   4.076   1.545  0.8235 -0.7944  1.2259
  743SOL    HW3 3003   4.543   3.954   1.514 -0.0393 -0.7439 -1.3810
  743SOL    MW4 3004   4.470   4.000   1.504  0.1416 -0.1736 -0.1222
  744SOL     OW 3005   0.000   4.249   1.608  0.3807  0.7082 -0.2922
  744SOL    HW2 3006  -0.022   4.253   1.702  0.7681  0.2147 -0.1802
  744SOL    HW3 3007  -0.068   4.302   1.566 -0.9905 -0.7333  0.0572
  744SOL    MW4 3008  -0.012   4.257   1.615  0.2509  0.4529 -0.2314
  745SOL     OW 3009   0.235   4.379   1.524 -0.2657  0.2534  0.5551
  745SOL    HW2 3010   0.155   4.330   1.540 -0.6581  0.5695 -0.4195
  745SOL    HW3 3011   0.220   4.464   1.565  0.2982 -0.3044  1.9786
  745SOL    MW4 3012   0.223   4.384   1.532 -0.2431  0.2215  0.6143
  746SOL     OW 3013   0.670   4.645   1.618 -0.3963 -0.4621  0.6102
  746SOL    HW2 3014   0.739   4.703   1.585  0.5337 -1.9542 -0.1688
  746SOL    HW3 3015   0.588   4.690   1.598  0.2213 -0.4667 -2.1020
  746SOL    MW4 3016   0.669   4.658   1.611 -0.1921 -0.6596  0.1496
  747SOL     OW 3017   0.467   0.130   1.520 -0.3360 -0.0741  0.6196
  747SOL    HW2 3018   0.455   0.222   1.544 -0.6372 -0.6430  2.7372
  747SOL    HW3 3019   0.464   0.130   1.424 -0.2244  2.1277  0.5843
  747SOL    MW4 3020   0.465   0.142   1.511 -0.3610  0.1413  0.8943
  748SOL     OW 3021   0.466   0.400   1.592  0.1066 -0.0875 -0.3995
  748SOL    HW2 3022   0.535   0.455   1.555 -0.4647  1.6741  1.1241
  748SOL    HW3 3023   0.386   0.429   1.549 -0.0589 -0.4711 -0.3560
  748SOL    MW4 3024   0.465   0.411   1.581  0.0094  0.0943 -0.1927
  749SOL     OW 3025   0.677   0.531   1.483  0.2510  0.2014 -0.1186
  749SOL    HW2 3026   0.667   0.624   1.504 -1.8689  0.3126 -1.5247
  749SOL    HW3 3027   0.685   0.528   1.388 -1.0409 -1.1523 -0.2077
  749SOL    MW4 3028   0.677   0.543   1.473 -0.1992  0.0375 -0.3159
  750SOL     OW 3029   0.613   0.773   1.600  0.1630 -0.0096  0.0628
  750SOL    HW2 3030   0.629   0.765   1.694 -0.3774 -0.4119  0.1249
  750SOL    HW3 3031   0.688   0.822   1.567 -0.4430  1.5655  0.9620
  750SOL    MW4 3032   0.625   0.779   1.608  0.0118  0.1451  0.1896
  751SOL     OW 3033   0.398   0.878   1.458  0.4756  0.0121  0.9877
  751SOL    HW2 3034   0.407   0.969   1.483 -1.4982  0.1091  1.4254
  751SOL    HW3 3035   0.461   0.831   1.513  1.0876  1.0234  1.1592
  751SOL    MW4 3036   0.408   0.884   1.469  0.2959  0.1584  1.0681
  752SOL     OW 3037   0.427   1.152   1.567  0.0278 -0.7252  0.3604
  752SOL    HW2 3038   0.506   1.205   1.552  0.0386 -0.6650  0.6198
  752SOL    HW3 3039   0.410   1.161   1.661 -2.2328  1.9667 -0.2398
  752SOL    MW4 3040   0.435   1.160   1.577 -0.2690 -0.3621  0.3154
  753SOL     OW 3041   0.659   1.263   1.516 -0.1774  0.2595  0.1029
  753SOL    HW2 3042   0.663   1.355   1.541  2.1730 -0.0666  1.0759
  753SOL    HW3 3043   0.670   1.264   1.421 -0.5021  0.9996  0.0666
  753SOL    MW4 3044   0.661   1.275   1.507  0.0899  0.3141  0.2265
  754SOL     OW 3045   0.647   1.535   1.566  0.4287 -0.1881 -0.1726
  754SOL    HW2 3046   0.722   1.586   1.537  0.8673 -1.4205 -1.2281
  754SOL    HW3 3047   0.571   1.584   1.535  0.8279  0.3371 -0.3135
  754SOL    MW4 3048   0.647   1.548   1.558  0.5392 -0.2814 -0.3304
  755SOL     OW 3049   0.418   1.682   1.498 -0.6872 -0.1575 -0.3386
  755SOL    HW2 3050   0.437   1.759   1.551  1.5465 -1.7349  1.2429
  755SOL    HW3 3051   0.344   1.640   1.542  0.0843 -0.5602  0.5882
  755SOL    MW4 3052   0.411   1.687   1.511 -0.2907 -0.4188 -0.0077
  756SOL     OW 3053   0.475   1.915   1.626  0.3697  0.3254 -0.1472
  756SOL    HW2 3054   0.490   1.909   1.720 -0.3478 -0.9707 -0.0901
  756SOL    HW3 3055   0.388   1.954   1.618  1.4740  2.8099 -0.3459
  756SOL    MW4 3056   0.465   1.919   1.637  0.4208  0.4822 -0.1659
  757SOL     OW 3057   0.690   2.040   1.464  0.0696 -0.2595 -0.3452
  757SOL    HW2 3058   0.769   2.008   1.508  0.0212  3.1146  2.3880
  757SOL    HW3 3059   0.618   1.996   1.507  0.2131  0.3882  0.5628
  757SOL    MW4 3060   0.691   2.030   1.475  0.0822  0.2711  0.1352
  758SOL     OW 3061   0.697   2.313   1.545 -0.3401 -0.0844  0.0791
  758SOL    HW2 3062   0.607   2.343   1.539 -0.6033 -0.6676  0.9892
  758SOL    HW3 3063   0.694   2.221   1.517 -0.0029 -0.0664 -0.0264
  758SOL    MW4 3064   0.685   2.305   1.540 -0.3303 -0.1589  0.1852
  759SOL     OW 3065   0.439   2.432   1.536 -0.0925 -0.0932  0.5015
  759SOL    HW2 3066   0.450   2.523   1.564  1.1255 -0.2798  0.6522
  759SOL    HW3 3067   0.351   2.408   1.566 -1.0040  1.4845 -0.8426
  759SOL    MW4 3068   0.429   2.441   1.544 -0.0521  0.0903  0.3440
  760SOL     OW 3069   0.449   2.706   1.613 -0.2852  0.1334 -0.0166
  760SOL    HW2 3070   0.461   2.738   1.703  1.8255  1.1263 -0.6403
  760SOL    HW3 3071   0.520   2.745   1.563 -1.2518 -0.6712 -2.0851
  760SOL    MW4 3072   0.460   2.715   1.619 -0.1342  0.1583 -0.3718
  761SOL     OW 3073   0.689   2.829   1.505 -0.2164 -0.1695 -0.4241
  761SOL    HW2 3074   0.699   2.921   1.530 -0.7847 -0.0248 -0.7419
  761SOL    HW3 3075   0.767   2.787   1.542  0.3248  0.5320 -0.7323
  761SOL    MW4 3076   0.701   2.836   1.514 -0.2200 -0.0578 -0.5067
  762SOL     OW 3077   0.731   3.069   1.617  0.4993 -0.2500 -0.3474
  762SOL    HW2 3078   0.810   3.103   1.576  1.1467 -1.4728 -0.1388
  762SOL    HW3 3079   0.661   3.127   1.586  1.5241  1.0897 -0.2052
  762SOL    MW4 3080   0.732   3.081   1.608  0.7199 -0.2346 -0.3011
  763SOL     OW 3081   0.491   3.200   1.521 -0.3027  0.2860  0.0415
  763SOL    HW2 3082   0.414   3.152   1.551 -0.8154  0.4289 -1.0108
  763SOL    HW3 3083   0.475   3.214   1.427  0.4331  1.3792  0.0710
  763SOL    MW4 3084   0.479   3.196   1.513 -0.2733  0.4491 -0.0935
  764SOL     OW 3085   0.490   3.474   1.626  0.2542 -0.1550 -0.0321
  764SOL    HW2 3086   0.492   3.390   1.579  1.4023  0.9947 -2.1270
  764SOL    HW3 3087   0.418   3.522   1.584 -0.0404  0.1156  0.7872
  764SOL    MW4 3088   0.481   3.469   1.614  0.3668  0.0324 -0.2004
  765SOL     OW 3089   0.684   3.579   1.441 -0.2655 -0.3629  0.6595
  765SOL    HW2 3090   0.766   3.547   1.477 -0.2519 -0.5700  0.4474
  765SOL    HW3 3091   0.616   3.541   1.497 -0.2286 -0.3865  0.6876
  765SOL    MW4 3092   0.686   3.570   1.453 -0.2589 -0.3933  0.6353
  766SOL     OW 3093   0.673   3.869   1.587  0.4881  0.2566 -0.0633
  766SOL    HW2 3094   0.763   3.901   1.575 -0.2587  2.1772 -0.9106
  766SOL    HW3 3095   0.671   3.785   1.541  1.7329  0.4088 -0.4167
  766SOL    MW4 3096   0.685   3.862   1.579  0.5538  0.5301 -0.2217
  767SOL     OW 3097   0.432   4.007   1.505 -0.2125  0.4768 -0.1574
  767SOL    HW2 3098   0.513   3.960   1.527 -0.6520 -0.1558  0.0908
  767SOL    HW3 3099   0.408   3.974   1.419 -0.0557  0.8774 -0.3597
  767SOL    MW4 3100   0.440   3.997   1.496 -0.2498  0.4462 -0.1514
  768SOL     OW 3101   0.467   4.258   1.595 -0.0929 -0.3456 -0.8709
  768SOL    HW2 3102   0.448   4.169   1.564 -0.3346 -1.0602  1.2530
  768SOL    HW3 3103   0.387   4.308   1.576 -0.3395 -0.8417 -1.1391
  768SOL    MW4 3104   0.454   4.253   1.588 -0.1573 -0.5054 -0.6260
  769SOL     OW 3105   0.695   4.395   1.471 -0.0233  0.3982  0.1980
  769SOL    HW2 3106   0.629   4.340   1.514 -1.4252  1.3604 -0.7183
  769SOL    HW3 3107   0.697   4.475   1.523  1.1244 -0.0009  0.7890
  769SOL    MW4 3108   0.687   4.398   1.484 -0.0568  0.4725  0.1551
  770SOL     OW 3109   1.144   0.004   1.563 -0.1954  0.1068  0.0307
  770SOL    HW2 3110   1.149  -0.022   1.655 -0.1799 -0.6432 -0.1838
  770SOL    HW3 3111   1.234   0.022   1.539 -0.1862  0.1958  0.1294
  770SOL    MW4 3112   1.156   0.003   1.572 -0.1921  0.0196  0.0154
  771SOL     OW 3113   0.893   0.104   1.489  0.3613  0.0674  0.4661
  771SOL    HW2 3114   0.900   0.190   1.531  1.0195  0.5694 -0.6321
  771SOL    HW3 3115   0.979   0.064   1.501  0.5908  0.2622 -0.4830
  771SOL    MW4 3116   0.905   0.110   1.496  0.4784  0.1594  0.1960
  772SOL     OW 3117   0.899   0.361   1.601  0.0198  0.1380  0.2986
  772SOL    HW2 3118   0.899   0.359   1.697  0.3736 -0.9376  0.2911
  772SOL    HW3 3119   0.831   0.424   1.578 -0.2761  0.1758  1.2557
  772SOL    MW4 3120   0.890   0.369   1.611  0.0274  0.0011  0.4239
  773SOL     OW 3121   1.109   0.489   1.469 -0.1773 -0.3430 -0.4900
  773SOL    HW2 3122   1.106   0.581   1.497  0.9108 -0.7429  0.9915
  773SOL    HW3 3123   1.037   0.447   1.515 -0.1693 -0.4026 -0.5320
  773SOL    MW4 3124   1.099   0.496   1.479 -0.0327 -0.4036 -0.3001
  774SOL     OW 3125   1.108   0.754   1.584 -0.3313 -0.3616 -0.0982
  774SOL    HW2 3126   1.128   0.738   1.676 -0.6973 -0.0855  0.0273
  774SOL    HW3 3127   1.187   0.797   1.550 -0.3509 -0.1094  0.1761
  774SOL    MW4 3128   1.121   0.758   1.592 -0.3822 -0.2919 -0.0454
  775SOL     OW 3129   0.859   0.828   1.484  0.1399  0.1909 -0.5486
  775SOL    HW2 3130   0.944   0.800   1.517 -0.0238 -2.6966 -2.4123
  775SOL    HW3 3131   0.874   0.849   1.392 -0.9169  0.8977 -0.5710
  775SOL    MW4 3132   0.872   0.827   1.477 -0.0211 -0.0968 -0.7975
  776SOL     OW 3133   0.873   1.095   1.591 -0.5766  0.8087 -0.4250
  776SOL    HW2 3134   0.876   1.009   1.549  0.2257  0.8138 -0.3759
  776SOL    HW3 3135   0.798   1.139   1.550 -1.2403 -0.0621 -0.1626
  776SOL    MW4 3136   0.863   1.089   1.580 -0.5583  0.6945 -0.3839
  777SOL     OW 3137   1.054   1.290   1.511 -0.1028  0.8734 -0.3519
  777SOL    HW2 3138   1.136   1.241   1.508  0.9872  2.4078  2.6919
  777SOL    HW3 3139   0.994   1.232   1.558 -0.5980  0.0511 -1.9508
  777SOL    MW4 3140   1.057   1.276   1.517 -0.0243  0.9673 -0.1612
  778SOL     OW 3141   1.081   1.547   1.581  0.2573 -0.0153 -0.3354
  778SOL    HW2 3142   1.165   1.552   1.536  0.1639  0.6481 -0.4408
  778SOL    HW3 3143   1.053   1.456   1.571  0.0069  0.2464 -2.0309
  778SOL    MW4 3144   1.088   1.536   1.574  0.2120  0.1067 -0.5730
  779SOL     OW 3145   0.864   1.698   1.498 -0.2134 -0.3376  0.1247
  779SOL    HW2 3146   0.937   1.647   1.533  1.6613  0.9241 -1.8349
  779SOL    HW3 3147   0.876   1.698   1.404 -1.0652  2.3158 -0.0514
  779SOL    MW4 3148   0.875   1.691   1.490 -0.0785  0.1790 -0.1570
  780SOL     OW 3149   0.929   1.951   1.570  0.3657 -0.1990 -0.4685
  780SOL    HW2 3150   1.010   1.974   1.525  0.8822 -1.3991 -0.1366
  780SOL    HW3 3151   0.915   1.859   1.550  0.5099 -0.7084  1.6941
  780SOL    MW4 3152   0.938   1.942   1.561  0.4529 -0.4246 -0.1394
  781SOL     OW 3153   1.158   2.056   1.450  0.2639  0.0731  0.0419
  781SOL    HW2 3154   1.236   2.002   1.459  0.0418 -0.3425 -0.4808
  781SOL    HW3 3155   1.173   2.131   1.507  0.6092 -0.5023  0.7095
  781SOL    MW4 3156   1.170   2.059   1.459  0.2801 -0.0577  0.0610
  782SOL     OW 3157   1.159   2.289   1.598  0.1139 -0.3860 -0.2712
  782SOL    HW2 3158   1.228   2.349   1.571  1.3744 -1.9331 -0.5307
  782SOL    HW3 3159   1.078   2.328   1.563  1.1006  0.3490 -1.7644
  782SOL    MW4 3160   1.157   2.302   1.590  0.4104 -0.4932 -0.5024
  783SOL     OW 3161   0.941   2.439   1.504 -0.0281  0.2163  0.2518
  783SOL    HW2 3162   0.930   2.453   1.410 -0.4423 -2.0860 -0.0792
  783SOL    HW3 3163   0.858   2.401   1.532 -0.0215  1.1997  1.6188
  783SOL    MW4 3164   0.928   2.436   1.495 -0.0819  0.0423  0.3885
  784SOL     OW 3165   0.905   2.713   1.616 -0.4034 -0.2408 -0.3391
  784SOL    HW2 3166   0.937   2.704   1.706  0.9191 -0.9612 -0.8601
  784SOL    HW3 3167   0.889   2.623   1.587  0.6231 -0.1226 -1.3155
  784SOL    MW4 3168   0.907   2.700   1.624 -0.0935 -0.3202 -0.5367
  785SOL     OW 3169   1.113   2.838   1.488 -0.5538 -0.1885 -0.4026
  785SOL    HW2 3170   1.101   2.920   1.535  0.5367 -0.7393  0.8746
  785SOL    HW3 3171   1.045   2.780   1.522  0.2427 -0.5908  0.5483
  785SOL    MW4 3172   1.102   2.841   1.499 -0.3048 -0.3143 -0.1086
  786SOL     OW 3173   1.116   3.085   1.584 -0.2720 -0.2796  0.1461
  786SOL    HW2 3174   1.128   3.093   1.679 -0.3013  1.5781  0.0105
  786SOL    HW3 3175   1.204   3.097   1.548 -0.5230  0.7048 -0.1498
  786SOL    MW4 3176   1.129   3.088   1.592 -0.3090  0.0954  0.0892
  787SOL     OW 3177   0.919   3.228   1.463  0.0447  0.5728 -0.1523
  787SOL    HW2 3178   1.004   3.187   1.476 -0.3156 -0.0747  0.1948
  787SOL    HW3 3179   0.899   3.214   1.370  0.2043  0.5130 -0.1766
  787SOL    MW4 3180   0.928   3.221   1.452  0.0182  0.4795 -0.1097
  788SOL     OW 3181   0.907   3.467   1.594  0.0411  0.1473 -0.1439
  788SOL    HW2 3182   0.988   3.510   1.565 -0.9698  1.5502 -0.9322
  788SOL    HW3 3183   0.915   3.377   1.562  1.8197 -0.0821  0.8418
  788SOL    MW4 3184   0.919   3.461   1.586  0.1424  0.3021 -0.1179
  789SOL     OW 3185   1.139   3.579   1.504 -0.1453 -0.1782  0.2389
  789SOL    HW2 3186   1.205   3.517   1.534 -1.1386 -1.3102  0.0807
  789SOL    HW3 3187   1.152   3.584   1.409  0.1113  0.0753  0.2849
  789SOL    MW4 3188   1.149   3.572   1.496 -0.2425 -0.2941  0.2241
  790SOL     OW 3189   1.153   3.856   1.600 -0.1923 -0.1453 -0.3723
  790SOL    HW2 3190   1.224   3.905   1.558 -0.2062 -0.2855 -0.5603
  790SOL    HW3 3191   1.168   3.765   1.574 -0.2125 -0.2288 -0.0868
  790SOL    MW4 3192   1.164   3.851   1.591 -0.1968 -0.1748 -0.3595
  791SOL     OW 3193   0.903   3.996   1.506  0.3910  0.1199 -0.1332
  791SOL    HW2 3194   0.900   4.079   1.554  0.6698  0.1467 -0.1634
  791SOL    HW3 3195   0.983   3.953   1.536  0.5628  0.1331 -0.5658
  791SOL    MW4 3196   0.913   4.001   1.517  0.4505  0.1252 -0.1943
  792SOL     OW 3197   0.924   4.261   1.600 -0.0175  0.0012 -0.3247
  792SOL    HW2 3198   0.895   4.277   1.689 -0.5202 -0.6812 -0.3603
  792SOL    HW3 3199   0.853   4.294   1.545 -0.7405 -1.6497 -0.4096
  792SOL    MW4 3200   0.911   4.267   1.604 -0.1792 -0.3067 -0.3406
  793SOL     OW 3201   1.142   4.412   1.484  0.1992  0.2607  0.3795
  793SOL    HW2 3202   1.072   4.359   1.522  0.2611  0.3508  0.6195
  793SOL    HW3 3203   1.122   4.501   1.511 -0.8964  0.6046 -1.5255
  793SOL    MW4 3204   1.131   4.416   1.493  0.0628  0.3180  0.1598
  794SOL     OW 3205   1.617   4.651   1.602  0.1455 -0.0193  0.2684
  794SOL    HW2 3206   1.604   4.635   1.695  1.2017 -2.4169  0.0263
  794SOL    HW3 3207   1.545   4.708   1.577 -0.0372  0.8163  2.5842
  794SOL    MW4 3208   1.606   4.657   1.611  0.2608 -0.2254  0.5420
  795SOL     OW 3209   1.378   0.111   1.499 -0.8096 -0.6117 -0.0588
  795SOL    HW2 3210   1.374   0.194   1.545 -0.6926 -0.8822  0.4465
  795SOL    HW3 3211   1.367   0.133   1.407 -1.6793 -0.1291  0.1620
  795SOL    MW4 3212   1.376   0.125   1.493 -0.9089 -0.5837  0.0370
  796SOL     OW 3213   1.309   0.360   1.597 -0.2883 -0.1320 -0.5753
  796SOL    HW2 3214   1.390   0.398   1.564 -0.6092  1.7144  0.6583
  796SOL    HW3 3215   1.239   0.403   1.548 -0.6023 -0.3960 -0.3699
  796SOL    MW4 3216   1.310   0.370   1.586 -0.3721  0.0768 -0.3854
  797SOL     OW 3217   1.549   0.458   1.461 -0.3457 -0.3139  0.1182
  797SOL    HW2 3218   1.634   0.415   1.475  1.0685  1.9752 -1.1688
  797SOL    HW3 3219   1.542   0.468   1.366 -2.3746 -1.0574  0.1642
  797SOL    MW4 3220   1.559   0.454   1.450 -0.4268 -0.1100 -0.0456
  798SOL     OW 3221   1.555   0.730   1.535 -0.2551  0.0427 -0.0267
  798SOL    HW2 3222   1.561   0.735   1.630  1.7689  1.3163 -0.1869
  798SOL    HW3 3223   1.554   0.636   1.516 -0.2446 -0.2194  1.2295
  798SOL    MW4 3224   1.556   0.719   1.545  0.0133  0.1762  0.1179
  799SOL     OW 3225   1.334   0.873   1.435  0.2182  0.1711  0.0604
  799SOL    HW2 3226   1.393   0.805   1.469 -2.2919 -2.3690 -0.4219
  799SOL    HW3 3227   1.360   0.883   1.343 -1.4835 -2.6567 -0.8176
  799SOL    MW4 3228   1.345   0.865   1.427 -0.3374 -0.5371 -0.1191
  800SOL     OW 3229   1.295   1.120   1.553  0.3803  0.0949  0.3825
  800SOL    HW2 3230   1.299   1.110   1.648 -0.0454  0.1969  0.4092
  800SOL    HW3 3231   1.324   1.036   1.518  0.1219 -0.0841  0.6022
  800SOL    MW4 3232   1.300   1.108   1.561  0.2900  0.0848  0.4150
  801SOL     OW 3233   1.515   1.281   1.484 -0.6081  0.4042 -0.3749
  801SOL    HW2 3234   1.440   1.229   1.515 -0.4989  0.2428 -0.3781
  801SOL    HW3 3235   1.591   1.234   1.519 -0.5509  1.2637  0.6883
  801SOL    MW4 3236   1.515   1.268   1.493 -0.5862  0.4963 -0.2351
  802SOL     OW 3237   1.568   1.538   1.559  0.0487  0.2053 -0.1183
  802SOL    HW2 3238   1.593   1.539   1.652  0.8037  0.7669 -0.3202
  802SOL    HW3 3239   1.539   1.449   1.543 -1.0907  0.3623  0.9214
  802SOL    MW4 3240   1.568   1.527   1.569 -0.0020  0.3001 -0.0077
  803SOL     OW 3241   1.332   1.613   1.458 -0.0390  0.4024 -0.4539
  803SOL    HW2 3242   1.413   1.577   1.493 -0.0823  0.9943  0.2700
  803SOL    HW3 3243   1.353   1.638   1.368  0.5162  0.3396 -0.3385
  803SOL    MW4 3244   1.345   1.611   1.451  0.0285  0.4722 -0.3431
  804SOL     OW 3245   1.362   1.882   1.508 -0.1958  0.2874  0.1757
  804SOL    HW2 3246   1.340   1.882   1.601 -0.4244  0.0877  0.1205
  804SOL    HW3 3247   1.345   1.793   1.479 -0.2375  0.3797 -0.0855
  804SOL    MW4 3248   1.357   1.871   1.516 -0.2315  0.2732  0.1340
  805SOL     OW 3249   1.573   2.057   1.467  0.0111  0.2185 -0.1756
  805SOL    HW2 3250   1.491   2.006   1.472 -1.0013  1.8540  0.2553
  805SOL    HW3 3251   1.595   2.057   1.374  0.0831 -1.0761 -0.1748
  805SOL    MW4 3252   1.565   2.050   1.456 -0.1130  0.2635 -0.1186
  806SOL     OW 3253   1.550   2.320   1.565 -0.0584 -0.1790  0.1590
  806SOL    HW2 3254   1.635   2.357   1.542  0.1388 -0.5480  0.2892
  806SOL    HW3 3255   1.553   2.230   1.532 -0.4081 -0.1832  0.1385
  806SOL    MW4 3256   1.562   2.313   1.558 -0.0785 -0.2282  0.1735
  807SOL     OW 3257   1.337   2.475   1.486  0.0737 -0.2828  0.2698
  807SOL    HW2 3258   1.346   2.561   1.527 -0.0132  0.3984 -1.1400
  807SOL    HW3 3259   1.425   2.438   1.487  0.5754  0.8603 -1.4077
  807SOL    MW4 3260   1.349   2.481   1.492  0.1284 -0.0421 -0.1375
  808SOL     OW 3261   1.337   2.721   1.600 -0.4118  0.1399  0.0318
  808SOL    HW2 3262   1.417   2.751   1.556 -0.6245 -0.0815 -0.5060
  808SOL    HW3 3263   1.266   2.764   1.553 -0.5611  1.2207  1.2129
  808SOL    MW4 3264   1.338   2.731   1.588 -0.4596  0.2533  0.1167
  809SOL     OW 3265   1.565   2.809   1.506 -0.5738  0.5351 -0.1320
  809SOL    HW2 3266   1.649   2.773   1.535 -0.6553 -0.2538 -0.8716
  809SOL    HW3 3267   1.582   2.841   1.418 -1.1173  0.1234 -0.3871
  809SOL    MW4 3268   1.578   2.808   1.499 -0.6562  0.3767 -0.2632
  810SOL     OW 3269   1.579   3.067   1.607 -0.3500  0.5852  0.1533
  810SOL    HW2 3270   1.651   3.109   1.560 -0.1727  0.7974  0.6049
  810SOL    HW3 3271   1.584   2.975   1.581 -1.0335  0.9199 -1.1963
  810SOL    MW4 3272   1.589   3.060   1.598 -0.4168  0.6574  0.0348
  811SOL     OW 3273   1.357   3.168   1.478 -0.0212  0.3368 -0.3274
  811SOL    HW2 3274   1.376   3.255   1.512  0.2802  0.9406 -1.9721
  811SOL    HW3 3275   1.418   3.110   1.525 -0.2316  0.9972  0.7788
  811SOL    MW4 3276   1.368   3.172   1.489 -0.0092  0.5036 -0.3984
  812SOL     OW 3277   1.346   3.430   1.591 -0.2483  0.2572  0.2379
  812SOL    HW2 3278   1.359   3.443   1.685  1.5161  0.1342  0.0404
  812SOL    HW3 3279   1.412   3.486   1.550 -1.0358  0.3493 -0.9274
  812SOL    MW4 3280   1.357   3.439   1.598 -0.1194  0.2531  0.0581
  813SOL     OW 3281   1.529   3.621   1.486 -0.0629  0.2231 -0.5638
  813SOL    HW2 3282   1.523   3.710   1.520  3.9333  0.2030  0.3601
  813SOL    HW3 3283   1.540   3.633   1.392 -2.6767  0.5434 -0.8712
  813SOL    MW4 3284   1.530   3.635   1.478  0.1195  0.2627 -0.4825
  814SOL     OW 3285   1.562   3.886   1.594  0.3036  0.7811  0.3468
  814SOL    HW2 3286   1.575   3.890   1.689  1.5031  0.1634  0.2166
  814SOL    HW3 3287   1.492   3.950   1.577  0.2678  1.0966  1.6079
  814SOL    MW4 3288   1.555   3.895   1.604  0.4571  0.7412  0.4960
  815SOL     OW 3289   1.343   4.043   1.515 -0.5928  0.4763  0.2023
  815SOL    HW2 3290   1.329   4.132   1.546 -0.8844  0.4806  0.0589
  815SOL    HW3 3291   1.335   4.049   1.419 -0.6241  0.2941  0.1925
  815SOL    MW4 3292   1.340   4.055   1.506 -0.6354  0.4528  0.1821
  816SOL     OW 3293   1.355   4.296   1.614  0.2344  0.3868 -0.1329
  816SOL    HW2 3294   1.444   4.322   1.592  0.1292  0.8580 -0.0022
  816SOL    HW3 3295   1.300   4.347   1.554  0.1148 -0.8659 -1.1125
  816SOL    MW4 3296   1.359   4.306   1.603  0.2048  0.2837 -0.2449
  817SOL     OW 3297   1.578   4.397   1.494 -0.0017 -0.4611  0.0285
  817SOL    HW2 3298   1.663   4.359   1.515  0.1006 -0.9926 -1.2898
  817SOL    HW3 3299   1.585   4.489   1.519  1.3848 -0.2113 -1.2218
  817SOL    MW4 3300   1.590   4.404   1.500  0.1947 -0.4982 -0.3104
  818SOL     OW 3301   2.042   4.644   1.580 -0.0423 -0.4457 -0.1629
  818SOL    HW2 3302   2.024   4.646   1.674  1.4484  1.2095  0.1127
  818SOL    HW3 3303   1.977   4.702   1.541  1.4279  1.5260  0.2545
  818SOL    MW4 3304   2.031   4.652   1.587  0.3484  0.0329 -0.0714
  819SOL     OW 3305   1.817   0.122   1.494  0.0074 -0.1523 -0.3450
  819SOL    HW2 3306   1.759   0.066   1.546  0.2581  0.3693  0.4994
  819SOL    HW3 3307   1.777   0.122   1.406 -1.5833  0.6175  0.3457
  819SOL    MW4 3308   1.804   0.115   1.489 -0.1694  0.0181 -0.1425
  820SOL     OW 3309   1.808   0.380   1.594 -0.1392 -0.0774 -0.1959
  820SOL    HW2 3310   1.872   0.443   1.559 -0.6034  1.0133  0.8791
  820SOL    HW3 3311   1.839   0.295   1.562  1.8126  0.4346  0.2413
  820SOL    MW4 3312   1.821   0.377   1.585  0.0570  0.1341  0.0036
  821SOL     OW 3313   2.030   0.488   1.452  0.5241  0.2524 -0.7789
  821SOL    HW2 3314   2.108   0.469   1.505  2.4928  0.9367 -3.3363
  821SOL    HW3 3315   2.016   0.582   1.462 -0.7379 -0.0553  0.6138
  821SOL    MW4 3316   2.038   0.498   1.461  0.6173  0.3021 -0.9326
  822SOL     OW 3317   1.990   0.750   1.516  0.0382  0.3041  0.1581
  822SOL    HW2 3318   1.970   0.736   1.608 -0.0366  0.8819  0.2294
  822SOL    HW3 3319   1.915   0.799   1.482 -0.1572 -0.3179 -0.3214
  822SOL    MW4 3320   1.978   0.755   1.524  0.0025  0.2982  0.1042
  823SOL     OW 3321   1.767   0.885   1.428 -0.0243 -0.0756  0.5951
  823SOL    HW2 3322   1.758   0.973   1.464 -1.3635 -0.1551  0.4553
  823SOL    HW3 3323   1.692   0.837   1.461  0.9809 -1.3308  1.0989
  823SOL    MW4 3324   1.756   0.890   1.437 -0.0684 -0.2517  0.6431
  824SOL     OW 3325   1.756   1.166   1.580  0.6784 -0.3460 -0.2384
  824SOL    HW2 3326   1.831   1.209   1.540 -0.9750  2.7622 -0.1017
  824SOL    HW3 3327   1.781   1.152   1.671  0.4467  2.3265  0.2608
  824SOL    MW4 3328   1.769   1.170   1.586  0.4297  0.4167 -0.1545
  825SOL     OW 3329   1.972   1.258   1.455 -0.3065  0.3656 -0.0419
  825SOL    HW2 3330   1.958   1.349   1.484  1.4813  0.1503  1.5860
  825SOL    HW3 3331   1.992   1.266   1.362 -0.2467  1.6275  0.0655
  825SOL    MW4 3332   1.972   1.271   1.447 -0.0627  0.5037  0.1871
  826SOL     OW 3333   2.004   1.517   1.599  0.2634  0.2181 -0.0374
  826SOL    HW2 3334   2.083   1.552   1.559  0.2571 -0.7796 -0.9521
  826SOL    HW3 3335   1.934   1.576   1.570  0.6087  0.8603  0.4379
  826SOL    MW4 3336   2.005   1.530   1.590  0.3081  0.1712 -0.0954
  827SOL     OW 3337   1.800   1.663   1.477 -0.1715 -0.2370 -0.1313
  827SOL    HW2 3338   1.712   1.629   1.491 -0.2819  0.3133  0.5465
  827SOL    HW3 3339   1.800   1.696   1.387 -0.5843 -0.4703 -0.2133
  827SOL    MW4 3340   1.788   1.663   1.467 -0.2405 -0.1952 -0.0527
  828SOL     OW 3341   1.806   1.927   1.571  0.1956  0.1171  0.1440
  828SOL    HW2 3342   1.795   1.833   1.558  1.2635 -0.1468  1.0663
  828SOL    HW3 3343   1.724   1.966   1.543 -0.3019 -1.1183 -0.0888
  828SOL    MW4 3344   1.794   1.920   1.566  0.2709 -0.0807  0.2350
  829SOL     OW 3345   2.023   2.065   1.475  0.1460 -0.2245 -0.0106
  829SOL    HW2 3346   2.102   2.019   1.502 -0.3015 -1.5239 -0.8756
  829SOL    HW3 3347   1.951   2.011   1.508 -0.4126  1.6121  1.9046
  829SOL    MW4 3348   2.024   2.052   1.483  0.0133 -0.1536  0.1280
  830SOL     OW 3349   2.048   2.328   1.580 -0.1555  0.3600 -0.2546
  830SOL    HW2 3350   2.016   2.323   1.670  0.5626  1.6688  0.0752
  830SOL    HW3 3351   2.029   2.241   1.543 -0.1195 -0.3014  1.2585
  830SOL    MW4 3352   2.041   2.316   1.587 -0.0560  0.4454 -0.0115
  831SOL     OW 3353   1.802   2.434   1.523 -0.0465 -0.2418 -0.0899
  831SOL    HW2 3354   1.896   2.418   1.532  0.1563  1.4182  0.8823
  831SOL    HW3 3355   1.790   2.452   1.429  0.7169  0.1340 -0.1215
  831SOL    MW4 3356   1.813   2.434   1.512  0.0810  0.0268  0.0342
  832SOL     OW 3357   1.790   2.699   1.610 -0.1809 -0.2428 -0.5805
  832SOL    HW2 3358   1.873   2.743   1.595 -1.4230  1.3208 -3.1403
  832SOL    HW3 3359   1.806   2.608   1.584  1.3880 -0.5351  1.3126
  832SOL    MW4 3360   1.803   2.693   1.605 -0.1378 -0.0750 -0.6685
  833SOL     OW 3361   2.048   2.833   1.574  0.1094  0.2607 -0.2609
  833SOL    HW2 3362   2.050   2.928   1.590 -1.2239  0.1767  0.4858
  833SOL    HW3 3363   2.064   2.825   1.480  1.2176  1.1606 -0.1702
  833SOL    MW4 3364   2.050   2.845   1.563  0.0797  0.3683 -0.1504
  834SOL     OW 3365   2.054   3.127   1.594  0.1252  0.0954 -0.1482
  834SOL    HW2 3366   2.042   3.111   1.687  0.2618  1.5236  0.1155
  834SOL    HW3 3367   2.138   3.172   1.587 -0.6627  1.4933 -0.7880
  834SOL    MW4 3368   2.063   3.130   1.605  0.0392  0.4683 -0.1978
  835SOL     OW 3369   1.803   3.217   1.514  0.1334 -0.1453  0.0516
  835SOL    HW2 3370   1.794   3.306   1.548 -0.7141  0.7439 -2.3687
  835SOL    HW3 3371   1.890   3.190   1.541 -0.1891  0.8290  2.1500
  835SOL    MW4 3372   1.813   3.225   1.522 -0.0210  0.1006  0.0091
  836SOL     OW 3373   1.755   3.473   1.586 -0.1607 -0.7875  0.0646
  836SOL    HW2 3374   1.750   3.482   1.681  0.1028  0.4179 -0.0312
  836SOL    HW3 3375   1.672   3.510   1.555  0.9228  1.3319 -0.3381
  836SOL    MW4 3376   1.743   3.479   1.595  0.0170 -0.3489 -0.0012
  837SOL     OW 3377   2.005   3.596   1.457 -0.1189  0.6247  0.5555
  837SOL    HW2 3378   2.072   3.556   1.513 -1.4152 -1.8675  0.3869
  837SOL    HW3 3379   1.922   3.576   1.500 -0.8988  2.0299 -0.2479
  837SOL    MW4 3380   2.003   3.588   1.470 -0.3928  0.4813  0.4272
  838SOL     OW 3381   1.996   3.882   1.546  0.3938  0.7141  0.7224
  838SOL    HW2 3382   2.079   3.923   1.524 -0.2892  1.7035 -0.0136
  838SOL    HW3 3383   2.004   3.793   1.512 -0.1992  1.8506 -2.5210
  838SOL    MW4 3384   2.008   3.876   1.539  0.2254  0.9946  0.1974
  839SOL     OW 3385   1.770   4.034   1.503  0.2849  0.5173  0.1110
  839SOL    HW2 3386   1.842   3.984   1.541 -0.8056 -0.8934  0.3534
  839SOL    HW3 3387   1.691   3.989   1.533 -0.7338  2.6072  0.6511
  839SOL    MW4 3388   1.769   4.021   1.512  0.0066  0.6069  0.2142
  840SOL     OW 3389   1.836   4.289   1.553  0.6403  0.0117  0.4173
  840SOL    HW2 3390   1.922   4.311   1.517  0.7299  0.1412  0.7038
  840SOL    HW3 3391   1.826   4.195   1.537  1.1923 -0.1714  1.1164
  840SOL    MW4 3392   1.846   4.280   1.546  0.7250  0.0046  0.5473
  841SOL     OW 3393   2.066   4.390   1.458 -0.8093  0.0527  0.7659
  841SOL    HW2 3394   2.115   4.331   1.515  0.0961 -0.1758 -0.2297
  841SOL    HW3 3395   2.056   4.470   1.509 -2.0740 -0.9610  2.1387
  841SOL    MW4 3396   2.071   4.393   1.472 -0.8567 -0.1112  0.8157
  842SOL     OW 3397   2.486   4.626   1.555 -0.3585  0.2465  0.1502
  842SOL    HW2 3398   2.489   4.643   1.649 -0.2969  0.7990  0.0473
  842SOL    HW3 3399   2.420   4.687   1.521 -0.4438 -0.0104 -0.1519
  842SOL    MW4 3400   2.477   4.636   1.563 -0.3617  0.2855  0.0968
  843SOL     OW 3401   2.277   0.124   1.493  0.4554  0.0007 -0.1805
  843SOL    HW2 3402   2.203   0.073   1.526 -0.0105  2.0569  2.0937
  843SOL    HW3 3403   2.264   0.127   1.399 -0.6227 -2.3144 -0.1385
  843SOL    MW4 3404   2.265   0.118   1.485  0.2517 -0.0335  0.1251
  844SOL     OW 3405   2.256   0.386   1.581  0.1777  0.2640  0.0483
  844SOL    HW2 3406   2.262   0.379   1.676  0.7978  0.2127  0.0124
  844SOL    HW3 3407   2.249   0.295   1.550 -0.6218  0.3131  0.0764
  844SOL    MW4 3408   2.256   0.373   1.589  0.1540  0.2637  0.0473
  845SOL     OW 3409   2.480   0.519   1.447 -0.4328  0.3230  0.1022
  845SOL    HW2 3410   2.547   0.467   1.490 -0.4596  0.3178  0.1378
  845SOL    HW3 3411   2.398   0.492   1.488 -0.2132  2.0062  1.7243
  845SOL    MW4 3412   2.478   0.509   1.458 -0.4074  0.5444  0.3209
  846SOL     OW 3413   2.489   0.765   1.593  0.1840  0.0856  0.1418
  846SOL    HW2 3414   2.411   0.818   1.574  0.2258  0.5520  1.2206
  846SOL    HW3 3415   2.472   0.682   1.549 -0.7257  0.3501 -0.0298
  846SOL    MW4 3416   2.476   0.761   1.585  0.0695  0.1821  0.2615
  847SOL     OW 3417   2.245   0.904   1.499 -0.2730 -0.0533  0.0041
  847SOL    HW2 3418   2.218   0.990   1.530  0.0390 -0.2753  0.9088
  847SOL    HW3 3419   2.167   0.849   1.509  0.2364 -0.4978  1.8675
  847SOL    MW4 3420   2.231   0.908   1.505 -0.1646 -0.1412  0.3693
  848SOL     OW 3421   2.204   1.181   1.577  0.0114 -0.3255  0.2004
  848SOL    HW2 3422   2.159   1.165   1.660 -0.2720  0.9970  0.3022
  848SOL    HW3 3423   2.137   1.218   1.520  0.6451  0.4089 -0.0753
  848SOL    MW4 3424   2.189   1.184   1.581  0.0576 -0.0541  0.1775
  849SOL     OW 3425   2.479   1.231   1.497 -0.0257 -0.1255  0.3379
  849SOL    HW2 3426   2.389   1.204   1.510 -0.4381  1.1775  0.3102
  849SOL    HW3 3427   2.489   1.240   1.402  0.5384 -1.5963  0.2542
  849SOL    MW4 3428   2.469   1.229   1.486 -0.0057 -0.1476  0.3232
  850SOL     OW 3429   2.463   1.499   1.568  0.4588 -0.0219  0.3381
  850SOL    HW2 3430   2.546   1.542   1.548 -0.1886  0.5090 -1.2705
  850SOL    HW3 3431   2.475   1.409   1.538  0.3405  0.1352 -0.1752
  850SOL    MW4 3432   2.475   1.493   1.562  0.3578  0.0689  0.0582
  851SOL     OW 3433   2.233   1.647   1.478  0.2384  0.4512 -0.5092
  851SOL    HW2 3434   2.302   1.594   1.518 -0.7573 -0.3424  0.1953
  851SOL    HW3 3435   2.245   1.635   1.384  0.2894 -0.7154 -0.3720
  851SOL    MW4 3436   2.244   1.638   1.471  0.1137  0.1926 -0.3982
  852SOL     OW 3437   2.248   1.921   1.557  0.0407  0.0833 -0.1590
  852SOL    HW2 3438   2.252   1.914   1.652 -2.6560  1.3272  0.0976
  852SOL    HW3 3439   2.239   1.830   1.526 -0.7568 -0.2093  0.9002
  852SOL    MW4 3440   2.247   1.908   1.565 -0.4203  0.2088  0.0146
  853SOL     OW 3441   2.492   2.053   1.482 -0.2352 -0.1803  0.3078
  853SOL    HW2 3442   2.414   2.005   1.510 -0.3995  0.4101  0.8740
  853SOL    HW3 3443   2.495   2.041   1.387  0.0394 -1.7868  0.4900
  853SOL    MW4 3444   2.482   2.045   1.473 -0.2206 -0.3144  0.4065
  854SOL     OW 3445   2.485   2.313   1.576  0.0890 -0.8176  0.2729
  854SOL    HW2 3446   2.491   2.322   1.671 -1.1109 -1.1261  0.3879
  854SOL    HW3 3447   2.506   2.221   1.559  0.9532 -0.6111  0.1640
  854SOL    MW4 3448   2.489   2.302   1.587  0.0447 -0.8311  0.2737
  855SOL     OW 3449   2.262   2.451   1.489 -0.1310 -0.0527  0.2014
  855SOL    HW2 3450   2.326   2.387   1.521 -0.0966  0.1716  0.5824
  855SOL    HW3 3451   2.177   2.411   1.508 -0.1366 -1.3606 -2.2915
  855SOL    MW4 3452   2.259   2.437   1.496 -0.1272 -0.1957 -0.0773
  856SOL     OW 3453   2.274   2.687   1.641  0.6074  0.0720  0.2776
  856SOL    HW2 3454   2.275   2.615   1.578  0.3208 -2.0100  2.5692
  856SOL    HW3 3455   2.186   2.724   1.634  0.7632  0.2293 -0.9211
  856SOL    MW4 3456   2.262   2.682   1.632  0.5901 -0.1819  0.4218
  857SOL     OW 3457   2.459   2.855   1.509 -0.1575 -0.3008 -0.0433
  857SOL    HW2 3458   2.448   2.939   1.552 -0.1987 -0.4614  0.2579
  857SOL    HW3 3459   2.383   2.804   1.536 -0.8881  0.0486 -1.3516
  857SOL    MW4 3460   2.447   2.859   1.518 -0.2594 -0.2759 -0.1762
  858SOL     OW 3461   2.476   3.098   1.626  0.2366 -0.2240  0.2474
  858SOL    HW2 3462   2.551   3.142   1.586  0.3197 -0.0742  0.5632
  858SOL    HW3 3463   2.401   3.154   1.605  0.2073 -0.3889 -0.0935
  858SOL    MW4 3464   2.476   3.111   1.618  0.2437 -0.2260  0.2441
  859SOL     OW 3465   2.272   3.274   1.533  0.6326  0.0642  0.4475
  859SOL    HW2 3466   2.256   3.364   1.560 -1.1832 -0.0114 -0.2783
  859SOL    HW3 3467   2.246   3.271   1.441 -2.0079 -1.8139  1.1797
  859SOL    MW4 3468   2.266   3.285   1.525  0.0447 -0.1936  0.4483
  860SOL     OW 3469   2.219   3.532   1.627 -0.4482  0.6131  0.1140
  860SOL    HW2 3470   2.251   3.515   1.715  1.4362 -1.7879 -0.9763
  860SOL    HW3 3471   2.290   3.579   1.584 -0.2963 -0.5116 -0.8857
  860SOL    MW4 3472   2.233   3.536   1.633 -0.1796  0.1479 -0.1618
  861SOL     OW 3473   2.427   3.632   1.483 -0.1730  0.2306  0.4994
  861SOL    HW2 3474   2.505   3.578   1.494  0.1982  0.6235 -0.1414
  861SOL    HW3 3475   2.450   3.716   1.521  0.0740  0.6572 -0.5638
  861SOL    MW4 3476   2.440   3.636   1.489 -0.0914  0.3387  0.2745
  862SOL     OW 3477   2.499   3.895   1.584 -0.2737 -0.3513  0.2555
  862SOL    HW2 3478   2.510   3.881   1.678  1.1027  1.4057  0.3745
  862SOL    HW3 3479   2.585   3.922   1.553 -1.1560  0.9158 -1.1785
  862SOL    MW4 3480   2.511   3.897   1.592 -0.2085  0.0477  0.0820
  863SOL     OW 3481   2.247   3.977   1.509 -0.3934  0.0518 -0.0728
  863SOL    HW2 3482   2.333   3.958   1.546 -0.3600  1.5425  0.6675
  863SOL    HW3 3483   2.259   3.975   1.415  0.1435 -1.0997  0.0208
  863SOL    MW4 3484   2.260   3.975   1.502 -0.3181  0.0965  0.0372
  864SOL     OW 3485   2.222   4.223   1.607  0.3445 -0.0595  0.1743
  864SOL    HW2 3486   2.296   4.264   1.561 -0.7547  0.9956 -0.7270
  864SOL    HW3 3487   2.216   4.135   1.570 -0.6344  0.8376 -1.9194
  864SOL    MW4 3488   2.231   4.217   1.596  0.0704  0.1981 -0.2209
  865SOL     OW 3489   2.435   4.358   1.493 -0.3462 -0.2865 -0.2862
  865SOL    HW2 3490   2.455   4.450   1.510 -1.7291  0.1243 -0.8720
  865SOL    HW3 3491   2.439   4.350   1.398 -0.2011 -0.8481 -0.2337
  865SOL    MW4 3492   2.438   4.369   1.483 -0.5095 -0.3064 -0.3565
  866SOL     OW 3493   2.942   4.632   1.571 -0.2569 -0.5275  0.7187
  866SOL    HW2 3494   2.916   4.624   1.662 -0.3517 -0.5458  0.6900
  866SOL    HW3 3495   2.865   4.667   1.527  0.6362  2.0975  1.1341
  866SOL    MW4 3496   2.929   4.636   1.577 -0.1515 -0.1836  0.7698
  867SOL     OW 3497   2.716   0.101   1.459  0.2439 -0.1046 -0.5513
  867SOL    HW2 3498   2.691   0.191   1.481  0.0336  0.3882 -2.6490
  867SOL    HW3 3499   2.638   0.049   1.480  0.2482  0.2425  0.3574
  867SOL    MW4 3500   2.702   0.106   1.465  0.2167  0.0062 -0.7082
  868SOL     OW 3501   2.685   0.374   1.569  0.5911 -0.3172  0.0163
  868SOL    HW2 3502   2.703   0.348   1.660  1.1863 -0.0433 -0.0193
  868SOL    HW3 3503   2.766   0.415   1.540  0.5310 -0.7505 -0.7654
  868SOL    MW4 3504   2.698   0.376   1.577  0.6617 -0.3382 -0.0915
  869SOL     OW 3505   2.915   0.473   1.476  0.1336  0.4544 -0.2936
  869SOL    HW2 3506   2.944   0.560   1.500 -0.1843  0.6513 -0.6216
  869SOL    HW3 3507   2.907   0.476   1.381 -0.6340  0.3014 -0.2364
  869SOL    MW4 3508   2.918   0.485   1.467 -0.0096  0.4602 -0.3293
  870SOL     OW 3509   2.972   0.748   1.547  0.4138 -0.1984  0.0953
  870SOL    HW2 3510   2.967   0.746   1.643  0.4522  2.7303  0.2111
  870SOL    HW3 3511   2.884   0.771   1.518  0.6574 -0.0163 -0.5182
  870SOL    MW4 3512   2.960   0.751   1.556  0.4510  0.2120  0.0296
  871SOL     OW 3513   2.723   0.876   1.498 -0.1150  0.2994 -0.0274
  871SOL    HW2 3514   2.646   0.821   1.514  0.2675 -0.2930 -0.2087
  871SOL    HW3 3515   2.711   0.907   1.408  0.5153 -0.8722 -0.5318
  871SOL    MW4 3516   2.711   0.873   1.488  0.0186  0.0667 -0.1178
  872SOL     OW 3517   2.715   1.123   1.593  0.1933 -0.1949  0.3019
  872SOL    HW2 3518   2.712   1.029   1.573 -1.0551  0.1457 -1.2298
  872SOL    HW3 3519   2.636   1.159   1.552  0.8932  1.6007  0.4792
  872SOL    MW4 3520   2.704   1.115   1.585  0.1209  0.0870  0.1232
  873SOL     OW 3521   2.930   1.281   1.508 -0.4595  0.0832 -0.1571
  873SOL    HW2 3522   3.008   1.233   1.537 -0.5159 -0.1385 -0.3645
  873SOL    HW3 3523   2.856   1.230   1.540 -0.5195  0.4235  0.2448
  873SOL    MW4 3524   2.931   1.268   1.516 -0.4748  0.0989 -0.1314
  874SOL     OW 3525   2.951   1.563   1.570  0.1616 -0.0715  0.1495
  874SOL    HW2 3526   2.871   1.610   1.545  0.4945 -0.1492 -1.0888
  874SOL    HW3 3527   2.932   1.471   1.550  0.2891 -0.1998  0.5906
  874SOL    MW4 3528   2.938   1.557   1.564  0.2224 -0.0987  0.0443
  875SOL     OW 3529   2.685   1.649   1.512  0.1946  0.5703 -0.5082
  875SOL    HW2 3530   2.689   1.740   1.541  0.6978  0.3895 -0.0023
  875SOL    HW3 3531   2.696   1.653   1.417  0.0810  1.0456 -0.5005
  875SOL    MW4 3532   2.687   1.661   1.503  0.2460  0.6091 -0.4404
  876SOL     OW 3533   2.718   1.924   1.606  0.2953 -0.1290  0.2228
  876SOL    HW2 3534   2.684   1.913   1.695  0.8825  2.0133  0.7396
  876SOL    HW3 3535   2.648   1.971   1.560  0.7283  0.3593  0.0606
  876SOL    MW4 3536   2.704   1.929   1.612  0.4299  0.2181  0.2696
  877SOL     OW 3537   2.918   2.101   1.501  0.0395 -0.2563 -0.4350
  877SOL    HW2 3538   2.915   2.185   1.547  1.1859 -0.0592 -0.6948
  877SOL    HW3 3539   2.852   2.047   1.544  0.3912  0.2600  0.7784
  877SOL    MW4 3540   2.909   2.105   1.513  0.2371 -0.1622 -0.3092
  878SOL     OW 3541   2.957   2.349   1.631 -0.0260  0.1906  0.1448
  878SOL    HW2 3542   2.951   2.340   1.726 -0.1211 -0.8793  0.0392
  878SOL    HW3 3543   2.875   2.392   1.605 -0.6840 -0.9017  0.3801
  878SOL    MW4 3544   2.945   2.353   1.640 -0.1254 -0.0947  0.1619
  879SOL     OW 3545   2.725   2.447   1.515  0.2180  0.3150 -0.5120
  879SOL    HW2 3546   2.709   2.536   1.546 -0.9042 -0.3253  0.7773
  879SOL    HW3 3547   2.646   2.399   1.539  1.6863 -1.5210  0.6841
  879SOL    MW4 3548   2.712   2.453   1.522  0.2637 -0.0117 -0.1841
  880SOL     OW 3549   2.687   2.697   1.629  0.2596 -0.1616 -0.1327
  880SOL    HW2 3550   2.767   2.745   1.608 -0.1761  0.4452 -0.4293
  880SOL    HW3 3551   2.617   2.747   1.586 -0.6821  1.1676  2.7871
  880SOL    MW4 3552   2.688   2.710   1.621  0.0778  0.0938  0.2134
  881SOL     OW 3553   2.923   2.829   1.513 -0.1039  0.1837  0.2185
  881SOL    HW2 3554   2.980   2.763   1.553 -1.4466 -0.1061  1.7125
  881SOL    HW3 3555   2.947   2.911   1.556 -0.1033  0.2509  0.0911
  881SOL    MW4 3556   2.934   2.831   1.524 -0.2810  0.1543  0.3988
  882SOL     OW 3557   2.963   3.080   1.599  0.1292 -0.1454  0.3455
  882SOL    HW2 3558   2.981   3.107   1.689 -0.2436  0.0910  0.3512
  882SOL    HW3 3559   3.014   3.142   1.546  1.2163 -0.9679  0.4160
  882SOL    MW4 3560   2.972   3.092   1.604  0.2235 -0.2227  0.3556
  883SOL     OW 3561   2.693   3.233   1.529  0.1077  0.1749  0.2952
  883SOL    HW2 3562   2.767   3.182   1.563  0.2921  0.2838  0.0657
  883SOL    HW3 3563   2.714   3.246   1.436 -0.4590 -0.2461  0.1064
  883SOL    MW4 3564   2.706   3.228   1.521  0.0573  0.1337  0.2400
  884SOL     OW 3565   2.661   3.506   1.573 -0.2415 -0.7523 -0.0270
  884SOL    HW2 3566   2.668   3.509   1.669  1.1443 -0.1687 -0.1270
  884SOL    HW3 3567   2.671   3.413   1.552  0.1736 -0.7964  0.3509
  884SOL    MW4 3568   2.664   3.494   1.583 -0.0039 -0.6811  0.0097
  885SOL     OW 3569   2.899   3.638   1.518  0.0596  0.3785  0.0284
  885SOL    HW2 3570   2.821   3.590   1.543 -0.2248  1.8180  1.9957
  885SOL    HW3 3571   2.894   3.643   1.422 -1.9639  0.0102  0.0918
  885SOL    MW4 3572   2.888   3.632   1.509 -0.2449  0.5198  0.2963
  886SOL     OW 3573   2.938   3.898   1.601 -0.2495  0.0483 -0.0933
  886SOL    HW2 3574   2.863   3.950   1.572 -1.4379 -0.5965  1.7235
  886SOL    HW3 3575   2.928   3.814   1.556 -1.5834 -0.6255  1.3922
  886SOL    MW4 3576   2.927   3.894   1.592 -0.5823 -0.1257  0.3424
  887SOL     OW 3577   2.733   4.023   1.494 -0.3263 -0.1900  0.1931
  887SOL    HW2 3578   2.728   4.114   1.522  1.6032 -0.3051  1.0314
  887SOL    HW3 3579   2.702   4.023   1.404 -1.1442  1.1465  0.4712
  887SOL    MW4 3580   2.729   4.035   1.486 -0.1796 -0.0289  0.3404
  888SOL     OW 3581   2.698   4.278   1.575 -0.5536 -0.0225  0.5045
  888SOL    HW2 3582   2.768   4.311   1.519 -0.2024 -1.8648 -0.1818
  888SOL    HW3 3583   2.617   4.306   1.531 -0.2652 -0.2628 -0.1968
  888SOL    MW4 3584   2.696   4.286   1.562 -0.4692 -0.2973  0.3214
  889SOL     OW 3585   2.919   4.382   1.462 -0.4170 -0.1141  0.1104
  889SOL    HW2 3586   2.921   4.466   1.508 -0.2719 -0.1559  0.1843
  889SOL    HW3 3587   2.933   4.404   1.370  0.9897 -0.1628  0.2925
  889SOL    MW4 3588   2.921   4.396   1.456 -0.2123 -0.1260  0.1442
  890SOL     OW 3589   3.363   4.623   1.622  0.0924 -0.5231  0.3270
  890SOL    HW2 3590   3.450   4.652   1.596 -0.1261 -0.0369  0.1262
  890SOL    HW3 3591   3.354   4.536   1.583  0.7307 -0.8457  0.8831
  890SOL    MW4 3592   3.373   4.616   1.613  0.1478 -0.5015  0.3738
  891SOL     OW 3593   3.175   0.090   1.455 -0.0951 -0.2050  0.0295
  891SOL    HW2 3594   3.248   0.057   1.507 -0.5654 -1.1973  0.0784
  891SOL    HW3 3595   3.098   0.048   1.493 -0.7314  1.0227  0.1459
  891SOL    MW4 3596   3.174   0.080   1.467 -0.2411 -0.1739  0.0513
  892SOL     OW 3597   3.138   0.326   1.600 -0.1178 -0.3300 -0.5212
  892SOL    HW2 3598   3.149   0.238   1.564 -1.1916 -0.0717 -1.5219
  892SOL    HW3 3599   3.053   0.355   1.566 -0.3956  0.5619  0.9065
  892SOL    MW4 3600   3.128   0.318   1.591 -0.2961 -0.1782 -0.4648
  893SOL     OW 3601   3.348   0.490   1.507 -0.2540  0.1740  0.6326
  893SOL    HW2 3602   3.277   0.441   1.549 -0.7269  1.5829  1.5164
  893SOL    HW3 3603   3.324   0.492   1.415 -0.0825 -1.4884  0.5394
  893SOL    MW4 3604   3.335   0.484   1.501 -0.2938  0.1406  0.7369
  894SOL     OW 3605   3.416   0.746   1.586 -0.6349 -0.7984 -0.3530
  894SOL    HW2 3606   3.396   0.753   1.680 -2.2971  1.2917 -0.8362
  894SOL    HW3 3607   3.399   0.654   1.565 -0.6156 -1.2087  1.3083
  894SOL    MW4 3608   3.411   0.735   1.596 -0.8517 -0.5768 -0.1976
  895SOL     OW 3609   3.184   0.899   1.495 -0.0238 -0.0992  0.4614
  895SOL    HW2 3610   3.257   0.851   1.533  0.4043  1.7983  2.1088
  895SOL    HW3 3611   3.107   0.846   1.515  0.7415 -1.5023 -0.2406
  895SOL    MW4 3612   3.183   0.885   1.502  0.1336 -0.0339  0.5861
  896SOL     OW 3613   3.161   1.156   1.628 -0.0924  0.3296 -0.0538
  896SOL    HW2 3614   3.167   1.161   1.723  0.6116  1.8304 -0.1664
  896SOL    HW3 3615   3.156   1.062   1.610 -1.4616  0.0762  1.5167
  896SOL    MW4 3616   3.161   1.144   1.638 -0.1802  0.4942  0.1385
  897SOL     OW 3617   3.375   1.270   1.459 -0.4973  0.0539 -0.4104
  897SOL    HW2 3618   3.443   1.212   1.494  0.4017  1.4625  0.2130
  897SOL    HW3 3619   3.295   1.246   1.506  0.2833  0.5943  1.2133
  897SOL    MW4 3620   3.373   1.259   1.470 -0.2757  0.3110 -0.1139
  898SOL     OW 3621   3.400   1.536   1.572 -0.0834  0.1033 -0.2399
  898SOL    HW2 3622   3.390   1.528   1.667 -2.0303  0.2014 -0.4189
  898SOL    HW3 3623   3.401   1.445   1.540 -1.3316  0.0933 -0.2877
  898SOL    MW4 3624   3.399   1.523   1.580 -0.5049  0.1149 -0.2698
  899SOL     OW 3625   3.176   1.731   1.519 -0.0607 -0.4001 -0.1312
  899SOL    HW2 3626   3.256   1.680   1.512  0.2848  0.1297 -0.0613
  899SOL    HW3 3627   3.106   1.666   1.526  0.4777 -0.8568  1.0538
  899SOL    MW4 3628   3.177   1.716   1.519  0.0559 -0.3905  0.0344
  900SOL     OW 3629   3.145   1.978   1.607 -0.0367  0.1858  0.3509
  900SOL    HW2 3630   3.160   1.887   1.579  0.9895  0.2546  0.6572
  900SOL    HW3 3631   3.063   2.003   1.564  0.0708 -0.6342 -0.3508
  900SOL    MW4 3632   3.136   1.969   1.597  0.1128  0.0867  0.2987
  901SOL     OW 3633   3.392   2.062   1.532  0.2851  0.2821 -0.1944
  901SOL    HW2 3634   3.302   2.036   1.554  1.0170 -1.1334  1.2250
  901SOL    HW3 3635   3.400   2.044   1.438 -1.1635  1.1910 -0.5060
  901SOL    MW4 3636   3.381   2.056   1.522  0.1905  0.2153 -0.0482
  902SOL     OW 3637   3.398   2.301   1.669 -0.0451  0.6675 -0.1894
  902SOL    HW2 3638   3.455   2.350   1.610  0.6078  0.4473  0.2603
  902SOL    HW3 3639   3.385   2.217   1.624 -2.0372  1.6319 -1.4729
  902SOL    MW4 3640   3.404   2.296   1.655 -0.2218  0.7657 -0.2994
  903SOL     OW 3641   3.197   2.447   1.550 -0.5490  0.4028 -0.1577
  903SOL    HW2 3642   3.265   2.396   1.592 -0.8345  1.2887  1.4157
  903SOL    HW3 3643   3.115   2.408   1.579 -0.7633  1.5391  0.8036
  903SOL    MW4 3644   3.195   2.435   1.559 -0.6149  0.6696  0.1767
  904SOL     OW 3645   3.135   2.701   1.635 -0.1775 -0.0326 -0.1742
  904SOL    HW2 3646   3.209   2.754   1.604 -0.5665  0.6232  0.0049
  904SOL    HW3 3647   3.157   2.612   1.608  0.0368  0.3589 -1.3412
  904SOL    MW4 3648   3.148   2.696   1.627 -0.2006  0.1056 -0.3046
  905SOL     OW 3649   3.355   2.840   1.538 -0.4270  0.3831 -0.2215
  905SOL    HW2 3650   3.340   2.934   1.544  1.7755  0.7652 -0.3526
  905SOL    HW3 3651   3.347   2.821   1.444 -0.3802  0.5192 -0.2530
  905SOL    MW4 3652   3.352   2.850   1.526 -0.1302  0.4515 -0.2430
  906SOL     OW 3653   3.349   3.110   1.601  0.1651 -0.4897  0.2010
  906SOL    HW2 3654   3.371   3.082   1.690  0.0445  0.8331  0.6470
  906SOL    HW3 3655   3.425   3.159   1.571 -0.7364  1.0641  0.4358
  906SOL    MW4 3656   3.362   3.113   1.609  0.0302 -0.1101  0.2908
  907SOL     OW 3657   3.146   3.272   1.506  0.1695 -0.3037 -0.0025
  907SOL    HW2 3658   3.143   3.364   1.533  0.3534 -0.5508  0.8805
  907SOL    HW3 3659   3.225   3.238   1.548 -0.1013 -0.9605 -0.0305
  907SOL    MW4 3660   3.156   3.280   1.515  0.1580 -0.4230  0.1103
  908SOL     OW 3661   3.155   3.543   1.580 -0.3362 -0.0316  0.0031
  908SOL    HW2 3662   3.172   3.552   1.673  0.5213 -1.7318  0.0421
  908SOL    HW3 3663   3.065   3.573   1.568  0.1469  1.8781  1.0712
  908SOL    MW4 3664   3.145   3.548   1.590 -0.1593 -0.0040  0.1492
  909SOL     OW 3665   3.393   3.656   1.460 -0.2516  0.4982  0.0612
  909SOL    HW2 3666   3.463   3.610   1.506  0.6126  1.1249 -0.5986
  909SOL    HW3 3667   3.312   3.624   1.500  0.3209 -1.7169 -0.5112
  909SOL    MW4 3668   3.391   3.646   1.471 -0.0621  0.2886 -0.1014
  910SOL     OW 3669   3.346   3.901   1.604 -0.3240  0.1983 -0.7351
  910SOL    HW2 3670   3.280   3.956   1.562 -0.6488  0.4923  0.1514
  910SOL    HW3 3671   3.347   3.820   1.553 -1.0246  0.3832 -1.0380
  910SOL    MW4 3672   3.337   3.897   1.592 -0.4593  0.2615 -0.6581
  911SOL     OW 3673   3.152   3.998   1.446 -0.4894  0.4187 -0.4554
  911SOL    HW2 3674   3.143   4.089   1.475  0.4795  0.6723 -0.9404
  911SOL    HW3 3675   3.076   3.953   1.484 -0.6381  1.2981  0.2963
  911SOL    MW4 3676   3.140   4.004   1.455 -0.3812  0.5682 -0.4202
  912SOL     OW 3677   3.145   4.265   1.554 -0.3767  0.0176 -0.0490
  912SOL    HW2 3678   3.149   4.279   1.648 -1.0342 -0.1134  0.0016
  912SOL    HW3 3679   3.064   4.309   1.526 -1.0633 -1.3701 -0.2929
  912SOL    MW4 3680   3.135   4.272   1.562 -0.5540 -0.1828 -0.0745
  913SOL     OW 3681   3.379   4.383   1.484 -0.0815  0.1517 -0.0125
  913SOL    HW2 3682   3.298   4.343   1.513 -0.8474  0.1028 -2.1331
  913SOL    HW3 3683   3.371   4.387   1.388  1.6717  1.7055 -0.1236
  913SOL    MW4 3684   3.368   4.379   1.475  0.0487  0.3502 -0.3069
  914SOL     OW 3685   3.813   4.611   1.576  0.3050  0.2416  0.2085
  914SOL    HW2 3686   3.815   4.613   1.671  1.2305 -0.7361  0.2198
  914SOL    HW3 3687   3.889   4.662   1.549  0.5730 -0.2476  0.0172
  914SOL    MW4 3688   3.823   4.618   1.585  0.4625  0.0480  0.1847
  915SOL     OW 3689   3.587   0.082   1.473  0.0430 -0.0577  0.0777
  915SOL    HW2 3690   3.674   0.064   1.509 -0.2996  0.9507  1.4514
  915SOL    HW3 3691   3.600   0.081   1.378  1.6041  0.2819  0.2745
  915SOL    MW4 3692   3.600   0.080   1.465  0.2038  0.1201  0.2849
  916SOL     OW 3693   3.559   0.350   1.576 -0.2958 -0.6679  0.6160
  916SOL    HW2 3694   3.561   0.265   1.532 -0.0131  0.4593 -1.6336
  916SOL    HW3 3695   3.475   0.388   1.550  0.7094  0.8084 -0.5622
  916SOL    MW4 3696   3.549   0.344   1.567 -0.1259 -0.3244  0.1637
  917SOL     OW 3697   3.800   0.511   1.502  0.0223  0.3963 -0.2525
  917SOL    HW2 3698   3.719   0.462   1.520 -0.1845  0.8972  0.1958
  917SOL    HW3 3699   3.812   0.502   1.408 -1.2756  1.4204 -0.5347
  917SOL    MW4 3700   3.791   0.503   1.492 -0.1762  0.5975 -0.2306
  918SOL     OW 3701   3.819   0.766   1.625 -0.0484 -0.1327  0.0602
  918SOL    HW2 3702   3.762   0.804   1.557  0.9924  0.0066 -0.7497
  918SOL    HW3 3703   3.824   0.673   1.602 -0.6144 -0.3075  0.6210
  918SOL    MW4 3704   3.812   0.759   1.613  0.0142 -0.1374  0.0273
  919SOL     OW 3705   3.622   0.926   1.502  0.0593 -0.3029 -0.1623
  919SOL    HW2 3706   3.556   0.858   1.513  1.5502 -1.9362 -0.9802
  919SOL    HW3 3707   3.629   0.937   1.407  0.3490  0.4687 -0.0537
  919SOL    MW4 3708   3.614   0.919   1.491  0.2942 -0.4166 -0.2559
  920SOL     OW 3709   3.600   1.178   1.606 -0.5186 -0.2241 -0.0084
  920SOL    HW2 3710   3.662   1.231   1.557  0.8478 -1.5118  0.2933
  920SOL    HW3 3711   3.618   1.088   1.578 -1.8981 -0.6688  0.4665
  920SOL    MW4 3712   3.610   1.173   1.595 -0.5204 -0.4527  0.0941
  921SOL     OW 3713   3.822   1.312   1.489 -0.0014  0.3078  0.1889
  921SOL    HW2 3714   3.889   1.257   1.529 -0.9705 -0.4556  0.8020
  921SOL    HW3 3715   3.830   1.396   1.534  1.2519  0.5597 -0.5013
  921SOL    MW4 3716   3.832   1.316   1.500  0.0361  0.2403  0.1788
  922SOL     OW 3717   3.837   1.558   1.617  0.0694  0.0675  0.1289
  922SOL    HW2 3718   3.834   1.554   1.712 -0.4770 -0.8190  0.0709
  922SOL    HW3 3719   3.755   1.601   1.592 -0.9472 -1.9597 -0.0738
  922SOL    MW4 3720   3.826   1.563   1.626 -0.1368 -0.3170  0.0945
  923SOL     OW 3721   3.632   1.683   1.505  0.0093 -0.4841  0.1436
  923SOL    HW2 3722   3.549   1.654   1.543  0.2974 -2.8105 -0.9048
  923SOL    HW3 3723   3.620   1.671   1.410  1.3569 -0.3830 -0.0411
  923SOL    MW4 3724   3.619   1.677   1.497  0.2252 -0.7777 -0.0191
  924SOL     OW 3725   3.616   1.939   1.603  0.3852 -0.7043 -0.1551
  924SOL    HW2 3726   3.612   1.854   1.558 -0.3198 -0.1819 -1.0914
  924SOL    HW3 3727   3.536   1.984   1.577  0.4716  0.0191  0.8119
  924SOL    MW4 3728   3.605   1.934   1.594  0.3036 -0.5399 -0.1511
  925SOL     OW 3729   3.832   2.067   1.514  0.3164  0.3017  0.1870
  925SOL    HW2 3730   3.818   2.151   1.558  0.0049  0.8240 -0.8843
  925SOL    HW3 3731   3.761   2.011   1.547  0.8824  0.2595  1.3668
  925SOL    MW4 3732   3.821   2.071   1.524  0.3500  0.3650  0.2013
  926SOL     OW 3733   3.828   2.330   1.610  0.5478  0.5284 -0.0641
  926SOL    HW2 3734   3.845   2.331   1.704  0.8550  0.6872 -0.1191
  926SOL    HW3 3735   3.885   2.399   1.575 -0.7051  1.5270 -0.1742
  926SOL    MW4 3736   3.838   2.339   1.618  0.4230  0.6811 -0.0859
  927SOL     OW 3737   3.593   2.448   1.534  0.0785 -0.0425  0.1281
  927SOL    HW2 3738   3.602   2.539   1.562  1.5850  0.2438 -1.2339
  927SOL    HW3 3739   3.656   2.400   1.587 -0.3498 -0.2239  0.4793
  927SOL    MW4 3740   3.602   2.454   1.545  0.2208 -0.0286 -0.0052
  928SOL     OW 3741   3.614   2.720   1.601  0.1996  0.0822  0.3129
  928SOL    HW2 3742   3.609   2.709   1.696  0.0524  2.0413  0.5435
  928SOL    HW3 3743   3.524   2.738   1.574  0.2674 -0.3107 -0.1836
  928SOL    MW4 3744   3.602   2.721   1.610  0.1892  0.2888  0.2778
  929SOL     OW 3745   3.812   2.886   1.523  0.0824 -0.3952 -0.5509
  929SOL    HW2 3746   3.896   2.852   1.556  0.0181  0.4590  0.5227
  929SOL    HW3 3747   3.746   2.831   1.565 -0.2135  3.0206  3.9126
  929SOL    MW4 3748   3.815   2.874   1.533  0.0349  0.1682  0.1796
  930SOL     OW 3749   3.785   3.133   1.627  0.2502 -0.1832 -0.1999
  930SOL    HW2 3750   3.868   3.165   1.591  0.2970 -0.2145 -0.1198
  930SOL    HW3 3751   3.781   3.042   1.600 -0.5735  0.2653 -1.6817
  930SOL    MW4 3752   3.796   3.125   1.618  0.1477 -0.1281 -0.3848
  931SOL     OW 3753   3.567   3.262   1.507 -0.1071 -0.4887  0.3233
  931SOL    HW2 3754   3.631   3.202   1.547 -1.0891 -1.3001  0.6970
  931SOL    HW3 3755   3.554   3.228   1.419  0.8263  0.3469 -0.1458
  931SOL    MW4 3756   3.574   3.250   1.501 -0.1135 -0.4855  0.3107
  932SOL     OW 3757   3.580   3.520   1.623  0.4829  0.2204  0.1250
  932SOL    HW2 3758   3.662   3.565   1.601  0.8068 -0.1563  0.5607
  932SOL    HW3 3759   3.582   3.440   1.571  0.6313 -0.0327  0.5176
  932SOL    MW4 3760   3.591   3.516   1.613  0.5452  0.1373  0.2343
  933SOL     OW 3761   3.823   3.639   1.504  0.1245 -0.6231 -0.0926
  933SOL    HW2 3762   3.900   3.598   1.544 -0.6975 -0.5307  1.6142
  933SOL    HW3 3763   3.822   3.728   1.540  1.2676  0.6010 -2.9252
  933SOL    MW4 3764   3.833   3.645   1.514  0.1668 -0.4494 -0.2411
  934SOL     OW 3765   3.777   3.902   1.615  0.0842  0.3957 -0.1969
  934SOL    HW2 3766   3.860   3.937   1.584  0.5676  0.3877  1.1011
  934SOL    HW3 3767   3.713   3.932   1.549  0.8798  1.6144 -0.4328
  934SOL    MW4 3768   3.779   3.911   1.602  0.2529  0.5555 -0.0568
  935SOL     OW 3769   3.561   4.005   1.465  0.1153  0.2921  0.2472
  935SOL    HW2 3770   3.582   4.093   1.498  1.1216  0.3166 -0.4542
  935SOL    HW3 3771   3.483   3.980   1.514  0.7944  0.8941  1.6760
  935SOL    MW4 3772   3.554   4.013   1.476  0.3377  0.3748  0.3432
  936SOL     OW 3773   3.608   4.266   1.577  0.2302  0.1532 -0.4425
  936SOL    HW2 3774   3.613   4.285   1.671  0.6355 -1.9103 -0.0290
  936SOL    HW3 3775   3.535   4.320   1.545 -0.0287  0.7182  1.0808
  936SOL    MW4 3776   3.599   4.276   1.585  0.2495 -0.0445 -0.1870
  937SOL     OW 3777   3.849   4.349   1.462  0.2339  0.0992 -0.3998
  937SOL    HW2 3778   3.773   4.306   1.500  1.3951 -0.4860  1.3183
  937SOL    HW3 3779   3.842   4.440   1.490 -0.8940  0.5108 -1.9502
  937SOL    MW4 3780   3.838   4.356   1.471  0.2383  0.0763 -0.3777
  938SOL     OW 3781   4.287   0.019   1.550  0.0889  0.2052  0.1448
  938SOL    HW2 3782   4.290   0.022   1.646  0.0414 -0.4597  0.1691
  938SOL    HW3 3783   4.289  -0.075   1.529 -0.7143  0.3308 -0.4853
  938SOL    MW4 3784   4.288   0.007   1.560 -0.0234  0.1341  0.0649
  939SOL     OW 3785   4.020   0.097   1.468  0.1255  0.5147  0.7032
  939SOL    HW2 3786   4.008   0.179   1.517  1.4346  1.1288  0.0081
  939SOL    HW3 3787   4.108   0.068   1.491 -0.3787 -0.7775  1.0440
  939SOL    MW4 3788   4.030   0.104   1.478  0.2317  0.4253  0.6565
  940SOL     OW 3789   4.019   0.346   1.611  0.2770  0.0314 -0.2089
  940SOL    HW2 3790   4.028   0.365   1.704  1.7315  0.5342 -0.4429
  940SOL    HW3 3791   3.950   0.406   1.581  0.1206  0.1842  0.4430
  940SOL    MW4 3792   4.011   0.356   1.620  0.4483  0.1179 -0.1538
  941SOL     OW 3793   4.253   0.437   1.474  0.1403  0.0492 -0.2002
  941SOL    HW2 3794   4.173   0.414   1.522 -0.9354  1.4824 -1.2735
  941SOL    HW3 3795   4.324   0.399   1.527 -1.0476  1.0051  2.1753
  941SOL    MW4 3796   4.252   0.429   1.488 -0.1583  0.3644 -0.0284
  942SOL     OW 3797   4.244   0.725   1.581 -0.3720  0.8175 -0.2482
  942SOL    HW2 3798   4.259   0.636   1.548 -0.1103  0.0734  1.8374
  942SOL    HW3 3799   4.327   0.771   1.566 -0.4659  0.6853 -1.2114
  942SOL    MW4 3800   4.257   0.719   1.574 -0.3499  0.7018 -0.1001
  943SOL     OW 3801   4.035   0.894   1.506 -0.1838 -0.0560 -0.2149
  943SOL    HW2 3802   4.108   0.837   1.531 -0.1143  0.1546  0.0716
  943SOL    HW3 3803   3.957   0.851   1.541  0.1565  1.5475  2.7272
  943SOL    MW4 3804   4.034   0.881   1.514 -0.1297  0.1833  0.2111
  944SOL     OW 3805   4.026   1.160   1.591 -0.3107  0.1150 -0.2676
  944SOL    HW2 3806   4.033   1.149   1.686  2.2375  1.4626 -0.2599
  944SOL    HW3 3807   4.051   1.075   1.555 -2.1815 -0.6835  0.2668
  944SOL    MW4 3808   4.030   1.147   1.599 -0.2213  0.1875 -0.1961
  945SOL     OW 3809   4.231   1.315   1.499  0.0454 -0.2661  0.2774
  945SOL    HW2 3810   4.160   1.272   1.546  0.6810 -0.4595  1.0741
  945SOL    HW3 3811   4.308   1.262   1.519  0.6237  0.6033  0.3531
  945SOL    MW4 3812   4.232   1.302   1.508  0.2056 -0.1769  0.3925
  946SOL     OW 3813   4.301   1.558   1.624  0.2186 -0.4056 -0.1267
  946SOL    HW2 3814   4.287   1.472   1.585  0.2122 -1.3418  1.8813
  946SOL    HW3 3815   4.377   1.594   1.576 -1.3571 -0.4103 -2.7020
  946SOL    MW4 3816   4.309   1.552   1.613  0.0098 -0.5297 -0.2015
  947SOL     OW 3817   4.059   1.696   1.522 -0.3189  0.3422  0.1575
  947SOL    HW2 3818   4.135   1.644   1.548 -0.1007  0.8932  0.6510
  947SOL    HW3 3819   3.984   1.650   1.560 -0.2105 -0.0541 -0.1007
  947SOL    MW4 3820   4.059   1.683   1.531 -0.2758  0.3626  0.1886
  948SOL     OW 3821   4.049   1.938   1.636 -0.4002 -0.6884  0.4174
  948SOL    HW2 3822   4.053   1.854   1.591  2.6488  0.3306 -1.4178
  948SOL    HW3 3823   3.973   1.982   1.598  0.7879 -0.7540 -2.2010
  948SOL    MW4 3824   4.040   1.933   1.625  0.1588 -0.5626 -0.1702
  949SOL     OW 3825   4.271   2.065   1.532 -0.5246 -0.3096  0.2306
  949SOL    HW2 3826   4.196   2.018   1.569 -0.9436  0.5059  0.4172
  949SOL    HW3 3827   4.253   2.069   1.439 -0.7835  0.0020  0.2920
  949SOL    MW4 3828   4.259   2.059   1.525 -0.6140 -0.1609  0.2633
  950SOL     OW 3829   4.230   2.328   1.598  0.1502 -0.0990  0.1313
  950SOL    HW2 3830   4.249   2.351   1.689  0.6028 -0.4925  0.1383
  950SOL    HW3 3831   4.235   2.233   1.596  1.3622 -0.0257 -0.5702
  950SOL    MW4 3832   4.233   2.319   1.610  0.3698 -0.1412  0.0397
  951SOL     OW 3833   4.025   2.493   1.517  0.0139 -0.3392 -0.0347
  951SOL    HW2 3834   4.039   2.573   1.567 -1.4637 -0.9561  1.3993
  951SOL    HW3 3835   4.095   2.434   1.546 -2.2837 -1.5773  3.2199
  951SOL    MW4 3836   4.036   2.496   1.527 -0.4842 -0.5839  0.5839
  952SOL     OW 3837   4.032   2.764   1.630  0.5246  0.0937 -0.2607
  952SOL    HW2 3838   4.038   2.734   1.721 -0.0300  0.8187  0.0239
  952SOL    HW3 3839   4.122   2.786   1.606  0.8359 -1.1849 -0.2591
  952SOL    MW4 3840   4.044   2.763   1.639  0.4925  0.0206 -0.2229
  953SOL     OW 3841   4.300   2.847   1.546 -0.3688  0.1842 -0.6301
  953SOL    HW2 3842   4.301   2.939   1.571 -1.9193  0.0410 -0.0026
  953SOL    HW3 3843   4.278   2.847   1.453  0.0305  0.4700 -0.7226
  953SOL    MW4 3844   4.297   2.859   1.537 -0.5207  0.2030 -0.5595
  954SOL     OW 3845   4.279   3.102   1.623 -0.0798 -0.3693  0.5802
  954SOL    HW2 3846   4.275   3.095   1.719  0.3777 -1.1817  0.5454
  954SOL    HW3 3847   4.358   3.155   1.607  0.3615 -1.0055  0.6272
  954SOL    MW4 3848   4.289   3.108   1.634  0.0388 -0.5604  0.5818
  955SOL     OW 3849   4.045   3.230   1.519 -0.1704 -0.0055 -0.1584
  955SOL    HW2 3850   4.047   3.316   1.561  0.8843  0.7735 -1.7629
  955SOL    HW3 3851   4.123   3.186   1.551 -0.6255 -0.3253  0.5368
  955SOL    MW4 3852   4.055   3.235   1.529 -0.0913  0.0551 -0.2783
  956SOL     OW 3853   4.044   3.500   1.609  0.0798 -0.1263  0.1609
  956SOL    HW2 3854   4.040   3.504   1.705  0.9448 -0.2277  0.2104
  956SOL    HW3 3855   4.133   3.528   1.588  0.1519 -0.8902 -0.5647
  956SOL    MW4 3856   4.055   3.504   1.619  0.2035 -0.2405  0.0717
  957SOL     OW 3857   4.311   3.601   1.536  0.4053  0.6015 -0.1859
  957SOL    HW2 3858   4.295   3.693   1.555  2.6750  0.9199  0.2842
  957SOL    HW3 3859   4.301   3.593   1.441  1.9254  1.7064 -0.4510
  957SOL    MW4 3860   4.308   3.612   1.526  0.9053  0.7893 -0.1589
  958SOL     OW 3861   4.257   3.856   1.600 -0.6931  0.2782 -0.3050
  958SOL    HW2 3862   4.178   3.893   1.561 -1.2523 -1.1504 -0.5425
  958SOL    HW3 3863   4.328   3.913   1.568 -1.1956 -0.5844 -3.0623
  958SOL    MW4 3864   4.256   3.869   1.590 -0.8332 -0.0241 -0.7001
  959SOL     OW 3865   4.018   3.968   1.501 -0.6017  0.0277 -0.1064
  959SOL    HW2 3866   4.043   4.057   1.525  1.1130 -0.5611  0.3300
  959SOL    HW3 3867   4.033   3.964   1.406 -0.6993  0.1932 -0.1303
  959SOL    MW4 3868   4.023   3.979   1.492 -0.3883 -0.0282 -0.0520
  960SOL     OW 3869   4.087   4.237   1.573 -0.5997 -0.1180 -0.3544
  960SOL    HW2 3870   4.074   4.235   1.667  0.5774  0.1547 -0.1741
  960SOL    HW3 3871   4.026   4.303   1.541 -0.4734  0.3284  0.3142
  960SOL    MW4 3872   4.078   4.245   1.581 -0.4277 -0.0231 -0.2424
  961SOL     OW 3873   4.285   4.413   1.496 -0.0151 -0.1579  0.4523
  961SOL    HW2 3874   4.228   4.347   1.535 -1.4708  0.3837 -0.7281
  961SOL    HW3 3875   4.279   4.398   1.402 -0.7211  1.9135  0.1325
  961SOL    MW4 3876   4.277   4.403   1.489 -0.3003  0.1869  0.2543
  962SOL     OW 3877   0.228   4.656   1.882  0.3064 -0.1401  0.1909
  962SOL    HW2 3878   0.301   4.704   1.921 -0.4235  1.4188 -0.3145
  962SOL    HW3 3879   0.239   4.668   1.788 -0.2719 -0.3884  0.0879
  962SOL    MW4 3880   0.239   4.664   1.875  0.1338  0.0328  0.1107
  963SOL     OW 3881   4.484   0.126   1.929  0.0583  0.7737  0.0739
  963SOL    HW2 3882   4.503   0.218   1.912  2.6211  0.1084 -0.8862
  963SOL    HW3 3883   4.562   0.079   1.900 -1.3027 -1.7409  0.2909
  963SOL    MW4 3884   4.497   0.132   1.923  0.2169  0.3542 -0.0241
  964SOL     OW 3885   0.042   0.394   1.877 -0.4828  0.0754 -0.0467
  964SOL    HW2 3886  -0.037   0.424   1.921 -0.8389 -2.3405  1.0505
  964SOL    HW3 3887   0.114   0.436   1.924 -1.0900  2.2805 -1.0527
  964SOL    MW4 3888   0.041   0.403   1.889 -0.6099  0.0476 -0.0347
  965SOL     OW 3889   0.252   0.534   2.013  0.3549  0.8015  0.6891
  965SOL    HW2 3890   0.311   0.476   1.966 -0.0035  1.5758 -0.7419
  965SOL    HW3 3891   0.239   0.608   1.954 -2.4736  0.3887  0.7306
  965SOL    MW4 3892   0.258   0.536   1.999 -0.0656  0.8492  0.5058
  966SOL     OW 3893   0.229   0.777   1.873 -0.0087 -0.0423 -0.0364
  966SOL    HW2 3894   0.301   0.835   1.897 -0.3589  1.0424 -1.5074
  966SOL    HW3 3895   0.223   0.785   1.778 -1.2830 -1.0556 -0.0494
  966SOL    MW4 3896   0.238   0.786   1.864 -0.2230 -0.0329 -0.2322
  967SOL     OW 3897   4.486   0.907   1.963 -0.1288 -0.1414  0.0031
  967SOL    HW2 3898   4.417   0.855   1.923 -0.0495 -1.1280  1.1288
  967SOL    HW3 3899   4.567   0.869   1.929 -0.0751 -0.6734  0.7104
  967SOL    MW4 3900   4.488   0.895   1.953 -0.1113 -0.3417  0.2449
  968SOL     OW 3901   4.474   1.167   1.875 -0.4189  0.0816 -0.2603
  968SOL    HW2 3902   4.410   1.225   1.918  0.8850  0.8273  0.7040
  968SOL    HW3 3903   4.467   1.084   1.923 -2.3744 -0.6511 -1.7181
  968SOL    MW4 3904   4.465   1.164   1.887 -0.5049  0.0833 -0.3254
  969SOL     OW 3905   0.220   1.305   1.947 -0.1687  0.1271  0.3180
  969SOL    HW2 3906   0.212   1.399   1.933 -0.8854  0.5442  3.1708
  969SOL    HW3 3907   0.148   1.266   1.897 -0.0456  1.1109 -0.6238
  969SOL    MW4 3908   0.210   1.312   1.939 -0.2470  0.3119  0.5701
  970SOL     OW 3909   0.209   1.586   1.875  0.2942  0.5799 -0.3710
  970SOL    HW2 3910   0.278   1.629   1.923 -0.1750  0.4660  0.4099
  970SOL    HW3 3911   0.129   1.631   1.902 -0.0287  0.1801 -0.6509
  970SOL    MW4 3912   0.207   1.597   1.885  0.1897  0.5121 -0.3049
  971SOL     OW 3913   4.490   1.713   1.997 -0.0065 -0.4910  0.1484
  971SOL    HW2 3914   4.499   1.702   2.092  0.4396 -0.9497  0.0543
  971SOL    HW3 3915   4.407   1.670   1.975 -0.1731 -0.2735  0.3470
  971SOL    MW4 3916   4.480   1.706   2.007  0.0304 -0.5229  0.1622
  972SOL     OW 3917   4.479   1.954   1.890 -0.0711 -0.4670  0.3579
  972SOL    HW2 3918   4.404   1.999   1.929  0.3681 -1.4690  2.4708
  972SOL    HW3 3919   4.477   1.867   1.929  1.5601 -0.8686 -0.4086
  972SOL    MW4 3920   4.469   1.948   1.900  0.2021 -0.6521  0.5355
  973SOL     OW 3921   0.235   2.065   1.984  0.0386 -0.2631  0.2963
  973SOL    HW2 3922   0.236   2.154   1.947  0.5822 -0.3020  0.2157
  973SOL    HW3 3923   0.154   2.027   1.952  0.1934 -0.0696 -0.3374
  973SOL    MW4 3924   0.225   2.072   1.975  0.1308 -0.2427  0.2020
  974SOL     OW 3925   0.228   2.323   1.878  0.1393  0.8655 -0.3213
  974SOL    HW2 3926   0.313   2.366   1.887  0.3148  0.5689 -0.5431
  974SOL    HW3 3927   0.165   2.384   1.917  0.5731  0.6572  0.7313
  974SOL    MW4 3928   0.231   2.336   1.884  0.2197  0.7989 -0.2117
  975SOL     OW 3929   0.009   2.475   2.004  0.2770  0.2582  0.4708
  975SOL    HW2 3930   0.001   2.471   2.099  0.3773  0.8349  0.5006
  975SOL    HW3 3931   0.032   2.566   1.985  2.7310 -0.3817  0.1073
  975SOL    MW4 3932   0.011   2.486   2.014  0.6140  0.2499  0.4268
  976SOL     OW 3933   0.033   2.756   1.928  0.2131  0.4482 -0.0247
  976SOL    HW2 3934  -0.057   2.777   1.953 -0.4807 -0.4838 -1.5951
  976SOL    HW3 3935   0.026   2.734   1.835  1.7174 -1.5993  0.3239
  976SOL    MW4 3936   0.020   2.756   1.919  0.3200  0.0551 -0.1859
  977SOL     OW 3937   0.278   2.844   1.999 -0.1863  0.3241 -0.2168
  977SOL    HW2 3938   0.278   2.932   1.961 -0.7432  0.5130  0.2150
  977SOL    HW3 3939   0.191   2.809   1.980 -0.1699  0.0898  0.1302
  977SOL    MW4 3940   0.266   2.851   1.992 -0.2576  0.3181 -0.1140
  978SOL     OW 3941   0.257   3.089   1.907  0.3773  0.0380  0.0432
  978SOL    HW2 3942   0.333   3.144   1.926  0.7239 -0.3130 -0.3464
  978SOL    HW3 3943   0.255   3.082   1.812  0.7207 -1.1871  0.1263
  978SOL    MW4 3944   0.266   3.096   1.897  0.4684 -0.1699  0.0028
  979SOL     OW 3945   0.031   3.205   2.014  0.2264 -0.1014 -0.2273
  979SOL    HW2 3946  -0.043   3.161   1.971  1.0275  0.0329 -1.7754
  979SOL    HW3 3947   0.108   3.167   1.973  0.9621  1.8567 -0.7143
  979SOL    MW4 3948   0.031   3.194   2.003  0.4292  0.1747 -0.4958
  980SOL     OW 3949   0.017   3.454   1.905 -0.0029 -0.5211  0.4757
  980SOL    HW2 3950   0.097   3.499   1.932 -0.8390  0.3766  1.4717
  980SOL    HW3 3951   0.027   3.365   1.939  1.1879 -0.8285 -0.6101
  980SOL    MW4 3952   0.029   3.448   1.913  0.0439 -0.4432  0.4638
  981SOL     OW 3953   0.247   3.596   1.984 -0.3574  0.0724  0.1150
  981SOL    HW2 3954   0.245   3.597   2.079 -0.1986  0.4264  0.1168
  981SOL    HW3 3955   0.332   3.557   1.962 -0.7849 -0.8680  0.1119
  981SOL    MW4 3956   0.258   3.591   1.993 -0.3928 -0.0050  0.1149
  982SOL     OW 3957   0.194   3.859   1.877  0.2363 -0.3162  0.4546
  982SOL    HW2 3958   0.266   3.914   1.908  0.9732  0.0112 -1.7236
  982SOL    HW3 3959   0.213   3.772   1.913  1.0643  0.0355  0.8774
  982SOL    MW4 3960   0.206   3.855   1.886  0.4427 -0.2266  0.2230
  983SOL     OW 3961   4.472   3.992   1.997 -0.0995 -0.3825 -0.1262
  983SOL    HW2 3962   4.475   4.083   1.967  1.1371 -0.5407 -0.5171
  983SOL    HW3 3963   4.550   3.952   1.959 -0.1203 -1.3593  0.8398
  983SOL    MW4 3964   4.483   3.999   1.988  0.0609 -0.5323 -0.0503
  984SOL     OW 3965   4.459   4.254   1.890  0.1903  0.2870  0.1604
  984SOL    HW2 3966   4.383   4.312   1.890  0.6265  0.8669 -0.1367
  984SOL    HW3 3967   4.532   4.310   1.917  0.6968 -0.0097 -0.5671
  984SOL    MW4 3968   4.459   4.269   1.894  0.3146  0.3244  0.0252
  985SOL     OW 3969   0.218   4.385   1.971 -0.3674  0.2204  0.7194
  985SOL    HW2 3970   0.235   4.381   2.065  1.1708  2.2236  0.5708
  985SOL    HW3 3971   0.231   4.477   1.949 -0.1008 -0.3434 -1.5521
  985SOL    MW4 3972   0.222   4.397   1.981 -0.1293  0.4103  0.4001
  986SOL     OW 3973   0.682   0.001   1.910 -0.6546  0.0142 -0.3001
  986SOL    HW2 3974   0.661  -0.085   1.946 -1.7499  0.5505  0.3574
  986SOL    HW3 3975   0.672  -0.010   1.816 -1.6223 -0.3603 -0.1635
  986SOL    MW4 3976   0.678  -0.012   1.903 -0.9268  0.0356 -0.1954
  987SOL     OW 3977   0.453   0.121   1.991  0.0906  0.4079  0.3439
  987SOL    HW2 3978   0.465   0.211   1.961 -1.0245 -0.2335 -2.0729
  987SOL    HW3 3979   0.530   0.074   1.959  0.3496  0.3503  1.0417
  987SOL    MW4 3980   0.465   0.127   1.983 -0.0224  0.3157  0.1171
  988SOL     OW 3981   0.459   0.387   1.870  0.0471  0.3362  0.4399
  988SOL    HW2 3982   0.537   0.427   1.908 -0.7584  0.6478  1.7958
  988SOL    HW3 3983   0.461   0.412   1.778  0.2744  2.3524  0.9823
  988SOL    MW4 3984   0.470   0.396   1.863 -0.0292  0.6434  0.6904
  989SOL     OW 3985   0.687   0.507   1.948  0.2849  0.2964 -0.4657
  989SOL    HW2 3986   0.677   0.511   2.043 -1.1611 -0.5774 -0.5560
  989SOL    HW3 3987   0.764   0.452   1.934 -0.3355 -0.7891  0.2113
  989SOL    MW4 3988   0.696   0.500   1.958  0.0122  0.0379 -0.3883
  990SOL     OW 3989   0.660   0.782   1.886  0.2215  0.3957 -0.0608
  990SOL    HW2 3990   0.745   0.804   1.925  0.0938  3.0732 -1.1884
  990SOL    HW3 3991   0.652   0.687   1.898  1.7382  0.6009  3.2957
  990SOL    MW4 3992   0.670   0.772   1.893  0.4047  0.7761  0.2333
  991SOL     OW 3993   0.432   0.919   1.966 -0.0852 -0.4645  0.4572
  991SOL    HW2 3994   0.439   0.913   2.061  0.5149  0.2558  0.4599
  991SOL    HW3 3995   0.505   0.867   1.933  1.3369  1.4630  0.4303
  991SOL    MW4 3996   0.442   0.912   1.974  0.1816 -0.1152  0.4540
  992SOL     OW 3997   0.447   1.168   1.845  0.2543 -0.2098  0.3254
  992SOL    HW2 3998   0.372   1.211   1.886  1.0542  0.8621  0.6809
  992SOL    HW3 3999   0.452   1.083   1.889  0.3826  0.4542  1.6460
  992SOL    MW4 4000   0.438   1.162   1.856  0.3768  0.0192  0.5465
  993SOL     OW 4001   0.671   1.294   1.930  0.4732 -0.2713  0.0198
  993SOL    HW2 4002   0.670   1.267   2.022  0.8498 -0.0231  0.0968
  993SOL    HW3 4003   0.599   1.245   1.890 -1.1720  1.3428  0.9375
  993SOL    MW4 4004   0.662   1.284   1.937  0.3058 -0.0256  0.1510
  994SOL     OW 4005   0.693   1.559   1.835 -0.2047 -0.0232 -0.1881
  994SOL    HW2 4006   0.693   1.478   1.885 -2.0261  0.0808  0.0083
  994SOL    HW3 4007   0.665   1.534   1.747  2.0281 -0.0422 -0.9345
  994SOL    MW4 4008   0.690   1.545   1.830 -0.1504 -0.0120 -0.2606
  995SOL     OW 4009   0.465   1.662   1.978 -0.2362  0.3519  0.0030
  995SOL    HW2 4010   0.479   1.648   2.071 -0.8316 -0.5057 -0.0272
  995SOL    HW3 4011   0.544   1.629   1.936 -0.1371  0.3618  0.1818
  995SOL    MW4 4012   0.477   1.656   1.985 -0.3017  0.2400  0.0226
  996SOL     OW 4013   0.474   1.930   1.903  0.3064  0.0173  0.0449
  996SOL    HW2 4014   0.471   1.841   1.938 -1.6352 -0.6345 -1.7088
  996SOL    HW3 4015   0.400   1.974   1.945  0.0988  0.2424 -0.5549
  996SOL    MW4 4016   0.464   1.924   1.913  0.0229 -0.0390 -0.2656
  997SOL     OW 4017   0.721   2.072   1.947 -0.2308  0.7213  0.0382
  997SOL    HW2 4018   0.735   2.076   2.042  1.2280 -1.8235 -0.0375
  997SOL    HW3 4019   0.637   2.027   1.937  0.4065 -0.4923  0.0965
  997SOL    MW4 4020   0.712   2.067   1.958  0.0457  0.2254  0.0359
  998SOL     OW 4021   0.718   2.341   1.832 -0.1972  0.4035  0.0172
  998SOL    HW2 4022   0.719   2.247   1.854 -1.6547  0.4824  0.4658
  998SOL    HW3 4023   0.696   2.343   1.739  0.1762  0.2924 -0.0760
  998SOL    MW4 4024   0.715   2.329   1.823 -0.3402  0.3993  0.0641
  999SOL     OW 4025   0.486   2.451   1.943 -0.0674  0.1297  0.3177
  999SOL    HW2 4026   0.491   2.464   2.038 -0.0265  0.2600  0.2973
  999SOL    HW3 4027   0.572   2.416   1.920  0.1371  0.6787  0.2376
  999SOL    MW4 4028   0.498   2.448   1.953 -0.0350  0.2193  0.3044
 1000SOL     OW 4029   0.501   2.756   1.885 -0.4508 -0.3095  0.4867
 1000SOL    HW2 4030   0.523   2.668   1.914  0.3759 -0.0155  0.7642
 1000SOL    HW3 4031   0.426   2.781   1.939  0.2463 -0.2787  1.4609
 1000SOL    MW4 4032   0.494   2.748   1.896 -0.2497 -0.2667  0.6518
 1001SOL     OW 4033   0.754   2.848   1.973  0.1868  0.1027  0.2018
 1001SOL    HW2 4034   0.744   2.843   2.068 -0.4502  0.5148  0.1610
 1001SOL    HW3 4035   0.669   2.818   1.939  0.1095  0.7993 -0.2222
 1001SOL    MW4 4036   0.741   2.843   1.981  0.0925  0.2490  0.1405
 1002SOL     OW 4037   0.697   3.092   1.884 -0.2248  0.0598 -0.3970
 1002SOL    HW2 4038   0.715   2.999   1.901  1.3352  0.3634 -0.2683
 1002SOL    HW3 4039   0.715   3.102   1.790 -2.8039 -0.2855 -0.9551
 1002SOL    MW4 4040   0.702   3.081   1.874 -0.3592  0.0543 -0.4537
 1003SOL     OW 4041   0.480   3.194   1.997  0.0839  0.4434 -0.0057
 1003SOL    HW2 4042   0.482   3.280   1.956 -1.1249 -0.0275 -1.0670
 1003SOL    HW3 4043   0.558   3.149   1.963  0.0077  0.6570 -0.4658
 1003SOL    MW4 4044   0.491   3.200   1.987 -0.0856  0.4094 -0.2064
 1004SOL     OW 4045   0.474   3.457   1.912 -0.0663  0.1714 -0.3894
 1004SOL    HW2 4046   0.558   3.492   1.941  0.9794 -2.6742  0.1592
 1004SOL    HW3 4047   0.473   3.474   1.818  0.7488  0.9613 -0.2655
 1004SOL    MW4 4048   0.485   3.464   1.903  0.1792 -0.0998 -0.3007
 1005SOL     OW 4049   0.696   3.623   2.020 -1.0716  0.0759  0.6155
 1005SOL    HW2 4050   0.755   3.576   1.961 -1.1956 -0.2902  0.7761
 1005SOL    HW3 4051   0.687   3.710   1.982 -1.4925 -0.2898 -0.1302
 1005SOL    MW4 4052   0.703   3.628   2.008 -1.1435 -0.0206  0.5383
 1006SOL     OW 4053   0.668   3.861   1.867  0.1466 -0.2324 -0.5731
 1006SOL    HW2 4054   0.728   3.930   1.896  0.6499 -0.4669 -1.0525
 1006SOL    HW3 4055   0.670   3.866   1.771  0.1841 -0.9215 -0.6074
 1006SOL    MW4 4056   0.676   3.871   1.858  0.2179 -0.3542 -0.6409
 1007SOL     OW 4057   0.430   4.000   1.970  0.2223 -0.6059  0.4873
 1007SOL    HW2 4058   0.429   4.090   1.936 -0.0033 -0.7527  0.0900
 1007SOL    HW3 4059   0.505   3.959   1.927 -1.7132 -1.6251 -2.0983
 1007SOL    MW4 4060   0.439   4.006   1.960 -0.0628 -0.7597  0.0937
 1008SOL     OW 4061   0.439   4.264   1.863 -0.0239  0.0010 -0.4959
 1008SOL    HW2 4062   0.352   4.301   1.875  0.2057  0.4355 -0.1346
 1008SOL    HW3 4063   0.453   4.266   1.769  0.3312  1.6742 -0.4317
 1008SOL    MW4 4064   0.429   4.270   1.853  0.0532  0.2791 -0.4397
 1009SOL     OW 4065   0.637   4.408   1.983 -0.0502  0.1902  0.2378
 1009SOL    HW2 4066   0.714   4.359   1.954  0.5698  0.5037  1.3283
 1009SOL    HW3 4067   0.563   4.359   1.947  0.6050 -0.8151  0.2181
 1009SOL    MW4 4068   0.637   4.395   1.974  0.1181  0.0989  0.3791
 1010SOL     OW 4069   1.122   4.613   1.833 -0.0026 -0.0178 -0.2026
 1010SOL    HW2 4070   1.197   4.668   1.857  1.2051 -1.4474 -0.6312
 1010SOL    HW3 4071   1.121   4.544   1.899 -0.2965 -0.6139 -0.8272
 1010SOL    MW4 4072   1.132   4.612   1.845  0.1179 -0.2851 -0.3416
 1011SOL     OW 4073   0.930   0.100   1.969 -0.4087 -0.2156 -0.3784
 1011SOL    HW2 4074   0.996   0.048   1.923  0.5014 -0.8458  1.5754
 1011SOL    HW3 4075   0.850   0.047   1.964  0.5330 -1.9075  1.6701
 1011SOL    MW4 4076   0.928   0.086   1.962 -0.1644 -0.5220  0.1497
 1012SOL     OW 4077   0.907   0.359   1.874  0.2250  0.0959 -0.3599
 1012SOL    HW2 4078   0.989   0.401   1.900  0.8635 -1.3248 -0.0084
 1012SOL    HW3 4079   0.914   0.270   1.908 -1.6104  0.0510 -0.0442
 1012SOL    MW4 4080   0.919   0.352   1.882  0.0671 -0.0975 -0.2719
 1013SOL     OW 4081   1.151   0.500   1.964  0.0367  0.0643  0.1070
 1013SOL    HW2 4082   1.227   0.447   1.936 -0.5481  0.2856 -1.9863
 1013SOL    HW3 4083   1.158   0.580   1.912 -1.6646  0.0623 -0.1243
 1013SOL    MW4 4084   1.162   0.503   1.954 -0.2649  0.0933 -0.1997
 1014SOL     OW 4085   1.176   0.736   1.846  0.0444 -0.0008 -0.4062
 1014SOL    HW2 4086   1.250   0.776   1.891  0.7664 -1.4303 -0.2962
 1014SOL    HW3 4087   1.099   0.772   1.890  0.6798  0.7755  0.0955
 1014SOL    MW4 4088   1.176   0.746   1.858  0.2235 -0.0870 -0.3255
 1015SOL     OW 4089   0.918   0.864   1.952 -0.0664  0.2355  0.4575
 1015SOL    HW2 4090   0.916   0.857   2.047  2.4602  0.1130  0.5314
 1015SOL    HW3 4091   0.928   0.958   1.935  0.2285  0.1791  0.3258
 1015SOL    MW4 4092   0.919   0.876   1.962  0.3059  0.2119  0.4499
 1016SOL     OW 4093   0.895   1.148   1.861 -0.0368 -0.1342  0.3212
 1016SOL    HW2 4094   0.820   1.198   1.893  0.0524  1.2518 -1.5489
 1016SOL    HW3 4095   0.869   1.119   1.774  1.9024  1.1418 -0.7303
 1016SOL    MW4 4096   0.881   1.151   1.854  0.2308  0.2170 -0.0643
 1017SOL     OW 4097   1.141   1.256   1.947  0.0603  0.5417 -0.4775
 1017SOL    HW2 4098   1.151   1.346   1.914  0.0528  0.1895 -1.4642
 1017SOL    HW3 4099   1.069   1.220   1.896 -0.1820  0.0902  0.1829
 1017SOL    MW4 4100   1.133   1.263   1.936  0.0273  0.4357 -0.5205
 1018SOL     OW 4101   1.159   1.530   1.853  0.4458 -0.1845  0.2142
 1018SOL    HW2 4102   1.080   1.565   1.895 -0.4186 -3.6264  1.6242
 1018SOL    HW3 4103   1.142   1.540   1.759 -1.4896 -0.4080  0.5215
 1018SOL    MW4 4104   1.146   1.536   1.846  0.0764 -0.6681  0.4408
 1019SOL     OW 4105   0.924   1.648   1.962 -0.0961 -0.4474  0.3361
 1019SOL    HW2 4106   0.905   1.734   1.923 -0.1994 -0.2680  0.7794
 1019SOL    HW3 4107   0.855   1.591   1.927 -0.1284 -0.3132  0.1739
 1019SOL    MW4 4108   0.912   1.652   1.952 -0.1140 -0.4060  0.3732
 1020SOL     OW 4109   0.901   1.900   1.847  0.4635 -0.3014 -0.1080
 1020SOL    HW2 4110   0.846   1.967   1.887 -0.1256 -1.0297  0.3205
 1020SOL    HW3 4111   0.908   1.926   1.755 -0.0268  0.1719 -0.0145
 1020SOL    MW4 4112   0.895   1.912   1.840  0.3211 -0.3350 -0.0391
 1021SOL     OW 4113   1.145   2.002   1.929 -0.8007  0.1114  0.4096
 1021SOL    HW2 4114   1.141   2.095   1.906 -0.6389 -0.2200 -1.0190
 1021SOL    HW3 4115   1.058   1.969   1.907 -0.7961 -0.1070  0.7287
 1021SOL    MW4 4116   1.133   2.010   1.923 -0.7787  0.0389  0.2632
 1022SOL     OW 4117   1.146   2.271   1.877  0.5527 -0.4790  0.1018
 1022SOL    HW2 4118   1.219   2.320   1.915 -0.2729  0.1662  0.8841
 1022SOL    HW3 4119   1.168   2.264   1.784  0.9103  0.9945  0.0563
 1022SOL    MW4 4120   1.159   2.277   1.870  0.4909 -0.1994  0.1990
 1023SOL     OW 4121   0.938   2.434   1.976  0.1397  0.2704 -0.0005
 1023SOL    HW2 4122   1.003   2.377   1.935 -0.4373 -0.3986  0.0179
 1023SOL    HW3 4123   0.854   2.401   1.946 -0.2430  0.4539  0.8582
 1023SOL    MW4 4124   0.936   2.422   1.967  0.0131  0.2063  0.1153
 1024SOL     OW 4125   0.969   2.702   1.886 -0.0322  0.5950 -0.1194
 1024SOL    HW2 4126   0.953   2.612   1.915 -0.2385  0.3006 -1.1170
 1024SOL    HW3 4127   0.899   2.753   1.927 -0.0647  0.2587  0.2451
 1024SOL    MW4 4128   0.958   2.697   1.895 -0.0637  0.5118 -0.2030
 1025SOL     OW 4129   1.165   2.853   1.975 -0.5273 -0.6047 -0.1032
 1025SOL    HW2 4130   1.155   2.876   2.067  1.6773 -0.0021  0.0006
 1025SOL    HW3 4131   1.093   2.791   1.958 -1.1707 -0.4414  1.9008
 1025SOL    MW4 4132   1.154   2.848   1.985 -0.3213 -0.5037  0.1749
 1026SOL     OW 4133   1.178   3.095   1.857  0.2365  0.0124 -0.0144
 1026SOL    HW2 4134   1.105   3.142   1.896  0.8974  0.6533  0.4541
 1026SOL    HW3 4135   1.169   3.005   1.889 -0.5022  0.0238 -0.1808
 1026SOL    MW4 4136   1.167   3.089   1.866  0.2262  0.0985  0.0255
 1027SOL     OW 4137   0.956   3.238   1.960  0.2567 -0.2007  0.1590
 1027SOL    HW2 4138   0.955   3.247   2.055 -1.5804  0.7475  0.0620
 1027SOL    HW3 4139   0.871   3.199   1.939  0.6882 -0.4833 -1.0840
 1027SOL    MW4 4140   0.945   3.234   1.970  0.0713 -0.1129 -0.0178
 1028SOL     OW 4141   0.874   3.484   1.857 -0.0936 -0.1634  0.5138
 1028SOL    HW2 4142   0.904   3.401   1.895  1.5782  0.7869  1.3757
 1028SOL    HW3 4143   0.874   3.469   1.763  1.7308 -0.6819  0.5748
 1028SOL    MW4 4144   0.878   3.471   1.850  0.3677 -0.1064  0.6356
 1029SOL     OW 4145   1.110   3.608   1.946  0.1961  0.1488  0.0279
 1029SOL    HW2 4146   1.125   3.594   2.040  1.0910  0.9144  0.0000
 1029SOL    HW3 4147   1.025   3.566   1.929  0.5990 -1.0644  0.9240
 1029SOL    MW4 4148   1.100   3.601   1.956  0.3673  0.0898  0.1424
 1030SOL     OW 4149   1.110   3.880   1.859 -0.1301 -0.4244 -0.1349
 1030SOL    HW2 4150   1.109   3.787   1.879 -0.6744 -0.4759 -0.3664
 1030SOL    HW3 4151   1.125   3.884   1.764  1.9692 -0.2028  0.1956
 1030SOL    MW4 4152   1.112   3.868   1.849  0.0751 -0.4020 -0.1219
 1031SOL     OW 4153   0.877   4.003   1.964  0.3508 -0.3230 -0.0589
 1031SOL    HW2 4154   0.898   4.006   2.057 -0.2427  2.5730  0.0100
 1031SOL    HW3 4155   0.953   3.960   1.924  1.0384 -0.7044  1.6106
 1031SOL    MW4 4156   0.890   3.998   1.971  0.3632  0.0087  0.1705
 1032SOL     OW 4157   0.859   4.271   1.888 -0.4036  0.2826  0.5483
 1032SOL    HW2 4158   0.943   4.307   1.917  0.1161  0.0053 -0.5884
 1032SOL    HW3 4159   0.859   4.181   1.921  0.6488 -0.3701 -1.1694
 1032SOL    MW4 4160   0.870   4.264   1.896 -0.1962  0.1599  0.1717
 1033SOL     OW 4161   1.090   4.383   1.984 -0.2748 -0.0533 -0.1499
 1033SOL    HW2 4162   1.104   4.383   2.078 -0.2852 -2.6800 -0.0946
 1033SOL    HW3 4163   1.169   4.342   1.948 -1.5206 -1.7817 -1.0087
 1033SOL    MW4 4164   1.102   4.378   1.991 -0.4405 -0.6279 -0.2559
 1034SOL     OW 4165   1.581   4.610   1.867 -0.1647  0.0694  0.2297
 1034SOL    HW2 4166   1.650   4.650   1.920 -0.0373 -1.3259  1.1625
 1034SOL    HW3 4167   1.587   4.517   1.887 -1.0673 -0.3016 -1.1635
 1034SOL    MW4 4168   1.591   4.603   1.877 -0.2670 -0.1636  0.1690
 1035SOL     OW 4169   1.351   0.086   1.953 -0.2796 -0.2497  0.0138
 1035SOL    HW2 4170   1.364   0.091   2.047  0.1302  0.6037 -0.0802
 1035SOL    HW3 4171   1.435   0.056   1.918  0.1720  1.2675 -0.2366
 1035SOL    MW4 4172   1.363   0.083   1.961 -0.1659  0.0631 -0.0316
 1036SOL     OW 4173   1.347   0.341   1.870 -0.0165  0.4255 -0.0621
 1036SOL    HW2 4174   1.364   0.252   1.901  1.2937  0.5517 -0.3810
 1036SOL    HW3 4175   1.331   0.332   1.776 -1.3017  0.3598  0.1617
 1036SOL    MW4 4176   1.347   0.328   1.862 -0.0132  0.4335 -0.0747
 1037SOL     OW 4177   1.587   0.489   1.979 -0.0042 -0.2682  0.1077
 1037SOL    HW2 4178   1.668   0.438   1.970  0.8520  1.3242 -1.4973
 1037SOL    HW3 4179   1.519   0.431   1.946  0.8638 -0.6274 -1.1046
 1037SOL    MW4 4180   1.589   0.475   1.974  0.2232 -0.1055 -0.2640
 1038SOL     OW 4181   1.557   0.716   1.812  0.4228  0.1757  0.4703
 1038SOL    HW2 4182   1.631   0.768   1.841  0.1409  0.7249  0.2088
 1038SOL    HW3 4183   1.575   0.628   1.846  2.1038 -0.1335 -1.1482
 1038SOL    MW4 4184   1.569   0.711   1.821  0.6074  0.2073  0.2222
 1039SOL     OW 4185   1.383   0.877   1.961  0.0969 -0.1730  0.1326
 1039SOL    HW2 4186   1.379   0.855   2.055  1.3484 -0.9650  0.0158
 1039SOL    HW3 4187   1.452   0.820   1.927  0.9533  1.4655 -0.9038
 1039SOL    MW4 4188   1.392   0.866   1.969  0.3750 -0.0614 -0.0196
 1040SOL     OW 4189   1.364   1.133   1.846 -0.5832  0.6116  0.0942
 1040SOL    HW2 4190   1.360   1.042   1.877 -1.7533  0.4951 -0.3612
 1040SOL    HW3 4191   1.285   1.174   1.881 -0.3699  1.2918 -0.2099
 1040SOL    MW4 4192   1.353   1.126   1.855 -0.7094  0.6860 -0.0060
 1041SOL     OW 4193   1.587   1.268   1.912  0.1899 -0.0694  0.0330
 1041SOL    HW2 4194   1.585   1.347   1.859 -0.6806  0.3896  0.7365
 1041SOL    HW3 4195   1.497   1.236   1.911  0.5906 -1.2157 -0.4753
 1041SOL    MW4 4196   1.575   1.274   1.905  0.1280 -0.1601  0.0587
 1042SOL     OW 4197   1.593   1.538   1.846  0.5139 -0.1863  0.0436
 1042SOL    HW2 4198   1.659   1.583   1.898 -1.1891  0.9262  1.3172
 1042SOL    HW3 4199   1.514   1.591   1.857 -0.9242 -2.1801 -0.3945
 1042SOL    MW4 4200   1.591   1.551   1.854  0.0994 -0.3026  0.1538
 1043SOL     OW 4201   1.365   1.665   1.928  0.0702 -0.0154  0.5643
 1043SOL    HW2 4202   1.364   1.663   2.024 -2.1833  1.1585  0.6073
 1043SOL    HW3 4203   1.283   1.623   1.902 -0.0148  0.9546 -0.7950
 1043SOL    MW4 4204   1.354   1.659   1.937 -0.2384  0.2675  0.3906
 1044SOL     OW 4205   1.356   1.895   1.780  0.2533 -0.2547 -0.3025
 1044SOL    HW2 4206   1.373   1.820   1.838  1.0895 -0.4398 -0.7803
 1044SOL    HW3 4207   1.274   1.933   1.813  1.2106  0.2018  1.5764
 1044SOL    MW4 4208   1.347   1.890   1.792  0.4899 -0.2189 -0.1177
 1045SOL     OW 4209   1.571   1.995   1.925 -0.7032  0.1294 -0.1587
 1045SOL    HW2 4210   1.578   2.087   1.897 -1.2518 -0.0226 -0.8166
 1045SOL    HW3 4211   1.490   1.964   1.885 -0.2822 -0.7764 -0.3227
 1045SOL    MW4 4212   1.561   2.003   1.916 -0.7201 -0.0102 -0.2672
 1046SOL     OW 4213   1.556   2.260   1.838 -0.3833 -0.0163 -0.0470
 1046SOL    HW2 4214   1.636   2.299   1.871  0.3292 -0.6925 -0.9295
 1046SOL    HW3 4215   1.553   2.286   1.746 -1.6472  0.7562  0.2036
 1046SOL    MW4 4216   1.566   2.269   1.830 -0.4560 -0.0036 -0.1304
 1047SOL     OW 4217   1.355   2.417   1.956  0.0309 -0.6255  0.3227
 1047SOL    HW2 4218   1.366   2.509   1.933 -1.0632 -0.8989 -1.3863
 1047SOL    HW3 4219   1.433   2.374   1.922 -0.5259 -0.6651 -0.9550
 1047SOL    MW4 4220   1.366   2.424   1.948 -0.1869 -0.6668 -0.0713
 1048SOL     OW 4221   1.353   2.681   1.877  0.1032  0.2526 -0.3059
 1048SOL    HW2 4222   1.280   2.723   1.922  0.3070 -0.9231  1.1695
 1048SOL    HW3 4223   1.330   2.685   1.784 -1.9565 -0.3345  0.1653
 1048SOL    MW4 4224   1.340   2.687   1.871 -0.1417  0.0200 -0.0491
 1049SOL     OW 4225   1.574   2.836   1.941  0.3758 -0.3685 -0.4463
 1049SOL    HW2 4226   1.654   2.783   1.937  1.2708  0.8185  1.2752
 1049SOL    HW3 4227   1.508   2.783   1.896  0.9854 -3.4121  2.0886
 1049SOL    MW4 4228   1.576   2.822   1.935  0.5743 -0.6135  0.1153
 1050SOL     OW 4229   1.579   3.099   1.881 -0.3955  0.1592 -0.1549
 1050SOL    HW2 4230   1.570   3.006   1.902 -2.7851  0.5453  0.6603
 1050SOL    HW3 4231   1.580   3.102   1.785 -2.2416 -0.5727 -0.2209
 1050SOL    MW4 4232   1.578   3.087   1.871 -0.9543  0.1135 -0.0561
 1051SOL     OW 4233   1.374   3.251   1.953 -0.2095  0.0487 -0.0946
 1051SOL    HW2 4234   1.455   3.207   1.928 -0.2288 -0.0837  0.0771
 1051SOL    HW3 4235   1.305   3.188   1.931 -0.1748 -0.4027  1.0493
 1051SOL    MW4 4236   1.376   3.237   1.947 -0.2074 -0.0283  0.0790
 1052SOL     OW 4237   1.359   3.508   1.864  0.0415  0.2572  0.2598
 1052SOL    HW2 4238   1.354   3.419   1.899  0.4035 -0.3893 -1.2866
 1052SOL    HW3 4239   1.270   3.542   1.872 -0.9407 -1.5535 -2.4846
 1052SOL    MW4 4240   1.347   3.501   1.870 -0.0403 -0.0670 -0.3063
 1053SOL     OW 4241   1.585   3.630   1.976 -0.0135  0.4331  0.1540
 1053SOL    HW2 4242   1.567   3.630   2.070 -0.6494  2.4062  0.0597
 1053SOL    HW3 4243   1.511   3.582   1.938  0.1736 -0.2562  0.6347
 1053SOL    MW4 4244   1.573   3.624   1.984 -0.0727  0.6025  0.2050
 1054SOL     OW 4245   1.587   3.899   1.877  0.0599  0.1702 -0.4057
 1054SOL    HW2 4246   1.667   3.940   1.910 -0.2145  1.0737 -0.8478
 1054SOL    HW3 4247   1.593   3.808   1.906 -0.1207  0.9089  2.0069
 1054SOL    MW4 4248   1.599   3.892   1.885 -0.0001  0.3869 -0.1457
 1055SOL     OW 4249   1.340   3.991   1.968  0.2191 -0.3214  0.1316
 1055SOL    HW2 4250   1.412   3.939   1.930  0.1188 -1.6769  1.7262
 1055SOL    HW3 4251   1.261   3.955   1.928  0.3231  0.2695 -0.6147
 1055SOL    MW4 4252   1.339   3.979   1.958  0.2196 -0.4222  0.2435
 1056SOL     OW 4253   1.331   4.254   1.894  0.3385 -0.4496  0.2991
 1056SOL    HW2 4254   1.355   4.166   1.922  0.5333 -0.2436  0.7957
 1056SOL    HW3 4255   1.327   4.249   1.799 -1.1872 -1.4003  0.3838
 1056SOL    MW4 4256   1.334   4.242   1.885  0.1629 -0.5478  0.3758
 1057SOL     OW 4257   1.589   4.345   1.960 -0.1795  0.0278  0.0380
 1057SOL    HW2 4258   1.581   4.349   2.056  0.0352 -0.7248  0.0937
 1057SOL    HW3 4259   1.502   4.318   1.930 -0.3329  0.5673 -0.0009
 1057SOL    MW4 4260   1.576   4.342   1.969 -0.1714 -0.0003  0.0402
 1058SOL     OW 4261   2.013   4.647   1.860  0.7959 -0.1287  0.2308
 1058SOL    HW2 4262   2.094   4.698   1.868  0.8688 -0.3638  1.0451
 1058SOL    HW3 4263   2.034   4.562   1.898  0.0732 -0.0820  0.7526
 1058SOL    MW4 4264   2.026   4.643   1.866  0.7101 -0.1535  0.4071
 1059SOL     OW 4265   1.801   0.058   1.990  0.0320 -0.0354 -0.3933
 1059SOL    HW2 4266   1.800   0.050   2.085  0.7803  1.8073 -0.2085
 1059SOL    HW3 4267   1.888   0.026   1.964 -0.3028 -0.8695 -0.4953
 1059SOL    MW4 4268   1.812   0.052   1.999  0.0866  0.0977 -0.3823
 1060SOL     OW 4269   1.809   0.346   1.884  0.1523  0.0231  0.0427
 1060SOL    HW2 4270   1.819   0.252   1.899 -0.8360  0.0796  1.1366
 1060SOL    HW3 4271   1.801   0.355   1.789  2.7117 -0.7481 -0.2753
 1060SOL    MW4 4272   1.809   0.335   1.874  0.3596 -0.0712  0.1451
 1061SOL     OW 4273   2.052   0.493   1.941 -0.3260 -0.2024 -0.1124
 1061SOL    HW2 4274   2.047   0.565   1.878  0.3062 -0.8328 -0.9057
 1061SOL    HW3 4275   1.969   0.445   1.930 -1.2872  1.0970  1.2938
 1061SOL    MW4 4276   2.040   0.496   1.931 -0.3694 -0.1141 -0.0315
 1062SOL     OW 4277   2.039   0.721   1.787  0.5644 -0.2757 -0.0893
 1062SOL    HW2 4278   2.112   0.735   1.847  0.4422 -2.4522  0.6407
 1062SOL    HW3 4279   1.963   0.754   1.834  0.6728 -0.6875  0.3883
 1062SOL    MW4 4280   2.039   0.727   1.801  0.5626 -0.6172  0.0700
 1063SOL     OW 4281   1.814   0.853   1.892  0.1457  0.7523 -0.0746
 1063SOL    HW2 4282   1.835   0.941   1.861 -0.8998  0.8624 -0.4977
 1063SOL    HW3 4283   1.797   0.864   1.985 -1.4992  1.2833 -0.4209
 1063SOL    MW4 4284   1.814   0.866   1.900 -0.2092  0.8369 -0.1761
 1064SOL     OW 4285   1.823   1.119   1.843 -0.0006 -0.3749 -0.1118
 1064SOL    HW2 4286   1.744   1.161   1.877  0.4328  0.0119  0.4136
 1064SOL    HW3 4287   1.895   1.164   1.886  0.5344 -0.2725 -1.0958
 1064SOL    MW4 4288   1.822   1.130   1.853  0.1272 -0.3103 -0.1723
 1065SOL     OW 4289   2.030   1.256   1.971 -0.2961 -0.1989  0.2469
 1065SOL    HW2 4290   2.096   1.201   1.930 -1.6061 -0.9700 -0.8925
 1065SOL    HW3 4291   2.038   1.238   2.064  1.9281  0.6708  0.2406
 1065SOL    MW4 4292   2.039   1.246   1.978 -0.1755 -0.1859  0.0957
 1066SOL     OW 4293   2.008   1.515   1.876  0.5635 -0.2137 -0.6054
 1066SOL    HW2 4294   2.014   1.426   1.912  0.8634 -0.6264 -1.6495
 1066SOL    HW3 4295   2.004   1.502   1.781 -1.0878  0.8075 -0.6915
 1066SOL    MW4 4296   2.008   1.501   1.868  0.3852 -0.1334 -0.7545
 1067SOL     OW 4297   1.807   1.647   1.985  0.0439 -0.1107 -0.1082
 1067SOL    HW2 4298   1.816   1.731   1.939  1.3621  0.6872  1.5315
 1067SOL    HW3 4299   1.875   1.592   1.947  0.3752  0.1729  0.0622
 1067SOL    MW4 4300   1.817   1.651   1.974  0.2615  0.0320  0.1306
 1068SOL     OW 4301   1.810   1.889   1.846  0.0228  0.0210 -0.6963
 1068SOL    HW2 4302   1.733   1.935   1.877  0.7771  1.2873 -0.6660
 1068SOL    HW3 4303   1.814   1.908   1.752 -0.1751 -0.7322 -0.8584
 1068SOL    MW4 4304   1.801   1.897   1.837  0.0962  0.0887 -0.7137
 1069SOL     OW 4305   2.011   2.036   1.966 -0.6256  0.0064  0.5011
 1069SOL    HW2 4306   2.085   1.992   1.925  0.0852  1.0581  0.6249
 1069SOL    HW3 4307   1.936   1.981   1.946  0.4750 -2.1383  2.0503
 1069SOL    MW4 4308   2.011   2.023   1.958 -0.3866 -0.1378  0.7218
 1070SOL     OW 4309   1.996   2.290   1.856  0.1031 -0.2961  0.0902
 1070SOL    HW2 4310   2.078   2.336   1.870 -0.0682 -0.4674  1.6670
 1070SOL    HW3 4311   2.004   2.210   1.906 -1.8638  0.6670  2.0186
 1070SOL    MW4 4312   2.008   2.286   1.864 -0.1790 -0.1916  0.5527
 1071SOL     OW 4313   1.768   2.407   1.942 -0.0372 -0.7328 -0.1253
 1071SOL    HW2 4314   1.773   2.428   2.035  1.0503  0.1757 -0.3700
 1071SOL    HW3 4315   1.853   2.368   1.922 -0.3768 -1.1980 -0.6783
 1071SOL    MW4 4316   1.780   2.404   1.952  0.0615 -0.6743 -0.2306
 1072SOL     OW 4317   1.803   2.686   1.883  0.2085  0.1762  0.1238
 1072SOL    HW2 4318   1.795   2.590   1.889 -1.1937  0.2371 -0.5982
 1072SOL    HW3 4319   1.805   2.704   1.789 -0.2365  0.9062  0.2525
 1072SOL    MW4 4320   1.802   2.676   1.872 -0.0352  0.2806  0.0455
 1073SOL     OW 4321   2.034   2.796   1.973 -0.7434 -0.3307 -0.1252
 1073SOL    HW2 4322   2.019   2.803   2.067  0.0764 -1.5520  0.1054
 1073SOL    HW3 4323   1.966   2.737   1.942  0.1851 -1.4777  0.0202
 1073SOL    MW4 4324   2.023   2.789   1.981 -0.5127 -0.6432 -0.0756
 1074SOL     OW 4325   2.016   3.056   1.855  0.5172 -0.0738 -0.4450
 1074SOL    HW2 4326   1.951   3.104   1.906  3.0983  0.3567  2.5698
 1074SOL    HW3 4327   2.003   2.964   1.879  1.0930  0.0219  0.2233
 1074SOL    MW4 4328   2.005   3.050   1.865  0.9337 -0.0044  0.0409
 1075SOL     OW 4329   1.824   3.189   1.986 -0.7687 -0.3432 -0.2219
 1075SOL    HW2 4330   1.825   3.191   2.081 -0.0542 -0.6829 -0.2118
 1075SOL    HW3 4331   1.737   3.157   1.963 -1.1236  0.2291  0.2971
 1075SOL    MW4 4332   1.813   3.185   1.995 -0.7213 -0.3125 -0.1521
 1076SOL     OW 4333   1.788   3.477   1.876 -0.3133  0.0698 -0.4080
 1076SOL    HW2 4334   1.796   3.390   1.915 -0.8662 -0.7559 -2.0997
 1076SOL    HW3 4335   1.720   3.520   1.928 -1.3014 -1.1500 -0.6833
 1076SOL    MW4 4336   1.780   3.471   1.888 -0.5166 -0.2001 -0.6675
 1077SOL     OW 4337   2.025   3.617   1.962 -0.1615 -0.1450  0.4071
 1077SOL    HW2 4338   2.014   3.711   1.949 -1.1269 -0.0846  1.6043
 1077SOL    HW3 4339   1.941   3.580   1.933  0.3601 -0.6825 -0.4410
 1077SOL    MW4 4340   2.012   3.625   1.956 -0.2200 -0.2080  0.4532
 1078SOL     OW 4341   2.035   3.861   1.851  0.6167  0.2023  0.3496
 1078SOL    HW2 4342   2.127   3.875   1.872  1.1184 -1.8958 -0.3895
 1078SOL    HW3 4343   2.033   3.857   1.755  0.0871 -1.8648  0.4304
 1078SOL    MW4 4344   2.047   3.863   1.841  0.6130 -0.3472  0.2627
 1079SOL     OW 4345   1.836   4.016   1.951  0.5479 -0.1528 -0.6171
 1079SOL    HW2 4346   1.848   4.095   1.898  3.1175  0.6143  0.9819
 1079SOL    HW3 4347   1.907   3.958   1.923 -1.2048 -1.8589 -1.6463
 1079SOL    MW4 4348   1.847   4.018   1.940  0.6557 -0.2767 -0.5419
 1080SOL     OW 4349   1.834   4.265   1.832 -0.1708  0.0589  0.0018
 1080SOL    HW2 4350   1.744   4.281   1.861 -0.2285  0.2474 -0.2833
 1080SOL    HW3 4351   1.834   4.288   1.739  0.3800  0.8765  0.2028
 1080SOL    MW4 4352   1.822   4.270   1.824 -0.1057  0.1917 -0.0093
 1081SOL     OW 4353   2.037   4.387   1.970  0.3050 -0.3794 -0.3591
 1081SOL    HW2 4354   2.114   4.334   1.948  0.9607  0.3728  0.0740
 1081SOL    HW3 4355   1.964   4.341   1.931  1.1313 -0.4636 -1.8627
 1081SOL    MW4 4356   2.038   4.374   1.962  0.5005 -0.2913 -0.5003
 1082SOL     OW 4357   2.485   4.655   1.831 -0.3173  0.1400 -0.3823
 1082SOL    HW2 4358   2.555   4.689   1.886  1.0332  0.0783 -2.0334
 1082SOL    HW3 4359   2.459   4.573   1.873  0.3939  0.3149  0.4108
 1082SOL    MW4 4360   2.491   4.648   1.844 -0.0453  0.1550 -0.4955
 1083SOL     OW 4361   2.257   0.108   1.918  0.0118  0.2066  0.1302
 1083SOL    HW2 4362   2.256   0.087   2.011  1.5295  0.0875  0.1367
 1083SOL    HW3 4363   2.342   0.075   1.887 -0.7049 -0.2303 -1.4028
 1083SOL    MW4 4364   2.268   0.101   1.926  0.1175  0.1333 -0.0712
 1084SOL     OW 4365   2.290   0.373   1.849  0.0716 -0.6634  0.1933
 1084SOL    HW2 4366   2.293   0.283   1.880 -1.2339 -0.7792 -0.0206
 1084SOL    HW3 4367   2.205   0.406   1.877  0.5287  0.5104  0.2655
 1084SOL    MW4 4368   2.279   0.366   1.857 -0.0404 -0.5238  0.1746
 1085SOL     OW 4369   2.532   0.489   1.957  0.3382  0.0956  0.1608
 1085SOL    HW2 4370   2.603   0.437   1.919  0.4691  0.3896  0.0072
 1085SOL    HW3 4371   2.452   0.441   1.932  0.5547 -1.1423  1.7199
 1085SOL    MW4 4372   2.531   0.476   1.949  0.3840 -0.0289  0.3462
 1086SOL     OW 4373   2.492   0.741   1.877 -0.1531 -0.3752 -0.1603
 1086SOL    HW2 4374   2.500   0.647   1.895 -0.1340 -0.4006 -0.3010
 1086SOL    HW3 4375   2.493   0.747   1.782 -3.5793 -0.5574 -0.2560
 1086SOL    MW4 4376   2.493   0.729   1.867 -0.6026 -0.4026 -0.1915
 1087SOL     OW 4377   2.231   0.821   1.971  0.2138 -0.1269  0.2690
 1087SOL    HW2 4378   2.227   0.825   2.067 -0.1928  0.6795  0.2214
 1087SOL    HW3 4379   2.323   0.800   1.953  0.1474 -0.9365  0.8507
 1087SOL    MW4 4380   2.243   0.819   1.982  0.1514 -0.1273  0.3395
 1088SOL     OW 4381   2.205   1.079   1.828  0.0993  0.2471 -0.1651
 1088SOL    HW2 4382   2.294   1.112   1.843 -0.0513  0.2460  0.7568
 1088SOL    HW3 4383   2.208   0.988   1.855 -0.7157  0.8088  1.9066
 1088SOL    MW4 4384   2.217   1.072   1.834 -0.0281  0.3211  0.2299
 1089SOL     OW 4385   2.435   1.208   1.946 -0.0164  0.2841  0.4430
 1089SOL    HW2 4386   2.412   1.203   2.039  0.1362  0.6443  0.4999
 1089SOL    HW3 4387   2.438   1.302   1.927  0.8662  0.2266  0.2994
 1089SOL    MW4 4388   2.432   1.220   1.956  0.1202  0.3241  0.4315
 1090SOL     OW 4389   2.452   1.471   1.856 -0.3324  0.5364 -0.0257
 1090SOL    HW2 4390   2.375   1.523   1.881 -0.4093  0.1949  0.4397
 1090SOL    HW3 4391   2.460   1.485   1.761 -0.5719  1.1058  0.0363
 1090SOL    MW4 4392   2.443   1.480   1.847 -0.3741  0.5665  0.0439
 1091SOL     OW 4393   2.251   1.642   1.932  0.1474  0.1632 -0.5990
 1091SOL    HW2 4394   2.255   1.652   2.027 -0.2815  1.7782 -0.7326
 1091SOL    HW3 4395   2.163   1.608   1.915  0.1506  0.0689 -0.4286
 1091SOL    MW4 4396   2.240   1.639   1.942  0.0912  0.3638 -0.5942
 1092SOL     OW 4397   2.235   1.906   1.838  0.1512  0.3313 -0.1952
 1092SOL    HW2 4398   2.307   1.946   1.887  1.6278 -1.2781 -1.0284
 1092SOL    HW3 4399   2.235   1.814   1.865 -0.8228  0.0540 -1.1057
 1092SOL    MW4 4400   2.244   1.899   1.848  0.2175  0.0824 -0.4253
 1093SOL     OW 4401   2.434   2.052   1.955  0.2210 -0.4653 -0.3002
 1093SOL    HW2 4402   2.501   1.996   1.916  0.3440  0.4069 -1.3533
 1093SOL    HW3 4403   2.435   2.132   1.902 -0.7803  0.0567  0.4478
 1093SOL    MW4 4404   2.443   2.055   1.943  0.1051 -0.2814 -0.3405
 1094SOL     OW 4405   2.489   2.328   1.853  0.2065  1.0471  0.3208
 1094SOL    HW2 4406   2.568   2.372   1.884  0.3228 -0.0865  1.6609
 1094SOL    HW3 4407   2.417   2.384   1.882  0.4597  1.5590 -0.0278
 1094SOL    MW4 4408   2.490   2.341   1.861  0.2552  0.9651  0.4516
 1095SOL     OW 4409   2.233   2.437   1.928 -0.0880 -0.2029  0.3360
 1095SOL    HW2 4410   2.238   2.410   2.020  1.1638  1.3263  0.7312
 1095SOL    HW3 4411   2.258   2.529   1.929  0.9898 -0.4635 -1.6746
 1095SOL    MW4 4412   2.237   2.446   1.940  0.2193 -0.0355  0.1228
 1096SOL     OW 4413   2.301   2.705   1.908  0.0087 -0.4140  0.1934
 1096SOL    HW2 4414   2.215   2.741   1.930 -0.2963 -1.9439  1.6083
 1096SOL    HW3 4415   2.303   2.705   1.813 -1.0403  0.8484  0.1533
 1096SOL    MW4 4416   2.290   2.710   1.898 -0.1699 -0.4493  0.3748
 1097SOL     OW 4417   2.487   2.857   2.038 -0.4858 -0.0558 -0.4095
 1097SOL    HW2 4418   2.496   2.945   2.000 -0.9042 -0.0929 -0.6061
 1097SOL    HW3 4419   2.428   2.811   1.977  0.2479 -0.6797 -0.6516
 1097SOL    MW4 4420   2.480   2.863   2.025 -0.4442 -0.1430 -0.4674
 1098SOL     OW 4421   2.499   3.095   1.909 -0.1025 -0.5607 -0.0152
 1098SOL    HW2 4422   2.419   3.140   1.937  0.3246  0.8785 -1.0141
 1098SOL    HW3 4423   2.501   3.109   1.814  1.0868 -0.9944 -0.0540
 1098SOL    MW4 4424   2.488   3.103   1.900  0.1107 -0.4280 -0.1521
 1099SOL     OW 4425   2.238   3.202   1.951 -0.3003  0.2550 -0.5117
 1099SOL    HW2 4426   2.233   3.204   2.046 -1.0218  0.0302 -0.5399
 1099SOL    HW3 4427   2.169   3.141   1.924 -0.0443  0.2462 -1.1724
 1099SOL    MW4 4428   2.228   3.194   1.960 -0.3617  0.2242 -0.6026
 1100SOL     OW 4429   2.267   3.499   1.904 -0.0902  0.1098  0.1688
 1100SOL    HW2 4430   2.247   3.413   1.940 -0.4024  0.4680  0.8675
 1100SOL    HW3 4431   2.188   3.551   1.921  0.3134  0.6979  0.2952
 1100SOL    MW4 4432   2.254   3.495   1.911 -0.0782  0.2346  0.2777
 1101SOL     OW 4433   2.495   3.649   2.003  0.3857  0.1061 -0.0771
 1101SOL    HW2 4434   2.486   3.641   2.098  0.0395 -0.4080 -0.1522
 1101SOL    HW3 4435   2.428   3.591   1.967  1.1568 -0.4373 -0.6423
 1101SOL    MW4 4436   2.485   3.641   2.011  0.4418 -0.0334 -0.1616
 1102SOL     OW 4437   2.496   3.877   1.863 -0.0704 -0.7816  0.5508
 1102SOL    HW2 4438   2.413   3.921   1.881  0.4421  0.6415 -0.4209
 1102SOL    HW3 4439   2.497   3.801   1.921 -1.8765 -0.5964  0.8424
 1102SOL    MW4 4440   2.486   3.873   1.873 -0.2411 -0.5694  0.4611
 1103SOL     OW 4441   2.264   3.987   1.966 -0.2600  0.1989  0.5072
 1103SOL    HW2 4442   2.266   3.978   2.061  3.7414 -0.2897  0.4535
 1103SOL    HW3 4443   2.255   4.081   1.951  1.6366  0.5403  1.4158
 1103SOL    MW4 4444   2.263   3.998   1.977  0.5182  0.1795  0.6200
 1104SOL     OW 4445   2.268   4.260   1.886  0.5015  0.3849 -0.1704
 1104SOL    HW2 4446   2.322   4.335   1.909  0.2481  0.7790 -0.8382
 1104SOL    HW3 4447   2.266   4.261   1.790 -0.2934  0.0836 -0.1585
 1104SOL    MW4 4448   2.275   4.270   1.876  0.3632  0.3972 -0.2570
 1105SOL     OW 4449   2.466   4.430   1.971  0.0504 -0.1621  0.2427
 1105SOL    HW2 4450   2.477   4.407   2.063 -0.2379 -1.1311  0.0319
 1105SOL    HW3 4451   2.533   4.380   1.925  0.1696  0.2906 -0.0849
 1105SOL    MW4 4452   2.476   4.421   1.977  0.0281 -0.2302  0.1716
 1106SOL     OW 4453   2.891   4.639   1.848 -0.1294 -0.1458 -0.4897
 1106SOL    HW2 4454   2.971   4.673   1.890  1.8409 -1.8689 -2.7159
 1106SOL    HW3 4455   2.879   4.552   1.886 -1.0477  0.1738 -0.0450
 1106SOL    MW4 4456   2.900   4.632   1.858  0.0094 -0.3310 -0.7247
 1107SOL     OW 4457   2.683   0.096   1.988  0.3778 -0.0609  0.0930
 1107SOL    HW2 4458   2.696   0.092   2.083  0.8882 -0.7355  0.0010
 1107SOL    HW3 4459   2.753   0.040   1.952  0.0566  0.0210 -0.6640
 1107SOL    MW4 4460   2.694   0.088   1.996  0.4028 -0.1391 -0.0190
 1108SOL     OW 4461   2.740   0.338   1.851 -0.1498 -0.3206  0.2647
 1108SOL    HW2 4462   2.813   0.386   1.891 -0.6487  0.9250 -0.3219
 1108SOL    HW3 4463   2.748   0.249   1.887 -0.1320  0.5715  2.5755
 1108SOL    MW4 4464   2.751   0.332   1.861 -0.2133 -0.0386  0.4922
 1109SOL     OW 4465   2.936   0.519   1.961  0.0357  0.1685 -0.7290
 1109SOL    HW2 4466   3.014   0.478   1.924  0.0425  0.5852 -1.1908
 1109SOL    HW3 4467   2.933   0.606   1.920 -1.4597 -0.3850 -1.8316
 1109SOL    MW4 4468   2.946   0.525   1.950 -0.1607  0.1504 -0.9354
 1110SOL     OW 4469   2.949   0.761   1.826 -0.1831  0.4410  0.3971
 1110SOL    HW2 4470   3.020   0.807   1.873 -2.0321  1.1756  2.5677
 1110SOL    HW3 4471   2.869   0.799   1.862 -1.7000 -0.9744 -1.4370
 1110SOL    MW4 4472   2.948   0.772   1.837 -0.6272  0.3512  0.4415
 1111SOL     OW 4473   2.739   0.880   1.957 -0.0858  0.2475 -0.1188
 1111SOL    HW2 4474   2.721   0.970   1.930 -1.3787  0.7788  2.3573
 1111SOL    HW3 4475   2.658   0.832   1.938  0.0279 -0.0140  0.0501
 1111SOL    MW4 4476   2.726   0.886   1.951 -0.2414  0.2831  0.2302
 1112SOL     OW 4477   2.692   1.141   1.871  0.3989  0.5279 -0.1818
 1112SOL    HW2 4478   2.602   1.157   1.897  0.4486 -0.5037  0.6485
 1112SOL    HW3 4479   2.688   1.131   1.776 -0.4719 -0.2373 -0.0719
 1112SOL    MW4 4480   2.680   1.142   1.862  0.2906  0.2909 -0.0577
 1113SOL     OW 4481   2.924   1.278   1.959 -0.0126 -0.4397 -0.6658
 1113SOL    HW2 4482   2.920   1.360   1.911  0.6812 -0.3847 -0.6315
 1113SOL    HW3 4483   2.844   1.231   1.933 -1.8609  1.3791  1.4073
 1113SOL    MW4 4484   2.913   1.282   1.949 -0.1649 -0.1925 -0.3877
 1114SOL     OW 4485   2.911   1.538   1.858  0.2888 -0.1737 -0.0008
 1114SOL    HW2 4486   2.984   1.573   1.910 -1.3741  2.0972  0.8646
 1114SOL    HW3 4487   2.945   1.536   1.769  1.9171 -0.5336  0.6104
 1114SOL    MW4 4488   2.925   1.543   1.853  0.2842  0.0784  0.1940
 1115SOL     OW 4489   2.642   1.632   1.968  0.5345 -0.1436  0.4012
 1115SOL    HW2 4490   2.729   1.605   1.939  0.4420  0.1636 -0.1639
 1115SOL    HW3 4491   2.584   1.561   1.940  0.4341  0.1887 -0.2317
 1115SOL    MW4 4492   2.646   1.619   1.960  0.5091 -0.0592  0.2431
 1116SOL     OW 4493   2.636   1.892   1.877  0.2571 -0.2259 -0.4161
 1116SOL    HW2 4494   2.717   1.921   1.919 -0.1775  0.5041 -0.0774
 1116SOL    HW3 4495   2.627   1.800   1.903 -0.1347  0.2892  1.3050
 1116SOL    MW4 4496   2.645   1.883   1.886  0.1480 -0.0616 -0.1444
 1117SOL     OW 4497   2.874   2.052   1.974  0.0004  0.0312  0.1596
 1117SOL    HW2 4498   2.892   2.067   2.067  1.0413 -1.9396  0.3116
 1117SOL    HW3 4499   2.949   2.001   1.943 -1.4532 -1.3279 -1.2023
 1117SOL    MW4 4500   2.886   2.047   1.982 -0.0541 -0.4081 -0.0000
 1118SOL     OW 4501   2.879   2.329   1.888 -0.0509 -0.0632 -0.2293
 1118SOL    HW2 4502   2.950   2.356   1.945  0.5388 -1.7690 -0.1268
 1118SOL    HW3 4503   2.875   2.233   1.897 -2.0269 -0.0465 -0.6078
 1118SOL    MW4 4504   2.888   2.320   1.897 -0.2338 -0.2861 -0.2657
 1119SOL     OW 4505   2.679   2.475   1.997  0.2158  0.2424  0.1292
 1119SOL    HW2 4506   2.693   2.568   1.981  0.3371  0.5061  1.6570
 1119SOL    HW3 4507   2.748   2.431   1.947 -0.2413  0.9303 -1.1173
 1119SOL    MW4 4508   2.690   2.482   1.988  0.1715  0.3680  0.1663
 1120SOL     OW 4509   2.717   2.759   1.912  0.1659 -0.0566 -0.3727
 1120SOL    HW2 4510   2.633   2.786   1.950 -0.6030 -0.8610 -1.4593
 1120SOL    HW3 4511   2.696   2.734   1.822  1.8739  1.3362 -1.1838
 1120SOL    MW4 4512   2.703   2.759   1.905  0.2898  0.0211 -0.6231
 1121SOL     OW 4513   2.968   2.902   1.965  0.4336 -0.3127  0.2527
 1121SOL    HW2 4514   2.970   2.994   1.938  0.4999 -1.0508 -2.4325
 1121SOL    HW3 4515   2.885   2.870   1.931  0.7000 -1.4031  0.6302
 1121SOL    MW4 4516   2.957   2.910   1.957  0.4775 -0.5540 -0.0518
 1122SOL     OW 4517   2.973   3.158   1.867  0.0010  0.6285 -0.2057
 1122SOL    HW2 4518   3.041   3.216   1.899 -0.6441  0.7510  1.0053
 1122SOL    HW3 4519   2.892   3.192   1.905 -0.5376 -0.3788 -0.4092
 1122SOL    MW4 4520   2.971   3.170   1.876 -0.1552  0.5118 -0.0727
 1123SOL     OW 4521   2.726   3.255   1.942 -0.1905  0.2153 -0.6297
 1123SOL    HW2 4522   2.706   3.347   1.925  0.2642  0.7046  1.3055
 1123SOL    HW3 4523   2.643   3.210   1.929 -0.7767  1.1343 -0.1673
 1123SOL    MW4 4524   2.712   3.261   1.938 -0.2078  0.4011 -0.3134
 1124SOL     OW 4525   2.681   3.528   1.837  0.0525 -0.0859  0.5892
 1124SOL    HW2 4526   2.760   3.578   1.860 -0.2162  1.2504 -1.2613
 1124SOL    HW3 4527   2.614   3.560   1.898  0.5166  0.0249  1.0394
 1124SOL    MW4 4528   2.682   3.539   1.848  0.0783  0.1050  0.4044
 1125SOL     OW 4529   2.927   3.623   1.930 -0.2308  0.0274 -0.3968
 1125SOL    HW2 4530   2.922   3.613   2.025 -0.7251 -0.7955 -0.5033
 1125SOL    HW3 4531   3.013   3.586   1.907  0.3039  1.1016 -0.1723
 1125SOL    MW4 4532   2.938   3.617   1.940 -0.2255  0.0605 -0.3812
 1126SOL     OW 4533   2.959   3.900   1.877 -0.4307  0.0545  0.0983
 1126SOL    HW2 4534   2.950   3.807   1.899 -0.4702  0.1583  0.5252
 1126SOL    HW3 4535   2.960   3.902   1.782  0.9714 -0.5328  0.0794
 1126SOL    MW4 4536   2.958   3.888   1.868 -0.2509 -0.0093  0.1522
 1127SOL     OW 4537   2.716   4.018   1.950 -0.0675 -0.0689  0.2996
 1127SOL    HW2 4538   2.791   3.967   1.918  0.7204  0.1892  1.6865
 1127SOL    HW3 4539   2.640   3.964   1.928  0.3580  0.4501 -2.6794
 1127SOL    MW4 4540   2.716   4.004   1.943  0.0926  0.0336  0.0896
 1128SOL     OW 4541   2.674   4.274   1.853 -0.2443  0.0727  0.0324
 1128SOL    HW2 4542   2.673   4.181   1.877 -0.4534  0.0176 -0.1826
 1128SOL    HW3 4543   2.671   4.274   1.758  0.7057  0.2895 -0.0033
 1128SOL    MW4 4544   2.673   4.262   1.844 -0.1466  0.0940 -0.0006
 1129SOL     OW 4545   2.906   4.378   1.951  0.0242  0.2602  0.0662
 1129SOL    HW2 4546   2.905   4.357   2.044 -0.0124 -0.7829 -0.1711
 1129SOL    HW3 4547   2.823   4.343   1.918  0.7017 -0.6551 -0.6521
 1129SOL    MW4 4548   2.895   4.371   1.959  0.1088  0.0018 -0.0599
 1130SOL     OW 4549   3.366   0.015   1.902  0.1751 -0.2577  0.3856
 1130SOL    HW2 4550   3.369  -0.074   1.937 -0.5260 -0.9821 -1.3379
 1130SOL    HW3 4551   3.360   0.004   1.807 -0.2020  1.6295  0.1566
 1130SOL    MW4 4552   3.365   0.002   1.894  0.0329 -0.1043  0.1280
 1131SOL     OW 4553   3.125   0.125   1.969 -0.0300  0.0642  0.5789
 1131SOL    HW2 4554   3.129   0.140   2.064  1.2080  0.0461  0.5349
 1131SOL    HW3 4555   3.208   0.083   1.948  1.7011  4.1347 -1.2340
 1131SOL    MW4 4556   3.136   0.122   1.979  0.3617  0.5989  0.3339
 1132SOL     OW 4557   3.152   0.383   1.868 -0.1677  0.0343  0.0626
 1132SOL    HW2 4558   3.136   0.293   1.897  0.6299  0.2446  1.1804
 1132SOL    HW3 4559   3.159   0.376   1.773  0.8774 -1.2524  0.2145
 1132SOL    MW4 4560   3.151   0.370   1.859  0.0754 -0.1077  0.2301
 1133SOL     OW 4561   3.384   0.515   1.976  0.2873 -0.1422  0.2420
 1133SOL    HW2 4562   3.459   0.477   1.930  0.3911 -0.8562  1.0052
 1133SOL    HW3 4563   3.308   0.470   1.938  0.4335 -1.3737  1.3911
 1133SOL    MW4 4564   3.384   0.504   1.965  0.3202 -0.3989  0.4943
 1134SOL     OW 4565   3.356   0.762   1.849 -0.2964 -0.0582 -0.3239
 1134SOL    HW2 4566   3.276   0.804   1.883 -1.5202 -2.7509  0.2695
 1134SOL    HW3 4567   3.368   0.685   1.905  0.9086 -1.4585 -2.4309
 1134SOL    MW4 4568   3.347   0.757   1.861 -0.2989 -0.5982 -0.5236
 1135SOL     OW 4569   3.143   0.886   1.977 -0.1443  0.3919 -0.1239
 1135SOL    HW2 4570   3.143   0.890   2.073 -1.4188  0.4528 -0.1130
 1135SOL    HW3 4571   3.148   0.978   1.949  0.5508  0.3561 -0.1201
 1135SOL    MW4 4572   3.144   0.899   1.986 -0.2208  0.3952 -0.1220
 1136SOL     OW 4573   3.169   1.151   1.897 -0.2103  0.1135 -0.0284
 1136SOL    HW2 4574   3.239   1.206   1.932 -0.0950 -0.2520  0.3279
 1136SOL    HW3 4575   3.088   1.195   1.923 -0.1301 -0.2995  0.9573
 1136SOL    MW4 4576   3.168   1.164   1.905 -0.1845  0.0108  0.1487
 1137SOL     OW 4577   3.384   1.297   1.982 -0.3907  0.2774 -0.2648
 1137SOL    HW2 4578   3.379   1.322   2.074  0.1133  0.6672 -0.3361
 1137SOL    HW3 4579   3.390   1.380   1.935 -1.0352  0.0909 -0.6761
 1137SOL    MW4 4580   3.384   1.311   1.988 -0.4092  0.3042 -0.3285
 1138SOL     OW 4581   3.373   1.545   1.863 -0.0630  0.1943 -0.1267
 1138SOL    HW2 4582   3.454   1.577   1.902 -0.1367  1.6699 -1.1491
 1138SOL    HW3 4583   3.304   1.595   1.906 -0.4821 -1.3530  1.0389
 1138SOL    MW4 4584   3.375   1.555   1.874 -0.1280  0.1848 -0.1078
 1139SOL     OW 4585   3.136   1.643   1.986 -0.6836  0.2710  0.0382
 1139SOL    HW2 4586   3.142   1.652   2.081  0.7151 -0.8797  0.0842
 1139SOL    HW3 4587   3.126   1.732   1.953 -0.9380  0.6953  1.2472
 1139SOL    MW4 4588   3.135   1.656   1.994 -0.5326  0.1752  0.2038
 1140SOL     OW 4589   3.111   1.913   1.873 -0.2775 -0.4929 -0.2348
 1140SOL    HW2 4590   3.192   1.934   1.919 -1.0791  0.4181  0.7899
 1140SOL    HW3 4591   3.126   1.941   1.783  0.6559 -0.6258 -0.1195
 1140SOL    MW4 4592   3.123   1.920   1.867 -0.2601 -0.3902 -0.0844
 1141SOL     OW 4593   3.337   1.998   2.010 -0.3597  0.2408 -0.7722
 1141SOL    HW2 4594   3.420   1.975   1.968  0.6816 -0.1495  1.4499
 1141SOL    HW3 4595   3.339   2.094   2.017  0.2286  0.1806 -0.0800
 1141SOL    MW4 4596   3.348   2.008   2.005 -0.1447  0.1814 -0.3877
 1142SOL     OW 4597   3.353   2.298   1.955 -0.2377  0.2109 -0.4218
 1142SOL    HW2 4598   3.270   2.346   1.963 -0.1518  0.4996 -1.2166
 1142SOL    HW3 4599   3.367   2.291   1.860  1.0619  0.9024 -0.2936
 1142SOL    MW4 4600   3.344   2.304   1.943 -0.0549  0.3402 -0.5097
 1143SOL     OW 4601   3.122   2.454   1.987 -0.1416  0.5951  0.1382
 1143SOL    HW2 4602   3.135   2.463   2.082 -2.0405  0.8143  0.4025
 1143SOL    HW3 4603   3.127   2.543   1.953 -1.4223  0.7449  0.3180
 1143SOL    MW4 4604   3.124   2.467   1.995 -0.5611  0.6438  0.1968
 1144SOL     OW 4605   3.166   2.717   1.910 -0.4556  0.0984 -0.2277
 1144SOL    HW2 4606   3.096   2.780   1.928  1.1646  1.9924 -0.3510
 1144SOL    HW3 4607   3.173   2.716   1.814  0.0104  0.2815 -0.1954
 1144SOL    MW4 4608   3.158   2.725   1.900 -0.1804  0.3724 -0.2397
 1145SOL     OW 4609   3.386   2.845   1.991  0.3095  0.6970 -0.0048
 1145SOL    HW2 4610   3.382   2.832   2.086  0.7407  0.8572  0.0358
 1145SOL    HW3 4611   3.305   2.805   1.958  0.2764  0.4235  0.4056
 1145SOL    MW4 4612   3.375   2.838   1.999  0.3621  0.6821  0.0547
 1146SOL     OW 4613   3.391   3.106   1.893  0.1103  0.0321  0.3854
 1146SOL    HW2 4614   3.473   3.142   1.926  0.9902 -0.9881 -0.6746
 1146SOL    HW3 4615   3.379   3.024   1.940  1.1599 -1.2244 -1.4834
 1146SOL    MW4 4616   3.400   3.100   1.903  0.3649 -0.2683 -0.0010
 1147SOL     OW 4617   3.193   3.306   1.942 -0.0831 -0.3540  0.6553
 1147SOL    HW2 4618   3.212   3.292   2.035  0.4373 -0.0444  0.5948
 1147SOL    HW3 4619   3.249   3.243   1.896 -0.6176 -0.7732  0.5622
 1147SOL    MW4 4620   3.203   3.296   1.948 -0.0849 -0.3684  0.6350
 1148SOL     OW 4621   3.190   3.566   1.853  0.2071  0.4655  0.0864
 1148SOL    HW2 4622   3.196   3.473   1.874 -0.0103  0.1758 -1.0976
 1148SOL    HW3 4623   3.254   3.608   1.910  1.9848 -0.6853 -1.0386
 1148SOL    MW4 4624   3.199   3.560   1.863  0.4129  0.2755 -0.2182
 1149SOL     OW 4625   3.373   3.698   2.022  0.2315 -0.5306 -0.4674
 1149SOL    HW2 4626   3.437   3.644   1.977  1.4148  0.4423  0.0055
 1149SOL    HW3 4627   3.369   3.778   1.970  1.0763  0.3102  0.7160
 1149SOL    MW4 4628   3.381   3.702   2.009  0.4991 -0.2913 -0.2489
 1150SOL     OW 4629   3.374   3.933   1.884 -0.0032  0.7114  0.1934
 1150SOL    HW2 4630   3.301   3.983   1.921 -0.6772 -1.3938  1.7721
 1150SOL    HW3 4631   3.357   3.932   1.790 -1.3257  1.3086  0.4212
 1150SOL    MW4 4632   3.362   3.939   1.876 -0.2666  0.5124  0.4318
 1151SOL     OW 4633   3.148   4.065   1.975  0.0611 -0.2986  0.2747
 1151SOL    HW2 4634   3.124   4.088   2.065  0.1486 -0.7834  0.4219
 1151SOL    HW3 4635   3.085   3.997   1.951  0.2193 -0.3693  0.0673
 1151SOL    MW4 4636   3.136   4.059   1.984  0.0936 -0.3719  0.2668
 1152SOL     OW 4637   3.156   4.311   1.840 -0.5455 -0.1705  0.1556
 1152SOL    HW2 4638   3.147   4.224   1.879 -0.4569 -0.6805 -0.9411
 1152SOL    HW3 4639   3.071   4.352   1.852 -0.8954 -0.7871 -0.2108
 1152SOL    MW4 4640   3.144   4.305   1.846 -0.5800 -0.3192 -0.0375
 1153SOL     OW 4641   3.400   4.414   1.979 -0.2271 -0.4080 -0.2456
 1153SOL    HW2 4642   3.483   4.376   1.949 -0.0864  0.3510 -0.8609
 1153SOL    HW3 4643   3.333   4.367   1.929 -0.1388 -0.7362 -0.0547
 1153SOL    MW4 4644   3.402   4.403   1.968 -0.1969 -0.3512 -0.3016
 1154SOL     OW 4645   3.834   4.663   1.856 -0.0050  0.0149  0.0301
 1154SOL    HW2 4646   3.836   4.581   1.905  0.2178  0.3649  0.6026
 1154SOL    HW3 4647   3.761   4.712   1.894  0.3845  0.4324  0.2441
 1154SOL    MW4 4648   3.824   4.659   1.867  0.0758  0.1162  0.1339
 1155SOL     OW 4649   3.620   0.133   1.945  0.5383  0.0172 -0.4734
 1155SOL    HW2 4650   3.608   0.123   2.039 -0.8180 -1.1440 -0.7382
 1155SOL    HW3 4651   3.541   0.094   1.907  0.8771  0.8480 -2.0731
 1155SOL    MW4 4652   3.608   0.126   1.952  0.4040 -0.0264 -0.7194
 1156SOL     OW 4653   3.609   0.381   1.847  0.2374  0.0042  0.1848
 1156SOL    HW2 4654   3.600   0.294   1.887  0.4857  0.1689  0.6060
 1156SOL    HW3 4655   3.597   0.366   1.754 -1.1692 -0.2727  0.3940
 1156SOL    MW4 4656   3.606   0.368   1.840  0.0846 -0.0106  0.2680
 1157SOL     OW 4657   3.813   0.521   1.994  0.5814 -0.0294 -0.3074
 1157SOL    HW2 4658   3.835   0.607   1.958 -0.5981  1.5702  2.6376
 1157SOL    HW3 4659   3.746   0.487   1.935 -0.1928  1.8439 -0.5514
 1157SOL    MW4 4660   3.807   0.528   1.981  0.3237  0.4288  0.0489
 1158SOL     OW 4661   3.842   0.788   1.898  0.2183  0.1375 -0.3950
 1158SOL    HW2 4662   3.752   0.798   1.929  0.4997 -0.7440  0.7748
 1158SOL    HW3 4663   3.836   0.788   1.803 -0.9925  0.2887 -0.3214
 1158SOL    MW4 4664   3.829   0.789   1.890  0.0957  0.0412 -0.2309
 1159SOL     OW 4665   3.586   0.887   1.986  0.5985  0.4772  0.4848
 1159SOL    HW2 4666   3.602   0.973   1.946  0.5186  0.0721 -0.4193
 1159SOL    HW3 4667   3.506   0.856   1.944  0.4170  0.1189  1.0894
 1159SOL    MW4 4668   3.578   0.894   1.975  0.5640  0.3765  0.4453
 1160SOL     OW 4669   3.590   1.149   1.885  0.1413 -0.0112 -0.3312
 1160SOL    HW2 4670   3.509   1.186   1.921 -0.3912  0.5458 -2.0073
 1160SOL    HW3 4671   3.581   1.162   1.790  2.2869  0.2243 -0.5250
 1160SOL    MW4 4672   3.578   1.156   1.877  0.3542  0.0934 -0.5779
 1161SOL     OW 4673   3.816   1.293   1.985 -0.1052 -0.0750  0.2396
 1161SOL    HW2 4674   3.816   1.276   2.079 -0.0394  0.8731  0.4081
 1161SOL    HW3 4675   3.740   1.245   1.952  0.3853 -1.1466  0.6402
 1161SOL    MW4 4676   3.806   1.284   1.993 -0.0318 -0.0913  0.3147
 1162SOL     OW 4677   3.838   1.566   1.906  0.2458 -0.4411  0.6934
 1162SOL    HW2 4678   3.906   1.605   1.960 -0.1149 -0.3311  1.0725
 1162SOL    HW3 4679   3.822   1.480   1.946  0.9303 -0.9287 -0.0459
 1162SOL    MW4 4680   3.845   1.560   1.918  0.2885 -0.4909  0.6458
 1163SOL     OW 4681   3.595   1.676   1.989  0.5365 -0.1340 -0.4543
 1163SOL    HW2 4682   3.598   1.763   1.949  2.3923 -1.6652 -3.8730
 1163SOL    HW3 4683   3.679   1.636   1.967 -0.1915 -2.7460  1.2031
 1163SOL    MW4 4684   3.606   1.682   1.980  0.6853 -0.6806 -0.6867
 1164SOL     OW 4685   3.584   1.940   1.887  0.4514 -0.5092  0.1690
 1164SOL    HW2 4686   3.667   1.973   1.920 -0.2104  0.9843  0.4061
 1164SOL    HW3 4687   3.597   1.936   1.792  1.0935 -1.1900  0.2761
 1164SOL    MW4 4688   3.597   1.944   1.879  0.4488 -0.4020  0.2144
 1165SOL     OW 4689   3.812   2.056   1.986  0.2970 -0.3705 -0.3615
 1165SOL    HW2 4690   3.890   2.013   1.952 -0.7701 -0.4628 -2.7676
 1165SOL    HW3 4691   3.820   2.147   1.958 -0.1573 -0.2426 -0.0849
 1165SOL    MW4 4692   3.823   2.062   1.978  0.0963 -0.3658 -0.6424
 1166SOL     OW 4693   3.852   2.313   1.896 -0.1829 -0.6343  0.5524
 1166SOL    HW2 4694   3.911   2.334   1.968 -0.0344  0.0122  0.2488
 1166SOL    HW3 4695   3.767   2.346   1.924  0.4019  2.1348 -0.6868
 1166SOL    MW4 4696   3.849   2.320   1.909 -0.0861 -0.1836  0.3489
 1167SOL     OW 4697   3.598   2.421   1.966  0.2083  0.1289  0.0910
 1167SOL    HW2 4698   3.584   2.515   1.955  0.9885  0.5058  2.0094
 1167SOL    HW3 4699   3.511   2.383   1.973 -0.0915  0.9069  0.6209
 1167SOL    MW4 4700   3.585   2.428   1.966  0.2717  0.2813  0.4140
 1168SOL     OW 4701   3.598   2.699   1.881  0.2159  0.1276 -0.0680
 1168SOL    HW2 4702   3.678   2.745   1.909  0.2704  0.2024 -0.3436
 1168SOL    HW3 4703   3.527   2.754   1.915  0.2747 -0.5898  1.2432
 1168SOL    MW4 4704   3.599   2.713   1.889  0.2309  0.0428  0.0686
 1169SOL     OW 4705   3.818   2.818   1.990  0.3540  0.1497 -0.3288
 1169SOL    HW2 4706   3.813   2.796   2.083 -0.2992 -0.2028 -0.4381
 1169SOL    HW3 4707   3.810   2.913   1.987  1.3459  0.2511  0.0351
 1169SOL    MW4 4708   3.816   2.827   2.002  0.3987  0.1166 -0.2952
 1170SOL     OW 4709   3.831   3.076   1.908 -0.1890  0.0152  0.7269
 1170SOL    HW2 4710   3.761   3.119   1.957 -0.3577 -0.0418  0.5348
 1170SOL    HW3 4711   3.815   3.099   1.817  0.5381  0.7046  0.7685
 1170SOL    MW4 4712   3.819   3.085   1.902 -0.1153  0.0987  0.7070
 1171SOL     OW 4713   3.620   3.205   2.003 -0.0805  0.3257 -0.1330
 1171SOL    HW2 4714   3.580   3.210   2.090 -0.7289 -0.2261 -0.3957
 1171SOL    HW3 4715   3.614   3.294   1.969  0.5901  0.6456  0.5692
 1171SOL    MW4 4716   3.614   3.217   2.010 -0.0776  0.2951 -0.0750
 1172SOL     OW 4717   3.552   3.470   1.927  0.3664 -0.1604  0.3046
 1172SOL    HW2 4718   3.629   3.517   1.960 -0.2857 -0.0205  1.6728
 1172SOL    HW3 4719   3.553   3.485   1.833  1.2645  0.9619  0.4848
 1172SOL    MW4 4720   3.563   3.478   1.919  0.3988  0.0061  0.5089
 1173SOL     OW 4721   3.806   3.604   2.004  0.0134  0.0810 -0.0776
 1173SOL    HW2 4722   3.877   3.556   1.963 -0.4010  0.2345 -0.9777
 1173SOL    HW3 4723   3.803   3.688   1.958 -0.4967  0.2299  0.2185
 1173SOL    MW4 4724   3.815   3.609   1.993 -0.1086  0.1209 -0.1573
 1174SOL     OW 4725   3.805   3.868   1.897  0.1776  0.0201  0.3967
 1174SOL    HW2 4726   3.757   3.943   1.932 -0.4807 -0.1720 -0.0880
 1174SOL    HW3 4727   3.804   3.880   1.802  1.1855  0.0680  0.3810
 1174SOL    MW4 4728   3.799   3.879   1.889  0.2238  0.0011  0.3307
 1175SOL     OW 4729   3.611   4.051   1.959 -0.7121  0.5914 -0.0343
 1175SOL    HW2 4730   3.594   4.030   2.051  0.3657  0.7025  0.1956
 1175SOL    HW3 4731   3.538   4.011   1.912  0.1494 -1.8410  0.6087
 1175SOL    MW4 4732   3.599   4.043   1.965 -0.4562  0.2852  0.0808
 1176SOL     OW 4733   3.624   4.313   1.850 -0.1901  0.0434  0.2055
 1176SOL    HW2 4734   3.700   4.353   1.893 -0.2669  0.2149  0.1840
 1176SOL    HW3 4735   3.625   4.222   1.879  0.7256 -0.2663 -0.7417
 1176SOL    MW4 4736   3.634   4.306   1.859 -0.0794  0.0252  0.0777
 1177SOL     OW 4737   3.838   4.395   1.982  0.3489 -0.1799 -0.0411
 1177SOL    HW2 4738   3.838   4.385   2.077  2.3767 -0.4349 -0.0469
 1177SOL    HW3 4739   3.899   4.329   1.951  0.8013  0.8576 -1.4013
 1177SOL    MW4 4740   3.846   4.385   1.991  0.6762 -0.0767 -0.2213
 1178SOL     OW 4741   4.264   4.664   1.854  0.1812 -0.3797  0.4391
 1178SOL    HW2 4742   4.202   4.729   1.887  0.3544  1.3413 -2.4243
 1178SOL    HW3 4743   4.348   4.689   1.893 -0.3329 -0.8542  1.8795
 1178SOL    MW4 4744   4.267   4.676   1.864  0.1362 -0.2153  0.2514
 1179SOL     OW 4745   4.048   0.138   1.957 -0.2153  0.0777  0.4249
 1179SOL    HW2 4746   4.053   0.122   2.051 -1.0407 -0.2731  0.4107
 1179SOL    HW3 4747   3.970   0.091   1.928 -0.6479  1.1775 -0.2345
 1179SOL    MW4 4748   4.038   0.130   1.965 -0.3813  0.1765  0.3360
 1180SOL     OW 4749   4.056   0.410   1.877  0.1057 -0.3746 -0.1118
 1180SOL    HW2 4750   4.064   0.323   1.916  0.4815 -0.2855  0.0143
 1180SOL    HW3 4751   3.969   0.441   1.903 -0.0707 -0.7590 -0.2511
 1180SOL    MW4 4752   4.046   0.403   1.886  0.1320 -0.4135 -0.1135
 1181SOL     OW 4753   4.303   0.499   2.007  0.3446  0.2193  0.4630
 1181SOL    HW2 4754   4.309   0.504   2.103  1.5985  0.8996  0.3539
 1181SOL    HW3 4755   4.211   0.480   1.990  0.0997  0.1577  1.8064
 1181SOL    MW4 4756   4.292   0.497   2.018  0.4777  0.3009  0.6258
 1182SOL     OW 4757   4.276   0.765   1.866  0.3349  0.2641 -0.3701
 1182SOL    HW2 4758   4.273   0.675   1.898  0.8674  0.4156  0.1103
 1182SOL    HW3 4759   4.259   0.757   1.772 -2.7580 -0.0552  0.1394
 1182SOL    MW4 4760   4.273   0.752   1.858 -0.0029  0.2419 -0.2395
 1183SOL     OW 4761   4.080   0.902   1.999 -0.0106 -0.1168  0.2366
 1183SOL    HW2 4762   4.151   0.854   1.957  0.0490 -0.1827  0.4125
 1183SOL    HW3 4763   4.000   0.864   1.963  0.0535  0.6120 -0.6814
 1183SOL    MW4 4764   4.079   0.891   1.989  0.0057 -0.0293  0.1387
 1184SOL     OW 4765   4.031   1.150   1.866 -0.2554 -0.1617 -0.3594
 1184SOL    HW2 4766   4.042   1.069   1.916 -0.1051  0.9185  1.3724
 1184SOL    HW3 4767   3.954   1.191   1.903 -0.4164  0.4401 -1.3422
 1184SOL    MW4 4768   4.023   1.144   1.877 -0.2568  0.0602 -0.2606
 1185SOL     OW 4769   4.248   1.309   1.950 -0.1480  0.2313 -0.3593
 1185SOL    HW2 4770   4.233   1.302   2.044  1.4490  0.9145 -0.0377
 1185SOL    HW3 4771   4.178   1.257   1.910 -0.5401 -0.4613  1.2137
 1185SOL    MW4 4772   4.237   1.301   1.957  0.0110  0.2301 -0.1093
 1186SOL     OW 4773   4.268   1.575   1.911 -0.4778 -0.0832 -0.3460
 1186SOL    HW2 4774   4.240   1.484   1.918 -2.5418  0.4661 -0.9952
 1186SOL    HW3 4775   4.290   1.586   1.818 -0.4650  0.1469 -0.3163
 1186SOL    MW4 4776   4.267   1.565   1.899 -0.7484  0.0197 -0.4277
 1187SOL     OW 4777   4.044   1.694   2.036  0.1634  0.3842 -0.1770
 1187SOL    HW2 4778   4.052   1.692   2.131 -0.0866  0.2272 -0.1605
 1187SOL    HW3 4779   4.127   1.659   2.004 -0.9376 -2.4477  0.0066
 1187SOL    MW4 4780   4.056   1.689   2.044 -0.0148 -0.0101 -0.1506
 1188SOL     OW 4781   4.068   1.950   1.916  0.5932 -0.1067  0.0979
 1188SOL    HW2 4782   4.049   1.864   1.953  0.9181  0.8376  2.5431
 1188SOL    HW3 4783   4.073   1.935   1.822 -2.2612 -2.2350  0.2007
 1188SOL    MW4 4784   4.066   1.937   1.909  0.2595 -0.2629  0.4341
 1189SOL     OW 4785   4.286   2.102   1.999 -0.1111 -0.0848  0.2917
 1189SOL    HW2 4786   4.280   2.090   2.094 -0.4597  2.0981  0.5633
 1189SOL    HW3 4787   4.207   2.059   1.965 -0.8774  0.5950  1.1623
 1189SOL    MW4 4788   4.275   2.095   2.007 -0.2582  0.2929  0.4424
 1190SOL     OW 4789   4.279   2.347   1.887 -0.3107  0.1070  0.2438
 1190SOL    HW2 4790   4.287   2.261   1.928  1.8195  0.5589  0.8290
 1190SOL    HW3 4791   4.355   2.396   1.919 -0.6829  1.7109 -1.2705
 1190SOL    MW4 4792   4.290   2.342   1.897 -0.0787  0.3782  0.1212
 1191SOL     OW 4793   4.059   2.440   2.054 -0.0872  0.1949  0.1866
 1191SOL    HW2 4794   4.080   2.434   2.147 -0.5983 -0.2715  0.2766
 1191SOL    HW3 4795   4.136   2.405   2.010  0.1901  0.4942  0.4292
 1191SOL    MW4 4796   4.072   2.434   2.061 -0.1181  0.1729  0.2305
 1192SOL     OW 4797   4.027   2.668   1.882  0.0538 -0.5330 -0.0102
 1192SOL    HW2 4798   4.023   2.589   1.934 -2.0195 -1.4880 -1.5439
 1192SOL    HW3 4799   3.953   2.721   1.912  1.5936  1.0048  1.2153
 1192SOL    MW4 4800   4.017   2.665   1.893 -0.0166 -0.4561 -0.0509
 1193SOL     OW 4801   4.256   2.832   1.966  0.4456 -0.3112 -0.1699
 1193SOL    HW2 4802   4.256   2.845   2.061 -0.0586  1.7413 -0.4472
 1193SOL    HW3 4803   4.183   2.772   1.951  0.0771 -0.0867  0.6606
 1193SOL    MW4 4804   4.247   2.826   1.977  0.3305 -0.0108 -0.0969
 1194SOL     OW 4805   4.285   3.090   1.890 -0.4603 -0.0383  0.0804
 1194SOL    HW2 4806   4.210   3.129   1.935  0.6025 -0.6961  2.4653
 1194SOL    HW3 4807   4.275   2.996   1.902  0.9924 -0.1100  0.8135
 1194SOL    MW4 4808   4.274   3.083   1.897 -0.1284 -0.1345  0.4918
 1195SOL     OW 4809   4.057   3.227   1.996  0.1310  0.2030 -0.2387
 1195SOL    HW2 4810   4.071   3.219   2.090 -0.1800 -1.1896 -0.3149
 1195SOL    HW3 4811   3.987   3.166   1.976 -0.4314  1.1626 -1.2343
 1195SOL    MW4 4812   4.050   3.218   2.006  0.0158  0.1459 -0.3801
 1196SOL     OW 4813   4.026   3.475   1.888 -0.0558  0.4555  0.1477
 1196SOL    HW2 4814   4.093   3.531   1.927  0.8854  0.8136 -1.8891
 1196SOL    HW3 4815   4.044   3.388   1.922  1.9002  0.4259 -0.8884
 1196SOL    MW4 4816   4.037   3.471   1.898  0.3264  0.4989 -0.2577
 1197SOL     OW 4817   4.264   3.567   1.987  0.2742  0.3889 -0.0983
 1197SOL    HW2 4818   4.273   3.651   1.943  0.2589 -0.2068 -1.2599
 1197SOL    HW3 4819   4.350   3.525   1.977  0.4011  0.4229  0.8102
 1197SOL    MW4 4820   4.276   3.572   1.980  0.2889  0.3148 -0.1317
 1198SOL     OW 4821   4.263   3.832   1.880  0.4016  0.1378  0.0209
 1198SOL    HW2 4822   4.322   3.892   1.926  1.3245  0.1788 -1.1868
 1198SOL    HW3 4823   4.289   3.839   1.788  0.4550 -2.0189 -0.1570
 1198SOL    MW4 4824   4.275   3.841   1.874  0.5304 -0.1413 -0.1619
 1199SOL     OW 4825   4.055   3.982   1.968 -0.1314  0.2125 -1.0296
 1199SOL    HW2 4826   4.132   3.937   1.934  0.2785  0.2916 -0.2268
 1199SOL    HW3 4827   3.981   3.930   1.938  0.2965 -0.5377 -0.7995
 1199SOL    MW4 4828   4.056   3.969   1.960 -0.0208  0.1239 -0.8933
 1200SOL     OW 4829   4.020   4.225   1.839 -0.0870 -0.4975  0.3183
 1200SOL    HW2 4830   4.084   4.292   1.864 -0.6121  0.5173 -0.9754
 1200SOL    HW3 4831   4.047   4.147   1.888  0.6986  0.5753  1.6425
 1200SOL    MW4 4832   4.032   4.224   1.849 -0.0526 -0.2221  0.3224
 1201SOL     OW 4833   4.225   4.400   1.902  0.4837  0.2389  0.3897
 1201SOL    HW2 4834   4.256   4.407   1.992  1.3338  0.2293  0.1105
 1201SOL    HW3 4835   4.228   4.490   1.868  0.2056  0.2373  0.3616
 1201SOL    MW4 4836   4.230   4.413   1.909  0.5591  0.2374  0.3492
 1202SOL     OW 4837   0.235   4.651   2.347 -0.1553  0.1122  0.0113
 1202SOL    HW2 4838   0.238   4.647   2.443 -1.9194 -0.1960  0.0786
 1202SOL    HW3 4839   0.304   4.713   2.324  1.1990 -0.8171  1.3845
 1202SOL    MW4 4840   0.245   4.659   2.357 -0.2094 -0.0511  0.2013
 1203SOL     OW 4841   0.025   0.117   2.208 -0.0570 -0.0331  0.0073
 1203SOL    HW2 4842   0.093   0.056   2.236 -2.2619 -2.0466  1.1407
 1203SOL    HW3 4843   0.027   0.113   2.113  2.2623  0.9543 -0.0312
 1203SOL    MW4 4844   0.034   0.109   2.200 -0.0419 -0.1685  0.1517
 1204SOL     OW 4845   4.479   0.349   2.362  0.0945 -0.2407  0.1939
 1204SOL    HW2 4846   4.555   0.404   2.344  0.9978 -0.9906  1.6094
 1204SOL    HW3 4847   4.486   0.277   2.300  0.4083 -0.1864  0.1637
 1204SOL    MW4 4848   4.490   0.347   2.352  0.2551 -0.3325  0.3767
 1205SOL     OW 4849   0.207   0.506   2.285  0.2506  0.0033  0.3740
 1205SOL    HW2 4850   0.294   0.473   2.303 -0.3462 -1.6062  0.4066
 1205SOL    HW3 4851   0.205   0.519   2.190  0.5600  0.1296  0.3872
 1205SOL    MW4 4852   0.218   0.503   2.274  0.2126 -0.1924  0.3801
 1206SOL     OW 4853   0.198   0.759   2.355 -0.0360  0.0433 -0.4944
 1206SOL    HW2 4854   0.171   0.766   2.447  2.0124  0.5282  0.1124
 1206SOL    HW3 4855   0.186   0.666   2.334 -1.1809  0.0644  0.0535
 1206SOL    MW4 4856   0.193   0.748   2.365  0.0832  0.1100 -0.3421
 1207SOL     OW 4857   4.484   0.926   2.248  0.3148 -0.1323 -0.4527
 1207SOL    HW2 4858   4.556   0.872   2.279 -0.3990 -0.9902 -0.2340
 1207SOL    HW3 4859   4.484   0.913   2.153  0.7143  0.2043 -0.4967
 1207SOL    MW4 4860   4.493   0.917   2.239  0.2733 -0.2011 -0.4296
 1208SOL     OW 4861   4.489   1.192   2.356 -0.4634 -0.4425  0.0835
 1208SOL    HW2 4862   4.509   1.185   2.449  1.8719  0.0148 -0.3491
 1208SOL    HW3 4863   4.472   1.103   2.327 -0.2329 -0.6967  0.7491
 1208SOL    MW4 4864   4.489   1.180   2.364 -0.1249 -0.4157  0.1142
 1209SOL     OW 4865   0.224   1.327   2.242 -0.1396 -0.4969 -0.0643
 1209SOL    HW2 4866   0.144   1.286   2.273 -0.5743  0.4314  0.0602
 1209SOL    HW3 4867   0.230   1.303   2.149  0.2191 -1.7830  0.2873
 1209SOL    MW4 4868   0.214   1.319   2.234 -0.1496 -0.5441 -0.0015
 1210SOL     OW 4869   0.241   1.571   2.361 -0.1072 -0.2748  0.0394
 1210SOL    HW2 4870   0.214   1.543   2.449 -1.2064  0.8880  0.0925
 1210SOL    HW3 4871   0.244   1.491   2.310 -2.0507 -0.6613  0.4881
 1210SOL    MW4 4872   0.238   1.557   2.366 -0.5086 -0.1724  0.1056
 1211SOL     OW 4873   0.007   1.689   2.281 -0.3234 -0.2621  0.2003
 1211SOL    HW2 4874   0.013   1.783   2.298  0.0605  0.1046 -1.8000
 1211SOL    HW3 4875   0.093   1.655   2.305 -0.0487  0.1114 -0.2355
 1211SOL    MW4 4876   0.020   1.697   2.287 -0.2365 -0.1644 -0.1212
 1212SOL     OW 4877   0.024   1.951   2.357 -0.1944 -0.3050 -0.4545
 1212SOL    HW2 4878  -0.056   2.000   2.340  0.4599  0.2232 -2.2018
 1212SOL    HW3 4879   0.094   2.005   2.320  0.7866 -1.4904 -0.3988
 1212SOL    MW4 4880   0.023   1.964   2.350  0.0213 -0.3917 -0.6777
 1213SOL     OW 4881   0.247   2.084   2.256  0.1191 -0.0429 -0.0399
 1213SOL    HW2 4882   0.308   2.017   2.287 -0.2671 -0.3257  0.1100
 1213SOL    HW3 4883   0.251   2.078   2.161  1.1233  0.6587 -0.0481
 1213SOL    MW4 4884   0.256   2.074   2.248  0.2006  0.0124 -0.0212
 1214SOL     OW 4885   0.270   2.345   2.371 -0.1964 -0.1174  0.1717
 1214SOL    HW2 4886   0.259   2.333   2.465  0.7305  1.1774  0.4490
 1214SOL    HW3 4887   0.288   2.257   2.338 -0.6853 -0.6068  1.1712
 1214SOL    MW4 4888   0.271   2.332   2.379 -0.1386 -0.0111  0.3401
 1215SOL     OW 4889   0.020   2.463   2.286 -0.0461 -0.0587 -0.3141
 1215SOL    HW2 4890   0.020   2.554   2.314  0.2074  0.2625 -1.3466
 1215SOL    HW3 4891   0.104   2.429   2.316  0.0371  0.1594 -0.3002
 1215SOL    MW4 4892   0.031   2.470   2.294 -0.0017  0.0124 -0.4485
 1216SOL     OW 4893   0.009   2.731   2.344 -0.1013  0.6184 -0.2381
 1216SOL    HW2 4894   0.022   2.716   2.437 -0.2265  0.9008 -0.1726
 1216SOL    HW3 4895   0.084   2.784   2.317 -0.4386  1.1614 -0.1359
 1216SOL    MW4 4896   0.020   2.736   2.353 -0.1623  0.7273 -0.2160
 1217SOL     OW 4897   0.229   2.877   2.267 -0.7135  0.2368 -0.2648
 1217SOL    HW2 4898   0.303   2.826   2.298 -0.4101  0.1344 -1.1398
 1217SOL    HW3 4899   0.234   2.870   2.172 -2.1038 -0.1506 -0.3200
 1217SOL    MW4 4900   0.239   2.869   2.258 -0.8569  0.1722 -0.3875
 1218SOL     OW 4901   0.240   3.117   2.357 -0.1600 -0.0422  0.1544
 1218SOL    HW2 4902   0.152   3.152   2.342 -0.2351  0.0673  0.8380
 1218SOL    HW3 4903   0.237   3.028   2.322  0.5362  1.1946 -3.1954
 1218SOL    MW4 4904   0.228   3.110   2.351 -0.0780  0.1354 -0.1974
 1219SOL     OW 4905   4.479   3.228   2.290 -0.0357 -0.0321  0.0611
 1219SOL    HW2 4906   4.480   3.319   2.320 -1.6601  0.5290 -1.4989
 1219SOL    HW3 4907   4.500   3.233   2.197 -0.5834 -1.2082 -0.1327
 1219SOL    MW4 4908   4.482   3.241   2.282 -0.3223 -0.1132 -0.1703
 1220SOL     OW 4909   4.475   3.497   2.393 -0.1478 -0.3116  0.5218
 1220SOL    HW2 4910   4.458   3.483   2.487 -2.9909 -3.1255 -0.3169
 1220SOL    HW3 4911   4.393   3.533   2.360 -0.2394 -2.1908 -1.3902
 1220SOL    MW4 4912   4.462   3.500   2.401 -0.5350 -0.9308  0.1589
 1221SOL     OW 4913   0.214   3.571   2.264 -0.2842  0.1985  0.2548
 1221SOL    HW2 4914   0.289   3.550   2.320 -0.1840  0.1378  0.0964
 1221SOL    HW3 4915   0.139   3.530   2.308 -0.4830  1.5772  1.2553
 1221SOL    MW4 4916   0.214   3.563   2.277 -0.2972  0.3724  0.3659
 1222SOL     OW 4917   0.196   3.849   2.367 -0.0172  0.1485  0.5794
 1222SOL    HW2 4918   0.114   3.890   2.340 -0.1585  0.4910  1.5045
 1222SOL    HW3 4919   0.190   3.758   2.336  0.0511  0.6573 -0.9653
 1222SOL    MW4 4920   0.185   3.842   2.360 -0.0268  0.2608  0.4977
 1223SOL     OW 4921   4.467   3.990   2.272 -0.1139 -0.0569  0.1015
 1223SOL    HW2 4922   4.473   4.082   2.298  1.3866  0.3031 -1.4710
 1223SOL    HW3 4923   4.476   3.991   2.177  2.3815 -2.0296  0.2692
 1223SOL    MW4 4924   4.469   4.003   2.263  0.4133 -0.2697 -0.0839
 1224SOL     OW 4925   0.013   4.255   2.346 -0.3822 -0.0743  0.0450
 1224SOL    HW2 4926  -0.010   4.260   2.438  2.3312 -2.8470  0.9882
 1224SOL    HW3 4927   0.095   4.304   2.339 -0.4848 -0.0243 -0.8420
 1224SOL    MW4 4928   0.021   4.262   2.357 -0.0377 -0.4335  0.0524
 1225SOL     OW 4929   0.257   4.385   2.252  0.3882  0.4999 -0.3477
 1225SOL    HW2 4930   0.340   4.357   2.290 -0.7410 -1.7938  0.5224
 1225SOL    HW3 4931   0.254   4.480   2.267  1.1762  0.0658  2.9524
 1225SOL    MW4 4932   0.268   4.394   2.259  0.3432  0.1400  0.2025
 1226SOL     OW 4933   0.738   0.004   2.308 -0.0734  0.0041 -0.5072
 1226SOL    HW2 4934   0.728  -0.002   2.403  0.3195  0.8699 -0.4032
 1226SOL    HW3 4935   0.820   0.052   2.296 -0.1528 -0.0505 -1.2875
 1226SOL    MW4 4936   0.747   0.010   2.319 -0.0320  0.1111 -0.5964
 1227SOL     OW 4937   0.461   0.122   2.278  0.2917  0.1298  0.5678
 1227SOL    HW2 4938   0.552   0.093   2.286  0.6581  1.4125  1.1116
 1227SOL    HW3 4939   0.444   0.122   2.183  1.2335  1.0473  0.4006
 1227SOL    MW4 4940   0.471   0.118   2.266  0.4643  0.4201  0.6175
 1228SOL     OW 4941   0.453   0.396   2.336 -0.0854  0.4105 -0.1963
 1228SOL    HW2 4942   0.446   0.383   2.431  0.9371 -0.0541 -0.1785
 1228SOL    HW3 4943   0.440   0.308   2.300  1.8121  0.1866 -0.3590
 1228SOL    MW4 4944   0.450   0.383   2.344  0.2999  0.3197 -0.2154
 1229SOL     OW 4945   0.686   0.528   2.231  0.6531  0.1639  0.4650
 1229SOL    HW2 4946   0.663   0.618   2.254  0.5872  0.2737 -0.0193
 1229SOL    HW3 4947   0.613   0.475   2.265  0.5213  0.3294  0.4399
 1229SOL    MW4 4948   0.673   0.533   2.239  0.6270  0.2002  0.3978
 1230SOL     OW 4949   0.684   0.782   2.353 -0.2998  0.1086 -0.2403
 1230SOL    HW2 4950   0.687   0.770   2.448  0.6695 -2.1619 -0.5065
 1230SOL    HW3 4951   0.594   0.808   2.334 -1.0330 -1.3616  1.1187
 1230SOL    MW4 4952   0.672   0.784   2.363 -0.2686 -0.3850 -0.0961
 1231SOL     OW 4953   0.453   0.876   2.246 -0.1136 -0.7178 -0.2359
 1231SOL    HW2 4954   0.460   0.967   2.274 -0.7527 -0.4771 -0.8556
 1231SOL    HW3 4955   0.375   0.843   2.290 -0.1057 -0.8550 -0.3255
 1231SOL    MW4 4956   0.444   0.883   2.255 -0.1968 -0.7041 -0.3295
 1232SOL     OW 4957   0.439   1.145   2.316  0.3279  0.3119  0.0362
 1232SOL    HW2 4958   0.430   1.128   2.410 -0.5109 -0.2597 -0.1460
 1232SOL    HW3 4959   0.363   1.198   2.294  0.1809 -0.1097 -0.4607
 1232SOL    MW4 4960   0.428   1.150   2.325  0.1979  0.1808 -0.0534
 1233SOL     OW 4961   0.679   1.231   2.204 -0.3744 -0.0478  0.0064
 1233SOL    HW2 4962   0.688   1.322   2.233  0.4070  0.7400 -2.5848
 1233SOL    HW3 4963   0.597   1.201   2.243 -0.5503  1.6973  1.0327
 1233SOL    MW4 4964   0.670   1.239   2.213 -0.2945  0.2864 -0.2001
 1234SOL     OW 4965   0.682   1.467   2.344 -0.0899 -0.3029  0.1606
 1234SOL    HW2 4966   0.666   1.476   2.438  0.0738  0.8133  0.0806
 1234SOL    HW3 4967   0.765   1.511   2.329 -0.8459  0.8225 -0.7611
 1234SOL    MW4 4968   0.690   1.474   2.355 -0.1680 -0.0072  0.0284
 1235SOL     OW 4969   0.486   1.635   2.250 -0.2855  0.4186 -0.2746
 1235SOL    HW2 4970   0.555   1.585   2.294 -0.0705  0.3094 -0.7374
 1235SOL    HW3 4971   0.405   1.601   2.288 -0.1259 -0.0390 -0.3372
 1235SOL    MW4 4972   0.484   1.624   2.261 -0.2361  0.3438 -0.3439
 1236SOL     OW 4973   0.455   1.907   2.323 -0.3852 -0.1343 -0.2298
 1236SOL    HW2 4974   0.531   1.947   2.280 -0.0593 -0.8278 -0.3014
 1236SOL    HW3 4975   0.469   1.813   2.314 -1.5996 -0.2643 -0.8377
 1236SOL    MW4 4976   0.467   1.900   2.317 -0.5024 -0.2429 -0.3194
 1237SOL     OW 4977   0.681   2.032   2.225 -0.0978  0.5060  0.0181
 1237SOL    HW2 4978   0.753   1.972   2.246 -0.5214  0.1821  0.5493
 1237SOL    HW3 4979   0.706   2.115   2.266 -0.3108  0.2293  0.7038
 1237SOL    MW4 4980   0.694   2.035   2.233 -0.1818  0.4268  0.1786
 1238SOL     OW 4981   0.711   2.294   2.325  0.0024 -0.0082 -0.0242
 1238SOL    HW2 4982   0.697   2.295   2.420  1.0613  0.6644  0.1407
 1238SOL    HW3 4983   0.790   2.347   2.312 -1.3395  1.6838 -1.4855
 1238SOL    MW4 4984   0.720   2.301   2.336 -0.0350  0.3038 -0.1952
 1239SOL     OW 4985   0.514   2.469   2.243 -0.1924  0.1678  0.2702
 1239SOL    HW2 4986   0.587   2.411   2.263  0.9906  2.2612  2.2455
 1239SOL    HW3 4987   0.440   2.432   2.289 -0.2089 -1.4906 -1.0380
 1239SOL    MW4 4988   0.514   2.457   2.252 -0.0385  0.2252  0.3582
 1240SOL     OW 4989   0.503   2.717   2.363 -0.3493  0.1008  0.2366
 1240SOL    HW2 4990   0.487   2.707   2.457  0.0325 -0.6110  0.2272
 1240SOL    HW3 4991   0.510   2.628   2.330 -0.3885  0.3509 -0.4570
 1240SOL    MW4 4992   0.502   2.704   2.371 -0.3041  0.0399  0.1439
 1241SOL     OW 4993   0.698   2.862   2.251 -0.1712  0.6066  0.3350
 1241SOL    HW2 4994   0.769   2.822   2.301  1.0156 -0.0814 -1.8343
 1241SOL    HW3 4995   0.621   2.811   2.274  0.5517 -0.3588  0.6648
 1241SOL    MW4 4996   0.697   2.850   2.260  0.0807  0.3884  0.0923
 1242SOL     OW 4997   0.696   3.108   2.373  0.2983  0.0822  0.1351
 1242SOL    HW2 4998   0.619   3.156   2.341  0.0614 -0.2124  0.2640
 1242SOL    HW3 4999   0.696   3.027   2.322  0.5952  0.1386  0.0465
 1242SOL    MW4 5000   0.686   3.104   2.362  0.3062  0.0508  0.1404
 1243SOL     OW 5001   0.464   3.238   2.267  0.2202 -0.0790  0.3025
 1243SOL    HW2 5002   0.382   3.193   2.285 -1.0982  2.0982 -0.1436
 1243SOL    HW3 5003   0.481   3.220   2.174 -1.0843  1.5289 -0.2715
 1243SOL    MW4 5004   0.456   3.230   2.257 -0.1258  0.4204  0.1679
 1244SOL     OW 5005   0.444   3.504   2.413 -0.1904 -0.1774  0.0764
 1244SOL    HW2 5006   0.520   3.560   2.394 -0.6471  0.5115  0.2772
 1244SOL    HW3 5007   0.467   3.420   2.374 -0.1377  0.5821 -1.5786
 1244SOL    MW4 5008   0.457   3.501   2.405 -0.2437  0.0137 -0.1154
 1245SOL     OW 5009   0.656   3.655   2.301  0.6503 -0.2841  0.6473
 1245SOL    HW2 5010   0.671   3.749   2.310 -1.1597  0.0025  0.9380
 1245SOL    HW3 5011   0.671   3.637   2.209  0.2312  0.4579  0.4290
 1245SOL    MW4 5012   0.660   3.665   2.290  0.3562 -0.1484  0.6568
 1246SOL     OW 5013   0.697   3.916   2.350  0.2845  0.2061 -0.6342
 1246SOL    HW2 5014   0.701   3.918   2.445  0.4832  0.8436 -0.6566
 1246SOL    HW3 5015   0.604   3.925   2.329  0.1938 -0.3553 -0.4950
 1246SOL    MW4 5016   0.685   3.917   2.360  0.2987  0.2161 -0.6188
 1247SOL     OW 5017   0.445   3.961   2.269 -0.3749 -0.1228  0.1058
 1247SOL    HW2 5018   0.353   3.945   2.291 -0.3356 -0.5346 -0.0367
 1247SOL    HW3 5019   0.446   3.970   2.174 -0.5391  1.6360  0.2576
 1247SOL    MW4 5020   0.433   3.960   2.259 -0.3914  0.0549  0.1070
 1248SOL     OW 5021   0.464   4.223   2.365 -0.2306 -0.6272  0.0188
 1248SOL    HW2 5022   0.537   4.278   2.337 -0.5913  0.3745  0.9918
 1248SOL    HW3 5023   0.468   4.146   2.308  0.7615  0.0429 -0.8317
 1248SOL    MW4 5024   0.474   4.220   2.354 -0.1473 -0.4066  0.0349
 1249SOL     OW 5025   0.652   4.394   2.266 -0.0330 -0.3857 -0.4792
 1249SOL    HW2 5026   0.673   4.484   2.289  1.5101 -0.6692 -0.7390
 1249SOL    HW3 5027   0.635   4.397   2.172  0.6162 -0.4653 -0.6017
 1249SOL    MW4 5028   0.652   4.406   2.256  0.2562 -0.4336 -0.5296
 1250SOL     OW 5029   1.182   4.649   2.355  0.5594 -0.0002  0.3089
 1250SOL    HW2 5030   1.184   4.642   2.451  1.2493 -0.3542  0.2739
 1250SOL    HW3 5031   1.105   4.703   2.337 -0.2908 -0.9700  0.9945
 1250SOL    MW4 5032   1.172   4.655   2.365  0.5383 -0.1748  0.3947
 1251SOL     OW 5033   0.975   0.130   2.247  0.6402 -0.1895  0.3186
 1251SOL    HW2 5034   0.944   0.218   2.272 -0.3945 -0.3665 -0.2795
 1251SOL    HW3 5035   0.961   0.127   2.152  0.6242 -1.0160  0.3459
 1251SOL    MW4 5036   0.969   0.141   2.238  0.5016 -0.3219  0.2433
 1252SOL     OW 5037   0.900   0.381   2.330  0.0675 -0.3168  0.0519
 1252SOL    HW2 5038   0.981   0.420   2.297  0.5055 -0.3724  1.0562
 1252SOL    HW3 5039   0.830   0.434   2.291  0.5616 -0.5145 -1.1473
 1252SOL    MW4 5040   0.902   0.393   2.320  0.1905 -0.3502  0.0262
 1253SOL     OW 5041   1.138   0.505   2.249 -0.2078  0.0786 -0.1173
 1253SOL    HW2 5042   1.221   0.456   2.253 -0.1710  0.0020 -1.4216
 1253SOL    HW3 5043   1.120   0.512   2.155 -2.0550 -0.5358  0.1723
 1253SOL    MW4 5044   1.147   0.499   2.237 -0.4467 -0.0125 -0.2512
 1254SOL     OW 5045   1.161   0.749   2.338 -0.4567 -0.5151 -0.0535
 1254SOL    HW2 5046   1.075   0.788   2.325  0.1010  1.1762  1.1599
 1254SOL    HW3 5047   1.152   0.659   2.306 -2.3521 -0.0309 -0.9455
 1254SOL    MW4 5048   1.149   0.742   2.332 -0.6332 -0.2280 -0.0111
 1255SOL     OW 5049   0.928   0.856   2.237 -0.1553  0.0688  0.0252
 1255SOL    HW2 5050   0.922   0.948   2.264  1.5007 -0.0649  0.9272
 1255SOL    HW3 5051   0.848   0.816   2.270 -0.4982  1.0089  0.3579
 1255SOL    MW4 5052   0.917   0.863   2.245  0.0179  0.1752  0.1881
 1256SOL     OW 5053   0.899   1.118   2.315  0.4974  0.4392 -0.5010
 1256SOL    HW2 5054   0.967   1.183   2.298  0.7865  0.1780 -0.3327
 1256SOL    HW3 5055   0.821   1.154   2.271  0.6438  0.9177 -0.3767
 1256SOL    MW4 5056   0.898   1.131   2.307  0.5548  0.4678 -0.4624
 1257SOL     OW 5057   1.131   1.270   2.228 -0.2952  0.2634 -0.1953
 1257SOL    HW2 5058   1.218   1.231   2.242 -0.8066 -0.4281  1.1028
 1257SOL    HW3 5059   1.121   1.271   2.133  1.4622  1.0787 -0.4061
 1257SOL    MW4 5060   1.141   1.265   2.218 -0.1308  0.2797 -0.0518
 1258SOL     OW 5061   1.147   1.529   2.328  0.3528  0.1115 -0.2648
 1258SOL    HW2 5062   1.064   1.567   2.297  0.7150  0.8411 -0.3452
 1258SOL    HW3 5063   1.152   1.444   2.285 -0.2677  0.1429 -0.4074
 1258SOL    MW4 5064   1.136   1.523   2.318  0.3187  0.2119 -0.2942
 1259SOL     OW 5065   0.900   1.614   2.238  0.1087 -0.1793  0.0308
 1259SOL    HW2 5066   0.882   1.702   2.270 -0.8051 -0.9699  1.7965
 1259SOL    HW3 5067   0.913   1.625   2.143  1.2415  1.9925  0.4010
 1259SOL    MW4 5068   0.899   1.627   2.229  0.1376  0.0029  0.3126
 1260SOL     OW 5069   0.897   1.890   2.307 -0.1803  0.2243  0.2054
 1260SOL    HW2 5070   0.898   1.875   2.402  1.5798 -0.9762  0.0341
 1260SOL    HW3 5071   0.975   1.943   2.291 -0.1297 -0.0990 -0.6338
 1260SOL    MW4 5072   0.908   1.895   2.317  0.0586  0.0233  0.0721
 1261SOL     OW 5073   1.148   2.002   2.213  0.0494 -0.4026  1.0735
 1261SOL    HW2 5074   1.204   1.939   2.256  0.5104 -0.1437  0.8525
 1261SOL    HW3 5075   1.163   1.989   2.119 -0.3374 -0.4065  1.0093
 1261SOL    MW4 5076   1.157   1.992   2.206  0.0592 -0.3690  1.0359
 1262SOL     OW 5077   1.119   2.278   2.349  0.2057  0.0732  0.3896
 1262SOL    HW2 5078   1.189   2.323   2.303  1.7285 -0.2700  2.2947
 1262SOL    HW3 5079   1.122   2.188   2.316  2.4553 -0.6309  2.3498
 1262SOL    MW4 5080   1.129   2.272   2.339  0.7034 -0.0650  0.8996
 1263SOL     OW 5081   0.948   2.473   2.258  0.0742  0.3632 -0.1861
 1263SOL    HW2 5082   1.011   2.412   2.297 -0.2786  0.5167  0.6399
 1263SOL    HW3 5083   0.945   2.449   2.165  0.3713 -0.4923  0.0221
 1263SOL    MW4 5084   0.956   2.462   2.251  0.0668  0.2706 -0.0497
 1264SOL     OW 5085   0.897   2.735   2.370  0.2575 -0.4534  0.4814
 1264SOL    HW2 5086   0.884   2.733   2.465 -2.2255 -1.0192  0.1602
 1264SOL    HW3 5087   0.898   2.643   2.344  1.8618 -0.3307  0.0513
 1264SOL    MW4 5088   0.895   2.723   2.380  0.1415 -0.5119  0.3823
 1265SOL     OW 5089   1.116   2.854   2.252 -0.0395 -0.5656  0.2198
 1265SOL    HW2 5090   1.185   2.789   2.266  0.5066 -0.3214 -1.2047
 1265SOL    HW3 5091   1.042   2.822   2.302  0.5973 -1.6884  0.4649
 1265SOL    MW4 5092   1.116   2.841   2.260  0.1165 -0.6815  0.0642
 1266SOL     OW 5093   1.137   3.145   2.349 -0.3836 -0.4570  0.0519
 1266SOL    HW2 5094   1.064   3.195   2.316 -0.6337 -0.8246  0.0453
 1266SOL    HW3 5095   1.123   3.056   2.315 -1.1385 -1.0586  1.8655
 1266SOL    MW4 5096   1.126   3.140   2.340 -0.5162 -0.5849  0.2903
 1267SOL     OW 5097   0.898   3.270   2.228 -0.0259  0.2672 -0.0877
 1267SOL    HW2 5098   0.887   3.359   2.261 -1.0760  0.5362 -1.1402
 1267SOL    HW3 5099   0.820   3.223   2.257  1.4947 -0.9082  2.2876
 1267SOL    MW4 5100   0.887   3.276   2.236  0.0362  0.1476  0.0868
 1268SOL     OW 5101   0.888   3.514   2.370 -0.4353  0.2584 -0.1647
 1268SOL    HW2 5102   0.900   3.510   2.464 -0.4576  0.8487 -0.1322
 1268SOL    HW3 5103   0.809   3.567   2.358 -1.1501 -0.8559 -0.4771
 1268SOL    MW4 5104   0.879   3.521   2.381 -0.5325  0.1892 -0.2016
 1269SOL     OW 5105   1.118   3.602   2.247 -0.2948 -0.0694  0.2089
 1269SOL    HW2 5106   1.191   3.551   2.281  0.5482  0.7929 -0.2847
 1269SOL    HW3 5107   1.041   3.568   2.294  0.4221 -0.9348  0.7756
 1269SOL    MW4 5108   1.118   3.591   2.258 -0.0890 -0.0698  0.2185
 1270SOL     OW 5109   1.108   3.850   2.347  0.1106  0.1812 -0.5841
 1270SOL    HW2 5110   1.192   3.893   2.326  0.3828  0.1597  0.4378
 1270SOL    HW3 5111   1.116   3.763   2.308  0.4340  0.2951 -0.7773
 1270SOL    MW4 5112   1.120   3.844   2.339  0.1892  0.1934 -0.4747
 1271SOL     OW 5113   0.923   4.020   2.234  0.2239 -0.0597 -0.2297
 1271SOL    HW2 5114   0.990   3.964   2.272 -0.3082 -1.1635 -0.9061
 1271SOL    HW3 5115   0.841   3.977   2.255 -0.2534  1.0052  0.1226
 1271SOL    MW4 5116   0.921   4.007   2.241  0.0907 -0.0648 -0.2724
 1272SOL     OW 5117   0.889   4.287   2.357  0.1300  0.3318  0.0497
 1272SOL    HW2 5118   0.891   4.204   2.308 -0.3810  0.3883 -0.0733
 1272SOL    HW3 5119   0.817   4.336   2.317  0.0069  0.5670  0.5566
 1272SOL    MW4 5120   0.880   4.282   2.345  0.0464  0.3703  0.1004
 1273SOL     OW 5121   1.154   4.382   2.263  0.2587  0.0956  0.2133
 1273SOL    HW2 5122   1.078   4.352   2.312  0.4501 -0.6413  0.0728
 1273SOL    HW3 5123   1.166   4.472   2.290  0.7061 -0.4680  1.9505
 1273SOL    MW4 5124   1.145   4.390   2.273  0.3430 -0.0760  0.4239
 1274SOL     OW 5125   1.552   4.613   2.367 -0.2102  0.0727  0.0717
 1274SOL    HW2 5126   1.642   4.643   2.354 -0.2121 -0.5944 -1.6112
 1274SOL    HW3 5127   1.499   4.671   2.312 -0.5160 -1.1501 -0.9569
 1274SOL    MW4 5128   1.557   4.625   2.358 -0.2508 -0.1767 -0.2861
 1275SOL     OW 5129   1.382   0.094   2.217 -0.6072  0.2230  0.0749
 1275SOL    HW2 5130   1.389   0.183   2.252 -1.6637 -0.0061  0.9161
 1275SOL    HW3 5131   1.304   0.058   2.260  0.1923 -1.3381  0.2613
 1275SOL    MW4 5132   1.372   0.101   2.228 -0.6411 -0.0132  0.2105
 1276SOL     OW 5133   1.375   0.350   2.324  0.2083 -0.5085  0.1563
 1276SOL    HW2 5134   1.363   0.326   2.416  2.3117  2.3003  1.2648
 1276SOL    HW3 5135   1.464   0.388   2.321 -0.4196  0.8888 -2.6845
 1276SOL    MW4 5136   1.385   0.352   2.336  0.4030  0.0464 -0.0722
 1277SOL     OW 5137   1.616   0.507   2.262 -0.2676 -0.5331  0.1779
 1277SOL    HW2 5138   1.685   0.447   2.290 -0.6940 -1.1421 -0.0452
 1277SOL    HW3 5139   1.607   0.490   2.168  0.7614  1.0789 -0.2270
 1277SOL    MW4 5140   1.624   0.497   2.253 -0.1881 -0.4007  0.0951
 1278SOL     OW 5141   1.609   0.786   2.330  0.7081 -0.4628 -0.0087
 1278SOL    HW2 5142   1.678   0.827   2.277  1.1949 -0.1077  0.8941
 1278SOL    HW3 5143   1.620   0.692   2.314  0.6582 -0.3445 -0.7777
 1278SOL    MW4 5144   1.620   0.779   2.321  0.7658 -0.4003  0.0090
 1279SOL     OW 5145   1.371   0.891   2.229  0.1740 -0.4689 -0.2568
 1279SOL    HW2 5146   1.456   0.869   2.268 -0.0649  0.5349  0.8801
 1279SOL    HW3 5147   1.309   0.833   2.275  0.2032 -1.0242 -0.9088
 1279SOL    MW4 5148   1.374   0.880   2.241  0.1464 -0.4097 -0.1928
 1280SOL     OW 5149   1.369   1.151   2.303  0.0345 -0.2225  0.0871
 1280SOL    HW2 5150   1.351   1.150   2.397 -0.5712  0.2318 -0.0232
 1280SOL    HW3 5151   1.361   1.060   2.276 -1.2091 -0.1574  0.2114
 1280SOL    MW4 5152   1.365   1.139   2.312 -0.2095 -0.1539  0.0890
 1281SOL     OW 5153   1.593   1.288   2.206  0.1322  0.0251 -0.0958
 1281SOL    HW2 5154   1.518   1.237   2.235  1.4413 -1.5874  0.5441
 1281SOL    HW3 5155   1.581   1.297   2.111 -1.6676  1.1840  0.2142
 1281SOL    MW4 5156   1.582   1.283   2.197  0.0675 -0.0348  0.0295
 1282SOL     OW 5157   1.576   1.518   2.359  0.2989  0.2463  0.5083
 1282SOL    HW2 5158   1.657   1.558   2.329  1.5088 -0.4798  2.7145
 1282SOL    HW3 5159   1.571   1.435   2.311 -0.5570  1.4823 -1.6318
 1282SOL    MW4 5160   1.586   1.512   2.348  0.3456  0.3136  0.5170
 1283SOL     OW 5161   1.374   1.636   2.206  0.1947  0.3424  0.2366
 1283SOL    HW2 5162   1.452   1.600   2.248 -0.3448  0.1478  1.0760
 1283SOL    HW3 5163   1.301   1.596   2.253 -0.4198  2.1784  0.8692
 1283SOL    MW4 5164   1.375   1.626   2.218  0.0425  0.5590  0.4308
 1284SOL     OW 5165   1.341   1.870   2.357  0.5588  0.0597  0.4938
 1284SOL    HW2 5166   1.396   1.931   2.308 -0.0279 -0.0758 -0.3423
 1284SOL    HW3 5167   1.347   1.788   2.307 -1.1742  0.3112 -0.1378
 1284SOL    MW4 5168   1.349   1.867   2.344  0.2528  0.0750  0.3002
 1285SOL     OW 5169   1.512   2.040   2.216  0.2754  0.2123  0.4593
 1285SOL    HW2 5170   1.600   2.009   2.241  0.0025 -0.1082  1.0426
 1285SOL    HW3 5171   1.503   2.014   2.124  1.0144  0.7619  0.2254
 1285SOL    MW4 5172   1.523   2.032   2.207  0.3369  0.2426  0.5054
 1286SOL     OW 5173   1.550   2.298   2.296  0.3198  0.1820 -0.0352
 1286SOL    HW2 5174   1.554   2.300   2.392  2.0184  1.4543 -0.0893
 1286SOL    HW3 5175   1.539   2.206   2.274 -1.7698  0.0502  1.4094
 1286SOL    MW4 5176   1.549   2.286   2.306  0.2682  0.3325  0.1483
 1287SOL     OW 5177   1.312   2.411   2.229 -0.2961 -0.5237 -0.3525
 1287SOL    HW2 5178   1.398   2.387   2.264 -0.4866 -0.6569  0.0195
 1287SOL    HW3 5179   1.325   2.412   2.134  0.7043  1.6613 -0.2342
 1287SOL    MW4 5180   1.325   2.408   2.221 -0.1893 -0.2530 -0.2878
 1288SOL     OW 5181   1.336   2.676   2.302  0.0583  0.0350  0.3236
 1288SOL    HW2 5182   1.410   2.715   2.256  0.4187  0.3856  1.1901
 1288SOL    HW3 5183   1.333   2.586   2.270  1.3425 -0.2078  0.8579
 1288SOL    MW4 5184   1.345   2.669   2.292  0.2753  0.0493  0.5085
 1289SOL     OW 5185   1.554   2.805   2.212 -0.8702 -0.1190 -0.1098
 1289SOL    HW2 5186   1.575   2.886   2.259 -0.4840  0.2512 -0.9213
 1289SOL    HW3 5187   1.557   2.829   2.120  0.8243 -1.4459 -0.4197
 1289SOL    MW4 5188   1.557   2.819   2.206 -0.5957 -0.2452 -0.2577
 1290SOL     OW 5189   1.583   3.076   2.352  0.0647  0.2470  0.0971
 1290SOL    HW2 5190   1.570   3.076   2.447 -0.7516 -1.0670 -0.0020
 1290SOL    HW3 5191   1.515   3.134   2.319  0.4543  0.8375  0.3205
 1290SOL    MW4 5192   1.572   3.083   2.360  0.0084  0.1516  0.1135
 1291SOL     OW 5193   1.373   3.251   2.253 -0.2400  0.6029 -0.2624
 1291SOL    HW2 5194   1.300   3.198   2.285  0.3556  0.4718  0.8985
 1291SOL    HW3 5195   1.365   3.248   2.158 -0.9651 -0.5102 -0.1707
 1291SOL    MW4 5196   1.363   3.243   2.245 -0.2571  0.4387 -0.0972
 1292SOL     OW 5197   1.344   3.487   2.375  0.1045 -0.3954 -0.1819
 1292SOL    HW2 5198   1.339   3.480   2.471 -1.5022  0.9886 -0.1274
 1292SOL    HW3 5199   1.353   3.397   2.345  0.4380 -0.8718  1.2670
 1292SOL    MW4 5200   1.344   3.474   2.384 -0.0635 -0.2756  0.0164
 1293SOL     OW 5201   1.575   3.607   2.264 -0.3868  0.0794  0.2388
 1293SOL    HW2 5202   1.556   3.700   2.277 -0.1185  0.2419 -0.4979
 1293SOL    HW3 5203   1.493   3.563   2.284 -1.5308  0.7468 -2.6580
 1293SOL    MW4 5204   1.562   3.614   2.268 -0.5023  0.1889 -0.2406
 1294SOL     OW 5205   1.568   3.879   2.342 -0.4258 -0.2451 -0.4628
 1294SOL    HW2 5206   1.583   3.875   2.436  0.0690  1.1853 -0.4818
 1294SOL    HW3 5207   1.648   3.917   2.306 -1.0886  0.3304 -1.3474
 1294SOL    MW4 5208   1.581   3.883   2.349 -0.4480  0.0196 -0.5820
 1295SOL     OW 5209   1.329   3.971   2.258 -0.4495  0.0207 -0.4878
 1295SOL    HW2 5210   1.415   3.954   2.298  0.1288 -0.1132 -1.7602
 1295SOL    HW3 5211   1.344   3.961   2.164 -1.8405  0.1195 -0.7311
 1295SOL    MW4 5212   1.342   3.967   2.251 -0.5567  0.0161 -0.6878
 1296SOL     OW 5213   1.341   4.222   2.369 -0.3119  0.2422  0.0688
 1296SOL    HW2 5214   1.325   4.141   2.321  1.2578  0.4339 -0.8265
 1296SOL    HW3 5215   1.268   4.279   2.345 -0.4200 -0.2456 -0.7976
 1296SOL    MW4 5216   1.330   4.219   2.359 -0.1191  0.2031 -0.1636
 1297SOL     OW 5217   1.569   4.376   2.250  0.0493  0.1249  0.0086
 1297SOL    HW2 5218   1.495   4.320   2.274 -0.3405  0.3044 -0.7485
 1297SOL    HW3 5219   1.550   4.460   2.293  0.3534 -0.1553  0.6878
 1297SOL    MW4 5220   1.556   4.380   2.259  0.0380  0.1116 -0.0017
 1298SOL     OW 5221   2.024   4.653   2.356  0.2071  0.3254 -0.2908
 1298SOL    HW2 5222   2.096   4.703   2.319  0.4306  0.8044  0.7709
 1298SOL    HW3 5223   2.050   4.562   2.344  0.2101  0.4606 -1.4176
 1298SOL    MW4 5224   2.037   4.648   2.349  0.2370  0.4065 -0.2994
 1299SOL     OW 5225   1.784   0.053   2.266  0.1793  0.5253 -0.0337
 1299SOL    HW2 5226   1.788   0.148   2.280 -0.8419  1.0097 -2.8031
 1299SOL    HW3 5227   1.868   0.020   2.296 -0.0569  2.0851  2.4791
 1299SOL    MW4 5228   1.795   0.061   2.272  0.0134  0.7950 -0.0675
 1300SOL     OW 5229   1.813   0.335   2.325 -0.0846 -0.3151 -0.3525
 1300SOL    HW2 5230   1.827   0.337   2.419  0.2988  3.3390 -0.4042
 1300SOL    HW3 5231   1.892   0.374   2.288 -0.4394 -1.2548 -2.1560
 1300SOL    MW4 5232   1.825   0.340   2.332 -0.0808  0.0430 -0.5973
 1301SOL     OW 5233   2.039   0.460   2.214 -0.4349 -0.1729 -0.5258
 1301SOL    HW2 5234   2.010   0.541   2.256  0.5101 -0.3041  0.4114
 1301SOL    HW3 5235   2.042   0.482   2.121 -0.5111  0.7698 -0.3169
 1301SOL    MW4 5236   2.036   0.474   2.207 -0.3203 -0.0658 -0.3746
 1302SOL     OW 5237   1.975   0.713   2.331  0.1250 -0.2816  0.1630
 1302SOL    HW2 5238   2.066   0.735   2.309 -0.5601  0.6804 -1.8709
 1302SOL    HW3 5239   1.968   0.730   2.425  2.2295 -1.0226  0.4660
 1302SOL    MW4 5240   1.986   0.718   2.341  0.3123 -0.2524 -0.0654
 1303SOL     OW 5241   1.810   0.870   2.173 -0.0263  0.1607 -0.3311
 1303SOL    HW2 5242   1.825   0.957   2.211 -1.4698  0.2415  0.1033
 1303SOL    HW3 5243   1.878   0.815   2.210  0.0874  0.8114  0.4447
 1303SOL    MW4 5244   1.821   0.875   2.183 -0.2017  0.2572 -0.1714
 1304SOL     OW 5245   1.778   1.119   2.316 -0.0079  0.6301 -0.0600
 1304SOL    HW2 5246   1.862   1.163   2.299  0.8363 -0.9162 -0.0763
 1304SOL    HW3 5247   1.712   1.176   2.278  1.1990  1.0527 -1.5825
 1304SOL    MW4 5248   1.781   1.132   2.309  0.2627  0.4819 -0.2630
 1305SOL     OW 5249   2.028   1.224   2.246  0.3053 -0.0943 -0.0259
 1305SOL    HW2 5250   2.043   1.310   2.285  0.4381 -0.3910  0.5992
 1305SOL    HW3 5251   2.102   1.171   2.278 -0.9914 -1.0532  1.4899
 1305SOL    MW4 5252   2.040   1.228   2.256  0.1517 -0.2599  0.2566
 1306SOL     OW 5253   2.012   1.466   2.345  0.1489  0.1149  0.2628
 1306SOL    HW2 5254   1.996   1.474   2.439  0.4191 -1.0499  0.4143
 1306SOL    HW3 5255   1.941   1.516   2.304 -0.4643 -0.0957  1.0650
 1306SOL    MW4 5256   2.001   1.473   2.352  0.1037 -0.0666  0.3886
 1307SOL     OW 5257   1.821   1.625   2.249  0.0092 -0.0118  0.4823
 1307SOL    HW2 5258   1.816   1.716   2.280 -2.3945 -0.0967  0.4269
 1307SOL    HW3 5259   1.818   1.632   2.154 -0.6936 -0.1617  0.4902
 1307SOL    MW4 5260   1.820   1.638   2.241 -0.4007 -0.0428  0.4760
 1308SOL     OW 5261   1.783   1.924   2.330  0.3165 -0.4709  0.2689
 1308SOL    HW2 5262   1.777   1.924   2.426  0.2295 -1.1252  0.2659
 1308SOL    HW3 5263   1.859   1.979   2.311  1.4681 -1.8550  0.8003
 1308SOL    MW4 5264   1.792   1.931   2.340  0.4570 -0.7399  0.3386
 1309SOL     OW 5265   2.012   2.061   2.254 -0.0025  0.3161 -0.4333
 1309SOL    HW2 5266   2.092   2.019   2.284  0.3908  1.3351 -0.0026
 1309SOL    HW3 5267   2.006   2.040   2.161 -0.2280 -1.3003 -0.0628
 1309SOL    MW4 5268   2.022   2.053   2.246  0.0196  0.2373 -0.3276
 1310SOL     OW 5269   1.994   2.341   2.342  0.3867 -0.3506  0.1663
 1310SOL    HW2 5270   2.078   2.374   2.310  0.0658 -0.5574 -0.9138
 1310SOL    HW3 5271   1.992   2.250   2.312 -0.1925 -0.3657  0.2556
 1310SOL    MW4 5272   2.005   2.333   2.334  0.2679 -0.3799  0.0356
 1311SOL     OW 5273   1.783   2.433   2.206 -0.0920 -0.7435 -0.0234
 1311SOL    HW2 5274   1.861   2.401   2.251 -0.3366 -1.3990 -0.0698
 1311SOL    HW3 5275   1.713   2.375   2.234  0.0302 -2.1176 -2.4238
 1311SOL    MW4 5276   1.784   2.421   2.215 -0.1081 -1.0113 -0.3462
 1312SOL     OW 5277   1.766   2.682   2.347  0.3152  0.2343 -0.0456
 1312SOL    HW2 5278   1.769   2.594   2.310  0.7205 -0.1578  0.8959
 1312SOL    HW3 5279   1.697   2.727   2.298 -0.1151 -0.7107 -0.3145
 1312SOL    MW4 5280   1.757   2.676   2.336  0.3119  0.0578  0.0431
 1313SOL     OW 5281   1.996   2.800   2.252 -0.2012  0.0773 -0.3423
 1313SOL    HW2 5282   2.076   2.767   2.293 -0.3799 -0.4933 -0.4412
 1313SOL    HW3 5283   1.926   2.751   2.296 -0.5419  1.0865  0.2415
 1313SOL    MW4 5284   1.997   2.789   2.263 -0.2697  0.1352 -0.2783
 1314SOL     OW 5285   2.039   3.064   2.371 -0.2564 -0.0250 -0.0685
 1314SOL    HW2 5286   2.108   3.106   2.320 -0.5354  0.3982 -0.0935
 1314SOL    HW3 5287   2.022   2.982   2.324 -0.9018  0.6200 -0.9781
 1314SOL    MW4 5288   2.046   3.058   2.358 -0.3784  0.1159 -0.1918
 1315SOL     OW 5289   1.823   3.190   2.250 -0.1718  0.0450  0.0540
 1315SOL    HW2 5290   1.901   3.158   2.294  0.0089 -2.6701 -2.1846
 1315SOL    HW3 5291   1.752   3.137   2.287 -0.3801 -0.3906 -0.9720
 1315SOL    MW4 5292   1.824   3.179   2.261 -0.1754 -0.3707 -0.3767
 1316SOL     OW 5293   1.812   3.475   2.364 -0.6031  0.2384  0.1156
 1316SOL    HW2 5294   1.810   3.385   2.332 -0.4181  0.6217 -1.0174
 1316SOL    HW3 5295   1.731   3.514   2.330 -1.0388  0.3085  1.2078
 1316SOL    MW4 5296   1.801   3.468   2.355 -0.6362  0.2982  0.1102
 1317SOL     OW 5297   2.020   3.612   2.238 -0.5738  0.4308 -0.2160
 1317SOL    HW2 5298   1.945   3.565   2.274  1.0453 -2.1007 -0.0133
 1317SOL    HW3 5299   2.007   3.611   2.143 -0.8273  0.0553 -0.1749
 1317SOL    MW4 5300   2.009   3.606   2.230 -0.3936  0.0473 -0.1839
 1318SOL     OW 5301   1.994   3.878   2.338 -0.2355  0.0792 -0.3174
 1318SOL    HW2 5302   1.994   3.878   2.434  0.7719  0.5231 -0.3066
 1318SOL    HW3 5303   2.011   3.787   2.314  0.3721  0.1144 -0.0552
 1318SOL    MW4 5304   1.997   3.866   2.348 -0.0224  0.1424 -0.2814
 1319SOL     OW 5305   1.797   4.043   2.229  0.1591  0.2914  0.2553
 1319SOL    HW2 5306   1.866   3.989   2.267  0.6130  0.4828 -0.3056
 1319SOL    HW3 5307   1.812   4.040   2.135  0.5618  1.9082  0.2598
 1319SOL    MW4 5308   1.808   4.035   2.222  0.2721  0.5300  0.1819
 1320SOL     OW 5309   1.792   4.276   2.381 -0.0178  0.4440  0.8100
 1320SOL    HW2 5310   1.799   4.193   2.333  1.4745 -0.0185  1.7861
 1320SOL    HW3 5311   1.721   4.323   2.337  1.0447 -0.1090 -1.5952
 1320SOL    MW4 5312   1.784   4.271   2.369  0.3193  0.3100  0.6215
 1321SOL     OW 5313   2.026   4.380   2.254  0.2401 -0.0016 -0.2231
 1321SOL    HW2 5314   1.945   4.349   2.294  0.6500  0.0117  0.6323
 1321SOL    HW3 5315   2.005   4.389   2.161 -0.4256 -1.0318 -0.1815
 1321SOL    MW4 5316   2.012   4.377   2.247  0.2063 -0.1357 -0.1048
 1322SOL     OW 5317   2.481   0.001   2.330  0.5813  0.0349  0.1326
 1322SOL    HW2 5318   2.571   0.023   2.303  1.6604 -0.8662  2.7596
 1322SOL    HW3 5319   2.471  -0.091   2.306 -0.3821  0.6458 -1.9229
 1322SOL    MW4 5320   2.492  -0.008   2.323  0.5966 -0.0034  0.2080
 1323SOL     OW 5321   2.251   0.093   2.216  0.7313 -0.0636  0.5627
 1323SOL    HW2 5322   2.243   0.184   2.246 -0.9769  0.4151 -1.2192
 1323SOL    HW3 5323   2.331   0.061   2.258  1.0378  2.0639  1.7006
 1323SOL    MW4 5324   2.260   0.101   2.226  0.5464  0.2802  0.4777
 1324SOL     OW 5325   2.279   0.344   2.336  0.2043 -0.4307 -0.3874
 1324SOL    HW2 5326   2.195   0.375   2.301  0.6018  0.8315 -0.2303
 1324SOL    HW3 5327   2.345   0.388   2.283  0.7738 -1.0259 -0.1700
 1324SOL    MW4 5328   2.277   0.354   2.324  0.3319 -0.3427 -0.3380
 1325SOL     OW 5329   2.474   0.505   2.216 -0.0193  0.2491 -0.3501
 1325SOL    HW2 5330   2.541   0.455   2.262 -0.7180 -0.5783 -0.2274
 1325SOL    HW3 5331   2.496   0.495   2.123  0.3668  0.4672 -0.2832
 1325SOL    MW4 5332   2.486   0.497   2.210 -0.0605  0.1687 -0.3251
 1326SOL     OW 5333   2.498   0.749   2.362 -0.2866 -0.1722  0.0178
 1326SOL    HW2 5334   2.583   0.782   2.334 -0.6809  0.6652 -0.2434
 1326SOL    HW3 5335   2.483   0.671   2.309  0.7853 -0.9427  0.8287
 1326SOL    MW4 5336   2.507   0.743   2.351 -0.1972 -0.1634  0.0903
 1327SOL     OW 5337   2.226   0.804   2.282 -0.7113  0.1313 -0.3379
 1327SOL    HW2 5338   2.206   0.895   2.305 -1.2371 -0.1881  0.5342
 1327SOL    HW3 5339   2.319   0.794   2.301 -0.7767  0.3345  0.0920
 1327SOL    MW4 5340   2.235   0.815   2.288 -0.7893  0.1160 -0.1661
 1328SOL     OW 5341   2.221   1.069   2.325  0.6200 -0.4686  0.1133
 1328SOL    HW2 5342   2.296   1.105   2.277  0.0318  2.6360  1.4230
 1328SOL    HW3 5343   2.245   1.077   2.417 -1.0780  0.0470  0.5280
 1328SOL    MW4 5344   2.234   1.075   2.331  0.3184  0.0091  0.3409
 1329SOL     OW 5345   2.436   1.228   2.226 -0.3656 -0.4287 -0.5156
 1329SOL    HW2 5346   2.511   1.199   2.277 -0.6926  1.0647  0.8461
 1329SOL    HW3 5347   2.442   1.324   2.227 -1.8838 -0.3170 -0.9929
 1329SOL    MW4 5348   2.447   1.237   2.233 -0.6090 -0.2169 -0.3989
 1330SOL     OW 5349   2.461   1.504   2.283 -0.0367 -0.0809 -0.1005
 1330SOL    HW2 5350   2.448   1.502   2.377 -1.9691  0.9705 -0.3084
 1330SOL    HW3 5351   2.523   1.576   2.269  0.5170 -0.4620  0.3955
 1330SOL    MW4 5352   2.468   1.514   2.293 -0.2186  0.0075 -0.0625
 1331SOL     OW 5353   2.226   1.636   2.213 -0.0909  0.3365  0.7460
 1331SOL    HW2 5354   2.313   1.606   2.239  0.4524  1.2784  0.0446
 1331SOL    HW3 5355   2.166   1.568   2.245  1.1120 -1.5293 -0.8869
 1331SOL    MW4 5356   2.229   1.623   2.221  0.1395  0.2146  0.4380
 1332SOL     OW 5357   2.221   1.899   2.346  0.1929  0.3599  0.2210
 1332SOL    HW2 5358   2.306   1.938   2.326 -0.7699  1.1889 -2.5474
 1332SOL    HW3 5359   2.224   1.813   2.303 -0.7194  0.8269 -0.8251
 1332SOL    MW4 5360   2.232   1.893   2.338 -0.0545  0.5309 -0.2823
 1333SOL     OW 5361   2.451   2.022   2.246 -0.0917  0.2656 -0.6595
 1333SOL    HW2 5362   2.541   1.991   2.250 -0.2258 -0.1072 -0.5765
 1333SOL    HW3 5363   2.434   2.032   2.152 -0.0314  0.1488 -0.6826
 1333SOL    MW4 5364   2.460   2.019   2.234 -0.1015  0.2010 -0.6516
 1334SOL     OW 5365   2.431   2.285   2.337  0.0930  0.2745  0.1164
 1334SOL    HW2 5366   2.508   2.328   2.300  1.6662 -0.7757  2.0481
 1334SOL    HW3 5367   2.439   2.194   2.309 -0.4670  0.1690  0.3014
 1334SOL    MW4 5368   2.442   2.279   2.328  0.2267  0.1220  0.3957
 1335SOL     OW 5369   2.226   2.405   2.208  0.5711 -0.0769 -0.4206
 1335SOL    HW2 5370   2.232   2.492   2.248  2.9237  0.6141 -2.1604
 1335SOL    HW3 5371   2.296   2.355   2.251 -0.3063 -0.9189  0.0504
 1335SOL    MW4 5372   2.236   2.410   2.219  0.7657 -0.0968 -0.5880
 1336SOL     OW 5373   2.250   2.679   2.340 -0.0215  0.3440 -0.3237
 1336SOL    HW2 5374   2.235   2.689   2.434 -1.0402 -0.4229 -0.3919
 1336SOL    HW3 5375   2.328   2.732   2.322 -0.7861  1.8239  0.6534
 1336SOL    MW4 5376   2.258   2.687   2.350 -0.2568  0.4381 -0.2037
 1337SOL     OW 5377   2.470   2.868   2.326  0.4334 -0.2964  0.1810
 1337SOL    HW2 5378   2.544   2.825   2.368  1.0653 -1.0422 -1.6443
 1337SOL    HW3 5379   2.488   2.861   2.232 -1.8944 -0.4216 -0.2979
 1337SOL    MW4 5380   2.482   2.861   2.319  0.2096 -0.4113 -0.1230
 1338SOL     OW 5381   2.467   3.132   2.360 -0.3740  0.0622 -0.2653
 1338SOL    HW2 5382   2.555   3.155   2.329 -0.2208 -0.7117 -0.4211
 1338SOL    HW3 5383   2.458   3.039   2.339 -1.5211  0.3155 -0.9602
 1338SOL    MW4 5384   2.477   3.123   2.353 -0.5051 -0.0065 -0.3776
 1339SOL     OW 5385   2.236   3.202   2.234 -0.0777  0.1566 -0.2036
 1339SOL    HW2 5386   2.201   3.279   2.278 -0.0726 -0.8087  1.5317
 1339SOL    HW3 5387   2.324   3.191   2.270 -1.0858 -2.2608  1.7324
 1339SOL    MW4 5388   2.243   3.211   2.245 -0.2100 -0.2897  0.2807
 1340SOL     OW 5389   2.209   3.439   2.351 -0.6586 -0.4615 -0.1754
 1340SOL    HW2 5390   2.206   3.429   2.446 -0.0965 -0.1187 -0.1209
 1340SOL    HW3 5391   2.149   3.511   2.333 -1.3373 -1.0142 -0.1551
 1340SOL    MW4 5392   2.201   3.447   2.361 -0.6740 -0.4892 -0.1656
 1341SOL     OW 5393   2.433   3.587   2.260 -0.3528 -0.0404 -0.1476
 1341SOL    HW2 5394   2.419   3.672   2.303 -0.1507  0.0045 -0.1728
 1341SOL    HW3 5395   2.357   3.534   2.287 -1.8164  0.9618 -2.1856
 1341SOL    MW4 5396   2.421   3.591   2.269 -0.5193  0.0978 -0.4198
 1342SOL     OW 5397   2.468   3.862   2.334 -0.0636 -0.0167  0.1958
 1342SOL    HW2 5398   2.462   3.866   2.430  1.0345  1.4291  0.2084
 1342SOL    HW3 5399   2.393   3.913   2.304  1.3293  2.1565  0.3144
 1342SOL    MW4 5400   2.457   3.869   2.343  0.2651  0.4608  0.2131
 1343SOL     OW 5401   2.234   4.001   2.242  0.0986  0.2213  0.2741
 1343SOL    HW2 5402   2.249   4.088   2.280  0.4291  0.8034 -1.1705
 1343SOL    HW3 5403   2.159   3.966   2.291 -0.0617  1.3387  0.8370
 1343SOL    MW4 5404   2.226   4.008   2.254  0.1211  0.4455  0.1578
 1344SOL     OW 5405   2.258   4.250   2.343 -0.0555 -0.5122 -0.1742
 1344SOL    HW2 5406   2.254   4.265   2.437 -0.0795 -0.6045 -0.1604
 1344SOL    HW3 5407   2.179   4.292   2.309 -1.1344 -2.3112  0.0921
 1344SOL    MW4 5408   2.247   4.258   2.351 -0.2010 -0.7617 -0.1373
 1345SOL     OW 5409   2.471   4.401   2.254 -0.0053 -0.4869 -0.1457
 1345SOL    HW2 5410   2.554   4.358   2.276  0.2974  0.1437 -0.0589
 1345SOL    HW3 5411   2.404   4.342   2.288  0.4262 -0.5631  0.5726
 1345SOL    MW4 5412   2.473   4.387   2.261  0.0916 -0.4137 -0.0395
 1346SOL     OW 5413   2.941   4.623   2.374 -0.5580 -0.0018  0.4154
 1346SOL    HW2 5414   3.011   4.670   2.329 -0.1597 -0.0780  0.9512
 1346SOL    HW3 5415   2.927   4.545   2.322  0.8544 -0.7759  1.1790
 1346SOL    MW4 5416   2.949   4.619   2.361 -0.3191 -0.1140  0.5869
 1347SOL     OW 5417   2.722   0.100   2.262  0.2263 -0.0032  0.0601
 1347SOL    HW2 5418   2.732   0.193   2.284  0.7817  0.2442 -1.1964
 1347SOL    HW3 5419   2.796   0.057   2.305  1.7721  0.5936 -1.9066
 1347SOL    MW4 5420   2.733   0.107   2.271  0.5035  0.1082 -0.3651
 1348SOL     OW 5421   2.714   0.370   2.307 -0.0886  0.4108  0.4216
 1348SOL    HW2 5422   2.717   0.378   2.403 -0.2969  0.4208  0.4283
 1348SOL    HW3 5423   2.791   0.417   2.277  1.0153 -1.2168  0.6788
 1348SOL    MW4 5424   2.724   0.378   2.316  0.0296  0.1974  0.4564
 1349SOL     OW 5425   2.939   0.491   2.247 -0.1098  0.1134 -0.0153
 1349SOL    HW2 5426   2.939   0.578   2.288  0.9608  0.1197 -0.0268
 1349SOL    HW3 5427   2.927   0.509   2.154  0.0411  0.2511 -0.0098
 1349SOL    MW4 5428   2.937   0.505   2.240  0.0514  0.1324 -0.0161
 1350SOL     OW 5429   2.954   0.732   2.370 -0.0874  0.0045 -0.1936
 1350SOL    HW2 5430   2.955   0.753   2.463 -1.4511  1.2516 -0.4434
 1350SOL    HW3 5431   2.882   0.785   2.334  1.1365  0.3956 -2.1473
 1350SOL    MW4 5432   2.945   0.742   2.377 -0.1059  0.2206 -0.4843
 1351SOL     OW 5433   2.746   0.864   2.257 -0.4868 -0.3429  0.3249
 1351SOL    HW2 5434   2.728   0.953   2.287 -0.2992 -0.3311  0.4053
 1351SOL    HW3 5435   2.734   0.867   2.162 -0.4260 -0.2193  0.3217
 1351SOL    MW4 5436   2.742   0.876   2.248 -0.4540 -0.3250  0.3350
 1352SOL     OW 5437   2.688   1.137   2.328  0.0511 -0.1691 -0.2673
 1352SOL    HW2 5438   2.695   1.156   2.422 -0.0136 -0.0084 -0.2945
 1352SOL    HW3 5439   2.759   1.188   2.288  0.0964 -0.2592 -0.3025
 1352SOL    MW4 5440   2.698   1.146   2.335  0.0485 -0.1598 -0.2755
 1353SOL     OW 5441   2.899   1.306   2.234  0.0281  0.1485 -0.4597
 1353SOL    HW2 5442   2.976   1.265   2.275  0.5214  0.3580 -1.1644
 1353SOL    HW3 5443   2.913   1.293   2.140 -0.1390  1.3597 -0.6504
 1353SOL    MW4 5444   2.911   1.299   2.227  0.0711  0.3360 -0.5778
 1354SOL     OW 5445   2.914   1.553   2.337  0.1747  0.0452 -0.2635
 1354SOL    HW2 5446   2.895   1.541   2.430  0.1932  0.3630 -0.2186
 1354SOL    HW3 5447   2.907   1.465   2.300 -0.7472  0.0614 -0.1300
 1354SOL    MW4 5448   2.911   1.540   2.344  0.0555  0.0892 -0.2400
 1355SOL     OW 5449   2.687   1.673   2.224 -0.4422 -0.4653 -0.4565
 1355SOL    HW2 5450   2.758   1.618   2.257 -0.2085 -0.5895 -1.1655
 1355SOL    HW3 5451   2.679   1.649   2.132  0.2624  1.3333 -0.9928
 1355SOL    MW4 5452   2.695   1.662   2.217 -0.3184 -0.2444 -0.6208
 1356SOL     OW 5453   2.706   1.929   2.305 -0.3091 -0.0656 -0.1845
 1356SOL    HW2 5454   2.677   1.924   2.396 -0.9017  0.3032 -0.3517
 1356SOL    HW3 5455   2.711   1.838   2.276 -0.6945 -0.1550  0.0326
 1356SOL    MW4 5456   2.703   1.916   2.313 -0.4382 -0.0288 -0.1779
 1357SOL     OW 5457   2.916   2.090   2.252 -0.2192  0.4940 -0.8989
 1357SOL    HW2 5458   2.987   2.032   2.277  0.3434  1.5011 -0.1239
 1357SOL    HW3 5459   2.836   2.041   2.274  0.2580  0.7548  1.5193
 1357SOL    MW4 5460   2.915   2.076   2.258 -0.0820  0.6613 -0.4776
 1358SOL     OW 5461   2.927   2.337   2.389 -0.1288  0.2718 -0.2236
 1358SOL    HW2 5462   2.922   2.320   2.483  1.4236 -0.2947 -0.2412
 1358SOL    HW3 5463   2.916   2.251   2.348 -0.5799  0.4882 -0.5689
 1358SOL    MW4 5464   2.925   2.324   2.396  0.0165  0.2256 -0.2714
 1359SOL     OW 5465   2.675   2.420   2.277 -0.0767  0.0076 -0.2002
 1359SOL    HW2 5466   2.767   2.400   2.294 -0.1780  0.9679  1.5044
 1359SOL    HW3 5467   2.671   2.429   2.182  1.6817  0.4506 -0.2595
 1359SOL    MW4 5468   2.687   2.418   2.266  0.1420  0.1928  0.0169
 1360SOL     OW 5469   2.699   2.683   2.384 -0.1351 -0.3483 -0.0064
 1360SOL    HW2 5470   2.781   2.703   2.339  0.5149  0.5234  1.5573
 1360SOL    HW3 5471   2.676   2.595   2.352  0.8685 -0.1948 -1.2046
 1360SOL    MW4 5472   2.707   2.674   2.374  0.0831 -0.2131  0.0418
 1361SOL     OW 5473   2.921   2.877   2.246  0.3261 -0.4798  0.2742
 1361SOL    HW2 5474   2.921   2.963   2.289  0.6587 -0.5881  0.4917
 1361SOL    HW3 5475   2.938   2.896   2.154  0.8694 -0.3515  0.4006
 1361SOL    MW4 5476   2.923   2.891   2.240  0.4417 -0.4772  0.3196
 1362SOL     OW 5477   2.948   3.125   2.367  0.3254 -0.0372 -0.5443
 1362SOL    HW2 5478   2.942   3.130   2.463  1.9138 -0.4383 -0.4149
 1362SOL    HW3 5479   2.868   3.167   2.336  0.0777  0.6331  0.9595
 1362SOL    MW4 5480   2.937   3.131   2.376  0.5023 -0.0017 -0.3288
 1363SOL     OW 5481   2.713   3.224   2.232 -0.0690  0.1381 -0.2103
 1363SOL    HW2 5482   2.703   3.313   2.267  0.9710  0.1716  0.0342
 1363SOL    HW3 5483   2.714   3.235   2.137  0.6741  0.4660 -0.1697
 1363SOL    MW4 5484   2.712   3.237   2.224  0.1662  0.1858 -0.1727
 1364SOL     OW 5485   2.681   3.492   2.361 -0.0476 -0.2523 -0.2790
 1364SOL    HW2 5486   2.747   3.536   2.308  0.0124 -0.4146 -0.3395
 1364SOL    HW3 5487   2.598   3.535   2.339  0.0891  0.1830  0.0502
 1364SOL    MW4 5488   2.679   3.503   2.351 -0.0217 -0.2162 -0.2436
 1365SOL     OW 5489   2.933   3.604   2.205 -0.3192  0.1418  0.1430
 1365SOL    HW2 5490   2.995   3.554   2.257  1.9501  1.0394 -1.6270
 1365SOL    HW3 5491   2.936   3.692   2.242 -2.0325 -0.2530  1.2931
 1365SOL    MW4 5492   2.941   3.609   2.217 -0.2458  0.2082  0.0612
 1366SOL     OW 5493   2.939   3.868   2.306 -0.1014  0.2215 -0.0877
 1366SOL    HW2 5494   2.935   3.853   2.401  0.5698  1.0662  0.0861
 1366SOL    HW3 5495   2.858   3.914   2.286 -0.1228  0.2830  0.1309
 1366SOL    MW4 5496   2.928   3.872   2.316 -0.0156  0.3411 -0.0359
 1367SOL     OW 5497   2.697   3.969   2.247 -0.4785 -0.1811  0.0940
 1367SOL    HW2 5498   2.610   3.934   2.264 -0.2495 -0.7505  0.1261
 1367SOL    HW3 5499   2.697   3.990   2.154 -1.0632  1.0100  0.3583
 1367SOL    MW4 5500   2.686   3.967   2.237 -0.5254 -0.0991  0.1331
 1368SOL     OW 5501   2.701   4.224   2.355  0.6848  0.5068 -0.3386
 1368SOL    HW2 5502   2.694   4.218   2.451  0.0467  0.8691 -0.3545
 1368SOL    HW3 5503   2.706   4.134   2.326 -0.0874  0.3574 -0.0209
 1368SOL    MW4 5504   2.700   4.212   2.364  0.4988  0.5349 -0.2988
 1369SOL     OW 5505   2.897   4.393   2.237  0.0019  0.2151 -0.7897
 1369SOL    HW2 5506   2.978   4.382   2.286 -0.4800  0.5314  0.0866
 1369SOL    HW3 5507   2.829   4.360   2.296 -0.6527  1.2432 -0.9627
 1369SOL    MW4 5508   2.899   4.387   2.251 -0.1480  0.3925 -0.6969
 1370SOL     OW 5509   3.361   0.006   2.332 -0.2387 -0.3024  0.1606
 1370SOL    HW2 5510   3.385   0.009   2.425  0.0916 -0.4662  0.0801
 1370SOL    HW3 5511   3.436   0.044   2.287 -0.3891 -0.2479 -0.0421
 1370SOL    MW4 5512   3.374   0.011   2.338 -0.2150 -0.3168  0.1232
 1371SOL     OW 5513   3.124   0.122   2.244 -0.0519 -0.0754  0.1381
 1371SOL    HW2 5514   3.114   0.206   2.289 -0.0840 -0.0398  0.0648
 1371SOL    HW3 5515   3.212   0.093   2.267 -0.2392 -0.2817  0.6052
 1371SOL    MW4 5516   3.134   0.129   2.253 -0.0809 -0.0979  0.1901
 1372SOL     OW 5517   3.146   0.370   2.364 -0.0409  0.2019 -0.0378
 1372SOL    HW2 5518   3.230   0.411   2.343  0.5386 -0.0915  1.6180
 1372SOL    HW3 5519   3.084   0.407   2.301  1.3191  0.4423 -1.2560
 1372SOL    MW4 5520   3.149   0.380   2.353  0.2150  0.1949  0.0199
 1373SOL     OW 5521   3.381   0.521   2.263 -0.0987  0.1111 -0.2991
 1373SOL    HW2 5522   3.446   0.459   2.297  0.3082  0.7028  0.0064
 1373SOL    HW3 5523   3.386   0.510   2.168 -1.1306 -1.4370 -0.1865
 1373SOL    MW4 5524   3.390   0.511   2.255 -0.1811 -0.0151 -0.2440
 1374SOL     OW 5525   3.360   0.778   2.351 -0.4265 -0.0536 -0.0290
 1374SOL    HW2 5526   3.442   0.812   2.314  0.0453 -1.0456  0.0800
 1374SOL    HW3 5527   3.368   0.683   2.342 -0.7739 -0.2532  1.6662
 1374SOL    MW4 5528   3.372   0.769   2.345 -0.4101 -0.2108  0.2090
 1375SOL     OW 5529   3.141   0.902   2.257 -0.2206  0.1605  0.2369
 1375SOL    HW2 5530   3.218   0.848   2.275  0.1855  0.3740 -0.8375
 1375SOL    HW3 5531   3.067   0.847   2.281  0.2304 -0.4821  0.1614
 1375SOL    MW4 5532   3.141   0.888   2.263 -0.1075  0.1039  0.0852
 1376SOL     OW 5533   3.116   1.148   2.357 -0.2478  0.3179  0.0631
 1376SOL    HW2 5534   3.194   1.190   2.319  0.9069 -0.7807  1.1432
 1376SOL    HW3 5535   3.123   1.057   2.329 -0.0140 -0.2461  1.8860
 1376SOL    MW4 5536   3.127   1.142   2.348 -0.0646  0.0986  0.4461
 1377SOL     OW 5537   3.370   1.284   2.273 -0.1625 -0.2857  0.2040
 1377SOL    HW2 5538   3.452   1.240   2.295  0.2921 -0.2867 -1.4130
 1377SOL    HW3 5539   3.388   1.376   2.288 -0.4782 -0.4557  1.6758
 1377SOL    MW4 5540   3.383   1.290   2.278 -0.1442 -0.3083  0.1848
 1378SOL     OW 5541   3.369   1.573   2.360 -0.0560  0.3869 -0.2517
 1378SOL    HW2 5542   3.342   1.559   2.451 -1.2015 -1.6392 -0.8651
 1378SOL    HW3 5543   3.292   1.609   2.317  0.4472  1.2243 -0.4717
 1378SOL    MW4 5544   3.355   1.576   2.366 -0.1407  0.2301 -0.3616
 1379SOL     OW 5545   3.146   1.684   2.255  0.1479  0.1094 -0.3616
 1379SOL    HW2 5546   3.138   1.774   2.287  0.7407 -0.2279  0.7400
 1379SOL    HW3 5547   3.072   1.638   2.295  1.1581 -0.4205  0.9322
 1379SOL    MW4 5548   3.135   1.690   2.264  0.3594 -0.0050 -0.0456
 1380SOL     OW 5549   3.121   1.926   2.371  0.6618 -0.3536  0.0219
 1380SOL    HW2 5550   3.123   1.921   2.466  0.4666 -1.1056 -0.0156
 1380SOL    HW3 5551   3.197   1.981   2.348 -0.0947  0.9905  0.6850
 1380SOL    MW4 5552   3.131   1.933   2.380  0.5362 -0.2755  0.1044
 1381SOL     OW 5553   3.353   2.053   2.293 -0.0738 -0.3024 -0.6597
 1381SOL    HW2 5554   3.404   1.999   2.353 -0.2366 -1.3587 -1.4586
 1381SOL    HW3 5555   3.368   2.015   2.207 -0.8152  0.4511 -1.1353
 1381SOL    MW4 5556   3.362   2.041   2.289 -0.1931 -0.3424 -0.8278
 1382SOL     OW 5557   3.387   2.345   2.346 -0.1273 -0.1537  0.2208
 1382SOL    HW2 5558   3.306   2.388   2.319  1.2365  1.5476 -1.2913
 1382SOL    HW3 5559   3.375   2.254   2.321 -1.3259  0.2127 -0.5924
 1382SOL    MW4 5560   3.375   2.339   2.339 -0.1055  0.1191 -0.0860
 1383SOL     OW 5561   3.151   2.446   2.269 -0.0361 -0.3858  0.0850
 1383SOL    HW2 5562   3.160   2.540   2.282  0.0203 -0.2599 -0.8415
 1383SOL    HW3 5563   3.075   2.422   2.322 -0.7846  0.3900 -0.6345
 1383SOL    MW4 5564   3.142   2.455   2.278 -0.1274 -0.2668 -0.1322
 1384SOL     OW 5565   3.120   2.698   2.326  0.1754  0.1071  0.0893
 1384SOL    HW2 5566   3.115   2.701   2.422  0.5583 -0.2631  0.1223
 1384SOL    HW3 5567   3.051   2.758   2.297  0.4152  0.6370  0.6018
 1384SOL    MW4 5568   3.110   2.707   2.335  0.2575  0.1282  0.1613
 1385SOL     OW 5569   3.345   2.830   2.253  0.1965  0.5892 -0.0234
 1385SOL    HW2 5570   3.338   2.912   2.302 -0.0437  0.8965 -0.5617
 1385SOL    HW3 5571   3.264   2.783   2.273 -0.7870  1.5378 -1.5746
 1385SOL    MW4 5572   3.333   2.834   2.262  0.0350  0.7549 -0.2991
 1386SOL     OW 5573   3.333   3.089   2.386 -0.2643  0.1357  0.0663
 1386SOL    HW2 5574   3.412   3.137   2.359 -0.2592  0.9807  1.5571
 1386SOL    HW3 5575   3.261   3.134   2.341  0.0416 -0.3541 -0.9344
 1386SOL    MW4 5576   3.334   3.101   2.377 -0.2233  0.1825  0.1310
 1387SOL     OW 5577   3.158   3.256   2.249 -0.3458  0.2145 -0.3359
 1387SOL    HW2 5578   3.156   3.346   2.284 -0.6356 -0.3995  1.2650
 1387SOL    HW3 5579   3.080   3.215   2.286 -0.4081 -0.5906 -1.3667
 1387SOL    MW4 5580   3.147   3.263   2.259 -0.3923  0.0273 -0.2607
 1388SOL     OW 5581   3.161   3.505   2.351 -0.4092 -0.3288  0.2404
 1388SOL    HW2 5582   3.158   3.508   2.446 -1.1866  0.9650  0.1861
 1388SOL    HW3 5583   3.228   3.568   2.326 -1.9093  1.1405 -0.1507
 1388SOL    MW4 5584   3.169   3.513   2.360 -0.7097  0.0357  0.1816
 1389SOL     OW 5585   3.368   3.668   2.294 -0.2025 -0.4536 -0.3175
 1389SOL    HW2 5586   3.436   3.603   2.310 -0.9286 -0.9842  0.7044
 1389SOL    HW3 5587   3.361   3.672   2.199  2.3410  0.7678 -0.4902
 1389SOL    MW4 5588   3.376   3.660   2.284  0.0372 -0.3624 -0.2054
 1390SOL     OW 5589   3.357   3.923   2.376 -0.5185 -0.2442 -0.7042
 1390SOL    HW2 5590   3.440   3.956   2.341 -1.2374  1.5908 -0.7198
 1390SOL    HW3 5591   3.353   3.832   2.345 -0.3324  0.7940 -4.0027
 1390SOL    MW4 5592   3.368   3.915   2.367 -0.5888  0.1349 -1.1415
 1391SOL     OW 5593   3.138   4.060   2.254  0.0151 -0.1361  0.6211
 1391SOL    HW2 5594   3.221   4.029   2.290  0.1865 -2.3284 -1.4711
 1391SOL    HW3 5595   3.076   3.990   2.274 -0.4480 -0.2146 -1.0212
 1391SOL    MW4 5596   3.141   4.047   2.261 -0.0234 -0.4357  0.1284
 1392SOL     OW 5597   3.123   4.302   2.357  0.2183  0.2778  0.0646
 1392SOL    HW2 5598   3.204   4.343   2.325  0.0494  0.3030 -0.3302
 1392SOL    HW3 5599   3.132   4.210   2.332  0.9061 -0.0757  1.5493
 1392SOL    MW4 5600   3.135   4.296   2.349  0.2868  0.2345  0.2084
 1393SOL     OW 5601   3.343   4.410   2.252 -0.2992 -0.4655 -0.1046
 1393SOL    HW2 5602   3.350   4.502   2.277  0.1289 -0.9148  1.4985
 1393SOL    HW3 5603   3.365   4.408   2.159  1.1810  0.8467  0.2139
 1393SOL    MW4 5604   3.346   4.422   2.243 -0.0474 -0.3517  0.1489
 1394SOL     OW 5605   3.822   4.665   2.345  0.2269  0.1902  0.0384
 1394SOL    HW2 5606   3.839   4.655   2.438 -0.5078  0.9040  0.2505
 1394SOL    HW3 5607   3.906   4.694   2.309  0.7824 -1.0257  0.3099
 1394SOL    MW4 5608   3.835   4.667   2.352  0.2032  0.1240  0.1022
 1395SOL     OW 5609   3.586   0.104   2.215 -0.0420 -0.1921 -0.1740
 1395SOL    HW2 5610   3.553   0.177   2.268 -0.5913  0.0067 -0.7878
 1395SOL    HW3 5611   3.670   0.082   2.255 -0.3799  0.0604  0.6819
 1395SOL    MW4 5612   3.593   0.111   2.227 -0.1591 -0.1325 -0.1421
 1396SOL     OW 5613   3.571   0.340   2.366 -0.1332 -0.3926 -0.2643
 1396SOL    HW2 5614   3.582   0.343   2.461  1.7710 -0.0906 -0.4656
 1396SOL    HW3 5615   3.655   0.372   2.331 -0.6102 -1.0025 -2.0471
 1396SOL    MW4 5616   3.584   0.345   2.374  0.0551 -0.4332 -0.5261
 1397SOL     OW 5617   3.823   0.465   2.279  0.2041  0.2492  0.0200
 1397SOL    HW2 5618   3.811   0.556   2.305  1.7933  0.4133  0.1981
 1397SOL    HW3 5619   3.827   0.467   2.183  0.4859  0.4022  0.0344
 1397SOL    MW4 5620   3.822   0.477   2.269  0.4509  0.2910  0.0454
 1398SOL     OW 5621   3.796   0.724   2.375 -0.3354 -0.0693 -0.4348
 1398SOL    HW2 5622   3.803   0.745   2.468 -1.0544 -0.2597 -0.3411
 1398SOL    HW3 5623   3.881   0.750   2.339  0.3923 -1.1500  0.4952
 1398SOL    MW4 5624   3.808   0.731   2.382 -0.3342 -0.2370 -0.2998
 1399SOL     OW 5625   3.597   0.888   2.255 -0.5205  0.4840 -0.5924
 1399SOL    HW2 5626   3.655   0.828   2.300  0.2770  0.5312 -1.5275
 1399SOL    HW3 5627   3.614   0.872   2.162 -2.2086  0.2977 -0.8855
 1399SOL    MW4 5628   3.607   0.878   2.248 -0.6380  0.4657 -0.7544
 1400SOL     OW 5629   3.593   1.138   2.357 -0.1903 -0.0219  0.8002
 1400SOL    HW2 5630   3.608   1.121   2.450  1.8828 -1.1520  0.2677
 1400SOL    HW3 5631   3.584   1.052   2.317  0.2638  0.4144 -0.2692
 1400SOL    MW4 5632   3.594   1.125   2.364  0.1432 -0.1134  0.5889
 1401SOL     OW 5633   3.811   1.266   2.258 -0.0509 -0.2508  0.2416
 1401SOL    HW2 5634   3.815   1.356   2.291 -0.5091 -0.4414  0.8264
 1401SOL    HW3 5635   3.738   1.226   2.305 -0.0501 -0.8395 -0.2473
 1401SOL    MW4 5636   3.802   1.272   2.268 -0.1112 -0.3537  0.2543
 1402SOL     OW 5637   3.831   1.514   2.351  0.3699  0.2499 -0.0471
 1402SOL    HW2 5638   3.824   1.522   2.446 -0.4054 -0.5671 -0.0261
 1402SOL    HW3 5639   3.762   1.570   2.317 -0.1548 -0.4060 -0.0869
 1402SOL    MW4 5640   3.821   1.522   2.359  0.1984  0.0556 -0.0496
 1403SOL     OW 5641   3.622   1.672   2.275  0.0203 -0.1713  0.2039
 1403SOL    HW2 5642   3.542   1.631   2.307 -1.2221  1.4875 -0.6940
 1403SOL    HW3 5643   3.601   1.698   2.186  1.5271  0.3936  0.0072
 1403SOL    MW4 5644   3.609   1.670   2.268  0.0552  0.1221  0.0595
 1404SOL     OW 5645   3.577   1.919   2.396  0.2845 -0.8957  0.5058
 1404SOL    HW2 5646   3.654   1.969   2.370 -1.0393  0.9471 -0.0097
 1404SOL    HW3 5647   3.593   1.830   2.366  0.9816  0.0865 -2.0866
 1404SOL    MW4 5648   3.589   1.914   2.389  0.2018 -0.5230  0.0958
 1405SOL     OW 5649   3.800   2.021   2.272  0.6330  0.2723  0.3698
 1405SOL    HW2 5650   3.885   1.981   2.288 -0.1029 -2.1767 -1.5205
 1405SOL    HW3 5651   3.794   2.027   2.176 -1.4859  0.0081  0.4670
 1405SOL    MW4 5652   3.810   2.017   2.261  0.2564 -0.0857  0.1332
 1406SOL     OW 5653   3.836   2.310   2.332  0.1661  0.1007 -0.3535
 1406SOL    HW2 5654   3.762   2.357   2.294  0.1487 -0.3542 -0.8757
 1406SOL    HW3 5655   3.817   2.218   2.317  0.5219 -0.0497  0.0946
 1406SOL    MW4 5656   3.824   2.304   2.325  0.2108  0.0208 -0.3633
 1407SOL     OW 5657   3.615   2.463   2.241  0.2956 -0.0296  0.1368
 1407SOL    HW2 5658   3.547   2.404   2.273 -0.8696  0.6418 -1.0484
 1407SOL    HW3 5659   3.621   2.443   2.147  0.8969  0.7378  0.0095
 1407SOL    MW4 5660   3.607   2.452   2.232  0.2212  0.1602 -0.0363
 1408SOL     OW 5661   3.583   2.718   2.355  0.0463 -0.3690 -0.0541
 1408SOL    HW2 5662   3.591   2.629   2.320 -0.1175 -0.0215 -0.9896
 1408SOL    HW3 5663   3.502   2.751   2.316  0.2259  0.2677  0.1109
 1408SOL    MW4 5664   3.573   2.710   2.345  0.0484 -0.2392 -0.1558
 1409SOL     OW 5665   3.815   2.822   2.273 -0.1557  0.2218 -0.8317
 1409SOL    HW2 5666   3.816   2.908   2.315  0.8925 -0.3690  0.3848
 1409SOL    HW3 5667   3.731   2.784   2.300  0.3638 -0.0179  0.4475
 1409SOL    MW4 5668   3.804   2.828   2.282  0.0511  0.1122 -0.5024
 1410SOL     OW 5669   3.799   3.086   2.372 -0.1104  0.1510  0.0723
 1410SOL    HW2 5670   3.807   3.087   2.468  0.9271 -1.3680  0.0252
 1410SOL    HW3 5671   3.878   3.129   2.341 -1.2546  2.2110 -0.1073
 1410SOL    MW4 5672   3.810   3.092   2.381 -0.1245  0.2224  0.0424
 1411SOL     OW 5673   3.551   3.216   2.298 -0.5808 -0.1997 -0.6189
 1411SOL    HW2 5674   3.557   3.309   2.322 -1.9536 -0.0923 -0.6402
 1411SOL    HW3 5675   3.629   3.176   2.337  0.0752  0.9796 -0.6976
 1411SOL    MW4 5676   3.562   3.223   2.306 -0.6754 -0.0300 -0.6321
 1412SOL     OW 5677   3.570   3.490   2.365 -0.2239  0.9416 -0.2949
 1412SOL    HW2 5678   3.591   3.492   2.458 -2.9536 -1.9217  0.4628
 1412SOL    HW3 5679   3.648   3.525   2.322  1.9084  0.3305  2.9311
 1412SOL    MW4 5680   3.583   3.495   2.371 -0.3027  0.4832  0.2307
 1413SOL     OW 5681   3.769   3.654   2.278 -0.4425  0.1948 -0.0495
 1413SOL    HW2 5682   3.797   3.745   2.289  2.0758 -0.5540  0.0874
 1413SOL    HW3 5683   3.768   3.641   2.183  1.5707 -0.2830 -0.0401
 1413SOL    MW4 5684   3.773   3.665   2.267  0.1554  0.0329 -0.0302
 1414SOL     OW 5685   3.801   3.924   2.359 -0.2787 -0.3278 -0.5054
 1414SOL    HW2 5686   3.807   3.903   2.453 -3.1120  0.0619 -0.1745
 1414SOL    HW3 5687   3.880   3.974   2.340  0.6348 -0.9568  1.5483
 1414SOL    MW4 5688   3.812   3.928   2.369 -0.5320 -0.3594 -0.1908
 1415SOL     OW 5689   3.578   4.019   2.224  0.5192  0.4745  0.1910
 1415SOL    HW2 5690   3.579   4.110   2.256  0.5892  0.4436  0.2758
 1415SOL    HW3 5691   3.653   3.978   2.266  1.4517  0.8122 -1.1099
 1415SOL    MW4 5692   3.588   4.026   2.234  0.6515  0.5150  0.0305
 1416SOL     OW 5693   3.587   4.278   2.356  0.3175  0.3505  0.4755
 1416SOL    HW2 5694   3.664   4.326   2.325 -0.1007  0.5655 -0.2396
 1416SOL    HW3 5695   3.514   4.316   2.307 -0.3297  0.5767  1.6112
 1416SOL    MW4 5696   3.588   4.289   2.345  0.1770  0.4087  0.5310
 1417SOL     OW 5697   3.829   4.378   2.256 -0.5816  0.3155 -0.0312
 1417SOL    HW2 5698   3.920   4.361   2.281 -0.8164  0.7934  1.1581
 1417SOL    HW3 5699   3.820   4.473   2.259 -0.8960  0.3180 -0.9480
 1417SOL    MW4 5700   3.840   4.388   2.260 -0.6540  0.3789  0.0048
 1418SOL     OW 5701   4.296   4.636   2.326  0.0581 -0.0724 -0.0173
 1418SOL    HW2 5702   4.294   4.633   2.422  0.4702  0.6403  0.0232
 1418SOL    HW3 5703   4.364   4.701   2.306  0.8180 -1.0765 -0.8004
 1418SOL    MW4 5704   4.305   4.644   2.336  0.2127 -0.1109 -0.1153
 1419SOL     OW 5705   4.059   0.085   2.236  0.2226 -0.2457  0.0177
 1419SOL    HW2 5706   4.062   0.175   2.269 -1.0622 -0.0693 -0.3084
 1419SOL    HW3 5707   4.145   0.049   2.256 -0.5625 -0.2264  3.8283
 1419SOL    MW4 5708   4.071   0.092   2.243 -0.0505 -0.2199  0.4775
 1420SOL     OW 5709   4.058   0.332   2.337 -0.2790 -0.3128 -0.4495
 1420SOL    HW2 5710   4.128   0.397   2.333 -0.1244 -0.4830 -0.5246
 1420SOL    HW3 5711   3.981   0.378   2.306  0.1114 -0.5479 -1.8076
 1420SOL    MW4 5712   4.057   0.347   2.333 -0.2071 -0.3662 -0.6386
 1421SOL     OW 5713   4.268   0.511   2.289 -0.0131 -0.6611 -0.3163
 1421SOL    HW2 5714   4.280   0.591   2.340 -1.4380 -1.2450  0.9814
 1421SOL    HW3 5715   4.341   0.454   2.315  0.5912 -0.0525 -0.6951
 1421SOL    MW4 5716   4.279   0.514   2.299 -0.1214 -0.6578 -0.1950
 1422SOL     OW 5717   4.293   0.778   2.383 -0.0047 -0.1406 -0.0109
 1422SOL    HW2 5718   4.205   0.804   2.354 -0.4146  1.2814  2.3160
 1422SOL    HW3 5719   4.353   0.829   2.328 -0.6482 -0.6720 -1.2096
 1422SOL    MW4 5720   4.289   0.788   2.372 -0.1437 -0.0231  0.1380
 1423SOL     OW 5721   4.031   0.870   2.279 -0.2445 -0.0180  0.3919
 1423SOL    HW2 5722   4.040   0.959   2.313  1.9452 -0.4552  1.0157
 1423SOL    HW3 5723   4.053   0.879   2.186 -1.0867  0.2735  0.2180
 1423SOL    MW4 5724   4.035   0.883   2.271 -0.0668 -0.0372  0.4513
 1424SOL     OW 5725   4.044   1.144   2.351  0.0916  0.0748 -0.3387
 1424SOL    HW2 5726   4.062   1.158   2.444 -1.0518  1.0468 -0.2456
 1424SOL    HW3 5727   3.962   1.191   2.336  0.1925 -0.2114 -1.8053
 1424SOL    MW4 5728   4.036   1.152   2.361 -0.0459  0.1653 -0.5199
 1425SOL     OW 5729   4.251   1.296   2.236  0.1592  0.0696  0.0987
 1425SOL    HW2 5730   4.177   1.246   2.269 -0.1091 -0.1762 -0.8683
 1425SOL    HW3 5731   4.326   1.263   2.285 -0.2223 -0.3415  0.4084
 1425SOL    MW4 5732   4.251   1.285   2.247  0.0735 -0.0171  0.0120
 1426SOL     OW 5733   4.290   1.539   2.385 -0.3305 -0.3355  0.3552
 1426SOL    HW2 5734   4.278   1.464   2.327 -1.2171 -0.4820  0.7318
 1426SOL    HW3 5735   4.356   1.593   2.340 -0.7391 -0.6241 -0.6075
 1426SOL    MW4 5736   4.297   1.536   2.371 -0.5014 -0.3929  0.2779
 1427SOL     OW 5737   4.052   1.680   2.313 -0.1363 -0.0852 -0.3933
 1427SOL    HW2 5738   4.137   1.650   2.344 -0.4710  1.6522  2.3208
 1427SOL    HW3 5739   3.991   1.611   2.337 -0.0505  0.2803  0.8693
 1427SOL    MW4 5740   4.055   1.667   2.320 -0.1691  0.1923  0.1314
 1428SOL     OW 5741   4.053   1.943   2.345  0.1528 -0.6474 -0.4159
 1428SOL    HW2 5742   4.060   1.959   2.439 -1.2112  0.5255 -0.4941
 1428SOL    HW3 5743   4.055   1.848   2.336 -0.6343 -0.7934  0.8819
 1428SOL    MW4 5744   4.054   1.933   2.356 -0.1310 -0.5119 -0.2550
 1429SOL     OW 5745   4.281   2.058   2.270  0.0146 -0.5450 -0.2443
 1429SOL    HW2 5746   4.267   2.144   2.309  0.4717 -1.4520  1.9724
 1429SOL    HW3 5747   4.203   2.008   2.294 -0.2228 -0.7872 -1.4752
 1429SOL    MW4 5748   4.269   2.063   2.278  0.0436 -0.6966 -0.1142
 1430SOL     OW 5749   4.298   2.296   2.422 -0.0103  0.2854 -0.3471
 1430SOL    HW2 5750   4.222   2.355   2.425  0.8049  1.5326 -2.4733
 1430SOL    HW3 5751   4.367   2.349   2.384  0.7343 -2.0607 -2.4207
 1430SOL    MW4 5752   4.297   2.311   2.417  0.1955  0.1404 -0.9012
 1431SOL     OW 5753   4.082   2.456   2.349  0.6589  0.0751  0.4299
 1431SOL    HW2 5754   4.067   2.549   2.364  0.2603  0.0112  0.4294
 1431SOL    HW3 5755   3.997   2.414   2.367  0.3851 -0.0988 -1.1793
 1431SOL    MW4 5756   4.069   2.462   2.353  0.5702  0.0437  0.2175
 1432SOL     OW 5757   4.059   2.727   2.370  0.1573  0.2406  0.3921
 1432SOL    HW2 5758   4.069   2.741   2.464 -0.7939 -1.2621  0.7378
 1432SOL    HW3 5759   3.973   2.765   2.350  0.2768  0.3914  0.1615
 1432SOL    MW4 5760   4.049   2.734   2.380  0.0475  0.0622  0.4073
 1433SOL     OW 5761   4.271   2.849   2.238 -0.1119 -0.4084  0.1577
 1433SOL    HW2 5762   4.196   2.803   2.275  1.1868 -1.4182  1.6450
 1433SOL    HW3 5763   4.347   2.804   2.276  1.2379  3.5204  2.3646
 1433SOL    MW4 5764   4.271   2.837   2.248  0.2375 -0.0233  0.6451
 1434SOL     OW 5765   4.247   3.098   2.372  0.3456  0.1858 -0.3067
 1434SOL    HW2 5766   4.250   3.017   2.321 -1.3666  0.0911 -0.3152
 1434SOL    HW3 5767   4.331   3.140   2.356  0.8268 -1.0591 -1.1817
 1434SOL    MW4 5768   4.258   3.093   2.363  0.1832  0.0091 -0.4233
 1435SOL     OW 5769   4.032   3.220   2.275 -0.6088  0.1574  0.1552
 1435SOL    HW2 5770   4.029   3.314   2.291  0.0872  0.0779  0.8009
 1435SOL    HW3 5771   4.117   3.193   2.308 -1.0800 -0.8095  0.5954
 1435SOL    MW4 5772   4.043   3.229   2.282 -0.5791  0.0194  0.2984
 1436SOL     OW 5773   3.990   3.486   2.384  0.2591 -0.5323 -0.0984
 1436SOL    HW2 5774   4.062   3.540   2.351  0.4562 -0.2512  0.7798
 1436SOL    HW3 5775   3.911   3.535   2.363  0.4168 -0.0816  0.3550
 1436SOL    MW4 5776   3.989   3.500   2.377  0.3059 -0.4358  0.0773
 1437SOL     OW 5777   4.241   3.603   2.275 -0.2062 -0.0031  0.3031
 1437SOL    HW2 5778   4.240   3.697   2.293 -0.4545  0.2880 -1.1468
 1437SOL    HW3 5779   4.241   3.597   2.179 -3.5616 -1.5334  0.3568
 1437SOL    MW4 5780   4.241   3.614   2.265 -0.6817 -0.1666  0.1188
 1438SOL     OW 5781   4.251   3.857   2.358 -0.0528 -0.7817 -0.4156
 1438SOL    HW2 5782   4.258   3.850   2.453 -0.9064  0.5361 -0.2457
 1438SOL    HW3 5783   4.330   3.906   2.332 -0.9456  0.8502 -0.1247
 1438SOL    MW4 5784   4.263   3.863   2.367 -0.2833 -0.3925 -0.3548
 1439SOL     OW 5785   4.042   4.020   2.260  0.4506  0.0941 -0.2294
 1439SOL    HW2 5786   4.102   3.958   2.300 -0.0356 -1.0638 -1.2548
 1439SOL    HW3 5787   4.067   4.022   2.167  0.6527  1.6544 -0.1521
 1439SOL    MW4 5788   4.053   4.012   2.253  0.4131  0.1472 -0.3545
 1440SOL     OW 5789   4.105   4.281   2.316 -0.3033 -0.2640 -0.2226
 1440SOL    HW2 5790   4.179   4.318   2.268 -1.7053  1.2599 -1.2668
 1440SOL    HW3 5791   4.112   4.186   2.302  0.7509 -0.0377 -1.3212
 1440SOL    MW4 5792   4.116   4.273   2.308 -0.3492 -0.0331 -0.5053
 1441SOL     OW 5793   4.337   4.399   2.164 -0.2259 -0.0910 -0.4759
 1441SOL    HW2 5794   4.331   4.480   2.214 -0.6117  0.4254 -1.3355
 1441SOL    HW3 5795   4.405   4.348   2.207 -0.3209  0.4889  0.3627
 1441SOL    MW4 5796   4.345   4.403   2.176 -0.2894  0.0537 -0.4786
 1442SOL     OW 5797   0.269   4.622   2.625  0.3001 -0.0041  0.3481
 1442SOL    HW2 5798   0.281   4.540   2.672  1.0292 -0.5232 -0.7189
 1442SOL    HW3 5799   0.186   4.656   2.656  1.3818  0.3337  3.0026
 1442SOL    MW4 5800   0.260   4.616   2.635  0.5390 -0.0280  0.5576
 1443SOL     OW 5801   0.028   0.077   2.722 -0.2532 -0.0104  0.4811
 1443SOL    HW2 5802   0.031   0.078   2.817 -1.5602  0.5757  0.5224
 1443SOL    HW3 5803   0.006   0.166   2.697 -0.4510 -0.2822 -0.3387
 1443SOL    MW4 5804   0.025   0.089   2.731 -0.4517  0.0311  0.3784
 1444SOL     OW 5805   4.442   0.331   2.658 -0.0298  0.3719 -0.1466
 1444SOL    HW2 5806   4.517   0.382   2.688 -0.5167  1.9002 -1.4689
 1444SOL    HW3 5807   4.438   0.347   2.564 -0.9762 -1.1009 -0.3739
 1444SOL    MW4 5808   4.451   0.340   2.650 -0.2189  0.3792 -0.3511
 1445SOL     OW 5809   0.181   0.490   2.718 -0.7704  0.8237  0.5466
 1445SOL    HW2 5810   0.184   0.520   2.809 -0.8698 -2.6476  1.7432
 1445SOL    HW3 5811   0.267   0.451   2.702 -1.5979 -0.8060 -0.0405
 1445SOL    MW4 5812   0.193   0.489   2.727 -0.8927  0.1507  0.6271
 1446SOL     OW 5813   0.161   0.762   2.635 -0.4332 -0.4511 -0.2688
 1446SOL    HW2 5814   0.243   0.794   2.674 -0.0566 -0.9579 -0.6407
 1446SOL    HW3 5815   0.158   0.669   2.658 -1.0156 -0.3868 -0.0730
 1446SOL    MW4 5816   0.172   0.754   2.644 -0.4603 -0.5095 -0.2921
 1447SOL     OW 5817   4.445   0.929   2.765  0.0279  0.5695 -0.2584
 1447SOL    HW2 5818   4.370   0.882   2.729 -0.2653  0.6697  0.2181
 1447SOL    HW3 5819   4.521   0.891   2.721 -0.2163 -0.2694  0.0387
 1447SOL    MW4 5820   4.445   0.918   2.754 -0.0430  0.4721 -0.1563
 1448SOL     OW 5821   0.021   1.198   2.642  0.1201 -0.1484  0.1157
 1448SOL    HW2 5822   0.097   1.235   2.688 -0.1368 -0.4444  0.7809
 1448SOL    HW3 5823   0.007   1.112   2.683  0.1185 -0.5793 -0.7662
 1448SOL    MW4 5824   0.029   1.191   2.654  0.0860 -0.2443  0.0871
 1449SOL     OW 5825   0.248   1.285   2.772 -0.0661 -0.3823  0.3822
 1449SOL    HW2 5826   0.306   1.228   2.722 -0.6848 -0.2165 -0.5482
 1449SOL    HW3 5827   0.247   1.367   2.723 -1.1056 -0.3979  0.3525
 1449SOL    MW4 5828   0.255   1.288   2.759 -0.2849 -0.3625  0.2555
 1450SOL     OW 5829   0.212   1.513   2.626  0.2028 -0.0285  0.0802
 1450SOL    HW2 5830   0.287   1.567   2.650  1.8102 -1.3714 -1.8017
 1450SOL    HW3 5831   0.138   1.556   2.669  1.9084  1.7271  1.3987
 1450SOL    MW4 5832   0.212   1.526   2.635  0.6399  0.0259  0.0058
 1451SOL     OW 5833   0.008   1.644   2.756 -0.3263  0.3555 -0.0787
 1451SOL    HW2 5834  -0.017   1.653   2.848 -0.7316 -1.7620  0.0645
 1451SOL    HW3 5835   0.033   1.732   2.728  0.2500  0.9468  2.1877
 1451SOL    MW4 5836   0.008   1.657   2.765 -0.3038  0.1541  0.2392
 1452SOL     OW 5837   0.026   1.878   2.637 -0.1303  0.4906  0.2548
 1452SOL    HW2 5838   0.095   1.938   2.664 -0.5470  0.6596  0.9396
 1452SOL    HW3 5839   0.036   1.871   2.542  0.1461  1.3485  0.2229
 1452SOL    MW4 5840   0.036   1.885   2.628 -0.1488  0.6261  0.3409
 1453SOL     OW 5841   0.218   2.042   2.740 -0.1532  0.5219 -0.5862
 1453SOL    HW2 5842   0.300   2.000   2.717 -0.3574 -0.1081 -0.1904
 1453SOL    HW3 5843   0.214   2.121   2.686  0.3181  0.1201 -1.1992
 1453SOL    MW4 5844   0.228   2.047   2.730 -0.1179  0.3858 -0.6148
 1454SOL     OW 5845   0.247   2.335   2.632  0.3879 -0.0925  0.1569
 1454SOL    HW2 5846   0.315   2.382   2.681  0.1148 -0.5512  0.9853
 1454SOL    HW3 5847   0.165   2.366   2.671  0.1953 -1.0235  0.5047
 1454SOL    MW4 5848   0.245   2.346   2.644  0.3265 -0.2759  0.3121
 1455SOL     OW 5849   4.488   2.434   2.747 -0.0385  0.2523 -0.3333
 1455SOL    HW2 5850   4.494   2.443   2.842  0.7872 -0.0642 -0.3455
 1455SOL    HW3 5851   4.409   2.382   2.732 -0.2046  0.3567  0.1759
 1455SOL    MW4 5852   4.479   2.428   2.758  0.0485  0.2243 -0.2677
 1456SOL     OW 5853   0.022   2.668   2.617 -0.1392  0.1832  0.1418
 1456SOL    HW2 5854  -0.042   2.726   2.657 -0.6141  0.0139 -0.3727
 1456SOL    HW3 5855   0.017   2.587   2.668  0.0334  0.3523  0.4257
 1456SOL    MW4 5856   0.013   2.665   2.629 -0.1791  0.1832  0.1114
 1457SOL     OW 5857   0.240   2.811   2.726 -0.0539  0.0149 -0.0837
 1457SOL    HW2 5858   0.233   2.897   2.684 -1.7551 -1.0742 -2.1773
 1457SOL    HW3 5859   0.173   2.758   2.682  0.9437 -2.3686  1.1760
 1457SOL    MW4 5860   0.230   2.815   2.714 -0.1467 -0.4433 -0.1938
 1458SOL     OW 5861   0.220   3.084   2.634 -0.2253  0.1431  0.3481
 1458SOL    HW2 5862   0.284   3.148   2.663  0.4801 -0.1500 -0.5686
 1458SOL    HW3 5863   0.208   3.101   2.541  0.0808 -1.1362  0.0583
 1458SOL    MW4 5864   0.227   3.095   2.626 -0.0918 -0.0643  0.1889
 1459SOL     OW 5865   0.003   3.208   2.740 -0.0408 -0.0811 -0.2245
 1459SOL    HW2 5866  -0.065   3.153   2.700  0.3373 -0.1888 -0.7278
 1459SOL    HW3 5867   0.085   3.168   2.711  0.2377  0.5068 -0.2543
 1459SOL    MW4 5868   0.005   3.195   2.731  0.0459 -0.0177 -0.2948
 1460SOL     OW 5869   4.445   3.471   2.676 -0.0417  0.0964 -0.1698
 1460SOL    HW2 5870   4.512   3.511   2.732  0.9572 -1.4367 -0.2481
 1460SOL    HW3 5871   4.464   3.377   2.679  0.2488  0.0149 -3.4077
 1460SOL    MW4 5872   4.456   3.464   2.684  0.1284 -0.1166 -0.6073
 1461SOL     OW 5873   0.189   3.607   2.781  0.3624  0.1140 -0.1105
 1461SOL    HW2 5874   0.187   3.605   2.877  1.7972 -1.3708 -0.0915
 1461SOL    HW3 5875   0.278   3.582   2.759  0.9325  3.3297 -1.7895
 1461SOL    MW4 5876   0.200   3.603   2.791  0.6269  0.3424 -0.3295
 1462SOL     OW 5877   0.211   3.858   2.642  0.3958  0.0732  0.7050
 1462SOL    HW2 5878   0.193   3.771   2.679 -0.3838  0.9991  2.5336
 1462SOL    HW3 5879   0.204   3.845   2.547 -2.1108 -1.3547  1.0414
 1462SOL    MW4 5880   0.208   3.845   2.634 -0.0378  0.0070  0.9907
 1463SOL     OW 5881   4.488   4.016   2.746 -0.0131 -0.2812  0.1412
 1463SOL    HW2 5882   4.499   4.104   2.710 -1.0777 -0.3148 -0.2645
 1463SOL    HW3 5883   4.556   3.964   2.703 -0.8236 -0.1629 -1.2901
 1463SOL    MW4 5884   4.499   4.021   2.736 -0.2605 -0.2700 -0.1012
 1464SOL     OW 5885   0.004   4.285   2.629  0.1423 -0.5449 -0.0303
 1464SOL    HW2 5886  -0.064   4.339   2.669  0.2872 -0.9257  0.7410
 1464SOL    HW3 5887   0.084   4.308   2.675  0.2239 -1.3395  0.2432
 1464SOL    MW4 5888   0.006   4.295   2.641  0.1722 -0.7000  0.1076
 1465SOL     OW 5889   0.242   4.356   2.740  0.5570  0.8994 -0.0623
 1465SOL    HW2 5890   0.252   4.357   2.835  1.5931  0.4074 -0.1609
 1465SOL    HW3 5891   0.313   4.300   2.709  0.4212  1.3221 -1.1527
 1465SOL    MW4 5892   0.253   4.349   2.748  0.6758  0.8903 -0.2191
 1466SOL     OW 5893   0.682   4.630   2.592 -0.3553 -0.3933  0.0982
 1466SOL    HW2 5894   0.764   4.662   2.629  0.0776 -1.0424 -0.2825
 1466SOL    HW3 5895   0.616   4.694   2.619  0.2021 -0.0998  0.7661
 1466SOL    MW4 5896   0.684   4.643   2.600 -0.2246 -0.4402  0.1361
 1467SOL     OW 5897   0.476   0.124   2.695  0.4640  0.2282  0.1833
 1467SOL    HW2 5898   0.466   0.126   2.791  1.0507  0.5427  0.2405
 1467SOL    HW3 5899   0.408   0.063   2.665 -0.1788  0.6613  0.7406
 1467SOL    MW4 5900   0.466   0.116   2.704  0.4566  0.3269  0.2644
 1468SOL     OW 5901   0.420   0.376   2.631  0.3309  0.0795 -0.3103
 1468SOL    HW2 5902   0.502   0.421   2.653 -0.4707  2.1690 -1.4709
 1468SOL    HW3 5903   0.438   0.284   2.649  1.8364  0.8939  2.6981
 1468SOL    MW4 5904   0.433   0.370   2.636  0.4238  0.4626 -0.0665
 1469SOL     OW 5905   0.637   0.507   2.713  0.2546 -0.0062 -0.0084
 1469SOL    HW2 5906   0.639   0.519   2.808 -0.0458 -0.7234  0.0920
 1469SOL    HW3 5907   0.720   0.465   2.692  0.3352  0.1824 -0.0712
 1469SOL    MW4 5908   0.648   0.503   2.722  0.2256 -0.0760 -0.0035
 1470SOL     OW 5909   0.667   0.790   2.628  0.2476  0.3792 -0.1702
 1470SOL    HW2 5910   0.753   0.815   2.661 -0.7921  1.2722  1.9361
 1470SOL    HW3 5911   0.658   0.697   2.651 -0.0467  0.7294  1.1365
 1470SOL    MW4 5912   0.677   0.781   2.635  0.0716  0.5432  0.2801
 1471SOL     OW 5913   0.398   0.895   2.732 -0.5486 -0.3150 -0.1894
 1471SOL    HW2 5914   0.409   0.893   2.826 -2.5526  1.4220  0.1421
 1471SOL    HW3 5915   0.481   0.863   2.696  0.8122  0.5421  2.1178
 1471SOL    MW4 5916   0.410   0.890   2.739 -0.6335  0.0273  0.1587
 1472SOL     OW 5917   0.395   1.134   2.596 -0.2502  0.1399  0.2268
 1472SOL    HW2 5918   0.483   1.161   2.624 -0.0370  0.6050 -0.8809
 1472SOL    HW3 5919   0.378   1.053   2.645  2.0836 -1.7157 -1.8957
 1472SOL    MW4 5920   0.404   1.127   2.606  0.0858 -0.0435 -0.1994
 1473SOL     OW 5921   0.635   1.234   2.685 -0.3211  0.1044 -0.0564
 1473SOL    HW2 5922   0.650   1.240   2.780 -1.0336  0.1393  0.0572
 1473SOL    HW3 5923   0.717   1.198   2.650  0.7240  2.0086  0.3247
 1473SOL    MW4 5924   0.648   1.230   2.693 -0.2772  0.3603  0.0089
 1474SOL     OW 5925   0.637   1.509   2.628  0.6071  0.2537 -0.2765
 1474SOL    HW2 5926   0.570   1.558   2.676  0.8685  0.0707  0.2711
 1474SOL    HW3 5927   0.626   1.419   2.656  0.3632  0.0464 -1.0157
 1474SOL    MW4 5928   0.627   1.504   2.638  0.6094  0.2022 -0.3018
 1475SOL     OW 5929   0.415   1.659   2.704  0.1561  0.4164 -0.3431
 1475SOL    HW2 5930   0.427   1.685   2.796 -0.6471 -0.5518  0.0490
 1475SOL    HW3 5931   0.404   1.742   2.657 -0.7247  0.8602  0.6259
 1475SOL    MW4 5932   0.415   1.673   2.710 -0.0661  0.3472 -0.1635
 1476SOL     OW 5933   0.431   1.930   2.598  0.1151  0.5839  0.3420
 1476SOL    HW2 5934   0.507   1.969   2.640 -0.1783  0.6856  0.7860
 1476SOL    HW3 5935   0.451   1.932   2.504  0.9878 -0.1027  0.5151
 1476SOL    MW4 5936   0.443   1.935   2.591  0.1916  0.5068  0.4234
 1477SOL     OW 5937   0.653   2.020   2.738  0.4684 -0.6135 -0.6382
 1477SOL    HW2 5938   0.660   2.036   2.832  0.0993  0.4808 -0.7933
 1477SOL    HW3 5939   0.735   1.977   2.715  0.7372 -0.5059  0.1110
 1477SOL    MW4 5940   0.665   2.017   2.747  0.4552 -0.4549 -0.5599
 1478SOL     OW 5941   0.671   2.282   2.603  0.1597 -0.1068 -0.5107
 1478SOL    HW2 5942   0.747   2.308   2.656  0.7700  0.5917 -1.6863
 1478SOL    HW3 5943   0.656   2.190   2.625  0.9675 -0.0763  0.1940
 1478SOL    MW4 5944   0.679   2.274   2.613  0.3468 -0.0106 -0.5728
 1479SOL     OW 5945   0.481   2.443   2.770  0.7437 -0.3536 -0.4856
 1479SOL    HW2 5946   0.475   2.522   2.716  0.8818 -0.4156 -0.5944
 1479SOL    HW3 5947   0.537   2.384   2.719  1.5843 -0.0862  0.1172
 1479SOL    MW4 5948   0.488   2.445   2.756  0.8728 -0.3265 -0.4205
 1480SOL     OW 5949   0.471   2.686   2.637  0.3336 -0.7884 -0.1573
 1480SOL    HW2 5950   0.548   2.734   2.666  0.1078 -0.9359  0.6903
 1480SOL    HW3 5951   0.397   2.734   2.674  0.0941 -1.6086  0.4340
 1480SOL    MW4 5952   0.471   2.699   2.646  0.2722 -0.9161  0.0326
 1481SOL     OW 5953   0.680   2.845   2.722 -0.1175  0.0743  0.5274
 1481SOL    HW2 5954   0.690   2.843   2.817 -0.8335  0.5885  0.6202
 1481SOL    HW3 5955   0.635   2.928   2.705  1.0268  0.5306 -0.3656
 1481SOL    MW4 5956   0.675   2.856   2.732 -0.0610  0.2023  0.4219
 1482SOL     OW 5957   0.662   3.112   2.661 -0.1643  0.3153  0.2498
 1482SOL    HW2 5958   0.748   3.138   2.695  0.1075  0.6123 -0.6610
 1482SOL    HW3 5959   0.670   3.121   2.566 -1.3652  0.8283  0.1931
 1482SOL    MW4 5960   0.675   3.117   2.653 -0.2869  0.4221  0.1221
 1483SOL     OW 5961   0.411   3.240   2.745  0.0644  0.3256 -0.0820
 1483SOL    HW2 5962   0.426   3.246   2.840 -0.1614  2.3596 -0.1641
 1483SOL    HW3 5963   0.492   3.202   2.711  1.0535  1.6778  0.6852
 1483SOL    MW4 5964   0.424   3.236   2.753  0.1651  0.7723  0.0084
 1484SOL     OW 5965   0.435   3.503   2.682 -0.1123 -0.2643 -0.1868
 1484SOL    HW2 5966   0.416   3.411   2.703 -2.6650  0.2539 -0.0584
 1484SOL    HW3 5967   0.427   3.507   2.586 -0.4928 -0.0900 -0.1498
 1484SOL    MW4 5968   0.431   3.491   2.672 -0.4993 -0.1729 -0.1649
 1485SOL     OW 5969   0.679   3.623   2.734 -0.0015 -0.7285 -0.0311
 1485SOL    HW2 5970   0.679   3.634   2.829 -0.9449  1.0898 -0.2290
 1485SOL    HW3 5971   0.589   3.600   2.712  0.3076 -1.5696 -0.4530
 1485SOL    MW4 5972   0.667   3.621   2.743 -0.0852 -0.5996 -0.1129
 1486SOL     OW 5973   0.673   3.873   2.631 -0.3538  0.2565 -0.2289
 1486SOL    HW2 5974   0.593   3.899   2.677 -0.5342 -0.5918 -0.0463
 1486SOL    HW3 5975   0.684   3.780   2.653  0.1003  0.0946 -1.1108
 1486SOL    MW4 5976   0.664   3.864   2.640 -0.3177  0.1232 -0.3212
 1487SOL     OW 5977   0.445   3.974   2.767  0.2387  0.1911  0.2458
 1487SOL    HW2 5978   0.443   4.063   2.730  2.5074 -0.1980 -0.8969
 1487SOL    HW3 5979   0.374   3.929   2.722  0.6637  0.7507 -1.0362
 1487SOL    MW4 5980   0.435   3.980   2.756  0.5941  0.2136 -0.0741
 1488SOL     OW 5981   0.464   4.217   2.651 -0.5790 -0.7782  0.0530
 1488SOL    HW2 5982   0.544   4.267   2.669 -1.5793  0.8818 -0.0233
 1488SOL    HW3 5983   0.445   4.235   2.559 -1.6755 -0.2243  0.3799
 1488SOL    MW4 5984   0.472   4.226   2.641 -0.8556 -0.4861  0.0861
 1489SOL     OW 5985   0.671   4.389   2.747 -0.1715  0.1668 -0.3864
 1489SOL    HW2 5986   0.746   4.354   2.700  0.4497 -0.8577  1.3169
 1489SOL    HW3 5987   0.672   4.483   2.729  1.1321  0.0605 -0.8855
 1489SOL    MW4 5988   0.681   4.396   2.738  0.0824  0.0176 -0.2275
 1490SOL     OW 5989   1.123   4.622   2.639  0.2025  0.2972  0.1200
 1490SOL    HW2 5990   1.196   4.671   2.678  0.4196 -0.0948  0.2090
 1490SOL    HW3 5991   1.128   4.536   2.680  0.3031 -0.0493 -0.6271
 1490SOL    MW4 5992   1.133   4.617   2.650  0.2444  0.1997  0.0332
 1491SOL     OW 5993   0.926   0.138   2.706 -0.4589 -0.2310 -0.1774
 1491SOL    HW2 5994   0.930   0.130   2.801 -0.5437  0.5622 -0.0995
 1491SOL    HW3 5995   0.993   0.077   2.673 -0.2639 -0.3252  0.3960
 1491SOL    MW4 5996   0.936   0.129   2.714 -0.4443 -0.1388 -0.0915
 1492SOL     OW 5997   0.872   0.403   2.607 -0.0529 -0.1659  0.5408
 1492SOL    HW2 5998   0.885   0.313   2.638  0.0446 -1.2572 -2.5360
 1492SOL    HW3 5999   0.868   0.395   2.512  1.5036  3.3116  0.1268
 1492SOL    MW4 6000   0.873   0.390   2.598  0.1653  0.1489  0.0802
 1493SOL     OW 6001   1.128   0.486   2.680 -0.1097  0.3428 -0.0905
 1493SOL    HW2 6002   1.133   0.578   2.657 -0.7039  0.6625  1.0050
 1493SOL    HW3 6003   1.037   0.461   2.662  0.1312 -0.1228 -0.6981
 1493SOL    MW4 6004   1.117   0.495   2.675 -0.1563  0.3235 -0.0261
 1494SOL     OW 6005   1.148   0.764   2.605  0.2435  0.2817 -0.3949
 1494SOL    HW2 6006   1.231   0.797   2.640 -0.1711  1.8098 -0.8377
 1494SOL    HW3 6007   1.163   0.755   2.511  0.5090 -1.3013 -0.2188
 1494SOL    MW4 6008   1.161   0.767   2.597  0.2239  0.2744 -0.4301
 1495SOL     OW 6009   0.921   0.876   2.700  0.0509  0.0957  0.1842
 1495SOL    HW2 6010   0.914   0.861   2.795 -0.5625 -1.4385 -0.0796
 1495SOL    HW3 6011   1.007   0.842   2.676  0.1894  0.4463  0.1830
 1495SOL    MW4 6012   0.931   0.870   2.709 -0.0117 -0.0605  0.1492
 1496SOL     OW 6013   0.864   1.136   2.587  0.3673  0.4836 -0.1118
 1496SOL    HW2 6014   0.873   1.045   2.614  2.3163  0.9592  0.9395
 1496SOL    HW3 6015   0.865   1.133   2.491  1.0147 -0.5466 -0.0716
 1496SOL    MW4 6016   0.865   1.124   2.578  0.7099  0.4104  0.0322
 1497SOL     OW 6017   1.095   1.228   2.712  0.0585 -0.1970 -0.2148
 1497SOL    HW2 6018   1.095   1.313   2.668 -0.8070  0.2892  0.7259
 1497SOL    HW3 6019   1.027   1.178   2.668 -0.5126  0.1430  0.2714
 1497SOL    MW4 6020   1.086   1.233   2.700 -0.1310 -0.0880 -0.0265
 1498SOL     OW 6021   1.088   1.497   2.600 -0.2615  0.0529 -0.1252
 1498SOL    HW2 6022   1.007   1.546   2.613  0.2181  0.7617  0.2400
 1498SOL    HW3 6023   1.106   1.505   2.506 -1.7236 -1.8857 -0.5850
 1498SOL    MW4 6024   1.080   1.505   2.589 -0.3911 -0.1094 -0.1377
 1499SOL     OW 6025   0.868   1.640   2.696 -0.7879  0.3482  0.6997
 1499SOL    HW2 6026   0.878   1.639   2.791 -0.9626  0.7815  0.7242
 1499SOL    HW3 6027   0.783   1.599   2.680 -1.3165  1.3700  0.8102
 1499SOL    MW4 6028   0.858   1.635   2.706 -0.8807  0.5402  0.7175
 1500SOL     OW 6029   0.872   1.902   2.589  0.8658  0.1799 -0.2633
 1500SOL    HW2 6030   0.942   1.954   2.628  0.4837 -0.4968  1.3418
 1500SOL    HW3 6031   0.879   1.816   2.631 -1.0812  0.1790  0.0969
 1500SOL    MW4 6032   0.882   1.898   2.600  0.5585  0.0905 -0.0040
 1501SOL     OW 6033   1.086   2.039   2.745  0.4513  0.6991  0.1410
 1501SOL    HW2 6034   1.164   1.993   2.713  1.1477  1.0668  1.2598
 1501SOL    HW3 6035   1.083   2.119   2.693  0.2366  0.2008 -0.6125
 1501SOL    MW4 6036   1.096   2.043   2.734  0.5149  0.6819  0.1892
 1502SOL     OW 6037   1.104   2.288   2.613  0.0568  0.3107  0.2763
 1502SOL    HW2 6038   1.179   2.342   2.639 -0.7193  1.5916 -0.0541
 1502SOL    HW3 6039   1.114   2.280   2.518 -1.1429  1.9546 -0.0106
 1502SOL    MW4 6040   1.115   2.294   2.604 -0.2039  0.6966  0.1949
 1503SOL     OW 6041   0.896   2.407   2.740  0.0713 -0.6597 -0.0136
 1503SOL    HW2 6042   0.895   2.491   2.695  0.4033 -0.2641  0.6973
 1503SOL    HW3 6043   0.967   2.358   2.698 -0.6703 -0.9079 -0.9894
 1503SOL    MW4 6044   0.905   2.411   2.729  0.0173 -0.6403 -0.0485
 1504SOL     OW 6045   0.879   2.677   2.637  0.2159  0.1585  0.2509
 1504SOL    HW2 6046   0.950   2.735   2.666 -0.0542  1.2299 -1.2121
 1504SOL    HW3 6047   0.799   2.724   2.660 -0.0148 -0.3854  0.5611
 1504SOL    MW4 6048   0.878   2.691   2.644  0.1498  0.2281  0.0988
 1505SOL     OW 6049   1.083   2.832   2.717  0.0000  0.0000 -0.1090
 1505SOL    HW2 6050   1.106   2.825   2.809  0.0000  0.0000 -0.1063
 1505SOL    HW3 6051   1.159   2.795   2.671  0.0000  0.0000 -0.1000
 1505SOL    MW4 6052   1.096   2.826   2.723  0.0000  0.0000 -0.1074
 1506SOL     OW 6053   1.148   3.096   2.636  0.0000  0.0000  0.1552
 1506SOL    HW2 6054   1.122   3.007   2.659  0.0000  0.0000  0.1626
 1506SOL    HW3 6055   1.136   3.101   2.541  0.0000  0.0000  0.1551
 1506SOL    MW4 6056   1.143   3.085   2.627  0.0000  0.0000  0.1561
 1507SOL     OW 6057   0.919   3.208   2.755  0.0000  0.0000  0.3875
 1507SOL    HW2 6058   0.903   3.287   2.703  0.0000  0.0000  0.3783
 1507SOL    HW3 6059   1.006   3.179   2.727  0.0000  0.0000  0.4136
 1507SOL    MW4 6060   0.928   3.215   2.744  0.0000  0.0000  0.3897
 1508SOL     OW 6061   0.887   3.462   2.656  0.0000  0.0000  0.2654
 1508SOL    HW2 6062   0.961   3.508   2.697  0.0000  0.0000  0.2474
 1508SOL    HW3 6063   0.810   3.511   2.686  0.0000  0.0000  0.3048
 1508SOL    MW4 6064   0.887   3.475   2.666  0.0000  0.0000  0.2682
 1509SOL     OW 6065   1.102   3.599   2.763  0.0000  0.0000 -0.1053
 1509SOL    HW2 6066   1.101   3.626   2.855  0.0000  0.0000 -0.1042
 1509SOL    HW3 6067   1.100   3.681   2.714  0.0000  0.0000 -0.1016
 1509SOL    MW4 6068   1.102   3.613   2.768  0.0000  0.0000 -0.1046
 1510SOL     OW 6069   1.098   3.851   2.623  0.0000  0.0000  0.2064
 1510SOL    HW2 6070   1.178   3.889   2.661  0.0000  0.0000  0.2117
 1510SOL    HW3 6071   1.110   3.859   2.528  0.0000  0.0000  0.2073
 1510SOL    MW4 6072   1.110   3.857   2.615  0.0000  0.0000  0.2072
 1511SOL     OW 6073   0.893   4.008   2.725  0.0000  0.0000  0.0043
 1511SOL    HW2 6074   0.957   3.963   2.671  0.0000  0.0000  0.0019
 1511SOL    HW3 6075   0.809   3.969   2.699  0.0000  0.0000  0.0161
 1511SOL    MW4 6076   0.890   3.997   2.715  0.0000  0.0000  0.0055
 1512SOL     OW 6077   0.888   4.266   2.646  0.0000  0.0000  0.4981
 1512SOL    HW2 6078   0.892   4.173   2.671  0.0000  0.0000  0.4957
 1512SOL    HW3 6079   0.884   4.265   2.550  0.0000  0.0000  0.4981
 1512SOL    MW4 6080   0.888   4.254   2.637  0.0000  0.0000  0.4978
 1513SOL     OW 6081   1.144   4.351   2.737  0.0000  0.0000 -0.1900
 1513SOL    HW2 6082   1.137   4.378   2.828  0.0000  0.0000 -0.1890
 1513SOL    HW3 6083   1.055   4.327   2.712  0.0000  0.0000 -0.1860
 1513SOL    MW4 6084   1.131   4.351   2.746  0.0000  0.0000 -0.1893
 1514SOL     OW 6085   1.581   4.641   2.661 -0.3809 -0.1105  0.2240
 1514SOL    HW2 6086   1.561   4.556   2.701 -1.0833 -0.3533 -0.6341
 1514SOL    HW3 6087   1.581   4.624   2.567  1.6275  0.3803  0.1109
 1514SOL    MW4 6088   1.579   4.628   2.654 -0.2086 -0.0778  0.0958
 1515SOL     OW 6089   1.333   0.080   2.739 -0.3707  0.4195 -0.1358
 1515SOL    HW2 6090   1.335   0.145   2.669 -0.3596  0.4656 -0.0925
 1515SOL    HW3 6091   1.416   0.033   2.730 -0.9533 -0.4802 -1.0106
 1515SOL    MW4 6092   1.344   0.082   2.728 -0.4461  0.3069 -0.2455
 1516SOL     OW 6093   1.322   0.329   2.596 -0.4674  0.0761 -0.3832
 1516SOL    HW2 6094   1.393   0.381   2.633 -1.4228  0.7676  0.4621
 1516SOL    HW3 6095   1.242   0.375   2.620 -1.2988 -1.4682 -0.1057
 1516SOL    MW4 6096   1.321   0.342   2.604 -0.7031 -0.0365 -0.2350
 1517SOL     OW 6097   1.550   0.468   2.704 -0.2515 -0.5407  0.2133
 1517SOL    HW2 6098   1.631   0.425   2.677  0.0400 -0.0512  0.3052
 1517SOL    HW3 6099   1.560   0.559   2.675  0.1520  0.0445  2.1256
 1517SOL    MW4 6100   1.562   0.475   2.696 -0.1598 -0.3989  0.4777
 1518SOL     OW 6101   1.580   0.719   2.589  0.1632  0.0539 -0.4238
 1518SOL    HW2 6102   1.507   0.769   2.624 -0.0453 -0.4255 -0.1757
 1518SOL    HW3 6103   1.593   0.754   2.500 -0.9440 -0.4841 -0.8003
 1518SOL    MW4 6104   1.572   0.730   2.582 -0.0104 -0.0804 -0.4408
 1519SOL     OW 6105   1.380   0.873   2.692 -0.5048 -0.0708 -0.4373
 1519SOL    HW2 6106   1.365   0.867   2.787 -2.0882 -1.0951 -0.7409
 1519SOL    HW3 6107   1.373   0.966   2.673 -1.6799 -0.0217  0.2118
 1519SOL    MW4 6108   1.377   0.885   2.702 -0.8687 -0.1995 -0.3917
 1520SOL     OW 6109   1.332   1.133   2.580  0.3879 -0.2730  0.0265
 1520SOL    HW2 6110   1.399   1.182   2.626  0.6599 -0.2465 -0.3899
 1520SOL    HW3 6111   1.253   1.142   2.633  0.5788  0.1536  0.2327
 1520SOL    MW4 6112   1.330   1.141   2.593  0.4490 -0.2132 -0.0012
 1521SOL     OW 6113   1.546   1.267   2.708 -0.0808 -0.2556 -0.0521
 1521SOL    HW2 6114   1.555   1.268   2.803  0.5017 -0.0347 -0.1120
 1521SOL    HW3 6115   1.618   1.212   2.677  0.0132  0.0626 -0.4017
 1521SOL    MW4 6116   1.556   1.260   2.716  0.0085 -0.1845 -0.1061
 1522SOL     OW 6117   1.505   1.542   2.631  0.1587  0.2437  0.3247
 1522SOL    HW2 6118   1.500   1.448   2.649  1.3132  0.4367  1.6748
 1522SOL    HW3 6119   1.523   1.547   2.537  0.6580 -0.8925  0.3549
 1522SOL    MW4 6120   1.507   1.530   2.621  0.3769  0.1193  0.5068
 1523SOL     OW 6121   1.273   1.654   2.742 -0.8394  0.1147 -0.3344
 1523SOL    HW2 6122   1.352   1.613   2.706  0.2164  1.0053  0.9034
 1523SOL    HW3 6123   1.202   1.621   2.688  0.4585 -0.2044 -1.8797
 1523SOL    MW4 6124   1.274   1.644   2.730 -0.5289  0.1901 -0.3750
 1524SOL     OW 6125   1.317   1.905   2.628 -0.1169 -0.1497  0.3760
 1524SOL    HW2 6126   1.300   1.819   2.666  2.5423 -0.4481  0.9930
 1524SOL    HW3 6127   1.327   1.889   2.535  0.8217 -0.6016  0.5452
 1524SOL    MW4 6128   1.316   1.892   2.621  0.3578 -0.2487  0.4798
 1525SOL     OW 6129   1.551   2.084   2.697 -0.2662 -0.3443  0.2423
 1525SOL    HW2 6130   1.623   2.033   2.659 -0.4210 -0.0063 -0.5162
 1525SOL    HW3 6131   1.474   2.027   2.689 -0.2521 -0.3686  0.2777
 1525SOL    MW4 6132   1.550   2.069   2.691 -0.2847 -0.3029  0.1469
 1526SOL     OW 6133   1.545   2.342   2.561 -0.2064  0.2030 -0.2435
 1526SOL    HW2 6134   1.626   2.380   2.598  0.1358 -0.1687 -0.6044
 1526SOL    HW3 6135   1.537   2.257   2.604  0.3332 -0.3446 -1.2044
 1526SOL    MW4 6136   1.555   2.336   2.572 -0.0901  0.0817 -0.4179
 1527SOL     OW 6137   1.312   2.458   2.692 -0.0139  0.1433 -0.1471
 1527SOL    HW2 6138   1.308   2.547   2.657  2.0182  1.0513  1.7924
 1527SOL    HW3 6139   1.392   2.421   2.654  1.2942  0.5577  2.1323
 1527SOL    MW4 6140   1.322   2.465   2.682  0.4268  0.3178  0.4096
 1528SOL     OW 6141   1.308   2.717   2.588  0.2805 -0.3531  0.1547
 1528SOL    HW2 6142   1.384   2.756   2.633  0.9839 -0.9377 -0.5114
 1528SOL    HW3 6143   1.337   2.707   2.497 -0.8636  0.1065 -0.2665
 1528SOL    MW4 6144   1.322   2.721   2.582  0.2223 -0.3696  0.0113
 1529SOL     OW 6145   1.546   2.817   2.699  0.2974  0.3836 -0.1648
 1529SOL    HW2 6146   1.537   2.833   2.793 -1.4006 -3.2144  0.3894
 1529SOL    HW3 6147   1.621   2.757   2.692  0.6101  0.8791 -1.1373
 1529SOL    MW4 6148   1.555   2.811   2.711  0.1146 -0.0257 -0.2200
 1530SOL     OW 6149   1.587   3.079   2.638 -0.0608 -0.4947  0.0021
 1530SOL    HW2 6150   1.672   3.107   2.671  0.7707  0.2177 -2.5952
 1530SOL    HW3 6151   1.581   2.986   2.662  1.2817 -0.4568  0.5093
 1530SOL    MW4 6152   1.597   3.070   2.645  0.2260 -0.3957 -0.2737
 1531SOL     OW 6153   1.365   3.230   2.750  0.1759 -0.1901 -0.3134
 1531SOL    HW2 6154   1.440   3.183   2.715 -0.2781 -0.4605 -0.9354
 1531SOL    HW3 6155   1.289   3.185   2.713 -0.2690  0.7055 -0.4951
 1531SOL    MW4 6156   1.364   3.218   2.740  0.0573 -0.1076 -0.4195
 1532SOL     OW 6157   1.331   3.474   2.638  0.4711  0.1318  0.4866
 1532SOL    HW2 6158   1.337   3.389   2.681  0.3939 -0.3848 -0.5170
 1532SOL    HW3 6159   1.265   3.522   2.689 -0.9034 -1.1059 -0.0999
 1532SOL    MW4 6160   1.323   3.469   2.650  0.2795 -0.0996  0.2768
 1533SOL     OW 6161   1.549   3.607   2.719 -0.0029  0.4692 -0.1760
 1533SOL    HW2 6162   1.632   3.566   2.694 -0.2566  0.3213 -0.7938
 1533SOL    HW3 6163   1.484   3.566   2.662 -0.4026  1.0357 -0.1291
 1533SOL    MW4 6164   1.552   3.596   2.708 -0.0891  0.5245 -0.2513
 1534SOL     OW 6165   1.553   3.872   2.640 -0.5234  0.2315  0.2296
 1534SOL    HW2 6166   1.478   3.912   2.684 -0.7757  0.5937 -0.5274
 1534SOL    HW3 6167   1.553   3.781   2.671 -2.0154 -0.1122 -0.7177
 1534SOL    MW4 6168   1.543   3.865   2.650 -0.7535  0.2339  0.0047
 1535SOL     OW 6169   1.314   3.967   2.740  0.0907 -0.0659 -0.2804
 1535SOL    HW2 6170   1.330   3.969   2.834 -0.1461 -0.4679 -0.2299
 1535SOL    HW3 6171   1.341   4.053   2.709 -1.2302  0.5976  0.3828
 1535SOL    MW4 6172   1.319   3.978   2.748 -0.1148 -0.0314 -0.1862
 1536SOL     OW 6173   1.368   4.216   2.651  0.1357  0.1125 -0.2299
 1536SOL    HW2 6174   1.296   4.269   2.684  0.5511  0.6725 -0.2115
 1536SOL    HW3 6175   1.358   4.218   2.556  0.9101  1.3191 -0.2973
 1536SOL    MW4 6176   1.357   4.223   2.642  0.2927  0.3456 -0.2363
 1537SOL     OW 6177   1.545   4.393   2.756 -0.1555 -0.4292 -0.6196
 1537SOL    HW2 6178   1.542   4.371   2.849  0.2018 -2.0579 -0.9772
 1537SOL    HW3 6179   1.480   4.336   2.716  0.0712 -0.1127 -1.4451
 1537SOL    MW4 6180   1.536   4.383   2.763 -0.0784 -0.6023 -0.7757
 1538SOL     OW 6181   2.020   4.665   2.632 -0.7931 -0.0744  0.2590
 1538SOL    HW2 6182   2.103   4.708   2.650 -0.2670 -0.3892 -1.2967
 1538SOL    HW3 6183   2.018   4.656   2.537 -2.1873 -0.9026  0.3492
 1538SOL    MW4 6184   2.031   4.669   2.622 -0.9076 -0.2252  0.0656
 1539SOL     OW 6185   1.798   0.129   2.746  0.6428  0.3692  1.1255
 1539SOL    HW2 6186   1.871   0.076   2.716 -0.5339 -0.3795 -0.5182
 1539SOL    HW3 6187   1.720   0.080   2.720 -0.4446  1.5277  2.1202
 1539SOL    MW4 6188   1.797   0.116   2.738  0.3441  0.4232  1.0399
 1540SOL     OW 6189   1.787   0.366   2.598 -0.2038  0.2726  0.1969
 1540SOL    HW2 6190   1.859   0.418   2.635 -0.5532 -0.0524  1.3731
 1540SOL    HW3 6191   1.797   0.280   2.640  0.5752 -0.7339 -1.9962
 1540SOL    MW4 6192   1.798   0.361   2.609 -0.1471  0.0969  0.0628
 1541SOL     OW 6193   2.001   0.496   2.706  0.1565  0.1589 -0.1495
 1541SOL    HW2 6194   2.080   0.452   2.675  0.1751  1.5998 -2.2922
 1541SOL    HW3 6195   2.008   0.494   2.801  2.4870 -0.2530 -0.3055
 1541SOL    MW4 6196   2.012   0.490   2.714  0.4664  0.2947 -0.4528
 1542SOL     OW 6197   1.998   0.763   2.602 -0.0143 -0.2541 -0.3492
 1542SOL    HW2 6198   1.974   0.675   2.630 -1.4109  0.4663  0.7632
 1542SOL    HW3 6199   1.927   0.819   2.633  1.5555  1.4864  0.2156
 1542SOL    MW4 6200   1.986   0.759   2.610  0.0085  0.0706 -0.1279
 1543SOL     OW 6201   1.762   0.859   2.719 -0.0976  0.1102 -0.4501
 1543SOL    HW2 6202   1.735   0.944   2.683 -0.6365  0.1385  0.0217
 1543SOL    HW3 6203   1.707   0.795   2.675 -0.0982  0.0608 -0.3782
 1543SOL    MW4 6204   1.751   0.862   2.709 -0.1688  0.1074 -0.3784
 1544SOL     OW 6205   1.744   1.116   2.603 -0.0523 -0.3869  0.3255
 1544SOL    HW2 6206   1.827   1.153   2.634  0.1893 -1.4436  0.9933
 1544SOL    HW3 6207   1.752   1.113   2.508  0.1559  0.7135  0.3065
 1544SOL    MW4 6208   1.756   1.121   2.595  0.0071 -0.3812  0.4111
 1545SOL     OW 6209   1.985   1.229   2.745 -0.1497  0.4576  0.8875
 1545SOL    HW2 6210   2.001   1.240   2.839  0.7923  0.5092  0.7192
 1545SOL    HW3 6211   2.059   1.178   2.713  0.4808  1.9733 -0.1643
 1545SOL    MW4 6212   1.997   1.224   2.753  0.0577  0.6644  0.7266
 1546SOL     OW 6213   1.980   1.479   2.605  0.4399 -0.3859  0.4079
 1546SOL    HW2 6214   1.906   1.525   2.644 -0.0316 -2.0589  1.5196
 1546SOL    HW3 6215   1.989   1.399   2.657  2.0184 -0.9685 -0.7206
 1546SOL    MW4 6216   1.972   1.475   2.617  0.5859 -0.6835  0.4057
 1547SOL     OW 6217   1.764   1.634   2.729  0.3979 -0.2460  0.4456
 1547SOL    HW2 6218   1.761   1.651   2.823 -1.0435  1.4498  0.1306
 1547SOL    HW3 6219   1.679   1.592   2.710  0.8108 -0.8637 -0.0475
 1547SOL    MW4 6220   1.752   1.630   2.739  0.2622 -0.1038  0.3390
 1548SOL     OW 6221   1.784   1.897   2.599 -0.3287 -0.0089 -0.1482
 1548SOL    HW2 6222   1.858   1.943   2.638 -1.0666  0.6935  0.4573
 1548SOL    HW3 6223   1.791   1.808   2.632 -0.2502  0.2786  0.6279
 1548SOL    MW4 6224   1.794   1.892   2.608 -0.4157  0.1217  0.0341
 1549SOL     OW 6225   1.998   2.061   2.711 -1.0638 -0.0452 -0.0198
 1549SOL    HW2 6226   2.001   2.059   2.807  1.2777 -0.1245 -0.0546
 1549SOL    HW3 6227   1.995   2.154   2.689  0.5142  0.0572  0.1265
 1549SOL    MW4 6228   1.998   2.073   2.721 -0.5467 -0.0421 -0.0051
 1550SOL     OW 6229   2.001   2.341   2.625 -0.1065 -0.5369 -0.0552
 1550SOL    HW2 6230   2.071   2.403   2.646 -0.6548  0.0556  0.0536
 1550SOL    HW3 6231   1.991   2.348   2.530 -0.8022  0.2440  0.0654
 1550SOL    MW4 6232   2.009   2.350   2.616 -0.2707 -0.3557 -0.0249
 1551SOL     OW 6233   1.755   2.434   2.705  0.7447 -0.2202  0.0919
 1551SOL    HW2 6234   1.741   2.400   2.794  0.2717 -0.8865 -0.2354
 1551SOL    HW3 6235   1.833   2.388   2.674  0.3076 -0.7620 -0.2198
 1551SOL    MW4 6236   1.764   2.423   2.713  0.6247 -0.3796  0.0076
 1552SOL     OW 6237   1.797   2.693   2.629  0.8198 -0.6053  0.1743
 1552SOL    HW2 6238   1.780   2.607   2.666  0.9478 -0.5503  0.3589
 1552SOL    HW3 6239   1.787   2.681   2.534 -0.4864 -0.5252  0.2922
 1552SOL    MW4 6240   1.794   2.680   2.621  0.6644 -0.5875  0.2142
 1553SOL     OW 6241   2.004   2.822   2.759 -0.1419  0.0892  0.0016
 1553SOL    HW2 6242   2.086   2.792   2.719  0.0468 -0.0769  0.5105
 1553SOL    HW3 6243   1.936   2.778   2.708  0.0528  0.7993 -0.8938
 1553SOL    MW4 6244   2.006   2.812   2.747 -0.0913  0.1610 -0.0494
 1554SOL     OW 6245   2.029   3.077   2.661 -0.0343 -0.1563  0.4478
 1554SOL    HW2 6246   2.024   2.990   2.700  0.1170 -0.1750  0.4229
 1554SOL    HW3 6247   2.025   3.061   2.566 -1.9694 -0.0228  0.4796
 1554SOL    MW4 6248   2.028   3.064   2.653 -0.2697 -0.1412  0.4487
 1555SOL     OW 6249   1.801   3.216   2.737  0.6637 -0.2942  0.2451
 1555SOL    HW2 6250   1.791   3.301   2.695 -0.9781 -0.5598  0.0479
 1555SOL    HW3 6251   1.871   3.173   2.688  1.1444  0.7368  0.0209
 1555SOL    MW4 6252   1.809   3.221   2.725  0.5105 -0.1932  0.1895
 1556SOL     OW 6253   1.789   3.496   2.640  0.2468  0.1623 -0.5844
 1556SOL    HW2 6254   1.874   3.529   2.669  0.0622  0.2585 -0.1383
 1556SOL    HW3 6255   1.797   3.488   2.545 -0.1313  2.6826 -0.8492
 1556SOL    MW4 6256   1.801   3.499   2.631  0.1725  0.5075 -0.5605
 1557SOL     OW 6257   2.023   3.618   2.730 -0.3943 -0.1240 -0.3217
 1557SOL    HW2 6258   2.015   3.618   2.825  0.9696 -0.5271 -0.2039
 1557SOL    HW3 6259   2.096   3.559   2.712  1.8195  2.8107 -1.3900
 1557SOL    MW4 6260   2.031   3.610   2.740  0.0777  0.2100 -0.4471
 1558SOL     OW 6261   2.029   3.891   2.604  0.0873  0.2871  0.2073
 1558SOL    HW2 6262   1.950   3.927   2.645  0.6890  0.0625  1.5784
 1558SOL    HW3 6263   2.032   3.800   2.634  0.4442  0.0718 -0.4789
 1558SOL    MW4 6264   2.019   3.884   2.614  0.2138  0.2290  0.2977
 1559SOL     OW 6265   1.803   4.010   2.704  0.2938  0.4939 -0.3479
 1559SOL    HW2 6266   1.790   4.102   2.682  0.8565  0.1999 -1.9199
 1559SOL    HW3 6267   1.717   3.970   2.692  0.3275  0.5702 -0.8444
 1559SOL    MW4 6268   1.790   4.017   2.700  0.3725  0.4652 -0.6208
 1560SOL     OW 6269   1.769   4.270   2.647 -0.0938  0.1235 -0.2324
 1560SOL    HW2 6270   1.687   4.311   2.674 -1.0320 -1.2355 -0.9833
 1560SOL    HW3 6271   1.763   4.265   2.552  0.3358 -1.0382 -0.2103
 1560SOL    MW4 6272   1.757   4.275   2.638 -0.1609 -0.2091 -0.3286
 1561SOL     OW 6273   2.001   4.387   2.716 -0.1045 -0.2689  0.0054
 1561SOL    HW2 6274   1.924   4.349   2.674 -0.8018  0.1160  0.9215
 1561SOL    HW3 6275   2.004   4.477   2.684 -0.1681 -0.2191  0.1359
 1561SOL    MW4 6276   1.991   4.393   2.707 -0.2049 -0.2115  0.1435
 1562SOL     OW 6277   2.497   4.617   2.603  0.1294 -0.0915 -0.1127
 1562SOL    HW2 6278   2.564   4.666   2.650  0.6672 -0.5700 -0.3814
 1562SOL    HW3 6279   2.509   4.642   2.511 -0.4415  0.2764 -0.0893
 1562SOL    MW4 6280   2.507   4.627   2.597  0.1251 -0.1061 -0.1450
 1563SOL     OW 6281   2.250   0.105   2.719  0.2577 -0.0315 -0.0679
 1563SOL    HW2 6282   2.319   0.051   2.681 -0.4312 -0.1699 -1.1566
 1563SOL    HW3 6283   2.274   0.113   2.811  0.6051 -1.8469  0.0329
 1563SOL    MW4 6284   2.262   0.099   2.726  0.2126 -0.2893 -0.1983
 1564SOL     OW 6285   2.223   0.362   2.606 -0.5906 -0.2079  0.1783
 1564SOL    HW2 6286   2.240   0.358   2.512 -1.6455 -0.2974 -0.0139
 1564SOL    HW3 6287   2.227   0.271   2.635  0.2643 -0.1307  0.3248
 1564SOL    MW4 6288   2.226   0.350   2.597 -0.6170 -0.2096  0.1722
 1565SOL     OW 6289   2.477   0.458   2.731  0.2787  0.0560  0.6445
 1565SOL    HW2 6290   2.487   0.551   2.710 -0.3704  0.7026  3.0821
 1565SOL    HW3 6291   2.396   0.433   2.686  0.8617  0.4465 -0.6588
 1565SOL    MW4 6292   2.467   0.467   2.722  0.2700  0.1928  0.7942
 1566SOL     OW 6293   2.508   0.694   2.633 -0.0398  0.3815  0.0953
 1566SOL    HW2 6294   2.424   0.734   2.658 -1.2130 -1.0544 -1.4685
 1566SOL    HW3 6295   2.512   0.703   2.538  0.3548 -1.8519 -0.1362
 1566SOL    MW4 6296   2.497   0.700   2.624 -0.1426 -0.1026 -0.1416
 1567SOL     OW 6297   2.255   0.823   2.670  0.2204 -0.1602  0.0620
 1567SOL    HW2 6298   2.258   0.822   2.766 -0.3341  0.5889  0.0917
 1567SOL    HW3 6299   2.168   0.790   2.648 -0.0074  0.5497 -0.1460
 1567SOL    MW4 6300   2.244   0.819   2.680  0.1172  0.0323  0.0385
 1568SOL     OW 6301   2.224   1.095   2.600  0.0935 -0.0163  0.5182
 1568SOL    HW2 6302   2.255   1.009   2.630  1.2688  0.4361  0.6082
 1568SOL    HW3 6303   2.294   1.155   2.625 -0.4246  0.8639 -0.1726
 1568SOL    MW4 6304   2.237   1.091   2.608  0.1802  0.1595  0.4389
 1569SOL     OW 6305   2.436   1.254   2.700  0.4942 -0.1067  0.1810
 1569SOL    HW2 6306   2.415   1.340   2.664  0.5756 -0.1373  0.0591
 1569SOL    HW3 6307   2.513   1.226   2.651  1.3614  0.3958  1.2484
 1569SOL    MW4 6308   2.443   1.261   2.689  0.6194 -0.0444  0.3057
 1570SOL     OW 6309   2.408   1.517   2.575  0.2816 -0.0394 -0.0069
 1570SOL    HW2 6310   2.328   1.545   2.619  0.5341 -1.2595  1.2277
 1570SOL    HW3 6311   2.479   1.561   2.623  0.4591 -0.2209 -0.1000
 1570SOL    MW4 6312   2.407   1.527   2.587  0.3384 -0.2243  0.1437
 1571SOL     OW 6313   2.198   1.630   2.718  0.2478 -0.1079 -0.1595
 1571SOL    HW2 6314   2.193   1.721   2.691  0.7297  0.0102  0.1394
 1571SOL    HW3 6315   2.110   1.595   2.703  0.0508  0.4169 -0.2301
 1571SOL    MW4 6316   2.186   1.637   2.713  0.2854 -0.0231 -0.1294
 1572SOL     OW 6317   2.198   1.906   2.626  0.2289  0.3728  0.1248
 1572SOL    HW2 6318   2.128   1.967   2.649 -1.2949 -0.8886 -1.0062
 1572SOL    HW3 6319   2.194   1.900   2.530  1.7891  0.1649  0.0671
 1572SOL    MW4 6320   2.188   1.913   2.616  0.2337  0.1789 -0.0320
 1573SOL     OW 6321   2.432   2.026   2.710 -0.3864  0.1773 -0.2601
 1573SOL    HW2 6322   2.427   2.118   2.684 -1.4745  0.3877  0.6254
 1573SOL    HW3 6323   2.354   1.986   2.669 -0.5207 -0.1063  0.2698
 1573SOL    MW4 6324   2.421   2.033   2.701 -0.5477  0.1676 -0.0734
 1574SOL     OW 6325   2.444   2.318   2.617  0.0748 -0.0207 -0.5719
 1574SOL    HW2 6326   2.527   2.355   2.648  0.6964 -1.0635 -0.9775
 1574SOL    HW3 6327   2.449   2.328   2.521  0.1608 -0.9701 -0.6670
 1574SOL    MW4 6328   2.456   2.324   2.608  0.1682 -0.2835 -0.6379
 1575SOL     OW 6329   2.229   2.484   2.716 -0.3983 -0.2207 -0.4467
 1575SOL    HW2 6330   2.221   2.460   2.808 -1.4289 -0.8314 -0.6847
 1575SOL    HW3 6331   2.305   2.434   2.684  0.0070  0.0562  0.0816
 1575SOL    MW4 6332   2.238   2.474   2.724 -0.4808 -0.2647 -0.4084
 1576SOL     OW 6333   2.234   2.738   2.625 -0.1804 -0.4670  0.1312
 1576SOL    HW2 6334   2.312   2.783   2.659  0.3542 -0.6628 -0.8136
 1576SOL    HW3 6335   2.234   2.653   2.670  0.5332 -0.7305 -0.3440
 1576SOL    MW4 6336   2.245   2.733   2.635 -0.0158 -0.5276 -0.0562
 1577SOL     OW 6337   2.478   2.843   2.721  0.1663  0.0274 -0.0895
 1577SOL    HW2 6338   2.552   2.800   2.679  1.1377  0.1173  1.4939
 1577SOL    HW3 6339   2.480   2.933   2.689 -0.1363 -0.3486 -1.1728
 1577SOL    MW4 6340   2.488   2.849   2.711  0.2545 -0.0104 -0.0235
 1578SOL     OW 6341   2.512   3.092   2.624  0.4778 -0.0818  0.0487
 1578SOL    HW2 6342   2.432   3.119   2.670 -0.0737 -1.1420 -0.2706
 1578SOL    HW3 6343   2.496   3.113   2.532  0.1220 -1.2840 -0.1753
 1578SOL    MW4 6344   2.500   3.098   2.618  0.3581 -0.3803 -0.0230
 1579SOL     OW 6345   2.250   3.194   2.752 -0.2235 -0.4499 -0.2139
 1579SOL    HW2 6346   2.248   3.208   2.846 -0.6512 -0.1306 -0.2682
 1579SOL    HW3 6347   2.165   3.155   2.731  0.3187 -1.6018 -0.3045
 1579SOL    MW4 6348   2.239   3.191   2.761 -0.2084 -0.5598 -0.2330
 1580SOL     OW 6349   2.229   3.441   2.628  0.4120  0.4590  0.3814
 1580SOL    HW2 6350   2.314   3.484   2.636  0.6952  0.0238 -0.2287
 1580SOL    HW3 6351   2.241   3.358   2.674  0.1448  0.6384  0.7748
 1580SOL    MW4 6352   2.242   3.436   2.635  0.4141  0.4252  0.3528
 1581SOL     OW 6353   2.445   3.576   2.715  0.4573  0.2033 -0.3073
 1581SOL    HW2 6354   2.453   3.570   2.810 -1.3426 -0.8295 -0.1970
 1581SOL    HW3 6355   2.451   3.670   2.696  3.0117  0.2389  0.5920
 1581SOL    MW4 6356   2.447   3.588   2.725  0.5569  0.0717 -0.1741
 1582SOL     OW 6357   2.450   3.853   2.611 -0.1560 -0.2239 -0.3589
 1582SOL    HW2 6358   2.525   3.904   2.640 -0.7673  0.3689  0.2087
 1582SOL    HW3 6359   2.374   3.903   2.641 -0.7723 -1.1196 -0.3896
 1582SOL    MW4 6360   2.450   3.866   2.619 -0.3180 -0.2639 -0.2881
 1583SOL     OW 6361   2.252   3.999   2.730  0.4410 -0.1954 -0.7425
 1583SOL    HW2 6362   2.261   3.988   2.824  0.2509  0.8580 -0.5963
 1583SOL    HW3 6363   2.166   3.961   2.709 -0.6232  1.7896 -0.1015
 1583SOL    MW4 6364   2.242   3.993   2.739  0.2755  0.2055 -0.6387
 1584SOL     OW 6365   2.244   4.247   2.623  0.0553  0.2123 -0.1829
 1584SOL    HW2 6366   2.244   4.162   2.666 -0.4020  0.8215  1.0406
 1584SOL    HW3 6367   2.163   4.288   2.650  0.0587  0.8698 -1.1307
 1584SOL    MW4 6368   2.234   4.241   2.632 -0.0046  0.3794 -0.1465
 1585SOL     OW 6369   2.476   4.380   2.718  0.3291 -0.1740  0.1880
 1585SOL    HW2 6370   2.403   4.329   2.682 -0.1683  0.0600  0.8756
 1585SOL    HW3 6371   2.469   4.465   2.675  1.3176 -0.7484 -1.1636
 1585SOL    MW4 6372   2.465   4.384   2.707  0.3939 -0.2189  0.1004
 1586SOL     OW 6373   2.955   4.639   2.653  0.2041 -0.0221 -0.1580
 1586SOL    HW2 6374   3.037   4.686   2.667 -0.4694  1.0327  0.2791
 1586SOL    HW3 6375   2.957   4.614   2.561  0.4996  1.0045 -0.4349
 1586SOL    MW4 6376   2.966   4.642   2.643  0.1542  0.2525 -0.1368
 1587SOL     OW 6377   2.725   0.103   2.714 -0.2962  0.1384  0.2401
 1587SOL    HW2 6378   2.719   0.095   2.810 -0.2994 -0.1490  0.2172
 1587SOL    HW3 6379   2.801   0.050   2.691 -0.5214 -0.1016  0.0464
 1587SOL    MW4 6380   2.734   0.095   2.724 -0.3263  0.0688  0.2116
 1588SOL     OW 6381   2.702   0.360   2.582 -0.6204  0.5231 -0.2139
 1588SOL    HW2 6382   2.724   0.274   2.616 -0.1852  0.0990 -1.5228
 1588SOL    HW3 6383   2.630   0.391   2.638  0.1446 -0.0871  1.1287
 1588SOL    MW4 6384   2.695   0.353   2.594 -0.4621  0.3866 -0.2095
 1589SOL     OW 6385   2.911   0.511   2.711  0.2685  0.2242  0.1062
 1589SOL    HW2 6386   2.910   0.601   2.676 -0.8217  0.3251  0.3761
 1589SOL    HW3 6387   2.825   0.476   2.687  0.8393 -0.8894 -0.3444
 1589SOL    MW4 6388   2.899   0.519   2.703  0.2000  0.0906  0.0824
 1590SOL     OW 6389   2.921   0.778   2.643 -0.1189  0.2972  0.1467
 1590SOL    HW2 6390   2.986   0.845   2.663  1.2883 -0.7996 -0.7241
 1590SOL    HW3 6391   2.838   0.817   2.670  1.1391  0.8158  3.4517
 1590SOL    MW4 6392   2.918   0.792   2.649  0.2328  0.2209  0.4679
 1591SOL     OW 6393   2.681   0.881   2.716  0.5414  0.2429 -0.8438
 1591SOL    HW2 6394   2.680   0.882   2.812  1.2653 -0.0392 -0.8302
 1591SOL    HW3 6395   2.606   0.827   2.692  0.4703  0.1551 -0.4337
 1591SOL    MW4 6396   2.671   0.874   2.726  0.6276  0.1941 -0.7879
 1592SOL     OW 6397   2.670   1.136   2.613  0.0086 -0.3346  0.4100
 1592SOL    HW2 6398   2.736   1.189   2.658  0.3266  0.1565 -0.6239
 1592SOL    HW3 6399   2.698   1.045   2.629  0.8106 -0.1354  0.1708
 1592SOL    MW4 6400   2.683   1.131   2.621  0.1564 -0.2435  0.2420
 1593SOL     OW 6401   2.879   1.284   2.733  0.1130 -0.0530 -0.4981
 1593SOL    HW2 6402   2.885   1.283   2.828 -0.3102  0.1299 -0.4702
 1593SOL    HW3 6403   2.966   1.255   2.703 -0.1162 -1.2191 -0.0577
 1593SOL    MW4 6404   2.891   1.280   2.742  0.0269 -0.1827 -0.4363
 1594SOL     OW 6405   2.857   1.533   2.608 -0.5688 -0.2449 -0.3596
 1594SOL    HW2 6406   2.778   1.575   2.642  0.9302  1.6446  0.8728
 1594SOL    HW3 6407   2.863   1.451   2.658 -1.4820 -0.1626 -0.1045
 1594SOL    MW4 6408   2.848   1.528   2.619 -0.4915  0.0153 -0.1633
 1595SOL     OW 6409   2.608   1.648   2.716  0.3203  0.1936 -0.1199
 1595SOL    HW2 6410   2.634   1.655   2.808 -1.3459  0.7527  0.3213
 1595SOL    HW3 6411   2.621   1.736   2.681 -1.4956  0.6343  0.2616
 1595SOL    MW4 6412   2.613   1.660   2.724 -0.1391  0.3255 -0.0113
 1596SOL     OW 6413   2.646   1.901   2.597  0.0501  0.0470  0.3388
 1596SOL    HW2 6414   2.721   1.940   2.643 -0.6768  1.5229  0.2917
 1596SOL    HW3 6415   2.569   1.937   2.640 -0.6448 -0.5907 -0.3478
 1596SOL    MW4 6416   2.646   1.911   2.609 -0.1375  0.1576  0.2420
 1597SOL     OW 6417   2.880   2.025   2.761  0.3952 -0.4805 -0.1326
 1597SOL    HW2 6418   2.948   1.981   2.711  0.3970 -0.8272  0.1709
 1597SOL    HW3 6419   2.891   2.118   2.741  1.0100 -0.5266 -0.0161
 1597SOL    MW4 6420   2.890   2.031   2.752  0.4766 -0.5323 -0.0772
 1598SOL     OW 6421   2.913   2.296   2.657  0.1345  0.1234 -0.3362
 1598SOL    HW2 6422   2.989   2.350   2.679 -0.0838  0.6758 -0.9143
 1598SOL    HW3 6423   2.838   2.348   2.685 -0.0335 -0.4323  0.2528
 1598SOL    MW4 6424   2.913   2.310   2.663  0.0835  0.1229 -0.3348
 1599SOL     OW 6425   2.701   2.425   2.744 -0.1128 -0.2333  0.6588
 1599SOL    HW2 6426   2.709   2.435   2.839 -1.6469  0.9678  0.6770
 1599SOL    HW3 6427   2.716   2.513   2.710  0.5274 -0.6814 -0.2214
 1599SOL    MW4 6428   2.704   2.438   2.752 -0.2308 -0.1339  0.5450
 1600SOL     OW 6429   2.721   2.709   2.654  0.3600 -0.1342  0.0466
 1600SOL    HW2 6430   2.801   2.761   2.666  0.5405 -0.5527  0.6907
 1600SOL    HW3 6431   2.718   2.692   2.560 -0.2489  1.8975 -0.3262
 1600SOL    MW4 6432   2.731   2.714   2.643  0.3035  0.0787  0.0824
 1601SOL     OW 6433   2.928   2.870   2.723  0.2610 -0.3103  0.1627
 1601SOL    HW2 6434   3.001   2.825   2.679  0.8799  0.2473  0.5993
 1601SOL    HW3 6435   2.931   2.838   2.813  1.4599  1.4866  0.7821
 1601SOL    MW4 6436   2.938   2.860   2.729  0.5008  0.0003  0.3020
 1602SOL     OW 6437   2.929   3.133   2.629 -0.1851 -0.2466  0.1864
 1602SOL    HW2 6438   2.854   3.173   2.673  1.6499  0.4015  2.8726
 1602SOL    HW3 6439   2.935   3.045   2.666  0.4257 -0.2778  0.0188
 1602SOL    MW4 6440   2.920   3.127   2.639  0.1376 -0.1652  0.5187
 1603SOL     OW 6441   2.706   3.236   2.757  0.1061  0.1797  0.0224
 1603SOL    HW2 6442   2.684   3.322   2.721 -1.6573  0.3275  1.4223
 1603SOL    HW3 6443   2.646   3.176   2.715 -1.8436  0.3247  2.4564
 1603SOL    MW4 6444   2.695   3.240   2.747 -0.3838  0.2183  0.5282
 1604SOL     OW 6445   2.685   3.481   2.634 -0.6762  0.2594 -0.2240
 1604SOL    HW2 6446   2.599   3.508   2.667 -1.7419 -1.3126 -1.6999
 1604SOL    HW3 6447   2.681   3.497   2.540 -0.2613 -2.1940 -0.6756
 1604SOL    MW4 6448   2.673   3.487   2.626 -0.7621 -0.2717 -0.4783
 1605SOL     OW 6449   2.918   3.638   2.729 -0.0375 -0.3396  0.5981
 1605SOL    HW2 6450   2.933   3.609   2.819 -0.7961  0.0444  0.8488
 1605SOL    HW3 6451   2.842   3.588   2.700 -1.5042  1.5447  1.1107
 1605SOL    MW4 6452   2.910   3.627   2.737 -0.3311 -0.0403  0.6988
 1606SOL     OW 6453   2.891   3.887   2.605  0.0458 -0.0410  0.1151
 1606SOL    HW2 6454   2.964   3.942   2.634  0.7093  0.1886 -1.9335
 1606SOL    HW3 6455   2.909   3.802   2.645  1.0149  0.2309  0.2808
 1606SOL    MW4 6456   2.903   3.883   2.614  0.2612  0.0251 -0.1333
 1607SOL     OW 6457   2.674   4.007   2.742  0.1052  0.0407  0.4448
 1607SOL    HW2 6458   2.665   4.090   2.695 -0.3811  0.4076  1.1773
 1607SOL    HW3 6459   2.749   3.964   2.701 -0.0507  0.5458 -0.3833
 1607SOL    MW4 6460   2.682   4.012   2.731  0.0205  0.1558  0.4322
 1608SOL     OW 6461   2.698   4.257   2.640 -0.0051  0.1874  0.0983
 1608SOL    HW2 6462   2.776   4.298   2.678  0.0513 -0.3157  0.5371
 1608SOL    HW3 6463   2.625   4.308   2.673  0.1083  0.3695  0.0695
 1608SOL    MW4 6464   2.699   4.269   2.649  0.0173  0.1450  0.1524
 1609SOL     OW 6465   2.910   4.400   2.773 -0.0370  0.3576 -0.0257
 1609SOL    HW2 6466   2.908   4.417   2.867  0.9389  1.1457 -0.1291
 1609SOL    HW3 6467   2.905   4.487   2.733  1.3986  0.1801 -0.6577
 1609SOL    MW4 6468   2.909   4.414   2.780  0.2812  0.4381 -0.1227
 1610SOL     OW 6469   3.412   4.648   2.597 -0.2456 -0.3527  0.0488
 1610SOL    HW2 6470   3.400   4.560   2.633 -0.1951 -0.8391 -1.1019
 1610SOL    HW3 6471   3.349   4.702   2.645 -1.0436 -1.2373  0.0181
 1610SOL    MW4 6472   3.402   4.643   2.608 -0.3442 -0.5336 -0.1071
 1611SOL     OW 6473   3.194   0.107   2.737  0.3224  0.6003  0.0892
 1611SOL    HW2 6474   3.195   0.106   2.832 -0.5370 -0.5600  0.0952
 1611SOL    HW3 6475   3.195   0.200   2.714 -0.0547  0.8940  1.2442
 1611SOL    MW4 6476   3.194   0.119   2.746  0.1593  0.4860  0.2424
 1612SOL     OW 6477   3.151   0.384   2.647 -0.4202  0.5144  0.0179
 1612SOL    HW2 6478   3.070   0.427   2.672 -1.0357 -0.3889 -0.3790
 1612SOL    HW3 6479   3.142   0.368   2.553  0.4975  1.0000 -0.1555
 1612SOL    MW4 6480   3.139   0.387   2.638 -0.3804  0.4593 -0.0574
 1613SOL     OW 6481   3.350   0.518   2.761  0.4471 -0.5202 -0.1145
 1613SOL    HW2 6482   3.352   0.600   2.713  0.3313 -0.7198 -0.4612
 1613SOL    HW3 6483   3.275   0.471   2.725  0.2457 -0.5929  0.3856
 1613SOL    MW4 6484   3.340   0.523   2.750  0.4052 -0.5561 -0.0943
 1614SOL     OW 6485   3.383   0.773   2.633  0.2128  0.1595  0.1575
 1614SOL    HW2 6486   3.466   0.821   2.628 -0.0915  0.6246 -0.4062
 1614SOL    HW3 6487   3.350   0.773   2.543 -0.4034 -0.0261  0.3835
 1614SOL    MW4 6488   3.390   0.779   2.620  0.0913  0.1963  0.1129
 1615SOL     OW 6489   3.148   0.935   2.720  0.2028 -0.0641 -0.0886
 1615SOL    HW2 6490   3.136   0.922   2.814 -1.1036 -0.3322 -0.2744
 1615SOL    HW3 6491   3.216   0.872   2.695 -0.6794 -1.2262  0.3797
 1615SOL    MW4 6492   3.155   0.925   2.729 -0.0859 -0.2528 -0.0513
 1616SOL     OW 6493   3.125   1.193   2.628  0.2443  0.5662  0.0966
 1616SOL    HW2 6494   3.140   1.105   2.663 -0.2694  1.2374  2.0555
 1616SOL    HW3 6495   3.097   1.179   2.538  3.2065 -1.1380 -0.6107
 1616SOL    MW4 6496   3.123   1.180   2.621  0.5673  0.4299  0.2617
 1617SOL     OW 6497   3.367   1.293   2.732  0.2535  0.3466  0.0322
 1617SOL    HW2 6498   3.355   1.274   2.825 -0.8535 -0.2044 -0.2100
 1617SOL    HW3 6499   3.287   1.260   2.691  0.5794  0.9104 -1.0675
 1617SOL    MW4 6500   3.355   1.286   2.739  0.1504  0.3483 -0.1448
 1618SOL     OW 6501   3.345   1.564   2.634  0.5878  0.7366 -0.4662
 1618SOL    HW2 6502   3.261   1.592   2.669  1.6333  2.7917  0.4910
 1618SOL    HW3 6503   3.359   1.477   2.671 -0.0050  1.3827  1.3425
 1618SOL    MW4 6504   3.336   1.556   2.643  0.6475  1.0930 -0.1013
 1619SOL     OW 6505   3.114   1.667   2.746  0.0487 -0.2495 -0.0265
 1619SOL    HW2 6506   3.033   1.625   2.718 -0.6728  0.2168  1.2981
 1619SOL    HW3 6507   3.119   1.649   2.840  0.9379  0.6130  0.0982
 1619SOL    MW4 6508   3.104   1.659   2.754  0.0708 -0.0742  0.1647
 1620SOL     OW 6509   3.122   1.923   2.656  0.2670  0.0105  0.1772
 1620SOL    HW2 6510   3.207   1.960   2.678  0.3542  0.7319 -1.2798
 1620SOL    HW3 6511   3.123   1.835   2.694  1.0747  0.5559  1.4338
 1620SOL    MW4 6512   3.133   1.916   2.664  0.3851  0.1777  0.1508
 1621SOL     OW 6513   3.345   2.044   2.733  0.3717 -0.2687  0.5605
 1621SOL    HW2 6514   3.326   2.059   2.826 -0.5258  1.8611  0.0419
 1621SOL    HW3 6515   3.336   2.130   2.692  1.5472 -1.0388 -1.3795
 1621SOL    MW4 6516   3.341   2.057   2.740  0.4084 -0.0893  0.2361
 1622SOL     OW 6517   3.373   2.304   2.619 -0.3354  0.2566  0.3135
 1622SOL    HW2 6518   3.457   2.338   2.647  0.2303 -1.2436  0.5061
 1622SOL    HW3 6519   3.367   2.326   2.526  1.6210 -2.1806 -0.4635
 1622SOL    MW4 6520   3.383   2.311   2.610 -0.0026 -0.2629  0.2364
 1623SOL     OW 6521   3.157   2.467   2.712 -0.1015  0.3284 -0.0028
 1623SOL    HW2 6522   3.230   2.414   2.680 -1.1444 -0.0864 -1.7569
 1623SOL    HW3 6523   3.148   2.443   2.804 -0.2680 -2.2000 -0.6594
 1623SOL    MW4 6524   3.166   2.457   2.720 -0.2611 -0.0599 -0.3209
 1624SOL     OW 6525   3.126   2.718   2.607 -0.0887 -0.1978  0.4195
 1624SOL    HW2 6526   3.207   2.764   2.629 -0.1247 -0.0712  0.2916
 1624SOL    HW3 6527   3.137   2.631   2.645  0.1640 -0.2240  0.2919
 1624SOL    MW4 6528   3.138   2.713   2.615 -0.0601 -0.1846  0.3858
 1625SOL     OW 6529   3.360   2.824   2.706 -0.1370 -0.3067  0.1269
 1625SOL    HW2 6530   3.359   2.803   2.799 -0.0442 -0.2069  0.1504
 1625SOL    HW3 6531   3.444   2.789   2.674  0.7883  1.4938  0.5041
 1625SOL    MW4 6532   3.371   2.817   2.714 -0.0027 -0.0560  0.1798
 1626SOL     OW 6533   3.333   3.093   2.669  0.2694  0.0217 -0.0329
 1626SOL    HW2 6534   3.349   3.001   2.690  1.1831 -0.1036 -1.2264
 1626SOL    HW3 6535   3.330   3.096   2.574 -0.8582  1.0602  0.0164
 1626SOL    MW4 6536   3.334   3.082   2.660  0.2412  0.1422 -0.1839
 1627SOL     OW 6537   3.126   3.262   2.767 -0.3684 -0.0904  0.4200
 1627SOL    HW2 6538   3.203   3.210   2.741 -0.4273  0.6865 -1.3575
 1627SOL    HW3 6539   3.054   3.224   2.717 -0.4809  1.4170 -0.6069
 1627SOL    MW4 6540   3.127   3.250   2.757 -0.3910  0.2110  0.0500
 1628SOL     OW 6541   3.135   3.488   2.624 -0.1642 -0.1494 -0.1645
 1628SOL    HW2 6542   3.135   3.409   2.677  1.1082 -0.5458 -0.7514
 1628SOL    HW3 6543   3.072   3.546   2.667  0.7907 -0.4866  1.7199
 1628SOL    MW4 6544   3.126   3.485   2.637  0.1297 -0.2462  0.0067
 1629SOL     OW 6545   3.368   3.613   2.731  0.2204  0.2017  0.0904
 1629SOL    HW2 6546   3.363   3.610   2.827  1.3624  0.2515  0.1593
 1629SOL    HW3 6547   3.301   3.550   2.702  1.8473 -2.0320  0.9864
 1629SOL    MW4 6548   3.358   3.604   2.740  0.5858 -0.0864  0.2177
 1630SOL     OW 6549   3.329   3.895   2.635  0.3046 -0.0045  0.0656
 1630SOL    HW2 6550   3.344   3.802   2.653 -0.5386 -0.2613 -0.5078
 1630SOL    HW3 6551   3.353   3.906   2.543 -0.0798  0.2315 -0.0079
 1630SOL    MW4 6552   3.334   3.884   2.625  0.1426 -0.0072 -0.0198
 1631SOL     OW 6553   3.105   4.039   2.727  0.2674 -0.5594  0.1448
 1631SOL    HW2 6554   3.117   4.131   2.704  0.1714 -0.3244  1.0502
 1631SOL    HW3 6555   3.183   3.996   2.693  0.4981 -0.0874  0.0727
 1631SOL    MW4 6556   3.117   4.046   2.719  0.2852 -0.4661  0.2548
 1632SOL     OW 6557   3.150   4.295   2.644 -0.1576  0.1560 -0.2072
 1632SOL    HW2 6558   3.070   4.339   2.672 -1.3751 -1.6896 -0.7234
 1632SOL    HW3 6559   3.146   4.297   2.548  0.2927 -0.1621 -0.2318
 1632SOL    MW4 6560   3.139   4.301   2.635 -0.2588 -0.1294 -0.2785
 1633SOL     OW 6561   3.402   4.391   2.727 -0.8186 -0.4818  0.3633
 1633SOL    HW2 6562   3.387   4.396   2.821 -1.7690 -1.1825  0.2603
 1633SOL    HW3 6563   3.329   4.339   2.694  1.3882 -3.3180 -0.2810
 1633SOL    MW4 6564   3.391   4.385   2.735 -0.6528 -0.9484  0.2647
 1634SOL     OW 6565   3.846   0.004   2.647 -0.0927  0.2119 -0.1945
 1634SOL    HW2 6566   3.832  -0.088   2.671 -1.7910  0.8475  1.4048
 1634SOL    HW3 6567   3.769   0.050   2.683  2.6021  2.8263  2.5117
 1634SOL    MW4 6568   3.834  -0.002   2.655  0.0388  0.6407  0.3735
 1635SOL     OW 6569   3.614   0.105   2.724  0.1716 -0.0620 -0.0389
 1635SOL    HW2 6570   3.600   0.198   2.706 -1.4416 -0.1945  0.5101
 1635SOL    HW3 6571   3.546   0.060   2.675  1.0619 -0.9760 -0.4509
 1635SOL    MW4 6572   3.603   0.112   2.715  0.0763 -0.2001 -0.0208
 1636SOL     OW 6573   3.565   0.364   2.652 -0.3873  0.1815 -0.1071
 1636SOL    HW2 6574   3.636   0.420   2.684  0.3776 -1.8771  1.9840
 1636SOL    HW3 6575   3.485   0.406   2.682  0.1024  0.9869  0.0798
 1636SOL    MW4 6576   3.564   0.377   2.660 -0.2217  0.0162  0.1934
 1637SOL     OW 6577   3.789   0.504   2.746  0.3679  0.2549 -0.7462
 1637SOL    HW2 6578   3.802   0.508   2.840  0.7876 -0.5843 -0.7695
 1637SOL    HW3 6579   3.862   0.452   2.713 -1.3101 -1.8792 -1.2120
 1637SOL    MW4 6580   3.800   0.498   2.754  0.2019 -0.1374 -0.8107
 1638SOL     OW 6581   3.814   0.773   2.650 -0.5301 -0.2341  0.2365
 1638SOL    HW2 6582   3.731   0.806   2.682 -0.3046 -0.9656  1.5973
 1638SOL    HW3 6583   3.821   0.684   2.686  0.4584 -0.4845 -0.5267
 1638SOL    MW4 6584   3.804   0.765   2.659 -0.3699 -0.3637  0.3153
 1639SOL     OW 6585   3.600   0.903   2.752 -0.1794 -0.0353 -0.4645
 1639SOL    HW2 6586   3.611   0.879   2.844  0.9532 -0.7318 -0.7667
 1639SOL    HW3 6587   3.593   0.998   2.752 -0.9832 -0.1018  0.4196
 1639SOL    MW4 6588   3.601   0.913   2.764 -0.1360 -0.1359 -0.3877
 1640SOL     OW 6589   3.605   1.187   2.653  0.0605 -0.3861 -0.0025
 1640SOL    HW2 6590   3.673   1.249   2.680 -0.4437  0.1283  0.1075
 1640SOL    HW3 6591   3.523   1.231   2.677 -0.2602 -1.7649  1.5126
 1640SOL    MW4 6592   3.603   1.201   2.660 -0.0483 -0.5002  0.2119
 1641SOL     OW 6593   3.831   1.331   2.756  1.0503 -0.2163  0.7972
 1641SOL    HW2 6594   3.894   1.281   2.703  1.8032  0.8563  0.6581
 1641SOL    HW3 6595   3.837   1.420   2.721  0.4177  0.1709  1.6727
 1641SOL    MW4 6596   3.840   1.336   2.744  1.0662 -0.0237  0.8943
 1642SOL     OW 6597   3.809   1.562   2.615 -0.1175 -0.3860  0.2838
 1642SOL    HW2 6598   3.889   1.605   2.647  0.2153 -1.4239  0.8610
 1642SOL    HW3 6599   3.738   1.616   2.649  0.3455  1.4655 -1.5432
 1642SOL    MW4 6600   3.810   1.575   2.623 -0.0125 -0.2786  0.1189
 1643SOL     OW 6601   3.584   1.694   2.741 -0.5030  0.2351 -0.0548
 1643SOL    HW2 6602   3.574   1.788   2.726 -1.1286  0.3489  1.0316
 1643SOL    HW3 6603   3.506   1.655   2.703 -0.5421  0.2163  0.0443
 1643SOL    MW4 6604   3.573   1.701   2.734 -0.5907  0.2476  0.1016
 1644SOL     OW 6605   3.607   1.969   2.665 -0.0863 -0.0325 -0.1089
 1644SOL    HW2 6606   3.521   1.989   2.702 -0.9057 -0.5660 -1.6969
 1644SOL    HW3 6607   3.590   1.947   2.574  1.6089 -1.1607 -0.1872
 1644SOL    MW4 6608   3.594   1.968   2.658  0.0293 -0.2517 -0.3288
 1645SOL     OW 6609   3.843   2.075   2.751  0.0348 -0.3164  0.3332
 1645SOL    HW2 6610   3.913   2.033   2.701 -0.9666 -0.7832 -0.6818
 1645SOL    HW3 6611   3.763   2.033   2.720 -0.8885  1.6568  0.0102
 1645SOL    MW4 6612   3.842   2.064   2.741 -0.2191 -0.1177  0.1567
 1646SOL     OW 6613   3.833   2.316   2.610  0.1092 -0.2630  0.3006
 1646SOL    HW2 6614   3.828   2.224   2.637  2.1036 -0.6685 -0.6633
 1646SOL    HW3 6615   3.824   2.313   2.515  0.5951  0.5203  0.2336
 1646SOL    MW4 6616   3.831   2.304   2.601  0.4365 -0.2132  0.1646
 1647SOL     OW 6617   3.595   2.442   2.717 -0.0368  0.1392 -0.0715
 1647SOL    HW2 6618   3.603   2.446   2.812 -0.7410 -0.2401  0.0089
 1647SOL    HW3 6619   3.680   2.410   2.687  0.3309  0.6715  0.3972
 1647SOL    MW4 6620   3.607   2.438   2.725 -0.0812  0.1594  0.0010
 1648SOL     OW 6621   3.602   2.731   2.640 -0.3684  0.3024  0.5463
 1648SOL    HW2 6622   3.582   2.642   2.669  2.8893 -0.4826  0.6028
 1648SOL    HW3 6623   3.597   2.727   2.545  0.5171 -0.1682  0.5105
 1648SOL    MW4 6624   3.599   2.719   2.632  0.1782  0.1367  0.5490
 1649SOL     OW 6625   3.852   2.830   2.781  0.4351  0.0849 -0.2829
 1649SOL    HW2 6626   3.930   2.787   2.745  0.0427 -0.8531 -0.0485
 1649SOL    HW3 6627   3.779   2.785   2.738  0.0266  1.0498 -0.6024
 1649SOL    MW4 6628   3.852   2.818   2.770  0.3294  0.0884 -0.2941
 1650SOL     OW 6629   3.820   3.084   2.647  0.2544 -0.1167 -0.0519
 1650SOL    HW2 6630   3.739   3.122   2.681  0.2304 -0.0922 -0.1353
 1650SOL    HW3 6631   3.838   3.010   2.705  0.5169  0.2643  0.3523
 1650SOL    MW4 6632   3.811   3.080   2.659  0.2859 -0.0632 -0.0096
 1651SOL     OW 6633   3.580   3.193   2.730 -0.3025 -0.0218  0.1076
 1651SOL    HW2 6634   3.577   3.283   2.697  0.1296  0.4774  1.3910
 1651SOL    HW3 6635   3.495   3.156   2.707 -0.3435  0.5976 -0.7564
 1651SOL    MW4 6636   3.568   3.200   2.723 -0.2509  0.1258  0.1629
 1652SOL     OW 6637   3.598   3.454   2.635 -0.0746  0.0712 -0.2983
 1652SOL    HW2 6638   3.673   3.506   2.664  0.1145  0.0943 -0.8193
 1652SOL    HW3 6639   3.522   3.504   2.663  0.1039  0.1156  0.1139
 1652SOL    MW4 6640   3.598   3.468   2.642 -0.0261  0.0801 -0.3126
 1653SOL     OW 6641   3.796   3.610   2.736  0.1107  0.1577  0.1385
 1653SOL    HW2 6642   3.877   3.575   2.697  0.2458  0.4256  0.1791
 1653SOL    HW3 6643   3.793   3.701   2.708  0.0427  0.2632  0.4927
 1653SOL    MW4 6644   3.807   3.617   2.727  0.1196  0.2070  0.1906
 1654SOL     OW 6645   3.797   3.878   2.632 -0.1993 -0.0032  0.2460
 1654SOL    HW2 6646   3.864   3.942   2.658  0.9118 -0.6915 -0.9197
 1654SOL    HW3 6647   3.716   3.912   2.671  0.6998  1.1763  1.1277
 1654SOL    MW4 6648   3.795   3.891   2.641  0.0659  0.0616  0.2086
 1655SOL     OW 6649   3.562   3.982   2.744  0.2866 -0.0791  0.0309
 1655SOL    HW2 6650   3.586   4.069   2.712  0.4860  0.2571  1.0850
 1655SOL    HW3 6651   3.477   3.963   2.703 -0.6513  1.4003  1.2829
 1655SOL    MW4 6652   3.554   3.991   2.734  0.1892  0.1604  0.3352
 1656SOL     OW 6653   3.606   4.246   2.639  0.0066  0.0081 -0.1097
 1656SOL    HW2 6654   3.541   4.308   2.670  0.3906 -0.1925  1.1292
 1656SOL    HW3 6655   3.604   4.254   2.544  0.7133  2.5956  0.0464
 1656SOL    MW4 6656   3.597   4.255   2.630  0.1505  0.3230  0.0743
 1657SOL     OW 6657   3.830   4.405   2.714 -0.4304 -0.0655 -0.0705
 1657SOL    HW2 6658   3.912   4.379   2.672 -0.6797 -0.0848 -0.5474
 1657SOL    HW3 6659   3.765   4.344   2.680 -0.4207 -0.8201  1.2264
 1657SOL    MW4 6660   3.832   4.393   2.704 -0.4620 -0.1676  0.0377
 1658SOL     OW 6661   4.273   0.003   2.614  0.3676 -0.0630  0.0685
 1658SOL    HW2 6662   4.194   0.042   2.650  0.7538  0.2728  0.5667
 1658SOL    HW3 6663   4.345   0.048   2.659  0.8330 -0.6251 -0.0983
 1658SOL    MW4 6664   4.272   0.014   2.625  0.4800 -0.0929  0.1122
 1659SOL     OW 6665   4.081   0.143   2.749  0.5864 -0.4392 -0.3293
 1659SOL    HW2 6666   4.082   0.133   2.844  0.9715 -0.4128 -0.3309
 1659SOL    HW3 6667   3.999   0.102   2.721 -0.0445  0.5015  0.1157
 1659SOL    MW4 6668   4.071   0.136   2.758  0.5540 -0.3116 -0.2708
 1660SOL     OW 6669   4.014   0.377   2.627 -0.4703 -0.0320  0.1091
 1660SOL    HW2 6670   4.029   0.297   2.677  1.9044  0.9025  0.9448
 1660SOL    HW3 6671   4.025   0.350   2.536  0.9373 -0.5328  0.4162
 1660SOL    MW4 6672   4.018   0.363   2.621  0.0287  0.0252  0.2599
 1661SOL     OW 6673   4.232   0.512   2.736  0.1726  0.6062  0.4285
 1661SOL    HW2 6674   4.160   0.466   2.693  0.9936  0.9371 -1.3335
 1661SOL    HW3 6675   4.307   0.453   2.729  1.1864  2.0901 -1.7009
 1661SOL    MW4 6676   4.232   0.498   2.729  0.4147  0.8457 -0.0849
 1662SOL     OW 6677   4.232   0.790   2.658  0.1831 -0.4615 -0.5013
 1662SOL    HW2 6678   4.221   0.696   2.673  0.2648 -0.4190 -0.1814
 1662SOL    HW3 6679   4.229   0.799   2.562 -0.9618 -0.6560 -0.4997
 1662SOL    MW4 6680   4.230   0.779   2.647  0.0428 -0.4816 -0.4589
 1663SOL     OW 6681   4.032   0.951   2.755 -0.0646  0.3005 -0.2659
 1663SOL    HW2 6682   4.113   0.902   2.740  0.1503  0.9480 -1.3489
 1663SOL    HW3 6683   3.965   0.901   2.709 -0.0610  0.3796 -0.3579
 1663SOL    MW4 6684   4.034   0.938   2.747 -0.0358  0.3964 -0.4210
 1664SOL     OW 6685   4.043   1.200   2.631  0.3673 -0.3561  0.1832
 1664SOL    HW2 6686   4.094   1.258   2.687 -1.0659  0.5574  0.5835
 1664SOL    HW3 6687   4.042   1.117   2.677  1.7178 -0.4743  0.0287
 1664SOL    MW4 6688   4.050   1.197   2.644  0.3564 -0.2512  0.2157
 1665SOL     OW 6689   4.261   1.316   2.754  0.1000 -0.0145 -0.3930
 1665SOL    HW2 6690   4.254   1.408   2.728  1.2843  0.5413  1.1712
 1665SOL    HW3 6691   4.335   1.283   2.704  0.9551  0.4400  0.5646
 1665SOL    MW4 6692   4.270   1.324   2.744  0.3691  0.1188 -0.0603
 1666SOL     OW 6693   4.235   1.573   2.643  0.0440 -0.1062  0.6366
 1666SOL    HW2 6694   4.320   1.594   2.681  0.0459  0.3534  0.3841
 1666SOL    HW3 6695   4.254   1.556   2.551 -0.3676  1.7084  0.1856
 1666SOL    MW4 6696   4.249   1.574   2.636 -0.0101  0.1939  0.5438
 1667SOL     OW 6697   4.028   1.696   2.724  0.5143  0.3891 -0.0317
 1667SOL    HW2 6698   4.029   1.679   2.818 -0.4777 -0.0572 -0.1006
 1667SOL    HW3 6699   4.108   1.656   2.692  0.6332  0.1523  0.5534
 1667SOL    MW4 6700   4.039   1.689   2.732  0.3991  0.2989  0.0364
 1668SOL     OW 6701   4.075   1.946   2.622 -0.1367 -0.5586 -0.1433
 1668SOL    HW2 6702   4.151   1.977   2.670  0.1116  0.5038 -1.2037
 1668SOL    HW3 6703   4.060   1.857   2.655  1.6817 -0.8419 -0.0701
 1668SOL    MW4 6704   4.083   1.938   2.633  0.1360 -0.4558 -0.2736
 1669SOL     OW 6705   4.301   1.996   2.766  0.4029  0.1405 -0.4965
 1669SOL    HW2 6706   4.312   2.091   2.776 -0.2958  0.3570 -1.6884
 1669SOL    HW3 6707   4.375   1.968   2.713 -0.0432  0.2051 -1.1493
 1669SOL    MW4 6708   4.312   2.005   2.761  0.2519  0.1776 -0.7399
 1670SOL     OW 6709   4.273   2.270   2.702  0.1046  0.0864  0.2291
 1670SOL    HW2 6710   4.200   2.331   2.715 -1.7551 -2.1313  0.5346
 1670SOL    HW3 6711   4.277   2.257   2.607  0.5581  0.7400  0.1572
 1670SOL    MW4 6712   4.264   2.276   2.691 -0.0810 -0.1200  0.2599
 1671SOL     OW 6713   4.066   2.452   2.736  0.0505  0.1100  0.0042
 1671SOL    HW2 6714   4.047   2.452   2.830  0.5462 -0.4007  0.1018
 1671SOL    HW3 6715   3.988   2.413   2.697  0.6695 -1.5086  0.3665
 1671SOL    MW4 6716   4.053   2.447   2.743  0.1976 -0.1710  0.0648
 1672SOL     OW 6717   4.060   2.714   2.653  0.0053 -0.0449  0.2909
 1672SOL    HW2 6718   4.149   2.745   2.673 -0.3063  0.5315  0.7834
 1672SOL    HW3 6719   4.060   2.623   2.684  0.0619  0.3193  1.3826
 1672SOL    MW4 6720   4.072   2.706   2.660 -0.0283  0.0792  0.4999
 1673SOL     OW 6721   4.322   2.812   2.733  0.0020  0.1635  0.2713
 1673SOL    HW2 6722   4.300   2.811   2.826  0.0431  0.6000  0.2832
 1673SOL    HW3 6723   4.304   2.901   2.704  0.9739  0.3148  0.1013
 1673SOL    MW4 6724   4.317   2.823   2.742  0.1356  0.2411  0.2505
 1674SOL     OW 6725   4.263   3.087   2.650  0.2730  0.1413 -0.0091
 1674SOL    HW2 6726   4.190   3.132   2.692  0.7772  0.4382  0.5629
 1674SOL    HW3 6727   4.245   3.093   2.556  0.2291  1.3447  0.0690
 1674SOL    MW4 6728   4.251   3.093   2.643  0.3337  0.3392  0.0767
 1675SOL     OW 6729   4.042   3.208   2.734 -0.5248 -0.6196  0.2666
 1675SOL    HW2 6730   4.047   3.294   2.693 -0.5226 -0.1764  1.1844
 1675SOL    HW3 6731   3.969   3.164   2.692  0.9124 -1.0532 -1.8654
 1675SOL    MW4 6732   4.033   3.213   2.723 -0.3349 -0.6184  0.1064
 1676SOL     OW 6733   4.030   3.490   2.653 -0.1578 -0.0405  0.4990
 1676SOL    HW2 6734   4.114   3.532   2.672 -0.3681 -0.3551  2.1626
 1676SOL    HW3 6735   4.018   3.503   2.559  0.5874  2.1280  0.6826
 1676SOL    MW4 6736   4.040   3.497   2.643 -0.0872  0.2041  0.7427
 1677SOL     OW 6737   4.241   3.645   2.743  0.1795 -0.3468 -0.0296
 1677SOL    HW2 6738   4.239   3.629   2.837  0.4288 -2.5800 -0.3868
 1677SOL    HW3 6739   4.307   3.585   2.709  1.4705  1.7534 -1.4162
 1677SOL    MW4 6740   4.250   3.635   2.751  0.3827 -0.3643 -0.2596
 1678SOL     OW 6741   4.258   3.885   2.630 -0.4140  0.6348  0.1258
 1678SOL    HW2 6742   4.275   3.807   2.682 -0.7676 -1.3446 -2.6246
 1678SOL    HW3 6743   4.333   3.942   2.647  0.9559 -1.2355  0.4983
 1678SOL    MW4 6744   4.270   3.882   2.639 -0.2799  0.1269 -0.1880
 1679SOL     OW 6745   4.018   4.026   2.708  0.2548  0.5212  0.1408
 1679SOL    HW2 6746   4.015   4.030   2.804 -0.2224 -1.3287  0.2151
 1679SOL    HW3 6747   4.091   3.966   2.689 -0.5731 -0.2601 -0.6124
 1679SOL    MW4 6748   4.027   4.019   2.718  0.0826  0.1740  0.0512
 1680SOL     OW 6749   4.077   4.295   2.595 -0.1007 -0.3239  0.1130
 1680SOL    HW2 6750   4.056   4.207   2.626  0.8957 -0.3734  0.6630
 1680SOL    HW3 6751   4.081   4.287   2.500 -0.1522 -0.8430  0.1542
 1680SOL    MW4 6752   4.074   4.282   2.587  0.0240 -0.3989  0.1910
 1681SOL     OW 6753   4.266   4.418   2.742 -0.6298  0.0709 -0.2237
 1681SOL    HW2 6754   4.197   4.378   2.690 -1.0010  1.3827 -0.7586
 1681SOL    HW3 6755   4.281   4.503   2.701 -0.6264  0.9485  1.5492
 1681SOL    MW4 6756   4.259   4.424   2.730 -0.6783  0.3597 -0.0604
 1682SOL     OW 6757   0.236   4.634   3.110  0.2849 -0.3247 -0.0381
 1682SOL    HW2 6758   0.221   4.636   3.204  0.4802 -1.0652  0.0104
 1682SOL    HW3 6759   0.159   4.678   3.073 -0.0633 -0.5283  0.4333
 1682SOL    MW4 6760   0.224   4.640   3.117  0.2647 -0.4493  0.0305
 1683SOL     OW 6761   0.011   0.098   3.024 -0.0987  0.3259 -0.0287
 1683SOL    HW2 6762  -0.057   0.046   3.067 -1.5176  0.5236 -1.9807
 1683SOL    HW3 6763   0.001   0.186   3.060 -0.0192  0.0490  0.6670
 1683SOL    MW4 6764   0.001   0.103   3.034 -0.2754  0.3155 -0.1945
 1684SOL     OW 6765   4.454   0.347   3.120 -0.3914  0.2269 -0.1790
 1684SOL    HW2 6766   4.453   0.362   3.215  0.1976 -2.0116  0.2158
 1684SOL    HW3 6767   4.377   0.394   3.087  0.6393  2.8842  1.0804
 1684SOL    MW4 6768   4.444   0.355   3.128 -0.1777  0.2821  0.0392
 1685SOL     OW 6769   0.181   0.497   3.007 -0.2735 -0.1216 -0.1053
 1685SOL    HW2 6770   0.264   0.452   3.019 -0.1504  0.2501  0.4681
 1685SOL    HW3 6771   0.115   0.436   3.042 -0.1924 -0.2157 -0.1181
 1685SOL    MW4 6772   0.183   0.483   3.013 -0.2466 -0.0850 -0.0313
 1686SOL     OW 6773   0.178   0.770   3.085  0.3030  0.2990  0.1036
 1686SOL    HW2 6774   0.174   0.789   3.179  0.5429 -0.8599  0.3484
 1686SOL    HW3 6775   0.142   0.682   3.077  0.4741  0.3163 -0.8749
 1686SOL    MW4 6776   0.173   0.761   3.097  0.3572  0.1484  0.0068
 1687SOL     OW 6777   4.449   0.921   3.028 -0.2580  0.1868  0.6154
 1687SOL    HW2 6778   4.525   0.866   3.042 -0.1304  0.1295 -0.3253
 1687SOL    HW3 6779   4.454   0.948   2.936 -0.7322  1.1354  0.8533
 1687SOL    MW4 6780   4.459   0.918   3.018 -0.3038  0.3044  0.5227
 1688SOL     OW 6781   0.010   1.154   3.147 -0.2942 -0.5413 -0.1629
 1688SOL    HW2 6782  -0.064   1.202   3.108  0.2364 -1.3410 -2.2340
 1688SOL    HW3 6783   0.006   1.067   3.107 -0.0143 -1.5899  2.0045
 1688SOL    MW4 6784  -0.001   1.149   3.137 -0.1873 -0.7852 -0.1502
 1689SOL     OW 6785   0.228   1.322   3.058  0.3256  0.2098 -0.0258
 1689SOL    HW2 6786   0.154   1.276   3.098  0.7934 -0.8098 -0.3194
 1689SOL    HW3 6787   0.218   1.306   2.964  0.3962  0.8558 -0.1454
 1689SOL    MW4 6788   0.217   1.314   3.051  0.3966  0.1605 -0.0803
 1690SOL     OW 6789   0.251   1.594   3.083 -0.3162 -0.3318  0.3430
 1690SOL    HW2 6790   0.159   1.619   3.071 -0.2559 -0.9259 -1.5867
 1690SOL    HW3 6791   0.252   1.499   3.072  0.4475 -0.3830  0.8558
 1690SOL    MW4 6792   0.239   1.585   3.080 -0.2075 -0.4169  0.1560
 1691SOL     OW 6793   4.439   1.657   3.009  0.1317  0.0025  0.2230
 1691SOL    HW2 6794   4.355   1.624   3.041 -0.1794 -0.3537 -0.9149
 1691SOL    HW3 6795   4.453   1.739   3.057  0.5424 -1.3719  2.5189
 1691SOL    MW4 6796   4.430   1.663   3.019  0.1448 -0.2259  0.3758
 1692SOL     OW 6797   4.477   1.877   3.156 -0.1351  0.4541 -0.0983
 1692SOL    HW2 6798   4.398   1.919   3.122 -0.6471 -0.8147 -0.4986
 1692SOL    HW3 6799   4.549   1.920   3.110 -0.7573 -0.4919 -2.0129
 1692SOL    MW4 6800   4.476   1.888   3.146 -0.2847  0.1619 -0.4037
 1693SOL     OW 6801   0.174   2.051   3.016  0.3384  0.1036  0.2961
 1693SOL    HW2 6802   0.195   2.137   3.052  1.0701 -0.0402  0.2199
 1693SOL    HW3 6803   0.187   2.061   2.922  0.2066 -0.0279  0.2640
 1693SOL    MW4 6804   0.179   2.064   3.008  0.4175  0.0672  0.2818
 1694SOL     OW 6805   0.232   2.312   3.137 -0.6266 -0.4749 -0.4069
 1694SOL    HW2 6806   0.229   2.300   3.232 -1.2609  1.4599 -0.1612
 1694SOL    HW3 6807   0.323   2.334   3.118 -0.9585  1.3740  0.0626
 1694SOL    MW4 6808   0.243   2.313   3.147 -0.7541  0.0243 -0.3125
 1695SOL     OW 6809   4.479   2.443   3.018 -0.0924 -0.6646  0.2850
 1695SOL    HW2 6810   4.461   2.532   3.050  0.1353 -1.0923  1.6273
 1695SOL    HW3 6811   4.567   2.423   3.049  0.6983 -0.5476 -1.8649
 1695SOL    MW4 6812   4.488   2.452   3.027  0.0419 -0.7056  0.1785
 1696SOL     OW 6813   4.489   2.708   3.123  0.2002 -0.2071 -0.3080
 1696SOL    HW2 6814   4.489   2.706   3.219  1.2073 -1.2865 -0.3137
 1696SOL    HW3 6815   4.564   2.764   3.101  1.0760 -1.4341 -0.4696
 1696SOL    MW4 6816   4.499   2.715   3.133  0.4486 -0.5114 -0.3300
 1697SOL     OW 6817   0.215   2.825   2.988  0.1649  0.0070  0.1478
 1697SOL    HW2 6818   0.283   2.775   3.035 -1.0681 -1.4178  0.4621
 1697SOL    HW3 6819   0.232   2.807   2.895  0.6347  0.2050  0.1952
 1697SOL    MW4 6820   0.226   2.816   2.982  0.0642 -0.1549  0.1955
 1698SOL     OW 6821   0.232   3.095   3.104 -0.2206  0.0269  0.2541
 1698SOL    HW2 6822   0.152   3.140   3.080 -0.3535 -0.2033  0.2595
 1698SOL    HW3 6823   0.230   3.013   3.054  0.1094  0.1122  0.0982
 1698SOL    MW4 6824   0.221   3.090   3.094 -0.1946  0.0078  0.2342
 1699SOL     OW 6825   4.486   3.236   3.019 -0.2982  0.4157 -0.3480
 1699SOL    HW2 6826   4.395   3.209   3.035  0.0964 -0.7382 -0.0265
 1699SOL    HW3 6827   4.499   3.224   2.925 -0.6611  1.1566 -0.4956
 1699SOL    MW4 6828   4.476   3.231   3.009 -0.2940  0.3612 -0.3251
 1700SOL     OW 6829   4.477   3.484   3.165  0.0953 -0.5146 -0.1114
 1700SOL    HW2 6830   4.409   3.540   3.129 -0.1802  0.5010  1.9128
 1700SOL    HW3 6831   4.484   3.411   3.103 -0.8242  0.8071 -1.8144
 1700SOL    MW4 6832   4.469   3.482   3.152 -0.0623 -0.2062 -0.0690
 1701SOL     OW 6833   0.205   3.622   3.056  0.3521 -0.3409  0.2044
 1701SOL    HW2 6834   0.197   3.715   3.077  0.3746  0.0666 -1.4916
 1701SOL    HW3 6835   0.132   3.581   3.101  0.5279  0.4585  1.2265
 1701SOL    MW4 6836   0.195   3.629   3.064  0.3782 -0.1817  0.1155
 1702SOL     OW 6837   0.206   3.879   3.112 -0.1936 -0.3027  0.3027
 1702SOL    HW2 6838   0.208   3.894   3.207 -0.9644 -1.0558  0.4425
 1702SOL    HW3 6839   0.296   3.897   3.083  0.8917 -3.1834  1.6658
 1702SOL    MW4 6840   0.218   3.884   3.121 -0.1521 -0.7821  0.5010
 1703SOL     OW 6841   4.461   3.995   3.011  0.1430  0.5000  0.3701
 1703SOL    HW2 6842   4.544   3.954   3.033  0.5186  0.7746 -0.5015
 1703SOL    HW3 6843   4.461   4.000   2.915 -1.4536 -0.6951  0.2878
 1703SOL    MW4 6844   4.472   3.990   3.001 -0.0181  0.3786  0.2442
 1704SOL     OW 6845   4.466   4.245   3.107 -0.4632 -0.3091 -0.1502
 1704SOL    HW2 6846   4.466   4.251   3.203  3.5152  0.3610 -0.1302
 1704SOL    HW3 6847   4.444   4.154   3.089  0.7272 -0.9459  1.4908
 1704SOL    MW4 6848   4.463   4.234   3.118  0.2188 -0.3047  0.0690
 1705SOL     OW 6849   0.245   4.341   3.017 -0.3963 -0.3646 -0.1117
 1705SOL    HW2 6850   0.153   4.315   3.029 -1.3442  1.1464 -3.5143
 1705SOL    HW3 6851   0.246   4.435   3.031  0.1039  0.0315 -2.5728
 1705SOL    MW4 6852   0.233   4.350   3.020 -0.4554 -0.1130 -0.8853
 1706SOL     OW 6853   0.680   0.003   3.081  0.2696 -0.1185 -0.0304
 1706SOL    HW2 6854   0.687  -0.091   3.066 -1.9754 -0.4351  0.7108
 1706SOL    HW3 6855   0.597   0.028   3.040  0.3634  1.3425  0.6371
 1706SOL    MW4 6856   0.670  -0.006   3.074 -0.0143  0.0325  0.1554
 1707SOL     OW 6857   0.436   0.086   2.972 -0.5272  0.1993  0.0094
 1707SOL    HW2 6858   0.421   0.177   2.999 -1.1884  0.4302 -1.1187
 1707SOL    HW3 6859   0.361   0.038   3.008 -0.8502  0.3259 -0.4866
 1707SOL    MW4 6860   0.424   0.092   2.980 -0.6570  0.2465 -0.2049
 1708SOL     OW 6861   0.400   0.347   3.040 -0.0790 -0.0018  0.3497
 1708SOL    HW2 6862   0.393   0.372   3.132 -1.0501 -0.2987  0.3652
 1708SOL    HW3 6863   0.481   0.388   3.010 -1.0182  2.1593  0.6699
 1708SOL    MW4 6864   0.410   0.355   3.048 -0.3311  0.2442  0.3940
 1709SOL     OW 6865   0.638   0.500   2.999  0.5312  0.4255  0.1887
 1709SOL    HW2 6866   0.719   0.475   3.044  0.9922  0.0753 -0.8173
 1709SOL    HW3 6867   0.633   0.595   3.010 -0.6003  0.0918  2.9953
 1709SOL    MW4 6868   0.648   0.510   3.006  0.4427  0.3353  0.4263
 1710SOL     OW 6869   0.632   0.776   3.078  0.5004 -0.4191  0.1800
 1710SOL    HW2 6870   0.631   0.791   3.173  1.0983  0.8095  0.0025
 1710SOL    HW3 6871   0.718   0.808   3.050  0.8533 -1.9922 -0.5942
 1710SOL    MW4 6872   0.643   0.783   3.087  0.6258 -0.4645  0.0544
 1711SOL     OW 6873   0.402   0.892   2.998 -0.0940 -0.0996  0.1933
 1711SOL    HW2 6874   0.336   0.834   3.035  1.1387 -1.4611  0.3102
 1711SOL    HW3 6875   0.485   0.860   3.033  0.6319  1.6870  0.1971
 1711SOL    MW4 6876   0.404   0.880   3.007  0.1644 -0.0435  0.2092
 1712SOL     OW 6877   0.422   1.146   3.115 -0.1753  0.5853 -0.1909
 1712SOL    HW2 6878   0.400   1.063   3.072 -0.1588 -0.4974  1.8121
 1712SOL    HW3 6879   0.351   1.205   3.092 -0.6484 -0.2514 -0.9074
 1712SOL    MW4 6880   0.410   1.142   3.107 -0.2355  0.3320 -0.0212
 1713SOL     OW 6881   0.648   1.258   2.990  0.0422  0.1267 -0.7360
 1713SOL    HW2 6882   0.723   1.206   3.018 -0.1949  0.3766  0.3814
 1713SOL    HW3 6883   0.573   1.219   3.035 -0.1528  1.3660  0.0265
 1713SOL    MW4 6884   0.648   1.246   2.999 -0.0148  0.3232 -0.4880
 1714SOL     OW 6885   0.652   1.524   3.096  0.3118 -0.1738  0.4318
 1714SOL    HW2 6886   0.650   1.515   3.191  1.4714 -0.1860  0.4615
 1714SOL    HW3 6887   0.650   1.434   3.063  2.1677 -0.2653  0.5085
 1714SOL    MW4 6888   0.652   1.511   3.104  0.7097 -0.1875  0.4458
 1715SOL     OW 6889   0.466   1.726   2.967  0.8444  0.3706 -0.1197
 1715SOL    HW2 6890   0.540   1.671   2.991  1.1414  0.9450  0.2973
 1715SOL    HW3 6891   0.390   1.680   3.004  1.1212  0.3933  0.4862
 1715SOL    MW4 6892   0.466   1.713   2.975  0.9201  0.4494  0.0152
 1716SOL     OW 6893   0.443   1.951   3.134 -0.7021 -0.0935 -0.0595
 1716SOL    HW2 6894   0.468   1.882   3.073  0.3967  0.8329 -0.6935
 1716SOL    HW3 6895   0.365   1.990   3.096 -0.2946  0.1688 -0.6425
 1716SOL    MW4 6896   0.436   1.947   3.121 -0.5033  0.0633 -0.2200
 1717SOL     OW 6897   0.662   2.076   3.027  0.0475 -0.4622  0.0175
 1717SOL    HW2 6898   0.723   2.007   3.054 -0.2287 -0.3978  0.8224
 1717SOL    HW3 6899   0.578   2.049   3.064 -0.5741 -0.9126 -1.6930
 1717SOL    MW4 6900   0.659   2.063   3.036 -0.0710 -0.5131 -0.1020
 1718SOL     OW 6901   0.732   2.330   3.131  0.0330 -0.4984  0.4758
 1718SOL    HW2 6902   0.713   2.333   3.224  0.2692  1.6848  0.4602
 1718SOL    HW3 6903   0.727   2.237   3.109 -1.7876 -0.8579  2.2836
 1718SOL    MW4 6904   0.729   2.318   3.140 -0.1760 -0.2578  0.7123
 1719SOL     OW 6905   0.478   2.444   3.041 -0.0801  0.0813 -0.0761
 1719SOL    HW2 6906   0.569   2.418   3.057 -0.0188 -0.2333 -0.9312
 1719SOL    HW3 6907   0.474   2.461   2.947 -0.4747  1.7742  0.2355
 1719SOL    MW4 6908   0.489   2.443   3.031 -0.1241  0.2631 -0.1478
 1720SOL     OW 6909   0.442   2.734   3.131  0.0514 -0.1347 -0.4247
 1720SOL    HW2 6910   0.528   2.765   3.102  0.6637 -1.1938  0.2328
 1720SOL    HW3 6911   0.439   2.642   3.104 -0.5202 -0.3384  0.3179
 1720SOL    MW4 6912   0.453   2.726   3.124  0.0567 -0.3013 -0.2400
 1721SOL     OW 6913   0.676   2.834   3.013  0.1742 -0.1926  0.0860
 1721SOL    HW2 6914   0.757   2.793   3.044  0.1555  1.1629  2.0095
 1721SOL    HW3 6915   0.680   2.924   3.045 -2.4789 -0.3266  0.9302
 1721SOL    MW4 6916   0.687   2.840   3.021 -0.1783 -0.0315  0.4512
 1722SOL     OW 6917   0.703   3.093   3.113 -0.0464 -0.1583  0.0437
 1722SOL    HW2 6918   0.707   3.097   3.209 -1.0712  0.5452  0.0640
 1722SOL    HW3 6919   0.618   3.130   3.091  1.1566  1.9732 -1.2609
 1722SOL    MW4 6920   0.692   3.099   3.123 -0.0229  0.2157 -0.1258
 1723SOL     OW 6921   0.467   3.234   3.006  0.0604 -0.7716 -0.0303
 1723SOL    HW2 6922   0.454   3.315   3.056 -2.3933 -0.5221 -1.0090
 1723SOL    HW3 6923   0.392   3.179   3.029  0.2508 -1.6617 -1.5042
 1723SOL    MW4 6924   0.455   3.238   3.016 -0.2382 -0.8561 -0.3539
 1724SOL     OW 6925   0.457   3.494   3.129  0.1674 -0.0093  0.1790
 1724SOL    HW2 6926   0.446   3.459   3.218 -0.8152  0.1686  0.1354
 1724SOL    HW3 6927   0.379   3.548   3.115 -0.3471 -1.1122 -1.2876
 1724SOL    MW4 6928   0.445   3.496   3.139 -0.0301 -0.1313 -0.0202
 1725SOL     OW 6929   0.665   3.640   3.009 -0.9243  0.2676 -0.0943
 1725SOL    HW2 6930   0.743   3.603   3.050 -0.9295 -1.0533 -1.2258
 1725SOL    HW3 6931   0.592   3.587   3.042 -1.2286  0.8828  0.2249
 1725SOL    MW4 6932   0.665   3.628   3.019 -0.9651  0.1744 -0.2015
 1726SOL     OW 6933   0.722   3.906   3.122 -0.3086  0.2429  0.2467
 1726SOL    HW2 6934   0.703   3.918   3.215 -0.6669 -0.4199  0.2674
 1726SOL    HW3 6935   0.695   3.816   3.104  1.0948 -0.1155 -0.1669
 1726SOL    MW4 6936   0.716   3.895   3.132 -0.1707  0.1081  0.1948
 1727SOL     OW 6937   0.462   3.984   3.047 -0.0057  0.0582  0.2448
 1727SOL    HW2 6938   0.555   3.982   3.068  0.3876  0.7734 -1.3853
 1727SOL    HW3 6939   0.458   3.972   2.952 -1.6807 -1.9370  0.5322
 1727SOL    MW4 6940   0.474   3.982   3.037 -0.1748 -0.1107  0.0677
 1728SOL     OW 6941   0.469   4.242   3.136 -0.1951 -0.4931 -0.0999
 1728SOL    HW2 6942   0.456   4.147   3.148 -1.0544 -0.3710 -0.0457
 1728SOL    HW3 6943   0.392   4.271   3.089 -0.0279  0.2243  0.0657
 1728SOL    MW4 6944   0.457   4.233   3.131 -0.2865 -0.3823 -0.0709
 1729SOL     OW 6945   0.700   4.379   3.023 -0.0686 -0.4319  0.4154
 1729SOL    HW2 6946   0.620   4.329   3.042  0.5913 -1.3319  0.9153
 1729SOL    HW3 6947   0.700   4.391   2.929 -1.2924  0.4360  0.5156
 1729SOL    MW4 6948   0.690   4.374   3.013 -0.1430 -0.4362  0.4946
 1730SOL     OW 6949   1.112   0.017   3.118 -0.1453  0.4381 -0.2997
 1730SOL    HW2 6950   1.184   0.066   3.078 -0.6713  0.8958 -0.6875
 1730SOL    HW3 6951   1.033   0.066   3.095 -0.5575  0.1245  0.4021
 1730SOL    MW4 6952   1.111   0.030   3.110 -0.2691  0.4571 -0.2583
 1731SOL     OW 6953   0.889   0.151   2.990  0.2463 -0.1691 -0.1862
 1731SOL    HW2 6954   0.883   0.242   3.018  1.1633  0.9600 -3.4141
 1731SOL    HW3 6955   0.804   0.113   3.012 -0.5140  1.7327  0.2699
 1731SOL    MW4 6956   0.877   0.158   2.997  0.2670  0.2308 -0.5519
 1732SOL     OW 6957   0.866   0.411   3.077 -0.1790  0.3284  0.1351
 1732SOL    HW2 6958   0.880   0.395   3.171  0.7141  3.0227  0.5049
 1732SOL    HW3 6959   0.949   0.447   3.047 -0.3415 -0.8670 -1.8228
 1732SOL    MW4 6960   0.879   0.413   3.086 -0.0826  0.5261 -0.0744
 1733SOL     OW 6961   1.097   0.519   2.968  0.3335  0.3718  0.2934
 1733SOL    HW2 6962   1.168   0.473   3.013  0.2850 -0.0829 -0.0975
 1733SOL    HW3 6963   1.114   0.505   2.875  1.2373  2.4852  0.0995
 1733SOL    MW4 6964   1.109   0.511   2.962  0.4463  0.5906  0.2162
 1734SOL     OW 6965   1.107   0.758   3.079  0.0791  0.0933  0.1588
 1734SOL    HW2 6966   1.102   0.736   3.172  2.0640  0.4864  0.3797
 1734SOL    HW3 6967   1.109   0.673   3.035  2.0435 -0.1416  0.6628
 1734SOL    MW4 6968   1.107   0.744   3.086  0.6001  0.1142  0.2544
 1735SOL     OW 6969   0.876   0.869   2.986  0.3678  0.5867 -0.2992
 1735SOL    HW2 6970   0.875   0.950   3.037  0.2439  0.1023  0.4793
 1735SOL    HW3 6971   0.956   0.825   3.013 -0.4994 -0.4174  0.6721
 1735SOL    MW4 6972   0.887   0.874   2.997  0.2371  0.3903 -0.0683
 1736SOL     OW 6973   0.874   1.126   3.098 -0.0382  0.1431  0.3313
 1736SOL    HW2 6974   0.876   1.160   3.187  1.2013 -0.6433  0.6184
 1736SOL    HW3 6975   0.943   1.173   3.052 -0.0979 -0.0770  0.0120
 1736SOL    MW4 6976   0.883   1.136   3.104  0.1175  0.0103  0.3271
 1737SOL     OW 6977   1.107   1.244   2.998 -0.0541 -0.1619 -0.3932
 1737SOL    HW2 6978   1.196   1.210   3.010  0.2928  1.0256  0.5349
 1737SOL    HW3 6979   1.095   1.248   2.903  0.7801 -0.6058 -0.5204
 1737SOL    MW4 6980   1.117   1.240   2.987  0.1017 -0.0638 -0.2875
 1738SOL     OW 6981   1.083   1.509   3.111  0.0882  0.5125  0.0005
 1738SOL    HW2 6982   1.166   1.545   3.081 -0.2830  0.2042 -1.4005
 1738SOL    HW3 6983   1.083   1.419   3.080 -0.9662  0.6364 -0.3903
 1738SOL    MW4 6984   1.094   1.502   3.103 -0.0999  0.4882 -0.2359
 1739SOL     OW 6985   0.866   1.634   2.963  0.1750  0.1579 -0.4700
 1739SOL    HW2 6986   0.946   1.608   3.009  0.4182  1.3305 -0.2114
 1739SOL    HW3 6987   0.796   1.590   3.012  0.5776 -0.0892 -0.1036
 1739SOL    MW4 6988   0.868   1.625   2.976  0.2602  0.2800 -0.3875
 1740SOL     OW 6989   0.886   1.888   3.104  0.2643 -0.4665  0.2384
 1740SOL    HW2 6990   0.875   1.872   3.198 -0.1805 -1.8643 -0.0396
 1740SOL    HW3 6991   0.867   1.803   3.063  0.0823  0.2307 -1.1403
 1740SOL    MW4 6992   0.882   1.874   3.111  0.1816 -0.5589  0.0198
 1741SOL     OW 6993   1.125   2.018   3.032  0.5112  0.4645  0.5760
 1741SOL    HW2 6994   1.046   1.982   3.071  1.0022 -0.5482  0.6367
 1741SOL    HW3 6995   1.106   2.019   2.938  0.5437 -0.0664  0.5623
 1741SOL    MW4 6996   1.112   2.013   3.025  0.5803  0.2609  0.5822
 1742SOL     OW 6997   1.152   2.297   3.112  0.2740 -0.3349  0.7209
 1742SOL    HW2 6998   1.081   2.356   3.085  1.0573 -0.2510 -1.1926
 1742SOL    HW3 6999   1.115   2.209   3.101  0.3882 -0.2863 -0.0325
 1742SOL    MW4 7000   1.138   2.293   3.107  0.3924 -0.3174  0.3691
 1743SOL     OW 7001   0.955   2.445   3.006  0.2613  0.1122  0.0263
 1743SOL    HW2 7002   0.868   2.428   3.043  0.4988  0.8450  0.9560
 1743SOL    HW3 7003   0.943   2.441   2.912 -0.9208  0.8255  0.1393
 1743SOL    MW4 7004   0.942   2.442   2.999  0.1367  0.3030  0.1638
 1744SOL     OW 7005   0.924   2.703   3.102  0.2740 -0.6927 -0.4211
 1744SOL    HW2 7006   0.911   2.690   3.196 -1.9119 -0.0472 -0.5947
 1744SOL    HW3 7007   0.931   2.615   3.066 -0.3350 -0.9840  0.1687
 1744SOL    MW4 7008   0.923   2.690   3.109 -0.0947 -0.6460 -0.3662
 1745SOL     OW 7009   1.120   2.862   3.002  0.2179 -0.9475 -0.1209
 1745SOL    HW2 7010   1.112   2.946   3.048  0.6732 -1.1959  0.4205
 1745SOL    HW3 7011   1.046   2.810   3.032  0.0707 -0.8267 -0.2736
 1745SOL    MW4 7012   1.110   2.866   3.012  0.2586 -0.9643 -0.0696
 1746SOL     OW 7013   1.089   3.107   3.145 -0.0690  0.0110 -0.2966
 1746SOL    HW2 7014   1.166   3.147   3.105  0.5457  0.8409  1.6445
 1746SOL    HW3 7015   1.015   3.147   3.100  0.5997  1.3163 -0.2797
 1746SOL    MW4 7016   1.090   3.118   3.134  0.1003  0.2927 -0.0382
 1747SOL     OW 7017   0.896   3.262   3.023 -0.6202  0.2764  0.1376
 1747SOL    HW2 7018   0.820   3.209   3.047 -0.4495  0.5616  1.3666
 1747SOL    HW3 7019   0.899   3.259   2.927 -1.4310 -0.7697  0.1418
 1747SOL    MW4 7020   0.887   3.255   3.014 -0.7047  0.1760  0.3003
 1748SOL     OW 7021   0.880   3.511   3.143 -0.1669  0.0643 -0.0021
 1748SOL    HW2 7022   0.959   3.557   3.113 -0.3481  0.5772  0.2887
 1748SOL    HW3 7023   0.886   3.425   3.104  0.0144  0.4512 -0.8372
 1748SOL    MW4 7024   0.891   3.506   3.134 -0.1669  0.1830 -0.0739
 1749SOL     OW 7025   1.115   3.634   3.038  0.1124 -0.0899  0.1480
 1749SOL    HW2 7026   1.191   3.582   3.065 -1.0885 -1.0948  1.6874
 1749SOL    HW3 7027   1.119   3.712   3.092 -0.2166 -0.3742  0.5871
 1749SOL    MW4 7028   1.126   3.637   3.048 -0.0895 -0.2600  0.4091
 1750SOL     OW 7029   1.173   3.872   3.178 -0.0467 -0.0215  0.2207
 1750SOL    HW2 7030   1.143   3.861   3.269 -0.4118 -0.1747  0.0814
 1750SOL    HW3 7031   1.104   3.923   3.136  0.2435  0.2671  0.0942
 1750SOL    MW4 7032   1.160   3.877   3.185 -0.0566 -0.0036  0.1856
 1751SOL     OW 7033   0.966   3.987   3.017  0.0610 -0.4901  0.0720
 1751SOL    HW2 7034   0.886   3.950   3.055 -1.0413  0.2324 -1.4679
 1751SOL    HW3 7035   0.947   3.995   2.923  1.1440  1.6699 -0.0108
 1751SOL    MW4 7036   0.953   3.983   3.009  0.0585 -0.1098 -0.1421
 1752SOL     OW 7037   0.933   4.243   3.106 -0.0198 -0.2035  0.1463
 1752SOL    HW2 7038   0.921   4.150   3.089  0.6985 -0.2147 -0.3474
 1752SOL    HW3 7039   0.856   4.285   3.067 -1.0475 -0.7091  1.6153
 1752SOL    MW4 7040   0.921   4.236   3.099 -0.0607 -0.2717  0.2750
 1753SOL     OW 7041   1.125   4.407   3.014  0.1137  0.1187 -0.7705
 1753SOL    HW2 7042   1.055   4.352   3.048 -1.3348  0.7758 -2.5948
 1753SOL    HW3 7043   1.111   4.492   3.055 -0.0585  0.2132 -1.0277
 1753SOL    MW4 7044   1.114   4.411   3.024 -0.1002  0.2179 -1.0451
 1754SOL     OW 7045   1.566   4.633   3.128 -0.3088 -0.0988  0.3447
 1754SOL    HW2 7046   1.568   4.620   3.223  0.0412  0.3332  0.4006
 1754SOL    HW3 7047   1.483   4.679   3.112  0.5291  1.5695  0.6814
 1754SOL    MW4 7048   1.555   4.637   3.138 -0.1521  0.1783  0.3965
 1755SOL     OW 7049   1.356   0.122   3.025  0.2611 -0.4434 -0.0152
 1755SOL    HW2 7050   1.330   0.209   3.055 -1.3657 -0.7083 -0.5664
 1755SOL    HW3 7051   1.374   0.133   2.931 -1.6990 -1.0224 -0.4915
 1755SOL    MW4 7052   1.355   0.135   3.016 -0.2122 -0.5547 -0.1508
 1756SOL     OW 7053   1.288   0.384   3.095  0.1810  0.1359 -0.1621
 1756SOL    HW2 7054   1.311   0.375   3.188 -0.3362  0.9232  0.0538
 1756SOL    HW3 7055   1.361   0.434   3.057  1.1393 -1.5090 -0.5177
 1756SOL    MW4 7056   1.301   0.389   3.102  0.2392  0.0227 -0.1806
 1757SOL     OW 7057   1.538   0.505   2.991  0.0842 -0.5475 -0.4710
 1757SOL    HW2 7058   1.556   0.598   3.005 -0.9465 -0.4369  0.1165
 1757SOL    HW3 7059   1.546   0.494   2.896 -1.5985  0.5240 -0.7518
 1757SOL    MW4 7060   1.542   0.516   2.980 -0.2738 -0.3915 -0.4305
 1758SOL     OW 7061   1.550   0.758   3.072 -0.2231  0.7840  0.1304
 1758SOL    HW2 7062   1.539   0.763   3.167 -0.7034  1.8040  0.0268
 1758SOL    HW3 7063   1.468   0.791   3.037 -0.6811 -1.1188 -0.6556
 1758SOL    MW4 7064   1.538   0.763   3.080 -0.3469  0.6676  0.0131
 1759SOL     OW 7065   1.311   0.872   2.955 -0.3361  1.0623 -0.5122
 1759SOL    HW2 7066   1.325   0.958   2.994 -0.5494  0.9772 -0.2430
 1759SOL    HW3 7067   1.240   0.834   3.007  0.3574  0.3734 -0.0497
 1759SOL    MW4 7068   1.304   0.878   2.967 -0.2727  0.9601 -0.4156
 1760SOL     OW 7069   1.355   1.116   3.063  0.2374  0.4538  0.3408
 1760SOL    HW2 7070   1.341   1.125   3.157 -0.8572  0.6424  0.1715
 1760SOL    HW3 7071   1.443   1.150   3.048 -0.4589  2.6246  0.9714
 1760SOL    MW4 7072   1.364   1.121   3.073  0.0011  0.7651  0.4016
 1761SOL     OW 7073   1.599   1.259   2.991  0.2314  0.2187 -0.1853
 1761SOL    HW2 7074   1.676   1.216   3.028  0.2657 -0.3401 -0.8869
 1761SOL    HW3 7075   1.607   1.350   3.017  0.5774 -0.0425  0.6465
 1761SOL    MW4 7076   1.610   1.265   2.999  0.2815  0.1105 -0.1681
 1762SOL     OW 7077   1.569   1.508   3.113  0.2774  0.1706 -0.6642
 1762SOL    HW2 7078   1.636   1.558   3.065 -0.3796  0.4933 -1.2510
 1762SOL    HW3 7079   1.486   1.545   3.083 -0.1967 -0.9385 -0.7045
 1762SOL    MW4 7080   1.567   1.520   3.103  0.1281  0.0668 -0.7469
 1763SOL     OW 7081   1.335   1.618   3.033  0.0922 -0.2597  0.0392
 1763SOL    HW2 7082   1.338   1.697   3.087  0.0978 -0.4162  0.2700
 1763SOL    HW3 7083   1.317   1.650   2.945 -0.3918 -0.0359  0.2134
 1763SOL    MW4 7084   1.333   1.633   3.029  0.0291 -0.2508  0.0927
 1764SOL     OW 7085   1.347   1.887   3.117  0.2143  1.0543 -0.2864
 1764SOL    HW2 7086   1.371   1.906   3.207  1.4400  0.2971 -0.4445
 1764SOL    HW3 7087   1.268   1.940   3.101 -1.5641 -0.8119  2.0282
 1764SOL    MW4 7088   1.340   1.897   3.127  0.1413  0.7082 -0.0019
 1765SOL     OW 7089   1.544   2.061   3.003 -0.6544  0.1093 -0.0948
 1765SOL    HW2 7090   1.469   2.002   3.009  0.8156 -1.7340  0.3644
 1765SOL    HW3 7091   1.556   2.075   2.909 -1.0461 -0.2666 -0.2036
 1765SOL    MW4 7092   1.535   2.055   2.992 -0.5122 -0.1835 -0.0486
 1766SOL     OW 7093   1.500   2.325   3.123 -0.3033 -0.2047  0.0423
 1766SOL    HW2 7094   1.447   2.375   3.061  0.3339  0.9465  0.3908
 1766SOL    HW3 7095   1.493   2.234   3.094 -0.5100  0.2426 -1.3439
 1766SOL    MW4 7096   1.492   2.320   3.111 -0.2465  0.0062 -0.0946
 1767SOL     OW 7097   1.314   2.466   2.962  0.1598  0.0388  0.1093
 1767SOL    HW2 7098   1.259   2.400   3.004  1.4495 -0.5813  0.8542
 1767SOL    HW3 7099   1.305   2.448   2.868  0.0162 -0.8031  0.2766
 1767SOL    MW4 7100   1.306   2.455   2.955  0.3110 -0.1541  0.2296
 1768SOL     OW 7101   1.325   2.681   3.123  0.6128 -0.0746  0.1469
 1768SOL    HW2 7102   1.310   2.604   3.068  0.3987 -0.4036  0.6633
 1768SOL    HW3 7103   1.255   2.742   3.099 -0.8735 -1.1174  1.6657
 1768SOL    MW4 7104   1.314   2.679   3.113  0.3885 -0.2556  0.4154
 1769SOL     OW 7105   1.524   2.798   2.973 -0.0985  0.7182 -0.1257
 1769SOL    HW2 7106   1.598   2.751   3.011  0.1652  0.4889 -0.9221
 1769SOL    HW3 7107   1.448   2.765   3.021  0.3799  1.4755  1.1828
 1769SOL    MW4 7108   1.523   2.787   2.984 -0.0006  0.7879 -0.0581
 1770SOL     OW 7109   1.549   3.047   3.089  0.1499  0.1754 -0.4363
 1770SOL    HW2 7110   1.547   3.022   3.182 -0.6953  1.0351 -0.2187
 1770SOL    HW3 7111   1.543   2.963   3.042  1.9732 -0.3667  0.2748
 1770SOL    MW4 7112   1.548   3.032   3.095  0.2789  0.2173 -0.3138
 1771SOL     OW 7113   1.298   3.207   3.022 -0.0524 -0.0383 -0.0508
 1771SOL    HW2 7114   1.376   3.158   3.045  0.2897  0.7667  0.5358
 1771SOL    HW3 7115   1.318   3.244   2.935 -0.4427 -1.1916 -0.6412
 1771SOL    MW4 7116   1.311   3.206   3.013 -0.0588 -0.0842 -0.0513
 1772SOL     OW 7117   1.343   3.497   3.122 -0.0977 -0.0894 -0.0607
 1772SOL    HW2 7118   1.347   3.479   3.216  1.4198 -0.2021 -0.1429
 1772SOL    HW3 7119   1.314   3.414   3.083 -1.6172  0.2146  0.3684
 1772SOL    MW4 7120   1.340   3.484   3.129 -0.0980 -0.0642 -0.0149
 1773SOL     OW 7121   1.581   3.599   3.010  0.0640 -0.4822 -0.3292
 1773SOL    HW2 7122   1.502   3.558   3.044  0.7629 -1.6954 -0.1478
 1773SOL    HW3 7123   1.567   3.603   2.915  0.4001 -2.0814 -0.4683
 1773SOL    MW4 7124   1.569   3.594   3.002  0.2006 -0.8532 -0.3236
 1774SOL     OW 7125   1.588   3.853   3.095 -0.0319  0.4458 -0.7365
 1774SOL    HW2 7126   1.660   3.900   3.053 -0.2674  0.5964 -0.9704
 1774SOL    HW3 7127   1.599   3.762   3.068 -0.6132  0.6639 -1.7216
 1774SOL    MW4 7128   1.599   3.848   3.086 -0.1397  0.4944 -0.8973
 1775SOL     OW 7129   1.355   3.988   3.007  0.0659  0.1645  0.6942
 1775SOL    HW2 7130   1.434   3.946   3.042  0.3391  0.6328  0.6542
 1775SOL    HW3 7131   1.283   3.948   3.055  0.4094  0.5219  1.5270
 1775SOL    MW4 7132   1.356   3.977   3.018  0.1473  0.2734  0.7988
 1776SOL     OW 7133   1.324   4.239   3.115  0.3912  0.3138 -0.5592
 1776SOL    HW2 7134   1.335   4.164   3.057  0.3058  0.3992 -0.6875
 1776SOL    HW3 7135   1.252   4.289   3.077  0.9226  0.8432 -0.8947
 1776SOL    MW4 7136   1.316   4.236   3.102  0.4501  0.3949 -0.6204
 1777SOL     OW 7137   1.544   4.375   3.037  0.2154 -0.3637 -0.3080
 1777SOL    HW2 7138   1.471   4.334   3.083 -0.6745  0.7767 -0.6654
 1777SOL    HW3 7139   1.544   4.466   3.069 -0.2367  0.3632 -2.3452
 1777SOL    MW4 7140   1.535   4.382   3.048  0.0383 -0.1173 -0.6240
 1778SOL     OW 7141   2.035   0.001   3.094 -0.0149  0.0507 -0.2447
 1778SOL    HW2 7142   2.021   0.013   3.188  0.1256  1.0031 -0.3417
 1778SOL    HW3 7143   1.969   0.055   3.052 -1.1456 -1.6503 -0.7166
 1778SOL    MW4 7144   2.025   0.010   3.101 -0.1455 -0.0481 -0.3197
 1779SOL     OW 7145   1.789   0.150   3.026  0.4010  0.0439 -0.4886
 1779SOL    HW2 7146   1.729   0.081   3.055  0.2884 -0.2757 -1.4418
 1779SOL    HW3 7147   1.785   0.146   2.930  0.7008  1.1134 -0.5520
 1779SOL    MW4 7148   1.781   0.140   3.017  0.4257  0.1428 -0.6227
 1780SOL     OW 7149   1.750   0.392   3.133  0.1238 -0.0767  0.2590
 1780SOL    HW2 7150   1.760   0.304   3.097 -1.0818 -0.2792  0.4163
 1780SOL    HW3 7151   1.674   0.429   3.087  0.7217  0.9512  0.0666
 1780SOL    MW4 7152   1.741   0.386   3.122  0.0436  0.0322  0.2544
 1781SOL     OW 7153   2.004   0.496   2.990 -0.5388 -0.4832 -0.2491
 1781SOL    HW2 7154   1.938   0.471   3.056 -0.8073 -0.2544 -0.4313
 1781SOL    HW3 7155   2.086   0.462   3.025 -0.5915  0.1463  0.4886
 1781SOL    MW4 7156   2.006   0.488   3.004 -0.5812 -0.3700 -0.1758
 1782SOL     OW 7157   2.039   0.762   3.087 -0.1453  0.0462 -0.1914
 1782SOL    HW2 7158   1.950   0.788   3.064  0.3019  1.1996 -0.6423
 1782SOL    HW3 7159   2.056   0.685   3.033 -0.0242  1.2081 -1.8456
 1782SOL    MW4 7160   2.029   0.755   3.077 -0.0703  0.3516 -0.4691
 1783SOL     OW 7161   1.797   0.852   3.007 -0.1746 -0.0108  0.1759
 1783SOL    HW2 7162   1.718   0.819   3.050  0.6974  0.0921  1.9135
 1783SOL    HW3 7163   1.779   0.845   2.913 -2.1129 -0.2843  0.5587
 1783SOL    MW4 7164   1.784   0.847   3.000 -0.3153 -0.0333  0.4556
 1784SOL     OW 7165   1.796   1.110   3.113  0.1791  0.4046 -0.3332
 1784SOL    HW2 7166   1.773   1.108   3.206  1.2514  0.6475 -0.0450
 1784SOL    HW3 7167   1.797   1.019   3.086 -0.9564  0.3879 -0.3158
 1784SOL    MW4 7168   1.793   1.098   3.122  0.1707  0.4344 -0.2929
 1785SOL     OW 7169   2.027   1.228   3.027 -0.0644 -0.3310  0.5163
 1785SOL    HW2 7170   2.104   1.178   3.053 -0.2544 -1.1126 -0.4012
 1785SOL    HW3 7171   1.954   1.169   3.045 -0.3014 -0.3370 -0.4485
 1785SOL    MW4 7172   2.027   1.214   3.033 -0.1207 -0.4349  0.2680
 1786SOL     OW 7173   2.001   1.507   3.100 -0.1588  0.1167 -0.4464
 1786SOL    HW2 7174   2.019   1.510   3.194  0.9870  0.9714 -0.6811
 1786SOL    HW3 7175   1.984   1.415   3.082  1.6133 -0.3688  0.2504
 1786SOL    MW4 7176   2.001   1.495   3.110  0.2262  0.1654 -0.3854
 1787SOL     OW 7177   1.774   1.661   3.006 -0.6544  0.4920  0.4604
 1787SOL    HW2 7178   1.783   1.750   3.040 -1.4494  0.8443 -0.2233
 1787SOL    HW3 7179   1.854   1.616   3.032 -0.0856  1.5168  0.4840
 1787SOL    MW4 7180   1.786   1.667   3.014 -0.6842  0.6737  0.3733
 1788SOL     OW 7181   1.774   1.914   3.115  0.2494 -0.7506  0.1272
 1788SOL    HW2 7182   1.841   1.973   3.080 -0.1846  0.5623  1.4662
 1788SOL    HW3 7183   1.693   1.943   3.075 -0.0067 -0.2545  0.9958
 1788SOL    MW4 7184   1.772   1.926   3.105  0.1583 -0.5120  0.4185
 1789SOL     OW 7185   1.985   2.047   2.987  0.3997 -0.2518  0.1038
 1789SOL    HW2 7186   2.056   2.001   3.031 -0.4657  0.1486  1.9564
 1789SOL    HW3 7187   1.983   2.134   3.027 -1.7174 -0.5686  0.7914
 1789SOL    MW4 7188   1.994   2.052   2.998  0.0062 -0.2408  0.4389
 1790SOL     OW 7189   1.978   2.316   3.113 -0.3463  0.0440  0.0514
 1790SOL    HW2 7190   2.053   2.372   3.092  0.0120 -0.1386  0.8455
 1790SOL    HW3 7191   1.907   2.351   3.059  0.5596 -0.4196 -1.4939
 1790SOL    MW4 7192   1.979   2.328   3.103 -0.1795 -0.0413 -0.0477
 1791SOL     OW 7193   1.733   2.396   2.982 -0.4125  0.3310  0.2411
 1791SOL    HW2 7194   1.733   2.491   2.992 -1.5940  0.4309 -0.5863
 1791SOL    HW3 7195   1.662   2.366   3.039  0.9529 -0.2154  1.7075
 1791SOL    MW4 7196   1.724   2.405   2.991 -0.3882  0.2721  0.3254
 1792SOL     OW 7197   1.745   2.673   3.062  0.5507 -0.0022 -0.2821
 1792SOL    HW2 7198   1.734   2.656   3.156  0.7655 -0.8813 -0.4072
 1792SOL    HW3 7199   1.833   2.710   3.056  0.1444  1.0137 -0.0208
 1792SOL    MW4 7200   1.755   2.676   3.074  0.5254  0.0158 -0.2641
 1793SOL     OW 7201   1.982   2.808   3.044  0.0204 -0.4599  0.2601
 1793SOL    HW2 7202   1.972   2.897   3.079  1.3365 -0.4817  0.7474
 1793SOL    HW3 7203   1.984   2.820   2.949 -0.0455  0.0160  0.3169
 1793SOL    MW4 7204   1.981   2.821   3.036  0.1854 -0.4000  0.3319
 1794SOL     OW 7205   1.974   3.060   3.133 -0.2572 -0.0266  0.8469
 1794SOL    HW2 7206   1.960   3.064   3.228 -0.9931  0.9246  0.7104
 1794SOL    HW3 7207   1.906   3.118   3.097 -0.6627 -1.2188 -0.3268
 1794SOL    MW4 7208   1.963   3.068   3.141 -0.4078 -0.0584  0.6740
 1795SOL     OW 7209   1.760   3.204   3.025  0.0467 -0.5246  0.3617
 1795SOL    HW2 7210   1.675   3.162   3.040 -0.1252 -0.3397 -0.0895
 1795SOL    HW3 7211   1.777   3.192   2.931  0.2324 -0.0316  0.3290
 1795SOL    MW4 7212   1.751   3.197   3.014  0.0486 -0.4351  0.2979
 1796SOL     OW 7213   1.789   3.476   3.114  0.1803 -0.1390  0.0672
 1796SOL    HW2 7214   1.781   3.392   3.068 -0.9891  0.2849 -0.5195
 1796SOL    HW3 7215   1.721   3.531   3.075  0.9494  1.0847  0.4475
 1796SOL    MW4 7216   1.779   3.472   3.103  0.1275  0.0784  0.0400
 1797SOL     OW 7217   2.012   3.614   3.014  0.4488  0.3780  0.5234
 1797SOL    HW2 7218   2.002   3.703   3.047  1.0837  1.2615 -1.5455
 1797SOL    HW3 7219   1.941   3.565   3.054 -0.1288  1.9132  1.4053
 1797SOL    MW4 7220   2.001   3.620   3.023  0.4564  0.6971  0.3668
 1798SOL     OW 7221   2.022   3.880   3.118 -0.1195 -0.2645  0.2684
 1798SOL    HW2 7222   2.037   3.894   3.212  0.3121 -1.8255  0.4447
 1798SOL    HW3 7223   1.951   3.940   3.096  0.3892  0.7802  1.3921
 1798SOL    MW4 7224   2.015   3.890   3.128  0.0045 -0.3326  0.4399
 1799SOL     OW 7225   1.802   4.014   2.988  0.4759 -0.5405 -0.1281
 1799SOL    HW2 7226   1.789   4.103   3.022  3.5645  0.0701 -0.3584
 1799SOL    HW3 7227   1.822   4.027   2.895  0.7801 -1.4687 -0.1967
 1799SOL    MW4 7228   1.803   4.028   2.981  0.9235 -0.5824 -0.1675
 1800SOL     OW 7229   1.783   4.263   3.110 -0.6632 -0.1420 -0.1996
 1800SOL    HW2 7230   1.860   4.311   3.081 -0.0137 -0.4633  0.9635
 1800SOL    HW3 7231   1.709   4.311   3.073  0.0630  0.4811 -0.8635
 1800SOL    MW4 7232   1.783   4.276   3.101 -0.4817 -0.1021 -0.1338
 1801SOL     OW 7233   2.017   4.395   3.022 -0.1286  0.3480 -0.6019
 1801SOL    HW2 7234   2.019   4.488   3.043  0.0304  0.2064  0.0045
 1801SOL    HW3 7235   2.012   4.393   2.926  0.3685  0.9718 -0.6491
 1801SOL    MW4 7236   2.016   4.407   3.012 -0.0420  0.4116 -0.5281
 1802SOL     OW 7237   2.506   4.653   3.109 -0.2893 -0.2937 -0.7379
 1802SOL    HW2 7238   2.495   4.560   3.088  0.9556 -0.6215  0.0358
 1802SOL    HW3 7239   2.423   4.693   3.082 -1.9505 -2.0611  1.5020
 1802SOL    MW4 7240   2.494   4.646   3.102 -0.3442 -0.5701 -0.3403
 1803SOL     OW 7241   2.279   0.110   3.020  0.2771 -0.1298  0.1778
 1803SOL    HW2 7242   2.266   0.204   3.028 -1.0600 -0.5003  2.9416
 1803SOL    HW3 7243   2.192   0.072   3.033  0.7284 -1.7257 -1.3104
 1803SOL    MW4 7244   2.266   0.117   3.023  0.1602 -0.3893  0.3461
 1804SOL     OW 7245   2.229   0.388   3.101  0.4391 -0.2999  0.1966
 1804SOL    HW2 7246   2.241   0.370   3.195 -1.4327  0.0714  0.5256
 1804SOL    HW3 7247   2.305   0.440   3.077  0.5114  0.3255  1.7110
 1804SOL    MW4 7248   2.241   0.392   3.111  0.2017 -0.1684  0.4399
 1805SOL     OW 7249   2.463   0.489   2.997 -0.0733  0.2093 -0.3982
 1805SOL    HW2 7250   2.543   0.443   3.021  0.9012  1.7783 -0.5829
 1805SOL    HW3 7251   2.460   0.486   2.902  0.5769  1.4741 -0.4675
 1805SOL    MW4 7252   2.473   0.483   2.988  0.1411  0.5832 -0.4317
 1806SOL     OW 7253   2.449   0.743   3.107  0.0364 -0.0063  0.1587
 1806SOL    HW2 7254   2.538   0.777   3.096 -0.1436  0.5002  0.2650
 1806SOL    HW3 7255   2.454   0.653   3.075  0.7635 -0.2180  0.8215
 1806SOL    MW4 7256   2.461   0.735   3.102  0.1086  0.0326  0.2602
 1807SOL     OW 7257   2.257   0.860   2.949 -0.0376 -0.0688  0.4433
 1807SOL    HW2 7258   2.323   0.813   3.000  0.7056  0.2062 -0.2502
 1807SOL    HW3 7259   2.175   0.842   2.994  0.4026 -1.0685  0.8622
 1807SOL    MW4 7260   2.255   0.852   2.962  0.1185 -0.1644  0.4071
 1808SOL     OW 7261   2.265   1.119   3.079 -0.3232  0.0307  0.4602
 1808SOL    HW2 7262   2.259   1.111   3.174 -1.3708  0.2042  0.4145
 1808SOL    HW3 7263   2.264   1.028   3.047  1.1544 -0.0708  0.6655
 1808SOL    MW4 7264   2.264   1.106   3.087 -0.2665  0.0402  0.4812
 1809SOL     OW 7265   2.462   1.278   2.981 -0.0620 -0.0228  0.5908
 1809SOL    HW2 7266   2.381   1.231   3.003  1.0331 -2.2566  0.0790
 1809SOL    HW3 7267   2.466   1.272   2.885  1.3144 -1.0112  0.7027
 1809SOL    MW4 7268   2.452   1.271   2.971  0.2641 -0.4479  0.5381
 1810SOL     OW 7269   2.494   1.486   3.133 -0.1385 -0.8258 -0.5402
 1810SOL    HW2 7270   2.425   1.545   3.102  0.0267  0.0832  0.7805
 1810SOL    HW3 7271   2.480   1.405   3.084 -0.5134  0.2289 -2.1986
 1810SOL    MW4 7272   2.483   1.483   3.123 -0.1662 -0.5667 -0.5848
 1811SOL     OW 7273   2.234   1.602   3.019 -0.2236  0.2477  0.4411
 1811SOL    HW2 7274   2.161   1.554   3.058  0.1678  0.3915  1.3595
 1811SOL    HW3 7275   2.223   1.590   2.925  0.2464 -2.1917  0.6596
 1811SOL    MW4 7276   2.223   1.594   3.012 -0.1099 -0.0552  0.5911
 1812SOL     OW 7277   2.188   1.898   3.084 -0.1754  0.1277 -0.2407
 1812SOL    HW2 7278   2.268   1.946   3.064 -0.4548  0.7743  0.1628
 1812SOL    HW3 7279   2.199   1.813   3.042  0.7396  0.1997 -0.1409
 1812SOL    MW4 7280   2.200   1.893   3.076 -0.0916  0.2225 -0.1743
 1813SOL     OW 7281   2.436   2.030   3.003  0.0743  0.1705  0.1022
 1813SOL    HW2 7282   2.516   1.986   3.034 -0.9130 -1.8433 -0.1375
 1813SOL    HW3 7283   2.440   2.023   2.908  0.2859  1.2794  0.0306
 1813SOL    MW4 7284   2.447   2.023   2.995 -0.0280  0.0511  0.0611
 1814SOL     OW 7285   2.446   2.301   3.086 -0.0391 -0.8151 -0.0115
 1814SOL    HW2 7286   2.460   2.298   3.181 -0.1046  0.2200  0.0398
 1814SOL    HW3 7287   2.443   2.210   3.059  1.9615 -1.1237  0.7004
 1814SOL    MW4 7288   2.447   2.289   3.095  0.2162 -0.7192  0.0892
 1815SOL     OW 7289   2.202   2.423   3.003  0.9231 -0.4437 -0.1919
 1815SOL    HW2 7290   2.200   2.514   3.033  1.8567 -0.2338 -0.7542
 1815SOL    HW3 7291   2.287   2.390   3.033  1.7824 -0.3048 -2.3747
 1815SOL    MW4 7292   2.213   2.430   3.011  1.1597 -0.3977 -0.5541
 1816SOL     OW 7293   2.204   2.673   3.099 -0.3094  0.4648 -0.0772
 1816SOL    HW2 7294   2.281   2.721   3.070  0.6465 -1.0595 -0.0978
 1816SOL    HW3 7295   2.130   2.729   3.073  0.7769  2.1306  0.3279
 1816SOL    MW4 7296   2.204   2.687   3.092 -0.0399  0.4835 -0.0264
 1817SOL     OW 7297   2.430   2.812   3.001  0.2595  0.0342 -0.0307
 1817SOL    HW2 7298   2.418   2.897   3.042 -0.0813 -0.1170  0.1899
 1817SOL    HW3 7299   2.453   2.831   2.910  2.8164  0.4091  0.6581
 1817SOL    MW4 7300   2.431   2.826   2.994  0.5519  0.0637  0.0892
 1818SOL     OW 7301   2.431   3.075   3.127 -0.1107  0.0168  0.0812
 1818SOL    HW2 7302   2.508   3.119   3.092 -0.8473  0.4956 -0.9910
 1818SOL    HW3 7303   2.357   3.128   3.096 -0.8685 -0.4458  1.0666
 1818SOL    MW4 7304   2.431   3.088   3.118 -0.3079  0.0190  0.0697
 1819SOL     OW 7305   2.201   3.196   3.025 -0.4477  0.1884  0.4923
 1819SOL    HW2 7306   2.195   3.290   3.045 -2.9241  0.0599  0.4619
 1819SOL    HW3 7307   2.125   3.157   3.069  0.6088 -1.8353  0.5768
 1819SOL    MW4 7308   2.190   3.203   3.034 -0.6351 -0.0955  0.4994
 1820SOL     OW 7309   2.238   3.478   3.099  0.3868  0.2968 -0.8323
 1820SOL    HW2 7310   2.308   3.524   3.053  0.9068  2.4053  1.9595
 1820SOL    HW3 7311   2.159   3.530   3.080  0.5544  1.0104  0.4218
 1820SOL    MW4 7312   2.237   3.491   3.090  0.4775  0.6691 -0.2985
 1821SOL     OW 7313   2.468   3.585   3.004  0.4674 -0.3154 -0.4948
 1821SOL    HW2 7314   2.521   3.534   3.064  0.5075 -0.4461 -0.6423
 1821SOL    HW3 7315   2.475   3.675   3.036 -0.5117 -0.5621  0.4330
 1821SOL    MW4 7316   2.476   3.590   3.016  0.3435 -0.3652 -0.3919
 1822SOL     OW 7317   2.496   3.843   3.123  0.3920 -0.2416 -0.1965
 1822SOL    HW2 7318   2.499   3.844   3.219  0.1701  0.0271 -0.1915
 1822SOL    HW3 7319   2.570   3.897   3.096  0.4922 -0.3701 -0.1741
 1822SOL    MW4 7320   2.506   3.850   3.132  0.3759 -0.2231 -0.1929
 1823SOL     OW 7321   2.263   3.965   3.006  0.0456  0.2255  0.2590
 1823SOL    HW2 7322   2.335   3.911   3.039  0.7755  1.7899  1.2794
 1823SOL    HW3 7323   2.185   3.931   3.051  0.4368 -0.2202  0.6040
 1823SOL    MW4 7324   2.262   3.954   3.017  0.1935  0.3731  0.4392
 1824SOL     OW 7325   2.268   4.242   3.098 -0.0302  0.2134  0.2804
 1824SOL    HW2 7326   2.273   4.156   3.057  0.5098  0.3947 -0.0306
 1824SOL    HW3 7327   2.189   4.281   3.060  0.7124  0.5599 -0.9430
 1824SOL    MW4 7328   2.258   4.236   3.087  0.1390  0.2830  0.0779
 1825SOL     OW 7329   2.471   4.382   2.998 -0.3409 -0.0198 -0.4693
 1825SOL    HW2 7330   2.393   4.336   3.030 -0.4194  0.4325  0.0158
 1825SOL    HW3 7331   2.469   4.370   2.903  1.1408 -3.3112 -0.1133
 1825SOL    MW4 7332   2.460   4.375   2.990 -0.1557 -0.3944 -0.3584
 1826SOL     OW 7333   2.937   4.664   3.136 -0.2336  0.1400  0.4095
 1826SOL    HW2 7334   3.012   4.712   3.098 -0.5008  0.6016  0.4580
 1826SOL    HW3 7335   2.946   4.575   3.102 -0.4771  0.5567 -0.7669
 1826SOL    MW4 7336   2.948   4.659   3.126 -0.3010  0.2559  0.2607
 1827SOL     OW 7337   2.726   0.096   3.010  0.1808  0.6991  0.2986
 1827SOL    HW2 7338   2.796   0.062   3.065  0.5589  0.4394 -0.3315
 1827SOL    HW3 7339   2.646   0.065   3.051  0.3886  1.7655  1.5416
 1827SOL    MW4 7340   2.725   0.088   3.023  0.2581  0.8055  0.3795
 1828SOL     OW 7341   2.691   0.378   3.093 -0.0663  0.2203  0.2790
 1828SOL    HW2 7342   2.693   0.283   3.085  2.4657  0.1616  1.3341
 1828SOL    HW3 7343   2.683   0.393   3.188  1.1528  1.0689  0.2456
 1828SOL    MW4 7344   2.690   0.367   3.105  0.4286  0.3245  0.4138
 1829SOL     OW 7345   2.937   0.485   3.006  0.0006 -0.0513  0.2515
 1829SOL    HW2 7346   2.855   0.443   3.033 -0.4849  0.7982  0.1104
 1829SOL    HW3 7347   2.933   0.485   2.910  0.5510 -0.7514  0.2212
 1829SOL    MW4 7348   2.925   0.479   2.997  0.0091 -0.0316  0.2289
 1830SOL     OW 7349   2.939   0.755   3.087  0.5328 -0.3631  0.5087
 1830SOL    HW2 7350   2.933   0.737   3.181  0.4416 -0.3692  0.5016
 1830SOL    HW3 7351   2.932   0.669   3.046  1.3550 -0.4446  0.5307
 1830SOL    MW4 7352   2.937   0.741   3.094  0.6292 -0.3746  0.5107
 1831SOL     OW 7353   2.703   0.859   3.009 -0.4408  0.4996 -0.6520
 1831SOL    HW2 7354   2.708   0.953   3.028  0.1953  0.0023  1.8293
 1831SOL    HW3 7355   2.792   0.827   3.024 -0.8434 -0.6313 -0.6695
 1831SOL    MW4 7356   2.715   0.867   3.014 -0.4100  0.2848 -0.3270
 1832SOL     OW 7357   2.693   1.134   3.052  0.3614 -0.0066  0.1394
 1832SOL    HW2 7358   2.770   1.188   3.034 -0.3385  0.0766 -2.8019
 1832SOL    HW3 7359   2.619   1.185   3.020 -0.8004 -0.7256  1.5932
 1832SOL    MW4 7360   2.694   1.148   3.046  0.1157 -0.0905 -0.0569
 1833SOL     OW 7361   2.914   1.288   2.999 -0.2235  0.3859 -0.3628
 1833SOL    HW2 7362   2.972   1.241   3.058 -0.0259 -0.6716 -1.3709
 1833SOL    HW3 7363   2.908   1.377   3.035 -0.7201 -0.4514  1.6402
 1833SOL    MW4 7364   2.921   1.294   3.011 -0.2629  0.1359 -0.2315
 1834SOL     OW 7365   2.903   1.545   3.113  0.3705  0.1852  0.2478
 1834SOL    HW2 7366   2.883   1.550   3.206  1.1302  0.3171  0.4058
 1834SOL    HW3 7367   2.991   1.580   3.105 -0.3376  1.7761 -0.7662
 1834SOL    MW4 7368   2.912   1.550   3.124  0.3773  0.4125  0.1349
 1835SOL     OW 7369   2.677   1.634   2.980 -0.3345 -0.2057 -0.1276
 1835SOL    HW2 7370   2.763   1.620   3.021  0.1595 -0.0332 -1.0844
 1835SOL    HW3 7371   2.619   1.574   3.026 -0.0708  0.8768  1.6971
 1835SOL    MW4 7372   2.681   1.624   2.992 -0.2346 -0.0401 -0.0131
 1836SOL     OW 7373   2.666   1.885   3.069 -0.5921  0.4276 -0.4301
 1836SOL    HW2 7374   2.753   1.926   3.069 -0.8007  0.9161  1.2082
 1836SOL    HW3 7375   2.682   1.796   3.038  0.6282  0.2873  0.5316
 1836SOL    MW4 7376   2.680   1.878   3.065 -0.4586  0.4735 -0.0871
 1837SOL     OW 7377   2.919   2.007   3.035 -0.3783  0.0344  0.4832
 1837SOL    HW2 7378   2.917   2.098   3.063 -0.9088  0.2926 -0.3813
 1837SOL    HW3 7379   2.905   2.011   2.940 -0.1249 -0.9231  0.4041
 1837SOL    MW4 7380   2.917   2.020   3.026 -0.4149 -0.0579  0.3587
 1838SOL     OW 7381   2.915   2.286   3.081  0.3309  0.0981 -0.3882
 1838SOL    HW2 7382   2.978   2.341   3.034 -1.3213 -0.2290 -3.0029
 1838SOL    HW3 7383   2.830   2.328   3.067 -0.5369 -1.4376  0.1456
 1838SOL    MW4 7384   2.912   2.299   3.073 -0.0016 -0.1477 -0.6628
 1839SOL     OW 7385   2.692   2.432   3.024 -0.3652 -0.0931 -0.2594
 1839SOL    HW2 7386   2.678   2.521   3.058  1.5518 -0.0960  0.6251
 1839SOL    HW3 7387   2.609   2.388   3.038 -0.5365  0.7862  1.7750
 1839SOL    MW4 7388   2.679   2.438   3.031 -0.1349  0.0225  0.1258
 1840SOL     OW 7389   2.681   2.705   3.112 -0.1005  0.1494  0.0186
 1840SOL    HW2 7390   2.664   2.671   3.199 -1.0053  1.7514  0.4997
 1840SOL    HW3 7391   2.600   2.751   3.088  0.1609 -0.2004 -1.6352
 1840SOL    MW4 7392   2.668   2.707   3.120 -0.1854  0.3146 -0.1361
 1841SOL     OW 7393   2.921   2.779   2.991  0.2865 -0.3337 -0.1218
 1841SOL    HW2 7394   2.995   2.737   3.035 -1.6359 -1.8318  1.8041
 1841SOL    HW3 7395   2.844   2.731   3.022 -1.4130  0.4322 -2.9618
 1841SOL    MW4 7396   2.921   2.767   3.001 -0.1914 -0.4303 -0.2424
 1842SOL     OW 7397   2.908   3.060   3.108  0.3167  0.3458  0.2138
 1842SOL    HW2 7398   2.827   3.105   3.087  0.4771  0.4803 -0.1118
 1842SOL    HW3 7399   2.895   2.971   3.076  0.7418  0.6760 -0.8805
 1842SOL    MW4 7400   2.896   3.054   3.101  0.3939  0.4071  0.0265
 1843SOL     OW 7401   2.663   3.191   3.031 -0.3461  0.0005 -0.0317
 1843SOL    HW2 7402   2.674   3.278   3.069 -0.1023  0.0352 -0.1870
 1843SOL    HW3 7403   2.688   3.200   2.939  1.6840 -0.6977  0.4318
 1843SOL    MW4 7404   2.668   3.203   3.024 -0.0461 -0.0871  0.0089
 1844SOL     OW 7405   2.701   3.444   3.129 -0.0165 -0.0874  0.0380
 1844SOL    HW2 7406   2.711   3.438   3.224 -1.1820  0.2056  0.1876
 1844SOL    HW3 7407   2.777   3.494   3.100  1.2906 -1.7030  0.6068
 1844SOL    MW4 7408   2.712   3.450   3.138  0.0022 -0.2619  0.1328
 1845SOL     OW 7409   2.921   3.590   3.014  0.6005 -0.1671  0.3068
 1845SOL    HW2 7410   3.010   3.567   3.039  0.4681 -1.6378 -0.5120
 1845SOL    HW3 7411   2.907   3.677   3.051  2.1966 -0.1371  0.8617
 1845SOL    MW4 7412   2.931   3.598   3.022  0.7936 -0.3572  0.2720
 1846SOL     OW 7413   2.889   3.826   3.132  0.2557 -0.3120  0.3811
 1846SOL    HW2 7414   2.888   3.822   3.227 -0.9723 -1.7982  0.3142
 1846SOL    HW3 7415   2.824   3.893   3.110  0.0814 -0.4170  0.5727
 1846SOL    MW4 7416   2.880   3.835   3.142  0.0707 -0.5219  0.3976
 1847SOL     OW 7417   2.693   3.988   3.032  0.3033  0.3521 -0.1428
 1847SOL    HW2 7418   2.699   4.081   3.054  0.1902  0.6655 -1.3782
 1847SOL    HW3 7419   2.695   3.987   2.936  1.6093 -1.0001 -0.1097
 1847SOL    MW4 7420   2.694   4.000   3.022  0.4607  0.2150 -0.3014
 1848SOL     OW 7421   2.690   4.240   3.110 -0.2616  0.1740  0.8810
 1848SOL    HW2 7422   2.679   4.231   3.205 -1.4066 -1.8520  0.5895
 1848SOL    HW3 7423   2.616   4.295   3.082  0.0578  0.7433  1.1411
 1848SOL    MW4 7424   2.678   4.246   3.119 -0.3705 -0.0182  0.8768
 1849SOL     OW 7425   2.943   4.393   3.062  0.4286  0.3388  0.4516
 1849SOL    HW2 7426   3.022   4.340   3.069  0.0666 -0.3442 -0.6137
 1849SOL    HW3 7427   2.871   4.330   3.060 -0.0869  0.9169  0.4915
 1849SOL    MW4 7428   2.944   4.378   3.063  0.3128  0.3249  0.3163
 1850SOL     OW 7429   3.410   4.649   3.124 -0.1105 -0.0951  0.1073
 1850SOL    HW2 7430   3.486   4.689   3.082 -0.9805  1.0759 -0.3818
 1850SOL    HW3 7431   3.398   4.566   3.078  0.8617 -0.2761  0.1801
 1850SOL    MW4 7432   3.418   4.643   3.112 -0.0970  0.0355  0.0524
 1851SOL     OW 7433   3.170   0.114   3.017 -0.1247  0.1908 -0.6319
 1851SOL    HW2 7434   3.170   0.203   3.053 -1.1609 -0.5545  1.2653
 1851SOL    HW3 7435   3.245   0.072   3.059 -0.6765 -0.3507 -0.1846
 1851SOL    MW4 7436   3.180   0.120   3.028 -0.3342  0.0210 -0.3226
 1852SOL     OW 7437   3.171   0.379   3.122  0.0256 -0.0566 -0.5125
 1852SOL    HW2 7438   3.243   0.435   3.093 -0.0854  1.1273  1.3909
 1852SOL    HW3 7439   3.095   0.411   3.074  0.1025  1.0004  0.0570
 1852SOL    MW4 7440   3.171   0.391   3.112  0.0211  0.2391 -0.1862
 1853SOL     OW 7441   3.391   0.532   3.042  0.1155  0.4798 -0.2000
 1853SOL    HW2 7442   3.460   0.466   3.043  0.9812  1.3708  0.2252
 1853SOL    HW3 7443   3.371   0.545   2.949  1.3457  1.0524 -0.3910
 1853SOL    MW4 7444   3.397   0.525   3.030  0.3921  0.6729 -0.1691
 1854SOL     OW 7445   3.358   0.792   3.133 -0.1090 -0.0681 -0.6640
 1854SOL    HW2 7446   3.355   0.791   3.229 -2.0505 -0.5516 -0.7179
 1854SOL    HW3 7447   3.380   0.702   3.108 -0.1696 -0.0715 -0.7045
 1854SOL    MW4 7448   3.361   0.780   3.142 -0.3732 -0.1324 -0.6765
 1855SOL     OW 7449   3.154   0.901   2.993  0.3145 -0.1566 -0.2102
 1855SOL    HW2 7450   3.230   0.857   3.031  1.1901  0.5933 -1.0512
 1855SOL    HW3 7451   3.079   0.847   3.018  1.3596 -2.0825 -1.2085
 1855SOL    MW4 7452   3.154   0.888   3.001  0.5679 -0.3117 -0.4529
 1856SOL     OW 7453   3.124   1.140   3.129 -0.2103  0.0881 -0.0459
 1856SOL    HW2 7454   3.191   1.193   3.087 -0.7908  0.3294 -0.6928
 1856SOL    HW3 7455   3.141   1.051   3.098 -0.0187  0.1048  0.0119
 1856SOL    MW4 7456   3.135   1.135   3.119 -0.2616  0.1221 -0.1237
 1857SOL     OW 7457   3.347   1.234   3.001 -0.6567  0.0712  0.5478
 1857SOL    HW2 7458   3.416   1.178   3.037 -1.3672 -0.6746  0.7525
 1857SOL    HW3 7459   3.356   1.317   3.049  1.7825  0.9194 -1.2526
 1857SOL    MW4 7460   3.358   1.238   3.012 -0.4287  0.0847  0.3373
 1858SOL     OW 7461   3.358   1.490   3.144 -0.1546  0.0140 -0.5780
 1858SOL    HW2 7462   3.352   1.497   3.239 -0.3186 -0.5818 -0.5399
 1858SOL    HW3 7463   3.431   1.547   3.120 -0.5490  0.7042 -0.1705
 1858SOL    MW4 7464   3.367   1.498   3.153 -0.2283  0.0265 -0.5192
 1859SOL     OW 7465   3.145   1.599   3.022  0.1776 -0.1864 -0.2502
 1859SOL    HW2 7466   3.223   1.560   3.062  1.2268  0.2147 -1.8620
 1859SOL    HW3 7467   3.156   1.693   3.034  0.8097 -0.0190 -1.9737
 1859SOL    MW4 7468   3.157   1.606   3.029  0.3994 -0.1114 -0.6902
 1860SOL     OW 7469   3.147   1.852   3.109  0.1256  0.2302 -0.1418
 1860SOL    HW2 7470   3.140   1.847   3.204 -0.3858 -0.8221 -0.2229
 1860SOL    HW3 7471   3.067   1.896   3.080 -1.0842 -1.9482 -0.2666
 1860SOL    MW4 7472   3.136   1.857   3.117 -0.1015 -0.1961 -0.1689
 1861SOL     OW 7473   3.350   2.025   3.006 -0.2859 -0.0058  0.3539
 1861SOL    HW2 7474   3.433   1.979   3.005 -0.3191 -0.0721 -1.6277
 1861SOL    HW3 7475   3.286   1.959   3.031  0.1572 -0.1061  1.2448
 1861SOL    MW4 7476   3.352   2.011   3.009 -0.2318 -0.0277  0.2100
 1862SOL     OW 7477   3.354   2.290   3.121  0.3634 -0.5684 -0.3279
 1862SOL    HW2 7478   3.366   2.294   3.216  2.0699 -1.3247 -0.4982
 1862SOL    HW3 7479   3.361   2.197   3.099 -0.4938 -0.4474 -1.1379
 1862SOL    MW4 7480   3.357   2.279   3.131  0.4754 -0.6522 -0.4572
 1863SOL     OW 7481   3.145   2.435   2.988 -0.2368 -0.0062  0.0689
 1863SOL    HW2 7482   3.220   2.389   3.025 -0.1895  0.1460  0.1640
 1863SOL    HW3 7483   3.139   2.516   3.040 -1.1092 -0.5018  0.7537
 1863SOL    MW4 7484   3.154   2.440   3.000 -0.3456 -0.0515  0.1718
 1864SOL     OW 7485   3.143   2.672   3.100  0.0943  0.3889 -0.0049
 1864SOL    HW2 7486   3.205   2.742   3.077  0.3242  0.2444  0.1826
 1864SOL    HW3 7487   3.147   2.667   3.196 -0.4213  0.5771  0.0320
 1864SOL    MW4 7488   3.151   2.681   3.110  0.0566  0.3946  0.0247
 1865SOL     OW 7489   3.350   2.816   2.985  0.0862  0.2093  0.2048
 1865SOL    HW2 7490   3.438   2.790   3.014 -0.0576  0.9862  1.3733
 1865SOL    HW3 7491   3.346   2.910   3.004 -1.1818  0.0692  0.6569
 1865SOL    MW4 7492   3.361   2.825   2.992 -0.1001  0.2933  0.4186
 1866SOL     OW 7493   3.345   3.088   3.100  0.1330  0.0160 -0.2150
 1866SOL    HW2 7494   3.261   3.132   3.090 -0.1452 -0.4696 -0.0038
 1866SOL    HW3 7495   3.359   3.083   3.195 -0.0319 -0.7268 -0.2280
 1866SOL    MW4 7496   3.336   3.093   3.111  0.0745 -0.1460 -0.1888
 1867SOL     OW 7497   3.115   3.227   3.042 -0.1431  0.2206  0.0028
 1867SOL    HW2 7498   3.041   3.169   3.061 -0.7828  1.2307  0.6506
 1867SOL    HW3 7499   3.107   3.245   2.948  0.1137 -0.7986 -0.2211
 1867SOL    MW4 7500   3.104   3.222   3.032 -0.1937  0.2194  0.0587
 1868SOL     OW 7501   3.150   3.496   3.138 -0.1264 -0.0011 -0.1643
 1868SOL    HW2 7502   3.225   3.533   3.092 -1.8265  1.3963 -1.8963
 1868SOL    HW3 7503   3.146   3.405   3.110 -0.7601  0.6690 -2.3184
 1868SOL    MW4 7504   3.160   3.489   3.128 -0.4343  0.2717 -0.6771
 1869SOL     OW 7505   3.367   3.608   3.005  0.0487  0.0439 -0.0447
 1869SOL    HW2 7506   3.437   3.569   3.057  0.3951  0.1942 -0.3978
 1869SOL    HW3 7507   3.365   3.700   3.033 -0.6744 -0.1872  0.6877
 1869SOL    MW4 7508   3.376   3.615   3.016 -0.0010  0.0332  0.0053
 1870SOL     OW 7509   3.347   3.857   3.125  0.0416 -0.1146  0.1173
 1870SOL    HW2 7510   3.346   3.872   3.219  0.2978  0.7740 -0.0101
 1870SOL    HW3 7511   3.263   3.892   3.095 -0.4243 -1.2200  0.1339
 1870SOL    MW4 7512   3.336   3.864   3.133  0.0140 -0.1432  0.1027
 1871SOL     OW 7513   3.110   3.981   3.011 -0.2836 -0.1433 -0.0695
 1871SOL    HW2 7514   3.037   3.934   3.051 -1.2965  1.1583 -0.3542
 1871SOL    HW3 7515   3.086   3.989   2.919  0.6103 -0.4104 -0.3356
 1871SOL    MW4 7516   3.098   3.976   3.004 -0.2993 -0.0068 -0.1422
 1872SOL     OW 7517   3.167   4.252   3.090 -0.2289  0.0265 -0.7788
 1872SOL    HW2 7518   3.149   4.250   3.184  0.6215  2.3717 -0.5329
 1872SOL    HW3 7519   3.161   4.161   3.062  0.4865 -0.8156  1.7319
 1872SOL    MW4 7520   3.163   4.240   3.099 -0.0223  0.2248 -0.4151
 1873SOL     OW 7521   3.383   4.387   3.006  0.3320  0.1499  0.5484
 1873SOL    HW2 7522   3.450   4.329   3.043  0.4452 -0.7422 -0.9821
 1873SOL    HW3 7523   3.300   4.345   3.028  0.3704  0.0037  0.4164
 1873SOL    MW4 7524   3.381   4.374   3.014  0.3520  0.0129  0.3290
 1874SOL     OW 7525   3.814   4.659   3.142 -0.3348 -0.5131  0.4900
 1874SOL    HW2 7526   3.826   4.572   3.104  2.5426  0.0581 -0.0512
 1874SOL    HW3 7527   3.726   4.685   3.117 -0.1287 -2.0304 -1.9234
 1874SOL    MW4 7528   3.804   4.651   3.134  0.0720 -0.6379  0.1001
 1875SOL     OW 7529   3.611   0.111   2.997 -0.2652  0.4652  0.1802
 1875SOL    HW2 7530   3.621   0.202   3.022  2.3730  0.1679  0.3874
 1875SOL    HW3 7531   3.625   0.110   2.902  1.8274  0.0139  0.4834
 1875SOL    MW4 7532   3.614   0.123   2.988  0.3590  0.3664  0.2475
 1876SOL     OW 7533   3.593   0.369   3.106  0.0221  0.4496 -0.2077
 1876SOL    HW2 7534   3.590   0.385   3.200  0.6866  1.7986 -0.3956
 1876SOL    HW3 7535   3.663   0.426   3.074 -0.8091  0.7197 -1.6434
 1876SOL    MW4 7536   3.602   0.379   3.114  0.0001  0.6633 -0.4219
 1877SOL     OW 7537   3.818   0.491   3.024 -0.2181  0.2058 -0.0177
 1877SOL    HW2 7538   3.861   0.427   3.080  0.1595 -0.4659 -1.0718
 1877SOL    HW3 7539   3.827   0.574   3.072  1.9444  0.0155 -0.0576
 1877SOL    MW4 7540   3.825   0.494   3.038  0.1170  0.0921 -0.1620
 1878SOL     OW 7541   3.834   0.748   3.154  0.0888  0.4303 -0.2441
 1878SOL    HW2 7542   3.829   0.777   3.245  0.8603 -0.7669  0.1865
 1878SOL    HW3 7543   3.910   0.793   3.118 -0.9098  1.8302 -0.6502
 1878SOL    MW4 7544   3.843   0.758   3.161  0.0588  0.4570 -0.2409
 1879SOL     OW 7545   3.627   0.850   3.019  0.1953 -0.0351  0.1827
 1879SOL    HW2 7546   3.692   0.812   3.078 -0.5311  0.8031  1.5856
 1879SOL    HW3 7547   3.543   0.825   3.058 -0.2946  0.3107 -0.6493
 1879SOL    MW4 7548   3.624   0.842   3.032  0.0348  0.1211  0.2580
 1880SOL     OW 7549   3.554   1.109   3.122  0.0375 -0.2113 -0.2875
 1880SOL    HW2 7550   3.618   1.172   3.090 -1.4712  1.6336  0.2071
 1880SOL    HW3 7551   3.581   1.026   3.084  0.5382  1.2134 -3.1969
 1880SOL    MW4 7552   3.566   1.107   3.113 -0.0955  0.2200 -0.6061
 1881SOL     OW 7553   3.761   1.284   3.030  0.0512 -0.3409  0.1124
 1881SOL    HW2 7554   3.769   1.370   3.070  1.3449 -0.5829  0.3959
 1881SOL    HW3 7555   3.774   1.300   2.936  1.6566 -0.4163  0.3219
 1881SOL    MW4 7556   3.764   1.297   3.023  0.4337 -0.3828  0.1774
 1882SOL     OW 7557   3.769   1.528   3.136 -0.2844 -0.0615 -0.6621
 1882SOL    HW2 7558   3.778   1.551   3.229 -2.1850  0.1931 -0.5216
 1882SOL    HW3 7559   3.698   1.584   3.104 -0.1898 -0.7183 -2.0789
 1882SOL    MW4 7560   3.761   1.539   3.144 -0.5226 -0.1145 -0.8305
 1883SOL     OW 7561   3.549   1.638   3.020  0.5776 -0.0184  0.0875
 1883SOL    HW2 7562   3.553   1.732   3.038 -1.0746  0.3710 -1.3541
 1883SOL    HW3 7563   3.549   1.633   2.924  1.2865 -1.5206  0.1684
 1883SOL    MW4 7564   3.549   1.650   3.009  0.4531 -0.1652 -0.0921
 1884SOL     OW 7565   3.585   1.901   3.093  0.1139 -0.1917  0.3970
 1884SOL    HW2 7566   3.561   1.923   3.183 -0.3658  0.9670 -0.0110
 1884SOL    HW3 7567   3.663   1.952   3.076 -1.2483  1.5752 -0.6991
 1884SOL    MW4 7568   3.592   1.911   3.102 -0.1292  0.1943  0.1985
 1885SOL     OW 7569   3.828   2.039   3.028 -0.2617 -0.0018  0.6033
 1885SOL    HW2 7570   3.834   2.134   3.039  0.6275  0.0687 -0.4334
 1885SOL    HW3 7571   3.817   2.026   2.934 -2.4489 -0.8476  0.9313
 1885SOL    MW4 7572   3.827   2.050   3.017 -0.4330 -0.1041  0.5098
 1886SOL     OW 7573   3.817   2.318   3.078 -0.2794  0.4144 -0.1981
 1886SOL    HW2 7574   3.821   2.327   3.173 -0.1298 -0.3035 -0.1298
 1886SOL    HW3 7575   3.729   2.348   3.055 -1.4783 -2.4038  0.5309
 1886SOL    MW4 7576   3.806   2.323   3.088 -0.4179 -0.0522 -0.0929
 1887SOL     OW 7577   3.575   2.422   3.001 -0.1227 -0.2053  0.4593
 1887SOL    HW2 7578   3.575   2.509   3.041 -1.5038 -0.0943  0.2307
 1887SOL    HW3 7579   3.506   2.374   3.047  0.1605 -0.9563  0.1034
 1887SOL    MW4 7580   3.566   2.427   3.012 -0.2676 -0.2897  0.3822
 1888SOL     OW 7581   3.567   2.681   3.117  0.3663  0.0747  0.2260
 1888SOL    HW2 7582   3.562   2.695   3.212  2.2793 -0.1891  0.3889
 1888SOL    HW3 7583   3.643   2.733   3.090 -0.5147  0.6148 -1.2618
 1888SOL    MW4 7584   3.576   2.690   3.126  0.5025  0.1112  0.0512
 1889SOL     OW 7585   3.812   2.810   3.055  0.1536 -0.2410 -0.3430
 1889SOL    HW2 7586   3.778   2.896   3.080 -0.1200 -0.6392  0.7086
 1889SOL    HW3 7587   3.812   2.811   2.959 -0.8226  0.5480 -0.3485
 1889SOL    MW4 7588   3.808   2.822   3.046 -0.0113 -0.1895 -0.2050
 1890SOL     OW 7589   3.782   3.090   3.119  0.2192  0.2425  0.0896
 1890SOL    HW2 7590   3.855   3.136   3.078 -1.8567  0.8580 -3.1923
 1890SOL    HW3 7591   3.705   3.141   3.093 -1.4391 -0.5893  3.1382
 1890SOL    MW4 7592   3.781   3.103   3.110 -0.2735  0.2140  0.0588
 1891SOL     OW 7593   3.562   3.250   3.010 -0.3613  0.3758  0.1903
 1891SOL    HW2 7594   3.482   3.206   3.036 -0.6852  0.0285 -1.3505
 1891SOL    HW3 7595   3.565   3.242   2.915  0.9465  1.3333  0.1232
 1891SOL    MW4 7596   3.552   3.243   3.001 -0.2315  0.4563 -0.0219
 1892SOL     OW 7597   3.569   3.495   3.159 -0.0742  0.2882 -0.0748
 1892SOL    HW2 7598   3.641   3.535   3.111  0.1471 -0.6358 -0.5228
 1892SOL    HW3 7599   3.558   3.408   3.119 -1.1378  0.2474  0.2762
 1892SOL    MW4 7600   3.577   3.488   3.147 -0.1854  0.1609 -0.0876
 1893SOL     OW 7601   3.780   3.603   3.001 -0.6639  0.2457  0.1380
 1893SOL    HW2 7602   3.797   3.694   3.023  0.9844 -0.2028  0.8472
 1893SOL    HW3 7603   3.772   3.602   2.906  0.4474  0.9733  0.0255
 1893SOL    MW4 7604   3.781   3.615   2.992 -0.2998  0.2826  0.2167
 1894SOL     OW 7605   3.806   3.859   3.104  0.0382 -0.2508 -0.0116
 1894SOL    HW2 7606   3.802   3.853   3.199 -0.4435 -1.4204 -0.1021
 1894SOL    HW3 7607   3.726   3.904   3.079  0.8142  1.2856  0.2308
 1894SOL    MW4 7608   3.795   3.864   3.113  0.0770 -0.2024  0.0084
 1895SOL     OW 7609   3.565   4.000   3.020 -0.0757 -0.7461  0.2249
 1895SOL    HW2 7610   3.490   3.945   3.042 -0.5223  0.0090  0.5828
 1895SOL    HW3 7611   3.555   4.017   2.926  0.3805 -1.7487 -0.0167
 1895SOL    MW4 7612   3.554   3.995   3.010 -0.0744 -0.7787  0.2403
 1896SOL     OW 7613   3.586   4.251   3.142  0.8228  0.5224  0.1297
 1896SOL    HW2 7614   3.657   4.309   3.113 -0.2983  1.1745 -1.3473
 1896SOL    HW3 7615   3.595   4.173   3.088  0.5240  0.5388  0.0566
 1896SOL    MW4 7616   3.597   4.248   3.131  0.6355  0.6106 -0.0749
 1897SOL     OW 7617   3.816   4.404   3.008  0.3231 -0.1395 -0.3826
 1897SOL    HW2 7618   3.889   4.349   3.036  1.3084  0.8013 -1.0539
 1897SOL    HW3 7619   3.810   4.390   2.914 -0.5089 -0.3675 -0.3018
 1897SOL    MW4 7620   3.825   4.395   3.000  0.3434 -0.0454 -0.4605
 1898SOL     OW 7621   4.257   4.664   3.103 -0.2135  0.2841 -0.2660
 1898SOL    HW2 7622   4.248   4.676   3.197 -1.3139  0.3739 -0.3867
 1898SOL    HW3 7623   4.260   4.569   3.091  0.6079  0.2810 -0.0827
 1898SOL    MW4 7624   4.257   4.653   3.114 -0.2503  0.2955 -0.2577
 1899SOL     OW 7625   4.035   0.110   3.016  0.2553  0.5617 -0.2663
 1899SOL    HW2 7626   4.114   0.057   3.028  1.2959  2.1432  0.0055
 1899SOL    HW3 7627   3.966   0.060   3.059  1.1443 -0.7260 -0.2923
 1899SOL    MW4 7628   4.037   0.096   3.023  0.5099  0.6005 -0.2339
 1900SOL     OW 7629   4.027   0.343   3.151 -0.0236  0.0695 -0.3399
 1900SOL    HW2 7630   4.087   0.402   3.107  0.1603 -0.9226 -1.4524
 1900SOL    HW3 7631   4.038   0.259   3.106 -0.9429 -0.5738  0.6013
 1900SOL    MW4 7632   4.036   0.340   3.139 -0.1206 -0.1463 -0.3625
 1901SOL     OW 7633   4.225   0.508   3.019  0.1430  0.3542 -0.2170
 1901SOL    HW2 7634   4.241   0.598   3.048 -0.7605  0.0928  1.1326
 1901SOL    HW3 7635   4.240   0.510   2.925  0.6227  1.8100 -0.1174
 1901SOL    MW4 7636   4.229   0.520   3.011  0.0871  0.5118 -0.0258
 1902SOL     OW 7637   4.247   0.763   3.126 -0.0168 -0.4194 -0.2580
 1902SOL    HW2 7638   4.160   0.792   3.098 -0.3759 -3.2436 -2.4090
 1902SOL    HW3 7639   4.307   0.827   3.087 -1.0027  0.1802 -0.8250
 1902SOL    MW4 7640   4.244   0.775   3.117 -0.1942 -0.7129 -0.6166
 1903SOL     OW 7641   4.025   0.926   3.026  0.1416  0.1013  0.2939
 1903SOL    HW2 7642   4.043   1.017   3.049  1.9079 -0.2333  0.3174
 1903SOL    HW3 7643   4.022   0.925   2.931 -0.6652  0.3290  0.3191
 1903SOL    MW4 7644   4.027   0.938   3.017  0.2682  0.0872  0.3003
 1904SOL     OW 7645   4.022   1.190   3.116  0.0165  0.9235  0.0829
 1904SOL    HW2 7646   4.010   1.185   3.211  0.3071  0.7054  0.1105
 1904SOL    HW3 7647   3.937   1.219   3.082 -0.8411 -1.3301  0.2137
 1904SOL    MW4 7648   4.009   1.193   3.124 -0.0583  0.5974  0.1038
 1905SOL     OW 7649   4.278   1.275   3.019  0.4584  0.5577  0.1721
 1905SOL    HW2 7650   4.197   1.234   3.052  0.6391  0.7975  0.9262
 1905SOL    HW3 7651   4.266   1.279   2.925 -0.5097  0.7878  0.2982
 1905SOL    MW4 7652   4.266   1.270   3.011  0.3545  0.6197  0.2883
 1906SOL     OW 7653   4.211   1.536   3.088 -0.1171  0.2958 -0.1959
 1906SOL    HW2 7654   4.124   1.561   3.058  0.2315  1.0519 -0.5703
 1906SOL    HW3 7655   4.223   1.447   3.053  0.1427  1.0162 -1.9869
 1906SOL    MW4 7656   4.201   1.527   3.080 -0.0368  0.4906 -0.4816
 1907SOL     OW 7657   3.963   1.640   2.988  0.3423  0.7068 -0.3298
 1907SOL    HW2 7658   3.977   1.724   3.032 -0.1551  0.9979 -0.7191
 1907SOL    HW3 7659   3.893   1.598   3.038 -0.2994  1.0862 -0.9055
 1907SOL    MW4 7660   3.956   1.646   3.000  0.1920  0.7953 -0.4571
 1908SOL     OW 7661   4.030   1.874   3.132 -0.5265  0.5020  0.1408
 1908SOL    HW2 7662   4.111   1.918   3.106 -0.5300  1.0048  0.9840
 1908SOL    HW3 7663   3.960   1.925   3.090 -0.4123  0.0116 -0.6660
 1908SOL    MW4 7664   4.031   1.887   3.123 -0.5119  0.5036  0.1456
 1909SOL     OW 7665   4.261   1.999   3.046  0.1576  0.4095 -0.2295
 1909SOL    HW2 7666   4.259   2.095   3.051  0.1687  0.3538  1.0509
 1909SOL    HW3 7667   4.259   1.980   2.952 -0.8589  1.6421 -0.4841
 1909SOL    MW4 7668   4.260   2.009   3.034  0.0249  0.5648 -0.0941
 1910SOL     OW 7669   4.269   2.284   3.058 -0.4552 -0.4167 -0.3679
 1910SOL    HW2 7670   4.191   2.334   3.035 -0.4804  0.0204  0.6301
 1910SOL    HW3 7671   4.342   2.340   3.030 -0.4934 -0.4586 -0.5522
 1910SOL    MW4 7672   4.269   2.298   3.052 -0.4635 -0.3646 -0.2605
 1911SOL     OW 7673   4.051   2.436   3.007  0.0182 -0.1700  0.2754
 1911SOL    HW2 7674   4.054   2.521   3.051  0.6721 -1.2933  2.4858
 1911SOL    HW3 7675   3.962   2.404   3.024 -0.4421  0.3215 -1.1083
 1911SOL    MW4 7676   4.039   2.443   3.015  0.0437 -0.2534  0.3845
 1912SOL     OW 7677   4.045   2.687   3.111  0.5509 -0.6572  0.0001
 1912SOL    HW2 7678   4.048   2.700   3.206 -0.1428  0.9510 -0.1763
 1912SOL    HW3 7679   3.960   2.723   3.085  0.1325 -2.3429 -1.0588
 1912SOL    MW4 7680   4.034   2.694   3.120  0.4042 -0.6674 -0.1629
 1913SOL     OW 7681   4.250   2.821   3.002 -0.0047 -0.3833  0.6082
 1913SOL    HW2 7682   4.186   2.766   3.047  0.9289 -0.7957  1.4600
 1913SOL    HW3 7683   4.332   2.804   3.048 -0.0290  3.1092  2.0726
 1913SOL    MW4 7684   4.252   2.811   3.014  0.1153  0.0231  0.9138
 1914SOL     OW 7685   4.244   3.079   3.066  0.1475 -0.1622  0.3794
 1914SOL    HW2 7686   4.160   3.116   3.040  0.3008 -0.6040 -0.7846
 1914SOL    HW3 7687   4.238   2.987   3.041  0.3928 -0.5474  1.7278
 1914SOL    MW4 7688   4.232   3.072   3.059  0.2001 -0.2713  0.4037
 1915SOL     OW 7689   4.011   3.202   3.003  0.4088  0.1935 -0.4740
 1915SOL    HW2 7690   4.017   3.293   3.031  2.1741  0.1000 -0.4857
 1915SOL    HW3 7691   4.010   3.206   2.907 -0.3720  0.2357 -0.4687
 1915SOL    MW4 7692   4.012   3.214   2.994  0.5387  0.1867 -0.4749
 1916SOL     OW 7693   4.009   3.478   3.109  0.0627  0.2793  0.1590
 1916SOL    HW2 7694   3.993   3.463   3.203  0.2958 -1.6399 -0.1024
 1916SOL    HW3 7695   3.930   3.523   3.079  0.2924  1.5731  1.4144
 1916SOL    MW4 7696   3.996   3.482   3.118  0.1238  0.1968  0.2902
 1917SOL     OW 7697   4.253   3.603   3.020 -0.1460  0.5208  0.1238
 1917SOL    HW2 7698   4.240   3.685   3.067  1.5676  0.3919  0.8344
 1917SOL    HW3 7699   4.176   3.550   3.044 -0.6780  1.4786  0.5584
 1917SOL    MW4 7700   4.241   3.607   3.029  0.0099  0.6301  0.2749
 1918SOL     OW 7701   4.237   3.878   3.144  0.1799  0.3979  0.0862
 1918SOL    HW2 7702   4.164   3.916   3.094 -0.2364 -2.5820 -1.7056
 1918SOL    HW3 7703   4.314   3.924   3.112 -0.4577  0.6911 -1.0887
 1918SOL    MW4 7704   4.238   3.889   3.133  0.0409  0.0434 -0.3052
 1919SOL     OW 7705   4.032   3.984   2.993 -0.3614  0.1973  0.1103
 1919SOL    HW2 7706   4.031   4.070   3.036 -0.5560  0.9091 -1.2996
 1919SOL    HW3 7707   3.957   3.938   3.030 -0.5877  0.8374  0.4549
 1919SOL    MW4 7708   4.022   3.990   3.004 -0.4169  0.3757 -0.0302
 1920SOL     OW 7709   4.025   4.251   3.105  0.8819 -0.4824 -0.0750
 1920SOL    HW2 7710   4.016   4.264   3.200 -1.1990  0.1013 -0.3348
 1920SOL    HW3 7711   4.102   4.302   3.081 -0.3609  1.8761  0.8300
 1920SOL    MW4 7712   4.034   4.259   3.114  0.4434 -0.0942  0.0101
 1921SOL     OW 7713   4.257   4.402   3.014 -0.5083 -0.4638 -0.0008
 1921SOL    HW2 7714   4.330   4.344   3.033 -0.2720  0.1116  0.9142
 1921SOL    HW3 7715   4.251   4.405   2.919  1.6212  0.6800 -0.1164
 1921SOL    MW4 7716   4.266   4.395   3.004 -0.1962 -0.2370  0.1047
 1922SOL     OW 7717   0.189   4.652   3.383  0.1790  0.2161  0.4963
 1922SOL    HW2 7718   0.267   4.707   3.386  0.2815  0.0892  0.1365
 1922SOL    HW3 7719   0.217   4.570   3.424  0.6195 -0.3076 -0.8257
 1922SOL    MW4 7720   0.203   4.648   3.389  0.2506  0.1303  0.2744
 1923SOL     OW 7721   4.486   0.121   3.533 -0.3932  0.6247 -0.2709
 1923SOL    HW2 7722   4.492   0.206   3.491 -0.8886  0.6182 -0.3562
 1923SOL    HW3 7723   4.561   0.072   3.498 -0.4309  0.8337 -0.6491
 1923SOL    MW4 7724   4.497   0.126   3.523 -0.4635  0.6514 -0.3320
 1924SOL     OW 7725   4.482   0.371   3.401  0.4736 -0.1344 -0.2556
 1924SOL    HW2 7726   4.406   0.409   3.445  0.8772  0.3987 -0.0024
 1924SOL    HW3 7727   4.555   0.427   3.428  0.8406 -0.2193 -1.0515
 1924SOL    MW4 7728   4.482   0.384   3.410  0.5753 -0.0753 -0.3272
 1925SOL     OW 7729   0.220   0.524   3.454 -0.0573  0.1787  0.5358
 1925SOL    HW2 7730   0.291   0.488   3.400  0.3055  1.6497  0.0108
 1925SOL    HW3 7731   0.201   0.609   3.415 -1.7355  0.0471  1.0299
 1925SOL    MW4 7732   0.227   0.530   3.441 -0.2308  0.3554  0.5317
 1926SOL     OW 7733   0.165   0.765   3.355 -0.2833 -0.7056  0.2589
 1926SOL    HW2 7734   0.239   0.814   3.390 -0.0798 -0.6628 -0.2290
 1926SOL    HW3 7735   0.089   0.798   3.403  0.0750 -1.0704  1.0727
 1926SOL    MW4 7736   0.165   0.776   3.366 -0.2091 -0.7481  0.3019
 1927SOL     OW 7737   4.462   0.882   3.523 -0.2324 -0.2433 -0.2575
 1927SOL    HW2 7738   4.474   0.880   3.618 -0.2098 -0.4708 -0.2639
 1927SOL    HW3 7739   4.452   0.974   3.502 -0.8099 -0.2368  0.0405
 1927SOL    MW4 7740   4.462   0.894   3.533 -0.3056 -0.2724 -0.2191
 1928SOL     OW 7741   4.470   1.140   3.435  0.6568 -0.1392  0.2563
 1928SOL    HW2 7742   4.538   1.200   3.465  0.4019  0.2373  0.0867
 1928SOL    HW3 7743   4.485   1.132   3.341 -0.3062  0.9417  0.0009
 1928SOL    MW4 7744   4.481   1.147   3.426  0.4961  0.0531  0.2002
 1929SOL     OW 7745   0.205   1.328   3.473  0.6299  0.3036  0.3090
 1929SOL    HW2 7746   0.234   1.332   3.564 -0.4028 -0.4836  0.6795
 1929SOL    HW3 7747   0.213   1.418   3.441  2.3603  0.3166  0.7492
 1929SOL    MW4 7748   0.210   1.340   3.481  0.7220  0.2015  0.4160
 1930SOL     OW 7749   0.202   1.583   3.366  0.6680  0.1115  0.0975
 1930SOL    HW2 7750   0.284   1.617   3.403  0.3941 -0.2162  1.0164
 1930SOL    HW3 7751   0.208   1.603   3.273  2.1982 -0.6871 -0.0046
 1930SOL    MW4 7752   0.214   1.590   3.359  0.8338 -0.0371  0.2052
 1931SOL     OW 7753   4.460   1.655   3.530 -0.5207 -0.2614  0.0372
 1931SOL    HW2 7754   4.396   1.597   3.488 -0.5717  0.0054 -0.2500
 1931SOL    HW3 7755   4.539   1.645   3.477 -0.4649 -0.2290  0.1148
 1931SOL    MW4 7756   4.462   1.646   3.517 -0.5201 -0.2219  0.0095
 1932SOL     OW 7757   4.472   1.925   3.422  0.6772 -0.2461  0.1367
 1932SOL    HW2 7758   4.456   1.833   3.441 -0.6724 -0.0800 -0.1452
 1932SOL    HW3 7759   4.471   1.930   3.326  0.8442  0.0431  0.1503
 1932SOL    MW4 7760   4.470   1.914   3.412  0.5211 -0.1860  0.1013
 1933SOL     OW 7761   0.243   2.017   3.504  0.0516 -0.7141 -0.1631
 1933SOL    HW2 7762   0.153   1.987   3.492  0.2671 -0.9538 -1.2827
 1933SOL    HW3 7763   0.255   2.021   3.599 -1.3967  0.0974 -0.0018
 1933SOL    MW4 7764   0.232   2.014   3.515 -0.1111 -0.6387 -0.2895
 1934SOL     OW 7765   0.234   2.277   3.423 -0.0309  0.3150  0.3254
 1934SOL    HW2 7766   0.149   2.315   3.444  0.4432  0.7239  1.5713
 1934SOL    HW3 7767   0.231   2.188   3.458 -0.4187 -0.1419 -0.8276
 1934SOL    MW4 7768   0.223   2.270   3.430 -0.0195  0.3087  0.3376
 1935SOL     OW 7769   4.488   2.400   3.463  0.0250 -0.4318  0.5296
 1935SOL    HW2 7770   4.470   2.395   3.557  0.7821 -0.8491  0.6503
 1935SOL    HW3 7771   4.411   2.360   3.422 -1.0351  1.1545  0.8991
 1935SOL    MW4 7772   4.475   2.394   3.470 -0.0150 -0.2776  0.5942
 1936SOL     OW 7773   0.003   2.683   3.399  0.3028 -0.0697  0.6165
 1936SOL    HW2 7774   0.075   2.726   3.444  1.0513  0.4244 -1.0182
 1936SOL    HW3 7775   0.009   2.591   3.426  0.3882  0.3215  1.9495
 1936SOL    MW4 7776   0.013   2.676   3.408  0.4128  0.0472  0.5767
 1937SOL     OW 7777   0.226   2.830   3.496  0.3128  0.4790  0.3495
 1937SOL    HW2 7778   0.307   2.783   3.474 -1.0564 -0.6823 -2.4541
 1937SOL    HW3 7779   0.241   2.919   3.465  0.2900  0.1021 -0.7616
 1937SOL    MW4 7780   0.239   2.836   3.489  0.1291  0.2761 -0.1670
 1938SOL     OW 7781   0.229   3.094   3.397  0.5369  0.5508  0.8175
 1938SOL    HW2 7782   0.153   3.152   3.411  0.2181  0.3268  0.0572
 1938SOL    HW3 7783   0.243   3.096   3.303 -1.3706 -2.9914  0.3670
 1938SOL    MW4 7784   0.221   3.102   3.387  0.2431  0.0539  0.6577
 1939SOL     OW 7785   0.017   3.269   3.482 -0.3029  0.0843 -0.2596
 1939SOL    HW2 7786  -0.046   3.230   3.422 -1.0985  0.7288  0.1392
 1939SOL    HW3 7787  -0.008   3.362   3.487  0.4656  0.2739  0.1566
 1939SOL    MW4 7788   0.005   3.276   3.475 -0.3065  0.1944 -0.1521
 1940SOL     OW 7789   4.462   3.530   3.438 -0.2953 -0.1929  0.7444
 1940SOL    HW2 7790   4.377   3.561   3.469  0.0987  1.5396  0.1014
 1940SOL    HW3 7791   4.448   3.511   3.345  0.0744  0.3036  0.5861
 1940SOL    MW4 7792   4.449   3.531   3.430 -0.1945  0.1012  0.6387
 1941SOL     OW 7793   0.221   3.619   3.504 -0.4457 -0.1734 -0.2874
 1941SOL    HW2 7794   0.225   3.632   3.599  1.3703 -0.7336 -0.2623
 1941SOL    HW3 7795   0.132   3.591   3.487 -0.3773 -1.5193  1.4700
 1941SOL    MW4 7796   0.210   3.617   3.514 -0.1971 -0.4249 -0.0522
 1942SOL     OW 7797   0.196   3.891   3.385  0.2865  0.2574  0.0060
 1942SOL    HW2 7798   0.112   3.929   3.412  0.5921  0.7122  0.3140
 1942SOL    HW3 7799   0.191   3.800   3.413 -0.1495  0.2546 -0.0731
 1942SOL    MW4 7800   0.184   3.884   3.392  0.2693  0.3170  0.0362
 1943SOL     OW 7801   4.459   4.006   3.490  0.0143  0.9103 -0.2858
 1943SOL    HW2 7802   4.488   4.009   3.581  0.8535  0.8895 -0.5452
 1943SOL    HW3 7803   4.461   4.097   3.461 -0.9821  1.0090 -0.0665
 1943SOL    MW4 7804   4.463   4.018   3.498 -0.0064  0.9205 -0.2911
 1944SOL     OW 7805   4.475   4.268   3.378  0.4593  0.4044  0.1517
 1944SOL    HW2 7806   4.405   4.332   3.392  0.8637  0.9347 -0.2302
 1944SOL    HW3 7807   4.550   4.304   3.424  0.5080 -0.1283  0.4955
 1944SOL    MW4 7808   4.475   4.281   3.386  0.5191  0.4041  0.1467
 1945SOL     OW 7809   0.197   4.388   3.516  0.1479 -0.5685  0.0618
 1945SOL    HW2 7810   0.207   4.387   3.611 -0.3908 -0.3871  0.1238
 1945SOL    HW3 7811   0.277   4.348   3.483  0.5660 -0.1571  0.5678
 1945SOL    MW4 7812   0.209   4.382   3.524  0.1320 -0.4903  0.1367
 1946SOL     OW 7813   0.668   0.038   3.351 -0.3978  0.2052  0.0145
 1946SOL    HW2 7814   0.752   0.066   3.387  0.0888 -0.4920 -0.5602
 1946SOL    HW3 7815   0.680   0.041   3.256 -1.7934  2.3833 -0.1291
 1946SOL    MW4 7816   0.681   0.042   3.343 -0.5178  0.4006 -0.0803
 1947SOL     OW 7817   0.413   0.146   3.420 -0.1837 -0.0356  0.2214
 1947SOL    HW2 7818   0.399   0.138   3.515  0.0997  2.6739  0.5240
 1947SOL    HW3 7819   0.495   0.099   3.404 -0.2473 -0.5421  1.3092
 1947SOL    MW4 7820   0.422   0.139   3.431 -0.1547  0.2551  0.4049
 1948SOL     OW 7821   0.415   0.400   3.309 -0.5044  0.0105  0.4286
 1948SOL    HW2 7822   0.495   0.448   3.330  0.2289  0.0514 -2.2497
 1948SOL    HW3 7823   0.425   0.316   3.354  0.4575  0.5022  1.1428
 1948SOL    MW4 7824   0.427   0.395   3.317 -0.2808  0.0808  0.1695
 1949SOL     OW 7825   0.648   0.498   3.419  0.0365  0.3303  0.2408
 1949SOL    HW2 7826   0.641   0.496   3.515 -0.0232  0.9638  0.2509
 1949SOL    HW3 7827   0.722   0.440   3.399 -0.3961 -0.3562  0.6227
 1949SOL    MW4 7828   0.657   0.491   3.429 -0.0284  0.3233  0.2925
 1950SOL     OW 7829   0.629   0.782   3.361  0.3149 -0.0416 -0.1648
 1950SOL    HW2 7830   0.556   0.824   3.408  0.8173  0.1491  0.4556
 1950SOL    HW3 7831   0.630   0.692   3.393  0.5898  0.0599  0.1227
 1950SOL    MW4 7832   0.620   0.776   3.372  0.4174 -0.0030 -0.0450
 1951SOL     OW 7833   0.402   0.885   3.457 -0.0482  0.1156 -0.5548
 1951SOL    HW2 7834   0.419   0.883   3.551  0.7720 -1.4719 -0.7260
 1951SOL    HW3 7835   0.418   0.976   3.432  0.9969  0.2655  0.6150
 1951SOL    MW4 7836   0.406   0.897   3.466  0.1979 -0.0741 -0.4230
 1952SOL     OW 7837   0.423   1.168   3.392 -0.1897 -0.1507  0.2116
 1952SOL    HW2 7838   0.342   1.212   3.416  0.8872  1.8659  0.3501
 1952SOL    HW3 7839   0.419   1.160   3.296 -0.3148  0.4670  0.1613
 1952SOL    MW4 7840   0.412   1.173   3.382 -0.0641  0.1969  0.2232
 1953SOL     OW 7841   0.640   1.291   3.484 -0.0741  0.3318 -0.2831
 1953SOL    HW2 7842   0.558   1.244   3.470  0.3691 -0.2287 -0.9993
 1953SOL    HW3 7843   0.633   1.368   3.429 -0.9006  1.2532  1.0690
 1953SOL    MW4 7844   0.628   1.295   3.475 -0.1247  0.3794 -0.1992
 1954SOL     OW 7845   0.666   1.536   3.374 -0.0112  0.2263  0.1814
 1954SOL    HW2 7846   0.737   1.573   3.426  0.8433 -0.2023 -0.6647
 1954SOL    HW3 7847   0.586   1.565   3.418  0.6921 -0.4730  1.9912
 1954SOL    MW4 7848   0.664   1.545   3.387  0.1944  0.0775  0.3086
 1955SOL     OW 7849   0.429   1.677   3.484  0.3893  0.1849  0.0209
 1955SOL    HW2 7850   0.418   1.676   3.580 -2.5648  1.7178 -0.2327
 1955SOL    HW3 7851   0.458   1.766   3.465  1.2441 -0.2036 -0.4994
 1955SOL    MW4 7852   0.432   1.689   3.494  0.1123  0.3359 -0.0812
 1956SOL     OW 7853   0.492   1.928   3.418 -0.2009  0.2704  0.2780
 1956SOL    HW2 7854   0.410   1.971   3.444  0.0484  0.1043  1.3630
 1956SOL    HW3 7855   0.491   1.931   3.322 -2.4705 -1.5764  0.1905
 1956SOL    MW4 7856   0.481   1.934   3.409 -0.4674  0.0048  0.4096
 1957SOL     OW 7857   0.683   2.083   3.518  0.3797 -0.1243  0.2716
 1957SOL    HW2 7858   0.711   2.056   3.606 -1.8073 -0.6760  0.8375
 1957SOL    HW3 7859   0.607   2.027   3.499 -1.9058  2.9673 -0.1079
 1957SOL    MW4 7860   0.677   2.072   3.527 -0.2104  0.2108  0.2962
 1958SOL     OW 7861   0.655   2.340   3.388 -0.1033  0.6982 -0.0466
 1958SOL    HW2 7862   0.719   2.391   3.439 -0.0050  0.5270  0.0022
 1958SOL    HW3 7863   0.665   2.250   3.421  0.4997  0.4436 -0.8990
 1958SOL    MW4 7864   0.665   2.335   3.399 -0.0108  0.6420 -0.1526
 1959SOL     OW 7865   0.442   2.450   3.516 -0.2528  0.2201  0.6285
 1959SOL    HW2 7866   0.510   2.404   3.467 -0.8473  0.4208 -0.4058
 1959SOL    HW3 7867   0.361   2.403   3.495 -1.0757  2.4600 -1.4509
 1959SOL    MW4 7868   0.440   2.437   3.507 -0.4398  0.5421  0.2177
 1960SOL     OW 7869   0.471   2.699   3.422 -0.4927 -0.2491  0.4981
 1960SOL    HW2 7870   0.446   2.608   3.438  0.7570 -0.5651  0.7304
 1960SOL    HW3 7871   0.453   2.712   3.329 -1.6064 -0.4196  0.6791
 1960SOL    MW4 7872   0.465   2.688   3.412 -0.4748 -0.3133  0.5526
 1961SOL     OW 7873   0.696   2.843   3.502  0.2688  0.4388  0.0083
 1961SOL    HW2 7874   0.772   2.803   3.460  0.4451 -0.3308  1.0404
 1961SOL    HW3 7875   0.621   2.797   3.465  0.4649 -0.7885  1.1136
 1961SOL    MW4 7876   0.696   2.832   3.491  0.3179  0.1753  0.2903
 1962SOL     OW 7877   0.683   3.098   3.403  0.3666  0.3246 -0.3461
 1962SOL    HW2 7878   0.607   3.153   3.422 -0.5336 -0.2623 -2.1782
 1962SOL    HW3 7879   0.659   3.012   3.437  0.7272  0.4387  0.2011
 1962SOL    MW4 7880   0.670   3.094   3.410  0.2954  0.2622 -0.5157
 1963SOL     OW 7881   0.457   3.226   3.510 -0.0069  0.3529 -0.1451
 1963SOL    HW2 7882   0.450   3.215   3.605  0.7492 -0.0467 -0.1332
 1963SOL    HW3 7883   0.371   3.201   3.476  0.1771 -0.9365  0.3093
 1963SOL    MW4 7884   0.445   3.221   3.518  0.1171  0.1301 -0.0836
 1964SOL     OW 7885   0.451   3.495   3.423 -0.7042  0.2890 -0.2408
 1964SOL    HW2 7886   0.456   3.418   3.479  0.8237 -0.2987 -1.1695
 1964SOL    HW3 7887   0.378   3.546   3.459 -1.7457 -1.5927  0.3581
 1964SOL    MW4 7888   0.442   3.492   3.435 -0.6401 -0.0368 -0.2843
 1965SOL     OW 7889   0.668   3.630   3.501 -0.1952  0.6357  0.0839
 1965SOL    HW2 7890   0.743   3.571   3.487 -0.3151  0.0425  1.7938
 1965SOL    HW3 7891   0.593   3.582   3.466 -0.2815 -0.2221  1.4181
 1965SOL    MW4 7892   0.668   3.616   3.495 -0.2224  0.4443  0.4855
 1966SOL     OW 7893   0.663   3.879   3.391  0.8441  0.2187 -0.3357
 1966SOL    HW2 7894   0.581   3.917   3.421 -0.1832 -0.3983 -2.2665
 1966SOL    HW3 7895   0.662   3.790   3.424  0.9684  0.3458  0.0215
 1966SOL    MW4 7896   0.652   3.873   3.399  0.7250  0.1540 -0.5433
 1967SOL     OW 7897   0.427   3.995   3.484  0.4120 -0.5616  0.0208
 1967SOL    HW2 7898   0.433   4.088   3.460  0.3218 -0.2859  1.0632
 1967SOL    HW3 7899   0.343   3.967   3.447  0.0925 -0.0430  0.3440
 1967SOL    MW4 7900   0.417   4.004   3.476  0.3579 -0.4568  0.2010
 1968SOL     OW 7901   0.438   4.294   3.413 -0.0245 -0.1264  0.0783
 1968SOL    HW2 7902   0.519   4.324   3.453  0.3102 -2.1626  1.0265
 1968SOL    HW3 7903   0.456   4.294   3.319  0.7713  0.2573  0.2263
 1968SOL    MW4 7904   0.451   4.298   3.405  0.1247 -0.3444  0.2229
 1969SOL     OW 7905   0.658   4.461   3.477  0.2185  0.1593 -0.5190
 1969SOL    HW2 7906   0.717   4.405   3.427  0.4999  1.2981 -1.4683
 1969SOL    HW3 7907   0.649   4.540   3.425 -0.8814  0.6521  0.3897
 1969SOL    MW4 7908   0.664   4.464   3.464  0.1105  0.3745 -0.5244
 1970SOL     OW 7909   1.099   4.652   3.398  0.0381  0.3906 -0.2252
 1970SOL    HW2 7910   1.181   4.682   3.436  0.4697 -0.5254 -0.4202
 1970SOL    HW3 7911   1.109   4.667   3.304  1.0225 -2.0699 -0.5618
 1970SOL    MW4 7912   1.111   4.658   3.390  0.2249 -0.0549 -0.2953
 1971SOL     OW 7913   0.884   0.131   3.483 -0.1705 -0.7989  0.0825
 1971SOL    HW2 7914   0.885   0.129   3.579  0.9161  0.1938  0.1061
 1971SOL    HW3 7915   0.955   0.071   3.457 -1.0459 -1.7631 -0.1306
 1971SOL    MW4 7916   0.893   0.123   3.492 -0.1426 -0.7951  0.0575
 1972SOL     OW 7917   0.879   0.360   3.359 -0.2248 -0.2309 -0.3742
 1972SOL    HW2 7918   0.942   0.418   3.401 -1.8111  0.3709  1.2531
 1972SOL    HW3 7919   0.881   0.280   3.411  0.1257 -0.6888 -1.0918
 1972SOL    MW4 7920   0.887   0.357   3.371 -0.3879 -0.2119 -0.2541
 1973SOL     OW 7921   1.113   0.479   3.469  0.3847  0.5085  0.4623
 1973SOL    HW2 7922   1.138   0.491   3.561 -0.5342 -0.5838  0.8531
 1973SOL    HW3 7923   1.090   0.568   3.439  0.1434  0.7782  1.4402
 1973SOL    MW4 7924   1.113   0.493   3.477  0.2316  0.4000  0.6429
 1974SOL     OW 7925   1.065   0.729   3.352 -0.1897 -0.1690 -0.0521
 1974SOL    HW2 7926   1.149   0.761   3.384 -0.2089 -1.5050  1.4331
 1974SOL    HW3 7927   1.000   0.787   3.394 -0.0806 -0.1316  0.0656
 1974SOL    MW4 7928   1.067   0.741   3.362 -0.1779 -0.3403  0.1594
 1975SOL     OW 7929   0.869   0.884   3.475  0.3976 -0.5165 -0.1961
 1975SOL    HW2 7930   0.859   0.973   3.443 -1.8681  0.1394  2.1741
 1975SOL    HW3 7931   0.790   0.839   3.445  0.0496 -0.8760  1.2219
 1975SOL    MW4 7932   0.857   0.890   3.467  0.0528 -0.4774  0.3037
 1976SOL     OW 7933   0.868   1.147   3.396 -0.0324 -0.5459  0.6507
 1976SOL    HW2 7934   0.940   1.194   3.438  0.9630  0.3256 -1.8752
 1976SOL    HW3 7935   0.790   1.176   3.443  0.7802  2.1294  0.4885
 1976SOL    MW4 7936   0.867   1.157   3.407  0.2061 -0.0779  0.2960
 1977SOL     OW 7937   1.090   1.247   3.490  0.2699 -0.1740 -0.0953
 1977SOL    HW2 7938   1.106   1.240   3.584  0.7693 -0.3619 -0.1964
 1977SOL    HW3 7939   1.079   1.341   3.474 -0.0471 -0.1621  0.1863
 1977SOL    MW4 7940   1.091   1.259   3.500  0.2940 -0.1972 -0.0715
 1978SOL     OW 7941   1.066   1.515   3.394 -0.0310  0.0491  0.1069
 1978SOL    HW2 7942   1.153   1.540   3.422  0.0321  0.2135 -0.2372
 1978SOL    HW3 7943   1.068   1.521   3.298 -0.1051 -0.9587  0.0339
 1978SOL    MW4 7944   1.077   1.519   3.385 -0.0324 -0.0621  0.0518
 1979SOL     OW 7945   0.860   1.663   3.521  0.3015  0.0519 -0.1419
 1979SOL    HW2 7946   0.843   1.751   3.486 -1.9786 -0.4720 -0.3963
 1979SOL    HW3 7947   0.939   1.635   3.475 -0.4625  0.9231 -2.0819
 1979SOL    MW4 7948   0.868   1.671   3.510 -0.1001  0.0977 -0.4314
 1980SOL     OW 7949   0.858   1.895   3.381 -0.4740  0.0223  0.6192
 1980SOL    HW2 7950   0.935   1.922   3.431 -0.3846  0.3882  0.2887
 1980SOL    HW3 7951   0.789   1.955   3.408  0.0442  1.4052 -1.0278
 1980SOL    MW4 7952   0.859   1.906   3.391 -0.3938  0.2530  0.3583
 1981SOL     OW 7953   1.109   2.004   3.476  0.3083 -0.0628 -0.3165
 1981SOL    HW2 7954   1.195   1.979   3.441  0.4643  0.9285 -0.6540
 1981SOL    HW3 7955   1.092   2.090   3.438 -0.7555 -0.1771 -0.0982
 1981SOL    MW4 7956   1.118   2.012   3.466  0.1885  0.0529 -0.3322
 1982SOL     OW 7957   1.072   2.269   3.377 -0.7303  0.4991  0.1342
 1982SOL    HW2 7958   1.136   2.314   3.433  1.1470 -0.7360 -0.9927
 1982SOL    HW3 7959   1.107   2.278   3.289 -0.1052 -3.4327 -0.1111
 1982SOL    MW4 7960   1.085   2.276   3.373 -0.4002 -0.1826 -0.0468
 1983SOL     OW 7961   0.887   2.452   3.498 -0.2380  0.2265 -0.0603
 1983SOL    HW2 7962   0.895   2.424   3.589 -0.7332  1.7650  0.4765
 1983SOL    HW3 7963   0.960   2.410   3.453  0.8521  0.5767  1.3385
 1983SOL    MW4 7964   0.897   2.443   3.504 -0.1595  0.4757  0.1951
 1984SOL     OW 7965   0.906   2.712   3.369  0.3231 -0.4317  0.0112
 1984SOL    HW2 7966   0.995   2.742   3.384  0.1235 -0.1434  0.6112
 1984SOL    HW3 7967   0.901   2.628   3.414 -0.4125  0.6463  1.9721
 1984SOL    MW4 7968   0.917   2.705   3.377  0.1997 -0.2515  0.3491
 1985SOL     OW 7969   1.107   2.843   3.499  0.2987  0.3574 -0.1325
 1985SOL    HW2 7970   1.108   2.829   3.593 -0.2517  1.4884  0.0439
 1985SOL    HW3 7971   1.184   2.795   3.467  0.0769 -0.6297  0.7930
 1985SOL    MW4 7972   1.117   2.834   3.507  0.1968  0.3764  0.0129
 1986SOL     OW 7973   1.091   3.099   3.439 -0.2599 -0.2292  0.1118
 1986SOL    HW2 7974   1.084   3.008   3.469 -2.1891 -0.2077 -0.1860
 1986SOL    HW3 7975   1.083   3.094   3.344 -0.2174  0.2299  0.0822
 1986SOL    MW4 7976   1.089   3.087   3.431 -0.5088 -0.1658  0.0686
 1987SOL     OW 7977   0.871   3.247   3.522 -0.2079  0.3819  1.0115
 1987SOL    HW2 7978   0.948   3.198   3.493 -0.4849 -0.5461  1.8285
 1987SOL    HW3 7979   0.797   3.200   3.483 -0.3677  1.2188  0.3000
 1987SOL    MW4 7980   0.872   3.234   3.513 -0.2655  0.3699  1.0254
 1988SOL     OW 7981   0.915   3.491   3.429 -0.5245 -0.3468  0.0024
 1988SOL    HW2 7982   0.887   3.404   3.458 -2.5410  0.2244 -0.1974
 1988SOL    HW3 7983   0.915   3.485   3.333  0.7986 -0.5645  0.0041
 1988SOL    MW4 7984   0.911   3.479   3.420 -0.6159 -0.3002 -0.0238
 1989SOL     OW 7985   1.140   3.583   3.534  0.5160 -0.1156 -0.4031
 1989SOL    HW2 7986   1.140   3.562   3.627  0.8364 -1.5720 -0.7175
 1989SOL    HW3 7987   1.059   3.545   3.501  0.3589  0.4783 -0.6978
 1989SOL    MW4 7988   1.129   3.575   3.542  0.5376 -0.2294 -0.4835
 1990SOL     OW 7989   1.122   3.860   3.455 -0.0797  0.2632 -0.1069
 1990SOL    HW2 7990   1.210   3.895   3.471 -0.1689  0.0894  0.7983
 1990SOL    HW3 7991   1.128   3.767   3.479 -0.3883  0.1443 -0.4836
 1990SOL    MW4 7992   1.134   3.852   3.460 -0.1322  0.2246 -0.0372
 1991SOL     OW 7993   0.882   4.023   3.495  0.2488 -0.4609  0.0168
 1991SOL    HW2 7994   0.961   3.976   3.471 -0.4058 -0.9761 -1.1619
 1991SOL    HW3 7995   0.811   3.962   3.475 -0.4270 -0.2860  1.7297
 1991SOL    MW4 7996   0.883   4.009   3.489  0.0733 -0.5058  0.0873
 1992SOL     OW 7997   0.857   4.274   3.371  0.1513  0.1479 -0.2315
 1992SOL    HW2 7998   0.861   4.192   3.419 -0.4939 -0.0603 -0.5300
 1992SOL    HW3 7999   0.869   4.249   3.280 -0.5599  0.3278 -0.3752
 1992SOL    MW4 8000   0.859   4.260   3.365 -0.0277  0.1442 -0.2898
 1993SOL     OW 8001   1.090   4.372   3.477  0.3191  0.1770 -0.4714
 1993SOL    HW2 8002   1.020   4.320   3.437  0.8601 -0.1959 -0.9472
 1993SOL    HW3 8003   1.059   4.462   3.470  0.0670  0.0523 -1.0589
 1993SOL    MW4 8004   1.077   4.377   3.471  0.3572  0.1114 -0.6117
 1994SOL     OW 8005   1.586   4.615   3.394  0.0517  0.4679 -0.1318
 1994SOL    HW2 8006   1.586   4.531   3.440  0.1862 -0.4903 -1.8443
 1994SOL    HW3 8007   1.499   4.651   3.409 -0.7947 -1.0502 -1.2921
 1994SOL    MW4 8008   1.575   4.609   3.402 -0.0422  0.1412 -0.5109
 1995SOL     OW 8009   1.342   0.077   3.477 -0.0993 -0.3459 -0.1956
 1995SOL    HW2 8010   1.328   0.102   3.568  0.5467  0.0783 -0.2040
 1995SOL    HW3 8011   1.356   0.160   3.431  1.5630 -0.6614 -0.3169
 1995SOL    MW4 8012   1.342   0.091   3.483  0.2053 -0.3316 -0.2127
 1996SOL     OW 8013   1.337   0.330   3.356 -0.1581 -0.0256  0.1823
 1996SOL    HW2 8014   1.413   0.371   3.398 -0.0240  0.0290 -0.1128
 1996SOL    HW3 8015   1.262   0.376   3.393 -0.0558 -0.1666  0.5746
 1996SOL    MW4 8016   1.337   0.341   3.367 -0.1269 -0.0370  0.1951
 1997SOL     OW 8017   1.515   0.496   3.490  0.1408  0.3557  0.3329
 1997SOL    HW2 8018   1.523   0.495   3.585  2.2205  2.0224  0.2030
 1997SOL    HW3 8019   1.597   0.459   3.458 -1.3470 -2.0849 -0.8228
 1997SOL    MW4 8020   1.527   0.491   3.498  0.2189  0.2536  0.1633
 1998SOL     OW 8021   1.534   0.720   3.343  0.2918  0.2602 -0.3290
 1998SOL    HW2 8022   1.457   0.769   3.371 -1.0775 -0.9362 -1.8793
 1998SOL    HW3 8023   1.522   0.632   3.379  0.8710  0.0337 -0.6734
 1998SOL    MW4 8024   1.522   0.715   3.351  0.1875  0.0725 -0.5790
 1999SOL     OW 8025   1.318   0.855   3.450 -0.3221 -0.2165  0.3719
 1999SOL    HW2 8026   1.323   0.848   3.546  0.7192  1.6531  0.4810
 1999SOL    HW3 8027   1.331   0.948   3.432 -3.2035 -0.1232 -1.4566
 1999SOL    MW4 8028   1.320   0.866   3.461 -0.5649  0.0425  0.1451
 2000SOL     OW 8029   1.316   1.140   3.357 -0.1521 -0.1833  0.4929
 2000SOL    HW2 8030   1.396   1.178   3.393 -0.0558  0.5015 -0.4281
 2000SOL    HW3 8031   1.245   1.185   3.404 -0.0105 -0.0046  0.5374
 2000SOL    MW4 8032   1.317   1.151   3.368 -0.1207 -0.0694  0.3772
 2001SOL     OW 8033   1.531   1.233   3.481  0.1406  0.3114 -0.5133
 2001SOL    HW2 8034   1.553   1.230   3.574 -2.9535 -0.2720  0.2419
 2001SOL    HW3 8035   1.602   1.185   3.438  0.7483 -0.8433  1.6942
 2001SOL    MW4 8036   1.543   1.227   3.488 -0.1874  0.0821 -0.1224
 2002SOL     OW 8037   1.608   1.487   3.398  0.2082  0.0245  0.1493
 2002SOL    HW2 8038   1.576   1.397   3.413 -0.4348  0.2113 -0.0750
 2002SOL    HW3 8039   1.598   1.500   3.304  1.1043  0.0349  0.0552
 2002SOL    MW4 8040   1.602   1.477   3.388  0.2416  0.0505  0.1073
 2003SOL     OW 8041   1.403   1.643   3.493  0.5313 -0.2590 -0.2462
 2003SOL    HW2 8042   1.396   1.632   3.588 -1.1794 -0.4384 -0.3720
 2003SOL    HW3 8043   1.458   1.570   3.464 -0.6118 -1.3818  0.3807
 2003SOL    MW4 8044   1.409   1.632   3.502  0.1548 -0.4308 -0.1801
 2004SOL     OW 8045   1.359   1.898   3.392 -0.3431 -0.1265 -0.2813
 2004SOL    HW2 8046   1.415   1.950   3.450 -0.4326  0.0771 -0.3764
 2004SOL    HW3 8047   1.364   1.809   3.427  1.1866 -0.4085 -1.1317
 2004SOL    MW4 8048   1.367   1.893   3.404 -0.1531 -0.1368 -0.4061
 2005SOL     OW 8049   1.531   2.078   3.503  0.1120 -0.1490 -0.5407
 2005SOL    HW2 8050   1.619   2.049   3.478  0.2145 -0.4224  0.1070
 2005SOL    HW3 8051   1.522   2.165   3.464 -0.0966 -0.9405 -2.2911
 2005SOL    MW4 8052   1.542   2.086   3.495  0.0980 -0.2895 -0.6862
 2006SOL     OW 8053   1.498   2.334   3.397  0.7675 -0.7402 -0.4200
 2006SOL    HW2 8054   1.408   2.358   3.417  0.6424 -1.2822 -0.3084
 2006SOL    HW3 8055   1.500   2.323   3.302  0.7069 -0.7483 -0.4204
 2006SOL    MW4 8056   1.487   2.336   3.387  0.7430 -0.8128 -0.4053
 2007SOL     OW 8057   1.249   2.415   3.524  0.1870  0.0541 -0.2223
 2007SOL    HW2 8058   1.302   2.407   3.603  1.1079 -1.9057 -1.0034
 2007SOL    HW3 8059   1.262   2.506   3.495 -0.0356  0.7316  1.7698
 2007SOL    MW4 8060   1.258   2.426   3.530  0.2791 -0.1151 -0.0625
 2008SOL     OW 8061   1.299   2.665   3.399  0.1789  0.0863 -0.0119
 2008SOL    HW2 8062   1.382   2.692   3.439  0.1735 -1.2132  0.9549
 2008SOL    HW3 8063   1.308   2.686   3.306  0.5216  2.4413  0.5234
 2008SOL    MW4 8064   1.311   2.671   3.392  0.2234  0.2256  0.1863
 2009SOL     OW 8065   1.561   2.763   3.486 -0.2775 -0.0536  0.0590
 2009SOL    HW2 8066   1.619   2.701   3.443 -0.2303 -1.0683  1.5513
 2009SOL    HW3 8067   1.572   2.844   3.437  1.9568 -0.3895 -0.0375
 2009SOL    MW4 8068   1.570   2.765   3.474  0.0235 -0.2318  0.2432
 2010SOL     OW 8069   1.542   3.033   3.377 -0.1102  0.0089 -0.5126
 2010SOL    HW2 8070   1.617   3.080   3.413  0.4951  0.4234 -2.2883
 2010SOL    HW3 8071   1.466   3.081   3.409  0.4074  0.4072  0.1466
 2010SOL    MW4 8072   1.542   3.045   3.386  0.0380  0.1162 -0.6599
 2011SOL     OW 8073   1.350   3.162   3.517 -0.2223 -0.5063 -0.1042
 2011SOL    HW2 8074   1.341   3.171   3.612 -0.3877  0.3406 -0.1956
 2011SOL    HW3 8075   1.260   3.146   3.486 -0.1686 -0.7801 -0.1181
 2011SOL    MW4 8076   1.337   3.161   3.526 -0.2371 -0.4307 -0.1181
 2012SOL     OW 8077   1.325   3.409   3.390  0.1820 -0.3230 -0.1155
 2012SOL    HW2 8078   1.334   3.328   3.441  2.1084  0.0301  0.1647
 2012SOL    HW3 8079   1.257   3.458   3.436  0.0815 -1.1332  0.6227
 2012SOL    MW4 8080   1.318   3.405   3.403  0.4229 -0.3833  0.0189
 2013SOL     OW 8081   1.565   3.544   3.444  0.1571 -0.3817  0.2741
 2013SOL    HW2 8082   1.559   3.549   3.540 -0.6146  1.2083  0.1624
 2013SOL    HW3 8083   1.484   3.500   3.418  0.1090 -0.3159  0.3120
 2013SOL    MW4 8084   1.554   3.538   3.453  0.0490 -0.1632  0.2644
 2014SOL     OW 8085   1.560   3.839   3.374 -0.3813 -0.0731 -0.2234
 2014SOL    HW2 8086   1.547   3.745   3.388  0.4302 -0.0176  0.9523
 2014SOL    HW3 8087   1.576   3.847   3.280  1.8541 -1.3856  0.0161
 2014SOL    MW4 8088   1.560   3.828   3.363  0.0207 -0.2390 -0.0367
 2015SOL     OW 8089   1.353   3.975   3.504  0.5935  0.0815  0.0320
 2015SOL    HW2 8090   1.348   4.062   3.464 -0.9242 -1.1498 -2.6210
 2015SOL    HW3 8091   1.417   3.928   3.451  1.1409 -0.5210  1.2226
 2015SOL    MW4 8092   1.360   3.980   3.492  0.4655 -0.1604 -0.1610
 2016SOL     OW 8093   1.321   4.234   3.389  0.3983  0.2107  0.0759
 2016SOL    HW2 8094   1.250   4.293   3.416 -0.6509 -1.5967  1.3901
 2016SOL    HW3 8095   1.314   4.230   3.293 -0.4384  1.0822  0.0969
 2016SOL    MW4 8096   1.310   4.241   3.379  0.1495  0.0873  0.2520
 2017SOL     OW 8097   1.559   4.352   3.522  0.1434  0.0324  0.2845
 2017SOL    HW2 8098   1.633   4.310   3.479  0.4271 -0.2887  1.0786
 2017SOL    HW3 8099   1.482   4.316   3.478  0.4665  0.5579 -0.7109
 2017SOL    MW4 8100   1.558   4.342   3.511  0.2234  0.0594  0.2579
 2018SOL     OW 8101   1.963   4.649   3.389  0.4394 -0.3694  0.2829
 2018SOL    HW2 8102   2.040   4.699   3.416 -0.0333  0.2496  0.4764
 2018SOL    HW3 8103   1.889   4.698   3.424 -0.0680 -0.7038 -0.3228
 2018SOL    MW4 8104   1.964   4.662   3.397  0.3101 -0.3318  0.2285
 2019SOL     OW 8105   1.753   0.124   3.525  0.0860 -0.2277  0.8460
 2019SOL    HW2 8106   1.764   0.105   3.618  0.4251  0.3102  0.9169
 2019SOL    HW3 8107   1.691   0.058   3.495 -0.1747 -0.2891  1.4987
 2019SOL    MW4 8108   1.746   0.113   3.533  0.0963 -0.1648  0.9415
 2020SOL     OW 8109   1.744   0.380   3.415 -0.2213  0.6407 -0.2151
 2020SOL    HW2 8110   1.755   0.289   3.442 -1.9259  0.3139 -0.5635
 2020SOL    HW3 8111   1.745   0.378   3.319 -0.8735  0.8998 -0.2325
 2020SOL    MW4 8112   1.745   0.368   3.406 -0.5323  0.6318 -0.2633
 2021SOL     OW 8113   1.983   0.460   3.510 -0.5392  0.0662 -0.1531
 2021SOL    HW2 8114   1.969   0.534   3.451  0.7963  0.0656 -0.4882
 2021SOL    HW3 8115   1.901   0.412   3.508 -0.3921 -0.1171 -2.2864
 2021SOL    MW4 8116   1.971   0.464   3.502 -0.3436  0.0419 -0.4788
 2022SOL     OW 8117   1.996   0.715   3.368  0.1636 -0.2563 -0.2403
 2022SOL    HW2 8118   2.056   0.777   3.410  0.2383 -0.2757 -0.3194
 2022SOL    HW3 8119   2.023   0.714   3.276  0.5403 -0.8549 -0.1272
 2022SOL    MW4 8120   2.008   0.723   3.361  0.2232 -0.3378 -0.2358
 2023SOL     OW 8121   1.766   0.831   3.470 -0.2389  0.1728  0.2889
 2023SOL    HW2 8122   1.838   0.781   3.431  0.2019  0.6727  0.4499
 2023SOL    HW3 8123   1.688   0.801   3.424  0.2246  0.4747 -0.7265
 2023SOL    MW4 8124   1.765   0.821   3.459 -0.1196  0.2786  0.1762
 2024SOL     OW 8125   1.748   1.101   3.384  0.1894  0.2113  0.0476
 2024SOL    HW2 8126   1.834   1.141   3.399 -0.2804  1.1419  0.3063
 2024SOL    HW3 8127   1.753   1.017   3.429  0.6015  0.7156  0.9719
 2024SOL    MW4 8128   1.760   1.095   3.392  0.1818  0.4006  0.2037
 2025SOL     OW 8129   1.972   1.236   3.490 -0.0497  0.4307 -0.2022
 2025SOL    HW2 8130   1.960   1.246   3.584 -1.8224 -1.1173 -0.2268
 2025SOL    HW3 8131   1.985   1.325   3.458  1.8215  0.8547  1.6519
 2025SOL    MW4 8132   1.972   1.249   3.498 -0.0367  0.2824  0.0392
 2026SOL     OW 8133   2.032   1.511   3.385  0.4801  0.1215  0.3753
 2026SOL    HW2 8134   2.111   1.550   3.421  0.2273  0.6825  0.3225
 2026SOL    HW3 8135   1.960   1.555   3.430  0.2114 -1.2685  1.3357
 2026SOL    MW4 8136   2.033   1.522   3.395  0.4113  0.0121  0.4950
 2027SOL     OW 8137   1.814   1.650   3.495 -0.4277 -0.2479 -0.1535
 2027SOL    HW2 8138   1.800   1.734   3.451  0.7577 -0.6801 -1.4014
 2027SOL    HW3 8139   1.745   1.593   3.462  0.2514 -0.4689 -1.2129
 2027SOL    MW4 8140   1.803   1.654   3.485 -0.1817 -0.3341 -0.4579
 2028SOL     OW 8141   1.768   1.933   3.408 -0.0038  0.0067 -0.5427
 2028SOL    HW2 8142   1.850   1.971   3.439  1.0824 -2.2752 -0.5072
 2028SOL    HW3 8143   1.771   1.943   3.312 -0.4304  1.3068 -0.4380
 2028SOL    MW4 8144   1.779   1.940   3.399  0.0832 -0.1228 -0.5242
 2029SOL     OW 8145   2.025   2.018   3.480  0.2105  0.2632  0.0259
 2029SOL    HW2 8146   2.091   1.969   3.431 -0.6995  0.4831 -1.4572
 2029SOL    HW3 8147   2.025   2.105   3.439 -1.0934  0.2183 -0.0988
 2029SOL    MW4 8148   2.034   2.023   3.468 -0.0816  0.2863 -0.1862
 2030SOL     OW 8149   2.013   2.275   3.379  0.3098 -0.3512  0.0655
 2030SOL    HW2 8150   1.929   2.311   3.409  0.4705  0.6427 -0.6761
 2030SOL    HW3 8151   2.007   2.275   3.284  1.4696  0.4902 -0.0172
 2030SOL    MW4 8152   2.001   2.280   3.371  0.4841 -0.1090 -0.0432
 2031SOL     OW 8153   1.759   2.376   3.459 -0.2034  0.2409  0.3773
 2031SOL    HW2 8154   1.774   2.396   3.551  0.1793 -1.7340  0.7657
 2031SOL    HW3 8155   1.663   2.369   3.451 -0.1202 -1.8673  1.1337
 2031SOL    MW4 8156   1.748   2.378   3.470 -0.1419 -0.2978  0.5283
 2032SOL     OW 8157   1.749   2.627   3.341 -0.1818  0.7435 -0.2216
 2032SOL    HW2 8158   1.828   2.656   3.386 -0.4143  1.8648 -0.5277
 2032SOL    HW3 8159   1.742   2.534   3.363 -0.1049  1.1853  1.7966
 2032SOL    MW4 8160   1.758   2.619   3.350 -0.2023  0.9497  0.0043
 2033SOL     OW 8161   1.965   2.754   3.469  0.3023 -0.3464 -0.2855
 2033SOL    HW2 8162   1.984   2.760   3.563  0.4501  0.2256 -0.3479
 2033SOL    HW3 8163   1.954   2.845   3.441 -1.6521 -0.6041 -0.4366
 2033SOL    MW4 8164   1.966   2.767   3.478  0.0639 -0.3049 -0.3137
 2034SOL     OW 8165   1.989   3.025   3.436 -0.1105 -0.1961 -0.0628
 2034SOL    HW2 8166   2.063   3.085   3.442 -0.2017 -0.1296  0.3730
 2034SOL    HW3 8167   1.912   3.079   3.453 -0.4864  0.2421 -2.8291
 2034SOL    MW4 8168   1.988   3.040   3.439 -0.1722 -0.1295 -0.3703
 2035SOL     OW 8169   1.763   3.158   3.467 -0.4397 -0.1761 -0.2493
 2035SOL    HW2 8170   1.771   3.167   3.562  0.2547 -0.1501 -0.3084
 2035SOL    HW3 8171   1.779   3.247   3.433  0.0300 -0.3258 -0.4300
 2035SOL    MW4 8172   1.766   3.171   3.475 -0.2861 -0.1924 -0.2809
 2036SOL     OW 8173   1.813   3.421   3.395  0.3465  0.3207  0.2340
 2036SOL    HW2 8174   1.726   3.440   3.430  0.1429  0.7694 -0.5178
 2036SOL    HW3 8175   1.807   3.440   3.301  0.3715 -2.5516 -0.4180
 2036SOL    MW4 8176   1.801   3.426   3.387  0.3229  0.0009  0.0488
 2037SOL     OW 8177   2.032   3.615   3.463  0.0900  0.3345 -0.0880
 2037SOL    HW2 8178   2.108   3.577   3.420  1.3552  1.9929  0.6400
 2037SOL    HW3 8179   1.957   3.568   3.426  1.1770  1.2119 -3.5342
 2037SOL    MW4 8180   2.032   3.604   3.453  0.4004  0.6691 -0.4467
 2038SOL     OW 8181   2.027   3.890   3.393  0.0143  0.0662 -0.3156
 2038SOL    HW2 8182   1.945   3.930   3.423 -0.1217  0.2942 -0.9976
 2038SOL    HW3 8183   2.027   3.803   3.432  0.2779  0.7000  1.1401
 2038SOL    MW4 8184   2.016   3.884   3.402  0.0312  0.1799 -0.2135
 2039SOL     OW 8185   1.782   3.986   3.480  0.0343 -0.3779  0.0388
 2039SOL    HW2 8186   1.776   3.991   3.576  0.0547  1.5193 -0.0244
 2039SOL    HW3 8187   1.702   3.941   3.454  0.3427 -1.5005  0.9923
 2039SOL    MW4 8188   1.770   3.981   3.490  0.0777 -0.2757  0.1563
 2040SOL     OW 8189   1.778   4.253   3.388 -0.0972  0.5912 -0.0283
 2040SOL    HW2 8190   1.774   4.160   3.411 -0.8860  0.5900 -0.1618
 2040SOL    HW3 8191   1.762   4.255   3.294  3.2324  0.5840 -0.6465
 2040SOL    MW4 8192   1.775   4.241   3.379  0.2380  0.5901 -0.1275
 2041SOL     OW 8193   2.015   4.366   3.481  0.5016  0.2322  0.0135
 2041SOL    HW2 8194   1.934   4.325   3.450  0.1970  0.4209  0.5488
 2041SOL    HW3 8195   2.011   4.456   3.448  1.1578 -0.1473 -1.1388
 2041SOL    MW4 8196   2.004   4.373   3.472  0.5480  0.2071 -0.0679
 2042SOL     OW 8197   2.448   4.646   3.384  0.4536 -0.5657  0.6137
 2042SOL    HW2 8198   2.475   4.568   3.432  0.5409 -0.7012  0.3436
 2042SOL    HW3 8199   2.493   4.640   3.299  0.1042 -0.4547  0.4177
 2042SOL    MW4 8200   2.458   4.635   3.379  0.4190 -0.5689  0.5522
 2043SOL     OW 8201   2.210   0.093   3.489  0.0818  0.3237 -0.3109
 2043SOL    HW2 8202   2.210   0.181   3.451  0.4087  0.1171 -0.7924
 2043SOL    HW3 8203   2.296   0.058   3.467  0.3451  0.2779  0.7986
 2043SOL    MW4 8204   2.221   0.100   3.481  0.1597  0.2904 -0.2280
 2044SOL     OW 8205   2.222   0.354   3.368  0.2426 -0.4008 -0.4273
 2044SOL    HW2 8206   2.293   0.397   3.415  0.9414  0.2129 -1.9877
 2044SOL    HW3 8207   2.142   0.384   3.411  0.8382  0.5228  0.0431
 2044SOL    MW4 8208   2.221   0.364   3.380  0.4134 -0.1979 -0.5711
 2045SOL     OW 8209   2.449   0.486   3.500  0.6141 -0.1536 -0.2059
 2045SOL    HW2 8210   2.534   0.452   3.472  1.1125  1.8291 -1.1649
 2045SOL    HW3 8211   2.448   0.577   3.469 -2.0261 -0.2763 -0.5676
 2045SOL    MW4 8212   2.460   0.494   3.492  0.3315  0.0918 -0.3802
 2046SOL     OW 8213   2.439   0.743   3.401 -0.0191 -0.1847  0.1396
 2046SOL    HW2 8214   2.525   0.782   3.413  0.4494 -1.1486 -0.0564
 2046SOL    HW3 8215   2.426   0.741   3.307 -0.6058  0.6857  0.1896
 2046SOL    MW4 8216   2.448   0.748   3.390 -0.0347 -0.1970  0.1204
 2047SOL     OW 8217   2.197   0.876   3.491  0.4476  0.0054  0.3523
 2047SOL    HW2 8218   2.191   0.954   3.436 -0.2867  0.3974  0.9784
 2047SOL    HW3 8219   2.276   0.831   3.460 -0.7125 -0.5170 -1.9414
 2047SOL    MW4 8220   2.207   0.880   3.480  0.1976 -0.0118  0.1323
 2048SOL     OW 8221   2.196   1.115   3.349 -0.1058  0.2368  0.1913
 2048SOL    HW2 8222   2.273   1.144   3.398 -0.6965  1.8157  0.2281
 2048SOL    HW3 8223   2.122   1.157   3.393 -0.8010  0.3151 -1.0201
 2048SOL    MW4 8224   2.196   1.124   3.362 -0.2754  0.4554  0.0363
 2049SOL     OW 8225   2.426   1.200   3.470 -0.1925 -0.4053  0.4705
 2049SOL    HW2 8226   2.443   1.206   3.564 -0.7478 -3.0713  0.7983
 2049SOL    HW3 8227   2.511   1.175   3.433  0.1071  0.9807  0.2130
 2049SOL    MW4 8228   2.440   1.197   3.478 -0.2262 -0.5742  0.4798
 2050SOL     OW 8229   2.434   1.468   3.411  0.5508 -0.5731  0.2625
 2050SOL    HW2 8230   2.416   1.380   3.445 -0.5274 -0.5350 -0.1977
 2050SOL    HW3 8231   2.462   1.453   3.320 -0.7185 -0.3673 -0.1704
 2050SOL    MW4 8232   2.436   1.454   3.403  0.2410 -0.5409  0.1447
 2051SOL     OW 8233   2.236   1.671   3.474  0.2536  0.0150 -0.1173
 2051SOL    HW2 8234   2.229   1.647   3.567  0.6771 -2.0534 -0.5885
 2051SOL    HW3 8235   2.321   1.636   3.447  0.0872  0.5125 -1.3228
 2051SOL    MW4 8236   2.246   1.663   3.483  0.2876 -0.1922 -0.3385
 2052SOL     OW 8237   2.252   1.916   3.345  0.0015  0.1964 -0.3081
 2052SOL    HW2 8238   2.254   1.826   3.377  1.8153  0.0520 -0.7826
 2052SOL    HW3 8239   2.241   1.908   3.251  0.2808  0.4587 -0.3649
 2052SOL    MW4 8240   2.251   1.903   3.337  0.2776  0.2120 -0.3782
 2053SOL     OW 8241   2.476   2.032   3.471  0.0046  0.0734  0.1795
 2053SOL    HW2 8242   2.389   2.013   3.437 -0.1297  1.0481 -0.0134
 2053SOL    HW3 8243   2.501   2.115   3.431  1.5157 -0.7658 -0.6988
 2053SOL    MW4 8244   2.468   2.040   3.461  0.1862  0.0913  0.0382
 2054SOL     OW 8245   2.496   2.303   3.371  0.2142  0.2666  0.2583
 2054SOL    HW2 8246   2.425   2.358   3.403  0.3189  0.5045  0.0809
 2054SOL    HW3 8247   2.576   2.350   3.393  0.2975  0.2961 -0.0956
 2054SOL    MW4 8248   2.497   2.316   3.378  0.2390  0.3019  0.1882
 2055SOL     OW 8249   2.245   2.416   3.455  0.1344  0.0460 -0.2365
 2055SOL    HW2 8250   2.169   2.366   3.423  0.3408 -0.7913  0.5479
 2055SOL    HW3 8251   2.228   2.506   3.427 -0.7451 -0.2837 -0.7923
 2055SOL    MW4 8252   2.232   2.421   3.447  0.0456 -0.1080 -0.2064
 2056SOL     OW 8253   2.216   2.672   3.366  0.0280 -0.0841 -0.1746
 2056SOL    HW2 8254   2.127   2.698   3.388 -0.7894 -1.9445 -1.1939
 2056SOL    HW3 8255   2.216   2.665   3.270  2.2002  3.1243 -0.5044
 2056SOL    MW4 8256   2.204   2.675   3.356  0.2068  0.0937 -0.3526
 2057SOL     OW 8257   2.429   2.792   3.490 -0.3670  0.3317  0.4234
 2057SOL    HW2 8258   2.415   2.886   3.474  0.4239  0.0079 -2.3905
 2057SOL    HW3 8259   2.351   2.750   3.455 -0.0784 -0.1501  0.3513
 2057SOL    MW4 8260   2.417   2.799   3.483 -0.2246  0.2254  0.0426
 2058SOL     OW 8261   2.457   3.078   3.393 -0.4503 -0.2119 -0.4662
 2058SOL    HW2 8262   2.538   3.110   3.432 -0.9873  1.9070 -1.0168
 2058SOL    HW3 8263   2.475   3.072   3.300 -0.5799 -0.8417 -0.4544
 2058SOL    MW4 8264   2.470   3.081   3.386 -0.5382 -0.0154 -0.5373
 2059SOL     OW 8265   2.218   3.216   3.453 -0.2965  0.5630  0.2123
 2059SOL    HW2 8266   2.231   3.207   3.547 -1.1715  0.3254  0.3179
 2059SOL    HW3 8267   2.290   3.166   3.413 -0.2496  0.1945  0.7565
 2059SOL    MW4 8268   2.229   3.208   3.460 -0.4058  0.4830  0.2980
 2060SOL     OW 8269   2.263   3.466   3.372 -0.6850  0.4097 -0.0333
 2060SOL    HW2 8270   2.237   3.379   3.404  0.7212  0.3287  0.9267
 2060SOL    HW3 8271   2.258   3.459   3.277  2.1894 -1.6507 -0.0985
 2060SOL    MW4 8272   2.259   3.453   3.364 -0.1202  0.1272  0.0847
 2061SOL     OW 8273   2.498   3.576   3.464 -0.0005 -0.0159 -0.1369
 2061SOL    HW2 8274   2.492   3.669   3.442 -1.0149  0.2670  1.2695
 2061SOL    HW3 8275   2.415   3.538   3.433 -0.0247 -0.2472  0.2043
 2061SOL    MW4 8276   2.486   3.583   3.457 -0.1376 -0.0091  0.0936
 2062SOL     OW 8277   2.482   3.851   3.408 -0.1761  0.1279  0.2491
 2062SOL    HW2 8278   2.552   3.913   3.431 -1.3130  0.6963  2.2951
 2062SOL    HW3 8279   2.401   3.895   3.433 -1.0272 -2.1293  1.6408
 2062SOL    MW4 8280   2.481   3.865   3.414 -0.4384 -0.0949  0.7026
 2063SOL     OW 8281   2.246   3.991   3.502 -0.4097  0.0577 -0.0037
 2063SOL    HW2 8282   2.253   4.077   3.460  0.7130 -0.8709 -1.7667
 2063SOL    HW3 8283   2.160   3.958   3.475 -0.4846  0.2720 -0.0258
 2063SOL    MW4 8284   2.235   3.998   3.493 -0.2714 -0.0366 -0.2392
 2064SOL     OW 8285   2.274   4.252   3.386 -0.4829  0.0424 -0.1095
 2064SOL    HW2 8286   2.186   4.284   3.402 -0.5794 -0.1328 -0.2828
 2064SOL    HW3 8287   2.280   4.243   3.291 -0.2521  0.1315 -0.1047
 2064SOL    MW4 8288   2.263   4.255   3.375 -0.4652  0.0310 -0.1317
 2065SOL     OW 8289   2.473   4.398   3.508  0.3109 -0.2985 -0.3821
 2065SOL    HW2 8290   2.453   4.382   3.600  1.4507 -0.6532 -0.1900
 2065SOL    HW3 8291   2.404   4.353   3.460 -0.2840 -0.1126  0.3001
 2065SOL    MW4 8292   2.461   4.390   3.514  0.3828 -0.3208 -0.2668
 2066SOL     OW 8293   2.915   0.002   3.406 -0.1878  0.0600  0.2684
 2066SOL    HW2 8294   2.830   0.042   3.421  0.3762  0.9809  1.0232
 2066SOL    HW3 8295   2.914  -0.022   3.313 -0.8586  1.0298  0.0199
 2066SOL    MW4 8296   2.904   0.004   3.396 -0.2019  0.3094  0.3352
 2067SOL     OW 8297   2.672   0.123   3.449 -0.5638  0.4368  0.1573
 2067SOL    HW2 8298   2.679   0.110   3.543 -0.5390 -0.6342  0.0057
 2067SOL    HW3 8299   2.592   0.078   3.424  1.2868 -2.3934 -0.8983
 2067SOL    MW4 8300   2.662   0.115   3.458 -0.3164 -0.0779 -0.0020
 2068SOL     OW 8301   2.660   0.388   3.372  0.1358 -0.0345  0.2708
 2068SOL    HW2 8302   2.745   0.416   3.404  0.0551 -0.0452  0.4982
 2068SOL    HW3 8303   2.653   0.297   3.399  0.3254 -0.2212 -0.3197
 2068SOL    MW4 8304   2.670   0.380   3.380  0.1502 -0.0605  0.2229
 2069SOL     OW 8305   2.896   0.454   3.478  0.3474 -0.3270 -0.0426
 2069SOL    HW2 8306   2.913   0.465   3.572 -0.0412 -2.1040  0.2515
 2069SOL    HW3 8307   2.907   0.542   3.442 -0.8998  0.6853  1.8945
 2069SOL    MW4 8308   2.899   0.467   3.486  0.1315 -0.4279  0.2518
 2070SOL     OW 8309   2.919   0.695   3.358 -0.1002  0.0661 -0.0692
 2070SOL    HW2 8310   2.989   0.732   3.411 -0.9033  0.7922  0.4948
 2070SOL    HW3 8311   2.843   0.750   3.376 -0.3533  0.4061 -2.1004
 2070SOL    MW4 8312   2.918   0.707   3.367 -0.2395  0.2068 -0.2628
 2071SOL     OW 8313   2.693   0.843   3.442 -0.3325  0.4765 -0.1978
 2071SOL    HW2 8314   2.697   0.870   3.534  0.7316 -0.3221  0.0076
 2071SOL    HW3 8315   2.689   0.925   3.393  1.1658  0.9822  0.4924
 2071SOL    MW4 8316   2.693   0.857   3.448  0.0056  0.4379 -0.0796
 2072SOL     OW 8317   2.674   1.127   3.346 -0.4041  0.4587  0.9792
 2072SOL    HW2 8318   2.750   1.170   3.384 -0.0545  0.1961  0.5879
 2072SOL    HW3 8319   2.682   1.143   3.252 -0.7296  0.2692  0.9175
 2072SOL    MW4 8320   2.685   1.135   3.338 -0.4009  0.3991  0.9194
 2073SOL     OW 8321   2.878   1.258   3.488  0.1927  0.0772 -0.3063
 2073SOL    HW2 8322   2.893   1.277   3.580 -0.0160  1.2895 -0.5016
 2073SOL    HW3 8323   2.956   1.210   3.460  0.4533  0.0960  0.3945
 2073SOL    MW4 8324   2.890   1.255   3.496  0.1996  0.2396 -0.2396
 2074SOL     OW 8325   2.907   1.516   3.391  0.0210 -0.3920 -0.0457
 2074SOL    HW2 8326   2.833   1.558   3.434  0.6658  0.7744 -0.0519
 2074SOL    HW3 8327   2.903   1.424   3.420 -0.5177  0.0072  1.1752
 2074SOL    MW4 8328   2.897   1.509   3.401  0.0350 -0.1854  0.1146
 2075SOL     OW 8329   2.669   1.603   3.517  0.8645 -0.4309  0.3096
 2075SOL    HW2 8330   2.658   1.682   3.466  1.9917 -0.5394 -0.1098
 2075SOL    HW3 8331   2.589   1.553   3.502  0.1173  0.6603  0.6447
 2075SOL    MW4 8332   2.657   1.607   3.509  0.9146 -0.3012  0.2985
 2076SOL     OW 8333   2.670   1.856   3.363  0.0646  0.3867  0.1465
 2076SOL    HW2 8334   2.599   1.913   3.395 -0.7434 -0.5445  0.0633
 2076SOL    HW3 8335   2.667   1.865   3.268 -0.6371 -0.4446  0.0817
 2076SOL    MW4 8336   2.660   1.865   3.355 -0.1346  0.1542  0.1270
 2077SOL     OW 8337   2.884   2.024   3.464 -0.1200  0.2027 -0.1993
 2077SOL    HW2 8338   2.871   2.038   3.558 -1.4244  0.4834 -0.4213
 2077SOL    HW3 8339   2.810   1.970   3.437  0.3199  0.0139 -1.0404
 2077SOL    MW4 8340   2.873   2.019   3.473 -0.2341  0.2148 -0.3396
 2078SOL     OW 8341   2.922   2.291   3.370  0.4165 -0.3870 -0.2735
 2078SOL    HW2 8342   2.923   2.203   3.408  0.5629 -0.2936 -0.0638
 2078SOL    HW3 8343   2.918   2.276   3.275 -2.2942 -0.6292 -0.1602
 2078SOL    MW4 8344   2.921   2.278   3.362  0.0782 -0.4066 -0.2309
 2079SOL     OW 8345   2.712   2.442   3.478  0.3014 -0.2036  0.4590
 2079SOL    HW2 8346   2.710   2.427   3.572  0.2141  0.6208  0.5933
 2079SOL    HW3 8347   2.780   2.383   3.445  1.5426  0.7644  1.2654
 2079SOL    MW4 8348   2.721   2.432   3.486  0.4536  0.0329  0.5831
 2080SOL     OW 8349   2.676   2.705   3.411  0.1865 -0.1045  0.0976
 2080SOL    HW2 8350   2.690   2.615   3.440 -0.0029 -0.8035 -1.8719
 2080SOL    HW3 8351   2.588   2.727   3.442 -0.7708 -1.5020 -1.5386
 2080SOL    MW4 8352   2.666   2.696   3.419  0.0352 -0.3811 -0.3782
 2081SOL     OW 8353   2.899   2.847   3.487 -0.3452  0.3737  0.1711
 2081SOL    HW2 8354   2.894   2.820   3.579 -0.5243  2.3905  0.7754
 2081SOL    HW3 8355   2.823   2.806   3.446 -0.3517 -0.4132  0.9540
 2081SOL    MW4 8356   2.889   2.838   3.494 -0.3697  0.5359  0.3542
 2082SOL     OW 8357   2.931   3.093   3.395 -0.1556  0.1061  0.2080
 2082SOL    HW2 8358   2.932   3.000   3.419  2.2265  0.2308  0.7915
 2082SOL    HW3 8359   2.916   3.092   3.300  0.3821 -0.9177  0.1167
 2082SOL    MW4 8360   2.929   3.080   3.386  0.2296 -0.0125  0.2730
 2083SOL     OW 8361   2.695   3.182   3.499 -0.0660 -0.2849 -0.5723
 2083SOL    HW2 8362   2.707   3.194   3.593 -0.3355 -0.3899 -0.5242
 2083SOL    HW3 8363   2.780   3.151   3.468  0.5633  1.4675 -0.6590
 2083SOL    MW4 8364   2.708   3.179   3.507 -0.0186 -0.0676 -0.5774
 2084SOL     OW 8365   2.723   3.428   3.397  0.0499  0.4755 -0.0403
 2084SOL    HW2 8366   2.710   3.338   3.425  0.2156  0.5965  0.4176
 2084SOL    HW3 8367   2.643   3.473   3.423  0.1488  0.5593  0.1135
 2084SOL    MW4 8368   2.711   3.422   3.404  0.0848  0.5025  0.0404
 2085SOL     OW 8369   2.909   3.575   3.524 -0.1078 -0.1318 -0.4397
 2085SOL    HW2 8370   2.896   3.658   3.477  0.5033  0.0604 -0.2737
 2085SOL    HW3 8371   2.839   3.519   3.491  0.6126 -0.1704 -1.9865
 2085SOL    MW4 8372   2.898   3.579   3.513  0.0679 -0.1115 -0.6219
 2086SOL     OW 8373   2.883   3.834   3.414  0.2806  0.3378 -0.1813
 2086SOL    HW2 8374   2.964   3.884   3.412  0.9845 -0.7735  0.2232
 2086SOL    HW3 8375   2.819   3.893   3.453  1.4442  0.4628  1.5843
 2086SOL    MW4 8376   2.885   3.848   3.419  0.5270  0.2076  0.1050
 2087SOL     OW 8377   2.681   4.003   3.482 -0.3919 -0.3517 -0.3481
 2087SOL    HW2 8378   2.673   4.011   3.577  1.8077  0.5748 -0.2336
 2087SOL    HW3 8379   2.683   4.093   3.450 -1.1431 -0.6570 -1.2978
 2087SOL    MW4 8380   2.680   4.016   3.490 -0.2008 -0.2698 -0.4583
 2088SOL     OW 8381   2.668   4.256   3.378 -0.0831  0.0049 -0.1362
 2088SOL    HW2 8382   2.750   4.299   3.403  0.2572 -0.4939 -0.3781
 2088SOL    HW3 8383   2.600   4.304   3.425  0.4266 -0.0829  0.6945
 2088SOL    MW4 8384   2.670   4.268   3.388  0.0290 -0.0725 -0.0585
 2089SOL     OW 8385   2.906   4.384   3.479  0.2365  0.3915  0.2926
 2089SOL    HW2 8386   2.903   4.361   3.572  0.6125  0.0173  0.2122
 2089SOL    HW3 8387   2.912   4.480   3.478  0.5088  0.3783  0.6582
 2089SOL    MW4 8388   2.906   4.394   3.491  0.3221  0.3404  0.3302
 2090SOL     OW 8389   3.390   4.635   3.399 -0.1323  0.2757 -0.1274
 2090SOL    HW2 8390   3.314   4.689   3.422 -1.9019 -1.4400 -1.6777
 2090SOL    HW3 8391   3.392   4.637   3.303  0.3722 -1.5375 -0.1700
 2090SOL    MW4 8392   3.380   4.642   3.390 -0.2992 -0.1899 -0.3375
 2091SOL     OW 8393   3.166   0.109   3.497 -0.2842 -0.4789 -0.3629
 2091SOL    HW2 8394   3.165   0.192   3.449  0.0186 -0.4539 -0.3227
 2091SOL    HW3 8395   3.087   0.063   3.467 -0.5900 -0.0672 -0.1966
 2091SOL    MW4 8396   3.155   0.114   3.487 -0.2846 -0.4213 -0.3356
 2092SOL     OW 8397   3.157   0.359   3.401 -0.1024  0.1710  0.7089
 2092SOL    HW2 8398   3.077   0.401   3.432  0.4124  2.3777 -0.8104
 2092SOL    HW3 8399   3.158   0.376   3.306  1.2920 -1.3004  0.4405
 2092SOL    MW4 8400   3.146   0.367   3.392  0.1495  0.2680  0.4730
 2093SOL     OW 8401   3.388   0.483   3.475  0.2587 -0.0655 -0.5745
 2093SOL    HW2 8402   3.393   0.481   3.570  1.5803  1.3135 -0.5916
 2093SOL    HW3 8403   3.303   0.444   3.454  0.6943 -1.9894  1.0750
 2093SOL    MW4 8404   3.377   0.478   3.484  0.4905 -0.1374 -0.3591
 2094SOL     OW 8405   3.365   0.755   3.419 -0.0319 -0.3566  0.0318
 2094SOL    HW2 8406   3.445   0.800   3.448  0.1224  0.2388 -1.2851
 2094SOL    HW3 8407   3.389   0.662   3.420  0.8138 -0.1620 -0.7026
 2094SOL    MW4 8408   3.379   0.749   3.423  0.1000 -0.2524 -0.2389
 2095SOL     OW 8409   3.109   0.833   3.507 -0.3382  0.1559 -0.6769
 2095SOL    HW2 8410   3.103   0.923   3.475  3.2018  0.7848  0.1695
 2095SOL    HW3 8411   3.194   0.802   3.476 -0.2412 -1.8950  1.4539
 2095SOL    MW4 8412   3.120   0.841   3.499  0.1416 -0.0317 -0.2841
 2096SOL     OW 8413   3.111   1.106   3.423 -0.1197  0.1721  0.2896
 2096SOL    HW2 8414   3.190   1.147   3.459 -0.4138  1.0623 -0.0637
 2096SOL    HW3 8415   3.122   1.110   3.329 -0.2905 -0.2867  0.2507
 2096SOL    MW4 8416   3.123   1.112   3.416 -0.1810  0.2290  0.2379
 2097SOL     OW 8417   3.337   1.254   3.518 -0.1448  0.1285 -0.6030
 2097SOL    HW2 8418   3.417   1.223   3.475  0.5142  0.4562  0.3667
 2097SOL    HW3 8419   3.332   1.347   3.495  0.3128  0.3499  0.1694
 2097SOL    MW4 8420   3.347   1.262   3.509  0.0025  0.2010 -0.3731
 2098SOL     OW 8421   3.326   1.518   3.424  0.3451  0.3170 -0.6058
 2098SOL    HW2 8422   3.405   1.556   3.461  0.6948 -2.6978  1.9479
 2098SOL    HW3 8423   3.254   1.566   3.465  0.7950  0.2750  0.2275
 2098SOL    MW4 8424   3.327   1.529   3.434  0.4506 -0.0863 -0.1589
 2099SOL     OW 8425   3.109   1.651   3.522  0.1687  0.4077  0.1245
 2099SOL    HW2 8426   3.109   1.736   3.479  1.4085  0.4326  0.1666
 2099SOL    HW3 8427   3.033   1.605   3.485 -0.5284  1.5322  0.1340
 2099SOL    MW4 8428   3.099   1.656   3.512  0.2403  0.5594  0.1313
 2100SOL     OW 8429   3.135   1.897   3.383 -0.4199  0.0237 -0.3197
 2100SOL    HW2 8430   3.056   1.947   3.406  0.8157  1.7973  0.1432
 2100SOL    HW3 8431   3.207   1.950   3.415  0.9701 -1.7489 -0.4547
 2100SOL    MW4 8432   3.134   1.911   3.390 -0.0735  0.0238 -0.2765
 2101SOL     OW 8433   3.346   2.032   3.503  0.1027 -0.0832 -0.0658
 2101SOL    HW2 8434   3.353   2.123   3.472 -1.9422  0.8719  2.1404
 2101SOL    HW3 8435   3.353   2.039   3.598 -0.4112 -2.2270  0.1427
 2101SOL    MW4 8436   3.348   2.045   3.511 -0.2349 -0.2400  0.2528
 2102SOL     OW 8437   3.360   2.302   3.390 -0.3802 -0.1441 -0.6048
 2102SOL    HW2 8438   3.437   2.355   3.407 -0.3870 -0.6682  1.1686
 2102SOL    HW3 8439   3.287   2.354   3.423 -0.5983 -0.4189 -0.6480
 2102SOL    MW4 8440   3.360   2.316   3.396 -0.4099 -0.2496 -0.3765
 2103SOL     OW 8441   3.131   2.453   3.496 -0.3663 -0.2690 -1.0887
 2103SOL    HW2 8442   3.111   2.544   3.473  0.2038 -0.0210 -0.6138
 2103SOL    HW3 8443   3.076   2.401   3.437 -0.7257  0.3815 -1.3357
 2103SOL    MW4 8444   3.121   2.458   3.485 -0.3385 -0.1504 -1.0586
 2104SOL     OW 8445   3.131   2.708   3.399  0.1773 -0.6399  0.1471
 2104SOL    HW2 8446   3.210   2.754   3.429  0.2191 -0.9666  0.5555
 2104SOL    HW3 8447   3.059   2.761   3.432  0.2226 -1.0944  1.0012
 2104SOL    MW4 8448   3.132   2.721   3.408  0.1888 -0.7430  0.3136
 2105SOL     OW 8449   3.354   2.825   3.520  0.0366  0.3895  0.1032
 2105SOL    HW2 8450   3.346   2.818   3.616  0.2342 -0.0005  0.0892
 2105SOL    HW3 8451   3.361   2.919   3.504  1.9167  0.3573  0.6191
 2105SOL    MW4 8452   3.354   2.836   3.531  0.3107  0.3338  0.1694
 2106SOL     OW 8453   3.393   3.098   3.420 -0.6669  0.0409 -0.7129
 2106SOL    HW2 8454   3.465   3.139   3.468 -0.1998 -1.1629 -0.3530
 2106SOL    HW3 8455   3.314   3.141   3.453 -0.4154 -1.2644  1.6997
 2106SOL    MW4 8456   3.392   3.109   3.431 -0.5721 -0.2901 -0.3471
 2107SOL     OW 8457   3.163   3.223   3.511 -0.2597 -0.2676  0.2428
 2107SOL    HW2 8458   3.149   3.310   3.474 -0.9603 -0.6054 -0.2974
 2107SOL    HW3 8459   3.091   3.170   3.478  1.6803 -1.7935 -1.7471
 2107SOL    MW4 8460   3.152   3.227   3.502 -0.0962 -0.5135 -0.0910
 2108SOL     OW 8461   3.156   3.493   3.420  0.4540  0.1365 -0.3306
 2108SOL    HW2 8462   3.071   3.525   3.450 -0.2304 -1.7878 -0.1777
 2108SOL    HW3 8463   3.150   3.491   3.325  0.6069  0.7008 -0.3579
 2108SOL    MW4 8464   3.144   3.497   3.412  0.3839 -0.0429 -0.3141
 2109SOL     OW 8465   3.369   3.614   3.539  0.3878  0.2632  0.0805
 2109SOL    HW2 8466   3.382   3.689   3.481 -0.3997 -0.6229 -1.2425
 2109SOL    HW3 8467   3.288   3.574   3.510 -0.0046 -0.2313  1.7704
 2109SOL    MW4 8468   3.360   3.619   3.528  0.2321  0.0811  0.1289
 2110SOL     OW 8469   3.350   3.846   3.402 -0.3575  0.2431  0.2114
 2110SOL    HW2 8470   3.423   3.898   3.435 -1.1966  1.1266  0.6960
 2110SOL    HW3 8471   3.274   3.903   3.411 -0.9082 -0.1921 -1.5116
 2110SOL    MW4 8472   3.350   3.860   3.407 -0.5409  0.3022  0.0480
 2111SOL     OW 8473   3.127   4.002   3.442  0.0030  0.4901 -0.0224
 2111SOL    HW2 8474   3.101   3.989   3.533  0.9531  0.3528  0.2458
 2111SOL    HW3 8475   3.134   4.097   3.432  1.6950  0.4528  0.5964
 2111SOL    MW4 8476   3.125   4.012   3.453  0.3516  0.4670  0.0946
 2112SOL     OW 8477   3.122   4.262   3.365 -0.0423  0.1780 -0.1334
 2112SOL    HW2 8478   3.195   4.298   3.415  0.7076 -0.2273 -0.9139
 2112SOL    HW3 8479   3.044   4.308   3.398  0.8936  2.5841 -1.1450
 2112SOL    MW4 8480   3.121   4.273   3.376  0.1801  0.4419 -0.3699
 2113SOL     OW 8481   3.344   4.388   3.507 -0.0352 -0.1757 -0.0634
 2113SOL    HW2 8482   3.350   4.411   3.600  0.3605 -0.9167  0.1021
 2113SOL    HW3 8483   3.361   4.470   3.461 -1.7153  0.5225  0.5154
 2113SOL    MW4 8484   3.347   4.402   3.514 -0.2047 -0.1814  0.0348
 2114SOL     OW 8485   3.822   4.611   3.437  0.0705 -0.3354  0.1310
 2114SOL    HW2 8486   3.749   4.663   3.470  0.5045 -0.1675  0.8330
 2114SOL    HW3 8487   3.830   4.637   3.345  0.4692  1.0503  0.5526
 2114SOL    MW4 8488   3.813   4.621   3.429  0.1803 -0.1304  0.2792
 2115SOL     OW 8489   3.612   0.101   3.519 -0.0531 -0.0764 -0.4169
 2115SOL    HW2 8490   3.624   0.186   3.476 -1.6728  0.4379  0.1126
 2115SOL    HW3 8491   3.539   0.060   3.472  0.0867 -0.7639 -0.0471
 2115SOL    MW4 8492   3.604   0.107   3.507 -0.2484 -0.0992 -0.2983
 2116SOL     OW 8493   3.631   0.361   3.414 -0.2328 -0.0331 -0.4792
 2116SOL    HW2 8494   3.693   0.428   3.442  0.5509 -0.3655 -1.4000
 2116SOL    HW3 8495   3.545   0.401   3.429  0.1210 -0.3535  2.7795
 2116SOL    MW4 8496   3.628   0.375   3.420 -0.0827 -0.1192 -0.1708
 2117SOL     OW 8497   3.826   0.533   3.487  0.5065 -0.3714 -0.1647
 2117SOL    HW2 8498   3.836   0.535   3.582 -1.8637 -3.0106  0.2066
 2117SOL    HW3 8499   3.892   0.470   3.457 -0.5966 -1.6387  0.0417
 2117SOL    MW4 8500   3.836   0.525   3.496  0.0483 -0.8868 -0.0885
 2118SOL     OW 8501   3.834   0.805   3.425  0.0126  0.1602  0.1201
 2118SOL    HW2 8502   3.901   0.850   3.476 -0.1119  0.4254  0.0465
 2118SOL    HW3 8503   3.843   0.713   3.450  1.3587 -0.0171 -0.9420
 2118SOL    MW4 8504   3.844   0.799   3.435  0.1738  0.1718 -0.0297
 2119SOL     OW 8505   3.588   0.875   3.499  0.0367  0.0972 -0.0861
 2119SOL    HW2 8506   3.600   0.895   3.592 -0.9329 -0.1143  0.0892
 2119SOL    HW3 8507   3.674   0.843   3.471  0.5687  0.9546  0.5294
 2119SOL    MW4 8508   3.601   0.873   3.508 -0.0211  0.1824  0.0183
 2120SOL     OW 8509   3.563   1.142   3.405  0.1148 -0.0579  0.0086
 2120SOL    HW2 8510   3.577   1.056   3.445  2.1020  0.3571  0.2073
 2120SOL    HW3 8511   3.557   1.123   3.311  0.3540 -0.4232  0.0658
 2120SOL    MW4 8512   3.564   1.128   3.398  0.4086 -0.0513  0.0423
 2121SOL     OW 8513   3.772   1.305   3.489  0.2014  0.0233 -0.1928
 2121SOL    HW2 8514   3.793   1.297   3.582 -0.5819  1.0276  0.0827
 2121SOL    HW3 8515   3.698   1.246   3.475  0.1619  0.0591 -0.1311
 2121SOL    MW4 8516   3.765   1.296   3.499  0.0929  0.1605 -0.1483
 2122SOL     OW 8517   3.794   1.561   3.420 -0.5051 -0.2194  0.2987
 2122SOL    HW2 8518   3.880   1.583   3.453 -0.3158 -0.9308  0.2797
 2122SOL    HW3 8519   3.786   1.467   3.432 -1.3754 -0.1242  0.5227
 2122SOL    MW4 8520   3.804   1.552   3.426 -0.5950 -0.3007  0.3257
 2123SOL     OW 8521   3.527   1.656   3.504  0.0890  0.1299  0.1055
 2123SOL    HW2 8522   3.553   1.733   3.453 -0.3496  0.8574  0.9530
 2123SOL    HW3 8523   3.600   1.595   3.495  1.8947  1.9203  2.0257
 2123SOL    MW4 8524   3.540   1.658   3.496  0.2694  0.4621  0.4706
 2124SOL     OW 8525   3.551   1.931   3.358 -0.4170 -0.1767  0.5535
 2124SOL    HW2 8526   3.633   1.970   3.387 -0.2566  0.1265 -0.2654
 2124SOL    HW3 8527   3.483   1.975   3.410 -0.2378  1.2320 -0.3617
 2124SOL    MW4 8528   3.553   1.942   3.368 -0.3722  0.0492  0.3247
 2125SOL     OW 8529   3.796   2.022   3.463  0.0809 -0.1151 -0.0006
 2125SOL    HW2 8530   3.796   2.032   3.559  0.3393  0.5841 -0.0762
 2125SOL    HW3 8531   3.883   1.987   3.443 -0.4718 -1.6474  0.1592
 2125SOL    MW4 8532   3.807   2.019   3.473  0.0421 -0.2250  0.0105
 2126SOL     OW 8533   3.837   2.312   3.366 -0.2621  0.2485  0.0779
 2126SOL    HW2 8534   3.918   2.354   3.397 -0.5813  0.4880  0.6002
 2126SOL    HW3 8535   3.839   2.224   3.404 -0.7753  0.6279  0.9948
 2126SOL    MW4 8536   3.848   2.306   3.375 -0.3719  0.3301  0.2678
 2127SOL     OW 8537   3.597   2.443   3.439 -0.4744 -0.1544 -0.2835
 2127SOL    HW2 8538   3.618   2.535   3.424 -0.2417  0.0645  1.2753
 2127SOL    HW3 8539   3.677   2.396   3.416  0.2920  0.2820  1.4412
 2127SOL    MW4 8540   3.611   2.449   3.434 -0.3426 -0.0680  0.1498
 2128SOL     OW 8541   3.586   2.718   3.397  0.1560  0.4230 -0.3227
 2128SOL    HW2 8542   3.662   2.754   3.443  0.0298 -1.7066  1.6581
 2128SOL    HW3 8543   3.511   2.750   3.447  0.0013 -1.6073  0.7903
 2128SOL    MW4 8544   3.587   2.727   3.410  0.1189 -0.1259  0.0855
 2129SOL     OW 8545   3.815   2.840   3.501 -0.1097 -0.0360  0.1045
 2129SOL    HW2 8546   3.798   2.842   3.595  0.4092 -0.6138  0.2076
 2129SOL    HW3 8547   3.811   2.932   3.475  0.7485  0.2319  0.8751
 2129SOL    MW4 8548   3.812   2.853   3.510  0.0720 -0.0769  0.2197
 2130SOL     OW 8549   3.808   3.089   3.391 -0.4910 -0.0532 -0.5412
 2130SOL    HW2 8550   3.892   3.130   3.412  0.2824 -2.0285  0.3117
 2130SOL    HW3 8551   3.810   3.078   3.296 -0.0256  0.4126 -0.5892
 2130SOL    MW4 8552   3.819   3.093   3.381 -0.3276 -0.2524 -0.4350
 2131SOL     OW 8553   3.611   3.205   3.556  0.4149 -0.5251 -0.5320
 2131SOL    HW2 8554   3.604   3.298   3.537 -1.3527 -0.7165 -1.0101
 2131SOL    HW3 8555   3.664   3.170   3.485  1.8881  0.2569  0.1737
 2131SOL    MW4 8556   3.617   3.212   3.544  0.3761 -0.4472 -0.5020
 2132SOL     OW 8557   3.577   3.468   3.459  0.2172  0.2612 -0.3780
 2132SOL    HW2 8558   3.502   3.519   3.489  0.6489  0.8241 -0.2520
 2132SOL    HW3 8559   3.578   3.481   3.364 -0.2200 -0.2618 -0.4582
 2132SOL    MW4 8560   3.567   3.477   3.450  0.2164  0.2665 -0.3720
 2133SOL     OW 8561   3.823   3.578   3.522  0.2243 -0.0868  0.0273
 2133SOL    HW2 8562   3.828   3.601   3.614  1.2052  0.0528 -0.0527
 2133SOL    HW3 8563   3.737   3.538   3.511 -1.0076  2.4267  0.4128
 2133SOL    MW4 8564   3.813   3.576   3.532  0.1912  0.2633  0.0676
 2134SOL     OW 8565   3.821   3.867   3.373 -0.6407  0.0115 -0.0925
 2134SOL    HW2 8566   3.736   3.897   3.406  0.5778  0.4724  2.8024
 2134SOL    HW3 8567   3.829   3.778   3.406 -0.1198 -0.1101 -0.5541
 2134SOL    MW4 8568   3.811   3.859   3.382 -0.4112  0.0563  0.2285
 2135SOL     OW 8569   3.576   3.953   3.482  0.1183  0.1003 -0.3018
 2135SOL    HW2 8570   3.577   3.943   3.577  0.3524 -1.2682 -0.4459
 2135SOL    HW3 8571   3.560   4.047   3.469 -0.5245  0.2040  1.0694
 2135SOL    MW4 8572   3.574   3.964   3.493  0.0644 -0.0666 -0.1399
 2136SOL     OW 8573   3.541   4.210   3.417 -0.4502 -0.0014  0.3765
 2136SOL    HW2 8574   3.463   4.262   3.435 -1.6272 -1.3744 -0.7395
 2136SOL    HW3 8575   3.556   4.220   3.323 -0.6619 -1.6467  0.1586
 2136SOL    MW4 8576   3.533   4.218   3.407 -0.6334 -0.3996  0.2005
 2137SOL     OW 8577   3.808   4.338   3.466 -0.2185 -0.7704  0.2322
 2137SOL    HW2 8578   3.723   4.304   3.438  0.1924 -0.4882 -1.4582
 2137SOL    HW3 8579   3.803   4.432   3.448  0.4901 -0.7738 -0.0105
 2137SOL    MW4 8580   3.796   4.346   3.460 -0.0708 -0.7336 -0.0228
 2138SOL     OW 8581   4.263   0.032   3.379  0.0400  0.4772  0.5460
 2138SOL    HW2 8582   4.253  -0.057   3.413 -1.2722  0.5673  0.4471
 2138SOL    HW3 8583   4.344   0.064   3.419 -0.3364 -0.1803  1.8779
 2138SOL    MW4 8584   4.272   0.025   3.389 -0.1828  0.4023  0.7087
 2139SOL     OW 8585   4.017   0.100   3.527 -0.1412  0.6941 -0.3882
 2139SOL    HW2 8586   4.093   0.073   3.477 -0.1101  0.2340 -0.0869
 2139SOL    HW3 8587   3.944   0.050   3.490 -0.0265 -0.0443  0.3864
 2139SOL    MW4 8588   4.017   0.090   3.515 -0.1220  0.5360 -0.2462
 2140SOL     OW 8589   4.013   0.359   3.428  0.1073 -0.1689 -0.1318
 2140SOL    HW2 8590   4.011   0.275   3.474  1.9544  0.2272  0.7157
 2140SOL    HW3 8591   4.003   0.336   3.336  0.4114 -1.3130  0.1125
 2140SOL    MW4 8592   4.012   0.345   3.422  0.3911 -0.2676  0.0123
 2141SOL     OW 8593   4.259   0.484   3.502  0.7037 -0.6105 -0.2623
 2141SOL    HW2 8594   4.259   0.567   3.454 -0.6168 -0.1947  0.4628
 2141SOL    HW3 8595   4.173   0.446   3.485  1.4640 -2.0616 -0.9652
 2141SOL    MW4 8596   4.248   0.490   3.493  0.6298 -0.7471 -0.2594
 2142SOL     OW 8597   4.250   0.758   3.421 -0.2562 -0.4744 -0.5078
 2142SOL    HW2 8598   4.332   0.798   3.448  2.0288 -4.6486 -0.7279
 2142SOL    HW3 8599   4.255   0.757   3.325 -0.8261 -0.1881 -0.5388
 2142SOL    MW4 8600   4.261   0.763   3.412 -0.0299 -0.9874 -0.5410
 2143SOL     OW 8601   4.088   0.934   3.560 -0.2053 -0.1369 -0.1404
 2143SOL    HW2 8602   4.070   1.009   3.502  0.3690 -0.7063 -1.0529
 2143SOL    HW3 8603   4.146   0.878   3.509  0.3194 -0.6295  1.0095
 2143SOL    MW4 8604   4.093   0.937   3.545 -0.0603 -0.2770 -0.1090
 2144SOL     OW 8605   4.021   1.151   3.389 -0.0575 -0.0735  0.2143
 2144SOL    HW2 8606   4.089   1.199   3.436 -0.5314  0.2740  0.5451
 2144SOL    HW3 8607   3.940   1.197   3.410 -0.5466 -1.1454  0.7024
 2144SOL    MW4 8608   4.019   1.163   3.398 -0.1845 -0.1691  0.3223
 2145SOL     OW 8609   4.226   1.284   3.508  0.0316 -0.4045 -1.0613
 2145SOL    HW2 8610   4.241   1.367   3.464 -0.9165  0.0153 -0.6108
 2145SOL    HW3 8611   4.305   1.233   3.492  1.6699  1.4766  0.6791
 2145SOL    MW4 8612   4.238   1.288   3.500  0.1226 -0.1010 -0.7722
 2146SOL     OW 8613   4.286   1.526   3.363 -0.0135 -0.2850 -0.0438
 2146SOL    HW2 8614   4.211   1.569   3.405 -0.2111 -1.1064  0.4469
 2146SOL    HW3 8615   4.267   1.534   3.269  0.0298  0.8343  0.0297
 2146SOL    MW4 8616   4.273   1.533   3.356 -0.0338 -0.2457  0.0306
 2147SOL     OW 8617   4.077   1.637   3.515 -0.3214  0.2305  0.2424
 2147SOL    HW2 8618   4.080   1.643   3.610 -0.9957 -0.3996  0.3084
 2147SOL    HW3 8619   4.073   1.728   3.485  1.0838  0.4782  0.7595
 2147SOL    MW4 8620   4.077   1.649   3.523 -0.2250  0.1801  0.3193
 2148SOL     OW 8621   4.033   1.888   3.402  0.2710 -0.0517 -0.1590
 2148SOL    HW2 8622   4.117   1.933   3.403  0.2838  0.0611 -2.9398
 2148SOL    HW3 8623   4.017   1.869   3.310 -1.5704 -2.3174  0.5725
 2148SOL    MW4 8624   4.042   1.891   3.390  0.0297 -0.3358 -0.4294
 2149SOL     OW 8625   4.245   2.053   3.483 -0.0467 -0.5463 -0.7877
 2149SOL    HW2 8626   4.246   2.135   3.434  1.1062 -0.4843 -0.6733
 2149SOL    HW3 8627   4.330   2.013   3.465 -0.8877 -2.0981 -1.4771
 2149SOL    MW4 8628   4.256   2.059   3.474 -0.0056 -0.7429 -0.8636
 2150SOL     OW 8629   4.264   2.293   3.337 -0.2553 -0.0287  0.0797
 2150SOL    HW2 8630   4.189   2.345   3.367 -0.7300 -0.2189 -0.7736
 2150SOL    HW3 8631   4.250   2.282   3.243 -0.1319 -1.6484  0.2326
 2150SOL    MW4 8632   4.252   2.299   3.329 -0.3016 -0.2675 -0.0127
 2151SOL     OW 8633   4.051   2.450   3.465  0.2100  0.5263  0.0997
 2151SOL    HW2 8634   4.041   2.438   3.560 -0.6636  1.6766  0.1585
 2151SOL    HW3 8635   4.055   2.544   3.453  0.4062  0.3777 -1.0029
 2151SOL    MW4 8636   4.050   2.461   3.476  0.1206  0.6584 -0.0380
 2152SOL     OW 8637   4.064   2.721   3.395 -0.0738  0.6432 -0.5723
 2152SOL    HW2 8638   4.140   2.773   3.422 -0.1029  0.5253 -0.2618
 2152SOL    HW3 8639   3.990   2.766   3.435  0.0142 -0.3334  0.7190
 2152SOL    MW4 8640   4.064   2.734   3.404 -0.0661  0.4988 -0.3610
 2153SOL     OW 8641   4.284   2.853   3.478 -0.0540  0.1250  0.2253
 2153SOL    HW2 8642   4.278   2.836   3.572  0.6487  1.6693  0.5470
 2153SOL    HW3 8643   4.362   2.806   3.450  0.3052  0.4963  0.6013
 2153SOL    MW4 8644   4.293   2.844   3.486  0.0861  0.3777  0.3174
 2154SOL     OW 8645   4.319   3.103   3.339  0.6532  0.3532 -0.4746
 2154SOL    HW2 8646   4.301   3.012   3.364 -1.2826  0.7192 -0.4613
 2154SOL    HW3 8647   4.306   3.105   3.244 -2.3856  1.2663 -0.0911
 2154SOL    MW4 8648   4.315   3.091   3.330 -0.0031  0.5220 -0.4223
 2155SOL     OW 8649   4.048   3.186   3.451  0.4330 -0.0755 -0.0370
 2155SOL    HW2 8650   4.062   3.280   3.441 -0.7647  0.0469 -0.5492
 2155SOL    HW3 8651   4.131   3.146   3.425  0.6941  0.7976 -0.5336
 2155SOL    MW4 8652   4.061   3.193   3.446  0.3094  0.0558 -0.1701
 2156SOL     OW 8653   4.027   3.449   3.385  0.1724  0.1550 -0.5430
 2156SOL    HW2 8654   4.105   3.497   3.413  0.3570  0.0251 -0.8290
 2156SOL    HW3 8655   3.955   3.491   3.432  0.4458  0.1099 -0.0771
 2156SOL    MW4 8656   4.028   3.461   3.395  0.2328  0.1319 -0.5193
 2157SOL     OW 8657   4.213   3.594   3.517  0.3196 -0.0070 -0.3239
 2157SOL    HW2 8658   4.217   3.603   3.612  0.6623  0.6533 -0.4045
 2157SOL    HW3 8659   4.238   3.679   3.483 -0.3005 -0.0854 -1.0030
 2157SOL    MW4 8660   4.217   3.606   3.525  0.2830  0.0697 -0.4242
 2158SOL     OW 8661   4.270   3.824   3.400  0.0741 -0.1335 -0.2476
 2158SOL    HW2 8662   4.327   3.895   3.429 -1.5890  1.1722 -0.0798
 2158SOL    HW3 8663   4.257   3.841   3.306  0.4447 -0.7513 -0.4059
 2158SOL    MW4 8664   4.276   3.836   3.391 -0.0964 -0.0427 -0.2464
 2159SOL     OW 8665   4.029   3.995   3.484 -0.6067 -0.4242  0.4581
 2159SOL    HW2 8666   4.105   3.943   3.455 -0.2572  0.2201  0.2209
 2159SOL    HW3 8667   3.956   3.960   3.434 -0.3623 -0.6591  0.2617
 2159SOL    MW4 8668   4.030   3.983   3.474 -0.5284 -0.3702  0.4009
 2160SOL     OW 8669   4.050   4.256   3.382  0.4397 -0.1175  0.2097
 2160SOL    HW2 8670   4.054   4.166   3.415  2.0659 -0.6161 -1.2512
 2160SOL    HW3 8671   3.976   4.295   3.428  0.2593 -1.9330  1.5299
 2160SOL    MW4 8672   4.041   4.249   3.393  0.6304 -0.4228  0.1911
 2161SOL     OW 8673   4.262   4.423   3.464 -0.0166  0.2508 -0.3054
 2161SOL    HW2 8674   4.280   4.403   3.556  1.8316  0.5643 -0.5656
 2161SOL    HW3 8675   4.194   4.361   3.439 -0.6430  0.2530  1.3085
 2161SOL    MW4 8676   4.255   4.412   3.473  0.1446  0.2924 -0.1268
 2162SOL     OW 8677   0.200   4.655   3.876 -0.6328 -0.4030  0.0750
 2162SOL    HW2 8678   0.211   4.670   3.970 -0.1182  0.9534 -0.1726
 2162SOL    HW3 8679   0.123   4.707   3.852  0.2841  0.7051 -0.5505
 2162SOL    MW4 8680   0.192   4.664   3.885 -0.4439 -0.0778 -0.0402
 2163SOL     OW 8681   4.461   0.128   3.824 -0.1642 -0.0687 -0.0412
 2163SOL    HW2 8682   4.485   0.218   3.846  1.8340 -0.4579 -0.4756
 2163SOL    HW3 8683   4.479   0.122   3.730  0.3844 -1.1123  0.1281
 2163SOL    MW4 8684   4.467   0.139   3.814  0.1718 -0.2577 -0.0762
 2164SOL     OW 8685   0.034   0.395   3.897  0.5981  0.3970  0.0107
 2164SOL    HW2 8686  -0.042   0.416   3.843 -0.3384 -0.5142  0.9826
 2164SOL    HW3 8687   0.108   0.436   3.850 -0.3087  0.3019 -1.5295
 2164SOL    MW4 8688   0.034   0.403   3.884  0.3549  0.2642 -0.0643
 2165SOL     OW 8689   0.260   0.515   3.732 -0.1184 -0.6950 -0.1283
 2165SOL    HW2 8690   0.271   0.603   3.769  0.7544 -0.7832 -0.1771
 2165SOL    HW3 8691   0.250   0.529   3.638 -3.6775 -0.3570  0.2190
 2165SOL    MW4 8692   0.260   0.528   3.725 -0.4728 -0.6620 -0.0889
 2166SOL     OW 8693   0.248   0.766   3.843 -0.0936 -0.0804 -0.1662
 2166SOL    HW2 8694   0.239   0.760   3.938  0.4533  1.3884  0.0005
 2166SOL    HW3 8695   0.163   0.797   3.812  0.1602  0.8151  0.0070
 2166SOL    MW4 8696   0.236   0.769   3.852  0.0120  0.2315 -0.1213
 2167SOL     OW 8697   0.008   0.885   3.796 -0.3472 -0.3388  0.6610
 2167SOL    HW2 8698  -0.069   0.844   3.836 -0.8527  0.1784  0.2181
 2167SOL    HW3 8699   0.017   0.969   3.841 -0.6034  0.0117  0.0678
 2167SOL    MW4 8700  -0.001   0.890   3.807 -0.4477 -0.2243  0.5243
 2168SOL     OW 8701   0.026   1.158   3.913  0.0475 -0.4889  0.6262
 2168SOL    HW2 8702  -0.048   1.208   3.879  0.3792 -0.6924 -0.4125
 2168SOL    HW3 8703   0.015   1.160   4.008 -0.0198  1.4355  0.5922
 2168SOL    MW4 8704   0.015   1.165   3.921  0.0824 -0.2619  0.4847
 2169SOL     OW 8705   0.228   1.280   3.754 -0.4683 -0.8419 -0.3787
 2169SOL    HW2 8706   0.223   1.350   3.819 -1.8491  0.5634 -1.9446
 2169SOL    HW3 8707   0.162   1.217   3.782 -0.9051 -0.3515 -0.2915
 2169SOL    MW4 8708   0.219   1.281   3.766 -0.7081 -0.5918 -0.5738
 2170SOL     OW 8709   0.232   1.533   3.902  1.0459  0.6818 -0.5399
 2170SOL    HW2 8710   0.216   1.531   3.996  1.3411 -0.1230 -0.4993
 2170SOL    HW3 8711   0.148   1.558   3.864  0.3182 -1.0964 -0.1811
 2170SOL    MW4 8712   0.219   1.536   3.909  0.9888  0.3410 -0.4872
 2171SOL     OW 8713   4.486   1.666   3.803  0.3074  0.2278  0.0496
 2171SOL    HW2 8714   4.482   1.757   3.831  0.4008  0.7155 -1.4731
 2171SOL    HW3 8715   4.474   1.670   3.708 -1.5147 -1.4930  0.1894
 2171SOL    MW4 8716   4.484   1.679   3.794  0.0793  0.0651 -0.1329
 2172SOL     OW 8717   4.485   1.927   3.897  0.1292  0.0951 -0.2313
 2172SOL    HW2 8718   4.494   1.941   3.992  1.0097 -2.1615  0.0491
 2172SOL    HW3 8719   4.404   1.972   3.874 -1.1066 -0.9019  1.9574
 2172SOL    MW4 8720   4.476   1.935   3.907  0.0824 -0.3342  0.0945
 2173SOL     OW 8721   0.226   2.034   3.790  0.2977 -0.2309  0.0901
 2173SOL    HW2 8722   0.211   2.128   3.802 -0.1823 -0.3299  0.2540
 2173SOL    HW3 8723   0.153   1.992   3.835 -0.1404 -0.6573 -0.9899
 2173SOL    MW4 8724   0.214   2.041   3.797  0.1766 -0.3002 -0.0308
 2174SOL     OW 8725   0.232   2.309   3.869  0.4306  0.0269 -0.1630
 2174SOL    HW2 8726   0.226   2.298   3.964  0.0035  0.0090 -0.1909
 2174SOL    HW3 8727   0.147   2.345   3.843 -0.2883 -2.0532 -0.8252
 2174SOL    MW4 8728   0.220   2.312   3.878  0.2794 -0.2499 -0.2541
 2175SOL     OW 8729   4.482   2.418   3.748  0.2201 -0.4043 -0.3578
 2175SOL    HW2 8730   4.401   2.377   3.776  0.1420 -0.0965 -0.1296
 2175SOL    HW3 8731   4.477   2.507   3.782  1.0442 -0.6383  0.4022
 2175SOL    MW4 8732   4.471   2.424   3.756  0.3185 -0.3945 -0.2274
 2176SOL     OW 8733   4.476   2.672   3.845 -0.4577 -0.0433 -0.4078
 2176SOL    HW2 8734   4.453   2.674   3.938  1.7030 -1.5517  0.2002
 2176SOL    HW3 8735   4.545   2.738   3.836  0.5350 -1.0883 -0.5720
 2176SOL    MW4 8736   4.483   2.681   3.856 -0.0416 -0.3802 -0.3492
 2177SOL     OW 8737   0.209   2.844   3.781  0.2763  0.5736 -0.6437
 2177SOL    HW2 8738   0.284   2.795   3.815 -2.6909 -2.6362  1.5838
 2177SOL    HW3 8739   0.203   2.816   3.689  0.2930 -1.1406 -0.1408
 2177SOL    MW4 8740   0.218   2.834   3.773 -0.1130 -0.0760 -0.2835
 2178SOL     OW 8741   0.218   3.106   3.895  0.8538 -0.2722  0.0031
 2178SOL    HW2 8742   0.210   3.122   3.989  0.6395  0.2199 -0.0954
 2178SOL    HW3 8743   0.198   3.013   3.885  0.9396 -0.3446  0.4487
 2178SOL    MW4 8744   0.215   3.096   3.906  0.8368 -0.2168  0.0489
 2179SOL     OW 8745   4.490   3.244   3.764 -0.0012 -0.0892  0.0366
 2179SOL    HW2 8746   4.563   3.189   3.794  0.1271  1.5772  2.9000
 2179SOL    HW3 8747   4.502   3.249   3.669  1.2269 -3.1807 -0.0440
 2179SOL    MW4 8748   4.501   3.237   3.755  0.1778 -0.2772  0.4038
 2180SOL     OW 8749   0.012   3.481   3.890  0.2462 -0.1437  0.2337
 2180SOL    HW2 8750   0.079   3.529   3.841 -0.2197 -0.0311 -0.2934
 2180SOL    HW3 8751   0.016   3.392   3.854  0.7274 -0.3666  0.8257
 2180SOL    MW4 8752   0.022   3.475   3.879  0.2482 -0.1583  0.2423
 2181SOL     OW 8753   0.219   3.614   3.769  0.0907 -0.6668 -0.1885
 2181SOL    HW2 8754   0.297   3.572   3.806 -0.5284 -0.8228  0.9621
 2181SOL    HW3 8755   0.215   3.699   3.814 -0.4443 -0.6938 -0.1897
 2181SOL    MW4 8756   0.229   3.620   3.780 -0.0615 -0.6909 -0.0368
 2182SOL     OW 8757   0.213   3.869   3.884  0.5144  0.5958  0.1288
 2182SOL    HW2 8758   0.299   3.900   3.854  2.0644 -3.2728  0.3500
 2182SOL    HW3 8759   0.216   3.876   3.979  0.9145 -0.3452  0.1864
 2182SOL    MW4 8760   0.224   3.874   3.892  0.7717 -0.0387  0.1656
 2183SOL     OW 8761   0.007   4.005   3.757 -0.0040  0.4909 -0.3615
 2183SOL    HW2 8762  -0.071   3.958   3.786 -0.6817  1.2766 -0.8801
 2183SOL    HW3 8763   0.079   3.966   3.807 -0.5939 -0.8594 -0.5409
 2183SOL    MW4 8764   0.006   3.994   3.768 -0.1712  0.4164 -0.4536
 2184SOL     OW 8765   4.464   4.250   3.880 -0.5615 -0.4258  0.3428
 2184SOL    HW2 8766   4.532   4.308   3.845 -1.9283  1.1100  0.1399
 2184SOL    HW3 8767   4.479   4.167   3.836  0.8290  0.0441 -0.1200
 2184SOL    MW4 8768   4.475   4.247   3.870 -0.5584 -0.1612  0.2550
 2185SOL     OW 8769   0.213   4.385   3.791 -0.5984 -0.2036 -0.2399
 2185SOL    HW2 8770   0.296   4.351   3.822 -0.4557 -0.1621 -0.5722
 2185SOL    HW3 8771   0.209   4.475   3.824 -0.4511 -0.1635 -0.3318
 2185SOL    MW4 8772   0.223   4.393   3.799 -0.5602 -0.1929 -0.2959
 2186SOL     OW 8773   0.622   4.662   3.809 -0.0188 -0.4297  0.2959
 2186SOL    HW2 8774   0.630   4.567   3.794  2.4096 -0.0895 -0.9014
 2186SOL    HW3 8775   0.549   4.689   3.754 -0.1799 -1.4898 -0.0175
 2186SOL    MW4 8776   0.614   4.653   3.800  0.2803 -0.5247  0.0966
 2187SOL     OW 8777   0.398   0.121   3.709 -0.1934  0.3884  0.7191
 2187SOL    HW2 8778   0.428   0.192   3.765 -1.2294  1.1855  0.2796
 2187SOL    HW3 8779   0.331   0.077   3.761 -0.7616  0.7884  0.3336
 2187SOL    MW4 8780   0.393   0.124   3.723 -0.4051  0.5463  0.6103
 2188SOL     OW 8781   0.476   0.356   3.825  0.0660 -0.1079 -0.0593
 2188SOL    HW2 8782   0.552   0.401   3.788  0.3424  0.7183  1.4404
 2188SOL    HW3 8783   0.401   0.411   3.802  0.1734  0.1327  0.1603
 2188SOL    MW4 8784   0.476   0.369   3.817  0.1166  0.0329  0.1675
 2189SOL     OW 8785   0.689   0.489   3.693  0.0133  0.1285 -0.4792
 2189SOL    HW2 8786   0.768   0.447   3.728 -1.1022 -1.3814  0.2916
 2189SOL    HW3 8787   0.685   0.573   3.739  0.0011 -0.7169  1.1209
 2189SOL    MW4 8788   0.699   0.494   3.704 -0.1355 -0.1823 -0.1664
 2190SOL     OW 8789   0.655   0.716   3.833 -0.2023  0.1095  0.1134
 2190SOL    HW2 8790   0.719   0.781   3.803  1.0786 -0.9454  0.4958
 2190SOL    HW3 8791   0.570   0.753   3.809  0.4539  2.2378  0.9079
 2190SOL    MW4 8792   0.652   0.730   3.826  0.0532  0.2511  0.2687
 2191SOL     OW 8793   0.464   0.895   3.730 -0.0084  0.2158 -0.1330
 2191SOL    HW2 8794   0.476   0.976   3.780  0.7509  0.2329 -0.3397
 2191SOL    HW3 8795   0.384   0.857   3.766  0.1531  0.5768  0.6247
 2191SOL    MW4 8796   0.455   0.901   3.741  0.1131  0.2657 -0.0603
 2192SOL     OW 8797   0.451   1.142   3.873  0.0804  0.4536  0.2082
 2192SOL    HW2 8798   0.523   1.203   3.856 -0.8430  1.4828 -0.0173
 2192SOL    HW3 8799   0.375   1.181   3.832 -1.1813  0.6760  2.6389
 2192SOL    MW4 8800   0.451   1.155   3.866 -0.2079  0.6187  0.4991
 2193SOL     OW 8801   0.664   1.285   3.771 -0.2986 -0.4032 -0.1089
 2193SOL    HW2 8802   0.736   1.229   3.800 -1.4119 -2.2134 -0.7574
 2193SOL    HW3 8803   0.686   1.307   3.680 -0.2455 -0.4434 -0.1058
 2193SOL    MW4 8804   0.676   1.281   3.762 -0.4385 -0.6473 -0.1941
 2194SOL     OW 8805   0.650   1.530   3.892  0.3093 -0.2576  0.0371
 2194SOL    HW2 8806   0.727   1.575   3.857  1.4314 -2.3131 -0.2325
 2194SOL    HW3 8807   0.652   1.444   3.850 -2.0007 -0.4312  0.2457
 2194SOL    MW4 8808   0.660   1.524   3.882  0.1526 -0.5517  0.0291
 2195SOL     OW 8809   0.440   1.684   3.787 -0.1798 -0.2597 -0.1270
 2195SOL    HW2 8810   0.511   1.632   3.825  0.7659  1.2254  0.1621
 2195SOL    HW3 8811   0.360   1.649   3.828  0.3163 -2.1737 -0.7183
 2195SOL    MW4 8812   0.439   1.672   3.797  0.0104 -0.3163 -0.1669
 2196SOL     OW 8813   0.497   1.952   3.889  0.2682 -0.1478 -0.0331
 2196SOL    HW2 8814   0.480   1.865   3.855 -0.3729 -0.9141  2.1596
 2196SOL    HW3 8815   0.415   1.999   3.879 -0.0781 -0.5382  0.8755
 2196SOL    MW4 8816   0.484   1.947   3.883  0.1379 -0.3004  0.3761
 2197SOL     OW 8817   0.720   2.059   3.796  0.3308  0.3132  0.3900
 2197SOL    HW2 8818   0.718   2.145   3.839  0.7439 -0.5214  2.1129
 2197SOL    HW3 8819   0.643   2.014   3.829 -0.0876  0.1299 -0.7999
 2197SOL    MW4 8820   0.709   2.064   3.806  0.3301  0.1789  0.4603
 2198SOL     OW 8821   0.698   2.311   3.923  0.1578 -0.3375  0.2680
 2198SOL    HW2 8822   0.769   2.351   3.872 -0.2909 -0.0432 -0.1218
 2198SOL    HW3 8823   0.618   2.346   3.885 -0.1987 -0.5890  0.7814
 2198SOL    MW4 8824   0.697   2.321   3.912  0.0516 -0.3319  0.2843
 2199SOL     OW 8825   0.480   2.435   3.787 -0.2094  0.6990 -0.1033
 2199SOL    HW2 8826   0.397   2.408   3.825 -0.0970  0.9186  0.3119
 2199SOL    HW3 8827   0.464   2.441   3.693 -0.3804 -0.2583 -0.1324
 2199SOL    MW4 8828   0.467   2.433   3.780 -0.2171  0.6016 -0.0524
 2200SOL     OW 8829   0.446   2.718   3.860 -0.3955 -0.2663  0.5263
 2200SOL    HW2 8830   0.516   2.768   3.820 -0.1460  0.3800  1.7459
 2200SOL    HW3 8831   0.477   2.627   3.859 -1.0103 -0.4748 -2.0176
 2200SOL    MW4 8832   0.459   2.712   3.855 -0.4437 -0.2085  0.3516
 2201SOL     OW 8833   0.695   2.809   3.770  0.2617  0.1133  1.0560
 2201SOL    HW2 8834   0.768   2.753   3.797  0.1575 -0.3405  0.4035
 2201SOL    HW3 8835   0.694   2.803   3.675 -0.3615  0.4552  1.0395
 2201SOL    MW4 8836   0.704   2.801   3.761  0.1657  0.0985  0.9677
 2202SOL     OW 8837   0.657   3.062   3.883 -0.6733 -0.6021 -0.1070
 2202SOL    HW2 8838   0.643   3.054   3.978  1.0364 -1.1807  0.1092
 2202SOL    HW3 8839   0.670   2.973   3.852  1.4173 -0.2262 -0.4321
 2202SOL    MW4 8840   0.657   3.049   3.892 -0.1719 -0.6289 -0.1214
 2203SOL     OW 8841   0.456   3.207   3.780  0.1291  0.0918 -0.8452
 2203SOL    HW2 8842   0.530   3.156   3.814  0.6947  0.8333 -0.9494
 2203SOL    HW3 8843   0.380   3.174   3.827  0.6641 -0.0541 -0.0842
 2203SOL    MW4 8844   0.456   3.196   3.790  0.2743  0.1704 -0.7585
 2204SOL     OW 8845   0.428   3.478   3.884 -0.0512 -0.0739  0.3170
 2204SOL    HW2 8846   0.504   3.532   3.864 -0.3153 -0.0487 -0.6218
 2204SOL    HW3 8847   0.444   3.395   3.839 -1.0782  0.3180 -0.7972
 2204SOL    MW4 8848   0.440   3.474   3.876 -0.2216 -0.0189  0.0461
 2205SOL     OW 8849   0.661   3.617   3.783  0.5717  0.1134 -0.2725
 2205SOL    HW2 8850   0.708   3.696   3.810  0.0898  0.5931 -0.8331
 2205SOL    HW3 8851   0.650   3.627   3.688  1.4427 -1.1312 -0.5091
 2205SOL    MW4 8852   0.666   3.629   3.774  0.6230  0.0125 -0.3777
 2206SOL     OW 8853   0.700   3.890   3.841  0.2931  0.6032  0.4627
 2206SOL    HW2 8854   0.716   3.922   3.930  0.3355  1.3963  0.1768
 2206SOL    HW3 8855   0.753   3.947   3.785  0.1965  0.1678 -0.0806
 2206SOL    MW4 8856   0.709   3.902   3.845  0.2859  0.6504  0.3533
 2207SOL     OW 8857   0.439   4.003   3.782  0.2883 -0.1519 -0.2452
 2207SOL    HW2 8858   0.517   3.951   3.800  0.4483  0.2534  0.2844
 2207SOL    HW3 8859   0.437   4.012   3.687 -0.0342 -1.5485 -0.3759
 2207SOL    MW4 8860   0.449   3.998   3.772  0.2668 -0.2827 -0.1926
 2208SOL     OW 8861   0.446   4.253   3.892  0.5981 -0.4613  0.0687
 2208SOL    HW2 8862   0.522   4.294   3.850  0.0644 -1.5656 -2.0137
 2208SOL    HW3 8863   0.455   4.160   3.871 -1.4496 -0.5735 -0.3739
 2208SOL    MW4 8864   0.457   4.246   3.884  0.2575 -0.6218 -0.2645
 2209SOL     OW 8865   0.629   4.377   3.756 -0.3162 -0.1593  0.0702
 2209SOL    HW2 8866   0.714   4.360   3.796 -0.5946  0.2388  0.8342
 2209SOL    HW3 8867   0.649   4.392   3.663  0.5631  0.8491  0.4154
 2209SOL    MW4 8868   0.643   4.377   3.749 -0.2369  0.0262  0.2165
 2210SOL     OW 8869   1.099   4.653   3.835  0.0610  0.1454  0.4077
 2210SOL    HW2 8870   1.186   4.686   3.810 -0.2726  0.5569 -0.2273
 2210SOL    HW3 8871   1.098   4.563   3.803 -0.0364  0.3923 -0.3001
 2210SOL    MW4 8872   1.111   4.646   3.827  0.0041  0.2323  0.2306
 2211SOL     OW 8873   0.875   0.111   3.752 -0.7731 -0.1874 -0.5107
 2211SOL    HW2 8874   0.934   0.055   3.802 -0.3143  0.7486  0.0203
 2211SOL    HW3 8875   0.791   0.066   3.754 -0.4502 -0.7678  0.0493
 2211SOL    MW4 8876   0.871   0.098   3.759 -0.6699 -0.1404 -0.3667
 2212SOL     OW 8877   0.913   0.372   3.841  0.1324 -0.5772  0.2565
 2212SOL    HW2 8878   0.931   0.365   3.935  0.9920  0.9112  0.2227
 2212SOL    HW3 8879   0.929   0.284   3.807  1.8925 -0.6426  1.1645
 2212SOL    MW4 8880   0.918   0.359   3.849  0.4781 -0.3895  0.3719
 2213SOL     OW 8881   1.138   0.515   3.775 -0.2069  0.5033  0.4030
 2213SOL    HW2 8882   1.209   0.468   3.819 -0.8088 -0.3277  0.4961
 2213SOL    HW3 8883   1.058   0.469   3.801 -0.6833  0.7277 -0.6087
 2213SOL    MW4 8884   1.137   0.503   3.784 -0.3492  0.4233  0.2818
 2214SOL     OW 8885   1.098   0.772   3.846  0.1988  0.3992  0.3101
 2214SOL    HW2 8886   1.099   0.759   3.941 -0.6078 -1.2855  0.1031
 2214SOL    HW3 8887   1.104   0.684   3.810 -0.2025  0.9840 -1.2007
 2214SOL    MW4 8888   1.099   0.759   3.854  0.0394  0.2541  0.0835
 2215SOL     OW 8889   0.854   0.879   3.765  0.4334 -0.1951 -0.0590
 2215SOL    HW2 8890   0.933   0.829   3.784 -0.3764 -1.8217 -0.8610
 2215SOL    HW3 8891   0.851   0.885   3.670 -0.0191  0.5003 -0.0023
 2215SOL    MW4 8892   0.864   0.873   3.755  0.2668 -0.3179 -0.1573
 2216SOL     OW 8893   0.890   1.141   3.846  0.0815  0.1241 -0.2847
 2216SOL    HW2 8894   0.897   1.140   3.941 -0.9714 -0.7120 -0.2071
 2216SOL    HW3 8895   0.871   1.051   3.822  0.1592  0.3635 -1.2725
 2216SOL    MW4 8896   0.889   1.129   3.855 -0.0472  0.0454 -0.4048
 2217SOL     OW 8897   1.094   1.297   3.768 -0.3743 -0.2199  0.1005
 2217SOL    HW2 8898   1.086   1.381   3.814  0.5391 -0.5797  0.9445
 2217SOL    HW3 8899   1.025   1.243   3.806 -0.8062  0.0698 -0.2693
 2217SOL    MW4 8900   1.084   1.301   3.779 -0.3108 -0.2291  0.1631
 2218SOL     OW 8901   1.125   1.550   3.875 -0.0563  0.5372  0.0358
 2218SOL    HW2 8902   1.138   1.558   3.969 -0.6962  0.2828  0.1492
 2218SOL    HW3 8903   1.213   1.553   3.838  0.1474  1.4746  0.5729
 2218SOL    MW4 8904   1.138   1.552   3.882 -0.1139  0.6273  0.1217
 2219SOL     OW 8905   0.867   1.664   3.803 -0.2429 -0.0589  0.6447
 2219SOL    HW2 8906   0.957   1.641   3.823 -0.3803 -1.2431 -0.0615
 2219SOL    HW3 8907   0.863   1.662   3.707 -0.7105  1.1878  0.6287
 2219SOL    MW4 8908   0.878   1.661   3.793 -0.3227 -0.0506  0.5494
 2220SOL     OW 8909   0.907   1.907   3.915 -0.0301 -0.0521  0.3162
 2220SOL    HW2 8910   0.885   1.818   3.886  0.3752  0.0807 -0.4205
 2220SOL    HW3 8911   0.835   1.961   3.882 -0.4899 -0.1611  1.1219
 2220SOL    MW4 8912   0.895   1.902   3.907 -0.0373 -0.0490  0.3253
 2221SOL     OW 8913   1.134   2.010   3.764  0.3348 -0.2889  0.0764
 2221SOL    HW2 8914   1.064   1.968   3.813 -0.8712  0.8456 -0.6514
 2221SOL    HW3 8915   1.107   2.005   3.673  1.4329 -0.2788 -0.2614
 2221SOL    MW4 8916   1.122   2.004   3.759  0.3205 -0.1379 -0.0642
 2222SOL     OW 8917   1.141   2.284   3.853 -0.5320 -0.3351 -0.1564
 2222SOL    HW2 8918   1.121   2.278   3.947 -0.3074  0.7675 -0.0212
 2222SOL    HW3 8919   1.155   2.194   3.825 -1.6630 -0.7767  0.6364
 2222SOL    MW4 8920   1.140   2.272   3.862 -0.6516 -0.2479 -0.0340
 2223SOL     OW 8921   0.903   2.401   3.761  0.7022  0.3773 -0.4977
 2223SOL    HW2 8922   0.904   2.493   3.789  1.0649  1.0157 -2.4918
 2223SOL    HW3 8923   0.990   2.368   3.785  0.4045  0.3990  0.6613
 2223SOL    MW4 8924   0.915   2.409   3.768  0.7108  0.4644 -0.6078
 2224SOL     OW 8925   0.913   2.662   3.858 -0.0253 -0.1879 -0.1483
 2224SOL    HW2 8926   0.912   2.671   3.953  0.0781  0.7041 -0.2310
 2224SOL    HW3 8927   0.993   2.707   3.830  0.3779 -1.1492 -0.5925
 2224SOL    MW4 8928   0.923   2.669   3.867  0.0415 -0.1970 -0.2178
 2225SOL     OW 8929   1.139   2.815   3.793  0.2052  0.0535  0.2716
 2225SOL    HW2 8930   1.221   2.778   3.826  0.1653  0.5203  0.9222
 2225SOL    HW3 8931   1.140   2.906   3.823 -0.4107  0.1441  0.0302
 2225SOL    MW4 8932   1.150   2.822   3.802  0.1187  0.1270  0.3256
 2226SOL     OW 8933   1.111   3.085   3.869 -0.3163 -0.1328  0.2843
 2226SOL    HW2 8934   1.183   3.138   3.834  0.2142 -1.2442 -0.3483
 2226SOL    HW3 8935   1.033   3.125   3.832  0.0657  0.2928 -0.0796
 2226SOL    MW4 8936   1.111   3.097   3.859 -0.1959 -0.2233  0.1528
 2227SOL     OW 8937   0.878   3.203   3.794  0.0086  0.0168 -0.0239
 2227SOL    HW2 8938   0.815   3.137   3.825 -0.9084  0.7986 -0.1800
 2227SOL    HW3 8939   0.852   3.221   3.704  0.0526  0.8192  0.1207
 2227SOL    MW4 8940   0.866   3.197   3.787 -0.1066  0.2258 -0.0254
 2228SOL     OW 8941   0.868   3.472   3.888 -0.2855  0.0564  0.4077
 2228SOL    HW2 8942   0.869   3.380   3.859  1.1849  0.2394 -0.1330
 2228SOL    HW3 8943   0.802   3.513   3.833  0.2621 -0.3008 -0.5331
 2228SOL    MW4 8944   0.860   3.465   3.877 -0.0193  0.0334  0.2122
 2229SOL     OW 8945   1.120   3.582   3.800  0.3342  0.1545 -0.4352
 2229SOL    HW2 8946   1.117   3.676   3.816  0.9546  0.0923  0.1273
 2229SOL    HW3 8947   1.040   3.548   3.841  0.2533  0.4047 -0.3850
 2229SOL    MW4 8948   1.109   3.590   3.808  0.4053  0.1793 -0.3544
 2230SOL     OW 8949   1.091   3.860   3.856 -0.0046  0.2427  0.8187
 2230SOL    HW2 8950   1.075   3.859   3.950  1.2390 -0.6401  1.0300
 2230SOL    HW3 8951   1.178   3.898   3.847 -1.3625  3.2830 -0.1967
 2230SOL    MW4 8952   1.100   3.865   3.867 -0.0197  0.5274  0.7126
 2231SOL     OW 8953   0.926   4.062   3.761  0.1371 -0.2327  0.4733
 2231SOL    HW2 8954   0.994   3.996   3.778  0.0172 -1.0147 -1.9033
 2231SOL    HW3 8955   0.909   4.055   3.667 -2.4538  0.7389  0.8354
 2231SOL    MW4 8956   0.933   4.053   3.751 -0.2206 -0.2077  0.2075
 2232SOL     OW 8957   0.874   4.306   3.873  0.4517  0.3924  0.1312
 2232SOL    HW2 8958   0.889   4.307   3.967 -1.2770 -3.0068  0.5249
 2232SOL    HW3 8959   0.889   4.216   3.847 -0.3651  1.0019 -2.6383
 2232SOL    MW4 8960   0.878   4.294   3.882  0.1158  0.0243 -0.1823
 2233SOL     OW 8961   1.113   4.361   3.773 -0.1984 -0.0975 -0.3257
 2233SOL    HW2 8962   1.029   4.337   3.814  0.0513  0.3616  0.4647
 2233SOL    HW3 8963   1.105   4.331   3.683 -1.3748  0.2975 -0.3627
 2233SOL    MW4 8964   1.101   4.354   3.767 -0.3206  0.0152 -0.2263
 2234SOL     OW 8965   1.549   4.634   3.880  0.6473 -0.5697  0.0540
 2234SOL    HW2 8966   1.538   4.636   3.975  0.2090 -0.9299  0.0134
 2234SOL    HW3 8967   1.558   4.541   3.859 -0.5615 -0.5981 -0.4003
 2234SOL    MW4 8968   1.549   4.622   3.890  0.4300 -0.6210 -0.0113
 2235SOL     OW 8969   1.339   0.095   3.767  0.5819  0.2976  0.0590
 2235SOL    HW2 8970   1.332   0.178   3.813  2.2473  1.0470 -1.0055
 2235SOL    HW3 8971   1.410   0.048   3.812  0.1259 -0.2612  0.2086
 2235SOL    MW4 8972   1.347   0.099   3.779  0.7415  0.3227 -0.0618
 2236SOL     OW 8973   1.324   0.344   3.891 -0.0644  0.1434  0.5580
 2236SOL    HW2 8974   1.322   0.338   3.986  1.3610 -0.0953  0.5825
 2236SOL    HW3 8975   1.405   0.390   3.871 -0.3114  0.1258 -0.5477
 2236SOL    MW4 8976   1.334   0.349   3.901  0.0911  0.1095  0.4153
 2237SOL     OW 8977   1.541   0.469   3.750 -0.7129 -0.0717  0.3199
 2237SOL    HW2 8978   1.630   0.450   3.781 -0.4418 -0.2372 -0.5660
 2237SOL    HW3 8979   1.517   0.551   3.795  0.6910  1.1225 -1.0466
 2237SOL    MW4 8980   1.550   0.478   3.760 -0.4919  0.0641  0.0227
 2238SOL     OW 8981   1.504   0.715   3.883  0.2736 -0.0706  0.3713
 2238SOL    HW2 8982   1.586   0.754   3.854  0.1043  1.3605  1.7256
 2238SOL    HW3 8983   1.437   0.762   3.833  0.1426  0.5239  1.0965
 2238SOL    MW4 8984   1.506   0.726   3.872  0.2340  0.1966  0.6457
 2239SOL     OW 8985   1.332   0.868   3.731  0.0022  0.5212 -0.0775
 2239SOL    HW2 8986   1.333   0.957   3.766 -2.1185  0.9600 -1.0658
 2239SOL    HW3 8987   1.250   0.830   3.764  1.0714 -1.2051  0.6533
 2239SOL    MW4 8988   1.321   0.875   3.740 -0.1365  0.3513 -0.1115
 2240SOL     OW 8989   1.305   1.140   3.852  0.0234 -0.1465 -0.2533
 2240SOL    HW2 8990   1.384   1.185   3.822  0.5169 -1.6074 -1.2161
 2240SOL    HW3 8991   1.233   1.198   3.828  0.6726  0.3175 -1.0774
 2240SOL    MW4 8992   1.306   1.154   3.845  0.1742 -0.2780 -0.4890
 2241SOL     OW 8993   1.554   1.242   3.774 -0.6022 -0.0792  0.0894
 2241SOL    HW2 8994   1.628   1.185   3.795 -1.3139 -0.7831  0.7160
 2241SOL    HW3 8995   1.571   1.323   3.822  1.6771  1.2108 -2.7413
 2241SOL    MW4 8996   1.566   1.245   3.783 -0.3954 -0.0019 -0.2014
 2242SOL     OW 8997   1.586   1.463   3.927  0.4205 -0.7052  0.3150
 2242SOL    HW2 8998   1.598   1.477   4.021  1.8596  0.3440 -0.0204
 2242SOL    HW3 8999   1.636   1.533   3.885 -0.7514 -0.7763 -1.2333
 2242SOL    MW4 9000   1.594   1.474   3.934  0.4558 -0.5761  0.0665
 2243SOL     OW 9001   1.401   1.595   3.780  0.1079 -0.1119 -0.2116
 2243SOL    HW2 9002   1.413   1.687   3.804 -1.9306  0.0953  0.1362
 2243SOL    HW3 9003   1.460   1.547   3.838 -0.0754  0.8576  0.8007
 2243SOL    MW4 9004   1.410   1.601   3.791 -0.1852  0.0433 -0.0321
 2244SOL     OW 9005   1.372   1.881   3.852 -0.1042 -0.0577  0.3711
 2244SOL    HW2 9006   1.383   1.894   3.946  1.9225  1.0134  0.0185
 2244SOL    HW3 9007   1.292   1.929   3.830  0.0162  0.6033  1.3627
 2244SOL    MW4 9008   1.363   1.889   3.861  0.1791  0.1708  0.4554
 2245SOL     OW 9009   1.575   2.053   3.789 -0.1927 -0.0493 -0.0452
 2245SOL    HW2 9010   1.501   2.002   3.821 -0.5611  0.3334 -0.2902
 2245SOL    HW3 9011   1.565   2.054   3.694  0.5472 -0.6341 -0.1419
 2245SOL    MW4 9012   1.564   2.046   3.781 -0.1437 -0.0760 -0.0903
 2246SOL     OW 9013   1.593   2.341   3.846  0.0484 -0.2997  0.2834
 2246SOL    HW2 9014   1.613   2.339   3.939  1.5224  0.1763 -0.0113
 2246SOL    HW3 9015   1.581   2.249   3.822 -0.6682 -0.3958  1.0054
 2246SOL    MW4 9016   1.594   2.328   3.855  0.1484 -0.2495  0.3397
 2247SOL     OW 9017   1.352   2.446   3.764  0.2755  0.1474  0.0098
 2247SOL    HW2 9018   1.436   2.409   3.790  0.7274 -0.3229 -1.9770
 2247SOL    HW3 9019   1.287   2.393   3.809  1.0045 -0.9545 -0.2199
 2247SOL    MW4 9020   1.354   2.434   3.773  0.4313 -0.0601 -0.2827
 2248SOL     OW 9021   1.347   2.716   3.879 -0.8583 -0.2297  0.2658
 2248SOL    HW2 9022   1.318   2.698   3.968  1.0703 -0.1882  0.9386
 2248SOL    HW3 9023   1.346   2.631   3.836 -0.0512 -0.5610  0.8818
 2248SOL    MW4 9024   1.343   2.703   3.885 -0.4973 -0.2679  0.4358
 2249SOL     OW 9025   1.569   2.850   3.755 -0.2111 -0.5951 -0.2589
 2249SOL    HW2 9026   1.499   2.804   3.801 -1.3020  0.4725 -0.8379
 2249SOL    HW3 9027   1.550   2.834   3.662 -0.5774  0.9780 -0.4636
 2249SOL    MW4 9028   1.557   2.842   3.748 -0.4034 -0.2467 -0.3623
 2250SOL     OW 9029   1.602   3.088   3.905 -0.2456  0.1848 -0.2084
 2250SOL    HW2 9030   1.579   3.076   3.997 -0.1844  0.5490 -0.1479
 2250SOL    HW3 9031   1.609   2.998   3.871  0.1434  0.0414  0.2424
 2250SOL    MW4 9032   1.600   3.074   3.913 -0.1862  0.2139 -0.1409
 2251SOL     OW 9033   1.362   3.213   3.793  0.0279 -0.1333  0.2295
 2251SOL    HW2 9034   1.360   3.304   3.820  0.6955  0.6291 -2.1754
 2251SOL    HW3 9035   1.433   3.174   3.844  1.9569  1.5129 -1.0917
 2251SOL    MW4 9036   1.371   3.220   3.803  0.3705  0.1845 -0.2621
 2252SOL     OW 9037   1.370   3.472   3.883 -0.3798 -0.7588 -0.6331
 2252SOL    HW2 9038   1.438   3.508   3.826 -0.6877 -1.3609 -1.3789
 2252SOL    HW3 9039   1.288   3.509   3.851 -0.5526 -1.0809 -0.5657
 2252SOL    MW4 9040   1.369   3.481   3.871 -0.4432 -0.8807 -0.7226
 2253SOL     OW 9041   1.583   3.581   3.735  0.1042 -0.0148  0.4926
 2253SOL    HW2 9042   1.658   3.532   3.769 -0.9055 -0.7933  1.6515
 2253SOL    HW3 9043   1.589   3.667   3.777 -0.0346 -0.3116  1.1262
 2253SOL    MW4 9044   1.594   3.586   3.745 -0.0474 -0.1567  0.7291
 2254SOL     OW 9045   1.560   3.818   3.870 -0.0835  0.6907 -0.3229
 2254SOL    HW2 9046   1.536   3.811   3.962  0.0384  0.5519 -0.3017
 2254SOL    HW3 9047   1.488   3.866   3.830 -0.5531 -0.0068 -0.3256
 2254SOL    MW4 9048   1.547   3.823   3.877 -0.1294  0.5804 -0.3204
 2255SOL     OW 9049   1.354   3.968   3.772  0.2450  0.1355 -0.1545
 2255SOL    HW2 9050   1.347   4.055   3.812 -1.2554 -0.8612  1.9083
 2255SOL    HW3 9051   1.350   3.984   3.678  0.9078  2.3609  0.1699
 2255SOL    MW4 9052   1.352   3.982   3.765  0.1345  0.2976  0.1605
 2256SOL     OW 9053   1.342   4.223   3.905  0.5102 -0.6091  0.3286
 2256SOL    HW2 9054   1.412   4.284   3.882  0.1918 -0.0541  0.8320
 2256SOL    HW3 9055   1.263   4.260   3.864  0.1322 -0.1559  1.4598
 2256SOL    MW4 9056   1.341   4.236   3.896  0.4184 -0.4761  0.5443
 2257SOL     OW 9057   1.564   4.361   3.800 -0.1791 -0.6362  0.0709
 2257SOL    HW2 9058   1.640   4.309   3.826  0.0050  0.3278  1.4934
 2257SOL    HW3 9059   1.557   4.347   3.706  0.8979 -1.8780  0.1634
 2257SOL    MW4 9060   1.573   4.352   3.791 -0.0127 -0.6728  0.2708
 2258SOL     OW 9061   1.999   4.627   3.912  0.1622  0.6661  0.1229
 2258SOL    HW2 9062   2.067   4.667   3.859 -1.3276  1.6969 -1.0501
 2258SOL    HW3 9063   1.992   4.538   3.879 -0.2030  1.0621 -0.8711
 2258SOL    MW4 9064   2.007   4.621   3.901 -0.0825  0.8544 -0.1630
 2259SOL     OW 9065   1.776   0.096   3.803  0.0581  0.3103  0.0019
 2259SOL    HW2 9066   1.838   0.048   3.857 -1.9213 -0.9869  1.1837
 2259SOL    HW3 9067   1.690   0.060   3.826 -1.0436  1.1653 -2.4909
 2259SOL    MW4 9068   1.773   0.085   3.813 -0.3484  0.2520 -0.1711
 2260SOL     OW 9069   1.775   0.372   3.858 -0.1491  0.1966 -0.4252
 2260SOL    HW2 9070   1.778   0.364   3.954  2.6854 -0.8300 -0.5562
 2260SOL    HW3 9071   1.787   0.283   3.826  1.3732  0.8422 -1.7410
 2260SOL    MW4 9072   1.777   0.360   3.867  0.4257  0.1463 -0.6161
 2261SOL     OW 9073   2.005   0.504   3.777  0.2291  0.1764 -0.3110
 2261SOL    HW2 9074   1.920   0.473   3.808  0.1303  0.6932 -0.0500
 2261SOL    HW3 9075   2.005   0.488   3.683  0.3201 -0.9305 -0.1239
 2261SOL    MW4 9076   1.994   0.498   3.769  0.2281  0.0986 -0.2519
 2262SOL     OW 9077   1.985   0.759   3.860  0.2876 -0.1010  0.1672
 2262SOL    HW2 9078   1.950   0.744   3.948  0.3315  0.0019  0.2027
 2262SOL    HW3 9079   1.995   0.672   3.823  2.7978 -0.3258  1.2547
 2262SOL    MW4 9080   1.982   0.746   3.867  0.6246 -0.1171  0.3153
 2263SOL     OW 9081   1.726   0.813   3.766 -0.0054 -0.5678 -0.3014
 2263SOL    HW2 9082   1.814   0.804   3.800 -0.1292  0.8617  0.3955
 2263SOL    HW3 9083   1.738   0.827   3.672  0.3878 -2.9425 -0.6412
 2263SOL    MW4 9084   1.739   0.814   3.758  0.0302 -0.6925 -0.2543
 2264SOL     OW 9085   1.750   1.075   3.867 -0.1086 -0.0361 -0.0280
 2264SOL    HW2 9086   1.704   1.090   3.949 -0.1024  1.4080 -0.2749
 2264SOL    HW3 9087   1.738   0.982   3.848 -0.5590 -0.2496  1.3285
 2264SOL    MW4 9088   1.743   1.065   3.875 -0.1672  0.1263  0.1184
 2265SOL     OW 9089   1.965   1.264   3.783 -0.0843 -0.8751 -0.0172
 2265SOL    HW2 9090   2.038   1.207   3.810 -0.7872 -1.2228  1.1950
 2265SOL    HW3 9091   1.887   1.217   3.812 -0.6946  0.4664  0.5287
 2265SOL    MW4 9092   1.965   1.250   3.791 -0.2576 -0.7439  0.2148
 2266SOL     OW 9093   1.973   1.519   3.886  0.0105 -0.1899  0.0996
 2266SOL    HW2 9094   1.891   1.555   3.854  0.1805  0.3004  0.2198
 2266SOL    HW3 9095   1.972   1.428   3.856 -0.8472 -0.3581  0.6173
 2266SOL    MW4 9096   1.962   1.511   3.877 -0.0802 -0.1474  0.1838
 2267SOL     OW 9097   1.760   1.662   3.773  0.0942  0.0228 -0.1851
 2267SOL    HW2 9098   1.759   1.750   3.809  0.3878  0.4142 -1.1039
 2267SOL    HW3 9099   1.797   1.673   3.685  1.6220 -1.2501  0.2946
 2267SOL    MW4 9100   1.765   1.675   3.766  0.3345 -0.0935 -0.2430
 2268SOL     OW 9101   1.790   1.932   3.906 -0.3917  0.4140  0.6360
 2268SOL    HW2 9102   1.717   1.971   3.858 -0.0761  0.7306  0.4140
 2268SOL    HW3 9103   1.868   1.966   3.862 -0.1130 -0.0247  0.7919
 2268SOL    MW4 9104   1.791   1.941   3.894 -0.3133  0.3979  0.6273
 2269SOL     OW 9105   2.058   2.305   3.835  0.6728 -0.3298  0.2711
 2269SOL    HW2 9106   2.137   2.348   3.802 -0.6554  0.8831 -1.3987
 2269SOL    HW3 9107   2.062   2.319   3.930  1.0531  2.1808 -0.0768
 2269SOL    MW4 9108   2.069   2.312   3.843  0.5477  0.1615  0.0049
 2270SOL     OW 9109   2.273   2.406   3.730  0.0009 -0.5304  0.2743
 2270SOL    HW2 9110   2.263   2.415   3.635 -1.4225  1.4559  0.5772
 2270SOL    HW3 9111   2.343   2.342   3.741  0.3322 -0.6185 -2.1214
 2270SOL    MW4 9112   2.281   2.399   3.719 -0.1432 -0.2799 -0.0018
 2271SOL     OW 9113   1.814   2.449   3.735  0.2875 -0.4123 -0.1848
 2271SOL    HW2 9114   1.896   2.404   3.758 -0.1030 -1.1263 -0.1948
 2271SOL    HW3 9115   1.745   2.396   3.775 -0.2024 -0.0590 -0.5546
 2271SOL    MW4 9116   1.816   2.436   3.743  0.1713 -0.4599 -0.2349
 2272SOL     OW 9117   3.158   2.513   4.476  0.0740  0.4054 -0.0912
 2272SOL    HW2 9118   3.064   2.501   4.479  0.0478  0.6700  0.2308
 2272SOL    HW3 9119   3.172   2.600   4.512  0.5224 -0.0469  0.8327
 2272SOL    MW4 9120   3.148   2.523   4.481  0.1297  0.3806  0.0732
 2273SOL     OW 9121   2.009   3.050   3.857  0.4108 -0.1500 -0.0423
 2273SOL    HW2 9122   2.082   3.091   3.811  0.5892 -0.7917 -0.3330
 2273SOL    HW3 9123   2.029   3.064   3.950  0.8497 -0.2285 -0.1229
 2273SOL    MW4 9124   2.021   3.058   3.864  0.4922 -0.2451 -0.0913
 2274SOL     OW 9125   1.997   2.795   3.743  0.1366  0.3020 -0.6044
 2274SOL    HW2 9126   2.013   2.881   3.781 -0.6682  0.6878 -1.1275
 2274SOL    HW3 9127   1.916   2.765   3.785  0.1683 -0.0039 -0.7593
 2274SOL    MW4 9128   1.989   2.802   3.754  0.0346  0.3126 -0.6939
 2275SOL     OW 9129   1.805   3.193   3.740  0.0599 -0.1552 -0.1549
 2275SOL    HW2 9130   1.882   3.142   3.765  0.2779  0.1461 -0.1911
 2275SOL    HW3 9131   1.733   3.157   3.791  0.1360 -0.7441 -0.4613
 2275SOL    MW4 9132   1.806   3.182   3.750  0.0987 -0.1931 -0.2001
 2276SOL     OW 9133   1.820   3.462   3.837 -0.0447 -0.0177 -0.6366
 2276SOL    HW2 9134   1.905   3.497   3.808 -0.0225  0.2271 -0.2927
 2276SOL    HW3 9135   1.819   3.372   3.806 -0.4630  0.5370 -2.2734
 2276SOL    MW4 9136   1.831   3.455   3.829 -0.0970  0.0878 -0.8072
 2277SOL     OW 9137   2.051   3.573   3.746 -0.2565  0.3194 -0.1386
 2277SOL    HW2 9138   2.132   3.527   3.770 -0.4499  0.3153  0.5275
 2277SOL    HW3 9139   2.059   3.589   3.652  0.3349 -0.0467 -0.1531
 2277SOL    MW4 9140   2.063   3.569   3.737 -0.2040  0.2705 -0.0527
 2278SOL     OW 9141   1.974   3.835   3.825 -0.3586 -0.0476  0.3875
 2278SOL    HW2 9142   2.050   3.891   3.808 -0.4081 -0.1437 -0.1554
 2278SOL    HW3 9143   1.998   3.750   3.787 -1.3202  0.3212 -1.0532
 2278SOL    MW4 9144   1.987   3.831   3.818 -0.4920 -0.0116  0.1258
 2279SOL     OW 9145   1.746   3.981   3.764 -0.4939 -0.1231  0.6636
 2279SOL    HW2 9146   1.825   3.933   3.791  0.2792  0.3293 -0.7573
 2279SOL    HW3 9147   1.674   3.931   3.801  0.3613 -1.7937  0.1173
 2279SOL    MW4 9148   1.747   3.968   3.773 -0.2791 -0.2838  0.4040
 2280SOL     OW 9149   1.789   4.227   3.899 -0.0202  0.2697 -0.2879
 2280SOL    HW2 9150   1.850   4.283   3.850  0.2954 -1.3821 -1.8572
 2280SOL    HW3 9151   1.793   4.143   3.853 -2.6342 -0.1951  0.2880
 2280SOL    MW4 9152   1.798   4.223   3.886 -0.3234 -0.0096 -0.4189
 2281SOL     OW 9153   1.976   4.377   3.756  0.4231  0.2554  0.0678
 2281SOL    HW2 9154   2.060   4.337   3.774  0.8109  0.3282 -1.4721
 2281SOL    HW3 9155   1.965   4.367   3.661 -1.4642 -0.0884  0.3031
 2281SOL    MW4 9156   1.985   4.370   3.746  0.2253  0.2197 -0.1043
 2282SOL     OW 9157   2.472   0.003   3.838 -0.2370 -0.2371  0.0199
 2282SOL    HW2 9158   2.465   0.012   3.933 -1.5781  0.6524 -0.1549
 2282SOL    HW3 9159   2.460  -0.091   3.822 -0.0210 -0.3859  0.7285
 2282SOL    MW4 9160   2.469  -0.008   3.848 -0.3854 -0.1394  0.0903
 2283SOL     OW 9161   2.215   0.065   3.770 -0.1120  0.6368  0.0815
 2283SOL    HW2 9162   2.304   0.045   3.800 -0.7648 -1.1585  0.8931
 2283SOL    HW3 9163   2.222   0.068   3.675  0.8749  0.8044  0.1468
 2283SOL    MW4 9164   2.228   0.063   3.762 -0.0679  0.4220  0.1972
 2284SOL     OW 9165   2.209   0.336   3.860 -0.0361 -0.0030 -0.1388
 2284SOL    HW2 9166   2.189   0.252   3.819 -0.1496  0.5764 -1.3192
 2284SOL    HW3 9167   2.136   0.393   3.834 -0.4080  0.2167  1.3807
 2284SOL    MW4 9168   2.197   0.333   3.851 -0.1002  0.1024 -0.0940
 2285SOL     OW 9169   2.452   0.444   3.785 -0.2749  0.1919  0.3448
 2285SOL    HW2 9170   2.372   0.398   3.809 -0.8955  1.6081  1.0684
 2285SOL    HW3 9171   2.445   0.457   3.691  0.2581 -1.8422  0.0207
 2285SOL    MW4 9172   2.440   0.440   3.776 -0.2864  0.1104  0.3975
 2286SOL     OW 9173   2.479   0.726   3.841  0.1211 -0.0335 -0.2610
 2286SOL    HW2 9174   2.395   0.770   3.833 -0.3287 -0.6866  0.7252
 2286SOL    HW3 9175   2.460   0.634   3.823  0.7572 -0.0671 -0.7608
 2286SOL    MW4 9176   2.466   0.720   3.838  0.1456 -0.1241 -0.1968
 2287SOL     OW 9177   2.216   0.854   3.773 -0.0695 -0.0103 -0.4421
 2287SOL    HW2 9178   2.129   0.826   3.804 -0.7175 -0.0545 -2.2279
 2287SOL    HW3 9179   2.212   0.841   3.678  1.2595  1.7173 -0.7510
 2287SOL    MW4 9180   2.204   0.848   3.764  0.0204  0.2118 -0.7184
 2288SOL     OW 9181   2.209   1.123   3.845  0.0718 -0.0083 -0.0488
 2288SOL    HW2 9182   2.246   1.116   3.933 -0.4121  1.2944  0.2700
 2288SOL    HW3 9183   2.213   1.034   3.810  1.7016 -0.2477  0.7048
 2288SOL    MW4 9184   2.214   1.111   3.852  0.2230  0.1320  0.0927
 2289SOL     OW 9185   2.434   1.248   3.739 -0.1662 -0.6897 -0.0223
 2289SOL    HW2 9186   2.423   1.335   3.778  0.8906 -0.4709 -0.1975
 2289SOL    HW3 9187   2.361   1.197   3.774 -0.4410  0.0896  0.5694
 2289SOL    MW4 9188   2.423   1.253   3.748 -0.0630 -0.5580  0.0327
 2290SOL     OW 9189   2.422   1.493   3.853 -0.4026  0.2479  0.0399
 2290SOL    HW2 9190   2.499   1.549   3.840  0.5458 -1.0521  0.0553
 2290SOL    HW3 9191   2.350   1.544   3.814  0.7430  0.7472 -1.5042
 2290SOL    MW4 9192   2.423   1.507   3.846 -0.1263  0.1422 -0.1618
 2291SOL     OW 9193   2.200   1.629   3.756  0.4085 -0.2564 -0.3123
 2291SOL    HW2 9194   2.198   1.718   3.791 -0.0292  0.0979 -1.2125
 2291SOL    HW3 9195   2.121   1.588   3.791  0.0839  0.0300 -0.6917
 2291SOL    MW4 9196   2.189   1.636   3.765  0.3079 -0.1719 -0.4812
 2292SOL     OW 9197   2.204   1.878   3.861 -0.3537 -0.0305  0.3718
 2292SOL    HW2 9198   2.142   1.936   3.818 -0.7523 -0.6876  0.0441
 2292SOL    HW3 9199   2.290   1.906   3.830 -0.4693  1.0732  1.0589
 2292SOL    MW4 9200   2.207   1.889   3.851 -0.4215  0.0284  0.4192
 2293SOL     OW 9201   2.450   1.964   3.742  0.0093  0.2191 -0.2717
 2293SOL    HW2 9202   2.457   1.989   3.650  0.9089  1.1091  0.0328
 2293SOL    HW3 9203   2.540   1.955   3.771 -0.2319  1.7176  0.9948
 2293SOL    MW4 9204   2.463   1.966   3.734  0.0962  0.5342 -0.0644
 2294SOL     OW 9205   2.208   2.647   3.847 -0.2443 -0.0134  0.2743
 2294SOL    HW2 9206   2.134   2.679   3.796  0.7801  0.3951 -0.9853
 2294SOL    HW3 9207   2.221   2.557   3.817  0.1390  0.1124  0.0554
 2294SOL    MW4 9208   2.200   2.640   3.836 -0.0586  0.0571  0.0792
 2295SOL     OW 9209   0.639   2.059   4.629  0.1793 -0.1381 -0.0276
 2295SOL    HW2 9210   0.713   2.015   4.672 -0.0528 -0.2322  0.2797
 2295SOL    HW3 9211   0.657   2.051   4.535  1.3647  1.2256  0.0625
 2295SOL    MW4 9212   0.651   2.052   4.622  0.3051  0.0294  0.0248
 2296SOL     OW 9213   2.002   2.055   3.752 -0.2004  0.2391  0.0565
 2296SOL    HW2 9214   2.032   2.143   3.776 -1.2851  0.8048 -0.6065
 2296SOL    HW3 9215   2.027   2.046   3.660 -0.0170 -0.1756  0.1482
 2296SOL    MW4 9216   2.009   2.066   3.743 -0.3193  0.2590 -0.0189
 2297SOL     OW 9217   2.443   2.784   3.789 -0.7067  0.2468  0.2975
 2297SOL    HW2 9218   2.355   2.751   3.810 -1.3048  0.7831 -1.2640
 2297SOL    HW3 9219   2.447   2.781   3.693  2.0596 -2.5207  0.4213
 2297SOL    MW4 9220   2.432   2.779   3.779 -0.4207 -0.0476  0.1078
 2298SOL     OW 9221   2.434   3.054   3.845 -0.1085  0.0275 -0.1598
 2298SOL    HW2 9222   2.434   3.069   3.940 -0.7560  0.7765 -0.2765
 2298SOL    HW3 9223   2.452   2.960   3.836  1.0393  0.1496  0.6683
 2298SOL    MW4 9224   2.436   3.044   3.856 -0.0425  0.1425 -0.0660
 2299SOL     OW 9225   2.228   3.180   3.743  0.3999 -0.4690 -0.1131
 2299SOL    HW2 9226   2.260   3.265   3.774  1.3891 -0.8544 -0.0631
 2299SOL    HW3 9227   2.293   3.117   3.773  0.3964 -1.0775 -1.3363
 2299SOL    MW4 9228   2.241   3.183   3.751  0.5299 -0.6002 -0.2679
 2300SOL     OW 9229   2.291   3.426   3.836  0.1548 -0.1612 -0.0086
 2300SOL    HW2 9230   2.285   3.428   3.932 -1.5599  0.7204 -0.1246
 2300SOL    HW3 9231   2.358   3.492   3.815 -0.8599  1.0384  0.4815
 2300SOL    MW4 9232   2.299   3.435   3.846 -0.2053  0.1134  0.0408
 2301SOL     OW 9233   2.493   3.624   3.761 -0.2089  0.1648  0.2363
 2301SOL    HW2 9234   2.570   3.572   3.782  0.6086  1.4217  0.3960
 2301SOL    HW3 9235   2.486   3.619   3.665  0.3270  0.4027  0.1843
 2301SOL    MW4 9236   2.502   3.616   3.751 -0.0303  0.3620  0.2505
 2302SOL     OW 9237   2.462   3.873   3.884 -0.0060 -0.0971  0.1150
 2302SOL    HW2 9238   2.532   3.927   3.846  1.5024 -1.2393  1.2320
 2302SOL    HW3 9239   2.466   3.791   3.834 -1.1876  0.1707 -0.4430
 2302SOL    MW4 9240   2.471   3.869   3.872  0.0371 -0.2125  0.1888
 2303SOL     OW 9241   2.221   3.984   3.781 -0.1293  0.1901 -0.1764
 2303SOL    HW2 9242   2.303   3.950   3.819 -0.0820 -1.0194 -1.3259
 2303SOL    HW3 9243   2.238   3.986   3.687 -0.6864  1.9800 -0.2417
 2303SOL    MW4 9244   2.234   3.980   3.774 -0.1966  0.2667 -0.3367
 2304SOL     OW 9245   2.177   4.239   3.870 -0.0232  0.0132 -0.3477
 2304SOL    HW2 9246   2.181   4.242   3.966  0.9727 -0.4157 -0.3709
 2304SOL    HW3 9247   2.184   4.146   3.848  0.7133  0.1781 -0.8649
 2304SOL    MW4 9248   2.179   4.227   3.880  0.2054 -0.0216 -0.4190
 2305SOL     OW 9249   2.423   4.398   3.780  0.0159  0.1853 -0.7004
 2305SOL    HW2 9250   2.504   4.353   3.805  0.6936  0.1120 -2.9455
 2305SOL    HW3 9251   2.354   4.351   3.827  0.9348 -1.8872 -1.3819
 2305SOL    MW4 9252   2.425   4.386   3.790  0.2266 -0.0978 -1.0865
 2306SOL     OW 9253   2.932   4.629   3.847 -0.5219  0.5415  0.2036
 2306SOL    HW2 9254   2.914   4.630   3.941 -0.2082 -0.7181  0.2953
 2306SOL    HW3 9255   3.007   4.687   3.836  0.3108 -0.3867  0.9316
 2306SOL    MW4 9256   2.939   4.637   3.858 -0.3706  0.2529  0.3117
 2307SOL     OW 9257   2.718   0.104   3.741  0.2086 -0.7761  0.3650
 2307SOL    HW2 9258   2.793   0.053   3.772  1.3517 -1.0415 -2.6938
 2307SOL    HW3 9259   2.642   0.051   3.766  1.1210 -1.5745  1.5619
 2307SOL    MW4 9260   2.718   0.090   3.748  0.4798 -0.9165  0.1194
 2308SOL     OW 9261   2.712   0.382   3.870 -0.2754  0.0631 -0.0485
 2308SOL    HW2 9262   2.715   0.294   3.833  0.0510  0.1251 -0.1773
 2308SOL    HW3 9263   2.628   0.417   3.843  0.0443  0.1837 -0.9085
 2308SOL    MW4 9264   2.702   0.375   3.862 -0.1902  0.0872 -0.1790
 2309SOL     OW 9265   2.911   0.546   3.754 -0.1837  0.1807 -0.0328
 2309SOL    HW2 9266   2.998   0.514   3.779 -0.5679 -0.4568  0.5054
 2309SOL    HW3 9267   2.851   0.476   3.781 -0.7552  0.0796 -1.4901
 2309SOL    MW4 9268   2.915   0.532   3.761 -0.3098  0.0833 -0.1541
 2310SOL     OW 9269   2.878   0.802   3.859  0.2226 -0.6755 -0.0522
 2310SOL    HW2 9270   2.963   0.835   3.832  0.4691 -0.3102  1.1718
 2310SOL    HW3 9271   2.878   0.710   3.830  0.3383 -0.2040 -1.5989
 2310SOL    MW4 9272   2.889   0.794   3.851  0.2704 -0.5651 -0.0948
 2311SOL     OW 9273   2.670   0.884   3.707  0.0767 -0.1979 -0.7788
 2311SOL    HW2 9274   2.737   0.860   3.771 -0.3032  1.2694  0.2026
 2311SOL    HW3 9275   2.594   0.831   3.731  0.1126 -0.0602 -0.3589
 2311SOL    MW4 9276   2.668   0.874   3.719  0.0313  0.0139 -0.5940
 2312SOL     OW 9277   2.663   1.115   3.856 -0.0044 -0.4261  0.2196
 2312SOL    HW2 9278   2.676   1.034   3.806  1.0714  0.4379 -0.9326
 2312SOL    HW3 9279   2.594   1.162   3.808  1.0631  0.4247 -0.5329
 2312SOL    MW4 9280   2.656   1.111   3.843  0.2784 -0.1999 -0.0317
 2313SOL     OW 9281   2.879   1.286   3.750  0.4192  0.5664 -0.1223
 2313SOL    HW2 9282   2.858   1.371   3.789  1.0556  1.3832 -1.5205
 2313SOL    HW3 9283   2.811   1.228   3.782 -0.3856  1.7486  0.3578
 2313SOL    MW4 9284   2.868   1.290   3.759  0.3970  0.8301 -0.2434
 2314SOL     OW 9285   2.877   1.529   3.889  0.4239  0.3247  0.1477
 2314SOL    HW2 9286   2.861   1.521   3.982  0.3587 -3.1405 -0.1185
 2314SOL    HW3 9287   2.955   1.585   3.883  0.4842  0.4903  2.2622
 2314SOL    MW4 9288   2.885   1.536   3.900  0.4233 -0.1107  0.3916
 2315SOL     OW 9289   2.658   1.651   3.791  0.2770  0.7427  0.1974
 2315SOL    HW2 9290   2.732   1.605   3.829  0.2880  0.1429 -0.5343
 2315SOL    HW3 9291   2.662   1.630   3.698 -0.5497  1.0666  0.0843
 2315SOL    MW4 9292   2.668   1.642   3.784  0.1694  0.7063  0.0859
 2316SOL     OW 9293   2.694   1.906   3.868 -0.0680  0.1759 -0.0460
 2316SOL    HW2 9294   2.703   1.887   3.961  0.7665  1.6976  0.2010
 2316SOL    HW3 9295   2.692   1.820   3.826  0.5052 -0.5097  1.2897
 2316SOL    MW4 9296   2.695   1.892   3.874  0.1178  0.2862  0.1628
 2317SOL     OW 9297   2.908   2.330   3.899  0.3186 -0.0402 -0.1211
 2317SOL    HW2 9298   2.842   2.383   3.855  0.9672  1.2711  0.4376
 2317SOL    HW3 9299   2.992   2.364   3.867  0.7256 -1.9411 -1.1245
 2317SOL    MW4 9300   2.911   2.341   3.889  0.4579 -0.1180 -0.1798
 2318SOL     OW 9301   2.801   1.933   4.578 -0.0985 -0.3261  0.0988
 2318SOL    HW2 9302   2.741   1.996   4.618  0.1797 -0.6040  0.9629
 2318SOL    HW3 9303   2.887   1.975   4.585  0.0304 -0.6251  0.2939
 2318SOL    MW4 9304   2.805   1.947   4.584 -0.0448 -0.4022  0.2386
 2319SOL     OW 9305   2.706   2.434   3.749  0.4407 -0.4846  0.8905
 2319SOL    HW2 9306   2.689   2.522   3.784 -0.1583 -0.0482 -0.4918
 2319SOL    HW3 9307   2.630   2.383   3.775 -1.2285  0.4748 -1.8804
 2319SOL    MW4 9308   2.694   2.439   3.757  0.1414 -0.3004  0.3425
 2320SOL     OW 9309   2.666   2.668   3.872 -0.2724 -0.2703 -0.1170
 2320SOL    HW2 9310   2.581   2.702   3.844 -0.1416  0.2626  0.1131
 2320SOL    HW3 9311   2.667   2.681   3.967  0.3253  0.3331 -0.2008
 2320SOL    MW4 9312   2.655   2.675   3.881 -0.1763 -0.1204 -0.0977
 2321SOL     OW 9313   2.852   2.838   3.770 -0.1389  0.3741 -0.3648
 2321SOL    HW2 9314   2.852   2.918   3.823 -1.1070  0.7519 -0.9409
 2321SOL    HW3 9315   2.791   2.779   3.815 -0.5403  0.4945 -0.7462
 2321SOL    MW4 9316   2.844   2.841   3.783 -0.3196  0.4398 -0.4912
 2322SOL     OW 9317   2.919   3.095   3.909 -0.0440  0.2697 -0.0439
 2322SOL    HW2 9318   3.001   3.128   3.875  0.5008 -0.9890 -0.0008
 2322SOL    HW3 9319   2.851   3.139   3.858  0.6856  0.4912 -0.8249
 2322SOL    MW4 9320   2.921   3.105   3.898  0.1242  0.1328 -0.1412
 2323SOL     OW 9321   2.710   3.188   3.769 -0.6299 -0.0809 -0.0075
 2323SOL    HW2 9322   2.702   3.276   3.806 -0.5911 -1.0530  2.3457
 2323SOL    HW3 9323   2.634   3.140   3.800  0.7644 -1.6930  1.0341
 2323SOL    MW4 9324   2.699   3.193   3.778 -0.4408 -0.4219  0.4404
 2324SOL     OW 9325   2.712   3.465   3.826  0.0212 -0.4788  0.3036
 2324SOL    HW2 9326   2.721   3.482   3.920  1.3851 -0.8546  0.2463
 2324SOL    HW3 9327   2.791   3.502   3.788 -0.5863 -0.2295 -0.7232
 2324SOL    MW4 9328   2.723   3.472   3.834  0.1210 -0.4955  0.1606
 2325SOL     OW 9329   2.925   3.620   3.802  0.1495 -0.4243 -0.4719
 2325SOL    HW2 9330   2.996   3.573   3.846 -0.5755 -1.8736 -0.8305
 2325SOL    HW3 9331   2.946   3.613   3.709  0.1906  0.2190 -0.5126
 2325SOL    MW4 9332   2.937   3.613   3.796  0.0592 -0.5307 -0.5246
 2326SOL     OW 9333   2.866   3.896   3.855 -0.0148  0.2706  0.5777
 2326SOL    HW2 9334   2.879   3.901   3.949  1.1685  0.1605  0.4356
 2326SOL    HW3 9335   2.886   3.805   3.833 -1.7752 -0.0933  0.4199
 2326SOL    MW4 9336   2.871   3.884   3.864 -0.0909  0.2081  0.5381
 2327SOL     OW 9337   2.645   4.031   3.747 -0.1527 -0.1299  0.3877
 2327SOL    HW2 9338   2.659   4.119   3.781  1.7744 -0.1779 -0.2113
 2327SOL    HW3 9339   2.721   3.981   3.778  0.6743 -0.6525 -2.3319
 2327SOL    MW4 9340   2.657   4.036   3.756  0.2106 -0.2052 -0.0502
 2328SOL     OW 9341   2.668   4.286   3.860  0.6945  0.1728  0.5101
 2328SOL    HW2 9342   2.746   4.326   3.821  1.0859 -0.3823  0.7167
 2328SOL    HW3 9343   2.691   4.275   3.953  0.5451 -0.4357  0.4750
 2328SOL    MW4 9344   2.681   4.290   3.867  0.7264  0.0193  0.5327
 2329SOL     OW 9345   2.906   4.364   3.749 -0.0462 -0.0364 -0.1160
 2329SOL    HW2 9346   2.975   4.310   3.789 -0.4893  0.0693  0.8119
 2329SOL    HW3 9347   2.929   4.454   3.773  0.4460  0.1588 -1.2855
 2329SOL    MW4 9348   2.918   4.369   3.758 -0.0398  0.0033 -0.1479
 2330SOL     OW 9349   3.366   4.661   3.877  0.2728 -0.2611  0.0935
 2330SOL    HW2 9350   3.381   4.648   3.971  0.7300  1.6963  0.3122
 2330SOL    HW3 9351   3.449   4.696   3.844 -0.4535  0.7553 -0.6909
 2330SOL    MW4 9352   3.379   4.664   3.885  0.2373  0.1313  0.0189
 2331SOL     OW 9353   3.149   0.143   3.799 -0.2012 -0.1356 -0.1522
 2331SOL    HW2 9354   3.227   0.095   3.828 -0.0747 -0.8319 -1.5990
 2331SOL    HW3 9355   3.157   0.146   3.703 -0.1136  2.9404 -0.0723
 2331SOL    MW4 9356   3.160   0.137   3.790 -0.1730  0.1784 -0.3325
 2332SOL     OW 9357   3.148   0.426   3.853 -0.3092  0.0497 -0.3551
 2332SOL    HW2 9358   3.154   0.425   3.948  1.2581 -1.3503 -0.4471
 2332SOL    HW3 9359   3.138   0.334   3.828  0.8503  0.2432 -1.6178
 2332SOL    MW4 9360   3.147   0.414   3.862  0.0506 -0.1095 -0.5339
 2333SOL     OW 9361   3.394   0.525   3.747  0.3878 -0.1333  0.6344
 2333SOL    HW2 9362   3.464   0.480   3.795  0.5678 -0.1467  0.3596
 2333SOL    HW3 9363   3.313   0.492   3.786  0.5503  1.0882  2.0525
 2333SOL    MW4 9364   3.392   0.515   3.758  0.4330  0.0261  0.7853
 2334SOL     OW 9365   3.367   0.789   3.855  0.0578  0.2581 -0.0544
 2334SOL    HW2 9366   3.355   0.767   3.948 -0.6751 -1.7095 -0.5852
 2334SOL    HW3 9367   3.368   0.704   3.811 -0.2656  1.2143 -1.9264
 2334SOL    MW4 9368   3.365   0.775   3.862 -0.0816  0.1246 -0.3714
 2335SOL     OW 9369   3.126   0.936   3.770 -0.0108 -0.3054 -0.5938
 2335SOL    HW2 9370   3.212   0.903   3.797 -0.1512  0.7152  1.1940
 2335SOL    HW3 9371   3.120   0.915   3.677  2.9937  1.3705 -1.2130
 2335SOL    MW4 9372   3.136   0.929   3.761  0.3671  0.0504 -0.4396
 2336SOL     OW 9373   3.119   1.201   3.875  0.9588  0.2308  0.7735
 2336SOL    HW2 9374   3.120   1.108   3.852  2.0892  0.0930  1.3801
 2336SOL    HW3 9375   3.042   1.235   3.830 -0.3292 -1.3116  1.7490
 2336SOL    MW4 9376   3.109   1.193   3.866  0.9380  0.0091  0.9822
 2337SOL     OW 9377   3.368   1.297   3.785 -0.0452  0.2054  0.0250
 2337SOL    HW2 9378   3.286   1.263   3.819  0.2572  0.2452  0.8185
 2337SOL    HW3 9379   3.363   1.284   3.690 -1.6065  1.6252 -0.1052
 2337SOL    MW4 9380   3.357   1.291   3.777 -0.2113  0.3980  0.1125
 2338SOL     OW 9381   3.343   1.554   3.897 -0.2097  0.4704 -0.1308
 2338SOL    HW2 9382   3.257   1.582   3.864 -1.0441 -0.4694  1.1994
 2338SOL    HW3 9383   3.361   1.473   3.850 -1.2132 -0.6538  1.3793
 2338SOL    MW4 9384   3.334   1.547   3.886 -0.4522  0.1981  0.2440
 2339SOL     OW 9385   3.112   1.660   3.793  0.0564 -0.2392  0.2808
 2339SOL    HW2 9386   3.100   1.753   3.811  2.4122  0.1442  0.0371
 2339SOL    HW3 9387   3.099   1.652   3.698  1.8958  0.2114 -0.0221
 2339SOL    MW4 9388   3.109   1.671   3.783  0.6099 -0.1292  0.2087
 2340SOL     OW 9389   3.081   1.947   3.871 -0.3946  0.4760  0.4115
 2340SOL    HW2 9390   3.045   1.913   3.952 -1.4941 -0.4542 -0.4526
 2340SOL    HW3 9391   3.006   1.982   3.823  0.2950  1.4050 -0.0409
 2340SOL    MW4 9392   3.067   1.947   3.875 -0.4487  0.4758  0.2378
 2341SOL     OW 9393   3.321   2.062   3.781  0.0928 -0.1447 -0.2712
 2341SOL    HW2 9394   3.235   2.032   3.810 -0.0804  0.3839 -0.2206
 2341SOL    HW3 9395   3.383   2.006   3.827 -0.1903  0.3842  0.7903
 2341SOL    MW4 9396   3.318   2.051   3.791  0.0326 -0.0052 -0.1245
 2342SOL     OW 9397   3.356   2.322   3.851  0.0905  0.1416  0.0978
 2342SOL    HW2 9398   3.277   2.368   3.824  0.3587  1.1534  0.9869
 2342SOL    HW3 9399   3.345   2.233   3.818 -0.8380  0.6116 -0.8842
 2342SOL    MW4 9400   3.344   2.316   3.843  0.0034  0.3371  0.0856
 2343SOL     OW 9401   3.125   2.437   3.778  0.0085 -0.1341  0.1176
 2343SOL    HW2 9402   3.139   2.530   3.798  1.8590 -0.1557 -0.8906
 2343SOL    HW3 9403   3.100   2.437   3.686 -0.1291 -0.6318  0.1571
 2343SOL    MW4 9404   3.124   2.449   3.769  0.2345 -0.2026 -0.0102
 2344SOL     OW 9405   3.105   2.710   3.833  0.1563  0.1340 -0.3395
 2344SOL    HW2 9406   3.094   2.714   3.928 -0.4280 -0.5693 -0.3747
 2344SOL    HW3 9407   3.024   2.747   3.798  0.6853  1.0986 -0.5632
 2344SOL    MW4 9408   3.093   2.715   3.841  0.1490  0.1685 -0.3737
 2345SOL     OW 9409   3.350   2.843   3.790  0.1959 -0.7168 -0.1561
 2345SOL    HW2 9410   3.267   2.798   3.805  0.4018 -0.4588  1.9190
 2345SOL    HW3 9411   3.343   2.924   3.840  1.6136 -0.6050 -0.1167
 2345SOL    MW4 9412   3.338   2.848   3.799  0.4101 -0.6680  0.1228
 2346SOL     OW 9413   3.338   3.086   3.931  0.0114  0.0329  0.5981
 2346SOL    HW2 9414   3.351   3.091   4.025 -0.4066  0.1712  0.6507
 2346SOL    HW3 9415   3.418   3.123   3.893  0.0626  0.2301  0.8997
 2346SOL    MW4 9416   3.350   3.092   3.938 -0.0370  0.0772  0.6448
 2347SOL     OW 9417   3.134   3.216   3.788  0.5376 -0.0801  0.0880
 2347SOL    HW2 9418   3.207   3.169   3.828  0.4698 -1.4050 -1.3177
 2347SOL    HW3 9419   3.152   3.214   3.694 -1.7418 -1.2050 -0.3744
 2347SOL    MW4 9420   3.146   3.210   3.781  0.2279 -0.4033 -0.1585
 2348SOL     OW 9421   3.148   3.486   3.896  0.3468  0.2888  0.2090
 2348SOL    HW2 9422   3.230   3.526   3.866 -0.4137  0.2467 -2.0283
 2348SOL    HW3 9423   3.150   3.398   3.859 -0.9570  0.4668 -0.2902
 2348SOL    MW4 9424   3.159   3.480   3.887  0.0744  0.3067 -0.1521
 2349SOL     OW 9425   3.369   3.643   3.814  0.5953 -0.1342  0.0207
 2349SOL    HW2 9426   3.354   3.736   3.831  2.3114  0.3206 -0.7920
 2349SOL    HW3 9427   3.368   3.635   3.719 -0.7784 -1.1774  0.1156
 2349SOL    MW4 9428   3.367   3.654   3.804  0.6405 -0.2118 -0.0740
 2350SOL     OW 9429   3.330   3.932   3.876 -0.0163 -0.7330 -0.2853
 2350SOL    HW2 9430   3.406   3.970   3.832 -0.4651  2.0671  1.2145
 2350SOL    HW3 9431   3.256   3.958   3.821 -0.3736  1.0766  0.9935
 2350SOL    MW4 9432   3.330   3.941   3.863 -0.1226 -0.1248  0.0813
 2351SOL     OW 9433   3.075   4.004   3.718 -0.4102 -0.2904 -0.1848
 2351SOL    HW2 9434   3.090   4.085   3.767 -2.9720  0.0721  0.0736
 2351SOL    HW3 9435   2.996   3.967   3.757  0.5299 -2.7555 -0.5507
 2351SOL    MW4 9436   3.067   4.010   3.730 -0.6242 -0.5678 -0.1989
 2352SOL     OW 9437   3.116   4.237   3.872 -0.1044 -0.2645  0.1733
 2352SOL    HW2 9438   3.127   4.226   3.967 -1.2754 -1.3599  0.1882
 2352SOL    HW3 9439   3.190   4.293   3.846 -0.0898  0.5132  1.8145
 2352SOL    MW4 9440   3.127   4.243   3.881 -0.2570 -0.3064  0.3918
 2353SOL     OW 9441   3.328   4.403   3.788  0.2628  0.0629 -0.4961
 2353SOL    HW2 9442   3.393   4.348   3.831 -1.5769 -0.7470  1.3780
 2353SOL    HW3 9443   3.351   4.492   3.813  1.5551 -0.0789 -1.1473
 2353SOL    MW4 9444   3.339   4.407   3.797  0.1906 -0.0626 -0.3347
 2354SOL     OW 9445   3.806   4.617   3.879  0.1542  0.2053 -0.0586
 2354SOL    HW2 9446   3.887   4.663   3.855  1.6971 -2.0526  0.6598
 2354SOL    HW3 9447   3.811   4.534   3.832 -0.5816 -0.9452  1.8475
 2354SOL    MW4 9448   3.818   4.612   3.870  0.2607 -0.2444  0.2877
 2355SOL     OW 9449   3.608   0.110   3.789  0.0874  0.3209  0.1103
 2355SOL    HW2 9450   3.678   0.052   3.819 -0.0539 -0.4409 -1.0232
 2355SOL    HW3 9451   3.613   0.108   3.694 -0.8108  1.0911  0.0348
 2355SOL    MW4 9452   3.618   0.102   3.781 -0.0497  0.3220 -0.0492
 2356SOL     OW 9453   3.609   0.386   3.861  0.7255 -0.1595  0.4403
 2356SOL    HW2 9454   3.688   0.425   3.824 -0.2053  0.6988 -0.6923
 2356SOL    HW3 9455   3.621   0.292   3.849  0.3945  0.0890 -2.2795
 2356SOL    MW4 9456   3.621   0.379   3.855  0.5590 -0.0135 -0.0680
 2357SOL     OW 9457   3.849   0.504   3.772 -0.6215 -0.1378 -0.6060
 2357SOL    HW2 9458   3.939   0.478   3.790 -0.7839  0.0593  0.5709
 2357SOL    HW3 9459   3.838   0.587   3.818 -1.0745  0.3885 -1.6555
 2357SOL    MW4 9460   3.859   0.512   3.780 -0.7027 -0.0424 -0.5892
 2358SOL     OW 9461   3.811   0.747   3.898 -0.4256 -0.2140 -0.3788
 2358SOL    HW2 9462   3.882   0.806   3.874 -0.0425 -1.1340 -1.5740
 2358SOL    HW3 9463   3.733   0.786   3.856 -0.2835 -0.2289 -0.6604
 2358SOL    MW4 9464   3.810   0.760   3.889 -0.3563 -0.3374 -0.5736
 2359SOL     OW 9465   3.610   0.886   3.771 -0.2776 -0.4663  0.1969
 2359SOL    HW2 9466   3.608   0.974   3.808 -1.5727 -0.1680 -0.5410
 2359SOL    HW3 9467   3.530   0.845   3.802  1.2443 -2.0832  2.1214
 2359SOL    MW4 9468   3.600   0.892   3.780 -0.2477 -0.6403  0.3535
 2360SOL     OW 9469   3.599   1.149   3.841  0.2381 -0.1555  0.0237
 2360SOL    HW2 9470   3.678   1.202   3.833 -0.1232  0.1302 -1.7345
 2360SOL    HW3 9471   3.527   1.209   3.818 -0.4882 -0.4712  1.3757
 2360SOL    MW4 9472   3.600   1.164   3.837  0.0946 -0.1595 -0.0299
 2361SOL     OW 9473   3.846   1.285   3.780 -0.0408  0.3584 -0.1950
 2361SOL    HW2 9474   3.918   1.242   3.827 -0.0231  0.9698  0.3510
 2361SOL    HW3 9475   3.850   1.376   3.809 -0.3636  0.6296 -0.9933
 2361SOL    MW4 9476   3.856   1.291   3.790 -0.0810  0.4749 -0.2283
 2362SOL     OW 9477   3.786   1.556   3.856 -0.5125 -0.2038  0.3977
 2362SOL    HW2 9478   3.797   1.553   3.951 -1.6456  0.8404  0.5852
 2362SOL    HW3 9479   3.702   1.601   3.843  0.1055  0.5597 -1.1201
 2362SOL    MW4 9480   3.776   1.562   3.867 -0.5805  0.0347  0.2222
 2363SOL     OW 9481   3.548   1.690   3.784  0.2084 -0.3275  0.1925
 2363SOL    HW2 9482   3.475   1.645   3.827 -0.1603 -0.6002 -0.6895
 2363SOL    HW3 9483   3.532   1.676   3.690  2.0538 -1.4372  0.0141
 2363SOL    MW4 9484   3.536   1.682   3.777  0.4032 -0.5099  0.0526
 2364SOL     OW 9485   3.583   1.955   3.877  0.2307  0.6405  0.3546
 2364SOL    HW2 9486   3.564   1.868   3.844  2.1393  0.6151 -0.7414
 2364SOL    HW3 9487   3.580   1.946   3.972 -1.4059 -0.1793  0.2372
 2364SOL    MW4 9488   3.580   1.942   3.885  0.2666  0.5290  0.1945
 2365SOL     OW 9489   3.804   2.082   3.741 -0.0480  0.0808 -0.1077
 2365SOL    HW2 9490   3.881   2.034   3.769  0.8463  1.2744 -0.4601
 2365SOL    HW3 9491   3.730   2.032   3.775  0.9249 -0.2887  1.5162
 2365SOL    MW4 9492   3.804   2.069   3.749  0.1984  0.1896  0.0601
 2366SOL     OW 9493   3.776   2.346   3.837  0.1360  0.3104 -0.3019
 2366SOL    HW2 9494   3.772   2.257   3.803 -2.3522 -0.2926  1.4741
 2366SOL    HW3 9495   3.704   2.392   3.792  0.0297  0.8369  0.3924
 2366SOL    MW4 9496   3.766   2.341   3.826 -0.2063  0.3003  0.0240
 2367SOL     OW 9497   3.559   2.468   3.741 -0.3294 -0.0505 -0.1480
 2367SOL    HW2 9498   3.487   2.412   3.770 -2.2947  2.1783 -0.5706
 2367SOL    HW3 9499   3.569   2.449   3.648 -0.3074 -0.4243 -0.0696
 2367SOL    MW4 9500   3.551   2.459   3.733 -0.5858  0.1943 -0.1934
 2368SOL     OW 9501   3.560   2.714   3.910  0.0146 -0.2535  0.1649
 2368SOL    HW2 9502   3.574   2.633   3.862 -0.0649 -0.5181  0.5877
 2368SOL    HW3 9503   3.485   2.755   3.866 -0.8720 -1.1116  0.8626
 2368SOL    MW4 9504   3.552   2.709   3.898 -0.1129 -0.4016  0.3127
 2369SOL     OW 9505   3.787   2.848   3.773 -0.1396  0.4716 -0.1363
 2369SOL    HW2 9506   3.866   2.802   3.801  0.3579  0.7524 -1.0682
 2369SOL    HW3 9507   3.716   2.804   3.820  0.4503 -0.4972 -0.1385
 2369SOL    MW4 9508   3.788   2.836   3.783  0.0039  0.3808 -0.2596
 2370SOL     OW 9509   3.822   3.122   3.852  0.1074  0.7839  0.0302
 2370SOL    HW2 9510   3.737   3.163   3.835  0.3958  0.2652 -2.8394
 2370SOL    HW3 9511   3.811   3.032   3.821  2.0795  1.0767 -1.5805
 2370SOL    MW4 9512   3.809   3.116   3.846  0.4057  0.7541 -0.5609
 2371SOL     OW 9513   3.563   3.218   3.817 -0.3833  0.2542  0.4417
 2371SOL    HW2 9514   3.574   3.312   3.830  1.3862  0.1284 -0.0141
 2371SOL    HW3 9515   3.579   3.204   3.723 -1.8189 -0.3486  0.2690
 2371SOL    MW4 9516   3.567   3.228   3.806 -0.3392  0.1581  0.3588
 2372SOL     OW 9517   3.594   3.500   3.897  0.2627 -0.2118  0.3390
 2372SOL    HW2 9518   3.609   3.501   3.992 -1.5692 -1.8999  0.6828
 2372SOL    HW3 9519   3.516   3.553   3.884  1.6128  1.6184 -0.4712
 2372SOL    MW4 9520   3.586   3.507   3.908  0.1991 -0.1931  0.2775
 2373SOL     OW 9521   3.807   3.621   3.794 -0.3423 -0.1958  0.1559
 2373SOL    HW2 9522   3.807   3.713   3.822  0.1777 -0.4344  0.9498
 2373SOL    HW3 9523   3.726   3.585   3.831 -0.4029 -0.1270  0.0906
 2373SOL    MW4 9524   3.796   3.629   3.803 -0.2817 -0.2182  0.2520
 2374SOL     OW 9525   3.820   3.879   3.894  0.1205  0.2962  0.3747
 2374SOL    HW2 9526   3.800   3.906   3.984  1.7288  1.4239  0.4023
 2374SOL    HW3 9527   3.903   3.922   3.874 -0.2750  0.1269 -1.6871
 2374SOL    MW4 9528   3.828   3.888   3.903  0.2805  0.4227  0.1063
 2375SOL     OW 9529   3.600   4.010   3.760 -0.0307 -0.0794 -0.1643
 2375SOL    HW2 9530   3.609   4.102   3.785 -0.1994 -0.1781  0.2677
 2375SOL    HW3 9531   3.675   3.967   3.801  0.6969  0.0574 -1.3311
 2375SOL    MW4 9532   3.611   4.016   3.769  0.0430 -0.0744 -0.2613
 2376SOL     OW 9533   3.562   4.277   3.847 -0.3006  0.0863  0.0667
 2376SOL    HW2 9534   3.561   4.277   3.943  1.3017 -1.0618  0.1137
 2376SOL    HW3 9535   3.643   4.324   3.824  0.3804 -1.3919 -0.6571
 2376SOL    MW4 9536   3.573   4.283   3.857  0.0007 -0.2602 -0.0226
 2377SOL     OW 9537   3.816   4.370   3.760 -0.1478  0.0617 -0.5025
 2377SOL    HW2 9538   3.903   4.345   3.793  0.6045  1.2984 -1.5337
 2377SOL    HW3 9539   3.820   4.353   3.666 -0.8427  0.6202 -0.6340
 2377SOL    MW4 9540   3.828   4.365   3.752 -0.1403  0.2986 -0.6559
 2378SOL     OW 9541   4.235   4.624   3.895  0.1003  0.0288  0.1041
 2378SOL    HW2 9542   4.244   4.621   3.990 -0.5017  0.8256  0.1882
 2378SOL    HW3 9543   4.315   4.669   3.865  0.0174  0.2901  0.2756
 2378SOL    MW4 9544   4.247   4.630   3.904  0.0100  0.1684  0.1378
 2379SOL     OW 9545   4.021   0.116   3.810 -0.3569 -0.0223  0.6898
 2379SOL    HW2 9546   4.097   0.076   3.852  0.4313  0.6553 -0.1017
 2379SOL    HW3 9547   4.032   0.098   3.717  0.0398  2.0886  0.3206
 2379SOL    MW4 9548   4.032   0.108   3.804 -0.2006  0.3456  0.5367
 2380SOL     OW 9549   4.066   0.373   3.882 -0.6198  0.3466  0.1179
 2380SOL    HW2 9550   4.052   0.375   3.977  0.3671 -1.4234  0.3162
 2380SOL    HW3 9551   4.045   0.283   3.857 -0.0833  0.5925 -1.2232
 2380SOL    MW4 9552   4.061   0.362   3.892 -0.4188  0.1455 -0.0329
 2381SOL     OW 9553   4.297   0.487   3.771  0.3006  0.1891 -0.1134
 2381SOL    HW2 9554   4.220   0.454   3.818  0.2330  0.0406 -0.3246
 2381SOL    HW3 9555   4.281   0.461   3.680  0.1487  0.9693 -0.3163
 2381SOL    MW4 9556   4.284   0.480   3.765  0.2717  0.2725 -0.1681
 2382SOL     OW 9557   4.274   0.753   3.907  0.3357 -0.4816  0.0111
 2382SOL    HW2 9558   4.183   0.784   3.905  0.6574  0.4331 -0.5943
 2382SOL    HW3 9559   4.274   0.676   3.849  0.1025 -0.0614 -0.5486
 2382SOL    MW4 9560   4.262   0.747   3.899  0.3474 -0.3055 -0.1426
 2383SOL     OW 9561   4.040   0.920   3.836  0.0612  0.0085 -0.0442
 2383SOL    HW2 9562   4.039   1.011   3.868  0.5700  0.4733 -1.3035
 2383SOL    HW3 9563   4.063   0.928   3.743  2.6911 -1.5888  0.4080
 2383SOL    MW4 9564   4.043   0.933   3.828  0.4753 -0.1409 -0.1507
 2384SOL     OW 9565   4.074   1.200   3.919 -0.4574 -0.0872  0.9141
 2384SOL    HW2 9566   4.082   1.199   4.014  0.6393  0.6042  0.8421
 2384SOL    HW3 9567   4.161   1.227   3.888 -0.3300 -1.8383 -0.3427
 2384SOL    MW4 9568   4.087   1.203   3.928 -0.2959 -0.2270  0.7388
 2385SOL     OW 9569   4.299   1.279   3.780  0.3468  0.3429  0.4787
 2385SOL    HW2 9570   4.288   1.372   3.804 -2.3548  0.1650  0.1693
 2385SOL    HW3 9571   4.263   1.274   3.691  0.0877 -1.0828  0.6659
 2385SOL    MW4 9572   4.293   1.291   3.771 -0.0438  0.1313  0.4626
 2386SOL     OW 9573   4.265   1.542   3.914  0.0697 -0.0334 -0.3964
 2386SOL    HW2 9574   4.191   1.588   3.874 -0.0432  0.2625  0.1487
 2386SOL    HW3 9575   4.343   1.589   3.884  0.0403 -0.3260 -0.9450
 2386SOL    MW4 9576   4.266   1.554   3.905  0.0509 -0.0330 -0.3968
 2387SOL     OW 9577   4.050   1.675   3.791  0.3044  0.0981  0.1241
 2387SOL    HW2 9578   4.037   1.766   3.821 -1.9293  0.4208 -1.7109
 2387SOL    HW3 9579   3.967   1.631   3.811  0.6427 -1.0113 -0.8613
 2387SOL    MW4 9580   4.037   1.681   3.798  0.0543 -0.0057 -0.2480
 2388SOL     OW 9581   4.019   1.944   3.834  0.0899 -0.4739 -0.4318
 2388SOL    HW2 9582   4.038   1.964   3.926 -0.7266  0.0542 -0.3747
 2388SOL    HW3 9583   4.099   1.967   3.787  0.5637 -0.8891  0.1636
 2388SOL    MW4 9584   4.032   1.949   3.840  0.0447 -0.4590 -0.3457
 2389SOL     OW 9585   4.264   2.039   3.750 -0.0155  0.1289 -0.1041
 2389SOL    HW2 9586   4.228   2.120   3.786 -3.3832 -1.3432 -0.0063
 2389SOL    HW3 9587   4.256   2.048   3.655  0.9168  0.4741 -0.1547
 2389SOL    MW4 9588   4.259   2.051   3.742 -0.3368 -0.0198 -0.0979
 2390SOL     OW 9589   4.229   2.309   3.850  0.0146 -0.0311  0.6996
 2390SOL    HW2 9590   4.211   2.291   3.942 -0.4440 -2.7925  0.0928
 2390SOL    HW3 9591   4.151   2.355   3.819 -1.1684 -1.8486  0.9292
 2390SOL    MW4 9592   4.217   2.313   3.858 -0.2019 -0.6352  0.6499
 2391SOL     OW 9593   4.012   2.438   3.748 -0.2243 -0.7683  0.3126
 2391SOL    HW2 9594   4.013   2.527   3.782  0.9291 -1.2640  1.5991
 2391SOL    HW3 9595   3.939   2.396   3.793 -0.7226 -0.5126 -0.2398
 2391SOL    MW4 9596   4.003   2.444   3.758 -0.1379 -0.7999  0.4095
 2392SOL     OW 9597   4.014   2.688   3.828  0.2049  0.0309  0.1826
 2392SOL    HW2 9598   4.030   2.683   3.922 -0.2078 -0.6026  0.2177
 2392SOL    HW3 9599   4.095   2.725   3.792  0.8063 -0.8136  0.6548
 2392SOL    MW4 9600   4.027   2.692   3.836  0.2298 -0.1641  0.2496
 2393SOL     OW 9601   4.262   2.821   3.748 -0.5692 -0.5447  0.1152
 2393SOL    HW2 9602   4.282   2.910   3.778 -1.2572  0.0691 -1.1996
 2393SOL    HW3 9603   4.338   2.770   3.773  1.0129  0.9646 -1.4842
 2393SOL    MW4 9604   4.274   2.826   3.756 -0.4512 -0.2646 -0.2693
 2394SOL     OW 9605   4.265   3.083   3.840 -0.0076 -0.6601 -0.0920
 2394SOL    HW2 9606   4.194   3.129   3.797 -0.9031 -1.3151  0.6679
 2394SOL    HW3 9607   4.343   3.137   3.823 -1.0022  1.0636  0.6446
 2394SOL    MW4 9608   4.266   3.096   3.832 -0.2569 -0.5191  0.1054
 2395SOL     OW 9609   4.035   3.215   3.734  0.5845  0.1777 -0.7504
 2395SOL    HW2 9610   3.966   3.176   3.788  1.1420  0.4878  0.2018
 2395SOL    HW3 9611   4.023   3.176   3.648 -1.2315  0.7731 -0.7848
 2395SOL    MW4 9612   4.025   3.204   3.730  0.4184  0.2971 -0.6293
 2396SOL     OW 9613   4.015   3.456   3.862  0.1400 -0.3970 -0.2068
 2396SOL    HW2 9614   4.012   3.378   3.807 -1.2016 -0.7621  0.3757
 2396SOL    HW3 9615   3.940   3.509   3.833  0.6147  0.3400 -0.1064
 2396SOL    MW4 9616   4.005   3.453   3.851  0.0256 -0.3479 -0.1167
 2397SOL     OW 9617   4.267   3.596   3.797  0.2556  0.3113  0.2533
 2397SOL    HW2 9618   4.195   3.539   3.823  0.4461 -0.5728 -1.0851
 2397SOL    HW3 9619   4.346   3.547   3.817  0.4138 -0.1092 -1.2880
 2397SOL    MW4 9620   4.268   3.582   3.803  0.3016  0.1392 -0.1266
 2398SOL     OW 9621   4.263   3.877   3.867 -0.2280 -0.2188 -0.0353
 2398SOL    HW2 9622   4.180   3.906   3.829 -0.2495 -1.1580 -0.7379
 2398SOL    HW3 9623   4.264   3.782   3.853  1.5925 -0.0392 -1.3392
 2398SOL    MW4 9624   4.253   3.868   3.860  0.0094 -0.3190 -0.3001
 2399SOL     OW 9625   4.043   3.999   3.758 -0.1246  0.0208  0.3195
 2399SOL    HW2 9626   4.037   4.093   3.777  0.9259  0.2233 -0.3267
 2399SOL    HW3 9627   4.046   3.994   3.662  0.2457 -0.6537  0.3686
 2399SOL    MW4 9628   4.042   4.011   3.748  0.0628 -0.0415  0.2407
 2400SOL     OW 9629   4.051   4.269   3.840 -0.0916 -0.1464 -0.1250
 2400SOL    HW2 9630   4.045   4.275   3.936  0.0293  0.2358 -0.1413
 2400SOL    HW3 9631   4.117   4.334   3.817 -0.0044 -0.3560 -0.4537
 2400SOL    MW4 9632   4.059   4.278   3.850 -0.0642 -0.1236 -0.1705
 2401SOL     OW 9633   4.289   4.399   3.746  0.1072 -0.2466 -0.5086
 2401SOL    HW2 9634   4.275   4.481   3.794  2.2305  0.5090 -1.1145
 2401SOL    HW3 9635   4.348   4.349   3.802 -1.7184 -1.6754  0.1766
 2401SOL    MW4 9636   4.295   4.403   3.760  0.1465 -0.3354 -0.4982
 2402SOL     OW 9637   3.044   1.570   4.624 -0.1828 -0.1988 -0.0879
 2402SOL    HW2 9638   3.068   1.482   4.594 -2.6553 -1.0437  0.3252
 2402SOL    HW3 9639   3.034   1.561   4.718  1.3698  0.9897  0.2122
 2402SOL    MW4 9640   3.046   1.557   4.632 -0.3042 -0.1535  0.0062
 2403SOL     OW 9641   4.034   4.277   4.126 -0.2287 -0.4546  0.0241
 2403SOL    HW2 9642   4.051   4.189   4.161  1.1956 -0.3198 -0.3248
 2403SOL    HW3 9643   3.968   4.313   4.186  0.9944 -0.8358  1.6401
 2403SOL    MW4 9644   4.027   4.270   4.139  0.1206 -0.4871  0.1913
 2404SOL     OW 9645   2.234   0.509   4.520  0.0645  0.1466 -0.0541
 2404SOL    HW2 9646   2.322   0.479   4.543 -0.1738 -0.0903  0.5669
 2404SOL    HW3 9647   2.179   0.432   4.528 -0.2172  0.3179 -0.3383
 2404SOL    MW4 9648   2.239   0.495   4.524 -0.0041  0.1379 -0.0097
 2405SOL     OW 9649   0.645   0.722   4.117  0.1991  0.1062  0.1017
 2405SOL    HW2 9650   0.727   0.761   4.146  0.4651 -0.8443  0.6511
 2405SOL    HW3 9651   0.649   0.725   4.022 -0.4299  2.7398  0.1070
 2405SOL    MW4 9652   0.656   0.728   4.109  0.1512  0.3282  0.1749
 2406SOL     OW 9653   4.280   0.771   4.188  0.2533  0.5883 -0.2303
 2406SOL    HW2 9654   4.274   0.755   4.093 -0.0363 -0.0790 -0.1007
 2406SOL    HW3 9655   4.366   0.812   4.200  0.5427  0.1280 -0.7076
 2406SOL    MW4 9656   4.290   0.774   4.177  0.2533  0.4396 -0.2762
 2407SOL     OW 9657   1.937   2.260   4.465 -0.4384 -0.6484 -0.1216
 2407SOL    HW2 9658   1.915   2.310   4.544 -1.8437 -0.9864 -0.2882
 2407SOL    HW3 9659   2.030   2.274   4.453 -0.1941 -0.6664  1.6591
 2407SOL    MW4 9660   1.946   2.269   4.474 -0.5916 -0.6954  0.0914
 2408SOL     OW 9661   4.486   1.171   4.187 -0.5130  0.2625  0.4226
 2408SOL    HW2 9662   4.399   1.197   4.219 -0.3700  4.5593 -2.3811
 2408SOL    HW3 9663   4.547   1.211   4.248 -0.4149  1.6681 -0.5858
 2408SOL    MW4 9664   4.482   1.179   4.199 -0.4812  1.0149 -0.0803
 2409SOL     OW 9665   1.112   2.843   4.269  0.2176 -0.2135  0.4096
 2409SOL    HW2 9666   1.112   2.938   4.258 -0.3389 -0.1762  0.6935
 2409SOL    HW3 9667   1.085   2.829   4.360  0.0138 -0.6463  0.2854
 2409SOL    MW4 9668   1.108   2.854   4.280  0.1173 -0.2657  0.4306
 2410SOL     OW 9669   0.633   4.362   4.634  0.3401 -0.0493 -0.1089
 2410SOL    HW2 9670   0.568   4.426   4.607  0.6209  0.4595  0.4331
 2410SOL    HW3 9671   0.586   4.278   4.633 -0.0821  0.1891 -0.5867
 2410SOL    MW4 9672   0.618   4.359   4.630  0.3215  0.0493 -0.1004
 2411SOL     OW 9673   3.255   3.555   4.522  0.2930 -0.0654 -0.1831
 2411SOL    HW2 9674   3.217   3.467   4.527 -2.0920  0.8335 -1.6363
 2411SOL    HW3 9675   3.199   3.609   4.578  1.0760  0.7614 -0.1696
 2411SOL    MW4 9676   3.243   3.551   4.530  0.0816  0.1623 -0.3730
 2412SOL     OW 9677   0.453   3.590   4.697 -0.0573 -0.6258  0.7173
 2412SOL    HW2 9678   0.526   3.649   4.720 -0.8608  0.0946  1.4341
 2412SOL    HW3 9679   0.444   3.532   4.772 -1.5839  0.6439  1.5391
 2412SOL    MW4 9680   0.462   3.590   4.710 -0.3647 -0.3632  0.9203
 2413SOL     OW 9681   1.262   3.980   4.283 -0.1575  0.0393 -0.2577
 2413SOL    HW2 9682   1.323   3.910   4.257 -0.0885 -0.6142  1.6039
 2413SOL    HW3 9683   1.236   3.957   4.372 -1.2981  1.6025 -0.1754
 2413SOL    MW4 9684   1.267   3.968   4.291 -0.2989  0.1593 -0.0012
 2414SOL     OW 9685   0.228   2.335   4.140 -0.1908 -0.1064  0.4146
 2414SOL    HW2 9686   0.224   2.245   4.172 -0.6240 -0.3608 -0.3397
 2414SOL    HW3 9687   0.318   2.362   4.155  0.0147 -0.7590  0.3853
 2414SOL    MW4 9688   0.239   2.327   4.146 -0.2209 -0.2261  0.3112
 2415SOL     OW 9689   1.116   4.418   4.200  0.2336 -0.2901 -0.3512
 2415SOL    HW2 9690   1.113   4.437   4.294 -2.2642 -1.4309 -0.1520
 2415SOL    HW3 9691   1.197   4.370   4.188  1.1205  0.8209  1.0283
 2415SOL    MW4 9692   1.126   4.414   4.211  0.0210 -0.2940 -0.1429
 2416SOL     OW 9693   4.270   4.357   4.277 -0.2632 -0.1784  0.2499
 2416SOL    HW2 9694   4.253   4.451   4.279  0.8877  0.0875 -1.4848
 2416SOL    HW3 9695   4.193   4.320   4.234  0.2893  0.2325 -1.1181
 2416SOL    MW4 9696   4.258   4.365   4.272 -0.0384 -0.0891 -0.1594
 2417SOL     OW 9697   0.127   1.819   4.694 -0.0916 -0.0478  0.2492
 2417SOL    HW2 9698   0.062   1.877   4.733 -0.7174 -0.7603  0.2817
 2417SOL    HW3 9699   0.205   1.873   4.684  0.2860  0.0256  3.0248
 2417SOL    MW4 9700   0.129   1.834   4.698 -0.1244 -0.1321  0.6197
 2418SOL     OW 9701   0.222   2.857   4.195 -0.0906 -0.4449  0.3196
 2418SOL    HW2 9702   0.203   2.951   4.194 -0.5773 -0.5361  0.6368
 2418SOL    HW3 9703   0.141   2.816   4.167 -0.2716 -0.8239  1.3686
 2418SOL    MW4 9704   0.209   2.864   4.191 -0.1787 -0.5069  0.4998
 2419SOL     OW 9705   2.077   1.537   4.522 -0.4708  0.1883  0.0174
 2419SOL    HW2 9706   2.001   1.571   4.568 -0.2177 -2.0290  2.1883
 2419SOL    HW3 9707   2.149   1.544   4.584  1.2710  2.6385 -2.1529
 2419SOL    MW4 9708   2.077   1.542   4.536 -0.2076  0.2190  0.0174
 2420SOL     OW 9709   4.217   3.067   4.128  0.1709 -0.2272  0.3380
 2420SOL    HW2 9710   4.278   3.132   4.163 -1.0019  0.8906  0.3491
 2420SOL    HW3 9711   4.226   3.074   4.033 -0.1522  0.1584  0.3329
 2420SOL    MW4 9712   4.226   3.076   4.120 -0.0264 -0.0289  0.3388
 2421SOL     OW 9713   3.548   2.683   4.373 -0.4348  0.2669 -0.0998
 2421SOL    HW2 9714   3.473   2.736   4.346  0.9401  1.9463 -0.7655
 2421SOL    HW3 9715   3.603   2.744   4.423  0.0773 -1.1615  1.0914
 2421SOL    MW4 9716   3.546   2.698   4.376 -0.1858  0.3000 -0.0305
 2422SOL     OW 9717   2.056   1.029   4.454 -0.4716  0.2885  0.2942
 2422SOL    HW2 9718   2.051   1.124   4.441  0.3380  0.3754  0.5779
 2422SOL    HW3 9719   2.138   1.016   4.502 -0.2217 -0.6222 -0.3692
 2422SOL    MW4 9720   2.066   1.040   4.458 -0.3318  0.1798  0.2441
 2423SOL     OW 9721   1.162   1.921   4.720  0.0821  0.4413  0.2547
 2423SOL    HW2 9722   1.161   1.986   4.649 -1.7506  0.8119  0.5785
 2423SOL    HW3 9723   1.227   1.954   4.782  0.4072  1.0614 -0.3981
 2423SOL    MW4 9724   1.170   1.934   4.719 -0.1168  0.5720  0.2113
 2424SOL     OW 9725   0.239   4.398   4.251 -0.0850  0.4649 -0.1494
 2424SOL    HW2 9726   0.217   4.425   4.340  0.4009  0.8980 -0.1575
 2424SOL    HW3 9727   0.161   4.353   4.219 -0.1628  0.0592  0.5947
 2424SOL    MW4 9728   0.226   4.395   4.259 -0.0312  0.4685 -0.0523
 2425SOL     OW 9729   3.161   1.185   4.154 -0.1321 -0.2932  0.1319
 2425SOL    HW2 9730   3.149   1.184   4.059  0.2052 -0.1460  0.0868
 2425SOL    HW3 9731   3.104   1.256   4.185 -1.1183 -1.0806  0.1654
 2425SOL    MW4 9732   3.152   1.194   4.146 -0.2177 -0.3777  0.1303
 2426SOL     OW 9733   0.898   0.906   4.455 -0.6342 -0.0362  0.4982
 2426SOL    HW2 9734   0.827   0.923   4.517 -0.6858  1.5924  0.0082
 2426SOL    HW3 9735   0.976   0.898   4.509 -1.1782 -2.0399  1.0614
 2426SOL    MW4 9736   0.899   0.907   4.470 -0.7128 -0.0857  0.5079
 2427SOL     OW 9737   0.514   0.072   4.076 -0.1216  0.4922  0.2593
 2427SOL    HW2 9738   0.516   0.167   4.087 -1.0632  0.6741 -1.1182
 2427SOL    HW3 9739   0.547   0.057   3.988 -0.2873 -0.4444  0.3466
 2427SOL    MW4 9740   0.519   0.083   4.066 -0.2677  0.3927  0.0891
 2428SOL     OW 9741   0.467   0.351   4.101  0.1462 -0.2359 -0.1394
 2428SOL    HW2 9742   0.548   0.388   4.138  0.2279  0.1697 -0.7191
 2428SOL    HW3 9743   0.474   0.368   4.007 -0.3907 -0.6318 -0.2493
 2428SOL    MW4 9744   0.479   0.358   4.093  0.0862 -0.2347 -0.2304
 2429SOL     OW 9745   0.857   0.885   4.164  0.0324 -0.1637  0.5229
 2429SOL    HW2 9746   0.863   0.974   4.129 -0.1671 -0.6932 -0.8859
 2429SOL    HW3 9747   0.841   0.898   4.258 -1.2251  1.3008  0.1411
 2429SOL    MW4 9748   0.855   0.899   4.172 -0.1598 -0.0403  0.2866
 2430SOL     OW 9749   4.289   0.776   4.647  0.2739 -0.1746 -0.4084
 2430SOL    HW2 9750   4.202   0.799   4.614 -0.1199  1.2568  1.5788
 2430SOL    HW3 9751   4.347   0.839   4.604 -0.2057  1.5172  1.3373
 2430SOL    MW4 9752   4.285   0.787   4.637  0.1587  0.2374  0.0841
 2431SOL     OW 9753   2.703   2.030   4.343  0.5721  0.0987  0.3920
 2431SOL    HW2 9754   2.738   1.984   4.419 -0.0648  0.6959  1.0487
 2431SOL    HW3 9755   2.608   2.022   4.352  0.5013 -0.8569 -0.9743
 2431SOL    MW4 9756   2.695   2.023   4.354  0.4787  0.0514  0.2984
 2432SOL     OW 9757   0.677   1.532   4.160 -0.0369  0.6985  0.0152
 2432SOL    HW2 9758   0.653   1.442   4.184 -0.9508  0.6862 -0.8684
 2432SOL    HW3 9759   0.654   1.538   4.068  0.5742  1.6687 -0.0745
 2432SOL    MW4 9760   0.670   1.521   4.151 -0.0769  0.8249 -0.1132
 2433SOL     OW 9761   0.230   0.777   4.116 -0.0346  0.3794  0.0270
 2433SOL    HW2 9762   0.234   0.698   4.170  0.8522 -0.3692 -1.1097
 2433SOL    HW3 9763   0.155   0.826   4.150  0.4370 -0.1235  1.8603
 2433SOL    MW4 9764   0.221   0.773   4.128  0.1446  0.2143  0.1189
 2434SOL     OW 9765   0.644   2.331   4.656 -0.7584  0.2761  0.1798
 2434SOL    HW2 9766   0.638   2.322   4.751  0.0977 -0.8901  0.1392
 2434SOL    HW3 9767   0.658   2.242   4.625 -1.0892  0.6432 -1.0547
 2434SOL    MW4 9768   0.645   2.318   4.664 -0.6891  0.1707  0.0116
 2435SOL     OW 9769   3.976   1.140   4.667  0.1413 -0.0705 -0.0828
 2435SOL    HW2 9770   3.970   1.195   4.745  0.4847 -0.8983  0.5282
 2435SOL    HW3 9771   3.929   1.190   4.599 -2.4019 -0.5071  1.2811
 2435SOL    MW4 9772   3.969   1.154   4.668 -0.1489 -0.2373  0.1778
 2436SOL     OW 9773   0.464   1.952   4.186  0.2230  0.2230  0.0724
 2436SOL    HW2 9774   0.531   2.003   4.230 -0.6810  0.7579  0.8273
 2436SOL    HW3 9775   0.486   1.959   4.093  1.0925  0.5501  0.3006
 2436SOL    MW4 9776   0.475   1.959   4.179  0.2185  0.3368  0.2021
 2437SOL     OW 9777   1.834   3.262   4.498 -0.7122  0.0082  0.1853
 2437SOL    HW2 9778   1.820   3.182   4.549 -1.7280  0.3647  0.4797
 2437SOL    HW3 9779   1.818   3.236   4.407  1.6832 -0.7736 -0.0646
 2437SOL    MW4 9780   1.830   3.248   4.493 -0.5301 -0.0479  0.1911
 2438SOL     OW 9781   0.692   2.300   4.222 -0.3381  0.1452 -0.1058
 2438SOL    HW2 9782   0.607   2.343   4.236 -1.8059 -2.5262 -0.3954
 2438SOL    HW3 9783   0.701   2.297   4.127 -0.7210 -1.0140 -0.1162
 2438SOL    MW4 9784   0.682   2.305   4.211 -0.5822 -0.3602 -0.1454
 2439SOL     OW 9785   2.007   4.222   4.485 -0.2139 -0.4400  0.3589
 2439SOL    HW2 9786   1.924   4.251   4.524  0.1306  1.2939 -0.1356
 2439SOL    HW3 9787   2.017   4.277   4.408  1.5822 -0.3806  0.6178
 2439SOL    MW4 9788   1.997   4.233   4.480  0.0685 -0.2034  0.3278
 2440SOL     OW 9789   0.659   2.837   4.270 -0.0539  0.2470 -0.3948
 2440SOL    HW2 9790   0.741   2.813   4.227 -0.2341 -1.0253 -0.0421
 2440SOL    HW3 9791   0.592   2.784   4.226 -0.4683  0.1626  0.3322
 2440SOL    MW4 9792   0.661   2.827   4.259 -0.1323  0.0680 -0.2523
 2441SOL     OW 9793   1.537   2.791   4.252  0.2469  0.2381 -0.3520
 2441SOL    HW2 9794   1.542   2.813   4.346 -0.0007  2.0849 -0.7431
 2441SOL    HW3 9795   1.628   2.791   4.223  0.2192  1.4105 -0.4717
 2441SOL    MW4 9796   1.550   2.794   4.261  0.2105  0.6364 -0.4194
 2442SOL     OW 9797   0.608   3.066   4.147 -0.0998  0.1117  0.1806
 2442SOL    HW2 9798   0.616   2.989   4.203 -1.4495 -0.7675 -0.8229
 2442SOL    HW3 9799   0.533   3.114   4.183 -1.4283 -0.8301 -1.2921
 2442SOL    MW4 9800   0.600   3.062   4.159 -0.4532 -0.1286 -0.1461
 2443SOL     OW 9801   4.413   3.222   4.231 -0.1039  0.0255 -0.4209
 2443SOL    HW2 9802   4.414   3.316   4.211 -1.2747 -0.0174 -0.7609
 2443SOL    HW3 9803   4.401   3.218   4.326 -3.0458  0.2464 -0.7283
 2443SOL    MW4 9804   4.411   3.234   4.241 -0.6466  0.0490 -0.5063
 2444SOL     OW 9805   0.900   1.302   4.486 -0.1742  0.1262  0.3562
 2444SOL    HW2 9806   0.988   1.266   4.477 -0.9757 -1.8494  0.0471
 2444SOL    HW3 9807   0.912   1.397   4.482  1.9071 -0.1241  0.1008
 2444SOL    MW4 9808   0.913   1.310   4.484 -0.0053 -0.1675  0.2817
 2445SOL     OW 9809   3.835   3.946   4.645 -0.2417 -0.1024  0.3021
 2445SOL    HW2 9810   3.851   3.857   4.614  2.1758  0.6115 -0.6092
 2445SOL    HW3 9811   3.825   3.937   4.740 -2.3880 -1.6072 -0.0098
 2445SOL    MW4 9812   3.835   3.933   4.654 -0.2059 -0.2067  0.1407
 2446SOL     OW 9813   0.644   3.661   4.270  0.2783 -0.0324  0.3371
 2446SOL    HW2 9814   0.715   3.628   4.215  0.1523 -0.3893  0.3915
 2446SOL    HW3 9815   0.671   3.750   4.292  0.1344  0.2696 -0.6465
 2446SOL    MW4 9816   0.657   3.668   4.265  0.2427 -0.0396  0.2145
 2447SOL     OW 9817   2.512   0.444   4.514  0.4433  0.2263  0.3060
 2447SOL    HW2 9818   2.554   0.358   4.521  4.2686  1.9727  0.4555
 2447SOL    HW3 9819   2.505   0.460   4.420 -0.7793 -0.4593  0.2736
 2447SOL    MW4 9820   2.517   0.435   4.503  0.7867  0.3663  0.3214
 2448SOL     OW 9821   4.386   0.528   4.559  0.0284  0.0161  0.2075
 2448SOL    HW2 9822   4.369   0.512   4.466 -1.4283 -1.3602  0.6751
 2448SOL    HW3 9823   4.362   0.620   4.571  2.9755  1.0457 -1.3440
 2448SOL    MW4 9824   4.380   0.538   4.548  0.2250 -0.0296  0.0645
 2449SOL     OW 9825   0.176   4.496   4.497  0.0176 -0.1633 -0.3101
 2449SOL    HW2 9826   0.147   4.586   4.516  0.5187 -0.2466  0.9170
 2449SOL    HW3 9827   0.106   4.441   4.531 -0.1758 -0.2473 -0.8416
 2449SOL    MW4 9828   0.163   4.501   4.504  0.0582 -0.1854 -0.2183
 2450SOL     OW 9829   1.148   0.012   4.115 -0.2166 -0.0856  0.6690
 2450SOL    HW2 9830   1.137  -0.079   4.141 -0.6881  0.0379  0.8938
 2450SOL    HW3 9831   1.119   0.015   4.024  0.7774 -0.3708  0.3305
 2450SOL    MW4 9832   1.143   0.001   4.106 -0.1476 -0.1069  0.6540
 2451SOL     OW 9833   0.981   0.172   4.280 -0.5448  0.0030 -0.5753
 2451SOL    HW2 9834   0.958   0.246   4.224 -0.8195 -1.2164 -2.1267
 2451SOL    HW3 9835   1.042   0.120   4.227 -1.6567 -1.7427 -0.1923
 2451SOL    MW4 9836   0.986   0.175   4.266 -0.7278 -0.3882 -0.7295
 2452SOL     OW 9837   1.125   4.236   4.717 -0.1312 -0.2165 -0.1463
 2452SOL    HW2 9838   1.034   4.230   4.748 -0.1323 -1.1011 -0.2840
 2452SOL    HW3 9839   1.121   4.291   4.639 -0.4023  0.5464  0.4006
 2452SOL    MW4 9840   1.112   4.242   4.711 -0.1671 -0.2325 -0.0923
 2453SOL     OW 9841   0.455   1.691   4.264 -0.1757  0.1784 -0.3410
 2453SOL    HW2 9842   0.541   1.654   4.244 -0.5253  0.1995 -1.9425
 2453SOL    HW3 9843   0.460   1.781   4.232 -0.8181  0.1417 -0.5487
 2453SOL    MW4 9844   0.467   1.698   4.257 -0.3066  0.1763 -0.5797
 2454SOL     OW 9845   1.100   0.785   4.110  0.2481 -0.5309  0.3636
 2454SOL    HW2 9846   1.171   0.831   4.155 -0.0791  0.7717 -0.4030
 2454SOL    HW3 9847   1.022   0.837   4.130  0.0253 -0.2085 -1.2831
 2454SOL    MW4 9848   1.099   0.798   4.118  0.1755 -0.3165  0.0452
 2455SOL     OW 9849   1.730   0.493   4.564 -0.4706  0.6352 -0.3234
 2455SOL    HW2 9850   1.814   0.540   4.564 -1.1939  1.9377 -0.8661
 2455SOL    HW3 9851   1.680   0.534   4.494 -0.9943 -1.1735 -1.0120
 2455SOL    MW4 9852   1.735   0.505   4.555 -0.6351  0.5684 -0.4858
 2456SOL     OW 9853   0.892   1.156   4.127 -0.3197  0.4568 -0.0889
 2456SOL    HW2 9854   0.816   1.201   4.165 -0.1657  0.1010  0.6458
 2456SOL    HW3 9855   0.967   1.194   4.173 -0.2152 -0.8589  0.8468
 2456SOL    MW4 9856   0.892   1.167   4.138 -0.2856  0.2363  0.1315
 2457SOL     OW 9857   0.035   1.586   4.549 -0.0301 -0.3705 -0.4309
 2457SOL    HW2 9858   0.104   1.524   4.572  0.3482 -0.0220 -0.6131
 2457SOL    HW3 9859   0.057   1.666   4.597 -0.5897 -0.4209 -0.0911
 2457SOL    MW4 9860   0.047   1.588   4.558 -0.0540 -0.3312 -0.4101
 2458SOL     OW 9861   3.911   3.694   4.519  0.7674  0.1142 -0.1224
 2458SOL    HW2 9862   4.001   3.662   4.515  0.3083 -1.0763 -2.0060
 2458SOL    HW3 9863   3.879   3.686   4.429 -1.0629  0.9773  0.4232
 2458SOL    MW4 9864   3.919   3.688   4.507  0.4654  0.0710 -0.2989
 2459SOL     OW 9865   1.156   3.561   4.532 -0.3412 -0.7001 -0.0680
 2459SOL    HW2 9866   1.122   3.586   4.446 -1.5377 -2.3596 -0.0880
 2459SOL    HW3 9867   1.219   3.630   4.553 -0.8558  0.3269 -1.7704
 2459SOL    MW4 9868   1.160   3.574   4.524 -0.5670 -0.7835 -0.2952
 2460SOL     OW 9869   0.389   1.943   4.649  0.0494  0.3447  0.2765
 2460SOL    HW2 9870   0.469   1.987   4.677  0.1884  0.7166 -0.6984
 2460SOL    HW3 9871   0.419   1.866   4.602 -0.1441  0.8066 -0.6207
 2460SOL    MW4 9872   0.403   1.939   4.646  0.0422  0.4547  0.0295
 2461SOL     OW 9873   0.885   1.934   4.201  0.0684  0.3124 -0.4201
 2461SOL    HW2 9874   0.971   1.956   4.237 -0.4215  0.5211  0.6385
 2461SOL    HW3 9875   0.898   1.931   4.106  1.4132 -0.3871 -0.2199
 2461SOL    MW4 9876   0.898   1.936   4.193  0.1812  0.2477 -0.2540
 2462SOL     OW 9877   2.593   2.356   4.598 -0.2052 -0.2967 -0.1881
 2462SOL    HW2 9878   2.658   2.328   4.534  0.8987  0.8691  0.3960
 2462SOL    HW3 9879   2.520   2.390   4.545  0.2082 -0.4159 -0.8375
 2462SOL    MW4 9880   2.592   2.357   4.582 -0.0050 -0.1587 -0.1967
 2463SOL     OW 9881   0.458   4.119   4.607 -0.3152  0.0459 -0.1983
 2463SOL    HW2 9882   0.451   4.092   4.515  0.9513 -0.6796 -0.1111
 2463SOL    HW3 9883   0.377   4.088   4.648 -0.4361 -0.5417 -0.8677
 2463SOL    MW4 9884   0.447   4.111   4.600 -0.1640 -0.1273 -0.2751
 2464SOL     OW 9885   0.895   2.702   4.147  0.1267 -0.1530 -0.2536
 2464SOL    HW2 9886   0.894   2.623   4.201  1.4865 -0.9245 -1.3333
 2464SOL    HW3 9887   0.972   2.751   4.176  0.0512  0.1285 -0.5186
 2464SOL    MW4 9888   0.905   2.698   4.158  0.2961 -0.2176 -0.4310
 2465SOL     OW 9889   0.683   3.697   4.811  0.3895  0.1250 -0.0130
 2465SOL    HW2 9890   0.660   3.630   4.875 -0.8523  0.2876 -0.2804
 2465SOL    HW3 9891   0.744   3.654   4.751 -1.3057 -1.1228 -0.8723
 2465SOL    MW4 9892   0.688   3.683   4.812  0.0020 -0.0182 -0.1616
 2466SOL     OW 9893   1.073   3.088   4.155  0.0944  0.0483 -0.3123
 2466SOL    HW2 9894   1.082   3.090   4.059 -0.8823  1.1838 -0.3998
 2466SOL    HW3 9895   0.983   3.118   4.171  0.8438  1.6903  1.0242
 2466SOL    MW4 9896   1.062   3.092   4.144  0.0644  0.4148 -0.1475
 2467SOL     OW 9897   3.590   0.103   4.303  0.4961  0.5906  0.3775
 2467SOL    HW2 9898   3.663   0.056   4.263  1.1228  1.2378  0.7681
 2467SOL    HW3 9899   3.577   0.180   4.247 -1.7321 -0.9412 -1.3558
 2467SOL    MW4 9900   3.598   0.107   4.290  0.2848  0.4739  0.2003
 2468SOL     OW 9901   0.193   3.662   4.254  0.5959 -0.8442  0.0905
 2468SOL    HW2 9902   0.207   3.752   4.226  0.9187 -0.6073  1.0043
 2468SOL    HW3 9903   0.274   3.617   4.231  0.6962 -0.7474  0.2561
 2468SOL    MW4 9904   0.205   3.668   4.247  0.6517 -0.8002  0.2329
 2469SOL     OW 9905   4.061   2.686   4.117  0.0919  0.3345 -0.0581
 2469SOL    HW2 9906   4.058   2.594   4.143  0.4801 -0.1778 -1.7438
 2469SOL    HW3 9907   4.000   2.729   4.176  1.3452 -0.6536  2.0488
 2469SOL    MW4 9908   4.053   2.679   4.128  0.3085  0.1365 -0.0025
 2470SOL     OW 9909   2.043   2.860   4.208 -0.0564 -0.3140 -0.2249
 2470SOL    HW2 9910   1.956   2.819   4.201 -0.2979  0.1729 -0.0726
 2470SOL    HW3 9911   2.104   2.788   4.190 -0.4960 -0.5897 -0.6340
 2470SOL    MW4 9912   2.039   2.845   4.205 -0.1463 -0.2861 -0.2588
 2471SOL     OW 9913   0.410   3.251   4.275  0.5075  0.3691 -0.2058
 2471SOL    HW2 9914   0.417   3.342   4.244 -0.1005  0.1031 -1.1460
 2471SOL    HW3 9915   0.442   3.254   4.365  1.0917  1.4023 -0.4358
 2471SOL    MW4 9916   0.415   3.264   4.283  0.5043  0.4703 -0.3602
 2472SOL     OW 9917   0.892   4.259   4.158 -0.1854  0.0489  0.3177
 2472SOL    HW2 9918   0.822   4.286   4.218 -0.4238  0.1779 -0.0120
 2472SOL    HW3 9919   0.967   4.313   4.181 -0.2766  0.0951  0.5018
 2472SOL    MW4 9920   0.892   4.270   4.169 -0.2289  0.0720  0.2985
 2473SOL     OW 9921   0.992   0.052   4.855  0.3248 -0.0668 -0.1179
 2473SOL    HW2 9922   0.950  -0.008   4.794  0.3191  0.8468 -1.0274
 2473SOL    HW3 9923   0.967   0.139   4.824  1.3166  0.4356  0.4634
 2473SOL    MW4 9924   0.983   0.056   4.843  0.4549  0.1200 -0.1612
 2474SOL     OW 9925   2.681   4.014   4.284 -0.4847  0.0727  0.1708
 2474SOL    HW2 9926   2.667   3.983   4.373  0.9361  0.4294  0.5186
 2474SOL    HW3 9927   2.610   3.973   4.233 -0.5523 -1.1345  1.2173
 2474SOL    MW4 9928   2.670   4.004   4.289 -0.3062 -0.0395  0.3548
 2475SOL     OW 9929   1.446   0.019   4.137  0.2100 -0.2964 -0.1858
 2475SOL    HW2 9930   1.458  -0.018   4.224  0.3197 -1.3853 -0.6656
 2475SOL    HW3 9931   1.351   0.027   4.127  0.2207  0.6543  0.3682
 2475SOL    MW4 9932   1.435   0.015   4.147  0.2259 -0.3146 -0.1760
 2476SOL     OW 9933   1.354   0.295   4.175 -0.4096 -0.3342  0.3513
 2476SOL    HW2 9934   1.414   0.356   4.219 -0.9700  0.3201  0.2265
 2476SOL    HW3 9935   1.395   0.209   4.186  0.0158 -0.0370  1.1966
 2476SOL    MW4 9936   1.367   0.292   4.182 -0.4274 -0.2087  0.4463
 2477SOL     OW 9937   1.569   3.455   4.504  0.3779  0.2161 -0.0939
 2477SOL    HW2 9938   1.656   3.416   4.515  1.1222  1.6560 -0.7644
 2477SOL    HW3 9939   1.581   3.547   4.526 -1.4400  0.0426  1.8287
 2477SOL    MW4 9940   1.582   3.462   4.509  0.2362  0.3832  0.0713
 2478SOL     OW 9941   2.353   2.046   4.826 -0.1853  0.0566 -0.4028
 2478SOL    HW2 9942   2.317   2.131   4.802  0.6645  0.6766  0.5134
 2478SOL    HW3 9943   2.446   2.051   4.805  0.3186  0.1545  1.6979
 2478SOL    MW4 9944   2.360   2.058   4.820 -0.0067  0.1513 -0.0048
 2479SOL     OW 9945   1.803   4.391   4.614  0.2493 -0.0045 -0.3734
 2479SOL    HW2 9946   1.764   4.477   4.598 -0.2272  0.1405  1.3953
 2479SOL    HW3 9947   1.727   4.334   4.631  0.6461 -0.3538  0.2466
 2479SOL    MW4 9948   1.788   4.394   4.614  0.2388 -0.0315 -0.0582
 2480SOL     OW 9949   0.836   3.225   4.268 -0.5749  0.5955 -0.2506
 2480SOL    HW2 9950   0.861   3.174   4.345  1.3667  0.3149 -1.0213
 2480SOL    HW3 9951   0.754   3.186   4.238 -0.4707 -0.3712  0.7164
 2480SOL    MW4 9952   0.829   3.213   4.274 -0.3050  0.4309 -0.2247
 2481SOL     OW 9953   1.377   1.134   4.120 -0.0018 -0.3794 -0.7094
 2481SOL    HW2 9954   1.472   1.146   4.120  0.0682 -0.8232  0.2432
 2481SOL    HW3 9955   1.351   1.136   4.028  0.7642  1.0517 -0.9069
 2481SOL    MW4 9956   1.386   1.136   4.108  0.1085 -0.2491 -0.6098
 2482SOL     OW 9957   3.187   2.761   4.585 -0.2700  0.5516  0.3781
 2482SOL    HW2 9958   3.267   2.805   4.612  0.8876 -0.5347 -1.2195
 2482SOL    HW3 9959   3.117   2.818   4.617  1.1668  2.4967  0.1407
 2482SOL    MW4 9960   3.188   2.775   4.593  0.0723  0.6649  0.1360
 2483SOL     OW 9961   3.291   4.419   4.565  0.3705  0.4976 -0.6069
 2483SOL    HW2 9962   3.201   4.389   4.557  0.6060 -0.5159  0.4184
 2483SOL    HW3 9963   3.285   4.515   4.561 -0.9591  0.5183  1.4566
 2483SOL    MW4 9964   3.278   4.428   4.563  0.2262  0.3666 -0.1994
 2484SOL     OW 9965   2.764   2.296   4.366  0.3463  0.7170 -0.2286
 2484SOL    HW2 9966   2.748   2.203   4.348  2.1429  0.8187 -2.6128
 2484SOL    HW3 9967   2.692   2.342   4.322 -0.0549  0.5226  0.2135
 2484SOL    MW4 9968   2.752   2.290   4.358  0.5304  0.7048 -0.4848
 2485SOL     OW 9969   1.130   0.216   4.512 -0.4432 -0.1977  0.0626
 2485SOL    HW2 9970   1.180   0.297   4.505 -0.0927 -0.4055  0.1530
 2485SOL    HW3 9971   1.081   0.210   4.430 -1.2247  0.6060  0.4692
 2485SOL    MW4 9972   1.130   0.226   4.501 -0.5000 -0.1190  0.1282
 2486SOL     OW 9973   2.708   0.777   4.753  0.2455  0.0595  0.0374
 2486SOL    HW2 9974   2.682   0.857   4.708  0.2765  0.0958  0.0833
 2486SOL    HW3 9975   2.655   0.776   4.833  1.1253  0.6694  0.6450
 2486SOL    MW4 9976   2.698   0.787   4.758  0.3657  0.1448  0.1236
 2487SOL     OW 9977   1.787   2.696   3.874  0.7108  0.0768  0.0503
 2487SOL    HW2 9978   1.707   2.736   3.841 -0.7718 -1.3744  1.8670
 2487SOL    HW3 9979   1.788   2.608   3.837 -0.3870 -1.1704  2.8656
 2487SOL    MW4 9980   1.777   2.690   3.864  0.3704 -0.2793  0.6615
 2488SOL     OW 9981   3.071   3.732   4.666  0.3419 -0.6940 -0.1012
 2488SOL    HW2 9982   3.078   3.822   4.635 -0.2013 -1.0087 -1.1841
 2488SOL    HW3 9983   3.070   3.739   4.761 -0.1411  0.4787 -0.1831
 2488SOL    MW4 9984   3.071   3.745   4.674  0.2065 -0.5808 -0.2549
 2489SOL     OW 9985   1.150   2.025   4.248 -0.0038  0.3472  0.1314
 2489SOL    HW2 9986   1.231   1.992   4.208  0.2024  0.3621  0.5224
 2489SOL    HW3 9987   1.175   2.042   4.339 -0.9274 -1.4483  0.7377
 2489SOL    MW4 9988   1.164   2.023   4.255 -0.0984  0.1123  0.2630
 2490SOL     OW 9989   3.569   4.034   4.285  0.0707 -0.0830 -0.4292
 2490SOL    HW2 9990   3.633   3.997   4.226 -1.1821 -1.0223 -1.2226
 2490SOL    HW3 9991   3.486   3.994   4.260 -0.3897 -1.0977  2.4354
 2490SOL    MW4 9992   3.566   4.024   4.274 -0.1553 -0.3408 -0.1559
 2491SOL     OW 9993   3.098   0.888   4.540  0.2454  0.4005  0.1783
 2491SOL    HW2 9994   3.107   0.797   4.569 -0.9989  0.3834  0.5472
 2491SOL    HW3 9995   3.086   0.881   4.445  0.0443  0.1591  0.2184
 2491SOL    MW4 9996   3.097   0.875   4.531  0.0547  0.3664  0.2323
 2492SOL     OW 9997   3.287   0.010   4.533  0.2219 -0.0314 -0.1181
 2492SOL    HW2 9998   3.368   0.058   4.551 -0.9371  1.4593  1.3013
 2492SOL    HW3 9999   3.219   0.078   4.530 -1.0756 -1.3306 -0.6058
 2492SOL    MW410000   3.289   0.025   4.535 -0.1022 -0.0061  0.0049
 2493SOL     OW10001   1.729   0.108   4.270  0.0279  0.3099 -0.5118
 2493SOL    HW210002   1.797   0.045   4.246  0.8194  0.7682  0.4693
 2493SOL    HW310003   1.649   0.056   4.279  0.7399 -0.6238  0.6077
 2493SOL    MW410004   1.728   0.093   4.268  0.2263  0.2472 -0.2347
 2494SOL     OW10005   0.792   4.015   4.072  0.2944  0.5210 -0.0852
 2494SOL    HW210006   0.809   4.110   4.077  0.7609  0.4295  0.1154
 2494SOL    HW310007   0.876   3.975   4.094 -0.2799  0.0441  1.2677
 2494SOL    MW410008   0.805   4.022   4.075  0.2802  0.4460  0.1198
 2495SOL     OW10009   0.696   3.944   4.332 -0.1102  0.1744  0.4545
 2495SOL    HW210010   0.772   3.936   4.389  0.5961 -1.7645 -0.7204
 2495SOL    HW310011   0.731   3.978   4.249 -0.4713 -1.0221 -0.1919
 2495SOL    MW410012   0.710   3.948   4.329 -0.0647 -0.2393  0.2142
 2496SOL     OW10013   1.507   0.487   4.319 -0.0402  0.5304  0.1239
 2496SOL    HW210014   1.432   0.468   4.376 -0.0359  0.9107  0.2586
 2496SOL    HW310015   1.490   0.575   4.286  1.1455  1.2523  1.4339
 2496SOL    MW410016   1.495   0.496   4.322  0.1168  0.6758  0.3145
 2497SOL     OW10017   1.777   0.220   4.538 -0.5069 -0.0239  0.0849
 2497SOL    HW210018   1.743   0.308   4.557  1.0226  0.7265 -0.5117
 2497SOL    HW310019   1.764   0.209   4.444  0.5093  0.1174 -0.0826
 2497SOL    MW410020   1.771   0.230   4.528 -0.1710  0.0937 -0.0159
 2498SOL     OW10021   1.970   4.654   4.203 -0.5783  0.7658  0.1660
 2498SOL    HW210022   2.036   4.708   4.247 -0.4402 -0.0077  0.9333
 2498SOL    HW310023   1.991   4.661   4.110  0.2270  0.9916  0.3638
 2498SOL    MW410024   1.982   4.662   4.197 -0.4538  0.6936  0.2933
 2499SOL     OW10025   1.961   0.520   4.266  0.0000  0.1690  0.0751
 2499SOL    HW210026   2.036   0.478   4.223  0.6812  1.7703 -0.3368
 2499SOL    HW310027   1.888   0.461   4.248  0.5060  0.2325 -2.3414
 2499SOL    MW410028   1.962   0.506   4.258  0.1567  0.3886 -0.2981
 2500SOL     OW10029   1.493   4.606   4.388 -0.1142  0.7238  0.1576
 2500SOL    HW210030   1.409   4.604   4.434 -0.3649  1.6228 -0.2515
 2500SOL    HW310031   1.511   4.514   4.367 -1.0265  0.5358  0.1775
 2500SOL    MW410032   1.485   4.594   4.391 -0.2677  0.8176  0.1062
 2501SOL     OW10033   1.075   0.573   4.670  0.2505  0.5392 -0.1405
 2501SOL    HW210034   1.049   0.498   4.723  1.1732  1.1071  1.1148
 2501SOL    HW310035   1.011   0.575   4.599  0.4384 -1.6745 -0.4118
 2501SOL    MW410036   1.063   0.563   4.667  0.3970  0.3220 -0.0107
 2502SOL     OW10037   3.802   0.729   4.185 -0.0743  0.0457 -0.4400
 2502SOL    HW210038   3.728   0.779   4.218  0.8815  0.2727  1.3856
 2502SOL    HW310039   3.804   0.749   4.091  0.3572  3.5336  0.2510
 2502SOL    MW410040   3.793   0.738   4.177  0.1087  0.5358 -0.1080
 2503SOL     OW10041   3.537   0.126   4.565  0.6292  0.0631  0.5167
 2503SOL    HW210042   3.619   0.117   4.613  0.9548  0.3923  0.0208
 2503SOL    HW310043   3.560   0.111   4.473 -0.3792 -2.7998  0.6854
 2503SOL    MW410044   3.551   0.123   4.559  0.5391 -0.2712  0.4736
 2504SOL     OW10045   0.888   0.999   4.822  0.7488 -0.2989  0.4125
 2504SOL    HW210046   0.957   0.950   4.779  1.2164 -0.0048  0.8196
 2504SOL    HW310047   0.808   0.974   4.775  1.1321 -0.6069 -0.0861
 2504SOL    MW410048   0.886   0.989   4.810  0.8611 -0.3008  0.4005
 2505SOL     OW10049   1.508   1.985   4.526  0.3430  0.2744  0.0963
 2505SOL    HW210050   1.572   1.914   4.531  2.6749  2.3046  0.0232
 2505SOL    HW310051   1.508   2.024   4.613  0.2068  1.1471 -0.2947
 2505SOL    MW410052   1.516   1.980   4.538  0.6327  0.6574  0.0350
 2506SOL     OW10053   1.725   1.273   4.317  0.3754 -0.1115  0.3154
 2506SOL    HW210054   1.820   1.268   4.319  0.4040 -0.3174 -0.9531
 2506SOL    HW310055   1.705   1.363   4.294  0.2731 -0.1686  0.1767
 2506SOL    MW410056   1.735   1.284   4.314  0.3657 -0.1462  0.1297
 2507SOL     OW10057   1.611   1.520   4.204 -0.0582  0.6912 -0.0148
 2507SOL    HW210058   1.528   1.562   4.227 -0.0001  0.4922  0.5874
 2507SOL    HW310059   1.675   1.591   4.206 -0.1502  0.7762 -0.0962
 2507SOL    MW410060   1.608   1.535   4.208 -0.0627  0.6761  0.0539
 2508SOL     OW10061   1.149   1.545   4.168 -0.1749  0.2854  0.2234
 2508SOL    HW210062   1.136   1.452   4.186 -0.5975  0.2723 -0.1371
 2508SOL    HW310063   1.065   1.586   4.189 -0.1237  0.5224 -0.0257
 2508SOL    MW410064   1.136   1.538   4.173 -0.2239  0.3149  0.1430
 2509SOL     OW10065   0.390   2.385   4.513 -0.3327 -0.1636 -0.1883
 2509SOL    HW210066   0.348   2.300   4.524 -0.1660 -0.1965  0.1823
 2509SOL    HW310067   0.474   2.377   4.559 -0.4701  0.3130  0.1514
 2509SOL    MW410068   0.396   2.373   4.520 -0.3289 -0.1051 -0.0946
 2510SOL     OW10069   3.696   2.648   4.136 -0.1174  0.2495  0.2247
 2510SOL    HW210070   3.643   2.667   4.059 -0.0888  2.6132  0.7373
 2510SOL    HW310071   3.638   2.666   4.210 -0.0048 -1.5741  0.7827
 2510SOL    MW410072   3.681   2.653   4.136 -0.0988  0.3208  0.3660
 2511SOL     OW10073   3.613   1.672   4.522 -0.5481  0.1247 -0.1138
 2511SOL    HW210074   3.699   1.704   4.548 -1.0447  2.2286 -0.9354
 2511SOL    HW310075   3.552   1.716   4.581 -1.1792 -0.0367 -0.6390
 2511SOL    MW410076   3.616   1.682   4.533 -0.6969  0.3810 -0.2915
 2512SOL     OW10077   2.232   2.672   4.131  0.1829 -0.2185 -0.1143
 2512SOL    HW210078   2.214   2.647   4.041 -0.7423  0.6366 -0.1835
 2512SOL    HW310079   2.230   2.590   4.180  1.5639 -0.7878 -1.0016
 2512SOL    MW410080   2.229   2.658   4.126  0.2430 -0.1808 -0.2405
 2513SOL     OW10081   2.038   1.675   4.283  0.2189  0.1172 -0.2713
 2513SOL    HW210082   2.072   1.646   4.368  0.0965 -0.2524 -0.3460
 2513SOL    HW310083   2.035   1.595   4.230 -1.4274 -0.0019 -0.0379
 2513SOL    MW410084   2.042   1.661   4.287 -0.0145  0.0527 -0.2504
 2514SOL     OW10085   2.720   1.848   4.137 -0.0139  0.1336  0.0724
 2514SOL    HW210086   2.713   1.924   4.194 -2.3515  0.4242 -0.5488
 2514SOL    HW310087   2.680   1.777   4.187  2.3666 -0.7878  0.7469
 2514SOL    MW410088   2.714   1.848   4.151 -0.0082  0.0504  0.0794
 2515SOL     OW10089   1.305   2.689   4.152  0.2940  0.0807  0.3324
 2515SOL    HW210090   1.234   2.750   4.175 -1.0643 -1.2350 -0.3371
 2515SOL    HW310091   1.383   2.729   4.190 -1.0059  0.8898  2.2449
 2515SOL    MW410092   1.306   2.703   4.160 -0.0567  0.0139  0.4964
 2516SOL     OW10093   2.019   3.551   4.226 -0.4833 -0.0093 -0.5190
 2516SOL    HW210094   1.945   3.512   4.180 -1.9706  0.7016  1.2139
 2516SOL    HW310095   2.001   3.645   4.224  0.1281  0.1302  0.3210
 2516SOL    MW410096   2.007   3.558   4.220 -0.5989  0.1029 -0.1795
 2517SOL     OW10097   0.966   1.566   4.511  0.4311 -0.3354  0.0192
 2517SOL    HW210098   0.960   1.605   4.423 -0.3543 -0.2803  0.0906
 2517SOL    HW310099   0.892   1.605   4.558 -0.5121 -2.1122  0.0230
 2517SOL    MW410100   0.955   1.576   4.506  0.2031 -0.5625  0.0291
 2518SOL     OW10101   1.978   3.846   4.132 -0.3818  0.3921  0.4783
 2518SOL    HW210102   1.978   3.842   4.036  0.9693 -1.6428  0.5307
 2518SOL    HW310103   1.890   3.873   4.155 -0.7792  0.7067 -1.3376
 2518SOL    MW410104   1.967   3.849   4.122 -0.2560  0.1651  0.2456
 2519SOL     OW10105   1.349   4.235   4.180 -0.7452 -0.2220  0.5260
 2519SOL    HW210106   1.350   4.234   4.085 -0.1350  1.0281  0.5024
 2519SOL    HW310107   1.318   4.148   4.206 -0.7397 -0.6174 -0.8016
 2519SOL    MW410108   1.345   4.223   4.171 -0.6640 -0.1092  0.3477
 2520SOL     OW10109   1.472   3.805   4.166 -0.8009  0.7500 -0.0158
 2520SOL    HW210110   1.491   3.713   4.186 -1.8662  0.0612 -1.9453
 2520SOL    HW310111   1.551   3.852   4.192  0.3988 -0.9390 -0.4891
 2520SOL    MW410112   1.485   3.799   4.172 -0.7832  0.4363 -0.3328
 2521SOL     OW10113   2.444   2.817   4.215 -0.5066 -0.0447 -0.6640
 2521SOL    HW210114   2.422   2.897   4.168 -2.4422 -0.1869 -0.0241
 2521SOL    HW310115   2.372   2.757   4.196 -0.2640 -0.8260  0.7917
 2521SOL    MW410116   2.432   2.820   4.206 -0.7300 -0.1665 -0.3875
 2522SOL     OW10117   2.417   4.655   4.110 -0.0043 -0.0213 -0.2006
 2522SOL    HW210118   2.472   4.718   4.157 -0.0984 -0.1186  0.0429
 2522SOL    HW310119   2.332   4.660   4.155 -0.2713  0.3192 -0.7378
 2522SOL    MW410120   2.413   4.664   4.122 -0.0520  0.0108 -0.2393
 2523SOL     OW10121   4.106   1.932   4.374 -0.3211 -0.3730  0.3615
 2523SOL    HW210122   4.079   1.842   4.358 -0.9487  0.0806 -1.1990
 2523SOL    HW310123   4.033   1.971   4.423 -1.0510 -0.0865 -0.9391
 2523SOL    MW410124   4.093   1.925   4.379 -0.5002 -0.2754 -0.0160
 2524SOL     OW10125   1.269   0.089   4.894  0.6093  0.2139  0.0655
 2524SOL    HW210126   1.270   0.169   4.947  0.4491 -0.1139  0.5741
 2524SOL    HW310127   1.177   0.061   4.895  0.4681  0.6155 -1.0179
 2524SOL    MW410128   1.257   0.096   4.901  0.5695  0.2237 -0.0103
 2525SOL     OW10129   2.518   0.799   4.132  0.1243 -0.0424  0.2851
 2525SOL    HW210130   2.523   0.766   4.042 -1.2507 -0.9464  0.5277
 2525SOL    HW310131   2.605   0.784   4.168  0.1096 -1.5259 -0.2618
 2525SOL    MW410132   2.530   0.793   4.125 -0.0590 -0.3574  0.2449
 2526SOL     OW10133   3.685   2.909   4.535 -0.0882 -0.2560  0.4162
 2526SOL    HW210134   3.717   2.996   4.558 -0.1463 -0.0436 -0.3128
 2526SOL    HW310135   3.754   2.850   4.566 -0.8834 -0.0914  2.5715
 2526SOL    MW410136   3.698   2.913   4.542 -0.2008 -0.2062  0.6044
 2527SOL     OW10137   1.948   0.742   4.121 -0.8275 -0.0222 -0.2078
 2527SOL    HW210138   2.033   0.778   4.146 -0.7100  0.4087 -1.2163
 2527SOL    HW310139   1.939   0.663   4.175  1.1253 -1.1966 -1.5065
 2527SOL    MW410140   1.958   0.736   4.132 -0.5544 -0.1203 -0.5122
 2528SOL     OW10141   0.464   2.437   4.233 -0.3171 -0.5028  0.3544
 2528SOL    HW210142   0.431   2.444   4.323  0.7905  0.4632  0.6833
 2528SOL    HW310143   0.462   2.526   4.199 -0.5544 -0.8375 -0.5286
 2528SOL    MW410144   0.459   2.449   4.241 -0.2023 -0.4195  0.2813
 2529SOL     OW10145   0.228   1.313   4.325  0.2893  0.1433  0.3419
 2529SOL    HW210146   0.228   1.400   4.284 -1.0454 -0.1679 -0.3509
 2529SOL    HW310147   0.294   1.264   4.277  0.3905  0.4938  0.1185
 2529SOL    MW410148   0.236   1.318   4.314  0.1265  0.1485  0.2210
 2530SOL     OW10149   2.698   1.215   4.113 -0.0219 -0.2782  0.4487
 2530SOL    HW210150   2.744   1.153   4.170 -1.2382 -1.4114  0.2378
 2530SOL    HW310151   2.688   1.167   4.030 -0.0567  0.6039 -0.0643
 2530SOL    MW410152   2.703   1.200   4.109 -0.1870 -0.3113  0.3532
 2531SOL     OW10153   3.108   2.702   4.123  0.2314  0.2215  0.4361
 2531SOL    HW210154   3.032   2.718   4.179 -0.2491 -1.1514  0.2022
 2531SOL    HW310155   3.141   2.616   4.151  1.4602  0.6229  0.2664
 2531SOL    MW410156   3.103   2.693   4.134  0.3301  0.0934  0.3829
 2532SOL     OW10157   0.441   4.235   4.175  0.2383  0.4497  0.5216
 2532SOL    HW210158   0.447   4.253   4.081  0.2414 -0.7272  0.2872
 2532SOL    HW310159   0.366   4.286   4.205 -1.5393 -1.4025 -0.6847
 2532SOL    MW410160   0.432   4.244   4.167  0.0042  0.0500  0.3315
 2533SOL     OW10161   1.245   2.067   4.506 -0.4858  0.4640 -0.2489
 2533SOL    HW210162   1.336   2.040   4.519 -0.2359  1.1827 -0.5017
 2533SOL    HW310163   1.249   2.162   4.495 -1.3435  0.5941  0.4920
 2533SOL    MW410164   1.257   2.076   4.506 -0.5660  0.5760 -0.1845
 2534SOL     OW10165   2.751   1.652   4.563  0.6137 -0.0250 -0.2633
 2534SOL    HW210166   2.760   1.744   4.586  2.1041 -0.3742  0.5827
 2534SOL    HW310167   2.836   1.613   4.581  0.3481 -1.3535 -1.6798
 2534SOL    MW410168   2.763   1.659   4.568  0.7753 -0.2464 -0.3386
 2535SOL     OW10169   3.051   1.410   4.270  0.2053  0.2540  0.1722
 2535SOL    HW210170   3.106   1.488   4.268  0.6419 -0.0507  0.1053
 2535SOL    HW310171   2.968   1.437   4.230  0.2138  0.7865  0.5113
 2535SOL    MW410172   3.047   1.424   4.264  0.2640  0.2840  0.2081
 2536SOL     OW10173   2.604   2.532   4.816 -0.1164  0.2087  0.2820
 2536SOL    HW210174   2.651   2.603   4.772 -0.0538  0.4900  0.8020
 2536SOL    HW310175   2.607   2.459   4.754  1.0836  0.1977  0.3466
 2536SOL    MW410176   2.611   2.531   4.802  0.0502  0.2443  0.3591
 2537SOL     OW10177   0.018   2.485   4.249 -0.0962 -0.2948  0.0617
 2537SOL    HW210178   0.046   2.502   4.339 -2.8047  1.1619  0.7047
 2537SOL    HW310179   0.087   2.431   4.212  2.2527  1.0450  2.2733
 2537SOL    MW410180   0.031   2.480   4.256 -0.1437  0.0742  0.4383
 2538SOL     OW10181   4.003   3.211   4.238  0.4706  0.2096  0.0026
 2538SOL    HW210182   4.072   3.168   4.187  0.5943 -0.1929  0.5041
 2538SOL    HW310183   3.998   3.299   4.202  0.3111 -0.1790 -0.9462
 2538SOL    MW410184   4.011   3.217   4.226  0.4659  0.1052 -0.0564
 2539SOL     OW10185   1.796   2.746   4.180 -0.2138  0.9541 -0.2890
 2539SOL    HW210186   1.796   2.661   4.225  0.8329  1.2539  0.3049
 2539SOL    HW310187   1.789   2.723   4.087  0.3807  0.1941 -0.1565
 2539SOL    MW410188   1.795   2.732   4.173  0.0027  0.8934 -0.1932
 2540SOL     OW10189   0.781   2.846   4.548 -0.5190 -0.2148  0.4042
 2540SOL    HW210190   0.722   2.837   4.473 -0.8003  0.0617  0.5889
 2540SOL    HW310191   0.762   2.769   4.602 -0.7885 -0.0732  0.5142
 2540SOL    MW410192   0.771   2.834   4.546 -0.5916 -0.1596  0.4431
 2541SOL     OW10193   4.425   3.710   4.591 -0.1806  0.2787 -0.5717
 2541SOL    HW210194   4.460   3.764   4.662 -1.3791  0.0304  0.2133
 2541SOL    HW310195   4.503   3.674   4.548  0.5624  0.6632  0.4256
 2541SOL    MW410196   4.440   3.713   4.594 -0.2407  0.2967 -0.3366
 2542SOL     OW10197   2.512   3.012   4.433 -0.2758  0.7728 -0.4741
 2542SOL    HW210198   2.494   2.951   4.362 -1.0671  1.0379 -0.5080
 2542SOL    HW310199   2.437   3.005   4.491 -0.2905  1.5812 -0.3840
 2542SOL    MW410200   2.500   3.003   4.431 -0.3821  0.9145 -0.4667
 2543SOL     OW10201   2.200   4.000   4.192  0.3266  0.2227 -0.4860
 2543SOL    HW210202   2.273   3.941   4.177 -0.2202 -0.6301  0.2001
 2543SOL    HW310203   2.123   3.951   4.163  0.2323  2.0055 -3.5884
 2543SOL    MW410204   2.199   3.986   4.186  0.2420  0.3454 -0.8048
 2544SOL     OW10205   2.463   4.396   4.194 -0.3966 -0.3523 -0.0465
 2544SOL    HW210206   2.465   4.397   4.289 -0.1669  1.1104 -0.0553
 2544SOL    HW310207   2.461   4.488   4.169 -1.5538 -0.7289 -1.4364
 2544SOL    MW410208   2.463   4.408   4.203 -0.5190 -0.2090 -0.2310
 2545SOL     OW10209   2.640   0.795   4.394 -0.2631 -0.5499  0.2113
 2545SOL    HW210210   2.683   0.715   4.424 -2.2160 -1.8090 -0.2553
 2545SOL    HW310211   2.546   0.778   4.406 -0.7073  1.7090  0.1968
 2545SOL    MW410212   2.633   0.782   4.400 -0.5794 -0.4180  0.1478
 2546SOL     OW10213   2.654   0.122   4.237  0.0476 -0.2085 -0.4939
 2546SOL    HW210214   2.664   0.214   4.210  2.0749 -0.5229 -0.8963
 2546SOL    HW310215   2.731   0.078   4.201  0.1541 -1.6684  1.4291
 2546SOL    MW410216   2.666   0.129   4.229  0.3291 -0.4426 -0.2933
 2547SOL     OW10217   2.380   3.787   4.525  0.4169 -0.1651  0.4279
 2547SOL    HW210218   2.370   3.692   4.519  1.0537 -0.3052  1.4642
 2547SOL    HW310219   2.293   3.822   4.504  0.6967 -0.8703 -2.1265
 2547SOL    MW410220   2.367   3.779   4.521  0.5379 -0.2766  0.2276
 2548SOL     OW10221   2.670   0.388   4.136 -0.1173  0.6235 -0.4832
 2548SOL    HW210222   2.585   0.425   4.163 -1.1757 -2.1401  0.1179
 2548SOL    HW310223   2.669   0.395   4.041 -1.7302 -0.8370 -0.5927
 2548SOL    MW410224   2.658   0.394   4.127 -0.4697  0.0662 -0.4183
 2549SOL     OW10225   0.690   4.362   4.314 -0.2188  0.2873  0.2201
 2549SOL    HW210226   0.613   4.319   4.278 -0.2317  0.7504 -0.3051
 2549SOL    HW310227   0.690   4.336   4.406 -0.5200 -0.4079  0.0301
 2549SOL    MW410228   0.680   4.353   4.322 -0.2602  0.2566  0.1257
 2550SOL     OW10229   2.909   0.758   4.122  0.0611 -0.4978  0.1246
 2550SOL    HW210230   2.923   0.664   4.132  0.9990 -0.3034  0.6987
 2550SOL    HW310231   2.901   0.771   4.028 -2.1516 -1.4264  0.1308
 2550SOL    MW410232   2.910   0.747   4.111 -0.1071 -0.5946  0.2012
 2551SOL     OW10233   2.479   2.704   4.483 -0.0437 -0.4235 -0.1726
 2551SOL    HW210234   2.466   2.740   4.395  0.2907  0.5572  0.1670
 2551SOL    HW310235   2.451   2.613   4.476 -0.2422 -0.2925 -1.2362
 2551SOL    MW410236   2.474   2.697   4.471 -0.0258 -0.2769 -0.2681
 2552SOL     OW10237   2.502   4.400   4.476 -0.1932 -0.0775  0.5141
 2552SOL    HW210238   2.426   4.458   4.482 -0.2018 -0.0544  0.1453
 2552SOL    HW310239   2.466   4.312   4.486 -0.5053 -0.1933 -1.5850
 2552SOL    MW410240   2.487   4.396   4.478 -0.2355 -0.0897  0.1885
 2553SOL     OW10241   2.330   3.500   4.455  0.2732 -0.2466  0.5022
 2553SOL    HW210242   2.394   3.429   4.449 -0.4233 -0.7181 -2.4879
 2553SOL    HW310243   2.246   3.456   4.464 -0.0105  0.2440  0.2695
 2553SOL    MW410244   2.327   3.485   4.455  0.1439 -0.2441  0.0770
 2554SOL     OW10245   3.078   1.313   4.533  0.4389  0.3333  0.3245
 2554SOL    HW210246   3.019   1.239   4.547  0.5913  0.2399  0.4646
 2554SOL    HW310247   3.058   1.343   4.444 -0.0646  0.5144  0.4981
 2554SOL    MW410248   3.067   1.307   4.523  0.3926  0.3449  0.3659
 2555SOL     OW10249   0.176   3.579   4.516  0.2482 -0.1719 -0.0125
 2555SOL    HW210250   0.190   3.620   4.431 -0.1336  1.7639  0.8202
 2555SOL    HW310251   0.261   3.583   4.559 -0.0592  0.9035  0.5324
 2555SOL    MW410252   0.189   3.585   4.511  0.1572  0.2254  0.1692
 2556SOL     OW10253   3.651   3.214   4.541  0.3389 -0.1830 -0.1004
 2556SOL    HW210254   3.723   3.276   4.550 -1.1689  1.6649 -0.6679
 2556SOL    HW310255   3.631   3.212   4.448  0.8247 -2.0698 -0.1942
 2556SOL    MW410256   3.658   3.222   4.530  0.2041 -0.1881 -0.1877
 2557SOL     OW10257   2.858   2.080   3.733  0.4309 -0.1946  0.3962
 2557SOL    HW210258   2.807   2.050   3.809 -0.0644 -0.7748 -0.1685
 2557SOL    HW310259   2.877   2.172   3.753 -1.7689  0.3494  0.1210
 2557SOL    MW410260   2.854   2.088   3.746  0.0753 -0.1994  0.2854
 2558SOL     OW10261   0.465   4.570   4.570  0.1663 -0.1165  0.2259
 2558SOL    HW210262   0.384   4.524   4.545  1.7296 -2.5601 -0.5603
 2558SOL    HW310263   0.491   4.617   4.491 -0.2058  0.2506  0.3201
 2558SOL    MW410264   0.457   4.570   4.556  0.3235 -0.3905  0.1346
 2559SOL     OW10265   2.738   0.591   4.555  0.3902  0.1367  0.0441
 2559SOL    HW210266   2.735   0.650   4.630  0.9245  0.7841 -0.4364
 2559SOL    HW310267   2.654   0.546   4.556 -0.2928  1.3960  0.0268
 2559SOL    MW410268   2.727   0.593   4.565  0.3706  0.3883 -0.0216
 2560SOL     OW10269   4.363   2.893   4.514 -0.2522  0.4871  0.2751
 2560SOL    HW210270   4.332   2.820   4.568  0.5814 -0.1921 -0.1483
 2560SOL    HW310271   4.315   2.884   4.432 -1.3635  1.3954  0.8129
 2560SOL    MW410272   4.353   2.882   4.510 -0.2888  0.5173  0.2902
 2561SOL     OW10273   2.238   1.535   4.751 -0.2023 -0.0286  0.2003
 2561SOL    HW210274   2.164   1.500   4.801 -1.1226  0.8280 -0.5542
 2561SOL    HW310275   2.250   1.624   4.784 -0.4632  0.3493 -0.7077
 2561SOL    MW410276   2.230   1.542   4.762 -0.3582  0.1343 -0.0191
 2562SOL     OW10277   0.412   3.217   4.556  0.0977 -0.2454  0.5826
 2562SOL    HW210278   0.493   3.236   4.604  0.7617 -0.6312 -0.3728
 2562SOL    HW310279   0.404   3.121   4.560  0.4165 -0.3269 -0.4684
 2562SOL    MW410280   0.422   3.207   4.563  0.2273 -0.3071  0.3179
 2563SOL     OW10281   2.952   2.888   4.711 -0.2170  0.5113 -0.1818
 2563SOL    HW210282   2.871   2.843   4.690  0.6933 -0.8035 -0.9330
 2563SOL    HW310283   2.970   2.862   4.802 -0.6389  0.8194 -0.0072
 2563SOL    MW410284   2.944   2.878   4.720 -0.1526  0.3785 -0.2579
 2564SOL     OW10285   2.883   3.643   4.230 -0.0483 -0.0352 -0.5648
 2564SOL    HW210286   2.876   3.642   4.326 -2.2316 -0.3158 -0.6999
 2564SOL    HW310287   2.871   3.736   4.207 -0.4401 -0.0941 -0.6090
 2564SOL    MW410288   2.880   3.655   4.240 -0.3881 -0.0800 -0.5885
 2565SOL     OW10289   2.635   3.251   4.158 -0.0542  0.4473  0.0203
 2565SOL    HW210290   2.655   3.342   4.135 -0.5435  0.4375 -0.4491
 2565SOL    HW310291   2.720   3.211   4.174  0.3678  0.3225 -2.3000
 2565SOL    MW410292   2.649   3.257   4.157 -0.0631  0.4295 -0.3477
 2566SOL     OW10293   2.891   3.896   4.148  0.1483 -0.0143 -0.6383
 2566SOL    HW210294   2.822   3.941   4.197 -0.0102 -2.2419  1.2500
 2566SOL    HW310295   2.973   3.928   4.187  0.0755 -0.4659 -0.1242
 2566SOL    MW410296   2.893   3.906   4.159  0.1178 -0.3678 -0.3214
 2567SOL     OW10297   2.701   4.274   4.139  0.0885 -0.0665 -0.0810
 2567SOL    HW210298   2.619   4.319   4.159  0.3644  0.0714  0.7738
 2567SOL    HW310299   2.689   4.186   4.176  0.3179 -0.0501  0.0328
 2567SOL    MW410300   2.689   4.268   4.147  0.1551 -0.0461  0.0468
 2568SOL     OW10301   2.473   3.868   4.172  0.0091  0.1080  0.0954
 2568SOL    HW210302   2.477   3.845   4.079 -0.8768  0.3174  0.0097
 2568SOL    HW310303   2.465   3.784   4.217  2.0499 -0.1291  0.0945
 2568SOL    MW410304   2.473   3.853   4.166  0.1615  0.1043  0.0840
 2569SOL     OW10305   2.911   4.399   4.270  0.0662  0.7953 -0.0145
 2569SOL    HW210306   2.841   4.344   4.235 -0.5460  0.9322  0.9850
 2569SOL    HW310307   2.992   4.359   4.235 -0.3915 -0.4710  0.3296
 2569SOL    MW410308   2.913   4.386   4.260 -0.0750  0.6463  0.1628
 2570SOL     OW10309   3.365   4.611   4.172 -0.0796  0.4294  0.3901
 2570SOL    HW210310   3.437   4.641   4.227 -0.3523  2.9542 -0.5885
 2570SOL    HW310311   3.290   4.664   4.198 -1.1735 -0.9816  0.1870
 2570SOL    MW410312   3.365   4.622   4.183 -0.2599  0.5763  0.2342
 2571SOL     OW10313   1.404   1.661   4.241  0.2200 -0.1433  0.1687
 2571SOL    HW210314   1.324   1.611   4.223 -0.3630  0.4122  1.1877
 2571SOL    HW310315   1.417   1.653   4.335  0.2785  1.3847  0.2987
 2571SOL    MW410316   1.395   1.653   4.251  0.1508  0.1316  0.3203
 2572SOL     OW10317   2.943   0.476   4.193 -0.0770  0.2609 -0.1471
 2572SOL    HW210318   2.848   0.465   4.190  0.0897 -0.9999 -1.4050
 2572SOL    HW310319   2.964   0.475   4.287 -1.0565 -1.8304  0.0802
 2572SOL    MW410320   2.933   0.474   4.205 -0.1843 -0.1814 -0.2831
 2573SOL     OW10321   3.380   0.526   4.258 -0.0276 -0.0116  0.0977
 2573SOL    HW210322   3.392   0.538   4.352  0.2830 -0.8541  0.1697
 2573SOL    HW310323   3.450   0.466   4.232 -0.3929 -0.1491 -0.5869
 2573SOL    MW410324   3.391   0.519   4.267 -0.0348 -0.1409  0.0169
 2574SOL     OW10325   2.064   0.247   4.554  0.0131 -0.3197 -0.6242
 2574SOL    HW210326   1.969   0.238   4.559 -0.2470  1.3734 -1.8645
 2574SOL    HW310327   2.098   0.180   4.613 -1.9636 -0.5165  0.3383
 2574SOL    MW410328   2.056   0.237   4.562 -0.2820 -0.1223 -0.6608
 2575SOL     OW10329   4.239   4.456   4.762 -0.1498 -0.0566  0.1602
 2575SOL    HW210330   4.152   4.439   4.725  0.0141  1.8043 -1.1195
 2575SOL    HW310331   4.256   4.548   4.743  1.7782 -0.1879  1.1168
 2575SOL    MW410332   4.230   4.466   4.755  0.1262  0.1716  0.1175
 2576SOL     OW10333   3.103   0.913   4.234  0.0084  0.1578  0.5113
 2576SOL    HW210334   3.020   0.879   4.201 -0.2897 -0.0504  1.4493
 2576SOL    HW310335   3.099   1.007   4.217 -0.1987  0.0716  0.0861
 2576SOL    MW410336   3.092   0.921   4.227 -0.0582  0.1190  0.5789
 2577SOL     OW10337   1.652   4.627   4.602  0.3490  0.0687  0.0898
 2577SOL    HW210338   1.706   4.705   4.596  0.8628 -0.3685 -1.1861
 2577SOL    HW310339   1.586   4.638   4.534 -0.0198 -0.2680  0.3881
 2577SOL    MW410340   1.650   4.639   4.593  0.3681 -0.0334 -0.0392
 2578SOL     OW10341   2.797   2.941   4.386 -0.4922  0.0901  0.0957
 2578SOL    HW210342   2.704   2.956   4.402 -0.9694 -2.2677 -0.3333
 2578SOL    HW310343   2.813   2.982   4.301 -1.4482 -0.5774 -0.4237
 2578SOL    MW410344   2.787   2.949   4.377 -0.6813 -0.3091 -0.0294
 2579SOL     OW10345   2.348   1.469   4.153 -0.5042  0.0004 -0.1068
 2579SOL    HW210346   2.359   1.538   4.218 -1.8963  0.2332 -0.1069
 2579SOL    HW310347   2.361   1.513   4.068 -0.5188  0.0852 -0.0649
 2579SOL    MW410348   2.351   1.484   4.150 -0.6898  0.0423 -0.1013
 2580SOL     OW10349   2.620   0.169   4.517 -0.2233  0.1152 -0.2447
 2580SOL    HW210350   2.687   0.129   4.574  0.6103  0.5130 -0.9343
 2580SOL    HW310351   2.662   0.175   4.432 -1.2003  0.2526 -0.7216
 2580SOL    MW410352   2.635   0.164   4.513 -0.2422  0.1858 -0.3986
 2581SOL     OW10353   2.412   2.274   4.086 -0.4644 -0.4047 -0.4124
 2581SOL    HW210354   2.417   2.188   4.128  0.4855 -0.7795 -1.2826
 2581SOL    HW310355   2.341   2.319   4.133  0.2100 -0.9971  1.2264
 2581SOL    MW410356   2.403   2.269   4.098 -0.2501 -0.5323 -0.3110
 2582SOL     OW10357   3.578   0.832   4.542 -0.2767  0.3638  0.2417
 2582SOL    HW210358   3.493   0.868   4.567 -0.5697 -0.5753  0.6257
 2582SOL    HW310359   3.598   0.874   4.458 -0.7405  1.1944  0.5413
 2582SOL    MW410360   3.569   0.842   4.534 -0.3765  0.3495  0.3319
 2583SOL     OW10361   3.562   1.613   4.829  0.0052 -0.0146 -0.1303
 2583SOL    HW210362   3.483   1.660   4.801  0.8819  1.4668 -0.1466
 2583SOL    HW310363   3.572   1.543   4.764  0.6640  1.9075 -2.1714
 2583SOL    MW410364   3.553   1.610   4.817  0.2078  0.4344 -0.4017
 2584SOL     OW10365   3.438   2.324   4.141  0.2620  0.1206  0.7504
 2584SOL    HW210366   3.360   2.365   4.178 -0.0781 -0.5741  0.8075
 2584SOL    HW310367   3.421   2.320   4.047  0.1773 -0.1522  0.7788
 2584SOL    MW410368   3.425   2.329   4.133  0.2060 -0.0070  0.7617
 2585SOL     OW10369   2.207   4.279   4.141 -0.0639  0.2488 -0.6590
 2585SOL    HW210370   2.220   4.186   4.162 -0.0304  0.3319 -0.3056
 2585SOL    HW310371   2.295   4.316   4.147 -0.3247  0.6622  0.9877
 2585SOL    MW410372   2.221   4.271   4.145 -0.0939  0.3143 -0.3951
 2586SOL     OW10373   3.367   3.073   4.216 -0.2768 -0.3165  0.0935
 2586SOL    HW210374   3.288   3.126   4.225 -0.1791 -0.3811  1.3524
 2586SOL    HW310375   3.339   2.985   4.242  0.2799 -0.2750  0.8344
 2586SOL    MW410376   3.353   3.068   4.220 -0.1905 -0.3195  0.3574
 2587SOL     OW10377   2.444   3.069   4.124 -0.1454 -0.4321 -0.3224
 2587SOL    HW210378   2.526   3.119   4.130 -0.0763 -0.4374 -1.1592
 2587SOL    HW310379   2.381   3.122   4.172  0.1877 -0.0846 -0.2628
 2587SOL    MW410380   2.447   3.083   4.131 -0.0923 -0.3870 -0.4250
 2588SOL     OW10381   3.361   3.596   4.261 -0.2031 -0.4849 -0.1649
 2588SOL    HW210382   3.274   3.566   4.233  0.0570 -1.0081 -0.4190
 2588SOL    HW310383   3.356   3.600   4.356 -0.4371 -0.7255 -0.1675
 2588SOL    MW410384   3.349   3.593   4.270 -0.1997 -0.5857 -0.1988
 2589SOL     OW10385   3.591   3.477   4.181  0.5145  0.0565 -0.5667
 2589SOL    HW210386   3.600   3.385   4.202  1.0638  0.2626  0.1270
 2589SOL    HW310387   3.505   3.502   4.216  1.6342  0.5178  1.9482
 2589SOL    MW410388   3.581   3.468   4.188  0.7347  0.1445 -0.1433
 2590SOL     OW10389   3.353   3.870   4.185 -0.5221  0.0882 -0.0031
 2590SOL    HW210390   3.337   3.778   4.207 -0.3818  0.0024 -0.2607
 2590SOL    HW310391   3.353   3.873   4.090  1.6839 -0.0472 -0.0426
 2590SOL    MW410392   3.351   3.858   4.176 -0.2126  0.0590 -0.0423
 2591SOL     OW10393   4.486   2.720   4.115 -0.1751  0.2499  0.7777
 2591SOL    HW210394   4.425   2.763   4.176  0.4551  0.6795  1.1050
 2591SOL    HW310395   4.501   2.634   4.154 -0.0152  0.4088  1.0757
 2591SOL    MW410396   4.480   2.714   4.128 -0.0709  0.3276  0.8602
 2592SOL     OW10397   0.022   0.905   4.238  0.4079  0.1231  0.0160
 2592SOL    HW210398   0.011   0.897   4.333 -0.6035  0.5411 -0.0641
 2592SOL    HW310399   0.020   0.999   4.221 -0.6728  0.0013 -0.5672
 2592SOL    MW410400   0.020   0.917   4.248  0.1319  0.1621 -0.0715
 2593SOL     OW10401   3.554   4.272   4.137  0.4542 -0.3861  0.2554
 2593SOL    HW210402   3.481   4.301   4.193  2.3957 -0.9346  3.2022
 2593SOL    HW310403   3.578   4.187   4.172  0.4551 -1.6822 -2.7817
 2593SOL    MW410404   3.547   4.265   4.149  0.7105 -0.6295  0.2435
 2594SOL     OW10405   3.809   4.647   4.162  0.1796 -0.2884  0.4104
 2594SOL    HW210406   3.815   4.554   4.183  1.3022 -0.5139 -0.7836
 2594SOL    HW310407   3.809   4.650   4.066 -0.2360  0.9231  0.4313
 2594SOL    MW410408   3.810   4.635   4.152  0.2729 -0.1583  0.2556
 2595SOL     OW10409   2.436   2.026   4.211 -0.0462 -0.0623  0.0991
 2595SOL    HW210410   2.391   1.950   4.174 -1.0368  1.0653 -1.0568
 2595SOL    HW310411   2.390   2.043   4.293  0.5050 -1.0102  0.6123
 2595SOL    MW410412   2.424   2.018   4.217 -0.1042 -0.0386  0.0143
 2596SOL     OW10413   3.602   0.374   4.155 -0.0987 -0.3527 -0.4172
 2596SOL    HW210414   3.681   0.417   4.189 -0.0243  0.7811 -1.9677
 2596SOL    HW310415   3.609   0.384   4.060 -2.3642  0.2172 -0.5496
 2596SOL    MW410416   3.613   0.381   4.147 -0.3877 -0.1279 -0.6392
 2597SOL     OW10417   4.088   0.351   4.175 -0.3748 -0.2987  0.1835
 2597SOL    HW210418   4.078   0.260   4.201 -0.5914  0.1620  1.7899
 2597SOL    HW310419   4.002   0.390   4.190  0.5627  0.9113  2.6459
 2597SOL    MW410420   4.075   0.344   4.180 -0.2797 -0.0783  0.7204
 2598SOL     OW10421   1.426   4.574   4.762 -0.1425 -0.2338 -0.0014
 2598SOL    HW210422   1.509   4.616   4.739  0.3732 -1.0400  0.3694
 2598SOL    HW310423   1.385   4.636   4.823 -0.1032  0.4498 -0.6530
 2598SOL    MW410424   1.432   4.588   4.767 -0.0692 -0.2500 -0.0384
 2599SOL     OW10425   2.376   0.004   4.479 -0.1388  0.2296  0.0733
 2599SOL    HW210426   2.460   0.049   4.484 -0.6131  1.2463 -0.9119
 2599SOL    HW310427   2.335   0.018   4.564  0.5545 -0.0204  0.4492
 2599SOL    MW410428   2.381   0.011   4.491 -0.1099  0.3308 -0.0071
 2600SOL     OW10429   2.092   2.115   4.238  0.0319  0.1576 -0.1226
 2600SOL    HW210430   2.145   2.044   4.202 -0.3405 -0.0447 -0.2847
 2600SOL    HW310431   2.154   2.172   4.283  0.0756 -1.4722  1.9621
 2600SOL    MW410432   2.107   2.113   4.240 -0.0115 -0.0841  0.1311
 2601SOL     OW10433   4.465   2.381   4.712 -0.5996 -0.0131 -0.3686
 2601SOL    HW210434   4.483   2.288   4.703 -0.0797  0.0585 -0.1354
 2601SOL    HW310435   4.524   2.423   4.649  0.8559  0.2939  1.1427
 2601SOL    MW410436   4.475   2.374   4.703 -0.3390  0.0368 -0.1384
 2602SOL     OW10437   4.163   2.258   4.111  0.7027 -0.3299  0.0935
 2602SOL    HW210438   4.219   2.256   4.189 -0.4776 -0.2822  0.9554
 2602SOL    HW310439   4.120   2.172   4.111  0.2348 -0.0970 -0.1484
 2602SOL    MW410440   4.164   2.246   4.122  0.4852 -0.2929  0.1753
 2603SOL     OW10441   3.352   1.516   4.172  0.4053  0.1314 -0.1161
 2603SOL    HW210442   3.285   1.569   4.214 -0.1361 -0.9697  0.4437
 2603SOL    HW310443   3.348   1.541   4.079  1.5142  2.4827  0.4284
 2603SOL    MW410444   3.343   1.526   4.165  0.4802  0.2964  0.0296
 2604SOL     OW10445   3.588   1.930   4.157 -0.0320 -0.0928 -0.1324
 2604SOL    HW210446   3.586   1.839   4.187 -1.5036 -0.1096 -0.2299
 2604SOL    HW310447   3.503   1.965   4.182  0.7221  1.4314  0.3914
 2604SOL    MW410448   3.577   1.923   4.164 -0.1267  0.1061 -0.0762
 2605SOL     OW10449   1.679   1.761   4.514 -0.2557 -0.5929  0.3470
 2605SOL    HW210450   1.705   1.769   4.422  0.6214 -0.9833  0.5489
 2605SOL    HW310451   1.603   1.703   4.513 -1.4467  0.9638 -0.3096
 2605SOL    MW410452   1.672   1.754   4.502 -0.2971 -0.4390  0.2870
 2606SOL     OW10453   0.849   4.544   4.644 -0.0379  0.4897  0.3435
 2606SOL    HW210454   0.772   4.487   4.648  0.5306 -0.4269 -1.4474
 2606SOL    HW310455   0.821   4.618   4.590 -0.4512  1.4454  1.8257
 2606SOL    MW410456   0.835   4.546   4.638 -0.0175  0.4948  0.3027
 2607SOL     OW10457   3.579   2.401   4.369 -0.3481 -0.3678  0.3090
 2607SOL    HW210458   3.542   2.489   4.377  1.0942  0.1734  1.3034
 2607SOL    HW310459   3.547   2.368   4.285 -1.4812  0.8215  0.2638
 2607SOL    MW410460   3.570   2.408   4.359 -0.3073 -0.1395  0.4342
 2608SOL     OW10461   3.802   2.101   4.205 -0.0822  0.0565 -0.0459
 2608SOL    HW210462   3.732   2.048   4.167  0.4857 -0.4261 -0.4185
 2608SOL    HW310463   3.776   2.192   4.187 -0.4473 -0.1303 -0.4702
 2608SOL    MW410464   3.790   2.106   4.198 -0.0554 -0.0318 -0.1510
 2609SOL     OW10465   1.757   3.952   4.493  0.1022  0.5194  0.0620
 2609SOL    HW210466   1.717   4.035   4.518  0.1265  0.8226 -0.8813
 2609SOL    HW310467   1.847   3.958   4.525 -0.3196  0.2399  1.3153
 2609SOL    MW410468   1.763   3.964   4.501  0.0498  0.5225  0.1029
 2610SOL     OW10469   3.808   3.067   4.134  0.4459  0.2969 -0.7300
 2610SOL    HW210470   3.880   3.120   4.169  0.3202  0.5091 -0.7882
 2610SOL    HW310471   3.818   3.073   4.039  1.3401 -1.0444 -0.7272
 2610SOL    MW410472   3.819   3.075   4.126  0.5473  0.1479 -0.7373
 2611SOL     OW10473   3.814   4.385   4.274 -0.0354  0.2903  0.3689
 2611SOL    HW210474   3.726   4.372   4.240  1.0128 -2.5003 -1.4397
 2611SOL    HW310475   3.803   4.385   4.369 -2.1037  1.0691  0.1505
 2611SOL    MW410476   3.801   4.384   4.282 -0.1700  0.0249  0.1014
 2612SOL     OW10477   3.608   3.216   4.259 -0.0572  0.0643 -0.0661
 2612SOL    HW210478   3.524   3.171   4.251 -0.4483  0.7212  0.3386
 2612SOL    HW310479   3.667   3.165   4.203 -0.7139 -0.4109 -0.3398
 2612SOL    MW410480   3.605   3.203   4.251 -0.1955  0.0882 -0.0488
 2613SOL     OW10481   1.297   2.331   4.506 -0.1209 -0.1478 -0.3850
 2613SOL    HW210482   1.372   2.349   4.562  0.9432 -0.9140 -1.5548
 2613SOL    HW310483   1.315   2.379   4.425 -0.6563 -0.7479 -0.8630
 2613SOL    MW410484   1.309   2.340   4.502 -0.0511 -0.3280 -0.6024
 2614SOL     OW10485   4.192   2.700   4.656  0.3294  0.2219  0.2634
 2614SOL    HW210486   4.100   2.711   4.634  0.7437  1.2711 -1.0499
 2614SOL    HW310487   4.193   2.681   4.750 -1.1927  0.4623  0.3368
 2614SOL    MW410488   4.180   2.699   4.665  0.1833  0.3920  0.0998
 2615SOL     OW10489   1.303   3.510   4.151  0.1859 -0.5204  0.0985
 2615SOL    HW210490   1.323   3.505   4.057  0.6062 -0.5187  0.1848
 2615SOL    HW310491   1.303   3.419   4.180  1.9706 -0.4138  0.4812
 2615SOL    MW410492   1.306   3.497   4.142  0.4769 -0.5061  0.1604
 2616SOL     OW10493   3.110   4.226   4.163  0.1566  0.1008  0.2021
 2616SOL    HW210494   3.119   4.137   4.197  0.4829  0.2268  0.4463
 2616SOL    HW310495   3.185   4.273   4.199 -0.0627  0.4949  0.1429
 2616SOL    MW410496   3.121   4.220   4.172  0.1707  0.1694  0.2265
 2617SOL     OW10497   4.425   0.930   4.492 -0.4287  0.0763 -0.1803
 2617SOL    HW210498   4.513   0.948   4.523 -1.0056 -0.1707  1.6514
 2617SOL    HW310499   4.376   1.011   4.509 -0.6538  0.0750 -0.8076
 2617SOL    MW410500   4.430   0.943   4.498 -0.5345  0.0435 -0.0214
 2618SOL     OW10501   4.398   4.347   4.561  0.3221 -0.6374  0.2472
 2618SOL    HW210502   4.324   4.344   4.501  0.2722 -1.0524  0.3316
 2618SOL    HW310503   4.360   4.376   4.644  0.5184  0.6882 -0.1103
 2618SOL    MW410504   4.383   4.351   4.564  0.3414 -0.5172  0.2112
 2619SOL     OW10505   4.302   2.317   4.347 -0.6553  0.1439 -0.0058
 2619SOL    HW210506   4.283   2.365   4.428 -0.0372 -1.1577  0.9234
 2619SOL    HW310507   4.380   2.360   4.311 -0.2273 -0.0211  0.7161
 2619SOL    MW410508   4.310   2.329   4.353 -0.5172 -0.0496  0.2121
 2620SOL     OW10509   3.039   0.154   4.510  0.2325 -0.1245 -0.1165
 2620SOL    HW210510   3.005   0.242   4.499 -0.0917 -0.2391 -0.0302
 2620SOL    HW310511   2.985   0.115   4.579  0.6308 -0.2573  0.1289
 2620SOL    MW410512   3.028   0.160   4.518  0.2423 -0.1572 -0.0727
 2621SOL     OW10513   0.677   0.972   4.625  0.1316 -0.4959  0.2323
 2621SOL    HW210514   0.594   0.925   4.622  0.7572 -1.6402  0.1925
 2621SOL    HW310515   0.660   1.056   4.582 -0.9005 -0.8716 -0.0987
 2621SOL    MW410516   0.664   0.977   4.619  0.0780 -0.6965  0.1834
 2622SOL     OW10517   0.100   0.767   4.790 -0.1329  0.6014  0.0374
 2622SOL    HW210518   0.118   0.676   4.811 -0.2545  0.5509 -0.0759
 2622SOL    HW310519   0.005   0.770   4.775 -0.3492  0.9987  1.3275
 2622SOL    MW410520   0.090   0.756   4.791 -0.1775  0.6471  0.1927
 2623SOL     OW10521   4.277   0.054   4.639 -0.4936  0.2480 -0.4888
 2623SOL    HW210522   4.370   0.056   4.616 -0.7972  0.1127 -1.7667
 2623SOL    HW310523   4.259   0.141   4.674  0.1915  0.1578  0.0940
 2623SOL    MW410524   4.287   0.066   4.640 -0.4433  0.2182 -0.5805
 2624SOL     OW10525   4.058   1.146   4.236  0.3396 -0.3130  0.1837
 2624SOL    HW210526   3.980   1.194   4.263 -0.1431 -0.1962 -1.4094
 2624SOL    HW310527   4.039   1.055   4.258  0.7427  0.0130  2.0173
 2624SOL    MW410528   4.046   1.141   4.243  0.3291 -0.2546  0.2154
 2625SOL     OW10529   2.905   1.112   4.547  0.0618 -0.4665 -0.2046
 2625SOL    HW210530   2.962   1.038   4.566 -0.8021 -1.0960 -0.0472
 2625SOL    HW310531   2.817   1.081   4.568 -0.3697  0.4140 -0.6710
 2625SOL    MW410532   2.901   1.098   4.552 -0.1091 -0.4334 -0.2454
 2626SOL     OW10533   0.922   1.265   4.756 -0.9099 -0.2869 -0.2098
 2626SOL    HW210534   0.928   1.258   4.660  0.0886  0.8967 -0.2547
 2626SOL    HW310535   0.920   1.174   4.787 -0.7774 -0.6803 -1.3288
 2626SOL    MW410536   0.923   1.252   4.747 -0.7606 -0.1827 -0.3634
 2627SOL     OW10537   1.955   0.653   4.500  0.3792 -0.2506  0.6754
 2627SOL    HW210538   1.955   0.608   4.415  0.3492  1.3277 -0.1851
 2627SOL    HW310539   2.044   0.641   4.534  0.4813 -0.6303  0.2722
 2627SOL    MW410540   1.967   0.646   4.493  0.3887 -0.0925  0.5086
 2628SOL     OW10541   1.081   4.433   4.491 -0.0445 -0.2194  0.0646
 2628SOL    HW210542   1.150   4.496   4.514  0.8684 -0.4418 -1.9049
 2628SOL    HW310543   1.004   4.462   4.540  0.5112  2.1071 -0.3892
 2628SOL    MW410544   1.080   4.445   4.501  0.1493  0.0582 -0.2551
 2629SOL     OW10545   3.855   0.468   4.247 -0.2703  0.3676 -0.2587
 2629SOL    HW210546   3.833   0.557   4.221  1.3310  0.9706  0.4197
 2629SOL    HW310547   3.867   0.473   4.342 -0.5323 -0.6513 -0.1663
 2629SOL    MW410548   3.854   0.480   4.256 -0.0936  0.3127 -0.1570
 2630SOL     OW10549   3.747   2.365   4.111  0.2777  0.1544  0.3942
 2630SOL    HW210550   3.766   2.358   4.017 -0.0659  1.3359  0.2275
 2630SOL    HW310551   3.703   2.450   4.120 -0.6013 -0.4073  1.4813
 2630SOL    MW410552   3.744   2.375   4.099  0.1164  0.2362  0.5156
 2631SOL     OW10553   4.007   3.474   4.142 -0.1665 -0.4161 -0.1055
 2631SOL    HW210554   4.004   3.462   4.047  0.5348 -0.5235 -0.1153
 2631SOL    HW310555   4.088   3.521   4.158  0.2471 -1.3203  0.5297
 2631SOL    MW410556   4.017   3.478   4.132 -0.0194 -0.5495 -0.0230
 2632SOL     OW10557   3.994   2.438   4.244  0.1947  0.0478  0.3157
 2632SOL    HW210558   3.912   2.432   4.196  0.2642  0.1420  0.1851
 2632SOL    HW310559   4.050   2.371   4.205  0.9602  1.4773 -1.1236
 2632SOL    MW410560   3.991   2.429   4.233  0.3049  0.2488  0.1086
 2633SOL     OW10561   1.309   3.323   4.509  0.3479 -0.1159 -0.0835
 2633SOL    HW210562   1.269   3.410   4.513  0.9224  0.1955 -0.9951
 2633SOL    HW310563   1.402   3.339   4.523  0.3707 -0.6600  0.3938
 2633SOL    MW410564   1.316   3.337   4.512  0.4267 -0.1466 -0.1408
 2634SOL     OW10565   3.622   0.406   4.613  0.1513 -0.0698  0.0640
 2634SOL    HW210566   3.609   0.313   4.596 -0.4349  0.2709 -1.4070
 2634SOL    HW310567   3.703   0.427   4.567  0.1130  0.2243  0.1333
 2634SOL    MW410568   3.631   0.397   4.605  0.0689  0.0139 -0.1210
 2635SOL     OW10569   3.830   3.644   4.259 -0.2359 -0.0958  0.4285
 2635SOL    HW210570   3.755   3.586   4.258  0.9740 -1.7060  0.9317
 2635SOL    HW310571   3.895   3.601   4.204  0.0015  1.7433 -0.7878
 2635SOL    MW410572   3.829   3.631   4.252 -0.0449 -0.0656  0.3344
 2636SOL     OW10573   2.064   1.438   4.143  0.4126 -0.5312  0.0301
 2636SOL    HW210574   2.033   1.456   4.054  0.5941 -0.0647  0.0601
 2636SOL    HW310575   2.159   1.439   4.135  0.4602  1.0959  0.5338
 2636SOL    MW410576   2.072   1.441   4.130  0.4428 -0.2550  0.1005
 2637SOL     OW10577   4.222   3.615   4.224  0.1541 -0.0960  0.2622
 2637SOL    HW210578   4.307   3.577   4.200 -0.7891 -1.4448 -1.0904
 2637SOL    HW310579   4.216   3.603   4.318  0.9004 -1.1958  0.1854
 2637SOL    MW410580   4.233   3.608   4.233  0.1281 -0.4191  0.0736
 2638SOL     OW10581   0.419   4.021   4.340  0.0067 -0.2863 -0.1837
 2638SOL    HW210582   0.425   4.097   4.282 -0.3697  0.7664  1.1268
 2638SOL    HW310583   0.506   3.980   4.336  0.1522  0.1000 -1.0397
 2638SOL    MW410584   0.431   4.025   4.332 -0.0237 -0.0964 -0.1238
 2639SOL     OW10585   0.971   0.319   4.733 -0.6972  0.1158 -0.7019
 2639SOL    HW210586   0.878   0.315   4.709 -0.8826  1.3004 -0.2079
 2639SOL    HW310587   1.016   0.276   4.660 -1.5900  0.0234 -1.2069
 2639SOL    MW410588   0.965   0.312   4.720 -0.8395  0.2599 -0.7033
 2640SOL     OW10589   3.786   3.913   4.169  0.3708  0.2564 -0.4506
 2640SOL    HW210590   3.868   3.946   4.206  0.0073  1.3262 -0.5955
 2640SOL    HW310591   3.786   3.820   4.192  1.2392  0.4212  0.2638
 2640SOL    MW410592   3.796   3.905   4.177  0.4374  0.4193 -0.3755
 2641SOL     OW10593   2.838   0.031   4.665  0.2966  0.0615  0.0151
 2641SOL    HW210594   2.853   0.017   4.758 -1.0925 -0.3984  0.1766
 2641SOL    HW310595   2.808  -0.053   4.632  0.7804  0.2235 -0.8496
 2641SOL    MW410596   2.836   0.018   4.673  0.1772  0.0222 -0.0776
 2642SOL     OW10597   3.916   2.740   4.544  0.0932 -0.0071  0.0291
 2642SOL    HW210598   3.902   2.786   4.461  0.2127 -0.2805 -0.1412
 2642SOL    HW310599   3.885   2.651   4.528 -0.8953  0.2189  0.6084
 2642SOL    MW410600   3.910   2.734   4.531 -0.0215 -0.0133  0.0831
 2643SOL     OW10601   2.208   1.815   4.807  0.2639 -0.2827  0.1858
 2643SOL    HW210602   2.256   1.894   4.832 -1.3786  1.1307 -0.9900
 2643SOL    HW310603   2.115   1.841   4.814 -0.2672 -1.6578 -1.5862
 2643SOL    MW410604   2.202   1.829   4.811 -0.0229 -0.2777 -0.2031
 2644SOL     OW10605   4.343   2.059   4.397  0.1162  0.1071 -0.1672
 2644SOL    HW210606   4.329   2.153   4.386 -1.4853 -0.1286 -0.2763
 2644SOL    HW310607   4.255   2.021   4.396  0.6270 -1.2167  1.5724
 2644SOL    MW410608   4.330   2.066   4.396 -0.0277 -0.0987  0.0479
 2645SOL     OW10609   4.052   0.078   4.249  0.0526  0.3209  0.0637
 2645SOL    HW210610   4.054   0.049   4.340 -0.4264  0.1153  0.0109
 2645SOL    HW310611   3.969   0.045   4.215 -0.3822  1.5391 -0.0792
 2645SOL    MW410612   4.042   0.070   4.257 -0.0680  0.4545  0.0379
 2646SOL     OW10613   1.059   2.797   4.578 -0.3392  0.5624 -0.0184
 2646SOL    HW210614   1.052   2.703   4.562 -0.1894  0.4793  0.4010
 2646SOL    HW310615   0.969   2.830   4.573 -0.4182  0.3584  0.0834
 2646SOL    MW410616   1.046   2.789   4.575 -0.3298  0.5245  0.0504
 2647SOL     OW10617   1.813   0.901   4.516  0.8693  0.4910 -0.1151
 2647SOL    HW210618   1.860   0.826   4.552  0.3267  0.8955  1.4526
 2647SOL    HW310619   1.882   0.965   4.495  1.2807 -0.2059 -0.9164
 2647SOL    MW410620   1.828   0.900   4.518  0.8520  0.4524 -0.0140
 2648SOL     OW10621   1.800   2.985   4.605 -0.2007 -0.4588 -0.5569
 2648SOL    HW210622   1.826   2.933   4.681  0.1136  1.0046  0.3321
 2648SOL    HW310623   1.876   2.982   4.547  0.5630  0.6779  0.3782
 2648SOL    MW410624   1.813   2.977   4.607 -0.0585 -0.1157 -0.3162
 2649SOL     OW10625   0.234   1.558   4.182 -0.2159 -0.3229  0.3474
 2649SOL    HW210626   0.161   1.612   4.214  0.6226  0.7059  0.5565
 2649SOL    HW310627   0.312   1.607   4.206  0.6121 -2.0004  1.2114
 2649SOL    MW410628   0.234   1.572   4.189  0.0040 -0.4085  0.4890
 2650SOL     OW10629   4.045   4.093   4.511  0.8349  0.5823  0.4426
 2650SOL    HW210630   3.974   4.046   4.553  0.5989 -0.1894 -0.7739
 2650SOL    HW310631   4.121   4.036   4.521  1.2023  1.2462  1.4408
 2650SOL    MW410632   4.046   4.080   4.518  0.8522  0.5680  0.4138
 2651SOL     OW10633   0.492   1.450   4.610 -0.2484  0.0643 -0.2796
 2651SOL    HW210634   0.399   1.428   4.614 -0.1203 -0.5500 -0.6621
 2651SOL    HW310635   0.525   1.435   4.699 -0.8295  1.6925  0.2202
 2651SOL    MW410636   0.484   1.445   4.622 -0.3082  0.1981 -0.2641
 2652SOL     OW10637   0.632   1.222   4.493 -0.9327  0.2139 -0.1159
 2652SOL    HW210638   0.724   1.247   4.492 -0.9600  0.3160 -0.0020
 2652SOL    HW310639   0.584   1.303   4.513 -1.0176  0.0674  0.2731
 2652SOL    MW410640   0.637   1.236   4.496 -0.9475  0.2081 -0.0495
 2653SOL     OW10641   4.478   1.953   4.165  0.3902 -0.2562 -0.2763
 2653SOL    HW210642   4.480   1.865   4.202  0.9488  0.0630  0.4642
 2653SOL    HW310643   4.438   2.007   4.234  1.1655  0.2892 -0.2469
 2653SOL    MW410644   4.473   1.949   4.179  0.5662 -0.1421 -0.1747
 2654SOL     OW10645   2.171   3.998   4.460  0.0727 -0.3299  0.0370
 2654SOL    HW210646   2.195   4.001   4.368  1.3153  0.8315  0.3894
 2654SOL    HW310647   2.106   4.068   4.470  0.1545 -0.2646  0.1101
 2654SOL    MW410648   2.165   4.008   4.449  0.2474 -0.1680  0.0931
 2655SOL     OW10649   3.771   0.484   4.842 -0.1567 -0.2112 -0.1777
 2655SOL    HW210650   3.769   0.576   4.815 -0.3219  0.0656  0.7781
 2655SOL    HW310651   3.699   0.443   4.793 -0.3779  0.2647 -0.2472
 2655SOL    MW410652   3.761   0.490   4.832 -0.2076 -0.1118 -0.0608
 2656SOL     OW10653   0.434   3.522   4.186  0.0385  0.2841 -0.5062
 2656SOL    HW210654   0.510   3.577   4.203  0.8881 -0.9954 -0.0498
 2656SOL    HW310655   0.439   3.501   4.093  0.6016 -0.3190 -0.3409
 2656SOL    MW410656   0.445   3.527   4.176  0.2249  0.0357 -0.4241
 2657SOL     OW10657   3.186   1.801   4.534  0.1253  0.4498 -0.1233
 2657SOL    HW210658   3.150   1.723   4.577  0.3452  0.1782 -0.4299
 2657SOL    HW310659   3.135   1.873   4.569  0.5046  0.2652  0.8331
 2657SOL    MW410660   3.175   1.800   4.545  0.2043  0.3896 -0.0375
 2658SOL     OW10661   0.072   0.445   4.779  0.3672 -0.2714 -0.6772
 2658SOL    HW210662   0.018   0.396   4.842  1.2532 -0.7707 -0.3007
 2658SOL    HW310663   0.009   0.478   4.714 -0.4411 -0.5017 -0.0147
 2658SOL    MW410664   0.056   0.443   4.778  0.3775 -0.3677 -0.5401
 2659SOL     OW10665   3.430   0.586   4.534  0.3576  0.1443 -0.1105
 2659SOL    HW210666   3.478   0.668   4.548  1.0293 -0.1920 -0.4954
 2659SOL    HW310667   3.492   0.517   4.555  0.5083 -0.3232 -2.0285
 2659SOL    MW410668   3.444   0.588   4.539  0.4661  0.0383 -0.4143
 2660SOL     OW10669   0.506   1.721   4.527 -0.8297 -0.1075  0.2283
 2660SOL    HW210670   0.478   1.634   4.557  0.2895 -0.4875  0.1971
 2660SOL    HW310671   0.497   1.717   4.432  1.4072 -1.0036  0.0162
 2660SOL    MW410672   0.501   1.709   4.518 -0.3869 -0.2759  0.1962
 2661SOL     OW10673   0.221   3.912   4.161 -0.3373 -0.3952 -0.3624
 2661SOL    HW210674   0.290   3.949   4.217 -1.3727 -0.7110  1.1484
 2661SOL    HW310675   0.140   3.954   4.191 -1.0315 -1.2396 -1.0129
 2661SOL    MW410676   0.219   3.923   4.173 -0.5655 -0.5483 -0.2489
 2662SOL     OW10677   2.174   0.865   4.260 -0.0005 -0.2234 -0.4199
 2662SOL    HW210678   2.223   0.928   4.208  0.3204  0.0306  0.1942
 2662SOL    HW310679   2.112   0.918   4.311  0.1260 -0.4192 -0.0600
 2662SOL    MW410680   2.172   0.880   4.260  0.0585 -0.2157 -0.2914
 2663SOL     OW10681   1.397   4.270   4.738 -0.3003 -0.7825  0.0842
 2663SOL    HW210682   1.400   4.365   4.750  1.0917 -0.8513  0.2867
 2663SOL    HW310683   1.304   4.248   4.750 -0.8351  0.6968 -1.1405
 2663SOL    MW410684   1.385   4.280   4.741 -0.1872 -0.5964 -0.0507
 2664SOL     OW10685   4.162   3.591   4.498  0.1486  0.3335  0.1325
 2664SOL    HW210686   4.248   3.598   4.539  1.1076  0.2947 -1.8132
 2664SOL    HW310687   4.151   3.497   4.481 -0.1607  0.3744  0.0997
 2664SOL    MW410688   4.172   3.579   4.501  0.2343  0.3338 -0.1286
 2665SOL     OW10689   0.717   0.280   4.643  0.3161  0.0413  0.2829
 2665SOL    HW210690   0.634   0.246   4.675  0.0491 -0.0605 -0.5098
 2665SOL    HW310691   0.749   0.213   4.582  1.0845 -0.0213  0.7477
 2665SOL    MW410692   0.710   0.267   4.639  0.3822  0.0196  0.2396
 2666SOL     OW10693   0.226   1.363   4.612 -0.0239  0.3114 -0.2027
 2666SOL    HW210694   0.215   1.342   4.519 -2.9302 -0.1885  0.2207
 2666SOL    HW310695   0.219   1.279   4.657 -0.4221  0.7723  0.6073
 2666SOL    MW410696   0.224   1.349   4.605 -0.4599  0.3063 -0.0400
 2667SOL     OW10697   4.278   1.571   4.193  0.2710 -0.0538 -0.2215
 2667SOL    HW210698   4.289   1.484   4.231  0.4521  0.4079  0.8080
 2667SOL    HW310699   4.287   1.558   4.099  0.0380 -1.1879 -0.0893
 2667SOL    MW410700   4.281   1.558   4.185  0.2642 -0.1425 -0.0683
 2668SOL     OW10701   2.799   1.465   4.171 -0.1797 -0.3285 -0.0778
 2668SOL    HW210702   2.758   1.385   4.138 -0.4755  0.0074 -0.5374
 2668SOL    HW310703   2.730   1.507   4.223 -0.9429  0.9934 -2.0931
 2668SOL    MW410704   2.784   1.460   4.173 -0.3194 -0.1098 -0.4043
 2669SOL     OW10705   3.874   2.811   4.288 -0.8141 -0.7802  0.2237
 2669SOL    HW210706   3.855   2.900   4.259 -1.9449 -1.1843 -0.3152
 2669SOL    HW310707   3.817   2.756   4.234  0.2467 -1.8684  0.1887
 2669SOL    MW410708   3.864   2.815   4.277 -0.8234 -0.9771  0.1480
 2670SOL     OW10709   3.883   2.049   4.482 -0.0063  0.0101 -0.1485
 2670SOL    HW210710   3.920   2.125   4.527  1.7696 -0.4272 -0.8472
 2670SOL    HW310711   3.848   2.083   4.400 -1.4802  0.4791  0.6587
 2670SOL    MW410712   3.883   2.063   4.477  0.0335  0.0143 -0.1342
 2671SOL     OW10713   4.277   1.444   4.564 -0.1178 -0.1259 -0.3918
 2671SOL    HW210714   4.204   1.505   4.573  0.6498  0.8487 -0.7225
 2671SOL    HW310715   4.354   1.500   4.556  0.7413 -1.1428  0.5611
 2671SOL    MW410716   4.278   1.459   4.564  0.0968 -0.1315 -0.3097
 2672SOL     OW10717   1.986   4.374   4.259 -0.0102  0.4244 -0.0082
 2672SOL    HW210718   1.981   4.470   4.253 -0.2478  0.4746  0.8605
 2672SOL    HW310719   2.070   4.352   4.220 -0.4039  0.9042 -1.1309
 2672SOL    MW410720   1.996   4.384   4.253 -0.0935  0.4943 -0.0417
 2673SOL     OW10721   2.793   4.444   4.549  0.1648  0.1680  0.0756
 2673SOL    HW210722   2.843   4.462   4.469  0.0564  0.0558 -0.0164
 2673SOL    HW310723   2.702   4.446   4.521  0.0345  2.1518  0.5758
 2673SOL    MW410724   2.788   4.447   4.534  0.1333  0.4149  0.1295
 2674SOL     OW10725   2.580   2.097   4.668 -0.3300  0.4690 -0.3385
 2674SOL    HW210726   2.574   2.190   4.650 -1.7108  0.3003 -0.8286
 2674SOL    HW310727   2.510   2.058   4.616  0.4847 -0.8801 -0.4421
 2674SOL    MW410728   2.570   2.104   4.659 -0.4047  0.2688 -0.4168
 2675SOL     OW10729   1.067   0.554   4.269  0.0781 -0.2830 -0.5427
 2675SOL    HW210730   1.002   0.560   4.339  0.4658  1.8631 -0.3100
 2675SOL    HW310731   1.072   0.643   4.234  1.2724 -0.9178 -2.0403
 2675SOL    MW410732   1.059   0.567   4.273  0.2868 -0.0836 -0.7096
 2676SOL     OW10733   0.434   0.790   4.548 -0.0833 -0.1279  0.0363
 2676SOL    HW210734   0.451   0.794   4.454 -0.7023 -0.0545 -0.0808
 2676SOL    HW310735   0.408   0.700   4.565  0.0093 -0.1369  0.1328
 2676SOL    MW410736   0.432   0.779   4.538 -0.1527 -0.1194  0.0336
 2677SOL     OW10737   0.695   0.476   4.215 -0.1705  0.1856 -0.4758
 2677SOL    HW210738   0.688   0.472   4.311 -0.4147  0.9235 -0.4585
 2677SOL    HW310739   0.679   0.568   4.194 -0.5113 -0.0506 -1.2597
 2677SOL    MW410740   0.692   0.488   4.225 -0.2477  0.2518 -0.5770
 2678SOL     OW10741   1.069   2.526   4.512 -0.0250 -0.3151 -0.2803
 2678SOL    HW210742   1.134   2.456   4.517  0.5712  0.1461 -1.2565
 2678SOL    HW310743   1.012   2.499   4.440 -0.6990 -0.5323  0.3309
 2678SOL    MW410744   1.070   2.513   4.503 -0.0353 -0.2829 -0.3284
 2679SOL     OW10745   1.097   3.632   4.249  0.3168  0.2272  0.2360
 2679SOL    HW210746   1.167   3.584   4.204 -0.6161 -0.3004 -0.6679
 2679SOL    HW310747   1.022   3.572   4.246 -0.2870  0.9507  0.8527
 2679SOL    MW410748   1.097   3.618   4.243  0.1140  0.2531  0.1981
 2680SOL     OW10749   3.139   3.229   4.232 -0.1266 -0.1921 -0.2317
 2680SOL    HW210750   3.140   3.319   4.199  0.4224 -0.1577 -0.1318
 2680SOL    HW310751   3.151   3.239   4.327 -0.7102 -0.3379 -0.1437
 2680SOL    MW410752   3.141   3.242   4.241 -0.1312 -0.2068 -0.2069
 2681SOL     OW10753   3.435   2.179   4.542 -0.3424 -0.3023 -0.4177
 2681SOL    HW210754   3.484   2.247   4.495  0.2981  0.6539  1.5951
 2681SOL    HW310755   3.500   2.110   4.558 -0.2631 -0.0986  0.1293
 2681SOL    MW410756   3.450   2.178   4.538 -0.2474 -0.1493 -0.0800
 2682SOL     OW10757   0.631   1.255   4.217  0.4896  0.1443  0.2455
 2682SOL    HW210758   0.638   1.233   4.310  0.6663  0.4839  0.3127
 2682SOL    HW310759   0.548   1.217   4.190 -0.2969  1.3720  0.9058
 2682SOL    MW410760   0.621   1.247   4.226  0.4091  0.3511  0.3415
 2683SOL     OW10761   1.580   2.071   4.267  0.0720 -0.5604 -0.2525
 2683SOL    HW210762   1.673   2.051   4.256  0.9359  2.5175  1.1362
 2683SOL    HW310763   1.564   2.057   4.361 -0.3396  1.0014 -0.0894
 2683SOL    MW410764   1.590   2.066   4.278  0.1317  0.0517 -0.0478
 2684SOL     OW10765   1.310   2.876   4.668 -0.2359 -0.1596  0.1080
 2684SOL    HW210766   1.277   2.920   4.746 -0.2571 -0.4624  0.2696
 2684SOL    HW310767   1.238   2.821   4.638 -0.0529 -0.4361  0.1713
 2684SOL    MW410768   1.296   2.874   4.674 -0.2146 -0.2360  0.1377
 2685SOL     OW10769   0.899   3.875   4.517  0.6837  0.1208  0.2988
 2685SOL    HW210770   0.829   3.905   4.574 -0.3451  0.3391 -1.0483
 2685SOL    HW310771   0.904   3.780   4.531 -1.0020 -0.1477 -0.7831
 2685SOL    MW410772   0.891   3.866   4.526  0.3256  0.1142 -0.0217
 2686SOL     OW10773   4.473   3.487   4.172 -0.9167  0.4944 -0.0866
 2686SOL    HW210774   4.537   3.550   4.205 -0.3616  0.3835 -0.9360
 2686SOL    HW310775   4.486   3.487   4.077 -0.3234 -1.5025 -0.0334
 2686SOL    MW410776   4.483   3.495   4.164 -0.7652  0.2163 -0.1917
 2687SOL     OW10777   3.414   1.809   4.678 -0.2273  0.0357  0.2954
 2687SOL    HW210778   3.432   1.903   4.684 -0.9742  0.1212  1.3489
 2687SOL    HW310779   3.336   1.803   4.623  0.5503 -0.0562 -0.8074
 2687SOL    MW410780   3.406   1.821   4.672 -0.2233  0.0349  0.2889
 2688SOL     OW10781   4.272   3.936   4.512  0.1688 -0.2251 -0.4272
 2688SOL    HW210782   4.305   3.848   4.528  0.1225  0.1499  2.0116
 2688SOL    HW310783   4.349   3.992   4.521 -0.0494  0.1029 -0.5996
 2688SOL    MW410784   4.287   3.932   4.516  0.1339 -0.1324 -0.1282
 2689SOL     OW10785   2.555   3.297   4.415  0.0165 -0.0581 -0.1843
 2689SOL    HW210786   2.592   3.301   4.327 -0.9145  1.4139 -0.5187
 2689SOL    HW310787   2.540   3.204   4.430 -0.5790 -0.2576 -1.9100
 2689SOL    MW410788   2.558   3.285   4.406 -0.1849  0.1098 -0.4561
 2690SOL     OW10789   0.197   0.953   4.592 -0.2701  0.3778  0.4334
 2690SOL    HW210790   0.286   0.930   4.565 -0.2797  0.4859  0.3120
 2690SOL    HW310791   0.176   0.889   4.660 -0.9243 -1.0196 -1.0461
 2690SOL    MW410792   0.206   0.941   4.598 -0.3576  0.2077  0.2222
 2691SOL     OW10793   2.495   1.219   4.510 -0.6972  0.1249  0.0171
 2691SOL    HW210794   2.476   1.216   4.416  0.3305  0.0439 -0.1890
 2691SOL    HW310795   2.477   1.309   4.535 -0.3786  0.2992 -0.3807
 2691SOL    MW410796   2.490   1.230   4.501 -0.5196  0.1372 -0.0626
 2692SOL     OW10797   1.548   3.536   4.248  0.0195 -0.3574  0.2471
 2692SOL    HW210798   1.458   3.521   4.220  0.4198 -1.3191 -0.5847
 2692SOL    HW310799   1.549   3.512   4.341 -0.4778 -0.8265  0.1374
 2692SOL    MW410800   1.537   3.530   4.256  0.0067 -0.5462  0.1229
 2693SOL     OW10801   3.142   3.988   4.297  0.3955 -0.3722  0.4172
 2693SOL    HW210802   3.223   3.950   4.264  0.5003 -1.5847  1.9894
 2693SOL    HW310803   3.155   3.992   4.392 -1.1315  0.0166  0.6200
 2693SOL    MW410804   3.154   3.983   4.305  0.2079 -0.4808  0.6514
 2694SOL     OW10805   0.216   2.076   4.246  0.0116 -0.3269 -0.0908
 2694SOL    HW210806   0.147   2.012   4.227  0.4520 -0.9278  0.3123
 2694SOL    HW310807   0.298   2.030   4.224  0.2320  0.7772 -1.6606
 2694SOL    MW410808   0.218   2.061   4.241  0.0988 -0.2605 -0.2447
 2695SOL     OW10809   1.946   1.973   4.481  0.1533 -0.1926 -0.0698
 2695SOL    HW210810   1.957   2.068   4.484 -0.0162 -0.1746  0.0028
 2695SOL    HW310811   1.905   1.956   4.396 -0.7286 -0.1025  0.3286
 2695SOL    MW410812   1.942   1.984   4.470  0.0146 -0.1783 -0.0077
 2696SOL     OW10813   2.856   3.383   4.536  0.4717  0.1591  0.1229
 2696SOL    HW210814   2.765   3.361   4.514  1.1118 -2.0414 -0.4839
 2696SOL    HW310815   2.893   3.301   4.568  2.0926  1.1805  0.8924
 2696SOL    MW410816   2.848   3.369   4.537  0.7700  0.0035  0.1443
 2697SOL     OW10817   0.623   3.502   4.497 -0.8803 -0.2264 -0.0503
 2697SOL    HW210818   0.615   3.552   4.416  1.9086 -0.9044 -0.8009
 2697SOL    HW310819   0.559   3.543   4.556 -2.8143  0.4048 -2.4700
 2697SOL    MW410820   0.613   3.514   4.494 -0.7675 -0.2326 -0.4686
 2698SOL     OW10821   1.759   3.182   4.221  0.4534 -0.4935 -0.0454
 2698SOL    HW210822   1.668   3.157   4.209  0.9199 -1.3727 -1.8149
 2698SOL    HW310823   1.766   3.267   4.177  0.8746 -1.1807 -1.3014
 2698SOL    MW410824   1.748   3.190   4.214  0.5705 -0.7002 -0.4446
 2699SOL     OW10825   2.974   2.297   4.171 -0.0713 -0.0104 -0.4366
 2699SOL    HW210826   2.908   2.303   4.240 -1.0758 -3.1736 -1.0541
 2699SOL    HW310827   2.925   2.307   4.090  0.7873  1.4023 -0.8049
 2699SOL    MW410828   2.959   2.299   4.170 -0.0906 -0.2414 -0.5667
 2700SOL     OW10829   2.653   3.887   4.528 -0.5057  0.2820 -0.0766
 2700SOL    HW210830   2.565   3.847   4.523 -0.7866  0.9531 -0.5856
 2700SOL    HW310831   2.713   3.812   4.524 -1.0416 -0.1375 -0.3631
 2700SOL    MW410832   2.649   3.872   4.527 -0.6135  0.3152 -0.1816
 2701SOL     OW10833   1.256   4.626   4.543 -0.1695 -0.4060 -0.1196
 2701SOL    HW210834   1.292   4.618   4.631 -0.4274 -1.4545 -0.1015
 2701SOL    HW310835   1.210   4.710   4.542  0.5705  0.0054  0.4750
 2701SOL    MW410836   1.255   4.636   4.554 -0.1059 -0.4901 -0.0388
 2702SOL     OW10837   0.003   2.090   4.650  0.0996 -0.2777  0.1914
 2702SOL    HW210838  -0.059   2.061   4.584 -0.5577  2.0223 -0.2685
 2702SOL    HW310839   0.085   2.103   4.603 -0.3276  1.2050 -0.1985
 2702SOL    MW410840   0.006   2.088   4.635 -0.0435  0.2214  0.0793
 2703SOL     OW10841   3.409   2.945   4.621 -0.0238 -0.0397 -0.6028
 2703SOL    HW210842   3.406   3.033   4.660 -0.7773 -1.0131  1.6331
 2703SOL    HW310843   3.497   2.939   4.583  0.2803  1.4408 -0.1879
 2703SOL    MW410844   3.421   2.956   4.621 -0.0831  0.0272 -0.2530
 2704SOL     OW10845   1.834   2.026   4.180  0.2221  0.3547 -0.1695
 2704SOL    HW210846   1.821   2.030   4.086  0.0974 -1.0735 -0.2215
 2704SOL    HW310847   1.927   2.042   4.193  0.3549 -0.0826 -0.5824
 2704SOL    MW410848   1.845   2.028   4.170  0.2232  0.1086 -0.2308
 2705SOL     OW10849   1.645   1.119   4.108 -0.0845 -0.3543  0.1308
 2705SOL    HW210850   1.685   1.041   4.148  0.5903  0.8553  1.8771
 2705SOL    HW310851   1.672   1.191   4.164 -1.0602  1.0985 -1.2317
 2705SOL    MW410852   1.654   1.118   4.121 -0.1242 -0.0030  0.1814
 2706SOL     OW10853   3.868   3.403   4.565 -0.1087  0.1794 -0.4047
 2706SOL    HW210854   3.887   3.496   4.579  1.5213 -0.3966  1.3756
 2706SOL    HW310855   3.947   3.367   4.526  0.2388 -0.9578  1.2684
 2706SOL    MW410856   3.881   3.411   4.562  0.1522 -0.0466  0.0509
 2707SOL     OW10857   0.895   0.626   4.468 -0.0825 -0.3723  0.3281
 2707SOL    HW210858   0.805   0.594   4.470 -0.2091  0.0178  1.4746
 2707SOL    HW310859   0.886   0.722   4.467  0.3135 -0.3244  0.9197
 2707SOL    MW410860   0.882   0.635   4.468 -0.0469 -0.3145  0.5575
 2708SOL     OW10861   2.323   2.903   4.594 -0.2524 -0.9955 -0.4458
 2708SOL    HW210862   2.251   2.862   4.642 -0.1890  0.3503  0.8212
 2708SOL    HW310863   2.383   2.831   4.574 -0.6637 -1.6860  0.7999
 2708SOL    MW410864   2.321   2.888   4.597 -0.2983 -0.9091 -0.1143
 2709SOL     OW10865   3.754   1.843   4.866 -0.0027 -0.3498 -0.3964
 2709SOL    HW210866   3.797   1.851   4.951 -0.3182 -0.3892 -0.2333
 2709SOL    HW310867   3.695   1.768   4.875 -0.7558  0.2439 -0.3378
 2709SOL    MW410868   3.752   1.834   4.878 -0.1437 -0.2766 -0.3672
 2710SOL     OW10869   1.574   2.341   4.151 -0.2397 -0.2366 -0.2884
 2710SOL    HW210870   1.654   2.383   4.182 -0.4148  0.1874 -0.4146
 2710SOL    HW310871   1.572   2.257   4.196  1.3643 -1.1503 -1.8409
 2710SOL    MW410872   1.584   2.335   4.161 -0.0512 -0.3012 -0.5099
 2711SOL     OW10873   1.201   1.649   4.624 -0.1061 -0.6852 -0.0519
 2711SOL    HW210874   1.186   1.737   4.658  0.4105 -0.3986 -0.5446
 2711SOL    HW310875   1.125   1.632   4.568  1.1719  0.6207 -2.2658
 2711SOL    MW410876   1.189   1.658   4.621  0.1307 -0.4751 -0.4090
 2712SOL     OW10877   4.025   4.666   4.517  0.1581  0.0903 -0.3435
 2712SOL    HW210878   4.108   4.699   4.552  0.3577  0.0523 -0.7833
 2712SOL    HW310879   4.033   4.571   4.526 -0.5878  0.1545  1.3161
 2712SOL    MW410880   4.037   4.658   4.523  0.0860  0.0938 -0.1825
 2713SOL     OW10881   2.055   2.998   4.459  0.1364 -0.3790  0.2168
 2713SOL    HW210882   2.061   2.944   4.381  2.0124 -0.2807  0.2839
 2713SOL    HW310883   2.140   2.989   4.502 -1.0563 -0.9217  2.5827
 2713SOL    MW410884   2.067   2.990   4.455  0.2265 -0.4377  0.5378
 2714SOL     OW10885   4.277   3.900   4.140  0.0005  0.1847  0.3162
 2714SOL    HW210886   4.259   3.812   4.173 -0.7337  0.0757 -0.3801
 2714SOL    HW310887   4.257   3.896   4.047 -0.3559  1.1768  0.3446
 2714SOL    MW410888   4.272   3.888   4.132 -0.1434  0.3012  0.2281
 2715SOL     OW10889   0.808   2.567   4.625  0.4083  0.1036 -0.1789
 2715SOL    HW210890   0.750   2.490   4.630  1.3775 -0.5669  1.3032
 2715SOL    HW310891   0.891   2.532   4.594  0.3067  0.9063 -1.3775
 2715SOL    MW410892   0.811   2.552   4.622  0.5227  0.1211 -0.1415
 2716SOL     OW10893   1.100   0.851   4.665 -0.1829 -0.2718  0.0420
 2716SOL    HW210894   1.103   0.755   4.666  0.0727 -0.2723 -0.6526
 2716SOL    HW310895   1.185   0.878   4.631 -0.3895  0.1979 -0.1048
 2716SOL    MW410896   1.112   0.842   4.661 -0.1764 -0.2099 -0.0690
 2717SOL     OW10897   4.257   2.838   4.267 -0.3219 -0.1111  0.2105
 2717SOL    HW210898   4.258   2.917   4.214  0.2406 -0.0531  0.3053
 2717SOL    HW310899   4.196   2.780   4.222 -0.7895  0.4033  0.1838
 2717SOL    MW410900   4.249   2.841   4.254 -0.3094 -0.0356  0.2195
 2718SOL     OW10901   0.247   4.652   4.144  0.1156  0.2891  0.4889
 2718SOL    HW210902   0.340   4.674   4.146  0.3995 -0.4777 -2.0992
 2718SOL    HW310903   0.243   4.562   4.176  0.5236 -0.3322 -1.1433
 2718SOL    MW410904   0.259   4.643   4.148  0.2069  0.1060 -0.0679
 2719SOL     OW10905   3.209   2.288   4.664  0.1976  0.0628 -0.1944
 2719SOL    HW210906   3.277   2.252   4.607 -0.9358  0.0421 -1.5819
 2719SOL    HW310907   3.188   2.373   4.624  0.0494  0.4718  0.7516
 2719SOL    MW410908   3.215   2.295   4.651  0.0285  0.1140 -0.2526
 2720SOL     OW10909   0.394   1.124   4.155 -0.0461 -0.1305 -0.0865
 2720SOL    HW210910   0.429   1.040   4.185  1.0577 -0.3491 -1.9583
 2720SOL    HW310911   0.419   1.130   4.063 -1.9503  1.2971 -0.5493
 2720SOL    MW410912   0.402   1.114   4.147 -0.1517  0.0290 -0.3945
 2721SOL     OW10913   2.234   3.184   4.263 -0.4092  0.6166  0.0281
 2721SOL    HW210914   2.152   3.169   4.216  0.3799 -1.6935 -0.6848
 2721SOL    HW310915   2.209   3.235   4.340 -2.6894 -1.0839  0.4565
 2721SOL    MW410916   2.220   3.189   4.267 -0.6059  0.0874 -0.0094
 2722SOL     OW10917   0.008   0.127   4.262 -0.5307 -0.1729 -0.4364
 2722SOL    HW210918   0.072   0.094   4.199 -0.2520 -0.2370 -0.1229
 2722SOL    HW310919   0.009   0.222   4.249 -0.1926 -0.1519 -0.2655
 2722SOL    MW410920   0.017   0.136   4.252 -0.4493 -0.1786 -0.3725
 2723SOL     OW10921   1.157   3.978   4.565  0.4835 -0.0253  0.0485
 2723SOL    HW210922   1.141   4.066   4.599 -0.2186  0.3397 -1.1941
 2723SOL    HW310923   1.070   3.943   4.547  0.7040 -1.4952  1.8014
 2723SOL    MW410924   1.144   3.985   4.567  0.4199 -0.1711  0.1158
 2724SOL     OW10925   0.873   3.609   4.608 -0.2368  0.0479  0.0559
 2724SOL    HW210926   0.961   3.573   4.594  0.1288  0.6687  0.7005
 2724SOL    HW310927   0.814   3.548   4.564  0.5769 -0.0278 -0.9431
 2724SOL    MW410928   0.877   3.596   4.601 -0.0812  0.1198  0.0092
 2725SOL     OW10929   2.463   1.485   4.594  0.0314  0.0719 -0.0498
 2725SOL    HW210930   2.548   1.507   4.633 -0.7009  0.5699  1.3053
 2725SOL    HW310931   2.403   1.482   4.669 -0.9289 -1.3603 -0.8741
 2725SOL    MW410932   2.466   1.488   4.609 -0.1919 -0.0514  0.0202
 2726SOL     OW10933   2.665   0.989   4.593  0.8371  0.4215  0.3323
 2726SOL    HW210934   2.617   1.070   4.577 -0.5760 -0.2453  1.1032
 2726SOL    HW310935   2.651   0.937   4.514  1.2663  0.7032  0.0732
 2726SOL    MW410936   2.657   0.993   4.580  0.7073  0.3707  0.3998
 2727SOL     OW10937   1.346   0.898   4.259  0.2792  0.0007  0.4998
 2727SOL    HW210938   1.419   0.847   4.226 -0.5440 -2.2259  2.0556
 2727SOL    HW310939   1.346   0.977   4.204  1.2861 -1.8294 -2.2591
 2727SOL    MW410940   1.356   0.902   4.247  0.3034 -0.5345  0.3411
 2728SOL     OW10941   4.021   0.862   4.585  0.0927 -0.2691  0.2367
 2728SOL    HW210942   4.001   0.952   4.611 -0.3641 -0.5887  1.0182
 2728SOL    HW310943   3.999   0.857   4.492 -0.2690  0.3130  0.2919
 2728SOL    MW410944   4.016   0.873   4.576 -0.0153 -0.2345  0.3471
 2729SOL     OW10945   2.296   1.029   4.583  0.1575 -0.4711  0.2798
 2729SOL    HW210946   2.322   0.947   4.542  1.2046 -0.7587  1.4881
 2729SOL    HW310947   2.369   1.089   4.565 -0.3926  0.0730 -0.1960
 2729SOL    MW410948   2.309   1.026   4.575  0.2231 -0.4372  0.3764
 2730SOL     OW10949   1.305   3.230   4.235 -0.0650  0.1424  0.4250
 2730SOL    HW210950   1.308   3.245   4.329 -0.3462  0.4879  0.3796
 2730SOL    HW310951   1.225   3.179   4.221  0.0473 -0.0251  0.3891
 2730SOL    MW410952   1.295   3.225   4.245 -0.0873  0.1659  0.4142
 2731SOL     OW10953   1.146   2.298   4.130 -0.0086 -0.2789  0.5145
 2731SOL    HW210954   1.210   2.362   4.161 -0.5235  0.1236  0.7679
 2731SOL    HW310955   1.176   2.214   4.165 -1.2488  0.3384  3.1990
 2731SOL    MW410956   1.158   2.295   4.139 -0.2401 -0.1444  0.9021
 2732SOL     OW10957   4.254   1.138   4.590  0.4672  0.3095 -0.3266
 2732SOL    HW210958   4.165   1.129   4.623  0.6334 -0.6588 -0.1126
 2732SOL    HW310959   4.273   1.232   4.596 -0.5055  0.5066 -0.3028
 2732SOL    MW410960   4.245   1.149   4.595  0.3608  0.2078 -0.2952
 2733SOL     OW10961   3.947   0.314   4.691  0.3106 -0.1809 -0.0457
 2733SOL    HW210962   3.911   0.365   4.763  1.9460  0.2191  0.5158
 2733SOL    HW310963   3.884   0.242   4.678 -0.8995  0.7555  0.5739
 2733SOL    MW410964   3.934   0.311   4.698  0.3667 -0.0046  0.1101
 2734SOL     OW10965   3.369   0.981   4.608 -0.4613  0.3058  0.0253
 2734SOL    HW210966   3.275   0.970   4.596 -0.4892  0.1820  0.3420
 2734SOL    HW310967   3.379   1.071   4.639 -0.2260  1.2333 -2.6172
 2734SOL    MW410968   3.358   0.992   4.611 -0.4339  0.4118 -0.2816
 2735SOL     OW10969   3.399   4.160   4.678 -0.1568  0.1557 -0.8915
 2735SOL    HW210970   3.376   4.247   4.644  0.3326  0.0660 -1.4503
 2735SOL    HW310971   3.480   4.137   4.633 -0.6157 -0.8644 -1.2091
 2735SOL    MW410972   3.406   4.169   4.668 -0.1528  0.0093 -1.0071
 2736SOL     OW10973   0.799   0.075   4.467 -0.3787 -0.2738  0.2160
 2736SOL    HW210974   0.870   0.095   4.406 -0.7078 -0.6304 -0.2910
 2736SOL    HW310975   0.724   0.054   4.411 -0.6477 -0.7487  0.7403
 2736SOL    MW410976   0.799   0.075   4.452 -0.4576 -0.3835  0.2183
 2737SOL     OW10977   0.261   2.143   4.533  0.4109  0.2047 -0.0097
 2737SOL    HW210978   0.311   2.078   4.582 -0.6948 -0.3177  0.4365
 2737SOL    HW310979   0.251   2.106   4.446  0.3186  0.0538  0.0653
 2737SOL    MW410980   0.266   2.130   4.528  0.2528  0.1159  0.0591
 2738SOL     OW10981   2.040   1.296   4.375  0.5072 -0.2815  0.1440
 2738SOL    HW210982   2.049   1.327   4.285  1.5108 -0.4178  0.1855
 2738SOL    HW310983   2.049   1.375   4.428  0.3252 -0.2566  0.1357
 2738SOL    MW410984   2.042   1.310   4.370  0.6156 -0.2962  0.1484
 2739SOL     OW10985   4.285   4.625   4.191 -0.6215 -0.3627 -0.2498
 2739SOL    HW210986   4.214   4.679   4.227 -0.5257 -0.8758  0.7296
 2739SOL    HW310987   4.365   4.672   4.214 -0.6219  0.0080 -0.9971
 2739SOL    MW410988   4.286   4.638   4.199 -0.6089 -0.3815 -0.2192
 2740SOL     OW10989   2.733   2.732   4.630  0.4128  0.4872 -0.0661
 2740SOL    HW210990   2.653   2.752   4.580  1.4369  2.4842 -0.9836
 2740SOL    HW310991   2.766   2.652   4.591 -0.8154 -0.0092 -0.1028
 2740SOL    MW410992   2.727   2.724   4.618  0.3859  0.6852 -0.1920
 2741SOL     OW10993   2.062   4.444   4.723  0.0443  0.0741  0.0502
 2741SOL    HW210994   2.100   4.357   4.713  0.5004  0.1442  1.1333
 2741SOL    HW310995   1.975   4.437   4.683  0.2783 -0.7327 -0.3324
 2741SOL    MW410996   2.056   4.432   4.716  0.1354 -0.0231  0.1426
 2742SOL     OW10997   3.006   4.281   4.510 -0.0598  0.5319 -0.5500
 2742SOL    HW210998   2.989   4.271   4.416 -2.0455 -1.1584 -0.0622
 2742SOL    HW310999   2.931   4.331   4.543  0.7464  1.3259  0.1092
 2742SOL    MW411000   2.994   4.286   4.502 -0.2154  0.4136 -0.3987
 2743SOL     OW11001   3.753   4.364   4.560  0.0668  0.3548 -0.2042
 2743SOL    HW211002   3.709   4.283   4.534 -0.0711  0.0008  1.1235
 2743SOL    HW311003   3.682   4.426   4.576  0.0804  0.1148  0.8303
 2743SOL    MW411004   3.738   4.361   4.558  0.0504  0.2764  0.1075
 2744SOL     OW11005   3.055   2.059   4.560  0.1103 -0.1852  0.2020
 2744SOL    HW211006   3.093   2.140   4.593  0.3726 -0.3077  0.1973
 2744SOL    HW311007   3.074   2.059   4.466  0.0328 -0.2106  0.1863
 2744SOL    MW411008   3.062   2.070   4.552  0.1347 -0.2047  0.1993
 2745SOL     OW11009   1.750   4.224   4.184  0.5910  0.0255 -0.0956
 2745SOL    HW211010   1.776   4.226   4.092  0.8551  0.4439 -0.0103
 2745SOL    HW311011   1.822   4.266   4.231 -0.1600  1.0588  0.1560
 2745SOL    MW411012   1.763   4.230   4.178  0.5268  0.2170 -0.0512
 2746SOL     OW11013   2.340   1.026   4.081 -0.1091  0.3200  0.3784
 2746SOL    HW211014   2.363   1.105   4.130 -2.8363  0.4363  1.5674
 2746SOL    HW311015   2.409   0.963   4.104  1.4991  1.9895  0.2531
 2746SOL    MW411016   2.352   1.028   4.091 -0.2568  0.5556  0.5188
 2747SOL     OW11017   0.847   4.186   4.740 -0.4379 -0.3487 -0.1815
 2747SOL    HW211018   0.784   4.249   4.707 -0.0970 -0.6872 -1.5170
 2747SOL    HW311019   0.809   4.101   4.719 -0.0127 -0.5688 -0.0774
 2747SOL    MW411020   0.834   4.183   4.733 -0.3368 -0.4224 -0.3440
 2748SOL     OW11021   2.972   0.456   4.477  0.4234  0.1492  0.1072
 2748SOL    HW211022   3.043   0.508   4.515  0.1520  1.6549 -1.3970
 2748SOL    HW311023   2.893   0.492   4.517  0.4540 -1.4179  1.6557
 2748SOL    MW411024   2.971   0.468   4.488  0.3917  0.1411  0.1131
 2749SOL     OW11025   4.050   1.677   4.283 -0.0015  0.0266 -0.2869
 2749SOL    HW211026   4.135   1.647   4.250  0.0794 -0.4336  0.3395
 2749SOL    HW311027   4.037   1.629   4.364 -0.0229  1.4157  0.5516
 2749SOL    MW411028   4.060   1.667   4.289  0.0064  0.1492 -0.0936
 2750SOL     OW11029   1.931   1.878   4.741 -0.4774 -0.6914  0.2940
 2750SOL    HW211030   1.934   1.911   4.651  0.7157 -0.8063  0.2835
 2750SOL    HW311031   1.896   1.790   4.733 -1.7787 -0.1628  0.1040
 2750SOL    MW411032   1.927   1.871   4.728 -0.4917 -0.6368  0.2676
 2751SOL     OW11033   0.877   1.933   4.715 -0.1781  0.0039  0.4675
 2751SOL    HW211034   0.973   1.932   4.723 -0.2775  0.9637  1.9782
 2751SOL    HW311035   0.854   1.841   4.702  0.9097 -0.3345  0.7982
 2751SOL    MW411036   0.887   1.920   4.715 -0.0477  0.0859  0.7105
 2752SOL     OW11037   2.893   2.696   4.310  0.4486  0.2428  0.1410
 2752SOL    HW211038   2.863   2.767   4.367 -1.0311 -0.2783  0.0583
 2752SOL    HW311039   2.823   2.687   4.245  1.1483 -0.5468 -0.5138
 2752SOL    MW411040   2.879   2.704   4.309  0.3457  0.0699  0.0437
 2753SOL     OW11041   1.532   0.720   4.156 -0.3697  0.0688 -0.0893
 2753SOL    HW211042   1.616   0.764   4.174 -0.6244 -0.5002  2.8695
 2753SOL    HW311043   1.513   0.740   4.065  2.2101  1.5507 -0.3530
 2753SOL    MW411044   1.541   0.729   4.147 -0.0629  0.1892  0.2663
 2754SOL     OW11045   3.983   2.263   4.622 -0.0839 -0.6240 -0.1540
 2754SOL    HW211046   4.071   2.298   4.607 -0.1326 -0.0344  0.9066
 2754SOL    HW311047   3.924   2.329   4.586 -0.1287 -0.3388  0.4332
 2754SOL    MW411048   3.987   2.276   4.615 -0.0962 -0.5086  0.0634
 2755SOL     OW11049   4.035   4.015   4.233 -0.6507 -0.0380  0.2200
 2755SOL    HW211050   4.118   3.968   4.225 -0.3716  0.8485 -2.4380
 2755SOL    HW311051   4.034   4.045   4.324  1.3970 -1.0744  0.6142
 2755SOL    MW411052   4.046   4.013   4.244 -0.3437 -0.0578 -0.0787
 2756SOL     OW11053   3.170   4.036   4.581 -0.0064 -0.0380  0.1445
 2756SOL    HW211054   3.251   4.068   4.620 -0.6854 -0.3136  1.8219
 2756SOL    HW311055   3.107   4.107   4.593 -0.2691 -0.1880 -0.3117
 2756SOL    MW411056   3.172   4.049   4.587 -0.1307 -0.0941  0.3056
 2757SOL     OW11057   0.274   0.273   4.634  0.4778  0.1517  0.1180
 2757SOL    HW211058   0.204   0.319   4.681  0.2343  0.9388 -0.9900
 2757SOL    HW311059   0.329   0.237   4.703 -0.0979  0.9377  1.0123
 2757SOL    MW411060   0.272   0.274   4.650  0.3697  0.3593  0.0898
 2758SOL     OW11061   0.875   3.113   4.518 -0.0962  0.1085  0.1840
 2758SOL    HW211062   0.842   3.023   4.515 -1.1049  0.4672  0.0301
 2758SOL    HW311063   0.968   3.104   4.535 -0.3738 -0.9278  1.2289
 2758SOL    MW411064   0.883   3.100   4.520 -0.2659  0.0191  0.3016
 2759SOL     OW11065   0.127   2.503   4.497 -0.0586  0.0063  0.0681
 2759SOL    HW211066   0.131   2.599   4.494 -1.1527  0.0857  0.7243
 2759SOL    HW311067   0.218   2.475   4.509  0.2978  0.9527 -0.4236
 2759SOL    MW411068   0.139   2.512   4.498 -0.1559  0.1417  0.0898
 2760SOL     OW11069   1.851   1.616   4.690  0.4311 -0.0129  0.1127
 2760SOL    HW211070   1.825   1.528   4.719 -0.0463  0.4525  1.1247
 2760SOL    HW311071   1.775   1.648   4.641  0.2688  0.1788  0.4924
 2760SOL    MW411072   1.837   1.608   4.687  0.3467  0.0738  0.2963
 2761SOL     OW11073   0.451   0.858   4.276 -0.0140 -0.2219  0.1074
 2761SOL    HW211074   0.517   0.812   4.223  1.0851 -1.0124  2.0934
 2761SOL    HW311075   0.368   0.836   4.234  0.8558 -0.4433 -1.5621
 2761SOL    MW411076   0.449   0.849   4.264  0.2458 -0.3554  0.1491
 2762SOL     OW11077   2.360   1.630   4.384 -0.2703 -0.3631 -0.3061
 2762SOL    HW211078   2.384   1.581   4.463 -2.4710 -1.2355 -0.1459
 2762SOL    HW311079   2.292   1.690   4.413  0.1954  0.5993 -1.1743
 2762SOL    MW411080   2.355   1.631   4.398 -0.4992 -0.3512 -0.3995
 2763SOL     OW11081   3.640   2.004   4.624 -0.0601 -0.4667  0.0885
 2763SOL    HW211082   3.660   1.990   4.717 -0.1310  0.1960  0.2062
 2763SOL    HW311083   3.725   2.007   4.582 -0.0327 -0.9150  0.1124
 2763SOL    MW411084   3.654   2.002   4.631 -0.0658 -0.4384  0.1072
 2764SOL     OW11085   2.337   2.535   4.718 -0.0698  0.3536  0.2964
 2764SOL    HW211086   2.337   2.511   4.625 -0.0646  0.2136  0.3318
 2764SOL    HW311087   2.429   2.547   4.740  0.0822 -1.5963  0.7864
 2764SOL    MW411088   2.349   2.533   4.709 -0.0491  0.0779  0.3658
 2765SOL     OW11089   1.145   1.265   4.205 -0.5294  0.0680  0.3395
 2765SOL    HW211090   1.231   1.246   4.168 -0.9736 -2.2053  0.3686
 2765SOL    HW311091   1.154   1.244   4.298 -1.3922 -1.2988  0.1403
 2765SOL    MW411092   1.157   1.260   4.213 -0.7018 -0.4123  0.3171
 2766SOL     OW11093   3.374   1.278   4.536 -0.1386  0.0482 -0.6563
 2766SOL    HW211094   3.395   1.270   4.443  0.1492  1.6154 -0.7440
 2766SOL    HW311095   3.282   1.304   4.538 -0.2172 -0.2393 -0.4954
 2766SOL    MW411096   3.364   1.280   4.524 -0.1110  0.2170 -0.6466
 2767SOL     OW11097   1.720   3.942   4.210  0.2475  0.3503  0.0274
 2767SOL    HW211098   1.703   4.033   4.184 -0.4148 -0.3651 -2.2011
 2767SOL    HW311099   1.722   3.944   4.305  0.2245  2.7064  0.0086
 2767SOL    MW411100   1.718   3.954   4.219  0.1571  0.5667 -0.2691
 2768SOL     OW11101   4.035   0.874   4.290 -0.4549 -0.7074  0.3456
 2768SOL    HW211102   3.972   0.818   4.243 -0.8394 -0.0063  0.0205
 2768SOL    HW311103   4.121   0.842   4.261 -0.6760 -0.9234 -0.0860
 2768SOL    MW411104   4.038   0.862   4.280 -0.5348 -0.6434  0.2458
 2769SOL     OW11105   0.300   0.514   4.247  0.3396 -0.0664  0.6343
 2769SOL    HW211106   0.215   0.472   4.241  0.2091  0.3901 -1.1756
 2769SOL    HW311107   0.359   0.457   4.197  0.6019  0.7946 -0.0520
 2769SOL    MW411108   0.296   0.501   4.239  0.3570  0.1074  0.3050
 2770SOL     OW11109   1.147   3.101   4.513 -0.3334  0.3539 -0.3072
 2770SOL    HW211110   1.201   3.030   4.549 -1.8955 -0.6584  0.0675
 2770SOL    HW311111   1.203   3.179   4.518  0.9450 -0.6049  0.4429
 2770SOL    MW411112   1.162   3.102   4.518 -0.3709  0.0939 -0.1588
 2771SOL     OW11113   1.603   3.719   4.584 -0.0919 -0.1225  0.2377
 2771SOL    HW211114   1.651   3.795   4.550  0.5377 -0.3351  0.6510
 2771SOL    HW311115   1.514   3.751   4.597 -0.6274 -0.2751 -2.5539
 2771SOL    MW411116   1.597   3.733   4.581 -0.0795 -0.1707 -0.0761
 2772SOL     OW11117   4.484   4.025   4.268 -0.1415  0.6474  0.1362
 2772SOL    HW211118   4.415   3.972   4.229  1.1088  0.3420 -1.7087
 2772SOL    HW311119   4.467   4.114   4.237  0.2052  0.5961 -0.2058
 2772SOL    MW411120   4.473   4.030   4.259  0.0692  0.6003 -0.1523
 2773SOL     OW11121   0.585   4.642   4.332  0.2396  0.5244  0.2325
 2773SOL    HW211122   0.621   4.557   4.308 -1.5071 -0.4317  0.8777
 2773SOL    HW311123   0.570   4.687   4.249  1.4283  0.3109 -0.0959
 2773SOL    MW411124   0.588   4.637   4.318  0.1660  0.3701  0.2743
 2774SOL     OW11125   0.670   3.265   4.629 -0.4676 -0.2294 -0.5348
 2774SOL    HW211126   0.659   3.334   4.563 -0.2445 -0.1760 -0.5191
 2774SOL    HW311127   0.737   3.207   4.591  0.0534  0.0944 -0.1205
 2774SOL    MW411128   0.678   3.267   4.615 -0.3694 -0.1796 -0.4780
 2775SOL     OW11129   0.034   0.385   4.186  0.1067 -0.3243 -0.5260
 2775SOL    HW211130   0.033   0.386   4.090 -0.4117 -0.3659 -0.5236
 2775SOL    HW311131  -0.041   0.439   4.211 -0.3805 -1.1715 -0.1486
 2775SOL    MW411132   0.024   0.392   4.176 -0.0260 -0.4416 -0.4759
 2776SOL     OW11133   1.378   1.930   4.128  0.2974  0.0617  0.0216
 2776SOL    HW211134   1.448   1.962   4.186 -0.4682 -0.6807  1.3791
 2776SOL    HW311135   1.375   1.836   4.145 -0.6701  0.0083 -0.4304
 2776SOL    MW411136   1.387   1.922   4.138  0.0688 -0.0433  0.1410
 2777SOL     OW11137   1.524   3.059   4.176  0.1086  0.1361 -0.2883
 2777SOL    HW211138   1.448   3.107   4.209  0.3202 -0.6355  1.3524
 2777SOL    HW311139   1.510   2.969   4.206  0.9525 -0.3058 -1.2160
 2777SOL    MW411140   1.512   3.053   4.184  0.2478 -0.0240 -0.1942
 2778SOL     OW11141   2.431   3.596   4.216 -0.3445 -0.0188 -0.0923
 2778SOL    HW211142   2.375   3.550   4.154  0.8431 -2.9216  0.8819
 2778SOL    HW311143   2.391   3.578   4.302  1.3759 -1.1700  0.5030
 2778SOL    MW411144   2.418   3.588   4.219  0.0392 -0.5537  0.1147
 2779SOL     OW11145   2.555   2.445   4.248 -0.0458 -0.3514 -0.0406
 2779SOL    HW211146   2.480   2.462   4.305 -0.3787 -0.3164 -0.4938
 2779SOL    HW311147   2.522   2.383   4.183  0.2631 -0.1828 -0.3580
 2779SOL    MW411148   2.541   2.439   4.247 -0.0490 -0.3246 -0.1422
 2780SOL     OW11149   0.006   4.070   4.549 -0.2850 -0.4069 -0.0409
 2780SOL    HW211150   0.011   4.069   4.453  1.0372 -0.5369  0.0220
 2780SOL    HW311151  -0.027   4.158   4.569 -2.1071 -0.9292 -0.6691
 2780SOL    MW411152   0.002   4.082   4.539 -0.3509 -0.4930 -0.1155
 2781SOL     OW11153   0.926   2.446   4.280  0.0298 -0.1954 -0.0880
 2781SOL    HW211154   0.837   2.412   4.270 -0.4482  1.5426 -2.2276
 2781SOL    HW311155   0.980   2.390   4.224 -0.1456  0.2411 -0.7050
 2781SOL    MW411156   0.921   2.434   4.271 -0.0564  0.0915 -0.4517
 2782SOL     OW11157   2.214   1.862   4.153 -0.2385  0.0913 -0.5757
 2782SOL    HW211158   2.155   1.800   4.195  1.0176 -1.6035 -1.2412
 2782SOL    HW311159   2.203   1.846   4.059  0.8007  0.1790 -0.7231
 2782SOL    MW411160   2.205   1.852   4.146  0.0643 -0.1208 -0.6830
 2783SOL     OW11161   2.410   4.138   4.509 -0.5057  0.4559  0.4982
 2783SOL    HW211162   2.334   4.080   4.521 -0.0631 -0.9089 -2.7018
 2783SOL    HW311163   2.486   4.082   4.525 -0.1157  1.1340  1.0603
 2783SOL    MW411164   2.410   4.123   4.513 -0.3958  0.3653  0.1502
 2784SOL     OW11165   4.012   1.552   4.532  0.2007 -0.5729 -0.0327
 2784SOL    HW211166   3.966   1.610   4.593  0.8042  0.3739 -0.4639
 2784SOL    HW311167   3.958   1.474   4.528 -1.6432  0.7017 -0.8961
 2784SOL    MW411168   3.999   1.550   4.540  0.0370 -0.2798 -0.2035
 2785SOL     OW11169   3.829   1.582   4.128  0.1391  0.3106  0.3754
 2785SOL    HW211170   3.765   1.637   4.174  0.6883 -0.1534  1.7271
 2785SOL    HW311171   3.914   1.613   4.160  0.4772 -0.8831  0.6561
 2785SOL    MW411172   3.832   1.594   4.138  0.2562  0.0919  0.5908
 2786SOL     OW11173   4.281   1.316   4.303 -0.1983 -0.1936  0.1872
 2786SOL    HW211174   4.196   1.272   4.291 -0.3458  0.0540  0.3298
 2786SOL    HW311175   4.277   1.353   4.391  0.0775 -0.2199  0.2118
 2786SOL    MW411176   4.269   1.315   4.313 -0.1814 -0.1644  0.2092
 2787SOL     OW11177   2.182   0.153   4.309  0.5985 -0.4743 -0.1805
 2787SOL    HW211178   2.254   0.109   4.355  0.4447 -0.1960  0.3305
 2787SOL    HW311179   2.127   0.188   4.379 -0.0689 -0.7394 -0.5758
 2787SOL    MW411180   2.184   0.152   4.324  0.4902 -0.4725 -0.1652
 2788SOL     OW11181   0.708   1.457   4.818 -0.2333 -0.0309 -0.1174
 2788SOL    HW211182   0.704   1.464   4.913 -1.6010  2.2024 -0.3038
 2788SOL    HW311183   0.770   1.386   4.801 -1.8502 -2.1278  2.4696
 2788SOL    MW411184   0.716   1.449   4.828 -0.6270 -0.0129  0.1993
 2789SOL     OW11185   1.334   0.977   4.517  0.2098 -0.1225  0.7033
 2789SOL    HW211186   1.347   0.935   4.432  1.3974 -1.0124  1.3123
 2789SOL    HW311187   1.418   1.018   4.537  0.3849 -1.1069  2.0734
 2789SOL    MW411188   1.347   0.977   4.509  0.3896 -0.3698  0.9644
 2790SOL     OW11189   3.431   1.250   4.234 -0.2622 -0.3977  0.5647
 2790SOL    HW211190   3.433   1.343   4.210  3.3606 -0.2579  1.1503
 2790SOL    HW311191   3.347   1.219   4.201 -1.6044  3.0961  0.4302
 2790SOL    MW411192   3.420   1.258   4.227  0.0387  0.0817  0.6242
 2791SOL     OW11193   1.745   0.858   4.258  0.1593  0.1982 -0.4041
 2791SOL    HW211194   1.826   0.830   4.216  0.4682 -0.4816  0.6372
 2791SOL    HW311195   1.766   0.862   4.351 -1.0991 -0.3451 -0.0890
 2791SOL    MW411196   1.758   0.855   4.264  0.0341  0.0368 -0.2251
 2792SOL     OW11197   1.772   1.752   4.249  0.7609  0.3072  0.4954
 2792SOL    HW211198   1.864   1.726   4.253  0.6989 -0.1264 -0.6847
 2792SOL    HW311199   1.773   1.835   4.201  0.4432 -0.2235 -0.4418
 2792SOL    MW411200   1.784   1.760   4.243  0.7108  0.1799  0.2161
 2793SOL     OW11201   2.370   2.058   4.493 -0.0332 -0.4826 -0.0297
 2793SOL    HW211202   2.309   1.991   4.524  0.1701 -0.9964 -0.7308
 2793SOL    HW311203   2.317   2.137   4.485 -0.3071 -0.5920  0.6521
 2793SOL    MW411204   2.355   2.059   4.496 -0.0425 -0.5648 -0.0323
 2794SOL     OW11205   3.079   2.067   4.270 -0.0317  0.2500 -0.5126
 2794SOL    HW211206   3.047   2.150   4.235 -0.4767  0.8043  1.1900
 2794SOL    HW311207   3.175   2.076   4.267 -0.0454  0.0725 -2.0673
 2794SOL    MW411208   3.088   2.079   4.265 -0.0922  0.2997 -0.4931
 2795SOL     OW11209   2.081   3.370   4.440  0.2844 -0.2050  0.0667
 2795SOL    HW211210   2.000   3.333   4.474  0.4656  0.6647  1.5033
 2795SOL    HW311211   2.053   3.441   4.382  0.0066  0.3422  0.8585
 2795SOL    MW411212   2.067   3.375   4.437  0.2717 -0.0181  0.3607
 2796SOL     OW11213   1.817   2.440   4.249 -0.0815  0.2487 -0.4044
 2796SOL    HW211214   1.892   2.406   4.201 -0.5354 -0.6541 -0.4892
 2796SOL    HW311215   1.831   2.412   4.340  0.7628  1.9294 -0.0010
 2796SOL    MW411216   1.829   2.432   4.255 -0.0300  0.3514 -0.3624
 2797SOL     OW11217   3.832   1.333   4.496 -0.1828  0.2217  0.5049
 2797SOL    HW211218   3.823   1.326   4.401  0.6686  2.1231  0.2747
 2797SOL    HW311219   3.744   1.353   4.527 -0.1768  1.0956 -0.0318
 2797SOL    MW411220   3.820   1.334   4.487 -0.0697  0.5879  0.4037
 2798SOL     OW11221   0.694   3.975   4.666 -0.1994  0.5349 -0.1628
 2798SOL    HW211222   0.683   3.923   4.746 -0.8214  0.9209  0.0128
 2798SOL    HW311223   0.604   4.000   4.642 -0.0527  0.0148 -1.2528
 2798SOL    MW411224   0.680   3.971   4.673 -0.2621  0.5172 -0.2834
 2799SOL     OW11225   2.875   2.509   4.506  0.0649  0.0242 -0.3216
 2799SOL    HW211226   2.830   2.432   4.470  3.2190 -0.7876 -2.7797
 2799SOL    HW311227   2.871   2.574   4.436  0.5088  0.8373  0.4019
 2799SOL    MW411228   2.869   2.507   4.492  0.5396  0.0244 -0.5505
 2800SOL     OW11229   2.890   3.102   4.178  0.6169  0.0679 -0.0932
 2800SOL    HW211230   2.905   3.098   4.084 -0.6035 -0.2007 -0.2794
 2800SOL    HW311231   2.964   3.153   4.211  1.5658 -0.6542 -1.0640
 2800SOL    MW411232   2.902   3.109   4.170  0.5811 -0.0628 -0.2459
 2801SOL     OW11233   1.545   2.878   4.510  0.0490  0.2564  0.5139
 2801SOL    HW211234   1.617   2.918   4.557 -0.2192  1.3774 -0.0122
 2801SOL    HW311235   1.469   2.892   4.567 -0.4387  2.3675 -0.5893
 2801SOL    MW411236   1.544   2.885   4.524 -0.0507  0.6828  0.2990
 2802SOL     OW11237   1.269   0.458   4.461 -0.0809  0.3186  0.2038
 2802SOL    HW211238   1.229   0.507   4.533 -0.3789 -0.5731  0.6538
 2802SOL    HW311239   1.213   0.478   4.386 -0.3554  0.4533  0.4413
 2802SOL    MW411240   1.256   0.467   4.460 -0.1564  0.2187  0.2945
 2803SOL     OW11241   1.178   1.191   4.479  0.5516  0.2398  0.1079
 2803SOL    HW211242   1.198   1.242   4.558  1.6569 -0.8443  0.5405
 2803SOL    HW311243   1.240   1.118   4.482 -0.3791 -0.5983 -1.0106
 2803SOL    MW411244   1.189   1.188   4.490  0.5747 -0.0138  0.0174
 2804SOL     OW11245   0.129   2.785   4.460 -0.0036 -0.0406  0.1600
 2804SOL    HW211246   0.162   2.826   4.380 -0.7665  1.2738  0.5124
 2804SOL    HW311247   0.054   2.839   4.485  0.5751 -0.1242  2.0899
 2804SOL    MW411248   0.123   2.797   4.453 -0.0279  0.1218  0.4612
 2805SOL     OW11249   3.364   2.077   4.264  0.0756  0.1469 -0.2484
 2805SOL    HW211250   3.365   2.154   4.206  1.4160 -0.5246 -1.1433
 2805SOL    HW311251   3.376   2.113   4.351  0.4336  0.9982 -0.6375
 2805SOL    MW411252   3.366   2.092   4.268  0.2996  0.1706 -0.4178
 2806SOL     OW11253   4.018   4.385   4.609 -0.5502 -0.4148  0.2592
 2806SOL    HW211254   3.924   4.372   4.599 -0.7114  0.8162  0.1851
 2806SOL    HW311255   4.056   4.300   4.586 -1.5656 -0.6059 -0.7386
 2806SOL    MW411256   4.010   4.372   4.605 -0.7055 -0.2776  0.1178
 2807SOL     OW11257   3.396   3.218   4.671 -0.1297 -0.2010  0.2048
 2807SOL    HW211258   3.368   3.308   4.686  0.1124  0.0899 -1.0370
 2807SOL    HW311259   3.480   3.226   4.626 -0.1978 -1.0428 -0.0838
 2807SOL    MW411260   3.403   3.231   4.667 -0.1067 -0.2737  0.0029
 2808SOL     OW11261   0.673   3.420   4.891  0.1671 -0.7060 -0.7642
 2808SOL    HW211262   0.675   3.352   4.959 -0.5416  0.7952  0.7889
 2808SOL    HW311263   0.689   3.372   4.809 -0.6400 -2.7887  0.2559
 2808SOL    MW411264   0.675   3.405   4.889 -0.0329 -0.7827 -0.4247
 2809SOL     OW11265   3.167   0.339   4.149 -0.7905 -0.1745  0.5322
 2809SOL    HW211266   3.081   0.382   4.148 -0.3254  0.7594  0.1068
 2809SOL    HW311267   3.226   0.405   4.185  0.0727 -0.1787 -0.8467
 2809SOL    MW411268   3.163   0.354   4.153 -0.6152 -0.0518  0.2942
 2810SOL     OW11269   0.182   3.124   4.167 -0.0727 -0.1227 -0.0303
 2810SOL    HW211270   0.246   3.173   4.218  0.6724 -1.4964  0.3923
 2810SOL    HW311271   0.099   3.168   4.185  0.4066  0.3195  1.1954
 2810SOL    MW411272   0.180   3.136   4.176  0.0888 -0.2456  0.1872
 2811SOL     OW11273   1.618   1.100   4.551  0.5103 -0.1012 -0.4041
 2811SOL    HW211274   1.656   1.165   4.491  0.9682 -0.7398 -0.8046
 2811SOL    HW311275   1.674   1.023   4.542  0.0890 -0.4832  0.2304
 2811SOL    MW411276   1.630   1.099   4.542  0.5151 -0.2359 -0.3733
 2812SOL     OW11277   2.223   3.420   4.107  0.0637  0.3797  0.1743
 2812SOL    HW211278   2.230   3.347   4.168  0.6316  0.3197  0.0419
 2812SOL    HW311279   2.145   3.467   4.135  0.1649  0.1972  0.7765
 2812SOL    MW411280   2.214   3.416   4.118  0.1520  0.3477  0.2363
 2813SOL     OW11281   3.870   0.526   4.503  0.1094 -0.1762 -0.6037
 2813SOL    HW211282   3.902   0.456   4.560 -2.6599 -0.9241  0.0733
 2813SOL    HW311283   3.864   0.603   4.560  0.2756 -0.1471 -0.6251
 2813SOL    MW411284   3.874   0.527   4.518 -0.2341 -0.2710 -0.5172
 2814SOL     OW11285   2.349   0.766   4.448  0.3016  0.1028 -0.0263
 2814SOL    HW211286   2.303   0.802   4.372 -0.2776 -0.3699  0.0962
 2814SOL    HW311287   2.322   0.674   4.451  0.7606 -0.0193  0.4239
 2814SOL    MW411288   2.340   0.758   4.438  0.2858  0.0243  0.0493
 2815SOL     OW11289   4.363   3.187   4.513  0.2024 -0.1010 -0.0818
 2815SOL    HW211290   4.452   3.221   4.526  0.5016 -1.1258  0.6342
 2815SOL    HW311291   4.371   3.093   4.528 -1.1535 -0.0937  0.7825
 2815SOL    MW411292   4.376   3.179   4.517  0.0630 -0.2353  0.1267
 2816SOL     OW11293   2.226   0.387   4.138  0.0047 -0.5672 -0.2351
 2816SOL    HW211294   2.191   0.355   4.055 -0.6617 -1.5043  0.4074
 2816SOL    HW311295   2.217   0.313   4.198 -1.2725  0.7131  1.1798
 2816SOL    MW411296   2.220   0.373   4.135 -0.2518 -0.5219  0.0363
 2817SOL     OW11297   3.588   0.885   4.261 -0.3242  0.0888  0.1936
 2817SOL    HW211298   3.494   0.869   4.259 -0.4073  0.6596 -1.0370
 2817SOL    HW311299   3.601   0.958   4.200  1.0667 -0.7890 -0.5934
 2817SOL    MW411300   3.578   0.893   4.253 -0.1517  0.0483 -0.0726
 2818SOL     OW11301   0.325   2.943   4.576  0.4009 -0.1945 -0.4038
 2818SOL    HW211302   0.260   2.877   4.550  0.5695 -0.3743 -0.3716
 2818SOL    HW311303   0.332   2.932   4.671  0.9957 -0.6542 -0.4940
 2818SOL    MW411304   0.317   2.933   4.585  0.5016 -0.2789 -0.4114
 2819SOL     OW11305   2.192   1.839   4.522 -0.3726 -0.2227 -1.0744
 2819SOL    HW211306   2.184   1.836   4.617  1.1561 -0.8426 -0.9643
 2819SOL    HW311307   2.108   1.876   4.493 -0.1289  1.7555  0.6181
 2819SOL    MW411308   2.180   1.844   4.531 -0.1388 -0.0435 -0.8366
 2820SOL     OW11309   0.908   1.658   4.235  0.4316 -0.0164 -0.2038
 2820SOL    HW211310   0.820   1.621   4.226  0.4405 -0.0708 -0.0704
 2820SOL    HW311311   0.896   1.752   4.221  0.2263  0.0846  0.5965
 2820SOL    MW411312   0.894   1.665   4.232  0.4057 -0.0102 -0.0806
 2821SOL     OW11313   3.582   1.660   4.243 -0.5376 -0.1917  0.0733
 2821SOL    HW211314   3.604   1.655   4.336 -0.7387  0.1370  0.1407
 2821SOL    HW311315   3.501   1.609   4.234  0.2248 -1.3811 -0.1682
 2821SOL    MW411316   3.574   1.653   4.254 -0.4635 -0.3053  0.0504
 2822SOL     OW11317   3.301   2.799   4.317  0.3355 -0.6781 -0.2487
 2822SOL    HW211318   3.254   2.742   4.256 -0.5908 -0.6471  0.4233
 2822SOL    HW311319   3.239   2.813   4.389  1.3444 -0.5487  0.5984
 2822SOL    MW411320   3.286   2.794   4.319  0.3464 -0.6569 -0.0483
 2823SOL     OW11321   3.839   2.453   4.460  0.1414 -0.0051  0.0616
 2823SOL    HW211322   3.893   2.450   4.381  0.4569  2.3504  0.1578
 2823SOL    HW311323   3.756   2.411   4.434  0.3725  0.4301 -1.4016
 2823SOL    MW411324   3.835   2.447   4.446  0.2135  0.3631 -0.1188
 2824SOL     OW11325   0.500   0.127   4.748  0.0081  0.0534  0.0693
 2824SOL    HW211326   0.475   0.098   4.835  0.3497 -0.4525 -0.0017
 2824SOL    HW311327   0.496   0.048   4.694  0.9090  0.1352 -0.1250
 2824SOL    MW411328   0.497   0.113   4.752  0.1720 -0.0026  0.0343
 2825SOL     OW11329   1.550   4.334   4.325  0.0151  0.1284  0.2900
 2825SOL    HW211330   1.620   4.298   4.271  1.5231  1.6272  1.1703
 2825SOL    HW311331   1.469   4.299   4.287  1.3030 -2.7721  0.1194
 2825SOL    MW411332   1.549   4.325   4.313  0.3840 -0.0565  0.3836
 2826SOL     OW11333   3.008   1.842   4.127 -0.1689 -0.3988  0.3745
 2826SOL    HW211334   2.913   1.831   4.137 -0.0516 -0.8337  1.0095
 2826SOL    HW311335   3.029   1.919   4.179 -0.4799  0.9524 -1.4285
 2826SOL    MW411336   2.998   1.851   4.135 -0.1944 -0.2779  0.2204
 2827SOL     OW11337   3.634   1.122   4.108 -0.2872  0.0043 -0.7138
 2827SOL    HW211338   3.609   1.149   4.020 -1.6980  0.2963 -0.2381
 2827SOL    HW311339   3.562   1.151   4.163 -0.0060 -1.2748  0.3595
 2827SOL    MW411340   3.621   1.129   4.103 -0.4362 -0.1260 -0.5095
 2828SOL     OW11341   1.719   0.356   4.155 -0.4049 -0.2421  0.4835
 2828SOL    HW211342   1.636   0.388   4.191 -0.7308 -1.2493  0.6559
 2828SOL    HW311343   1.729   0.269   4.194  1.2337  0.2660  1.2318
 2828SOL    MW411344   1.709   0.349   4.165 -0.2317 -0.3080  0.6050
 2829SOL     OW11345   3.334   4.377   4.290 -0.0092  0.3078 -0.2029
 2829SOL    HW211346   3.317   4.389   4.384  2.0788  1.0154  0.1112
 2829SOL    HW311347   3.334   4.466   4.254  1.2212  0.2062 -0.4857
 2829SOL    MW411348   3.332   4.391   4.298  0.4286  0.3877 -0.1987
 2830SOL     OW11349   2.453   0.528   4.244  0.2211 -0.1797 -0.0468
 2830SOL    HW211350   2.446   0.619   4.216 -0.7102 -0.3710 -0.4276
 2830SOL    HW311351   2.371   0.487   4.217  1.0417 -1.3798 -0.7877
 2830SOL    MW411352   2.442   0.535   4.237  0.2065 -0.3633 -0.1948
 2831SOL     OW11353   2.669   2.689   4.143 -0.6283  0.2770 -0.3743
 2831SOL    HW211354   2.595   2.744   4.170 -0.6163 -0.3888  1.0161
 2831SOL    HW311355   2.639   2.599   4.158  0.6619  0.0233  0.6883
 2831SOL    MW411356   2.655   2.685   4.148 -0.4565  0.1557 -0.0507
 2832SOL     OW11357   2.454   1.228   4.228  0.0145  0.4094 -0.4083
 2832SOL    HW211358   2.524   1.232   4.163  0.8768  0.2758  0.5137
 2832SOL    HW311359   2.408   1.312   4.218 -0.8466 -0.2477 -2.2687
 2832SOL    MW411360   2.457   1.240   4.218  0.0147  0.3051 -0.5321
 2833SOL     OW11361   3.133   3.493   4.163  0.3176 -0.1554 -0.2134
 2833SOL    HW211362   3.126   3.481   4.069 -0.2528  1.8332 -0.4416
 2833SOL    HW311363   3.051   3.535   4.188  1.4287  1.4922  0.7969
 2833SOL    MW411364   3.121   3.497   4.154  0.3889  0.3244 -0.1102
 2834SOL     OW11365   3.648   4.114   4.540 -0.0648 -0.0084  0.6356
 2834SOL    HW211366   3.623   4.072   4.457  1.4437 -0.0871  0.2122
 2834SOL    HW311367   3.710   4.054   4.580  1.2007  1.2397  0.5867
 2834SOL    MW411368   3.653   4.101   4.534  0.3012  0.1459  0.5733
 2835SOL     OW11369   3.820   1.314   4.229 -0.0437  0.1922  0.1779
 2835SOL    HW211370   3.810   1.404   4.198 -0.1983  0.1760  0.1761
 2835SOL    HW311371   3.747   1.267   4.188 -1.4157  0.5744  2.1134
 2835SOL    MW411372   3.809   1.319   4.219 -0.2451  0.2405  0.4330
 2836SOL     OW11373   3.166   1.681   4.271  0.0236  0.0835 -0.2005
 2836SOL    HW211374   3.169   1.737   4.349 -0.7556  0.2331 -0.2721
 2836SOL    HW311375   3.118   1.734   4.206  0.7102 -0.0193 -0.7949
 2836SOL    MW411376   3.160   1.696   4.273  0.0114  0.0896 -0.2884
 2837SOL     OW11377   3.789   0.088   4.668  0.0391  0.7143  0.0897
 2837SOL    HW211378   3.806   0.058   4.757  0.4649  1.9549  0.4361
 2837SOL    HW311379   3.867   0.064   4.619 -0.0693  0.3030  0.1149
 2837SOL    MW411380   3.801   0.081   4.673  0.0810  0.8237  0.1387
 2838SOL     OW11381   2.637   1.651   4.315 -0.1419 -0.2704  0.0703
 2838SOL    HW211382   2.547   1.661   4.345 -0.2157 -1.5936  0.3130
 2838SOL    HW311383   2.690   1.662   4.394  0.0114  1.8887 -0.3017
 2838SOL    MW411384   2.632   1.653   4.330 -0.1314 -0.1601  0.0532
 2839SOL     OW11385   4.314   0.505   4.279 -0.0875 -0.5499 -0.4569
 2839SOL    HW211386   4.286   0.592   4.253 -0.5267 -0.5067  0.1300
 2839SOL    HW311387   4.240   0.448   4.256 -0.1778 -0.6210 -0.0032
 2839SOL    MW411388   4.300   0.509   4.273 -0.1574 -0.5536 -0.3196
 2840SOL     OW11389   4.235   0.313   4.738  0.2817 -0.0942 -0.1968
 2840SOL    HW211390   4.140   0.312   4.728  0.2052 -0.3073  0.4851
 2840SOL    HW311391   4.264   0.390   4.690 -0.2932  0.2709  0.0394
 2840SOL    MW411392   4.227   0.323   4.730  0.1958 -0.0742 -0.0757
 2841SOL     OW11393   1.996   3.119   4.136  0.1199 -0.6422 -0.2679
 2841SOL    HW211394   2.008   3.027   4.162  0.9339 -0.5875 -0.4409
 2841SOL    HW311395   1.908   3.141   4.167 -0.0393 -1.4517 -0.1300
 2841SOL    MW411396   1.986   3.110   4.144  0.2063 -0.7418 -0.2725
 2842SOL     OW11397   1.188   1.358   4.703 -0.1001 -0.2454  0.0608
 2842SOL    HW211398   1.111   1.324   4.749 -1.2860  1.2152 -0.7881
 2842SOL    HW311399   1.172   1.452   4.696  2.0517  0.1681  0.3861
 2842SOL    MW411400   1.176   1.366   4.708  0.0274  0.0019 -0.0083
 2843SOL     OW11401   0.757   1.679   4.646  0.4338 -0.1620 -0.2395
 2843SOL    HW211402   0.681   1.716   4.601  0.6280  0.1552 -0.3118
 2843SOL    HW311403   0.720   1.625   4.716  0.1380 -0.2971 -0.5015
 2843SOL    MW411404   0.742   1.677   4.650  0.4204 -0.1380 -0.2836
 2844SOL     OW11405   3.158   0.638   4.618  0.1878  0.3879 -0.8494
 2844SOL    HW211406   3.179   0.623   4.711  0.6713 -2.3939 -1.3445
 2844SOL    HW311407   3.244   0.639   4.575 -0.1321 -0.5414 -1.5241
 2844SOL    MW411408   3.172   0.636   4.625  0.2094 -0.1018 -1.0037
 2845SOL     OW11409   3.337   0.771   4.133 -0.0259  0.0685  0.0201
 2845SOL    HW211410   3.354   0.688   4.178  0.7629  0.1282 -0.1510
 2845SOL    HW311411   3.259   0.806   4.175  1.3710  0.6901  2.1535
 2845SOL    MW411412   3.329   0.764   4.144  0.2625  0.1584  0.2790
 2846SOL     OW11413   3.791   0.734   4.666  0.0700  0.0872  0.1448
 2846SOL    HW211414   3.864   0.795   4.656  1.4801 -1.7874 -1.4164
 2846SOL    HW311415   3.715   0.782   4.636  0.7461  1.8440  1.1295
 2846SOL    MW411416   3.791   0.748   4.661  0.3453  0.0717  0.0687
 2847SOL     OW11417   2.480   2.246   3.822 -0.3853 -0.3070 -0.1630
 2847SOL    HW211418   2.460   2.237   3.915  1.5827 -0.2069  0.2935
 2847SOL    HW311419   2.473   2.157   3.787 -0.1951 -0.4959  0.2785
 2847SOL    MW411420   2.477   2.233   3.829 -0.1005 -0.3187 -0.0445
 2848SOL     OW11421   2.185   0.052   4.701 -0.2251 -0.5371  0.0754
 2848SOL    HW211422   2.195   0.073   4.794  1.6583 -2.5411  0.3667
 2848SOL    HW311423   2.132  -0.028   4.701 -2.1151  0.6897 -0.7076
 2848SOL    MW411424   2.179   0.044   4.713 -0.2260 -0.6396  0.0106
 2849SOL     OW11425   3.594   1.417   4.621  0.0943 -0.1379 -0.7458
 2849SOL    HW211426   3.510   1.384   4.589 -1.7134  2.2236  1.3757
 2849SOL    HW311427   3.610   1.497   4.571  0.1981  0.3316  0.0129
 2849SOL    MW411428   3.585   1.423   4.611 -0.1305  0.2357 -0.3658
 2850SOL     OW11429   3.127   0.085   4.228  0.0997 -0.1847 -0.1468
 2850SOL    HW211430   3.129   0.179   4.210 -0.8787 -0.1128  0.0937
 2850SOL    HW311431   3.112   0.079   4.323  0.8032 -0.5893 -0.0485
 2850SOL    MW411432   3.126   0.097   4.238  0.0635 -0.2286 -0.1021
 2851SOL     OW11433   2.682   3.512   4.100 -0.0015  0.2507  0.5543
 2851SOL    HW211434   2.744   3.551   4.160 -0.9621 -0.4293  2.0119
 2851SOL    HW311435   2.596   3.545   4.128 -0.3834  0.6046 -0.9741
 2851SOL    MW411436   2.679   3.521   4.111 -0.1787  0.2077  0.5450
 2852SOL     OW11437   1.022   3.885   4.125  0.4665  0.4873  0.0820
 2852SOL    HW211438   1.081   3.937   4.178  0.2370  0.6836  0.1479
 2852SOL    HW311439   1.038   3.794   4.152  0.6944  0.5455  0.1388
 2852SOL    MW411440   1.032   3.880   4.136  0.4663  0.5208  0.0982
 2853SOL     OW11441   0.370   0.508   4.542  0.0783 -0.1895  0.4058
 2853SOL    HW211442   0.337   0.424   4.574 -1.3241  0.6352  1.1708
 2853SOL    HW311443   0.356   0.505   4.447 -1.8167 -0.0231  0.6686
 2853SOL    MW411444   0.364   0.496   4.534 -0.3567 -0.0588  0.5414
 2854SOL     OW11445   0.657   2.051   4.340 -0.3550 -0.0817  0.1466
 2854SOL    HW211446   0.738   2.001   4.325 -0.0859  0.4163 -0.0641
 2854SOL    HW311447   0.671   2.133   4.294 -1.4691 -0.4626 -0.8974
 2854SOL    MW411448   0.670   2.055   4.332 -0.4665 -0.0663 -0.0190
 2855SOL     OW11449   0.457   2.698   4.140  0.0227 -0.1752 -0.1479
 2855SOL    HW211450   0.475   2.706   4.047  2.0942 -0.6852  0.1874
 2855SOL    HW311451   0.377   2.750   4.154  1.0460  1.8875 -1.7772
 2855SOL    MW411452   0.449   2.706   4.130  0.4310  0.0297 -0.3186
 2856SOL     OW11453   1.326   2.442   4.266  0.3622 -0.2100 -0.3600
 2856SOL    HW211454   1.408   2.406   4.230 -0.5203 -1.1319 -1.5129
 2856SOL    HW311455   1.317   2.527   4.224  0.0575 -0.6885 -1.3052
 2856SOL    MW411456   1.336   2.448   4.255  0.2055 -0.3948 -0.6368
 2857SOL     OW11457   2.939   3.117   4.552  0.2752 -0.2955 -0.2515
 2857SOL    HW211458   2.935   3.054   4.624  0.3504  0.6811  0.6158
 2857SOL    HW311459   2.881   3.081   4.485  0.0695 -1.1206  0.3719
 2857SOL    MW411460   2.931   3.104   4.553  0.2579 -0.2755 -0.0548
 2858SOL     OW11461   2.809   1.024   4.286 -0.0321  0.1911 -0.4775
 2858SOL    HW211462   2.764   0.945   4.319  0.5400 -0.2036 -0.6347
 2858SOL    HW311463   2.847   1.064   4.365 -1.3206  0.9584 -0.2335
 2858SOL    MW411464   2.808   1.019   4.301 -0.1266  0.2403 -0.4660
 2859SOL     OW11465   0.076   0.077   4.529 -0.2279  0.0466  0.1147
 2859SOL    HW211466   0.146   0.138   4.553  0.1119 -0.2071 -0.2240
 2859SOL    HW311467   0.039   0.112   4.448  0.6885 -0.7720 -0.6784
 2859SOL    MW411468   0.081   0.090   4.522 -0.0621 -0.0949 -0.0346
 2860SOL     OW11469   0.133   3.276   4.525 -0.1849  0.3416  0.1383
 2860SOL    HW211470   0.218   3.237   4.546 -0.4709  0.7601  2.1110
 2860SOL    HW311471   0.144   3.369   4.544 -0.9629  0.4600  0.0269
 2860SOL    MW411472   0.146   3.283   4.530 -0.3253  0.4124  0.3839
 2861SOL     OW11473   3.185   3.237   4.504  0.3866 -0.2056  0.1217
 2861SOL    HW211474   3.112   3.187   4.541 -0.2732  1.7268  1.5185
 2861SOL    HW311475   3.261   3.210   4.555 -0.1843  1.0693  1.6732
 2861SOL    MW411476   3.186   3.226   4.515  0.2242  0.2176  0.5107
 2862SOL     OW11477   1.681   1.444   4.843  0.1605 -0.3873 -0.3901
 2862SOL    HW211478   1.617   1.404   4.785 -0.1194  0.9056 -0.9986
 2862SOL    HW311479   1.629   1.497   4.903  0.5507 -0.5801  0.1161
 2862SOL    MW411480   1.666   1.446   4.843  0.1750 -0.2421 -0.4036
 2863SOL     OW11481   1.481   1.345   4.649 -0.0444 -0.2461 -0.0784
 2863SOL    HW211482   1.401   1.344   4.701 -0.3142 -1.2139 -0.4958
 2863SOL    HW311483   1.507   1.253   4.643  0.5188 -0.0456 -0.8366
 2863SOL    MW411484   1.474   1.333   4.656 -0.0057 -0.3474 -0.2335
 2864SOL     OW11485   4.057   2.012   4.120 -0.4244  0.1917 -0.0045
 2864SOL    HW211486   3.966   2.032   4.140 -0.1589  1.1860  0.2457
 2864SOL    HW311487   4.096   1.990   4.204 -0.3021  0.3219 -0.0263
 2864SOL    MW411488   4.050   2.012   4.133 -0.3732  0.3401  0.0257
 2865SOL     OW11489   2.880   4.658   4.152  0.3200 -0.3072 -0.0481
 2865SOL    HW211490   2.960   4.705   4.173 -0.6015  1.7272 -1.0274
 2865SOL    HW311491   2.890   4.574   4.198  3.0591 -0.1730 -0.2766
 2865SOL    MW411492   2.892   4.653   4.161  0.5598 -0.0211 -0.2074
 2866SOL     OW11493   0.653   0.493   4.487 -0.0567 -0.1940 -0.4213
 2866SOL    HW211494   0.560   0.500   4.508  0.0164  0.5363 -0.3291
 2866SOL    HW311495   0.684   0.420   4.541 -0.5173 -0.2640 -0.2476
 2866SOL    MW411496   0.645   0.485   4.497 -0.1078 -0.1069 -0.3862
 2867SOL     OW11497   1.572   4.163   4.552 -0.0527  0.4509 -0.2464
 2867SOL    HW211498   1.543   4.208   4.472 -0.6989  0.9214  0.2417
 2867SOL    HW311499   1.518   4.202   4.622  0.3859 -0.0767  0.3900
 2867SOL    MW411500   1.561   4.174   4.551 -0.0801  0.4434 -0.0980
 2868SOL     OW11501   3.857   1.759   4.625 -0.3556 -0.2890  0.2204
 2868SOL    HW211502   3.883   1.840   4.580  2.7291 -0.5124  1.4165
 2868SOL    HW311503   3.828   1.788   4.711  0.3041 -0.3924  0.4832
 2868SOL    MW411504   3.857   1.774   4.630  0.1384 -0.3321  0.4129
 2869SOL     OW11505   4.230   2.406   4.592  0.2043  0.0691  0.2027
 2869SOL    HW211506   4.214   2.500   4.589 -0.7841 -0.0989 -0.2852
 2869SOL    HW311507   4.308   2.396   4.646 -0.2271  1.1011  1.0434
 2869SOL    MW411508   4.238   2.417   4.599  0.0169  0.1831  0.2492
 2870SOL     OW11509   2.852   3.651   4.499 -0.2080  0.0732 -0.1810
 2870SOL    HW211510   2.840   3.557   4.509 -0.1594  0.2232  1.4613
 2870SOL    HW311511   2.918   3.674   4.564 -0.7778  1.3578 -0.0430
 2870SOL    MW411512   2.859   3.642   4.509 -0.2768  0.2625  0.0539
 2871SOL     OW11513   1.334   3.771   4.648 -0.0774 -0.1547 -0.0502
 2871SOL    HW211514   1.299   3.859   4.634 -0.5725 -0.3858 -0.2498
 2871SOL    HW311515   1.302   3.745   4.734  0.8475  0.2323  0.4237
 2871SOL    MW411516   1.325   3.780   4.658 -0.0207 -0.1341 -0.0140
 2872SOL     OW11517   1.794   3.431   4.119 -0.5036 -0.1525  0.2603
 2872SOL    HW211518   1.788   3.448   4.025 -0.9082 -2.6241 -0.1700
 2872SOL    HW311519   1.711   3.464   4.154 -0.1697  1.1900 -0.1485
 2872SOL    MW411520   1.782   3.438   4.111 -0.5129 -0.3015  0.1496
 2873SOL     OW11521   1.463   1.594   4.512 -0.1989 -0.0850 -0.3691
 2873SOL    HW211522   1.382   1.626   4.551  0.3281  1.2243 -0.3153
 2873SOL    HW311523   1.472   1.504   4.544 -1.1300  0.0962  0.3938
 2873SOL    MW411524   1.454   1.586   4.521 -0.2522  0.1116 -0.2614
 2874SOL     OW11525   2.217   2.283   4.723 -0.1706  0.0911 -0.4352
 2874SOL    HW211526   2.218   2.279   4.627  0.5488 -1.2089 -0.3921
 2874SOL    HW311527   2.247   2.371   4.744 -1.0385  0.6243 -1.4170
 2874SOL    MW411528   2.221   2.294   4.713 -0.1902 -0.0100 -0.5591
 2875SOL     OW11529   0.840   3.497   4.178 -0.4324  0.0496  0.2016
 2875SOL    HW211530   0.848   3.408   4.213  1.0165  0.5991  1.2869
 2875SOL    HW311531   0.861   3.488   4.085  1.0782 -0.5206  0.5892
 2875SOL    MW411532   0.844   3.484   4.170 -0.0420  0.0468  0.3959
 2876SOL     OW11533   0.004   1.709   4.280 -0.1091  0.4572 -0.2408
 2876SOL    HW211534   0.020   1.666   4.364 -0.0766  1.2935  0.1810
 2876SOL    HW311535  -0.071   1.662   4.243 -2.0910  2.0679  1.6590
 2876SOL    MW411536  -0.004   1.697   4.286 -0.3663  0.7801  0.0655
 2877SOL     OW11537   4.119   3.315   4.461 -0.3321 -0.0975  0.0170
 2877SOL    HW211538   4.084   3.269   4.385  0.8582  1.7242 -1.6826
 2877SOL    HW311539   4.201   3.269   4.480 -0.2640 -0.0933 -0.2608
 2877SOL    MW411540   4.125   3.303   4.453 -0.1661  0.1434 -0.2439
 2878SOL     OW11541   3.199   2.458   4.207  0.0654  0.0923 -0.3017
 2878SOL    HW211542   3.187   2.484   4.298  0.8867 -1.1486  0.1598
 2878SOL    HW311543   3.130   2.394   4.192 -0.1212  0.3577 -0.5835
 2878SOL    MW411544   3.188   2.453   4.217  0.1492 -0.0364 -0.2780
 2879SOL     OW11545   0.005   4.278   4.156  0.4766  0.3088 -0.4465
 2879SOL    HW211546  -0.077   4.316   4.187 -0.9828 -1.3950 -2.1257
 2879SOL    HW311547  -0.007   4.269   4.061  1.4123 -2.7395 -0.3151
 2879SOL    MW411548  -0.007   4.282   4.147  0.4075 -0.3182 -0.6507
 2880SOL     OW11549   2.039   2.342   4.117  0.0852 -0.3145  0.2817
 2880SOL    HW211550   2.041   2.256   4.159 -0.3258 -0.6628 -0.4026
 2880SOL    HW311551   2.111   2.391   4.159  0.4925 -1.0764  0.4816
 2880SOL    MW411552   2.049   2.337   4.128  0.0847 -0.4610  0.2178
 2881SOL     OW11553   0.931   0.383   4.105 -0.4275  0.0666 -0.0319
 2881SOL    HW211554   0.997   0.440   4.145 -0.1160 -0.2001 -0.1700
 2881SOL    HW311555   0.847   0.421   4.133 -0.2254  0.7474 -0.3414
 2881SOL    MW411556   0.928   0.396   4.114 -0.3597  0.1212 -0.0909
 2882NA      NA11557   3.032   3.935   0.473 -0.1295 -0.3377  0.1329
 2883NA      NA11558   0.880   2.469   0.709  0.0806  0.1012 -0.4099
   4.49070   4.66690  10.00000
