Gromacs Runs On Most of All Computer Systems in water
11558
    1RG35     P    1   2.274   2.345   4.336  0.0219  0.0253 -0.3489
    1RG35   O1P    2   2.398   2.391   4.406 -0.0384  0.4038 -0.0046
    1RG35   O2P    3   2.244   2.201   4.351 -0.2698 -0.5061 -0.0722
    1RG35   O5'    4   2.158   2.408   4.409  0.7835 -0.4156 -0.0740
    1RG35   C5'    5   2.139   2.551   4.404  0.2367  0.2529 -0.4734
    1RG35  H5'1    6   2.110   2.564   4.300  1.0307 -1.1491 -0.8894
    1RG35  H5'2    7   2.228   2.609   4.426  0.2789  0.9235 -2.3243
    1RG35   C4'    8   2.029   2.596   4.502 -0.0294 -0.0351  0.1906
    1RG35   H4'    9   2.017   2.703   4.487  0.5801  0.1183  0.7821
    1RG35   O4'   10   1.902   2.537   4.480 -0.2689 -0.1880  0.0666
    1RG35   C1'   11   1.829   2.563   4.592 -0.3601 -0.0400 -0.5952
    1RG35   H1'   12   1.769   2.653   4.581  1.5277  1.5341  1.4343
    1RG35    N9   13   1.750   2.442   4.615  0.1758 -0.5743  0.1851
    1RG35    C8   14   1.613   2.436   4.597 -0.6890 -0.0595  0.3839
    1RG35    H8   15   1.557   2.521   4.560  1.3355  0.8770 -0.6540
    1RG35    N7   16   1.560   2.325   4.638 -0.0997 -0.0477 -0.0661
    1RG35    C5   17   1.669   2.254   4.682 -0.0626  0.1405  0.0235
    1RG35    C6   18   1.670   2.120   4.736 -0.4134  0.7997 -0.0658
    1RG35    O6   19   1.582   2.032   4.750  0.1355 -0.2304 -0.7325
    1RG35    N1   20   1.797   2.077   4.768  0.2362 -0.5099 -0.6379
    1RG35    H1   21   1.806   1.981   4.797 -1.3629 -0.4240  0.1589
    1RG35    C2   22   1.905   2.148   4.759 -0.5814 -0.3475  0.0665
    1RG35    N2   23   2.023   2.101   4.791  0.0082 -0.1910 -0.7320
    1RG35   H21   24   2.036   2.001   4.802  0.6068  0.2574  3.7630
    1RG35   H22   25   2.104   2.151   4.756  0.3795 -0.0242  0.3405
    1RG35    N3   26   1.907   2.272   4.711  0.1433  0.0167 -0.2646
    1RG35    C4   27   1.784   2.322   4.674 -0.0048  0.0720 -0.1091
    1RG35   C3'   28   2.070   2.562   4.643 -0.3226 -0.0999 -0.9663
    1RG35   H3'   29   2.089   2.456   4.660  2.3767  0.3519 -0.9517
    1RG35   C2'   30   1.931   2.594   4.704  0.1582 -0.3063 -0.1845
    1RG35  H2'1   31   1.905   2.534   4.791  1.2956 -0.9442 -0.2833
    1RG35   O2'   32   1.931   2.736   4.735  0.2864  0.6125 -0.0983
    1RG35  HO'2   33   2.006   2.749   4.792  0.0475  1.8098 -0.0430
    1RG35   O3'   34   2.178   2.636   4.699  0.2148 -0.7204 -0.2359
    1RG35   H3T   35   2.246   2.569   4.687  0.2362 -0.8448  0.6143
    1RG35   O3P   36   2.263   2.392   4.200 -0.0410 -0.4565  0.2555
    1SOL     OW   37   2.419   1.671   0.222  0.4962 -0.2514 -0.6417
    1SOL    HW2   38   2.447   1.587   0.185 -0.1400 -1.2164  1.0173
    1SOL    HW3   39   2.390   1.650   0.311 -0.6624  1.5502 -0.5557
    1SOL    MW4   40   2.419   1.657   0.229  0.2592 -0.1411 -0.4115
    1SOL     OW   41   4.253   3.566   0.709  0.2169 -0.1225 -0.6791
    1SOL    HW2   42   4.267   3.644   0.762  0.7284 -0.6194 -0.0868
    1SOL    HW3   43   4.170   3.531   0.740  0.7482 -0.6811  0.1349
    1SOL    MW4   44   4.244   3.572   0.720  0.3543 -0.2618 -0.4935
    1SOL     OW   45   2.565   0.547   0.466  0.8355  0.4699  0.1182
    1SOL    HW2   46   2.539   0.555   0.558 -1.0648  0.2436 -0.3818
    1SOL    HW3   47   2.583   0.637   0.438  1.1203  0.5712  0.6238
    1SOL    MW4   48   2.564   0.560   0.475  0.6225  0.4533  0.1189
    1SOL     OW   49   2.825   2.021   0.301 -0.1062 -0.1280 -0.3551
    1SOL    HW2   50   2.777   1.941   0.279 -0.0353 -0.5520  0.9826
    1SOL    HW3   51   2.898   1.991   0.354  0.2248  0.7747 -0.2926
    1SOL    MW4   52   2.828   2.007   0.305 -0.0532 -0.0651 -0.1704
    1SOL     OW   53   0.497   3.223   0.444  0.5909  0.4334 -0.1993
    1SOL    HW2   54   0.466   3.309   0.418 -0.3092  0.2301  0.1777
    1SOL    HW3   55   0.451   3.162   0.386  0.4750  0.1414  0.1979
    1SOL    MW4   56   0.487   3.226   0.433  0.4568  0.3681 -0.0971
    1SOL     OW   57   4.467   2.446   0.789 -0.7882  0.0729  0.0911
    1SOL    HW2   58   4.464   2.453   0.694 -2.0463  0.5183  0.1536
    1SOL    HW3   59   4.475   2.536   0.819 -0.5675 -0.0532  0.4065
    1SOL    MW4   60   4.467   2.459   0.780 -0.9251  0.1149  0.1410
    1SOL     OW   61   1.475   0.170   0.284 -0.5311 -0.0522  0.0040
    1SOL    HW2   62   1.550   0.137   0.334  0.3530  1.2414 -0.4200
    1SOL    HW3   63   1.404   0.176   0.348 -0.0733 -0.6128  0.5711
    1SOL    MW4   64   1.476   0.167   0.299 -0.3541  0.0445  0.0229
    1SOL     OW   65   4.251   0.028   0.339  0.5702 -0.0030  0.2002
    1SOL    HW2   66   4.268  -0.059   0.374 -2.1349 -0.2271  1.1008
    1SOL    HW3   67   4.159   0.046   0.362  0.9095  2.8591 -0.4216
    1SOL    MW4   68   4.241   0.019   0.346  0.2580  0.3450  0.2369
    1SOL     OW   69   2.769   1.581   0.428  0.1517 -0.4508 -0.0858
    1SOL    HW2   70   2.723   1.505   0.392 -0.3752 -0.6548  1.0091
    1SOL    HW3   71   2.731   1.656   0.383  0.2104 -0.7779 -0.6914
    1SOL    MW4   72   2.758   1.581   0.417  0.0901 -0.5209 -0.0212
    1SOL     OW   73   2.225   0.108   0.737 -0.0571  0.5290 -0.3122
    1SOL    HW2   74   2.285   0.058   0.791 -1.0555  0.2120  0.5170
    1SOL    HW3   75   2.274   0.125   0.656  0.4095 -1.5203 -0.4931
    1SOL    MW4   76   2.239   0.103   0.733 -0.1273  0.2168 -0.2267
    1SOL     OW   77   3.998   1.092   0.832 -0.0786  0.3912  0.1498
    1SOL    HW2   78   4.003   1.114   0.926  1.3805  0.3655  0.0873
    1SOL    HW3   79   3.925   1.145   0.799  0.0667  1.1948  1.0899
    1SOL    MW4   80   3.989   1.102   0.840  0.1328  0.4939  0.2656
    1SOL     OW   81   0.468   2.448   0.754 -0.5466 -0.1409 -0.1949
    1SOL    HW2   82   0.446   2.426   0.663  0.0535 -2.1006  0.0947
    1SOL    HW3   83   0.394   2.417   0.805  0.2340 -1.3627  0.2128
    1SOL    MW4   84   0.456   2.441   0.749 -0.3645 -0.5608 -0.1029
    1SOL     OW   85   4.355   0.331   0.421 -0.0697 -0.0474  0.0523
    1SOL    HW2   86   4.270   0.302   0.388 -0.3434  1.1762 -0.3392
    1SOL    HW3   87   4.406   0.250   0.430 -0.7974 -0.6477 -1.0502
    1SOL    MW4   88   4.351   0.316   0.418 -0.2017  0.0349 -0.1448
    1SOL     OW   89   3.984   1.898   0.837  0.2151  0.3548  0.1810
    1SOL    HW2   90   4.010   1.812   0.806  1.1492  0.7748 -0.2235
    1SOL    HW3   91   3.990   1.893   0.932  2.0280  0.5118  0.0875
    1SOL    MW4   92   3.988   1.886   0.845  0.5774  0.4309  0.1153
    1SOL     OW   93   3.620   3.472   0.493  0.0852 -0.0379  0.0360
    1SOL    HW2   94   3.593   3.507   0.578 -0.7705  0.4292 -0.4186
    1SOL    HW3   95   3.686   3.532   0.461 -0.7148  0.6666 -0.3233
    1SOL    MW4   96   3.625   3.484   0.500 -0.1333  0.1166 -0.0714
    1SOL     OW   97   1.092   0.815   0.288 -0.0644 -0.2313 -0.3916
    1SOL    HW2   98   1.145   0.834   0.210 -0.0317 -2.4552 -0.9414
    1SOL    HW3   99   1.126   0.731   0.320 -0.3282  0.4622  1.8241
    1SOL    MW4  100   1.104   0.806   0.282 -0.0947 -0.4332 -0.1718
    1SOL     OW  101   3.202   4.362   0.341  0.0948 -0.2441  0.2636
    1SOL    HW2  102   3.144   4.353   0.265 -0.0459 -1.8128  0.5341
    1SOL    HW3  103   3.164   4.434   0.392  0.9379  1.6909 -1.7991
    1SOL    MW4  104   3.189   4.370   0.338  0.1876 -0.1960  0.0271
    1SOL     OW  105   1.908   0.689   0.381 -0.0271 -0.3683  0.3978
    1SOL    HW2  106   1.872   0.678   0.293  0.3039  2.0224 -0.0980
    1SOL    HW3  107   1.954   0.608   0.399 -0.9678 -1.2860 -1.2320
    1SOL    MW4  108   1.909   0.677   0.372 -0.1074 -0.1739  0.1174
    1SOL     OW  109   2.114   2.841   0.440 -0.0084  0.1795 -0.4979
    1SOL    HW2  110   2.208   2.843   0.455 -0.0771  1.3978 -0.2175
    1SOL    HW3  111   2.095   2.749   0.419  1.2057 -0.1015 -0.3820
    1SOL    MW4  112   2.124   2.829   0.439  0.1428  0.3033 -0.4456
    1SOL     OW  113   0.005   0.333   0.819  0.3621 -0.0974 -0.3349
    1SOL    HW2  114  -0.001   0.350   0.913  0.1458  0.7701 -0.4993
    1SOL    HW3  115   0.098   0.342   0.799  0.3881 -0.1357 -0.2286
    1SOL    MW4  116   0.016   0.336   0.829  0.3371  0.0120 -0.3425
    1SOL     OW  117   2.447   2.493   0.536  0.5073  0.3251 -0.4316
    1SOL    HW2  118   2.403   2.475   0.619  1.4267 -0.4512 -0.1086
    1SOL    HW3  119   2.379   2.485   0.470  0.0554 -0.3498  0.1161
    1SOL    MW4  120   2.433   2.490   0.538  0.5691  0.1335 -0.3167
    1SOL     OW  121   0.283   0.319   0.764  0.4579 -0.2158 -0.4061
    1SOL    HW2  122   0.303   0.367   0.684  1.9869  1.9486  1.2164
    1SOL    HW3  123   0.339   0.241   0.761  0.9552  0.1685 -1.1489
    1SOL    MW4  124   0.293   0.315   0.753  0.7253  0.1205 -0.2900
    1SOL     OW  125   3.795   1.252   0.729 -0.2187  0.2352  0.1228
    1SOL    HW2  126   3.773   1.297   0.648 -0.4666  0.0486  0.0863
    1SOL    HW3  127   3.713   1.213   0.758 -0.6246  2.0524  1.5623
    1SOL    MW4  128   3.781   1.253   0.722 -0.3049  0.4503  0.3079
    1SOL     OW  129   0.477   4.016   0.716 -0.0849 -0.1465 -0.3219
    1SOL    HW2  130   0.517   4.035   0.631  1.6548  0.4084  0.6165
    1SOL    HW3  131   0.449   4.101   0.749 -1.8624 -0.4938 -0.8463
    1SOL    MW4  132   0.478   4.030   0.709 -0.0899 -0.1187 -0.2673
    1SOL     OW  133   0.212   4.626   0.828  0.1232 -0.2684  0.2793
    1SOL    HW2  134   0.130   4.673   0.810 -0.1682 -1.1683 -0.7714
    1SOL    HW3  135   0.273   4.656   0.761  0.3461 -0.3794  0.4293
    1SOL    MW4  136   0.209   4.636   0.817  0.1142 -0.4015  0.1605
    1SOL     OW  137   4.302   2.091   0.522  0.3874 -0.1116 -0.5740
    1SOL    HW2  138   4.265   2.082   0.609  0.5359 -0.1056 -0.5103
    1SOL    HW3  139   4.242   2.043   0.465 -0.9943  1.8364 -0.8123
    1SOL    MW4  140   4.289   2.083   0.526  0.2246  0.1462 -0.5970
    1SOL     OW  141   2.016   2.329   0.782  0.0446  0.1476  0.2907
    1SOL    HW2  142   1.996   2.318   0.875  0.2250 -0.0187  0.3097
    1SOL    HW3  143   1.938   2.371   0.745 -0.7721 -1.4517  0.1559
    1SOL    MW4  144   2.003   2.333   0.789 -0.0396 -0.0854  0.2755
    1SOL     OW  145   4.184   3.988   0.465  0.2778 -0.0010 -0.2073
    1SOL    HW2  146   4.278   3.979   0.457  0.4149  1.2420 -0.1471
    1SOL    HW3  147   4.165   4.073   0.425 -0.6751  0.2777  0.8148
    1SOL    MW4  148   4.194   3.998   0.459  0.1698  0.1998 -0.0645
    1SOL     OW  149   0.498   4.380   0.574 -0.0477 -0.4921 -0.0570
    1SOL    HW2  150   0.453   4.356   0.655 -2.4688  0.4058 -1.0995
    1SOL    HW3  151   0.471   4.470   0.557  0.6923 -0.5527 -1.7012
    1SOL    MW4  152   0.488   4.389   0.582 -0.2695 -0.3815 -0.4115
    1SOL     OW  153   1.536   2.327   0.808 -0.3085  0.1774  0.1584
    1SOL    HW2  154   1.449   2.363   0.798 -0.4698 -0.3431 -0.3632
    1SOL    HW3  155   1.523   2.232   0.812  0.3698 -0.0074 -1.6183
    1SOL    MW4  156   1.523   2.319   0.808 -0.2402  0.0844 -0.1448
    1SOL     OW  157   2.043   3.063   0.844  0.1680 -0.0758 -0.1655
    1SOL    HW2  158   2.040   2.984   0.790 -1.0791 -0.8368  0.9966
    1SOL    HW3  159   1.974   3.119   0.808 -0.1749 -0.2828  0.1625
    1SOL    MW4  160   2.034   3.060   0.832 -0.0417 -0.2034  0.0311
    1SOL     OW  161   2.490   2.679   0.255  0.7071  0.5928 -0.0820
    1SOL    HW2  162   2.441   2.598   0.238  1.1664  0.2887  0.0412
    1SOL    HW3  163   2.570   2.650   0.297  0.4420  1.1944  0.8515
    1SOL    MW4  164   2.494   2.664   0.258  0.7327  0.6320  0.0574
    1SOL     OW  165   0.225   4.615   0.327 -0.6629 -0.3179  0.0367
    1SOL    HW2  166   0.153   4.675   0.347  0.5247  1.4752 -0.9322
    1SOL    HW3  167   0.191   4.529   0.349 -3.9895  0.1827 -2.6240
    1SOL    MW4  168   0.211   4.612   0.332 -0.9451 -0.0143 -0.4421
    1SOL     OW  169   1.773   2.898   0.213  0.2517  0.0344  0.9444
    1SOL    HW2  170   1.711   2.965   0.185 -0.5298 -0.9251  0.3666
    1SOL    HW3  171   1.725   2.848   0.279  0.5536 -0.4502  0.7937
    1SOL    MW4  172   1.758   2.901   0.218  0.1885 -0.1562  0.8482
    1SOL     OW  173   2.656   0.168   0.485  0.2966 -0.4241 -0.0031
    1SOL    HW2  174   2.668   0.152   0.579 -0.9240 -0.9051  0.0752
    1SOL    HW3  175   2.690   0.257   0.472  0.1715 -0.2277  0.9564
    1SOL    MW4  176   2.662   0.178   0.496  0.1190 -0.4616  0.1338
    1SOL     OW  177   0.416   1.415   0.473  0.0275  0.1040 -0.5543
    1SOL    HW2  178   0.384   1.495   0.430 -0.1393  1.1077  1.3644
    1SOL    HW3  179   0.342   1.387   0.528  0.0008 -1.5201 -1.3940
    1SOL    MW4  180   0.402   1.422   0.475  0.0020  0.0222 -0.4120
    1SOL     OW  181   3.362   0.686   0.872  0.2353  0.5031  0.1371
    1SOL    HW2  182   3.346   0.615   0.809  0.8584 -0.8702  1.5089
    1SOL    HW3  183   3.441   0.729   0.838  0.4800 -0.1307 -0.1188
    1SOL    MW4  184   3.370   0.682   0.859  0.3498  0.2383  0.2843
    1SOL     OW  185   1.839   3.214   0.713 -0.4057 -0.0438 -0.3157
    1SOL    HW2  186   1.846   3.192   0.620  0.0649 -0.4598 -0.1831
    1SOL    HW3  187   1.766   3.160   0.745  0.3041 -0.9033 -0.1443
    1SOL    MW4  188   1.830   3.204   0.705 -0.2501 -0.2122 -0.2756
    1SOL     OW  189   2.011   2.816   0.724  0.3712  0.2406  0.2508
    1SOL    HW2  190   2.037   2.803   0.632  2.2566  2.7719  0.3643
    1SOL    HW3  191   2.088   2.790   0.774 -0.5400 -0.8232  1.1053
    1SOL    MW4  192   2.025   2.811   0.718  0.4997  0.4344  0.3786
    1SOL     OW  193   2.654   1.794   0.311 -0.2075 -0.7097  0.2121
    1SOL    HW2  194   2.583   1.755   0.259 -0.1855 -0.1794 -0.2248
    1SOL    HW3  195   2.609   1.854   0.371 -0.1911 -0.9539  0.4701
    1SOL    MW4  196   2.638   1.797   0.312 -0.2024 -0.6719  0.1885
    1SOL     OW  197   3.557   1.923   0.880 -0.1471  0.0108 -0.0626
    1SOL    HW2  198   3.620   1.964   0.820 -1.1106  0.3423 -0.8462
    1SOL    HW3  199   3.550   1.833   0.849 -0.0049 -0.0471  0.0721
    1SOL    MW4  200   3.565   1.916   0.868 -0.2553  0.0470 -0.1482
    1SOL     OW  201   0.214   2.801   0.773 -0.2304  0.5522  0.4794
    1SOL    HW2  202   0.293   2.764   0.812 -0.7487 -0.8057  0.2952
    1SOL    HW3  203   0.223   2.895   0.784  0.7362  0.3214  1.7314
    1SOL    MW4  204   0.226   2.809   0.779 -0.1712  0.3424  0.6204
    1SOL     OW  205   1.652   4.485   0.278  0.0456  0.0998 -0.3141
    1SOL    HW2  206   1.584   4.511   0.216  0.2395 -0.8646 -0.9588
    1SOL    HW3  207   1.704   4.564   0.293 -0.4593  0.5236 -0.7989
    1SOL    MW4  208   1.650   4.499   0.272  0.0046  0.0281 -0.4632
    1SOL     OW  209   0.209   2.580   0.358 -0.2130  0.0360 -0.5687
    1SOL    HW2  210   0.210   2.590   0.263 -0.4761 -0.4139 -0.6157
    1SOL    HW3  211   0.117   2.588   0.383 -0.3956 -1.9262 -0.5634
    1SOL    MW4  212   0.197   2.583   0.349 -0.2718 -0.2823 -0.5742
    1SOL     OW  213   2.474   2.036   0.709 -0.2509  0.1774 -0.1073
    1SOL    HW2  214   2.485   2.079   0.624  0.3830  0.4103  0.0852
    1SOL    HW3  215   2.497   2.104   0.773 -3.2528  0.8044  0.3671
    1SOL    MW4  216   2.479   2.051   0.706 -0.5634  0.2909 -0.0193
    1SOL     OW  217   2.954   3.073   0.818  0.0451  0.2123  0.1217
    1SOL    HW2  218   2.873   3.113   0.785  0.6762  0.2452 -1.4560
    1SOL    HW3  219   2.952   2.984   0.781 -0.6287 -0.7314  2.3792
    1SOL    MW4  220   2.943   3.066   0.809  0.0393  0.0925  0.2114
    1SOL     OW  221   0.887   4.235   0.793 -0.3087  0.2688 -0.0458
    1SOL    HW2  222   0.895   4.143   0.767 -2.4756  0.3258 -1.0403
    1SOL    HW3  223   0.975   4.270   0.786  0.1823 -1.2279 -1.6109
    1SOL    MW4  224   0.899   4.227   0.789 -0.5299  0.0792 -0.3835
    1SOL     OW  225   2.860   1.175   0.454 -0.2114 -0.0284 -0.1119
    1SOL    HW2  226   2.947   1.147   0.424 -0.2188 -0.5898  0.4036
    1SOL    HW3  227   2.870   1.190   0.548 -0.7679 -0.4544  0.0166
    1SOL    MW4  228   2.873   1.173   0.462 -0.2861 -0.1585 -0.0269
    1SOL     OW  229   1.244   3.513   0.321 -0.3307  0.0481 -0.1671
    1SOL    HW2  230   1.297   3.558   0.255 -0.8327 -0.0248 -0.6222
    1SOL    HW3  231   1.204   3.583   0.372 -0.1504  0.1078 -0.1091
    1SOL    MW4  232   1.246   3.528   0.319 -0.3731  0.0465 -0.2195
    1SOL     OW  233   1.902   0.296   0.288  0.3850 -0.2535 -0.0568
    1SOL    HW2  234   1.979   0.275   0.235  0.2745 -1.0739  0.1053
    1SOL    HW3  235   1.937   0.343   0.364  0.6845 -0.2380 -0.2062
    1SOL    MW4  236   1.917   0.299   0.291  0.4098 -0.3597 -0.0552
    1SOL     OW  237   0.586   4.117   0.487 -0.4619 -0.2968  0.2070
    1SOL    HW2  238   0.678   4.118   0.461 -0.1619  1.6149  1.2479
    1SOL    HW3  239   0.556   4.207   0.474 -1.8935 -0.6556  0.8704
    1SOL    MW4  240   0.594   4.129   0.482 -0.6112 -0.0916  0.4319
    1SOL     OW  241   0.414   2.411   0.479 -0.4292 -0.1214 -0.0053
    1SOL    HW2  242   0.380   2.323   0.459  0.0015 -0.0878 -0.9188
    1SOL    HW3  243   0.351   2.471   0.440 -0.5589 -0.0284  0.3472
    1SOL    MW4  244   0.401   2.407   0.471 -0.3895 -0.1044 -0.0793
    1SOL     OW  245   1.747   0.661   0.154 -0.4628 -0.3067 -0.5243
    1SOL    HW2  246   1.812   0.628   0.092  0.3869 -1.1667  0.8120
    1SOL    HW3  247   1.688   0.586   0.168 -0.5917 -0.1479 -0.2162
    1SOL    MW4  248   1.748   0.647   0.147 -0.3675 -0.3992 -0.3074
    1SOL     OW  249   0.239   3.874   0.773 -0.4455  0.2293  0.0378
    1SOL    HW2  250   0.231   3.886   0.868 -0.9839  1.3526 -0.1403
    1SOL    HW3  251   0.312   3.930   0.748 -0.5732  0.2586 -0.2691
    1SOL    MW4  252   0.247   3.883   0.782 -0.5334  0.3812 -0.0262
    1SOL     OW  253   2.157   0.806   0.495  0.1113 -0.2493  0.4709
    1SOL    HW2  254   2.073   0.785   0.455 -0.0856  1.1811  0.1391
    1SOL    HW3  255   2.220   0.748   0.450 -0.7115 -1.5095  0.9034
    1SOL    MW4  256   2.154   0.795   0.484 -0.0231 -0.2269  0.4842
    1SOL     OW  257   0.426   0.875   0.755 -0.1689  0.7673  0.4890
    1SOL    HW2  258   0.363   0.811   0.789 -0.7598  1.7468  1.2652
    1SOL    HW3  259   0.511   0.843   0.785 -0.4779  0.4656  1.0604
    1SOL    MW4  260   0.429   0.862   0.763 -0.2876  0.8567  0.6668
    1SOL     OW  261   2.455   4.100   0.475 -0.4169 -0.0384 -0.0246
    1SOL    HW2  262   2.420   4.076   0.561 -0.6850  1.9034  0.4201
    1SOL    HW3  263   2.449   4.019   0.424 -0.3088 -1.2097  1.7548
    1SOL    MW4  264   2.450   4.086   0.480 -0.4380  0.0629  0.2688
    1SOL     OW  265   1.358   1.393   0.374 -0.1821  0.1520 -0.0144
    1SOL    HW2  266   1.431   1.343   0.410 -0.8173  0.0630  1.1811
    1SOL    HW3  267   1.280   1.343   0.401 -0.8753  2.2496  1.9579
    1SOL    MW4  268   1.357   1.380   0.382 -0.3573  0.4170  0.4036
    1SOL     OW  269   1.354   3.193   0.702  0.1036 -0.1324  0.2312
    1SOL    HW2  270   1.311   3.238   0.629  2.2323  0.8951 -0.4236
    1SOL    HW3  271   1.282   3.156   0.753 -1.5654  1.5896 -0.8068
    1SOL    MW4  272   1.339   3.194   0.699  0.1643  0.2303  0.0079
    1SOL     OW  273   3.836   0.785   0.552 -0.4160  0.3247  0.3075
    1SOL    HW2  274   3.921   0.799   0.593 -1.1846  1.0693  1.6805
    1SOL    HW3  275   3.800   0.874   0.541 -0.3026  0.1479 -1.8460
    1SOL    MW4  276   3.842   0.799   0.556 -0.5023  0.3996  0.2045
    1SOL     OW  277   2.390   0.112   0.516 -0.0535 -0.0771  0.4408
    1SOL    HW2  278   2.390   0.017   0.505 -0.1018  0.0741 -0.8428
    1SOL    HW3  279   2.482   0.138   0.508 -0.0177 -0.0237  0.9622
    1SOL    MW4  280   2.402   0.103   0.514 -0.0551 -0.0501  0.3402
    1SOL     OW  281   1.142   3.060   0.819 -0.0949 -0.1836 -0.2183
    1SOL    HW2  282   1.060   3.094   0.783  0.4293  0.3974 -0.8730
    1SOL    HW3  283   1.137   2.965   0.805 -0.9772 -0.2377  0.4241
    1SOL    MW4  284   1.131   3.052   0.812 -0.1421 -0.1142 -0.2199
    1SOL     OW  285   1.591   1.993   0.499 -0.2314  0.0613  0.0691
    1SOL    HW2  286   1.679   2.030   0.487 -0.1136 -0.6982 -1.6638
    1SOL    HW3  287   1.601   1.901   0.473 -1.4121 -0.1683  0.4254
    1SOL    MW4  288   1.604   1.986   0.494 -0.3717 -0.0693 -0.1125
    1SOL     OW  289   2.304   1.571   0.455  0.1768 -0.0325  0.1478
    1SOL    HW2  290   2.219   1.537   0.426  0.1889 -0.0717  0.1587
    1SOL    HW3  291   2.285   1.612   0.539  0.4375 -1.2587  0.8006
    1SOL    MW4  292   2.290   1.572   0.462  0.2127 -0.1994  0.2354
    1SOL     OW  293   0.724   3.071   0.873  0.2736  0.0287  0.0115
    1SOL    HW2  294   0.641   3.110   0.847 -0.2393  0.1840  1.8310
    1SOL    HW3  295   0.726   3.080   0.968  2.5052  0.2782 -0.0395
    1SOL    MW4  296   0.713   3.077   0.882  0.5004  0.0823  0.2448
    1SOL     OW  297   0.871   3.747   0.402  0.9742  0.0281 -0.2773
    1SOL    HW2  298   0.862   3.837   0.434  0.0228 -0.3610  0.6048
    1SOL    HW3  299   0.957   3.719   0.434  0.2795 -0.1603  1.5198
    1SOL    MW4  300   0.881   3.755   0.411  0.7570 -0.0484  0.0762
    1SOL     OW  301   1.200   3.268   0.477  0.4666 -0.7515 -0.1009
    1SOL    HW2  302   1.277   3.231   0.433  1.5179  0.0577  1.0395
    1SOL    HW3  303   1.186   3.352   0.433 -0.7205 -1.5531 -1.3370
    1SOL    MW4  304   1.208   3.274   0.465  0.4487 -0.7508 -0.1136
    1SOL     OW  305   1.789   0.912   0.715 -0.1760  0.1968  0.1387
    1SOL    HW2  306   1.793   1.000   0.752  1.7928 -0.0651  0.6291
    1SOL    HW3  307   1.863   0.866   0.755 -0.3667 -1.2776 -1.1478
    1SOL    MW4  308   1.800   0.917   0.725  0.0584 -0.0324  0.0336
    1SOL     OW  309   4.480   3.992   0.730  0.3459  0.0194 -0.1048
    1SOL    HW2  310   4.419   3.923   0.756  0.2107  0.1653 -0.0332
    1SOL    HW3  311   4.566   3.952   0.737  0.2164 -0.4138 -0.8893
    1SOL    MW4  312   4.483   3.978   0.734  0.3110 -0.0184 -0.1989
    1SOL     OW  313   3.375   4.653   0.881 -0.2673 -0.6031  0.2308
    1SOL    HW2  314   3.379   4.641   0.976 -0.4014 -1.6196  0.1147
    1SOL    HW3  315   3.454   4.702   0.860 -0.3535 -0.1678  0.8972
    1SOL    MW4  316   3.386   4.658   0.891 -0.2964 -0.6795  0.3034
    1SOL     OW  317   4.289   2.419   0.553  0.3754 -0.3077 -0.3336
    1SOL    HW2  318   4.195   2.429   0.570  0.0566 -2.0531 -0.8924
    1SOL    HW3  319   4.295   2.336   0.506  2.2950 -0.6581  0.4936
    1SOL    MW4  320   4.277   2.409   0.549  0.5865 -0.5844 -0.2981
    1SOL     OW  321   0.709   2.024   0.482  0.5002 -0.0079 -0.0446
    1SOL    HW2  322   0.631   1.990   0.439  0.2365  1.3153 -0.6321
    1SOL    HW3  323   0.782   1.981   0.438  0.1148 -1.0526  0.3291
    1SOL    MW4  324   0.708   2.014   0.471  0.4146  0.0288 -0.0728
    1SOL     OW  325   2.455   4.404   0.750 -0.6039  0.3036 -0.0227
    1SOL    HW2  326   2.383   4.342   0.763  0.3402 -0.8751 -0.3559
    1SOL    HW3  327   2.447   4.431   0.659  0.4535 -1.2113 -0.5733
    1SOL    MW4  328   2.444   4.400   0.740 -0.3397 -0.0515 -0.1394
    1SOL     OW  329   3.156   2.548   0.449  0.4105 -0.1513  0.3478
    1SOL    HW2  330   3.133   2.518   0.536  0.2730  0.7965  0.6477
    1SOL    HW3  331   3.116   2.484   0.390 -0.0354 -0.4426  0.9605
    1SOL    MW4  332   3.148   2.536   0.452  0.3338 -0.0648  0.4682
    1SOL     OW  333   2.757   3.894   0.483  0.0663  0.3870  0.0174
    1SOL    HW2  334   2.749   3.939   0.567  0.2818 -0.1226  0.3139
    1SOL    HW3  335   2.671   3.857   0.466 -0.3362  1.6040 -0.6248
    1SOL    MW4  336   2.745   3.895   0.491  0.0415  0.4804 -0.0282
    1SOL     OW  337   4.273   1.258   0.797 -0.2425  0.4235  0.4508
    1SOL    HW2  338   4.338   1.192   0.822 -0.6050 -0.2699 -0.3975
    1SOL    HW3  339   4.189   1.216   0.812 -0.4740  0.2218 -1.2576
    1SOL    MW4  340   4.271   1.244   0.802 -0.3209  0.3054  0.1135
    1SOL     OW  341   2.056   1.203   0.459 -0.0449  0.0066  0.0568
    1SOL    HW2  342   2.146   1.172   0.448  0.1030  0.2955  0.4674
    1SOL    HW3  343   2.006   1.154   0.392  0.2103 -0.9921  0.5818
    1SOL    MW4  344   2.061   1.192   0.448  0.0081 -0.0869  0.1802
    1SOL     OW  345   2.275   2.183   0.314 -0.2859 -0.1594  0.4269
    1SOL    HW2  346   2.359   2.181   0.360  1.2459  0.8279 -2.2326
    1SOL    HW3  347   2.260   2.093   0.286  0.7508 -0.0348 -0.5646
    1SOL    MW4  348   2.284   2.171   0.316  0.0529 -0.0124 -0.0548
    1SOL     OW  349   0.347   3.022   0.357  0.1463 -0.0298  0.3460
    1SOL    HW2  350   0.258   3.058   0.368  0.4010  1.5909 -2.4544
    1SOL    HW3  351   0.346   2.940   0.407 -2.7145  0.3109  0.9411
    1SOL    MW4  352   0.335   3.016   0.365 -0.1975  0.2291  0.0550
    1SOL     OW  353   0.703   2.978   0.206  0.0641 -0.0928 -0.2800
    1SOL    HW2  354   0.769   3.041   0.234 -0.5697  1.4117 -1.9709
    1SOL    HW3  355   0.641   3.031   0.155 -0.9611 -1.9526 -1.0153
    1SOL    MW4  356   0.703   2.994   0.203 -0.1547 -0.1397 -0.6001
    1SOL     OW  357   2.487   2.786   0.734  0.3777 -0.5437 -0.1017
    1SOL    HW2  358   2.505   2.874   0.766  1.4884 -0.9545  0.4500
    1SOL    HW3  359   2.570   2.739   0.746 -0.4818 -1.9332  0.5373
    1SOL    MW4  360   2.501   2.791   0.740  0.4110 -0.7811  0.0554
    1SOL     OW  361   3.300   4.154   0.479 -0.5599 -0.1536 -0.5192
    1SOL    HW2  362   3.392   4.178   0.491 -0.6546  0.3100 -0.6989
    1SOL    HW3  363   3.263   4.227   0.431 -1.5917  0.8264  1.6994
    1SOL    MW4  364   3.308   4.167   0.474 -0.7086  0.0367 -0.2502
    1SOL     OW  365   3.415   3.059   0.836  0.2004 -0.0527  0.1547
    1SOL    HW2  366   3.333   3.100   0.806  0.7230  1.6038  0.9222
    1SOL    HW3  367   3.407   3.054   0.931  0.9526  0.0641  0.2316
    1SOL    MW4  368   3.403   3.064   0.844  0.3686  0.1812  0.2661
    1SOL     OW  369   2.498   1.427   0.107 -0.1723 -0.0397 -0.0163
    1SOL    HW2  370   2.548   1.410   0.187  0.2452  1.9036  0.1832
    1SOL    HW3  371   2.564   1.442   0.040 -0.5228 -1.4927 -0.7103
    1SOL    MW4  372   2.513   1.427   0.109 -0.1633  0.0249 -0.0816
    1SOL     OW  373   4.207   2.064   0.793 -0.1894  0.1547 -0.3002
    1SOL    HW2  374   4.290   2.021   0.813  0.0892  1.1928  0.8398
    1SOL    HW3  375   4.141   1.995   0.801  0.5803 -0.7067 -1.3622
    1SOL    MW4  376   4.209   2.049   0.797 -0.0510  0.1779 -0.2899
    1SOL     OW  377   0.361   0.494   0.576 -0.2356 -0.1250 -0.4435
    1SOL    HW2  378   0.355   0.589   0.566 -2.9504 -0.2020  0.0388
    1SOL    HW3  379   0.324   0.459   0.495  0.4907 -0.7881 -0.4940
    1SOL    MW4  380   0.355   0.502   0.564 -0.4979 -0.2227 -0.3865
    1SOL     OW  381   4.282   3.090   0.862 -0.0271  0.1030  0.4302
    1SOL    HW2  382   4.210   3.126   0.812  0.1580  0.6441  0.5543
    1SOL    HW3  383   4.360   3.130   0.825  0.1994 -0.3338  0.4211
    1SOL    MW4  384   4.283   3.100   0.851  0.0277  0.1166  0.4454
    1SOL     OW  385   0.172   2.090   0.790 -0.2432  0.5774 -0.0595
    1SOL    HW2  386   0.257   2.045   0.790 -0.2967  0.4751 -0.0063
    1SOL    HW3  387   0.192   2.178   0.821 -0.0018  0.8513 -0.9857
    1SOL    MW4  388   0.186   2.096   0.794 -0.2184  0.6003 -0.1747
    1SOL     OW  389   4.454   4.262   0.835  0.4738 -0.5089  0.0210
    1SOL    HW2  390   4.436   4.268   0.928  1.1855 -0.6317  0.1707
    1SOL    HW3  391   4.444   4.169   0.814 -1.6668 -0.2043 -0.4475
    1SOL    MW4  392   4.451   4.251   0.844  0.2851 -0.4849 -0.0210
    1SOL     OW  393   2.012   3.055   0.300 -0.1908  0.4709 -0.2145
    1SOL    HW2  394   2.048   2.992   0.363 -0.8678 -0.6741 -0.9549
    1SOL    HW3  395   1.944   3.006   0.254  0.2838  1.3023 -1.8301
    1SOL    MW4  396   2.008   3.040   0.302 -0.2172  0.4294 -0.5254
    1SOL     OW  397   2.946   2.018   0.705 -0.0171 -0.2023 -0.4589
    1SOL    HW2  398   3.004   1.977   0.769 -0.6154  0.6002  0.6077
    1SOL    HW3  399   2.862   1.974   0.718 -0.0871 -0.1947 -0.8648
    1SOL    MW4  400   2.943   2.007   0.715 -0.1051 -0.0954 -0.3717
    1SOL     OW  401   1.752   0.088   0.686  0.7039 -0.2276 -0.2999
    1SOL    HW2  402   1.686   0.027   0.716  1.1074 -0.0350  1.0351
    1SOL    HW3  403   1.836   0.045   0.706  0.9851  0.5142  0.1924
    1SOL    MW4  404   1.755   0.074   0.693  0.7943 -0.1043 -0.0587
    1SOL     OW  405   2.412   4.519   0.499  0.0698 -0.4880 -0.5722
    1SOL    HW2  406   2.367   4.448   0.452  0.2012  0.1197 -1.6194
    1SOL    HW3  407   2.505   4.499   0.488  0.0959 -0.6732 -0.0483
    1SOL    MW4  408   2.418   4.507   0.492  0.0901 -0.4315 -0.6413
    1SOL     OW  409   1.512   2.056   0.782  0.4165 -0.0255  0.2656
    1SOL    HW2  410   1.524   2.033   0.690  0.8585 -0.7956  0.5165
    1SOL    HW3  411   1.429   2.015   0.805 -0.0351  0.7398  0.0292
    1SOL    MW4  412   1.502   2.048   0.773  0.4153 -0.0262  0.2674
    1SOL     OW  413   0.875   0.900   0.429 -0.1999  0.2291  0.0068
    1SOL    HW2  414   0.942   0.860   0.375 -0.3515  0.2251 -0.1805
    1SOL    HW3  415   0.797   0.847   0.414  0.0791 -0.5402  1.2072
    1SOL    MW4  416   0.873   0.888   0.420 -0.1830  0.1271  0.1405
    1SOL     OW  417   1.699   3.683   0.501 -0.5093 -0.2402 -0.1692
    1SOL    HW2  418   1.763   3.754   0.505 -0.9165  0.0866  1.2516
    1SOL    HW3  419   1.744   3.611   0.458  0.7804  0.0152  0.7181
    1SOL    MW4  420   1.713   3.683   0.496 -0.3929 -0.1633  0.1354
    1SOL     OW  421   1.511   3.844   0.368 -0.0105  0.2871  0.5091
    1SOL    HW2  422   1.567   3.918   0.344  1.5347 -1.0452 -0.0996
    1SOL    HW3  423   1.567   3.789   0.423 -0.6665 -1.1342 -0.2186
    1SOL    MW4  424   1.526   3.847   0.372  0.1069 -0.0761  0.3327
    1SOL     OW  425   1.098   1.570   0.802  0.1248  0.2878  0.2504
    1SOL    HW2  426   1.127   1.479   0.804 -0.9916 -0.0720  0.5080
    1SOL    HW3  427   1.171   1.618   0.764  0.6909 -0.7322  0.0455
    1SOL    MW4  428   1.111   1.564   0.797  0.0522  0.1057  0.2574
    1SOL     OW  429   1.330   0.121   0.702 -0.2770 -0.0942 -0.3511
    1SOL    HW2  430   1.406   0.070   0.731 -0.0358  0.3291 -0.2452
    1SOL    HW3  431   1.343   0.208   0.740 -2.0946 -0.7000  1.8287
    1SOL    MW4  432   1.342   0.126   0.711 -0.4849 -0.1183 -0.0495
    1SOL     OW  433   3.320   1.869   0.545  0.3406  0.1031 -0.2877
    1SOL    HW2  434   3.297   1.781   0.515  0.2281  0.2073 -0.5088
    1SOL    HW3  435   3.412   1.879   0.522 -0.0512  0.6434 -1.7373
    1SOL    MW4  436   3.329   1.859   0.538  0.2742  0.1880 -0.5081
    1SOL     OW  437   1.932   1.103   0.231 -0.1551  0.5689 -0.4519
    1SOL    HW2  438   1.899   1.182   0.188  2.0075  1.6093 -0.2664
    1SOL    HW3  439   1.871   1.034   0.204 -1.5970  2.1344 -1.2862
    1SOL    MW4  440   1.920   1.104   0.222 -0.0601  0.9127 -0.5375
    1SOL     OW  441   0.918   3.975   0.713 -0.2170  0.0118 -0.6713
    1SOL    HW2  442   0.838   3.922   0.723 -0.2848  0.3343  0.5895
    1SOL    HW3  443   0.984   3.929   0.765  0.2251  0.1466 -1.1123
    1SOL    MW4  444   0.916   3.962   0.722 -0.1676  0.0722 -0.5631
    1SOL     OW  445   4.043   2.696   0.837 -0.1333  0.3420  0.3545
    1SOL    HW2  446   4.034   2.608   0.801 -0.8508  0.2737  0.6849
    1SOL    HW3  447   4.115   2.735   0.788 -0.5961 -0.0111 -0.6179
    1SOL    MW4  448   4.051   2.689   0.826 -0.2894  0.2866  0.2697
    1SOL     OW  449   3.842   3.676   0.469 -0.1063 -0.3675  0.2784
    1SOL    HW2  450   3.783   3.747   0.443 -0.0042  0.2541  1.7276
    1SOL    HW3  451   3.928   3.705   0.439 -0.2730 -0.5129 -0.3518
    1SOL    MW4  452   3.846   3.689   0.462 -0.1149 -0.3049  0.3865
    1SOL     OW  453   1.098   0.384   0.456  0.3254  0.1763  0.1839
    1SOL    HW2  454   1.119   0.402   0.548  0.4517  0.6786  0.0572
    1SOL    HW3  455   1.135   0.458   0.408 -1.6961  1.0806 -0.0427
    1SOL    MW4  456   1.106   0.396   0.462  0.0755  0.3618  0.1374
    1SOL     OW  457   2.700   0.917   0.752  0.0329 -0.3475  0.2655
    1SOL    HW2  458   2.687   0.998   0.801 -0.9679 -0.7525  0.6900
    1SOL    HW3  459   2.754   0.862   0.809 -0.8828 -0.7041  0.8033
    1SOL    MW4  460   2.705   0.920   0.766 -0.2201 -0.4479  0.3925
    1SOL     OW  461   1.761   1.939   0.839 -0.4796 -0.1134 -0.5611
    1SOL    HW2  462   1.670   1.967   0.829 -0.7147 -0.8220 -0.4187
    1SOL    HW3  463   1.762   1.850   0.803 -0.2744 -0.8623  1.2826
    1SOL    MW4  464   1.749   1.931   0.833 -0.4835 -0.3057 -0.2991
    1SOL     OW  465   1.953   0.660   9.966  0.5047 -0.3766 -0.1896
    1SOL    HW2  466   2.031   0.700  10.003  0.2969 -0.7469  0.6532
    1SOL    HW3  467   1.963   0.672   9.871  0.7746  1.0408  0.0057
    1SOL    MW4  468   1.965   0.667   9.958  0.5130 -0.2384 -0.0534
    1SOL     OW  469   0.882   3.467   0.850  0.1480 -0.1352 -0.0003
    1SOL    HW2  470   0.882   3.383   0.804 -0.9758 -0.6368  0.8864
    1SOL    HW3  471   0.807   3.514   0.813  0.7907  0.5014 -0.5136
    1SOL    MW4  472   0.872   3.462   0.839  0.0845 -0.1173  0.0489
    1SOL     OW  473   2.022   1.289   0.756 -0.3611 -0.0564  0.3188
    1SOL    HW2  474   2.029   1.251   0.669  0.2925  1.6478 -0.4042
    1SOL    HW3  475   2.079   1.234   0.811 -1.2167 -1.4711 -0.1871
    1SOL    MW4  476   2.031   1.277   0.752 -0.3874 -0.0182  0.1568
    1SOL     OW  477   4.215   3.420   0.463  0.3232 -0.1030  0.2206
    1SOL    HW2  478   4.237   3.458   0.548 -0.2259  1.8024 -0.4752
    1SOL    HW3  479   4.181   3.493   0.411 -0.9566 -1.5770 -1.0787
    1SOL    MW4  480   4.214   3.434   0.467  0.0825 -0.0463 -0.0426
    1SOL     OW  481   0.425   1.676   0.704 -0.2262  0.1372 -0.4014
    1SOL    HW2  482   0.490   1.635   0.762 -0.7229  0.4333  0.3779
    1SOL    HW3  483   0.402   1.758   0.748 -0.5504  0.4076 -1.0655
    1SOL    MW4  484   0.430   1.681   0.718 -0.3345  0.2118 -0.3862
    1SOL     OW  485   1.159   4.566   0.350 -0.3280  0.6804  0.0218
    1SOL    HW2  486   1.203   4.643   0.385  1.0855 -0.2874  0.4344
    1SOL    HW3  487   1.076   4.562   0.397 -0.4302  1.9776 -0.0477
    1SOL    MW4  488   1.154   4.575   0.361 -0.1550  0.7243  0.0670
    1SOL     OW  489   1.285   2.439   0.736  0.1849  0.4628 -0.1980
    1SOL    HW2  490   1.281   2.443   0.641  1.4709 -1.0246 -0.3357
    1SOL    HW3  491   1.302   2.529   0.764 -1.9373  1.2083 -1.2637
    1SOL    MW4  492   1.287   2.451   0.727  0.0746  0.3650 -0.3569
    1SOL     OW  493   1.650   2.731   0.446 -0.5151 -0.1846  0.1565
    1SOL    HW2  494   1.574   2.688   0.408  0.6405 -0.6030 -1.7484
    1SOL    HW3  495   1.616   2.774   0.524 -2.9360  0.5502 -1.2334
    1SOL    MW4  496   1.636   2.731   0.451 -0.6820 -0.1433 -0.2782
    1SOL     OW  497   3.078   4.534   0.535 -0.4009 -0.4168  0.0875
    1SOL    HW2  498   3.015   4.578   0.478 -2.1685 -0.8108  1.7118
    1SOL    HW3  499   3.091   4.596   0.608  1.2372 -0.2615 -0.3198
    1SOL    MW4  500   3.072   4.548   0.537 -0.4179 -0.4482  0.2480
    1SOL     OW  501   2.904   4.346   0.827  0.1375 -0.0599  0.2293
    1SOL    HW2  502   2.910   4.436   0.859  0.4508 -0.1388  0.3935
    1SOL    HW3  503   2.819   4.314   0.859  0.2060  0.0430  0.5132
    1SOL    MW4  504   2.893   4.353   0.836  0.1876 -0.0572  0.2884
    1SOL     OW  505   0.092   1.762   0.489 -0.2140  0.1022  0.0137
    1SOL    HW2  506   0.050   1.737   0.571 -3.6091 -0.2345 -1.7346
    1SOL    HW3  507   0.096   1.858   0.493  0.5416  0.0469  0.9471
    1SOL    MW4  508   0.087   1.772   0.501 -0.5623  0.0505 -0.0938
    1SOL     OW  509   1.567   1.297   0.766 -0.1303  0.5978  0.5541
    1SOL    HW2  510   1.555   1.297   0.671  0.9926 -2.3690  0.3369
    1SOL    HW3  511   1.498   1.239   0.799 -0.6100  1.7329  1.5755
    1SOL    MW4  512   1.557   1.289   0.758 -0.0453  0.3560  0.6602
    1SOL     OW  513   1.351   3.438   0.855 -0.4307  0.2173 -0.1414
    1SOL    HW2  514   1.422   3.493   0.823 -0.2579  0.4727  0.6616
    1SOL    HW3  515   1.367   3.352   0.816  1.6668 -0.3515  1.8727
    1SOL    MW4  516   1.362   3.434   0.846 -0.1314  0.1762  0.2304
    1SOL     OW  517   3.796   2.296   0.855 -0.3377 -0.2031 -0.2074
    1SOL    HW2  518   3.725   2.337   0.806 -1.0469  0.5631  1.4098
    1SOL    HW3  519   3.788   2.203   0.837 -0.5314  0.0782 -1.5980
    1SOL    MW4  520   3.786   2.289   0.846 -0.4570 -0.0651 -0.1774
    1SOL     OW  521   1.996   4.645   0.805  0.3944 -0.1375 -0.1966
    1SOL    HW2  522   2.070   4.698   0.777  0.5295 -0.5677 -0.6562
    1SOL    HW3  523   2.015   4.557   0.772  0.7495 -0.7534  1.5728
    1SOL    MW4  524   2.008   4.640   0.797  0.4592 -0.2756 -0.0238
    1SOL     OW  525   2.761   4.514   0.197 -0.1704 -0.0290  0.2801
    1SOL    HW2  526   2.725   4.463   0.269  0.5931  0.6098  1.1246
    1SOL    HW3  527   2.725   4.473   0.118 -0.2186 -1.3565  0.9773
    1SOL    MW4  528   2.752   4.501   0.196 -0.0758 -0.1197  0.4835
    1SOL     OW  529   1.247   0.147   0.441  0.4135  0.2810 -0.0756
    1SOL    HW2  530   1.191   0.224   0.449 -0.6365 -0.4277 -0.4593
    1SOL    HW3  531   1.267   0.123   0.532 -2.5897 -1.3536  0.2406
    1SOL    MW4  532   1.242   0.154   0.454 -0.1214 -0.0282 -0.0845
    1SOL     OW  533   0.610   2.078   0.725 -0.4009  0.1844 -0.3605
    1SOL    HW2  534   0.656   2.076   0.641  0.0964 -0.3006 -0.0780
    1SOL    HW3  535   0.653   2.148   0.774 -0.5480  0.3195 -0.4204
    1SOL    MW4  536   0.622   2.087   0.720 -0.3546  0.1380 -0.3312
    1SOL     OW  537   2.425   1.875   0.457 -0.1892  0.0292 -0.2921
    1SOL    HW2  538   2.402   1.842   0.544  0.2318  0.7585  0.0995
    1SOL    HW3  539   2.341   1.878   0.410 -0.7227  1.4871  0.7202
    1SOL    MW4  540   2.411   1.871   0.462 -0.2041  0.3178 -0.1069
    1SOL     OW  541   2.297   2.458   0.299  0.0784 -0.3539  0.1805
    1SOL    HW2  542   2.205   2.482   0.301 -0.2281 -1.5893  2.1450
    1SOL    HW3  543   2.296   2.362   0.295  1.2569 -0.4871  2.4611
    1SOL    MW4  544   2.285   2.448   0.299  0.1936 -0.5345  0.7406
    1SOL     OW  545   3.718   4.412   0.525  0.2547 -0.4919  0.0193
    1SOL    HW2  546   3.787   4.420   0.460  0.9836  0.1724  0.8655
    1SOL    HW3  547   3.650   4.473   0.496  0.2157 -0.8131 -0.5640
    1SOL    MW4  548   3.718   4.421   0.513  0.3457 -0.4468  0.0540
    1SOL     OW  549   1.996   2.166   0.273 -0.2586 -0.0998 -0.2342
    1SOL    HW2  550   2.089   2.189   0.271  0.0462 -1.3690 -1.9952
    1SOL    HW3  551   1.984   2.109   0.197 -2.1300 -1.2804  0.9095
    1SOL    MW4  552   2.007   2.162   0.263 -0.4654 -0.4230 -0.3156
    1SOL     OW  553   2.849   0.442   0.446  0.1770  0.1598 -0.1209
    1SOL    HW2  554   2.763   0.480   0.428 -0.7537 -2.2055 -1.0103
    1SOL    HW3  555   2.868   0.466   0.536 -0.0872  3.1306 -0.8176
    1SOL    MW4  556   2.840   0.450   0.456  0.0196  0.2397 -0.3301
    1SOL     OW  557   4.269   4.406   0.718  0.2813  0.3664  0.3556
    1SOL    HW2  558   4.348   4.367   0.755  1.2389  2.2880  0.3940
    1SOL    HW3  559   4.253   4.483   0.771 -1.7228 -0.0815  0.4306
    1SOL    MW4  560   4.278   4.411   0.730  0.1431  0.5603  0.3706
    1SOL     OW  561   1.565   0.819   0.832 -0.2107  0.0238  0.0737
    1SOL    HW2  562   1.634   0.858   0.779 -0.2930  0.9167  0.6157
    1SOL    HW3  563   1.484   0.836   0.784 -0.1378 -0.3703 -0.1912
    1SOL    MW4  564   1.563   0.826   0.819 -0.2120  0.0896  0.1102
    1SOL     OW  565   0.690   3.858   0.816 -0.3307  0.0599 -0.5814
    1SOL    HW2  566   0.636   3.924   0.773 -1.4155 -0.5843 -0.2179
    1SOL    HW3  567   0.651   3.775   0.790  0.1449 -0.3921  0.1399
    1SOL    MW4  568   0.678   3.856   0.807 -0.4111 -0.0846 -0.4383
    1SOL     OW  569   1.150   3.689   0.500 -0.5242 -0.6831 -0.0503
    1SOL    HW2  570   1.131   3.653   0.587  0.6833 -1.9129 -0.2782
    1SOL    HW3  571   1.201   3.768   0.517  0.8501 -1.6382  0.3389
    1SOL    MW4  572   1.154   3.694   0.514 -0.1837 -0.9718 -0.0290
    1SOL     OW  573   0.846   1.671   0.703 -0.2494  0.0433 -0.2197
    1SOL    HW2  574   0.843   1.762   0.732  0.5463  0.5940 -1.7960
    1SOL    HW3  575   0.937   1.645   0.715 -0.1680 -0.0880 -1.0995
    1SOL    MW4  576   0.858   1.679   0.708 -0.1336  0.0987 -0.5437
    1SOL     OW  577   4.291   1.650   0.454  0.4716  0.4853 -0.1926
    1SOL    HW2  578   4.376   1.691   0.437  1.1209 -0.6149  0.3690
    1SOL    HW3  579   4.311   1.576   0.511 -0.5113 -1.4208 -2.2793
    1SOL    MW4  580   4.305   1.646   0.459  0.4272  0.0885 -0.3938
    1SOL     OW  581   0.671   0.028   0.836  0.3271  0.5618  0.0058
    1SOL    HW2  582   0.666  -0.001   0.927 -2.3719  0.8407  0.0050
    1SOL    HW3  583   0.692  -0.051   0.787 -0.8085 -0.1347  0.6203
    1SOL    MW4  584   0.673   0.014   0.842 -0.1788  0.5064  0.0867
    1SOL     OW  585   0.204   3.576   0.793  0.3282  0.1459 -0.1197
    1SOL    HW2  586   0.220   3.671   0.794 -0.4276  0.2877  2.1639
    1SOL    HW3  587   0.290   3.538   0.813  0.1992  0.4426  1.0252
    1SOL    MW4  588   0.218   3.584   0.796  0.2115  0.2041  0.3327
    1SOL     OW  589   4.451   3.280   0.490  0.0577 -0.1922  0.3742
    1SOL    HW2  590   4.371   3.317   0.453  0.0511  0.8057  1.3793
    1SOL    HW3  591   4.518   3.347   0.474  0.4665 -0.5677  0.4910
    1SOL    MW4  592   4.450   3.294   0.483  0.1106 -0.1099  0.5222
    1SOL     OW  593   2.550   0.812   0.402  0.1259  0.2988 -0.4597
    1SOL    HW2  594   2.497   0.892   0.409 -0.0395  0.1449  0.0658
    1SOL    HW3  595   2.635   0.836   0.440 -0.4136 -0.2125  1.1208
    1SOL    MW4  596   2.555   0.826   0.408  0.0324  0.2110 -0.1819
    1SOL     OW  597   3.298   3.018   0.331 -0.5157 -0.5153 -0.0662
    1SOL    HW2  598   3.261   3.003   0.244 -1.0895  0.2690  0.0354
    1SOL    HW3  599   3.286   2.935   0.377 -0.4945 -0.8345 -0.6318
    1SOL    MW4  600   3.291   3.005   0.326 -0.5887 -0.4537 -0.1274
    1SOL     OW  601   2.692   1.889   0.783  0.2741  0.4571 -0.2648
    1SOL    HW2  602   2.613   1.935   0.755  0.3417  0.7597  0.0355
    1SOL    HW3  603   2.691   1.895   0.879 -0.9268 -2.1585 -0.0494
    1SOL    MW4  604   2.681   1.896   0.792  0.1245  0.1520 -0.1968
    1SOL     OW  605   1.365   4.222   0.834 -0.3779  0.7753  0.7842
    1SOL    HW2  606   1.280   4.246   0.796  0.1405 -0.7973 -1.5305
    1SOL    HW3  607   1.428   4.274   0.784  0.1953 -0.0042  0.6948
    1SOL    MW4  608   1.362   4.232   0.822 -0.2338  0.4654  0.4670
    1SOL     OW  609   2.082   3.546   0.476  0.1114 -0.2095 -0.0299
    1SOL    HW2  610   2.148   3.478   0.486 -0.4942 -0.8580 -0.3679
    1SOL    HW3  611   2.061   3.574   0.565  1.2701  0.4245  0.0486
    1SOL    MW4  612   2.088   3.541   0.489  0.1841 -0.2112 -0.0641
    1SOL     OW  613   2.919   4.637   0.883  0.2863  0.1362 -0.2696
    1SOL    HW2  614   2.995   4.662   0.830  0.2330  1.6942  0.3545
    1SOL    HW3  615   2.847   4.689   0.847 -0.2597 -0.5371 -0.1661
    1SOL    MW4  616   2.919   4.647   0.871  0.2074  0.2532 -0.1736
    1SOL     OW  617   2.493   3.797   0.400  0.1905 -0.1160  0.7588
    1SOL    HW2  618   2.522   3.706   0.408 -0.4106 -0.1763  2.4575
    1SOL    HW3  619   2.409   3.791   0.355  1.0045 -0.2368 -0.7840
    1SOL    MW4  620   2.486   3.784   0.395  0.2184 -0.1400  0.7794
    1SOL     OW  621   2.488   3.874   0.800 -0.2213  0.5031  0.2319
    1SOL    HW2  622   2.415   3.918   0.756 -1.1083 -0.4080  0.7903
    1SOL    HW3  623   2.489   3.786   0.763 -1.0561 -0.3138  2.1155
    1SOL    MW4  624   2.479   3.868   0.789 -0.4487  0.2751  0.5541
    1SOL     OW  625   2.517   3.079   0.360 -0.1026  0.3974  0.6360
    1SOL    HW2  626   2.481   3.009   0.414  0.4766 -1.0181 -0.7775
    1SOL    HW3  627   2.442   3.111   0.309 -0.1370 -0.0259  0.4124
    1SOL    MW4  628   2.502   3.074   0.360 -0.0305  0.1550  0.4200
    1SOL     OW  629   0.110   0.877   0.536  0.3113 -0.5193  0.1782
    1SOL    HW2  630   0.127   0.967   0.563  0.3380 -0.4621 -0.0239
    1SOL    HW3  631   0.080   0.885   0.445 -0.0382 -0.6868  0.2823
    1SOL    MW4  632   0.108   0.890   0.527  0.2687 -0.5338  0.1652
    1SOL     OW  633   3.956   1.636   0.439  0.0259 -0.5525  0.0188
    1SOL    HW2  634   4.026   1.599   0.384  0.1761  0.0101 -0.1714
    1SOL    HW3  635   3.991   1.630   0.528  0.9750  1.1460 -0.2156
    1SOL    MW4  636   3.970   1.630   0.443  0.1709 -0.2542 -0.0372
    1SOL     OW  637   4.021   2.962   0.363  0.0548 -0.0058 -0.7227
    1SOL    HW2  638   3.961   2.903   0.408  0.3591  0.0902 -0.1912
    1SOL    HW3  639   4.004   2.947   0.270  0.4785 -1.2867 -0.5942
    1SOL    MW4  640   4.011   2.952   0.356  0.1512 -0.1621 -0.6356
    1SOL     OW  641   3.655   1.370   0.508  0.0191 -0.1377  0.0713
    1SOL    HW2  642   3.566   1.349   0.481 -0.6479  1.2307  1.1680
    1SOL    HW3  643   3.663   1.464   0.497  1.5314 -0.3165 -0.5665
    1SOL    MW4  644   3.644   1.379   0.503  0.1307  0.0192  0.1318
    1SOL     OW  645   2.671   0.094   0.759 -0.0067 -0.6010  0.2351
    1SOL    HW2  646   2.676   0.187   0.780  1.1065 -0.4902 -0.4791
    1SOL    HW3  647   2.587   0.065   0.795 -0.3876  0.6929  0.3869
    1SOL    MW4  648   2.661   0.102   0.767  0.0899 -0.4157  0.1609
    1SOL     OW  649   3.325   1.330   0.498 -0.1352 -0.1396 -0.3399
    1SOL    HW2  650   3.262   1.270   0.459  0.3090 -0.9582  0.1992
    1SOL    HW3  651   3.324   1.310   0.591  0.2524  0.4708 -0.1992
    1SOL    MW4  652   3.317   1.319   0.505 -0.0250 -0.1671 -0.2502
    1SOL     OW  653   1.271   1.925   0.820 -0.2377 -0.0360 -0.0479
    1SOL    HW2  654   1.289   1.836   0.790 -2.4800 -0.6616  0.4186
    1SOL    HW3  655   1.284   1.921   0.915 -0.2840  0.1413 -0.0341
    1SOL    MW4  656   1.275   1.913   0.828 -0.5397 -0.0951  0.0154
    1SOL     OW  657   0.401   1.930   0.811 -0.5841  0.5273  0.1838
    1SOL    HW2  658   0.468   1.985   0.770 -1.2695  0.4534 -1.0348
    1SOL    HW3  659   0.421   1.935   0.905 -0.3434  2.4805  0.0477
    1SOL    MW4  660   0.412   1.938   0.818 -0.6428  0.7752  0.0050
    1SOL     OW  661   0.149   4.108   0.244  0.3146 -0.0683 -0.2000
    1SOL    HW2  662   0.095   4.145   0.174 -0.1650 -0.4885 -0.0508
    1SOL    HW3  663   0.088   4.060   0.300  0.7603 -0.1074  0.2652
    1SOL    MW4  664   0.134   4.107   0.242  0.3101 -0.1287 -0.1190
    1SOL     OW  665   0.909   3.199   0.718  0.0824  0.0820  0.5207
    1SOL    HW2  666   0.876   3.218   0.630 -0.4320 -0.3539  0.6187
    1SOL    HW3  667   0.841   3.146   0.759  0.8575 -0.7481  0.7601
    1SOL    MW4  668   0.896   3.194   0.712  0.1167 -0.0851  0.5653
    1SOL     OW  669   1.595   3.446   0.215  0.4507  0.2944  0.1540
    1SOL    HW2  670   1.688   3.462   0.227  0.1034  1.5150  1.2780
    1SOL    HW3  671   1.564   3.420   0.302 -0.5471  1.3993  0.1410
    1SOL    MW4  672   1.603   3.444   0.228  0.2733  0.6013  0.3005
    1SOL     OW  673   2.973   3.871   0.860 -0.1692 -0.1925  0.2287
    1SOL    HW2  674   2.893   3.910   0.826 -0.3786 -1.1131 -0.3591
    1SOL    HW3  675   2.955   3.853   0.952 -0.4604  0.0652  0.2200
    1SOL    MW4  676   2.960   3.873   0.868 -0.2351 -0.2801  0.1500
    1SOL     OW  677   0.904   1.191   0.411 -0.2939 -0.0014 -0.0330
    1SOL    HW2  678   0.816   1.228   0.422 -0.1719  0.4533 -0.5672
    1SOL    HW3  679   0.889   1.099   0.388 -0.6239 -0.0106  0.2254
    1SOL    MW4  680   0.890   1.184   0.409 -0.3214  0.0573 -0.0694
    1SOL     OW  681   1.565   3.576   0.719 -0.0950 -0.2840 -0.3404
    1SOL    HW2  682   1.631   3.522   0.763 -0.7978 -0.5970  0.3336
    1SOL    HW3  683   1.613   3.619   0.649  0.4373 -1.9095 -0.9936
    1SOL    MW4  684   1.580   3.575   0.716 -0.1175 -0.5398 -0.3377
    1SOL     OW  685   2.312   4.307   0.370 -0.0525 -0.4659 -0.3081
    1SOL    HW2  686   2.356   4.229   0.404 -0.9466 -0.7144  0.2851
    1SOL    HW3  687   2.219   4.292   0.388 -0.1076  1.3159  1.0270
    1SOL    MW4  688   2.306   4.295   0.377 -0.1779 -0.2637 -0.0536
    1SOL     OW  689   0.296   0.295   0.398  0.2494  0.1661  0.2331
    1SOL    HW2  690   0.218   0.249   0.426  0.1098 -0.3131 -0.9439
    1SOL    HW3  691   0.299   0.284   0.303  0.6205  1.9231  0.0136
    1SOL    MW4  692   0.286   0.288   0.389  0.2800  0.3347  0.0488
    1SOL     OW  693   4.165   4.251   0.358 -0.4107 -0.2770 -0.0861
    1SOL    HW2  694   4.094   4.315   0.366 -1.1363 -1.0988  0.1758
    1SOL    HW3  695   4.245   4.302   0.366 -0.9784  0.6226 -0.0856
    1SOL    MW4  696   4.166   4.266   0.360 -0.5813 -0.2670 -0.0514
    1SOL     OW  697   2.498   2.244   0.902 -0.0150 -0.0522 -0.5621
    1SOL    HW2  698   2.585   2.276   0.877 -0.6904  1.8385 -0.5447
    1SOL    HW3  699   2.437   2.301   0.855 -1.2662 -0.4701  0.5201
    1SOL    MW4  700   2.501   2.255   0.892 -0.2689  0.1419 -0.4170
    1SOL     OW  701   0.141   3.514   0.529 -0.0866  0.3019  0.1919
    1SOL    HW2  702   0.145   3.528   0.623 -2.1123  1.4213  0.1245
    1SOL    HW3  703   0.138   3.602   0.491 -0.1907 -0.1485 -0.8700
    1SOL    MW4  704   0.141   3.527   0.536 -0.3676  0.3903  0.0429
    1SOL     OW  705   3.131   1.896   0.868  0.0765  0.2984  0.5258
    1SOL    HW2  706   3.120   1.896   0.963  1.8618  2.5999  0.7789
    1SOL    HW3  707   3.213   1.943   0.853 -0.1793 -0.0054 -2.1676
    1SOL    MW4  708   3.141   1.902   0.878  0.2782  0.5621  0.2038
    1SOL     OW  709   2.545   3.518   0.461  0.2630 -0.3113 -0.1312
    1SOL    HW2  710   2.609   3.449   0.442 -0.3142 -0.9247  0.1253
    1SOL    HW3  711   2.460   3.477   0.443 -0.1635 -0.1546  1.4565
    1SOL    MW4  712   2.542   3.503   0.457  0.1304 -0.3715  0.1121
    1SOL     OW  713   1.535   4.288   0.440 -0.0291  0.0630  0.3441
    1SOL    HW2  714   1.443   4.277   0.416  0.0747 -0.2753  0.1064
    1SOL    HW3  715   1.563   4.366   0.392  0.2839 -0.8249 -0.9544
    1SOL    MW4  716   1.526   4.297   0.431  0.0260 -0.0982  0.1414
    1SOL     OW  717   3.158   2.669   0.848 -0.4192 -0.0806 -0.1444
    1SOL    HW2  718   3.139   2.591   0.796  0.3973 -0.8634  0.7097
    1SOL    HW3  719   3.241   2.702   0.813 -0.0010 -0.4579  0.4945
    1SOL    MW4  720   3.167   2.663   0.836 -0.2565 -0.2337  0.0525
    1SOL     OW  721   2.699   0.355   0.846 -0.7530  0.0264 -0.6495
    1SOL    HW2  722   2.715   0.387   0.934  0.5070 -1.7120 -0.2362
    1SOL    HW3  723   2.769   0.393   0.793  0.9491 -2.2582 -0.0930
    1SOL    MW4  724   2.710   0.364   0.850 -0.3622 -0.5043 -0.5216
    1SOL     OW  725   3.104   2.456   0.702 -0.0705  0.0586  0.0218
    1SOL    HW2  726   3.186   2.409   0.718 -0.4497 -0.6226 -0.0276
    1SOL    HW3  727   3.039   2.387   0.690 -0.8023  0.5920  0.8614
    1SOL    MW4  728   3.106   2.440   0.703 -0.2170  0.0391  0.1261
    1SOL     OW  729   1.592   2.469   0.106 -0.2264  0.1776 -0.2631
    1SOL    HW2  730   1.648   2.403   0.146  1.9033  1.7761 -0.5148
    1SOL    HW3  731   1.651   2.520   0.050 -2.2273  0.9648 -1.7073
    1SOL    MW4  732   1.607   2.467   0.104 -0.2093  0.4926 -0.4868
    1SOL     OW  733   0.690   3.526   0.504  0.2160 -0.2873  0.1308
    1SOL    HW2  734   0.599   3.526   0.475  1.0525  0.8389 -2.6750
    1SOL    HW3  735   0.731   3.597   0.454  2.4526 -0.2583  1.9376
    1SOL    MW4  736   0.684   3.536   0.494  0.6216 -0.1349 -0.0010
    1SOL     OW  737   1.794   2.682   0.791  0.4293 -0.0220 -0.3394
    1SOL    HW2  738   1.721   2.736   0.762 -1.0417 -1.9047 -0.2371
    1SOL    HW3  739   1.872   2.732   0.767 -0.8624  1.4714 -1.5307
    1SOL    MW4  740   1.795   2.696   0.784  0.0647 -0.0734 -0.4830
    1SOL     OW  741   2.493   3.607   0.733 -0.0295 -0.0287  0.6787
    1SOL    HW2  742   2.505   3.580   0.642  1.9673 -0.3516  1.0191
    1SOL    HW3  743   2.568   3.570   0.779 -0.0824  1.6185  2.1411
    1SOL    MW4  744   2.504   3.598   0.727  0.2270  0.1459  0.9165
    1SOL     OW  745   2.712   3.205   0.757 -0.1736  0.5611  0.2263
    1SOL    HW2  746   2.698   3.232   0.666  1.7433  1.8706  0.2928
    1SOL    HW3  747   2.710   3.287   0.807  1.8428  0.1900  0.9468
    1SOL    MW4  748   2.710   3.219   0.752  0.3452  0.6852  0.3302
    1SOL     OW  749   2.640   4.228   0.840  0.3878  0.3920 -0.6948
    1SOL    HW2  750   2.638   4.229   0.936  0.7565 -0.2765 -0.6787
    1SOL    HW3  751   2.585   4.302   0.815 -1.0948 -0.4378  0.0300
    1SOL    MW4  752   2.632   4.238   0.849  0.2410  0.1945 -0.5971
    1SOL     OW  753   0.372   3.954   0.374 -0.1659  0.2899 -0.1572
    1SOL    HW2  754   0.312   4.017   0.334 -0.2651 -1.3510 -2.6529
    1SOL    HW3  755   0.450   4.004   0.394 -0.7937  1.5282 -0.7569
    1SOL    MW4  756   0.374   3.969   0.372 -0.2618  0.2367 -0.5656
    1SOL     OW  757   1.574   4.340   0.696 -0.0586 -0.0951  0.2821
    1SOL    HW2  758   1.568   4.319   0.603  2.5705  2.9199 -0.6562
    1SOL    HW3  759   1.644   4.284   0.729 -2.0369 -2.3057  0.8742
    1SOL    MW4  760   1.582   4.330   0.688  0.0274  0.0114  0.2365
    1SOL     OW  761   1.199   1.823   0.305 -0.1180 -0.3492 -0.0297
    1SOL    HW2  762   1.113   1.842   0.342  0.0738  0.6439 -0.0705
    1SOL    HW3  763   1.180   1.777   0.223 -0.5735 -1.2457  0.5723
    1SOL    MW4  764   1.185   1.819   0.299 -0.1528 -0.3364  0.0443
    1SOL     OW  765   2.262   3.171   0.260 -0.1708  0.1308  0.4638
    1SOL    HW2  766   2.174   3.137   0.276 -0.5189  1.3177  1.1658
    1SOL    HW3  767   2.252   3.228   0.183  0.1032 -0.1840  0.1938
    1SOL    MW4  768   2.249   3.174   0.252 -0.1805  0.2460  0.5208
    1SOL     OW  769   0.993   3.097   0.383  0.1212  0.2008 -0.5982
    1SOL    HW2  770   1.055   3.151   0.432  0.0978  0.9464 -1.3735
    1SOL    HW3  771   0.911   3.146   0.386 -0.5608 -0.9832  0.7759
    1SOL    MW4  772   0.990   3.111   0.390  0.0281  0.1428 -0.5192
    1SOL     OW  773   2.692   2.911   0.214 -1.0322 -0.0991 -0.3640
    1SOL    HW2  774   2.631   2.950   0.278 -0.9271  0.4617 -0.6084
    1SOL    HW3  775   2.642   2.838   0.176 -1.1377 -0.3613  0.2744
    1SOL    MW4  776   2.677   2.907   0.217 -1.0324 -0.0598 -0.3120
    1SOL     OW  777   3.279   2.789   0.485  0.4755  0.2382  0.6738
    1SOL    HW2  778   3.321   2.785   0.571 -0.2381 -1.0671  0.9707
    1SOL    HW3  779   3.226   2.709   0.480 -0.3255  0.8308 -0.5459
    1SOL    MW4  780   3.278   2.778   0.495  0.2756  0.1442  0.5521
    1SOL     OW  781   1.426   4.604   0.142  0.0638  0.1928 -0.0104
    1SOL    HW2  782   1.332   4.591   0.147  0.2552 -1.2022  0.1418
    1SOL    HW3  783   1.441   4.691   0.179 -0.7501 -1.1635  3.6617
    1SOL    MW4  784   1.416   4.614   0.147 -0.0182 -0.1698  0.4942
    1SOL     OW  785   0.777   3.258   0.454  0.0476 -0.1753  0.0078
    1SOL    HW2  786   0.689   3.220   0.460  0.3951 -1.3476 -2.0898
    1SOL    HW3  787   0.762   3.352   0.449 -1.1354 -0.4148 -1.1656
    1SOL    MW4  788   0.764   3.265   0.454 -0.0626 -0.3614 -0.4238
    1SOL     OW  789   4.022   0.102   0.707 -0.0698  0.0848  0.1234
    1SOL    HW2  790   3.941   0.077   0.751 -0.8181  1.6286 -0.3704
    1SOL    HW3  791   4.035   0.194   0.730  1.2841 -0.0162 -0.1979
    1SOL    MW4  792   4.013   0.111   0.716  0.0100  0.2752  0.0159
    1SOL     OW  793   0.678   1.354   0.473  0.0187  0.1639 -0.5886
    1SOL    HW2  794   0.587   1.369   0.450 -0.4485 -0.2745  0.9104
    1SOL    HW3  795   0.719   1.440   0.467 -0.6632  0.4940 -0.5328
    1SOL    MW4  796   0.672   1.367   0.469 -0.1329  0.1496 -0.3835
    1SOL     OW  797   2.056   0.448   0.457  0.4618 -0.2394  0.2690
    1SOL    HW2  798   2.148   0.430   0.441  0.4514  0.1096 -0.1936
    1SOL    HW3  799   2.050   0.462   0.551  1.0378  0.6506  0.1795
    1SOL    MW4  800   2.067   0.448   0.467  0.5364 -0.0760  0.1962
    1SOL     OW  801   0.651   0.496   0.499  0.0942  0.1300 -0.0484
    1SOL    HW2  802   0.666   0.515   0.591  0.0151 -1.7064  0.3633
    1SOL    HW3  803   0.557   0.478   0.493 -0.0389  0.9383 -0.6394
    1SOL    MW4  804   0.641   0.496   0.510  0.0662 -0.0057 -0.0721
    1SOL     OW  805   2.295   0.368   0.834  0.0738 -0.2096 -0.2058
    1SOL    HW2  806   2.291   0.279   0.800 -0.9002 -0.2086 -0.1095
    1SOL    HW3  807   2.225   0.415   0.788  1.0405  0.6952 -0.7866
    1SOL    MW4  808   2.286   0.363   0.823  0.0730 -0.0901 -0.2697
    1SOL     OW  809   3.387   4.427   0.706 -0.0269  0.2307  0.2819
    1SOL    HW2  810   3.388   4.506   0.760 -0.4957  0.6778 -0.3425
    1SOL    HW3  811   3.310   4.378   0.737  0.7395 -0.3797  1.2235
    1SOL    MW4  812   3.377   4.431   0.717  0.0124  0.2093  0.3238
    1SOL     OW  813   3.561   4.316   0.893 -0.2893 -0.1117 -0.1837
    1SOL    HW2  814   3.499   4.357   0.832 -0.6449 -0.6741 -0.2053
    1SOL    HW3  815   3.572   4.227   0.859 -1.1441 -0.7054  1.0462
    1SOL    MW4  816   3.554   4.309   0.880 -0.4492 -0.2642 -0.0243
    1SOL     OW  817   0.483   4.642   0.475  0.4723  0.5381  0.2394
    1SOL    HW2  818   0.558   4.676   0.427  0.7163 -1.2112 -0.6227
    1SOL    HW3  819   0.414   4.634   0.410  0.3830 -0.5092  0.4543
    1SOL    MW4  820   0.484   4.646   0.460  0.4927  0.1693  0.1540
    1SOL     OW  821   2.064   2.586   0.309 -0.3597 -0.0753 -0.1267
    1SOL    HW2  822   1.988   2.546   0.353 -0.4282 -0.6335 -0.7443
    1SOL    HW3  823   2.026   2.645   0.244 -0.2573  0.3725  0.2148
    1SOL    MW4  824   2.049   2.588   0.307 -0.3550 -0.0899 -0.1631
    1SOL     OW  825   3.316   0.484   0.684  0.1752  0.1216  0.0389
    1SOL    HW2  826   3.239   0.467   0.738 -0.1832  1.1891 -0.1211
    1SOL    HW3  827   3.388   0.442   0.731 -0.0669  1.3133  1.5371
    1SOL    MW4  828   3.315   0.476   0.697  0.0958  0.4196  0.2155
    1SOL     OW  829   0.672   2.547   0.533  0.2873 -0.5502 -0.6916
    1SOL    HW2  830   0.651   2.636   0.504 -0.3974 -0.3521  0.3555
    1SOL    HW3  831   0.596   2.495   0.509  0.2124 -0.6209 -0.3096
    1SOL    MW4  832   0.659   2.552   0.526  0.1872 -0.5331 -0.5031
    1SOL     OW  833   0.133   4.360   0.424 -0.4146  0.0250  0.0561
    1SOL    HW2  834   0.174   4.355   0.510 -0.2225 -1.1744 -0.0994
    1SOL    HW3  835   0.150   4.274   0.384 -0.0826  0.7506 -1.3682
    1SOL    MW4  836   0.141   4.348   0.430 -0.3454 -0.0377 -0.1523
    1SOL     OW  837   0.657   0.743   0.362  0.2411 -0.2904  0.2443
    1SOL    HW2  838   0.670   0.656   0.397 -1.4332 -1.0285 -0.8654
    1SOL    HW3  839   0.568   0.767   0.388  0.2534  0.5930 -0.4631
    1SOL    MW4  840   0.647   0.735   0.370  0.0218 -0.2713  0.0045
    1SOL     OW  841   2.039   3.614   0.755 -0.0946 -0.1416 -0.2328
    1SOL    HW2  842   2.122   3.574   0.783  0.7285  1.5216 -0.2553
    1SOL    HW3  843   1.971   3.557   0.792  1.0312 -0.3338  1.5797
    1SOL    MW4  844   2.041   3.601   0.763  0.1626  0.0522  0.0033
    1SOL     OW  845   4.065   0.385   0.786  0.3295  0.1232 -0.1744
    1SOL    HW2  846   4.129   0.428   0.730 -1.2845  1.1728 -1.2678
    1SOL    HW3  847   3.983   0.429   0.767 -0.7427 -1.2160  1.1725
    1SOL    MW4  848   4.063   0.396   0.776 -0.0248  0.0849 -0.1409
    1SOL     OW  849   2.018   1.764   9.953  0.3904  0.0825 -0.3110
    1SOL    HW2  850   1.963   1.830   9.995 -0.3723  0.1638 -1.4356
    1SOL    HW3  851   2.089   1.814   9.914  0.3787  0.1345 -0.2678
    1SOL    MW4  852   2.020   1.779   9.954  0.2885  0.1001 -0.4539
    1SOL     OW  853   1.390   3.074   0.434  0.8062  0.3090 -0.0760
    1SOL    HW2  854   1.352   2.996   0.394  0.1255  0.5036  0.1904
    1SOL    HW3  855   1.395   3.054   0.527  0.2158  0.7555  0.0523
    1SOL    MW4  856   1.386   3.061   0.441  0.6385  0.3936 -0.0239
    1SOL     OW  857   0.964   2.563   0.495  0.0373 -0.3110 -0.4972
    1SOL    HW2  858   0.881   2.556   0.448 -1.1117  1.0515  1.2697
    1SOL    HW3  859   0.978   2.657   0.506  1.6701 -0.5394 -0.4898
    1SOL    MW4  860   0.955   2.574   0.490  0.1011 -0.1612 -0.2631
    1SOL     OW  861   1.821   4.256   0.211 -0.2198 -0.0489 -0.3041
    1SOL    HW2  862   1.813   4.239   0.117 -0.3304 -1.6536 -0.0122
    1SOL    HW3  863   1.774   4.339   0.224 -0.3146  0.1254 -1.6297
    1SOL    MW4  864   1.814   4.265   0.200 -0.2469 -0.2379 -0.4405
    1SOL     OW  865   3.123   1.117   0.406 -0.5338 -0.3027  0.0078
    1SOL    HW2  866   3.156   1.041   0.453  1.3689  0.5267  0.0580
    1SOL    HW3  867   3.163   1.111   0.319 -0.3289  0.6660  0.0290
    1SOL    MW4  868   3.133   1.107   0.400 -0.2558 -0.0656  0.0172
    1SOL     OW  869   0.690   2.321   0.842  0.0017  0.1498 -0.0077
    1SOL    HW2  870   0.675   2.326   0.936  0.6269  0.3602  0.0838
    1SOL    HW3  871   0.620   2.374   0.803 -0.0902  0.2927  0.3528
    1SOL    MW4  872   0.679   2.328   0.849  0.0721  0.1962  0.0519
    1SOL     OW  873   0.169   3.795   0.486 -0.0924  0.0487  0.0272
    1SOL    HW2  874   0.242   3.846   0.451  0.0879 -0.7560 -0.7831
    1SOL    HW3  875   0.179   3.800   0.581 -0.1699  1.6458 -0.0317
    1SOL    MW4  876   0.180   3.802   0.494 -0.0789  0.1533 -0.0874
    1SOL     OW  877   3.386   2.808   0.732  0.1548  0.2784 -0.3389
    1SOL    HW2  878   3.398   2.891   0.779 -1.6616  0.1603  0.3792
    1SOL    HW3  879   3.457   2.752   0.765  2.3676  2.0186 -2.0124
    1SOL    MW4  880   3.397   2.811   0.743  0.2069  0.4921 -0.4649
    1SOL     OW  881   0.479   2.721   0.848  0.4495 -0.0093  0.1493
    1SOL    HW2  882   0.552   2.764   0.804  1.4055 -1.6180  0.1209
    1SOL    HW3  883   0.482   2.631   0.817 -1.2387 -0.2199  0.5521
    1SOL    MW4  884   0.489   2.715   0.838  0.3529 -0.2491  0.1987
    1SOL     OW  885   3.073   0.241   0.362  0.5795 -0.2516  0.2643
    1SOL    HW2  886   3.019   0.315   0.335  1.3133 -0.3922 -1.6773
    1SOL    HW3  887   3.013   0.167   0.363  0.2968 -0.0235  0.1164
    1SOL    MW4  888   3.058   0.241   0.358  0.6387 -0.2401 -0.0114
    1SOL     OW  889   2.260   3.994   0.681 -0.6497  0.2165  0.1644
    1SOL    HW2  890   2.232   3.980   0.591  0.0414 -0.8681  0.1206
    1SOL    HW3  891   2.185   3.967   0.734 -0.3930 -0.8736 -0.0225
    1SOL    MW4  892   2.246   3.989   0.676 -0.5248 -0.0706  0.1339
    1SOL     OW  893   1.366   3.958   0.771  0.3646 -0.0243 -0.0943
    1SOL    HW2  894   1.284   3.926   0.809  0.1990  0.4297 -0.0646
    1SOL    HW3  895   1.382   4.041   0.815  0.2709  0.4137 -0.8743
    1SOL    MW4  896   1.357   3.965   0.782  0.3303  0.0932 -0.1933
    1SOL     OW  897   3.422   0.710   0.510 -0.0908  0.3180  0.0225
    1SOL    HW2  898   3.376   0.630   0.535 -0.2867 -0.2664 -2.0969
    1SOL    HW3  899   3.352   0.775   0.498  0.1197  1.0206  2.4035
    1SOL    MW4  900   3.407   0.708   0.512 -0.0887  0.3337  0.0571
    1SOL     OW  901   4.446   1.936   0.878 -0.0390  0.2559  0.3622
    1SOL    HW2  902   4.521   1.988   0.850 -0.5649  0.3759 -0.8742
    1SOL    HW3  903   4.460   1.851   0.837 -0.2855  0.0977  0.6075
    1SOL    MW4  904   4.458   1.932   0.869 -0.1411  0.2509  0.2314
    1SOL     OW  905   0.005   1.049   0.869  0.2791  0.5563 -0.1650
    1SOL    HW2  906   0.012   1.072   0.962 -1.7804  2.2432 -0.3870
    1SOL    HW3  907  -0.058   0.976   0.867 -0.0681  0.8551 -0.2659
    1SOL    MW4  908  -0.003   1.042   0.881 -0.0386  0.8184 -0.2076
    1SOL     OW  909   2.910   3.222   0.314  0.4846 -0.0369 -0.1790
    1SOL    HW2  910   2.922   3.261   0.228 -0.9315 -1.4135 -1.0299
    1SOL    HW3  911   2.930   3.129   0.302 -0.2094 -0.3361  0.8700
    1SOL    MW4  912   2.914   3.214   0.301  0.2062 -0.2584 -0.1528
    1SOL     OW  913   1.765   2.303   0.233 -0.2251 -0.6464  0.3362
    1SOL    HW2  914   1.843   2.249   0.244  0.7998  0.2214 -2.2503
    1SOL    HW3  915   1.773   2.371   0.299  1.6724 -0.0816 -0.4440
    1SOL    MW4  916   1.777   2.305   0.243  0.1607 -0.4573 -0.1080
    1SOL     OW  917   3.143   1.099   0.850  0.2809 -0.1531  0.5151
    1SOL    HW2  918   3.213   1.150   0.809  0.5064  0.9704  2.2725
    1SOL    HW3  919   3.138   1.132   0.940 -0.6793 -2.0908  1.2037
    1SOL    MW4  920   3.152   1.110   0.857  0.1841 -0.2605  0.8378
    1SOL     OW  921   2.691   3.279   0.478 -0.2018 -0.1818 -0.0550
    1SOL    HW2  922   2.626   3.224   0.436 -0.1372 -1.4725  1.5154
    1SOL    HW3  923   2.772   3.260   0.430 -0.3250 -0.9271  0.0249
    1SOL    MW4  924   2.693   3.269   0.466 -0.2096 -0.4506  0.1627
    1SOL     OW  925   1.329   0.910   0.707 -0.1597 -0.6752  0.2127
    1SOL    HW2  926   1.353   0.977   0.772 -0.5293 -0.5599  0.2314
    1SOL    HW3  927   1.256   0.863   0.748  0.3443 -1.3374  0.3625
    1SOL    MW4  928   1.323   0.913   0.721 -0.1421 -0.7474  0.2349
    1SOL     OW  929   3.685   0.545   0.495 -0.0733  0.6531  0.1348
    1SOL    HW2  930   3.601   0.580   0.465 -0.6343 -1.3180 -0.6488
    1SOL    HW3  931   3.742   0.622   0.502 -1.7444  1.9182  0.0198
    1SOL    MW4  932   3.682   0.560   0.492 -0.3679  0.5600  0.0163
    1SOL     OW  933   4.034   2.430   0.731 -0.3784 -0.4932 -0.6159
    1SOL    HW2  934   4.109   2.406   0.786 -0.9636  0.4387  0.6009
    1SOL    HW3  935   3.958   2.391   0.776 -0.6770 -1.1586 -1.6690
    1SOL    MW4  936   4.034   2.421   0.745 -0.4950 -0.4580 -0.5942
    1SOL     OW  937   2.012   1.485   0.374 -0.1633 -0.1884 -0.2945
    1SOL    HW2  938   2.041   1.477   0.283  0.5745  1.3514 -0.2154
    1SOL    HW3  939   2.043   1.406   0.417  1.0434 -0.0938 -0.9875
    1SOL    MW4  940   2.020   1.474   0.368  0.0932  0.0272 -0.3755
    1SOL     OW  941   1.597   0.988   0.383  0.0977  0.0584 -0.6938
    1SOL    HW2  942   1.503   1.001   0.371  0.0757  0.0611 -0.5093
    1SOL    HW3  943   1.605   0.899   0.417  0.1039  0.3716  0.1245
    1SOL    MW4  944   1.586   0.978   0.386  0.0956  0.1001 -0.5615
    1SOL     OW  945   1.293   0.967   0.408 -0.1808 -0.1452 -0.4673
    1SOL    HW2  946   1.304   0.930   0.496 -1.5510 -0.4303 -0.4093
    1SOL    HW3  947   1.221   0.917   0.369  0.2853  0.1093 -1.6878
    1SOL    MW4  948   1.285   0.956   0.415 -0.3002 -0.1493 -0.6206
    1SOL     OW  949   4.042   0.847   0.728 -0.6264  0.0843  0.2814
    1SOL    HW2  950   4.011   0.929   0.767 -0.7472  0.0691  0.2175
    1SOL    HW3  951   4.136   0.846   0.747 -0.5777  0.3624  0.0588
    1SOL    MW4  952   4.050   0.858   0.736 -0.6361  0.1190  0.2436
    1SOL     OW  953   0.962   1.876   0.430  0.4721 -0.5885  0.0262
    1SOL    HW2  954   1.001   1.891   0.516  1.0588 -0.6511 -0.2285
    1SOL    HW3  955   0.918   1.791   0.438  0.1654 -0.4001  0.3878
    1SOL    MW4  956   0.961   1.867   0.443  0.5090 -0.5720  0.0403
    1SOL     OW  957   0.461   3.705   0.286 -0.0594 -0.1811 -0.3745
    1SOL    HW2  958   0.431   3.794   0.308  1.5369  0.6745 -1.6298
    1SOL    HW3  959   0.535   3.718   0.227 -1.1845 -2.3864 -2.3335
    1SOL    MW4  960   0.466   3.718   0.281  0.0028 -0.3591 -0.7986
    1SOL     OW  961   1.928   2.700   0.087 -0.1488 -0.6692 -0.5164
    1SOL    HW2  962   1.866   2.769   0.111  2.3833  1.2169  0.7655
    1SOL    HW3  963   1.933   2.705  -0.009 -0.7359  0.2365 -0.5104
    1SOL    MW4  964   1.920   2.710   0.077  0.1079 -0.3009 -0.3465
    1SOL     OW  965   1.370   2.062   0.318  0.2780  0.0695 -0.3217
    1SOL    HW2  966   1.442   2.038   0.376 -0.0238  0.5120  0.2540
    1SOL    HW3  967   1.326   1.980   0.298  1.0636 -0.2251 -0.8411
    1SOL    MW4  968   1.374   2.048   0.323  0.3418  0.0889 -0.3143
    1SOL     OW  969   3.193   0.866   0.508 -0.1766 -0.2574  0.3307
    1SOL    HW2  970   3.163   0.841   0.595  1.5872 -1.7015  0.5536
    1SOL    HW3  971   3.133   0.822   0.448  0.3061 -1.5797  0.7991
    1SOL    MW4  972   3.181   0.857   0.511  0.1197 -0.6223  0.4219
    1SOL     OW  973   1.822   1.316   0.105 -0.5576  0.4525 -0.0771
    1SOL    HW2  974   1.777   1.346   0.184 -1.3472 -0.1348 -0.3000
    1SOL    HW3  975   1.759   1.259   0.062  0.3570 -0.2769 -0.4615
    1SOL    MW4  976   1.807   1.313   0.110 -0.5411  0.2788 -0.1572
    1SOL     OW  977   3.585   1.903   0.416 -0.0624  0.2931  0.0234
    1SOL    HW2  978   3.675   1.935   0.424  0.4860 -0.9776 -0.9619
    1SOL    HW3  979   3.570   1.900   0.321 -1.0716  0.2683  0.1804
    1SOL    MW4  980   3.595   1.907   0.404 -0.1230  0.1222 -0.0859
    1SOL     OW  981   3.711   3.192   0.496  0.0317  0.4217  0.6757
    1SOL    HW2  982   3.806   3.196   0.483 -0.0434 -1.4073 -0.6734
    1SOL    HW3  983   3.678   3.276   0.462  1.0559  0.6032  0.1191
    1SOL    MW4  984   3.719   3.204   0.489  0.1571  0.2046  0.4243
    1SOL     OW  985   1.339   2.711   0.793  0.0420  0.1776 -0.2738
    1SOL    HW2  986   1.333   2.716   0.888  0.9145 -0.2999 -0.1933
    1SOL    HW3  987   1.251   2.732   0.763 -0.3050  0.0756  0.6499
    1SOL    MW4  988   1.326   2.714   0.802  0.1115  0.1013 -0.1413
    1SOL     OW  989   3.499   0.110   0.503 -0.0609  0.1546  0.4549
    1SOL    HW2  990   3.416   0.157   0.508 -0.3844 -0.2905 -0.6489
    1SOL    HW3  991   3.474   0.021   0.477  0.6637 -0.2815  1.2112
    1SOL    MW4  992   3.485   0.104   0.501 -0.0079  0.0383  0.4091
    1SOL     OW  993   4.010   3.437   0.811 -0.1077  0.1061  0.2107
    1SOL    HW2  994   4.002   3.348   0.778  0.2950 -0.3240  1.2574
    1SOL    HW3  995   4.025   3.427   0.905 -0.8657  1.3027  0.4703
    1SOL    MW4  996   4.011   3.424   0.819 -0.1545  0.2069  0.3831
    1SOL     OW  997   0.449   0.481   0.920  0.2549  0.1730  0.0948
    1SOL    HW2  998   0.390   0.556   0.910 -0.6365 -0.5005  0.1636
    1SOL    HW3  999   0.413   0.415   0.860  0.9137 -0.2639  0.1776
    1SOL    MW4 1000   0.436   0.482   0.911  0.2242  0.0265  0.1147
    1SOL     OW 1001   2.031   4.245   0.438  0.2437  0.1965 -0.2880
    1SOL    HW2 1002   1.963   4.239   0.371  1.2173 -1.0797 -1.1939
    1SOL    HW3 1003   2.071   4.157   0.440  1.2482  0.6549  0.8708
    1SOL    MW4 1004   2.028   4.233   0.429  0.5047  0.0887 -0.2546
    1SOL     OW 1005   4.479   0.091   0.696 -0.3306 -0.1462 -0.3009
    1SOL    HW2 1006   4.486   0.182   0.725 -0.9042 -0.3861  0.5953
    1SOL    HW3 1007   4.399   0.058   0.737  0.5333 -1.4301  0.4220
    1SOL    MW4 1008   4.470   0.099   0.705 -0.2923 -0.3473 -0.0873
    1SOL     OW 1009   1.938   1.840   0.324  0.0512  0.8313 -0.3319
    1SOL    HW2 1010   1.896   1.897   0.389 -1.3821 -0.4540 -0.0721
    1SOL    HW3 1011   1.892   1.756   0.334  1.3807 -0.0445 -1.4336
    1SOL    MW4 1012   1.926   1.836   0.334  0.0376  0.5462 -0.4429
    1SOL     OW 1013   0.271   0.675   0.870 -0.0308  0.0892 -0.5958
    1SOL    HW2 1014   0.231   0.707   0.951  0.9849  0.1603 -0.1101
    1SOL    HW3 1015   0.197   0.648   0.815 -0.6763 -1.4389  0.9700
    1SOL    MW4 1016   0.256   0.675   0.874  0.0181 -0.1031 -0.3251
    1SOL     OW 1017   0.161   1.110   0.673  0.2500  0.7155  0.3540
    1SOL    HW2 1018   0.104   1.087   0.746  0.0413 -1.5016 -0.4587
    1SOL    HW3 1019   0.244   1.134   0.714 -0.0152 -0.0451  1.3557
    1SOL    MW4 1020   0.165   1.110   0.688  0.1874  0.3227  0.3790
    1SOL     OW 1021   0.363   1.698   0.424 -0.1235 -0.2889  0.2538
    1SOL    HW2 1022   0.412   1.697   0.506  0.3587 -0.9876 -0.0438
    1SOL    HW3 1023   0.272   1.713   0.451  0.1561  0.3464  0.8477
    1SOL    MW4 1024   0.357   1.700   0.438 -0.0230 -0.2973  0.2929
    1SOL     OW 1025   4.370   1.411   0.588  0.2297 -0.1084  0.1568
    1SOL    HW2 1026   4.360   1.343   0.521 -1.2423  0.5000 -0.2692
    1SOL    HW3 1027   4.325   1.376   0.664  0.5145 -0.1155  0.3228
    1SOL    MW4 1028   4.363   1.397   0.589  0.0725 -0.0290  0.1225
    1SOL     OW 1029   0.235   1.513   0.828  0.1423  0.2953  0.6278
    1SOL    HW2 1030   0.220   1.441   0.766 -0.7165 -0.2961  1.5094
    1SOL    HW3 1031   0.299   1.569   0.785  0.0777 -0.4859 -0.4947
    1SOL    MW4 1032   0.241   1.511   0.814  0.0205  0.1142  0.5960
    1SOL     OW 1033   1.087   2.800   0.736  0.3495  0.0294  0.2161
    1SOL    HW2 1034   1.009   2.752   0.762 -0.1317  0.5184 -0.3184
    1SOL    HW3 1035   1.074   2.820   0.643 -0.2014  2.5606  0.7884
    1SOL    MW4 1036   1.075   2.796   0.727  0.2133  0.4280  0.2211
    1SOL     OW 1037   3.811   2.813   0.461  0.2303  0.2583 -0.1904
    1SOL    HW2 1038   3.771   2.730   0.437  0.1031  0.3318 -0.2342
    1SOL    HW3 1039   3.742   2.878   0.448  0.1918  0.3107  0.2739
    1SOL    MW4 1040   3.797   2.811   0.456  0.2086  0.2751 -0.1349
    1SOL     OW 1041   1.051   2.335   0.770 -0.4354  0.4064 -0.2425
    1SOL    HW2 1042   1.053   2.241   0.753 -0.8190  0.2232  0.6636
    1SOL    HW3 1043   1.140   2.365   0.752  0.1106 -0.4198  0.9649
    1SOL    MW4 1044   1.063   2.326   0.766 -0.4139  0.2732  0.0364
    1SOL     OW 1045   0.351   2.776   0.514 -0.2498 -0.3296 -0.4082
    1SOL    HW2 1046   0.293   2.790   0.589 -0.2354 -0.8132 -0.3043
    1SOL    HW3 1047   0.310   2.705   0.466  0.2403 -0.6527 -0.3526
    1SOL    MW4 1048   0.338   2.769   0.518 -0.1833 -0.4361 -0.3871
    1SOL     OW 1049   4.229   2.335   0.886 -0.1073  0.3953 -0.4297
    1SOL    HW2 1050   4.231   2.249   0.843  1.4320  0.4149 -0.4150
    1SOL    HW3 1051   4.310   2.377   0.859  0.1902  0.9801  1.3117
    1SOL    MW4 1052   4.240   2.329   0.877  0.1354  0.4752 -0.1979
    1SOL     OW 1053   0.158   1.366   0.592 -0.3281  0.3088  0.0457
    1SOL    HW2 1054   0.165   1.275   0.621 -0.1476  0.6502  1.0955
    1SOL    HW3 1055   0.065   1.386   0.598 -0.0083  1.1196  2.7316
    1SOL    MW4 1056   0.147   1.357   0.596 -0.2621  0.4607  0.5386
    1SOL     OW 1057   4.033   1.618   0.729 -0.2277 -0.3667  0.2635
    1SOL    HW2 1058   3.974   1.566   0.783  0.4608 -1.5023 -0.0574
    1SOL    HW3 1059   4.120   1.603   0.767 -0.0446  0.6945  0.2797
    1SOL    MW4 1060   4.037   1.609   0.741 -0.1125 -0.3766  0.2233
    1SOL     OW 1061   0.249   3.070   0.832  0.0890  0.3981 -0.0659
    1SOL    HW2 1062   0.225   3.041   0.920  1.1314 -0.6073 -0.1061
    1SOL    HW3 1063   0.185   3.138   0.811 -0.4365  0.3377  1.2928
    1SOL    MW4 1064   0.237   3.075   0.841  0.1572  0.2575  0.1082
    1SOL     OW 1065   1.738   0.954   0.144 -0.6834  0.2843  0.0227
    1SOL    HW2 1066   1.725   0.860   0.140 -1.1919  0.3293  0.5188
    1SOL    HW3 1067   1.691   0.982   0.223  0.3838  0.7980  0.4968
    1SOL    MW4 1068   1.730   0.945   0.154 -0.6098  0.3580  0.1507
    1SOL     OW 1069   4.443   2.630   0.422  0.1599 -0.0970 -0.1844
    1SOL    HW2 1070   4.382   2.575   0.471 -0.9270  1.1268 -0.1041
    1SOL    HW3 1071   4.398   2.715   0.416  1.7249  0.7379 -0.4103
    1SOL    MW4 1072   4.429   2.634   0.428  0.2232  0.1745 -0.2036
    1SOL     OW 1073   0.011   3.200   0.748  0.2209 -0.2692  0.2751
    1SOL    HW2 1074   0.001   3.220   0.655 -0.2092  0.8176  0.5561
    1SOL    HW3 1075  -0.000   3.284   0.793  0.1731 -0.8279  1.3299
    1SOL    MW4 1076   0.009   3.214   0.742  0.1579 -0.1993  0.4513
    1SOL     OW 1077   0.443   3.425   0.841  0.1031  0.6043  0.3801
    1SOL    HW2 1078   0.431   3.418   0.936 -3.5033  1.7675  0.0670
    1SOL    HW3 1079   0.427   3.337   0.809 -0.0519  0.4996  0.7353
    1SOL    MW4 1080   0.439   3.413   0.849 -0.3931  0.7439  0.3857
    1SOL     OW 1081   4.329   2.891   0.473  0.1420 -0.2515 -0.6510
    1SOL    HW2 1082   4.253   2.936   0.436 -0.5318 -0.1402  0.8416
    1SOL    HW3 1083   4.313   2.891   0.567  1.6219 -0.9213 -0.3935
    1SOL    MW4 1084   4.317   2.897   0.480  0.2489 -0.3252 -0.4200
    1SOL     OW 1085   0.404   1.140   0.828  0.7943  0.0933  0.3059
    1SOL    HW2 1086   0.419   1.046   0.815 -0.1754  0.0359 -0.4458
    1SOL    HW3 1087   0.481   1.182   0.789  0.4957 -0.3335 -0.7799
    1SOL    MW4 1088   0.416   1.133   0.821  0.6270  0.0293  0.0635
    1SOL     OW 1089   0.422   0.070   0.711  0.2659 -0.0952 -0.1954
    1SOL    HW2 1090   0.445   0.039   0.623 -0.4661  0.9756 -0.7778
    1SOL    HW3 1091   0.499   0.051   0.764  0.3881 -1.5764 -0.8559
    1SOL    MW4 1092   0.435   0.063   0.706  0.1855 -0.1494 -0.3594
    1SOL     OW 1093   0.452   0.357   1.159 -0.1668  0.1383  0.7222
    1SOL    HW2 1094   0.455   0.384   1.067  0.5484 -0.3954  0.5813
    1SOL    HW3 1095   0.376   0.402   1.195 -0.7494 -0.0502 -0.2652
    1SOL    MW4 1096   0.443   0.367   1.151 -0.1493  0.0430  0.5733
    1SOL     OW 1097   1.995   2.057   0.728  0.1281 -0.4837 -0.0844
    1SOL    HW2 1098   1.991   2.152   0.737 -1.1381 -0.5644  0.2236
    1SOL    HW3 1099   1.909   2.026   0.756  0.5508 -1.7274 -0.1313
    1SOL    MW4 1100   1.983   2.065   0.733  0.0168 -0.6588 -0.0499
    1SOL     OW 1101   3.338   1.265   0.757 -0.0263 -0.3639  0.3999
    1SOL    HW2 1102   3.415   1.218   0.787  0.7820  0.1992 -0.7354
    1SOL    HW3 1103   3.344   1.351   0.800  0.9299  0.3067 -1.0295
    1SOL    MW4 1104   3.349   1.270   0.767  0.2067 -0.2011  0.0616
    1SOL     OW 1105   3.589   1.662   0.777  0.2667 -0.0961  0.3974
    1SOL    HW2 1106   3.513   1.604   0.785  0.1859  0.0734  0.8687
    1SOL    HW3 1107   3.619   1.650   0.687  0.3186 -0.9546  0.5279
    1SOL    MW4 1108   3.583   1.653   0.766  0.2627 -0.1869  0.4768
    1SOL     OW 1109   0.897   0.139   0.754 -0.0560 -0.0005 -0.0200
    1SOL    HW2 1110   0.873   0.200   0.684 -0.0321 -0.0597 -0.0802
    1SOL    HW3 1111   0.814   0.097   0.778 -0.2580  0.8464  0.7811
    1SOL    MW4 1112   0.883   0.141   0.748 -0.0795  0.1034  0.0777
    1SOL     OW 1113   0.709   2.822   0.724 -0.1489  0.3038  0.0812
    1SOL    HW2 1114   0.736   2.902   0.769  0.8959  0.1693 -0.2923
    1SOL    HW3 1115   0.726   2.840   0.632 -2.1129  0.5175 -0.2591
    1SOL    MW4 1116   0.715   2.835   0.718 -0.2701  0.3142 -0.0130
    1SOL     OW 1117   1.628   0.411   0.255 -0.1806  0.0423 -0.6114
    1SOL    HW2 1118   1.565   0.339   0.269 -1.3036  1.2828  0.8731
    1SOL    HW3 1119   1.714   0.369   0.260 -0.8475 -1.4525 -1.2880
    1SOL    MW4 1120   1.631   0.396   0.258 -0.4168  0.0088 -0.5048
    1SOL     OW 1121   0.494   3.167   0.745  0.0395 -0.5334  0.1678
    1SOL    HW2 1122   0.504   3.177   0.650 -0.0403 -1.0374  0.1087
    1SOL    HW3 1123   0.416   3.113   0.756 -0.3588  0.1140  0.5393
    1SOL    MW4 1124   0.485   3.161   0.734 -0.0236 -0.5145  0.2090
    1SOL     OW 1125   0.623   1.273   0.736 -0.2900  0.0737  0.0036
    1SOL    HW2 1126   0.636   1.281   0.642  0.9801  0.2903  0.1930
    1SOL    HW3 1127   0.615   1.363   0.768 -0.8435 -0.0021  0.0922
    1SOL    MW4 1128   0.624   1.286   0.728 -0.1955  0.0923  0.0402
    1SOL     OW 1129   2.908   1.478   0.828  0.1033  0.3736  0.2136
    1SOL    HW2 1130   2.831   1.516   0.787  0.2158 -1.7116 -2.1122
    1SOL    HW3 1131   2.980   1.535   0.801  0.1342 -0.8031 -2.3931
    1SOL    MW4 1132   2.907   1.490   0.819  0.1221 -0.0567 -0.4371
    1SOL     OW 1133   0.007   1.683   0.760 -0.0539 -0.0556 -0.0649
    1SOL    HW2 1134  -0.075   1.646   0.792 -0.3302  0.9300  0.3931
    1SOL    HW3 1135   0.073   1.617   0.782 -0.5248 -0.2512  0.7732
    1SOL    MW4 1136   0.005   1.669   0.767 -0.1521  0.0486  0.1062
    1SOL     OW 1137   1.281   3.941   0.497 -0.1541 -0.5619  0.1887
    1SOL    HW2 1138   1.308   3.954   0.588 -0.3246  0.4861  0.1032
    1SOL    HW3 1139   1.357   3.900   0.455  1.6229  2.8759 -0.1876
    1SOL    MW4 1140   1.295   3.938   0.503  0.0579  0.0300  0.1278
    1SOL     OW 1141   0.866   2.253   0.535 -0.4812 -0.2710 -0.0050
    1SOL    HW2 1142   0.953   2.240   0.496 -1.1247 -0.0569 -1.5535
    1SOL    HW3 1143   0.812   2.183   0.497 -1.0738 -0.1943  0.6858
    1SOL    MW4 1144   0.871   2.242   0.525 -0.6443 -0.2327 -0.1181
    1SOL     OW 1145   2.892   0.027   0.398 -0.4274  0.0159  0.1060
    1SOL    HW2 1146   2.813   0.076   0.423 -1.2368 -0.9655 -0.5011
    1SOL    HW3 1147   2.862  -0.033   0.329  0.7982 -0.5291  0.0470
    1SOL    MW4 1148   2.877   0.025   0.392 -0.3722 -0.1854  0.0181
    1SOL     OW 1149   0.629   2.806   0.426  0.0990  0.2017  0.2830
    1SOL    HW2 1150   0.648   2.858   0.348 -2.5020 -0.3631 -0.7979
    1SOL    HW3 1151   0.534   2.810   0.435  0.0443 -2.3977  1.5594
    1SOL    MW4 1152   0.619   2.813   0.417 -0.2514 -0.2158  0.3088
    1SOL     OW 1153   0.089   2.033   0.525 -0.1364  0.0772  0.4901
    1SOL    HW2 1154   0.104   2.048   0.618 -2.3713  1.2229  0.7125
    1SOL    HW3 1155  -0.004   2.054   0.512  0.4877  1.3296 -2.2889
    1SOL    MW4 1156   0.078   2.038   0.536 -0.3489  0.3936  0.1528
    1SOL     OW 1157   3.403   3.865   0.827  0.0304  0.2742  0.0409
    1SOL    HW2 1158   3.417   3.778   0.789  1.2594  0.5961 -0.2757
    1SOL    HW3 1159   3.396   3.849   0.921 -1.5573 -0.3574 -0.1678
    1SOL    MW4 1160   3.404   3.851   0.834 -0.0172  0.2334 -0.0284
    1SOL     OW 1161   3.605   2.439   0.720  0.3486  0.0018 -0.7355
    1SOL    HW2 1162   3.603   2.521   0.769  0.4702 -0.8964  0.8202
    1SOL    HW3 1163   3.519   2.399   0.736  0.3635 -0.2729 -1.3184
    1SOL    MW4 1164   3.593   2.445   0.728  0.3667 -0.1528 -0.6071
    1SOL     OW 1165   4.467   3.454   0.881 -0.4250 -0.3377 -0.1008
    1SOL    HW2 1166   4.544   3.497   0.844  0.7869 -1.2396  1.3461
    1SOL    HW3 1167   4.395   3.483   0.825  0.9059  0.7474 -1.2963
    1SOL    MW4 1168   4.468   3.463   0.869 -0.0892 -0.3133 -0.0677
    1SOL     OW 1169   0.633   3.587   0.757  0.4985  0.1790  0.4023
    1SOL    HW2 1170   0.574   3.519   0.791  0.2841 -0.2652 -0.8618
    1SOL    HW3 1171   0.647   3.565   0.665  1.3906  1.1723  0.2771
    1SOL    MW4 1172   0.627   3.575   0.750  0.5879  0.2513  0.2190
    1SOL     OW 1173   1.873   3.891   0.517  0.0101 -0.7129 -0.3662
    1SOL    HW2 1174   1.858   3.918   0.607  0.5106  0.6861 -0.6843
    1SOL    HW3 1175   1.812   3.944   0.465  1.3955  0.2538 -1.0512
    1SOL    MW4 1176   1.863   3.901   0.522  0.2588 -0.4008 -0.4986
    1SOL     OW 1177   4.357   4.469   0.461  0.0500  0.4593 -0.0346
    1SOL    HW2 1178   4.319   4.444   0.546 -0.1954 -0.8376 -0.5063
    1SOL    HW3 1179   4.447   4.438   0.466  0.7316  2.5115  0.6452
    1SOL    MW4 1180   4.364   4.461   0.473  0.1073  0.5589 -0.0072
    1SOL     OW 1181   0.414   4.265   0.818 -0.3915  0.3739 -0.2932
    1SOL    HW2 1182   0.441   4.282   0.908 -1.1746 -1.7991  0.3768
    1SOL    HW3 1183   0.324   4.299   0.813  0.2607  2.0504 -0.7596
    1SOL    MW4 1184   0.405   4.272   0.829 -0.4088  0.3085 -0.2663
    1SOL     OW 1185   0.743   4.466   0.687 -0.4295  0.2533 -0.2126
    1SOL    HW2 1186   0.792   4.389   0.714 -0.6521 -0.0673 -0.7198
    1SOL    HW3 1187   0.670   4.432   0.636 -0.6863  0.7820 -0.2031
    1SOL    MW4 1188   0.740   4.452   0.684 -0.4927  0.2804 -0.2782
    1SOL     OW 1189   2.239   1.319   0.009 -0.4624 -0.2423 -0.2651
    1SOL    HW2 1190   2.326   1.349   0.037  0.1354 -1.6503 -0.5775
    1SOL    HW3 1191   2.182   1.394   0.026  1.1077  1.3486 -1.6665
    1SOL    MW4 1192   2.243   1.333   0.015 -0.1764 -0.2182 -0.4912
    1SOL     OW 1193   1.798   1.153   0.840 -0.0203  0.2751  0.2518
    1SOL    HW2 1194   1.719   1.197   0.807  0.2579 -0.2398 -1.1197
    1SOL    HW3 1195   1.870   1.208   0.809  0.2332 -0.1090  0.1595
    1SOL    MW4 1196   1.797   1.166   0.832  0.0497  0.1565  0.0587
    1SOL     OW 1197   1.497   0.532   0.470 -0.0307 -0.2613  0.0077
    1SOL    HW2 1198   1.542   0.616   0.478 -1.0225  0.3843 -0.9964
    1SOL    HW3 1199   1.546   0.485   0.403  0.6927 -0.6034  0.7695
    1SOL    MW4 1200   1.509   0.537   0.462 -0.0660 -0.2213 -0.0243
    1SOL     OW 1201   1.118   0.767   0.816  0.0076 -0.0440 -0.0521
    1SOL    HW2 1202   1.090   0.758   0.907 -2.0237  0.9152 -0.5591
    1SOL    HW3 1203   1.110   0.679   0.779  0.6429 -0.3922  0.6229
    1SOL    MW4 1204   1.113   0.754   0.823 -0.1767  0.0366 -0.0299
    1SOL     OW 1205   3.814   0.478   0.741  0.5195  0.2827 -0.1796
    1SOL    HW2 1206   3.765   0.489   0.659 -0.8606 -1.6708  0.3587
    1SOL    HW3 1207   3.812   0.565   0.782  0.7505  1.1466 -1.9174
    1SOL    MW4 1208   3.807   0.491   0.735  0.3681  0.1389 -0.3379
    1SOL     OW 1209   2.199   1.061   0.153 -0.2431  0.4906 -0.3377
    1SOL    HW2 1210   2.209   1.135   0.093  0.5260  0.3825 -0.3448
    1SOL    HW3 1211   2.107   1.063   0.178 -0.6891  0.2482 -1.8991
    1SOL    MW4 1212   2.188   1.071   0.149 -0.2007  0.4443 -0.5447
    1SOL     OW 1213   1.172   1.217   0.467 -0.1036 -0.3800  0.7295
    1SOL    HW2 1214   1.079   1.209   0.446  0.3366  0.0572 -1.5371
    1SOL    HW3 1215   1.205   1.127   0.460 -0.2828 -0.4887  1.2320
    1SOL    MW4 1216   1.164   1.204   0.463 -0.0693 -0.3365  0.4967
    1SOL     OW 1217   0.666   0.812   0.848  0.1227 -0.3393  0.1840
    1SOL    HW2 1218   0.736   0.865   0.811  0.2957 -0.3812  0.4495
    1SOL    HW3 1219   0.683   0.723   0.816  0.3733 -0.4090  0.4980
    1SOL    MW4 1220   0.677   0.807   0.839  0.1786 -0.3541  0.2604
    1SOL     OW 1221   0.638   1.556   0.850 -0.2580  0.6723  0.1099
    1SOL    HW2 1222   0.710   1.592   0.800  0.4046 -0.3130  0.3385
    1SOL    HW3 1223   0.669   1.555   0.940 -0.6884  0.5869  0.2589
    1SOL    MW4 1224   0.651   1.560   0.855 -0.2273  0.5311  0.1597
    1SOL     OW 1225   3.788   2.044   0.734  0.2653  0.3125 -0.3034
    1SOL    HW2 1226   3.800   2.039   0.640  0.4878  0.8020 -0.3026
    1SOL    HW3 1227   3.867   2.004   0.771 -0.2276 -0.6998 -0.3262
    1SOL    MW4 1228   3.800   2.038   0.727  0.2296  0.2434 -0.3063
    1SOL     OW 1229   1.234   2.444   0.450  0.2090  0.1583  0.1176
    1SOL    HW2 1230   1.232   2.349   0.462  0.0930  0.1792  0.2696
    1SOL    HW3 1231   1.143   2.472   0.460  0.0928  0.1744 -0.8809
    1SOL    MW4 1232   1.222   2.436   0.453  0.1785  0.1633  0.0059
    1SOL     OW 1233   2.900   0.522   0.720  0.0738  1.0119 -0.2178
    1SOL    HW2 1234   2.885   0.599   0.775  0.3131  0.0294  1.2527
    1SOL    HW3 1235   2.962   0.468   0.770  0.6764  0.3300 -1.6819
    1SOL    MW4 1236   2.906   0.525   0.734  0.1848  0.7923 -0.2170
    1SOL     OW 1237   3.354   3.782   0.502 -0.4618 -0.1702 -0.2396
    1SOL    HW2 1238   3.327   3.708   0.449  0.5511 -0.2175 -0.7024
    1SOL    HW3 1239   3.387   3.743   0.583 -0.3987 -0.1982 -0.2788
    1SOL    MW4 1240   3.355   3.767   0.505 -0.3197 -0.1802 -0.3058
    1SOL     OW 1241   0.173   4.381   0.709  0.2993  0.0249  0.2224
    1SOL    HW2 1242   0.161   4.474   0.727 -1.5530 -0.3460  0.9347
    1SOL    HW3 1243   0.104   4.337   0.758 -1.0293 -1.4757 -2.8278
    1SOL    MW4 1244   0.163   4.387   0.718 -0.1204 -0.2222 -0.0859
    1SOL     OW 1245   1.369   1.656   0.461 -0.2608 -0.3029 -0.3843
    1SOL    HW2 1246   1.355   1.571   0.419 -1.0365 -0.0786 -0.6007
    1SOL    HW3 1247   1.326   1.718   0.402 -0.4890  0.1300  0.2419
    1SOL    MW4 1248   1.361   1.653   0.448 -0.3934 -0.2161 -0.3302
    1SOL     OW 1249   0.838   0.292   0.519  0.0427  0.2108 -0.7529
    1SOL    HW2 1250   0.920   0.326   0.481 -0.5116  1.2411 -1.0501
    1SOL    HW3 1251   0.775   0.362   0.505 -0.4019  0.2390  1.3008
    1SOL    MW4 1252   0.841   0.306   0.512 -0.0891  0.3504 -0.5211
    1SOL     OW 1253   0.325   2.152   0.415 -0.1287  0.1480 -0.0588
    1SOL    HW2 1254   0.245   2.116   0.452 -0.4534  0.1414 -0.7523
    1SOL    HW3 1255   0.388   2.080   0.419 -0.0203  0.2957  0.9126
    1SOL    MW4 1256   0.323   2.138   0.420 -0.1573  0.1667 -0.0222
    1SOL     OW 1257   1.299   2.824   0.313  0.6009 -0.1813  0.0655
    1SOL    HW2 1258   1.367   2.757   0.306  1.5780  0.7797  0.3834
    1SOL    HW3 1259   1.252   2.819   0.230  0.7091 -1.2083  0.0550
    1SOL    MW4 1260   1.301   2.814   0.301  0.7441 -0.1898  0.1060
    1SOL     OW 1261   2.415   1.322   0.529 -0.4615  0.6626  0.2969
    1SOL    HW2 1262   2.355   1.253   0.500  0.6446 -0.2201  0.0308
    1SOL    HW3 1263   2.372   1.404   0.505 -1.5352  0.0406  0.0814
    1SOL    MW4 1264   2.402   1.324   0.522 -0.4573  0.4640  0.2334
    1SOL     OW 1265   2.918   4.313   0.543  0.1256 -0.3631 -0.3224
    1SOL    HW2 1266   2.984   4.382   0.541  0.1716 -0.3863  0.3806
    1SOL    HW3 1267   2.895   4.304   0.636 -1.1624 -0.0750 -0.6078
    1SOL    MW4 1268   2.924   4.320   0.555 -0.0384 -0.3285 -0.2673
    1SOL     OW 1269   3.414   3.603   0.726 -0.2816 -0.4368 -0.4106
    1SOL    HW2 1270   3.476   3.552   0.778  0.6234 -0.1924 -1.2395
    1SOL    HW3 1271   3.328   3.567   0.748  0.2444 -1.4771 -0.0599
    1SOL    MW4 1272   3.411   3.592   0.736 -0.0930 -0.5417 -0.4737
    1SOL     OW 1273   3.878   2.319   0.475  0.4778 -0.1330  0.4208
    1SOL    HW2 1274   3.934   2.344   0.548  0.8932  1.5960 -0.4642
    1SOL    HW3 1275   3.821   2.395   0.462 -0.7296 -1.0850  0.0191
    1SOL    MW4 1276   3.878   2.332   0.483  0.3734 -0.0305  0.2511
    1SOL     OW 1277   1.144   4.358   0.725 -0.1967 -0.4085 -0.3931
    1SOL    HW2 1278   1.181   4.345   0.638 -0.1687  1.2909 -0.6647
    1SOL    HW3 1279   1.136   4.453   0.733 -0.2662 -0.5519  1.4394
    1SOL    MW4 1280   1.147   4.369   0.714 -0.2022 -0.2031 -0.1872
    1SOL     OW 1281   1.765   2.426   0.683 -0.3469 -0.4765 -0.5108
    1SOL    HW2 1282   1.765   2.519   0.707  1.7110 -0.5210 -0.2063
    1SOL    HW3 1283   1.684   2.391   0.721 -0.5988  0.9667  0.3212
    1SOL    MW4 1284   1.754   2.434   0.691 -0.1087 -0.2918 -0.3609
    1SOL     OW 1285   1.534   4.596   0.795 -0.4297 -0.5060 -0.0020
    1SOL    HW2 1286   1.538   4.581   0.890 -1.1462 -0.3135  0.0637
    1SOL    HW3 1287   1.544   4.509   0.757 -0.2816 -0.6044  0.2554
    1SOL    MW4 1288   1.536   4.583   0.803 -0.5047 -0.4935  0.0407
    1SOL     OW 1289   1.107   4.620   0.825 -0.1705 -0.3310 -0.2625
    1SOL    HW2 1290   1.167   4.684   0.786 -1.2531  0.6765 -0.3013
    1SOL    HW3 1291   1.020   4.658   0.812 -0.8514 -1.9759 -0.5606
    1SOL    MW4 1292   1.104   4.633   0.818 -0.4032 -0.4148 -0.3070
    1SOL     OW 1293   1.358   0.365   0.845  0.5165 -0.8006  0.3997
    1SOL    HW2 1294   1.347   0.365   0.940  0.0849  0.8734  0.3627
    1SOL    HW3 1295   1.435   0.421   0.830 -1.2403  1.5095 -0.4003
    1SOL    MW4 1296   1.367   0.373   0.856  0.2278 -0.2749  0.2893
    1SOL     OW 1297   1.570   0.529   0.764 -0.3691 -0.1943  1.0332
    1SOL    HW2 1298   1.534   0.536   0.675  0.8732 -0.6347  0.4805
    1SOL    HW3 1299   1.574   0.619   0.795 -0.1377  0.0298  0.3649
    1SOL    MW4 1300   1.566   0.542   0.756 -0.1748 -0.2229  0.8720
    1SOL     OW 1301   3.276   1.604   0.513  0.1512  0.0061  0.1449
    1SOL    HW2 1302   3.302   1.512   0.520 -1.6277 -0.4103  1.4817
    1SOL    HW3 1303   3.202   1.604   0.452 -0.4237  0.4387  0.8458
    1SOL    MW4 1304   3.270   1.592   0.506 -0.1593  0.0081  0.4138
    1SOL     OW 1305   0.884   0.929   0.712 -0.3859 -0.4282 -0.1903
    1SOL    HW2 1306   0.869   0.926   0.617 -0.0469  0.0740 -0.2606
    1SOL    HW3 1307   0.960   0.872   0.726 -0.8569 -1.0533 -0.1303
    1SOL    MW4 1308   0.892   0.921   0.701 -0.4033 -0.4444 -0.1917
    1SOL     OW 1309   1.359   1.142   0.851 -0.0636 -0.1953 -0.0855
    1SOL    HW2 1310   1.346   1.142   0.946  0.2310  0.8681 -0.0459
    1SOL    HW3 1311   1.301   1.210   0.818 -0.2918 -0.6804 -0.6887
    1SOL    MW4 1312   1.350   1.151   0.859 -0.0547 -0.1191 -0.1599
    1SOL     OW 1313   3.335   2.039   0.758 -0.1464  0.3179 -0.2770
    1SOL    HW2 1314   3.314   1.986   0.680  0.0571 -0.0891 -0.0571
    1SOL    HW3 1315   3.412   1.997   0.795  0.3810  1.1372 -0.4371
    1SOL    MW4 1316   3.342   2.026   0.752 -0.0498  0.3724 -0.2691
    1SOL     OW 1317   0.841   4.043   0.457 -0.2984  0.4782 -0.2573
    1SOL    HW2 1318   0.861   4.032   0.550 -1.8596  0.5844  0.1106
    1SOL    HW3 1319   0.925   4.065   0.416  0.8688 -1.9945  0.7270
    1SOL    MW4 1320   0.855   4.044   0.464 -0.3504  0.1664 -0.0789
    1SOL     OW 1321   3.682   1.654   0.509  0.0596 -0.1486 -0.1802
    1SOL    HW2 1322   3.651   1.735   0.468 -1.4105 -0.2483  0.6768
    1SOL    HW3 1323   3.772   1.644   0.477  0.5370  2.2147  0.2747
    1SOL    MW4 1324   3.690   1.663   0.499 -0.0715  0.1498 -0.0071
    1SOL     OW 1325   1.728   1.421   0.343  0.3447 -0.4950  0.6038
    1SOL    HW2 1326   1.695   1.511   0.348  0.0309 -0.7081  2.9401
    1SOL    HW3 1327   1.817   1.426   0.378 -0.0858 -1.2647  1.8522
    1SOL    MW4 1328   1.736   1.434   0.348  0.2465 -0.6249  1.0767
    1SOL     OW 1329   3.045   1.904   0.472  0.3275 -0.2673 -0.3519
    1SOL    HW2 1330   3.016   1.934   0.558 -1.4578  0.0386 -1.0420
    1SOL    HW3 1331   3.138   1.927   0.468 -0.0119  1.3410  0.7715
    1SOL    MW4 1332   3.053   1.911   0.483  0.0474 -0.0148 -0.2947
    1SOL     OW 1333   3.568   4.174   0.520 -0.1095  0.1061  0.2006
    1SOL    HW2 1334   3.633   4.241   0.500  1.5906 -1.2825  0.8464
    1SOL    HW3 1335   3.576   4.161   0.615 -2.8513  1.4243  0.6276
    1SOL    MW4 1336   3.578   4.181   0.530 -0.2468  0.0963  0.3421
    1SOL     OW 1337   1.120   3.555   0.740  0.0124  0.1448 -0.1015
    1SOL    HW2 1338   1.184   3.502   0.788 -1.2159 -0.9574  0.3390
    1SOL    HW3 1339   1.036   3.534   0.780 -0.5524  2.1471 -0.1885
    1SOL    MW4 1340   1.118   3.546   0.751 -0.2242  0.2635 -0.0548
    1SOL     OW 1341   0.876   2.625   0.817 -0.0512 -0.2117  0.0214
    1SOL    HW2 1342   0.872   2.643   0.911 -0.1246  2.1042 -0.3832
    1SOL    HW3 1343   0.813   2.686   0.778 -0.5927 -1.6867 -1.4724
    1SOL    MW4 1344   0.867   2.636   0.824 -0.1323 -0.1009 -0.2291
    1SOL     OW 1345   1.589   2.846   0.707  0.1916  0.0674  0.1593
    1SOL    HW2 1346   1.594   2.935   0.742  0.7852  0.0751  0.0487
    1SOL    HW3 1347   1.503   2.815   0.735 -0.7387  1.2921 -1.2710
    1SOL    MW4 1348   1.578   2.854   0.716  0.1472  0.2298 -0.0440
    1SOL     OW 1349   2.653   4.376   0.428  0.2766 -0.2576 -0.0229
    1SOL    HW2 1350   2.734   4.345   0.470 -0.1290 -1.3805 -0.0609
    1SOL    HW3 1351   2.607   4.296   0.403 -2.3490  0.2629  2.8186
    1SOL    MW4 1352   2.658   4.361   0.430 -0.1235 -0.3376  0.3470
    1SOL     OW 1353   4.126   3.711   0.453 -0.5672 -0.3046  0.2478
    1SOL    HW2 1354   4.169   3.682   0.534  0.1758  0.1440  0.0180
    1SOL    HW3 1355   4.138   3.806   0.453 -0.6938 -0.2916 -0.3233
    1SOL    MW4 1356   4.133   3.720   0.464 -0.4859 -0.2439  0.1421
    1SOL     OW 1357   1.126   3.818   0.861 -0.0918 -0.1288  0.0880
    1SOL    HW2 1358   1.131   3.727   0.833 -0.1735 -0.0502 -0.1787
    1SOL    HW3 1359   1.132   3.814   0.957  0.9529 -0.3378  0.0154
    1SOL    MW4 1360   1.127   3.806   0.870  0.0352 -0.1459  0.0433
    1SOL     OW 1361   4.049   4.243   0.810  0.1466 -0.4501 -0.1761
    1SOL    HW2 1362   3.965   4.290   0.805  0.4287  0.2522  1.1929
    1SOL    HW3 1363   4.113   4.304   0.772  0.3531 -0.1083  0.6911
    1SOL    MW4 1364   4.046   4.258   0.805  0.2112 -0.3119  0.1190
    1SOL     OW 1365   2.277   3.189   0.727  0.1654 -0.0025 -0.0119
    1SOL    HW2 1366   2.195   3.158   0.765  0.4581 -0.5288  0.1950
    1SOL    HW3 1367   2.343   3.126   0.756  0.6184  0.3255 -0.3078
    1SOL    MW4 1368   2.275   3.177   0.736  0.2639 -0.0286 -0.0237
    1SOL     OW 1369   2.230   1.680   0.700 -0.3237  0.3316  0.3392
    1SOL    HW2 1370   2.305   1.642   0.745  0.3695  1.2870  0.0113
    1SOL    HW3 1371   2.208   1.757   0.753 -1.1410  0.0029  0.4882
    1SOL    MW4 1372   2.237   1.685   0.713 -0.3397  0.4144  0.3155
    1SOL     OW 1373   2.019   4.370   0.703 -0.1415  0.0523  0.2603
    1SOL    HW2 1374   2.022   4.332   0.615 -0.2670 -0.2190  0.3734
    1SOL    HW3 1375   1.958   4.314   0.751  0.3739 -0.1481  0.6849
    1SOL    MW4 1376   2.012   4.357   0.697 -0.0899 -0.0100  0.3312
    1SOL     OW 1377   2.127   3.970   0.450  0.1403 -0.2700 -0.1047
    1SOL    HW2 1378   2.046   3.930   0.482  0.5471  0.2683  1.6375
    1SOL    HW3 1379   2.162   3.907   0.388 -0.9092 -1.1195  0.1543
    1SOL    MW4 1380   2.121   3.957   0.446  0.0556 -0.3109  0.1593
    1SOL     OW 1381   2.435   4.658   0.860 -0.2770 -0.1222  0.0616
    1SOL    HW2 1382   2.445   4.654   0.955 -0.9237  1.0176  0.1956
    1SOL    HW3 1383   2.454   4.570   0.830  1.0392 -0.2380  1.1447
    1SOL    MW4 1384   2.439   4.646   0.869 -0.1886  0.0129  0.2221
    1SOL     OW 1385   1.818   3.179   0.444  0.4170  0.0735  0.2881
    1SOL    HW2 1386   1.886   3.131   0.396  0.7898 -0.4307  1.3232
    1SOL    HW3 1387   1.739   3.166   0.391  1.1382  0.7698 -0.9826
    1SOL    MW4 1388   1.817   3.171   0.430  0.5614  0.0985  0.2570
    1SOL     OW 1389   1.793   0.342   0.807  0.1261  0.4072  0.6240
    1SOL    HW2 1390   1.728   0.404   0.773  1.4864  1.7740  0.4557
    1SOL    HW3 1391   1.777   0.262   0.757  0.5453  1.6598 -1.6000
    1SOL    MW4 1392   1.782   0.340   0.796  0.3608  0.7528  0.3083
    1SOL     OW 1393   3.453   4.512   0.449 -0.0933  0.3280 -0.1483
    1SOL    HW2 1394   3.430   4.481   0.537  0.6175 -1.5206 -0.5811
    1SOL    HW3 1395   3.374   4.496   0.397 -0.1096  0.3044 -0.1165
    1SOL    MW4 1396   3.439   4.505   0.454 -0.0017  0.0811 -0.2013
    1SOL     OW 1397   2.977   4.076   0.421 -0.2061 -0.2035 -0.0953
    1SOL    HW2 1398   2.890   4.036   0.417 -0.1865 -0.1544 -1.3064
    1SOL    HW3 1399   2.962   4.164   0.455 -0.7461  0.0993 -1.1023
    1SOL    MW4 1400   2.963   4.082   0.425 -0.2749 -0.1564 -0.3879
    1SOL     OW 1401   1.589   3.110   0.817 -0.2616  0.1387  0.3053
    1SOL    HW2 1402   1.577   3.090   0.910 -0.9037  1.1028  0.4400
    1SOL    HW3 1403   1.507   3.151   0.791 -0.4616 -0.9900 -0.9353
    1SOL    MW4 1404   1.576   3.113   0.826 -0.3728  0.1173  0.1594
    1SOL     OW 1405   3.633   3.910   0.455  0.3808 -0.2619 -0.5670
    1SOL    HW2 1406   3.560   3.849   0.463  0.4512 -0.4442 -1.3090
    1SOL    HW3 1407   3.597   3.995   0.482  0.6178 -0.8440  1.7230
    1SOL    MW4 1408   3.619   3.913   0.460  0.4213 -0.3626 -0.3628
    1SOL     OW 1409   1.608   3.147   0.268  0.2880  0.0579  0.3286
    1SOL    HW2 1410   1.530   3.131   0.321  0.0887  0.0826  0.0430
    1SOL    HW3 1411   1.579   3.207   0.199  0.5372 -0.0020  0.1690
    1SOL    MW4 1412   1.594   3.153   0.266  0.2947  0.0532  0.2699
    1SOL     OW 1413   2.477   1.560   0.823  0.2056 -0.0323  0.3351
    1SOL    HW2 1414   2.460   1.467   0.810  0.8026 -0.0413 -0.3920
    1SOL    HW3 1415   2.556   1.578   0.772 -0.1947  0.9789  0.0428
    1SOL    MW4 1416   2.485   1.550   0.814  0.2317  0.0999  0.2006
    1SOL     OW 1417   4.042   3.976   0.714 -0.6639 -0.4760 -0.0201
    1SOL    HW2 1418   4.089   3.966   0.631 -0.3755 -1.9277  0.2880
    1SOL    HW3 1419   4.048   4.069   0.735 -0.1556 -0.2170 -1.2874
    1SOL    MW4 1420   4.049   3.987   0.706 -0.5593 -0.6335 -0.1466
    1SOL     OW 1421   1.442   2.580   0.321  0.0017 -0.5245 -0.1797
    1SOL    HW2 1422   1.382   2.516   0.359 -0.8589 -0.4829 -1.4438
    1SOL    HW3 1423   1.494   2.530   0.258 -0.0539 -0.1622 -0.5180
    1SOL    MW4 1424   1.441   2.565   0.317 -0.1193 -0.4714 -0.3911
    1SOL     OW 1425   4.127   1.877   0.417  0.0583 -0.1977  0.2684
    1SOL    HW2 1426   4.189   1.804   0.420 -0.5160 -0.7013  0.0098
    1SOL    HW3 1427   4.042   1.836   0.400 -0.2659  0.5352  0.0828
    1SOL    MW4 1428   4.124   1.862   0.416 -0.0606 -0.1674  0.2098
    1SOL     OW 1429   1.622   2.060   0.158  0.0901  0.1012  0.5778
    1SOL    HW2 1430   1.530   2.055   0.186 -0.7198  1.3058 -1.7094
    1SOL    HW3 1431   1.659   2.130   0.212 -0.6256  0.3600  0.7422
    1SOL    MW4 1432   1.615   2.069   0.169 -0.1111  0.2940  0.2977
    1SOL     OW 1433   3.567   1.124   0.815  0.2647 -0.7156  0.1484
    1SOL    HW2 1434   3.556   1.039   0.772  0.6015 -0.9782  0.5721
    1SOL    HW3 1435   3.596   1.102   0.904  1.8454 -0.1064 -0.2117
    1SOL    MW4 1436   3.569   1.110   0.821  0.5178 -0.6697  0.1568
    1SOL     OW 1437   1.088   4.078   0.350 -0.2027 -0.4624 -0.1977
    1SOL    HW2 1438   1.098   4.062   0.256  0.2828 -0.0594 -0.2207
    1SOL    HW3 1439   1.155   4.023   0.390  1.6866  1.6729 -0.2959
    1SOL    MW4 1440   1.098   4.069   0.343  0.1106 -0.1273 -0.2137
    1SOL     OW 1441   1.039   2.061   0.702  0.4666 -0.0299 -0.2423
    1SOL    HW2 1442   0.954   2.046   0.743 -0.0104  0.6775 -0.9788
    1SOL    HW3 1443   1.099   2.003   0.750 -0.5744 -1.1494 -0.2777
    1SOL    MW4 1444   1.036   2.052   0.714  0.2663 -0.0844 -0.3442
    1SOL     OW 1445   3.255   0.240   0.565  0.1280  0.5575 -0.0261
    1SOL    HW2 1446   3.255   0.331   0.593 -0.8458  0.5423  0.0399
    1SOL    HW3 1447   3.194   0.238   0.491 -1.6001 -0.4566  1.3790
    1SOL    MW4 1448   3.247   0.252   0.559 -0.2286  0.4217  0.1680
    1SOL     OW 1449   2.967   2.957   0.276 -0.5650 -0.3695  0.6817
    1SOL    HW2 1450   2.884   2.948   0.228 -0.3608 -0.8264  0.4109
    1SOL    HW3 1451   2.963   2.890   0.344 -0.7396  0.1051  1.1444
    1SOL    MW4 1452   2.955   2.947   0.278 -0.5610 -0.3669  0.7070
    1SOL     OW 1453   1.809   3.472   0.822 -0.0228 -0.0583  0.0086
    1SOL    HW2 1454   1.812   3.462   0.917 -0.6112 -0.1068  0.0254
    1SOL    HW3 1455   1.832   3.385   0.788 -1.2231 -0.4206  0.1201
    1SOL    MW4 1456   1.813   3.459   0.830 -0.2588 -0.1125  0.0255
    1SOL     OW 1457   0.069   3.068   0.344  0.1722  0.1561  0.0241
    1SOL    HW2 1458   0.029   2.983   0.360 -0.0784  0.1269 -0.7154
    1SOL    HW3 1459   0.019   3.128   0.400 -0.2528 -0.0414 -0.1357
    1SOL    MW4 1460   0.057   3.065   0.354  0.0831  0.1261 -0.0946
    1SOL     OW 1461   2.047   1.506   0.084  0.3720 -0.2369 -0.8343
    1SOL    HW2 1462   1.969   1.459   0.058  2.1202 -2.1582 -2.7855
    1SOL    HW3 1463   2.034   1.595   0.051 -1.9207  0.0789  0.8255
    1SOL    MW4 1464   2.035   1.512   0.077  0.3002 -0.4486 -0.8727
    1SOL     OW 1465   0.910   0.385   0.870  0.1663 -0.3691  0.4938
    1SOL    HW2 1466   0.914   0.296   0.835 -1.3378 -0.3867  0.3344
    1SOL    HW3 1467   0.884   0.373   0.962  1.0757 -0.1608  0.7741
    1SOL    MW4 1468   0.907   0.371   0.877  0.0878 -0.3439  0.5097
    1SOL     OW 1469   4.474   3.990   0.423  0.4355  0.1440 -0.2025
    1SOL    HW2 1470   4.474   4.034   0.507  0.0191 -0.4903  0.1383
    1SOL    HW3 1471   4.513   3.904   0.440 -0.0772 -0.1635 -0.5521
    1SOL    MW4 1472   4.479   3.984   0.436  0.3133  0.0198 -0.2036
    1SOL     OW 1473   1.747   0.097   0.394 -0.2306  0.1182  0.1832
    1SOL    HW2 1474   1.757   0.098   0.489 -1.7355  1.0051  0.3556
    1SOL    HW3 1475   1.809   0.161   0.361  0.5442 -0.4480  0.5342
    1SOL    MW4 1476   1.756   0.105   0.402 -0.3271  0.1605  0.2523
    1SOL     OW 1477   0.487   1.917   0.338  0.2249  0.1243 -0.1505
    1SOL    HW2 1478   0.453   1.930   0.250  1.2648 -0.0673 -0.5903
    1SOL    HW3 1479   0.442   1.839   0.370 -1.3081  1.1003  0.0854
    1SOL    MW4 1480   0.477   1.909   0.331  0.1598  0.2278 -0.1774
    1SOL     OW 1481   2.245   0.383   1.118 -0.0288 -0.4122 -0.7437
    1SOL    HW2 1482   2.246   0.382   1.022  1.1565  0.3681 -0.7623
    1SOL    HW3 1483   2.158   0.413   1.141  0.4480  1.7725 -1.6448
    1SOL    MW4 1484   2.234   0.387   1.108  0.1907 -0.0210 -0.8651
    1SOL     OW 1485   4.321   0.464   0.659 -0.3144  0.1151 -0.2511
    1SOL    HW2 1486   4.341   0.420   0.576 -1.4099 -1.8280  0.4692
    1SOL    HW3 1487   4.382   0.426   0.722 -0.2954  0.7090  0.0952
    1SOL    MW4 1488   4.332   0.453   0.656 -0.4568 -0.0629 -0.1104
    1SOL     OW 1489   2.312   0.639   0.326  0.3502  0.1550  0.5113
    1SOL    HW2 1490   2.314   0.546   0.347 -0.5115  0.0269  0.0711
    1SOL    HW3 1491   2.404   0.666   0.322  0.6039 -0.7204  0.4343
    1SOL    MW4 1492   2.324   0.630   0.328  0.2704  0.0225  0.4430
    1SOL     OW 1493   2.639   1.338   0.322 -0.1250 -0.0402 -0.7406
    1SOL    HW2 1494   2.571   1.339   0.389  1.0985  1.8812  0.5250
    1SOL    HW3 1495   2.706   1.279   0.357 -1.0243 -1.8246 -1.9251
    1SOL    MW4 1496   2.639   1.330   0.335 -0.0825 -0.0221 -0.7299
    1SOL     OW 1497   2.448   1.282   0.813 -0.2950  0.0965  0.2985
    1SOL    HW2 1498   2.442   1.288   0.718  0.9246  1.5811  0.3059
    1SOL    HW3 1499   2.376   1.224   0.838 -0.1460 -0.9464 -1.5896
    1SOL    MW4 1500   2.438   1.275   0.804 -0.1147  0.1549  0.0504
    1SOL     OW 1501   2.212   1.143   0.891 -0.2124  0.1255 -0.1891
    1SOL    HW2 1502   2.219   1.059   0.845 -0.2720 -0.2098  0.4041
    1SOL    HW3 1503   2.215   1.119   0.984 -1.3495  0.6829 -0.0061
    1SOL    MW4 1504   2.213   1.129   0.897 -0.3703  0.1549 -0.0867
    1SOL     OW 1505   1.542   1.544   0.867  0.1515 -0.2910 -0.2529
    1SOL    HW2 1506   1.546   1.538   0.962  0.0984 -0.3167 -0.2522
    1SOL    HW3 1507   1.545   1.453   0.838  0.3245 -0.2769 -0.2818
    1SOL    MW4 1508   1.543   1.531   0.876  0.1673 -0.2924 -0.2567
    1SOL     OW 1509   3.141   0.832   0.794 -0.0060  0.5521  0.4974
    1SOL    HW2 1510   3.211   0.779   0.833 -1.3205 -0.9144  0.8809
    1SOL    HW3 1511   3.157   0.921   0.828  0.8484 -0.0484  1.7032
    1SOL    MW4 1512   3.153   0.837   0.804 -0.0668  0.2793  0.7070
    1SOL     OW 1513   1.251   0.591   0.347  0.2420  0.0676  0.8495
    1SOL    HW2 1514   1.334   0.586   0.394  0.4003 -2.3944  0.3610
    1SOL    HW3 1515   1.270   0.552   0.261 -1.1322  0.5730  0.3088
    1SOL    MW4 1516   1.265   0.586   0.342  0.0814 -0.1906  0.7137
    1SOL     OW 1517   2.223   1.939   0.822 -0.0351 -0.2053 -0.1320
    1SOL    HW2 1518   2.147   1.989   0.791  0.3399 -0.9411 -2.3501
    1SOL    HW3 1519   2.298   1.981   0.779  0.4305 -1.6875 -0.8076
    1SOL    MW4 1520   2.223   1.951   0.812  0.0758 -0.4982 -0.5138
    1SOL     OW 1521   2.215   3.738   0.319 -0.0339 -0.6920 -0.3672
    1SOL    HW2 1522   2.170   3.726   0.235 -0.0118  0.2266 -0.5183
    1SOL    HW3 1523   2.162   3.688   0.382 -0.6922 -0.4619 -0.7289
    1SOL    MW4 1524   2.202   3.730   0.316 -0.1180 -0.5407 -0.4349
    1SOL     OW 1525   3.322   3.481   0.449 -0.3136 -0.0876 -0.1526
    1SOL    HW2 1526   3.410   3.448   0.464 -0.4099  0.2724  1.2568
    1SOL    HW3 1527   3.266   3.403   0.452 -0.0942 -0.2711 -0.7102
    1SOL    MW4 1528   3.326   3.466   0.451 -0.2973 -0.0641 -0.0402
    1SOL     OW 1529   2.313   2.424   0.774 -0.1841  0.2188 -0.4489
    1SOL    HW2 1530   2.228   2.380   0.776 -0.2778  0.4249 -0.0062
    1SOL    HW3 1531   2.295   2.514   0.801  0.2280  0.1763 -0.0284
    1SOL    MW4 1532   2.299   2.430   0.778 -0.1421  0.2403 -0.3350
    1SOL     OW 1533   2.244   2.691   0.825 -0.8314  0.2414 -0.3767
    1SOL    HW2 1534   2.255   2.693   0.920 -2.6420 -0.1858 -0.1484
    1SOL    HW3 1535   2.329   2.720   0.791 -0.1341  0.3056  1.3576
    1SOL    MW4 1536   2.257   2.695   0.833 -0.9785  0.1936 -0.1178
    1SOL     OW 1537   1.695   4.066   0.387 -0.4108 -0.3832  0.4527
    1SOL    HW2 1538   1.763   4.117   0.344  0.3846 -0.7217  1.2786
    1SOL    HW3 1539   1.646   4.129   0.440  0.0844 -0.3463  0.8700
    1SOL    MW4 1540   1.697   4.081   0.388 -0.2404 -0.4230  0.6167
    1SOL     OW 1541   1.798   4.242   0.796  0.0528 -0.2221 -0.3464
    1SOL    HW2 1542   1.782   4.263   0.889 -0.6202  0.1912 -0.5514
    1SOL    HW3 1543   1.794   4.147   0.792 -0.6217 -0.2098 -0.0733
    1SOL    MW4 1544   1.796   4.233   0.808 -0.1249 -0.1659 -0.3375
    1SOL     OW 1545   2.296   3.342   0.474 -0.0407  0.6589  0.1093
    1SOL    HW2 1546   2.296   3.288   0.395  1.6295 -0.3080  0.7397
    1SOL    HW3 1547   2.308   3.279   0.546  1.8937  1.8211  0.8617
    1SOL    MW4 1548   2.298   3.326   0.473  0.4349  0.6847  0.2918
    1SOL     OW 1549   2.782   2.278   0.386 -0.0518 -0.0472 -0.0253
    1SOL    HW2 1550   2.795   2.194   0.343 -1.2686 -0.3989  0.2756
    1SOL    HW3 1551   2.822   2.267   0.473  1.5626  0.3571 -0.6887
    1SOL    MW4 1552   2.789   2.266   0.392  0.0007 -0.0405 -0.0732
    1SOL     OW 1553   1.422   3.665   0.156  0.2299  0.0549  0.3606
    1SOL    HW2 1554   1.491   3.603   0.178  0.2067  0.3831  1.3686
    1SOL    HW3 1555   1.455   3.750   0.187 -0.2947  0.3384  0.1522
    1SOL    MW4 1556   1.435   3.668   0.163  0.1576  0.1357  0.4661
    1SOL     OW 1557   1.792   3.960   0.764  0.3267  0.0142  0.7053
    1SOL    HW2 1558   1.878   3.934   0.796  0.8804 -1.1661 -1.6038
    1SOL    HW3 1559   1.731   3.898   0.805  0.8435 -0.5233  0.6737
    1SOL    MW4 1560   1.795   3.948   0.773  0.4679 -0.2124  0.3964
    1SOL     OW 1561   3.174   3.986   0.729  0.1959  0.0029 -0.8724
    1SOL    HW2 1562   3.112   3.950   0.792  1.1147  0.7298  0.4682
    1SOL    HW3 1563   3.259   3.953   0.758  0.7993  1.5499 -0.8330
    1SOL    MW4 1564   3.177   3.977   0.741  0.3967  0.3033 -0.6903
    1SOL     OW 1565   2.521   2.222   0.468  0.2208  0.0000  0.2287
    1SOL    HW2 1566   2.509   2.317   0.479 -1.1519 -0.0731 -0.4597
    1SOL    HW3 1567   2.608   2.213   0.430 -0.2518  1.1052 -1.1684
    1SOL    MW4 1568   2.531   2.234   0.464 -0.0224  0.1364 -0.0465
    1SOL     OW 1569   2.303   1.081   0.419  0.1317  0.2608  0.3265
    1SOL    HW2 1570   2.296   1.085   0.323  1.2073 -0.3046  0.2168
    1SOL    HW3 1571   2.255   1.002   0.443  0.0744  0.2678  0.2372
    1SOL    MW4 1572   2.295   1.071   0.409  0.2663  0.1873  0.3002
    1SOL     OW 1573   2.889   0.759   0.882 -0.2524  0.2241 -0.0601
    1SOL    HW2 1574   2.916   0.729   0.969  1.5126  0.7862 -0.3876
    1SOL    HW3 1575   2.970   0.792   0.842 -1.0663  0.0678 -1.8780
    1SOL    MW4 1576   2.903   0.759   0.888 -0.1268  0.2776 -0.3432
    1SOL     OW 1577   2.980   3.732   0.497 -0.2471 -0.1739 -0.1534
    1SOL    HW2 1578   2.966   3.672   0.570 -0.0255 -0.1961 -0.1280
    1SOL    HW3 1579   2.900   3.783   0.492 -0.4076 -0.4199 -0.1245
    1SOL    MW4 1580   2.968   3.730   0.506 -0.2394 -0.2093 -0.1462
    1SOL     OW 1581   2.474   0.798   0.830 -0.3766 -0.1083 -0.0070
    1SOL    HW2 1582   2.558   0.837   0.805  0.5199 -1.6033  0.6135
    1SOL    HW3 1583   2.478   0.709   0.794 -1.4198 -0.3968  0.5990
    1SOL    MW4 1584   2.486   0.791   0.822 -0.3958 -0.3436  0.1549
    1SOL     OW 1585   1.669   0.757   0.521 -0.1319 -0.1499  0.1635
    1SOL    HW2 1586   1.702   0.794   0.603 -0.3217 -0.3313  0.3248
    1SOL    HW3 1587   1.748   0.736   0.471  0.0370 -1.2754  0.8549
    1SOL    MW4 1588   1.684   0.759   0.525 -0.1347 -0.3224  0.2760
    1SOL     OW 1589   2.996   0.765   0.352  0.1407 -0.7422 -0.6732
    1SOL    HW2 1590   2.929   0.812   0.401 -0.4318 -1.6600 -0.5664
    1SOL    HW3 1591   2.967   0.674   0.353  1.9178 -1.3159  0.2782
    1SOL    MW4 1592   2.983   0.759   0.359  0.2995 -0.9391 -0.5336
    1SOL     OW 1593   1.061   2.824   0.473 -0.1862  0.1103 -0.2858
    1SOL    HW2 1594   1.036   2.909   0.436 -2.0228 -0.5027 -0.5347
    1SOL    HW3 1595   1.135   2.796   0.420  0.3375  1.4786 -0.3103
    1SOL    MW4 1596   1.067   2.832   0.461 -0.3593  0.2103 -0.3218
    1SOL     OW 1597   2.924   2.722   0.462  0.0905  0.1307 -0.4381
    1SOL    HW2 1598   2.843   2.677   0.438 -0.2280 -0.2298  1.2440
    1SOL    HW3 1599   2.994   2.661   0.438 -0.0852  0.6575 -2.3741
    1SOL    MW4 1600   2.923   2.708   0.455  0.0253  0.1528 -0.4716
    1SOL     OW 1601   2.719   1.614   0.683  0.5614 -0.1126 -0.1214
    1SOL    HW2 1602   2.739   1.610   0.589  0.5746  0.0491 -0.1260
    1SOL    HW3 1603   2.741   1.704   0.708  0.2368 -0.0558 -0.0355
    1SOL    MW4 1604   2.724   1.626   0.674  0.5202 -0.0838 -0.1107
    1SOL     OW 1605   3.140   1.629   0.753  0.2311 -0.7014  0.0330
    1SOL    HW2 1606   3.196   1.621   0.676 -0.6414  0.1883 -0.6993
    1SOL    HW3 1607   3.146   1.721   0.778  0.3517 -0.9427  0.9204
    1SOL    MW4 1608   3.148   1.640   0.746  0.1318 -0.6160  0.0535
    1SOL     OW 1609   0.016   0.110   0.413 -0.3104 -0.1791 -0.0905
    1SOL    HW2 1610  -0.063   0.069   0.378  0.6018 -0.6865 -1.5951
    1SOL    HW3 1611   0.012   0.093   0.507 -2.3405  0.4066 -0.0406
    1SOL    MW4 1612   0.005   0.102   0.421 -0.4579 -0.1688 -0.2824
    1SOL     OW 1613   1.796   2.499   0.408 -0.3287  0.1027  0.2927
    1SOL    HW2 1614   1.785   2.458   0.493  1.2278  0.1074  0.5164
    1SOL    HW3 1615   1.757   2.586   0.418 -0.8571 -0.1875  0.7592
    1SOL    MW4 1616   1.789   2.505   0.421 -0.1930  0.0651  0.3838
    1SOL     OW 1617   2.693   1.151   0.888  0.1759 -0.1324  0.2511
    1SOL    HW2 1618   2.752   1.196   0.827  0.5508 -0.4124  0.4053
    1SOL    HW3 1619   2.607   1.186   0.868  0.5013  0.8396  0.5518
    1SOL    MW4 1620   2.690   1.161   0.877  0.2682 -0.0411  0.3111
    1SOL     OW 1621   2.893   2.276   0.653 -0.0471  0.1721 -0.1275
    1SOL    HW2 1622   2.929   2.193   0.683  1.1241  0.6222 -0.2413
    1SOL    HW3 1623   2.829   2.300   0.720  0.1680 -0.4446  0.3029
    1SOL    MW4 1624   2.889   2.268   0.666  0.1359  0.1504 -0.0857
    1SOL     OW 1625   2.725   2.381   0.864  0.1400  0.5670 -0.3603
    1SOL    HW2 1626   2.778   2.368   0.942 -1.3148  0.9755  0.7137
    1SOL    HW3 1627   2.727   2.476   0.850 -0.1545  0.5646 -0.4235
    1SOL    MW4 1628   2.733   2.392   0.872 -0.0908  0.6201 -0.2269
    1SOL     OW 1629   2.725   2.663   0.827 -0.3284  0.1553 -0.2165
    1SOL    HW2 1630   2.805   2.704   0.794 -0.7371  0.7256 -0.5027
    1SOL    HW3 1631   2.724   2.682   0.920  0.4941 -0.8957  0.0137
    1SOL    MW4 1632   2.735   2.671   0.835 -0.2735  0.0916 -0.2239
    1SOL     OW 1633   1.151   1.289   0.728 -0.4072 -0.3449  0.1138
    1SOL    HW2 1634   1.084   1.234   0.770  0.3269 -1.2458  0.1115
    1SOL    HW3 1635   1.143   1.270   0.635 -0.0711 -0.5374  0.1244
    1SOL    MW4 1636   1.141   1.280   0.721 -0.2658 -0.4891  0.1148
    1SOL     OW 1637   1.580   1.239   0.498  0.2311  0.0768 -0.3601
    1SOL    HW2 1638   1.637   1.289   0.439 -0.9500  0.5283 -1.1379
    1SOL    HW3 1639   1.583   1.150   0.464 -0.1649  0.2654 -0.8981
    1SOL    MW4 1640   1.588   1.234   0.486  0.0230  0.1613 -0.5337
    1SOL     OW 1641   2.502   3.040   0.833  0.3735  0.2042 -0.0095
    1SOL    HW2 1642   2.579   3.093   0.811 -0.9275  1.7052 -1.0560
    1SOL    HW3 1643   2.500   3.040   0.929  2.0181 -0.3542  0.0308
    1SOL    MW4 1644   2.512   3.047   0.843  0.4189  0.3288 -0.1423
    1SOL     OW 1645   2.720   3.465   0.858  0.2615  0.7000 -0.0941
    1SOL    HW2 1646   2.791   3.517   0.819 -0.5217  2.0851  0.2826
    1SOL    HW3 1647   2.740   3.464   0.952  0.4899 -0.0347 -0.1472
    1SOL    MW4 1648   2.732   3.472   0.865  0.1881  0.7856 -0.0514
    1SOL     OW 1649   2.941   3.607   0.754  0.0126 -0.2866  0.2904
    1SOL    HW2 1650   3.024   3.561   0.764 -0.3987 -0.9341  0.7613
    1SOL    HW3 1651   2.956   3.693   0.793  0.7120 -0.0993 -0.3885
    1SOL    MW4 1652   2.954   3.613   0.761  0.0505 -0.3474  0.2629
    1SOL     OW 1653   2.398   2.841   0.476  0.7081 -0.0223 -0.5168
    1SOL    HW2 1654   2.434   2.783   0.410  0.4333 -0.0009 -0.6872
    1SOL    HW3 1655   2.428   2.806   0.559 -0.6435 -1.2442 -0.5314
    1SOL    MW4 1656   2.406   2.829   0.478  0.4935 -0.1805 -0.5412
    1SOL     OW 1657   0.704   0.110   0.356  0.2651  0.5242 -0.2605
    1SOL    HW2 1658   0.702   0.161   0.275  0.9693  1.7668  0.4785
    1SOL    HW3 1659   0.736   0.172   0.422 -1.5604 -0.0692  1.2497
    1SOL    MW4 1660   0.708   0.125   0.354  0.1171  0.6098  0.0362
    1SOL     OW 1661   2.741   3.980   0.762 -0.1835  0.3840 -0.1183
    1SOL    HW2 1662   2.717   4.071   0.781  0.1727  0.8645 -1.9097
    1SOL    HW3 1663   2.658   3.932   0.766 -0.5137  0.9549 -0.1152
    1SOL    MW4 1664   2.727   3.986   0.765 -0.1800  0.5229 -0.3542
    1SOL     OW 1665   2.893   1.227   0.717  0.1069  0.3928  0.1394
    1SOL    HW2 1666   2.895   1.316   0.753  0.4080  0.1975  0.6145
    1SOL    HW3 1667   2.961   1.180   0.766  0.3860  0.0660 -0.5482
    1SOL    MW4 1668   2.902   1.233   0.728  0.1836  0.3240  0.1114
    1SOL     OW 1669   2.035   0.488   0.731 -0.0881  0.0082  0.8825
    1SOL    HW2 1670   1.956   0.445   0.763 -0.4480  0.3582  0.4665
    1SOL    HW3 1671   2.022   0.580   0.755  0.3920 -0.0049  1.2034
    1SOL    MW4 1672   2.023   0.495   0.739 -0.0722  0.0527  0.8700
    1SOL     OW 1673   2.329   0.386   0.479  0.0712 -0.3702 -0.0839
    1SOL    HW2 1674   2.337   0.290   0.487 -0.2622 -0.4814 -1.0931
    1SOL    HW3 1675   2.418   0.416   0.461  0.1088 -0.5304 -0.1693
    1SOL    MW4 1676   2.342   0.377   0.478  0.0322 -0.4060 -0.2283
    1SOL     OW 1677   1.163   2.175   0.464 -0.0463 -0.0013  0.4729
    1SOL    HW2 1678   1.230   2.135   0.408 -1.1676 -0.3980 -0.5827
    1SOL    HW3 1679   1.140   2.107   0.527  0.2118 -0.0157  0.5522
    1SOL    MW4 1680   1.169   2.161   0.465 -0.1601 -0.0553  0.3440
    1SOL     OW 1681   3.103   0.367   0.849 -0.0230 -0.0801  0.4337
    1SOL    HW2 1682   3.118   0.379   0.943  0.2178  0.5168  0.3235
    1SOL    HW3 1683   3.127   0.277   0.832  0.2498 -0.0940  0.8873
    1SOL    MW4 1684   3.108   0.357   0.860  0.0451 -0.0031  0.4790
    1SOL     OW 1685   2.698   2.566   0.404  0.2090 -0.4294 -0.3676
    1SOL    HW2 1686   2.720   2.474   0.390 -0.0275 -0.3314 -1.4826
    1SOL    HW3 1687   2.628   2.565   0.470  1.3499 -0.9278  0.8549
    1SOL    MW4 1688   2.691   2.554   0.411  0.3285 -0.4826 -0.3534
    1SOL     OW 1689   2.491   0.532   0.723 -0.3119  0.1615  0.3749
    1SOL    HW2 1690   2.418   0.477   0.751  0.0725 -1.5276 -1.7965
    1SOL    HW3 1691   2.568   0.493   0.763 -0.3166  0.5484  0.7646
    1SOL    MW4 1692   2.492   0.520   0.732 -0.2618 -0.0103  0.1398
    1SOL     OW 1693   3.822   4.396   0.797 -0.2016 -0.0913  0.4934
    1SOL    HW2 1694   3.748   4.352   0.838 -0.1818 -2.6060 -2.0133
    1SOL    HW3 1695   3.794   4.410   0.706  1.7352  0.5097 -0.0334
    1SOL    MW4 1696   3.808   4.392   0.791  0.0567 -0.3443  0.0932
    1SOL     OW 1697   3.369   1.523   0.871  0.2902 -0.1732 -0.1769
    1SOL    HW2 1698   3.288   1.567   0.846  0.4898  0.0091 -0.5146
    1SOL    HW3 1699   3.365   1.517   0.966  0.1165  0.3005 -0.1528
    1SOL    MW4 1700   3.358   1.528   0.880  0.2937 -0.0867 -0.2183
    1SOL     OW 1701   2.237   0.886   0.749 -0.4506 -0.1844  0.0276
    1SOL    HW2 1702   2.219   0.850   0.663  0.2195  0.5086 -0.4114
    1SOL    HW3 1703   2.317   0.840   0.778 -0.6092 -0.3339  0.2298
    1SOL    MW4 1704   2.245   0.875   0.742 -0.3831 -0.1127 -0.0036
    1SOL     OW 1705   3.576   0.842   0.736  0.4089  0.1788 -0.5153
    1SOL    HW2 1706   3.545   0.792   0.661  1.2680 -0.4933 -0.4232
    1SOL    HW3 1707   3.659   0.802   0.760  0.8203  1.2654 -0.0602
    1SOL    MW4 1708   3.583   0.830   0.730  0.5767  0.2335 -0.4430
    1SOL     OW 1709   3.037   2.372   0.292 -0.4605  0.1248  0.3069
    1SOL    HW2 1710   2.946   2.344   0.302  0.6113 -2.9524  2.1729
    1SOL    HW3 1711   3.058   2.357   0.200 -1.7910  0.8080 -0.1212
    1SOL    MW4 1712   3.028   2.366   0.281 -0.4950 -0.1912  0.4966
    1SOL     OW 1713   1.581   3.809   0.865  0.4174 -0.0113 -0.2599
    1SOL    HW2 1714   1.519   3.861   0.814 -1.5268 -0.5841  1.4512
    1SOL    HW3 1715   1.580   3.722   0.824 -0.9769 -0.4124  0.6307
    1SOL    MW4 1716   1.573   3.804   0.853 -0.0230 -0.1397  0.0834
    1SOL     OW 1717   3.772   0.230   0.384  0.2794  0.2838  0.1943
    1SOL    HW2 1718   3.753   0.323   0.396 -0.0975  0.0395  1.5620
    1SOL    HW3 1719   3.687   0.186   0.394  0.4772 -0.2174 -0.2978
    1SOL    MW4 1720   3.758   0.236   0.387  0.2561  0.1854  0.3098
    1SOL     OW 1721   3.579   2.978   0.394  0.0584 -0.1074  0.4007
    1SOL    HW2 1722   3.632   3.057   0.401  0.1921 -0.1211 -0.3903
    1SOL    HW3 1723   3.489   3.010   0.381  0.2463 -0.0687 -0.9135
    1SOL    MW4 1724   3.574   2.993   0.393  0.1009 -0.1042  0.1229
    1SOL     OW 1725   2.952   2.814   0.722 -0.4968 -0.0826 -0.0806
    1SOL    HW2 1726   3.030   2.777   0.763 -0.3932  0.8145  0.5334
    1SOL    HW3 1727   2.954   2.781   0.632  0.5816 -0.0747 -0.0568
    1SOL    MW4 1728   2.962   2.805   0.716 -0.3407  0.0370  0.0036
    1SOL     OW 1729   1.742   1.682   0.718  0.3858  0.0017  0.4936
    1SOL    HW2 1730   1.674   1.636   0.767  0.4360 -0.4219  0.1698
    1SOL    HW3 1731   1.822   1.632   0.735  0.4526  0.0055  0.1955
    1SOL    MW4 1732   1.744   1.669   0.727  0.4013 -0.0535  0.4116
    1SOL     OW 1733   1.462   3.450   0.485 -0.1124 -0.2068  0.2811
    1SOL    HW2 1734   1.385   3.496   0.453  0.9440  1.7856  0.5188
    1SOL    HW3 1735   1.487   3.498   0.564  0.9197 -1.3035  0.6358
    1SOL    MW4 1736   1.455   3.462   0.492  0.1632 -0.0887  0.3593
    1SOL     OW 1737   3.183   3.189   0.738 -0.4702  0.2096 -0.0253
    1SOL    HW2 1738   3.097   3.157   0.765 -0.2202 -1.1073 -0.7606
    1SOL    HW3 1739   3.176   3.201   0.643  0.2001 -0.0259 -0.1054
    1SOL    MW4 1740   3.171   3.186   0.729 -0.3488  0.0048 -0.1329
    1SOL     OW 1741   3.183   3.486   0.804  0.1928  0.4186 -0.2690
    1SOL    HW2 1742   3.181   3.393   0.780  0.2697  0.3635 -0.0680
    1SOL    HW3 1743   3.172   3.486   0.899 -1.9742  0.7355 -0.5002
    1SOL    MW4 1744   3.182   3.473   0.813 -0.0827  0.4535 -0.2730
    1SOL     OW 1745   3.158   3.219   0.473 -0.1430 -0.2659 -0.3196
    1SOL    HW2 1746   3.073   3.225   0.429 -0.5054 -1.4912  0.1969
    1SOL    HW3 1747   3.206   3.154   0.422  0.0980 -0.3614  0.0311
    1SOL    MW4 1748   3.153   3.211   0.460 -0.1585 -0.4401 -0.2052
    1SOL     OW 1749   3.587   4.059   0.782 -0.1052  0.0911  0.0629
    1SOL    HW2 1750   3.511   4.003   0.767  1.0950 -1.5160 -0.1351
    1SOL    HW3 1751   3.660   3.998   0.795  1.1900  1.6015  0.0480
    1SOL    MW4 1752   3.587   4.044   0.782  0.2241  0.0792  0.0349
    1SOL     OW 1753   0.012   0.695   0.731  0.0939 -0.0859 -0.4366
    1SOL    HW2 1754  -0.028   0.619   0.689  0.9622 -0.7616 -0.0408
    1SOL    HW3 1755   0.026   0.758   0.660 -1.8999  0.2744 -0.5576
    1SOL    MW4 1756   0.008   0.693   0.716 -0.0546 -0.1276 -0.4004
    1SOL     OW 1757   3.176   4.275   0.836  0.5407  0.0021  0.7416
    1SOL    HW2 1758   3.085   4.303   0.835  0.6012  0.1942  0.4931
    1SOL    HW3 1759   3.174   4.185   0.804  0.4568  0.0722  0.5426
    1SOL    MW4 1760   3.164   4.267   0.831  0.5376  0.0362  0.6826
    1SOL     OW 1761   2.787   0.907   0.479 -0.0657  0.4434 -0.4563
    1SOL    HW2 1762   2.758   0.907   0.570  0.7370 -1.2899 -0.1819
    1SOL    HW3 1763   2.816   0.997   0.463  0.1028  0.6711  1.1083
    1SOL    MW4 1764   2.787   0.919   0.489  0.0625  0.2448 -0.2137
    1SOL     OW 1765   1.984   1.559   0.788 -0.1529 -0.1236 -0.2216
    1SOL    HW2 1766   1.985   1.465   0.771  0.1346 -0.2824  0.6860
    1SOL    HW3 1767   2.070   1.590   0.759 -0.5496 -0.0002 -1.2899
    1SOL    MW4 1768   1.996   1.551   0.782 -0.1674 -0.1283 -0.2428
    1SOL     OW 1769   3.145   0.080   0.759  0.4684  0.2172  0.1733
    1SOL    HW2 1770   3.182   0.122   0.681 -0.6920 -1.1057 -1.1289
    1SOL    HW3 1771   3.221   0.046   0.806  1.0754 -0.6532 -1.3885
    1SOL    MW4 1772   3.160   0.081   0.755  0.3955 -0.0722 -0.2046
    1SOL     OW 1773   3.556   0.375   0.818 -0.6156 -0.1093  0.0175
    1SOL    HW2 1774   3.643   0.396   0.785 -0.1526  0.2192  1.3983
    1SOL    HW3 1775   3.556   0.407   0.908 -2.9241  1.9343 -0.6334
    1SOL    MW4 1776   3.567   0.382   0.826 -0.8593  0.2037  0.1138
    1SOL     OW 1777   0.683   0.550   0.775  0.1123  0.2516 -0.0681
    1SOL    HW2 1778   0.606   0.539   0.830  0.9104 -1.1200  0.8140
    1SOL    HW3 1779   0.753   0.505   0.822  0.6751 -1.5376 -2.5054
    1SOL    MW4 1780   0.682   0.543   0.788  0.2918 -0.1654 -0.2733
    1SOL     OW 1781   3.807   0.720   0.875  0.2089  0.8876 -0.2217
    1SOL    HW2 1782   3.818   0.725   0.970  1.7543 -1.1729 -0.2858
    1SOL    HW3 1783   3.887   0.757   0.839  1.0232 -1.2859 -0.7002
    1SOL    MW4 1784   3.819   0.726   0.882  0.5202  0.3290 -0.2933
    1SOL     OW 1785   1.658   1.665   0.440 -0.5064  0.5718  0.0960
    1SOL    HW2 1786   1.697   1.664   0.527  0.5383 -0.2826 -0.3864
    1SOL    HW3 1787   1.565   1.646   0.456  0.0114 -1.4724  0.8501
    1SOL    MW4 1788   1.651   1.663   0.454 -0.3003  0.1894  0.1318
    1SOL     OW 1789   3.805   1.501   0.857  0.1451  0.4399  0.1159
    1SOL    HW2 1790   3.798   1.412   0.824  2.5212  0.4611 -0.5499
    1SOL    HW3 1791   3.724   1.544   0.829  0.0349 -0.8515 -1.6129
    1SOL    MW4 1792   3.794   1.495   0.849  0.4439  0.2724 -0.2000
    1SOL     OW 1793   2.224   1.905   0.245  0.2094 -0.2315 -0.3566
    1SOL    HW2 1794   2.134   1.876   0.256  0.4890 -1.2592 -0.7604
    1SOL    HW3 1795   2.273   1.826   0.224  1.0157  0.4836 -1.2428
    1SOL    MW4 1796   2.219   1.891   0.243  0.3526 -0.2728 -0.5268
    1SOL     OW 1797   4.255   2.836   0.738  0.2252 -0.2798 -0.3313
    1SOL    HW2 1798   4.327   2.782   0.771 -0.0899 -0.4455  0.0860
    1SOL    HW3 1799   4.261   2.917   0.788  0.0731 -0.3206 -0.2494
    1SOL    MW4 1800   4.266   2.840   0.749  0.1640 -0.3068 -0.2654
    1SOL     OW 1801   1.130   0.476   0.732 -0.2729 -0.1202 -0.2180
    1SOL    HW2 1802   1.208   0.428   0.762  0.1807  1.2483  0.8682
    1SOL    HW3 1803   1.060   0.446   0.790  0.0098  0.5074  0.4583
    1SOL    MW4 1804   1.131   0.466   0.744 -0.1757  0.1432  0.0145
    1SOL     OW 1805   3.691   2.538   0.479  0.3345 -0.0465  0.5641
    1SOL    HW2 1806   3.610   2.573   0.441  0.8604  0.4138 -0.1413
    1SOL    HW3 1807   3.664   2.501   0.563 -0.5265  0.5542  0.5602
    1SOL    MW4 1808   3.677   2.538   0.485  0.2902  0.0937  0.4705
    1SOL     OW 1809   3.356   2.313   0.801 -0.1562  0.1175  0.3434
    1SOL    HW2 1810   3.341   2.321   0.895  1.0843 -0.0519  0.5692
    1SOL    HW3 1811   3.349   2.220   0.783  1.3571 -0.0491  0.5882
    1SOL    MW4 1812   3.353   2.302   0.811  0.2072  0.0732  0.4054
    1SOL     OW 1813   3.796   2.274   1.132 -0.1933  0.0726  1.0518
    1SOL    HW2 1814   3.866   2.325   1.173  1.0799 -1.2210  0.5276
    1SOL    HW3 1815   3.809   2.287   1.038 -0.8355  0.0395  0.9535
    1SOL    MW4 1816   3.807   2.283   1.125 -0.1097 -0.1025  0.9699
    1SOL     OW 1817   1.849   2.058   0.487  0.2384 -0.0979 -0.1836
    1SOL    HW2 1818   1.901   2.109   0.425  1.6933  0.4487  1.4115
    1SOL    HW3 1819   1.908   2.047   0.563 -0.8938 -2.1390  0.4242
    1SOL    MW4 1820   1.864   2.064   0.489  0.2807 -0.2954  0.1070
    1SOL     OW 1821   3.588   2.668   0.867 -0.5184 -0.0543 -0.6189
    1SOL    HW2 1822   3.601   2.680   0.961 -1.4169  0.3997 -0.5474
    1SOL    HW3 1823   3.656   2.721   0.826  0.0471 -0.4691 -0.2283
    1SOL    MW4 1824   3.598   2.676   0.874 -0.5624 -0.0491 -0.5580
    1SOL     OW 1825   1.832   3.460   0.369 -0.3374 -0.3452  0.3216
    1SOL    HW2 1826   1.817   3.375   0.409  0.6273 -0.2303  0.9263
    1SOL    HW3 1827   1.921   3.483   0.393 -0.9016  1.2657  0.9778
    1SOL    MW4 1828   1.841   3.452   0.378 -0.2846 -0.1173  0.4879
    1SOL     OW 1829   3.812   3.047   0.853 -0.2606  0.1809 -0.7409
    1SOL    HW2 1830   3.741   3.100   0.819 -1.3183 -0.4581  0.4594
    1SOL    HW3 1831   3.805   2.963   0.806 -1.6843 -0.6803  0.9613
    1SOL    MW4 1832   3.802   3.043   0.842 -0.5879 -0.0167 -0.3580
    1SOL     OW 1833   3.480   2.727   0.305  0.0835 -0.3580  0.0063
    1SOL    HW2 1834   3.392   2.725   0.342 -0.2897 -0.0002 -0.8586
    1SOL    HW3 1835   3.513   2.814   0.327 -0.1349 -0.1486 -0.4936
    1SOL    MW4 1836   3.473   2.738   0.313  0.0055 -0.2832 -0.1738
    1SOL     OW 1837   3.628   3.224   0.764  0.6707 -0.2452  0.2997
    1SOL    HW2 1838   3.643   3.219   0.669  0.8026 -0.8539  0.3492
    1SOL    HW3 1839   3.546   3.177   0.778  0.4935  0.1038  0.4577
    1SOL    MW4 1840   3.619   3.217   0.753  0.6647 -0.2794  0.3271
    1SOL     OW 1841   0.403   3.488   0.445 -0.1430 -0.1866  0.4040
    1SOL    HW2 1842   0.314   3.494   0.479 -0.4238 -0.8450 -0.2192
    1SOL    HW3 1843   0.405   3.550   0.372  0.2590  0.7059  1.1567
    1SOL    MW4 1844   0.392   3.497   0.440 -0.1270 -0.1557  0.4211
    1SOL     OW 1845   3.800   3.604   0.749 -0.4854 -0.3277 -0.0085
    1SOL    HW2 1846   3.868   3.548   0.786 -0.0609 -0.6017 -1.2071
    1SOL    HW3 1847   3.825   3.616   0.658 -2.7480 -1.5044 -0.8070
    1SOL    MW4 1848   3.812   3.599   0.742 -0.7279 -0.5188 -0.2720
    1SOL     OW 1849   0.752   1.644   0.441  0.1284  0.3252 -0.5168
    1SOL    HW2 1850   0.760   1.636   0.536 -0.6054 -1.5117 -0.5852
    1SOL    HW3 1851   0.667   1.687   0.428 -0.9657 -1.7453 -0.3832
    1SOL    MW4 1852   0.742   1.649   0.452 -0.1127 -0.1904 -0.5082
    1SOL     OW 1853   2.267   3.464   0.826 -0.2173 -0.0265 -0.3436
    1SOL    HW2 1854   2.280   3.376   0.788 -0.1809 -0.0032 -0.3853
    1SOL    HW3 1855   2.345   3.513   0.799  0.1127 -0.1940  0.2912
    1SOL    MW4 1856   2.279   3.459   0.818 -0.1688 -0.0453 -0.2654
    1SOL     OW 1857   1.221   4.333   0.462  0.3045 -0.1587  0.4036
    1SOL    HW2 1858   1.205   4.418   0.419  0.2663  0.1806  1.0769
    1SOL    HW3 1859   1.188   4.268   0.400  0.3454  0.3191 -0.1266
    1SOL    MW4 1860   1.215   4.336   0.448  0.3047 -0.0510  0.4225
    1SOL     OW 1861   4.250   4.657   0.821 -0.1554 -0.0211  0.3242
    1SOL    HW2 1862   4.248   4.681   0.914  0.2875  0.8757  0.1037
    1SOL    HW3 1863   4.167   4.689   0.786 -0.7381 -1.1805  0.5988
    1SOL    MW4 1864   4.239   4.664   0.829 -0.1740 -0.0558  0.3313
    1SOL     OW 1865   3.586   0.111   0.773  0.3646  0.3729 -0.3632
    1SOL    HW2 1866   3.575   0.201   0.803  1.3111  0.6377 -0.7965
    1SOL    HW3 1867   3.593   0.118   0.678 -3.0706 -0.5075 -0.7329
    1SOL    MW4 1868   3.586   0.124   0.764  0.0362  0.2917 -0.4691
    1SOL     OW 1869   3.968   0.051   0.441 -0.0993 -0.1038  0.5645
    1SOL    HW2 1870   3.898   0.112   0.418  0.4913  0.2956 -0.2012
    1SOL    HW3 1871   3.990   0.074   0.532  0.0115  0.7238  0.3348
    1SOL    MW4 1872   3.961   0.062   0.450 -0.0064  0.0581  0.4332
    1SOL     OW 1873   4.467   2.708   0.864 -0.1138 -0.0093  0.0507
    1SOL    HW2 1874   4.462   2.721   0.959  1.2415 -2.9131  0.5792
    1SOL    HW3 1875   4.542   2.760   0.836  1.3720 -1.5294  1.1009
    1SOL    MW4 1876   4.476   2.716   0.873  0.2613 -0.5927  0.2590
    1SOL     OW 1877   4.293   0.848   0.848  0.1950 -0.2038  0.1379
    1SOL    HW2 1878   4.271   0.826   0.939  1.9919  2.3559  1.2277
    1SOL    HW3 1879   4.357   0.781   0.822 -0.6620 -1.2112  0.5677
    1SOL    MW4 1880   4.298   0.836   0.856  0.3190  0.0010  0.3384
    1SOL     OW 1881   3.979   3.220   0.458 -0.0338 -0.3243 -0.8174
    1SOL    HW2 1882   3.994   3.136   0.415 -1.8142 -0.3618 -1.4177
    1SOL    HW3 1883   4.053   3.275   0.432  1.4412 -1.8696  0.0285
    1SOL    MW4 1884   3.991   3.216   0.449 -0.0739 -0.5331 -0.7850
    1SOL     OW 1885   1.340   1.673   0.730 -0.1474 -0.5987  0.1314
    1SOL    HW2 1886   1.407   1.625   0.778 -0.3955 -2.3709 -1.2576
    1SOL    HW3 1887   1.360   1.657   0.638 -0.1816  2.0504 -0.3706
    1SOL    MW4 1888   1.351   1.665   0.724 -0.1847 -0.4830 -0.1181
    1SOL     OW 1889   2.245   4.239   0.809 -0.1356  0.1365 -0.0846
    1SOL    HW2 1890   2.168   4.279   0.768 -0.4875  0.0003  0.4551
    1SOL    HW3 1891   2.259   4.158   0.760 -0.3869  0.1154 -0.1201
    1SOL    MW4 1892   2.237   4.234   0.797 -0.2153  0.1159 -0.0181
    1SOL     OW 1893   4.264   1.552   0.866  0.2119  0.2359 -0.0065
    1SOL    HW2 1894   4.261   1.458   0.851 -1.0183  0.3279 -0.4343
    1SOL    HW3 1895   4.258   1.562   0.961  0.2629 -0.1095  0.0314
    1SOL    MW4 1896   4.263   1.541   0.877  0.0563  0.2024 -0.0579
    1SOL     OW 1897   0.895   1.184   0.821  0.1699  0.2273 -0.0002
    1SOL    HW2 1898   0.810   1.222   0.799 -0.1737 -0.7272 -0.3575
    1SOL    HW3 1899   0.899   1.103   0.771  1.5224  0.5208 -0.4061
    1SOL    MW4 1900   0.885   1.178   0.811  0.3029  0.1401 -0.1008
    1SOL     OW 1901   0.897   4.522   0.446  0.0676  0.1589  0.2208
    1SOL    HW2 1902   0.859   4.596   0.399  2.7622  1.7561  0.4878
    1SOL    HW3 1903   0.838   4.509   0.521 -1.0403  1.2903 -0.4231
    1SOL    MW4 1904   0.884   4.530   0.450  0.2769  0.5193  0.1711
    1SOL     OW 1905   4.025   3.162   0.733  0.4874  0.1617  0.0798
    1SOL    HW2 1906   3.944   3.128   0.772 -0.4468  2.4167  0.2173
    1SOL    HW3 1907   4.004   3.172   0.640  1.2090 -0.9218 -0.2032
    1SOL    MW4 1908   4.011   3.159   0.726  0.4592  0.3161  0.0606
    1SOL     OW 1909   0.197   2.323   1.156 -0.2727  0.2475  0.4679
    1SOL    HW2 1910   0.123   2.372   1.192  0.5500  1.6530  0.2582
    1SOL    HW3 1911   0.274   2.363   1.196  0.5692  0.8672 -1.7411
    1SOL    MW4 1912   0.197   2.335   1.166 -0.0531  0.5147  0.1487
    1SOL     OW 1913   2.050   3.885   0.828  0.1560 -0.3925 -0.0644
    1SOL    HW2 1914   2.055   3.888   0.924  1.5565  1.1222 -0.1730
    1SOL    HW3 1915   2.060   3.792   0.807  1.0345 -0.6090  1.2038
    1SOL    MW4 1916   2.052   3.873   0.838  0.4568 -0.2210  0.0886
    1SOL     OW 1917   3.813   2.807   0.737  0.6876 -0.0063 -0.5457
    1SOL    HW2 1918   3.893   2.772   0.777  0.2821 -0.7589 -0.3975
    1SOL    HW3 1919   3.828   2.798   0.643  0.5014 -0.7606 -0.5035
    1SOL    MW4 1920   3.826   2.801   0.730  0.6094 -0.2050 -0.5206
    1SOL     OW 1921   0.832   1.930   0.849 -0.2684 -0.0081  0.2730
    1SOL    HW2 1922   0.749   1.978   0.843  0.3552  0.9919 -0.3171
    1SOL    HW3 1923   0.853   1.931   0.943 -0.8068 -0.0759  0.3984
    1SOL    MW4 1924   0.824   1.936   0.861 -0.2572  0.1148  0.2118
    1SOL     OW 1925   2.202   0.786   0.047  0.0993 -0.3916 -0.0509
    1SOL    HW2 1926   2.241   0.762   0.132  0.5174  0.0995 -0.0950
    1SOL    HW3 1927   2.197   0.882   0.051  0.6997 -0.3259 -0.8268
    1SOL    MW4 1928   2.207   0.795   0.059  0.2334 -0.3182 -0.1591
    1SOL     OW 1929   3.845   2.029   0.469  0.2137  0.3578 -0.0770
    1SOL    HW2 1930   3.938   2.012   0.481  0.0996 -0.2894 -0.1266
    1SOL    HW3 1931   3.839   2.125   0.463  1.2507  0.2866 -2.9958
    1SOL    MW4 1932   3.857   2.040   0.470  0.3355  0.2630 -0.4687
    1SOL     OW 1933   3.606   3.500   0.915 -0.3054  0.2645 -0.1605
    1SOL    HW2 1934   3.675   3.549   0.870 -0.3329  0.7281  0.2958
    1SOL    HW3 1935   3.611   3.412   0.878 -0.0327  0.5215 -0.7471
    1SOL    MW4 1936   3.616   3.495   0.904 -0.2732  0.3598 -0.1776
    1SOL     OW 1937   4.256   3.832   0.829 -0.1883 -0.6611  0.3557
    1SOL    HW2 1938   4.186   3.891   0.802  0.3262 -0.6607 -1.0047
    1SOL    HW3 1939   4.263   3.845   0.924 -0.9632  0.4864  0.2647
    1SOL    MW4 1940   4.248   3.841   0.838 -0.2236 -0.5095  0.1642
    1SOL     OW 1941   0.409   0.769   0.506 -0.3057  0.0264  0.0849
    1SOL    HW2 1942   0.440   0.798   0.591 -0.4281 -0.5208  0.3112
    1SOL    HW3 1943   0.326   0.816   0.494 -0.3868 -0.0501  0.3496
    1SOL    MW4 1944   0.402   0.779   0.515 -0.3326 -0.0559  0.1497
    1SOL     OW 1945   3.814   3.892   0.807 -0.3156 -0.3189 -0.3148
    1SOL    HW2 1946   3.901   3.923   0.782  0.5096 -1.5927  0.9396
    1SOL    HW3 1947   3.812   3.800   0.780 -1.3824 -0.2261 -0.5760
    1SOL    MW4 1948   3.825   3.884   0.800 -0.3476 -0.4749 -0.1838
    1SOL     OW 1949   3.953   4.437   0.338  0.0900 -0.0458 -0.7379
    1SOL    HW2 1950   3.938   4.431   0.244 -0.9724 -0.8353 -0.5326
    1SOL    HW3 1951   3.973   4.530   0.353 -1.9385  0.5507 -1.4439
    1SOL    MW4 1952   3.954   4.449   0.328 -0.3181 -0.0706 -0.8040
    1SOL     OW 1953   3.826   4.657   0.870 -0.0293  0.0049 -0.5818
    1SOL    HW2 1954   3.832   4.565   0.845  0.4167 -0.0627 -0.2266
    1SOL    HW3 1955   3.741   4.685   0.835 -0.0728 -0.4792 -0.8791
    1SOL    MW4 1956   3.815   4.649   0.862  0.0238 -0.0677 -0.5742
    1SOL     OW 1957   0.190   4.637   1.109  0.3270 -0.1564 -0.6003
    1SOL    HW2 1958   0.272   4.670   1.147  0.0164  0.6538 -0.6233
    1SOL    HW3 1959   0.199   4.653   1.015 -0.5181  1.4524 -0.4399
    1SOL    MW4 1960   0.202   4.644   1.102  0.1746  0.1626 -0.5822
    1SOL     OW 1961   4.476   0.097   1.226  0.1795  0.0428 -0.4452
    1SOL    HW2 1962   4.391   0.073   1.189  0.0110 -0.0003 -0.0396
    1SOL    HW3 1963   4.540   0.046   1.176 -0.0760 -0.3092 -0.4100
    1SOL    MW4 1964   4.473   0.087   1.215  0.1240 -0.0093 -0.3871
    1SOL     OW 1965   0.023   0.363   1.126  0.0689  0.1063 -0.6349
    1SOL    HW2 1966  -0.056   0.411   1.148  0.7904  0.0157  2.3684
    1SOL    HW3 1967   0.008   0.274   1.159  0.3325 -0.6711 -2.5491
    1SOL    MW4 1968   0.011   0.357   1.133  0.1988 -0.0083 -0.4911
    1SOL     OW 1969   0.230   0.497   1.229  0.2249  0.0422 -0.3834
    1SOL    HW2 1970   0.213   0.588   1.207 -0.0817 -0.0449 -0.5156
    1SOL    HW3 1971   0.156   0.449   1.191  0.8563 -0.3652 -1.1145
    1SOL    MW4 1972   0.218   0.503   1.221  0.2677 -0.0231 -0.4975
    1SOL     OW 1973   0.174   0.757   1.134 -0.1853 -0.2194 -0.6840
    1SOL    HW2 1974   0.253   0.811   1.142  0.0414 -0.6071 -0.3028
    1SOL    HW3 1975   0.103   0.812   1.167  0.4470 -1.1177  2.2636
    1SOL    MW4 1976   0.175   0.771   1.139 -0.0720 -0.3890 -0.2449
    1SOL     OW 1977   4.453   0.921   1.222 -0.2472  0.0042  0.7045
    1SOL    HW2 1978   4.452   0.918   1.317  0.7710  0.9874  0.7528
    1SOL    HW3 1979   4.468   1.013   1.200 -5.3107  0.7023 -0.4540
    1SOL    MW4 1980   4.455   0.933   1.231 -0.7806  0.2260  0.5581
    1SOL     OW 1981   0.026   1.166   1.151 -0.3530  0.3882  0.3174
    1SOL    HW2 1982  -0.048   1.222   1.173 -1.2494 -1.1235  1.2453
    1SOL    HW3 1983   0.103   1.219   1.170 -1.1878  1.5007  0.6447
    1SOL    MW4 1984   0.027   1.180   1.156 -0.5813  0.3356  0.4830
    1SOL     OW 1985   0.225   1.349   1.251 -0.5166 -0.1465 -0.8802
    1SOL    HW2 1986   0.232   1.328   1.344  0.3807  2.7457 -0.2328
    1SOL    HW3 1987   0.284   1.287   1.207  0.3302 -0.4337  0.6515
    1SOL    MW4 1988   0.234   1.338   1.257 -0.2865  0.1973 -0.5928
    1SOL     OW 1989   0.223   1.587   1.099  0.1974 -0.2773  0.1684
    1SOL    HW2 1990   0.212   1.506   1.149 -1.6705 -0.1702 -0.0583
    1SOL    HW3 1991   0.217   1.559   1.007 -0.9456  0.1725  0.0989
    1SOL    MW4 1992   0.221   1.572   1.093 -0.1998 -0.2038  0.1295
    1SOL     OW 1993   0.001   1.687   1.243  0.2093 -0.2256 -0.0013
    1SOL    HW2 1994  -0.003   1.775   1.207  0.3515  0.1474  0.8922
    1SOL    HW3 1995   0.075   1.646   1.197 -0.3244 -0.1414 -0.9631
    1SOL    MW4 1996   0.011   1.693   1.232  0.1583 -0.1653 -0.0103
    1SOL     OW 1997   4.464   1.927   1.143 -0.0748 -0.2883 -0.2373
    1SOL    HW2 1998   4.385   1.959   1.185  0.1037  1.0080 -0.8662
    1SOL    HW3 1999   4.444   1.928   1.049  0.4074 -0.6898 -0.3478
    1SOL    MW4 2000   4.451   1.932   1.136  0.0129 -0.1701 -0.3350
    1SOL     OW 2001   0.229   2.032   1.194  0.0981  0.2735  0.2733
    1SOL    HW2 2002   0.201   2.122   1.174  1.5860  0.5367 -0.6830
    1SOL    HW3 2003   0.154   1.978   1.168 -1.4502  1.3429  2.3851
    1SOL    MW4 2004   0.215   2.037   1.188  0.0902  0.4492  0.4256
    1SOL     OW 2005   0.220   2.347   0.887 -0.1137  0.1812  0.0672
    1SOL    HW2 2006   0.138   2.385   0.856  0.5590  0.5102 -1.3510
    1SOL    HW3 2007   0.204   2.326   0.979 -1.5153  0.9978  0.0150
    1SOL    MW4 2008   0.207   2.349   0.895 -0.2098  0.3321 -0.1269
    1SOL     OW 2009   4.465   2.475   1.257 -0.4187  0.5051  0.6671
    1SOL    HW2 2010   4.472   2.470   1.352  0.4532 -0.4037  0.5565
    1SOL    HW3 2011   4.393   2.416   1.235  0.1690 -0.2031  0.6551
    1SOL    MW4 2012   4.456   2.467   1.266 -0.2265  0.2918  0.6510
    1SOL     OW 2013   4.481   2.734   1.150 -0.4415  0.1024  0.0014
    1SOL    HW2 2014   4.419   2.793   1.194 -0.8410  0.8365 -1.5118
    1SOL    HW3 2015   4.459   2.647   1.184 -1.5864  0.4989  0.2991
    1SOL    MW4 2016   4.470   2.730   1.161 -0.6447  0.2515 -0.1590
    1SOL     OW 2017   0.249   2.787   1.240  0.1748 -0.1017  0.1036
    1SOL    HW2 2018   0.234   2.804   1.333 -0.0965  1.8213 -0.2748
    1SOL    HW3 2019   0.164   2.759   1.206  0.5376 -1.9669  0.6480
    1SOL    MW4 2020   0.236   2.785   1.248  0.1869 -0.0939  0.1255
    1SOL     OW 2021   0.201   3.028   1.106 -0.3131 -0.5018 -0.3659
    1SOL    HW2 2022   0.271   3.079   1.146  0.2455 -0.5084 -1.3076
    1SOL    HW3 2023   0.205   2.943   1.149 -0.0167 -0.3651 -0.1204
    1SOL    MW4 2024   0.211   3.024   1.117 -0.2003 -0.4847 -0.4578
    1SOL     OW 2025   0.007   3.206   1.241  0.2493 -0.0317  0.1893
    1SOL    HW2 2026  -0.076   3.164   1.218 -0.5999  0.7762  1.7290
    1SOL    HW3 2027   0.072   3.157   1.191 -1.3164  0.4711 -2.4571
    1SOL    MW4 2028   0.004   3.194   1.231 -0.0687  0.1411  0.0433
    1SOL     OW 2029   0.018   3.473   1.152  0.0487  0.1106 -0.1165
    1SOL    HW2 2030  -0.001   3.387   1.190 -0.5207  0.0875 -0.4528
    1SOL    HW3 2031  -0.002   3.463   1.059  0.8367  0.3552 -0.3174
    1SOL    MW4 2032   0.013   3.460   1.145  0.0776  0.1397 -0.1874
    1SOL     OW 2033   0.216   3.647   1.205  0.0380 -0.2733  0.1898
    1SOL    HW2 2034   0.214   3.639   1.301 -1.6773  0.5934  0.2262
    1SOL    HW3 2035   0.150   3.585   1.175 -0.8503  0.9309 -0.3432
    1SOL    MW4 2036   0.207   3.638   1.214 -0.3055 -0.0002  0.1242
    1SOL     OW 2037   0.212   3.878   1.053  0.2172  0.0672 -0.0806
    1SOL    HW2 2038   0.162   3.935   1.112  1.4826  0.3403  0.7284
    1SOL    HW3 2039   0.216   3.794   1.098 -2.2814 -0.9319 -1.5996
    1SOL    MW4 2040   0.206   3.874   1.066  0.0544 -0.0286 -0.1744
    1SOL     OW 2041   0.005   4.006   1.210 -0.0162 -0.1706  0.1662
    1SOL    HW2 2042   0.008   4.006   1.306 -1.1147  0.3916  0.2138
    1SOL    HW3 2043  -0.067   3.945   1.190  0.0256 -0.0661 -0.2873
    1SOL    MW4 2044  -0.004   3.998   1.220 -0.1554 -0.0832  0.1127
    1SOL     OW 2045   4.478   4.263   1.122 -0.1465 -0.0664 -0.6950
    1SOL    HW2 2046   4.564   4.304   1.120 -0.8109  1.4765  0.9450
    1SOL    HW3 2047   4.494   4.173   1.152  0.8081  0.4576  0.3865
    1SOL    MW4 2048   4.491   4.256   1.126 -0.1082  0.2065 -0.3359
    1SOL     OW 2049   0.215   4.391   1.226  0.0290  0.1035  0.0389
    1SOL    HW2 2050   0.209   4.402   1.321 -0.6526 -0.2930  0.0447
    1SOL    HW3 2051   0.206   4.480   1.191 -1.9862  0.0029  0.2481
    1SOL    MW4 2052   0.213   4.404   1.234 -0.3268  0.0377  0.0672
    1SOL     OW 2053   0.649   4.640   1.106  0.1081  0.3908 -0.1821
    1SOL    HW2 2054   0.722   4.684   1.150  0.1716  0.0863  0.0211
    1SOL    HW3 2055   0.666   4.547   1.120 -0.0861  0.3069 -0.5116
    1SOL    MW4 2056   0.661   4.633   1.114  0.0909  0.3395 -0.1988
    1SOL     OW 2057   0.411   0.099   1.214 -0.2796  0.1899  0.3864
    1SOL    HW2 2058   0.430   0.190   1.189 -1.1996  0.2449 -0.0966
    1SOL    HW3 2059   0.479   0.048   1.170 -1.0746  0.4218 -1.1350
    1SOL    MW4 2060   0.423   0.104   1.205 -0.5058  0.2278  0.1220
    1SOL     OW 2061   1.875   1.971   0.086 -0.1291 -0.2535 -0.1527
    1SOL    HW2 2062   1.878   1.924   0.169 -0.5353 -0.3781 -0.2083
    1SOL    HW3 2063   1.783   1.993   0.073  0.0796  0.7657 -0.0109
    1SOL    MW4 2064   1.863   1.968   0.095 -0.1552 -0.1354 -0.1414
    1SOL     OW 2065   0.661   0.524   1.234 -0.6220 -0.1774  0.4086
    1SOL    HW2 2066   0.651   0.607   1.188 -0.2253 -0.0345  0.5787
    1SOL    HW3 2067   0.581   0.476   1.215 -1.7533  1.0559  1.9757
    1SOL    MW4 2068   0.649   0.528   1.225 -0.7190  0.0042  0.6378
    1SOL     OW 2069   0.641   0.769   1.123  0.0032 -0.2425  0.3806
    1SOL    HW2 2070   0.559   0.815   1.142 -0.2979  0.0102 -1.4782
    1SOL    HW3 2071   0.659   0.788   1.031  2.4804  0.2290  0.9020
    1SOL    MW4 2072   0.633   0.778   1.113  0.2903 -0.1469  0.2041
    1SOL     OW 2073   0.415   0.909   1.198  0.4776 -0.1446  0.2679
    1SOL    HW2 2074   0.429   0.917   1.293  0.6388 -0.4507  0.2705
    1SOL    HW3 2075   0.394   0.998   1.170  0.8411  0.0238  0.5238
    1SOL    MW4 2076   0.414   0.922   1.207  0.5468 -0.1628  0.3020
    1SOL     OW 2077   0.383   1.168   1.123 -0.2793 -0.3121  0.1704
    1SOL    HW2 2078   0.467   1.206   1.147 -1.1358  1.6861  0.0706
    1SOL    HW3 2079   0.376   1.181   1.028 -2.0211  2.3103  0.6061
    1SOL    MW4 2080   0.393   1.174   1.113 -0.6221  0.2975  0.2148
    1SOL     OW 2081   0.638   1.268   1.190  0.3581 -0.1688  0.0350
    1SOL    HW2 2082   0.706   1.221   1.142  0.0026 -0.2501 -0.3896
    1SOL    HW3 2083   0.652   1.360   1.166 -1.0545 -0.4081 -1.7920
    1SOL    MW4 2084   0.649   1.274   1.180  0.1249 -0.2110 -0.2621
    1SOL     OW 2085   0.681   1.542   1.120  0.3223 -0.4839  0.0630
    1SOL    HW2 2086   0.762   1.584   1.147  0.2874  0.5725 -1.4144
    1SOL    HW3 2087   0.612   1.597   1.157  0.2554 -1.4816  1.4713
    1SOL    MW4 2088   0.682   1.555   1.128  0.3089 -0.4761  0.0539
    1SOL     OW 2089   0.466   1.702   1.201  0.2048  0.4694  0.3882
    1SOL    HW2 2090   0.437   1.693   1.292  1.3311 -1.7188  0.5734
    1SOL    HW3 2091   0.394   1.666   1.149 -0.3701  1.5715  0.4029
    1SOL    MW4 2092   0.452   1.696   1.206  0.2775  0.3262  0.4146
    1SOL     OW 2093   0.485   1.946   1.075  0.0670 -0.8206 -0.6694
    1SOL    HW2 2094   0.489   1.868   1.131 -0.6955 -1.4181 -1.4456
    1SOL    HW3 2095   0.422   2.004   1.118  0.2743 -0.8317 -0.3502
    1SOL    MW4 2096   0.477   1.943   1.088 -0.0062 -0.9009 -0.7297
    1SOL     OW 2097   0.689   2.073   1.186  0.2946  0.6009 -0.2801
    1SOL    HW2 2098   0.674   2.067   1.281 -1.1116  1.8970 -0.3975
    1SOL    HW3 2099   0.609   2.036   1.147  0.4197  1.0503 -0.9616
    1SOL    MW4 2100   0.676   2.067   1.194  0.1256  0.8311 -0.3855
    1SOL     OW 2101   0.668   2.330   1.112 -0.1917 -0.2334  0.4406
    1SOL    HW2 2102   0.587   2.365   1.148 -0.7281  0.2094 -1.1438
    1SOL    HW3 2103   0.671   2.239   1.142 -0.5783  0.1445  1.6298
    1SOL    MW4 2104   0.658   2.322   1.120 -0.3135 -0.1252  0.3885
    1SOL     OW 2105   0.433   2.444   1.210 -0.4137 -0.0769  0.0614
    1SOL    HW2 2106   0.445   2.452   1.305 -1.9098  0.7906  0.1851
    1SOL    HW3 2107   0.461   2.529   1.176 -1.0647  0.0485 -0.1588
    1SOL    MW4 2108   0.439   2.457   1.218 -0.6970  0.0541  0.0488
    1SOL     OW 2109   0.492   2.704   1.131 -0.4715  0.1104  0.3021
    1SOL    HW2 2110   0.416   2.741   1.177 -1.3954  1.2397 -2.0670
    1SOL    HW3 2111   0.465   2.701   1.039  1.5613 -1.5552 -0.2637
    1SOL    MW4 2112   0.478   2.708   1.125 -0.3252  0.0396 -0.0851
    1SOL     OW 2113   0.715   2.839   1.222  0.0989  0.3357  0.1372
    1SOL    HW2 2114   0.695   2.870   1.310 -0.9324 -0.0887  0.0600
    1SOL    HW3 2115   0.633   2.800   1.191  0.7636 -0.5094 -0.5912
    1SOL    MW4 2116   0.701   2.838   1.229  0.0505  0.1681  0.0309
    1SOL     OW 2117   0.675   3.101   1.132 -0.3747  0.3221 -0.5957
    1SOL    HW2 2118   0.753   3.146   1.163 -1.3714  1.2401  0.6744
    1SOL    HW3 2119   0.691   3.008   1.151  0.0155  0.6110  0.5133
    1SOL    MW4 2120   0.687   3.095   1.138 -0.4547  0.4814 -0.2818
    1SOL     OW 2121   0.410   3.186   1.206 -0.1769  0.4387 -0.3517
    1SOL    HW2 2122   0.402   3.276   1.175 -0.4116  0.2815 -0.7585
    1SOL    HW3 2123   0.484   3.151   1.156 -0.0076  0.4420 -0.1045
    1SOL    MW4 2124   0.419   3.193   1.195 -0.1855  0.4182 -0.3726
    1SOL     OW 2125   0.420   3.463   1.115  0.0470  0.3079 -0.8143
    1SOL    HW2 2126   0.507   3.502   1.118  0.6466 -1.0793  0.7046
    1SOL    HW3 2127   0.363   3.526   1.159  0.6467  0.3079 -0.0479
    1SOL    MW4 2128   0.424   3.476   1.121  0.2052  0.1249 -0.5128
    1SOL     OW 2129   0.649   3.590   1.230 -0.0765  0.2768  0.4655
    1SOL    HW2 2130   0.656   3.598   1.325  1.5321  2.6721  0.1872
    1SOL    HW3 2131   0.654   3.680   1.198  0.4550 -0.5836 -1.9613
    1SOL    MW4 2132   0.651   3.603   1.239  0.2058  0.4795  0.1086
    1SOL     OW 2133   0.669   3.844   1.111  0.1400  0.0707  0.3210
    1SOL    HW2 2134   0.587   3.887   1.137 -0.0141  0.2331 -0.4166
    1SOL    HW3 2135   0.676   3.861   1.017  0.1513 -1.4022  0.0433
    1SOL    MW4 2136   0.659   3.852   1.102  0.1211 -0.1020  0.1870
    1SOL     OW 2137   0.430   3.992   1.169 -0.3940  0.3092 -0.4728
    1SOL    HW2 2138   0.398   4.082   1.164 -2.3908 -0.3259  0.1286
    1SOL    HW3 2139   0.363   3.940   1.124  0.8343 -0.8605 -0.9897
    1SOL    MW4 2140   0.417   3.997   1.163 -0.4954  0.0713 -0.4617
    1SOL     OW 2141   0.429   4.255   1.107 -0.3047  0.2520  0.1065
    1SOL    HW2 2142   0.513   4.298   1.124 -0.3748  0.2089  0.5657
    1SOL    HW3 2143   0.364   4.312   1.147 -0.4604  0.0946  0.0798
    1SOL    MW4 2144   0.431   4.268   1.114 -0.3344  0.2255  0.1636
    1SOL     OW 2145   0.671   4.384   1.173  0.1110  0.0704 -0.5815
    1SOL    HW2 2146   0.663   4.361   1.266 -0.5329 -0.0208 -0.6574
    1SOL    HW3 2147   0.748   4.337   1.143 -0.1207 -0.5114 -0.2770
    1SOL    MW4 2148   0.680   4.375   1.182 -0.0045 -0.0186 -0.5512
    1SOL     OW 2149   1.112   4.624   1.108 -0.5531  0.0416  0.2096
    1SOL    HW2 2150   1.123   4.532   1.133  0.1263  0.0645  0.0015
    1SOL    HW3 2151   1.112   4.624   1.012 -0.6672  0.2444  0.2081
    1SOL    MW4 2152   1.113   4.612   1.099 -0.4786  0.0710  0.1819
    1SOL     OW 2153   0.859   0.109   1.206 -0.0691 -0.3436 -0.3226
    1SOL    HW2 2154   0.884   0.107   1.298  0.4004 -0.2741 -0.4443
    1SOL    HW3 2155   0.934   0.069   1.161  0.4524  1.1822 -0.8332
    1SOL    MW4 2156   0.872   0.103   1.212  0.0617 -0.1331 -0.4060
    1SOL     OW 2157   0.878   0.371   1.136  0.5615  0.0921  0.3690
    1SOL    HW2 2158   0.855   0.282   1.165  0.6594  0.1167  0.5255
    1SOL    HW3 2159   0.812   0.427   1.178 -1.4426 -0.2054 -2.2553
    1SOL    MW4 2160   0.866   0.367   1.146  0.3101  0.0561  0.0433
    1SOL     OW 2161   1.101   0.503   1.225 -0.4741 -0.1986 -0.1060
    1SOL    HW2 2162   1.091   0.498   1.320 -1.3911  1.6823 -0.0748
    1SOL    HW3 2163   1.022   0.459   1.190 -0.3023 -0.5907 -0.0055
    1SOL    MW4 2164   1.089   0.496   1.233 -0.5723 -0.0021 -0.0887
    1SOL     OW 2165   1.082   0.751   1.090  0.1886  0.1673  0.1873
    1SOL    HW2 2166   1.023   0.811   1.135  1.0318  0.7175  0.5847
    1SOL    HW3 2167   1.087   0.675   1.148 -0.3548 -0.0060  0.0092
    1SOL    MW4 2168   1.075   0.749   1.104  0.2283  0.2170  0.2162
    1SOL     OW 2169   0.878   0.881   1.206  0.0036  0.4490 -0.1109
    1SOL    HW2 2170   0.874   0.973   1.181 -2.6326  0.7644  1.3609
    1SOL    HW3 2171   0.801   0.841   1.165  0.3958 -0.8383  0.3695
    1SOL    MW4 2172   0.867   0.888   1.197 -0.2925  0.3208  0.1467
    1SOL     OW 2173   0.863   1.147   1.091  0.4216  0.1336 -0.7110
    1SOL    HW2 2174   0.929   1.208   1.125  0.7771 -1.0576  0.8039
    1SOL    HW3 2175   0.871   1.154   0.996  3.2402 -0.5178 -0.5783
    1SOL    MW4 2176   0.873   1.156   1.083  0.8403 -0.1097 -0.4935
    1SOL     OW 2177   1.099   1.289   1.179  0.2531  0.3212 -0.4006
    1SOL    HW2 2178   1.083   1.281   1.273 -0.0503  1.6906 -0.3327
    1SOL    HW3 2179   1.184   1.246   1.165 -0.3868 -1.1984  0.2492
    1SOL    MW4 2180   1.108   1.282   1.189  0.1287  0.3015 -0.3059
    1SOL     OW 2181   1.110   1.554   1.092 -0.0506 -0.2161 -0.1802
    1SOL    HW2 2182   1.125   1.461   1.107 -0.8357 -0.4566 -0.8566
    1SOL    HW3 2183   1.089   1.561   0.999 -0.7492  0.5360  0.0250
    1SOL    MW4 2184   1.109   1.543   1.082 -0.2464 -0.1485 -0.2424
    1SOL     OW 2185   0.905   1.675   1.219  0.4580 -0.0041  0.1139
    1SOL    HW2 2186   0.914   1.765   1.188 -1.5978  0.1095 -0.2082
    1SOL    HW3 2187   0.978   1.629   1.180  1.5169  1.5157  0.2501
    1SOL    MW4 2188   0.916   1.681   1.210  0.3265  0.2114  0.0893
    1SOL     OW 2189   0.917   1.938   1.115  0.1160 -0.1226  0.2763
    1SOL    HW2 2190   0.996   1.985   1.141 -0.7634  1.3957  0.2927
    1SOL    HW3 2191   0.845   1.992   1.149 -0.9725 -0.2333 -1.7749
    1SOL    MW4 2192   0.918   1.952   1.123 -0.1436  0.0632  0.0079
    1SOL     OW 2193   1.138   2.077   1.198 -0.5550  0.0374  0.1071
    1SOL    HW2 2194   1.105   2.094   1.287 -1.2868  0.4885 -0.2489
    1SOL    HW3 2195   1.133   2.162   1.154  2.0685  0.3777  0.3454
    1SOL    MW4 2196   1.133   2.091   1.204 -0.3054  0.1416  0.0916
    1SOL     OW 2197   1.083   2.320   1.063  0.0143  0.1818  0.0834
    1SOL    HW2 2198   1.169   2.358   1.082 -0.1175  0.3584  0.3225
    1SOL    HW3 2199   1.076   2.326   0.968 -0.0403  0.8442  0.1212
    1SOL    MW4 2200   1.093   2.326   1.053 -0.0104  0.2921  0.1199
    1SOL     OW 2201   0.888   2.438   1.216 -0.0768  0.0997  0.1915
    1SOL    HW2 2202   0.957   2.392   1.168  0.6932  0.7441  0.6615
    1SOL    HW3 2203   0.807   2.409   1.175  0.3349 -2.2189  0.9371
    1SOL    MW4 2204   0.886   2.428   1.204  0.0792 -0.1214  0.3518
    1SOL     OW 2205   0.910   2.685   1.098  0.0813  0.3381 -0.0999
    1SOL    HW2 2206   0.918   2.596   1.133  1.0784  0.8794  1.1118
    1SOL    HW3 2207   0.834   2.722   1.143  0.2679  0.4247  0.1475
    1SOL    MW4 2208   0.901   2.678   1.109  0.2375  0.4210  0.0926
    1SOL     OW 2209   1.106   2.849   1.176  0.1683  0.4599  0.2947
    1SOL    HW2 2210   1.090   2.841   1.270  0.0384  0.2614  0.2569
    1SOL    HW3 2211   1.033   2.802   1.136  1.2283 -1.0534  0.1251
    1SOL    MW4 2212   1.094   2.842   1.183  0.2910  0.2341  0.2674
    1SOL     OW 2213   1.148   3.112   1.091 -0.1221  0.0360  0.1763
    1SOL    HW2 2214   1.141   3.021   1.120 -2.3364  0.1995  0.2357
    1SOL    HW3 2215   1.139   3.108   0.996 -1.1076  0.2693  0.2575
    1SOL    MW4 2216   1.146   3.099   1.083 -0.5442  0.0882  0.1948
    1SOL     OW 2217   0.910   3.232   1.180 -0.6454  0.4725 -0.2057
    1SOL    HW2 2218   0.914   3.322   1.147  0.2538  0.9902  1.2881
    1SOL    HW3 2219   0.991   3.191   1.149 -1.3514 -0.0462 -1.4391
    1SOL    MW4 2220   0.921   3.238   1.171 -0.6199  0.4725 -0.1714
    1SOL     OW 2221   0.910   3.497   1.121 -0.4048 -0.1317 -0.1378
    1SOL    HW2 2222   0.827   3.521   1.162 -0.1796  0.5756 -0.1009
    1SOL    HW3 2223   0.893   3.501   1.027 -0.2216  0.7062 -0.1412
    1SOL    MW4 2224   0.897   3.501   1.114 -0.3508  0.0720 -0.1333
    1SOL     OW 2225   1.104   3.591   1.284  0.0413 -0.2751 -0.2224
    1SOL    HW2 2226   1.174   3.544   1.239 -0.3192 -0.4583 -0.5982
    1SOL    HW3 2227   1.024   3.558   1.244 -0.2728 -0.2878  0.4156
    1SOL    MW4 2228   1.103   3.580   1.273 -0.0478 -0.3011 -0.1876
    1SOL     OW 2229   1.108   3.825   1.143  0.2306  0.3305  0.1900
    1SOL    HW2 2230   1.030   3.878   1.156 -0.3828 -0.5035 -0.0610
    1SOL    HW3 2231   1.108   3.764   1.217  0.2382 -0.1549 -0.2029
    1SOL    MW4 2232   1.098   3.824   1.155  0.1508  0.1564  0.1050
    1SOL     OW 2233   0.894   3.990   1.197 -0.3460 -0.0098  0.0082
    1SOL    HW2 2234   0.896   4.002   1.292 -0.7477  1.4777 -0.1585
    1SOL    HW3 2235   0.818   3.932   1.183  0.5151 -1.3367  0.6838
    1SOL    MW4 2236   0.884   3.984   1.208 -0.2854  0.0114  0.0753
    1SOL     OW 2237   0.880   4.244   1.079  0.1145  0.0384  0.4908
    1SOL    HW2 2238   0.878   4.151   1.104 -0.7088 -0.0634  0.0857
    1SOL    HW3 2239   0.889   4.242   0.984 -0.3118  0.3652  0.4430
    1SOL    MW4 2240   0.881   4.231   1.070 -0.0504  0.0682  0.4311
    1SOL     OW 2241   1.115   4.341   1.232  0.1009  0.1965 -0.0452
    1SOL    HW2 2242   1.115   4.334   1.328 -0.0806 -1.1487 -0.1345
    1SOL    HW3 2243   1.027   4.314   1.206  0.2480  0.2511 -0.6065
    1SOL    MW4 2244   1.103   4.336   1.241  0.0963  0.0262 -0.1311
    1SOL     OW 2245   1.540   4.615   1.111 -0.0104  0.0187 -0.3958
    1SOL    HW2 2246   1.616   4.653   1.155  0.9537 -0.1023 -1.9153
    1SOL    HW3 2247   1.534   4.526   1.147  0.1954  0.2312  0.1781
    1SOL    MW4 2248   1.549   4.608   1.122  0.1440  0.0310 -0.5205
    1SOL     OW 2249   1.324   0.110   1.213  0.1495  0.4388  0.3188
    1SOL    HW2 2250   1.390   0.057   1.169  0.5176  1.6415 -0.5933
    1SOL    HW3 2251   1.240   0.072   1.187  0.3864  0.7946 -0.9722
    1SOL    MW4 2252   1.321   0.098   1.204  0.2292  0.6444  0.0281
    1SOL     OW 2253   1.322   0.374   1.135 -0.5447  0.1640 -0.1257
    1SOL    HW2 2254   1.311   0.284   1.166 -0.5538 -0.6901 -2.4845
    1SOL    HW3 2255   1.241   0.418   1.158 -0.3683 -0.3119  1.4458
    1SOL    MW4 2256   1.310   0.368   1.142 -0.5227 -0.0115 -0.2295
    1SOL     OW 2257   1.576   0.512   1.154 -0.2812 -0.1373  0.1925
    1SOL    HW2 2258   1.550   0.602   1.134  0.1959  0.1460  0.8322
    1SOL    HW3 2259   1.493   0.463   1.155 -0.5197  0.2499 -0.3631
    1SOL    MW4 2260   1.561   0.518   1.152 -0.2499 -0.0489  0.2035
    1SOL     OW 2261   1.528   0.787   1.114 -0.0089 -0.3091  0.1479
    1SOL    HW2 2262   1.599   0.830   1.163  0.9659  0.0131 -1.5144
    1SOL    HW3 2263   1.552   0.798   1.022 -0.8222 -2.6011 -0.3709
    1SOL    MW4 2264   1.541   0.794   1.109  0.0125 -0.5690 -0.1400
    1SOL     OW 2265   1.298   0.885   1.205  0.2780 -0.4057 -0.4377
    1SOL    HW2 2266   1.382   0.845   1.184 -0.1440 -2.3669  1.4530
    1SOL    HW3 2267   1.233   0.831   1.161 -0.1026  0.2067 -0.6394
    1SOL    MW4 2268   1.300   0.873   1.196  0.1720 -0.5837 -0.2149
    1SOL     OW 2269   1.334   1.145   1.123  0.1159 -0.0445 -0.4313
    1SOL    HW2 2270   1.318   1.060   1.163  0.2658  0.0433 -0.1858
    1SOL    HW3 2271   1.422   1.170   1.153 -0.3334  0.6658  0.3292
    1SOL    MW4 2272   1.344   1.137   1.132  0.0763  0.0609 -0.2985
    1SOL     OW 2273   1.558   1.266   1.187 -0.6052 -0.1790  0.0905
    1SOL    HW2 2274   1.640   1.224   1.160 -0.2867  0.7092 -0.3167
    1SOL    HW3 2275   1.557   1.255   1.282 -0.6503 -1.3435 -0.0397
    1SOL    MW4 2276   1.569   1.259   1.196 -0.5691 -0.2154  0.0198
    1SOL     OW 2277   1.545   1.533   1.144 -0.4705 -0.3641 -0.2856
    1SOL    HW2 2278   1.621   1.586   1.168 -2.1994  1.6139  0.9144
    1SOL    HW3 2279   1.569   1.444   1.171  0.9106  0.4547  1.3111
    1SOL    MW4 2280   1.558   1.528   1.151 -0.5165  0.0049  0.0833
    1SOL     OW 2281   1.325   1.652   1.218 -0.1605 -0.1716  0.1330
    1SOL    HW2 2282   1.407   1.604   1.201  0.0922  0.6150 -0.8857
    1SOL    HW3 2283   1.258   1.599   1.176 -0.0891 -0.4401  0.3498
    1SOL    MW4 2284   1.327   1.638   1.210 -0.1177 -0.1031  0.0272
    1SOL     OW 2285   1.342   1.920   1.084  0.2927 -0.2716 -0.4697
    1SOL    HW2 2286   1.326   1.832   1.120  0.5510 -0.0883  0.0869
    1SOL    HW3 2287   1.268   1.972   1.115  0.3611 -0.1847 -0.4547
    1SOL    MW4 2288   1.330   1.915   1.093  0.3358 -0.2359 -0.3942
    1SOL     OW 2289   1.549   2.050   1.212  0.5786  0.5700  0.4804
    1SOL    HW2 2290   1.552   2.138   1.174 -0.4753  0.7548  0.8143
    1SOL    HW3 2291   1.471   2.009   1.173  2.5970 -1.2204 -1.8305
    1SOL    MW4 2292   1.539   2.056   1.202  0.7057  0.3583  0.2195
    1SOL     OW 2293   1.547   2.315   1.089  0.1061 -0.2263  0.0489
    1SOL    HW2 2294   1.461   2.346   1.117 -0.1526 -2.0718  1.4439
    1SOL    HW3 2295   1.550   2.333   0.995 -2.0267 -0.6348 -0.1146
    1SOL    MW4 2296   1.536   2.321   1.080 -0.2095 -0.5236  0.2115
    1SOL     OW 2297   1.313   2.431   1.183 -0.2179 -0.0193 -0.0682
    1SOL    HW2 2298   1.323   2.445   1.277 -0.8438 -1.8579  0.2993
    1SOL    HW3 2299   1.322   2.518   1.145  1.6394  0.5423  1.5521
    1SOL    MW4 2300   1.316   2.444   1.191 -0.0553 -0.1876  0.1941
    1SOL     OW 2301   1.316   2.676   1.085 -0.0057  0.1063  0.1617
    1SOL    HW2 2302   1.401   2.715   1.102  0.0584  0.1695 -0.2869
    1SOL    HW3 2303   1.253   2.733   1.127  0.1410  0.3143  0.0974
    1SOL    MW4 2304   1.318   2.688   1.093  0.0221  0.1421  0.0939
    1SOL     OW 2305   1.561   2.788   1.156  0.3448 -0.3579 -0.6487
    1SOL    HW2 2306   1.644   2.762   1.117  0.4116  0.1872 -0.8654
    1SOL    HW3 2307   1.562   2.884   1.154 -0.6822 -0.3552 -1.5048
    1SOL    MW4 2308   1.572   2.797   1.150  0.2180 -0.2856 -0.7902
    1SOL     OW 2309   1.569   3.063   1.084  0.4925 -0.2840 -0.2866
    1SOL    HW2 2310   1.651   3.103   1.113  0.5484 -0.0899 -0.7229
    1SOL    HW3 2311   1.501   3.105   1.137  0.4552  0.9878 -1.3265
    1SOL    MW4 2312   1.571   3.073   1.095  0.4950 -0.0906 -0.4814
    1SOL     OW 2313   1.376   3.211   1.243 -0.1439 -0.1708 -0.2901
    1SOL    HW2 2314   1.356   3.230   1.335  1.1308 -0.8973  0.1411
    1SOL    HW3 2315   1.291   3.191   1.204 -0.7290  0.4049  0.6676
    1SOL    MW4 2316   1.362   3.211   1.250 -0.0529 -0.1907 -0.1068
    1SOL     OW 2317   1.345   3.460   1.139  0.0840  0.2485  0.1780
    1SOL    HW2 2318   1.375   3.372   1.163 -0.1198  0.2452  0.4226
    1SOL    HW3 2319   1.338   3.458   1.043  0.6114  0.1691  0.1395
    1SOL    MW4 2320   1.348   3.448   1.129  0.1268  0.2375  0.2054
    1SOL     OW 2321   1.582   3.578   1.228  0.0024  0.1856 -0.4285
    1SOL    HW2 2322   1.580   3.669   1.200  0.3525  0.3497  0.0685
    1SOL    HW3 2323   1.495   3.545   1.208 -0.1311  0.6352 -0.5957
    1SOL    MW4 2324   1.571   3.586   1.222  0.0311  0.2668 -0.3849
    1SOL     OW 2325   1.581   3.831   1.140 -0.0873 -0.1135  0.0792
    1SOL    HW2 2326   1.503   3.876   1.172  0.7295  0.8123  0.7813
    1SOL    HW3 2327   1.565   3.820   1.046  0.4792  3.3079 -0.4864
    1SOL    MW4 2328   1.569   3.835   1.132  0.0951  0.4597  0.0973
    1SOL     OW 2329   1.360   3.969   1.228 -0.1766 -0.3602  0.2483
    1SOL    HW2 2330   1.368   4.055   1.187  1.1924  0.2642  1.7916
    1SOL    HW3 2331   1.273   3.938   1.201 -0.4251  1.2212 -0.8372
    1SOL    MW4 2332   1.349   3.976   1.219 -0.0288 -0.0691  0.3088
    1SOL     OW 2333   1.357   4.229   1.107 -0.3042  0.0616 -0.1496
    1SOL    HW2 2334   1.274   4.273   1.126  0.9575  2.0581  0.9675
    1SOL    HW3 2335   1.364   4.232   1.012 -1.0711  0.7664 -0.1927
    1SOL    MW4 2336   1.347   4.236   1.097 -0.2391  0.4182 -0.0081
    1SOL     OW 2337   1.572   4.372   1.240  0.4593  0.3738  0.3110
    1SOL    HW2 2338   1.572   4.373   1.336 -1.1458  0.6946  0.3310
    1SOL    HW3 2339   1.497   4.317   1.217  1.6917 -0.8832 -0.7781
    1SOL    MW4 2340   1.562   4.365   1.250  0.4102  0.2503  0.1700
    1SOL     OW 2341   2.031   4.654   1.091  0.3245 -0.2389 -0.5281
    1SOL    HW2 2342   2.024   4.558   1.094 -0.5391 -0.1752 -0.4449
    1SOL    HW3 2343   2.007   4.676   1.001 -0.8569  0.0135 -0.1491
    1SOL    MW4 2344   2.027   4.644   1.079  0.0546 -0.1969 -0.4671
    1SOL     OW 2345   1.760   0.094   1.195 -0.1468 -0.0999 -0.0922
    1SOL    HW2 2346   1.745   0.178   1.152  0.2935  0.6006  1.1085
    1SOL    HW3 2347   1.850   0.070   1.171  0.5384  0.8829  1.3854
    1SOL    MW4 2348   1.770   0.102   1.186  0.0018  0.1222  0.2612
    1SOL     OW 2349   1.763   0.336   1.092 -0.3974  0.5960 -0.2803
    1SOL    HW2 2350   1.697   0.403   1.111 -0.3332  0.4001  0.6307
    1SOL    HW3 2351   1.781   0.347   0.998 -2.2956  0.1288 -0.7339
    1SOL    MW4 2352   1.756   0.346   1.082 -0.6393  0.5086 -0.2198
    1SOL     OW 2353   1.978   0.765   1.106  0.1395  0.4002  0.0938
    1SOL    HW2 2354   2.056   0.801   1.147  0.3478 -0.7206  0.7016
    1SOL    HW3 2355   1.978   0.673   1.130 -1.4037  0.3928  0.1659
    1SOL    MW4 2356   1.988   0.758   1.115 -0.0366  0.2514  0.1835
    1SOL     OW 2357   1.997   0.770   0.816 -0.3718  0.1561  0.1435
    1SOL    HW2 2358   2.083   0.806   0.793 -0.4496 -0.5077 -1.1763
    1SOL    HW3 2359   2.003   0.755   0.911  1.1067 -0.2629 -0.0006
    1SOL    MW4 2360   2.009   0.773   0.826 -0.1869  0.0132 -0.0497
    1SOL     OW 2361   1.749   0.904   1.226  0.3623  0.2846 -0.1898
    1SOL    HW2 2362   1.764   0.885   1.318 -2.1633  0.4853  0.3209
    1SOL    HW3 2363   1.818   0.857   1.179  0.0498 -2.0876  1.6475
    1SOL    MW4 2364   1.760   0.895   1.232 -0.0122 -0.0019  0.1199
    1SOL     OW 2365   1.801   1.152   1.120 -0.5086 -0.1589  0.2884
    1SOL    HW2 2366   1.787   1.073   1.172 -0.1419 -0.2249  0.2866
    1SOL    HW3 2367   1.807   1.120   1.030 -0.7697 -0.0844  0.2446
    1SOL    MW4 2368   1.800   1.137   1.115 -0.4948 -0.1578  0.2824
    1SOL     OW 2369   2.006   1.308   1.198  0.2652 -0.0071  0.1355
    1SOL    HW2 2370   2.087   1.258   1.184  0.3828  0.0277  0.6718
    1SOL    HW3 2371   1.938   1.255   1.158  0.4962 -0.2345  0.0412
    1SOL    MW4 2372   2.008   1.295   1.191  0.3111 -0.0327  0.1938
    1SOL     OW 2373   2.014   1.580   1.077  0.0237  0.1051  0.3611
    1SOL    HW2 2374   2.001   1.487   1.093  0.9440  0.1083  1.1999
    1SOL    HW3 2375   1.988   1.593   0.986  0.6109 -1.1166  0.0131
    1SOL    MW4 2376   2.009   1.570   1.067  0.2227 -0.0558  0.4258
    1SOL     OW 2377   1.778   1.671   1.216 -0.1044  0.1785  0.1289
    1SOL    HW2 2378   1.766   1.761   1.185 -1.3500  0.2566  0.8060
    1SOL    HW3 2379   1.861   1.643   1.177  0.3320  1.6453 -0.0186
    1SOL    MW4 2380   1.788   1.679   1.206 -0.2110  0.3824  0.1987
    1SOL     OW 2381   1.786   1.924   1.109 -0.1370 -0.6166  0.2098
    1SOL    HW2 2382   1.704   1.969   1.128  0.1098  0.1773 -0.5855
    1SOL    HW3 2383   1.784   1.908   1.015  0.8431 -0.1590  0.1036
    1SOL    MW4 2384   1.775   1.928   1.099  0.0249 -0.4516  0.0908
    1SOL     OW 2385   2.014   2.060   1.167 -0.3629  0.1406  0.1784
    1SOL    HW2 2386   2.012   2.073   1.262  0.0327  0.5808  0.1270
    1SOL    HW3 2387   1.935   2.009   1.148  1.0139 -2.4270  1.1267
    1SOL    MW4 2388   2.003   2.055   1.177 -0.1290 -0.1402  0.2967
    1SOL     OW 2389   1.986   2.318   1.058  0.2287 -0.1389 -0.2632
    1SOL    HW2 2390   2.056   2.365   1.105 -0.9646 -0.6582  2.1323
    1SOL    HW3 2391   1.996   2.227   1.086 -1.5755 -0.1584  0.3709
    1SOL    MW4 2392   1.997   2.313   1.068 -0.1668 -0.2100  0.1365
    1SOL     OW 2393   1.768   2.449   1.204  0.0314 -0.3759  0.0457
    1SOL    HW2 2394   1.835   2.407   1.150  0.2408  0.8133 -0.6521
    1SOL    HW3 2395   1.688   2.400   1.187  0.2476 -0.4320 -0.8188
    1SOL    MW4 2396   1.766   2.437   1.195  0.0876 -0.2265 -0.1606
    1SOL     OW 2397   1.802   2.689   1.074 -0.1645 -0.1248 -0.2649
    1SOL    HW2 2398   1.787   2.599   1.102 -0.4445 -0.5541 -1.7685
    1SOL    HW3 2399   1.792   2.687   0.979  0.9575  1.2734 -0.4289
    1SOL    MW4 2400   1.799   2.677   1.066 -0.0534  0.0031 -0.4849
    1SOL     OW 2401   2.014   2.801   1.218  0.2880 -0.0326 -0.2488
    1SOL    HW2 2402   2.015   2.882   1.166 -0.3456  0.9980  1.2911
    1SOL    HW3 2403   1.931   2.759   1.194 -0.1758  0.6205  0.1845
    1SOL    MW4 2404   2.003   2.806   1.208  0.1433  0.1898  0.0114
    1SOL     OW 2405   2.044   3.084   1.131 -0.8390  0.1359 -0.0300
    1SOL    HW2 2406   1.954   3.115   1.142 -0.4700  1.5377 -0.7099
    1SOL    HW3 2407   2.052   3.067   1.037 -0.9322 -1.7519  0.2929
    1SOL    MW4 2408   2.033   3.086   1.120 -0.8028  0.0715 -0.0772
    1SOL     OW 2409   1.801   3.183   1.197 -0.1244  0.0761  0.1694
    1SOL    HW2 2410   1.790   3.203   1.290 -2.5409 -0.9104  0.1280
    1SOL    HW3 2411   1.781   3.265   1.152 -1.0891 -0.0237  0.4191
    1SOL    MW4 2412   1.797   3.197   1.203 -0.5705 -0.0672  0.1969
    1SOL     OW 2413   1.783   3.435   1.102 -0.0680 -0.0577 -0.1945
    1SOL    HW2 2414   1.862   3.481   1.130  0.8325 -1.4089 -0.4604
    1SOL    HW3 2415   1.712   3.494   1.125  0.9325  0.6495  1.1763
    1SOL    MW4 2416   1.784   3.448   1.109  0.1827 -0.1428 -0.0489
    1SOL     OW 2417   1.987   3.610   1.169  0.0054  0.4970 -0.1419
    1SOL    HW2 2418   1.987   3.621   1.264 -0.2314 -0.9257  0.0299
    1SOL    HW3 2419   2.075   3.578   1.149  0.1752  1.1560 -0.4480
    1SOL    MW4 2420   1.998   3.607   1.179 -0.0033  0.3963 -0.1596
    1SOL     OW 2421   2.040   3.876   1.094 -0.5877  0.2496  0.1442
    1SOL    HW2 2422   1.960   3.928   1.101 -1.1182 -0.6890  1.1544
    1SOL    HW3 2423   2.016   3.791   1.130  0.3253 -0.6484 -1.3377
    1SOL    MW4 2424   2.026   3.872   1.100 -0.5374  0.0072  0.0820
    1SOL     OW 2425   1.790   4.009   1.156 -0.3566 -0.7967  0.1135
    1SOL    HW2 2426   1.791   4.017   1.252 -0.9223  0.7493 -0.0016
    1SOL    HW3 2427   1.725   3.940   1.139 -1.8473  0.4236  0.7576
    1SOL    MW4 2428   1.781   4.001   1.167 -0.6279 -0.4320  0.1832
    1SOL     OW 2429   1.755   4.282   1.058 -0.0346 -0.3629 -0.1794
    1SOL    HW2 2430   1.766   4.191   1.087  1.9363 -0.0418  0.1693
    1SOL    HW3 2431   1.688   4.317   1.116 -1.4889 -1.8640 -0.9300
    1SOL    MW4 2432   1.748   4.274   1.070  0.0335 -0.5183 -0.2325
    1SOL     OW 2433   2.009   4.377   1.137 -0.3561 -0.1412 -0.2070
    1SOL    HW2 2434   2.014   4.375   1.232 -0.2668 -0.8484 -0.2225
    1SOL    HW3 2435   1.924   4.336   1.117  0.2516 -1.2869 -0.4799
    1SOL    MW4 2436   1.998   4.371   1.147 -0.2643 -0.3858 -0.2451
    1SOL     OW 2437   2.475   4.635   1.136 -0.0847  0.0671  0.8192
    1SOL    HW2 2438   2.555   4.680   1.164 -0.3417  0.3842  1.0463
    1SOL    HW3 2439   2.406   4.674   1.189 -0.4879  0.2540  0.1530
    1SOL    MW4 2440   2.477   4.646   1.147 -0.1717  0.1340  0.7614
    1SOL     OW 2441   2.251   0.123   1.228 -0.3581  0.3999 -0.3517
    1SOL    HW2 2442   2.242   0.214   1.199 -0.7563  0.5143  0.1170
    1SOL    HW3 2443   2.197   0.073   1.166  0.6435  0.3639 -1.1986
    1SOL    MW4 2444   2.242   0.128   1.216 -0.2782  0.4102 -0.4016
    1SOL     OW 2445   1.985   0.488   1.191 -0.0406 -0.1025 -0.2530
    1SOL    HW2 2446   1.987   0.480   1.286  1.1460 -0.9079 -0.3324
    1SOL    HW3 2447   1.912   0.432   1.164 -0.8529  0.7115  0.2255
    1SOL    MW4 2448   1.976   0.479   1.200  0.0088 -0.1013 -0.2004
    1SOL     OW 2449   2.457   0.544   1.194  0.4267 -0.1236 -0.0791
    1SOL    HW2 2450   2.451   0.538   1.289  1.1691 -3.0077 -0.1636
    1SOL    HW3 2451   2.383   0.492   1.162  0.0067  1.0690 -1.1025
    1SOL    MW4 2452   2.446   0.537   1.202  0.4694 -0.3467 -0.2253
    1SOL     OW 2453   2.433   0.792   1.112 -0.0575  0.4298  0.0174
    1SOL    HW2 2454   2.441   0.702   1.144 -2.0216 -0.2879 -1.3734
    1SOL    HW3 2455   2.445   0.785   1.017 -0.0340  1.6653 -0.0772
    1SOL    MW4 2456   2.435   0.779   1.104 -0.3135  0.4982 -0.1786
    1SOL     OW 2457   2.194   0.852   1.237 -0.1325 -0.7402 -0.0705
    1SOL    HW2 2458   2.213   0.856   1.331 -1.1450  0.9041  0.0782
    1SOL    HW3 2459   2.275   0.820   1.197  0.9745  0.4716  1.1622
    1SOL    MW4 2460   2.207   0.848   1.244 -0.1202 -0.3633  0.1118
    1SOL     OW 2461   2.231   1.134   1.170  0.3662 -0.0059 -0.9655
    1SOL    HW2 2462   2.310   1.172   1.208  0.8208 -0.4755 -1.4542
    1SOL    HW3 2463   2.234   1.042   1.196  0.2797 -0.1533 -1.4895
    1SOL    MW4 2464   2.242   1.127   1.179  0.4148 -0.0873 -1.0991
    1SOL     OW 2465   2.486   1.267   1.246  0.0716  0.0789  0.4792
    1SOL    HW2 2466   2.548   1.208   1.204  2.0018  1.1514  1.7249
    1SOL    HW3 2467   2.482   1.343   1.188 -0.2333 -0.0719  0.3014
    1SOL    MW4 2468   2.494   1.270   1.233  0.2861  0.2004  0.6201
    1SOL     OW 2469   2.449   1.492   1.088 -0.0019 -0.3176 -0.0115
    1SOL    HW2 2470   2.379   1.545   1.127 -1.1717 -0.5233 -1.7677
    1SOL    HW3 2471   2.450   1.519   0.996  0.8235 -1.8224 -0.4445
    1SOL    MW4 2472   2.440   1.503   1.081 -0.0470 -0.5432 -0.3005
    1SOL     OW 2473   2.258   1.670   1.195  0.2829  0.0296  0.2185
    1SOL    HW2 2474   2.255   1.761   1.166  1.4063  0.1805  0.5627
    1SOL    HW3 2475   2.185   1.628   1.149  0.6421  0.7793 -1.0677
    1SOL    MW4 2476   2.248   1.677   1.185  0.4785  0.1484  0.0943
    1SOL     OW 2477   2.245   1.932   1.112 -0.0067  0.4524 -0.0843
    1SOL    HW2 2478   2.158   1.969   1.124 -1.1801 -2.1205 -0.4165
    1SOL    HW3 2479   2.256   1.924   1.017 -0.1455 -0.8547 -0.0055
    1SOL    MW4 2480   2.235   1.936   1.101 -0.1798 -0.0595 -0.1177
    1SOL     OW 2481   2.501   1.987   1.239 -0.4797  0.1454 -0.6493
    1SOL    HW2 2482   2.566   1.950   1.179 -1.0653 -3.2997  0.7537
    1SOL    HW3 2483   2.417   1.964   1.200 -0.8503 -0.2655  0.3830
    1SOL    MW4 2484   2.499   1.979   1.226 -0.6058 -0.3635 -0.3279
    1SOL     OW 2485   2.463   2.264   1.173 -0.2702  0.1748  0.1110
    1SOL    HW2 2486   2.473   2.174   1.203  0.3026  0.3470  0.4512
    1SOL    HW3 2487   2.477   2.259   1.078 -1.1265 -0.2224 -0.0014
    1SOL    MW4 2488   2.466   2.252   1.165 -0.3078  0.1452  0.1411
    1SOL     OW 2489   2.235   2.432   1.203 -0.1582 -0.1927  1.0954
    1SOL    HW2 2490   2.249   2.454   1.295  1.2283  2.5971  0.2847
    1SOL    HW3 2491   2.310   2.377   1.180  0.1845  0.1892  1.2976
    1SOL    MW4 2492   2.247   2.428   1.212  0.0696  0.2258  1.0151
    1SOL     OW 2493   2.272   2.680   1.122 -0.2324  0.3804  0.3101
    1SOL    HW2 2494   2.262   2.585   1.128 -0.2116  0.4344  1.2722
    1SOL    HW3 2495   2.192   2.715   1.161  0.1736  0.7518  0.8213
    1SOL    MW4 2496   2.260   2.672   1.128 -0.1762  0.4363  0.5045
    1SOL     OW 2497   2.475   2.832   1.220 -0.2105 -0.4760  0.2715
    1SOL    HW2 2498   2.462   2.854   1.312 -2.6247  0.7693 -0.3242
    1SOL    HW3 2499   2.410   2.765   1.201  0.8508 -1.3598 -0.3316
    1SOL    MW4 2500   2.465   2.826   1.230 -0.3889 -0.4282  0.1134
    1SOL     OW 2501   2.459   3.082   1.114 -0.1711 -0.2801 -0.4250
    1SOL    HW2 2502   2.389   3.116   1.169 -0.3180 -0.1794 -0.6732
    1SOL    HW3 2503   2.475   2.993   1.147  0.4453  0.1518  0.4408
    1SOL    MW4 2504   2.452   3.075   1.125 -0.1092 -0.2098 -0.3436
    1SOL     OW 2505   2.257   3.230   1.241  0.4554  0.4607 -0.3167
    1SOL    HW2 2506   2.252   3.322   1.212 -0.0842  0.3444 -0.6166
    1SOL    HW3 2507   2.186   3.187   1.193  2.0857 -0.5649 -1.8436
    1SOL    MW4 2508   2.247   3.237   1.231  0.5994  0.3099 -0.5578
    1SOL     OW 2509   2.253   3.503   1.110 -0.4702  0.5632 -0.2594
    1SOL    HW2 2510   2.336   3.535   1.146 -1.6126  1.6519  1.4866
    1SOL    HW3 2511   2.271   3.491   1.017  0.9601  3.2252 -0.3854
    1SOL    MW4 2512   2.266   3.506   1.103 -0.4320  1.0581 -0.0457
    1SOL     OW 2513   2.511   3.607   1.202 -0.6187 -0.4857 -0.0839
    1SOL    HW2 2514   2.504   3.615   1.297  2.9029  0.6205  0.1474
    1SOL    HW3 2515   2.516   3.697   1.171 -0.4199 -0.8702 -1.1771
    1SOL    MW4 2516   2.511   3.620   1.211 -0.1278 -0.3908 -0.1975
    1SOL     OW 2517   2.501   3.864   1.090  0.0465 -0.4200  0.1178
    1SOL    HW2 2518   2.413   3.891   1.115  0.5235  0.1423  1.2375
    1SOL    HW3 2519   2.509   3.888   0.998 -1.0276 -0.6357 -0.0333
    1SOL    MW4 2520   2.490   3.871   1.081 -0.0322 -0.3741  0.2457
    1SOL     OW 2521   2.279   3.978   1.198  0.2261 -0.0608 -0.2021
    1SOL    HW2 2522   2.270   4.070   1.172  0.8610 -0.3008 -1.2900
    1SOL    HW3 2523   2.196   3.938   1.172  0.5880 -0.1481 -1.2279
    1SOL    MW4 2524   2.267   3.985   1.191  0.3579 -0.1040 -0.4810
    1SOL     OW 2525   2.256   4.262   1.095  0.3077 -0.4962 -0.3855
    1SOL    HW2 2526   2.168   4.298   1.107  0.3505 -0.3943 -0.3708
    1SOL    HW3 2527   2.274   4.273   1.001  0.9122  0.9086 -0.1171
    1SOL    MW4 2528   2.247   4.269   1.084  0.3934 -0.2980 -0.3481
    1SOL     OW 2529   2.454   4.382   1.247  0.0712  0.2095  0.1380
    1SOL    HW2 2530   2.380   4.338   1.206 -0.3349 -0.3836  1.4693
    1SOL    HW3 2531   2.467   4.462   1.196 -0.3690 -0.5466 -1.1691
    1SOL    MW4 2532   2.446   4.387   1.235 -0.0405  0.0319  0.1410
    1SOL     OW 2533   2.924   0.004   1.151  0.4512  0.2389  0.1837
    1SOL    HW2 2534   2.927  -0.088   1.177  2.6760  0.3884  0.5177
    1SOL    HW3 2535   2.935   0.002   1.055  0.0806  0.1344  0.1431
    1SOL    MW4 2536   2.926  -0.009   1.141  0.6959  0.2446  0.2226
    1SOL     OW 2537   2.684   0.134   1.218  0.2685 -0.1705 -0.5086
    1SOL    HW2 2538   2.696   0.134   1.313 -0.3843 -1.1802 -0.4143
    1SOL    HW3 2539   2.761   0.087   1.185 -0.5459 -1.6899 -0.3107
    1SOL    MW4 2540   2.696   0.128   1.226  0.0749 -0.5042 -0.4700
    1SOL     OW 2541   2.672   0.395   1.114 -0.5102 -0.0609 -0.2396
    1SOL    HW2 2542   2.658   0.308   1.151  1.5112 -0.0538  0.6141
    1SOL    HW3 2543   2.601   0.448   1.148 -0.4437 -0.8254  1.1245
    1SOL    MW4 2544   2.661   0.391   1.123 -0.2348 -0.1608  0.0529
    1SOL     OW 2545   2.892   0.482   1.243 -0.1061 -0.3143 -0.2477
    1SOL    HW2 2546   2.883   0.575   1.221 -1.5149 -0.4505 -0.2570
    1SOL    HW3 2547   2.820   0.439   1.199  0.4204 -1.4002 -0.0697
    1SOL    MW4 2548   2.882   0.489   1.234 -0.2227 -0.4756 -0.2253
    1SOL     OW 2549   2.913   0.732   1.152  0.6110  0.3627 -0.4052
    1SOL    HW2 2550   2.985   0.787   1.184  1.3423 -0.9412  0.2491
    1SOL    HW3 2551   2.835   0.786   1.164  1.2672  1.1288  0.5613
    1SOL    MW4 2552   2.912   0.747   1.158  0.7939  0.2917 -0.1913
    1SOL     OW 2553   2.679   0.870   1.216  0.1765 -0.4490  0.2739
    1SOL    HW2 2554   2.699   0.958   1.186 -0.9801  0.0789  0.9851
    1SOL    HW3 2555   2.595   0.849   1.175  0.1831 -1.0108  0.5367
    1SOL    MW4 2556   2.670   0.879   1.207  0.0248 -0.4535  0.4025
    1SOL     OW 2557   2.713   1.139   1.163  0.3538 -0.7594 -0.1266
    1SOL    HW2 2558   2.716   1.140   1.067  2.9126 -3.1475 -0.1475
    1SOL    HW3 2559   2.791   1.188   1.190  0.1798 -0.9410  0.7217
    1SOL    MW4 2560   2.724   1.145   1.154  0.6688 -1.0984 -0.0175
    1SOL     OW 2561   2.942   1.246   1.240  0.5953 -0.3021 -0.0853
    1SOL    HW2 2562   2.914   1.256   1.331  2.2714  0.0483  0.4087
    1SOL    HW3 2563   2.913   1.327   1.197 -2.1291 -1.3966 -0.4001
    1SOL    MW4 2564   2.934   1.258   1.246  0.4570 -0.4004 -0.0618
    1SOL     OW 2565   2.897   1.474   1.116 -0.1400 -0.3992 -0.4892
    1SOL    HW2 2566   2.970   1.526   1.150  0.7470 -1.4586 -0.7226
    1SOL    HW3 2567   2.908   1.478   1.021 -0.2808 -0.6843 -0.5186
    1SOL    MW4 2568   2.908   1.481   1.108 -0.0412 -0.5767 -0.5238
    1SOL     OW 2569   2.687   1.639   1.175  0.2362  0.3858  0.3482
    1SOL    HW2 2570   2.764   1.586   1.156 -0.0678  0.5690 -1.4314
    1SOL    HW3 2571   2.613   1.588   1.141 -0.1956  1.2960 -0.1017
    1SOL    MW4 2572   2.687   1.625   1.168  0.1388  0.5301  0.0542
    1SOL     OW 2573   2.690   1.885   1.048  0.0368  0.1779 -0.4039
    1SOL    HW2 2574   2.761   1.941   1.078  1.2148 -0.5157 -1.8195
    1SOL    HW3 2575   2.700   1.804   1.098 -0.8495  0.7264  0.6753
    1SOL    MW4 2576   2.701   1.882   1.059  0.0751  0.1587 -0.4482
    1SOL     OW 2577   2.860   2.044   1.193  0.4097  0.1562 -0.3584
    1SOL    HW2 2578   2.859   2.043   1.289  0.1579 -2.9230 -0.3337
    1SOL    HW3 2579   2.854   2.137   1.170  2.2678  1.0829  2.5979
    1SOL    MW4 2580   2.859   2.056   1.203  0.6216 -0.1278  0.0349
    1SOL     OW 2581   2.866   2.308   1.094  0.1769  0.1505  0.3419
    1SOL    HW2 2582   2.948   2.340   1.132  0.5366  0.5448 -0.7425
    1SOL    HW3 2583   2.798   2.340   1.153  0.7436  0.5637  0.7752
    1SOL    MW4 2584   2.868   2.317   1.107  0.2992  0.2568  0.2561
    1SOL     OW 2585   2.668   2.425   1.253  0.0967 -0.2179  0.3103
    1SOL    HW2 2586   2.679   2.414   1.347 -1.0406  1.5689  0.6714
    1SOL    HW3 2587   2.589   2.375   1.232  0.9031 -1.4304  0.1220
    1SOL    MW4 2588   2.659   2.417   1.263  0.0529 -0.1421  0.3331
    1SOL     OW 2589   2.693   2.667   1.111  0.0579 -0.1906  0.8515
    1SOL    HW2 2590   2.673   2.586   1.159 -0.1831  0.0849  1.2121
    1SOL    HW3 2591   2.616   2.722   1.124 -0.0979 -0.1890 -0.0158
    1SOL    MW4 2592   2.680   2.663   1.119  0.0055 -0.1543  0.7846
    1SOL     OW 2593   2.926   2.795   1.220  0.0303 -0.6612 -0.2289
    1SOL    HW2 2594   2.933   2.801   1.316 -0.4885 -0.4025 -0.2051
    1SOL    HW3 2595   2.845   2.748   1.205 -1.1067  1.3582 -0.5662
    1SOL    MW4 2596   2.916   2.790   1.231 -0.1879 -0.3607 -0.2704
    1SOL     OW 2597   2.938   3.063   1.103  0.9124  0.5469 -0.3793
    1SOL    HW2 2598   2.952   2.976   1.142 -2.2967 -0.0833 -0.4690
    1SOL    HW3 2599   2.952   3.049   1.009 -0.3248 -0.0607 -0.4815
    1SOL    MW4 2600   2.942   3.050   1.096  0.3259  0.3834 -0.4047
    1SOL     OW 2601   2.704   3.207   1.185 -0.4981  0.0355  0.6071
    1SOL    HW2 2602   2.774   3.160   1.140 -0.5820 -0.0854  0.6030
    1SOL    HW3 2603   2.624   3.164   1.157 -0.5845  0.2540  0.5148
    1SOL    MW4 2604   2.703   3.195   1.175 -0.5207  0.0484  0.5944
    1SOL     OW 2605   2.749   3.467   1.118 -0.4740  0.4918 -0.1396
    1SOL    HW2 2606   2.733   3.376   1.143 -0.6683  0.5937  0.1089
    1SOL    HW3 2607   2.670   3.514   1.146  0.4154  1.0710  1.4468
    1SOL    MW4 2608   2.736   3.461   1.125 -0.3822  0.5820  0.1025
    1SOL     OW 2609   2.969   3.579   1.247  0.4885  0.0778 -0.0693
    1SOL    HW2 2610   3.054   3.548   1.216 -0.7977 -1.5827 -2.0272
    1SOL    HW3 2611   2.905   3.525   1.202 -1.6260  0.8781  1.8540
    1SOL    MW4 2612   2.972   3.568   1.237  0.0398 -0.0360 -0.0738
    1SOL     OW 2613   2.940   3.856   1.121  0.2699  0.0709 -0.3402
    1SOL    HW2 2614   3.021   3.891   1.156  0.2044  0.2005 -0.3170
    1SOL    HW3 2615   2.933   3.769   1.160  1.4882 -0.8084 -2.0220
    1SOL    MW4 2616   2.950   3.849   1.130  0.4220 -0.0281 -0.5591
    1SOL     OW 2617   2.710   3.996   1.215 -0.2511 -0.2273  0.0669
    1SOL    HW2 2618   2.790   3.952   1.186  0.0130 -0.4600  1.1065
    1SOL    HW3 2619   2.640   3.946   1.173  0.1083 -0.6723 -0.0195
    1SOL    MW4 2620   2.711   3.983   1.206 -0.1688 -0.3166  0.1926
    1SOL     OW 2621   2.683   4.246   1.126  0.2019 -0.1913  0.3014
    1SOL    HW2 2622   2.711   4.160   1.156  0.7067  0.0690  0.5872
    1SOL    HW3 2623   2.600   4.261   1.171 -1.0152 -1.4748 -1.4741
    1SOL    MW4 2624   2.676   4.237   1.136  0.1080 -0.3266  0.1048
    1SOL     OW 2625   2.914   4.402   1.230 -0.1787 -0.0488 -0.0403
    1SOL    HW2 2626   2.985   4.351   1.193  0.3039  1.8988 -1.9105
    1SOL    HW3 2627   2.834   4.359   1.198  0.1962 -0.5806 -0.2629
    1SOL    MW4 2628   2.913   4.390   1.221 -0.0653  0.1383 -0.3164
    1SOL     OW 2629   3.353   4.615   1.152  0.0284  0.3864  0.1480
    1SOL    HW2 2630   3.429   4.664   1.181 -0.0598  0.9198 -0.5192
    1SOL    HW3 2631   3.279   4.672   1.171 -0.0255  0.7497 -1.1439
    1SOL    MW4 2632   3.353   4.629   1.159  0.0095  0.5040 -0.1103
    1SOL     OW 2633   3.161   0.115   1.236  0.2694  0.5122  0.1633
    1SOL    HW2 2634   3.164   0.097   1.330  1.9051 -0.1326 -0.0039
    1SOL    HW3 2635   3.086   0.065   1.205  0.8663 -0.8139  0.8071
    1SOL    MW4 2636   3.152   0.106   1.245  0.5641  0.2522  0.2263
    1SOL     OW 2637   3.138   0.378   1.134  0.1713  0.5320 -0.2258
    1SOL    HW2 2638   3.138   0.287   1.163 -0.1713  0.4708 -0.4260
    1SOL    HW3 2639   3.057   0.415   1.169  0.8489  1.0706  0.8348
    1SOL    MW4 2640   3.127   0.371   1.143  0.2155  0.5950 -0.1123
    1SOL     OW 2641   3.373   0.486   1.244  0.1719 -0.1643  0.0805
    1SOL    HW2 2642   3.383   0.572   1.203 -0.1545  1.2557  2.8551
    1SOL    HW3 2643   3.292   0.451   1.206 -1.1115  1.9030  0.8358
    1SOL    MW4 2644   3.364   0.492   1.234 -0.0405  0.2958  0.5462
    1SOL     OW 2645   3.372   0.743   1.139  0.0726 -0.0904  0.2587
    1SOL    HW2 2646   3.364   0.715   1.048  1.6134  0.9461 -0.2124
    1SOL    HW3 2647   3.286   0.780   1.160 -0.8475 -1.9328 -0.2087
    1SOL    MW4 2648   3.359   0.744   1.130  0.1545 -0.1967  0.1349
    1SOL     OW 2649   3.141   0.864   1.210  0.1595  0.4542  0.5609
    1SOL    HW2 2650   3.124   0.879   1.303 -0.6923  1.3681  0.2665
    1SOL    HW3 2651   3.143   0.951   1.171  0.9078  0.0991 -0.2163
    1SOL    MW4 2652   3.139   0.877   1.217  0.1454  0.5280  0.4195
    1SOL     OW 2653   3.167   1.130   1.128  0.0039 -0.2168  0.1761
    1SOL    HW2 2654   3.246   1.171   1.165  0.0187 -0.6396  0.6068
    1SOL    HW3 2655   3.095   1.169   1.177 -0.0554  0.1032 -0.1582
    1SOL    MW4 2656   3.168   1.141   1.139 -0.0019 -0.2304  0.1888
    1SOL     OW 2657   3.389   1.254   1.264  0.0206  0.4234 -0.6133
    1SOL    HW2 2658   3.391   1.260   1.360 -1.6357  0.8387 -0.5885
    1SOL    HW3 2659   3.369   1.343   1.235  0.3468  0.2604 -1.3458
    1SOL    MW4 2660   3.387   1.267   1.273 -0.1550  0.4567 -0.7067
    1SOL     OW 2661   3.359   1.504   1.149  0.1016 -0.1817 -0.2765
    1SOL    HW2 2662   3.430   1.555   1.187  0.3387  0.6637 -1.8360
    1SOL    HW3 2663   3.281   1.530   1.198  0.4685  0.5926 -0.1062
    1SOL    MW4 2664   3.358   1.514   1.161  0.1810  0.0319 -0.4599
    1SOL     OW 2665   3.109   1.616   1.225  0.0864 -0.1556  0.0403
    1SOL    HW2 2666   3.094   1.618   1.319  2.6639 -1.8465  0.5439
    1SOL    HW3 2667   3.113   1.708   1.199  1.0688  0.3403  1.8861
    1SOL    MW4 2668   3.108   1.628   1.234  0.5560 -0.3134  0.3502
    1SOL     OW 2669   3.101   1.881   1.126  0.0260 -0.4069  0.2749
    1SOL    HW2 2670   3.182   1.921   1.158  0.3445 -0.4245 -0.5168
    1SOL    HW3 2671   3.032   1.943   1.152  0.5603  0.8815 -1.3456
    1SOL    MW4 2672   3.102   1.894   1.134  0.1388 -0.2393 -0.0434
    1SOL     OW 2673   3.314   2.051   1.199  0.2138 -0.3411 -0.0470
    1SOL    HW2 2674   3.391   1.999   1.177 -0.3177 -0.6835 -1.1559
    1SOL    HW3 2675   3.311   2.118   1.131 -0.5590 -0.4394 -0.1104
    1SOL    MW4 2676   3.324   2.053   1.187  0.0417 -0.3991 -0.2017
    1SOL     OW 2677   3.301   2.310   1.066  0.3693  0.2376  0.0215
    1SOL    HW2 2678   3.384   2.331   1.109 -0.7065  3.1123  0.8385
    1SOL    HW3 2679   3.236   2.320   1.135 -0.8889  0.3251 -1.1664
    1SOL    MW4 2680   3.304   2.314   1.081  0.0610  0.6285 -0.0275
    1SOL     OW 2681   3.095   2.395   1.227 -0.7054 -0.0134  0.2578
    1SOL    HW2 2682   3.111   2.397   1.322 -1.0551 -0.1678  0.3196
    1SOL    HW3 2683   3.126   2.480   1.196 -0.0925 -0.1670  0.4287
    1SOL    MW4 2684   3.101   2.406   1.236 -0.6707 -0.0541  0.2886
    1SOL     OW 2685   3.176   2.652   1.125  0.4008  0.1331 -0.0812
    1SOL    HW2 2686   3.092   2.694   1.144 -1.1386 -3.0997  0.6107
    1SOL    HW3 2687   3.176   2.640   1.030 -1.3139 -2.4580  0.1779
    1SOL    MW4 2688   3.165   2.656   1.115 -0.0286 -0.6351  0.0443
    1SOL     OW 2689   3.381   2.816   1.222 -0.1896  0.0620  0.1848
    1SOL    HW2 2690   3.374   2.901   1.178 -2.2043  0.7989  1.8311
    1SOL    HW3 2691   3.319   2.760   1.174 -0.5983  0.1842  0.5708
    1SOL    MW4 2692   3.372   2.820   1.210 -0.5093  0.1752  0.4530
    1SOL     OW 2693   3.376   3.071   1.097 -0.4373 -0.0336 -0.1682
    1SOL    HW2 2694   3.438   3.122   1.148 -0.7070 -1.0178  1.2066
    1SOL    HW3 2695   3.291   3.112   1.114 -0.2881  0.7554 -1.3106
    1SOL    MW4 2696   3.373   3.083   1.106 -0.4535 -0.0591 -0.1377
    1SOL     OW 2697   3.140   3.227   1.203 -0.2197  0.3658 -0.0979
    1SOL    HW2 2698   3.137   3.218   1.298  0.9646 -0.9039 -0.1512
    1SOL    HW3 2699   3.073   3.167   1.171 -1.2991  1.5283 -0.0430
    1SOL    MW4 2700   3.131   3.218   1.211 -0.2060  0.3517 -0.0976
    1SOL     OW 2701   3.173   3.492   1.103 -0.5108 -0.0982 -0.0383
    1SOL    HW2 2702   3.255   3.512   1.149 -0.9368 -0.1811  0.7437
    1SOL    HW3 2703   3.157   3.400   1.121 -0.1307 -0.4090 -1.2152
    1SOL    MW4 2704   3.182   3.483   1.111 -0.5169 -0.1502 -0.0905
    1SOL     OW 2705   3.382   3.594   1.233 -0.0083  0.0971 -0.2320
    1SOL    HW2 2706   3.383   3.604   1.328  0.2851  1.8227 -0.4005
    1SOL    HW3 2707   3.471   3.565   1.211  0.3984  1.2531 -0.1298
    1SOL    MW4 2708   3.394   3.591   1.243  0.0839  0.4773 -0.2408
    1SOL     OW 2709   3.370   3.852   1.109 -0.0418 -0.3983 -0.3919
    1SOL    HW2 2710   3.355   3.764   1.146  0.0998  0.2176  1.1719
    1SOL    HW3 2711   3.295   3.903   1.140  0.0604  0.1254 -1.0108
    1SOL    MW4 2712   3.358   3.847   1.118 -0.0093 -0.2477 -0.2671
    1SOL     OW 2713   3.165   3.993   1.206  0.0403  0.1982 -0.1537
    1SOL    HW2 2714   3.177   4.013   1.299 -0.4909 -0.9095  0.1709
    1SOL    HW3 2715   3.139   4.076   1.167  0.5439  0.7384  0.6398
    1SOL    MW4 2716   3.163   4.007   1.213  0.0370  0.1235 -0.0062
    1SOL     OW 2717   3.118   4.251   1.126 -0.1564 -0.3227  0.1866
    1SOL    HW2 2718   3.198   4.298   1.151  0.0233 -0.2066 -0.5653
    1SOL    HW3 2719   3.124   4.245   1.030  0.0673 -2.3250  0.3143
    1SOL    MW4 2720   3.130   4.257   1.117 -0.1032 -0.5713  0.1042
    1SOL     OW 2721   3.368   4.348   1.224 -0.2527  0.2471  0.3750
    1SOL    HW2 2722   3.449   4.314   1.185  0.3878  0.8096  1.1917
    1SOL    HW3 2723   3.376   4.443   1.215 -0.1514  0.3792  1.7522
    1SOL    MW4 2724   3.380   4.356   1.217 -0.1550  0.3386  0.6645
    1SOL     OW 2725   3.800   4.615   1.140 -0.0261 -0.4328 -0.2023
    1SOL    HW2 2726   3.833   4.526   1.149 -0.0124 -0.4967 -0.8589
    1SOL    HW3 2727   3.803   4.632   1.046 -1.6199 -0.3649 -0.2686
    1SOL    MW4 2728   3.805   4.605   1.128 -0.2346 -0.4325 -0.2977
    1SOL     OW 2729   3.570   0.102   1.233 -0.5315  0.2732  0.2518
    1SOL    HW2 2730   3.580   0.186   1.188  0.5521  0.4412  0.7860
    1SOL    HW3 2731   3.651   0.055   1.213 -1.6909 -1.1862 -1.1470
    1SOL    MW4 2732   3.582   0.107   1.224 -0.5412  0.1028  0.1378
    1SOL     OW 2733   3.579   0.353   1.123 -0.3483 -0.1832  0.0412
    1SOL    HW2 2734   3.651   0.407   1.155 -0.7657  0.0971  0.5039
    1SOL    HW3 2735   3.500   0.390   1.164 -0.6386 -1.1382  0.3581
    1SOL    MW4 2736   3.578   0.365   1.132 -0.4416 -0.2722  0.1440
    1SOL     OW 2737   3.812   0.492   1.220 -0.0911  0.1441 -0.5012
    1SOL    HW2 2738   3.894   0.459   1.184  0.3186  1.1443 -0.4777
    1SOL    HW3 2739   3.814   0.586   1.204  0.2264  0.6616  2.4285
    1SOL    MW4 2740   3.823   0.500   1.213  0.0048  0.3444 -0.1116
    1SOL     OW 2741   3.790   0.755   1.155  0.1341 -0.3093  0.2766
    1SOL    HW2 2742   3.859   0.821   1.165 -0.4788  0.2924  0.5329
    1SOL    HW3 2743   3.709   0.801   1.174 -0.4612 -0.7132 -1.2263
    1SOL    MW4 2744   3.789   0.770   1.159 -0.0253 -0.2833  0.1121
    1SOL     OW 2745   3.583   0.900   1.235  0.0619  0.4609  0.4829
    1SOL    HW2 2746   3.577   0.974   1.175  0.8066  0.4436  0.3924
    1SOL    HW3 2747   3.504   0.849   1.217  0.0517  0.6993 -0.1603
    1SOL    MW4 2748   3.571   0.903   1.225  0.1585  0.4900  0.3861
    1SOL     OW 2749   3.594   1.141   1.107 -0.0332  0.3105 -0.0234
    1SOL    HW2 2750   3.667   1.185   1.150 -0.7436  1.3549  0.1467
    1SOL    HW3 2751   3.517   1.171   1.155 -0.6014 -0.5979 -0.3427
    1SOL    MW4 2752   3.593   1.151   1.119 -0.2022  0.3284 -0.0430
    1SOL     OW 2753   3.814   1.267   1.232  0.0506 -0.7189  0.1716
    1SOL    HW2 2754   3.801   1.256   1.326  1.3023 -1.5022  0.2585
    1SOL    HW3 2755   3.803   1.361   1.217 -0.5006 -0.6449  1.0411
    1SOL    MW4 2756   3.811   1.278   1.242  0.1431 -0.8125  0.2978
    1SOL     OW 2757   3.793   1.531   1.153 -0.0304  0.2666  0.0356
    1SOL    HW2 2758   3.864   1.587   1.185 -0.8990  0.4202  1.7522
    1SOL    HW3 2759   3.810   1.522   1.059  2.3368  0.1713  0.4469
    1SOL    MW4 2760   3.805   1.538   1.144  0.1674  0.2742  0.3164
    1SOL     OW 2761   3.561   1.655   1.274  0.5725 -0.0856 -0.3783
    1SOL    HW2 2762   3.533   1.740   1.239  0.5774  0.5385  1.1019
    1SOL    HW3 2763   3.642   1.636   1.227  0.8069  0.9380 -0.4015
    1SOL    MW4 2764   3.568   1.664   1.263  0.6042  0.1317 -0.1860
    1SOL     OW 2765   3.528   1.893   1.159  0.3293 -0.5938 -0.0805
    1SOL    HW2 2766   3.595   1.947   1.202  0.9009 -1.8364  0.6028
    1SOL    HW3 2767   3.548   1.901   1.065 -0.3704  1.3964 -0.0810
    1SOL    MW4 2768   3.540   1.902   1.152  0.3126 -0.4951  0.0098
    1SOL     OW 2769   3.998   1.900   1.117  0.0643  0.2572  0.2424
    1SOL    HW2 2770   3.920   1.945   1.149  0.8449  1.1886  0.8970
    1SOL    HW3 2771   3.992   1.812   1.155 -0.4447  0.4603  0.6481
    1SOL    MW4 2772   3.987   1.895   1.126  0.1004  0.4069  0.3823
    1SOL     OW 2773   3.753   2.028   1.233 -0.0474 -0.3861 -0.3883
    1SOL    HW2 2774   3.769   2.118   1.208 -2.0986 -0.1052 -0.8239
    1SOL    HW3 2775   3.786   2.021   1.323  0.9942  0.5155 -0.6965
    1SOL    MW4 2776   3.759   2.039   1.242 -0.1802 -0.2301 -0.4865
    1SOL     OW 2777   3.551   2.373   1.186  0.0620 -0.3015  0.4093
    1SOL    HW2 2778   3.550   2.396   1.278 -3.0147 -1.0451  0.6255
    1SOL    HW3 2779   3.635   2.329   1.173  1.2006  1.2134  2.4686
    1SOL    MW4 2780   3.562   2.370   1.196 -0.1936 -0.1996  0.7095
    1SOL     OW 2781   3.616   2.666   1.137  0.2987 -0.1441  0.0661
    1SOL    HW2 2782   3.594   2.573   1.136 -0.4688  0.0348  0.3223
    1SOL    HW3 2783   3.548   2.706   1.191  1.4555  0.3581  1.1678
    1SOL    MW4 2784   3.604   2.659   1.144  0.3502 -0.0541  0.2453
    1SOL     OW 2785   3.830   2.805   1.250  0.0910  0.0801 -0.2657
    1SOL    HW2 2786   3.808   2.802   1.343  1.0913  0.2306 -0.0152
    1SOL    HW3 2787   3.764   2.750   1.208 -0.9471  0.7810  0.4127
    1SOL    MW4 2788   3.819   2.797   1.257  0.0861  0.1926 -0.1432
    1SOL     OW 2789   3.789   3.065   1.120 -0.1058 -0.0737  0.0171
    1SOL    HW2 2790   3.816   2.980   1.155  1.0576  0.4281  0.3551
    1SOL    HW3 2791   3.799   3.056   1.025  1.4162  0.1461  0.1416
    1SOL    MW4 2792   3.794   3.052   1.112  0.2482  0.0217  0.0781
    1SOL     OW 2793   3.574   3.206   1.243  0.1466 -0.0384 -0.2434
    1SOL    HW2 2794   3.589   3.300   1.234  0.7026 -0.0164  0.7719
    1SOL    HW3 2795   3.647   3.166   1.196  0.2662  0.0437 -0.1294
    1SOL    MW4 2796   3.586   3.213   1.236  0.2358 -0.0246 -0.0944
    1SOL     OW 2797   3.633   3.483   1.187 -0.3793 -0.1057 -0.2333
    1SOL    HW2 2798   3.720   3.517   1.208  0.2422 -1.9227  0.2508
    1SOL    HW3 2799   3.633   3.477   1.091 -0.3884  0.9460 -0.3054
    1SOL    MW4 2800   3.645   3.486   1.177 -0.2985 -0.2065 -0.1789
    1SOL     OW 2801   3.888   3.585   1.216 -0.5104 -0.5489  0.7605
    1SOL    HW2 2802   3.890   3.599   1.311 -0.2160 -0.5754  0.7607
    1SOL    HW3 2803   3.864   3.671   1.180 -0.0618 -0.3918  0.8322
    1SOL    MW4 2804   3.885   3.598   1.224 -0.4125 -0.5317  0.7701
    1SOL     OW 2805   3.850   3.837   1.090  0.5202 -0.2069 -0.2178
    1SOL    HW2 2806   3.766   3.868   1.124  1.1912  0.1877  1.1331
    1SOL    HW3 2807   3.844   3.849   0.996 -0.7442  0.2857 -0.0869
    1SOL    MW4 2808   3.838   3.842   1.082  0.4418 -0.0899 -0.0224
    1SOL     OW 2809   3.617   3.959   1.202 -0.1193  0.1585 -0.4274
    1SOL    HW2 2810   3.609   3.972   1.296 -0.5730  0.7888 -0.5473
    1SOL    HW3 2811   3.541   3.905   1.179  0.2897 -0.4531 -0.3488
    1SOL    MW4 2812   3.606   3.954   1.211 -0.1254  0.1609 -0.4328
    1SOL     OW 2813   3.608   4.221   1.142  0.0146  0.1086  0.0643
    1SOL    HW2 2814   3.599   4.129   1.166 -0.9839  0.1385 -0.1723
    1SOL    HW3 2815   3.583   4.224   1.049 -0.8763  0.7512  0.3104
    1SOL    MW4 2816   3.603   4.210   1.133 -0.2344  0.1969  0.0656
    1SOL     OW 2817   3.852   4.336   1.183 -0.2289  0.1175  0.0014
    1SOL    HW2 2818   3.849   4.355   1.277 -0.2691  1.3248 -0.2349
    1SOL    HW3 2819   3.770   4.292   1.164 -0.5387  0.5283  0.3913
    1SOL    MW4 2820   3.841   4.333   1.193 -0.2749  0.3309  0.0216
    1SOL     OW 2821   4.249   0.007   1.098  0.4423  0.8663 -0.4632
    1SOL    HW2 2822   4.256  -0.072   1.151  2.2009  2.2688  1.4837
    1SOL    HW3 2823   4.168   0.048   1.127  1.1338  1.3600  0.8026
    1SOL    MW4 2824   4.239   0.002   1.109  0.7658  1.1168 -0.0392
    1SOL     OW 2825   4.012   0.125   1.181 -0.1186 -0.3279  0.0219
    1SOL    HW2 2826   4.013   0.117   1.276 -0.6870  1.9177  0.2314
    1SOL    HW3 2827   3.942   0.066   1.152 -1.5823  0.8114  1.1945
    1SOL    MW4 2828   4.003   0.116   1.189 -0.3867  0.1187  0.2042
    1SOL     OW 2829   4.054   0.383   1.105  0.4696 -0.2375 -0.1888
    1SOL    HW2 2830   4.041   0.292   1.135 -1.5299  0.6113  1.7404
    1SOL    HW3 2831   4.065   0.376   1.011  1.3536 -2.5811  0.0460
    1SOL    MW4 2832   4.053   0.370   1.097  0.3228 -0.4347  0.0967
    1SOL     OW 2833   4.298   0.513   1.192 -0.1521  0.0734 -0.1970
    1SOL    HW2 2834   4.314   0.495   1.284  1.8585 -0.3637 -0.6210
    1SOL    HW3 2835   4.211   0.475   1.175 -0.5464  0.1965  1.4984
    1SOL    MW4 2836   4.289   0.505   1.202  0.0610  0.0321 -0.0293
    1SOL     OW 2837   4.240   0.774   1.115  0.0199  0.4806  0.0839
    1SOL    HW2 2838   4.257   0.686   1.147  0.0264 -0.0816 -1.3925
    1SOL    HW3 2839   4.306   0.828   1.158  0.9717 -0.4921 -0.1333
    1SOL    MW4 2840   4.251   0.770   1.125  0.1464  0.2780 -0.1396
    1SOL     OW 2841   4.035   0.924   1.207 -0.5504  0.8499  0.0722
    1SOL    HW2 2842   4.031   0.914   1.302  0.9015  0.0483  0.0686
    1SOL    HW3 2843   4.111   0.872   1.181 -0.5946  1.5339 -1.4653
    1SOL    MW4 2844   4.045   0.916   1.216 -0.3643  0.8344 -0.1311
    1SOL     OW 2845   4.061   1.187   1.100 -0.1246 -0.5133 -0.1390
    1SOL    HW2 2846   4.047   1.098   1.131  1.7205 -0.5062  0.7780
    1SOL    HW3 2847   3.995   1.239   1.146  0.0313 -1.1170  0.7810
    1SOL    MW4 2848   4.050   1.182   1.110  0.1402 -0.5920  0.1034
    1SOL     OW 2849   4.277   1.299   1.209  0.4445  0.8044  0.1238
    1SOL    HW2 2850   4.266   1.285   1.303 -0.4597  2.0988  0.2139
    1SOL    HW3 2851   4.207   1.248   1.169 -0.1495  1.5380  0.2303
    1SOL    MW4 2852   4.267   1.290   1.216  0.2465  1.0719  0.1497
    1SOL     OW 2853   4.265   1.572   1.143  0.4407  0.2901 -0.6553
    1SOL    HW2 2854   4.258   1.480   1.168 -1.4642  0.5891 -0.0333
    1SOL    HW3 2855   4.344   1.603   1.188  0.6405 -0.8155 -0.2219
    1SOL    MW4 2856   4.275   1.564   1.152  0.2160  0.1839 -0.5162
    1SOL     OW 2857   4.027   1.656   1.236  0.5352 -0.1295  0.3930
    1SOL    HW2 2858   4.029   1.667   1.331  0.1939 -0.9929  0.5074
    1SOL    HW3 2859   4.112   1.619   1.214  0.3412 -0.6332  0.4653
    1SOL    MW4 2860   4.038   1.652   1.246  0.4654 -0.3099  0.4176
    1SOL     OW 2861   3.043   1.654   0.374  0.4692  0.0856 -0.3093
    1SOL    HW2 2862   2.953   1.624   0.385  0.2184  1.3789  1.3102
    1SOL    HW3 2863   3.042   1.745   0.405  1.7495  0.9775 -2.7225
    1SOL    MW4 2864   3.031   1.662   0.379  0.6051  0.3740 -0.4140
    1SOL     OW 2865   4.221   2.027   1.258 -0.1059 -0.0321 -0.2251
    1SOL    HW2 2866   4.229   2.118   1.227  1.2110 -0.5406 -1.4833
    1SOL    HW3 2867   4.145   1.992   1.211 -0.0099  0.1347 -0.5078
    1SOL    MW4 2868   4.212   2.035   1.248  0.0806 -0.0772 -0.4283
    1SOL     OW 2869   4.261   2.296   1.190 -0.1193  0.1497  0.1077
    1SOL    HW2 2870   4.195   2.351   1.232 -0.9652 -1.2481  0.6584
    1SOL    HW3 2871   4.247   2.308   1.097 -0.4982  0.6317  0.2252
    1SOL    MW4 2872   4.250   2.305   1.184 -0.2813  0.0284  0.1957
    1SOL     OW 2873   3.988   2.438   1.267 -0.3095  0.5522  0.0964
    1SOL    HW2 2874   4.012   2.443   1.359  1.6347  0.2380 -0.3878
    1SOL    HW3 2875   4.001   2.526   1.233 -0.1220  0.4478 -0.1059
    1SOL    MW4 2876   3.993   2.450   1.274 -0.0284  0.4971  0.0058
    1SOL     OW 2877   4.052   2.682   1.147  0.0911  0.4200 -0.5266
    1SOL    HW2 2878   3.974   2.730   1.177  0.2326  0.4543 -0.2120
    1SOL    HW3 2879   4.048   2.687   1.052 -0.5160  0.0671 -0.5259
    1SOL    MW4 2880   4.041   2.689   1.139  0.0296  0.3779 -0.4849
    1SOL     OW 2881   4.237   2.834   1.292  0.1576 -0.1063  0.4456
    1SOL    HW2 2882   4.214   2.920   1.257  0.3107  0.3024  1.3308
    1SOL    HW3 2883   4.176   2.774   1.249  1.1196  0.2085 -1.4190
    1SOL    MW4 2884   4.226   2.838   1.282  0.3047 -0.0107  0.3165
    1SOL     OW 2885   4.270   3.077   1.133 -0.0597 -0.0566  0.5144
    1SOL    HW2 2886   4.180   3.106   1.151 -0.2621 -0.8773  0.8880
    1SOL    HW3 2887   4.282   3.090   1.039 -1.1507 -1.4660  0.1542
    1SOL    MW4 2888   4.260   3.082   1.123 -0.2308 -0.3510  0.5161
    1SOL     OW 2889   4.027   3.177   1.201  0.0378  0.4815  0.0754
    1SOL    HW2 2890   4.040   3.162   1.294 -1.2277 -2.3458 -0.1400
    1SOL    HW3 2891   3.935   3.152   1.186  0.8485 -1.2593 -2.2916
    1SOL    MW4 2892   4.016   3.172   1.211 -0.0224 -0.1209 -0.2652
    1SOL     OW 2893   4.055   3.430   1.080 -0.1309  0.4424 -0.4821
    1SOL    HW2 2894   4.049   3.342   1.118 -0.1204 -0.0107 -1.5081
    1SOL    HW3 2895   3.989   3.481   1.127 -0.9225 -0.4062 -0.6577
    1SOL    MW4 2896   4.045   3.425   1.091 -0.2337  0.2706 -0.6406
    1SOL     OW 2897   4.259   3.591   1.204 -0.3697 -0.4390  0.4382
    1SOL    HW2 2898   4.192   3.529   1.174 -1.4606  1.5178 -1.2600
    1SOL    HW3 2899   4.342   3.547   1.184 -1.1168 -0.9222 -1.8486
    1SOL    MW4 2900   4.261   3.577   1.197 -0.6123 -0.2444 -0.0875
    1SOL     OW 2901   4.310   3.848   1.103  0.2588  0.1398  0.3666
    1SOL    HW2 2902   4.233   3.899   1.129  0.1476 -0.1820  0.6746
    1SOL    HW3 2903   4.302   3.766   1.152  0.5267 -0.1048  0.0037
    1SOL    MW4 2904   4.299   3.844   1.113  0.2804  0.0651  0.3594
    1SOL     OW 2905   4.088   3.983   1.191  0.1894  0.5902 -0.1309
    1SOL    HW2 2906   4.100   4.072   1.157  0.5155  0.1210 -1.2656
    1SOL    HW3 2907   3.995   3.965   1.178  0.1439  0.7233  0.0037
    1SOL    MW4 2908   4.078   3.993   1.185  0.2265  0.5457 -0.2629
    1SOL     OW 2909   4.091   4.260   1.084  0.0502  0.0437 -0.4194
    1SOL    HW2 2910   4.000   4.286   1.094  0.4148  1.0390  0.3088
    1SOL    HW3 2911   4.102   4.246   0.989 -0.2923  1.9654 -0.7548
    1SOL    MW4 2912   4.081   4.261   1.073  0.0534  0.4287 -0.3676
    1SOL     OW 2913   4.282   4.426   1.208  0.2369  0.1198  0.7904
    1SOL    HW2 2914   4.201   4.379   1.187 -0.1731  1.3233 -0.3396
    1SOL    HW3 2915   4.352   4.365   1.183 -0.2956 -0.5659  0.9421
    1SOL    MW4 2916   4.280   4.412   1.202  0.1130  0.1888  0.6613
    1SOL     OW 2917   0.208   4.659   1.618 -0.2151 -0.0642 -0.0367
    1SOL    HW2 2918   0.281   4.703   1.576  0.4805 -1.1447  0.0394
    1SOL    HW3 2919   0.130   4.703   1.583  0.4619  1.0809 -0.1166
    1SOL    MW4 2920   0.207   4.671   1.608 -0.0340 -0.0553 -0.0372
    1SOL     OW 2921   4.487   0.077   1.491 -0.6847 -0.3333 -0.6916
    1SOL    HW2 2922   4.401   0.044   1.517 -1.0333  0.3100 -1.0047
    1SOL    HW3 2923   4.482   0.084   1.396 -1.0474  1.7622 -0.5467
    1SOL    MW4 2924   4.475   0.074   1.482 -0.7787  0.0280 -0.7137
    1SOL     OW 2925   0.026   0.354   1.614 -0.0060  0.1786 -0.0427
    1SOL    HW2 2926   0.001   0.360   1.706  0.0322 -1.4292  0.0773
    1SOL    HW3 2927   0.024   0.261   1.593 -0.7961  0.5745 -1.9009
    1SOL    MW4 2928   0.022   0.343   1.623 -0.1051  0.0187 -0.2722
    1SOL     OW 2929   0.205   0.534   1.495 -0.6106 -0.1057 -0.1728
    1SOL    HW2 2930   0.138   0.477   1.533 -0.8819 -0.7133 -1.5159
    1SOL    HW3 2931   0.205   0.511   1.402  0.7283  0.6403 -0.3637
    1SOL    MW4 2932   0.196   0.523   1.487 -0.4698 -0.0875 -0.3750
    1SOL     OW 2933   0.212   0.775   1.616 -0.0097 -0.7183  0.4507
    1SOL    HW2 2934   0.197   0.692   1.572 -1.1760 -0.3320  0.1173
    1SOL    HW3 2935   0.288   0.813   1.570  1.5726 -2.3184  1.6634
    1SOL    MW4 2936   0.220   0.769   1.604  0.0452 -0.8785  0.5667
    1SOL     OW 2937   0.011   0.917   1.479  0.1139 -0.1977 -0.3724
    1SOL    HW2 2938  -0.001   0.997   1.530 -0.7910 -0.7882  0.3497
    1SOL    HW3 2939   0.077   0.868   1.528 -0.4693 -0.5893  0.0251
    1SOL    MW4 2940   0.018   0.921   1.492 -0.0820 -0.3272 -0.2246
    1SOL     OW 2941   4.466   1.155   1.606 -0.3155 -0.1182  0.3613
    1SOL    HW2 2942   4.471   1.168   1.700  1.9260 -0.1397  0.2867
    1SOL    HW3 2943   4.552   1.182   1.574 -0.6172 -1.2899 -1.5209
    1SOL    MW4 2944   4.478   1.160   1.614 -0.0591 -0.2756  0.1031
    1SOL     OW 2945   0.199   1.259   1.501 -0.6080 -0.5870 -0.2646
    1SOL    HW2 2946   0.277   1.210   1.528  0.9163  0.8697 -1.9178
    1SOL    HW3 2947   0.202   1.339   1.553 -0.6978 -0.2906 -0.7096
    1SOL    MW4 2948   0.209   1.263   1.511 -0.4187 -0.3557 -0.5414
    1SOL     OW 2949   0.208   1.501   1.605  0.3779  0.4198  0.5937
    1SOL    HW2 2950   0.203   1.513   1.700  0.5755  0.8286  0.5512
    1SOL    HW3 2951   0.132   1.548   1.571  1.5254  2.1224  0.3746
    1SOL    MW4 2952   0.197   1.509   1.613  0.5554  0.6982  0.5592
    1SOL     OW 2953   4.479   1.674   1.533  0.4725  0.2551 -0.1710
    1SOL    HW2 2954   4.493   1.760   1.572  1.1236 -0.2809  0.7976
    1SOL    HW3 2955   4.483   1.690   1.439  1.0608  1.2055  0.0045
    1SOL    MW4 2956   4.482   1.687   1.526  0.6366  0.3098 -0.0200
    1SOL     OW 2957   0.014   1.951   1.619  0.1729  0.1026 -0.0536
    1SOL    HW2 2958   0.030   1.939   1.712  0.2747 -1.2268 -0.2317
    1SOL    HW3 2959  -0.080   1.972   1.613 -0.1258 -1.1619  0.2299
    1SOL    MW4 2960   0.003   1.952   1.630  0.1469 -0.2395 -0.0396
    1SOL     OW 2961   0.229   2.075   1.473  0.0802 -0.0076 -0.5031
    1SOL    HW2 2962   0.151   2.035   1.512 -0.1036 -0.4130 -1.2819
    1SOL    HW3 2963   0.231   2.042   1.383  0.2171  1.3433 -1.0093
    1SOL    MW4 2964   0.219   2.065   1.466  0.0740  0.1171 -0.6725
    1SOL     OW 2965   0.190   2.322   1.580  0.0767 -0.3482 -0.2280
    1SOL    HW2 2966   0.192   2.306   1.675  0.8906 -0.0480 -0.1885
    1SOL    HW3 2967   0.194   2.234   1.541 -0.8305 -0.4990  0.0174
    1SOL    MW4 2968   0.191   2.308   1.588  0.0644 -0.3283 -0.1903
    1SOL     OW 2969   4.442   2.442   1.536  0.1168 -0.1433  0.3021
    1SOL    HW2 2970   4.373   2.390   1.577  0.5892  0.1760  1.5013
    1SOL    HW3 2971   4.523   2.411   1.576  0.4180  1.4481  0.9547
    1SOL    MW4 2972   4.444   2.431   1.547  0.2189  0.1090  0.5463
    1SOL     OW 2973   0.028   2.700   1.627  0.1435  0.5169 -0.3076
    1SOL    HW2 2974  -0.054   2.746   1.611 -0.5286 -0.5597 -0.0091
    1SOL    HW3 2975   0.014   2.613   1.591  1.1191  0.2964 -0.1538
    1SOL    MW4 2976   0.015   2.695   1.620  0.1835  0.3459 -0.2480
    1SOL     OW 2977   0.213   2.868   1.505  0.0930 -0.3342 -0.3289
    1SOL    HW2 2978   0.303   2.841   1.524  0.1420 -1.1056 -1.6084
    1SOL    HW3 2979   0.158   2.808   1.556  0.3024  0.9032  1.4091
    1SOL    MW4 2980   0.218   2.857   1.514  0.1271 -0.2730 -0.2686
    1SOL     OW 2981   0.237   3.120   1.604 -0.1767 -0.0659 -0.1329
    1SOL    HW2 2982   0.154   3.161   1.578  0.2829  0.6278 -0.5524
    1SOL    HW3 2983   0.227   3.029   1.578 -0.2489  0.3306 -1.5577
    1SOL    MW4 2984   0.224   3.113   1.597 -0.1256  0.0777 -0.3762
    1SOL     OW 2985   4.475   3.207   1.527  0.0024  0.3618  0.1084
    1SOL    HW2 2986   4.497   3.299   1.538 -0.1844  0.5326 -0.9128
    1SOL    HW3 2987   4.485   3.191   1.433 -0.3642 -0.5510  0.2204
    1SOL    MW4 2988   4.479   3.217   1.516 -0.0706  0.2639 -0.0114
    1SOL     OW 2989   0.047   3.466   1.587 -0.0373  0.7472  0.6976
    1SOL    HW2 2990   0.029   3.474   1.680 -1.9274 -0.6735  0.4902
    1SOL    HW3 2991  -0.027   3.511   1.545  0.1960  0.3733 -0.1195
    1SOL    MW4 2992   0.035   3.473   1.593 -0.2559  0.5105  0.5624
    1SOL     OW 2993   0.261   3.604   1.490 -0.4130  0.2874  0.2791
    1SOL    HW2 2994   0.255   3.689   1.534 -0.6804 -0.2956  1.3780
    1SOL    HW3 2995   0.196   3.550   1.534 -1.7206  0.1076 -1.8055
    1SOL    MW4 2996   0.252   3.608   1.502 -0.6208  0.1869  0.1490
    1SOL     OW 2997   0.221   3.860   1.580  0.2371  0.3694  0.0369
    1SOL    HW2 2998   0.232   3.883   1.672 -1.0737  1.5340 -0.0745
    1SOL    HW3 2999   0.298   3.896   1.536  0.4649  0.5155  0.5613
    1SOL    MW4 3000   0.232   3.868   1.586  0.0942  0.5422  0.0913
    1SOL     OW 3001   4.487   3.990   1.485  0.0282 -0.1189 -0.1479
    1SOL    HW2 3002   4.499   4.063   1.546  0.0120  0.1210 -0.4297
    1SOL    HW3 3003   4.563   3.933   1.500  0.4843  0.3911 -0.5349
    1SOL    MW4 3004   4.498   3.992   1.495  0.0862 -0.0200 -0.2362
    1SOL     OW 3005   0.030   4.223   1.620  0.3459 -0.2670 -0.0676
    1SOL    HW2 3006   0.003   4.234   1.711 -0.0138  0.6383 -0.2752
    1SOL    HW3 3007  -0.024   4.286   1.572  1.8523  0.5948 -0.6640
    1SOL    MW4 3008   0.020   4.233   1.626  0.4973 -0.0339 -0.1736
    1SOL     OW 3009   0.214   4.402   1.506  0.2576  0.0503 -0.1175
    1SOL    HW2 3010   0.170   4.338   1.561 -0.2730  0.3197 -0.2226
    1SOL    HW3 3011   0.198   4.486   1.550 -0.7178  0.3482 -1.0156
    1SOL    MW4 3012   0.206   4.405   1.519  0.0589  0.1254 -0.2497
    1SOL     OW 3013   0.642   4.626   1.542 -0.2375  0.0438 -0.1834
    1SOL    HW2 3014   0.721   4.677   1.528  0.0802 -0.1592  0.7875
    1SOL    HW3 3015   0.570   4.686   1.523  0.1475  0.2548 -0.9848
    1SOL    MW4 3016   0.643   4.640   1.538 -0.1448  0.0458 -0.1611
    1SOL     OW 3017   0.420   0.124   1.490  0.0357  0.4038  0.1018
    1SOL    HW2 3018   0.424   0.216   1.515 -1.6952  1.1923 -2.2184
    1SOL    HW3 3019   0.401   0.126   1.396  1.8366 -2.3390 -0.3799
    1SOL    MW4 3020   0.418   0.136   1.481  0.0449  0.1459 -0.2679
    1SOL     OW 3021   0.420   0.383   1.578 -0.0540 -0.2585 -0.2625
    1SOL    HW2 3022   0.505   0.414   1.547  0.6178 -2.2031 -0.4066
    1SOL    HW3 3023   0.359   0.453   1.553  1.6788  1.8291  1.1161
    1SOL    MW4 3024   0.423   0.397   1.571  0.2633 -0.2396 -0.0997
    1SOL     OW 3025   0.666   0.473   1.500  0.7002 -0.2646  0.2293
    1SOL    HW2 3026   0.669   0.560   1.540 -0.3457 -0.2805  0.3579
    1SOL    HW3 3027   0.652   0.489   1.407 -1.1243 -0.3100  0.4684
    1SOL    MW4 3028   0.665   0.486   1.493  0.3215 -0.2726  0.2779
    1SOL     OW 3029   0.642   0.746   1.601 -0.1470  0.1433  0.1473
    1SOL    HW2 3030   0.649   0.755   1.696 -0.4655 -0.6643  0.2489
    1SOL    HW3 3031   0.707   0.807   1.567 -1.6684  2.2038  0.8254
    1SOL    MW4 3032   0.652   0.755   1.609 -0.3898  0.3087  0.2502
    1SOL     OW 3033   0.435   0.883   1.488 -0.2686  0.3457  0.0861
    1SOL    HW2 3034   0.427   0.957   1.548  2.5260  0.4813  0.3638
    1SOL    HW3 3035   0.503   0.827   1.527 -2.1711 -2.2793 -0.2206
    1SOL    MW4 3036   0.443   0.885   1.501 -0.1509  0.0172  0.0823
    1SOL     OW 3037   0.416   1.127   1.610 -0.2256  0.2569 -0.1586
    1SOL    HW2 3038   0.490   1.169   1.567 -0.7360 -0.0835 -1.4011
    1SOL    HW3 3039   0.429   1.144   1.703  0.0937  2.2822 -0.5647
    1SOL    MW4 3040   0.427   1.135   1.616 -0.2508  0.4790 -0.3761
    1SOL     OW 3041   0.622   1.256   1.482  0.1201  0.0243 -0.2688
    1SOL    HW2 3042   0.609   1.345   1.514 -0.6497 -0.4196  0.6956
    1SOL    HW3 3043   0.611   1.262   1.387 -1.3975  0.6950 -0.0644
    1SOL    MW4 3044   0.619   1.269   1.474 -0.1816  0.0542 -0.1144
    1SOL     OW 3045   0.593   1.520   1.564  0.4854 -0.1818  0.2186
    1SOL    HW2 3046   0.673   1.565   1.537  0.4786  0.9286  1.9291
    1SOL    HW3 3047   0.522   1.576   1.531  0.4215 -0.7913 -0.6832
    1SOL    MW4 3048   0.594   1.534   1.556  0.4760 -0.1158  0.3252
    1SOL     OW 3049   0.380   1.680   1.479 -0.1043  0.2093 -0.1142
    1SOL    HW2 3050   0.388   1.759   1.532  2.2568 -1.1077  1.5530
    1SOL    HW3 3051   0.311   1.629   1.521  0.1922  0.1959  0.3574
    1SOL    MW4 3052   0.372   1.684   1.491  0.2463  0.0337  0.1678
    1SOL     OW 3053   0.425   1.915   1.588 -0.3087  0.2308 -0.5392
    1SOL    HW2 3054   0.449   1.944   1.676 -0.4875  2.2787 -1.1378
    1SOL    HW3 3055   0.365   1.982   1.556  0.2684 -0.1265 -2.4716
    1SOL    MW4 3056   0.420   1.927   1.595 -0.2561  0.4538 -0.8731
    1SOL     OW 3057   0.647   2.049   1.474 -0.0679  0.6148  0.2804
    1SOL    HW2 3058   0.725   2.010   1.513  0.6387  1.9382  0.2279
    1SOL    HW3 3059   0.574   1.999   1.511  0.8153 -0.9879 -0.0797
    1SOL    MW4 3060   0.648   2.037   1.484  0.1419  0.5782  0.2259
    1SOL     OW 3061   0.642   2.308   1.585 -0.0795 -0.1218  0.2260
    1SOL    HW2 3062   0.560   2.336   1.545 -0.6251 -0.7666  0.8691
    1SOL    HW3 3063   0.645   2.214   1.569  0.3305 -0.1673  0.5723
    1SOL    MW4 3064   0.632   2.299   1.578 -0.0973 -0.2127  0.3564
    1SOL     OW 3065   0.441   2.468   1.470  0.1965  0.8454 -0.4472
    1SOL    HW2 3066   0.453   2.555   1.508 -0.8711  0.6333  0.3973
    1SOL    HW3 3067   0.350   2.446   1.489  0.3971 -0.3613 -0.8585
    1SOL    MW4 3068   0.430   2.477   1.478  0.0821  0.6580 -0.3899
    1SOL     OW 3069   0.465   2.736   1.574  0.0113 -0.2148  0.4012
    1SOL    HW2 3070   0.467   2.748   1.669 -1.5221  3.5009  0.0610
    1SOL    HW3 3071   0.536   2.791   1.541 -0.1381 -0.6369 -0.6575
    1SOL    MW4 3072   0.475   2.745   1.582 -0.2108  0.2196  0.2166
    1SOL     OW 3073   0.676   2.893   1.490  0.2656  0.5382  0.1227
    1SOL    HW2 3074   0.683   2.977   1.534 -0.0594 -0.6391  2.5367
    1SOL    HW3 3075   0.752   2.844   1.521  0.0779 -0.2841 -0.7010
    1SOL    MW4 3076   0.687   2.897   1.500  0.1980  0.2742  0.3325
    1SOL     OW 3077   0.684   3.133   1.623  0.1547 -0.2949 -0.4909
    1SOL    HW2 3078   0.753   3.183   1.579 -0.5522  1.1008 -0.0438
    1SOL    HW3 3079   0.604   3.155   1.575 -0.4859  0.5769  0.9620
    1SOL    MW4 3080   0.683   3.142   1.611 -0.0231  0.0043 -0.2402
    1SOL     OW 3081   0.465   3.221   1.483 -0.3893 -0.4516  0.4474
    1SOL    HW2 3082   0.388   3.177   1.518 -0.1115 -1.4744 -0.1952
    1SOL    HW3 3083   0.457   3.211   1.388 -0.1868  0.6665  0.2980
    1SOL    MW4 3084   0.454   3.214   1.475 -0.3259 -0.4392  0.3428
    1SOL     OW 3085   0.478   3.472   1.609 -0.2508  0.4247  0.1829
    1SOL    HW2 3086   0.475   3.383   1.573 -2.5476  0.4586  0.2470
    1SOL    HW3 3087   0.412   3.520   1.561  1.3685  2.2738 -0.2255
    1SOL    MW4 3088   0.469   3.466   1.598 -0.3401  0.6731  0.1374
    1SOL     OW 3089   0.671   3.622   1.498  0.5252  0.1958 -0.1628
    1SOL    HW2 3090   0.747   3.589   1.546 -0.4029 -1.2266  0.3503
    1SOL    HW3 3091   0.596   3.575   1.535 -0.4231  0.3862 -1.7901
    1SOL    MW4 3092   0.671   3.612   1.509  0.2776  0.0331 -0.3098
    1SOL     OW 3093   0.663   3.888   1.575 -0.2870 -0.3019 -0.4457
    1SOL    HW2 3094   0.739   3.937   1.544 -1.4349  1.0675 -1.1779
    1SOL    HW3 3095   0.673   3.801   1.538  1.1377 -0.2631 -0.1791
    1SOL    MW4 3096   0.674   3.883   1.566 -0.2504 -0.1159 -0.5072
    1SOL     OW 3097   0.432   3.992   1.477  0.6829 -0.2837 -0.4026
    1SOL    HW2 3098   0.511   3.949   1.509  1.0457 -0.3738 -1.4112
    1SOL    HW3 3099   0.438   3.987   1.382  0.2783  1.1843 -0.5220
    1SOL    MW4 3100   0.443   3.986   1.469  0.6774 -0.1018 -0.5516
    1SOL     OW 3101   0.416   4.241   1.609  0.1258  0.4867  0.0620
    1SOL    HW2 3102   0.404   4.152   1.576  0.2523  0.2957  0.5287
    1SOL    HW3 3103   0.352   4.293   1.560 -1.8436 -0.3194  1.6690
    1SOL    MW4 3104   0.406   4.236   1.598 -0.1174  0.3548  0.3356
    1SOL     OW 3105   0.627   4.357   1.474  0.1195 -0.0056  0.0486
    1SOL    HW2 3106   0.562   4.318   1.532  1.0750 -0.5718  0.7502
    1SOL    HW3 3107   0.629   4.450   1.499  0.0386 -0.1096  0.4379
    1SOL    MW4 3108   0.618   4.364   1.485  0.2349 -0.0944  0.1925
    1SOL     OW 3109   1.116   4.617   1.587  0.1127 -0.0876  0.2140
    1SOL    HW2 3110   1.122   4.623   1.682 -0.4037 -0.6048  0.2863
    1SOL    HW3 3111   1.201   4.648   1.555  0.2531  0.1786  0.8360
    1SOL    MW4 3112   1.128   4.622   1.595  0.0631 -0.1211  0.3055
    1SOL     OW 3113   0.875   0.089   1.495  0.0584 -0.7003 -0.1606
    1SOL    HW2 3114   0.889   0.183   1.512  0.0917 -0.5365 -1.0804
    1SOL    HW3 3115   0.957   0.048   1.524  0.4644 -0.3186 -0.7452
    1SOL    MW4 3116   0.888   0.096   1.501  0.1164 -0.6283 -0.3591
    1SOL     OW 3117   0.902   0.349   1.576 -0.3553 -0.2255  0.2408
    1SOL    HW2 3118   0.902   0.356   1.671  0.2490  2.8657  0.0670
    1SOL    HW3 3119   0.823   0.397   1.549  0.3655  0.3393 -0.8808
    1SOL    MW4 3120   0.892   0.356   1.585 -0.1805  0.2568  0.0700
    1SOL     OW 3121   1.113   0.488   1.488  0.0341  0.4680  0.1302
    1SOL    HW2 3122   1.102   0.574   1.528 -0.8878  0.6881 -0.5954
    1SOL    HW3 3123   1.040   0.436   1.521  0.4973 -0.0045  0.4382
    1SOL    MW4 3124   1.102   0.492   1.498 -0.0263  0.4347  0.0750
    1SOL     OW 3125   1.087   0.742   1.594 -0.0019 -0.3858 -0.0990
    1SOL    HW2 3126   1.094   0.745   1.689  0.6875 -0.7467 -0.1379
    1SOL    HW3 3127   1.151   0.807   1.563 -2.6884  2.3294 -0.2319
    1SOL    MW4 3128   1.096   0.751   1.603 -0.2654 -0.0752 -0.1216
    1SOL     OW 3129   0.865   0.885   1.492 -0.1650  0.2040  0.0850
    1SOL    HW2 3130   0.935   0.826   1.520 -1.1436 -0.7239  0.6591
    1SOL    HW3 3131   0.875   0.892   1.397 -1.1398 -2.4042 -0.2566
    1SOL    MW4 3132   0.875   0.878   1.483 -0.4227 -0.2626  0.1156
    1SOL     OW 3133   0.872   1.149   1.586  0.3776  0.0157 -0.2758
    1SOL    HW2 3134   0.855   1.061   1.554 -0.7163  0.2653 -0.4182
    1SOL    HW3 3135   0.793   1.199   1.562  0.9077  0.9840 -0.0482
    1SOL    MW4 3136   0.859   1.144   1.579  0.3032  0.1764 -0.2646
    1SOL     OW 3137   1.086   1.296   1.483 -0.7541  0.1555  0.1068
    1SOL    HW2 3138   1.159   1.255   1.529  0.2119  1.4793 -0.2082
    1SOL    HW3 3139   1.008   1.250   1.515  0.3404 -2.5199 -0.9101
    1SOL    MW4 3140   1.085   1.285   1.493 -0.4821 -0.0230 -0.0690
    1SOL     OW 3141   1.096   1.551   1.583 -0.6212  0.1557  0.0840
    1SOL    HW2 3142   1.175   1.600   1.561 -0.1841  0.4513  2.1630
    1SOL    HW3 3143   1.110   1.464   1.544  0.4163  0.4280 -0.1703
    1SOL    MW4 3144   1.108   1.546   1.575 -0.4267  0.2306  0.3248
    1SOL     OW 3145   0.842   1.645   1.488 -0.2685  0.1268 -0.1083
    1SOL    HW2 3146   0.920   1.613   1.532  0.1136  1.1740 -0.0083
    1SOL    HW3 3147   0.863   1.641   1.395  0.6281  2.2024 -0.0133
    1SOL    MW4 3148   0.855   1.640   1.482 -0.0998  0.5389 -0.0825
    1SOL     OW 3149   0.880   1.907   1.590  0.1708  0.5469 -0.0187
    1SOL    HW2 3150   0.947   1.956   1.540  1.2573 -0.9663 -0.0844
    1SOL    HW3 3151   0.890   1.817   1.561 -1.8160  0.2623  0.1175
    1SOL    MW4 3152   0.891   1.902   1.580  0.0520  0.3097 -0.0093
    1SOL     OW 3153   1.108   2.072   1.493 -0.1419 -0.1942 -0.0118
    1SOL    HW2 3154   1.194   2.034   1.511 -0.1085  0.6231  1.6207
    1SOL    HW3 3155   1.119   2.166   1.509 -0.8116  0.1973 -1.7998
    1SOL    MW4 3156   1.121   2.079   1.498 -0.2258 -0.0350 -0.0323
    1SOL     OW 3157   1.126   2.331   1.540  0.2533  0.1309 -0.1044
    1SOL    HW2 3158   1.196   2.394   1.518  0.9812 -0.7490 -0.3405
    1SOL    HW3 3159   1.047   2.384   1.543  1.2845  1.6355  2.7312
    1SOL    MW4 3160   1.125   2.346   1.537  0.4854  0.2131  0.2384
    1SOL     OW 3161   0.869   2.454   1.491 -0.2837 -0.0156  0.1106
    1SOL    HW2 3162   0.865   2.465   1.396 -0.8545  1.2450  0.2663
    1SOL    HW3 3163   0.801   2.390   1.511 -1.3845  1.0550 -0.1512
    1SOL    MW4 3164   0.860   2.447   1.481 -0.5042  0.2916  0.0967
    1SOL     OW 3165   0.884   2.729   1.570  0.1754 -0.3055 -0.2387
    1SOL    HW2 3166   0.917   2.722   1.660 -0.8973  1.5886  0.3257
    1SOL    HW3 3167   0.862   2.639   1.547  1.5455 -0.9804  0.9726
    1SOL    MW4 3168   0.885   2.716   1.579  0.2146 -0.1445 -0.0045
    1SOL     OW 3169   1.127   2.831   1.468 -0.4720  0.3736 -0.3946
    1SOL    HW2 3170   1.132   2.925   1.486 -1.4512  0.0843  1.5440
    1SOL    HW3 3171   1.042   2.804   1.503  0.6852 -1.6120  1.0342
    1SOL    MW4 3172   1.116   2.840   1.475 -0.4485  0.0734  0.0497
    1SOL     OW 3173   1.109   3.091   1.591  0.6720  0.7633 -0.3192
    1SOL    HW2 3174   1.104   3.082   1.686  2.1411 -0.5917 -0.3576
    1SOL    HW3 3175   1.187   3.144   1.575 -0.2546  2.0278 -0.7296
    1SOL    MW4 3176   1.118   3.097   1.601  0.7436  0.7515 -0.3783
    1SOL     OW 3177   0.887   3.240   1.484 -0.6348  0.1585 -0.3214
    1SOL    HW2 3178   0.943   3.169   1.515 -0.2860  0.4603 -0.2593
    1SOL    HW3 3179   0.900   3.241   1.389 -0.4063  0.3400 -0.2875
    1SOL    MW4 3180   0.896   3.231   1.476 -0.5586  0.2222 -0.3089
    1SOL     OW 3181   0.884   3.499   1.619 -0.0032  0.0581 -0.0473
    1SOL    HW2 3182   0.975   3.530   1.608  0.5557 -1.2990  0.6649
    1SOL    HW3 3183   0.880   3.418   1.569 -0.7181 -0.1001  0.2650
    1SOL    MW4 3184   0.896   3.493   1.611 -0.0237 -0.1421  0.0879
    1SOL     OW 3185   1.132   3.604   1.574  0.0813 -0.1029  0.4105
    1SOL    HW2 3186   1.211   3.553   1.594 -0.3473 -1.0154 -0.2063
    1SOL    HW3 3187   1.130   3.608   1.478 -0.3710  0.3279  0.4340
    1SOL    MW4 3188   1.142   3.598   1.564 -0.0349 -0.1664  0.3324
    1SOL     OW 3189   1.130   3.894   1.627  0.0390  0.2605 -0.2465
    1SOL    HW2 3190   1.209   3.925   1.583 -0.1170 -0.8222 -1.3280
    1SOL    HW3 3191   1.135   3.799   1.621  0.8767 -0.0304  3.6348
    1SOL    MW4 3192   1.141   3.886   1.620  0.1290  0.0792  0.1230
    1SOL     OW 3193   0.890   4.001   1.495  0.2069  0.4109 -0.0198
    1SOL    HW2 3194   0.882   4.087   1.536 -0.8363  0.1300  0.3653
    1SOL    HW3 3195   0.965   3.961   1.539  0.5068  0.9984  0.0153
    1SOL    MW4 3196   0.899   4.007   1.506  0.1087  0.4516  0.0358
    1SOL     OW 3197   0.850   4.241   1.608  0.0236 -0.0989 -0.2454
    1SOL    HW2 3198   0.833   4.259   1.700 -0.0848 -0.7795 -0.1298
    1SOL    HW3 3199   0.779   4.284   1.561 -0.2480 -0.2484  0.0294
    1SOL    MW4 3200   0.838   4.249   1.614 -0.0265 -0.2084 -0.1938
    1SOL     OW 3201   1.110   4.363   1.509 -0.0070  0.1727 -0.3608
    1SOL    HW2 3202   1.029   4.327   1.545 -1.0183  1.6269 -1.1216
    1SOL    HW3 3203   1.110   4.454   1.537 -0.4181  1.1310 -3.3280
    1SOL    MW4 3204   1.100   4.370   1.517 -0.1948  0.4911 -0.8527
    1SOL     OW 3205   1.573   4.663   1.588 -0.1904  0.3622 -0.5523
    1SOL    HW2 3206   1.563   4.673   1.683 -1.1190 -1.4622 -0.4268
    1SOL    HW3 3207   1.492   4.699   1.551  0.1291  0.9835 -0.6578
    1SOL    MW4 3208   1.561   4.669   1.596 -0.2708  0.2031 -0.5498
    1SOL     OW 3209   1.335   0.088   1.483  0.0370  0.7087 -0.1461
    1SOL    HW2 3210   1.320   0.178   1.512 -1.1603  0.5602 -0.2530
    1SOL    HW3 3211   1.336   0.093   1.387  0.4634  0.6792 -0.1441
    1SOL    MW4 3212   1.333   0.100   1.474 -0.0646  0.6852 -0.1600
    1SOL     OW 3213   1.354   0.373   1.552  0.0432 -0.0884  0.0086
    1SOL    HW2 3214   1.422   0.409   1.496 -0.3645 -0.2034 -0.5701
    1SOL    HW3 3215   1.274   0.417   1.524  0.0378  0.8752  1.4320
    1SOL    MW4 3216   1.352   0.384   1.541 -0.0112  0.0236  0.1202
    1SOL     OW 3217   1.559   0.516   1.439 -0.9511 -0.2702 -0.2761
    1SOL    HW2 3218   1.626   0.468   1.487 -0.9420  0.6062  0.6013
    1SOL    HW3 3219   1.588   0.513   1.348 -0.4195 -1.0348 -0.0861
    1SOL    MW4 3220   1.572   0.509   1.434 -0.8799 -0.2555 -0.1353
    1SOL     OW 3221   1.546   0.789   1.547  0.2076  0.0736 -0.1387
    1SOL    HW2 3222   1.539   0.787   1.643  1.3170  0.6722 -0.0298
    1SOL    HW3 3223   1.537   0.697   1.521 -0.5359 -0.0461  0.5012
    1SOL    MW4 3224   1.544   0.776   1.557  0.2559  0.1369 -0.0399
    1SOL     OW 3225   1.290   0.894   1.474 -0.1352  0.0984  0.1264
    1SOL    HW2 3226   1.364   0.835   1.487 -1.1533 -1.3067 -0.3271
    1SOL    HW3 3227   1.284   0.904   1.379 -0.3648  0.4101  0.1732
    1SOL    MW4 3228   1.299   0.888   1.463 -0.2998 -0.0459  0.0728
    1SOL     OW 3229   1.331   1.178   1.569  0.1262 -0.0111  0.1452
    1SOL    HW2 3230   1.336   1.177   1.664 -0.9018  0.4872  0.2159
    1SOL    HW3 3231   1.317   1.087   1.544 -2.2064  0.1672  0.6527
    1SOL    MW4 3232   1.329   1.166   1.578 -0.3172  0.0781  0.2215
    1SOL     OW 3233   1.554   1.271   1.464  0.1958  0.1175  0.3927
    1SOL    HW2 3234   1.476   1.230   1.503 -0.1685 -1.0120 -1.4851
    1SOL    HW3 3235   1.626   1.215   1.492  0.1279  0.1726  0.6843
    1SOL    MW4 3236   1.553   1.258   1.473  0.1388 -0.0243  0.1833
    1SOL     OW 3237   1.560   1.538   1.547 -0.0533  0.0600  0.3476
    1SOL    HW2 3238   1.544   1.538   1.642  0.7542  2.2875  0.4986
    1SOL    HW3 3239   1.551   1.446   1.522 -1.1775 -0.4354  2.4301
    1SOL    MW4 3240   1.556   1.526   1.556 -0.0952  0.2885  0.6423
    1SOL     OW 3241   1.325   1.667   1.484 -0.5933  0.6481  0.2916
    1SOL    HW2 3242   1.412   1.630   1.496 -0.7782  0.5408  1.2886
    1SOL    HW3 3243   1.309   1.659   1.390  0.1156 -0.1214  0.2335
    1SOL    MW4 3244   1.334   1.661   1.473 -0.5240  0.5325  0.4154
    1SOL     OW 3245   1.341   1.935   1.559 -0.5101 -0.5484  0.1802
    1SOL    HW2 3246   1.326   1.921   1.653  1.4901 -0.3503  0.5474
    1SOL    HW3 3247   1.354   1.847   1.523 -3.1440 -0.7825 -0.2705
    1SOL    MW4 3248   1.341   1.922   1.567 -0.5938 -0.5534  0.1690
    1SOL     OW 3249   1.573   2.081   1.474  0.0761  0.0410  0.6330
    1SOL    HW2 3250   1.498   2.032   1.508  0.9263 -1.6219  0.1695
    1SOL    HW3 3251   1.569   2.070   1.380  0.5126  0.5307  0.5530
    1SOL    MW4 3252   1.563   2.073   1.466  0.2458 -0.1140  0.5614
    1SOL     OW 3253   1.573   2.338   1.551 -0.4522 -0.0819  0.0207
    1SOL    HW2 3254   1.659   2.372   1.528 -0.9416  0.9277 -0.3369
    1SOL    HW3 3255   1.570   2.250   1.513 -0.6136  0.9040 -2.3105
    1SOL    MW4 3256   1.584   2.331   1.543 -0.5379  0.1817 -0.3340
    1SOL     OW 3257   1.352   2.461   1.450 -0.1525  0.2194  0.2747
    1SOL    HW2 3258   1.358   2.549   1.486  0.8315  0.3273 -0.1226
    1SOL    HW3 3259   1.428   2.415   1.486 -1.0709 -0.6931  1.0809
    1SOL    MW4 3260   1.363   2.466   1.459 -0.1438  0.1132  0.3285
    1SOL     OW 3261   1.341   2.717   1.579 -0.1926 -0.0615  0.2862
    1SOL    HW2 3262   1.415   2.763   1.540 -0.1789  0.2122  0.6263
    1SOL    HW3 3263   1.263   2.764   1.548 -0.2868 -1.1177 -1.0736
    1SOL    MW4 3264   1.340   2.729   1.570 -0.2033 -0.1645  0.1515
    1SOL     OW 3265   1.574   2.828   1.463 -0.4008 -0.1117  0.5347
    1SOL    HW2 3266   1.649   2.787   1.508 -0.0008 -0.2432 -0.2486
    1SOL    HW3 3267   1.580   2.797   1.373 -0.6874  0.8618  0.1736
    1SOL    MW4 3268   1.585   2.819   1.457 -0.3859 -0.0005  0.3837
    1SOL     OW 3269   1.585   3.083   1.594 -0.2083  0.1739 -0.0707
    1SOL    HW2 3270   1.655   3.130   1.550  0.6564 -0.0603  1.0284
    1SOL    HW3 3271   1.585   2.996   1.553 -0.5164  0.5016 -0.7592
    1SOL    MW4 3272   1.594   3.078   1.583 -0.1349  0.1864 -0.0165
    1SOL     OW 3273   1.341   3.214   1.516 -0.0062  0.1260 -0.3665
    1SOL    HW2 3274   1.350   3.300   1.556 -0.1486  0.1008 -0.2804
    1SOL    HW3 3275   1.418   3.165   1.548 -0.9475 -0.3983  1.1529
    1SOL    MW4 3276   1.353   3.219   1.526 -0.1493  0.0536 -0.1547
    1SOL     OW 3277   1.363   3.447   1.628 -0.0588 -0.2198 -0.4842
    1SOL    HW2 3278   1.379   3.440   1.722  0.1619 -1.3070 -0.5949
    1SOL    HW3 3279   1.436   3.500   1.595 -0.0250 -0.0107 -0.0802
    1SOL    MW4 3280   1.374   3.453   1.636 -0.0253 -0.3355 -0.4456
    1SOL     OW 3281   1.560   3.609   1.508  0.0572 -0.2725 -0.6700
    1SOL    HW2 3282   1.582   3.701   1.522  2.8232 -0.8664 -0.9096
    1SOL    HW3 3283   1.585   3.592   1.417  0.8947 -1.6086 -0.2103
    1SOL    MW4 3284   1.566   3.619   1.497  0.5325 -0.5274 -0.6410
    1SOL     OW 3285   1.626   3.882   1.551 -0.1065  0.3204  0.2353
    1SOL    HW2 3286   1.648   3.875   1.644 -0.8887  2.7993  0.6633
    1SOL    HW3 3287   1.534   3.910   1.551 -0.8022 -1.8635 -1.3452
    1SOL    MW4 3288   1.617   3.885   1.563 -0.3015  0.3593  0.0833
    1SOL     OW 3289   1.366   4.004   1.508 -0.3302  0.1068 -0.4151
    1SOL    HW2 3290   1.354   4.095   1.534  0.5176 -0.0580  0.5377
    1SOL    HW3 3291   1.363   4.006   1.412  1.0610  1.3291 -0.4331
    1SOL    MW4 3292   1.364   4.016   1.498 -0.0347  0.2465 -0.2917
    1SOL     OW 3293   1.337   4.263   1.600 -0.3064  0.0457  0.4428
    1SOL    HW2 3294   1.410   4.315   1.568  0.1163 -0.0040  1.3198
    1SOL    HW3 3295   1.260   4.300   1.556  0.0481  1.1108  0.7015
    1SOL    MW4 3296   1.336   4.275   1.590 -0.2038  0.1798  0.5926
    1SOL     OW 3297   1.563   4.402   1.510  0.2270 -0.2272  0.4432
    1SOL    HW2 3298   1.645   4.361   1.538  1.0046  0.3591 -0.9210
    1SOL    HW3 3299   1.561   4.486   1.556  0.1180 -0.4834  0.9073
    1SOL    MW4 3300   1.574   4.407   1.520  0.3152 -0.1826  0.3245
    1SOL     OW 3301   2.020   4.661   1.592  0.0921 -0.0679  0.8485
    1SOL    HW2 3302   2.001   4.648   1.685  1.2238  2.3543  1.4756
    1SOL    HW3 3303   1.946   4.712   1.560 -0.3291 -0.9604  0.4039
    1SOL    MW4 3304   2.008   4.666   1.600  0.1857  0.1335  0.8726
    1SOL     OW 3305   1.779   0.134   1.474  0.4846  0.5853  0.1904
    1SOL    HW2 3306   1.707   0.082   1.508 -0.8048  1.4417 -1.1794
    1SOL    HW3 3307   1.772   0.127   1.379  2.4317  0.3955  0.0292
    1SOL    MW4 3308   1.769   0.126   1.466  0.5714  0.6732 -0.0116
    1SOL     OW 3309   1.800   0.389   1.591  0.2247  0.3743 -0.0977
    1SOL    HW2 3310   1.886   0.415   1.559  0.7081 -0.6947  0.3044
    1SOL    HW3 3311   1.784   0.304   1.551  0.3509 -0.4759  1.5735
    1SOL    MW4 3312   1.809   0.381   1.582  0.3052  0.1211  0.1758
    1SOL     OW 3313   2.033   0.490   1.467 -0.0392 -0.0403 -0.3802
    1SOL    HW2 3314   2.100   0.441   1.515  1.4899  0.4340 -2.0095
    1SOL    HW3 3315   2.040   0.579   1.501  0.6969  0.1818 -1.1011
    1SOL    MW4 3316   2.042   0.495   1.478  0.2596  0.0516 -0.6902
    1SOL     OW 3317   2.067   0.739   1.598  0.3862  1.0996  0.5300
    1SOL    HW2 3318   2.059   0.743   1.693 -2.9021 -3.7078  0.6041
    1SOL    HW3 3319   1.985   0.776   1.565  0.6678  0.9440 -0.3686
    1SOL    MW4 3320   2.055   0.745   1.606 -0.0105  0.4448  0.4213
    1SOL     OW 3321   1.813   0.864   1.524 -0.4636  0.1739 -0.3089
    1SOL    HW2 3322   1.809   0.957   1.545  0.9300  0.4671 -1.2409
    1SOL    HW3 3323   1.723   0.834   1.528 -0.5594  0.7917  3.3980
    1SOL    MW4 3324   1.801   0.872   1.527 -0.2924  0.2941  0.0572
    1SOL     OW 3325   1.785   1.134   1.554  0.1973  0.2259  0.1751
    1SOL    HW2 3326   1.864   1.181   1.526  0.8807 -0.6633  0.6104
    1SOL    HW3 3327   1.779   1.151   1.648 -0.9299  1.4641 -0.0990
    1SOL    MW4 3328   1.794   1.143   1.563  0.1386  0.2722  0.1962
    1SOL     OW 3329   2.012   1.270   1.468  0.1645 -0.0860 -0.2158
    1SOL    HW2 3330   2.007   1.359   1.503  1.6737 -0.3905  0.8562
    1SOL    HW3 3331   2.001   1.280   1.374 -2.6513  0.9130  0.1834
    1SOL    MW4 3332   2.010   1.283   1.460 -0.0079  0.0056 -0.0216
    1SOL     OW 3333   2.015   1.527   1.580  0.1096 -0.0436 -0.4947
    1SOL    HW2 3334   2.087   1.575   1.540 -1.0121  2.1484  0.0320
    1SOL    HW3 3335   1.937   1.575   1.554 -0.9716 -1.0592  0.8114
    1SOL    MW4 3336   2.014   1.540   1.572 -0.1810  0.1116 -0.2530
    1SOL     OW 3337   1.789   1.664   1.504  0.4127 -0.1754  0.4856
    1SOL    HW2 3338   1.705   1.627   1.531 -0.4302  0.2984 -1.3716
    1SOL    HW3 3339   1.781   1.673   1.409  2.2672  0.6370  0.3922
    1SOL    MW4 3340   1.777   1.660   1.495  0.5461 -0.0057  0.2282
    1SOL     OW 3341   1.764   1.931   1.608  0.3371  0.4338  0.2337
    1SOL    HW2 3342   1.762   1.840   1.579 -2.0824 -0.0437  1.7831
    1SOL    HW3 3343   1.697   1.975   1.554  1.1723  1.2179 -0.1905
    1SOL    MW4 3344   1.755   1.925   1.597  0.1280  0.4742  0.3821
    1SOL     OW 3345   1.996   2.039   1.460 -0.0643  0.4971  0.5388
    1SOL    HW2 3346   2.077   2.000   1.493 -0.2934  0.1731  0.7224
    1SOL    HW3 3347   1.928   2.010   1.521 -0.6814 -1.0754 -0.8447
    1SOL    MW4 3348   1.997   2.030   1.472 -0.1758  0.2470  0.3805
    1SOL     OW 3349   2.013   2.291   1.559 -0.2636  0.1037 -0.1030
    1SOL    HW2 3350   2.013   2.282   1.654 -3.2089 -1.5685 -0.1757
    1SOL    HW3 3351   2.033   2.203   1.526 -0.8092  0.3057 -1.0163
    1SOL    MW4 3352   2.016   2.278   1.567 -0.7243 -0.0901 -0.2332
    1SOL     OW 3353   1.800   2.461   1.462 -0.1052 -0.3132  0.1099
    1SOL    HW2 3354   1.859   2.390   1.484  1.0478  0.6435  0.1634
    1SOL    HW3 3355   1.790   2.455   1.366  0.5259 -0.1353  0.0330
    1SOL    MW4 3356   1.806   2.451   1.452  0.1303 -0.1636  0.1068
    1SOL     OW 3357   1.780   2.701   1.594  0.1653 -0.6020  0.0683
    1SOL    HW2 3358   1.849   2.760   1.563 -1.1131  0.8637 -0.1003
    1SOL    HW3 3359   1.796   2.619   1.548  2.0869 -0.4460  0.4274
    1SOL    MW4 3360   1.791   2.698   1.584  0.2501 -0.3879  0.0936
    1SOL     OW 3361   1.976   2.843   1.493 -0.4299 -0.2313 -0.1900
    1SOL    HW2 3362   1.975   2.931   1.531 -1.0542  0.7421 -2.4204
    1SOL    HW3 3363   2.013   2.854   1.406  3.5238 -2.8610  1.0248
    1SOL    MW4 3364   1.980   2.856   1.487  0.0095 -0.4501 -0.3240
    1SOL     OW 3365   1.995   3.118   1.595 -0.1496  0.0571 -0.1777
    1SOL    HW2 3366   1.998   3.124   1.690  1.7275  0.9991 -0.2650
    1SOL    HW3 3367   2.076   3.161   1.566 -0.3978 -0.7569 -2.1618
    1SOL    MW4 3368   2.006   3.125   1.604  0.0653  0.0739 -0.4511
    1SOL     OW 3369   1.775   3.255   1.471 -0.1622 -0.3101 -0.1925
    1SOL    HW2 3370   1.773   3.345   1.504 -1.1789 -0.5018  0.3050
    1SOL    HW3 3371   1.846   3.213   1.520 -1.2048 -0.3958  1.2694
    1SOL    MW4 3372   1.784   3.261   1.482 -0.4339 -0.3467  0.0660
    1SOL     OW 3373   1.808   3.507   1.591 -0.8746  0.4088 -0.2498
    1SOL    HW2 3374   1.814   3.504   1.687 -0.5552  0.9689 -0.2496
    1SOL    HW3 3375   1.721   3.544   1.574 -1.1218 -0.1345 -0.1825
    1SOL    MW4 3376   1.797   3.511   1.602 -0.8651  0.4108 -0.2409
    1SOL     OW 3377   2.006   3.638   1.442 -0.5692  0.0322 -0.5371
    1SOL    HW2 3378   2.088   3.600   1.474 -1.2899 -1.9061 -0.8970
    1SOL    HW3 3379   1.939   3.603   1.501 -1.0433  2.5126  0.4663
    1SOL    MW4 3380   2.008   3.628   1.454 -0.7269  0.1035 -0.4523
    1SOL     OW 3381   2.013   3.899   1.555 -0.0739 -0.0802  0.5493
    1SOL    HW2 3382   2.103   3.927   1.537 -0.2877  1.1557  1.3342
    1SOL    HW3 3383   2.003   3.818   1.504  0.9961  0.5480 -0.7154
    1SOL    MW4 3384   2.024   3.892   1.546  0.0391  0.1657  0.4859
    1SOL     OW 3385   1.807   4.048   1.419  0.1679 -0.5439 -0.1597
    1SOL    HW2 3386   1.882   3.998   1.451  0.1529 -0.9027 -0.6893
    1SOL    HW3 3387   1.731   4.003   1.456  0.1654 -0.7830 -0.4549
    1SOL    MW4 3388   1.807   4.036   1.428  0.1655 -0.6232 -0.2686
    1SOL     OW 3389   1.793   4.271   1.575  0.3045  0.3675 -0.0404
    1SOL    HW2 3390   1.880   4.306   1.555  0.2945  0.2537 -0.2888
    1SOL    HW3 3391   1.786   4.193   1.519  0.1699  0.1979  0.2131
    1SOL    MW4 3392   1.804   4.265   1.565  0.2854  0.3300 -0.0397
    1SOL     OW 3393   2.028   4.421   1.432  0.3836  0.0109 -0.2639
    1SOL    HW2 3394   2.102   4.380   1.477  0.1340 -0.5786 -0.3804
    1SOL    HW3 3395   2.014   4.504   1.478  1.6727  0.5372 -0.7917
    1SOL    MW4 3396   2.036   4.427   1.444  0.5207  0.0029 -0.3489
    1SOL     OW 3397   2.500   0.001   1.595  0.2675  0.1194  0.3943
    1SOL    HW2 3398   2.498   0.001   1.691 -1.0990  0.1014  0.3653
    1SOL    HW3 3399   2.415   0.035   1.569  0.6012  0.0367 -0.8222
    1SOL    MW4 3400   2.489   0.005   1.604  0.1314  0.1063  0.2301
    1SOL     OW 3401   2.260   0.091   1.497 -0.3892  0.3082 -0.3372
    1SOL    HW2 3402   2.174   0.053   1.517  0.5238 -1.7178 -0.1601
    1SOL    HW3 3403   2.257   0.109   1.403 -1.5034  1.5773 -0.0729
    1SOL    MW4 3404   2.248   0.089   1.487 -0.4156  0.2083 -0.2789
    1SOL     OW 3405   2.264   0.369   1.587  0.2683 -0.1587  0.5875
    1SOL    HW2 3406   2.276   0.371   1.682 -0.1940 -1.5488  0.6891
    1SOL    HW3 3407   2.265   0.276   1.565 -2.0722  0.0289 -0.4366
    1SOL    MW4 3408   2.266   0.357   1.597 -0.1013 -0.3174  0.4658
    1SOL     OW 3409   2.453   0.521   1.473  0.5899 -0.3944 -0.4753
    1SOL    HW2 3410   2.531   0.493   1.523  0.3890  1.1614  0.7358
    1SOL    HW3 3411   2.381   0.473   1.514  0.5364  0.2770  0.2312
    1SOL    MW4 3412   2.454   0.511   1.485  0.5565 -0.1007 -0.2222
    1SOL     OW 3413   2.474   0.750   1.607  0.2265 -0.2095 -0.1672
    1SOL    HW2 3414   2.402   0.806   1.576  1.2636  0.5819 -1.2088
    1SOL    HW3 3415   2.464   0.668   1.559  0.4604  0.1712 -0.8630
    1SOL    MW4 3416   2.463   0.747   1.597  0.3943 -0.0548 -0.3965
    1SOL     OW 3417   2.277   0.897   1.500  0.0176 -0.1706  0.1994
    1SOL    HW2 3418   2.254   0.990   1.503  1.5652  0.2144  0.4625
    1SOL    HW3 3419   2.208   0.854   1.550 -0.7416  0.8347  0.0383
    1SOL    MW4 3420   2.265   0.904   1.507  0.1216  0.0129  0.2128
    1SOL     OW 3421   2.253   1.161   1.556 -0.4335  0.0973  0.1175
    1SOL    HW2 3422   2.253   1.171   1.651 -0.8347 -0.4077  0.1706
    1SOL    HW3 3423   2.178   1.212   1.527 -1.4476 -1.3137  0.2388
    1SOL    MW4 3424   2.243   1.169   1.565 -0.6199 -0.1553  0.1405
    1SOL     OW 3425   2.512   1.255   1.525 -0.1263  0.7964  0.2823
    1SOL    HW2 3426   2.424   1.219   1.533  0.7645 -1.4244  0.3601
    1SOL    HW3 3427   2.528   1.259   1.431  0.6707 -1.3385  0.2984
    1SOL    MW4 3428   2.503   1.251   1.514  0.0963  0.2217  0.2948
    1SOL     OW 3429   2.478   1.528   1.600  0.2184 -0.0289  0.3660
    1SOL    HW2 3430   2.555   1.569   1.561 -0.4882 -0.1644 -1.2032
    1SOL    HW3 3431   2.488   1.434   1.581 -1.0262  0.1148 -1.1150
    1SOL    MW4 3432   2.489   1.521   1.593 -0.0389 -0.0279 -0.0364
    1SOL     OW 3433   2.248   1.643   1.476  0.1620  0.3232 -0.5353
    1SOL    HW2 3434   2.335   1.621   1.508  0.1371 -0.0542 -0.7204
    1SOL    HW3 3435   2.259   1.648   1.381 -0.4560 -1.7718 -0.7469
    1SOL    MW4 3436   2.261   1.641   1.467  0.0772 -0.0031 -0.5876
    1SOL     OW 3437   2.235   1.907   1.577 -0.3295  0.5939 -0.1896
    1SOL    HW2 3438   2.217   1.903   1.671 -0.0620  0.8886 -0.1225
    1SOL    HW3 3439   2.206   1.823   1.543 -1.7993  1.0453 -0.0872
    1SOL    MW4 3440   2.229   1.895   1.585 -0.4885  0.6922 -0.1673
    1SOL     OW 3441   2.465   2.050   1.507  0.2686 -0.2030 -0.1468
    1SOL    HW2 3442   2.396   1.988   1.532  0.8468 -0.9415 -0.3940
    1SOL    HW3 3443   2.484   2.030   1.415 -0.3163  1.0744 -0.5654
    1SOL    MW4 3444   2.458   2.039   1.498  0.2680 -0.1318 -0.2347
    1SOL     OW 3445   2.439   2.321   1.577 -0.2001 -0.0089  0.1552
    1SOL    HW2 3446   2.424   2.319   1.671 -1.2471 -1.0769 -0.0132
    1SOL    HW3 3447   2.440   2.228   1.551 -1.1532  0.3058 -1.0578
    1SOL    MW4 3448   2.437   2.308   1.586 -0.4640 -0.1085 -0.0271
    1SOL     OW 3449   2.219   2.464   1.478 -0.1741 -0.1468  0.1099
    1SOL    HW2 3450   2.304   2.423   1.491  0.2488  0.1201 -1.6703
    1SOL    HW3 3451   2.157   2.403   1.517  0.8711 -0.0027  2.0762
    1SOL    MW4 3452   2.222   2.451   1.485  0.0198 -0.0927  0.1346
    1SOL     OW 3453   2.223   2.719   1.568  0.5125 -0.2638  0.0690
    1SOL    HW2 3454   2.216   2.630   1.535  0.2785 -0.3871  0.4509
    1SOL    HW3 3455   2.144   2.763   1.536 -0.2298 -0.6647  1.3241
    1SOL    MW4 3456   2.212   2.713   1.560  0.3841 -0.3331  0.2849
    1SOL     OW 3457   2.441   2.875   1.487 -0.4753  0.4640  0.4520
    1SOL    HW2 3458   2.442   2.959   1.534  1.2065  0.0783  1.1211
    1SOL    HW3 3459   2.362   2.831   1.520  0.2730  0.5040  2.3895
    1SOL    MW4 3460   2.430   2.881   1.498 -0.1545  0.4184  0.7958
    1SOL     OW 3461   2.442   3.112   1.626 -0.3830  0.0207 -0.2438
    1SOL    HW2 3462   2.507   3.166   1.581 -0.3805 -1.3850 -1.9675
    1SOL    HW3 3463   2.358   3.152   1.601 -0.2730  0.8712  0.7036
    1SOL    MW4 3464   2.439   3.125   1.617 -0.3684 -0.0522 -0.3462
    1SOL     OW 3465   2.219   3.238   1.528 -0.2474 -0.0776 -0.0309
    1SOL    HW2 3466   2.209   3.332   1.543  0.4343  0.0825 -0.5822
    1SOL    HW3 3467   2.228   3.229   1.433 -0.4994 -0.7228 -0.0003
    1SOL    MW4 3468   2.219   3.249   1.518 -0.1907 -0.1419 -0.0997
    1SOL     OW 3469   2.227   3.530   1.566  0.3157 -0.4460  0.6168
    1SOL    HW2 3470   2.217   3.522   1.660  2.4534 -0.2110  0.9042
    1SOL    HW3 3471   2.314   3.570   1.555  0.0490 -0.3690 -1.4382
    1SOL    MW4 3472   2.237   3.534   1.577  0.5627 -0.4048  0.3835
    1SOL     OW 3473   2.444   3.650   1.458 -0.0304  0.1973  0.0825
    1SOL    HW2 3474   2.513   3.594   1.494 -1.4860 -0.9993  1.0427
    1SOL    HW3 3475   2.464   3.737   1.493  1.4547  0.0384 -0.3114
    1SOL    MW4 3476   2.456   3.654   1.467 -0.0265  0.0181  0.1572
    1SOL     OW 3477   2.506   3.881   1.578  0.2846 -0.4660 -0.2649
    1SOL    HW2 3478   2.503   3.875   1.674 -1.0417 -1.9667 -0.3723
    1SOL    HW3 3479   2.598   3.899   1.558  0.8306 -1.4478  1.2263
    1SOL    MW4 3480   2.518   3.883   1.588  0.1817 -0.7935 -0.0824
    1SOL     OW 3481   2.272   4.015   1.482  0.7112  0.3203 -0.1031
    1SOL    HW2 3482   2.357   3.980   1.510  1.0042  0.5615 -0.6667
    1SOL    HW3 3483   2.265   3.988   1.390 -0.2521 -0.5110  0.2072
    1SOL    MW4 3484   2.283   4.006   1.473  0.6230  0.2427 -0.1365
    1SOL     OW 3485   2.230   4.281   1.579 -0.2630 -0.3356 -0.1031
    1SOL    HW2 3486   2.316   4.323   1.575 -0.1084 -0.6158  0.2533
    1SOL    HW3 3487   2.243   4.196   1.538 -0.6847  0.1335 -1.2350
    1SOL    MW4 3488   2.243   4.276   1.573 -0.2983 -0.3109 -0.2054
    1SOL     OW 3489   2.478   4.373   1.541  0.0627 -0.0667  0.5135
    1SOL    HW2 3490   2.500   4.461   1.571 -1.7766  0.2824  0.8997
    1SOL    HW3 3491   2.473   4.382   1.446 -0.8841  0.4286  0.6075
    1SOL    MW4 3492   2.480   4.386   1.532 -0.3047  0.0443  0.5769
    1SOL     OW 3493   2.920   4.646   1.611 -0.0309 -0.0705 -0.2771
    1SOL    HW2 3494   2.909   4.646   1.706  0.4153 -0.3275 -0.2263
    1SOL    HW3 3495   2.851   4.705   1.579 -0.2960 -0.1254  0.1902
    1SOL    MW4 3496   2.909   4.654   1.619 -0.0069 -0.1116 -0.2089
    1SOL     OW 3497   2.724   0.144   1.485 -0.4736 -0.0237  0.6005
    1SOL    HW2 3498   2.695   0.230   1.518  1.2926 -0.1940  2.6574
    1SOL    HW3 3499   2.665   0.081   1.527 -1.0456  0.0797 -0.0336
    1SOL    MW4 3500   2.712   0.147   1.495 -0.3161 -0.0326  0.7882
    1SOL     OW 3501   2.672   0.417   1.599  0.4883 -0.1978 -0.2538
    1SOL    HW2 3502   2.664   0.422   1.694  0.4050  0.6276 -0.3039
    1SOL    HW3 3503   2.765   0.432   1.582  0.1456  1.8112 -0.4393
    1SOL    MW4 3504   2.683   0.419   1.609  0.4320  0.1762 -0.2848
    1SOL     OW 3505   2.949   0.468   1.532 -0.4477 -0.3698  0.0468
    1SOL    HW2 3506   2.934   0.558   1.561 -3.0157 -0.7126 -0.1700
    1SOL    HW3 3507   2.942   0.472   1.437  1.7006 -0.4231 -0.1489
    1SOL    MW4 3508   2.946   0.481   1.523 -0.5033 -0.4221 -0.0076
    1SOL     OW 3509   2.913   0.747   1.579  0.6854 -0.0193 -0.2563
    1SOL    HW2 3510   2.902   0.760   1.674  0.5357  0.0903 -0.2889
    1SOL    HW3 3511   2.835   0.787   1.540  0.6573 -0.2278 -0.4136
    1SOL    MW4 3512   2.901   0.754   1.587  0.6618 -0.0324 -0.2813
    1SOL     OW 3513   2.685   0.869   1.505 -0.2411 -0.3307 -0.3357
    1SOL    HW2 3514   2.606   0.830   1.542 -1.1616  0.4300 -1.4791
    1SOL    HW3 3515   2.675   0.859   1.410  1.0937 -0.3372 -0.4862
    1SOL    MW4 3516   2.673   0.862   1.497 -0.1862 -0.2313 -0.5064
    1SOL     OW 3517   2.707   1.114   1.653 -0.5729  0.2261 -0.0380
    1SOL    HW2 3518   2.708   1.028   1.611 -0.6022  0.2057  0.0023
    1SOL    HW3 3519   2.635   1.161   1.611 -0.3195  0.3626 -0.3191
    1SOL    MW4 3520   2.697   1.109   1.642 -0.5434  0.2414 -0.0697
    1SOL     OW 3521   2.914   1.273   1.510 -0.2253 -0.2247 -0.3863
    1SOL    HW2 3522   2.995   1.228   1.535 -0.1282  0.3663  0.3965
    1SOL    HW3 3523   2.845   1.228   1.557  0.0736  1.5281  1.8135
    1SOL    MW4 3524   2.916   1.261   1.519 -0.1731  0.0846  0.0072
    1SOL     OW 3525   2.916   1.538   1.620 -0.0906 -0.1190 -0.1861
    1SOL    HW2 3526   2.843   1.579   1.573 -0.0200 -0.4702 -0.6096
    1SOL    HW3 3527   2.917   1.448   1.587 -1.2281 -0.9123  1.8661
    1SOL    MW4 3528   2.907   1.531   1.609 -0.2315 -0.2700  0.0287
    1SOL     OW 3529   2.708   1.633   1.460  0.0114 -0.1011  0.0514
    1SOL    HW2 3530   2.702   1.724   1.490 -1.9086 -0.3928  0.6472
    1SOL    HW3 3531   2.682   1.637   1.368 -0.4467 -0.1032  0.1810
    1SOL    MW4 3532   2.704   1.646   1.452 -0.3023 -0.1398  0.1470
    1SOL     OW 3533   2.684   1.898   1.574 -0.8633 -0.2175  0.2448
    1SOL    HW2 3534   2.687   1.904   1.669  0.3481  2.8355  0.0556
    1SOL    HW3 3535   2.607   1.949   1.549 -0.1757  0.4564 -0.5077
    1SOL    MW4 3536   2.674   1.905   1.583 -0.6130  0.2742  0.1206
    1SOL     OW 3537   2.885   2.060   1.470  0.2270  0.1352 -0.0337
    1SOL    HW2 3538   2.892   2.143   1.517 -0.2879  0.7343 -1.0205
    1SOL    HW3 3539   2.812   2.015   1.512 -0.6783  0.9671 -0.7094
    1SOL    MW4 3540   2.877   2.065   1.482  0.0398  0.3238 -0.2531
    1SOL     OW 3541   2.930   2.299   1.583 -0.1838  0.0151  0.3687
    1SOL    HW2 3542   2.910   2.309   1.676 -0.9380 -1.8620  0.4332
    1SOL    HW3 3543   2.860   2.348   1.539 -0.2330  0.3161  0.7700
    1SOL    MW4 3544   2.918   2.307   1.590 -0.2902 -0.1924  0.4302
    1SOL     OW 3545   2.691   2.421   1.524 -0.2927 -0.4031  0.7281
    1SOL    HW2 3546   2.672   2.515   1.521 -0.6337 -0.4813  0.4604
    1SOL    HW3 3547   2.606   2.380   1.541 -0.3330 -0.7421 -0.2895
    1SOL    MW4 3548   2.677   2.428   1.526 -0.3428 -0.4582  0.5585
    1SOL     OW 3549   2.629   2.704   1.569 -0.0723  0.0050  0.3891
    1SOL    HW2 3550   2.705   2.753   1.538 -0.2017  0.3182  0.5671
    1SOL    HW3 3551   2.554   2.750   1.529 -0.2899  0.8295  1.7159
    1SOL    MW4 3552   2.629   2.717   1.559 -0.1180  0.1552  0.5876
    1SOL     OW 3553   2.894   2.826   1.497  0.3028  0.4593 -0.5175
    1SOL    HW2 3554   2.983   2.800   1.522 -0.1526  0.8694  1.5767
    1SOL    HW3 3555   2.889   2.919   1.519 -0.7223  0.3786 -0.3849
    1SOL    MW4 3556   2.905   2.834   1.503  0.1075  0.5031 -0.2236
    1SOL     OW 3557   2.901   3.095   1.581 -0.3482 -0.1548 -0.1370
    1SOL    HW2 3558   2.905   3.079   1.675 -2.5289 -1.4911 -0.2280
    1SOL    HW3 3559   2.984   3.138   1.560  0.5481 -0.6498  2.2272
    1SOL    MW4 3560   2.912   3.098   1.591 -0.5176 -0.3965  0.1628
    1SOL     OW 3561   2.657   3.220   1.500  0.0792  0.3770  0.1468
    1SOL    HW2 3562   2.730   3.162   1.518  0.4090  0.4845 -0.8461
    1SOL    HW3 3563   2.647   3.218   1.405 -0.6130  1.0794  0.1993
    1SOL    MW4 3564   2.665   3.212   1.490  0.0312  0.4838  0.0228
    1SOL     OW 3565   2.638   3.476   1.578 -0.2659  0.2082 -0.3033
    1SOL    HW2 3566   2.655   3.482   1.672 -0.6186 -1.1409 -0.1443
    1SOL    HW3 3567   2.660   3.386   1.555  0.5178  0.7301 -1.6587
    1SOL    MW4 3568   2.643   3.465   1.587 -0.2091  0.0989 -0.4611
    1SOL     OW 3569   2.909   3.598   1.521  0.1860  0.0263 -0.1183
    1SOL    HW2 3570   2.819   3.570   1.541 -0.0027  0.1874 -0.7576
    1SOL    HW3 3571   2.921   3.578   1.428  0.8423 -0.0702 -0.0196
    1SOL    MW4 3572   2.899   3.591   1.512  0.2477  0.0348 -0.1897
    1SOL     OW 3573   3.002   3.864   1.584  0.3102 -0.3366 -0.2251
    1SOL    HW2 3574   2.922   3.913   1.563 -0.0904 -0.1766  1.5549
    1SOL    HW3 3575   2.983   3.774   1.556 -0.6194 -0.3599  0.4644
    1SOL    MW4 3576   2.989   3.859   1.578  0.1345 -0.3185  0.1006
    1SOL     OW 3577   2.767   3.962   1.498  0.1241  0.1867 -0.1188
    1SOL    HW2 3578   2.746   4.040   1.549 -1.7744  0.5270 -1.3404
    1SOL    HW3 3579   2.750   3.989   1.407  0.0773 -1.4475 -0.5977
    1SOL    MW4 3580   2.762   3.976   1.493 -0.1326  0.0160 -0.3432
    1SOL     OW 3581   2.701   4.214   1.595 -0.0130  0.2124  0.0494
    1SOL    HW2 3582   2.774   4.262   1.556  0.5994 -1.4356 -0.8761
    1SOL    HW3 3583   2.625   4.270   1.581  0.4949  0.3993 -2.0438
    1SOL    MW4 3584   2.701   4.228   1.588  0.1347  0.0196 -0.3489
    1SOL     OW 3585   2.914   4.383   1.520  0.3816  0.0652  0.1684
    1SOL    HW2 3586   2.914   4.468   1.564 -0.3955 -0.4763  1.2371
    1SOL    HW3 3587   2.929   4.403   1.428  0.0979  1.3617  0.4012
    1SOL    MW4 3588   2.916   4.397   1.514  0.2415  0.1645  0.3400
    1SOL     OW 3589   3.383   4.604   1.629 -0.0466 -0.2628 -0.1470
    1SOL    HW2 3590   3.452   4.662   1.597 -1.1664  0.1489 -1.8578
    1SOL    HW3 3591   3.403   4.519   1.589 -0.0392 -0.3659  0.0734
    1SOL    MW4 3592   3.395   4.600   1.620 -0.1936 -0.2222 -0.3436
    1SOL     OW 3593   3.166   0.085   1.504  0.1439  0.0545 -0.0248
    1SOL    HW2 3594   3.238   0.038   1.546  0.7811  0.2244 -0.9154
    1SOL    HW3 3595   3.087   0.053   1.548  0.9039  1.4400  2.4488
    1SOL    MW4 3596   3.165   0.075   1.515  0.3281  0.2598  0.1841
    1SOL     OW 3597   3.176   0.344   1.587  0.2334 -0.7277 -0.1001
    1SOL    HW2 3598   3.177   0.264   1.535 -0.2767 -0.3336 -0.7223
    1SOL    HW3 3599   3.090   0.382   1.572 -0.1309 -0.8829  1.4809
    1SOL    MW4 3600   3.165   0.339   1.578  0.1180 -0.6962  0.0263
    1SOL     OW 3601   3.399   0.478   1.512  0.2614 -0.2651  0.5370
    1SOL    HW2 3602   3.312   0.444   1.531 -0.5125  2.5404  2.2602
    1SOL    HW3 3603   3.395   0.503   1.419 -0.2563 -1.5343  0.2026
    1SOL    MW4 3604   3.387   0.477   1.502  0.0911 -0.0624  0.7203
    1SOL     OW 3605   3.339   0.737   1.595  0.3397 -0.1323 -0.4876
    1SOL    HW2 3606   3.356   0.750   1.688 -2.7365  1.1615 -0.0504
    1SOL    HW3 3607   3.347   0.642   1.582 -1.4513 -0.5913  1.5758
    1SOL    MW4 3608   3.342   0.726   1.606 -0.3026 -0.0221 -0.1578
    1SOL     OW 3609   3.122   0.888   1.488 -0.4451  0.2054  0.1797
    1SOL    HW2 3610   3.194   0.826   1.502 -0.0358  0.6452  0.0576
    1SOL    HW3 3611   3.044   0.843   1.521 -0.1406 -0.3454  0.1474
    1SOL    MW4 3612   3.121   0.874   1.494 -0.3507  0.1908  0.1593
    1SOL     OW 3613   3.136   1.136   1.614 -0.1984  0.2304  0.5368
    1SOL    HW2 3614   3.151   1.135   1.709 -0.3540  1.3307  0.5777
    1SOL    HW3 3615   3.141   1.044   1.588  0.6893  0.0007  1.4797
    1SOL    MW4 3616   3.139   1.124   1.623 -0.1018  0.3451  0.6666
    1SOL     OW 3617   3.358   1.271   1.540 -0.1456  0.2990  0.3223
    1SOL    HW2 3618   3.438   1.227   1.569  1.3109  2.4399 -0.3585
    1SOL    HW3 3619   3.288   1.210   1.565  1.6168 -1.3458  1.4745
    1SOL    MW4 3620   3.360   1.257   1.547  0.2789  0.3644  0.3846
    1SOL     OW 3621   3.338   1.539   1.640  0.2945  0.2566  0.2065
    1SOL    HW2 3622   3.352   1.530   1.735 -0.1890 -1.7544  0.1221
    1SOL    HW3 3623   3.362   1.453   1.605 -1.9707  0.1674 -1.2001
    1SOL    MW4 3624   3.343   1.526   1.648 -0.0682 -0.0203  0.0097
    1SOL     OW 3625   3.115   1.688   1.499  0.5245 -0.4908 -0.1055
    1SOL    HW2 3626   3.194   1.648   1.536  1.2247  1.1228  0.1719
    1SOL    HW3 3627   3.043   1.634   1.532  1.2888 -0.2320  2.0469
    1SOL    MW4 3628   3.116   1.676   1.509  0.7179 -0.2437  0.2151
    1SOL     OW 3629   3.104   1.951   1.585  0.1035  0.1169  0.3460
    1SOL    HW2 3630   3.120   1.866   1.544  0.4511  0.0076  0.7085
    1SOL    HW3 3631   3.032   1.988   1.534 -0.7206 -0.8286  0.8042
    1SOL    MW4 3632   3.096   1.944   1.573  0.0405 -0.0223  0.4543
    1SOL     OW 3633   3.360   2.041   1.464 -0.2780 -0.3394 -0.0693
    1SOL    HW2 3634   3.273   2.015   1.496 -0.5963  0.8787  0.0833
    1SOL    HW3 3635   3.348   2.056   1.370 -0.0755 -0.8134 -0.1732
    1SOL    MW4 3636   3.347   2.039   1.456 -0.2933 -0.2413 -0.0628
    1SOL     OW 3637   3.390   2.295   1.584 -0.4965 -0.0417  0.7745
    1SOL    HW2 3638   3.453   2.343   1.531  0.4326 -1.3858  0.6398
    1SOL    HW3 3639   3.388   2.207   1.547 -2.6896  0.0514  0.5894
    1SOL    MW4 3640   3.398   2.289   1.572 -0.6633 -0.2072  0.7324
    1SOL     OW 3641   3.137   2.429   1.495 -0.6957  0.0759  0.0677
    1SOL    HW2 3642   3.218   2.384   1.522 -0.4442  0.2280 -0.4170
    1SOL    HW3 3643   3.067   2.375   1.530 -0.3891 -0.5107 -0.2083
    1SOL    MW4 3644   3.139   2.416   1.503 -0.6223  0.0188 -0.0327
    1SOL     OW 3645   3.126   2.711   1.581 -0.1395  0.0771 -0.4008
    1SOL    HW2 3646   3.204   2.748   1.539  0.9119  0.0618  1.4518
    1SOL    HW3 3647   3.130   2.618   1.559  0.4071  0.0675 -0.2807
    1SOL    MW4 3648   3.137   2.703   1.573  0.0713  0.0739 -0.1405
    1SOL     OW 3649   3.352   2.836   1.490  0.2461 -0.2192 -0.0206
    1SOL    HW2 3650   3.348   2.924   1.527  1.3825 -0.5390  0.8633
    1SOL    HW3 3651   3.375   2.851   1.398 -1.4539  0.5059 -0.3444
    1SOL    MW4 3652   3.354   2.850   1.482  0.1719 -0.1657  0.0532
    1SOL     OW 3653   3.367   3.089   1.604 -0.1590  0.4691 -0.0585
    1SOL    HW2 3654   3.349   3.107   1.696  0.1344  0.1781  0.0559
    1SOL    HW3 3655   3.432   3.155   1.579 -0.7341  0.9722 -0.2393
    1SOL    MW4 3656   3.373   3.100   1.613 -0.1962  0.4971 -0.0674
    1SOL     OW 3657   3.146   3.217   1.478  0.9331  0.3239  0.0388
    1SOL    HW2 3658   3.157   3.306   1.512 -0.1152 -0.0661  1.4470
    1SOL    HW3 3659   3.217   3.167   1.517  1.3729  0.4789 -0.5539
    1SOL    MW4 3660   3.156   3.222   1.487  0.8531  0.2928  0.1465
    1SOL     OW 3661   3.159   3.469   1.592 -0.6361  0.0622  0.1236
    1SOL    HW2 3662   3.187   3.491   1.681 -2.6267 -0.4109  0.8969
    1SOL    HW3 3663   3.080   3.521   1.578 -1.8461 -1.8539 -0.3500
    1SOL    MW4 3664   3.152   3.478   1.602 -1.0586 -0.2532  0.1633
    1SOL     OW 3665   3.382   3.631   1.504 -0.1651 -0.0722 -0.3920
    1SOL    HW2 3666   3.453   3.581   1.544 -1.1957 -0.8870  0.4816
    1SOL    HW3 3667   3.303   3.585   1.532 -1.0991  1.5875 -0.2437
    1SOL    MW4 3668   3.381   3.619   1.513 -0.4244  0.0393 -0.2573
    1SOL     OW 3669   3.416   3.902   1.577 -0.2120  0.2015  0.2055
    1SOL    HW2 3670   3.342   3.946   1.534 -0.5809  0.9538  1.5951
    1SOL    HW3 3671   3.414   3.813   1.543 -0.9767  0.5659 -0.7343
    1SOL    MW4 3672   3.406   3.896   1.567 -0.3617  0.3488  0.2648
    1SOL     OW 3673   3.181   4.037   1.475 -0.1507  0.3914  0.0789
    1SOL    HW2 3674   3.162   4.119   1.520 -0.4229  0.2869  0.1571
    1SOL    HW3 3675   3.123   3.973   1.516  0.0732  0.1547  0.0312
    1SOL    MW4 3676   3.171   4.039   1.487 -0.1571  0.3462  0.0829
    1SOL     OW 3677   3.166   4.269   1.617  0.2307  0.2090 -0.1806
    1SOL    HW2 3678   3.176   4.274   1.712 -1.2170  0.1371 -0.0062
    1SOL    HW3 3679   3.075   4.294   1.601  0.0141 -1.2365 -1.4185
    1SOL    MW4 3680   3.155   4.273   1.627  0.0112  0.0091 -0.3209
    1SOL     OW 3681   3.417   4.353   1.490 -0.4465 -0.5314  0.3227
    1SOL    HW2 3682   3.339   4.315   1.530  0.2656 -1.8419  0.4660
    1SOL    HW3 3683   3.402   4.345   1.395 -0.3644 -1.0441  0.3512
    1SOL    MW4 3684   3.405   4.347   1.482 -0.3419 -0.7725  0.3453
    1SOL     OW 3685   3.828   4.652   1.609  0.8687 -0.4141 -0.4516
    1SOL    HW2 3686   3.818   4.677   1.701  1.4213  0.0260 -0.5113
    1SOL    HW3 3687   3.891   4.714   1.573 -1.9004  1.6040 -2.0142
    1SOL    MW4 3688   3.835   4.663   1.616  0.5765 -0.0901 -0.6657
    1SOL     OW 3689   3.594   0.110   1.525  0.3003 -0.3609  0.2806
    1SOL    HW2 3690   3.673   0.057   1.521  1.4214  1.3366 -0.5375
    1SOL    HW3 3691   3.579   0.137   1.435 -0.2585  0.7079  0.6938
    1SOL    MW4 3692   3.602   0.106   1.513  0.3746  0.0041  0.2272
    1SOL     OW 3693   3.621   0.354   1.621  0.0538  0.2263 -0.0206
    1SOL    HW2 3694   3.608   0.263   1.593 -0.3037  0.1073  0.5172
    1SOL    HW3 3695   3.550   0.403   1.579  1.1320  0.5216 -1.5304
    1SOL    MW4 3696   3.610   0.348   1.612  0.1490  0.2496 -0.1488
    1SOL     OW 3697   3.829   0.518   1.509  0.2490 -0.4522  0.0848
    1SOL    HW2 3698   3.748   0.481   1.544 -0.8004  1.3751 -0.4306
    1SOL    HW3 3699   3.823   0.506   1.415 -0.4031  1.6709 -0.1432
    1SOL    MW4 3700   3.818   0.511   1.501  0.0243  0.0690 -0.0134
    1SOL     OW 3701   3.796   0.765   1.611 -0.0603 -0.1198  0.4262
    1SOL    HW2 3702   3.710   0.788   1.577  0.1994  0.2709  0.0314
    1SOL    HW3 3703   3.812   0.676   1.579 -0.0572  0.0348  0.0052
    1SOL    MW4 3704   3.787   0.756   1.602 -0.0255 -0.0478  0.3186
    1SOL     OW 3705   3.558   0.870   1.504 -0.3047 -0.4976 -0.5776
    1SOL    HW2 3706   3.483   0.810   1.507  0.4562 -1.5275 -1.7558
    1SOL    HW3 3707   3.557   0.903   1.414 -0.9412  1.5648  0.1677
    1SOL    MW4 3708   3.548   0.866   1.493 -0.2882 -0.3614 -0.6348
    1SOL     OW 3709   3.574   1.124   1.614 -0.3190  0.1897  0.3393
    1SOL    HW2 3710   3.656   1.140   1.566  0.8074 -0.1711  2.0761
    1SOL    HW3 3711   3.552   1.033   1.592 -0.5604  0.4637 -0.5722
    1SOL    MW4 3712   3.582   1.114   1.605 -0.2024  0.1783  0.4483
    1SOL     OW 3713   3.789   1.264   1.498  0.4629 -0.3369 -0.1125
    1SOL    HW2 3714   3.861   1.227   1.549 -1.3316 -2.2450  1.1154
    1SOL    HW3 3715   3.777   1.352   1.535  0.9627 -0.6919  0.9145
    1SOL    MW4 3716   3.797   1.271   1.510  0.2923 -0.6354  0.1849
    1SOL     OW 3717   3.816   1.489   1.644  0.3353 -0.0542  0.2045
    1SOL    HW2 3718   3.852   1.503   1.731  0.4282  2.3375 -0.1832
    1SOL    HW3 3719   3.740   1.548   1.639  0.1960 -0.3274 -1.2285
    1SOL    MW4 3720   3.811   1.499   1.655  0.3290  0.2251 -0.0356
    1SOL     OW 3721   3.601   1.652   1.560 -0.0836 -0.1894 -0.1131
    1SOL    HW2 3722   3.511   1.633   1.588  0.4265  1.2034  2.7272
    1SOL    HW3 3723   3.596   1.657   1.465 -3.0481 -0.0427 -0.0135
    1SOL    MW4 3724   3.589   1.650   1.551 -0.4077  0.0138  0.2748
    1SOL     OW 3725   3.599   1.928   1.611  0.3340 -0.4756  0.0662
    1SOL    HW2 3726   3.603   1.832   1.606  0.2192 -0.4036 -1.5388
    1SOL    HW3 3727   3.523   1.952   1.559  1.1458  0.5696 -0.6614
    1SOL    MW4 3728   3.590   1.918   1.604  0.4261 -0.3283 -0.2415
    1SOL     OW 3729   3.831   2.045   1.495  0.0816  0.2991 -0.2119
    1SOL    HW2 3730   3.830   2.140   1.506  0.7278  0.1197  1.7203
    1SOL    HW3 3731   3.752   2.015   1.541  0.0595 -0.1179 -0.5239
    1SOL    MW4 3732   3.820   2.054   1.503  0.1640  0.2203  0.0018
    1SOL     OW 3733   3.809   2.355   1.583 -0.2893 -0.5173 -0.3961
    1SOL    HW2 3734   3.796   2.336   1.676 -1.8385  1.7112 -0.1313
    1SOL    HW3 3735   3.894   2.399   1.580 -1.1757  1.2761  0.2581
    1SOL    MW4 3736   3.819   2.358   1.595 -0.6106  0.0131 -0.2748
    1SOL     OW 3737   3.584   2.466   1.452  0.5590  0.0923 -0.1505
    1SOL    HW2 3738   3.568   2.555   1.483 -0.7414 -0.3481  0.5178
    1SOL    HW3 3739   3.669   2.442   1.489  1.6358  1.5936 -1.6067
    1SOL    MW4 3740   3.593   2.475   1.461  0.5291  0.2322 -0.2543
    1SOL     OW 3741   3.574   2.717   1.584 -0.5952  0.6327  0.1423
    1SOL    HW2 3742   3.571   2.718   1.679 -1.3660  0.2301  0.1223
    1SOL    HW3 3743   3.501   2.773   1.557  0.7591  2.2781 -0.1966
    1SOL    MW4 3744   3.564   2.725   1.593 -0.5181  0.7966  0.0950
    1SOL     OW 3745   3.814   2.841   1.535 -0.3192  0.3580  0.4871
    1SOL    HW2 3746   3.888   2.795   1.574  0.7978 -0.1060 -2.0554
    1SOL    HW3 3747   3.737   2.799   1.572  0.6679 -2.7255 -0.8190
    1SOL    MW4 3748   3.814   2.830   1.545 -0.0415 -0.1101 -0.0206
    1SOL     OW 3749   3.813   3.106   1.628 -0.5761 -0.1849  0.3207
    1SOL    HW2 3750   3.895   3.127   1.583 -1.9028 -1.0358 -2.6108
    1SOL    HW3 3751   3.798   3.014   1.607 -2.2477 -0.0542  0.9167
    1SOL    MW4 3752   3.822   3.096   1.619 -0.9716 -0.2799  0.0125
    1SOL     OW 3753   3.583   3.242   1.531 -0.0398 -0.2936 -0.9332
    1SOL    HW2 3754   3.654   3.189   1.567  0.3708 -0.0664 -1.4058
    1SOL    HW3 3755   3.576   3.214   1.439 -0.9290 -0.7061 -0.7494
    1SOL    MW4 3756   3.592   3.231   1.524 -0.1028 -0.3183 -0.9713
    1SOL     OW 3757   3.628   3.514   1.602 -0.3495 -0.0616 -0.0099
    1SOL    HW2 3758   3.707   3.551   1.563 -0.7117 -0.3689 -1.0509
    1SOL    HW3 3759   3.626   3.423   1.573 -0.1178 -0.5768  1.5278
    1SOL    MW4 3760   3.638   3.507   1.593 -0.3669 -0.1700  0.0557
    1SOL     OW 3761   3.847   3.592   1.482  0.3931  0.2162  0.0254
    1SOL    HW2 3762   3.903   3.526   1.522 -1.1460  0.1130  2.0478
    1SOL    HW3 3763   3.864   3.672   1.532  0.4490  0.7754 -0.8625
    1SOL    MW4 3764   3.857   3.594   1.494  0.1976  0.2763  0.1751
    1SOL     OW 3765   3.839   3.869   1.598 -0.2933  0.2878 -0.2296
    1SOL    HW2 3766   3.918   3.910   1.563 -0.4752  0.5462 -0.3418
    1SOL    HW3 3767   3.769   3.897   1.538 -0.1231 -1.7466 -1.4460
    1SOL    MW4 3768   3.840   3.878   1.585 -0.2949  0.0534 -0.4050
    1SOL     OW 3769   3.641   4.004   1.473  0.0580  0.0185  0.1065
    1SOL    HW2 3770   3.652   4.091   1.513  1.3016 -0.2464  0.3513
    1SOL    HW3 3771   3.563   3.968   1.516 -1.0722  1.4030 -0.7080
    1SOL    MW4 3772   3.632   4.011   1.484  0.0730  0.1669  0.0312
    1SOL     OW 3773   3.664   4.274   1.600 -0.0175 -0.0163 -0.3041
    1SOL    HW2 3774   3.651   4.261   1.694  2.0695  1.8480  0.2655
    1SOL    HW3 3775   3.582   4.314   1.570  0.0272  1.1536  1.0879
    1SOL    MW4 3776   3.651   4.277   1.609  0.2635  0.3839 -0.0452
    1SOL     OW 3777   3.856   4.408   1.459 -0.0477  0.0018 -0.1164
    1SOL    HW2 3778   3.794   4.351   1.504 -1.2155  0.4707 -1.0848
    1SOL    HW3 3779   3.859   4.487   1.514 -0.0889 -0.1341  0.0822
    1SOL    MW4 3780   3.848   4.411   1.472 -0.2069  0.0463 -0.2179
    1SOL     OW 3781   4.255   4.630   1.565  0.2683 -0.9192  0.5350
    1SOL    HW2 3782   4.253   4.645   1.660 -0.8002 -2.0634  0.7059
    1SOL    HW3 3783   4.256   4.535   1.555 -1.3322 -0.8561 -0.6002
    1SOL    MW4 3784   4.255   4.619   1.576 -0.0834 -1.0614  0.4076
    1SOL     OW 3785   4.048   0.122   1.460  0.2391 -0.0259 -0.0280
    1SOL    HW2 3786   4.064   0.209   1.497 -0.5707  0.6179 -1.1168
    1SOL    HW3 3787   4.119   0.068   1.493  0.8095  1.0807  0.5964
    1SOL    MW4 3788   4.059   0.127   1.469  0.2074  0.2051 -0.0893
    1SOL     OW 3789   4.055   0.370   1.581 -0.0020 -0.3832  0.0242
    1SOL    HW2 3790   4.071   0.393   1.672  1.0643  0.3562 -0.3423
    1SOL    HW3 3791   3.967   0.405   1.563 -0.1723 -0.4372  0.7252
    1SOL    MW4 3792   4.045   0.378   1.591  0.1163 -0.2928  0.0683
    1SOL     OW 3793   4.292   0.480   1.468 -0.2319 -0.0858  0.0916
    1SOL    HW2 3794   4.206   0.453   1.501  0.2330 -0.8786  0.6537
    1SOL    HW3 3795   4.354   0.446   1.532  0.4270  1.5963  0.3924
    1SOL    MW4 3796   4.289   0.472   1.481 -0.0834  0.0315  0.2055
    1SOL     OW 3797   4.290   0.755   1.569  0.5611 -0.0130 -0.1715
    1SOL    HW2 3798   4.314   0.667   1.539  0.1001 -0.2377  0.1262
    1SOL    HW3 3799   4.357   0.812   1.530 -0.2670 -0.2533 -1.9847
    1SOL    MW4 3800   4.302   0.751   1.560  0.3910 -0.0743 -0.3715
    1SOL     OW 3801   4.021   0.875   1.497  0.3266 -0.3423 -0.2450
    1SOL    HW2 3802   4.098   0.829   1.532  0.6487  1.1848  1.1515
    1SOL    HW3 3803   3.947   0.836   1.542  0.6406  0.7682  1.3063
    1SOL    MW4 3804   4.022   0.864   1.508  0.4101  0.0057  0.1440
    1SOL     OW 3805   4.022   1.147   1.592 -0.2706  0.2035  0.3247
    1SOL    HW2 3806   4.043   1.144   1.685  1.5533  1.9219  0.0015
    1SOL    HW3 3807   4.029   1.056   1.563  0.8598 -0.1076  1.5115
    1SOL    MW4 3808   4.026   1.134   1.600  0.1192  0.3892  0.4387
    1SOL     OW 3809   4.243   1.278   1.503 -0.3254  0.0576 -0.2941
    1SOL    HW2 3810   4.171   1.219   1.524 -0.4975  0.7507  1.0698
    1SOL    HW3 3811   4.320   1.237   1.544 -0.2644  0.2608 -0.2051
    1SOL    MW4 3812   4.244   1.265   1.511 -0.3395  0.1760 -0.1024
    1SOL     OW 3813   4.243   1.527   1.642 -0.2806  0.5589 -0.4168
    1SOL    HW2 3814   4.243   1.444   1.594  0.5446 -0.8498  1.9171
    1SOL    HW3 3815   4.316   1.576   1.603 -0.1338 -0.2202 -1.1529
    1SOL    MW4 3816   4.253   1.522   1.631 -0.1526  0.2702 -0.2061
    1SOL     OW 3817   4.015   1.635   1.513  0.2881  0.2350  0.1854
    1SOL    HW2 3818   4.093   1.589   1.545  0.1302  0.7158  1.3059
    1SOL    HW3 3819   3.942   1.580   1.542  0.2289 -0.8435 -1.9060
    1SOL    MW4 3820   4.016   1.622   1.521  0.2589  0.1560  0.0572
    1SOL     OW 3821   4.021   1.898   1.625 -0.0888  0.3864  0.7300
    1SOL    HW2 3822   4.010   1.813   1.583  2.2066  0.5199 -0.2204
    1SOL    HW3 3823   3.966   1.957   1.574 -0.1854 -0.1683  0.1876
    1SOL    MW4 3824   4.012   1.895   1.613  0.2012  0.3309  0.5330
    1SOL     OW 3825   4.243   2.033   1.537 -0.1464 -0.2440  0.0999
    1SOL    HW2 3826   4.179   1.971   1.573 -0.9146  0.6172  0.2367
    1SOL    HW3 3827   4.229   2.030   1.443  0.0730 -0.5616  0.0783
    1SOL    MW4 3828   4.233   2.024   1.529 -0.2184 -0.1724  0.1150
    1SOL     OW 3829   4.234   2.288   1.664  0.1957  0.5007  0.1922
    1SOL    HW2 3830   4.238   2.267   1.757 -2.4455 -1.1389 -0.0070
    1SOL    HW3 3831   4.229   2.203   1.620  1.2551  1.2590 -1.4498
    1SOL    MW4 3832   4.234   2.274   1.670 -0.0134  0.3843 -0.0508
    1SOL     OW 3833   4.057   2.459   1.529  0.4803  0.1609  0.0717
    1SOL    HW2 3834   4.070   2.547   1.564  0.5349 -0.1970  0.9674
    1SOL    HW3 3835   4.105   2.402   1.589 -2.9982 -0.9247  1.9573
    1SOL    MW4 3836   4.065   2.463   1.541  0.0281 -0.0296  0.4387
    1SOL     OW 3837   4.052   2.723   1.638 -0.0099  0.0529 -0.1191
    1SOL    HW2 3838   4.048   2.722   1.733 -1.9158  1.5722 -0.1419
    1SOL    HW3 3839   4.143   2.742   1.617  1.2090 -3.9061  1.3309
    1SOL    MW4 3840   4.063   2.726   1.647 -0.1006 -0.2689  0.0693
    1SOL     OW 3841   4.298   2.840   1.565 -0.3597 -0.2660 -0.3183
    1SOL    HW2 3842   4.283   2.931   1.590  1.2779 -0.5965  2.0770
    1SOL    HW3 3843   4.289   2.839   1.470 -0.4752  2.3806 -0.3652
    1SOL    MW4 3844   4.295   2.852   1.556 -0.1583  0.0393 -0.0083
    1SOL     OW 3845   4.244   3.113   1.641 -0.0997  0.1193 -0.2325
    1SOL    HW2 3846   4.255   3.106   1.735 -0.4352 -0.1368 -0.2088
    1SOL    HW3 3847   4.330   3.136   1.607  0.3440 -1.1496  0.0000
    1SOL    MW4 3848   4.257   3.115   1.649 -0.0858 -0.0820 -0.1987
    1SOL     OW 3849   4.051   3.193   1.479 -0.2349  0.4291 -0.3706
    1SOL    HW2 3850   4.063   3.284   1.507 -1.4779  0.3437  0.4857
    1SOL    HW3 3851   4.122   3.146   1.522  0.5363  1.0176 -0.9803
    1SOL    MW4 3852   4.062   3.199   1.489 -0.2971  0.4954 -0.3381
    1SOL     OW 3853   4.063   3.480   1.599  0.7691 -0.2508 -0.2390
    1SOL    HW2 3854   4.062   3.499   1.693  0.0021 -0.3903 -0.2109
    1SOL    HW3 3855   4.147   3.512   1.568  1.1864 -0.5562  0.5720
    1SOL    MW4 3856   4.074   3.487   1.607  0.7229 -0.3095 -0.1281
    1SOL     OW 3857   4.316   3.601   1.495 -0.1864  0.1283 -0.2692
    1SOL    HW2 3858   4.303   3.694   1.516  0.2598  0.2623 -0.5816
    1SOL    HW3 3859   4.283   3.592   1.406  1.7114  0.4417 -1.0200
    1SOL    MW4 3860   4.310   3.612   1.486  0.1230  0.1872 -0.4095
    1SOL     OW 3861   4.261   3.868   1.583 -0.0317 -0.0716 -0.6572
    1SOL    HW2 3862   4.181   3.906   1.547  0.6999  2.3746  0.2394
    1SOL    HW3 3863   4.332   3.913   1.538  0.8578 -0.0156  0.7871
    1SOL    MW4 3864   4.259   3.879   1.572  0.1822  0.2587 -0.3484
    1SOL     OW 3865   4.055   4.001   1.477 -0.2900  0.0250 -0.1199
    1SOL    HW2 3866   4.052   4.091   1.508  1.7711  0.4109 -0.9654
    1SOL    HW3 3867   4.077   4.009   1.384  0.9266 -1.3967  0.0398
    1SOL    MW4 3868   4.057   4.014   1.469  0.1421 -0.1116 -0.2104
    1SOL     OW 3869   4.052   4.259   1.590 -0.4490 -0.0514  0.1576
    1SOL    HW2 3870   4.047   4.265   1.685  1.3386  0.6998  0.2087
    1SOL    HW3 3871   3.979   4.314   1.559  0.2207  1.3807  1.0693
    1SOL    MW4 3872   4.041   4.267   1.598 -0.1254  0.2360  0.2847
    1SOL     OW 3873   4.294   4.359   1.494  0.1428 -0.1313 -0.4801
    1SOL    HW2 3874   4.215   4.312   1.523  0.6159  0.0694  1.2154
    1SOL    HW3 3875   4.273   4.390   1.407 -1.3469 -0.8217 -0.3855
    1SOL    MW4 3876   4.281   4.357   1.487  0.0091 -0.1965 -0.2439
    1SOL     OW 3877   0.180   0.004   1.893  0.2912  0.0566  0.4690
    1SOL    HW2 3878   0.266   0.035   1.919  0.7322 -0.8368  0.0901
    1SOL    HW3 3879   0.187  -0.011   1.798 -0.3334  0.1643  0.4017
    1SOL    MW4 3880   0.192   0.006   1.884  0.2670 -0.0472  0.4101
    1SOL     OW 3881   4.439   0.124   2.005 -0.1728 -0.0405  0.0867
    1SOL    HW2 3882   4.444   0.214   1.973  0.4655  0.7288  2.2301
    1SOL    HW3 3883   4.516   0.081   1.968  0.0713  0.5763 -0.1333
    1SOL    MW4 3884   4.449   0.131   1.996 -0.0563  0.1424  0.3403
    1SOL     OW 3885   4.487   0.381   1.905  0.1421  0.1851  0.1849
    1SOL    HW2 3886   4.424   0.443   1.941 -0.8625 -1.5033  1.4094
    1SOL    HW3 3887   4.573   0.419   1.924 -0.4531  0.7997  1.6750
    1SOL    MW4 3888   4.490   0.394   1.912 -0.0691  0.0435  0.5431
    1SOL     OW 3889   0.232   0.523   1.984  0.0381  0.3927 -0.2270
    1SOL    HW2 3890   0.313   0.482   1.956  0.0010 -0.8154  1.4186
    1SOL    HW3 3891   0.247   0.617   1.972  0.7788  0.0538 -2.2311
    1SOL    MW4 3892   0.244   0.530   1.978  0.1310  0.1886 -0.2744
    1SOL     OW 3893   0.262   0.776   1.904  0.2659  0.2846  0.0298
    1SOL    HW2 3894   0.328   0.837   1.935  1.3975 -0.5670 -0.6516
    1SOL    HW3 3895   0.265   0.784   1.809  0.1712 -0.5558 -0.0478
    1SOL    MW4 3896   0.271   0.785   1.896  0.4027  0.0614 -0.0703
    1SOL     OW 3897   4.486   0.911   1.995 -0.0534  0.5688 -0.2575
    1SOL    HW2 3898   4.417   0.873   1.940 -0.5987  1.2787 -0.0755
    1SOL    HW3 3899   4.568   0.880   1.957 -0.4983 -1.2150  0.1886
    1SOL    MW4 3900   4.488   0.902   1.983 -0.1840  0.4271 -0.1748
    1SOL     OW 3901   4.489   1.171   1.893 -0.4491 -0.2532  0.6153
    1SOL    HW2 3902   4.407   1.213   1.921  0.5416  0.6111  2.2516
    1SOL    HW3 3903   4.491   1.087   1.939  0.0232  0.1305  1.3048
    1SOL    MW4 3904   4.478   1.166   1.903 -0.2560 -0.0887  0.9223
    1SOL     OW 3905   0.233   1.286   2.000  0.3307 -0.4693  0.2679
    1SOL    HW2 3906   0.227   1.376   1.968  1.0147 -0.3866  0.3649
    1SOL    HW3 3907   0.160   1.240   1.958 -0.9634  0.4948  1.3992
    1SOL    MW4 3908   0.222   1.292   1.991  0.2502 -0.3312  0.4300
    1SOL     OW 3909   0.214   1.529   1.887 -0.3578  0.5463  0.1273
    1SOL    HW2 3910   0.295   1.577   1.905 -0.5489  0.8746  0.1005
    1SOL    HW3 3911   0.144   1.590   1.909 -0.5980  0.8648 -1.4725
    1SOL    MW4 3912   0.215   1.543   1.892 -0.4147  0.6316 -0.0875
    1SOL     OW 3913   4.477   1.660   1.995 -0.4894  0.1226  0.1125
    1SOL    HW2 3914   4.467   1.656   2.090 -0.2134  0.0610  0.1377
    1SOL    HW3 3915   4.399   1.615   1.961 -0.5058  0.0029  0.3089
    1SOL    MW4 3916   4.465   1.654   2.003 -0.4551  0.0987  0.1416
    1SOL     OW 3917   4.477   1.918   1.896  0.5657 -0.1284  0.1291
    1SOL    HW2 3918   4.403   1.959   1.941  2.4122  1.9326  1.4063
    1SOL    HW3 3919   4.483   1.831   1.935 -0.0507  0.3499  1.3201
    1SOL    MW4 3920   4.468   1.912   1.907  0.7286  0.2067  0.4548
    1SOL     OW 3921   0.205   2.052   1.986 -0.0169  0.1168  0.0100
    1SOL    HW2 3922   0.187   2.135   1.942  1.4366 -0.1466 -1.0958
    1SOL    HW3 3923   0.128   1.998   1.968 -1.6099  1.6524  1.8882
    1SOL    MW4 3924   0.192   2.056   1.978 -0.0353  0.2844  0.1118
    1SOL     OW 3925   0.197   2.317   1.867 -0.0683  0.2630 -0.0779
    1SOL    HW2 3926   0.280   2.364   1.873  0.8331 -1.5296  1.8952
    1SOL    HW3 3927   0.139   2.362   1.928 -0.7377  1.7674 -1.7496
    1SOL    MW4 3928   0.200   2.329   1.876 -0.0377  0.2251 -0.0380
    1SOL     OW 3929   0.019   2.437   2.031 -0.1164 -0.1909  0.2933
    1SOL    HW2 3930  -0.008   2.465   2.118 -0.6070  0.4147 -0.0488
    1SOL    HW3 3931   0.035   2.518   1.983  0.4993 -0.5213 -0.0778
    1SOL    MW4 3932   0.018   2.451   2.036 -0.0999 -0.1545  0.1988
    1SOL     OW 3933   0.020   2.686   1.912  0.0101 -0.1149  0.2943
    1SOL    HW2 3934  -0.052   2.746   1.932 -0.1160  0.0435 -0.6420
    1SOL    HW3 3935   0.008   2.662   1.821  0.6091 -0.8308  0.3912
    1SOL    MW4 3936   0.009   2.691   1.903  0.0730 -0.1886  0.1836
    1SOL     OW 3937   0.238   2.844   1.999 -0.2228  0.1331  0.8668
    1SOL    HW2 3938   0.231   2.935   1.969  1.3766 -0.2959 -0.9341
    1SOL    HW3 3939   0.162   2.800   1.960  0.2280  0.2241 -0.1318
    1SOL    MW4 3940   0.227   2.850   1.990  0.0477  0.0882  0.4975
    1SOL     OW 3941   0.194   3.104   1.882  0.1145 -0.1153 -0.1167
    1SOL    HW2 3942   0.267   3.151   1.921 -1.6066  2.1075  0.5672
    1SOL    HW3 3943   0.208   3.114   1.787  0.6612  0.3645  0.0087
    1SOL    MW4 3944   0.205   3.112   1.874 -0.0405  0.2410 -0.0099
    1SOL     OW 3945   4.472   3.245   1.994  0.0439 -0.1680 -0.2201
    1SOL    HW2 3946   4.402   3.190   1.961 -0.6980  1.4377 -1.3903
    1SOL    HW3 3947   4.552   3.194   1.980 -0.7904 -1.6518  0.3355
    1SOL    MW4 3948   4.473   3.231   1.988 -0.1641 -0.1516 -0.3014
    1SOL     OW 3949   0.004   3.468   1.848 -0.1659 -0.4736 -0.4093
    1SOL    HW2 3950   0.071   3.526   1.887  0.0472 -1.1163  0.1958
    1SOL    HW3 3951   0.024   3.382   1.884 -0.8922 -0.8010 -0.7925
    1SOL    MW4 3952   0.016   3.464   1.858 -0.2336 -0.6013 -0.3799
    1SOL     OW 3953   0.211   3.630   1.955  0.1107  0.1967  0.3243
    1SOL    HW2 3954   0.195   3.639   2.049  1.1677  2.2689  0.3387
    1SOL    HW3 3955   0.287   3.572   1.948 -1.3596 -1.8229  0.6265
    1SOL    MW4 3956   0.219   3.624   1.966  0.0562  0.2038  0.3662
    1SOL     OW 3957   0.257   3.883   1.863  0.1074 -0.2575 -0.1789
    1SOL    HW2 3958   0.334   3.920   1.907  0.0567 -1.0248  0.5680
    1SOL    HW3 3959   0.250   3.794   1.898 -0.8830 -0.3282 -0.5467
    1SOL    MW4 3960   0.267   3.876   1.874 -0.0300 -0.3681 -0.1290
    1SOL     OW 3961   0.022   4.009   1.944  0.0456  0.3063  0.0756
    1SOL    HW2 3962   0.015   4.102   1.924 -0.0856  0.4877  0.9344
    1SOL    HW3 3963   0.108   3.983   1.911  0.3288  0.8727  0.3705
    1SOL    MW4 3964   0.033   4.018   1.937  0.0656  0.4053  0.2279
    1SOL     OW 3965   4.469   4.285   1.892 -0.0304 -0.0570 -0.3790
    1SOL    HW2 3966   4.392   4.336   1.918 -0.2401 -0.5055 -0.1023
    1SOL    HW3 3967   4.543   4.331   1.931 -0.4023 -1.1301  1.6772
    1SOL    MW4 3968   4.468   4.298   1.901 -0.1068 -0.2575 -0.0714
    1SOL     OW 3969   0.206   4.404   1.962  0.2069  0.0043 -0.1501
    1SOL    HW2 3970   0.215   4.405   2.057 -0.5378  0.6168 -0.0789
    1SOL    HW3 3971   0.195   4.496   1.938 -1.2836 -0.2885 -0.6528
    1SOL    MW4 3972   0.205   4.417   1.971 -0.0880  0.0463 -0.2071
    1SOL     OW 3973   0.640   4.648   1.814 -0.0879 -0.0007  0.5481
    1SOL    HW2 3974   0.621   4.559   1.842  2.1003 -0.6054  0.1699
    1SOL    HW3 3975   0.652   4.642   1.719  1.1484  0.4841  0.6665
    1SOL    MW4 3976   0.639   4.636   1.805  0.3639 -0.0167  0.5138
    1SOL     OW 3977   0.422   0.107   1.936 -0.0809  0.5836  0.0845
    1SOL    HW2 3978   0.431   0.197   1.906 -0.4578  0.3789 -0.6537
    1SOL    HW3 3979   0.492   0.060   1.890  1.4580  0.8715  2.0430
    1SOL    MW4 3980   0.432   0.112   1.926  0.0724  0.5945  0.2456
    1SOL     OW 3981   0.460   0.368   1.866  0.3023 -0.0040  0.3578
    1SOL    HW2 3982   0.539   0.419   1.886  2.2668 -2.8011  0.0753
    1SOL    HW3 3983   0.457   0.367   1.770  0.5087 -0.7184  0.3540
    1SOL    MW4 3984   0.470   0.374   1.856  0.5887 -0.4673  0.3200
    1SOL     OW 3985   0.669   0.527   1.951  0.2153 -0.2833 -1.1919
    1SOL    HW2 3986   0.670   0.498   2.043 -0.9101 -0.4926 -1.2411
    1SOL    HW3 3987   0.734   0.472   1.908 -0.7712 -1.6491 -0.9586
    1SOL    MW4 3988   0.678   0.516   1.958 -0.0633 -0.4911 -1.1675
    1SOL     OW 3989   0.635   0.787   1.866 -0.5168 -0.1342  0.5518
    1SOL    HW2 3990   0.711   0.837   1.896  0.9014 -0.7995 -1.8123
    1SOL    HW3 3991   0.650   0.699   1.900 -0.6021 -0.0947  0.6927
    1SOL    MW4 3992   0.647   0.782   1.875 -0.3410 -0.2167  0.2586
    1SOL     OW 3993   0.458   0.932   2.018 -0.0241  0.0180 -0.0888
    1SOL    HW2 3994   0.460   0.904   2.110 -1.1235 -1.9143 -0.6182
    1SOL    HW3 3995   0.522   0.876   1.975 -0.0133  0.4393 -0.6218
    1SOL    MW4 3996   0.466   0.921   2.024 -0.1677 -0.1813 -0.2289
    1SOL     OW 3997   0.443   1.169   1.881  0.0155 -0.0943 -0.1273
    1SOL    HW2 3998   0.368   1.218   1.916  0.1125 -0.8100  1.1208
    1SOL    HW3 3999   0.453   1.095   1.941 -0.7199 -2.2010 -2.5265
    1SOL    MW4 4000   0.434   1.166   1.893 -0.0688 -0.4667 -0.2792
    1SOL     OW 4001   0.659   1.326   1.968 -0.1827  0.2488  0.2302
    1SOL    HW2 4002   0.652   1.323   2.064 -1.5197  1.6690  0.1926
    1SOL    HW3 4003   0.592   1.265   1.938  0.5483 -0.5461  0.1977
    1SOL    MW4 4004   0.649   1.317   1.977 -0.2626  0.3312  0.2209
    1SOL     OW 4005   0.655   1.576   1.827  0.0991 -0.3359  0.2001
    1SOL    HW2 4006   0.652   1.495   1.878 -0.4603  0.3333  1.2542
    1SOL    HW3 4007   0.632   1.549   1.738  0.1398 -1.3639  0.4913
    1SOL    MW4 4008   0.652   1.562   1.822  0.0307 -0.3833  0.3775
    1SOL     OW 4009   0.435   1.684   1.931  0.1600 -0.0995  0.0265
    1SOL    HW2 4010   0.436   1.694   2.027  0.8281 -0.1358  0.0269
    1SOL    HW3 4011   0.519   1.644   1.911 -0.6052 -1.4940 -0.4410
    1SOL    MW4 4012   0.446   1.680   1.941  0.1472 -0.2884 -0.0350
    1SOL     OW 4013   0.455   1.966   1.863  0.2978  0.1156 -0.0455
    1SOL    HW2 4014   0.457   1.874   1.887  1.0587  0.1830  0.1539
    1SOL    HW3 4015   0.380   2.002   1.911 -0.3622 -0.5266 -0.5990
    1SOL    MW4 4016   0.445   1.959   1.873  0.3111  0.0399 -0.0923
    1SOL     OW 4017   0.666   2.118   1.934 -0.4246  0.4891 -0.2802
    1SOL    HW2 4018   0.667   2.125   2.030 -1.0516  2.4777 -0.3900
    1SOL    HW3 4019   0.589   2.066   1.914 -1.3383  1.6404  0.2288
    1SOL    MW4 4020   0.656   2.112   1.944 -0.6279  0.9034 -0.2275
    1SOL     OW 4021   0.673   2.381   1.847 -0.2842 -0.2002 -0.5711
    1SOL    HW2 4022   0.678   2.293   1.884 -1.4345  0.4023  1.0775
    1SOL    HW3 4023   0.671   2.367   1.753  0.9300 -1.8701 -0.3835
    1SOL    MW4 4024   0.673   2.368   1.840 -0.2757 -0.3409 -0.3289
    1SOL     OW 4025   0.418   2.460   1.908 -0.3000  0.3270 -0.0590
    1SOL    HW2 4026   0.423   2.458   2.003 -0.3192  0.7848 -0.0478
    1SOL    HW3 4027   0.505   2.430   1.879 -0.9020 -1.6546  0.0782
    1SOL    MW4 4028   0.430   2.456   1.917 -0.3820  0.1259 -0.0395
    1SOL     OW 4029   0.448   2.725   1.862 -0.3154 -0.1651  0.1204
    1SOL    HW2 4030   0.450   2.633   1.890 -0.5794 -0.3284 -0.3920
    1SOL    HW3 4031   0.380   2.764   1.917 -1.6105 -0.7391 -1.0418
    1SOL    MW4 4032   0.439   2.718   1.873 -0.5211 -0.2623 -0.1005
    1SOL     OW 4033   0.709   2.813   1.939  0.2793 -0.2963  0.2690
    1SOL    HW2 4034   0.697   2.819   2.034 -1.0437 -1.3263  0.1728
    1SOL    HW3 4035   0.627   2.776   1.906  0.6985  0.1111 -1.2905
    1SOL    MW4 4036   0.697   2.809   1.947  0.1601 -0.3784  0.0505
    1SOL     OW 4037   0.617   3.085   1.888  0.5985  0.2872  0.7569
    1SOL    HW2 4038   0.653   2.997   1.901  0.0834  0.2405  1.9092
    1SOL    HW3 4039   0.639   3.107   1.798 -2.6417 -2.6418 -0.8664
    1SOL    MW4 4040   0.624   3.076   1.878  0.1030 -0.1054  0.6946
    1SOL     OW 4041   0.399   3.242   2.006 -0.5272 -0.3491  0.2817
    1SOL    HW2 4042   0.393   3.330   1.967 -1.0653 -0.8394 -0.7414
    1SOL    HW3 4043   0.468   3.199   1.957 -1.7095 -1.2215 -0.6279
    1SOL    MW4 4044   0.407   3.248   1.995 -0.7542 -0.5293  0.0266
    1SOL     OW 4045   0.449   3.486   1.888  0.0727 -0.3754 -0.1358
    1SOL    HW2 4046   0.533   3.519   1.920  0.0879 -0.6870  0.1425
    1SOL    HW3 4047   0.454   3.497   1.793 -0.0164  0.6563 -0.0336
    1SOL    MW4 4048   0.461   3.492   1.880  0.0629 -0.2806 -0.0857
    1SOL     OW 4049   0.689   3.592   1.985 -0.2843  0.0826 -0.0799
    1SOL    HW2 4050   0.767   3.542   1.960 -0.2534 -0.0385  0.2529
    1SOL    HW3 4051   0.693   3.672   1.933 -0.2023 -0.1524 -0.4346
    1SOL    MW4 4052   0.699   3.596   1.975 -0.2694  0.0358 -0.0826
    1SOL     OW 4053   0.682   3.820   1.831  0.1931 -0.3737 -0.0620
    1SOL    HW2 4054   0.762   3.864   1.859  0.4888 -1.2068  0.3829
    1SOL    HW3 4055   0.670   3.850   1.741  0.9772 -0.2077 -0.1194
    1SOL    MW4 4056   0.691   3.830   1.823  0.3356 -0.4616 -0.0110
    1SOL     OW 4057   0.497   3.966   1.984 -0.0404  0.3341 -0.3121
    1SOL    HW2 4058   0.490   4.050   1.939  0.0328 -0.3810 -1.6685
    1SOL    HW3 4059   0.554   3.913   1.929 -0.5209 -0.8000  0.2516
    1SOL    MW4 4060   0.503   3.970   1.971 -0.0942  0.0899 -0.4166
    1SOL     OW 4061   0.409   4.213   1.890  0.2019 -0.0714 -0.0444
    1SOL    HW2 4062   0.342   4.276   1.917  0.0427 -0.4709  0.4911
    1SOL    HW3 4063   0.418   4.226   1.795 -0.0805  0.5121  0.0092
    1SOL    MW4 4064   0.402   4.223   1.881  0.1436 -0.0467  0.0335
    1SOL     OW 4065   0.616   4.400   1.937  0.4979 -0.0566  0.3082
    1SOL    HW2 4066   0.697   4.351   1.922  0.5091 -0.3702  1.3243
    1SOL    HW3 4067   0.549   4.333   1.948 -0.0864  0.2193 -1.4531
    1SOL    MW4 4068   0.618   4.385   1.936  0.4224 -0.0620  0.2099
    1SOL     OW 4069   1.092   4.626   1.872 -0.3047  0.1811  0.3018
    1SOL    HW2 4070   1.158   4.680   1.915  0.8094  0.0517 -1.2181
    1SOL    HW3 4071   1.100   4.541   1.915  0.9812 -0.0230 -0.3189
    1SOL    MW4 4072   1.101   4.622   1.883  0.0119  0.1373  0.0193
    1SOL     OW 4073   0.877   0.108   1.938  0.3349  0.0192  0.3484
    1SOL    HW2 4074   0.949   0.050   1.914  0.6828  1.5818 -2.5090
    1SOL    HW3 4075   0.799   0.064   1.906  0.3526 -0.0240  0.3646
    1SOL    MW4 4076   0.876   0.095   1.931  0.3831  0.2197 -0.0263
    1SOL     OW 4077   0.865   0.380   1.850  0.1608  0.1725  0.5100
    1SOL    HW2 4078   0.944   0.405   1.899 -0.2124  2.3578  0.0533
    1SOL    HW3 4079   0.852   0.288   1.872  2.4712 -0.0581  1.1001
    1SOL    MW4 4080   0.874   0.371   1.860  0.4163  0.4304  0.5276
    1SOL     OW 4081   1.092   0.466   1.964 -0.6053 -0.0885  0.2841
    1SOL    HW2 4082   1.171   0.432   1.922 -0.5309  0.5763 -0.1340
    1SOL    HW3 4083   1.083   0.555   1.928 -1.0674  0.1437  0.9660
    1SOL    MW4 4084   1.102   0.474   1.954 -0.6565  0.0299  0.3189
    1SOL     OW 4085   1.094   0.731   1.873  0.9368  0.0738 -0.1968
    1SOL    HW2 4086   1.172   0.787   1.878  0.7983  0.1326  1.4999
    1SOL    HW3 4087   1.022   0.787   1.899  0.6114 -0.5387  0.2377
    1SOL    MW4 4088   1.095   0.745   1.877  0.8757  0.0007  0.0844
    1SOL     OW 4089   0.886   0.895   1.963  0.1669 -0.1132 -0.0022
    1SOL    HW2 4090   0.894   0.884   2.058  0.8999  0.6028  0.0207
    1SOL    HW3 4091   0.868   0.989   1.952 -0.5318 -0.3051 -0.5377
    1SOL    MW4 4092   0.884   0.906   1.974  0.1714 -0.0440 -0.0699
    1SOL     OW 4093   0.854   1.142   1.872  0.2963 -0.0356 -0.3408
    1SOL    HW2 4094   0.784   1.207   1.886  0.5884  0.2190 -0.0500
    1SOL    HW3 4095   0.863   1.136   1.777 -1.1336 -1.1524 -0.4189
    1SOL    MW4 4096   0.846   1.150   1.862  0.1462 -0.1494 -0.3128
    1SOL     OW 4097   1.097   1.251   1.959 -0.4202  0.0883  0.0189
    1SOL    HW2 4098   1.088   1.340   1.927 -0.0740 -0.5166 -1.7825
    1SOL    HW3 4099   1.015   1.208   1.935 -1.1669  0.2530  2.0926
    1SOL    MW4 4100   1.085   1.257   1.952 -0.4730  0.0303  0.0547
    1SOL     OW 4101   1.099   1.498   1.869  0.0858 -0.4773  0.2128
    1SOL    HW2 4102   1.034   1.563   1.896  1.2762  0.2675  1.3945
    1SOL    HW3 4103   1.100   1.503   1.774  0.0947  1.2144  0.2823
    1SOL    MW4 4104   1.091   1.507   1.860  0.2440 -0.1557  0.3779
    1SOL     OW 4105   0.896   1.677   1.943  0.1016  0.2254  0.4196
    1SOL    HW2 4106   0.898   1.772   1.935  1.1283  0.0352 -2.4884
    1SOL    HW3 4107   0.808   1.652   1.912 -0.0032  0.2108  0.7322
    1SOL    MW4 4108   0.885   1.686   1.938  0.2233  0.1982  0.0770
    1SOL     OW 4109   0.873   1.951   1.868 -0.4792 -0.3031 -0.1210
    1SOL    HW2 4110   0.795   2.005   1.886 -0.5547  0.2754 -1.9681
    1SOL    HW3 4111   0.871   1.939   1.773  2.3690  0.7581 -0.3665
    1SOL    MW4 4112   0.862   1.957   1.857 -0.1132 -0.0869 -0.3971
    1SOL     OW 4113   1.122   2.043   1.952  0.0219 -0.1576 -0.5666
    1SOL    HW2 4114   1.125   2.111   1.885 -0.5295  0.3298 -0.1041
    1SOL    HW3 4115   1.034   2.005   1.943 -0.4283  0.5910  0.5319
    1SOL    MW4 4116   1.110   2.047   1.942 -0.1103  0.0055 -0.3607
    1SOL     OW 4117   1.171   2.294   1.810 -0.8259 -0.0565  0.2556
    1SOL    HW2 4118   1.240   2.346   1.851 -0.5106 -0.7181  0.5724
    1SOL    HW3 4119   1.181   2.310   1.716  0.4452 -0.9728  0.2237
    1SOL    MW4 4120   1.181   2.303   1.803 -0.6166 -0.2649  0.2930
    1SOL     OW 4121   0.936   2.464   1.917  0.2888  0.1713  0.0247
    1SOL    HW2 4122   0.996   2.409   1.867  0.7846  0.6391  0.1071
    1SOL    HW3 4123   0.850   2.445   1.879  0.4493 -0.6563  0.0479
    1SOL    MW4 4124   0.933   2.454   1.905  0.3754  0.1237  0.0387
    1SOL     OW 4125   0.965   2.720   1.828 -0.3587  0.1547 -0.4193
    1SOL    HW2 4126   0.976   2.632   1.863  0.4197  0.1981 -0.5604
    1SOL    HW3 4127   0.895   2.759   1.881 -0.0106 -0.1970  0.2927
    1SOL    MW4 4128   0.957   2.714   1.840 -0.2100  0.1140 -0.3440
    1SOL     OW 4129   1.154   2.873   1.969  0.0236 -0.3077  0.2665
    1SOL    HW2 4130   1.135   2.847   2.059  0.0342 -0.5023  0.2146
    1SOL    HW3 4131   1.096   2.818   1.916  0.3114 -0.4864  0.1355
    1SOL    MW4 4132   1.144   2.862   1.974  0.0631 -0.3572  0.2425
    1SOL     OW 4133   1.125   3.117   1.862 -0.1526 -0.1270  0.1674
    1SOL    HW2 4134   1.047   3.159   1.899 -0.4039 -0.3012 -0.1538
    1SOL    HW3 4135   1.130   3.033   1.908  0.0856  0.0596  0.4834
    1SOL    MW4 4136   1.115   3.111   1.873 -0.1544 -0.1252  0.1667
    1SOL     OW 4137   0.865   3.215   1.968 -0.1061 -0.1164  0.0721
    1SOL    HW2 4138   0.874   3.225   2.062 -0.0140  2.0508 -0.1467
    1SOL    HW3 4139   0.782   3.170   1.956 -0.3683  0.0753  1.1605
    1SOL    MW4 4140   0.856   3.210   1.979 -0.1286  0.1950  0.1869
    1SOL     OW 4141   0.909   3.473   1.891  0.3065 -0.4477 -0.5634
    1SOL    HW2 4142   0.874   3.387   1.916  0.4954  0.1830  1.9645
    1SOL    HW3 4143   0.898   3.476   1.796 -0.6751 -2.8385 -0.5658
    1SOL    MW4 4144   0.903   3.462   1.881  0.2019 -0.6800 -0.2301
    1SOL     OW 4145   1.140   3.610   1.956  0.5060  0.3320 -0.2474
    1SOL    HW2 4146   1.120   3.622   2.049  0.6924  0.4986 -0.2304
    1SOL    HW3 4147   1.058   3.579   1.919  0.3679  0.4798 -0.0685
    1SOL    MW4 4148   1.126   3.607   1.964  0.5124  0.3734 -0.2215
    1SOL     OW 4149   1.152   3.889   1.911  0.5123  0.4283 -0.1591
    1SOL    HW2 4150   1.164   3.795   1.924  0.5895  0.3795 -0.5628
    1SOL    HW3 4151   1.139   3.899   1.816  3.9548  1.1866 -0.6317
    1SOL    MW4 4152   1.152   3.878   1.900  0.9767  0.5217 -0.2747
    1SOL     OW 4153   0.880   3.981   1.970  0.2581  0.5752  0.0688
    1SOL    HW2 4154   0.878   3.980   2.066 -0.8066  3.5605  0.1395
    1SOL    HW3 4155   0.970   3.959   1.947  0.7026  0.5195  1.7996
    1SOL    MW4 4156   0.891   3.978   1.980  0.1763  0.9615  0.3065
    1SOL     OW 4157   0.847   4.267   1.892 -0.4259  0.3394 -0.1642
    1SOL    HW2 4158   0.924   4.301   1.939  0.0808  0.7143 -1.2356
    1SOL    HW3 4159   0.850   4.173   1.906  0.2658  0.3466 -0.2423
    1SOL    MW4 4160   0.858   4.259   1.900 -0.2678  0.3901 -0.3158
    1SOL     OW 4161   1.100   4.374   1.984 -0.3865 -0.1514 -0.4013
    1SOL    HW2 4162   1.111   4.366   2.079  0.0312  0.9898 -0.3468
    1SOL    HW3 4163   1.178   4.333   1.947 -0.0568  0.3157 -0.2255
    1SOL    MW4 4164   1.111   4.368   1.992 -0.2879  0.0610 -0.3711
    1SOL     OW 4165   1.543   4.639   1.856 -0.1092  0.3918  0.6633
    1SOL    HW2 4166   1.619   4.688   1.889  1.3073  1.0635 -3.3221
    1SOL    HW3 4167   1.559   4.549   1.883  1.3547  0.7741  1.1025
    1SOL    MW4 4168   1.555   4.634   1.864  0.2708  0.5312  0.1955
    1SOL     OW 4169   1.319   0.121   1.962  0.3007 -0.4869 -0.0936
    1SOL    HW2 4170   1.316   0.126   2.057 -0.1591 -2.6457  0.0382
    1SOL    HW3 4171   1.398   0.069   1.944  0.8135  0.5654 -0.9308
    1SOL    MW4 4172   1.329   0.115   1.972  0.3076 -0.6329 -0.1867
    1SOL     OW 4173   1.344   0.380   1.847 -0.4168 -0.4696  0.3473
    1SOL    HW2 4174   1.339   0.293   1.887 -0.9759 -0.9434 -0.7167
    1SOL    HW3 4175   1.359   0.362   1.754 -2.0181  0.5333 -0.1237
    1SOL    MW4 4176   1.345   0.366   1.840 -0.7018 -0.3998  0.1446
    1SOL     OW 4177   1.540   0.512   1.973 -0.2870 -0.3056 -0.0185
    1SOL    HW2 4178   1.622   0.472   1.943 -1.1990 -0.9453 -1.7108
    1SOL    HW3 4179   1.471   0.464   1.927 -1.5078  1.7480 -0.4155
    1SOL    MW4 4180   1.542   0.500   1.963 -0.5683 -0.1190 -0.2942
    1SOL     OW 4181   1.535   0.733   1.824 -0.0185 -0.6508 -0.4763
    1SOL    HW2 4182   1.603   0.791   1.858 -1.6442  0.7622  0.4636
    1SOL    HW3 4183   1.538   0.656   1.881 -1.5570  0.9566  1.8674
    1SOL    MW4 4184   1.544   0.731   1.836 -0.4359 -0.2523 -0.0429
    1SOL     OW 4185   1.332   0.894   1.902 -0.5588 -0.4573 -0.0716
    1SOL    HW2 4186   1.343   0.878   1.995 -1.2027  1.3504  0.3253
    1SOL    HW3 4187   1.401   0.842   1.860  0.6748 -0.0972  1.4933
    1SOL    MW4 4188   1.342   0.885   1.909 -0.4810 -0.1712  0.1873
    1SOL     OW 4189   1.337   1.155   1.857 -0.3274 -0.3209  0.2186
    1SOL    HW2 4190   1.332   1.061   1.872 -0.4362 -0.3604 -0.0694
    1SOL    HW3 4191   1.256   1.190   1.896 -0.2771 -0.3433  0.3435
    1SOL    MW4 4192   1.325   1.147   1.864 -0.3350 -0.3290  0.1971
    1SOL     OW 4193   1.585   1.274   1.960  0.2271  0.0775  0.1239
    1SOL    HW2 4194   1.569   1.360   1.922 -0.7813 -0.7271 -1.3654
    1SOL    HW3 4195   1.501   1.228   1.952  0.2260 -0.4317  2.5810
    1SOL    MW4 4196   1.572   1.279   1.954  0.0938 -0.0958  0.2515
    1SOL     OW 4197   1.541   1.517   1.833  0.2960  0.1164 -0.2140
    1SOL    HW2 4198   1.620   1.555   1.871 -0.4893  1.7197 -0.1581
    1SOL    HW3 4199   1.469   1.567   1.871 -0.7057 -0.7073 -0.9811
    1SOL    MW4 4200   1.542   1.528   1.843  0.0601  0.2192 -0.3079
    1SOL     OW 4201   1.320   1.656   1.953  0.5646 -0.1586  0.3687
    1SOL    HW2 4202   1.336   1.638   2.045  0.1872 -1.4112  0.1942
    1SOL    HW3 4203   1.239   1.610   1.933  1.0863 -0.5914 -0.8003
    1SOL    MW4 4204   1.312   1.648   1.963  0.5836 -0.3809  0.1913
    1SOL     OW 4205   1.311   1.904   1.817 -0.6892  0.0390  0.0558
    1SOL    HW2 4206   1.326   1.816   1.852 -0.4421 -0.7729 -2.0341
    1SOL    HW3 4207   1.247   1.942   1.877 -1.3699 -1.8331  0.5782
    1SOL    MW4 4208   1.305   1.897   1.829 -0.7464 -0.3153 -0.1509
    1SOL     OW 4209   1.525   2.004   1.946  0.2870 -0.0818 -0.2287
    1SOL    HW2 4210   1.552   2.088   1.910 -1.0858  0.5899  0.2857
    1SOL    HW3 4211   1.459   1.972   1.885  0.2688 -0.4285 -0.0279
    1SOL    MW4 4212   1.520   2.011   1.933  0.1035 -0.0389 -0.1345
    1SOL     OW 4213   1.594   2.248   1.823 -0.6010 -0.1271  0.2802
    1SOL    HW2 4214   1.661   2.311   1.851 -1.2242  0.6824  0.0007
    1SOL    HW3 4215   1.579   2.269   1.731 -1.6964  0.1308  0.5078
    1SOL    MW4 4216   1.601   2.259   1.815 -0.8278  0.0136  0.2733
    1SOL     OW 4217   1.378   2.411   1.957 -0.0321  0.4744  0.4290
    1SOL    HW2 4218   1.390   2.501   1.924  0.1243 -0.2560 -1.5789
    1SOL    HW3 4219   1.450   2.362   1.917 -1.1705 -0.9140  0.0703
    1SOL    MW4 4220   1.389   2.417   1.947 -0.1616  0.1948  0.1167
    1SOL     OW 4221   1.357   2.698   1.868  0.2164 -0.1378 -0.0581
    1SOL    HW2 4222   1.314   2.778   1.898  0.5051 -0.1164  0.3096
    1SOL    HW3 4223   1.345   2.698   1.773 -0.5810 -0.1289  0.0414
    1SOL    MW4 4224   1.350   2.708   1.859  0.1493 -0.1338  0.0035
    1SOL     OW 4225   1.601   2.837   1.962 -0.3503 -0.5129 -0.1448
    1SOL    HW2 4226   1.683   2.796   1.935  0.7058  0.4328  1.4897
    1SOL    HW3 4227   1.533   2.782   1.926  1.0238 -1.8034 -0.8124
    1SOL    MW4 4228   1.603   2.824   1.954 -0.0297 -0.5589 -0.0173
    1SOL     OW 4229   1.618   3.092   1.860 -0.2684  0.6849 -0.2592
    1SOL    HW2 4230   1.619   3.003   1.894  2.2818  1.2198  1.2132
    1SOL    HW3 4231   1.613   3.082   1.765  3.4130 -1.1524 -0.3433
    1SOL    MW4 4232   1.618   3.079   1.852  0.5537  0.5128 -0.0761
    1SOL     OW 4233   1.362   3.189   1.966  0.0338  0.5737 -0.0210
    1SOL    HW2 4234   1.443   3.158   1.925 -0.6919 -0.0087 -1.0471
    1SOL    HW3 4235   1.292   3.141   1.920 -0.8310  0.3277  1.5323
    1SOL    MW4 4236   1.363   3.179   1.954 -0.1760  0.4644  0.0486
    1SOL     OW 4237   1.382   3.457   1.915 -0.3219 -0.4537 -0.8700
    1SOL    HW2 4238   1.351   3.371   1.943 -1.0272  0.0505 -0.0493
    1SOL    HW3 4239   1.311   3.517   1.940 -0.0704  0.2909 -1.9146
    1SOL    MW4 4240   1.368   3.454   1.922 -0.3816 -0.2890 -0.8994
    1SOL     OW 4241   1.595   3.601   1.971 -0.1111 -0.0719  0.0360
    1SOL    HW2 4242   1.592   3.624   2.063 -0.2143  0.8846 -0.2079
    1SOL    HW3 4243   1.516   3.548   1.957  0.2627 -0.7927  0.6452
    1SOL    MW4 4244   1.584   3.597   1.981 -0.0755 -0.0408  0.0843
    1SOL     OW 4245   1.627   3.835   1.831  0.3175 -0.2071 -0.1448
    1SOL    HW2 4246   1.688   3.888   1.883 -0.3898 -0.4115  0.8990
    1SOL    HW3 4247   1.611   3.757   1.884 -0.7381 -0.2247 -0.4717
    1SOL    MW4 4248   1.633   3.832   1.844  0.0849 -0.2365 -0.0499
    1SOL     OW 4249   1.416   3.991   1.951  0.2434 -0.1215 -0.4045
    1SOL    HW2 4250   1.488   3.941   1.913  0.1856  1.1806 -2.2965
    1SOL    HW3 4251   1.337   3.943   1.925  0.3188 -0.5597  0.1544
    1SOL    MW4 4252   1.415   3.978   1.943  0.2459 -0.0076 -0.5803
    1SOL     OW 4253   1.315   4.241   1.876 -0.3334 -0.2313  0.3060
    1SOL    HW2 4254   1.341   4.153   1.904 -0.7116 -0.3529  0.2774
    1SOL    HW3 4255   1.311   4.236   1.781 -1.0924 -0.3921  0.3412
    1SOL    MW4 4256   1.318   4.228   1.867 -0.4834 -0.2694  0.3068
    1SOL     OW 4257   1.567   4.392   1.961 -0.3980  0.4200  0.3404
    1SOL    HW2 4258   1.574   4.376   2.055  0.4757 -1.4714 -0.0194
    1SOL    HW3 4259   1.488   4.345   1.934  0.6917 -1.1122 -0.2666
    1SOL    MW4 4260   1.558   4.384   1.970 -0.1389 -0.0315  0.2129
    1SOL     OW 4261   1.999   4.652   1.880  0.0480  0.3038  0.3034
    1SOL    HW2 4262   2.082   4.690   1.908 -0.2701  1.1355  0.1211
    1SOL    HW3 4263   2.000   4.564   1.917  1.6441 -0.2130 -0.8616
    1SOL    MW4 4264   2.010   4.645   1.888  0.2167  0.3448  0.1256
    1SOL     OW 4265   1.761   0.115   1.948 -0.0427 -0.3912 -0.1028
    1SOL    HW2 4266   1.771   0.109   2.043  1.9423  0.4974 -0.2403
    1SOL    HW3 4267   1.840   0.073   1.913 -0.2840  0.1961 -1.3518
    1SOL    MW4 4268   1.773   0.108   1.956  0.1875 -0.1964 -0.2859
    1SOL     OW 4269   1.770   0.383   1.871 -0.2562 -0.2256 -0.1111
    1SOL    HW2 4270   1.765   0.293   1.903 -1.6368  0.0249  0.4239
    1SOL    HW3 4271   1.777   0.374   1.776  0.2292 -0.9031 -0.0189
    1SOL    MW4 4272   1.770   0.370   1.862 -0.3743 -0.2820 -0.0284
    1SOL     OW 4273   1.987   0.474   2.002  0.5142 -0.1898  0.0178
    1SOL    HW2 4274   2.007   0.557   1.959  1.0575 -1.3896 -2.1048
    1SOL    HW3 4275   1.902   0.448   1.968  0.4333 -0.5891  0.5162
    1SOL    MW4 4276   1.979   0.481   1.992  0.5753 -0.4008 -0.1967
    1SOL     OW 4277   2.012   0.728   1.876  0.1138 -0.2692  0.1385
    1SOL    HW2 4278   2.076   0.784   1.920 -0.3625 -1.2140  2.1229
    1SOL    HW3 4279   1.927   0.765   1.901 -0.1546 -0.0717 -1.0378
    1SOL    MW4 4280   2.009   0.740   1.885  0.0155 -0.3678  0.2451
    1SOL     OW 4281   1.756   0.888   1.934  0.2597 -0.6048  0.6223
    1SOL    HW2 4282   1.778   0.967   1.884  2.3477 -1.3096  0.3682
    1SOL    HW3 4283   1.770   0.912   2.025  0.9137 -0.6523  0.5435
    1SOL    MW4 4284   1.761   0.902   1.939  0.6216 -0.7040  0.5784
    1SOL     OW 4285   1.782   1.143   1.823  0.3903  0.1932 -0.1316
    1SOL    HW2 4286   1.716   1.199   1.865  0.9887  0.1891  0.8416
    1SOL    HW3 4287   1.865   1.173   1.861  0.8231 -0.6176 -0.4401
    1SOL    MW4 4288   1.784   1.155   1.834  0.5263  0.0856 -0.0437
    1SOL     OW 4289   2.017   1.266   1.961 -0.2150 -0.4487 -0.0913
    1SOL    HW2 4290   2.090   1.220   1.919 -1.3478 -1.4024 -1.0583
    1SOL    HW3 4291   2.031   1.253   2.054 -0.1046 -2.1131 -0.3260
    1SOL    MW4 4292   2.029   1.258   1.967 -0.3498 -0.7941 -0.2499
    1SOL     OW 4293   1.989   1.514   1.854  0.0522 -0.1430  0.3737
    1SOL    HW2 4294   2.007   1.423   1.878  0.0067 -0.4475 -0.7029
    1SOL    HW3 4295   2.013   1.519   1.761  0.9129  1.1754  0.6436
    1SOL    MW4 4296   1.995   1.502   1.845  0.1597 -0.0092  0.2673
    1SOL     OW 4297   1.766   1.602   1.986  0.0027 -0.0494  0.1867
    1SOL    HW2 4298   1.765   1.696   1.967 -0.0174 -0.3415 -1.2908
    1SOL    HW3 4299   1.845   1.569   1.942  0.1010 -0.7027  0.8328
    1SOL    MW4 4300   1.777   1.610   1.978  0.0130 -0.1740  0.0770
    1SOL     OW 4301   1.778   1.870   1.869  0.3311 -0.0847 -0.5543
    1SOL    HW2 4302   1.699   1.917   1.895 -0.6089 -1.3353 -1.1061
    1SOL    HW3 4303   1.791   1.893   1.777  0.4221 -0.1521 -0.5593
    1SOL    MW4 4304   1.770   1.879   1.860  0.2191 -0.2586 -0.6276
    1SOL     OW 4305   1.975   2.030   1.972 -0.0739 -0.5777  0.2920
    1SOL    HW2 4306   2.059   2.002   1.937 -0.8217 -0.9440 -1.2678
    1SOL    HW3 4307   1.913   1.962   1.942 -1.3138  0.9217 -0.6151
    1SOL    MW4 4308   1.978   2.017   1.963 -0.3362 -0.4280 -0.0335
    1SOL     OW 4309   2.024   2.255   1.823 -0.5402 -0.2726 -0.2853
    1SOL    HW2 4310   2.085   2.306   1.876 -1.7950  1.4901 -0.5262
    1SOL    HW3 4311   2.000   2.181   1.879  1.8066 -0.9940 -0.1968
    1SOL    MW4 4312   2.029   2.252   1.838 -0.3963 -0.1354 -0.3054
    1SOL     OW 4313   1.804   2.408   1.928  0.4513  0.0017  0.1127
    1SOL    HW2 4314   1.790   2.441   2.017  2.3600  0.9387  0.0878
    1SOL    HW3 4315   1.883   2.353   1.935  0.4980 -0.0784 -0.9556
    1SOL    MW4 4316   1.813   2.405   1.941  0.7093  0.1147 -0.0316
    1SOL     OW 4317   1.833   2.681   1.858 -0.2149 -0.4329 -0.2586
    1SOL    HW2 4318   1.841   2.587   1.870  0.2692 -0.4848 -0.9236
    1SOL    HW3 4319   1.821   2.692   1.763  0.9613  0.2391 -0.3538
    1SOL    MW4 4320   1.833   2.670   1.847  0.0042 -0.3510 -0.3589
    1SOL     OW 4321   2.023   2.843   1.971  0.1480 -0.0377 -0.6238
    1SOL    HW2 4322   2.004   2.823   2.063  2.3258 -0.1092 -0.1637
    1SOL    HW3 4323   1.954   2.798   1.922  0.1568 -1.7426  0.8706
    1SOL    MW4 4324   2.011   2.835   1.977  0.4365 -0.2723 -0.3660
    1SOL     OW 4325   2.028   3.120   1.876  0.1792 -0.0176 -0.2036
    1SOL    HW2 4326   1.970   3.174   1.930  2.0416  1.6750  0.1472
    1SOL    HW3 4327   2.019   3.032   1.914 -1.3035  0.4177  0.5314
    1SOL    MW4 4328   2.019   3.116   1.888  0.2291  0.2635 -0.0602
    1SOL     OW 4329   1.807   3.225   1.997 -0.4354 -0.4589 -0.0295
    1SOL    HW2 4330   1.786   3.208   2.089 -1.8287  1.7974  0.0910
    1SOL    HW3 4331   1.738   3.180   1.949 -1.1570  0.4633  0.1257
    1SOL    MW4 4332   1.795   3.217   2.003 -0.7144 -0.0396  0.0069
    1SOL     OW 4333   1.817   3.465   1.869  0.0654 -0.0496  0.3616
    1SOL    HW2 4334   1.810   3.376   1.903  0.1090  0.0758  0.6947
    1SOL    HW3 4335   1.739   3.510   1.901  0.6734  0.3843  1.2426
    1SOL    MW4 4336   1.806   3.459   1.878  0.1514  0.0243  0.5218
    1SOL     OW 4337   2.031   3.602   1.982 -0.0974 -0.6096  0.0789
    1SOL    HW2 4338   2.030   3.690   1.943  1.3290 -1.1342 -1.1915
    1SOL    HW3 4339   1.969   3.551   1.929 -0.1811 -0.6284  0.1940
    1SOL    MW4 4340   2.023   3.607   1.969  0.0799 -0.6814 -0.0737
    1SOL     OW 4341   2.013   3.845   1.834 -0.2452  0.0026 -0.2667
    1SOL    HW2 4342   2.085   3.899   1.867 -1.3032  0.8766  0.7046
    1SOL    HW3 4343   2.002   3.872   1.743  0.4968  0.0466 -0.3428
    1SOL    MW4 4344   2.021   3.856   1.826 -0.2871  0.1237 -0.1485
    1SOL     OW 4345   1.811   3.976   1.987  0.2450  0.1074 -0.1851
    1SOL    HW2 4346   1.820   4.070   1.972 -0.2602 -0.0235 -1.4230
    1SOL    HW3 4347   1.879   3.937   1.932 -0.6265 -0.3205 -0.9774
    1SOL    MW4 4348   1.821   3.983   1.978  0.0634  0.0336 -0.4530
    1SOL     OW 4349   1.778   4.252   1.851 -0.2401 -0.2936  0.0018
    1SOL    HW2 4350   1.697   4.292   1.883  0.9329  1.2661  1.0995
    1SOL    HW3 4351   1.779   4.272   1.757 -1.4993 -1.0196 -0.1788
    1SOL    MW4 4352   1.768   4.260   1.843 -0.2515 -0.1841  0.1228
    1SOL     OW 4353   2.019   4.381   1.973  0.3170 -0.4258  0.1507
    1SOL    HW2 4354   2.098   4.343   1.934 -0.0565 -1.0728  0.0236
    1SOL    HW3 4355   1.947   4.328   1.940 -0.0468 -0.7142  1.3770
    1SOL    MW4 4356   2.020   4.369   1.964  0.2196 -0.5493  0.2956
    1SOL     OW 4357   2.489   4.631   1.881 -0.1448  0.0968 -0.3031
    1SOL    HW2 4358   2.561   4.683   1.918  0.8464 -0.3080 -1.6506
    1SOL    HW3 4359   2.507   4.541   1.910  0.6034 -0.2133 -1.6727
    1SOL    MW4 4360   2.501   4.626   1.890  0.0849  0.0024 -0.6616
    1SOL     OW 4361   2.245   0.099   1.973 -0.1268 -0.1462  0.8721
    1SOL    HW2 4362   2.281   0.103   2.062 -0.6439 -1.8025  1.1764
    1SOL    HW3 4363   2.311   0.051   1.923 -1.2303 -1.9626  1.1062
    1SOL    MW4 4364   2.259   0.093   1.978 -0.3407 -0.6044  0.9432
    1SOL     OW 4365   2.212   0.362   1.876 -0.2162  0.1197 -0.8110
    1SOL    HW2 4366   2.213   0.273   1.911 -0.0554  0.5846  0.3846
    1SOL    HW3 4367   2.137   0.404   1.917  0.3240  0.8491 -0.5450
    1SOL    MW4 4368   2.202   0.356   1.886 -0.1233  0.2772 -0.6181
    1SOL     OW 4369   2.410   0.518   1.979 -0.2387  0.2996 -0.0192
    1SOL    HW2 4370   2.485   0.475   1.939  0.3564  0.5780  0.7925
    1SOL    HW3 4371   2.334   0.474   1.941  0.2963  0.9517 -1.8891
    1SOL    MW4 4372   2.410   0.506   1.969 -0.0896  0.4224 -0.1588
    1SOL     OW 4373   2.425   0.776   1.893 -0.4159 -0.5392  0.1084
    1SOL    HW2 4374   2.405   0.687   1.922 -0.2955 -0.9400 -1.0020
    1SOL    HW3 4375   2.439   0.767   1.799 -0.0438  0.5986  0.0539
    1SOL    MW4 4376   2.424   0.763   1.885 -0.3507 -0.4420 -0.0453
    1SOL     OW 4377   2.198   0.909   1.965 -0.2442  0.0475 -0.0811
    1SOL    HW2 4378   2.213   0.894   2.059 -0.3315 -2.3211 -0.4261
    1SOL    HW3 4379   2.275   0.872   1.922 -1.1792 -0.7662 -1.0773
    1SOL    MW4 4380   2.210   0.902   1.972 -0.3791 -0.3724 -0.2581
    1SOL     OW 4381   2.250   1.170   1.840  0.0518 -0.1960  0.0798
    1SOL    HW2 4382   2.322   1.210   1.889  0.9292  0.7834 -1.9376
    1SOL    HW3 4383   2.238   1.085   1.881  2.1294 -0.2261  0.7039
    1SOL    MW4 4384   2.258   1.164   1.851  0.4413 -0.0707 -0.1041
    1SOL     OW 4385   2.446   1.263   2.007  0.2704  0.1347 -0.5653
    1SOL    HW2 4386   2.411   1.264   2.096 -0.9177 -0.8283 -1.0094
    1SOL    HW3 4387   2.457   1.355   1.985 -1.2693  0.4400 -0.1355
    1SOL    MW4 4388   2.443   1.275   2.016 -0.0896  0.0480 -0.5674
    1SOL     OW 4389   2.453   1.521   1.891 -0.0273  0.2665 -0.5105
    1SOL    HW2 4390   2.367   1.556   1.915  0.0624  0.2760 -0.2080
    1SOL    HW3 4391   2.450   1.514   1.795 -0.4428  0.0645 -0.4831
    1SOL    MW4 4392   2.441   1.525   1.881 -0.0703  0.2412 -0.4669
    1SOL     OW 4393   2.204   1.638   1.962  0.8370 -0.2987 -0.2272
    1SOL    HW2 4394   2.185   1.646   2.055  1.8568  1.4006 -0.1417
    1SOL    HW3 4395   2.124   1.604   1.923 -0.2649  0.9204  0.9729
    1SOL    MW4 4396   2.191   1.634   1.969  0.8264  0.0862 -0.0575
    1SOL     OW 4397   2.211   1.893   1.862 -0.0087 -0.2959 -0.3816
    1SOL    HW2 4398   2.289   1.929   1.904 -0.3406  1.1934 -1.0077
    1SOL    HW3 4399   2.204   1.804   1.897  2.1951 -0.5953 -0.6368
    1SOL    MW4 4400   2.220   1.886   1.872  0.2384 -0.1389 -0.4981
    1SOL     OW 4401   2.449   2.027   1.967 -0.2626 -0.1970  0.0683
    1SOL    HW2 4402   2.533   1.999   1.929 -0.6065 -1.1953  0.0452
    1SOL    HW3 4403   2.441   2.119   1.941 -0.7537 -1.0003 -2.7272
    1SOL    MW4 4404   2.459   2.036   1.959 -0.3724 -0.4346 -0.3036
    1SOL     OW 4405   2.412   2.291   1.854  0.0464  0.3123  0.1298
    1SOL    HW2 4406   2.487   2.349   1.868  0.4151 -0.4800  1.4634
    1SOL    HW3 4407   2.336   2.346   1.873  0.2286  1.2504 -1.6644
    1SOL    MW4 4408   2.411   2.306   1.858  0.1192  0.3316  0.0690
    1SOL     OW 4409   2.179   2.433   1.964  0.1554 -0.0471 -0.1117
    1SOL    HW2 4410   2.215   2.435   2.052  2.6314 -1.7433 -1.0338
    1SOL    HW3 4411   2.192   2.522   1.931 -0.3263  0.4582  1.0473
    1SOL    MW4 4412   2.185   2.445   1.971  0.4184 -0.2041 -0.0805
    1SOL     OW 4413   2.232   2.692   1.863  0.1066  0.2130  0.3158
    1SOL    HW2 4414   2.161   2.748   1.895  1.7980  1.6617  1.6580
    1SOL    HW3 4415   2.230   2.704   1.768 -1.1439  0.6185  0.3801
    1SOL    MW4 4416   2.223   2.701   1.855  0.1645  0.4580  0.5014
    1SOL     OW 4417   2.446   2.838   2.002  0.1774  0.1303 -0.1383
    1SOL    HW2 4418   2.457   2.926   1.965 -1.8130  0.4850  0.0277
    1SOL    HW3 4419   2.376   2.800   1.949  0.8007 -1.2427  0.0182
    1SOL    MW4 4420   2.438   2.845   1.990 -0.0031 -0.0041 -0.0957
    1SOL     OW 4421   2.499   3.105   1.903 -0.2365  0.1610  0.5227
    1SOL    HW2 4422   2.420   3.143   1.940 -0.1209  0.7514  0.1665
    1SOL    HW3 4423   2.489   3.115   1.808  0.3582  0.4307  0.4848
    1SOL    MW4 4424   2.487   3.111   1.895 -0.1428  0.2744  0.4708
    1SOL     OW 4425   2.261   3.206   1.985  0.0733 -0.2302  0.0931
    1SOL    HW2 4426   2.248   3.191   2.078  0.4899 -0.4590  0.1168
    1SOL    HW3 4427   2.185   3.164   1.943 -0.5213  0.5737  0.3775
    1SOL    MW4 4428   2.249   3.198   1.992  0.0501 -0.1545  0.1338
    1SOL     OW 4429   2.256   3.468   1.868  0.4363 -0.1002  0.1259
    1SOL    HW2 4430   2.257   3.378   1.900  0.3805  0.0770  0.6310
    1SOL    HW3 4431   2.187   3.512   1.919 -0.1249  0.0098 -0.7271
    1SOL    MW4 4432   2.247   3.462   1.879  0.3552 -0.0622  0.0799
    1SOL     OW 4433   2.481   3.597   1.960  0.4265  0.6222  0.1200
    1SOL    HW2 4434   2.494   3.585   2.054  1.3929  0.8233  0.0158
    1SOL    HW3 4435   2.397   3.555   1.942  0.2452  0.5660  1.0683
    1SOL    MW4 4436   2.472   3.590   1.970  0.5302  0.6411  0.2314
    1SOL     OW 4437   2.503   3.857   1.877  0.2238  0.0320  0.0318
    1SOL    HW2 4438   2.422   3.903   1.901  1.4250  1.0317  2.3250
    1SOL    HW3 4439   2.489   3.767   1.906  0.3536  0.4721  1.5086
    1SOL    MW4 4440   2.490   3.851   1.884  0.3994  0.2220  0.5292
    1SOL     OW 4441   2.256   3.978   1.933  0.0264  0.0552  0.3210
    1SOL    HW2 4442   2.239   3.977   2.027  0.7866  0.4666  0.4713
    1SOL    HW3 4443   2.251   4.070   1.909  0.7296  0.0435  0.1279
    1SOL    MW4 4444   2.253   3.990   1.942  0.2193  0.1080  0.3154
    1SOL     OW 4445   2.232   4.241   1.845  0.1516  0.0331 -0.1511
    1SOL    HW2 4446   2.309   4.294   1.863  0.4610 -0.8784  1.3235
    1SOL    HW3 4447   2.227   4.237   1.749  2.0604 -0.1003 -0.2572
    1SOL    MW4 4448   2.241   4.248   1.835  0.4442 -0.1044  0.0294
    1SOL     OW 4449   2.460   4.361   1.940  0.4840  0.4503  0.2600
    1SOL    HW2 4450   2.439   4.355   2.034 -0.2007 -0.0900  0.0742
    1SOL    HW3 4451   2.540   4.309   1.931  0.4787  0.3917  0.5267
    1SOL    MW4 4452   2.468   4.353   1.952  0.3929  0.3710  0.2706
    1SOL     OW 4453   2.899   4.625   1.891  0.1989  0.0941 -0.0709
    1SOL    HW2 4454   2.980   4.652   1.935  0.5817  0.2278 -0.8464
    1SOL    HW3 4455   2.883   4.536   1.923  0.9667 -0.1470 -0.3501
    1SOL    MW4 4456   2.908   4.617   1.901  0.3507  0.0806 -0.2100
    1SOL     OW 4457   2.693   0.142   1.952  0.2119 -0.0099 -0.0746
    1SOL    HW2 4458   2.687   0.130   2.047 -0.3426 -0.8495 -0.2106
    1SOL    HW3 4459   2.773   0.097   1.927 -0.4330 -1.1061 -0.2055
    1SOL    MW4 4460   2.703   0.135   1.961  0.0536 -0.2653 -0.1099
    1SOL     OW 4461   2.650   0.414   1.887  0.0844  0.2911  0.1915
    1SOL    HW2 4462   2.732   0.449   1.922 -0.3844  1.2127  0.3843
    1SOL    HW3 4463   2.654   0.320   1.906  0.9258  0.3912  0.5307
    1SOL    MW4 4464   2.661   0.406   1.894  0.1340  0.4259  0.2617
    1SOL     OW 4465   2.930   0.509   1.972  0.1545  0.1640  0.2185
    1SOL    HW2 4466   2.998   0.455   1.931 -0.4530  0.6763 -1.4825
    1SOL    HW3 4467   2.936   0.594   1.927  0.2620  1.1317  2.0045
    1SOL    MW4 4468   2.940   0.513   1.961  0.0887  0.3592  0.2296
    1SOL     OW 4469   2.921   0.768   1.865 -0.2701 -0.4619 -0.0109
    1SOL    HW2 4470   2.986   0.815   1.917 -0.3837 -1.6067  1.1837
    1SOL    HW3 4471   2.838   0.787   1.908 -0.7399  0.8994 -1.4655
    1SOL    MW4 4472   2.919   0.777   1.877 -0.3471 -0.4333 -0.0452
    1SOL     OW 4473   2.690   0.840   1.998 -0.5354  0.2138 -0.5887
    1SOL    HW2 4474   2.710   0.934   1.993 -2.4096  0.6690  0.0348
    1SOL    HW3 4475   2.608   0.831   1.950 -1.6184 -0.6972  1.3701
    1SOL    MW4 4476   2.682   0.851   1.991 -0.9255  0.1537 -0.2480
    1SOL     OW 4477   2.690   1.117   1.939  0.0126  0.3836  0.3816
    1SOL    HW2 4478   2.619   1.173   1.968 -1.3730 -1.1985  0.1157
    1SOL    HW3 4479   2.676   1.107   1.845  1.3746  1.1309  0.0752
    1SOL    MW4 4480   2.679   1.123   1.930  0.0095  0.2735  0.3061
    1SOL     OW 4481   2.934   1.231   1.987 -0.8497 -0.1523 -0.1984
    1SOL    HW2 4482   2.929   1.324   1.966 -1.1318 -0.2752 -0.6776
    1SOL    HW3 4483   2.854   1.193   1.951  0.0074 -0.8610 -1.4399
    1SOL    MW4 4484   2.923   1.238   1.979 -0.7737 -0.2619 -0.4256
    1SOL     OW 4485   2.940   1.500   1.904 -0.1110 -0.4124  0.9461
    1SOL    HW2 4486   3.011   1.556   1.936 -1.7658  1.4471  1.3888
    1SOL    HW3 4487   2.944   1.508   1.809 -1.2378  1.5892  1.0574
    1SOL    MW4 4488   2.950   1.508   1.896 -0.4780  0.0970  1.0191
    1SOL     OW 4489   2.691   1.627   1.980 -0.1461  0.6692  0.0689
    1SOL    HW2 4490   2.768   1.582   1.945  1.1492  1.7629  1.4015
    1SOL    HW3 4491   2.617   1.588   1.934  1.2423 -0.0326 -1.6542
    1SOL    MW4 4492   2.692   1.616   1.969  0.2079  0.7210  0.0174
    1SOL     OW 4493   2.686   1.876   1.849 -0.3804 -0.4065  0.0008
    1SOL    HW2 4494   2.758   1.923   1.891 -1.1168  0.3359  0.4521
    1SOL    HW3 4495   2.685   1.791   1.893  0.0553 -0.3289  0.1682
    1SOL    MW4 4496   2.696   1.871   1.861 -0.4201 -0.2981  0.0826
    1SOL     OW 4497   2.870   2.065   1.974  0.1704  0.3533 -0.1139
    1SOL    HW2 4498   2.859   2.041   2.066  0.4072  0.2722 -0.1070
    1SOL    HW3 4499   2.936   2.004   1.941 -0.5003 -0.1442 -0.5442
    1SOL    MW4 4500   2.877   2.054   1.982  0.1132  0.2770 -0.1698
    1SOL     OW 4501   2.864   2.316   1.845 -0.0689  0.1315 -0.1869
    1SOL    HW2 4502   2.940   2.363   1.879 -0.8437  0.8989  0.4911
    1SOL    HW3 4503   2.862   2.234   1.895 -0.1810  0.4863  0.3883
    1SOL    MW4 4504   2.874   2.311   1.856 -0.1857  0.2797 -0.0216
    1SOL     OW 4505   2.633   2.447   1.921 -0.2784  0.0864 -0.6540
    1SOL    HW2 4506   2.651   2.541   1.911  0.5659  0.0959  0.9487
    1SOL    HW3 4507   2.713   2.404   1.893  0.0420 -0.0879  0.5284
    1SOL    MW4 4508   2.646   2.454   1.916 -0.1247  0.0648 -0.2866
    1SOL     OW 4509   2.664   2.749   1.853  0.3923  0.4228 -0.4094
    1SOL    HW2 4510   2.587   2.770   1.907  0.4545  0.0726 -0.1836
    1SOL    HW3 4511   2.632   2.751   1.763 -0.4957 -2.3206 -0.1889
    1SOL    MW4 4512   2.650   2.752   1.848  0.2830  0.0148 -0.3506
    1SOL     OW 4513   2.901   2.831   1.963 -0.1090 -0.1309 -0.1346
    1SOL    HW2 4514   2.900   2.919   1.925 -0.5317 -0.0362  0.0890
    1SOL    HW3 4515   2.825   2.788   1.923 -1.5618  0.5086  1.8455
    1SOL    MW4 4516   2.891   2.837   1.953 -0.3564 -0.0343  0.1560
    1SOL     OW 4517   2.934   3.097   1.856  0.4138 -0.2465  0.0885
    1SOL    HW2 4518   2.998   3.152   1.900  1.3462 -0.9649 -0.3510
    1SOL    HW3 4519   2.849   3.132   1.883  0.9867  0.2134  1.2963
    1SOL    MW4 4520   2.931   3.109   1.865  0.6125 -0.2806  0.1899
    1SOL     OW 4521   2.733   3.254   1.971 -0.1432  0.0764  0.6472
    1SOL    HW2 4522   2.736   3.330   1.914  0.1646 -0.4501 -0.0371
    1SOL    HW3 4523   2.650   3.211   1.949  1.0892 -1.4605 -1.1349
    1SOL    MW4 4524   2.722   3.258   1.961  0.0598 -0.1955  0.3219
    1SOL     OW 4525   2.723   3.507   1.830 -0.2707  0.3695  0.5894
    1SOL    HW2 4526   2.809   3.539   1.855  0.0195 -1.8321  2.6437
    1SOL    HW3 4527   2.661   3.563   1.877  0.0472  1.1650  0.0739
    1SOL    MW4 4528   2.726   3.518   1.839 -0.1905  0.1838  0.7924
    1SOL     OW 4529   2.960   3.638   1.937  0.1409  0.4536  0.4579
    1SOL    HW2 4530   2.956   3.621   2.031  2.5600 -1.5404  0.2654
    1SOL    HW3 4531   3.048   3.609   1.912  0.2602  2.7941 -2.0794
    1SOL    MW4 4532   2.971   3.632   1.946  0.4759  0.4992  0.0978
    1SOL     OW 4533   2.961   3.894   1.857  0.3979  0.2456 -0.4011
    1SOL    HW2 4534   2.967   3.813   1.907 -0.7991  0.5952  0.3233
    1SOL    HW3 4535   2.979   3.868   1.766  0.6092 -0.7180 -0.0902
    1SOL    MW4 4536   2.964   3.880   1.852  0.2677  0.1647 -0.2644
    1SOL     OW 4537   2.711   3.980   1.994 -0.5184  0.0542 -0.0629
    1SOL    HW2 4538   2.794   3.952   1.958 -0.0526  1.3870 -0.0541
    1SOL    HW3 4539   2.646   3.922   1.955  0.1829  0.3555 -1.6770
    1SOL    MW4 4540   2.713   3.969   1.984 -0.3645  0.2699 -0.2748
    1SOL     OW 4541   2.701   4.224   1.876 -0.0568 -0.0181 -0.1771
    1SOL    HW2 4542   2.710   4.137   1.915  2.6820  0.3716  0.1715
    1SOL    HW3 4543   2.691   4.208   1.783  0.1897 -0.7319 -0.0825
    1SOL    MW4 4544   2.701   4.211   1.869  0.3371 -0.0606 -0.1186
    1SOL     OW 4545   2.915   4.360   1.958 -0.1271 -0.2482  0.6275
    1SOL    HW2 4546   2.913   4.365   2.054 -1.4785  0.9953  0.5608
    1SOL    HW3 4547   2.835   4.311   1.936  0.5974 -1.2236  0.1709
    1SOL    MW4 4548   2.904   4.355   1.968 -0.2096 -0.2127  0.5585
    1SOL     OW 4549   3.383   4.647   1.889  0.1845 -0.0291  0.1970
    1SOL    HW2 4550   3.415   4.562   1.920 -0.1753 -0.0195  0.5924
    1SOL    HW3 4551   3.377   4.637   1.794 -0.9999 -0.8361  0.3486
    1SOL    MW4 4552   3.387   4.634   1.880 -0.0191 -0.1340  0.2691
    1SOL     OW 4553   3.130   0.096   1.967 -0.0460  0.0705  0.2458
    1SOL    HW2 4554   3.149   0.109   2.060  0.8364 -0.6322  0.1709
    1SOL    HW3 4555   3.210   0.058   1.932 -0.1296  0.9650 -0.9459
    1SOL    MW4 4556   3.143   0.093   1.975  0.0591  0.0958  0.0787
    1SOL     OW 4557   3.121   0.344   1.856 -0.3458  0.0599  0.0768
    1SOL    HW2 4558   3.106   0.252   1.880  0.1733  0.0612  0.4256
    1SOL    HW3 4559   3.141   0.341   1.763 -0.2291 -0.1975  0.1078
    1SOL    MW4 4560   3.122   0.331   1.847 -0.2620  0.0262  0.1271
    1SOL     OW 4561   3.343   0.496   1.946 -0.1737  0.2390 -0.2262
    1SOL    HW2 4562   3.425   0.451   1.928 -0.4803 -0.1176 -0.7652
    1SOL    HW3 4563   3.277   0.443   1.901 -0.4160  1.8188 -1.7933
    1SOL    MW4 4564   3.345   0.483   1.937 -0.2460  0.4004 -0.5039
    1SOL     OW 4565   3.365   0.758   1.867  0.4595  0.0550  0.2504
    1SOL    HW2 4566   3.292   0.805   1.908  1.2367  0.2872  1.3780
    1SOL    HW3 4567   3.344   0.666   1.882 -0.4821  0.0544 -0.9616
    1SOL    MW4 4568   3.352   0.752   1.874  0.4380  0.0855  0.2394
    1SOL     OW 4569   3.136   0.876   2.000  0.5118 -0.5310  0.2354
    1SOL    HW2 4570   3.149   0.870   2.095  0.9862 -0.1142  0.2009
    1SOL    HW3 4571   3.170   0.962   1.977 -0.8467 -0.0924 -0.1204
    1SOL    MW4 4572   3.142   0.886   2.010  0.3951 -0.4181  0.1841
    1SOL     OW 4573   3.172   1.124   1.878 -0.1613 -0.3850  0.0138
    1SOL    HW2 4574   3.252   1.168   1.905  0.1141 -0.1472 -1.1291
    1SOL    HW3 4575   3.105   1.156   1.939  0.1943  1.0380 -0.3202
    1SOL    MW4 4576   3.174   1.134   1.889 -0.0780 -0.1658 -0.1811
    1SOL     OW 4577   3.393   1.265   1.987 -0.1965  0.2787  0.2053
    1SOL    HW2 4578   3.376   1.259   2.081  0.7336 -0.2463  0.3510
    1SOL    HW3 4579   3.385   1.358   1.967 -1.2806  0.2813  0.6355
    1SOL    MW4 4580   3.390   1.276   1.997 -0.2167  0.2097  0.2813
    1SOL     OW 4581   3.385   1.523   1.898 -0.1467 -0.0868  0.3126
    1SOL    HW2 4582   3.467   1.570   1.915 -0.6085  0.9589 -0.2815
    1SOL    HW3 4583   3.316   1.587   1.918 -0.7971 -0.6584 -0.0666
    1SOL    MW4 4584   3.386   1.538   1.903 -0.2935 -0.0242  0.1842
    1SOL     OW 4585   3.146   1.671   1.969 -0.7078 -0.4628 -0.1125
    1SOL    HW2 4586   3.141   1.673   2.064 -0.2364 -2.0987 -0.0478
    1SOL    HW3 4587   3.140   1.763   1.943 -1.2621 -0.0419  1.4649
    1SOL    MW4 4588   3.145   1.683   1.978 -0.7188 -0.6231  0.1043
    1SOL     OW 4589   3.083   1.921   1.856  0.4854 -0.0152 -0.4378
    1SOL    HW2 4590   3.160   1.964   1.893  1.4505 -1.2307 -1.0030
    1SOL    HW3 4591   3.091   1.936   1.762  0.2511 -0.4755 -0.5314
    1SOL    MW4 4592   3.094   1.929   1.848  0.5817 -0.2362 -0.5246
    1SOL     OW 4593   3.319   2.031   1.981 -0.2587 -0.0239 -0.2050
    1SOL    HW2 4594   3.396   1.993   1.938 -1.6003 -2.2238 -0.7368
    1SOL    HW3 4595   3.315   2.120   1.948  1.2055 -0.3524 -1.3323
    1SOL    MW4 4596   3.329   2.038   1.971 -0.2427 -0.3572 -0.4238
    1SOL     OW 4597   3.320   2.289   1.867  0.2314 -0.0821 -0.1185
    1SOL    HW2 4598   3.245   2.346   1.887  0.0005 -0.5844  0.4760
    1SOL    HW3 4599   3.308   2.265   1.775  0.7560  1.4467 -0.6159
    1SOL    MW4 4600   3.308   2.294   1.857  0.2699  0.0534 -0.1057
    1SOL     OW 4601   3.098   2.439   1.934  0.4977  0.1209 -0.2172
    1SOL    HW2 4602   3.098   2.449   2.029  0.1055 -0.6710 -0.1306
    1SOL    HW3 4603   3.124   2.525   1.901 -0.3312  0.6877  0.5774
    1SOL    MW4 4604   3.101   2.451   1.942  0.3366  0.0911 -0.1009
    1SOL     OW 4605   3.139   2.706   1.855  0.3056  0.5092 -0.4480
    1SOL    HW2 4606   3.056   2.739   1.890 -0.2038 -1.6653  0.4453
    1SOL    HW3 4607   3.132   2.720   1.761 -0.4757  1.6416 -0.2330
    1SOL    MW4 4608   3.127   2.712   1.847  0.1352  0.3715 -0.3017
    1SOL     OW 4609   3.372   2.840   1.940  0.1753 -0.5150 -0.0808
    1SOL    HW2 4610   3.365   2.843   2.035  0.4695 -0.9687 -0.0404
    1SOL    HW3 4611   3.290   2.800   1.911 -0.8222  1.5550 -0.1670
    1SOL    MW4 4612   3.360   2.835   1.949  0.0825 -0.3018 -0.0867
    1SOL     OW 4613   3.339   3.116   1.886  0.3133  0.3078 -0.3803
    1SOL    HW2 4614   3.424   3.155   1.907  1.1847 -1.8541  0.3084
    1SOL    HW3 4615   3.351   3.022   1.903 -2.6182  0.1272  1.0155
    1SOL    MW4 4616   3.352   3.109   1.891  0.0415 -0.0012 -0.1053
    1SOL     OW 4617   3.128   3.283   1.943  0.2460  0.1816 -0.5144
    1SOL    HW2 4618   3.143   3.272   2.037  1.8899  2.3585 -0.4623
    1SOL    HW3 4619   3.189   3.222   1.901  0.3918  0.0967 -0.1791
    1SOL    MW4 4620   3.138   3.274   1.950  0.4823  0.4575 -0.4634
    1SOL     OW 4621   3.210   3.534   1.852  0.3060  0.3208 -0.3695
    1SOL    HW2 4622   3.198   3.445   1.887  0.7293  0.2477 -0.4075
    1SOL    HW3 4623   3.290   3.565   1.894 -0.2027  0.9413  0.1585
    1SOL    MW4 4624   3.219   3.526   1.862  0.2947  0.3929 -0.3048
    1SOL     OW 4625   3.412   3.640   2.011  0.4160  0.2662  0.1341
    1SOL    HW2 4626   3.470   3.586   1.957 -0.3332 -0.4958  0.0805
    1SOL    HW3 4627   3.414   3.727   1.970  0.7244 -0.0218 -0.4628
    1SOL    MW4 4628   3.420   3.645   1.999  0.3576  0.1278  0.0484
    1SOL     OW 4629   3.418   3.884   1.872 -0.0542 -0.3905  0.2203
    1SOL    HW2 4630   3.345   3.940   1.900 -0.1171 -0.6929  0.6745
    1SOL    HW3 4631   3.409   3.878   1.777  1.2969  2.2405 -0.1193
    1SOL    MW4 4632   3.407   3.890   1.864  0.1159 -0.0834  0.2354
    1SOL     OW 4633   3.194   4.022   1.961 -0.1028 -0.1811 -0.0996
    1SOL    HW2 4634   3.183   4.018   2.056  1.4688  0.8747  0.1342
    1SOL    HW3 4635   3.110   3.992   1.927 -0.7292 -0.4665  1.6203
    1SOL    MW4 4636   3.181   4.018   1.969  0.0219 -0.0796  0.1582
    1SOL     OW 4637   3.157   4.282   1.887  0.0241 -0.3646  0.4444
    1SOL    HW2 4638   3.166   4.189   1.909 -0.3310 -0.8696 -1.4267
    1SOL    HW3 4639   3.066   4.303   1.910  0.4120 -0.1904  1.8520
    1SOL    MW4 4640   3.146   4.273   1.893  0.0286 -0.4086  0.3833
    1SOL     OW 4641   3.413   4.370   1.989 -0.2182  0.1249 -0.1532
    1SOL    HW2 4642   3.477   4.304   1.962 -0.8081 -0.9380  0.9486
    1SOL    HW3 4643   3.329   4.333   1.964 -0.6925 -0.4042  2.1038
    1SOL    MW4 4644   3.410   4.356   1.982 -0.3586 -0.0849  0.2898
    1SOL     OW 4645   3.807   0.045   1.881  0.3373  0.2730 -0.3471
    1SOL    HW2 4646   3.803  -0.048   1.903  1.5912  0.5286  1.0714
    1SOL    HW3 4647   3.730   0.083   1.922  0.7060  0.1208  0.5035
    1SOL    MW4 4648   3.797   0.038   1.889  0.5512  0.2867 -0.0479
    1SOL     OW 4649   3.580   0.150   2.008  0.0409 -0.1486  0.2632
    1SOL    HW2 4650   3.550   0.144   2.099 -0.0834 -1.1638  0.1634
    1SOL    HW3 4651   3.520   0.093   1.960  1.4504 -1.3295 -0.1142
    1SOL    MW4 4652   3.568   0.142   2.014  0.2103 -0.4384  0.2000
    1SOL     OW 4653   3.615   0.411   1.899  0.7037  0.6075 -0.2216
    1SOL    HW2 4654   3.597   0.324   1.935 -1.6196  0.7301 -1.0351
    1SOL    HW3 4655   3.637   0.396   1.808  1.1759  0.8003 -0.1426
    1SOL    MW4 4656   3.616   0.398   1.892  0.4592  0.6491 -0.3186
    1SOL     OW 4657   3.848   0.536   1.982 -0.1576 -0.2074 -0.1052
    1SOL    HW2 4658   3.834   0.630   1.968 -1.5415 -0.2037  1.2749
    1SOL    HW3 4659   3.768   0.495   1.950 -0.6024 -0.7054  1.6066
    1SOL    MW4 4660   3.836   0.543   1.976 -0.3989 -0.2726  0.3027
    1SOL     OW 4661   3.813   0.804   1.931 -0.0887 -0.7160  0.3331
    1SOL    HW2 4662   3.731   0.825   1.975  0.2108 -0.7052  0.8851
    1SOL    HW3 4663   3.797   0.826   1.839 -0.1920  0.7487  0.6946
    1SOL    MW4 4664   3.800   0.810   1.925 -0.0629 -0.5213  0.4537
    1SOL     OW 4665   3.557   0.897   2.041  0.2884 -0.0542 -0.1157
    1SOL    HW2 4666   3.574   0.973   1.985  0.0922  1.3318  1.6637
    1SOL    HW3 4667   3.492   0.846   1.993 -1.0984  1.9521 -0.4185
    1SOL    MW4 4668   3.550   0.900   2.027  0.0794  0.3934  0.0794
    1SOL     OW 4669   3.626   1.137   1.915  0.1153  0.1251  0.0359
    1SOL    HW2 4670   3.548   1.185   1.940  0.5015  1.0822 -0.5800
    1SOL    HW3 4671   3.623   1.134   1.819  2.3329  2.7127 -0.1577
    1SOL    MW4 4672   3.616   1.143   1.905  0.4587  0.5927 -0.0708
    1SOL     OW 4673   3.851   1.287   2.011 -0.0545  0.1920 -0.2815
    1SOL    HW2 4674   3.841   1.284   2.106 -0.7953 -0.3187 -0.3705
    1SOL    HW3 4675   3.783   1.228   1.978  0.1872  0.3809 -1.1271
    1SOL    MW4 4676   3.841   1.279   2.019 -0.1202  0.1496 -0.4048
    1SOL     OW 4677   3.870   1.556   1.913  0.4804 -0.0045 -0.3473
    1SOL    HW2 4678   3.939   1.605   1.959 -0.8861  0.0196  1.7245
    1SOL    HW3 4679   3.878   1.467   1.947 -0.3937 -0.0326 -0.2198
    1SOL    MW4 4680   3.880   1.551   1.924  0.1848 -0.0050 -0.0571
    1SOL     OW 4681   3.618   1.675   1.919 -0.1475 -0.6275 -0.4910
    1SOL    HW2 4682   3.617   1.768   1.896  1.1568  0.1155  2.1918
    1SOL    HW3 4683   3.709   1.648   1.904 -0.0732 -0.9651  0.5115
    1SOL    MW4 4684   3.630   1.684   1.914  0.0346 -0.5741 -0.0049
    1SOL     OW 4685   3.562   1.935   1.878 -0.2770  0.0163  0.2680
    1SOL    HW2 4686   3.637   1.985   1.909  0.7176 -1.0196 -0.4352
    1SOL    HW3 4687   3.575   1.930   1.783 -1.7938  0.7330  0.0053
    1SOL    MW4 4688   3.574   1.941   1.869 -0.3459 -0.0257  0.1405
    1SOL     OW 4689   3.772   2.072   1.980  0.6439  0.0576 -0.0890
    1SOL    HW2 4690   3.855   2.031   1.955  0.5493  0.1660 -0.5748
    1SOL    HW3 4691   3.773   2.157   1.934  0.8412  0.6031  0.8979
    1SOL    MW4 4692   3.783   2.078   1.971  0.6576  0.1438 -0.0228
    1SOL     OW 4693   3.781   2.316   1.852 -0.0962  0.3514  0.3104
    1SOL    HW2 4694   3.858   2.335   1.904 -0.5309  2.0228  0.3721
    1SOL    HW3 4695   3.709   2.360   1.898 -0.6137  1.2117 -1.2624
    1SOL    MW4 4696   3.781   2.324   1.865 -0.2215  0.6855  0.1109
    1SOL     OW 4697   3.545   2.425   1.968  0.1095 -0.2863  0.0219
    1SOL    HW2 4698   3.560   2.510   1.925 -0.0218  0.6803  1.8349
    1SOL    HW3 4699   3.478   2.383   1.914  1.1446  0.1811 -1.6715
    1SOL    MW4 4700   3.538   2.431   1.955  0.2289 -0.0970  0.0377
    1SOL     OW 4701   3.581   2.696   1.858 -0.0680 -0.4252 -0.2089
    1SOL    HW2 4702   3.651   2.736   1.910 -0.3594 -0.0442 -0.0982
    1SOL    HW3 4703   3.502   2.744   1.884 -0.4554 -1.1833  0.0389
    1SOL    MW4 4704   3.580   2.708   1.869 -0.1576 -0.4745 -0.1616
    1SOL     OW 4705   3.788   2.815   1.977  0.3799 -0.1088 -0.1055
    1SOL    HW2 4706   3.796   2.816   2.072 -0.6939  1.7017 -0.0220
    1SOL    HW3 4707   3.810   2.904   1.950  0.4067 -0.5359 -1.5321
    1SOL    MW4 4708   3.792   2.827   1.986  0.2415  0.0737 -0.2829
    1SOL     OW 4709   3.836   3.077   1.901 -0.2893  0.7632  0.3076
    1SOL    HW2 4710   3.756   3.125   1.924 -1.0647 -0.0715 -0.5620
    1SOL    HW3 4711   3.842   3.086   1.805 -0.0547 -0.2593  0.2166
    1SOL    MW4 4712   3.826   3.085   1.891 -0.3607  0.5183  0.1808
    1SOL     OW 4713   3.590   3.201   1.945  0.2916  0.3540  0.0116
    1SOL    HW2 4714   3.570   3.197   2.038 -0.1593 -0.5863 -0.1228
    1SOL    HW3 4715   3.596   3.294   1.925 -0.0818  0.5593  0.8769
    1SOL    MW4 4716   3.588   3.212   1.954  0.1829  0.2570  0.1079
    1SOL     OW 4717   3.580   3.468   1.872 -0.1287 -0.2617  0.2420
    1SOL    HW2 4718   3.665   3.509   1.892 -0.4517 -0.4603  2.0637
    1SOL    HW3 4719   3.566   3.488   1.779  0.2351  2.8620  0.7915
    1SOL    MW4 4720   3.590   3.476   1.862 -0.1233  0.1240  0.5548
    1SOL     OW 4721   3.808   3.589   1.958 -0.2839  0.0411  0.3497
    1SOL    HW2 4722   3.891   3.546   1.938 -0.1765 -0.2077  1.3173
    1SOL    HW3 4723   3.814   3.674   1.914 -0.0989 -0.5365 -0.7531
    1SOL    MW4 4724   3.820   3.595   1.949 -0.2451 -0.0679  0.3319
    1SOL     OW 4725   3.879   3.837   1.873 -0.0053 -0.0973  0.4176
    1SOL    HW2 4726   3.809   3.880   1.922 -0.1280 -1.2558  1.2813
    1SOL    HW3 4727   3.856   3.851   1.781 -2.2990 -1.9046  0.6861
    1SOL    MW4 4728   3.867   3.845   1.867 -0.3240 -0.4888  0.5670
    1SOL     OW 4729   3.676   3.977   1.982 -0.2628  0.2405 -0.0760
    1SOL    HW2 4730   3.645   3.982   2.072  0.2953 -1.1362  0.1972
    1SOL    HW3 4731   3.603   3.936   1.934 -0.5912  1.0450 -0.2713
    1SOL    MW4 4732   3.662   3.972   1.987 -0.2327  0.1650 -0.0657
    1SOL     OW 4733   3.639   4.238   1.869  0.0717 -0.0121 -0.1119
    1SOL    HW2 4734   3.710   4.296   1.897  0.6934 -0.1901 -1.2606
    1SOL    HW3 4735   3.654   4.156   1.915  1.3914 -0.4772 -1.3200
    1SOL    MW4 4736   3.650   4.235   1.879  0.3281 -0.0968 -0.4227
    1SOL     OW 4737   3.813   4.442   1.952  0.4232 -0.0960  0.3579
    1SOL    HW2 4738   3.805   4.422   2.045  1.3907 -1.5970  0.1422
    1SOL    HW3 4739   3.899   4.407   1.928 -0.1395 -0.3848 -1.2641
    1SOL    MW4 4740   3.824   4.435   1.961  0.4766 -0.3324  0.1154
    1SOL     OW 4741   4.235   4.666   1.840 -0.2913 -0.0192  0.3458
    1SOL    HW2 4742   4.161   4.721   1.866  0.4098  0.5093  1.2531
    1SOL    HW3 4743   4.311   4.706   1.883  0.2883 -1.4877  0.7206
    1SOL    MW4 4744   4.236   4.679   1.849 -0.1216 -0.1432  0.5150
    1SOL     OW 4745   4.043   0.158   1.981 -0.4154 -0.1131 -0.0991
    1SOL    HW2 4746   4.043   0.142   2.075 -1.5750 -1.0872 -0.2540
    1SOL    HW3 4747   3.960   0.122   1.950 -0.0082  0.1129 -1.5080
    1SOL    MW4 4748   4.032   0.151   1.989 -0.5150 -0.2118 -0.3054
    1SOL     OW 4749   4.075   0.417   1.860  0.2660  0.0525  0.6418
    1SOL    HW2 4750   4.070   0.331   1.903  0.9633  0.1614  0.9455
    1SOL    HW3 4751   4.004   0.468   1.900 -0.2324 -0.4206  0.3699
    1SOL    MW4 4752   4.065   0.412   1.871  0.2918  0.0045  0.6460
    1SOL     OW 4753   4.281   0.554   1.969 -0.2196 -1.0006 -0.4405
    1SOL    HW2 4754   4.280   0.530   2.062  0.3984  0.4721 -0.0423
    1SOL    HW3 4755   4.206   0.509   1.932 -0.9575 -0.9349  0.9438
    1SOL    MW4 4756   4.271   0.545   1.977 -0.2351 -0.7977 -0.2053
    1SOL     OW 4757   4.249   0.797   1.861 -0.1758 -0.4669 -0.3706
    1SOL    HW2 4758   4.257   0.706   1.890 -0.1944 -0.2406  0.3605
    1SOL    HW3 4759   4.257   0.793   1.766 -0.3769 -1.2570 -0.3567
    1SOL    MW4 4760   4.251   0.784   1.852 -0.2050 -0.5413 -0.2724
    1SOL     OW 4761   4.053   0.895   2.019  0.0008 -0.1745 -0.5410
    1SOL    HW2 4762   4.125   0.863   1.964  0.1995 -0.5387 -0.0709
    1SOL    HW3 4763   3.976   0.848   1.988  0.2791 -1.0554  0.1061
    1SOL    MW4 4764   4.053   0.885   2.007  0.0639 -0.3388 -0.3936
    1SOL     OW 4765   4.023   1.134   1.868 -0.5651 -0.1029  0.0710
    1SOL    HW2 4766   4.038   1.057   1.923  0.1926  0.8331  1.1836
    1SOL    HW3 4767   3.953   1.182   1.912 -1.7432 -0.6300 -1.1517
    1SOL    MW4 4768   4.016   1.130   1.881 -0.6204 -0.0491  0.0566
    1SOL     OW 4769   4.239   1.267   1.984 -0.1711  0.2286  0.1110
    1SOL    HW2 4770   4.236   1.253   2.078 -0.7903 -1.5787 -0.1624
    1SOL    HW3 4771   4.161   1.222   1.951  0.3867  0.3094 -1.3337
    1SOL    MW4 4772   4.228   1.260   1.992 -0.1793  0.0008 -0.1156
    1SOL     OW 4773   4.230   1.557   1.919 -0.5210 -0.2392 -0.3465
    1SOL    HW2 4774   4.227   1.470   1.959 -0.1029  0.0846  0.4137
    1SOL    HW3 4775   4.245   1.541   1.826 -1.2538 -1.0004 -0.3371
    1SOL    MW4 4776   4.232   1.543   1.912 -0.5622 -0.2970 -0.2451
    1SOL     OW 4777   4.062   1.724   2.039 -0.2094 -0.0627  0.0067
    1SOL    HW2 4778   4.059   1.702   2.132 -0.0597  0.5860  0.1663
    1SOL    HW3 4779   4.139   1.677   2.006  1.2568  1.7472  0.7567
    1SOL    MW4 4780   4.072   1.715   2.047  0.0038  0.2617  0.1268
    1SOL     OW 4781   4.008   1.940   1.885  0.1262  0.4973  0.4027
    1SOL    HW2 4782   4.028   1.860   1.934 -0.0774  0.8801  1.1195
    1SOL    HW3 4783   4.019   1.915   1.794  0.7572 -0.1572  0.6524
    1SOL    MW4 4784   4.012   1.926   1.880  0.1831  0.4616  0.5301
    1SOL     OW 4785   4.227   2.046   2.019  0.5959  0.5729  0.2424
    1SOL    HW2 4786   4.227   2.020   2.112 -1.1079  1.2869  0.4664
    1SOL    HW3 4787   4.153   1.999   1.981  1.3317  0.2332 -0.7855
    1SOL    MW4 4788   4.217   2.036   2.027  0.4687  0.6220  0.1364
    1SOL     OW 4789   4.285   2.299   1.928  0.2014 -0.1050 -0.4614
    1SOL    HW2 4790   4.275   2.215   1.973  2.1706 -0.6386 -0.9653
    1SOL    HW3 4791   4.361   2.340   1.969 -0.0735  0.9352 -0.9719
    1SOL    MW4 4792   4.293   2.293   1.939  0.4249 -0.0384 -0.5953
    1SOL     OW 4793   4.037   2.401   1.969 -0.1020 -0.1424  0.0981
    1SOL    HW2 4794   4.030   2.385   2.063 -0.1341 -1.0045 -0.0433
    1SOL    HW3 4795   4.122   2.365   1.944  0.6635  1.6453  0.0966
    1SOL    MW4 4796   4.047   2.394   1.978 -0.0052 -0.0203  0.0794
    1SOL     OW 4797   4.052   2.678   1.911 -0.2855  0.0036 -0.0147
    1SOL    HW2 4798   4.053   2.588   1.944 -2.1468 -0.0968 -0.1618
    1SOL    HW3 4799   3.963   2.709   1.930 -0.0852  1.3427 -1.1989
    1SOL    MW4 4800   4.040   2.670   1.918 -0.5050  0.1669 -0.1904
    1SOL     OW 4801   4.259   2.830   1.999  0.7271 -0.3604 -0.3175
    1SOL    HW2 4802   4.243   2.834   2.093  0.8486  0.0162 -0.3155
    1SOL    HW3 4803   4.183   2.784   1.964 -0.3507  1.3840 -0.2988
    1SOL    MW4 4804   4.247   2.824   2.007  0.6008 -0.0806 -0.3147
    1SOL     OW 4805   4.277   3.081   1.904 -0.0841  0.0377  0.0743
    1SOL    HW2 4806   4.201   3.124   1.943 -1.0555 -0.9358 -0.6919
    1SOL    HW3 4807   4.270   2.990   1.932 -0.1671 -0.4249 -1.3969
    1SOL    MW4 4808   4.266   3.075   1.913 -0.2232 -0.1519 -0.2210
    1SOL     OW 4809   4.058   3.217   2.000  0.1023 -0.1680  0.1574
    1SOL    HW2 4810   4.038   3.215   2.094  0.8673  0.4776  0.3314
    1SOL    HW3 4811   3.982   3.175   1.959  0.1254 -1.1695  1.1209
    1SOL    MW4 4812   4.045   3.211   2.007  0.2060 -0.2148  0.3076
    1SOL     OW 4813   4.038   3.476   1.897  0.0290  0.3263  0.1384
    1SOL    HW2 4814   4.119   3.521   1.920 -0.7903  2.1861 -0.5117
    1SOL    HW3 4815   4.049   3.387   1.931  2.7013  0.2779 -0.7829
    1SOL    MW4 4816   4.050   3.470   1.905  0.2737  0.5653 -0.0690
    1SOL     OW 4817   4.268   3.598   1.959 -0.3391  0.0208  0.3088
    1SOL    HW2 4818   4.273   3.680   1.911  1.5979  0.2058  0.8107
    1SOL    HW3 4819   4.344   3.548   1.930 -0.2762 -0.6982  1.6655
    1SOL    MW4 4820   4.279   3.602   1.949 -0.0753 -0.0496  0.5541
    1SOL     OW 4821   4.281   3.850   1.855  0.1152 -0.0129 -0.2243
    1SOL    HW2 4822   4.368   3.883   1.878 -0.3432  1.1065 -0.0958
    1SOL    HW3 4823   4.276   3.859   1.760  0.6889 -1.4409 -0.4069
    1SOL    MW4 4824   4.292   3.855   1.845  0.1307 -0.0536 -0.2315
    1SOL     OW 4825   4.070   4.009   1.956 -0.5669  0.2469  0.1209
    1SOL    HW2 4826   4.153   3.966   1.940  0.2288  2.1464 -1.0078
    1SOL    HW3 4827   4.004   3.948   1.924  0.3867 -1.0688  0.5989
    1SOL    MW4 4828   4.072   3.995   1.950 -0.3362  0.3242  0.0352
    1SOL     OW 4829   4.033   4.276   1.854  0.4028  0.5705 -0.0628
    1SOL    HW2 4830   4.095   4.333   1.900 -0.1441 -0.0229  1.4645
    1SOL    HW3 4831   4.044   4.191   1.895  0.9752 -0.3581 -2.0989
    1SOL    MW4 4832   4.042   4.273   1.866  0.4063  0.3695 -0.1298
    1SOL     OW 4833   4.216   4.426   1.970  0.4514  0.1636 -0.0968
    1SOL    HW2 4834   4.222   4.436   2.065  0.1396 -0.3934 -0.0165
    1SOL    HW3 4835   4.221   4.516   1.936  0.7771  0.3481  0.4314
    1SOL    MW4 4836   4.218   4.439   1.978  0.4530  0.1140 -0.0166
    1SOL     OW 4837   0.202   4.593   2.330 -0.2321 -0.1087 -0.1480
    1SOL    HW2 4838   0.220   4.600   2.423  0.2276 -0.5605 -0.1941
    1SOL    HW3 4839   0.273   4.642   2.288  0.0499 -0.6344 -0.2878
    1SOL    MW4 4840   0.214   4.600   2.337 -0.1342 -0.2375 -0.1726
    1SOL     OW 4841   4.487   0.084   2.273  0.6311 -0.4443  0.0282
    1SOL    HW2 4842   4.562   0.026   2.283 -0.9058 -2.3593  0.7202
    1SOL    HW3 4843   4.472   0.089   2.179  1.7811  0.1799 -0.1332
    1SOL    MW4 4844   4.495   0.077   2.262  0.5803 -0.6146  0.0980
    1SOL     OW 4845   0.014   0.339   2.360  0.2997 -0.6280 -0.4651
    1SOL    HW2 4846   0.096   0.376   2.325 -0.0478 -0.7540 -1.4170
    1SOL    HW3 4847   0.019   0.246   2.338  0.4156 -0.8498  0.4832
    1SOL    MW4 4848   0.026   0.332   2.352  0.2694 -0.6739 -0.4656
    1SOL     OW 4849   0.230   0.480   2.251 -0.3313  0.1398 -0.0843
    1SOL    HW2 4850   0.315   0.448   2.282 -0.4439 -0.0111  0.0723
    1SOL    HW3 4851   0.238   0.482   2.155  0.0185  0.6118 -0.0434
    1SOL    MW4 4852   0.242   0.476   2.242 -0.3000  0.1822 -0.0582
    1SOL     OW 4853   0.249   0.742   2.353 -0.8317  0.4269 -0.1069
    1SOL    HW2 4854   0.227   0.733   2.446 -0.6708 -1.7086 -0.2525
    1SOL    HW3 4855   0.241   0.653   2.318  0.6383  0.9418 -1.8023
    1SOL    MW4 4856   0.245   0.729   2.361 -0.6165  0.2131 -0.3500
    1SOL     OW 4857   0.003   0.864   2.261 -0.1168 -0.0035  0.1680
    1SOL    HW2 4858   0.096   0.855   2.282 -0.4439 -1.4457  1.0694
    1SOL    HW3 4859  -0.001   0.853   2.166  0.7777  1.4178 -0.0504
    1SOL    MW4 4860   0.014   0.862   2.251 -0.0419 -0.0063  0.2582
    1SOL     OW 4861   4.467   1.172   2.329 -0.0821  0.0487  0.3458
    1SOL    HW2 4862   4.479   1.177   2.424 -2.1763 -0.1960  0.6583
    1SOL    HW3 4863   4.448   1.080   2.312 -0.8847  0.2959 -0.1422
    1SOL    MW4 4864   4.466   1.161   2.339 -0.4643  0.0491  0.3226
    1SOL     OW 4865   0.225   1.286   2.279 -0.3854 -0.2256  0.2377
    1SOL    HW2 4866   0.142   1.241   2.297 -1.9413  2.4664  0.1543
    1SOL    HW3 4867   0.235   1.279   2.184 -1.3661  0.7778  0.0422
    1SOL    MW4 4868   0.215   1.279   2.269 -0.7201  0.2619  0.2010
    1SOL     OW 4869   0.215   1.574   2.340  0.0114  0.4854  0.1605
    1SOL    HW2 4870   0.212   1.581   2.435  2.0914 -0.1182  0.2895
    1SOL    HW3 4871   0.219   1.480   2.322  0.0107  0.6096 -0.5116
    1SOL    MW4 4872   0.215   1.563   2.350  0.2857  0.4222  0.0892
    1SOL     OW 4873   4.467   1.679   2.265 -0.1571  0.0783  0.4694
    1SOL    HW2 4874   4.462   1.768   2.302  1.5196  0.6211 -0.5699
    1SOL    HW3 4875   4.550   1.645   2.296 -0.5080 -0.9034  0.3378
    1SOL    MW4 4876   4.477   1.686   2.274  0.0181  0.0205  0.3150
    1SOL     OW 4877   4.470   1.926   2.398  0.1486  0.0150  0.3623
    1SOL    HW2 4878   4.386   1.965   2.373 -0.4472 -0.6887  1.2385
    1SOL    HW3 4879   4.535   1.977   2.349 -0.7086  1.2099  0.4320
    1SOL    MW4 4880   4.468   1.938   2.388 -0.0434  0.0798  0.4871
    1SOL     OW 4881   0.167   2.076   2.260 -0.7073 -0.5958  0.1653
    1SOL    HW2 4882   0.257   2.053   2.282 -0.7392 -1.2129 -0.3408
    1SOL    HW3 4883   0.166   2.081   2.165 -0.7475  1.3506  0.2436
    1SOL    MW4 4884   0.179   2.074   2.251 -0.7168 -0.4208  0.1092
    1SOL     OW 4885   0.216   2.331   2.365  0.3212 -0.2156 -0.2217
    1SOL    HW2 4886   0.209   2.333   2.460 -1.9303  0.2816 -0.3599
    1SOL    HW3 4887   0.192   2.242   2.341  0.4277 -0.2134 -0.3339
    1SOL    MW4 4888   0.212   2.320   2.374  0.0382 -0.1497 -0.2546
    1SOL     OW 4889   4.455   2.462   2.318  0.1035 -0.5950  0.2353
    1SOL    HW2 4890   4.459   2.553   2.349  1.3307 -0.5477 -0.0663
    1SOL    HW3 4891   4.544   2.430   2.326 -0.1644 -1.5193 -0.4705
    1SOL    MW4 4892   4.467   2.470   2.323  0.2303 -0.7105  0.1025
    1SOL     OW 4893   4.462   2.730   2.383 -0.6240 -0.2169  0.1159
    1SOL    HW2 4894   4.502   2.742   2.469 -0.6770  1.6135 -0.0972
    1SOL    HW3 4895   4.531   2.753   2.321 -1.2692  0.6422 -0.2915
    1SOL    MW4 4896   4.476   2.735   2.386 -0.7157  0.1378  0.0341
    1SOL     OW 4897   0.191   2.835   2.266 -0.2355  0.0762 -0.3988
    1SOL    HW2 4898   0.270   2.787   2.289  0.0469  0.4329 -0.6167
    1SOL    HW3 4899   0.189   2.834   2.170 -0.0262  0.8093 -0.4185
    1SOL    MW4 4900   0.201   2.829   2.256 -0.1706  0.2201 -0.4301
    1SOL     OW 4901   0.213   3.087   2.397  0.2081 -0.2153  0.2895
    1SOL    HW2 4902   0.142   3.134   2.354 -1.2435 -0.7045  2.0864
    1SOL    HW3 4903   0.209   2.998   2.362  0.3624 -0.0601 -0.1165
    1SOL    MW4 4904   0.203   3.082   2.387  0.0369 -0.2594  0.4730
    1SOL     OW 4905   4.488   3.217   2.279 -0.5374 -0.0204 -0.4876
    1SOL    HW2 4906   4.483   3.302   2.323 -1.9729 -0.6620  0.6029
    1SOL    HW3 4907   4.489   3.239   2.186 -0.7482  1.2032 -0.2091
    1SOL    MW4 4908   4.488   3.231   2.272 -0.7548  0.0563 -0.3068
    1SOL     OW 4909   0.001   3.474   2.348  0.1998  0.2076 -0.2401
    1SOL    HW2 4910  -0.011   3.476   2.443 -0.2018 -1.2658 -0.2314
    1SOL    HW3 4911  -0.075   3.521   2.314 -0.3164 -0.3326  0.1432
    1SOL    MW4 4912  -0.011   3.480   2.356  0.0787 -0.0579 -0.1881
    1SOL     OW 4913   0.194   3.635   2.233 -0.3349 -0.0579  0.2727
    1SOL    HW2 4914   0.270   3.593   2.273 -0.9228 -0.9405  0.4674
    1SOL    HW3 4915   0.119   3.584   2.264 -1.0610  1.1932  0.5890
    1SOL    MW4 4916   0.194   3.623   2.242 -0.5083 -0.0093  0.3400
    1SOL     OW 4917   0.186   3.889   2.337 -0.0435  0.4216 -0.0599
    1SOL    HW2 4918   0.098   3.920   2.318 -0.4642 -1.1797 -0.8099
    1SOL    HW3 4919   0.187   3.798   2.306  1.3612 -0.0918  1.3996
    1SOL    MW4 4920   0.175   3.881   2.331  0.0863  0.1426  0.0339
    1SOL     OW 4921   4.433   3.990   2.241 -0.2518  0.4353 -0.6099
    1SOL    HW2 4922   4.425   4.083   2.263  1.1881  0.8139 -1.5511
    1SOL    HW3 4923   4.457   3.990   2.148 -0.9004 -0.9009 -0.7795
    1SOL    MW4 4924   4.435   4.002   2.231 -0.1483  0.3095 -0.7563
    1SOL     OW 4925   4.466   4.254   2.342  0.1802  0.3318  0.4450
    1SOL    HW2 4926   4.477   4.253   2.437  0.7025 -2.4398  0.4161
    1SOL    HW3 4927   4.552   4.278   2.308  0.5440 -0.5927  0.6700
    1SOL    MW4 4928   4.479   4.257   2.350  0.2975 -0.1559  0.4711
    1SOL     OW 4929   0.212   4.331   2.240 -0.2794 -0.1534  0.2877
    1SOL    HW2 4930   0.279   4.283   2.289 -3.6070 -1.7135  3.5573
    1SOL    HW3 4931   0.211   4.418   2.279  1.2104  0.5858 -1.2200
    1SOL    MW4 4932   0.221   4.336   2.252 -0.5219 -0.2618  0.5202
    1SOL     OW 4933   0.634   4.646   2.325 -0.1972  0.5334 -0.1327
    1SOL    HW2 4934   0.651   4.646   2.420 -1.5811 -0.9045  0.1352
    1SOL    HW3 4935   0.713   4.686   2.287  1.3463 -0.8674  1.4789
    1SOL    MW4 4936   0.647   4.651   2.333 -0.1761  0.1583  0.1149
    1SOL     OW 4937   0.400   0.105   2.225  0.0834  0.3640  0.2360
    1SOL    HW2 4938   0.480   0.066   2.260  0.9978  2.1315  0.1919
    1SOL    HW3 4939   0.414   0.109   2.131 -1.2819 -1.9748 -0.0858
    1SOL    MW4 4940   0.412   0.100   2.217  0.0239  0.2886  0.1876
    1SOL     OW 4941   0.457   0.365   2.330 -0.1502  0.0859  0.7824
    1SOL    HW2 4942   0.463   0.357   2.425  1.1187 -0.3488  0.6686
    1SOL    HW3 4943   0.442   0.276   2.299 -0.1021  0.1614  0.5421
    1SOL    MW4 4944   0.456   0.352   2.339  0.0236  0.0385  0.7358
    1SOL     OW 4945   0.701   0.481   2.247  0.2871  0.0616  0.3726
    1SOL    HW2 4946   0.711   0.567   2.289  0.1150  0.0675  0.4012
    1SOL    HW3 4947   0.618   0.447   2.281  0.5203 -0.2605  0.6213
    1SOL    MW4 4948   0.691   0.488   2.257  0.2952  0.0198  0.4091
    1SOL     OW 4949   0.696   0.731   2.377  0.0064  0.0239  0.1437
    1SOL    HW2 4950   0.703   0.750   2.470 -0.5984 -0.9204  0.3863
    1SOL    HW3 4951   0.614   0.774   2.350  0.0038  0.0084  0.1265
    1SOL    MW4 4952   0.686   0.739   2.386 -0.0738 -0.1027  0.1733
    1SOL     OW 4953   0.487   0.870   2.276 -0.2698 -0.1691 -0.0881
    1SOL    HW2 4954   0.478   0.961   2.305  0.3874  0.0576 -0.5974
    1SOL    HW3 4955   0.408   0.827   2.309  0.5820  0.0257  2.2978
    1SOL    MW4 4956   0.475   0.877   2.284 -0.0707 -0.1135  0.1595
    1SOL     OW 4957   0.435   1.132   2.366  0.0535 -0.5181 -0.2557
    1SOL    HW2 4958   0.421   1.117   2.459 -0.0606 -0.0277 -0.1978
    1SOL    HW3 4959   0.365   1.190   2.339 -0.2277 -1.0784 -0.7641
    1SOL    MW4 4960   0.424   1.138   2.375  0.0013 -0.5271 -0.3150
    1SOL     OW 4961   0.651   1.272   2.242 -0.5404  0.4379 -0.1080
    1SOL    HW2 4962   0.656   1.357   2.286 -0.5442  0.0214  0.6923
    1SOL    HW3 4963   0.579   1.226   2.286  1.2924 -1.0739  1.3866
    1SOL    MW4 4964   0.642   1.277   2.254 -0.2991  0.1835  0.1945
    1SOL     OW 4965   0.668   1.532   2.341 -0.0611 -0.2503  0.1881
    1SOL    HW2 4966   0.652   1.532   2.436  0.1610 -1.8572  0.2280
    1SOL    HW3 4967   0.754   1.573   2.332  0.8191 -1.9092  0.8493
    1SOL    MW4 4968   0.677   1.538   2.352  0.0843 -0.6812  0.2806
    1SOL     OW 4969   0.449   1.681   2.231 -0.2369  0.5812  0.1470
    1SOL    HW2 4970   0.517   1.623   2.266 -0.3630  0.0123 -0.5522
    1SOL    HW3 4971   0.367   1.644   2.263 -0.3526  0.0671 -0.7429
    1SOL    MW4 4972   0.447   1.669   2.240 -0.2688  0.4385 -0.0625
    1SOL     OW 4973   0.415   1.948   2.330  0.3620 -0.4481 -0.3940
    1SOL    HW2 4974   0.499   1.987   2.306  0.6323 -1.0694 -0.4604
    1SOL    HW3 4975   0.424   1.855   2.309  0.1332 -0.7637  0.8259
    1SOL    MW4 4976   0.427   1.941   2.324  0.3675 -0.5717 -0.2418
    1SOL     OW 4977   0.618   2.087   2.225 -0.1215  0.1060  0.2267
    1SOL    HW2 4978   0.695   2.038   2.256  0.7369  0.5002 -1.2317
    1SOL    HW3 4979   0.632   2.176   2.257 -1.1945 -0.3591  2.0392
    1SOL    MW4 4980   0.630   2.092   2.233 -0.1498  0.0966  0.2737
    1SOL     OW 4981   0.653   2.349   2.320  0.0935 -0.4806 -0.0322
    1SOL    HW2 4982   0.654   2.345   2.415  0.5781  0.4688  0.0124
    1SOL    HW3 4983   0.736   2.391   2.296  0.1775 -1.1148 -0.8889
    1SOL    MW4 4984   0.664   2.354   2.329  0.1685 -0.4392 -0.1395
    1SOL     OW 4985   0.409   2.434   2.195 -0.0709 -0.3178  0.6987
    1SOL    HW2 4986   0.491   2.398   2.230 -0.6919 -0.2794  2.1890
    1SOL    HW3 4987   0.341   2.401   2.253 -1.0571  0.1508 -0.1824
    1SOL    MW4 4988   0.411   2.425   2.207 -0.2829 -0.2506  0.7792
    1SOL     OW 4989   0.422   2.695   2.298  0.5513  0.1789  0.5714
    1SOL    HW2 4990   0.421   2.681   2.393 -0.0186  1.3568  0.7430
    1SOL    HW3 4991   0.427   2.606   2.262  1.6550 -0.2463  1.7046
    1SOL    MW4 4992   0.422   2.681   2.306  0.6217  0.2782  0.7436
    1SOL     OW 4993   0.661   2.839   2.221  0.2243  0.3425  0.3789
    1SOL    HW2 4994   0.737   2.791   2.254  1.5914  2.0328 -0.1876
    1SOL    HW3 4995   0.586   2.786   2.245  1.6126 -1.5156  0.7082
    1SOL    MW4 4996   0.661   2.826   2.228  0.5879  0.3202  0.3476
    1SOL     OW 4997   0.670   3.096   2.362  0.0661  0.2396  0.4412
    1SOL    HW2 4998   0.591   3.147   2.342  0.2557 -0.2506 -1.6425
    1SOL    HW3 4999   0.662   3.017   2.309  1.9279  0.1583  0.2341
    1SOL    MW4 5000   0.658   3.092   2.353  0.3368  0.1643  0.1390
    1SOL     OW 5001   0.431   3.248   2.288  0.0835 -0.3688 -0.3356
    1SOL    HW2 5002   0.362   3.193   2.325 -0.9526  1.6261  0.8256
    1SOL    HW3 5003   0.418   3.241   2.193 -0.3291 -1.7256 -0.1952
    1SOL    MW4 5004   0.420   3.240   2.280 -0.1076 -0.2847 -0.1638
    1SOL     OW 5005   0.431   3.536   2.326  0.0919  0.8574 -0.0904
    1SOL    HW2 5006   0.522   3.562   2.313 -0.0377  0.9149 -0.9607
    1SOL    HW3 5007   0.429   3.442   2.308  0.0377  0.8002  0.2185
    1SOL    MW4 5008   0.442   3.527   2.322  0.0677  0.8571 -0.1647
    1SOL     OW 5009   0.681   3.602   2.270  0.7755  0.0391 -0.3364
    1SOL    HW2 5010   0.671   3.691   2.305  2.2210  0.1234 -0.1292
    1SOL    HW3 5011   0.684   3.613   2.175 -0.5331  0.0541 -0.3928
    1SOL    MW4 5012   0.680   3.615   2.262  0.7935  0.0525 -0.3164
    1SOL     OW 5013   0.690   3.855   2.386  0.3366  0.0521  0.3426
    1SOL    HW2 5014   0.680   3.842   2.481 -0.7223 -0.5674  0.1491
    1SOL    HW3 5015   0.619   3.914   2.362  0.1840 -0.3479 -0.1879
    1SOL    MW4 5016   0.679   3.861   2.396  0.1768 -0.0825  0.2470
    1SOL     OW 5017   0.452   3.997   2.260  0.1649 -0.2375  0.2674
    1SOL    HW2 5018   0.361   3.982   2.288  0.5008  0.2471  1.6675
    1SOL    HW3 5019   0.453   3.971   2.168 -1.3671 -0.3781  0.2674
    1SOL    MW4 5020   0.440   3.992   2.252  0.0071 -0.1922  0.4520
    1SOL     OW 5021   0.470   4.258   2.356  0.2520  0.2928  0.2254
    1SOL    HW2 5022   0.548   4.304   2.326  0.3224 -0.0593 -0.1449
    1SOL    HW3 5023   0.481   4.169   2.323 -0.1497  0.1568  0.4533
    1SOL    MW4 5024   0.482   4.252   2.348  0.2083  0.2289  0.2067
    1SOL     OW 5025   0.681   4.398   2.214  0.3625 -0.3212  0.1969
    1SOL    HW2 5026   0.667   4.488   2.242  0.6582  0.1133 -1.0039
    1SOL    HW3 5027   0.661   4.399   2.120 -0.4396 -1.6835  0.3375
    1SOL    MW4 5028   0.677   4.410   2.205  0.2958 -0.4435  0.0572
    1SOL     OW 5029   1.088   4.643   2.341 -0.0354 -0.5107  0.0812
    1SOL    HW2 5030   1.081   4.626   2.435  0.1138  0.7118  0.3219
    1SOL    HW3 5031   1.001   4.674   2.316  0.0089 -0.5548 -0.1254
    1SOL    MW4 5032   1.076   4.645   2.350 -0.0099 -0.3548  0.0858
    1SOL     OW 5033   0.848   0.117   2.239  0.2930  0.1407 -0.2945
    1SOL    HW2 5034   0.885   0.197   2.276 -0.0408  0.2895 -0.2753
    1SOL    HW3 5035   0.879   0.115   2.149 -0.9141  1.0810 -0.7546
    1SOL    MW4 5036   0.857   0.127   2.232  0.0898  0.2844 -0.3529
    1SOL     OW 5037   0.946   0.363   2.338  0.0215 -0.0473 -0.0171
    1SOL    HW2 5038   1.024   0.397   2.295  0.9269  1.5285  2.7645
    1SOL    HW3 5039   0.876   0.424   2.314 -0.1238 -0.7517 -1.4729
    1SOL    MW4 5040   0.947   0.375   2.329  0.1218  0.0677  0.1578
    1SOL     OW 5041   1.169   0.507   2.233 -0.0478 -0.0128  0.0578
    1SOL    HW2 5042   1.246   0.457   2.258  0.2424 -0.2564 -1.3316
    1SOL    HW3 5043   1.152   0.482   2.142 -0.9177  1.1092 -0.0962
    1SOL    MW4 5044   1.177   0.497   2.224 -0.1243  0.1031 -0.1459
    1SOL     OW 5045   1.144   0.782   2.328  0.3424  0.3041  0.1270
    1SOL    HW2 5046   1.067   0.825   2.289  1.3424  1.8732 -0.1552
    1SOL    HW3 5047   1.148   0.697   2.283 -1.4050  0.0541  0.3772
    1SOL    MW4 5048   1.134   0.776   2.317  0.2438  0.4781  0.1225
    1SOL     OW 5049   0.887   0.903   2.237 -0.5729  0.3102 -0.1302
    1SOL    HW2 5050   0.885   0.990   2.277 -1.2430 -0.0782  0.7001
    1SOL    HW3 5051   0.828   0.850   2.291  0.6293 -0.9261 -0.0045
    1SOL    MW4 5052   0.879   0.908   2.249 -0.5028  0.0958 -0.0038
    1SOL     OW 5053   0.869   1.160   2.369  0.1879  0.2402 -0.3594
    1SOL    HW2 5054   0.952   1.191   2.333  0.0563  0.2180 -0.6805
    1SOL    HW3 5055   0.803   1.216   2.329  0.1667  1.2073  0.9810
    1SOL    MW4 5056   0.871   1.172   2.359  0.1677  0.3649 -0.2251
    1SOL     OW 5057   1.072   1.305   2.233  0.1590  0.2910  0.5492
    1SOL    HW2 5058   1.147   1.254   2.261  0.1542  1.1205  2.1867
    1SOL    HW3 5059   1.075   1.304   2.137  0.3271 -2.4725  0.5609
    1SOL    MW4 5060   1.082   1.298   2.224  0.1805  0.0359  0.7668
    1SOL     OW 5061   1.129   1.545   2.391 -0.2861  0.2578 -0.1309
    1SOL    HW2 5062   1.061   1.603   2.355  0.2043  1.4644  0.8396
    1SOL    HW3 5063   1.128   1.469   2.333 -1.9019  0.6184 -0.6161
    1SOL    MW4 5064   1.120   1.543   2.379 -0.4345  0.4646 -0.0668
    1SOL     OW 5065   0.918   1.654   2.251  0.0207 -0.3874 -0.2970
    1SOL    HW2 5066   0.891   1.746   2.254  0.3610 -0.3084  0.4329
    1SOL    HW3 5067   0.921   1.633   2.158  2.2037  1.0031 -0.5603
    1SOL    MW4 5068   0.915   1.664   2.239  0.3536 -0.1934 -0.2353
    1SOL     OW 5069   0.864   1.941   2.322  0.3168  0.0347 -0.6377
    1SOL    HW2 5070   0.873   1.925   2.416  1.1328 -2.9619 -1.1590
    1SOL    HW3 5071   0.949   1.976   2.295  0.4652 -0.1808 -0.4457
    1SOL    MW4 5072   0.877   1.944   2.331  0.4441 -0.3891 -0.6814
    1SOL     OW 5073   1.107   2.035   2.225  0.0470  1.0000 -0.2347
    1SOL    HW2 5074   1.177   1.984   2.265 -0.4409 -0.1331 -0.7967
    1SOL    HW3 5075   1.129   2.037   2.132 -0.1626  1.4607 -0.2774
    1SOL    MW4 5076   1.119   2.029   2.218 -0.0451  0.9112 -0.3147
    1SOL     OW 5077   1.129   2.298   2.319  0.1248  0.0546  0.6503
    1SOL    HW2 5078   1.213   2.336   2.294  0.4498 -0.2895  1.2091
    1SOL    HW3 5079   1.131   2.209   2.285 -0.5012  0.4175 -0.3688
    1SOL    MW4 5080   1.140   2.291   2.312  0.0851  0.0570  0.5896
    1SOL     OW 5081   0.906   2.458   2.199  0.2445 -0.0812  0.3202
    1SOL    HW2 5082   0.974   2.403   2.238 -0.0888 -0.5761  0.2048
    1SOL    HW3 5083   0.928   2.459   2.106  0.6720  0.5823  0.4215
    1SOL    MW4 5084   0.918   2.451   2.192  0.2569 -0.0591  0.3185
    1SOL     OW 5085   0.855   2.704   2.327  0.0794 -0.4880 -0.1899
    1SOL    HW2 5086   0.854   2.683   2.420 -0.6181 -1.0639 -0.3207
    1SOL    HW3 5087   0.881   2.622   2.285 -1.3452 -0.7208 -0.6189
    1SOL    MW4 5088   0.859   2.690   2.334 -0.2005 -0.5946 -0.2637
    1SOL     OW 5089   1.087   2.816   2.230 -0.2186  0.0036 -0.2770
    1SOL    HW2 5090   1.146   2.750   2.265 -0.3133  0.1884  0.2334
    1SOL    HW3 5091   1.001   2.795   2.267 -0.0180  1.1205  0.8632
    1SOL    MW4 5092   1.083   2.805   2.239 -0.2047  0.1752 -0.0591
    1SOL     OW 5093   1.115   3.079   2.365 -0.2238  0.1987  0.6062
    1SOL    HW2 5094   1.036   3.109   2.319  0.5504  2.0957  0.4402
    1SOL    HW3 5095   1.128   2.990   2.334 -0.9760  0.6778 -1.2110
    1SOL    MW4 5096   1.106   3.071   2.355 -0.2209  0.5121  0.3445
    1SOL     OW 5097   0.896   3.208   2.247 -0.4250 -0.3421 -0.0767
    1SOL    HW2 5098   0.910   3.298   2.277 -0.7512  0.6248 -2.6750
    1SOL    HW3 5099   0.808   3.186   2.277  0.2037 -0.3483  1.8200
    1SOL    MW4 5100   0.886   3.217   2.255 -0.3850 -0.2153 -0.1693
    1SOL     OW 5101   0.903   3.465   2.341  0.0637  0.1553  0.0267
    1SOL    HW2 5102   0.906   3.462   2.437 -0.8642 -1.6741  0.0149
    1SOL    HW3 5103   0.825   3.517   2.321 -0.8190 -1.0275  0.2915
    1SOL    MW4 5104   0.893   3.471   2.351 -0.1751 -0.2422  0.0598
    1SOL     OW 5105   1.137   3.612   2.262  0.6246 -0.3303 -0.1073
    1SOL    HW2 5106   1.218   3.568   2.287  0.0117 -0.8262  1.0510
    1SOL    HW3 5107   1.069   3.570   2.315 -0.1484  1.1950  0.1608
    1SOL    MW4 5108   1.139   3.601   2.273  0.4417 -0.1943  0.0813
    1SOL     OW 5109   1.136   3.883   2.343  0.5402  0.3921 -0.2642
    1SOL    HW2 5110   1.217   3.920   2.309  0.2599  0.7270 -0.5838
    1SOL    HW3 5111   1.136   3.793   2.313  1.1009  0.2061  0.2848
    1SOL    MW4 5112   1.146   3.876   2.335  0.5772  0.4117 -0.2339
    1SOL     OW 5113   0.888   3.996   2.245  0.1664 -0.3840 -0.0518
    1SOL    HW2 5114   0.976   3.967   2.270 -0.3156 -0.8361  1.1732
    1SOL    HW3 5115   0.830   3.942   2.299 -0.8866 -0.7120 -1.4974
    1SOL    MW4 5116   0.892   3.985   2.256 -0.0362 -0.4869 -0.0808
    1SOL     OW 5117   0.878   4.256   2.357 -0.4914 -0.6070 -0.0591
    1SOL    HW2 5118   0.859   4.179   2.304 -1.0446  0.3638 -1.3101
    1SOL    HW3 5119   0.819   4.324   2.323  0.7651  0.6722  0.2532
    1SOL    MW4 5120   0.868   4.255   2.346 -0.3987 -0.3099 -0.1833
    1SOL     OW 5121   1.134   4.379   2.248  0.3539  0.3243  0.0321
    1SOL    HW2 5122   1.066   4.331   2.295  0.4416 -0.9453 -1.1101
    1SOL    HW3 5123   1.117   4.471   2.268 -0.7785 -0.0801  0.9669
    1SOL    MW4 5124   1.123   4.385   2.257  0.2160  0.1030  0.0045
    1SOL     OW 5125   1.545   4.654   2.338  0.2621  0.4899 -0.2720
    1SOL    HW2 5126   1.620   4.705   2.308  0.2259  0.6007 -0.1729
    1SOL    HW3 5127   1.468   4.702   2.308  0.2262  0.5696 -0.0576
    1SOL    MW4 5128   1.545   4.667   2.330  0.2525  0.5155 -0.2308
    1SOL     OW 5129   1.311   0.104   2.236  0.7527 -0.2528  0.1236
    1SOL    HW2 5130   1.312   0.192   2.274 -0.0244 -0.7569  1.3296
    1SOL    HW3 5131   1.231   0.064   2.269  1.0101 -1.3617 -0.5599
    1SOL    MW4 5132   1.301   0.111   2.246  0.6843 -0.4656  0.1926
    1SOL     OW 5133   1.347   0.351   2.355  0.3159  0.1601  0.1875
    1SOL    HW2 5134   1.352   0.348   2.451  1.8906 -1.5022  0.0785
    1SOL    HW3 5135   1.431   0.388   2.328 -1.2370  3.3900 -0.4874
    1SOL    MW4 5136   1.359   0.355   2.364  0.3188  0.3670  0.0837
    1SOL     OW 5137   1.551   0.500   2.249  0.0457 -0.0939 -0.6014
    1SOL    HW2 5138   1.635   0.464   2.278 -1.2933 -2.6129  0.3357
    1SOL    HW3 5139   1.551   0.488   2.154  0.5862 -0.4960 -0.5567
    1SOL    MW4 5140   1.562   0.493   2.240 -0.0597 -0.4793 -0.4718
    1SOL     OW 5141   1.569   0.757   2.329 -0.1417 -0.4002 -0.3163
    1SOL    HW2 5142   1.638   0.814   2.295 -0.4107 -0.6733 -1.3468
    1SOL    HW3 5143   1.575   0.679   2.274 -0.4228 -0.9605  0.4433
    1SOL    MW4 5144   1.579   0.754   2.318 -0.2143 -0.5102 -0.3519
    1SOL     OW 5145   1.360   0.892   2.200 -0.2889  0.1448  0.6972
    1SOL    HW2 5146   1.435   0.853   2.244 -0.6473 -0.0680  1.1220
    1SOL    HW3 5147   1.284   0.852   2.241 -0.7553  2.9237  2.7179
    1SOL    MW4 5148   1.360   0.882   2.211 -0.3978  0.4833  1.0202
    1SOL     OW 5149   1.304   1.172   2.310 -0.4157 -0.2096  0.0095
    1SOL    HW2 5150   1.314   1.163   2.404 -0.3858 -0.3429 -0.0057
    1SOL    HW3 5151   1.333   1.087   2.275  1.4464  0.5107 -0.2577
    1SOL    MW4 5152   1.309   1.159   2.317 -0.1661 -0.1321 -0.0279
    1SOL     OW 5153   1.564   1.302   2.229 -0.1300 -0.1271  0.1773
    1SOL    HW2 5154   1.473   1.282   2.253 -0.8502  1.1418 -1.4072
    1SOL    HW3 5155   1.572   1.272   2.139  1.0388 -0.2223  0.3088
    1SOL    MW4 5156   1.553   1.295   2.220 -0.0708  0.0278 -0.0145
    1SOL     OW 5157   1.583   1.525   2.375  0.6292  0.5854 -0.1167
    1SOL    HW2 5158   1.652   1.580   2.337  1.2889  0.3036  0.6636
    1SOL    HW3 5159   1.587   1.444   2.325  0.2875  0.8854 -0.6390
    1SOL    MW4 5160   1.592   1.522   2.363  0.6711  0.5878 -0.0825
    1SOL     OW 5161   1.365   1.642   2.242  0.0532  0.5019  0.0853
    1SOL    HW2 5162   1.450   1.613   2.276  0.5334 -1.3440 -2.5420
    1SOL    HW3 5163   1.302   1.616   2.310  1.2336 -0.9100  0.6774
    1SOL    MW4 5164   1.368   1.634   2.256  0.2724  0.0721 -0.1833
    1SOL     OW 5165   1.324   1.895   2.349 -0.7131  0.2096  0.6136
    1SOL    HW2 5166   1.390   1.959   2.323 -0.6671 -1.0662 -2.5804
    1SOL    HW3 5167   1.358   1.811   2.318 -1.6606 -1.1560  3.0775
    1SOL    MW4 5168   1.337   1.892   2.342 -0.8322 -0.1389  0.5174
    1SOL     OW 5169   1.531   2.040   2.254  0.6273  0.3896  0.3207
    1SOL    HW2 5170   1.615   2.007   2.287 -0.2092 -0.8789  1.2509
    1SOL    HW3 5171   1.537   2.031   2.159  1.7382  0.7932  0.3506
    1SOL    MW4 5172   1.543   2.034   2.246  0.6635  0.2754  0.4475
    1SOL     OW 5173   1.618   2.299   2.326  0.2556  0.3047 -0.5702
    1SOL    HW2 5174   1.615   2.293   2.422  1.2948 -1.5957 -0.6279
    1SOL    HW3 5175   1.583   2.215   2.296 -0.8634  1.2368 -1.8849
    1SOL    MW4 5176   1.613   2.287   2.335  0.2451  0.1769 -0.7513
    1SOL     OW 5177   1.369   2.396   2.229  0.3638  0.0629 -0.1902
    1SOL    HW2 5178   1.456   2.382   2.268 -0.1264 -1.2105  0.4683
    1SOL    HW3 5179   1.378   2.369   2.138  0.3045 -1.3874  0.2276
    1SOL    MW4 5180   1.382   2.391   2.222  0.2913 -0.2961 -0.0482
    1SOL     OW 5181   1.304   2.674   2.313 -0.3248  0.1679 -0.0386
    1SOL    HW2 5182   1.371   2.723   2.266  0.5514  0.2619  1.2725
    1SOL    HW3 5183   1.325   2.582   2.297 -0.3827  0.1999 -0.3063
    1SOL    MW4 5184   1.316   2.669   2.305 -0.2168  0.1845  0.0989
    1SOL     OW 5185   1.537   2.797   2.237  0.3604  0.2967 -0.1480
    1SOL    HW2 5186   1.545   2.886   2.271  0.2301  0.3070 -0.1436
    1SOL    HW3 5187   1.549   2.806   2.142  1.1961  0.2050 -0.0565
    1SOL    MW4 5188   1.540   2.810   2.229  0.4535  0.2863 -0.1354
    1SOL     OW 5189   1.577   3.058   2.350 -0.1211 -0.1158  0.1029
    1SOL    HW2 5190   1.572   3.069   2.445  2.5842  0.8997  0.1605
    1SOL    HW3 5191   1.518   3.125   2.315  0.6741  1.0764  1.0254
    1SOL    MW4 5192   1.568   3.068   2.358  0.3407  0.1755  0.2320
    1SOL     OW 5193   1.367   3.227   2.259 -0.0749 -0.2255 -0.5532
    1SOL    HW2 5194   1.297   3.169   2.288  0.1224  0.0372  0.4599
    1SOL    HW3 5195   1.363   3.224   2.163 -1.4801 -0.1855 -0.4993
    1SOL    MW4 5196   1.357   3.219   2.250 -0.2342 -0.1857 -0.4125
    1SOL     OW 5197   1.380   3.496   2.335  0.4561 -0.4730 -0.2919
    1SOL    HW2 5198   1.384   3.488   2.431  3.4622  0.3715 -0.3143
    1SOL    HW3 5199   1.381   3.405   2.304  0.3132 -0.7376  0.4504
    1SOL    MW4 5200   1.380   3.483   2.344  0.8339 -0.3963 -0.1969
    1SOL     OW 5201   1.604   3.630   2.244  0.6265  0.3320 -0.0377
    1SOL    HW2 5202   1.606   3.717   2.283 -1.3306  0.9415 -1.2252
    1SOL    HW3 5203   1.523   3.591   2.277  0.1814 -0.0443 -1.5291
    1SOL    MW4 5204   1.593   3.636   2.254  0.3097  0.3629 -0.3912
    1SOL     OW 5205   1.609   3.888   2.365  0.4034 -0.4562  0.3933
    1SOL    HW2 5206   1.610   3.903   2.460  0.6213 -0.0588  0.3276
    1SOL    HW3 5207   1.688   3.931   2.333  0.2701 -0.4963  0.0163
    1SOL    MW4 5208   1.619   3.896   2.373  0.4146 -0.4089  0.3350
    1SOL     OW 5209   1.367   3.982   2.232 -0.3615  0.1764 -0.2546
    1SOL    HW2 5210   1.451   3.949   2.265 -0.8535 -1.5412 -0.7010
    1SOL    HW3 5211   1.379   3.985   2.137 -0.8879 -0.2591 -0.3313
    1SOL    MW4 5212   1.380   3.978   2.224 -0.4959 -0.1078 -0.3238
    1SOL     OW 5213   1.382   4.238   2.325 -0.1409  1.1095 -0.1477
    1SOL    HW2 5214   1.365   4.154   2.283 -0.3552 -0.1161  2.2602
    1SOL    HW3 5215   1.308   4.293   2.299 -1.0947 -0.1133 -0.0871
    1SOL    MW4 5216   1.370   4.234   2.316 -0.2949  0.7868  0.1781
    1SOL     OW 5217   1.601   4.382   2.250 -0.2405  0.0300 -0.3339
    1SOL    HW2 5218   1.537   4.318   2.281  2.6063 -1.9611  1.6573
    1SOL    HW3 5219   1.571   4.466   2.286 -1.2283 -1.0125  1.3234
    1SOL    MW4 5220   1.589   4.385   2.259  0.0046 -0.3705  0.1476
    1SOL     OW 5221   2.012   0.023   2.319  0.2880  0.0183  0.1334
    1SOL    HW2 5222   2.092   0.058   2.280  1.2506  0.2918  2.2807
    1SOL    HW3 5223   2.017  -0.072   2.303  1.6140 -0.1130  1.2314
    1SOL    MW4 5224   2.023   0.015   2.311  0.5898  0.0372  0.5617
    1SOL     OW 5225   1.776   0.121   2.223 -0.0120 -0.1419 -0.0988
    1SOL    HW2 5226   1.779   0.203   2.273 -0.6253  0.4857 -1.0747
    1SOL    HW3 5227   1.851   0.071   2.255  0.0060  0.5378  0.9553
    1SOL    MW4 5228   1.787   0.126   2.234 -0.0905  0.0306 -0.0885
    1SOL     OW 5229   1.770   0.352   2.356 -0.1656  0.2261 -0.3775
    1SOL    HW2 5230   1.767   0.334   2.450 -0.5239 -0.6465 -0.5525
    1SOL    HW3 5231   1.853   0.398   2.344  0.3007 -0.4372  0.2388
    1SOL    MW4 5232   1.781   0.356   2.367 -0.1514  0.0235 -0.3192
    1SOL     OW 5233   2.000   0.487   2.285  0.3085 -0.4221 -0.2118
    1SOL    HW2 5234   1.995   0.582   2.296  0.1899 -0.5648  1.0115
    1SOL    HW3 5235   1.998   0.473   2.190 -1.5556  0.6814 -0.3430
    1SOL    MW4 5236   1.999   0.497   2.274  0.0470 -0.2953 -0.0679
    1SOL     OW 5237   2.002   0.764   2.338 -0.0522 -0.0511  0.2595
    1SOL    HW2 5238   2.081   0.797   2.297  0.5465 -1.8815 -0.0745
    1SOL    HW3 5239   2.023   0.762   2.432  0.4646 -0.9741  0.1273
    1SOL    MW4 5240   2.015   0.768   2.345  0.0949 -0.4144  0.1979
    1SOL     OW 5241   1.798   0.918   2.227  0.3717 -0.1798 -0.4164
    1SOL    HW2 5242   1.808   1.008   2.256  1.9850 -0.3184 -0.5419
    1SOL    HW3 5243   1.875   0.872   2.260  0.0881 -1.2868 -1.2451
    1SOL    MW4 5244   1.809   0.923   2.235  0.5472 -0.3442 -0.5422
    1SOL     OW 5245   1.784   1.161   2.348 -0.3338  0.7901 -0.0154
    1SOL    HW2 5246   1.856   1.200   2.299 -0.6338  0.1827 -0.9442
    1SOL    HW3 5247   1.706   1.206   2.316 -0.4741  0.7587  0.2827
    1SOL    MW4 5248   1.783   1.172   2.338 -0.3918  0.7058 -0.0987
    1SOL     OW 5249   2.020   1.236   2.234  0.1710 -0.2861 -0.0423
    1SOL    HW2 5250   2.010   1.325   2.269  0.3430 -0.5439  0.6673
    1SOL    HW3 5251   2.079   1.193   2.295  2.1088 -0.1289 -1.7455
    1SOL    MW4 5252   2.026   1.242   2.246  0.4492 -0.2993 -0.1736
    1SOL     OW 5253   1.984   1.485   2.348 -0.1467  0.2967  0.1687
    1SOL    HW2 5254   1.992   1.497   2.442 -0.5947 -0.9763  0.3865
    1SOL    HW3 5255   1.925   1.555   2.319  1.3666  1.7605  0.5438
    1SOL    MW4 5256   1.977   1.496   2.356 -0.0061  0.3219  0.2472
    1SOL     OW 5257   1.809   1.659   2.255  0.0531 -0.2515  0.1534
    1SOL    HW2 5258   1.781   1.749   2.270 -0.2353 -0.4016  0.5238
    1SOL    HW3 5259   1.804   1.649   2.160  0.6311  0.2952  0.0630
    1SOL    MW4 5260   1.804   1.669   2.244  0.0913 -0.1992  0.1903
    1SOL     OW 5261   1.761   1.925   2.335 -0.1326  0.1349 -0.5305
    1SOL    HW2 5262   1.762   1.902   2.428 -0.4106 -0.4247 -0.6643
    1SOL    HW3 5263   1.827   1.993   2.327  1.3615 -1.2428 -0.2907
    1SOL    MW4 5264   1.769   1.931   2.347  0.0279 -0.1206 -0.5167
    1SOL     OW 5265   1.944   2.093   2.226 -0.0429 -0.1178 -0.1393
    1SOL    HW2 5266   2.014   2.029   2.240 -0.5160 -0.5042  0.4528
    1SOL    HW3 5267   1.930   2.093   2.131 -0.5067 -1.3677 -0.0739
    1SOL    MW4 5268   1.952   2.085   2.215 -0.1663 -0.3338 -0.0525
    1SOL     OW 5269   2.029   2.337   2.362  0.3212  0.1893 -0.1828
    1SOL    HW2 5270   2.116   2.370   2.340 -0.5024  1.5722 -1.4651
    1SOL    HW3 5271   2.019   2.258   2.309  0.8375 -0.0417  0.0608
    1SOL    MW4 5272   2.040   2.331   2.352  0.2809  0.3412 -0.3200
    1SOL     OW 5273   1.812   2.452   2.218  0.1551 -0.2305  0.2097
    1SOL    HW2 5274   1.886   2.408   2.259  0.0169  0.1282  0.8609
    1SOL    HW3 5275   1.736   2.398   2.239  0.4944 -1.7356 -2.2323
    1SOL    MW4 5276   1.811   2.439   2.226  0.1816 -0.3817 -0.0262
    1SOL     OW 5277   1.762   2.690   2.357  0.0885 -0.0688 -0.5684
    1SOL    HW2 5278   1.780   2.603   2.322 -0.5097 -1.0503  1.5120
    1SOL    HW3 5279   1.685   2.720   2.308  1.0156 -0.1686 -2.1399
    1SOL    MW4 5280   1.754   2.683   2.346  0.1320 -0.2112 -0.5009
    1SOL     OW 5281   2.005   2.833   2.252  0.3019 -0.0707 -0.7739
    1SOL    HW2 5282   2.073   2.774   2.285  0.9199  0.9057 -0.2624
    1SOL    HW3 5283   1.923   2.799   2.286  0.5986 -0.9334 -0.9216
    1SOL    MW4 5284   2.003   2.821   2.261  0.4225 -0.0556 -0.7257
    1SOL     OW 5285   2.030   3.106   2.361 -0.2063  0.3878 -0.4703
    1SOL    HW2 5286   2.119   3.134   2.342  0.4142 -1.4892 -0.3842
    1SOL    HW3 5287   2.029   3.013   2.340 -1.4580 -0.1788  1.9182
    1SOL    MW4 5288   2.041   3.098   2.356 -0.2894  0.0653 -0.1438
    1SOL     OW 5289   1.790   3.239   2.289  0.2702 -0.0437  0.3551
    1SOL    HW2 5290   1.874   3.194   2.299  0.1624  0.0682  1.8242
    1SOL    HW3 5291   1.726   3.175   2.320 -0.2030 -0.1976 -0.9394
    1SOL    MW4 5292   1.793   3.224   2.295  0.1935 -0.0491  0.3781
    1SOL     OW 5293   1.805   3.489   2.372 -0.2423  0.9511 -0.5122
    1SOL    HW2 5294   1.801   3.394   2.356  0.1834  0.5928  1.4360
    1SOL    HW3 5295   1.737   3.525   2.315  0.1359 -0.4241 -1.8924
    1SOL    MW4 5296   1.796   3.481   2.362 -0.1363  0.7224 -0.4373
    1SOL     OW 5297   2.030   3.589   2.258  0.0211 -0.0894 -0.2466
    1SOL    HW2 5298   1.956   3.550   2.305  0.2120  1.5098  1.4291
    1SOL    HW3 5299   2.001   3.592   2.166 -0.5317 -2.8295 -0.2134
    1SOL    MW4 5300   2.017   3.584   2.252 -0.0269 -0.2401 -0.0210
    1SOL     OW 5301   1.998   3.848   2.349  0.3350 -0.4792 -0.3461
    1SOL    HW2 5302   1.996   3.861   2.444 -0.5146 -0.9233 -0.3046
    1SOL    HW3 5303   2.012   3.754   2.338 -0.2360 -0.5257 -0.6668
    1SOL    MW4 5304   2.000   3.838   2.360  0.1476 -0.5438 -0.3831
    1SOL     OW 5305   1.822   4.027   2.257 -0.5178 -0.2707  0.2209
    1SOL    HW2 5306   1.883   3.966   2.298 -0.6765  0.0028  0.8601
    1SOL    HW3 5307   1.816   3.997   2.166  0.1687 -0.6063  0.2840
    1SOL    MW4 5308   1.829   4.015   2.250 -0.4482 -0.2789  0.3135
    1SOL     OW 5309   1.818   4.284   2.364  0.1861 -0.0061 -0.3681
    1SOL    HW2 5310   1.813   4.193   2.333 -0.9035  0.1573 -0.7054
    1SOL    HW3 5311   1.745   4.328   2.320 -0.0690  0.7389  0.7868
    1SOL    MW4 5312   1.808   4.278   2.354  0.0087  0.1135 -0.2599
    1SOL     OW 5313   2.039   4.426   2.270 -0.1750 -0.0311 -0.4041
    1SOL    HW2 5314   1.958   4.381   2.294 -0.4438 -0.1559 -1.4815
    1SOL    HW3 5315   2.047   4.411   2.175  1.1830 -0.1448 -0.2814
    1SOL    MW4 5316   2.029   4.418   2.260 -0.0312 -0.0629 -0.5305
    1SOL     OW 5317   2.441   4.630   2.321  0.0658 -0.1216 -0.0046
    1SOL    HW2 5318   2.506   4.686   2.279  0.0965 -0.1475  0.0084
    1SOL    HW3 5319   2.444   4.548   2.271 -0.6567  0.2200 -0.6252
    1SOL    MW4 5320   2.450   4.626   2.309 -0.0255 -0.0806 -0.0846
    1SOL     OW 5321   2.242   0.146   2.253 -0.0220  0.0289  0.3495
    1SOL    HW2 5322   2.250   0.217   2.317 -1.9334 -0.1407  0.8149
    1SOL    HW3 5323   2.311   0.085   2.276  0.1137  0.5901  1.4563
    1SOL    MW4 5324   2.252   0.148   2.264 -0.2563  0.0806  0.5569
    1SOL     OW 5325   2.249   0.374   2.404 -0.2514 -0.3192  0.3069
    1SOL    HW2 5326   2.162   0.399   2.375  0.4449  0.8191 -0.8627
    1SOL    HW3 5327   2.309   0.425   2.348  1.1841 -3.2214 -0.9081
    1SOL    MW4 5328   2.246   0.384   2.393  0.0300 -0.5519 -0.0076
    1SOL     OW 5329   2.437   0.498   2.238  0.0671 -0.6151  0.5147
    1SOL    HW2 5330   2.522   0.457   2.254  0.1443 -0.7505 -0.2283
    1SOL    HW3 5331   2.429   0.500   2.143 -0.5365 -0.1357  0.5728
    1SOL    MW4 5332   2.447   0.493   2.228 -0.0021 -0.5697  0.4244
    1SOL     OW 5333   2.442   0.758   2.349  0.0489  0.7341  0.1527
    1SOL    HW2 5334   2.520   0.808   2.325 -0.1518  0.6653 -0.6422
    1SOL    HW3 5335   2.454   0.672   2.309 -1.0297  1.1340 -1.0679
    1SOL    MW4 5336   2.453   0.753   2.341 -0.1199  0.7778 -0.1135
    1SOL     OW 5337   2.222   0.874   2.241  0.2123  0.2537 -0.1899
    1SOL    HW2 5338   2.219   0.950   2.299  0.4519  0.8131 -0.9034
    1SOL    HW3 5339   2.301   0.827   2.267  1.3235  1.4727 -1.2456
    1SOL    MW4 5340   2.232   0.878   2.252  0.3905  0.4883 -0.4232
    1SOL     OW 5341   2.213   1.098   2.395  0.8324 -0.8222  0.0975
    1SOL    HW2 5342   2.278   1.155   2.353  1.1979 -1.5495 -0.3293
    1SOL    HW3 5343   2.214   1.124   2.487  0.8103  0.0421 -0.1395
    1SOL    MW4 5344   2.222   1.109   2.401  0.8776 -0.8042  0.0100
    1SOL     OW 5345   2.399   1.255   2.282 -0.0314 -0.4435 -0.2316
    1SOL    HW2 5346   2.488   1.218   2.280 -0.4744 -1.5052 -0.7168
    1SOL    HW3 5347   2.410   1.342   2.319  1.4369 -0.0090 -1.6402
    1SOL    MW4 5348   2.412   1.261   2.286  0.1037 -0.5262 -0.4816
    1SOL     OW 5349   2.416   1.520   2.350  0.1042 -0.2336  0.4206
    1SOL    HW2 5350   2.421   1.524   2.446  1.5466  0.7857  0.3237
    1SOL    HW3 5351   2.504   1.546   2.321 -0.8707  1.2594 -1.2155
    1SOL    MW4 5352   2.429   1.524   2.359  0.1659  0.0979  0.1919
    1SOL     OW 5353   2.180   1.649   2.238  0.4713 -0.4679  0.3599
    1SOL    HW2 5354   2.258   1.602   2.268  0.1546 -1.8850 -0.9630
    1SOL    HW3 5355   2.106   1.596   2.270  0.0406  0.9604  1.7659
    1SOL    MW4 5356   2.180   1.636   2.246  0.3724 -0.4665  0.3707
    1SOL     OW 5357   2.170   1.922   2.307  0.1113 -0.4877  0.4058
    1SOL    HW2 5358   2.258   1.956   2.292 -0.3533  0.3412 -0.5245
    1SOL    HW3 5359   2.174   1.831   2.278  0.2307  0.0218 -1.1898
    1SOL    MW4 5360   2.182   1.915   2.301  0.0658 -0.3110  0.0725
    1SOL     OW 5361   2.434   2.037   2.264 -0.0895  0.1916  0.3224
    1SOL    HW2 5362   2.512   1.991   2.296  0.0069  0.4144  0.4181
    1SOL    HW3 5363   2.444   2.039   2.169 -0.9689 -1.5041  0.1929
    1SOL    MW4 5364   2.446   2.031   2.256 -0.1931 -0.0026  0.3181
    1SOL     OW 5365   2.473   2.290   2.371  0.0560  0.7705  0.3713
    1SOL    HW2 5366   2.534   2.337   2.314  0.1544  0.7114  0.4283
    1SOL    HW3 5367   2.461   2.205   2.330 -0.0637  0.8168  0.3087
    1SOL    MW4 5368   2.479   2.285   2.358  0.0532  0.7687  0.3707
    1SOL     OW 5369   2.267   2.455   2.230  0.1241  0.2772 -0.8138
    1SOL    HW2 5370   2.266   2.540   2.275  0.8002  0.3651 -0.9614
    1SOL    HW3 5371   2.345   2.411   2.263  0.5629  0.2914 -1.8035
    1SOL    MW4 5372   2.277   2.461   2.240  0.2713  0.2909 -0.9637
    1SOL     OW 5373   2.238   2.707   2.367 -0.4406  0.0395  0.2358
    1SOL    HW2 5374   2.241   2.702   2.462  0.5392  1.0889  0.2617
    1SOL    HW3 5375   2.313   2.760   2.342 -0.9230  0.1290 -1.1016
    1SOL    MW4 5376   2.248   2.713   2.376 -0.3750  0.1893  0.0627
    1SOL     OW 5377   2.468   2.845   2.287  0.4163 -0.2688 -0.1823
    1SOL    HW2 5378   2.539   2.789   2.317  1.3041  0.8362 -0.1784
    1SOL    HW3 5379   2.469   2.838   2.191  1.1065  0.4290 -0.2291
    1SOL    MW4 5380   2.477   2.837   2.278  0.6244 -0.0310 -0.1876
    1SOL     OW 5381   2.521   3.122   2.365  0.2243  0.1467  0.2828
    1SOL    HW2 5382   2.603   3.162   2.334 -0.2509  0.3857 -0.6759
    1SOL    HW3 5383   2.535   3.028   2.352  0.1839  0.2173 -0.2635
    1SOL    MW4 5384   2.534   3.115   2.359  0.1564  0.1876  0.0842
    1SOL     OW 5385   2.266   3.190   2.281  0.0050 -0.3028 -0.0500
    1SOL    HW2 5386   2.259   3.285   2.288 -1.1221 -0.3485 -0.5590
    1SOL    HW3 5387   2.355   3.171   2.311 -0.3398  0.7396  1.6660
    1SOL    MW4 5388   2.277   3.200   2.286 -0.1891 -0.1712  0.1092
    1SOL     OW 5389   2.256   3.461   2.338  0.2650 -0.1436 -0.3463
    1SOL    HW2 5390   2.231   3.465   2.431  2.0207 -0.2524  0.1450
    1SOL    HW3 5391   2.187   3.510   2.293  1.0063  2.6160  1.3597
    1SOL    MW4 5392   2.243   3.468   2.345  0.5944  0.2062 -0.0565
    1SOL     OW 5393   2.492   3.585   2.245  0.1896  0.0232 -0.2079
    1SOL    HW2 5394   2.470   3.677   2.254  2.1437  0.3576  1.4769
    1SOL    HW3 5395   2.421   3.538   2.290  1.3520  0.9260  2.6414
    1SOL    MW4 5396   2.480   3.591   2.252  0.6008  0.1864  0.3903
    1SOL     OW 5397   2.462   3.852   2.305  0.0744 -0.2599  0.8073
    1SOL    HW2 5398   2.446   3.865   2.398  0.6411  0.1360  0.8501
    1SOL    HW3 5399   2.388   3.896   2.262 -0.7400 -1.3472  1.0963
    1SOL    MW4 5400   2.450   3.860   2.312  0.0417 -0.3512  0.8512
    1SOL     OW 5401   2.236   3.955   2.207  0.3119  0.0767  0.1702
    1SOL    HW2 5402   2.231   4.044   2.243  0.7281 -0.1243  0.7224
    1SOL    HW3 5403   2.163   3.909   2.246  1.4050 -0.4519  1.6274
    1SOL    MW4 5404   2.226   3.961   2.217  0.5109 -0.0196  0.4354
    1SOL     OW 5405   2.227   4.233   2.314  0.5041  0.8816  0.1800
    1SOL    HW2 5406   2.240   4.225   2.408 -1.6355 -0.8370  0.3693
    1SOL    HW3 5407   2.153   4.294   2.305  0.3491  0.6192 -0.3534
    1SOL    MW4 5408   2.219   4.240   2.325  0.2015  0.6194  0.1347
    1SOL     OW 5409   2.440   4.375   2.214 -0.3567  0.0813 -0.1168
    1SOL    HW2 5410   2.512   4.344   2.270 -0.6349 -1.4592 -0.5844
    1SOL    HW3 5411   2.363   4.327   2.245 -0.4712 -0.9631 -1.9315
    1SOL    MW4 5412   2.440   4.365   2.225 -0.4084 -0.2594 -0.4179
    1SOL     OW 5413   2.853   4.649   2.301 -0.3080 -0.0993 -0.0832
    1SOL    HW2 5414   2.935   4.697   2.290 -0.8647  0.8329 -0.2604
    1SOL    HW3 5415   2.878   4.557   2.296  0.9464  0.1403  1.4261
    1SOL    MW4 5416   2.867   4.643   2.299 -0.2160  0.0558  0.0927
    1SOL     OW 5417   2.637   0.107   2.212  0.0570 -0.2412 -0.3067
    1SOL    HW2 5418   2.644   0.198   2.241 -1.0354 -0.5697  1.0380
    1SOL    HW3 5419   2.714   0.064   2.248  0.2917  0.0315 -0.4821
    1SOL    MW4 5420   2.648   0.113   2.221 -0.0560 -0.2486 -0.1526
    1SOL     OW 5421   2.671   0.361   2.300 -0.3523 -0.5451  0.1163
    1SOL    HW2 5422   2.669   0.354   2.395 -0.6463 -1.3700  0.0603
    1SOL    HW3 5423   2.755   0.402   2.280  0.3609 -1.7136  0.6645
    1SOL    MW4 5424   2.681   0.365   2.310 -0.2971 -0.8081  0.1812
    1SOL     OW 5425   2.924   0.483   2.236 -0.0443 -0.3931  0.0082
    1SOL    HW2 5426   2.941   0.568   2.277 -1.3737 -0.1123  0.0008
    1SOL    HW3 5427   2.917   0.501   2.143  1.4086 -0.7913 -0.1891
    1SOL    MW4 5428   2.925   0.496   2.229 -0.0281 -0.4086 -0.0188
    1SOL     OW 5429   2.947   0.753   2.357  0.1664  0.0437  0.0809
    1SOL    HW2 5430   2.945   0.721   2.448  0.4414  0.3946  0.2104
    1SOL    HW3 5431   2.865   0.801   2.346 -0.5844 -1.3051 -0.3345
    1SOL    MW4 5432   2.936   0.755   2.368  0.1037 -0.0879  0.0434
    1SOL     OW 5433   2.685   0.865   2.287 -0.0682  0.2029 -0.0943
    1SOL    HW2 5434   2.681   0.957   2.314  0.6621 -0.2501  1.6221
    1SOL    HW3 5435   2.700   0.869   2.193 -1.4092  1.8338 -0.2604
    1SOL    MW4 5436   2.687   0.878   2.278 -0.1488  0.3583  0.1104
    1SOL     OW 5437   2.645   1.143   2.312  0.0546  0.5856  0.4647
    1SOL    HW2 5438   2.642   1.142   2.408  0.7904 -3.0110  0.5233
    1SOL    HW3 5439   2.731   1.179   2.291  0.8267 -0.7294  1.2617
    1SOL    MW4 5440   2.656   1.147   2.322  0.2537 -0.0622  0.5777
    1SOL     OW 5441   2.905   1.226   2.263 -0.7108 -0.1456 -0.1841
    1SOL    HW2 5442   2.980   1.184   2.305 -1.4294 -1.5456 -0.2941
    1SOL    HW3 5443   2.917   1.210   2.170  0.2697  1.9711 -0.4473
    1SOL    MW4 5444   2.916   1.218   2.256 -0.6764 -0.0510 -0.2334
    1SOL     OW 5445   2.907   1.494   2.320  0.3217  0.0297  0.0234
    1SOL    HW2 5446   2.916   1.496   2.415 -0.6841 -0.1507  0.1293
    1SOL    HW3 5447   2.910   1.402   2.297  1.4817  0.1177 -0.2249
    1SOL    MW4 5448   2.908   1.482   2.330  0.3421  0.0176  0.0045
    1SOL     OW 5449   2.657   1.605   2.259 -0.2243 -0.0402 -0.2828
    1SOL    HW2 5450   2.736   1.561   2.292 -0.7596 -0.7185  0.1117
    1SOL    HW3 5451   2.667   1.603   2.164  0.6827  0.7193 -0.2163
    1SOL    MW4 5452   2.669   1.599   2.251 -0.1752 -0.0294 -0.2220
    1SOL     OW 5453   2.663   1.888   2.345  0.2637 -0.1841 -0.1544
    1SOL    HW2 5454   2.654   1.887   2.440 -0.3444 -1.0806 -0.2089
    1SOL    HW3 5455   2.659   1.795   2.320  0.3359  0.0524 -1.0584
    1SOL    MW4 5456   2.661   1.875   2.354  0.1929 -0.2711 -0.2809
    1SOL     OW 5457   2.875   2.052   2.256 -0.3597 -0.1050 -0.0043
    1SOL    HW2 5458   2.954   2.007   2.284  0.2860  1.4195  0.6756
    1SOL    HW3 5459   2.803   1.999   2.291  0.3722 -1.1131 -0.0284
    1SOL    MW4 5460   2.876   2.039   2.265 -0.1779 -0.0370  0.0825
    1SOL     OW 5461   2.874   2.322   2.295  0.5936 -0.2112 -0.3710
    1SOL    HW2 5462   2.869   2.331   2.390 -1.3056  1.4893 -0.5964
    1SOL    HW3 5463   2.860   2.228   2.279  0.9516 -0.5161  1.0079
    1SOL    MW4 5464   2.872   2.311   2.306  0.3903 -0.0272 -0.2189
    1SOL     OW 5465   2.637   2.445   2.203 -0.1867  0.1484  0.0570
    1SOL    HW2 5466   2.717   2.400   2.232  0.3427  1.5989  0.8668
    1SOL    HW3 5467   2.643   2.445   2.107  0.3172 -0.5614  0.0828
    1SOL    MW4 5468   2.648   2.439   2.194 -0.0503  0.2458  0.1674
    1SOL     OW 5469   2.659   2.662   2.371  0.2018 -0.1202 -0.1077
    1SOL    HW2 5470   2.726   2.709   2.321  0.3745  0.3601  0.5614
    1SOL    HW3 5471   2.632   2.590   2.314  1.4510 -0.4604 -0.2864
    1SOL    MW4 5472   2.664   2.659   2.357  0.3896 -0.1016 -0.0427
    1SOL     OW 5473   2.870   2.803   2.251 -0.0953  0.4449 -0.1101
    1SOL    HW2 5474   2.892   2.886   2.293 -1.0904  0.5634  0.1794
    1SOL    HW3 5475   2.874   2.821   2.157  1.9345  0.2308 -0.0807
    1SOL    MW4 5476   2.873   2.816   2.244  0.0410  0.4320 -0.0682
    1SOL     OW 5477   2.931   3.062   2.350  0.1927  0.5143  0.6392
    1SOL    HW2 5478   2.933   3.097   2.440  1.0477  1.5203  0.2488
    1SOL    HW3 5479   2.863   3.113   2.306 -1.0069 -0.7425  0.9976
    1SOL    MW4 5480   2.923   3.074   2.356  0.1473  0.4814  0.6349
    1SOL     OW 5481   2.741   3.239   2.271  0.3772  0.7325  0.3199
    1SOL    HW2 5482   2.741   3.328   2.308 -1.0919  0.8478  0.0774
    1SOL    HW3 5483   2.735   3.253   2.176  0.4058  0.3788  0.2676
    1SOL    MW4 5484   2.740   3.253   2.263  0.1874  0.7012  0.2811
    1SOL     OW 5485   2.726   3.494   2.354  0.3593  0.0132 -0.3235
    1SOL    HW2 5486   2.791   3.541   2.302 -0.4312  0.7540 -0.6473
    1SOL    HW3 5487   2.642   3.519   2.316 -0.1972  0.1405  0.9545
    1SOL    MW4 5488   2.723   3.504   2.342  0.1817  0.1276 -0.1976
    1SOL     OW 5489   2.931   3.633   2.227  0.2767  0.4660  0.0475
    1SOL    HW2 5490   2.995   3.581   2.275  0.4728  0.0190 -0.6979
    1SOL    HW3 5491   2.927   3.716   2.275 -0.4672 -0.4376  1.5821
    1SOL    MW4 5492   2.939   3.637   2.239  0.2043  0.2880  0.1516
    1SOL     OW 5493   2.904   3.877   2.361  0.0852  0.3984 -0.4260
    1SOL    HW2 5494   2.914   3.881   2.456 -0.0258 -0.1555 -0.3879
    1SOL    HW3 5495   2.828   3.932   2.342 -0.0177  0.3445 -0.1716
    1SOL    MW4 5496   2.896   3.885   2.371  0.0570  0.3185 -0.3872
    1SOL     OW 5497   2.668   4.017   2.278  0.1099  0.1174 -0.8683
    1SOL    HW2 5498   2.600   3.954   2.299 -0.2563  0.7492 -0.1554
    1SOL    HW3 5499   2.696   3.992   2.190  0.1696 -1.2068 -0.4902
    1SOL    MW4 5500   2.663   4.005   2.269  0.0696  0.0257 -0.7243
    1SOL     OW 5501   2.664   4.285   2.349 -0.0410  0.1933 -0.3673
    1SOL    HW2 5502   2.672   4.285   2.444  0.7488  0.3234 -0.4332
    1SOL    HW3 5503   2.657   4.192   2.326  1.3094  0.0747 -0.3079
    1SOL    MW4 5504   2.664   4.272   2.358  0.2413  0.1945 -0.3681
    1SOL     OW 5505   2.914   4.370   2.240 -0.1712  0.1998 -0.3504
    1SOL    HW2 5506   2.987   4.327   2.286  0.0922 -1.1519 -1.9730
    1SOL    HW3 5507   2.835   4.338   2.283  0.1366  0.4217  0.3789
    1SOL    MW4 5508   2.913   4.360   2.251 -0.0958  0.0510 -0.4683
    1SOL     OW 5509   3.326   4.631   2.348  0.5703  0.1738 -0.0140
    1SOL    HW2 5510   3.350   4.604   2.436  1.9435  1.5870  0.0584
    1SOL    HW3 5511   3.406   4.668   2.311 -0.1918  0.3082 -1.5794
    1SOL    MW4 5512   3.340   4.632   2.355  0.6509  0.3786 -0.2110
    1SOL     OW 5513   3.140   0.150   2.265 -0.4147  0.7518 -0.0891
    1SOL    HW2 5514   3.141   0.225   2.325  0.0028  0.4123  0.3316
    1SOL    HW3 5515   3.206   0.090   2.300 -0.0092  0.6469 -1.0161
    1SOL    MW4 5516   3.148   0.152   2.278 -0.3061  0.6932 -0.1562
    1SOL     OW 5517   3.116   0.380   2.411 -0.1027  0.1790  0.3969
    1SOL    HW2 5518   3.186   0.421   2.361  0.7494 -0.4049  1.1006
    1SOL    HW3 5519   3.037   0.399   2.361  0.6943 -0.1156 -0.9998
    1SOL    MW4 5520   3.115   0.388   2.398  0.1149  0.0632  0.3052
    1SOL     OW 5521   3.349   0.481   2.228  0.4985 -0.4028 -0.0954
    1SOL    HW2 5522   3.434   0.437   2.236  0.5827 -0.3655 -0.7363
    1SOL    HW3 5523   3.337   0.492   2.134 -0.8752 -1.6746 -0.0828
    1SOL    MW4 5524   3.359   0.477   2.217  0.3285 -0.5656 -0.1783
    1SOL     OW 5525   3.375   0.705   2.392 -0.0411  0.4429  0.1714
    1SOL    HW2 5526   3.457   0.739   2.357  0.5615 -0.0053  1.1175
    1SOL    HW3 5527   3.365   0.620   2.351  1.0548 -0.4139  1.6356
    1SOL    MW4 5528   3.384   0.699   2.382  0.1829  0.2708  0.4892
    1SOL     OW 5529   3.180   0.870   2.281  0.2380  0.1868 -0.3741
    1SOL    HW2 5530   3.246   0.828   2.336  0.1325 -1.1761 -1.2509
    1SOL    HW3 5531   3.097   0.835   2.312  0.1030  0.1967 -0.7154
    1SOL    MW4 5532   3.178   0.860   2.292  0.2062  0.0083 -0.5348
    1SOL     OW 5533   3.152   1.131   2.369 -0.2690  0.4070 -0.3618
    1SOL    HW2 5534   3.227   1.187   2.351  1.0713 -0.8037  1.2694
    1SOL    HW3 5535   3.170   1.051   2.320 -0.6241  0.2095 -0.1720
    1SOL    MW4 5536   3.164   1.128   2.360 -0.1392  0.2213 -0.1216
    1SOL     OW 5537   3.381   1.256   2.258 -0.0576 -0.3027 -0.1069
    1SOL    HW2 5538   3.453   1.229   2.314 -0.1581 -0.6556 -0.1466
    1SOL    HW3 5539   3.377   1.351   2.268 -1.0796 -0.5215  1.6967
    1SOL    MW4 5540   3.390   1.265   2.267 -0.2055 -0.3781  0.1259
    1SOL     OW 5541   3.387   1.526   2.329 -0.2800 -0.1779 -0.0782
    1SOL    HW2 5542   3.391   1.535   2.425 -0.2199  0.9466 -0.1836
    1SOL    HW3 5543   3.304   1.568   2.305 -0.3844 -0.6305 -0.4999
    1SOL    MW4 5544   3.377   1.533   2.339 -0.2859 -0.0892 -0.1476
    1SOL     OW 5545   3.141   1.645   2.253  0.7461 -0.7544  0.0417
    1SOL    HW2 5546   3.124   1.733   2.289  2.6325 -0.1380 -0.5092
    1SOL    HW3 5547   3.060   1.597   2.269 -0.0324  0.8450  1.0996
    1SOL    MW4 5548   3.128   1.650   2.260  0.8924 -0.4619  0.1087
    1SOL     OW 5549   3.090   1.916   2.343  0.1497 -0.1728  0.4392
    1SOL    HW2 5550   3.085   1.911   2.438  0.8167  1.0232  0.5423
    1SOL    HW3 5551   3.181   1.936   2.324  0.2769 -1.6264 -0.5156
    1SOL    MW4 5552   3.101   1.918   2.353  0.2544 -0.2067  0.3266
    1SOL     OW 5553   3.328   2.018   2.282 -0.7741 -0.0219  0.3263
    1SOL    HW2 5554   3.418   1.998   2.309 -0.6966  1.8307  1.5330
    1SOL    HW3 5555   3.334   2.033   2.187  0.2082  0.2498  0.4278
    1SOL    MW4 5556   3.341   2.017   2.273 -0.6344  0.2582  0.4990
    1SOL     OW 5557   3.349   2.279   2.375 -0.4427 -0.1420 -0.1707
    1SOL    HW2 5558   3.280   2.336   2.341  0.0512 -0.2760 -1.4380
    1SOL    HW3 5559   3.319   2.191   2.352 -0.4870 -0.2870  0.4530
    1SOL    MW4 5560   3.336   2.275   2.367 -0.3834 -0.1786 -0.2553
    1SOL     OW 5561   3.138   2.416   2.259  0.2064 -0.1097  0.3211
    1SOL    HW2 5562   3.101   2.504   2.269 -1.2443 -0.9870  3.2794
    1SOL    HW3 5563   3.062   2.359   2.261  1.0289 -1.4484 -2.7552
    1SOL    MW4 5564   3.123   2.420   2.260  0.1235 -0.4022  0.3057
    1SOL     OW 5565   3.127   2.714   2.305  0.0386 -0.1614  0.6660
    1SOL    HW2 5566   3.137   2.706   2.400  0.2583  1.6024  0.8102
    1SOL    HW3 5567   3.036   2.739   2.293  0.0845 -0.1048  0.4418
    1SOL    MW4 5568   3.116   2.716   2.316  0.0737  0.0787  0.6552
    1SOL     OW 5569   3.357   2.843   2.236 -0.0859  0.2222 -0.2390
    1SOL    HW2 5570   3.351   2.932   2.271 -0.5881  0.3128 -0.5436
    1SOL    HW3 5571   3.274   2.802   2.259 -0.3415  0.2144 -1.1279
    1SOL    MW4 5572   3.345   2.849   2.243 -0.1860  0.2329 -0.3967
    1SOL     OW 5573   3.357   3.114   2.322 -0.1563  0.5410 -0.6214
    1SOL    HW2 5574   3.439   3.145   2.283  1.1306 -1.2040  0.6432
    1SOL    HW3 5575   3.289   3.161   2.274  1.4630  0.1240 -3.4346
    1SOL    MW4 5576   3.359   3.125   2.310  0.2270  0.2556 -0.8259
    1SOL     OW 5577   3.132   3.226   2.225 -0.6240  0.6947 -0.1070
    1SOL    HW2 5578   3.113   3.308   2.271 -1.8141  0.6403 -0.4908
    1SOL    HW3 5579   3.072   3.163   2.263  1.4638 -0.4238  1.3860
    1SOL    MW4 5580   3.121   3.229   2.236 -0.5057  0.5398  0.0393
    1SOL     OW 5581   3.124   3.472   2.354  0.0979  0.0806  0.2689
    1SOL    HW2 5582   3.107   3.476   2.448 -0.3471  1.0492  0.1492
    1SOL    HW3 5583   3.205   3.521   2.342  0.6461 -0.8125  0.2585
    1SOL    MW4 5584   3.132   3.479   2.365  0.1113  0.0906  0.2518
    1SOL     OW 5585   3.363   3.589   2.277 -0.1129  0.6668  0.3688
    1SOL    HW2 5586   3.437   3.533   2.301 -0.1399  1.5118  2.5059
    1SOL    HW3 5587   3.382   3.616   2.187  0.6424 -1.5444 -0.1774
    1SOL    MW4 5588   3.375   3.585   2.268 -0.0169  0.4866  0.5784
    1SOL     OW 5589   3.381   3.863   2.344 -0.2296 -0.1466 -0.1270
    1SOL    HW2 5590   3.460   3.903   2.305 -0.4438  0.4189  0.0133
    1SOL    HW3 5591   3.391   3.770   2.326  1.9841 -0.4816  2.5704
    1SOL    MW4 5592   3.393   3.856   2.336  0.0341 -0.1161  0.2472
    1SOL     OW 5593   3.153   3.976   2.239 -0.2284  0.0422  0.4896
    1SOL    HW2 5594   3.237   3.938   2.264 -0.1419  0.1371  0.3468
    1SOL    HW3 5595   3.088   3.925   2.286 -0.1220 -0.3898  0.1681
    1SOL    MW4 5596   3.155   3.964   2.248 -0.2027 -0.0021  0.4282
    1SOL     OW 5597   3.132   4.243   2.363 -0.2371  0.4745  0.1968
    1SOL    HW2 5598   3.214   4.283   2.333  0.3475 -0.6894  0.2140
    1SOL    HW3 5599   3.129   4.158   2.319 -1.2253  0.3376  0.5279
    1SOL    MW4 5600   3.143   4.237   2.354 -0.2904  0.3028  0.2427
    1SOL     OW 5601   3.382   4.367   2.275 -0.3482  0.4043 -0.0090
    1SOL    HW2 5602   3.352   4.457   2.288  0.5350  0.7782 -0.5275
    1SOL    HW3 5603   3.388   4.357   2.180 -0.2548 -0.1372  0.0508
    1SOL    MW4 5604   3.379   4.377   2.264 -0.2193  0.3829 -0.0694
    1SOL     OW 5605   3.807   4.635   2.345  0.2788  0.0432  0.5486
    1SOL    HW2 5606   3.823   4.638   2.440 -0.6495  0.4535  0.7039
    1SOL    HW3 5607   3.871   4.696   2.308  0.3501  0.2209  0.9600
    1SOL    MW4 5608   3.818   4.644   2.353  0.1657  0.1216  0.6232
    1SOL     OW 5609   3.572   0.085   2.275  0.4084  0.1682 -0.1014
    1SOL    HW2 5610   3.578   0.174   2.310  1.1262  0.1357 -0.1393
    1SOL    HW3 5611   3.656   0.045   2.297 -0.4194 -0.9474  1.1314
    1SOL    MW4 5612   3.584   0.091   2.283  0.3939  0.0167  0.0563
    1SOL     OW 5613   3.582   0.352   2.320 -0.0279 -0.2185  0.0035
    1SOL    HW2 5614   3.582   0.357   2.415  0.4675 -0.6963  0.0276
    1SOL    HW3 5615   3.665   0.393   2.294  0.1662 -0.7433 -0.1937
    1SOL    MW4 5616   3.593   0.358   2.329  0.0632 -0.3508 -0.0191
    1SOL     OW 5617   3.841   0.480   2.257  0.2438 -0.7795  0.1006
    1SOL    HW2 5618   3.850   0.571   2.286  0.9313 -1.2223  1.3259
    1SOL    HW3 5619   3.842   0.485   2.161  0.7472  0.4596  0.1575
    1SOL    MW4 5620   3.843   0.492   2.248  0.4008 -0.6745  0.2699
    1SOL     OW 5621   3.853   0.745   2.335 -0.1909 -0.2457 -0.1439
    1SOL    HW2 5622   3.849   0.745   2.431  0.9383 -0.1418 -0.0945
    1SOL    HW3 5623   3.925   0.803   2.314 -2.3423  2.1283 -1.1716
    1SOL    MW4 5624   3.862   0.752   2.345 -0.3259  0.0812 -0.2728
    1SOL     OW 5625   3.588   0.868   2.316  0.0074  0.0794  0.5506
    1SOL    HW2 5626   3.674   0.830   2.335  1.8962  3.9323  0.2501
    1SOL    HW3 5627   3.593   0.893   2.224 -0.9608  1.4516  0.8572
    1SOL    MW4 5628   3.600   0.866   2.307  0.1287  0.7689  0.5515
    1SOL     OW 5629   3.620   1.130   2.386 -0.0591  0.0088  0.2817
    1SOL    HW2 5630   3.601   1.129   2.480 -1.0070  0.8202  0.1153
    1SOL    HW3 5631   3.600   1.041   2.356  1.2687 -0.5495  1.0293
    1SOL    MW4 5632   3.615   1.118   2.394 -0.0093  0.0422  0.3583
    1SOL     OW 5633   3.829   1.275   2.284 -0.1172  0.1069  0.2187
    1SOL    HW2 5634   3.807   1.360   2.323 -1.5526 -0.1254 -0.0691
    1SOL    HW3 5635   3.760   1.216   2.315  0.4700 -0.7930 -0.1735
    1SOL    MW4 5636   3.817   1.279   2.293 -0.2289 -0.0426  0.1287
    1SOL     OW 5637   3.789   1.542   2.358  0.3242 -0.3263  0.7811
    1SOL    HW2 5638   3.774   1.566   2.449 -0.4075 -0.5171  0.7162
    1SOL    HW3 5639   3.734   1.603   2.307  0.3524 -0.5354  0.4968
    1SOL    MW4 5640   3.779   1.553   2.363  0.2315 -0.3790  0.7350
    1SOL     OW 5641   3.609   1.692   2.212  0.4601 -0.2861  0.1235
    1SOL    HW2 5642   3.545   1.632   2.250 -0.3101  0.6180  0.2596
    1SOL    HW3 5643   3.604   1.676   2.117  0.0060 -0.1910  0.1320
    1SOL    MW4 5644   3.600   1.682   2.204  0.2987 -0.1543  0.1423
    1SOL     OW 5645   3.590   1.941   2.376  0.2265 -0.1362  0.0183
    1SOL    HW2 5646   3.668   1.992   2.355 -0.2594 -0.2759 -2.2943
    1SOL    HW3 5647   3.595   1.864   2.319  0.4600 -2.2661  2.7659
    1SOL    MW4 5648   3.601   1.937   2.366  0.1931 -0.4356  0.0756
    1SOL     OW 5649   3.790   2.087   2.265 -0.3470 -0.0699 -0.3169
    1SOL    HW2 5650   3.873   2.046   2.291 -0.4591  0.0377  0.2231
    1SOL    HW3 5651   3.791   2.085   2.170  0.3727  0.1158 -0.3173
    1SOL    MW4 5652   3.801   2.082   2.256 -0.2668 -0.0315 -0.2456
    1SOL     OW 5653   3.787   2.311   2.403 -0.3636 -0.0516  0.1863
    1SOL    HW2 5654   3.708   2.355   2.369  0.2436  2.1019  1.4360
    1SOL    HW3 5655   3.795   2.232   2.350 -1.4355  1.4221 -2.2876
    1SOL    MW4 5656   3.778   2.307   2.391 -0.4249  0.4270  0.0248
    1SOL     OW 5657   3.573   2.427   2.260  0.4926 -0.2771 -0.2460
    1SOL    HW2 5658   3.487   2.395   2.289  1.8035 -2.1701  1.7457
    1SOL    HW3 5659   3.566   2.432   2.165 -2.2825  1.0357 -0.0236
    1SOL    MW4 5660   3.561   2.423   2.251  0.2997 -0.3536  0.0460
    1SOL     OW 5661   3.550   2.684   2.359 -0.0151  0.0699 -0.3760
    1SOL    HW2 5662   3.566   2.599   2.317 -1.9999 -0.5135  0.0157
    1SOL    HW3 5663   3.473   2.719   2.316 -1.1097  0.2108  1.6316
    1SOL    MW4 5664   3.542   2.677   2.348 -0.4218  0.0117 -0.0594
    1SOL     OW 5665   3.803   2.798   2.251 -0.0152  0.2320  0.4908
    1SOL    HW2 5666   3.803   2.882   2.296 -1.7150  1.0238 -0.9501
    1SOL    HW3 5667   3.728   2.751   2.286  0.3243 -0.2844  0.5359
    1SOL    MW4 5668   3.793   2.802   2.261 -0.1948  0.2682  0.3066
    1SOL     OW 5669   3.819   3.049   2.368  0.0473 -0.0366  0.4308
    1SOL    HW2 5670   3.808   3.070   2.461  0.3759  0.2450  0.4049
    1SOL    HW3 5671   3.888   3.108   2.338 -1.4221  1.2792 -0.4624
    1SOL    MW4 5672   3.826   3.060   2.376 -0.1030  0.1743  0.3095
    1SOL     OW 5673   3.599   3.197   2.224  0.3859 -0.2494  0.2939
    1SOL    HW2 5674   3.619   3.285   2.258 -1.3394  0.1272  0.3939
    1SOL    HW3 5675   3.658   3.139   2.272 -0.0343  0.5943  1.8853
    1SOL    MW4 5676   3.609   3.201   2.235  0.1028 -0.0885  0.5171
    1SOL     OW 5677   3.602   3.451   2.336  0.4183 -0.2518  0.2307
    1SOL    HW2 5678   3.611   3.455   2.431 -0.6899  1.1395  0.2995
    1SOL    HW3 5679   3.666   3.514   2.302  0.2946 -0.1918  0.1037
    1SOL    MW4 5680   3.611   3.460   2.344  0.2558 -0.0601  0.2232
    1SOL     OW 5681   3.815   3.605   2.229 -0.0982 -0.2306 -0.1174
    1SOL    HW2 5682   3.818   3.697   2.254 -1.3000 -0.0426 -0.6087
    1SOL    HW3 5683   3.817   3.606   2.134  0.1179 -0.7308 -0.1196
    1SOL    MW4 5684   3.816   3.617   2.220 -0.2279 -0.2718 -0.1824
    1SOL     OW 5685   3.821   3.854   2.327  0.5441  0.3025  0.0060
    1SOL    HW2 5686   3.847   3.855   2.419 -1.2784  0.4577  0.5555
    1SOL    HW3 5687   3.882   3.913   2.283  0.7134  1.1180  1.3234
    1SOL    MW4 5688   3.832   3.862   2.333  0.3262  0.4306  0.2522
    1SOL     OW 5689   3.602   3.995   2.246  0.6786  0.4243 -0.1181
    1SOL    HW2 5690   3.613   4.082   2.282  0.6368  0.9426 -1.3338
    1SOL    HW3 5691   3.674   3.944   2.283  1.0468  1.1226  0.1286
    1SOL    MW4 5692   3.613   3.999   2.255  0.7217  0.5848 -0.2458
    1SOL     OW 5693   3.624   4.258   2.363  0.2435 -0.0706 -0.1675
    1SOL    HW2 5694   3.692   4.310   2.320 -0.3988 -0.5562 -1.8356
    1SOL    HW3 5695   3.542   4.296   2.331 -0.2464 -3.1034 -2.7398
    1SOL    MW4 5696   3.622   4.270   2.353  0.0944 -0.5345 -0.7269
    1SOL     OW 5697   3.794   4.390   2.219  0.0445  0.2066  0.1112
    1SOL    HW2 5698   3.871   4.357   2.266  1.2693  1.4861 -0.9338
    1SOL    HW3 5699   3.783   4.479   2.252 -0.6135  0.2385 -0.2028
    1SOL    MW4 5700   3.803   4.397   2.230  0.1194  0.3800 -0.0679
    1SOL     OW 5701   4.254   4.648   2.361 -0.2913 -0.0557  0.7006
    1SOL    HW2 5702   4.250   4.647   2.457 -0.0893  1.5557  0.7396
    1SOL    HW3 5703   4.334   4.696   2.340 -1.2705  1.2133 -0.2672
    1SOL    MW4 5704   4.264   4.654   2.371 -0.3939  0.3244  0.5784
    1SOL     OW 5705   4.037   0.123   2.254  0.5645  0.0642  0.0159
    1SOL    HW2 5706   4.046   0.202   2.308 -1.5525  0.4681 -0.1976
    1SOL    HW3 5707   4.106   0.065   2.285  2.0007  1.8960  0.3591
    1SOL    MW4 5708   4.047   0.126   2.265  0.4745  0.3591  0.0329
    1SOL     OW 5709   4.080   0.370   2.375 -0.0369  0.1952 -0.1416
    1SOL    HW2 5710   4.151   0.407   2.323 -0.5950  1.0280 -0.3136
    1SOL    HW3 5711   4.000   0.408   2.338 -0.4503  0.6847  1.2304
    1SOL    MW4 5712   4.079   0.380   2.363 -0.1645  0.3696  0.0165
    1SOL     OW 5713   4.295   0.463   2.222  0.1787 -0.3467 -0.0790
    1SOL    HW2 5714   4.307   0.548   2.263 -1.7011 -0.0688 -0.0413
    1SOL    HW3 5715   4.371   0.412   2.249  0.2235  0.6239  1.7165
    1SOL    MW4 5716   4.307   0.467   2.231 -0.0629 -0.1820  0.1626
    1SOL     OW 5717   4.299   0.696   2.355  0.0392 -0.0075 -0.2505
    1SOL    HW2 5718   4.226   0.751   2.327 -0.2576  1.1745  2.5910
    1SOL    HW3 5719   4.377   0.750   2.340 -0.2217  1.1298  2.1963
    1SOL    MW4 5720   4.300   0.711   2.349 -0.0343  0.2986  0.4473
    1SOL     OW 5721   4.095   0.873   2.297  0.1314  0.1411 -0.1877
    1SOL    HW2 5722   4.087   0.966   2.319 -0.3529  0.2045 -0.6466
    1SOL    HW3 5723   4.085   0.870   2.202  0.4501 -0.3488 -0.2065
    1SOL    MW4 5724   4.093   0.885   2.288  0.1097  0.0848 -0.2508
    1SOL     OW 5725   4.059   1.144   2.369  0.1467  0.0698 -0.3877
    1SOL    HW2 5726   4.063   1.154   2.464  0.6045 -0.0356 -0.3957
    1SOL    HW3 5727   3.971   1.175   2.345 -0.1416 -0.3418  0.1212
    1SOL    MW4 5728   4.048   1.149   2.378  0.1698  0.0014 -0.3219
    1SOL     OW 5729   4.237   1.305   2.245 -0.2382 -0.0692  0.0985
    1SOL    HW2 5730   4.168   1.247   2.277  0.1953  0.1143  1.3645
    1SOL    HW3 5731   4.318   1.259   2.262  0.0676  0.5858  0.4328
    1SOL    MW4 5732   4.238   1.291   2.251 -0.1411  0.0415  0.3097
    1SOL     OW 5733   4.261   1.548   2.395 -0.1082  0.4917 -0.3925
    1SOL    HW2 5734   4.261   1.462   2.351  0.6556  0.2260  0.1250
    1SOL    HW3 5735   4.332   1.596   2.353  0.8477  0.1185  0.7658
    1SOL    MW4 5736   4.270   1.543   2.383  0.1187  0.4075 -0.1712
    1SOL     OW 5737   4.030   1.678   2.299  0.7461 -0.6296  0.1259
    1SOL    HW2 5738   4.100   1.626   2.338 -0.0084 -1.3219  0.5770
    1SOL    HW3 5739   3.951   1.627   2.316  0.1474  0.1070 -0.4530
    1SOL    MW4 5740   4.029   1.664   2.306  0.5679 -0.6237  0.1087
    1SOL     OW 5741   3.988   1.938   2.396  0.0158  0.3631  0.4588
    1SOL    HW2 5742   3.991   1.944   2.492  0.3371  0.4585  0.4416
    1SOL    HW3 5743   3.995   1.844   2.378 -1.2506  0.2411  0.5752
    1SOL    MW4 5744   3.989   1.926   2.406 -0.1090  0.3595  0.4718
    1SOL     OW 5745   4.238   2.029   2.304 -0.2533  0.0537  0.4314
    1SOL    HW2 5746   4.220   2.118   2.333 -0.1762  0.0757  0.4102
    1SOL    HW3 5747   4.156   1.982   2.321 -0.5075  0.2773 -0.1400
    1SOL    MW4 5748   4.225   2.034   2.310 -0.2770  0.0863  0.3531
    1SOL     OW 5749   4.235   2.297   2.366 -0.2516  0.1808 -0.7298
    1SOL    HW2 5750   4.165   2.344   2.321  0.9389  1.3951 -1.3466
    1SOL    HW3 5751   4.315   2.343   2.340  0.6451 -0.3346  1.0524
    1SOL    MW4 5752   4.236   2.309   2.356  0.0234  0.2730 -0.5760
    1SOL     OW 5753   3.993   2.412   2.239  0.3722  0.0800 -0.0045
    1SOL    HW2 5754   4.011   2.498   2.277 -0.0688  0.6072 -0.9638
    1SOL    HW3 5755   3.925   2.375   2.296 -0.0931  0.7503 -0.1197
    1SOL    MW4 5756   3.986   2.419   2.251  0.2525  0.2382 -0.1464
    1SOL     OW 5757   4.021   2.658   2.371  0.1386 -0.2629 -0.0153
    1SOL    HW2 5758   4.010   2.658   2.466 -1.4885 -1.5054 -0.1807
    1SOL    HW3 5759   3.952   2.716   2.339  2.0489  1.8760 -0.3163
    1SOL    MW4 5760   4.010   2.666   2.379  0.1760 -0.1447 -0.0768
    1SOL     OW 5761   4.211   2.852   2.298  0.7740  0.0122 -0.0319
    1SOL    HW2 5762   4.152   2.785   2.332  0.1509  0.3395 -0.4579
    1SOL    HW3 5763   4.297   2.828   2.332  0.7285 -1.5733 -0.9764
    1SOL    MW4 5764   4.214   2.840   2.307  0.6852 -0.1535 -0.2131
    1SOL     OW 5765   4.253   3.124   2.392  0.1666 -0.0013  0.4787
    1SOL    HW2 5766   4.238   3.035   2.361 -0.1658  0.5789 -1.0649
    1SOL    HW3 5767   4.330   3.154   2.343  0.7840  0.2857  1.5910
    1SOL    MW4 5768   4.261   3.116   2.382  0.2041  0.1132  0.4220
    1SOL     OW 5769   4.009   3.226   2.280 -0.0276  0.1615 -0.2109
    1SOL    HW2 5770   4.010   3.318   2.308 -1.2554  0.1604 -0.1374
    1SOL    HW3 5771   4.095   3.192   2.305  0.8600  1.5957 -1.2622
    1SOL    MW4 5772   4.020   3.234   2.287 -0.0725  0.3507 -0.3400
    1SOL     OW 5773   4.034   3.493   2.353 -0.0962 -0.3274  0.3098
    1SOL    HW2 5774   4.113   3.532   2.316  0.5771 -0.2665  1.7605
    1SOL    HW3 5775   3.963   3.527   2.299  0.7696  0.4940 -0.3348
    1SOL    MW4 5776   4.035   3.503   2.341  0.1073 -0.2112  0.4165
    1SOL     OW 5777   4.255   3.619   2.241 -0.0296 -0.2434 -0.2866
    1SOL    HW2 5778   4.220   3.702   2.272  0.0355 -0.2530 -0.1903
    1SOL    HW3 5779   4.245   3.623   2.145  1.6496  0.6198 -0.4305
    1SOL    MW4 5780   4.249   3.630   2.232  0.2003 -0.1309 -0.2925
    1SOL     OW 5781   4.200   3.882   2.359  0.2259 -0.1189 -0.6394
    1SOL    HW2 5782   4.216   3.879   2.453 -1.4021  0.5279 -0.3125
    1SOL    HW3 5783   4.277   3.926   2.322  0.6969 -0.0401  0.4304
    1SOL    MW4 5784   4.212   3.888   2.366  0.0730 -0.0231 -0.4549
    1SOL     OW 5785   4.004   4.026   2.225 -0.5110 -0.5754  0.8187
    1SOL    HW2 5786   4.059   3.959   2.267 -1.3083 -0.9241  1.3123
    1SOL    HW3 5787   4.040   4.034   2.137 -1.3305 -2.7179  0.2677
    1SOL    MW4 5788   4.016   4.018   2.219 -0.7243 -0.9036  0.8111
    1SOL     OW 5789   4.021   4.299   2.353 -0.3067  0.3904  0.2537
    1SOL    HW2 5790   4.098   4.322   2.301 -1.2523 -0.3961 -1.5590
    1SOL    HW3 5791   4.005   4.207   2.332 -1.0743  0.2313  1.4791
    1SOL    MW4 5792   4.029   4.290   2.343 -0.5322  0.2661  0.1762
    1SOL     OW 5793   4.268   4.405   2.242 -0.2548 -0.4922 -0.2023
    1SOL    HW2 5794   4.271   4.495   2.275 -0.3443 -0.7038  0.3969
    1SOL    HW3 5795   4.341   4.361   2.285 -0.4385 -0.8002 -0.2001
    1SOL    MW4 5796   4.278   4.411   2.252 -0.2909 -0.5608 -0.1228
    1SOL     OW 5797   0.236   4.620   2.620  0.4334 -0.2192  0.1921
    1SOL    HW2 5798   0.225   4.530   2.651  0.1854 -0.1404  0.3401
    1SOL    HW3 5799   0.164   4.668   2.662  1.1012  0.2286  0.8309
    1SOL    MW4 5800   0.225   4.614   2.630  0.4888 -0.1502  0.2959
    1SOL     OW 5801   0.015   0.091   2.721  0.3166 -0.0120 -0.1622
    1SOL    HW2 5802   0.032   0.094   2.815 -0.7125  0.7660  0.0148
    1SOL    HW3 5803   0.015   0.183   2.694  2.6616 -0.3228 -1.3235
    1SOL    MW4 5804   0.017   0.104   2.730  0.4901  0.0496 -0.2921
    1SOL     OW 5805   0.003   0.353   2.631 -0.2196 -0.3973  0.2668
    1SOL    HW2 5806   0.086   0.396   2.648 -0.2676 -0.2924  0.2302
    1SOL    HW3 5807  -0.003   0.349   2.536 -0.3962 -0.1411  0.2689
    1SOL    MW4 5808   0.013   0.358   2.621 -0.2489 -0.3496  0.2623
    1SOL     OW 5809   0.231   0.491   2.690 -0.1273  0.3586  0.3785
    1SOL    HW2 5810   0.228   0.487   2.785  0.6679 -3.5406  0.3226
    1SOL    HW3 5811   0.321   0.469   2.668 -0.6439 -0.1545 -1.3118
    1SOL    MW4 5812   0.242   0.487   2.699 -0.0905 -0.2236  0.1481
    1SOL     OW 5813   0.211   0.757   2.622 -0.0131  0.0233 -0.0231
    1SOL    HW2 5814   0.285   0.799   2.666 -0.3413  1.6459 -0.9726
    1SOL    HW3 5815   0.220   0.664   2.643  3.0155 -0.0079 -1.1833
    1SOL    MW4 5816   0.222   0.750   2.631  0.3432  0.2332 -0.3014
    1SOL     OW 5817   4.477   0.898   2.717  0.2282  0.1082  0.1257
    1SOL    HW2 5818   4.405   0.843   2.686 -0.4407 -0.5888  2.7829
    1SOL    HW3 5819   4.556   0.855   2.685 -0.3079 -2.1378  1.7346
    1SOL    MW4 5820   4.478   0.885   2.708  0.0691 -0.2801  0.6886
    1SOL     OW 5821   4.451   1.145   2.618  0.1823 -0.3243  0.5017
    1SOL    HW2 5822   4.522   1.194   2.659  0.2985 -0.7238  0.7768
    1SOL    HW3 5823   4.452   1.059   2.661  0.1866 -0.6824 -0.2038
    1SOL    MW4 5824   4.460   1.140   2.629  0.1984 -0.4243  0.4451
    1SOL     OW 5825   0.160   1.296   2.715 -0.3358  0.1271  0.1033
    1SOL    HW2 5826   0.235   1.239   2.694  0.5957  0.9104  1.2497
    1SOL    HW3 5827   0.180   1.379   2.672 -1.3677 -0.1901 -0.9972
    1SOL    MW4 5828   0.173   1.299   2.707 -0.3490  0.1886  0.1094
    1SOL     OW 5829   0.213   1.568   2.620 -0.1923  0.3905 -0.3666
    1SOL    HW2 5830   0.289   1.618   2.651  1.4316 -1.6290 -0.9719
    1SOL    HW3 5831   0.139   1.605   2.668  1.3170  1.7819  0.9564
    1SOL    MW4 5832   0.213   1.579   2.631  0.2211  0.3076 -0.2720
    1SOL     OW 5833   0.014   1.667   2.768 -0.0230  0.2706 -0.2259
    1SOL    HW2 5834   0.011   1.668   2.864 -1.5809  0.2115 -0.2681
    1SOL    HW3 5835   0.000   1.758   2.743 -0.3806  0.1645 -0.4138
    1SOL    MW4 5836   0.012   1.679   2.778 -0.2756  0.2489 -0.2561
    1SOL     OW 5837   4.483   1.937   2.686  0.2668  0.2973  0.1449
    1SOL    HW2 5838   4.568   1.977   2.704 -0.2411  0.8476  1.3404
    1SOL    HW3 5839   4.476   1.937   2.591  1.6637  0.1197  0.0326
    1SOL    MW4 5840   4.493   1.942   2.676  0.3839  0.3464  0.2880
    1SOL     OW 5841   0.237   2.064   2.756 -0.1918  0.1790  0.4280
    1SOL    HW2 5842   0.305   2.018   2.707  0.4604 -0.7578  2.1501
    1SOL    HW3 5843   0.229   2.149   2.713  1.6281  0.0590 -0.1727
    1SOL    MW4 5844   0.245   2.069   2.744  0.1344  0.0393  0.5760
    1SOL     OW 5845   0.209   2.319   2.650  0.2249  0.0781 -0.2073
    1SOL    HW2 5846   0.288   2.368   2.674  0.3336 -0.1497 -0.1039
    1SOL    HW3 5847   0.137   2.376   2.678  0.3498  0.3974 -0.5248
    1SOL    MW4 5848   0.210   2.333   2.657  0.2557  0.0899 -0.2353
    1SOL     OW 5849   4.464   2.472   2.719 -0.0208  0.0462  0.0589
    1SOL    HW2 5850   4.478   2.469   2.814 -0.1259 -1.5087  0.0473
    1SOL    HW3 5851   4.378   2.431   2.707 -0.0247  0.2746 -0.7025
    1SOL    MW4 5852   4.454   2.466   2.730 -0.0353 -0.1287 -0.0432
    1SOL     OW 5853   0.012   2.736   2.650  0.0775 -0.1267  0.1074
    1SOL    HW2 5854  -0.071   2.780   2.668 -0.4678 -0.9253 -0.4385
    1SOL    HW3 5855  -0.001   2.646   2.681  1.1700  0.0690  1.1818
    1SOL    MW4 5856  -0.000   2.730   2.656  0.1493 -0.2065  0.1771
    1SOL     OW 5857   0.245   2.804   2.756 -0.2390  0.0725 -0.1303
    1SOL    HW2 5858   0.241   2.899   2.746  0.1034  0.2512  1.3581
    1SOL    HW3 5859   0.163   2.772   2.718  0.1363  0.8561 -1.6508
    1SOL    MW4 5860   0.234   2.812   2.750 -0.1443  0.1996 -0.1345
    1SOL     OW 5861   0.223   3.072   2.686 -0.0762  0.0501  0.3526
    1SOL    HW2 5862   0.298   3.131   2.694 -0.6397  0.8062  0.0503
    1SOL    HW3 5863   0.216   3.054   2.592  0.7485 -1.3638  0.5363
    1SOL    MW4 5864   0.232   3.077   2.675 -0.0418 -0.0367  0.3369
    1SOL     OW 5865   0.003   3.231   2.764 -0.3409  0.4447 -0.0844
    1SOL    HW2 5866  -0.083   3.196   2.740  0.3800 -0.5698 -1.2091
    1SOL    HW3 5867   0.066   3.167   2.731  0.7678 -0.1868  3.0204
    1SOL    MW4 5868  -0.000   3.218   2.757 -0.0992  0.2275  0.1769
    1SOL     OW 5869   4.469   3.461   2.624  0.2466  0.1412 -0.2019
    1SOL    HW2 5870   4.534   3.525   2.651 -1.5468  1.0157  2.3033
    1SOL    HW3 5871   4.492   3.381   2.670 -0.0155  0.2403  0.1045
    1SOL    MW4 5872   4.480   3.459   2.633 -0.0248  0.2697  0.1693
    1SOL     OW 5873   0.189   3.609   2.734 -0.3138 -0.4349  0.2336
    1SOL    HW2 5874   0.181   3.618   2.829  0.4591 -2.4761  0.5139
    1SOL    HW3 5875   0.275   3.569   2.721  0.2141  1.1818 -1.4198
    1SOL    MW4 5876   0.199   3.605   2.744 -0.1421 -0.4911  0.0525
    1SOL     OW 5877   0.207   3.863   2.622 -0.0704 -0.0104  0.1585
    1SOL    HW2 5878   0.188   3.773   2.649 -1.6015  0.4216  0.5742
    1SOL    HW3 5879   0.221   3.858   2.528  0.0971 -0.7284  0.2212
    1SOL    MW4 5880   0.206   3.851   2.613 -0.2503 -0.0479  0.2220
    1SOL     OW 5881   0.012   4.008   2.748  0.0500 -0.1317 -0.6221
    1SOL    HW2 5882   0.014   4.093   2.704 -0.1483 -0.1268 -0.6245
    1SOL    HW3 5883   0.084   3.959   2.709  1.4441  0.7352  0.7969
    1SOL    MW4 5884   0.022   4.013   2.737  0.2077 -0.0167 -0.4351
    1SOL     OW 5885   0.009   4.253   2.621  0.0586  0.1062  0.0538
    1SOL    HW2 5886  -0.061   4.305   2.661 -0.2881 -0.4739  0.2083
    1SOL    HW3 5887   0.090   4.296   2.647 -0.2919  1.6574 -1.3500
    1SOL    MW4 5888   0.010   4.265   2.629 -0.0334  0.2346 -0.1109
    1SOL     OW 5889   0.258   4.364   2.697 -0.2815  0.1809 -0.6013
    1SOL    HW2 5890   0.253   4.353   2.792  0.1963 -1.3503 -0.7368
    1SOL    HW3 5891   0.335   4.313   2.671  0.6061  2.0005 -1.6136
    1SOL    MW4 5892   0.268   4.356   2.706 -0.1014  0.2193 -0.7527
    1SOL     OW 5893   0.680   4.659   2.596 -0.1878 -0.1192  0.2830
    1SOL    HW2 5894   0.750   4.690   2.654 -0.1101 -1.3613  0.8692
    1SOL    HW3 5895   0.601   4.701   2.630  0.2412  1.2366 -0.3388
    1SOL    MW4 5896   0.679   4.669   2.608 -0.1210 -0.1042  0.2780
    1SOL     OW 5897   0.453   0.116   2.694 -0.4050 -0.0635 -0.1695
    1SOL    HW2 5898   0.472   0.098   2.785  0.0707  0.8964 -0.0694
    1SOL    HW3 5899   0.375   0.065   2.675 -1.1183  0.5499  1.0667
    1SOL    MW4 5900   0.445   0.107   2.703 -0.4364  0.1441  0.0069
    1SOL     OW 5901   0.469   0.380   2.608 -0.5082  0.0875 -0.1379
    1SOL    HW2 5902   0.554   0.405   2.645 -0.6584  1.0862 -0.4425
    1SOL    HW3 5903   0.453   0.292   2.641  1.3413 -0.7054 -1.2561
    1SOL    MW4 5904   0.478   0.372   2.617 -0.2840  0.1146 -0.3259
    1SOL     OW 5905   0.698   0.499   2.694  0.1454  0.0131 -0.1490
    1SOL    HW2 5906   0.694   0.502   2.790  0.8846  0.5544 -0.1323
    1SOL    HW3 5907   0.785   0.465   2.674  0.3585  0.8298 -0.6359
    1SOL    MW4 5908   0.709   0.495   2.704  0.2711  0.1923 -0.2110
    1SOL     OW 5909   0.679   0.772   2.647 -0.1532  0.0504  0.2721
    1SOL    HW2 5910   0.766   0.805   2.666  0.3999 -1.3185  0.1768
    1SOL    HW3 5911   0.682   0.679   2.670 -1.1708 -0.3337 -1.0182
    1SOL    MW4 5912   0.691   0.764   2.653 -0.2145 -0.1810  0.0894
    1SOL     OW 5913   0.421   0.872   2.751 -0.2271 -0.0313 -0.2018
    1SOL    HW2 5914   0.423   0.863   2.846 -0.2138 -1.0338 -0.2994
    1SOL    HW3 5915   0.505   0.838   2.721 -0.1554  0.4555 -0.5645
    1SOL    MW4 5916   0.432   0.867   2.759 -0.2159 -0.0994 -0.2625
    1SOL     OW 5917   0.381   1.136   2.648  0.1167 -0.1912 -0.2758
    1SOL    HW2 5918   0.463   1.184   2.664 -0.3129  0.2448  0.6015
    1SOL    HW3 5919   0.393   1.053   2.695 -0.4509  0.3867  0.8935
    1SOL    MW4 5920   0.394   1.131   2.656 -0.0149 -0.0575 -0.0060
    1SOL     OW 5921   0.623   1.266   2.710 -0.0060  0.0442 -0.0705
    1SOL    HW2 5922   0.635   1.282   2.804 -0.3363 -0.8959  0.1350
    1SOL    HW3 5923   0.712   1.250   2.677 -0.0107 -0.7436  0.2933
    1SOL    MW4 5924   0.637   1.266   2.718 -0.0501 -0.1838  0.0048
    1SOL     OW 5925   0.634   1.547   2.629  0.4878 -0.4933  0.0433
    1SOL    HW2 5926   0.569   1.605   2.667 -0.2196 -0.8761 -0.5795
    1SOL    HW3 5927   0.612   1.460   2.663  0.6484 -0.6295 -0.1990
    1SOL    MW4 5928   0.623   1.543   2.638  0.4157 -0.5617 -0.0708
    1SOL     OW 5929   0.430   1.701   2.734  0.5996 -0.0422  0.4064
    1SOL    HW2 5930   0.446   1.712   2.828  1.5668 -0.0902  0.2437
    1SOL    HW3 5931   0.437   1.789   2.697 -0.3356  0.0643  0.4517
    1SOL    MW4 5932   0.433   1.714   2.742  0.6038 -0.0345  0.3910
    1SOL     OW 5933   0.454   1.943   2.607  0.4693 -0.0251 -0.3811
    1SOL    HW2 5934   0.536   1.989   2.623 -0.0997  1.1338 -0.7094
    1SOL    HW3 5935   0.440   1.953   2.513 -0.6977  0.9242 -0.1224
    1SOL    MW4 5936   0.463   1.951   2.597  0.2403  0.2532 -0.3903
    1SOL     OW 5937   0.670   2.085   2.681 -0.1833  0.0486 -0.0873
    1SOL    HW2 5938   0.660   2.091   2.776 -0.9942 -0.7207 -0.1118
    1SOL    HW3 5939   0.752   2.037   2.669 -0.3983 -0.4117  0.2427
    1SOL    MW4 5940   0.680   2.079   2.692 -0.3186 -0.1132 -0.0472
    1SOL     OW 5941   0.641   2.350   2.593 -0.1694  0.0509 -0.1819
    1SOL    HW2 5942   0.724   2.385   2.625 -0.5232 -0.8229  1.7725
    1SOL    HW3 5943   0.645   2.256   2.614 -2.3988  0.3239  1.6202
    1SOL    MW4 5944   0.652   2.342   2.600 -0.5103 -0.0284  0.3135
    1SOL     OW 5945   0.438   2.460   2.730  0.7095 -0.0566 -0.1341
    1SOL    HW2 5946   0.433   2.539   2.676 -0.5227  0.0719  0.1506
    1SOL    HW3 5947   0.510   2.409   2.692 -0.3220 -0.1019 -2.0658
    1SOL    MW4 5948   0.447   2.464   2.718  0.4109 -0.0455 -0.3514
    1SOL     OW 5949   0.415   2.701   2.576  0.1215  0.4679  0.2091
    1SOL    HW2 5950   0.499   2.724   2.615  0.7427  0.5105 -1.1168
    1SOL    HW3 5951   0.350   2.742   2.633  1.0376  1.3988  0.5959
    1SOL    MW4 5952   0.417   2.709   2.589  0.3244  0.5963  0.0854
    1SOL     OW 5953   0.656   2.801   2.690  0.1923 -0.0003  0.5659
    1SOL    HW2 5954   0.644   2.793   2.785  0.5664  0.0044  0.6114
    1SOL    HW3 5955   0.664   2.896   2.675  0.4467 -0.0220  0.5655
    1SOL    MW4 5956   0.655   2.813   2.701  0.2752 -0.0024  0.5720
    1SOL     OW 5957   0.670   3.081   2.639  0.3936  0.1060 -0.2648
    1SOL    HW2 5958   0.758   3.112   2.662  0.1735  0.5711 -0.0338
    1SOL    HW3 5959   0.666   3.091   2.544  1.1022 -1.2833 -0.4469
    1SOL    MW4 5960   0.681   3.087   2.630  0.4581 -0.0157 -0.2584
    1SOL     OW 5961   0.436   3.254   2.730 -0.1013  0.0887 -0.0570
    1SOL    HW2 5962   0.423   3.268   2.824 -0.2288 -1.1274  0.1162
    1SOL    HW3 5963   0.522   3.212   2.723  1.1842  2.7231 -0.7287
    1SOL    MW4 5964   0.446   3.250   2.741  0.0515  0.2759 -0.1228
    1SOL     OW 5965   0.430   3.525   2.611  0.3245 -0.0875 -0.5020
    1SOL    HW2 5966   0.415   3.433   2.631 -4.0829  0.5166 -0.5583
    1SOL    HW3 5967   0.430   3.528   2.515  1.6002 -0.1307 -0.5200
    1SOL    MW4 5968   0.428   3.513   2.601 -0.0887 -0.0131 -0.5119
    1SOL     OW 5969   0.682   3.599   2.707  0.4865 -0.1577 -0.2809
    1SOL    HW2 5970   0.690   3.576   2.800  0.3099 -1.6927 -0.6407
    1SOL    HW3 5971   0.601   3.558   2.679  0.4478  0.4541 -1.0776
    1SOL    MW4 5972   0.673   3.590   2.716  0.4581 -0.2797 -0.4334
    1SOL     OW 5973   0.685   3.860   2.668  0.1421  0.1881  0.0356
    1SOL    HW2 5974   0.601   3.890   2.704 -0.7754 -1.6577 -0.5292
    1SOL    HW3 5975   0.689   3.767   2.692  2.3269  0.4135  0.6128
    1SOL    MW4 5976   0.674   3.852   2.676  0.3093 -0.0257  0.0374
    1SOL     OW 5977   0.442   3.974   2.744 -0.5184 -0.5718  0.0241
    1SOL    HW2 5978   0.442   4.065   2.714 -1.7660 -0.2561  0.9341
    1SOL    HW3 5979   0.364   3.936   2.705 -0.8950 -0.7961  0.9896
    1SOL    MW4 5980   0.432   3.981   2.735 -0.7327 -0.5598  0.2713
    1SOL     OW 5981   0.484   4.224   2.622  0.0835  0.1097 -0.0977
    1SOL    HW2 5982   0.547   4.281   2.666 -0.0206 -0.0450  0.2571
    1SOL    HW3 5983   0.486   4.251   2.530  0.3305  0.4106 -0.0027
    1SOL    MW4 5984   0.493   4.235   2.615  0.1023  0.1292 -0.0381
    1SOL     OW 5985   0.666   4.399   2.745 -0.2517 -0.4041  0.2792
    1SOL    HW2 5986   0.755   4.375   2.719 -0.5834 -1.4567  0.0679
    1SOL    HW3 5987   0.639   4.466   2.683  0.1536 -0.5577 -0.0621
    1SOL    MW4 5988   0.674   4.404   2.733 -0.2419 -0.5631  0.2060
    1SOL     OW 5989   1.102   4.607   2.641  0.3676  0.4421 -0.4089
    1SOL    HW2 5990   1.184   4.655   2.653  0.2236  0.5868  0.0034
    1SOL    HW3 5991   1.119   4.521   2.681 -0.0948  0.9056  0.8209
    1SOL    MW4 5992   1.115   4.602   2.648  0.2877  0.5221 -0.1922
    1SOL     OW 5993   0.894   0.119   2.724 -0.3885 -0.8333 -1.0416
    1SOL    HW2 5994   0.878   0.125   2.818 -1.8507  0.5679 -1.3465
    1SOL    HW3 5995   0.956   0.047   2.714 -1.5266 -2.1221  0.8385
    1SOL    MW4 5996   0.900   0.110   2.735 -0.7316 -0.8185 -0.8337
    1SOL     OW 5997   0.935   0.379   2.624  0.0916  0.3919  0.2461
    1SOL    HW2 5998   0.931   0.288   2.653 -0.9339  0.5139  0.5099
    1SOL    HW3 5999   0.923   0.374   2.529 -1.6944  0.3579  0.4455
    1SOL    MW4 6000   0.933   0.367   2.615 -0.2793  0.4035  0.3073
    1SOL     OW 6001   1.151   0.533   2.744 -0.0375 -0.4775  0.1234
    1SOL    HW2 6002   1.141   0.621   2.706 -0.3241 -0.2213  0.7800
    1SOL    HW3 6003   1.078   0.483   2.706 -2.1669  0.5957  2.6190
    1SOL    MW4 6004   1.140   0.538   2.734 -0.3562 -0.3021  0.5395
    1SOL     OW 6005   1.154   0.771   2.608 -0.2872 -0.3272  0.0218
    1SOL    HW2 6006   1.236   0.814   2.632  1.3873 -2.7984 -1.0367
    1SOL    HW3 6007   1.156   0.769   2.512 -0.6484 -2.1553  0.0453
    1SOL    MW4 6008   1.165   0.777   2.598 -0.1138 -0.8944 -0.1147
    1SOL     OW 6009   0.923   0.865   2.701  0.2795 -0.4409 -0.4383
    1SOL    HW2 6010   0.940   0.868   2.795  1.1807 -0.4315 -0.5872
    1SOL    HW3 6011   1.004   0.831   2.664  0.1419  0.0994 -1.2572
    1SOL    MW4 6012   0.936   0.861   2.708  0.3802 -0.3684 -0.5658
    1SOL     OW 6013   0.874   1.145   2.649 -0.2055 -0.4424  0.1013
    1SOL    HW2 6014   0.883   1.053   2.675  2.0538  0.0589  1.2824
    1SOL    HW3 6015   0.862   1.142   2.554 -2.7224 -2.0568  0.4240
    1SOL    MW4 6016   0.874   1.132   2.640 -0.2394 -0.5891  0.2999
    1SOL     OW 6017   1.127   1.262   2.704 -0.3999 -0.0922 -0.2369
    1SOL    HW2 6018   1.126   1.355   2.681 -0.9618 -0.0308  0.0394
    1SOL    HW3 6019   1.040   1.230   2.681 -0.2603 -0.5170 -0.1835
    1SOL    MW4 6020   1.116   1.270   2.698 -0.4557 -0.1402 -0.1934
    1SOL     OW 6021   1.112   1.526   2.655  0.1924  0.1344  0.2057
    1SOL    HW2 6022   1.031   1.565   2.688 -1.4934 -3.0047  0.0175
    1SOL    HW3 6023   1.105   1.530   2.560  0.9427  1.1555  0.1855
    1SOL    MW4 6024   1.100   1.532   2.647  0.0690 -0.1451  0.1781
    1SOL     OW 6025   0.870   1.668   2.697 -0.2914 -0.2507 -0.2263
    1SOL    HW2 6026   0.872   1.676   2.792  0.0853  0.5489 -0.2906
    1SOL    HW3 6027   0.788   1.624   2.677  0.9813 -3.1232  0.6453
    1SOL    MW4 6028   0.860   1.664   2.707 -0.0739 -0.5242 -0.1199
    1SOL     OW 6029   0.874   1.916   2.597 -0.4324  0.2294 -0.3349
    1SOL    HW2 6030   0.958   1.947   2.630 -0.4721  0.1426 -0.1541
    1SOL    HW3 6031   0.866   1.827   2.630 -0.5825  0.2284 -0.3733
    1SOL    MW4 6032   0.884   1.908   2.606 -0.4574  0.2179 -0.3161
    1SOL     OW 6033   1.108   2.019   2.695 -0.0314  0.1251 -0.0939
    1SOL    HW2 6034   1.196   1.992   2.668 -0.4312 -1.1243 -0.1529
    1SOL    HW3 6035   1.102   2.110   2.668  1.3647  0.3179  0.1901
    1SOL    MW4 6036   1.119   2.027   2.688  0.1001 -0.0141 -0.0644
    1SOL     OW 6037   1.109   2.272   2.616 -0.1977  0.3940  0.4087
    1SOL    HW2 6038   1.196   2.308   2.633  0.2476 -0.7407  0.5675
    1SOL    HW3 6039   1.108   2.256   2.521 -1.3464  3.2522 -0.1069
    1SOL    MW4 6040   1.120   2.274   2.606 -0.2904  0.6216  0.3619
    1SOL     OW 6041   0.893   2.420   2.705 -0.2700 -0.3690  0.0179
    1SOL    HW2 6042   0.886   2.510   2.673 -0.7734 -0.2660  0.3950
    1SOL    HW3 6043   0.975   2.387   2.670 -0.5455 -0.0748 -0.9070
    1SOL    MW4 6044   0.903   2.427   2.696 -0.3728 -0.3166 -0.0541
    1SOL     OW 6045   0.886   2.665   2.605 -0.1116 -0.3435  0.1185
    1SOL    HW2 6046   0.959   2.713   2.644 -0.7113 -0.1046  0.9570
    1SOL    HW3 6047   0.808   2.711   2.636 -0.6072 -0.2869 -1.1839
    1SOL    MW4 6048   0.885   2.678   2.614 -0.2561 -0.3047  0.0572
    1SOL     OW 6049   1.083   2.832   2.705  0.0000  0.0000  0.2370
    1SOL    HW2 6050   1.106   2.825   2.798  0.0000  0.0000  0.2359
    1SOL    HW3 6051   1.159   2.795   2.659  0.0000  0.0000  0.2338
    1SOL    MW4 6052   1.096   2.826   2.711  0.0000  0.0000  0.2363
    1SOL     OW 6053   1.148   3.096   2.634  0.0000  0.0000 -0.2881
    1SOL    HW2 6054   1.122   3.007   2.657  0.0000  0.0000 -0.2981
    1SOL    HW3 6055   1.136   3.101   2.539  0.0000  0.0000 -0.2883
    1SOL    MW4 6056   1.143   3.085   2.624  0.0000  0.0000 -0.2894
    1SOL     OW 6057   0.919   3.208   2.738  0.0000  0.0000  0.5228
    1SOL    HW2 6058   0.903   3.287   2.686  0.0000  0.0000  0.5336
    1SOL    HW3 6059   1.006   3.179   2.709  0.0000  0.0000  0.4945
    1SOL    MW4 6060   0.928   3.215   2.727  0.0000  0.0000  0.5202
    1SOL     OW 6061   0.887   3.462   2.613  0.0000  0.0000 -0.0374
    1SOL    HW2 6062   0.961   3.508   2.654  0.0000  0.0000 -0.0711
    1SOL    HW3 6063   0.810   3.511   2.643  0.0000  0.0000 -0.0217
    1SOL    MW4 6064   0.887   3.475   2.623  0.0000  0.0000 -0.0396
    1SOL     OW 6065   1.102   3.599   2.720  0.0000  0.0000 -0.2198
    1SOL    HW2 6066   1.101   3.626   2.812  0.0000  0.0000 -0.2217
    1SOL    HW3 6067   1.100   3.681   2.671  0.0000  0.0000 -0.2253
    1SOL    MW4 6068   1.102   3.613   2.726  0.0000  0.0000 -0.2208
    1SOL     OW 6069   1.098   3.851   2.615  0.0000  0.0000 -0.1040
    1SOL    HW2 6070   1.178   3.889   2.652  0.0000  0.0000 -0.1061
    1SOL    HW3 6071   1.110   3.859   2.520  0.0000  0.0000 -0.1044
    1SOL    MW4 6072   1.110   3.857   2.607  0.0000  0.0000 -0.1042
    1SOL     OW 6073   0.893   4.008   2.737  0.0000  0.0000  0.6751
    1SOL    HW2 6074   0.957   3.963   2.682  0.0000  0.0000  0.6744
    1SOL    HW3 6075   0.809   3.969   2.710  0.0000  0.0000  0.6463
    1SOL    MW4 6076   0.890   3.997   2.726  0.0000  0.0000  0.6711
    1SOL     OW 6077   0.888   4.266   2.656  0.0000  0.0000  0.1950
    1SOL    HW2 6078   0.892   4.173   2.681  0.0000  0.0000  0.1909
    1SOL    HW3 6079   0.884   4.265   2.561  0.0000  0.0000  0.1951
    1SOL    MW4 6080   0.888   4.254   2.647  0.0000  0.0000  0.1945
    1SOL     OW 6081   1.144   4.351   2.723  0.0000  0.0000  0.5491
    1SOL    HW2 6082   1.137   4.378   2.815  0.0000  0.0000  0.5485
    1SOL    HW3 6083   1.055   4.327   2.698  0.0000  0.0000  0.5395
    1SOL    MW4 6084   1.131   4.351   2.732  0.0000  0.0000  0.5479
    1SOL     OW 6085   1.557   4.640   2.625 -0.0981 -0.1468 -0.2798
    1SOL    HW2 6086   1.552   4.547   2.648 -0.7454  0.2197  1.1264
    1SOL    HW3 6087   1.561   4.641   2.530 -2.1137 -1.5392 -0.4134
    1SOL    MW4 6088   1.557   4.628   2.616 -0.4494 -0.2823 -0.1118
    1SOL     OW 6089   1.324   0.101   2.720  0.0568 -0.3051  0.0738
    1SOL    HW2 6090   1.319   0.193   2.692  0.8673 -0.1060  0.5878
    1SOL    HW3 6091   1.410   0.071   2.691 -0.5519 -1.1573 -0.8571
    1SOL    MW4 6092   1.335   0.109   2.713  0.0836 -0.3913  0.0186
    1SOL     OW 6093   1.370   0.380   2.637 -0.1372  0.3577 -0.1917
    1SOL    HW2 6094   1.447   0.417   2.680 -0.4022  0.8736 -0.1482
    1SOL    HW3 6095   1.296   0.425   2.678 -0.6469 -2.1500  1.7871
    1SOL    MW4 6096   1.371   0.391   2.648 -0.2394  0.0949  0.0749
    1SOL     OW 6097   1.602   0.463   2.754  0.0342 -0.1346  0.0797
    1SOL    HW2 6098   1.680   0.427   2.712  1.0869  0.7205  1.2521
    1SOL    HW3 6099   1.589   0.548   2.713 -1.2132 -0.9331 -1.2112
    1SOL    MW4 6100   1.610   0.469   2.743  0.0087 -0.1271  0.0641
    1SOL     OW 6101   1.596   0.693   2.608  0.1860  0.2332  0.0570
    1SOL    HW2 6102   1.536   0.761   2.639 -1.3379 -0.4414 -1.3667
    1SOL    HW3 6103   1.585   0.693   2.513  0.4740 -1.7501  0.0141
    1SOL    MW4 6104   1.587   0.702   2.599  0.0229 -0.1174 -0.1366
    1SOL     OW 6105   1.424   0.904   2.687 -0.0449  0.2826  0.0673
    1SOL    HW2 6106   1.407   0.918   2.780  0.1198  0.0547  0.1326
    1SOL    HW3 6107   1.414   0.991   2.648 -0.6286  0.2831  0.2148
    1SOL    MW4 6108   1.420   0.917   2.694 -0.1003  0.2527  0.0954
    1SOL     OW 6109   1.364   1.153   2.579  0.2938 -0.2433  0.2173
    1SOL    HW2 6110   1.437   1.197   2.623  0.6518  0.9253 -1.5008
    1SOL    HW3 6111   1.286   1.185   2.624  0.6752  0.6785  0.2340
    1SOL    MW4 6112   1.364   1.163   2.591  0.3914  0.0323 -0.0074
    1SOL     OW 6113   1.557   1.272   2.738  0.0019  0.0994  0.3495
    1SOL    HW2 6114   1.548   1.272   2.833 -1.2386  0.1768  0.2502
    1SOL    HW3 6115   1.633   1.217   2.720  1.8832  2.2194  1.5019
    1SOL    MW4 6116   1.566   1.265   2.748  0.0865  0.3892  0.4883
    1SOL     OW 6117   1.552   1.547   2.653 -0.1671  0.3078 -0.1575
    1SOL    HW2 6118   1.567   1.455   2.676 -0.5867 -0.0943 -1.4655
    1SOL    HW3 6119   1.563   1.550   2.558  0.6895  1.7865 -0.0299
    1SOL    MW4 6120   1.556   1.535   2.644 -0.1094  0.4499 -0.3130
    1SOL     OW 6121   1.329   1.650   2.761  0.3649 -0.3258 -0.2106
    1SOL    HW2 6122   1.398   1.605   2.712 -0.8181 -0.7773 -1.4950
    1SOL    HW3 6123   1.247   1.610   2.730 -0.5433  0.9890  0.4461
    1SOL    MW4 6124   1.327   1.639   2.751  0.0890 -0.2120 -0.2933
    1SOL     OW 6125   1.337   1.903   2.628 -0.2652  0.3793  0.0317
    1SOL    HW2 6126   1.333   1.816   2.667 -0.8359  0.3836 -0.0119
    1SOL    HW3 6127   1.336   1.887   2.534 -0.7016  0.4433  0.0227
    1SOL    MW4 6128   1.336   1.889   2.621 -0.3980  0.3883  0.0246
    1SOL     OW 6129   1.552   2.060   2.694  0.0203  0.0094 -0.2933
    1SOL    HW2 6130   1.624   2.002   2.672  0.0923  0.0285 -0.1078
    1SOL    HW3 6131   1.473   2.013   2.667  0.1374  0.2475 -1.0709
    1SOL    MW4 6132   1.551   2.046   2.688  0.0453  0.0434 -0.3715
    1SOL     OW 6133   1.581   2.326   2.604 -0.1728 -0.1089 -0.0083
    1SOL    HW2 6134   1.656   2.366   2.647  0.6528 -0.5350 -1.0085
    1SOL    HW3 6135   1.576   2.238   2.641  0.7025 -0.5686 -0.9518
    1SOL    MW4 6136   1.590   2.319   2.614  0.0516 -0.2258 -0.2649
    1SOL     OW 6137   1.343   2.408   2.699  0.2614  0.0684  0.4652
    1SOL    HW2 6138   1.320   2.500   2.685 -0.6390 -0.4824 -1.8108
    1SOL    HW3 6139   1.430   2.399   2.659  1.1928  0.3643  2.3842
    1SOL    MW4 6140   1.352   2.419   2.692  0.2656  0.0348  0.4184
    1SOL     OW 6141   1.320   2.672   2.606 -0.2665 -0.0043 -0.2123
    1SOL    HW2 6142   1.398   2.720   2.634 -1.4906  1.5175  0.6896
    1SOL    HW3 6143   1.312   2.690   2.513  0.3391 -0.0054 -0.2672
    1SOL    MW4 6144   1.329   2.681   2.598 -0.3482  0.1962 -0.1009
    1SOL     OW 6145   1.536   2.808   2.731  0.3589  0.2368  0.1144
    1SOL    HW2 6146   1.540   2.812   2.827  0.3256  0.1478  0.1194
    1SOL    HW3 6147   1.619   2.770   2.705 -0.0123 -0.6239  0.1600
    1SOL    MW4 6148   1.547   2.804   2.741  0.3057  0.1113  0.1211
    1SOL     OW 6149   1.579   3.064   2.621 -0.0349  0.2186  0.1439
    1SOL    HW2 6150   1.638   3.117   2.675 -0.6385  1.0041  0.0518
    1SOL    HW3 6151   1.573   2.980   2.665  0.4951  0.4196  0.5993
    1SOL    MW4 6152   1.586   3.060   2.634 -0.0446  0.3488  0.1917
    1SOL     OW 6153   1.378   3.224   2.734  0.2528  0.5601  0.0515
    1SOL    HW2 6154   1.447   3.184   2.682  0.5244  0.0223  0.8164
    1SOL    HW3 6155   1.298   3.178   2.709  0.5424 -0.3792  0.8300
    1SOL    MW4 6156   1.376   3.213   2.724  0.3269  0.3653  0.2551
    1SOL     OW 6157   1.363   3.485   2.615 -0.3186  0.4001 -0.0465
    1SOL    HW2 6158   1.379   3.401   2.657  0.2333  0.5372  0.0242
    1SOL    HW3 6159   1.283   3.518   2.656  0.0599  0.4002  0.6941
    1SOL    MW4 6160   1.354   3.478   2.626 -0.1959  0.4182  0.0606
    1SOL     OW 6161   1.577   3.612   2.727  0.2680  0.0739  0.0996
    1SOL    HW2 6162   1.653   3.559   2.701  0.8655  1.1861 -0.4566
    1SOL    HW3 6163   1.502   3.565   2.692  0.6748 -1.1411  0.8185
    1SOL    MW4 6164   1.577   3.599   2.719  0.4005  0.0601  0.1211
    1SOL     OW 6165   1.598   3.893   2.653  0.0556  0.0774 -0.1676
    1SOL    HW2 6166   1.508   3.918   2.677 -0.6259 -0.5404 -2.0112
    1SOL    HW3 6167   1.600   3.798   2.665 -0.1059 -0.1565 -1.8667
    1SOL    MW4 6168   1.586   3.884   2.658 -0.0557 -0.0348 -0.6354
    1SOL     OW 6169   1.338   3.956   2.723  0.4640 -0.3194  0.2792
    1SOL    HW2 6170   1.333   3.966   2.818  0.7911 -0.2750  0.2940
    1SOL    HW3 6171   1.338   4.046   2.689 -0.3454 -0.3485  0.1970
    1SOL    MW4 6172   1.338   3.969   2.731  0.4003 -0.3178  0.2704
    1SOL     OW 6173   1.340   4.202   2.616  0.2397  0.1894  0.1846
    1SOL    HW2 6174   1.268   4.257   2.646  0.4102  0.5900 -0.1391
    1SOL    HW3 6175   1.336   4.207   2.520  1.4057  1.1345  0.1776
    1SOL    MW4 6176   1.330   4.210   2.607  0.4160  0.3672  0.1409
    1SOL     OW 6177   1.541   4.365   2.715  0.2613  0.3047 -0.3638
    1SOL    HW2 6178   1.551   4.361   2.810 -1.5459  1.7624 -0.0731
    1SOL    HW3 6179   1.467   4.307   2.696 -0.3669  1.1906 -0.6833
    1SOL    MW4 6180   1.532   4.357   2.725 -0.0598  0.6137 -0.3679
    1SOL     OW 6181   2.024   4.631   2.586 -0.4017  0.1732  0.0730
    1SOL    HW2 6182   2.088   4.682   2.635 -1.8982  0.4656  1.7879
    1SOL    HW3 6183   2.026   4.667   2.498  1.4979  0.4270  0.2086
    1SOL    MW4 6184   2.032   4.642   2.581 -0.3483  0.2451  0.3171
    1SOL     OW 6185   1.810   0.050   2.745  0.5825  0.0436 -0.0368
    1SOL    HW2 6186   1.876   0.017   2.684 -0.0464  0.5650 -1.0202
    1SOL    HW3 6187   1.727   0.025   2.705  0.1240  1.8058 -0.2131
    1SOL    MW4 6188   1.808   0.042   2.731  0.4390  0.3449 -0.1895
    1SOL     OW 6189   1.811   0.309   2.629 -0.1544  0.5321  0.0727
    1SOL    HW2 6190   1.884   0.355   2.670  0.8144 -0.0036 -1.0369
    1SOL    HW3 6191   1.806   0.226   2.677  0.6646  0.1120 -0.5628
    1SOL    MW4 6192   1.820   0.304   2.641  0.0815  0.4060 -0.1576
    1SOL     OW 6193   2.027   0.464   2.730  0.0135 -0.4211  0.2697
    1SOL    HW2 6194   2.113   0.431   2.702  0.5634  0.9160  0.3343
    1SOL    HW3 6195   2.036   0.475   2.825  0.0752  0.5423  0.1623
    1SOL    MW4 6196   2.040   0.461   2.739  0.0942 -0.1175  0.2642
    1SOL     OW 6197   2.020   0.710   2.602 -0.4455  0.1470  0.0417
    1SOL    HW2 6198   2.025   0.626   2.648  1.0571  1.1803  1.8184
    1SOL    HW3 6199   1.934   0.745   2.625 -0.5413 -0.3159  0.3918
    1SOL    MW4 6200   2.009   0.704   2.611 -0.2596  0.2223  0.3223
    1SOL     OW 6201   1.802   0.828   2.718  0.3549 -0.2175 -1.1588
    1SOL    HW2 6202   1.780   0.917   2.690 -0.9173 -0.4871 -1.0615
    1SOL    HW3 6203   1.725   0.776   2.694  1.1184 -1.3026 -1.2718
    1SOL    MW4 6204   1.789   0.833   2.711  0.2878 -0.3963 -1.1611
    1SOL     OW 6205   1.780   1.131   2.639 -0.3414 -0.3612 -0.1110
    1SOL    HW2 6206   1.856   1.173   2.680 -0.5261 -0.0422 -0.0962
    1SOL    HW3 6207   1.785   1.158   2.547 -0.8328  0.2315  0.0359
    1SOL    MW4 6208   1.791   1.140   2.632 -0.4307 -0.2408 -0.0899
    1SOL     OW 6209   1.982   1.273   2.736 -0.1634  0.1504  0.3743
    1SOL    HW2 6210   2.002   1.276   2.829  0.9642 -1.5407  0.1883
    1SOL    HW3 6211   2.059   1.234   2.695 -1.6111 -1.3896 -0.9767
    1SOL    MW4 6212   1.995   1.269   2.743 -0.2056 -0.2757  0.1714
    1SOL     OW 6213   1.986   1.517   2.621  0.1017  0.2734  0.3224
    1SOL    HW2 6214   1.920   1.572   2.663 -0.3718 -0.3926  0.4754
    1SOL    HW3 6215   1.965   1.428   2.651 -0.3708 -0.2490 -1.4548
    1SOL    MW4 6216   1.975   1.512   2.631 -0.0231  0.1166  0.1080
    1SOL     OW 6217   1.780   1.675   2.758 -0.1776  0.1498  0.0007
    1SOL    HW2 6218   1.780   1.674   2.854  0.3860  2.6658  0.0542
    1SOL    HW3 6219   1.695   1.636   2.734 -0.9896  0.9256  1.5513
    1SOL    MW4 6220   1.769   1.670   2.768 -0.2104  0.5841  0.2124
    1SOL     OW 6221   1.757   1.897   2.603  0.4542  0.4251  0.1852
    1SOL    HW2 6222   1.823   1.962   2.627  0.6676  0.2137  0.1741
    1SOL    HW3 6223   1.777   1.822   2.658  1.0457 -0.1244 -0.7647
    1SOL    MW4 6224   1.768   1.896   2.613  0.5604  0.3247  0.0587
    1SOL     OW 6225   1.977   2.023   2.687 -0.0398 -0.4720 -0.1176
    1SOL    HW2 6226   1.982   2.022   2.783  1.3448  0.9573 -0.1479
    1SOL    HW3 6227   1.992   2.115   2.664 -1.4408 -0.6228 -1.6596
    1SOL    MW4 6228   1.980   2.035   2.697 -0.0418 -0.3035 -0.3252
    1SOL     OW 6229   1.997   2.286   2.653 -0.3764 -0.2206  0.0761
    1SOL    HW2 6230   2.063   2.336   2.701 -1.0537  1.0410 -0.2650
    1SOL    HW3 6231   2.009   2.313   2.562 -0.9931 -0.4011 -0.0632
    1SOL    MW4 6232   2.007   2.296   2.647 -0.5469 -0.0777  0.0129
    1SOL     OW 6233   1.785   2.476   2.708 -0.1712 -0.1297  0.5848
    1SOL    HW2 6234   1.790   2.461   2.802  0.3388  0.8771  0.7203
    1SOL    HW3 6235   1.862   2.432   2.672 -0.4006 -0.5684  0.6230
    1SOL    MW4 6236   1.796   2.468   2.716 -0.1342 -0.0548  0.6075
    1SOL     OW 6237   1.799   2.726   2.649 -0.6169  0.0478  0.8545
    1SOL    HW2 6238   1.790   2.636   2.680  0.6444 -0.3374  0.1230
    1SOL    HW3 6239   1.792   2.720   2.554  1.5104  0.4419  0.6486
    1SOL    MW4 6240   1.797   2.714   2.641 -0.1698  0.0489  0.7308
    1SOL     OW 6241   2.047   2.846   2.714 -0.0034 -0.0683 -0.6289
    1SOL    HW2 6242   2.116   2.781   2.699  0.2425  0.2809 -1.0022
    1SOL    HW3 6243   1.966   2.797   2.702  0.1589 -0.7629  0.9684
    1SOL    MW4 6244   2.045   2.831   2.710  0.0505 -0.1137 -0.4675
    1SOL     OW 6245   1.991   3.102   2.619  0.0874 -0.0887 -0.1299
    1SOL    HW2 6246   2.012   3.012   2.645  3.5269  0.6356 -0.1210
    1SOL    HW3 6247   2.016   3.106   2.527 -1.5611  0.4293 -0.5547
    1SOL    MW4 6248   1.997   3.090   2.610  0.3237  0.0751 -0.1848
    1SOL     OW 6249   1.764   3.209   2.745 -0.4832 -0.4672  0.0400
    1SOL    HW2 6250   1.762   3.302   2.725 -1.1858 -0.7258 -1.1350
    1SOL    HW3 6251   1.835   3.174   2.691 -0.7465 -0.7510 -0.1230
    1SOL    MW4 6252   1.773   3.217   2.735 -0.6107 -0.5388 -0.1366
    1SOL     OW 6253   1.789   3.464   2.648 -0.0052 -0.6163  0.4996
    1SOL    HW2 6254   1.866   3.503   2.689  0.5439  0.3278 -1.4067
    1SOL    HW3 6255   1.804   3.474   2.554 -3.1588  1.0461  0.1009
    1SOL    MW4 6256   1.801   3.471   2.641 -0.3488 -0.2723  0.1957
    1SOL     OW 6257   2.019   3.604   2.733 -0.2345  0.2930  0.2777
    1SOL    HW2 6258   2.042   3.596   2.826  0.5352  0.3812  0.0977
    1SOL    HW3 6259   2.085   3.553   2.687 -1.5628 -1.1012 -0.1182
    1SOL    MW4 6260   2.030   3.596   2.739 -0.3083  0.1209  0.2017
    1SOL     OW 6261   1.991   3.874   2.627  0.0242  0.3485  0.0748
    1SOL    HW2 6262   1.937   3.932   2.680 -0.4244  0.3475 -0.3845
    1SOL    HW3 6263   1.991   3.791   2.675 -0.2425  0.3982  0.1623
    1SOL    MW4 6264   1.984   3.871   2.640 -0.0701  0.3550  0.0257
    1SOL     OW 6265   1.823   4.019   2.772  0.6866  0.6392  0.2948
    1SOL    HW2 6266   1.834   4.107   2.737  0.0086  1.1366  1.2998
    1SOL    HW3 6267   1.743   3.986   2.731 -0.1688  1.2633  1.4269
    1SOL    MW4 6268   1.814   4.026   2.762  0.4845  0.7873  0.5767
    1SOL     OW 6269   1.796   4.268   2.638 -0.3540  0.0348 -0.3823
    1SOL    HW2 6270   1.705   4.291   2.657 -0.3577  0.7191 -1.1788
    1SOL    HW3 6271   1.803   4.274   2.543  0.2909 -0.9091 -0.3993
    1SOL    MW4 6272   1.785   4.272   2.628 -0.2694  0.0010 -0.4895
    1SOL     OW 6273   2.060   4.377   2.734 -0.5113  0.2716  0.1205
    1SOL    HW2 6274   1.972   4.343   2.720 -0.3999  0.5817 -1.4509
    1SOL    HW3 6275   2.065   4.456   2.681  0.1889  1.1535  1.4796
    1SOL    MW4 6276   2.049   4.383   2.725 -0.4041  0.4287  0.0925
    1SOL     OW 6277   2.435   4.655   2.601 -0.3991  0.2066 -0.1575
    1SOL    HW2 6278   2.504   4.713   2.633  1.2425 -1.2809 -0.9583
    1SOL    HW3 6279   2.455   4.642   2.508 -1.2843 -0.9181 -0.2094
    1SOL    MW4 6280   2.446   4.661   2.593 -0.2995 -0.1373 -0.2701
    1SOL     OW 6281   2.209   0.098   2.728 -0.0460 -0.4814  0.7838
    1SOL    HW2 6282   2.290   0.054   2.703 -0.1973 -0.0171 -0.5703
    1SOL    HW3 6283   2.205   0.089   2.823  1.1704 -1.2287  0.7748
    1SOL    MW4 6284   2.219   0.091   2.737  0.0947 -0.5187  0.6039
    1SOL     OW 6285   2.280   0.350   2.679  0.6790 -0.1475 -0.0112
    1SOL    HW2 6286   2.280   0.360   2.584  2.6814 -0.1166 -0.0198
    1SOL    HW3 6287   2.240   0.264   2.694 -1.8249  0.8312 -0.7292
    1SOL    MW4 6288   2.274   0.340   2.669  0.6127 -0.0143 -0.1070
    1SOL     OW 6289   2.519   0.514   2.736 -0.3006  0.1396 -0.1963
    1SOL    HW2 6290   2.487   0.593   2.690 -0.4914  0.3744  0.3348
    1SOL    HW3 6291   2.444   0.454   2.734 -0.0386 -0.1770 -0.9204
    1SOL    MW4 6292   2.505   0.517   2.729 -0.2911  0.1288 -0.2217
    1SOL     OW 6293   2.453   0.754   2.620 -0.4536 -0.0059  0.4079
    1SOL    HW2 6294   2.384   0.809   2.656 -0.3820  0.8652 -0.7881
    1SOL    HW3 6295   2.449   0.767   2.525  1.3380  0.0410  0.3186
    1SOL    MW4 6296   2.444   0.763   2.612 -0.2081  0.1152  0.2384
    1SOL     OW 6297   2.214   0.867   2.714  0.2596  0.6870 -0.1161
    1SOL    HW2 6298   2.213   0.857   2.809  2.4169  1.3821 -0.0157
    1SOL    HW3 6299   2.144   0.808   2.684 -0.4102  0.4261  1.8752
    1SOL    MW4 6300   2.205   0.858   2.723  0.4561  0.7443  0.1597
    1SOL     OW 6301   2.216   1.140   2.668 -0.0954  0.2423 -0.4681
    1SOL    HW2 6302   2.217   1.044   2.673 -1.0524  0.1578 -1.6585
    1SOL    HW3 6303   2.303   1.166   2.699  0.3762 -1.0406 -0.6686
    1SOL    MW4 6304   2.228   1.131   2.672 -0.1597  0.0619 -0.6516
    1SOL     OW 6305   2.457   1.261   2.719 -0.4420  0.2473  0.3766
    1SOL    HW2 6306   2.470   1.352   2.694  0.4386  0.3013  0.9926
    1SOL    HW3 6307   2.531   1.214   2.679 -0.7081 -0.1335  0.3313
    1SOL    MW4 6308   2.469   1.267   2.711 -0.3607  0.2042  0.4518
    1SOL     OW 6309   2.458   1.536   2.632  0.2586 -0.1060  0.4974
    1SOL    HW2 6310   2.392   1.596   2.668  0.3336  0.6076 -0.5203
    1SOL    HW3 6311   2.541   1.567   2.667  0.2538  0.1297  0.2978
    1SOL    MW4 6312   2.460   1.548   2.641  0.2680  0.0194  0.3369
    1SOL     OW 6313   2.240   1.674   2.709  0.6990 -0.2134  0.1091
    1SOL    HW2 6314   2.214   1.756   2.666  1.3313  1.3169  2.5508
    1SOL    HW3 6315   2.162   1.619   2.706 -0.0863  0.9156 -0.5021
    1SOL    MW4 6316   2.226   1.678   2.703  0.6788  0.1374  0.3505
    1SOL     OW 6317   2.208   1.919   2.584  0.0598  0.1799  0.2776
    1SOL    HW2 6318   2.132   1.965   2.618  0.8232  0.7208  1.3047
    1SOL    HW3 6319   2.196   1.918   2.489 -0.2994  1.9197  0.2961
    1SOL    MW4 6320   2.197   1.925   2.576  0.1130  0.4807  0.4153
    1SOL     OW 6321   2.432   2.049   2.717  0.3906  0.8061 -0.0441
    1SOL    HW2 6322   2.439   2.139   2.684  1.1695  1.5282  1.9947
    1SOL    HW3 6323   2.365   2.008   2.663  0.4238  2.4537 -1.3594
    1SOL    MW4 6324   2.424   2.056   2.706  0.4981  1.1191  0.0513
    1SOL     OW 6325   2.443   2.297   2.633  0.5154 -0.3599  0.0802
    1SOL    HW2 6326   2.520   2.347   2.662 -0.5923  0.4021  1.8123
    1SOL    HW3 6327   2.450   2.295   2.537  1.9537  0.8889  0.1415
    1SOL    MW4 6328   2.455   2.304   2.624  0.5591 -0.0947  0.3169
    1SOL     OW 6329   2.215   2.419   2.739 -0.4251  0.3315 -0.3631
    1SOL    HW2 6330   2.225   2.434   2.833 -2.1261 -0.9119  0.0315
    1SOL    HW3 6331   2.296   2.375   2.713 -1.3454 -2.3881  1.2173
    1SOL    MW4 6332   2.227   2.415   2.748 -0.7708 -0.1912 -0.1025
    1SOL     OW 6333   2.252   2.685   2.654 -0.2384 -0.1564  0.1905
    1SOL    HW2 6334   2.331   2.729   2.685  0.5276 -0.9443 -0.5912
    1SOL    HW3 6335   2.262   2.594   2.683 -1.1344 -0.1299  0.5892
    1SOL    MW4 6336   2.264   2.679   2.662 -0.2556 -0.2565  0.1400
    1SOL     OW 6337   2.482   2.830   2.763  0.1243  0.2502 -0.5026
    1SOL    HW2 6338   2.554   2.788   2.718  0.3382  0.6829 -0.5645
    1SOL    HW3 6339   2.482   2.920   2.731 -0.7084  0.1421 -0.8274
    1SOL    MW4 6340   2.491   2.836   2.753  0.0427  0.2928 -0.5534
    1SOL     OW 6341   2.456   3.073   2.617  0.2627  0.4866 -0.3039
    1SOL    HW2 6342   2.379   3.127   2.637  0.0558 -0.2595  0.9986
    1SOL    HW3 6343   2.476   3.092   2.525 -1.5146  0.6579 -0.6768
    1SOL    MW4 6344   2.448   3.083   2.608  0.0007  0.4108 -0.1814
    1SOL     OW 6345   2.236   3.215   2.708  0.3662  0.0119 -0.4630
    1SOL    HW2 6346   2.238   3.216   2.804  0.7204  0.6866 -0.4690
    1SOL    HW3 6347   2.145   3.196   2.686  0.2959 -0.2100  0.0096
    1SOL    MW4 6348   2.225   3.213   2.718  0.4036  0.0720 -0.4013
    1SOL     OW 6349   2.230   3.470   2.620  0.6090  0.4303  0.8646
    1SOL    HW2 6350   2.301   3.521   2.658  0.8657 -0.2526  1.3125
    1SOL    HW3 6351   2.243   3.381   2.654  1.3257 -0.3958 -1.4742
    1SOL    MW4 6352   2.241   3.465   2.629  0.7374  0.2310  0.6151
    1SOL     OW 6353   2.472   3.627   2.721 -0.3080  0.0655  0.3376
    1SOL    HW2 6354   2.456   3.634   2.815 -0.8688 -0.8370  0.3155
    1SOL    HW3 6355   2.463   3.717   2.689 -0.2279  0.3619  1.1249
    1SOL    MW4 6356   2.469   3.640   2.729 -0.3715 -0.0143  0.4385
    1SOL     OW 6357   2.451   3.885   2.586  0.0358 -0.3457 -0.2596
    1SOL    HW2 6358   2.520   3.936   2.629  0.0124  0.1874 -0.8441
    1SOL    HW3 6359   2.370   3.916   2.625  0.0451 -0.1640 -0.3846
    1SOL    MW4 6360   2.450   3.895   2.597  0.0339 -0.2513 -0.3531
    1SOL     OW 6361   2.227   3.979   2.705  0.2471 -0.1369 -0.0839
    1SOL    HW2 6362   2.220   3.993   2.799  0.1183  0.9364 -0.2410
    1SOL    HW3 6363   2.140   3.950   2.678 -0.4818  2.1481 -0.2767
    1SOL    MW4 6364   2.215   3.977   2.714  0.1338  0.3059 -0.1299
    1SOL     OW 6365   2.269   4.240   2.596 -0.5014  0.0029  0.0060
    1SOL    HW2 6366   2.284   4.159   2.645 -2.6519 -1.8589 -2.2507
    1SOL    HW3 6367   2.188   4.276   2.633 -0.2866  0.3854  0.1009
    1SOL    MW4 6368   2.260   4.234   2.607 -0.7567 -0.1926 -0.2789
    1SOL     OW 6369   2.439   4.416   2.745  0.9717 -0.0091  0.0186
    1SOL    HW2 6370   2.378   4.355   2.703 -1.6110  1.9558  0.7934
    1SOL    HW3 6371   2.431   4.497   2.694  0.2716  1.3518  2.2299
    1SOL    MW4 6372   2.430   4.418   2.733  0.5383  0.4296  0.4127
    1SOL     OW 6373   2.876   4.648   2.608 -0.4193 -0.3700 -0.0653
    1SOL    HW2 6374   2.958   4.687   2.638 -0.5137  0.6641 -1.0849
    1SOL    HW3 6375   2.881   4.653   2.512 -1.3805 -0.9099 -0.1520
    1SOL    MW4 6376   2.887   4.654   2.599 -0.5586 -0.3052 -0.2115
    1SOL     OW 6377   2.654   0.111   2.694 -0.1438 -0.0148  0.5958
    1SOL    HW2 6378   2.665   0.118   2.789 -0.0732  0.8635  0.5271
    1SOL    HW3 6379   2.734   0.066   2.664  0.2945  0.5902  0.8413
    1SOL    MW4 6380   2.666   0.106   2.703 -0.0768  0.1809  0.6192
    1SOL     OW 6381   2.682   0.359   2.584 -0.1253  0.2686 -0.1630
    1SOL    HW2 6382   2.665   0.270   2.617 -0.1759  0.4963  0.4461
    1SOL    HW3 6383   2.621   0.414   2.633  1.3687  0.9199  1.0500
    1SOL    MW4 6384   2.672   0.354   2.595  0.0653  0.3846  0.0772
    1SOL     OW 6385   2.878   0.497   2.747 -0.3931 -0.4964 -0.2157
    1SOL    HW2 6386   2.885   0.583   2.706  1.0992 -0.6818 -0.3477
    1SOL    HW3 6387   2.803   0.455   2.703 -0.4570  0.3126 -0.8866
    1SOL    MW4 6388   2.869   0.503   2.736 -0.2046 -0.4141 -0.3214
    1SOL     OW 6389   2.920   0.748   2.628  0.0100 -0.3851 -0.1854
    1SOL    HW2 6390   3.002   0.774   2.670  0.0714 -1.4272  0.3714
    1SOL    HW3 6391   2.854   0.808   2.663  0.1671 -0.8679  0.9713
    1SOL    MW4 6392   2.922   0.759   2.638  0.0389 -0.5863  0.0408
    1SOL     OW 6393   2.692   0.873   2.721 -0.3160  0.1087  0.2902
    1SOL    HW2 6394   2.682   0.887   2.815 -0.0745  0.7298  0.2293
    1SOL    HW3 6395   2.614   0.824   2.696 -0.4635  0.0802  0.7875
    1SOL    MW4 6396   2.681   0.868   2.730 -0.3037  0.1869  0.3479
    1SOL     OW 6397   2.680   1.119   2.604  0.2228  0.2962  0.2453
    1SOL    HW2 6398   2.756   1.168   2.636 -0.7090  1.3074  0.9768
    1SOL    HW3 6399   2.699   1.028   2.627  1.3634  0.4849  0.1041
    1SOL    MW4 6400   2.693   1.114   2.612  0.2501  0.4545  0.3231
    1SOL     OW 6401   2.890   1.252   2.716 -0.4359 -0.3670  0.1317
    1SOL    HW2 6402   2.883   1.263   2.811  0.8521 -0.1454  0.2040
    1SOL    HW3 6403   2.970   1.201   2.704 -1.9492 -2.6641 -0.6887
    1SOL    MW4 6404   2.900   1.246   2.727 -0.4656 -0.6410  0.0331
    1SOL     OW 6405   2.925   1.497   2.590 -0.1175  0.2025 -0.2407
    1SOL    HW2 6406   2.855   1.555   2.620 -0.5980  0.6433 -2.1031
    1SOL    HW3 6407   2.909   1.414   2.636 -0.6661  0.9137  0.8694
    1SOL    MW4 6408   2.913   1.493   2.600 -0.2532  0.3545 -0.3397
    1SOL     OW 6409   2.701   1.627   2.718 -0.3741  0.4933  0.3967
    1SOL    HW2 6410   2.706   1.643   2.812 -1.0173  0.2123  0.4826
    1SOL    HW3 6411   2.689   1.714   2.680  0.9070  0.7154  0.4923
    1SOL    MW4 6412   2.700   1.641   2.725 -0.2902  0.4855  0.4206
    1SOL     OW 6413   2.657   1.893   2.625 -0.1523  0.4141 -0.4370
    1SOL    HW2 6414   2.738   1.942   2.634  0.7108 -0.6723 -2.0323
    1SOL    HW3 6415   2.595   1.938   2.683  1.7944  0.7432  1.4806
    1SOL    MW4 6416   2.659   1.905   2.634  0.2186  0.3140 -0.3946
    1SOL     OW 6417   2.891   2.059   2.688  0.2909  0.3042  0.2534
    1SOL    HW2 6418   2.975   2.014   2.673  0.6744  0.9707  0.4051
    1SOL    HW3 6419   2.904   2.146   2.652 -0.1831  0.5638  0.7149
    1SOL    MW4 6420   2.904   2.064   2.681  0.2792  0.4263  0.3345
    1SOL     OW 6421   2.889   2.327   2.598 -0.1504 -0.1208  0.0249
    1SOL    HW2 6422   2.957   2.386   2.632  0.0065 -0.3273  0.0683
    1SOL    HW3 6423   2.809   2.358   2.639  0.2389 -1.1968  1.6391
    1SOL    MW4 6424   2.888   2.339   2.608 -0.0782 -0.2902  0.2434
    1SOL     OW 6425   2.681   2.429   2.723 -0.0298 -0.2409 -0.1909
    1SOL    HW2 6426   2.704   2.422   2.815 -0.0516 -0.8085 -0.2285
    1SOL    HW3 6427   2.688   2.523   2.703  1.1303 -0.2634  0.0820
    1SOL    MW4 6428   2.685   2.441   2.732  0.1204 -0.3188 -0.1600
    1SOL     OW 6429   2.683   2.688   2.650  0.4625 -0.4791 -0.4999
    1SOL    HW2 6430   2.768   2.731   2.658  0.0218  0.4778 -0.8867
    1SOL    HW3 6431   2.669   2.679   2.556  0.0018 -0.3686 -0.4428
    1SOL    MW4 6432   2.692   2.692   2.639  0.3436 -0.3383 -0.5436
    1SOL     OW 6433   2.916   2.835   2.673 -0.2581  0.3894  0.5080
    1SOL    HW2 6434   2.996   2.802   2.633 -1.0999 -0.4001 -0.5403
    1SOL    HW3 6435   2.931   2.825   2.767  0.5464 -0.5251  0.2891
    1SOL    MW4 6436   2.928   2.829   2.680 -0.2627  0.1647  0.3407
    1SOL     OW 6437   2.944   3.105   2.623  0.6749  0.0310  0.0344
    1SOL    HW2 6438   2.861   3.145   2.646 -0.6740 -1.1857 -2.4666
    1SOL    HW3 6439   2.934   3.013   2.649  0.6159 -0.4625 -1.6800
    1SOL    MW4 6440   2.932   3.098   2.629  0.4892 -0.1945 -0.5219
    1SOL     OW 6441   2.688   3.196   2.721  0.1750  0.0617  0.0343
    1SOL    HW2 6442   2.688   3.287   2.689 -1.4953  0.6155  1.5363
    1SOL    HW3 6443   2.615   3.155   2.676 -0.5178  0.1180  1.0819
    1SOL    MW4 6444   2.678   3.203   2.711 -0.1366  0.1421  0.3707
    1SOL     OW 6445   2.685   3.452   2.643 -0.3705 -0.5086 -0.3014
    1SOL    HW2 6446   2.620   3.518   2.665  1.4732  1.1709  0.1880
    1SOL    HW3 6447   2.699   3.463   2.549  0.4408  0.2849 -0.0953
    1SOL    MW4 6448   2.678   3.462   2.633 -0.0200 -0.1822 -0.2093
    1SOL     OW 6449   2.882   3.627   2.719  0.2190 -0.1391 -0.2261
    1SOL    HW2 6450   2.897   3.640   2.813  2.3233 -0.7706 -0.4466
    1SOL    HW3 6451   2.801   3.576   2.714 -0.8458  1.3895  1.1630
    1SOL    MW4 6452   2.873   3.622   2.731  0.3564 -0.0205 -0.0722
    1SOL     OW 6453   2.897   3.898   2.635  0.1147  0.3148  0.0113
    1SOL    HW2 6454   2.977   3.912   2.686  0.0085 -0.2352  0.3259
    1SOL    HW3 6455   2.875   3.806   2.649 -0.4227  0.3970 -0.2922
    1SOL    MW4 6456   2.905   3.888   2.644  0.0298  0.2532  0.0129
    1SOL     OW 6457   2.667   4.010   2.706  0.4240  0.3602  0.6101
    1SOL    HW2 6458   2.673   4.103   2.684 -1.6781  0.3271 -0.2250
    1SOL    HW3 6459   2.745   3.971   2.667  1.2894  1.7554  0.9090
    1SOL    MW4 6460   2.678   4.017   2.698  0.2608  0.5403  0.5393
    1SOL     OW 6461   2.653   4.278   2.624 -0.0738  0.1299 -0.2092
    1SOL    HW2 6462   2.735   4.326   2.629  0.1362 -0.0911 -1.2648
    1SOL    HW3 6463   2.590   4.332   2.671  0.6411  0.3769  0.4700
    1SOL    MW4 6464   2.655   4.291   2.631  0.0482  0.1326 -0.2589
    1SOL     OW 6465   2.909   4.376   2.700  0.0892 -0.0603  0.5120
    1SOL    HW2 6466   2.907   4.383   2.796  1.6403 -1.3938  0.6561
    1SOL    HW3 6467   2.898   4.466   2.669 -0.8108  0.3361  1.9308
    1SOL    MW4 6468   2.907   4.389   2.709  0.1752 -0.1841  0.7179
    1SOL     OW 6469   3.374   0.003   2.643  0.1760 -0.4161  0.2214
    1SOL    HW2 6470   3.370  -0.086   2.678  1.0917 -0.7143 -0.4263
    1SOL    HW3 6471   3.283   0.034   2.646 -0.0245 -1.0726  1.1980
    1SOL    MW4 6472   3.361  -0.004   2.648  0.2704 -0.5417  0.2649
    1SOL     OW 6473   3.124   0.091   2.712 -0.4500 -0.9384 -0.1425
    1SOL    HW2 6474   3.148   0.063   2.800 -0.9994  0.4403  0.4673
    1SOL    HW3 6475   3.138   0.186   2.712  0.8501 -1.1007 -1.9624
    1SOL    MW4 6476   3.129   0.100   2.723 -0.3507 -0.7779 -0.3021
    1SOL     OW 6477   3.121   0.378   2.693  0.1717  0.1721  0.1711
    1SOL    HW2 6478   3.041   0.417   2.728 -0.8865 -1.8832  0.1249
    1SOL    HW3 6479   3.108   0.378   2.598  0.8096  1.0432  0.0795
    1SOL    MW4 6480   3.109   0.383   2.685  0.1163  0.0159  0.1531
    1SOL     OW 6481   3.382   0.449   2.746 -0.1344 -0.1928  0.0358
    1SOL    HW2 6482   3.377   0.544   2.738  0.3537 -0.1077  0.6603
    1SOL    HW3 6483   3.298   0.417   2.711  0.6695  0.3043 -2.4094
    1SOL    MW4 6484   3.370   0.457   2.741  0.0360 -0.1160 -0.2043
    1SOL     OW 6485   3.355   0.732   2.670 -0.5305  0.0348 -0.9110
    1SOL    HW2 6486   3.434   0.773   2.703 -0.2603 -1.5901  0.5012
    1SOL    HW3 6487   3.367   0.729   2.575  1.0865 -0.1546 -0.7090
    1SOL    MW4 6488   3.367   0.737   2.662 -0.2818 -0.2044 -0.6979
    1SOL     OW 6489   3.138   0.869   2.767 -0.0485  0.0204  0.0836
    1SOL    HW2 6490   3.151   0.879   2.861  0.3573 -2.1913  0.2831
    1SOL    HW3 6491   3.212   0.815   2.738 -0.5380  0.1090 -1.3844
    1SOL    MW4 6492   3.150   0.863   2.776 -0.0598 -0.2598 -0.0837
    1SOL     OW 6493   3.123   1.128   2.656  0.1600  0.2531  0.4874
    1SOL    HW2 6494   3.122   1.037   2.688 -0.2460 -0.1714 -0.7139
    1SOL    HW3 6495   3.123   1.120   2.561 -0.2670  1.5291  0.3725
    1SOL    MW4 6496   3.123   1.115   2.648  0.0503  0.3655  0.3135
    1SOL     OW 6497   3.351   1.281   2.725  0.2865 -0.4601  0.3077
    1SOL    HW2 6498   3.351   1.276   2.821  0.0605 -0.4030  0.3104
    1SOL    HW3 6499   3.270   1.237   2.699  0.4200 -0.6073  0.1352
    1SOL    MW4 6500   3.340   1.274   2.734  0.2744 -0.4719  0.2849
    1SOL     OW 6501   3.380   1.546   2.619 -0.4597  0.7716 -0.2138
    1SOL    HW2 6502   3.299   1.592   2.643 -0.9555 -0.4336  0.5030
    1SOL    HW3 6503   3.370   1.460   2.659  0.8946  0.3879 -0.6983
    1SOL    MW4 6504   3.368   1.541   2.628 -0.3462  0.5621 -0.1831
    1SOL     OW 6505   3.133   1.644   2.712 -0.0479 -0.0700  0.6229
    1SOL    HW2 6506   3.059   1.596   2.676  0.4788 -0.8719  0.6141
    1SOL    HW3 6507   3.130   1.626   2.806  0.0621 -0.0013  0.6396
    1SOL    MW4 6508   3.123   1.636   2.720  0.0360 -0.1668  0.6237
    1SOL     OW 6509   3.128   1.922   2.613 -0.1406 -0.2610  0.0211
    1SOL    HW2 6510   3.199   1.968   2.656 -0.4417 -0.5298  0.8253
    1SOL    HW3 6511   3.124   1.837   2.657 -0.8594 -0.3045 -0.1129
    1SOL    MW4 6512   3.137   1.916   2.625 -0.2751 -0.3022  0.1094
    1SOL     OW 6513   3.330   2.047   2.754  0.0503 -0.5366  0.2283
    1SOL    HW2 6514   3.326   2.060   2.849 -0.0803 -1.0716  0.3019
    1SOL    HW3 6515   3.332   2.135   2.717  0.0802 -0.3260  0.7282
    1SOL    MW4 6516   3.330   2.060   2.762  0.0372 -0.5794  0.3040
    1SOL     OW 6517   3.320   2.305   2.637 -0.4394 -0.0368  0.4769
    1SOL    HW2 6518   3.397   2.345   2.678 -1.0547  2.5398 -0.7673
    1SOL    HW3 6519   3.348   2.287   2.548 -1.6306  2.1227 -0.3690
    1SOL    MW4 6520   3.334   2.308   2.631 -0.6778  0.5879  0.2010
    1SOL     OW 6521   3.100   2.469   2.724 -0.5483 -0.3731  0.1073
    1SOL    HW2 6522   3.157   2.405   2.681  1.1416  1.3374 -0.2769
    1SOL    HW3 6523   3.130   2.471   2.815 -0.0202  0.4564 -0.0729
    1SOL    MW4 6524   3.112   2.461   2.730 -0.2556 -0.0379  0.0329
    1SOL     OW 6525   3.147   2.702   2.582 -0.3722 -0.1569  0.0217
    1SOL    HW2 6526   3.220   2.752   2.619  0.5383  0.3041 -2.3230
    1SOL    HW3 6527   3.143   2.624   2.637  1.5683  0.0291  0.5001
    1SOL    MW4 6528   3.156   2.699   2.594  0.0041 -0.0715 -0.2244
    1SOL     OW 6529   3.339   2.875   2.704 -0.5542  0.6510  0.0661
    1SOL    HW2 6530   3.348   2.884   2.799 -0.7945  0.4779  0.1060
    1SOL    HW3 6531   3.417   2.827   2.677 -0.6342  0.4338  0.2179
    1SOL    MW4 6532   3.350   2.870   2.713 -0.5968  0.5994  0.0913
    1SOL     OW 6533   3.342   3.143   2.611 -0.3627 -0.2310 -0.0705
    1SOL    HW2 6534   3.338   3.052   2.641 -0.1997  0.0240  0.7270
    1SOL    HW3 6535   3.352   3.136   2.516  1.4270 -1.0854  0.1501
    1SOL    MW4 6536   3.343   3.130   2.602 -0.1047 -0.3102  0.0637
    1SOL     OW 6537   3.139   3.252   2.756  0.1135  0.1296 -0.6485
    1SOL    HW2 6538   3.207   3.209   2.705  0.6065 -0.5640  0.5622
    1SOL    HW3 6539   3.058   3.209   2.728 -0.0254  1.8442 -3.0278
    1SOL    MW4 6540   3.137   3.240   2.746  0.1605  0.2642 -0.8025
    1SOL     OW 6541   3.108   3.512   2.640 -0.2065  0.0081 -0.3545
    1SOL    HW2 6542   3.113   3.427   2.684  0.7718  0.5801  0.6853
    1SOL    HW3 6543   3.027   3.552   2.673  0.8495  0.7069  1.4878
    1SOL    MW4 6544   3.098   3.506   2.650  0.0620  0.1752  0.0257
    1SOL     OW 6545   3.362   3.610   2.733  0.4306  0.2000 -0.4619
    1SOL    HW2 6546   3.373   3.605   2.828 -0.8748 -0.5822 -0.3348
    1SOL    HW3 6547   3.275   3.573   2.718  0.7462  0.0689 -1.9848
    1SOL    MW4 6548   3.352   3.604   2.744  0.3002  0.0792 -0.6461
    1SOL     OW 6549   3.384   3.905   2.619 -0.0187  0.0009 -0.2595
    1SOL    HW2 6550   3.377   3.811   2.639  0.8835 -0.0276 -0.0693
    1SOL    HW3 6551   3.396   3.909   2.525 -1.2738 -0.0078 -0.4341
    1SOL    MW4 6552   3.385   3.893   2.610 -0.0653 -0.0041 -0.2575
    1SOL     OW 6553   3.129   3.974   2.754 -0.6578  0.4475  0.0811
    1SOL    HW2 6554   3.109   4.059   2.716  0.0028  0.6460  0.1696
    1SOL    HW3 6555   3.217   3.953   2.722 -0.1945  0.5006  1.2858
    1SOL    MW4 6556   3.138   3.982   2.745 -0.5095  0.4807  0.2518
    1SOL     OW 6557   3.138   4.224   2.631  0.4903 -0.3160  0.2429
    1SOL    HW2 6558   3.066   4.271   2.674 -0.7821 -2.0280  0.0599
    1SOL    HW3 6559   3.119   4.232   2.537  1.6985  0.9803  0.0879
    1SOL    MW4 6560   3.126   4.231   2.624  0.4818 -0.3715  0.1981
    1SOL     OW 6561   3.349   4.407   2.709 -0.4233  0.1894 -0.4474
    1SOL    HW2 6562   3.365   4.407   2.804  1.0714 -0.3286 -0.6748
    1SOL    HW3 6563   3.291   4.333   2.694 -0.7571  0.3407  0.0699
    1SOL    MW4 6564   3.344   4.398   2.720 -0.2701  0.1407 -0.4091
    1SOL     OW 6565   3.841   0.008   2.615 -0.3314 -0.1061  0.0802
    1SOL    HW2 6566   3.850  -0.078   2.657  0.4731 -1.2546 -2.3675
    1SOL    HW3 6567   3.762   0.045   2.655 -1.7747 -2.7672 -0.1148
    1SOL    MW4 6568   3.832   0.001   2.626 -0.4156 -0.6084 -0.2685
    1SOL     OW 6569   3.604   0.131   2.711 -0.3490 -0.4488 -0.4510
    1SOL    HW2 6570   3.608   0.217   2.670 -1.5989 -0.7934 -1.3250
    1SOL    HW3 6571   3.521   0.094   2.681 -1.8480 -0.2860  3.2187
    1SOL    MW4 6572   3.593   0.137   2.702 -0.7117 -0.4728 -0.0823
    1SOL     OW 6573   3.601   0.384   2.598  0.2603 -0.1014  0.0394
    1SOL    HW2 6574   3.667   0.430   2.649  1.6149  0.4996 -2.1989
    1SOL    HW3 6575   3.518   0.420   2.629  1.1663  1.8984  0.2336
    1SOL    MW4 6576   3.598   0.395   2.609  0.5586  0.2418 -0.2303
    1SOL     OW 6577   3.801   0.498   2.738 -0.0025  0.3478 -0.0565
    1SOL    HW2 6578   3.808   0.489   2.833 -1.9657 -1.2096 -0.0399
    1SOL    HW3 6579   3.881   0.458   2.705  0.2403  0.0277  0.8961
    1SOL    MW4 6580   3.813   0.491   2.746 -0.2294  0.1000  0.0715
    1SOL     OW 6581   3.824   0.741   2.605 -0.2273  0.0364 -0.3117
    1SOL    HW2 6582   3.757   0.795   2.647  1.0835  0.4944  1.2690
    1SOL    HW3 6583   3.823   0.659   2.653  0.4157  0.0894 -0.2019
    1SOL    MW4 6584   3.815   0.738   2.617  0.0305  0.1038 -0.0887
    1SOL     OW 6585   3.612   0.863   2.737  0.2891  0.6792 -0.3865
    1SOL    HW2 6586   3.632   0.880   2.829  1.3185  0.4286 -0.5529
    1SOL    HW3 6587   3.589   0.949   2.701  0.0201  0.7980  0.0709
    1SOL    MW4 6588   3.612   0.877   2.744  0.3896  0.6618 -0.3483
    1SOL     OW 6589   3.566   1.136   2.658 -0.2251 -0.1973  0.1038
    1SOL    HW2 6590   3.635   1.196   2.686  1.0031 -0.7952 -1.5486
    1SOL    HW3 6591   3.485   1.187   2.666  0.5563  0.9610  0.7556
    1SOL    MW4 6592   3.564   1.151   2.663  0.0403 -0.1234 -0.0284
    1SOL     OW 6593   3.789   1.292   2.747  0.3961 -0.3439  0.5107
    1SOL    HW2 6594   3.853   1.236   2.702  0.1759 -0.2166  0.0435
    1SOL    HW3 6595   3.791   1.374   2.698 -0.8458 -0.6755 -0.1120
    1SOL    MW4 6596   3.798   1.295   2.734  0.2031 -0.3707  0.3672
    1SOL     OW 6597   3.787   1.564   2.649  0.2801  0.3110  0.9249
    1SOL    HW2 6598   3.869   1.583   2.694  0.4760  1.5412  0.0597
    1SOL    HW3 6599   3.722   1.615   2.697  0.2943  0.6820  0.5455
    1SOL    MW4 6600   3.789   1.573   2.662  0.3078  0.5223  0.7606
    1SOL     OW 6601   3.584   1.689   2.790 -0.1621 -0.3426 -0.2440
    1SOL    HW2 6602   3.568   1.763   2.732  0.7044  0.7543  0.8889
    1SOL    HW3 6603   3.519   1.623   2.764 -0.6874  0.6642 -1.5132
    1SOL    MW4 6604   3.573   1.690   2.779 -0.1173 -0.0650 -0.2620
    1SOL     OW 6605   3.562   1.914   2.649  0.0449 -0.3549 -0.0400
    1SOL    HW2 6606   3.485   1.962   2.677  1.2536  0.8067  1.3937
    1SOL    HW3 6607   3.567   1.928   2.555 -1.2922 -0.1546 -0.0851
    1SOL    MW4 6608   3.553   1.922   2.640  0.0277 -0.1754  0.1433
    1SOL     OW 6609   3.772   2.074   2.760 -0.3765  0.2764  0.4271
    1SOL    HW2 6610   3.859   2.035   2.745  0.0135  1.5254 -0.6408
    1SOL    HW3 6611   3.710   2.009   2.726  0.2464  0.3794 -0.9445
    1SOL    MW4 6612   3.776   2.060   2.754 -0.2427  0.4549  0.1054
    1SOL     OW 6613   3.796   2.330   2.671  0.2533 -0.3638 -0.0254
    1SOL    HW2 6614   3.789   2.243   2.709 -0.9860 -0.7375 -1.0673
    1SOL    HW3 6615   3.797   2.315   2.576  1.5791  0.6550 -0.2008
    1SOL    MW4 6616   3.795   2.317   2.663  0.2649 -0.2785 -0.1857
    1SOL     OW 6617   3.551   2.428   2.741  0.1743  0.4491 -0.2886
    1SOL    HW2 6618   3.557   2.424   2.836  0.1707  0.0803 -0.3046
    1SOL    HW3 6619   3.634   2.392   2.710  0.3093  0.8694 -0.4202
    1SOL    MW4 6620   3.563   2.423   2.749  0.1917  0.4561 -0.3083
    1SOL     OW 6621   3.546   2.679   2.647 -0.1615 -0.2127  0.0150
    1SOL    HW2 6622   3.530   2.592   2.683 -0.1365 -0.4947 -0.6325
    1SOL    HW3 6623   3.550   2.665   2.552  0.4292  0.4021 -0.0559
    1SOL    MW4 6624   3.544   2.666   2.639 -0.0801 -0.1690 -0.0796
    1SOL     OW 6625   3.742   2.850   2.738  0.1756  0.4000 -0.1015
    1SOL    HW2 6626   3.821   2.822   2.692  0.0526  0.0359 -0.0923
    1SOL    HW3 6627   3.672   2.796   2.701  0.3651 -1.2359  1.8299
    1SOL    MW4 6628   3.743   2.839   2.727  0.1843  0.1361  0.1545
    1SOL     OW 6629   3.729   3.104   2.621 -0.3935  0.2366 -0.0297
    1SOL    HW2 6630   3.664   3.159   2.664 -1.2486 -0.5535 -0.3019
    1SOL    HW3 6631   3.717   3.017   2.658 -0.1022 -0.1182 -0.7366
    1SOL    MW4 6632   3.719   3.100   2.631 -0.4675  0.0856 -0.1588
    1SOL     OW 6633   3.538   3.285   2.740  0.1576  0.2143 -0.1408
    1SOL    HW2 6634   3.551   3.356   2.677 -0.2835  0.4777  0.0687
    1SOL    HW3 6635   3.465   3.235   2.706  1.4622 -1.0651 -1.1250
    1SOL    MW4 6636   3.530   3.288   2.727  0.2716  0.0801 -0.2429
    1SOL     OW 6637   3.595   3.511   2.602 -0.0571  0.3899  0.2199
    1SOL    HW2 6638   3.673   3.537   2.651 -0.1520  2.7090 -0.8094
    1SOL    HW3 6639   3.524   3.563   2.639 -0.8047 -0.4661  0.0092
    1SOL    MW4 6640   3.596   3.521   2.613 -0.1681  0.5829  0.0565
    1SOL     OW 6641   3.826   3.641   2.732  0.7479  0.1526 -0.1963
    1SOL    HW2 6642   3.895   3.586   2.695  0.6776 -0.2636  0.2886
    1SOL    HW3 6643   3.834   3.724   2.685  0.6152 -0.3915 -1.1866
    1SOL    MW4 6644   3.836   3.644   2.721  0.7210  0.0260 -0.2632
    1SOL     OW 6645   3.839   3.880   2.604  0.2358 -0.4306 -0.3648
    1SOL    HW2 6646   3.915   3.923   2.643  0.0977  0.7132 -1.3123
    1SOL    HW3 6647   3.764   3.934   2.632 -0.0365 -0.5488 -0.8543
    1SOL    MW4 6648   3.839   3.893   2.613  0.1817 -0.2952 -0.5546
    1SOL     OW 6649   3.630   4.030   2.735 -0.2442  0.0787 -0.0589
    1SOL    HW2 6650   3.632   4.125   2.724 -1.2438  0.0814 -0.3278
    1SOL    HW3 6651   3.544   4.004   2.702 -0.3234 -0.8222  0.8157
    1SOL    MW4 6652   3.619   4.039   2.729 -0.3865 -0.0396  0.0207
    1SOL     OW 6653   3.610   4.299   2.652 -0.2847  0.4204 -0.2324
    1SOL    HW2 6654   3.523   4.323   2.683 -0.5529  0.0254 -0.6733
    1SOL    HW3 6655   3.598   4.281   2.559  0.1694 -0.1586 -0.1829
    1SOL    MW4 6656   3.597   4.300   2.644 -0.2601  0.2918 -0.2837
    1SOL     OW 6657   3.866   4.424   2.711  0.2036  0.3559  0.5952
    1SOL    HW2 6658   3.939   4.379   2.668  0.6521  1.1465  0.5179
    1SOL    HW3 6659   3.788   4.387   2.671  0.5946  0.3295 -0.1533
    1SOL    MW4 6660   3.866   4.413   2.700  0.3145  0.4568  0.4864
    1SOL     OW 6661   4.272   4.640   2.639  0.0923  0.0213  0.4176
    1SOL    HW2 6662   4.213   4.698   2.687  0.2732  1.0387 -0.5767
    1SOL    HW3 6663   4.359   4.677   2.653 -0.1991  2.5951 -3.7767
    1SOL    MW4 6664   4.276   4.653   2.647  0.0777  0.4950 -0.2673
    1SOL     OW 6665   4.068   0.146   2.752 -0.2571  0.5350  0.4858
    1SOL    HW2 6666   4.050   0.129   2.845  1.2250  0.3472  0.7605
    1SOL    HW3 6667   4.007   0.090   2.705 -0.0964 -0.4087  1.3675
    1SOL    MW4 6668   4.058   0.137   2.758 -0.0405  0.3857  0.6385
    1SOL     OW 6669   4.048   0.399   2.644  0.1150  0.2545  0.2829
    1SOL    HW2 6670   4.068   0.314   2.683 -1.0439  0.0011  0.3539
    1SOL    HW3 6671   4.069   0.389   2.552  0.3799  0.0293  0.3682
    1SOL    MW4 6672   4.053   0.387   2.637 -0.0029  0.1913  0.3035
    1SOL     OW 6673   4.279   0.504   2.748  0.1319  0.1918  0.0783
    1SOL    HW2 6674   4.201   0.461   2.714 -0.0662  0.5026  0.1417
    1SOL    HW3 6675   4.351   0.466   2.698  0.0148 -0.6448  0.5414
    1SOL    MW4 6676   4.278   0.493   2.737  0.0901  0.1224  0.1478
    1SOL     OW 6677   4.246   0.747   2.628 -0.1039 -0.0004  0.4097
    1SOL    HW2 6678   4.252   0.668   2.681 -0.7407 -0.2248  0.1448
    1SOL    HW3 6679   4.261   0.717   2.539 -2.2164 -0.1143  0.0842
    1SOL    MW4 6680   4.249   0.733   2.624 -0.4663 -0.0449  0.3314
    1SOL     OW 6681   4.026   0.887   2.724 -0.2013 -0.2561  0.1032
    1SOL    HW2 6682   4.103   0.844   2.689  0.4547  0.5604  0.5138
    1SOL    HW3 6683   3.953   0.830   2.701  0.3919 -0.4566 -1.2957
    1SOL    MW4 6684   4.026   0.874   2.717 -0.0362 -0.1749 -0.0272
    1SOL     OW 6685   4.015   1.156   2.650  0.1453  0.0254 -0.1966
    1SOL    HW2 6686   4.097   1.197   2.676 -0.8703  1.8680  0.2073
    1SOL    HW3 6687   4.025   1.064   2.675  1.5231  0.5195  1.1647
    1SOL    MW4 6688   4.027   1.149   2.656  0.1931  0.3338  0.0360
    1SOL     OW 6689   4.239   1.268   2.756  0.1589  0.7872  0.1599
    1SOL    HW2 6690   4.255   1.360   2.735 -0.6667  0.8156 -0.3492
    1SOL    HW3 6691   4.317   1.222   2.722  0.3655  1.2406  0.0219
    1SOL    MW4 6692   4.251   1.274   2.749  0.0772  0.8507  0.0746
    1SOL     OW 6693   4.262   1.550   2.682 -0.5558 -0.2084 -0.1603
    1SOL    HW2 6694   4.351   1.574   2.707 -0.0716 -1.4843 -0.6099
    1SOL    HW3 6695   4.262   1.550   2.587 -1.1430  0.1665 -0.1620
    1SOL    MW4 6696   4.274   1.553   2.673 -0.5693 -0.3272 -0.2198
    1SOL     OW 6697   4.008   1.648   2.790 -0.1576 -0.2422 -0.0521
    1SOL    HW2 6698   4.021   1.667   2.882 -0.2961 -0.8514  0.0963
    1SOL    HW3 6699   4.097   1.640   2.755 -0.0932  0.8645 -0.1659
    1SOL    MW4 6700   4.022   1.649   2.797 -0.1674 -0.1767 -0.0474
    1SOL     OW 6701   4.003   1.938   2.681 -0.0428 -0.3128  0.0284
    1SOL    HW2 6702   4.090   1.976   2.695  0.0051 -0.8942  1.3747
    1SOL    HW3 6703   4.008   1.851   2.720 -1.2045 -0.3888  0.0406
    1SOL    MW4 6704   4.015   1.931   2.688 -0.1898 -0.3996  0.2074
    1SOL     OW 6705   4.251   2.056   2.750 -0.6929  0.0308  0.0097
    1SOL    HW2 6706   4.239   2.144   2.713  0.8043  0.8645  1.4390
    1SOL    HW3 6707   4.339   2.030   2.722 -1.6311 -1.6260 -1.5507
    1SOL    MW4 6708   4.261   2.065   2.741 -0.6189 -0.0782 -0.0076
    1SOL     OW 6709   4.204   2.325   2.653 -0.1904  0.0765  0.0725
    1SOL    HW2 6710   4.121   2.365   2.677 -0.5675 -0.0065 -1.0733
    1SOL    HW3 6711   4.214   2.343   2.560  1.6216  1.0713  0.4388
    1SOL    MW4 6712   4.194   2.332   2.644 -0.0014  0.1967 -0.0303
    1SOL     OW 6713   4.005   2.485   2.758  0.0155 -0.2479 -0.4120
    1SOL    HW2 6714   4.029   2.485   2.851 -0.3571  0.0880 -0.3116
    1SOL    HW3 6715   3.921   2.440   2.756  1.3880 -2.8587 -0.9639
    1SOL    MW4 6716   3.997   2.479   2.770  0.1476 -0.5479 -0.4714
    1SOL     OW 6717   3.985   2.751   2.634  0.1206 -0.2560  0.2970
    1SOL    HW2 6718   4.068   2.791   2.659  0.5369 -1.4261  0.8470
    1SOL    HW3 6719   3.989   2.663   2.671 -1.8431  0.0530  1.2966
    1SOL    MW4 6720   3.996   2.745   2.642 -0.0834 -0.3695  0.5016
    1SOL     OW 6721   4.254   2.849   2.716  0.6559 -0.1764 -0.2144
    1SOL    HW2 6722   4.251   2.835   2.811  1.6958 -0.7174 -0.2496
    1SOL    HW3 6723   4.255   2.944   2.706 -1.7694 -0.0791  0.2223
    1SOL    MW4 6724   4.254   2.860   2.727  0.4725 -0.2351 -0.1614
    1SOL     OW 6725   4.249   3.134   2.688  0.2363  0.1978 -0.0766
    1SOL    HW2 6726   4.158   3.153   2.711  0.4027  0.0199  0.7734
    1SOL    HW3 6727   4.251   3.135   2.593 -0.7563 -0.2403 -0.1084
    1SOL    MW4 6728   4.238   3.137   2.679  0.1273  0.1166  0.0312
    1SOL     OW 6729   3.982   3.222   2.738 -0.1364  0.1866  0.5058
    1SOL    HW2 6730   3.998   3.309   2.702 -0.6084 -0.7000 -1.9762
    1SOL    HW3 6731   3.903   3.192   2.692 -1.0443 -0.8253  2.6647
    1SOL    MW4 6732   3.973   3.229   2.727 -0.3185 -0.0639  0.4635
    1SOL     OW 6733   4.032   3.478   2.617  0.1203 -0.0361 -0.0938
    1SOL    HW2 6734   4.108   3.526   2.651 -0.8460  0.9953  0.6274
    1SOL    HW3 6735   4.040   3.484   2.522  0.5665  0.6712 -0.0148
    1SOL    MW4 6736   4.043   3.485   2.609  0.0515  0.1934  0.0119
    1SOL     OW 6737   4.257   3.628   2.724  0.1795 -0.0531 -0.7548
    1SOL    HW2 6738   4.257   3.607   2.817 -0.1188  1.6971 -0.3511
    1SOL    HW3 6739   4.329   3.575   2.688  0.4941 -0.5110  0.5102
    1SOL    MW4 6740   4.267   3.618   2.731  0.1812  0.1175 -0.5345
    1SOL     OW 6741   4.293   3.875   2.629  0.2453 -0.0729  0.3201
    1SOL    HW2 6742   4.303   3.791   2.673  2.1978 -0.9084 -1.6048
    1SOL    HW3 6743   4.365   3.928   2.663  0.4677 -0.0053 -0.2508
    1SOL    MW4 6744   4.304   3.871   2.639  0.5317 -0.1745 -0.0093
    1SOL     OW 6745   4.048   4.007   2.737 -0.3140 -0.3526 -0.1042
    1SOL    HW2 6746   4.039   4.007   2.832 -0.3482 -2.4266 -0.0801
    1SOL    HW3 6747   4.139   3.983   2.721 -0.5246 -0.8161 -0.6119
    1SOL    MW4 6748   4.059   4.004   2.748 -0.3462 -0.6876 -0.1681
    1SOL     OW 6749   4.077   4.267   2.617  0.4331 -0.1868  0.3711
    1SOL    HW2 6750   4.055   4.177   2.641  1.0509 -0.7431 -1.1029
    1SOL    HW3 6751   4.076   4.268   2.522 -0.5288  1.6199  0.3795
    1SOL    MW4 6752   4.074   4.255   2.608  0.3877 -0.0215  0.1776
    1SOL     OW 6753   4.305   4.386   2.754  0.1479 -0.3377 -0.3441
    1SOL    HW2 6754   4.246   4.330   2.703 -1.1981  0.4855  0.2758
    1SOL    HW3 6755   4.302   4.471   2.710  0.4792 -0.1515 -0.0103
    1SOL    MW4 6756   4.297   4.390   2.742  0.0143 -0.2050 -0.2184
    1SOL     OW 6757   0.257   4.649   3.086  0.1706 -0.5711 -0.2477
    1SOL    HW2 6758   0.241   4.637   3.180  0.8749  0.4537  0.0096
    1SOL    HW3 6759   0.183   4.700   3.055  0.4300 -0.0836 -0.0579
    1SOL    MW4 6760   0.245   4.654   3.094  0.2978 -0.3715 -0.1886
    1SOL     OW 6761   0.031   0.124   3.002  0.0150 -0.0442  0.1142
    1SOL    HW2 6762  -0.049   0.076   3.025  0.5314 -1.0835 -0.2434
    1SOL    HW3 6763   0.020   0.209   3.043 -1.2094 -0.2408  0.2111
    1SOL    MW4 6764   0.019   0.129   3.010 -0.0784 -0.2073  0.0799
    1SOL     OW 6765   0.018   0.386   3.115 -0.0400  0.2993  0.0164
    1SOL    HW2 6766   0.041   0.372   3.206  0.6598  2.2645  0.1543
    1SOL    HW3 6767  -0.055   0.447   3.117 -0.4851 -0.1945 -0.7172
    1SOL    MW4 6768   0.012   0.392   3.127 -0.0063  0.4934 -0.0620
    1SOL     OW 6769   0.238   0.477   2.968 -0.0229  0.2795  0.1202
    1SOL    HW2 6770   0.315   0.441   3.011  0.6670  2.1621  0.5140
    1SOL    HW3 6771   0.164   0.434   3.011  0.7872 -1.1064  0.1347
    1SOL    MW4 6772   0.238   0.467   2.979  0.1750  0.3450  0.1740
    1SOL     OW 6773   0.235   0.743   3.077 -0.0702  0.2722 -0.3660
    1SOL    HW2 6774   0.211   0.742   3.170 -0.4586  0.4369 -0.4644
    1SOL    HW3 6775   0.229   0.651   3.051 -0.0787  0.2412 -0.2582
    1SOL    MW4 6776   0.231   0.730   3.086 -0.1225  0.2899 -0.3648
    1SOL     OW 6777   0.021   0.919   2.997  0.0124  0.6632  0.0105
    1SOL    HW2 6778   0.096   0.862   3.015 -0.0431  0.4118 -0.5550
    1SOL    HW3 6779  -0.005   0.897   2.908 -1.3258  0.0702  0.5232
    1SOL    MW4 6780   0.028   0.908   2.988 -0.1715  0.5518  0.0033
    1SOL     OW 6781   0.045   1.164   3.109 -0.3522 -0.4113 -0.3833
    1SOL    HW2 6782  -0.022   1.225   3.075 -1.3829 -0.2736  1.8035
    1SOL    HW3 6783   0.024   1.080   3.069 -0.7914  0.0122 -1.0468
    1SOL    MW4 6784   0.033   1.161   3.099 -0.5461 -0.3372 -0.1822
    1SOL     OW 6785   0.258   1.302   2.978  0.2943  0.3933  0.5113
    1SOL    HW2 6786   0.195   1.252   3.030  0.1065 -0.5593 -0.6053
    1SOL    HW3 6787   0.223   1.300   2.889  1.3110  0.8346  0.0910
    1SOL    MW4 6788   0.245   1.295   2.973  0.4036  0.3258  0.3083
    1SOL     OW 6789   0.240   1.541   3.125  0.3535  0.3675 -0.0357
    1SOL    HW2 6790   0.156   1.578   3.097 -0.2442 -1.7649 -1.2318
    1SOL    HW3 6791   0.242   1.455   3.083  1.4982 -1.0887  2.9127
    1SOL    MW4 6792   0.229   1.534   3.115  0.4257 -0.1059  0.1953
    1SOL     OW 6793   0.001   1.661   3.052  0.4713  0.7193 -0.1656
    1SOL    HW2 6794  -0.063   1.608   3.099  1.9644  0.9736  2.2704
    1SOL    HW3 6795  -0.012   1.750   3.086  1.4984  0.9413 -0.3240
    1SOL    MW4 6796  -0.009   1.666   3.063  0.8049  0.7821  0.1352
    1SOL     OW 6797   4.435   1.925   3.126  0.5413  0.0604  0.5767
    1SOL    HW2 6798   4.356   1.964   3.089  0.5834 -0.8318 -0.5069
    1SOL    HW3 6799   4.506   1.981   3.095  0.5355 -0.4363 -0.3560
    1SOL    MW4 6800   4.434   1.937   3.117  0.5465 -0.1229  0.3107
    1SOL     OW 6801   0.186   2.034   3.040  0.5224 -0.0934 -0.2225
    1SOL    HW2 6802   0.207   2.126   3.056 -0.5429  0.0348  0.4840
    1SOL    HW3 6803   0.199   2.023   2.946 -3.2535  1.8412 -1.1015
    1SOL    MW4 6804   0.190   2.045   3.030 -0.1163  0.1791 -0.2453
    1SOL     OW 6805   0.207   2.317   3.093 -0.0026  0.2777 -0.3734
    1SOL    HW2 6806   0.223   2.332   3.186 -0.3731 -0.6492 -0.1622
    1SOL    HW3 6807   0.284   2.354   3.050  1.0289 -0.9034  0.4174
    1SOL    MW4 6808   0.220   2.324   3.099  0.0846 -0.0005 -0.2410
    1SOL     OW 6809   0.006   2.464   2.999 -0.1397  0.2888  0.1637
    1SOL    HW2 6810   0.027   2.547   3.042 -0.3547  0.4089  0.0372
    1SOL    HW3 6811   0.074   2.404   3.028 -0.1500  0.4324  0.4872
    1SOL    MW4 6812   0.017   2.467   3.008 -0.1694  0.3238  0.1898
    1SOL     OW 6813   4.489   2.732   3.110 -0.3071 -0.0389  0.3704
    1SOL    HW2 6814   4.489   2.732   3.206  0.1824 -0.2782  0.3727
    1SOL    HW3 6815   4.573   2.772   3.086  0.4936 -1.8254  0.0626
    1SOL    MW4 6816   4.500   2.737   3.120 -0.1369 -0.3066  0.3302
    1SOL     OW 6817   0.237   2.861   3.029  0.6748  0.0356 -0.2354
    1SOL    HW2 6818   0.320   2.820   3.056 -0.1925 -2.0149 -0.5505
    1SOL    HW3 6819   0.227   2.838   2.937 -0.4032 -0.0540 -0.1107
    1SOL    MW4 6820   0.246   2.852   3.021  0.4181 -0.2468 -0.2604
    1SOL     OW 6821   0.229   3.127   3.147 -0.3087 -0.3245 -0.5133
    1SOL    HW2 6822   0.148   3.168   3.116 -0.6200  0.1896  0.9234
    1SOL    HW3 6823   0.229   3.040   3.107 -1.9769 -0.6243  0.0959
    1SOL    MW4 6824   0.218   3.121   3.138 -0.5699 -0.2964 -0.2434
    1SOL     OW 6825   4.472   3.247   3.058 -0.1748  0.1636  0.0816
    1SOL    HW2 6826   4.389   3.208   3.085 -0.5918  1.2918  0.4946
    1SOL    HW3 6827   4.479   3.226   2.965  0.1840 -1.8495  0.5505
    1SOL    MW4 6828   4.462   3.239   3.049 -0.1817  0.0470  0.1976
    1SOL     OW 6829   4.482   3.506   3.136  0.1536  0.2392 -0.1131
    1SOL    HW2 6830   4.410   3.542   3.085 -0.8232 -0.4730  0.7414
    1SOL    HW3 6831   4.485   3.413   3.112  0.2529  0.0887  0.4692
    1SOL    MW4 6832   4.473   3.498   3.126  0.0377  0.1254  0.0765
    1SOL     OW 6833   0.222   3.612   3.023 -0.1661 -0.1960 -0.2719
    1SOL    HW2 6834   0.223   3.703   3.051  0.7281 -0.5405  0.8755
    1SOL    HW3 6835   0.151   3.572   3.074  0.1215 -0.3664 -0.0002
    1SOL    MW4 6836   0.213   3.619   3.033 -0.0102 -0.2639 -0.0846
    1SOL     OW 6837   0.226   3.875   3.110  0.3210 -0.5344 -0.2330
    1SOL    HW2 6838   0.240   3.876   3.204  0.3082 -1.8068 -0.2064
    1SOL    HW3 6839   0.304   3.916   3.073  0.6291 -0.6428  0.3019
    1SOL    MW4 6840   0.238   3.880   3.117  0.3600 -0.7164 -0.1588
    1SOL     OW 6841   0.005   4.019   3.011 -0.1014  0.3486  0.3365
    1SOL    HW2 6842   0.075   3.965   3.049 -1.8966 -2.4320 -0.2058
    1SOL    HW3 6843   0.022   4.018   2.917  0.0643  1.0623  0.3547
    1SOL    MW4 6844   0.016   4.012   3.004 -0.3166  0.0758  0.2673
    1SOL     OW 6845   0.015   4.273   3.109  0.1368 -0.4794 -0.0893
    1SOL    HW2 6846   0.019   4.272   3.205  2.4280 -0.5353 -0.1417
    1SOL    HW3 6847   0.019   4.181   3.084  0.4212 -0.4235 -0.2532
    1SOL    MW4 6848   0.016   4.261   3.118  0.4768 -0.4787 -0.1180
    1SOL     OW 6849   0.233   4.383   2.975  0.3833  0.6016 -0.1530
    1SOL    HW2 6850   0.152   4.345   3.008  1.1743  1.2464  2.6381
    1SOL    HW3 6851   0.226   4.476   2.994  0.9767  0.9663 -1.6206
    1SOL    MW4 6852   0.222   4.390   2.982  0.5660  0.7353  0.0217
    1SOL     OW 6853   0.686   4.658   3.123  0.1940  0.9682  0.2154
    1SOL    HW2 6854   0.679   4.563   3.111  0.9631  0.8839  0.3621
    1SOL    HW3 6855   0.613   4.695   3.074 -1.6428  0.1508  2.2628
    1SOL    MW4 6856   0.676   4.650   3.115  0.0532  0.8492  0.5050
    1SOL     OW 6857   0.489   0.099   2.964  0.4288  0.3607  0.1782
    1SOL    HW2 6858   0.490   0.192   2.984  1.3017 -0.2697  3.4332
    1SOL    HW3 6859   0.414   0.065   3.013  0.4420 -0.7300 -0.5481
    1SOL    MW4 6860   0.479   0.107   2.973  0.5457  0.1336  0.5119
    1SOL     OW 6861   0.496   0.373   3.064  0.2545  0.2237  0.0482
    1SOL    HW2 6862   0.502   0.369   3.159  0.9374 -1.3521 -0.0376
    1SOL    HW3 6863   0.568   0.431   3.038  0.9543 -0.4594  0.4235
    1SOL    MW4 6864   0.506   0.380   3.073  0.4369 -0.0743  0.0863
    1SOL     OW 6865   0.695   0.549   2.968 -0.1574 -0.0124  0.2550
    1SOL    HW2 6866   0.762   0.509   3.023 -0.9231 -0.3709  0.9514
    1SOL    HW3 6867   0.687   0.639   3.001 -0.6440 -0.2392  0.7659
    1SOL    MW4 6868   0.703   0.556   2.980 -0.3226 -0.0896  0.4141
    1SOL     OW 6869   0.692   0.795   3.123  0.7293  0.1571 -0.1054
    1SOL    HW2 6870   0.709   0.779   3.216 -0.2607  1.6532  0.3551
    1SOL    HW3 6871   0.777   0.822   3.087  1.7095 -2.8835 -0.2322
    1SOL    MW4 6872   0.706   0.797   3.130  0.7280 -0.0467 -0.0613
    1SOL     OW 6873   0.451   0.907   3.033 -0.5586  0.1375  0.0303
    1SOL    HW2 6874   0.375   0.859   3.065  0.4964 -1.6113 -0.0278
    1SOL    HW3 6875   0.526   0.864   3.075  0.3948  1.8512  0.1064
    1SOL    MW4 6876   0.451   0.895   3.043 -0.2936  0.1329  0.0327
    1SOL     OW 6877   0.475   1.180   3.111 -0.2151  0.4728  0.2182
    1SOL    HW2 6878   0.471   1.086   3.097  0.2788  0.4504  0.2479
    1SOL    HW3 6879   0.411   1.216   3.048  0.3046  0.1968 -0.4733
    1SOL    MW4 6880   0.466   1.173   3.101 -0.0814  0.4334  0.1311
    1SOL     OW 6881   0.686   1.287   2.996 -0.8485  0.0303 -0.1575
    1SOL    HW2 6882   0.766   1.245   3.030 -1.5853 -2.7493 -1.6620
    1SOL    HW3 6883   0.617   1.258   3.056 -0.9580  1.3623  0.3746
    1SOL    MW4 6884   0.688   1.277   3.009 -0.9601 -0.1607 -0.2856
    1SOL     OW 6885   0.684   1.540   3.106 -0.3312 -0.4758  0.1274
    1SOL    HW2 6886   0.675   1.523   3.200  0.6559 -0.4559  0.2281
    1SOL    HW3 6887   0.677   1.453   3.065 -2.8468 -0.2716  0.0371
    1SOL    MW4 6888   0.682   1.526   3.113 -0.5329 -0.4463  0.1290
    1SOL     OW 6889   0.462   1.654   3.004  0.6521 -0.3172 -0.5108
    1SOL    HW2 6890   0.542   1.604   3.024  0.6664  0.0099  0.2587
    1SOL    HW3 6891   0.392   1.604   3.046  0.6196  0.0942 -0.0696
    1SOL    MW4 6892   0.463   1.641   3.012  0.6497 -0.2198 -0.3510
    1SOL     OW 6893   0.436   1.912   3.074  0.1034 -0.2761 -0.1084
    1SOL    HW2 6894   0.441   1.822   3.041 -0.6117 -0.2298 -0.3374
    1SOL    HW3 6895   0.343   1.934   3.072  0.1448  0.0712  1.0144
    1SOL    MW4 6896   0.424   1.903   3.070  0.0145 -0.2241  0.0095
    1SOL     OW 6897   0.627   2.078   2.954 -0.2334  0.2178 -0.4730
    1SOL    HW2 6898   0.708   2.050   2.996 -0.0631 -0.2044 -1.0842
    1SOL    HW3 6899   0.563   2.011   2.978 -0.3527  0.4425 -0.1604
    1SOL    MW4 6900   0.629   2.065   2.962 -0.2267  0.1917 -0.5126
    1SOL     OW 6901   0.654   2.324   3.078  0.3580  0.4910 -0.5499
    1SOL    HW2 6902   0.650   2.320   3.174  1.2053  0.8252 -0.4992
    1SOL    HW3 6903   0.640   2.234   3.050  0.1944  0.3757 -0.1097
    1SOL    MW4 6904   0.651   2.312   3.087  0.4482  0.5200 -0.4852
    1SOL     OW 6905   0.413   2.449   2.999 -0.6068 -0.1716  0.4645
    1SOL    HW2 6906   0.491   2.404   3.030  0.3816  0.3380 -1.2308
    1SOL    HW3 6907   0.425   2.456   2.905 -2.2007  0.8817  0.3164
    1SOL    MW4 6908   0.425   2.444   2.991 -0.6867  0.0346  0.2213
    1SOL     OW 6909   0.452   2.700   3.102 -0.5487 -0.0803 -0.7853
    1SOL    HW2 6910   0.526   2.732   3.049  0.3066 -1.5607 -0.5072
    1SOL    HW3 6911   0.431   2.615   3.064  0.3665 -1.3838  1.5116
    1SOL    MW4 6912   0.459   2.693   3.090 -0.3151 -0.4475 -0.4456
    1SOL     OW 6913   0.661   2.818   2.963 -0.0140 -0.5978  0.2586
    1SOL    HW2 6914   0.750   2.793   2.989  0.1943  0.0014  0.1159
    1SOL    HW3 6915   0.654   2.910   2.987  0.0541 -0.1200 -1.4884
    1SOL    MW4 6916   0.672   2.827   2.970  0.0225 -0.4556  0.0093
    1SOL     OW 6917   0.633   3.081   3.090  0.4723  0.0392  0.1917
    1SOL    HW2 6918   0.636   3.095   3.185  2.0393  1.2227 -0.0027
    1SOL    HW3 6919   0.570   3.146   3.059  0.0245 -0.2877  0.4217
    1SOL    MW4 6920   0.625   3.092   3.099  0.6199  0.1521  0.1962
    1SOL     OW 6921   0.436   3.254   3.012 -0.0933 -0.0697 -0.0835
    1SOL    HW2 6922   0.449   3.335   3.062  1.1685  0.0254 -0.5440
    1SOL    HW3 6923   0.352   3.221   3.042 -2.0065  2.8570 -1.8823
    1SOL    MW4 6924   0.427   3.261   3.023 -0.1793  0.3288 -0.3817
    1SOL     OW 6925   0.460   3.493   3.122  0.3178 -0.1877  0.0610
    1SOL    HW2 6926   0.464   3.496   3.218  1.0983 -1.1129  0.0639
    1SOL    HW3 6927   0.373   3.526   3.101  0.7250  1.5799  1.0203
    1SOL    MW4 6928   0.449   3.498   3.132  0.4745 -0.0765  0.1881
    1SOL     OW 6929   0.682   3.562   2.977  0.2630 -0.2068 -0.3329
    1SOL    HW2 6930   0.751   3.507   3.014  1.3442  2.3403  1.6424
    1SOL    HW3 6931   0.604   3.541   3.029  0.5558 -0.1636  0.1206
    1SOL    MW4 6932   0.681   3.552   2.989  0.4443  0.1349 -0.0124
    1SOL     OW 6933   0.672   3.838   3.077 -0.2552  0.3601  0.2218
    1SOL    HW2 6934   0.670   3.818   3.171 -0.1653 -0.1108  0.1279
    1SOL    HW3 6935   0.689   3.753   3.035  0.9206  0.7695 -0.1525
    1SOL    MW4 6936   0.674   3.824   3.084 -0.0882  0.3519  0.1602
    1SOL     OW 6937   0.441   3.993   3.014 -0.6311 -0.2473  0.0159
    1SOL    HW2 6938   0.523   3.950   3.041  0.5503  1.3419 -0.9361
    1SOL    HW3 6939   0.439   3.982   2.919 -2.2352 -1.4384  0.1585
    1SOL    MW4 6940   0.452   3.986   3.005 -0.6869 -0.1948 -0.0908
    1SOL     OW 6941   0.459   4.263   3.140 -0.3674 -0.0779  0.3562
    1SOL    HW2 6942   0.451   4.179   3.095  2.5317 -0.7726  1.0092
    1SOL    HW3 6943   0.390   4.317   3.103 -1.5075 -2.3708 -0.9503
    1SOL    MW4 6944   0.449   4.259   3.129 -0.1354 -0.4721  0.2701
    1SOL     OW 6945   0.681   4.386   3.030  0.0404  0.2231 -0.0010
    1SOL    HW2 6946   0.603   4.342   3.062  0.4587 -1.6421 -1.4665
    1SOL    HW3 6947   0.671   4.386   2.935  2.2020 -0.7707 -0.2475
    1SOL    MW4 6948   0.670   4.380   3.021  0.3808 -0.1540 -0.2267
    1SOL     OW 6949   1.125   4.649   3.137 -0.0453 -0.2786 -0.1959
    1SOL    HW2 6950   1.205   4.692   3.105  0.5514 -1.1526  0.1035
    1SOL    HW3 6951   1.054   4.699   3.097  0.6725 -0.4479 -1.7353
    1SOL    MW4 6952   1.126   4.661   3.127  0.1281 -0.4163 -0.3595
    1SOL     OW 6953   0.915   0.121   2.999 -0.4515  0.1676  0.2002
    1SOL    HW2 6954   0.903   0.212   3.027 -3.5874  0.5276 -2.0402
    1SOL    HW3 6955   0.843   0.074   3.040 -0.2028 -0.8762 -0.5435
    1SOL    MW4 6956   0.904   0.126   3.008 -0.8324  0.0774 -0.1938
    1SOL     OW 6957   0.885   0.377   3.116  0.2087 -0.2658 -0.2551
    1SOL    HW2 6958   0.889   0.361   3.210  0.1600 -0.4304 -0.2814
    1SOL    HW3 6959   0.967   0.423   3.096 -0.6868  1.5967  0.2243
    1SOL    MW4 6960   0.896   0.381   3.126  0.0842 -0.0418 -0.1955
    1SOL     OW 6961   1.107   0.513   3.024 -0.2769 -0.0531  0.3779
    1SOL    HW2 6962   1.190   0.469   3.044  0.2556  1.1808  0.8917
    1SOL    HW3 6963   1.098   0.505   2.929 -0.0059 -0.9404  0.4193
    1SOL    MW4 6964   1.117   0.506   3.014 -0.1708 -0.0074  0.4511
    1SOL     OW 6965   1.170   0.784   3.093 -0.3339  0.2922 -0.3349
    1SOL    HW2 6966   1.151   0.800   3.185 -2.3184  0.1202 -0.6812
    1SOL    HW3 6967   1.167   0.688   3.084 -0.8666  0.3334 -0.6940
    1SOL    MW4 6968   1.167   0.773   3.104 -0.6661  0.2749 -0.4280
    1SOL     OW 6969   0.931   0.877   2.984 -0.1642 -0.1218  0.3133
    1SOL    HW2 6970   0.929   0.970   3.004  1.7119  0.0393 -0.1682
    1SOL    HW3 6971   1.020   0.849   3.006  0.3146 -1.0813 -2.6295
    1SOL    MW4 6972   0.942   0.885   2.989  0.1466 -0.2271 -0.1385
    1SOL     OW 6973   0.924   1.139   3.078  0.2067  0.0787 -0.5760
    1SOL    HW2 6974   0.909   1.161   3.170 -0.4154  0.6422 -0.8047
    1SOL    HW3 6975   0.983   1.207   3.046 -0.5018  0.5451 -0.8923
    1SOL    MW4 6976   0.930   1.151   3.086  0.0311  0.2145 -0.6478
    1SOL     OW 6977   1.121   1.315   2.981  0.0849 -0.0773 -0.0906
    1SOL    HW2 6978   1.195   1.265   3.014  1.0591  1.5033  0.1748
    1SOL    HW3 6979   1.114   1.290   2.889  0.2071 -1.1010  0.1755
    1SOL    MW4 6980   1.130   1.305   2.973  0.2296 -0.0039 -0.0205
    1SOL     OW 6981   1.095   1.559   3.117  0.2127 -0.2080  0.3358
    1SOL    HW2 6982   1.169   1.602   3.074 -0.8216 -0.1595 -1.4434
    1SOL    HW3 6983   1.095   1.470   3.081 -0.0447 -0.4931  1.0358
    1SOL    MW4 6984   1.105   1.553   3.107  0.0421 -0.2393  0.1934
    1SOL     OW 6985   0.888   1.680   2.986  0.4016  0.3222 -0.1811
    1SOL    HW2 6986   0.968   1.642   3.022  0.3630 -2.4546 -2.8579
    1SOL    HW3 6987   0.818   1.633   3.032  0.2740  1.4627  0.8288
    1SOL    MW4 6988   0.889   1.669   2.997  0.3796  0.1063 -0.4010
    1SOL     OW 6989   0.845   1.943   3.078 -0.3445 -0.4239 -0.5635
    1SOL    HW2 6990   0.858   1.928   3.171 -0.2285  1.1929 -0.3192
    1SOL    HW3 6991   0.848   1.855   3.039 -2.7193 -1.3325  1.2030
    1SOL    MW4 6992   0.847   1.929   3.085 -0.6425 -0.3306 -0.2980
    1SOL     OW 6993   1.088   2.031   2.991 -0.2473  0.3014 -0.4109
    1SOL    HW2 6994   1.004   1.989   3.012 -0.7807  1.6202  0.1699
    1SOL    HW3 6995   1.091   2.031   2.896 -0.8046  0.0398 -0.4369
    1SOL    MW4 6996   1.077   2.025   2.981 -0.3911  0.4408 -0.3378
    1SOL     OW 6997   1.135   2.307   3.074 -0.3869  0.0705  0.0707
    1SOL    HW2 6998   1.058   2.340   3.029 -1.2610 -1.6606  0.2547
    1SOL    HW3 6999   1.134   2.212   3.058  0.1437 -0.3600  2.3949
    1SOL    MW4 7000   1.125   2.299   3.066 -0.4323 -0.2146  0.4017
    1SOL     OW 7001   0.899   2.400   2.968  0.4518 -0.6266 -0.0598
    1SOL    HW2 7002   0.811   2.388   3.006  0.1914  1.7063  0.2011
    1SOL    HW3 7003   0.883   2.417   2.876  0.8194 -2.4972 -0.4852
    1SOL    MW4 7004   0.885   2.401   2.961  0.4659 -0.5655 -0.0813
    1SOL     OW 7005   0.893   2.690   3.046 -0.2419  0.4871  0.1615
    1SOL    HW2 7006   0.866   2.691   3.138  0.6621  0.4570  0.4390
    1SOL    HW3 7007   0.898   2.597   3.024 -0.5001  0.4953  0.0742
    1SOL    MW4 7008   0.890   2.677   3.056 -0.1568  0.4845  0.1867
    1SOL     OW 7009   1.125   2.826   2.988 -0.0187 -0.2167 -0.2388
    1SOL    HW2 7010   1.129   2.900   3.048 -1.0577  1.0003 -1.6370
    1SOL    HW3 7011   1.046   2.778   3.013 -0.1854  0.0150 -0.3206
    1SOL    MW4 7012   1.115   2.830   2.999 -0.1777 -0.0250 -0.4339
    1SOL     OW 7013   1.144   3.080   3.108  0.4559 -0.3747  0.1387
    1SOL    HW2 7014   1.203   3.147   3.072 -0.2911  0.7143  0.9225
    1SOL    HW3 7015   1.060   3.097   3.065  0.5293 -1.4925 -0.4603
    1SOL    MW4 7016   1.141   3.091   3.098  0.3670 -0.3784  0.1631
    1SOL     OW 7017   0.901   3.163   3.019  0.1336 -0.0426  0.2779
    1SOL    HW2 7018   0.809   3.145   3.037  0.1999 -0.0680  0.5878
    1SOL    HW3 7019   0.902   3.194   2.928 -0.1601 -0.1903  0.2246
    1SOL    MW4 7020   0.889   3.165   3.009  0.1037 -0.0656  0.3121
    1SOL     OW 7021   0.916   3.442   3.090  0.2343 -0.6334  0.5553
    1SOL    HW2 7022   0.990   3.494   3.057  0.8652 -0.7116  1.8088
    1SOL    HW3 7023   0.937   3.352   3.066  0.6470 -0.6778  1.0576
    1SOL    MW4 7024   0.929   3.437   3.083  0.3721 -0.6495  0.7870
    1SOL     OW 7025   1.133   3.633   3.000  0.2940  0.0757  0.1230
    1SOL    HW2 7026   1.216   3.602   3.035  1.1023  1.3937 -0.5955
    1SOL    HW3 7027   1.126   3.723   3.032 -1.1620 -0.2303  0.7017
    1SOL    MW4 7028   1.143   3.641   3.009  0.2085  0.2091  0.1044
    1SOL     OW 7029   1.124   3.886   3.102  0.3678  0.0764  0.0127
    1SOL    HW2 7030   1.134   3.889   3.197 -0.2747 -2.0295  0.1634
    1SOL    HW3 7031   1.039   3.927   3.085 -0.3897 -1.2767  0.5108
    1SOL    MW4 7032   1.114   3.892   3.112  0.1830 -0.3800  0.0982
    1SOL     OW 7033   0.884   4.003   3.019 -0.0591  0.2714  0.4550
    1SOL    HW2 7034   0.803   3.955   3.033 -0.0661  0.2473  0.3294
    1SOL    HW3 7035   0.891   4.011   2.924  0.7802 -0.8981  0.4143
    1SOL    MW4 7036   0.874   3.998   3.008  0.0508  0.1140  0.4330
    1SOL     OW 7037   0.919   4.267   3.111  0.0448  0.0251  0.0133
    1SOL    HW2 7038   0.921   4.174   3.089  1.0676 -0.0644  0.4360
    1SOL    HW3 7039   0.834   4.297   3.081 -0.0488 -0.9132 -0.6833
    1SOL    MW4 7040   0.908   4.258   3.104  0.1674 -0.1106 -0.0226
    1SOL     OW 7041   1.161   4.398   3.012  0.1655  0.1708  0.1995
    1SOL    HW2 7042   1.077   4.358   3.034 -0.9735  1.4509 -1.6748
    1SOL    HW3 7043   1.159   4.485   3.054  0.3708  0.3741 -0.2051
    1SOL    MW4 7044   1.150   4.404   3.021  0.0424  0.3667 -0.1013
    1SOL     OW 7045   1.545   4.639   3.081 -0.3093  0.0389  0.1924
    1SOL    HW2 7046   1.536   4.619   3.174 -0.6050  2.8722  0.8040
    1SOL    HW3 7047   1.464   4.685   3.058 -0.5986 -1.3607 -1.6856
    1SOL    MW4 7048   1.533   4.642   3.090 -0.3864  0.2279  0.0255
    1SOL     OW 7049   1.334   0.108   2.997  0.1419 -0.4282  0.2267
    1SOL    HW2 7050   1.336   0.201   3.020 -0.0413 -0.6073  0.9669
    1SOL    HW3 7051   1.323   0.108   2.902 -0.5921  0.3026  0.3028
    1SOL    MW4 7052   1.333   0.120   2.988  0.0210 -0.3554  0.3345
    1SOL     OW 7053   1.332   0.383   3.112  0.2654  0.0841 -0.1182
    1SOL    HW2 7054   1.346   0.359   3.203 -0.3260  2.7163  0.7148
    1SOL    HW3 7055   1.412   0.430   3.087 -0.0375  0.3608 -0.5912
    1SOL    MW4 7056   1.345   0.386   3.120  0.1475  0.4679 -0.0706
    1SOL     OW 7057   1.564   0.498   3.034 -0.2524 -0.4362  0.9150
    1SOL    HW2 7058   1.584   0.591   3.048 -1.1628 -0.1826  0.5915
    1SOL    HW3 7059   1.581   0.485   2.940 -1.0729 -0.3491  0.7516
    1SOL    MW4 7060   1.569   0.509   3.023 -0.4808 -0.3912  0.8509
    1SOL     OW 7061   1.594   0.774   3.074 -0.7935  0.2980  0.1837
    1SOL    HW2 7062   1.582   0.775   3.169 -0.3759  2.5233  0.2488
    1SOL    HW3 7063   1.522   0.826   3.040 -0.1803  0.6392 -0.6083
    1SOL    MW4 7064   1.583   0.781   3.082 -0.6576  0.6366  0.0877
    1SOL     OW 7065   1.367   0.927   2.986 -0.1691  0.1015 -0.4539
    1SOL    HW2 7066   1.372   1.015   3.022  0.9624 -0.1242 -0.0422
    1SOL    HW3 7067   1.292   0.887   3.030  1.4391 -0.3204  2.0385
    1SOL    MW4 7068   1.358   0.933   2.997  0.1922  0.0160 -0.0706
    1SOL     OW 7069   1.324   1.166   3.098 -0.0924  0.4591 -0.1202
    1SOL    HW2 7070   1.327   1.163   3.194 -0.7443  1.7147 -0.0463
    1SOL    HW3 7071   1.409   1.203   3.074  0.1437 -0.0266 -0.0342
    1SOL    MW4 7072   1.336   1.171   3.108 -0.1472  0.5608 -0.0992
    1SOL     OW 7073   1.561   1.290   3.032 -0.3624  0.0462  0.2312
    1SOL    HW2 7074   1.634   1.233   3.056 -0.6821  0.3741  2.0474
    1SOL    HW3 7075   1.571   1.366   3.089 -1.7065  0.4247 -0.0243
    1SOL    MW4 7076   1.572   1.293   3.043 -0.5819  0.1394  0.4373
    1SOL     OW 7077   1.563   1.542   3.151  0.1191 -0.3329 -0.0868
    1SOL    HW2 7078   1.630   1.597   3.109 -0.2900  0.0477 -0.2437
    1SOL    HW3 7079   1.480   1.581   3.125 -0.1406  0.1125  1.3488
    1SOL    MW4 7080   1.561   1.555   3.142  0.0308 -0.2239  0.0818
    1SOL     OW 7081   1.355   1.666   3.033 -0.3774 -0.3362 -0.0774
    1SOL    HW2 7082   1.354   1.758   3.060 -0.0330 -0.6927  1.1646
    1SOL    HW3 7083   1.349   1.670   2.937 -0.7276  0.9647 -0.0216
    1SOL    MW4 7084   1.354   1.679   3.024 -0.3783 -0.2115  0.0937
    1SOL     OW 7085   1.341   1.929   3.119  0.0828 -0.0488 -0.0405
    1SOL    HW2 7086   1.352   1.944   3.213 -0.0144  0.9931 -0.1941
    1SOL    HW3 7087   1.249   1.949   3.102  0.4683  1.2509 -0.6296
    1SOL    MW4 7088   1.330   1.933   3.129  0.1208  0.2602 -0.1385
    1SOL     OW 7089   1.550   2.041   2.959 -0.0303  0.4621 -0.2344
    1SOL    HW2 7090   1.477   1.990   2.996  0.7673 -0.2864  0.3263
    1SOL    HW3 7091   1.530   2.047   2.866 -0.3462 -0.5474 -0.2426
    1SOL    MW4 7092   1.537   2.035   2.951  0.0333  0.2298 -0.1616
    1SOL     OW 7093   1.591   2.310   3.031 -0.3070  0.0631 -0.6083
    1SOL    HW2 7094   1.498   2.333   3.019 -0.7117 -0.5199  1.2525
    1SOL    HW3 7095   1.597   2.219   3.001 -0.4437 -0.0625 -0.2562
    1SOL    MW4 7096   1.579   2.301   3.025 -0.3785 -0.0300 -0.3164
    1SOL     OW 7097   1.360   2.437   2.969  0.5181  0.3546  0.2735
    1SOL    HW2 7098   1.294   2.379   3.008  1.2179 -0.3771  0.3795
    1SOL    HW3 7099   1.350   2.425   2.875  0.9303 -0.2454  0.3045
    1SOL    MW4 7100   1.350   2.428   2.962  0.6647  0.1788  0.2913
    1SOL     OW 7101   1.312   2.678   3.114  0.2199  0.5408 -0.2710
    1SOL    HW2 7102   1.320   2.592   3.073 -0.1972  0.7696 -0.8299
    1SOL    HW3 7103   1.229   2.713   3.081 -1.0995 -0.0716  2.2411
    1SOL    MW4 7104   1.302   2.672   3.104 -0.0093  0.4902 -0.0131
    1SOL     OW 7105   1.501   2.838   3.021 -0.1940 -0.1121 -0.0867
    1SOL    HW2 7106   1.582   2.794   3.047  0.0906  1.1946  1.2900
    1SOL    HW3 7107   1.431   2.780   3.053  0.1868 -0.6748 -0.2632
    1SOL    MW4 7108   1.502   2.825   3.029 -0.1062 -0.0138  0.0715
    1SOL     OW 7109   1.555   3.092   3.123  0.2738 -0.3364 -0.2471
    1SOL    HW2 7110   1.561   3.094   3.219 -1.9125  0.0444 -0.1069
    1SOL    HW3 7111   1.541   3.000   3.102 -1.4882 -0.1159 -0.0526
    1SOL    MW4 7112   1.554   3.080   3.133 -0.2471 -0.2570 -0.2031
    1SOL     OW 7113   1.346   3.235   3.027  0.4677 -0.2283  0.3454
    1SOL    HW2 7114   1.417   3.176   3.052  0.1945 -0.9822 -0.6283
    1SOL    HW3 7115   1.347   3.235   2.931 -1.2441 -0.7449  0.3094
    1SOL    MW4 7116   1.355   3.227   3.017  0.2059 -0.3960  0.2120
    1SOL     OW 7117   1.362   3.519   3.090 -0.5747 -0.2066  0.7340
    1SOL    HW2 7118   1.362   3.525   3.186 -0.6654 -1.5755  0.8312
    1SOL    HW3 7119   1.354   3.425   3.072 -0.6540  0.0526 -0.6192
    1SOL    MW4 7120   1.361   3.507   3.101 -0.5971 -0.3531  0.5682
    1SOL     OW 7121   1.598   3.625   2.992  0.0732 -0.6755 -0.0727
    1SOL    HW2 7122   1.518   3.582   3.024  0.4209 -0.7613  0.6931
    1SOL    HW3 7123   1.591   3.621   2.897 -1.4341  0.4258 -0.0276
    1SOL    MW4 7124   1.586   3.619   2.984 -0.0799 -0.5419  0.0339
    1SOL     OW 7125   1.579   3.873   3.112 -0.0883  0.3906  0.5685
    1SOL    HW2 7126   1.662   3.915   3.089 -0.3287  0.1639 -0.7805
    1SOL    HW3 7127   1.586   3.785   3.076 -0.2165 -0.2155  2.0115
    1SOL    MW4 7128   1.591   3.867   3.104 -0.1369  0.2809  0.5808
    1SOL     OW 7129   1.353   3.992   3.000 -0.4307 -0.4369 -0.2229
    1SOL    HW2 7130   1.430   3.952   3.040 -0.8297 -1.7889 -0.7647
    1SOL    HW3 7131   1.279   3.948   3.042 -0.8506 -2.4203 -2.9025
    1SOL    MW4 7132   1.354   3.981   3.011 -0.5388 -0.8771 -0.6480
    1SOL     OW 7133   1.375   4.252   3.126 -0.1606 -0.1756  0.2389
    1SOL    HW2 7134   1.360   4.164   3.092  0.5438  0.3334 -1.4590
    1SOL    HW3 7135   1.303   4.304   3.088 -0.2269  0.0996  0.7408
    1SOL    MW4 7136   1.363   4.247   3.116 -0.0765 -0.0720  0.0811
    1SOL     OW 7137   1.572   4.385   2.987 -0.0664 -0.3458  0.0928
    1SOL    HW2 7138   1.497   4.346   3.033 -0.3036 -0.0362 -0.0309
    1SOL    HW3 7139   1.567   4.478   3.008  0.7052 -0.4217  0.6809
    1SOL    MW4 7140   1.562   4.392   2.996  0.0041 -0.3147  0.1540
    1SOL     OW 7141   2.033   4.625   3.105 -0.0201 -0.8482 -0.4536
    1SOL    HW2 7142   2.031   4.645   3.199 -1.3725 -2.5168 -0.1184
    1SOL    HW3 7143   1.950   4.660   3.072  1.3732  1.6363 -1.4513
    1SOL    MW4 7144   2.022   4.633   3.113 -0.0145 -0.7410 -0.5410
    1SOL     OW 7145   1.789   0.080   3.024 -0.2221  0.0764 -0.4361
    1SOL    HW2 7146   1.701   0.048   3.047  0.1668 -0.2548  0.6120
    1SOL    HW3 7147   1.789   0.083   2.928 -1.5770  0.6246 -0.4387
    1SOL    MW4 7148   1.777   0.076   3.014 -0.3496  0.1050 -0.2983
    1SOL     OW 7149   1.797   0.355   3.117  0.8060  0.1182  0.4200
    1SOL    HW2 7150   1.787   0.265   3.088  1.5695  0.1393  0.0668
    1SOL    HW3 7151   1.713   0.397   3.098  0.6549 -0.3661  0.0378
    1SOL    MW4 7152   1.785   0.349   3.111  0.8868  0.0571  0.3231
    1SOL     OW 7153   2.026   0.487   3.005 -0.2269 -0.0991  0.0772
    1SOL    HW2 7154   1.948   0.445   3.039  0.1532 -0.0484  1.0370
    1SOL    HW3 7155   2.099   0.433   3.037  0.1281 -0.1057 -0.7377
    1SOL    MW4 7156   2.026   0.475   3.014 -0.1302 -0.0933  0.0963
    1SOL     OW 7157   2.037   0.740   3.130  0.0222 -0.0151 -0.5111
    1SOL    HW2 7158   1.954   0.766   3.089  0.6760  0.2040 -1.7109
    1SOL    HW3 7159   2.053   0.652   3.096  0.6535  0.2345 -0.8592
    1SOL    MW4 7160   2.028   0.732   3.120  0.1919  0.0467 -0.7153
    1SOL     OW 7161   1.834   0.880   2.994  0.1724  0.1530 -0.4453
    1SOL    HW2 7162   1.749   0.840   3.012  0.6231 -1.2079 -1.2479
    1SOL    HW3 7163   1.846   0.869   2.899  0.5168  1.7976 -0.6100
    1SOL    MW4 7164   1.825   0.873   2.984  0.2775  0.1903 -0.5729
    1SOL     OW 7165   1.784   1.146   3.112 -0.0533 -0.1570 -0.5872
    1SOL    HW2 7166   1.810   1.135   3.204 -0.6663  0.2649 -0.3602
    1SOL    HW3 7167   1.806   1.063   3.071 -1.1259 -0.8825  0.2693
    1SOL    MW4 7168   1.790   1.134   3.119 -0.2756 -0.1971 -0.4442
    1SOL     OW 7169   1.997   1.284   3.010 -0.4874 -0.2258  0.1562
    1SOL    HW2 7170   2.077   1.244   3.045 -0.2220  2.0543  2.3419
    1SOL    HW3 7171   1.926   1.232   3.048 -0.0901 -0.7247  0.2302
    1SOL    MW4 7172   1.998   1.272   3.020 -0.4001  0.0092  0.4547
    1SOL     OW 7173   1.990   1.537   3.095 -0.1766  0.4400 -0.2291
    1SOL    HW2 7174   1.998   1.543   3.190 -2.3988  0.4487 -0.0185
    1SOL    HW3 7175   1.978   1.444   3.078 -2.0782  0.6830 -0.2837
    1SOL    MW4 7176   1.990   1.526   3.105 -0.7207  0.4733 -0.2089
    1SOL     OW 7177   1.764   1.676   3.036 -0.1808 -0.1888 -0.1468
    1SOL    HW2 7178   1.794   1.767   3.043  1.0819 -0.5887 -0.2877
    1SOL    HW3 7179   1.835   1.624   3.073 -0.4533 -1.1833 -0.9866
    1SOL    MW4 7180   1.778   1.681   3.042 -0.0501 -0.3728 -0.2761
    1SOL     OW 7181   1.774   1.960   3.099  0.2620 -0.2242  0.0584
    1SOL    HW2 7182   1.843   2.006   3.052  0.2617  1.1368  1.3596
    1SOL    HW3 7183   1.699   1.961   3.039  0.5835  0.5681 -0.3344
    1SOL    MW4 7184   1.773   1.966   3.085  0.3042  0.0600  0.1781
    1SOL     OW 7185   2.004   2.049   2.971 -0.1335 -0.1217  0.5073
    1SOL    HW2 7186   2.067   1.999   3.022  0.2397  0.3140  0.4721
    1SOL    HW3 7187   2.015   2.140   3.000  0.1274  0.1396 -0.3951
    1SOL    MW4 7188   2.013   2.055   2.981 -0.0501 -0.0296  0.3834
    1SOL     OW 7189   2.026   2.303   3.114 -0.1709  0.4015 -0.2044
    1SOL    HW2 7190   2.098   2.356   3.078  0.2992  0.4969  0.8702
    1SOL    HW3 7191   1.948   2.335   3.069  0.2423  1.3470 -0.2594
    1SOL    MW4 7192   2.026   2.314   3.103 -0.0541  0.5386 -0.0699
    1SOL     OW 7193   1.815   2.468   2.973 -0.1513  0.1395 -0.0884
    1SOL    HW2 7194   1.815   2.560   3.000  1.4256  0.0223  0.3617
    1SOL    HW3 7195   1.732   2.434   3.007 -0.0944  1.0357  1.0011
    1SOL    MW4 7196   1.804   2.476   2.981  0.0643  0.2422  0.1147
    1SOL     OW 7197   1.747   2.723   3.071  0.3451  0.3558  0.2317
    1SOL    HW2 7198   1.745   2.708   3.166 -1.5147  2.7564  0.6183
    1SOL    HW3 7199   1.837   2.750   3.053  0.2552  1.6670  1.6297
    1SOL    MW4 7200   1.759   2.724   3.081  0.0880  0.8452  0.4673
    1SOL     OW 7201   2.012   2.826   2.995 -0.1230  0.1965 -0.2533
    1SOL    HW2 7202   2.012   2.915   3.032 -0.7011  0.2705 -0.4252
    1SOL    HW3 7203   2.030   2.840   2.902 -1.5392  0.2428 -0.5256
    1SOL    MW4 7204   2.015   2.840   2.988 -0.3860  0.2124 -0.3116
    1SOL     OW 7205   2.031   3.104   3.093 -0.2589  0.0926  0.1275
    1SOL    HW2 7206   2.019   3.099   3.188 -1.1039 -0.7464 -0.0128
    1SOL    HW3 7207   1.960   3.161   3.063 -0.5090 -0.3318 -0.0912
    1SOL    MW4 7208   2.020   3.111   3.101 -0.4032 -0.0741  0.0799
    1SOL     OW 7209   1.782   3.220   3.023 -0.1692  0.1630 -0.5465
    1SOL    HW2 7210   1.708   3.168   3.055  0.2643 -0.5114 -0.6344
    1SOL    HW3 7211   1.784   3.205   2.929 -0.1449  0.4765 -0.5989
    1SOL    MW4 7212   1.772   3.211   3.015 -0.1088  0.1156 -0.5648
    1SOL     OW 7213   1.825   3.488   3.065 -0.0376  0.0286  0.3282
    1SOL    HW2 7214   1.813   3.395   3.046 -1.3972 -0.0013  1.2440
    1SOL    HW3 7215   1.743   3.529   3.036  0.3166  0.8464  0.4764
    1SOL    MW4 7216   1.812   3.482   3.059 -0.1702  0.1328  0.4685
    1SOL     OW 7217   2.074   3.601   2.993 -0.0979  0.2276  0.2087
    1SOL    HW2 7218   2.072   3.689   3.030  0.4762  0.4201 -0.2095
    1SOL    HW3 7219   1.990   3.562   3.018 -0.1168  0.6967  0.8747
    1SOL    MW4 7220   2.062   3.607   3.001 -0.0246  0.3152  0.2413
    1SOL     OW 7221   2.019   3.872   3.107  0.2351  0.4082 -0.3693
    1SOL    HW2 7222   2.028   3.869   3.203  0.0779 -1.3472 -0.3951
    1SOL    HW3 7223   1.938   3.920   3.092 -1.5490 -2.2273  0.5114
    1SOL    MW4 7224   2.010   3.878   3.118 -0.0210 -0.1709 -0.2565
    1SOL     OW 7225   1.799   4.031   3.044 -0.1523 -0.5232 -0.0285
    1SOL    HW2 7226   1.796   4.122   3.075 -3.1196 -0.9321  1.0282
    1SOL    HW3 7227   1.792   4.037   2.949 -1.1335  0.3409  0.0914
    1SOL    MW4 7228   1.798   4.044   3.036 -0.6733 -0.4630  0.1264
    1SOL     OW 7229   1.811   4.302   3.103  0.3519  0.2635  0.2441
    1SOL    HW2 7230   1.887   4.325   3.049  0.0045 -0.2478 -0.4599
    1SOL    HW3 7231   1.737   4.345   3.060 -0.0431 -0.7660 -0.1220
    1SOL    MW4 7232   1.812   4.311   3.090  0.2539  0.0601  0.1030
    1SOL     OW 7233   2.066   4.364   3.021  0.7088 -0.0718  0.6022
    1SOL    HW2 7234   2.065   4.453   3.057  0.0670 -0.1300  0.7507
    1SOL    HW3 7235   2.080   4.376   2.927 -1.0109  0.2978  0.3696
    1SOL    MW4 7236   2.067   4.377   3.014  0.3974 -0.0310  0.5910
    1SOL     OW 7237   2.494   4.647   3.107 -0.2285  0.8178  0.3515
    1SOL    HW2 7238   2.489   4.552   3.098  0.3326  0.7778  0.4152
    1SOL    HW3 7239   2.410   4.679   3.073 -0.0424  0.3629 -0.5648
    1SOL    MW4 7240   2.482   4.639   3.101 -0.1299  0.7524  0.2389
    1SOL     OW 7241   2.249   0.092   3.013 -0.0900  0.2014 -0.1604
    1SOL    HW2 7242   2.260   0.180   3.047 -2.0780  0.9006 -1.2307
    1SOL    HW3 7243   2.159   0.068   3.035  0.1176 -1.1727 -0.7143
    1SOL    MW4 7244   2.239   0.100   3.020 -0.3250  0.1124 -0.3746
    1SOL     OW 7245   2.256   0.348   3.123  0.2063 -0.0115  0.1054
    1SOL    HW2 7246   2.235   0.357   3.216 -0.7657  2.1191 -0.2760
    1SOL    HW3 7247   2.335   0.399   3.111  0.5682 -0.6303 -0.1728
    1SOL    MW4 7248   2.264   0.356   3.134  0.1259  0.1879  0.0184
    1SOL     OW 7249   2.468   0.503   3.017  0.5823 -0.1577  0.1345
    1SOL    HW2 7250   2.538   0.446   3.050  0.7186 -0.4209 -0.5944
    1SOL    HW3 7251   2.492   0.519   2.926  1.1310  1.9606  0.6230
    1SOL    MW4 7252   2.481   0.497   3.009  0.6731  0.0871  0.1030
    1SOL     OW 7253   2.448   0.733   3.146  0.0111 -0.3844  0.1758
    1SOL    HW2 7254   2.524   0.786   3.122 -0.2147  0.1707  0.6713
    1SOL    HW3 7255   2.461   0.651   3.099 -0.4072  0.6502 -1.8608
    1SOL    MW4 7256   2.459   0.729   3.136 -0.0737 -0.1746 -0.0277
    1SOL     OW 7257   2.235   0.872   2.998 -0.1004 -0.3315  0.0148
    1SOL    HW2 7258   2.311   0.833   3.042 -0.7210  0.3401  1.7247
    1SOL    HW3 7259   2.160   0.837   3.045 -0.7372  1.2883  0.2213
    1SOL    MW4 7260   2.235   0.862   3.010 -0.2663 -0.0292  0.2675
    1SOL     OW 7261   2.228   1.141   3.123  0.0903 -0.3007  0.2591
    1SOL    HW2 7262   2.237   1.131   3.218  1.5102  0.0381  0.1855
    1SOL    HW3 7263   2.205   1.054   3.092 -2.5610  0.0550  1.1287
    1SOL    MW4 7264   2.226   1.128   3.132 -0.0720 -0.2091  0.3643
    1SOL     OW 7265   2.442   1.266   2.991 -0.0770 -0.1645  0.3978
    1SOL    HW2 7266   2.366   1.226   3.034 -1.0527  0.1032 -1.0654
    1SOL    HW3 7267   2.425   1.256   2.897  0.0466  2.9350 -0.0143
    1SOL    MW4 7268   2.430   1.259   2.984 -0.1895  0.2798  0.1504
    1SOL     OW 7269   2.486   1.539   3.075 -0.6605  0.1737  0.0881
    1SOL    HW2 7270   2.397   1.573   3.064 -0.0085  2.2610  1.0705
    1SOL    HW3 7271   2.478   1.446   3.056 -2.8479  0.5293 -0.9371
    1SOL    MW4 7272   2.473   1.532   3.071 -0.8631  0.4960  0.0823
    1SOL     OW 7273   2.220   1.647   2.991  0.0001 -0.4931  0.0295
    1SOL    HW2 7274   2.136   1.616   3.024  0.2808  0.0789  1.3385
    1SOL    HW3 7275   2.207   1.658   2.897 -1.8218  0.9179  0.4152
    1SOL    MW4 7276   2.207   1.645   2.983 -0.2034 -0.2315  0.2527
    1SOL     OW 7277   2.208   1.914   3.094  0.2018  0.1593  0.1454
    1SOL    HW2 7278   2.276   1.971   3.058 -0.7141  0.2643 -1.4451
    1SOL    HW3 7279   2.214   1.834   3.041 -0.5012 -0.0821  0.4249
    1SOL    MW4 7280   2.218   1.911   3.083 -0.0119  0.1413 -0.0274
    1SOL     OW 7281   2.424   2.048   2.991  0.2808  0.4420  0.4636
    1SOL    HW2 7282   2.508   2.008   3.014 -0.1849 -0.2074  1.0446
    1SOL    HW3 7283   2.418   2.038   2.896  0.2788 -0.6504  0.5795
    1SOL    MW4 7284   2.435   2.042   2.981  0.2189  0.2122  0.5553
    1SOL     OW 7285   2.497   2.313   3.062  0.1055  0.4998  0.1993
    1SOL    HW2 7286   2.510   2.300   3.156 -0.9335  1.2810  0.4533
    1SOL    HW3 7287   2.485   2.224   3.028 -0.1202  0.2625  0.8863
    1SOL    MW4 7288   2.497   2.299   3.070 -0.0613  0.5715  0.3233
    1SOL     OW 7289   2.243   2.447   3.010  0.4525  0.3566 -0.1622
    1SOL    HW2 7290   2.243   2.521   3.070  0.0677  0.7221 -0.6148
    1SOL    HW3 7291   2.328   2.404   3.026  0.0412  0.0148  1.1716
    1SOL    MW4 7292   2.255   2.451   3.020  0.3474  0.3598 -0.0458
    1SOL     OW 7293   2.230   2.702   3.105  0.2171 -0.1448 -0.0653
    1SOL    HW2 7294   2.302   2.762   3.083  0.3475 -0.2567  0.0480
    1SOL    HW3 7295   2.155   2.736   3.057  0.1499  0.4449  0.4543
    1SOL    MW4 7296   2.230   2.714   3.096  0.2255 -0.0818  0.0181
    1SOL     OW 7297   2.472   2.823   3.041 -0.2854  0.0175 -0.0505
    1SOL    HW2 7298   2.486   2.914   3.067 -1.8550  0.9626 -2.3619
    1SOL    HW3 7299   2.479   2.824   2.945 -2.3134 -1.9022 -0.2671
    1SOL    MW4 7300   2.475   2.835   3.032 -0.7601 -0.1111 -0.3841
    1SOL     OW 7301   2.494   3.093   3.111  0.5707 -0.4490  0.4027
    1SOL    HW2 7302   2.578   3.123   3.077  0.5087 -0.1851  0.4746
    1SOL    HW3 7303   2.429   3.142   3.061  0.4541 -0.8270  0.1826
    1SOL    MW4 7304   2.496   3.104   3.100  0.5474 -0.4642  0.3831
    1SOL     OW 7305   2.257   3.210   2.981  0.8497 -0.3750 -0.1203
    1SOL    HW2 7306   2.255   3.294   3.027  0.3855 -0.1500 -0.5481
    1SOL    HW3 7307   2.181   3.162   3.014  0.4200 -0.1466 -0.7792
    1SOL    MW4 7308   2.247   3.215   2.992  0.7317 -0.3150 -0.2637
    1SOL     OW 7309   2.285   3.460   3.097 -0.0648 -0.3568  0.2486
    1SOL    HW2 7310   2.366   3.502   3.067  0.5270 -0.4565  1.6935
    1SOL    HW3 7311   2.216   3.520   3.070  0.5335 -0.0123 -0.5258
    1SOL    MW4 7312   2.287   3.474   3.089  0.0918 -0.3242  0.3371
    1SOL     OW 7313   2.487   3.606   3.002 -0.3168 -0.3849 -0.0252
    1SOL    HW2 7314   2.568   3.564   3.034  0.7273  0.2710 -1.7848
    1SOL    HW3 7315   2.479   3.685   3.055  1.1355  0.4409 -1.0255
    1SOL    MW4 7316   2.497   3.611   3.014  0.0124 -0.1895 -0.3891
    1SOL     OW 7317   2.459   3.859   3.113  0.4256  0.2899  0.6646
    1SOL    HW2 7318   2.467   3.871   3.208  1.4699 -0.4100  0.6709
    1SOL    HW3 7319   2.532   3.908   3.075 -0.1176  0.7504  0.2063
    1SOL    MW4 7320   2.470   3.867   3.121  0.4919  0.2584  0.6049
    1SOL     OW 7321   2.243   4.000   2.985 -0.1142  0.2271  0.0415
    1SOL    HW2 7322   2.319   3.945   3.000 -0.7671 -0.5333  0.6579
    1SOL    HW3 7323   2.169   3.946   3.013 -0.9228  0.7671 -1.0154
    1SOL    MW4 7324   2.243   3.986   2.991 -0.3068  0.1979 -0.0167
    1SOL     OW 7325   2.277   4.218   3.148  0.1052 -0.1321  0.1732
    1SOL    HW2 7326   2.277   4.134   3.101 -0.5702  0.6167 -1.1760
    1SOL    HW3 7327   2.203   4.266   3.112  0.5898  1.1327  0.8284
    1SOL    MW4 7328   2.267   4.213   3.137  0.0801  0.1335  0.0818
    1SOL     OW 7329   2.476   4.387   3.035 -0.5561 -0.3825 -0.1072
    1SOL    HW2 7330   2.397   4.348   3.072 -0.0628 -2.5545 -1.2643
    1SOL    HW3 7331   2.454   4.402   2.943  0.1447 -0.3281 -0.2654
    1SOL    MW4 7332   2.463   4.384   3.027 -0.3986 -0.6618 -0.2809
    1SOL     OW 7333   2.916   4.651   3.114 -0.2132  0.2596  0.1467
    1SOL    HW2 7334   2.998   4.677   3.070 -0.3587  0.5990  0.0740
    1SOL    HW3 7335   2.908   4.557   3.096  0.3717  0.1377  0.4947
    1SOL    MW4 7336   2.926   4.642   3.106 -0.1550  0.2880  0.1829
    1SOL     OW 7337   2.710   0.132   2.977 -0.0510  0.0105  0.0309
    1SOL    HW2 7338   2.789   0.088   3.010 -0.4990 -1.8248 -1.2533
    1SOL    HW3 7339   2.637   0.083   3.017 -0.5676  1.6572  1.1654
    1SOL    MW4 7340   2.711   0.120   2.987 -0.1781 -0.0144  0.0110
    1SOL     OW 7341   2.681   0.360   3.126  0.0719  0.4588 -0.1753
    1SOL    HW2 7342   2.686   0.276   3.081  0.3295  0.4606 -0.1462
    1SOL    HW3 7343   2.669   0.337   3.218 -0.7405  0.4546 -0.2757
    1SOL    MW4 7344   2.680   0.346   3.132 -0.0012  0.4584 -0.1848
    1SOL     OW 7345   2.908   0.478   3.031 -0.2427 -0.4211 -0.3257
    1SOL    HW2 7346   2.829   0.449   3.077 -1.0966  0.6857 -1.0881
    1SOL    HW3 7347   2.885   0.476   2.939  0.3702  0.6739 -0.5102
    1SOL    MW4 7348   2.895   0.474   3.025 -0.2747 -0.1306 -0.4504
    1SOL     OW 7349   2.934   0.751   3.092 -0.1398  0.7105 -0.1619
    1SOL    HW2 7350   2.939   0.752   3.187 -0.9559 -0.0839 -0.0989
    1SOL    HW3 7351   2.920   0.659   3.070 -2.0954  1.1641 -0.9122
    1SOL    MW4 7352   2.933   0.739   3.102 -0.5054  0.6655 -0.2525
    1SOL     OW 7353   2.681   0.862   3.024 -0.1078  0.1080  0.6292
    1SOL    HW2 7354   2.693   0.955   3.040 -1.4269  0.4195 -0.1494
    1SOL    HW3 7355   2.765   0.823   3.047  0.1706  1.3692  1.8283
    1SOL    MW4 7356   2.693   0.869   3.030 -0.2451  0.3154  0.6845
    1SOL     OW 7357   2.673   1.132   3.105  0.0555  0.4880 -0.3689
    1SOL    HW2 7358   2.755   1.177   3.083  0.1468  0.7971  0.5937
    1SOL    HW3 7359   2.606   1.178   3.054  0.6097 -0.4155 -1.9477
    1SOL    MW4 7360   2.675   1.144   3.095  0.1407  0.4095 -0.4501
    1SOL     OW 7361   2.900   1.275   3.028  0.3954 -0.1584  0.2193
    1SOL    HW2 7362   2.985   1.251   3.065  0.2355 -0.2114  0.5536
    1SOL    HW3 7363   2.878   1.358   3.069 -0.0027 -0.4503  0.5965
    1SOL    MW4 7364   2.909   1.283   3.038  0.3219 -0.2038  0.3128
    1SOL     OW 7365   2.909   1.535   3.122 -0.0919 -0.0394 -0.3312
    1SOL    HW2 7366   2.921   1.558   3.214 -1.2028  0.3854 -0.2773
    1SOL    HW3 7367   2.994   1.552   3.081  0.0782  0.8906  0.3898
    1SOL    MW4 7368   2.922   1.540   3.128 -0.2160  0.1395 -0.2291
    1SOL     OW 7369   2.713   1.688   2.981  0.5484  0.2506  0.0419
    1SOL    HW2 7370   2.784   1.651   3.034  0.1686  0.2991  0.5756
    1SOL    HW3 7371   2.635   1.642   3.009  0.3665  0.1715 -0.5795
    1SOL    MW4 7372   2.712   1.677   2.991  0.4742  0.2466  0.0303
    1SOL     OW 7373   2.658   1.931   3.083 -0.2705 -0.3017 -0.6262
    1SOL    HW2 7374   2.740   1.973   3.055 -0.0400 -0.1161  0.3166
    1SOL    HW3 7375   2.660   1.845   3.041  1.0509 -0.8162  0.4461
    1SOL    MW4 7376   2.669   1.925   3.074 -0.0656 -0.3452 -0.3603
    1SOL     OW 7377   2.892   2.022   2.973 -0.4119  0.4789  0.0821
    1SOL    HW2 7378   2.922   2.096   3.025 -0.1637  0.3131  0.1792
    1SOL    HW3 7379   2.883   2.056   2.885  2.2077  0.0009 -0.4114
    1SOL    MW4 7380   2.895   2.036   2.968 -0.0336  0.3939  0.0298
    1SOL     OW 7381   2.952   2.262   3.110  0.2532  0.2277  0.2386
    1SOL    HW2 7382   3.030   2.294   3.065  1.5742  0.2562  2.4693
    1SOL    HW3 7383   2.881   2.316   3.075  1.0730 -0.2532 -2.3216
    1SOL    MW4 7384   2.953   2.273   3.099  0.5357  0.1678  0.1950
    1SOL     OW 7385   2.746   2.431   2.992 -0.1487 -0.2160  0.1697
    1SOL    HW2 7386   2.733   2.524   3.010 -0.0909 -0.3633  1.0220
    1SOL    HW3 7387   2.663   2.390   3.017 -0.5996 -0.2480 -1.3466
    1SOL    MW4 7388   2.733   2.437   2.998 -0.2007 -0.2396  0.0823
    1SOL     OW 7389   2.719   2.710   3.112 -0.0539  0.0964  0.1767
    1SOL    HW2 7390   2.726   2.683   3.204 -0.3676  1.2754  0.5674
    1SOL    HW3 7391   2.628   2.739   3.102  0.5585  2.1316  0.1369
    1SOL    MW4 7392   2.708   2.711   3.123 -0.0145  0.5205  0.2232
    1SOL     OW 7393   2.903   2.818   2.951  0.0103  0.1870  0.0324
    1SOL    HW2 7394   2.979   2.802   3.007 -0.2553  1.2764  0.7138
    1SOL    HW3 7395   2.832   2.768   2.992  0.0628  0.1581  0.0877
    1SOL    MW4 7396   2.904   2.809   2.963 -0.0176  0.3269  0.1299
    1SOL     OW 7397   2.938   3.063   3.101 -0.1818  0.1535 -0.5925
    1SOL    HW2 7398   2.858   3.113   3.086 -0.1144 -0.2807 -2.5658
    1SOL    HW3 7399   2.925   2.982   3.051  0.4296 -1.0560  1.1331
    1SOL    MW4 7400   2.926   3.059   3.093 -0.0923 -0.0632 -0.6251
    1SOL     OW 7401   2.718   3.204   3.008 -0.3937  0.0001  0.1434
    1SOL    HW2 7402   2.708   3.297   3.028  0.5269  0.0462  0.4110
    1SOL    HW3 7403   2.707   3.199   2.913 -1.3233  0.2584  0.2318
    1SOL    MW4 7404   2.715   3.216   2.998 -0.3951  0.0403  0.1905
    1SOL     OW 7405   2.724   3.478   3.114  0.6815  0.1778 -0.0304
    1SOL    HW2 7406   2.722   3.483   3.209  0.2831 -0.2701 -0.0145
    1SOL    HW3 7407   2.797   3.535   3.089  0.6718  0.4441  0.5280
    1SOL    MW4 7408   2.733   3.487   3.123  0.6275  0.1538  0.0455
    1SOL     OW 7409   2.932   3.617   3.000  0.4602  0.0277 -0.3147
    1SOL    HW2 7410   3.004   3.578   3.049  1.4022  1.0574 -0.8389
    1SOL    HW3 7411   2.925   3.706   3.034 -1.2875 -0.3844  0.4727
    1SOL    MW4 7412   2.940   3.624   3.011  0.3541  0.1092 -0.2799
    1SOL     OW 7413   2.925   3.869   3.103  0.1463 -0.2107  0.1193
    1SOL    HW2 7414   2.924   3.876   3.198  1.2773  2.0198 -0.0086
    1SOL    HW3 7415   2.837   3.898   3.076  0.1799  0.1716  0.4220
    1SOL    MW4 7416   2.913   3.874   3.112  0.2999  0.1340  0.1423
    1SOL     OW 7417   2.680   3.959   2.986  0.1251  0.1984  0.1282
    1SOL    HW2 7418   2.686   4.049   3.020 -2.5300 -0.0333  1.3528
    1SOL    HW3 7419   2.692   3.969   2.892  0.7256  1.7529  0.3512
    1SOL    MW4 7420   2.682   3.972   2.978 -0.1462  0.3729  0.3192
    1SOL     OW 7421   2.686   4.221   3.074 -0.3702 -0.3480 -0.0093
    1SOL    HW2 7422   2.693   4.216   3.169 -0.2470 -2.4536 -0.1004
    1SOL    HW3 7423   2.618   4.287   3.058 -0.6424 -0.2360  1.5526
    1SOL    MW4 7424   2.678   4.229   3.084 -0.3901 -0.6108  0.1848
    1SOL     OW 7425   2.913   4.394   2.981 -0.3965  0.5528 -0.0721
    1SOL    HW2 7426   2.985   4.354   3.029  0.0622  1.2594 -0.1585
    1SOL    HW3 7427   2.837   4.340   3.001 -0.1095  0.5630  1.0620
    1SOL    MW4 7428   2.912   4.382   2.990 -0.2983  0.6471  0.0663
    1SOL     OW 7429   3.379   0.013   3.120  0.4105  0.1953  0.1937
    1SOL    HW2 7430   3.444   0.075   3.086 -0.6532  1.0163 -0.3350
    1SOL    HW3 7431   3.400  -0.070   3.077  0.6544  0.6286 -0.5226
    1SOL    MW4 7432   3.391   0.010   3.110  0.3023  0.3608  0.0291
    1SOL     OW 7433   3.159   0.073   2.993  0.1666 -0.2377 -0.2583
    1SOL    HW2 7434   3.151   0.162   3.029  0.5984 -0.5852  0.7131
    1SOL    HW3 7435   3.232   0.035   3.040  0.2899 -0.9521 -1.0269
    1SOL    MW4 7436   3.167   0.080   3.004  0.2401 -0.3778 -0.2315
    1SOL     OW 7437   3.117   0.309   3.098  0.3702 -0.1900  0.0969
    1SOL    HW2 7438   3.191   0.364   3.073  0.5784 -0.8564 -0.7560
    1SOL    HW3 7439   3.040   0.357   3.067  0.6182 -0.9680 -1.7840
    1SOL    MW4 7440   3.116   0.322   3.091  0.4306 -0.3806 -0.2639
    1SOL     OW 7441   3.343   0.463   3.036  0.2438  0.7632  0.2910
    1SOL    HW2 7442   3.417   0.423   3.081  0.5434  0.6778 -0.2757
    1SOL    HW3 7443   3.360   0.448   2.943 -0.6487  0.4562  0.1770
    1SOL    MW4 7444   3.355   0.456   3.030  0.1657  0.7114  0.2012
    1SOL     OW 7445   3.372   0.748   3.096  0.4318  0.2161 -0.1485
    1SOL    HW2 7446   3.382   0.760   3.191 -2.1956  0.8641  0.0741
    1SOL    HW3 7447   3.356   0.654   3.085 -1.9555  0.5338  0.3450
    1SOL    MW4 7448   3.371   0.737   3.108 -0.2298  0.3434 -0.0539
    1SOL     OW 7449   3.155   0.909   3.043  0.1940  0.2208 -0.4486
    1SOL    HW2 7450   3.233   0.859   3.067  0.4315 -0.0502 -1.7397
    1SOL    HW3 7451   3.082   0.851   3.065  0.4255 -0.2376 -0.8723
    1SOL    MW4 7452   3.156   0.894   3.049  0.2558  0.1246 -0.6747
    1SOL     OW 7453   3.133   1.173   3.127  0.3557 -0.1277  0.5259
    1SOL    HW2 7454   3.217   1.201   3.091  0.0790 -0.8696 -0.7048
    1SOL    HW3 7455   3.123   1.083   3.098 -0.5900 -0.2383  1.1740
    1SOL    MW4 7456   3.142   1.165   3.119  0.1945 -0.2402  0.4489
    1SOL     OW 7457   3.366   1.284   3.010  0.7908  0.6050 -0.4781
    1SOL    HW2 7458   3.435   1.226   3.041 -0.9554 -0.9400  0.6346
    1SOL    HW3 7459   3.369   1.360   3.069  0.5322 -0.1800  0.5639
    1SOL    MW4 7460   3.375   1.286   3.022  0.5262  0.2975 -0.1941
    1SOL     OW 7461   3.384   1.529   3.132 -0.2797 -0.3108  0.0110
    1SOL    HW2 7462   3.371   1.513   3.226 -1.3806  1.1011  0.1164
    1SOL    HW3 7463   3.455   1.593   3.128  0.8908 -1.5878 -0.2123
    1SOL    MW4 7464   3.392   1.535   3.144 -0.2704 -0.2931 -0.0048
    1SOL     OW 7465   3.148   1.606   2.984  0.1813  0.1353  0.7161
    1SOL    HW2 7466   3.234   1.591   3.023  0.6105  1.5568  0.3475
    1SOL    HW3 7467   3.118   1.689   3.022 -0.6744  0.0449  0.2581
    1SOL    MW4 7468   3.156   1.615   2.994  0.1249  0.3109  0.6073
    1SOL     OW 7469   3.077   1.857   3.105  0.2724  0.0557  0.3725
    1SOL    HW2 7470   3.099   1.900   3.188 -0.9485 -0.1841  0.8299
    1SOL    HW3 7471   3.014   1.916   3.064  0.5445 -0.0444 -0.2017
    1SOL    MW4 7472   3.072   1.870   3.110  0.1471  0.0108  0.3569
    1SOL     OW 7473   3.323   2.070   3.034 -0.5320  0.4850  0.1431
    1SOL    HW2 7474   3.399   2.023   3.067 -0.6078 -0.4414 -0.9741
    1SOL    HW3 7475   3.248   2.014   3.057 -1.0646  2.1801  2.7247
    1SOL    MW4 7476   3.323   2.056   3.041 -0.6120  0.5865  0.3364
    1SOL     OW 7477   3.363   2.326   3.137  0.1989  0.0185 -0.3842
    1SOL    HW2 7478   3.359   2.336   3.232  0.0410  0.5137 -0.4413
    1SOL    HW3 7479   3.355   2.232   3.122  1.0757 -0.1479  0.1397
    1SOL    MW4 7480   3.362   2.315   3.148  0.2935  0.0618 -0.3223
    1SOL     OW 7481   3.144   2.438   2.988 -0.0810 -0.4182  0.8994
    1SOL    HW2 7482   3.222   2.407   3.035  0.3308 -0.5077  0.1638
    1SOL    HW3 7483   3.131   2.527   3.019  0.6676 -0.1960  0.5896
    1SOL    MW4 7484   3.153   2.445   2.998  0.0722 -0.4005  0.7617
    1SOL     OW 7485   3.125   2.697   3.090 -0.1629 -0.2117 -0.0135
    1SOL    HW2 7486   3.195   2.752   3.055  0.7018 -1.2081  0.1078
    1SOL    HW3 7487   3.142   2.693   3.184 -0.5810 -0.1839  0.0654
    1SOL    MW4 7488   3.137   2.704   3.098 -0.1040 -0.3397  0.0131
    1SOL     OW 7489   3.333   2.850   2.990 -0.0962 -0.2361  0.1065
    1SOL    HW2 7490   3.411   2.808   3.024 -0.0646 -0.3066 -0.0508
    1SOL    HW3 7491   3.324   2.931   3.041 -0.3386 -0.5907  0.6271
    1SOL    MW4 7492   3.342   2.855   3.001 -0.1240 -0.2925  0.1543
    1SOL     OW 7493   3.352   3.089   3.119 -0.4163  0.3327 -0.3912
    1SOL    HW2 7494   3.278   3.141   3.088 -0.0337  0.4546 -1.1163
    1SOL    HW3 7495   3.358   3.108   3.212 -2.5270 -1.1964  0.0983
    1SOL    MW4 7496   3.343   3.098   3.127 -0.6447  0.1471 -0.4222
    1SOL     OW 7497   3.140   3.241   3.036 -0.3359  0.3540 -0.0067
    1SOL    HW2 7498   3.070   3.177   3.051  0.8532 -1.1317 -0.6813
    1SOL    HW3 7499   3.151   3.243   2.941  0.9857  0.0919  0.1350
    1SOL    MW4 7500   3.132   3.233   3.026 -0.0048  0.1233 -0.0772
    1SOL     OW 7501   3.169   3.511   3.106 -0.3568 -0.6950 -0.3368
    1SOL    HW2 7502   3.256   3.538   3.076 -0.4368 -1.6446 -1.4568
    1SOL    HW3 7503   3.153   3.427   3.062 -2.0316 -0.3094 -0.5172
    1SOL    MW4 7504   3.178   3.503   3.096 -0.5884 -0.7696 -0.5081
    1SOL     OW 7505   3.394   3.617   3.006  0.1207 -0.0659 -0.0046
    1SOL    HW2 7506   3.455   3.573   3.064  1.0966  0.5041 -0.5846
    1SOL    HW3 7507   3.398   3.709   3.032 -0.1564  0.0441 -0.3394
    1SOL    MW4 7508   3.402   3.623   3.017  0.2127  0.0238 -0.1254
    1SOL     OW 7509   3.422   3.880   3.082 -0.0300 -0.0918 -0.0781
    1SOL    HW2 7510   3.425   3.867   3.177  0.7137 -0.0171 -0.0863
    1SOL    HW3 7511   3.337   3.920   3.066  0.4681  1.3530  0.7539
    1SOL    MW4 7512   3.411   3.884   3.092  0.1338  0.1085  0.0308
    1SOL     OW 7513   3.160   4.016   3.032  0.2676 -0.5493 -0.4915
    1SOL    HW2 7514   3.086   3.970   3.071 -0.6218 -0.2935 -1.8321
    1SOL    HW3 7515   3.147   4.006   2.937  0.5205  1.7264 -0.7873
    1SOL    MW4 7516   3.149   4.009   3.024  0.1833 -0.2155 -0.7074
    1SOL     OW 7517   3.133   4.286   3.090  0.2861 -0.3969  0.5188
    1SOL    HW2 7518   3.145   4.268   3.183 -1.0942  0.0156  0.7810
    1SOL    HW3 7519   3.123   4.200   3.049 -4.3195 -0.4512  1.4885
    1SOL    MW4 7520   3.133   4.273   3.097 -0.5038 -0.3490  0.6814
    1SOL     OW 7521   3.387   4.409   2.995  0.1289 -0.7999  0.3937
    1SOL    HW2 7522   3.469   4.373   3.029  0.5150 -0.8288 -0.5634
    1SOL    HW3 7523   3.319   4.352   3.031  0.6604 -1.8547 -0.2542
    1SOL    MW4 7524   3.389   4.397   3.004  0.2499 -0.9432  0.1819
    1SOL     OW 7525   3.815   0.004   3.121  0.1141  0.3221  0.0792
    1SOL    HW2 7526   3.809  -0.081   3.078  0.6328  0.4647 -0.2867
    1SOL    HW3 7527   3.744   0.056   3.081 -0.9501 -0.2835  1.1348
    1SOL    MW4 7528   3.805  -0.000   3.110  0.0420  0.2610  0.1702
    1SOL     OW 7529   3.605   0.137   2.992  0.3469 -0.2810 -0.0492
    1SOL    HW2 7530   3.598   0.221   3.036  0.8787 -0.8336  1.1397
    1SOL    HW3 7531   3.608   0.158   2.899  1.5770  1.0914  0.2798
    1SOL    MW4 7532   3.605   0.151   2.986  0.5796 -0.1729  0.1514
    1SOL     OW 7533   3.586   0.365   3.131 -0.4185 -0.3108  0.1785
    1SOL    HW2 7534   3.601   0.373   3.225  0.4625 -3.2099  0.3364
    1SOL    HW3 7535   3.664   0.401   3.090  0.6194 -1.9429  0.6668
    1SOL    MW4 7536   3.598   0.371   3.138 -0.1652 -0.9087  0.2637
    1SOL     OW 7537   3.819   0.462   3.023  0.2601  0.2430  0.2952
    1SOL    HW2 7538   3.882   0.429   3.087  1.9438  1.3598 -0.7527
    1SOL    HW3 7539   3.814   0.556   3.039 -0.1859  0.3543 -0.4433
    1SOL    MW4 7540   3.826   0.470   3.033  0.4234  0.4050  0.0596
    1SOL     OW 7541   3.802   0.735   3.104 -0.7097  0.3088  0.6012
    1SOL    HW2 7542   3.795   0.745   3.199 -0.4490  0.0161  0.6513
    1SOL    HW3 7543   3.883   0.779   3.081 -1.4593  1.5690  0.3357
    1SOL    MW4 7544   3.812   0.742   3.113 -0.7741  0.4365  0.5729
    1SOL     OW 7545   3.600   0.891   3.004  0.1449 -0.0618  0.1675
    1SOL    HW2 7546   3.676   0.847   3.042  1.5626  0.5928 -1.8697
    1SOL    HW3 7547   3.526   0.833   3.026  1.5718 -2.0499 -0.0986
    1SOL    MW4 7548   3.600   0.877   3.012  0.5202 -0.2378 -0.1366
    1SOL     OW 7549   3.587   1.156   3.135  0.0796  0.0835  0.0052
    1SOL    HW2 7550   3.665   1.205   3.107 -0.1703  0.1566 -0.5665
    1SOL    HW3 7551   3.595   1.072   3.091 -0.1566  0.0835 -0.0343
    1SOL    MW4 7552   3.599   1.152   3.125  0.0155  0.0932 -0.0756
    1SOL     OW 7553   3.805   1.299   3.031 -0.1559  0.1258  0.4547
    1SOL    HW2 7554   3.823   1.390   3.052  1.7604 -0.0775 -0.2664
    1SOL    HW3 7555   3.806   1.296   2.935 -1.6469 -0.3904  0.4294
    1SOL    MW4 7556   3.807   1.310   3.021 -0.0999  0.0309  0.3562
    1SOL     OW 7557   3.811   1.552   3.129 -0.2424 -0.1155 -0.0589
    1SOL    HW2 7558   3.804   1.550   3.225  0.6504  1.1384  0.0406
    1SOL    HW3 7559   3.737   1.605   3.101  0.5968  1.1411  0.0707
    1SOL    MW4 7560   3.800   1.559   3.138 -0.0138  0.2159 -0.0288
    1SOL     OW 7561   3.605   1.707   3.062  0.4434 -0.3557 -0.4663
    1SOL    HW2 7562   3.588   1.800   3.075  0.5349 -0.2431 -1.1674
    1SOL    HW3 7563   3.598   1.694   2.968 -1.2125 -1.3739 -0.2177
    1SOL    MW4 7564   3.602   1.717   3.052  0.2372 -0.4750 -0.5260
    1SOL     OW 7565   3.575   1.981   3.122  0.0694 -0.0563  0.0177
    1SOL    HW2 7566   3.583   1.953   3.214 -0.5505 -1.4763 -0.3495
    1SOL    HW3 7567   3.654   2.033   3.106 -0.4363  1.2846  1.7256
    1SOL    MW4 7568   3.586   1.984   3.132 -0.0789 -0.0666  0.1943
    1SOL     OW 7569   3.821   2.083   3.027 -0.2965  0.0871 -0.0917
    1SOL    HW2 7570   3.842   2.172   3.057 -0.4371  0.0292  0.1757
    1SOL    HW3 7571   3.795   2.094   2.935 -1.1183  0.4290  0.1790
    1SOL    MW4 7572   3.821   2.096   3.019 -0.4237  0.1247 -0.0210
    1SOL     OW 7573   3.818   2.325   3.128 -0.0441  0.2606  0.4312
    1SOL    HW2 7574   3.805   2.327   3.222 -1.4058 -1.6908  0.3184
    1SOL    HW3 7575   3.740   2.366   3.091 -0.5623 -0.9923  0.1044
    1SOL    MW4 7576   3.806   2.331   3.135 -0.2921 -0.1624  0.3734
    1SOL     OW 7577   3.584   2.451   3.021 -0.1553  0.5742 -0.6781
    1SOL    HW2 7578   3.582   2.541   3.055 -0.0262 -0.3446  1.8909
    1SOL    HW3 7579   3.512   2.407   3.066  1.1086 -1.1370 -0.2525
    1SOL    MW4 7580   3.574   2.457   3.032  0.0286  0.2272 -0.2828
    1SOL     OW 7581   3.558   2.724   3.080  0.1519 -0.6195 -0.5134
    1SOL    HW2 7582   3.550   2.728   3.176  0.3560 -0.9251 -0.4833
    1SOL    HW3 7583   3.646   2.757   3.062 -0.2994  0.5395 -0.6836
    1SOL    MW4 7584   3.568   2.729   3.091  0.1192 -0.5066 -0.5319
    1SOL     OW 7585   3.804   2.849   3.028 -0.4122 -0.4393 -0.0526
    1SOL    HW2 7586   3.793   2.937   3.063 -0.7486 -0.6735  0.4324
    1SOL    HW3 7587   3.796   2.859   2.933 -0.0054  0.1166 -0.0260
    1SOL    MW4 7588   3.802   2.862   3.020 -0.4029 -0.3970  0.0150
    1SOL     OW 7589   3.783   3.108   3.123 -0.4557 -0.2402 -0.6195
    1SOL    HW2 7590   3.863   3.140   3.082  0.4237  0.0937  1.3053
    1SOL    HW3 7591   3.712   3.154   3.077  0.6130  1.8523 -0.2366
    1SOL    MW4 7592   3.784   3.118   3.111 -0.1988  0.0801 -0.3147
    1SOL     OW 7593   3.566   3.241   3.006 -0.3982  0.2658  0.3916
    1SOL    HW2 7594   3.497   3.181   3.034 -0.8261 -0.0162 -1.2459
    1SOL    HW3 7595   3.549   3.257   2.913  0.6102  1.7143  0.4265
    1SOL    MW4 7596   3.555   3.235   2.997 -0.3214  0.4199  0.1802
    1SOL     OW 7597   3.591   3.479   3.148  0.0135 -0.2626  0.0544
    1SOL    HW2 7598   3.666   3.519   3.103  1.0185 -1.0180  1.0260
    1SOL    HW3 7599   3.576   3.398   3.101 -2.1890  1.3073 -2.0789
    1SOL    MW4 7600   3.599   3.474   3.136 -0.1445 -0.1554 -0.0989
    1SOL     OW 7601   3.786   3.629   3.022 -0.0758  0.2845 -0.1798
    1SOL    HW2 7602   3.813   3.705   3.072 -2.3776  0.8267  0.2740
    1SOL    HW3 7603   3.806   3.652   2.931  1.2402  0.5460  0.1739
    1SOL    MW4 7604   3.792   3.642   3.016 -0.2060  0.3901 -0.0732
    1SOL     OW 7605   3.848   3.881   3.117  0.2716  0.4017  0.3945
    1SOL    HW2 7606   3.854   3.892   3.212  0.9804  1.0748  0.2795
    1SOL    HW3 7607   3.774   3.935   3.091  1.0386  1.4555  0.3755
    1SOL    MW4 7608   3.839   3.890   3.126  0.4666  0.6294  0.3769
    1SOL     OW 7609   3.656   4.044   3.026  0.3786 -0.4116  0.0844
    1SOL    HW2 7610   3.585   3.995   3.066  0.3592 -0.3676  0.1040
    1SOL    HW3 7611   3.641   4.033   2.932 -1.9520  2.8531 -0.0080
    1SOL    MW4 7612   3.645   4.036   3.019  0.0687  0.0253  0.0749
    1SOL     OW 7613   3.604   4.289   3.112 -0.0061 -0.2907  0.2723
    1SOL    HW2 7614   3.676   4.337   3.071 -0.2725  0.4200  0.6232
    1SOL    HW3 7615   3.617   4.198   3.084  1.0417 -0.1783  0.3609
    1SOL    MW4 7616   3.615   4.284   3.103  0.0970 -0.1817  0.3302
    1SOL     OW 7617   3.837   4.423   2.987  0.7792 -0.1564 -0.0432
    1SOL    HW2 7618   3.899   4.367   3.032 -1.3610 -3.1311 -0.6453
    1SOL    HW3 7619   3.864   4.420   2.895 -0.6326 -2.0887 -0.4321
    1SOL    MW4 7620   3.849   4.415   2.980  0.3104 -0.8039 -0.1738
    1SOL     OW 7621   4.283   0.005   3.094  0.0933 -0.4077 -0.0274
    1SOL    HW2 7622   4.310   0.026   3.184  1.0994  0.5686 -0.5417
    1SOL    HW3 7623   4.271  -0.090   3.094  2.3626 -0.7332  0.5672
    1SOL    MW4 7624   4.285  -0.004   3.106  0.5260 -0.3219 -0.0169
    1SOL     OW 7625   4.047   0.147   3.040 -0.1263  0.2087  0.3849
    1SOL    HW2 7626   4.130   0.102   3.051  0.5055  1.1473 -0.4269
    1SOL    HW3 7627   3.983   0.092   3.085  0.7509 -1.0864  0.0714
    1SOL    MW4 7628   4.049   0.134   3.047  0.0725  0.1617  0.2365
    1SOL     OW 7629   4.065   0.390   3.163 -0.3374  0.5342 -0.5103
    1SOL    HW2 7630   4.133   0.442   3.120 -2.4395  1.8409 -2.4318
    1SOL    HW3 7631   4.064   0.308   3.115  0.5218  0.1496  0.1337
    1SOL    MW4 7632   4.074   0.386   3.151 -0.5016  0.6559 -0.6788
    1SOL     OW 7633   4.269   0.516   3.017  0.1209 -0.0346 -0.2917
    1SOL    HW2 7634   4.282   0.606   3.044 -0.3202  0.0633 -0.3945
    1SOL    HW3 7635   4.290   0.516   2.923  1.6062 -0.3642  0.0375
    1SOL    MW4 7636   4.273   0.528   3.008  0.2589 -0.0652 -0.2618
    1SOL     OW 7637   4.295   0.786   3.079 -0.1895 -0.2077  0.0598
    1SOL    HW2 7638   4.217   0.820   3.035  0.1206 -0.9038 -1.0414
    1SOL    HW3 7639   4.366   0.843   3.051 -0.1829  0.0150  0.5280
    1SOL    MW4 7640   4.294   0.798   3.070 -0.1478 -0.2701 -0.0241
    1SOL     OW 7641   4.037   0.885   3.029  0.0956 -0.0908  0.0041
    1SOL    HW2 7642   4.034   0.973   3.067 -2.8178 -0.5396  0.9619
    1SOL    HW3 7643   4.041   0.900   2.935  0.0296  1.0701  0.1725
    1SOL    MW4 7644   4.037   0.899   3.022 -0.2980  0.0032  0.1528
    1SOL     OW 7645   4.035   1.163   3.126 -0.7401 -0.1323 -0.1661
    1SOL    HW2 7646   4.020   1.164   3.221 -0.9115  1.7177 -0.1855
    1SOL    HW3 7647   3.959   1.209   3.090 -0.9922 -1.3963 -1.2611
    1SOL    MW4 7648   4.023   1.169   3.134 -0.7963 -0.0548 -0.3133
    1SOL     OW 7649   4.273   1.270   3.043 -0.0556  0.1825  0.2759
    1SOL    HW2 7650   4.196   1.226   3.079 -0.4127  0.2111 -0.4476
    1SOL    HW3 7651   4.256   1.276   2.949  1.1989 -0.5590 -0.0160
    1SOL    MW4 7652   4.261   1.265   3.035  0.0625  0.0885  0.1421
    1SOL     OW 7653   4.298   1.515   3.178  0.1719 -0.0617 -0.3557
    1SOL    HW2 7654   4.221   1.565   3.151 -0.0582  0.3800  1.0747
    1SOL    HW3 7655   4.282   1.426   3.145 -1.1291 -0.0607  0.2649
    1SOL    MW4 7656   4.286   1.510   3.170 -0.0300 -0.0032 -0.0851
    1SOL     OW 7657   4.062   1.649   3.065 -0.2019 -0.5747  0.2944
    1SOL    HW2 7658   4.049   1.738   3.097  2.0838  0.2897 -1.0722
    1SOL    HW3 7659   3.975   1.609   3.069 -1.0461  1.3571  1.9442
    1SOL    MW4 7660   4.049   1.655   3.070 -0.0119 -0.2058  0.3316
    1SOL     OW 7661   4.013   1.917   3.137  0.5485  0.4769  0.2752
    1SOL    HW2 7662   4.086   1.971   3.106  0.9385 -1.5356 -2.4435
    1SOL    HW3 7663   3.934   1.964   3.110  0.8555  1.1304  0.5132
    1SOL    MW4 7664   4.012   1.930   3.130  0.6404  0.2975 -0.0520
    1SOL     OW 7665   4.225   2.079   3.039  0.2585 -0.3554 -0.5373
    1SOL    HW2 7666   4.241   2.172   3.058  0.8495 -0.4972 -0.3171
    1SOL    HW3 7667   4.205   2.077   2.946  0.4379 -0.0248 -0.5857
    1SOL    MW4 7668   4.225   2.091   3.029  0.3600 -0.3302 -0.5150
    1SOL     OW 7669   4.272   2.339   3.116 -0.4297 -0.1812  0.2027
    1SOL    HW2 7670   4.194   2.384   3.082 -0.4789  0.0230  0.5886
    1SOL    HW3 7671   4.345   2.379   3.069 -0.5699 -0.4773 -0.2698
    1SOL    MW4 7672   4.271   2.350   3.105 -0.4544 -0.1934  0.1915
    1SOL     OW 7673   4.041   2.466   3.033 -0.4910 -0.5410 -0.1168
    1SOL    HW2 7674   4.045   2.557   3.062 -0.3032 -0.4572 -0.3980
    1SOL    HW3 7675   3.964   2.430   3.077 -1.2060  0.0584 -0.8606
    1SOL    MW4 7676   4.031   2.474   3.042 -0.5603 -0.4506 -0.2518
    1SOL     OW 7677   4.040   2.729   3.127  0.1986  0.5784 -0.0350
    1SOL    HW2 7678   4.041   2.719   3.222  0.5298  3.4979  0.2903
    1SOL    HW3 7679   3.956   2.771   3.108  0.2111  0.1701 -1.0427
    1SOL    MW4 7680   4.029   2.733   3.137  0.2437  0.9098 -0.1249
    1SOL     OW 7681   4.259   2.826   3.003  0.0373  0.2495 -0.1497
    1SOL    HW2 7682   4.180   2.788   3.041 -0.5175  1.9941  0.4857
    1SOL    HW3 7683   4.331   2.782   3.047 -0.5958  1.1883  1.8719
    1SOL    MW4 7684   4.258   2.816   3.014 -0.1197  0.6037  0.2007
    1SOL     OW 7685   4.257   3.092   3.116 -0.4447  0.1855 -0.0758
    1SOL    HW2 7686   4.173   3.134   3.094  0.0499  1.0192 -0.4056
    1SOL    HW3 7687   4.251   3.005   3.078 -0.5968  0.7446 -1.3634
    1SOL    MW4 7688   4.245   3.086   3.108 -0.3991  0.3693 -0.2890
    1SOL     OW 7689   4.019   3.196   3.015 -0.3077 -0.1912 -0.2356
    1SOL    HW2 7690   4.014   3.289   3.038  0.6329  0.3044 -1.9732
    1SOL    HW3 7691   4.008   3.194   2.920 -0.2725 -1.8584 -0.2198
    1SOL    MW4 7692   4.017   3.208   3.006 -0.1783 -0.3455 -0.4628
    1SOL     OW 7693   4.023   3.474   3.118 -0.1631  0.5290  0.0413
    1SOL    HW2 7694   4.050   3.483   3.209  0.9364  1.3731 -0.3651
    1SOL    HW3 7695   3.951   3.537   3.108  0.8123  1.6465 -0.0963
    1SOL    MW4 7696   4.017   3.484   3.129  0.1106  0.7880 -0.0303
    1SOL     OW 7697   4.261   3.619   3.009 -0.3940  0.3900 -0.1339
    1SOL    HW2 7698   4.243   3.713   3.015 -1.2961  0.5028 -3.2845
    1SOL    HW3 7699   4.183   3.578   3.047 -0.5440  0.9223  0.1452
    1SOL    MW4 7700   4.248   3.626   3.014 -0.5331  0.4754 -0.5126
    1SOL     OW 7701   4.255   3.889   3.095 -0.4976  0.4361  0.4656
    1SOL    HW2 7702   4.182   3.937   3.056 -1.2562 -0.4783  0.7457
    1SOL    HW3 7703   4.333   3.929   3.056 -1.1622  1.0911 -0.2093
    1SOL    MW4 7704   4.255   3.900   3.084 -0.6857  0.4022  0.4137
    1SOL     OW 7705   4.041   4.062   3.016  0.4746  0.1015  0.1257
    1SOL    HW2 7706   4.039   4.136   3.077 -0.7984  0.2398 -0.0683
    1SOL    HW3 7707   3.968   4.006   3.043  0.9450 -0.6833 -0.2201
    1SOL    MW4 7708   4.031   4.065   3.028  0.3681  0.0162  0.0546
    1SOL     OW 7709   4.020   4.289   3.181  0.4424 -0.9154  0.2195
    1SOL    HW2 7710   4.044   4.288   3.273 -2.6525  1.0043  1.1489
    1SOL    HW3 7711   4.098   4.320   3.136  0.5806  2.6906  2.7399
    1SOL    MW4 7712   4.033   4.293   3.187  0.0529 -0.1869  0.6745
    1SOL     OW 7713   4.233   4.355   3.042 -0.5156 -0.5693 -0.1213
    1SOL    HW2 7714   4.317   4.310   3.055 -0.5156 -0.4719  0.2124
    1SOL    HW3 7715   4.232   4.375   2.949 -0.8081 -1.8552 -0.4064
    1SOL    MW4 7716   4.244   4.352   3.032 -0.5536 -0.7262 -0.1152
    1SOL     OW 7717   0.236   4.633   3.383  0.1392  0.1159 -0.0840
    1SOL    HW2 7718   0.304   4.689   3.419  0.4745  0.0015 -0.5331
    1SOL    HW3 7719   0.246   4.549   3.429  0.9431 -0.2181 -0.8504
    1SOL    MW4 7720   0.246   4.629   3.394  0.2895  0.0567 -0.2444
    1SOL     OW 7721   0.027   0.107   3.508  0.2065  0.0516  0.1012
    1SOL    HW2 7722   0.024   0.189   3.459  0.7605 -0.8659 -1.5031
    1SOL    HW3 7723   0.103   0.060   3.474 -0.0384 -1.0956  1.0593
    1SOL    MW4 7724   0.036   0.111   3.497  0.2473 -0.2208  0.0162
    1SOL     OW 7725   0.034   0.359   3.413  0.1030  0.1515  0.3955
    1SOL    HW2 7726  -0.031   0.427   3.428  0.3944  0.1240  1.8470
    1SOL    HW3 7727   0.117   0.398   3.440  1.0535  0.8819 -3.3017
    1SOL    MW4 7728   0.036   0.373   3.419  0.2668  0.2443  0.0994
    1SOL     OW 7729   0.260   0.480   3.471 -0.0369 -0.8641 -0.5765
    1SOL    HW2 7730   0.334   0.445   3.422  0.6015 -1.5887  0.8822
    1SOL    HW3 7731   0.245   0.567   3.434  2.1337 -0.3334 -0.2464
    1SOL    MW4 7732   0.267   0.487   3.459  0.3337 -0.8897 -0.3402
    1SOL     OW 7733   0.215   0.739   3.342 -0.1036 -0.1688  0.0387
    1SOL    HW2 7734   0.295   0.784   3.370 -0.4483  0.3607  0.1827
    1SOL    HW3 7735   0.144   0.792   3.379 -0.5634  0.2704 -1.4356
    1SOL    MW4 7736   0.216   0.752   3.351 -0.2097 -0.0411 -0.1366
    1SOL     OW 7737   0.011   0.892   3.443  0.2605  0.1063 -0.1762
    1SOL    HW2 7738   0.020   0.900   3.538  1.7297 -0.3523 -0.2557
    1SOL    HW3 7739  -0.014   0.980   3.414  1.2787  0.6347  0.4914
    1SOL    MW4 7740   0.009   0.905   3.452  0.5884  0.1155 -0.0985
    1SOL     OW 7741   4.441   1.197   3.396 -0.0615  0.2698 -0.3781
    1SOL    HW2 7742   4.529   1.218   3.429 -0.0700  0.5996 -0.5690
    1SOL    HW3 7743   4.452   1.187   3.302 -0.4136  1.2734 -0.5263
    1SOL    MW4 7744   4.454   1.198   3.388 -0.1097  0.4457 -0.4227
    1SOL     OW 7745   0.193   1.314   3.467  0.1172  0.1523  0.3699
    1SOL    HW2 7746   0.224   1.296   3.556 -0.5591  1.4216  0.8869
    1SOL    HW3 7747   0.193   1.410   3.461 -0.7894  0.0980 -0.6517
    1SOL    MW4 7748   0.197   1.325   3.478 -0.0916  0.3126  0.3033
    1SOL     OW 7749   0.197   1.592   3.401  0.4924 -0.5935  0.6560
    1SOL    HW2 7750   0.286   1.623   3.419  0.7683 -0.3559 -0.9693
    1SOL    HW3 7751   0.202   1.558   3.311 -1.1678 -0.1158  0.3754
    1SOL    MW4 7752   0.210   1.592   3.391  0.3097 -0.4990  0.4046
    1SOL     OW 7753   4.468   1.701   3.514 -0.0576 -0.1518 -0.0131
    1SOL    HW2 7754   4.393   1.644   3.494  0.7392 -1.6807  1.2594
    1SOL    HW3 7755   4.541   1.662   3.466  0.0928  0.9814 -0.7402
    1SOL    MW4 7756   4.467   1.688   3.505  0.0677 -0.2041  0.0587
    1SOL     OW 7757   4.422   1.963   3.407 -0.1381  0.2532 -0.3380
    1SOL    HW2 7758   4.451   1.873   3.424  0.5906  0.4554 -0.4953
    1SOL    HW3 7759   4.415   1.969   3.312 -0.1596  0.3666 -0.3298
    1SOL    MW4 7760   4.425   1.952   3.396 -0.0448  0.2948 -0.3576
    1SOL     OW 7761   0.210   2.060   3.434 -0.0084  0.0179  0.6688
    1SOL    HW2 7762   0.124   2.020   3.418 -0.4656  0.9110  0.8773
    1SOL    HW3 7763   0.214   2.072   3.529  0.0832  0.5765  0.5947
    1SOL    MW4 7764   0.199   2.056   3.445 -0.0566  0.2096  0.6864
    1SOL     OW 7765   0.257   2.318   3.369 -0.1596  0.0575 -0.0849
    1SOL    HW2 7766   0.188   2.362   3.418  1.2612  0.3864  1.6606
    1SOL    HW3 7767   0.248   2.225   3.391  1.4951  0.3947  2.1353
    1SOL    MW4 7768   0.246   2.311   3.378  0.2462  0.1452  0.4382
    1SOL     OW 7769   0.023   2.462   3.495 -0.1976 -0.6055  0.0660
    1SOL    HW2 7770   0.005   2.459   3.589 -1.0393  0.6810 -0.0332
    1SOL    HW3 7771  -0.053   2.421   3.454 -0.8154  0.7038 -0.1369
    1SOL    MW4 7772   0.011   2.456   3.502 -0.3902 -0.2627  0.0260
    1SOL     OW 7773   0.015   2.727   3.387 -0.7725 -0.1566  0.0539
    1SOL    HW2 7774   0.085   2.771   3.434 -0.0341 -0.9829 -0.2568
    1SOL    HW3 7775   0.012   2.639   3.425 -0.2501 -0.7935 -1.3269
    1SOL    MW4 7776   0.024   2.721   3.398 -0.6061 -0.3498 -0.1693
    1SOL     OW 7777   0.205   2.851   3.537 -0.1149 -0.0029 -0.1122
    1SOL    HW2 7778   0.285   2.801   3.521  0.0891 -0.0060  0.8525
    1SOL    HW3 7779   0.200   2.914   3.465  0.7642  0.0083 -0.1673
    1SOL    MW4 7780   0.215   2.853   3.526  0.0280 -0.0017  0.0079
    1SOL     OW 7781   0.203   3.092   3.404  0.0006  0.0627  0.2299
    1SOL    HW2 7782   0.129   3.147   3.429  0.3087  0.5071  0.1617
    1SOL    HW3 7783   0.214   3.107   3.311  0.4645  0.3506  0.3274
    1SOL    MW4 7784   0.194   3.101   3.395  0.1024  0.1593  0.2337
    1SOL     OW 7785   4.489   3.225   3.505  0.2182 -0.1677 -0.3765
    1SOL    HW2 7786   4.411   3.193   3.461  0.0058 -0.2167  0.0300
    1SOL    HW3 7787   4.490   3.319   3.489  0.5912 -0.3066 -1.1801
    1SOL    MW4 7788   4.479   3.233   3.497  0.2394 -0.1926 -0.4287
    1SOL     OW 7789   4.486   3.483   3.412  0.2344  0.0619 -0.0267
    1SOL    HW2 7790   4.421   3.534   3.459 -0.1577 -0.7713  0.3581
    1SOL    HW3 7791   4.464   3.495   3.320  0.3860  0.8928  0.0475
    1SOL    MW4 7792   4.475   3.491   3.406  0.2022  0.0618  0.0336
    1SOL     OW 7793   0.231   3.648   3.490  0.1389 -0.1732 -0.2806
    1SOL    HW2 7794   0.242   3.651   3.585  0.7278  1.2511 -0.3855
    1SOL    HW3 7795   0.164   3.581   3.475  0.5403 -0.8944  1.0888
    1SOL    MW4 7796   0.224   3.639   3.500  0.2695 -0.0806 -0.1137
    1SOL     OW 7797   0.237   3.905   3.387 -0.2627 -0.6240  0.5320
    1SOL    HW2 7798   0.160   3.951   3.419 -0.9934 -1.0272 -0.5928
    1SOL    HW3 7799   0.225   3.814   3.415 -0.6198 -0.8584 -0.3398
    1SOL    MW4 7800   0.225   3.899   3.395 -0.4062 -0.7083  0.2687
    1SOL     OW 7801   0.003   4.013   3.483 -0.0299 -0.1454  0.0967
    1SOL    HW2 7802  -0.011   4.030   3.576 -2.3841 -2.2175  0.2034
    1SOL    HW3 7803   0.023   4.098   3.445 -0.2557  0.9237  2.3060
    1SOL    MW4 7804   0.004   4.026   3.490 -0.3703 -0.2775  0.4025
    1SOL     OW 7805   0.025   4.275   3.393 -0.3898  0.0498 -0.1010
    1SOL    HW2 7806  -0.056   4.320   3.417 -0.0870  0.4828  0.1086
    1SOL    HW3 7807   0.094   4.321   3.441  0.1936  0.7599 -1.6103
    1SOL    MW4 7808   0.023   4.287   3.403 -0.2728  0.2007 -0.2725
    1SOL     OW 7809   0.233   4.397   3.502 -0.3260 -0.2995  0.2518
    1SOL    HW2 7810   0.252   4.401   3.596 -0.1377  0.7953  0.1722
    1SOL    HW3 7811   0.306   4.347   3.465  0.6592  1.0150  0.4111
    1SOL    MW4 7812   0.245   4.391   3.510 -0.1711  0.0186  0.2623
    1SOL     OW 7813   0.668   4.660   3.410 -0.0432 -0.0494 -0.0124
    1SOL    HW2 7814   0.745   4.710   3.438 -0.3557  0.3258  0.1844
    1SOL    HW3 7815   0.662   4.676   3.316 -0.4124  0.6632  0.1284
    1SOL    MW4 7816   0.677   4.669   3.401 -0.1332  0.0939  0.0324
    1SOL     OW 7817   0.448   0.126   3.475 -0.2076  0.9161 -0.7686
    1SOL    HW2 7818   0.445   0.133   3.571  0.4929  0.9738 -0.7501
    1SOL    HW3 7819   0.528   0.076   3.457 -0.8888 -0.0132 -1.2751
    1SOL    MW4 7820   0.458   0.120   3.486 -0.2051  0.8011 -0.8330
    1SOL     OW 7821   0.484   0.366   3.333  0.1076  0.2341  0.4591
    1SOL    HW2 7822   0.535   0.424   3.390  0.3389  1.1329 -0.6285
    1SOL    HW3 7823   0.477   0.284   3.381  2.4549  0.1422  0.6984
    1SOL    MW4 7824   0.489   0.363   3.347  0.4478  0.3405  0.3471
    1SOL     OW 7825   0.684   0.493   3.478  0.2974  0.1529 -0.0172
    1SOL    HW2 7826   0.691   0.503   3.573 -0.1038 -0.6743  0.1026
    1SOL    HW3 7827   0.769   0.456   3.452  1.0148  1.8611 -0.2005
    1SOL    MW4 7828   0.696   0.490   3.487  0.3391  0.2691 -0.0255
    1SOL     OW 7829   0.687   0.756   3.384 -0.0629  0.0174  0.5322
    1SOL    HW2 7830   0.606   0.806   3.401 -1.2454 -1.1348 -1.5124
    1SOL    HW3 7831   0.668   0.668   3.418  0.8605  0.0989  1.2778
    1SOL    MW4 7832   0.674   0.751   3.391 -0.0971 -0.1239  0.3607
    1SOL     OW 7833   0.441   0.868   3.446 -0.5510  0.3194 -0.1290
    1SOL    HW2 7834   0.444   0.879   3.541  0.5195 -0.3969 -0.0627
    1SOL    HW3 7835   0.431   0.957   3.411 -0.3714  0.6409  0.6363
    1SOL    MW4 7836   0.440   0.881   3.454 -0.3861  0.2673 -0.0191
    1SOL     OW 7837   0.411   1.177   3.389 -0.0907  0.0418 -0.1837
    1SOL    HW2 7838   0.337   1.237   3.401  0.0299  0.2195 -0.3199
    1SOL    HW3 7839   0.437   1.190   3.298 -0.2302 -0.4101 -0.2891
    1SOL    MW4 7840   0.405   1.186   3.378 -0.0932  0.0055 -0.2155
    1SOL     OW 7841   0.660   1.273   3.485  0.1542  0.0137  0.1872
    1SOL    HW2 7842   0.576   1.248   3.447  1.2580 -0.5300 -1.9831
    1SOL    HW3 7843   0.667   1.367   3.467  0.7804 -0.2862 -1.2611
    1SOL    MW4 7844   0.650   1.282   3.477  0.3825 -0.0976 -0.2899
    1SOL     OW 7845   0.669   1.537   3.396  0.1747  0.1291 -0.1253
    1SOL    HW2 7846   0.741   1.597   3.413  0.3917 -0.3064  0.5077
    1SOL    HW3 7847   0.592   1.582   3.430  0.5307 -0.5170  1.6167
    1SOL    MW4 7848   0.668   1.551   3.403  0.2503 -0.0136  0.1879
    1SOL     OW 7849   0.447   1.683   3.480 -0.0333  0.3986 -0.5304
    1SOL    HW2 7850   0.436   1.707   3.572  2.5777  0.5555 -0.2098
    1SOL    HW3 7851   0.464   1.766   3.435  1.8731 -0.0077 -0.6019
    1SOL    MW4 7852   0.448   1.697   3.486  0.5627  0.3656 -0.4976
    1SOL     OW 7853   0.450   1.935   3.355  0.3609 -0.4943  0.2277
    1SOL    HW2 7854   0.380   2.000   3.362 -0.0001 -0.7975 -0.4800
    1SOL    HW3 7855   0.459   1.920   3.261  1.2591 -0.5905  0.3264
    1SOL    MW4 7856   0.442   1.941   3.343  0.4317 -0.5472  0.1471
    1SOL     OW 7857   0.678   2.060   3.451  0.3512 -0.3542 -0.1337
    1SOL    HW2 7858   0.665   2.082   3.544  0.1291  1.6949 -0.6281
    1SOL    HW3 7859   0.595   2.023   3.423 -0.1236  0.5434  0.0706
    1SOL    MW4 7860   0.666   2.058   3.460  0.2592  0.0346 -0.1719
    1SOL     OW 7861   0.691   2.322   3.348 -0.7200  0.1608  0.0183
    1SOL    HW2 7862   0.777   2.356   3.374 -1.4830  1.0158  1.4529
    1SOL    HW3 7863   0.692   2.231   3.377 -0.7143  0.4830  1.0618
    1SOL    MW4 7864   0.703   2.315   3.355 -0.8199  0.3161  0.3452
    1SOL     OW 7865   0.485   2.446   3.470 -0.3321 -0.2315  0.4324
    1SOL    HW2 7866   0.571   2.414   3.441 -0.9327 -0.7656 -0.7713
    1SOL    HW3 7867   0.422   2.393   3.423 -1.3436  1.9942 -0.8351
    1SOL    MW4 7868   0.488   2.435   3.460 -0.5448 -0.0086  0.1066
    1SOL     OW 7869   0.405   2.707   3.402  0.1012  0.2512  0.5121
    1SOL    HW2 7870   0.419   2.613   3.411 -2.2890 -0.1538  0.4741
    1SOL    HW3 7871   0.398   2.722   3.308  0.3282  0.4503  0.5252
    1SOL    MW4 7872   0.406   2.696   3.391 -0.1842  0.2244  0.5088
    1SOL     OW 7873   0.655   2.850   3.457  0.1986  0.3105  0.2132
    1SOL    HW2 7874   0.722   2.784   3.437 -0.4420 -1.1617  2.6509
    1SOL    HW3 7875   0.572   2.804   3.443 -0.2777  1.1697  0.1897
    1SOL    MW4 7876   0.653   2.835   3.452  0.0513  0.2294  0.5317
    1SOL     OW 7877   0.660   3.106   3.371  0.0608 -0.0370  0.5274
    1SOL    HW2 7878   0.577   3.138   3.407 -1.7253 -1.7743 -1.8988
    1SOL    HW3 7879   0.670   3.018   3.409  0.1078 -0.3627 -0.2404
    1SOL    MW4 7880   0.650   3.098   3.381 -0.1687 -0.3092  0.1061
    1SOL     OW 7881   0.444   3.220   3.496  0.2732 -0.0539 -0.3664
    1SOL    HW2 7882   0.442   3.233   3.591 -2.7535  0.9895 -0.5277
    1SOL    HW3 7883   0.373   3.158   3.479  0.8425 -0.2857 -1.9382
    1SOL    MW4 7884   0.434   3.214   3.506 -0.0510  0.0534 -0.5951
    1SOL     OW 7885   0.437   3.479   3.415  0.0401  0.1520 -0.1247
    1SOL    HW2 7886   0.424   3.389   3.444  0.5972  0.3229  0.6714
    1SOL    HW3 7887   0.371   3.530   3.463 -0.7682  0.0740 -1.1270
    1SOL    MW4 7888   0.427   3.474   3.425  0.0070  0.1640 -0.1519
    1SOL     OW 7889   0.676   3.619   3.489  0.0008 -0.3785 -0.2844
    1SOL    HW2 7890   0.748   3.565   3.459  0.8333  1.0306 -0.8718
    1SOL    HW3 7891   0.598   3.565   3.476  0.7470 -1.1731 -1.4826
    1SOL    MW4 7892   0.675   3.605   3.483  0.2091 -0.2973 -0.5200
    1SOL     OW 7893   0.645   3.860   3.358 -0.2235 -0.3237 -0.5768
    1SOL    HW2 7894   0.582   3.910   3.411 -0.1349  0.1274 -0.8934
    1SOL    HW3 7895   0.669   3.785   3.413 -0.7550 -0.2982 -0.3067
    1SOL    MW4 7896   0.640   3.857   3.372 -0.2819 -0.2611 -0.5827
    1SOL     OW 7897   0.469   3.996   3.527 -0.1556  0.4266 -0.4554
    1SOL    HW2 7898   0.452   4.081   3.485 -0.6844  1.0068  0.9263
    1SOL    HW3 7899   0.389   3.945   3.511 -0.4095  0.6940 -0.0501
    1SOL    MW4 7900   0.456   4.001   3.519 -0.2588  0.5383 -0.2193
    1SOL     OW 7901   0.433   4.248   3.403 -0.3461 -0.1918  0.0359
    1SOL    HW2 7902   0.508   4.298   3.433  0.2593 -2.1171  1.8810
    1SOL    HW3 7903   0.438   4.251   3.307  1.4380  0.6413  0.1452
    1SOL    MW4 7904   0.443   4.255   3.394 -0.0308 -0.3362  0.2940
    1SOL     OW 7905   0.641   4.412   3.507 -0.0329  0.0148  0.0847
    1SOL    HW2 7906   0.727   4.383   3.475  0.2866 -0.1631  1.1086
    1SOL    HW3 7907   0.635   4.504   3.479 -0.0464 -0.3316 -1.0825
    1SOL    MW4 7908   0.652   4.420   3.499  0.0075 -0.0544  0.0658
    1SOL     OW 7909   1.121   4.626   3.405 -0.0158 -0.1163 -0.0826
    1SOL    HW2 7910   1.201   4.672   3.431 -0.3157  0.9271 -0.9990
    1SOL    HW3 7911   1.121   4.629   3.310 -1.9544  1.2645 -0.0605
    1SOL    MW4 7912   1.132   4.632   3.396 -0.3110  0.2036 -0.2005
    1SOL     OW 7913   0.899   0.098   3.524 -0.0899 -0.3055 -0.1731
    1SOL    HW2 7914   0.895   0.095   3.619  1.3600  0.0039 -0.0841
    1SOL    HW3 7915   0.966   0.034   3.500  0.8327  0.8795 -0.8518
    1SOL    MW4 7916   0.907   0.089   3.533  0.2230 -0.1083 -0.2513
    1SOL     OW 7917   0.910   0.365   3.398 -0.0301 -0.1370 -0.0647
    1SOL    HW2 7918   0.967   0.429   3.441 -1.1953  0.3448  0.7635
    1SOL    HW3 7919   0.920   0.286   3.451  0.9402 -0.4712 -0.7352
    1SOL    MW4 7920   0.919   0.363   3.411 -0.0558 -0.1175 -0.0441
    1SOL     OW 7921   1.122   0.527   3.483 -0.4152 -0.0146  0.1230
    1SOL    HW2 7922   1.126   0.533   3.578 -0.4185 -0.4849  0.1518
    1SOL    HW3 7923   1.129   0.618   3.453 -0.0232  0.0979  0.5574
    1SOL    MW4 7924   1.124   0.540   3.491 -0.3639 -0.0618  0.1843
    1SOL     OW 7925   1.122   0.802   3.371 -0.2355  0.3777 -0.2425
    1SOL    HW2 7926   1.194   0.851   3.411  0.4929  0.3620 -1.5221
    1SOL    HW3 7927   1.045   0.827   3.422  0.6293  0.5525  1.0174
    1SOL    MW4 7928   1.122   0.812   3.383 -0.0254  0.3986 -0.2451
    1SOL     OW 7929   0.895   0.904   3.480  0.0391  0.0498  0.4841
    1SOL    HW2 7930   0.902   0.978   3.420  1.0687 -0.5336 -0.1139
    1SOL    HW3 7931   0.816   0.858   3.453  0.2852  0.0123 -0.1687
    1SOL    MW4 7932   0.886   0.908   3.469  0.2074 -0.0321  0.3188
    1SOL     OW 7933   0.893   1.163   3.371  0.2338  0.2911  0.6831
    1SOL    HW2 7934   0.961   1.215   3.413  0.5159  0.5859 -0.1196
    1SOL    HW3 7935   0.810   1.202   3.401  0.3985 -0.5114  2.2149
    1SOL    MW4 7936   0.891   1.175   3.380  0.2928  0.2240  0.7794
    1SOL     OW 7937   1.121   1.295   3.480  0.6349  0.1049  0.3325
    1SOL    HW2 7938   1.109   1.301   3.575  1.2052  1.0641  0.3419
    1SOL    HW3 7939   1.135   1.385   3.451 -0.0472 -0.1227 -0.7377
    1SOL    MW4 7940   1.121   1.308   3.489  0.6201  0.2015  0.1924
    1SOL     OW 7941   1.168   1.559   3.395  0.0791  0.0887 -0.0290
    1SOL    HW2 7942   1.253   1.599   3.412  0.1000  1.2514 -2.6818
    1SOL    HW3 7943   1.154   1.569   3.301 -2.1373 -1.7964  0.0350
    1SOL    MW4 7944   1.177   1.566   3.385 -0.2105 -0.0064 -0.3705
    1SOL     OW 7945   0.903   1.666   3.470  0.1724  0.2556 -0.0135
    1SOL    HW2 7946   0.889   1.755   3.438  2.2862  0.5045 -0.3159
    1SOL    HW3 7947   0.979   1.634   3.421 -1.4675 -2.2704 -0.9769
    1SOL    MW4 7948   0.911   1.673   3.459  0.2348 -0.0448 -0.1805
    1SOL     OW 7949   0.898   1.926   3.348 -0.0529  0.4951  0.3875
    1SOL    HW2 7950   0.981   1.960   3.381  0.3120 -1.5084  1.6244
    1SOL    HW3 7951   0.831   1.978   3.392  0.4672 -1.0943  3.2121
    1SOL    MW4 7952   0.900   1.937   3.358  0.0639  0.0211  0.9236
    1SOL     OW 7953   1.108   2.048   3.496 -0.0526 -0.2113  0.1140
    1SOL    HW2 7954   1.194   2.019   3.468  0.7105  0.8415  1.3072
    1SOL    HW3 7955   1.106   2.142   3.476 -1.6149 -0.5686 -1.5724
    1SOL    MW4 7956   1.119   2.057   3.490 -0.1581 -0.1197  0.0491
    1SOL     OW 7957   1.157   2.302   3.377 -0.2300  0.1375 -0.1321
    1SOL    HW2 7958   1.240   2.336   3.408  0.2286 -1.0229 -0.0598
    1SOL    HW3 7959   1.160   2.313   3.282  0.1494 -0.2005 -0.1620
    1SOL    MW4 7960   1.168   2.308   3.368 -0.1194 -0.0601 -0.1266
    1SOL     OW 7961   0.919   2.441   3.468  0.3156 -0.8593  0.3378
    1SOL    HW2 7962   0.908   2.450   3.563  1.2670  2.5140  0.1762
    1SOL    HW3 7963   1.011   2.419   3.456 -0.2373 -3.2786  0.2592
    1SOL    MW4 7964   0.930   2.439   3.479  0.3682 -0.7336  0.3059
    1SOL     OW 7965   0.852   2.678   3.323  0.4419  0.3058 -0.1778
    1SOL    HW2 7966   0.923   2.738   3.346  0.2781  0.6480 -0.5657
    1SOL    HW3 7967   0.878   2.595   3.363 -0.5848  1.2501  2.6141
    1SOL    MW4 7968   0.865   2.675   3.332  0.2848  0.4756  0.1395
    1SOL     OW 7969   1.057   2.814   3.440  0.2615 -0.3017 -0.0002
    1SOL    HW2 7970   1.056   2.808   3.535 -1.0954  0.5193  0.0514
    1SOL    HW3 7971   1.142   2.779   3.414  0.8083 -0.1279  1.5400
    1SOL    MW4 7972   1.068   2.809   3.449  0.1545 -0.1705  0.2098
    1SOL     OW 7973   1.118   3.096   3.391  0.2669  0.2293  0.1033
    1SOL    HW2 7974   1.101   3.004   3.409 -2.0713  0.7659  0.8579
    1SOL    HW3 7975   1.117   3.102   3.295 -0.9587 -0.2997  0.0723
    1SOL    MW4 7976   1.115   3.085   3.380 -0.2033  0.2303  0.1988
    1SOL     OW 7977   0.888   3.227   3.489 -0.1398  0.1244  0.2913
    1SOL    HW2 7978   0.967   3.181   3.461 -0.8746 -0.7981 -0.3008
    1SOL    HW3 7979   0.817   3.181   3.445 -1.1175  0.0955  1.8750
    1SOL    MW4 7980   0.889   3.215   3.480 -0.3659 -0.0010  0.4220
    1SOL     OW 7981   0.899   3.482   3.377  0.2319  0.6056 -0.2485
    1SOL    HW2 7982   0.907   3.400   3.425  1.4232  0.8338 -0.0482
    1SOL    HW3 7983   0.917   3.460   3.286  1.2267  0.7704 -0.0903
    1SOL    MW4 7984   0.902   3.469   3.372  0.5203  0.6576 -0.2010
    1SOL     OW 7985   1.117   3.610   3.493  0.0068  0.3618 -0.1050
    1SOL    HW2 7986   1.101   3.618   3.587  0.7572 -1.6754  0.2329
    1SOL    HW3 7987   1.037   3.569   3.459  0.2876 -0.2087 -0.0991
    1SOL    MW4 7988   1.104   3.605   3.501  0.1428  0.0179 -0.0596
    1SOL     OW 7989   1.106   3.884   3.388  0.0628  0.0848 -0.2043
    1SOL    HW2 7990   1.184   3.924   3.425 -0.5736  1.6647 -0.5290
    1SOL    HW3 7991   1.092   3.804   3.439  0.7869  0.7869  1.0847
    1SOL    MW4 7992   1.114   3.878   3.399  0.0744  0.3860 -0.0770
    1SOL     OW 7993   0.873   4.021   3.450 -0.2241 -0.1720 -0.2067
    1SOL    HW2 7994   0.954   3.975   3.425 -0.4133  0.5040 -2.1574
    1SOL    HW3 7995   0.803   3.971   3.406 -0.8250 -0.4856  1.1016
    1SOL    MW4 7996   0.875   4.008   3.441 -0.3283 -0.1240 -0.2913
    1SOL     OW 7997   0.869   4.284   3.400 -0.4511  0.0576 -0.2396
    1SOL    HW2 7998   0.881   4.189   3.405 -0.1087  0.1636  1.1060
    1SOL    HW3 7999   0.882   4.305   3.308 -0.4063 -1.1935 -0.5222
    1SOL    MW4 8000   0.872   4.274   3.389 -0.4000 -0.0935 -0.0994
    1SOL     OW 8001   1.102   4.375   3.521 -0.2176  0.1256  0.2463
    1SOL    HW2 8002   1.017   4.344   3.489 -0.3687  0.3420  0.4355
    1SOL    HW3 8003   1.116   4.458   3.475 -0.6113  0.6235  1.0292
    1SOL    MW4 8004   1.093   4.382   3.511 -0.2897  0.2203  0.3746
    1SOL     OW 8005   1.552   4.625   3.360 -0.2720 -0.0981  0.2113
    1SOL    HW2 8006   1.561   4.543   3.409  0.6142  0.7357  1.4761
    1SOL    HW3 8007   1.489   4.676   3.411  1.3666  1.1549  1.0119
    1SOL    MW4 8008   1.545   4.621   3.373  0.0612  0.1769  0.4838
    1SOL     OW 8009   1.351   0.086   3.514 -0.2764 -0.2893 -0.0676
    1SOL    HW2 8010   1.329   0.093   3.607 -1.9215  0.2746 -0.4921
    1SOL    HW3 8011   1.350   0.176   3.482 -0.5031 -0.5609 -0.8229
    1SOL    MW4 8012   1.348   0.099   3.522 -0.5233 -0.2507 -0.2232
    1SOL     OW 8013   1.358   0.337   3.387 -0.2777 -0.3161  0.0695
    1SOL    HW2 8014   1.433   0.378   3.429 -0.5362 -1.0131  1.2408
    1SOL    HW3 8015   1.283   0.387   3.419 -0.4683 -0.7852  0.3594
    1SOL    MW4 8016   1.358   0.349   3.396 -0.3369 -0.4700  0.2625
    1SOL     OW 8017   1.596   0.471   3.476  0.2939  0.5102 -0.3388
    1SOL    HW2 8018   1.607   0.486   3.570 -1.0287 -0.5447 -0.0051
    1SOL    HW3 8019   1.679   0.435   3.447 -0.0719 -1.4195  0.9063
    1SOL    MW4 8020   1.608   0.469   3.485  0.0712  0.1164 -0.1304
    1SOL     OW 8021   1.598   0.732   3.364 -0.1611 -0.2425  0.8525
    1SOL    HW2 8022   1.521   0.782   3.391 -0.2512 -0.6345  1.3442
    1SOL    HW3 8023   1.577   0.642   3.388  0.6866 -0.2696  1.5095
    1SOL    MW4 8024   1.585   0.727   3.371 -0.0609 -0.2978  1.0042
    1SOL     OW 8025   1.365   0.888   3.490  0.5014 -0.5972 -0.5980
    1SOL    HW2 8026   1.355   0.908   3.583  0.1353  0.2621 -0.8209
    1SOL    HW3 8027   1.395   0.970   3.450 -1.5400 -0.3150 -1.6010
    1SOL    MW4 8028   1.368   0.901   3.497  0.1838 -0.4466 -0.7598
    1SOL     OW 8029   1.377   1.154   3.377  0.3128 -0.4920  0.2621
    1SOL    HW2 8030   1.448   1.209   3.411  0.0198 -0.8234  1.4435
    1SOL    HW3 8031   1.300   1.183   3.425  0.1176 -1.7958  0.7425
    1SOL    MW4 8032   1.376   1.165   3.388  0.2484 -0.7077  0.4814
    1SOL     OW 8033   1.596   1.275   3.488 -0.7061  0.4180 -0.1393
    1SOL    HW2 8034   1.608   1.312   3.575  0.3465 -0.7605  0.2316
    1SOL    HW3 8035   1.681   1.237   3.466 -1.3177 -0.3862 -1.1664
    1SOL    MW4 8036   1.609   1.275   3.496 -0.6479  0.1564 -0.2258
    1SOL     OW 8037   1.561   1.554   3.427  0.1854  0.4473 -0.6408
    1SOL    HW2 8038   1.559   1.461   3.451 -1.1629  0.6758  0.1894
    1SOL    HW3 8039   1.569   1.554   3.331  1.2743 -0.5044 -0.5666
    1SOL    MW4 8040   1.562   1.542   3.417  0.1510  0.3519 -0.5214
    1SOL     OW 8041   1.383   1.731   3.521 -0.3692  0.0097 -0.3877
    1SOL    HW2 8042   1.369   1.709   3.613  1.0661  0.1603 -0.1298
    1SOL    HW3 8043   1.453   1.673   3.492 -0.8091 -0.0388 -1.3942
    1SOL    MW4 8044   1.390   1.721   3.529 -0.2379  0.0230 -0.4866
    1SOL     OW 8045   1.364   1.977   3.409  0.1143 -0.6928  0.3622
    1SOL    HW2 8046   1.443   2.019   3.442  0.1870  0.0915 -0.7877
    1SOL    HW3 8047   1.363   1.891   3.451  0.4826  0.0797  1.9771
    1SOL    MW4 8048   1.374   1.971   3.419  0.1723 -0.4873  0.4234
    1SOL     OW 8049   1.608   2.086   3.496 -0.0094  0.0202 -0.6321
    1SOL    HW2 8050   1.690   2.048   3.464  0.1356 -0.1534 -0.0472
    1SOL    HW3 8051   1.592   2.160   3.437  0.1826 -0.3919 -1.1993
    1SOL    MW4 8052   1.617   2.091   3.484  0.0349 -0.0570 -0.6299
    1SOL     OW 8053   1.562   2.281   3.317  0.6090 -0.0604  0.1746
    1SOL    HW2 8054   1.499   2.350   3.338 -0.6088 -0.9822 -0.3673
    1SOL    HW3 8055   1.580   2.292   3.224  0.6251 -0.3017  0.1483
    1SOL    MW4 8056   1.556   2.291   3.307  0.4505 -0.2136  0.0999
    1SOL     OW 8057   1.379   2.444   3.458  0.3638 -0.1770  0.1878
    1SOL    HW2 8058   1.372   2.432   3.553 -1.6251 -0.6647 -0.0019
    1SOL    HW3 8059   1.373   2.538   3.446 -1.9320 -0.2798  0.3756
    1SOL    MW4 8060   1.378   2.454   3.469 -0.2016 -0.2549  0.1876
    1SOL     OW 8061   1.311   2.722   3.382 -0.4341 -0.0988  0.7715
    1SOL    HW2 8062   1.388   2.770   3.410 -0.0765 -1.0900  1.4939
    1SOL    HW3 8063   1.312   2.730   3.286 -0.6137  1.6647  0.9010
    1SOL    MW4 8064   1.321   2.729   3.373 -0.4107  0.0031  0.8838
    1SOL     OW 8065   1.566   2.817   3.477 -0.3711  0.1878 -0.1410
    1SOL    HW2 8066   1.640   2.779   3.431 -1.0272 -0.7323 -0.4453
    1SOL    HW3 8067   1.563   2.908   3.448  0.3412  0.0948 -0.4958
    1SOL    MW4 8068   1.575   2.824   3.467 -0.3637  0.0544 -0.2279
    1SOL     OW 8069   1.572   3.085   3.398 -0.3529  0.0775 -0.2805
    1SOL    HW2 8070   1.649   3.138   3.417 -0.1641 -0.6510  1.0187
    1SOL    HW3 8071   1.500   3.129   3.442 -0.3748 -0.2057 -0.0334
    1SOL    MW4 8072   1.572   3.098   3.406 -0.3308 -0.0560 -0.0765
    1SOL     OW 8073   1.344   3.244   3.480 -0.4735  0.0554  0.2192
    1SOL    HW2 8074   1.313   3.239   3.570 -0.6790 -1.6192  0.0766
    1SOL    HW3 8075   1.285   3.186   3.432  1.1452 -0.9707 -0.5507
    1SOL    MW4 8076   1.332   3.236   3.486 -0.2871 -0.3009  0.0989
    1SOL     OW 8077   1.345   3.499   3.365  0.5767  0.1689 -0.6352
    1SOL    HW2 8078   1.357   3.413   3.404  0.8656 -0.5396 -2.2501
    1SOL    HW3 8079   1.265   3.533   3.404  0.3269 -0.9432 -0.1816
    1SOL    MW4 8080   1.336   3.492   3.375  0.5820 -0.0710 -0.7885
    1SOL     OW 8081   1.556   3.631   3.488  0.1963  0.4721  0.0787
    1SOL    HW2 8082   1.540   3.617   3.581  0.4590  0.3656  0.1073
    1SOL    HW3 8083   1.483   3.587   3.444  0.1023  0.4754  0.2323
    1SOL    MW4 8084   1.544   3.624   3.495  0.2186  0.4585  0.1025
    1SOL     OW 8085   1.535   3.903   3.385  0.1203  0.4103 -0.1096
    1SOL    HW2 8086   1.544   3.816   3.425 -2.0583  0.6824  1.0382
    1SOL    HW3 8087   1.563   3.891   3.295  0.7254 -1.2806  0.2878
    1SOL    MW4 8088   1.540   3.890   3.378 -0.0873  0.2229  0.0944
    1SOL     OW 8089   1.321   3.995   3.524 -0.2378  0.3784 -0.0146
    1SOL    HW2 8090   1.323   4.089   3.507 -0.2392  0.3044 -0.4303
    1SOL    HW3 8091   1.393   3.960   3.471 -2.3763 -0.2979 -2.5764
    1SOL    MW4 8092   1.331   4.002   3.515 -0.5200  0.2794 -0.4075
    1SOL     OW 8093   1.338   4.255   3.406  0.1711 -0.0253  0.0715
    1SOL    HW2 8094   1.250   4.281   3.436 -0.3151 -2.2925  0.6572
    1SOL    HW3 8095   1.336   4.270   3.312 -0.0900  2.0318  0.3689
    1SOL    MW4 8096   1.326   4.261   3.398  0.0725 -0.0534  0.1879
    1SOL     OW 8097   1.589   4.372   3.479  0.3513 -0.4200 -0.1647
    1SOL    HW2 8098   1.659   4.317   3.443  0.0425 -0.7645 -0.2488
    1SOL    HW3 8099   1.509   4.325   3.455  0.0035  0.9076 -1.6974
    1SOL    MW4 8100   1.588   4.358   3.471  0.2646 -0.2904 -0.3779
    1SOL     OW 8101   2.009   4.650   3.370 -0.1806  0.4513  0.0118
    1SOL    HW2 8102   2.075   4.695   3.423 -0.4981  0.7693  0.1423
    1SOL    HW3 8103   1.925   4.683   3.403 -0.3562  1.7268 -1.6148
    1SOL    MW4 8104   2.007   4.660   3.382 -0.2456  0.6614 -0.1855
    1SOL     OW 8105   1.765   0.114   3.492  0.0525  0.0391 -0.1621
    1SOL    HW2 8106   1.770   0.114   3.588 -0.9234  2.0154 -0.0941
    1SOL    HW3 8107   1.693   0.053   3.472  0.9440 -1.1925  0.2931
    1SOL    MW4 8108   1.756   0.106   3.502  0.0415  0.1374 -0.0935
    1SOL     OW 8109   1.853   0.356   3.393 -0.7024 -0.4167  0.2008
    1SOL    HW2 8110   1.813   0.277   3.428  1.0237 -1.6455 -0.5019
    1SOL    HW3 8111   1.838   0.351   3.298 -0.5097  0.0316  0.1442
    1SOL    MW4 8112   1.846   0.345   3.385 -0.4492 -0.5197  0.1004
    1SOL     OW 8113   2.028   0.525   3.523  0.3752  0.1065 -0.3464
    1SOL    HW2 8114   1.996   0.604   3.480 -1.0668 -0.5239 -0.4560
    1SOL    HW3 8115   1.968   0.456   3.495  0.4510 -0.6524  1.3087
    1SOL    MW4 8116   2.016   0.526   3.514  0.1948 -0.0767 -0.1426
    1SOL     OW 8117   1.971   0.772   3.397 -0.3894  0.0687  0.1103
    1SOL    HW2 8118   2.052   0.807   3.433 -0.6587  0.0024  0.7873
    1SOL    HW3 8119   1.993   0.746   3.308 -0.4124  2.8338 -0.7446
    1SOL    MW4 8120   1.984   0.773   3.390 -0.4278  0.4248  0.0868
    1SOL     OW 8121   1.762   0.898   3.510  0.0044  0.2128 -0.1760
    1SOL    HW2 8122   1.841   0.853   3.479  0.8488  1.1231  0.6197
    1SOL    HW3 8123   1.690   0.850   3.470  0.8852 -1.7605  0.5201
    1SOL    MW4 8124   1.763   0.885   3.501  0.2320  0.0726  0.0210
    1SOL     OW 8125   1.837   1.159   3.388  0.1022  0.0110  0.0724
    1SOL    HW2 8126   1.907   1.200   3.439 -0.9902  0.3699  1.3297
    1SOL    HW3 8127   1.827   1.072   3.426 -0.8828  0.3677  0.6440
    1SOL    MW4 8128   1.845   1.153   3.400 -0.1719  0.1054  0.3135
    1SOL     OW 8129   2.036   1.299   3.520  0.0620  0.0058 -0.1126
    1SOL    HW2 8130   2.049   1.300   3.615 -0.5924 -0.5860 -0.0105
    1SOL    HW3 8131   2.028   1.391   3.495 -1.0948  0.1033  0.5944
    1SOL    MW4 8132   2.037   1.311   3.529 -0.1769 -0.0594 -0.0060
    1SOL     OW 8133   2.016   1.561   3.377  0.2547 -0.2067  0.2910
    1SOL    HW2 8134   2.094   1.605   3.410  0.0964 -0.6632  1.2678
    1SOL    HW3 8135   1.943   1.615   3.408  0.1046 -0.6497  0.6997
    1SOL    MW4 8136   2.017   1.574   3.385  0.2141 -0.3253  0.4740
    1SOL     OW 8137   1.788   1.693   3.507 -0.0484  0.0316 -0.1286
    1SOL    HW2 8138   1.793   1.774   3.456  1.1129 -0.9120 -1.5658
    1SOL    HW3 8139   1.707   1.651   3.477  0.1306 -0.0559 -0.4923
    1SOL    MW4 8140   1.778   1.698   3.496  0.1284 -0.1045 -0.3660
    1SOL     OW 8141   1.828   1.926   3.364  0.3834 -0.6304  0.0385
    1SOL    HW2 8142   1.911   1.968   3.386  0.6057 -0.9036 -0.2655
    1SOL    HW3 8143   1.809   1.956   3.275  0.4257 -0.9896 -0.0924
    1SOL    MW4 8144   1.836   1.935   3.355  0.4183 -0.7138 -0.0188
    1SOL     OW 8145   2.053   2.063   3.460 -0.2434  0.1911  0.1187
    1SOL    HW2 8146   2.134   2.029   3.423 -1.0884 -1.1223 -0.5670
    1SOL    HW3 8147   2.041   2.148   3.419  0.4651  0.1225 -0.2353
    1SOL    MW4 8148   2.062   2.070   3.450 -0.2613  0.0088 -0.0186
    1SOL     OW 8149   2.025   2.343   3.386 -0.0580 -0.6483 -0.1593
    1SOL    HW2 8150   1.942   2.387   3.402  0.4857  0.2446  0.2233
    1SOL    HW3 8151   2.034   2.342   3.291 -0.4145 -0.5834 -0.1961
    1SOL    MW4 8152   2.015   2.348   3.376 -0.0336 -0.5219 -0.1135
    1SOL     OW 8153   1.776   2.456   3.440  0.2320  0.0967  0.6003
    1SOL    HW2 8154   1.784   2.445   3.534 -0.8735  0.7205  0.7761
    1SOL    HW3 8155   1.713   2.389   3.413 -1.8967  1.9405  0.7987
    1SOL    MW4 8156   1.769   2.446   3.449 -0.1947  0.4225  0.6495
    1SOL     OW 8157   1.775   2.703   3.332 -0.1434 -0.5765 -0.1506
    1SOL    HW2 8158   1.851   2.743   3.374  0.0318 -0.8092 -0.2451
    1SOL    HW3 8159   1.774   2.613   3.364 -0.6967 -0.4229  0.2796
    1SOL    MW4 8160   1.785   2.696   3.342 -0.1932 -0.5870 -0.1063
    1SOL     OW 8161   1.977   2.846   3.459  0.7515 -0.3543 -0.1320
    1SOL    HW2 8162   1.991   2.853   3.553  1.3193 -1.4404 -0.1230
    1SOL    HW3 8163   1.983   2.936   3.427  0.1966  0.0589  0.9120
    1SOL    MW4 8164   1.980   2.859   3.467  0.7533 -0.4432  0.0069
    1SOL     OW 8165   2.031   3.109   3.363 -0.0050  0.4454  0.1646
    1SOL    HW2 8166   2.109   3.154   3.396  0.1105  0.5687 -0.2686
    1SOL    HW3 8167   1.958   3.160   3.397  0.1455  1.7669 -1.4321
    1SOL    MW4 8168   2.032   3.122   3.372  0.0303  0.6361 -0.1032
    1SOL     OW 8169   1.792   3.253   3.460  0.2853 -0.3396 -0.2111
    1SOL    HW2 8170   1.783   3.260   3.555  0.0869  1.2596 -0.3344
    1SOL    HW3 8171   1.801   3.343   3.429 -0.3316 -0.7788 -1.7777
    1SOL    MW4 8172   1.792   3.266   3.468  0.1776 -0.1864 -0.4342
    1SOL     OW 8173   1.797   3.515   3.386  0.5772 -0.6385  0.3648
    1SOL    HW2 8174   1.724   3.569   3.417  1.1816  1.0515 -1.0683
    1SOL    HW3 8175   1.780   3.503   3.293  1.2965 -1.5812  0.3532
    1SOL    MW4 8176   1.786   3.521   3.378  0.7520 -0.5400  0.1740
    1SOL     OW 8177   2.042   3.583   3.483  0.5984  0.3389  0.4294
    1SOL    HW2 8178   2.108   3.538   3.430 -0.8112 -1.8558  0.4715
    1SOL    HW3 8179   1.958   3.550   3.450 -0.3914  1.1292  2.0940
    1SOL    MW4 8180   2.040   3.573   3.472  0.2818  0.1538  0.6545
    1SOL     OW 8181   2.032   3.846   3.383  0.0215 -0.0083 -0.4914
    1SOL    HW2 8182   1.957   3.885   3.428  0.9028  0.1936  0.8268
    1SOL    HW3 8183   2.034   3.755   3.413  1.2876  0.4299  0.7585
    1SOL    MW4 8184   2.022   3.839   3.393  0.3047  0.0765 -0.1523
    1SOL     OW 8185   1.794   3.999   3.452 -0.2007  0.1286  0.9099
    1SOL    HW2 8186   1.792   4.002   3.548 -0.2678  0.2905  0.9034
    1SOL    HW3 8187   1.708   3.965   3.427 -0.6880  1.3864  0.8565
    1SOL    MW4 8188   1.783   3.995   3.461 -0.2737  0.3159  0.9019
    1SOL     OW 8189   1.825   4.264   3.388  0.1185  0.3529  0.3724
    1SOL    HW2 8190   1.815   4.170   3.402  0.2230  0.2426 -0.2842
    1SOL    HW3 8191   1.822   4.275   3.293 -0.4884  1.0848  0.4685
    1SOL    MW4 8192   1.824   4.253   3.377  0.0522  0.4354  0.2985
    1SOL     OW 8193   2.021   4.393   3.519  0.3046  0.3280  0.4497
    1SOL    HW2 8194   1.951   4.342   3.478 -0.1244  0.0298  1.5468
    1SOL    HW3 8195   2.010   4.481   3.483 -0.4093  0.1957  0.3305
    1SOL    MW4 8196   2.010   4.398   3.509  0.1540  0.2713  0.5786
    1SOL     OW 8197   2.429   0.004   3.387  0.2171 -0.3111 -0.4305
    1SOL    HW2 8198   2.455  -0.085   3.411 -1.2756 -0.6381  0.0062
    1SOL    HW3 8199   2.447   0.010   3.293  0.7329 -0.9222 -0.3745
    1SOL    MW4 8200   2.435  -0.007   3.378  0.0885 -0.4349 -0.3655
    1SOL     OW 8201   2.213   0.131   3.518 -0.1687  0.0944 -0.0621
    1SOL    HW2 8202   2.200   0.217   3.477  0.0920 -0.3698 -1.1488
    1SOL    HW3 8203   2.284   0.091   3.468 -0.4090 -0.8241  0.3162
    1SOL    MW4 8204   2.221   0.137   3.506 -0.1657 -0.0880 -0.1554
    1SOL     OW 8205   2.231   0.386   3.398 -0.1140 -0.0050 -0.2854
    1SOL    HW2 8206   2.315   0.413   3.435 -0.7018 -0.4182  1.4074
    1SOL    HW3 8207   2.166   0.442   3.441 -0.8587 -0.8104 -0.3431
    1SOL    MW4 8208   2.233   0.397   3.409 -0.2897 -0.1658 -0.0699
    1SOL     OW 8209   2.458   0.485   3.505  0.4627 -0.3459  0.2548
    1SOL    HW2 8210   2.538   0.455   3.461 -0.4955 -1.7531 -0.5924
    1SOL    HW3 8211   2.453   0.578   3.484  0.5045 -0.7864 -1.9358
    1SOL    MW4 8212   2.468   0.493   3.496  0.3417 -0.5897 -0.1459
    1SOL     OW 8213   2.469   0.751   3.431 -0.2035  0.5685 -0.1262
    1SOL    HW2 8214   2.547   0.807   3.438 -0.7087  1.3367 -0.5559
    1SOL    HW3 8215   2.455   0.741   3.337 -1.4113  1.5557 -0.0606
    1SOL    MW4 8216   2.477   0.757   3.419 -0.4292  0.8001 -0.1745
    1SOL     OW 8217   2.222   0.861   3.466  0.0334  0.1895  0.0128
    1SOL    HW2 8218   2.242   0.954   3.452  0.9611 -0.1530 -1.0870
    1SOL    HW3 8219   2.306   0.817   3.451 -0.5689 -0.8912 -0.2157
    1SOL    MW4 8220   2.236   0.867   3.462  0.0765  0.0017 -0.1624
    1SOL     OW 8221   2.264   1.132   3.399  0.5202  0.1250 -0.0190
    1SOL    HW2 8222   2.348   1.177   3.398  0.7192 -0.2461 -0.0647
    1SOL    HW3 8223   2.202   1.197   3.433  0.6574  0.6910 -0.8262
    1SOL    MW4 8224   2.267   1.147   3.403  0.5646  0.1508 -0.1318
    1SOL     OW 8225   2.484   1.322   3.471 -0.1026  0.1922  0.1378
    1SOL    HW2 8226   2.461   1.307   3.562 -0.3228 -0.5701 -0.0370
    1SOL    HW3 8227   2.573   1.289   3.462  0.0801  0.6693  0.1792
    1SOL    MW4 8228   2.493   1.316   3.482 -0.1075  0.1546  0.1202
    1SOL     OW 8229   2.457   1.574   3.361 -0.3437 -0.2641 -0.0308
    1SOL    HW2 8230   2.456   1.485   3.398  0.4261  0.1321  0.9670
    1SOL    HW3 8231   2.468   1.560   3.267  0.0888 -1.2318  0.1473
    1SOL    MW4 8232   2.459   1.560   3.353 -0.1850 -0.3394  0.1245
    1SOL     OW 8233   2.230   1.720   3.459  0.4049  0.5507  0.3518
    1SOL    HW2 8234   2.230   1.702   3.553  1.1089 -0.5519  0.1469
    1SOL    HW3 8235   2.307   1.675   3.425 -0.2709  0.2854 -0.8767
    1SOL    MW4 8236   2.240   1.712   3.467  0.4084  0.3703  0.1626
    1SOL     OW 8237   2.283   1.953   3.369  0.5803 -0.4187  0.3147
    1SOL    HW2 8238   2.270   1.866   3.409 -1.3789 -0.4486 -0.3206
    1SOL    HW3 8239   2.277   1.937   3.275  1.0344  0.2953  0.1638
    1SOL    MW4 8240   2.280   1.939   3.362  0.3817 -0.3285  0.2108
    1SOL     OW 8241   2.492   2.083   3.474  0.0008 -0.1389 -0.4870
    1SOL    HW2 8242   2.416   2.037   3.436 -1.4004  1.1994  0.6172
    1SOL    HW3 8243   2.500   2.163   3.421 -0.5483  0.6314  0.5727
    1SOL    MW4 8244   2.483   2.088   3.462 -0.2565  0.1390 -0.2012
    1SOL     OW 8245   2.515   2.358   3.338  0.0496 -0.7342  0.0557
    1SOL    HW2 8246   2.432   2.386   3.376  0.1920  1.4178 -1.1141
    1SOL    HW3 8247   2.582   2.396   3.395  0.2377 -0.9704 -0.0051
    1SOL    MW4 8248   2.513   2.367   3.350  0.0935 -0.4814 -0.1066
    1SOL     OW 8249   2.278   2.454   3.414 -0.1259 -0.3265 -0.3207
    1SOL    HW2 8250   2.186   2.426   3.407 -0.3136  0.5743 -1.5404
    1SOL    HW3 8251   2.275   2.549   3.404  0.9119 -0.2495  0.0518
    1SOL    MW4 8252   2.265   2.463   3.412 -0.0136 -0.1974 -0.4327
    1SOL     OW 8253   2.230   2.729   3.370 -0.1972  0.3903 -0.1854
    1SOL    HW2 8254   2.147   2.756   3.409 -0.3758  0.0577 -0.3363
    1SOL    HW3 8255   2.220   2.748   3.277 -0.6981 -1.1254 -0.4472
    1SOL    MW4 8256   2.218   2.735   3.363 -0.2868  0.1466 -0.2398
    1SOL     OW 8257   2.492   2.819   3.454  0.1338  0.4707 -0.1983
    1SOL    HW2 8258   2.495   2.913   3.436 -0.9910  0.0565 -2.7318
    1SOL    HW3 8259   2.402   2.793   3.434 -0.1065 -0.8260  2.3319
    1SOL    MW4 8260   2.481   2.828   3.449 -0.0460  0.2449 -0.1988
    1SOL     OW 8261   2.451   3.082   3.381 -0.0502  0.1517  0.0654
    1SOL    HW2 8262   2.536   3.115   3.411  1.3234 -2.2777 -1.0437
    1SOL    HW3 8263   2.461   3.071   3.287 -1.3325 -0.9451  0.0416
    1SOL    MW4 8264   2.463   3.085   3.373 -0.0381 -0.3135 -0.0839
    1SOL     OW 8265   2.250   3.246   3.493 -0.2156  0.3486 -0.2664
    1SOL    HW2 8266   2.238   3.232   3.587 -0.3960  0.0165 -0.3365
    1SOL    HW3 8267   2.313   3.179   3.466 -0.3655  0.2719 -0.4296
    1SOL    MW4 8268   2.256   3.235   3.501 -0.2592  0.2947 -0.2971
    1SOL     OW 8269   2.276   3.499   3.362 -0.6532 -0.2253  0.5220
    1SOL    HW2 8270   2.290   3.411   3.396 -0.3165 -0.4228 -0.1197
    1SOL    HW3 8271   2.284   3.490   3.267 -0.0206  0.6051  0.4865
    1SOL    MW4 8272   2.279   3.486   3.354 -0.5250 -0.1419  0.4327
    1SOL     OW 8273   2.493   3.623   3.501 -0.1500  0.8701 -0.6289
    1SOL    HW2 8274   2.491   3.714   3.472 -0.8626  1.1674  0.3069
    1SOL    HW3 8275   2.420   3.582   3.455 -1.1814  1.3035  0.5769
    1SOL    MW4 8276   2.483   3.630   3.491 -0.3805  0.9665 -0.3464
    1SOL     OW 8277   2.481   3.874   3.395 -0.0057 -0.1660  0.0524
    1SOL    HW2 8278   2.555   3.923   3.433  0.2455 -1.0061  0.6528
    1SOL    HW3 8279   2.406   3.900   3.448 -0.2763  1.2073 -0.9832
    1SOL    MW4 8280   2.481   3.884   3.407 -0.0083 -0.0956 -0.0052
    1SOL     OW 8281   2.256   3.967   3.511 -0.2384  0.1675  0.5210
    1SOL    HW2 8282   2.256   4.059   3.484  1.4931  0.3431  1.0619
    1SOL    HW3 8283   2.178   3.930   3.469 -0.1989  1.5474 -0.8379
    1SOL    MW4 8284   2.246   3.975   3.502 -0.0050  0.3729  0.4132
    1SOL     OW 8285   2.242   4.223   3.429 -0.3165 -0.0687  0.2043
    1SOL    HW2 8286   2.158   4.257   3.460  0.3842  0.5264  1.5003
    1SOL    HW3 8287   2.233   4.219   3.334 -2.0455 -0.6571  0.3737
    1SOL    MW4 8288   2.230   4.227   3.420 -0.4523 -0.0682  0.3977
    1SOL     OW 8289   2.466   4.402   3.477 -0.1096 -0.4760  0.4534
    1SOL    HW2 8290   2.454   4.418   3.570 -1.5504  1.5740 -0.0607
    1SOL    HW3 8291   2.387   4.354   3.450 -0.0213 -0.4553  0.1538
    1SOL    MW4 8292   2.454   4.398   3.486 -0.2882 -0.2027  0.3459
    1SOL     OW 8293   2.942   0.034   3.386 -0.2784 -0.0555  0.4123
    1SOL    HW2 8294   2.851   0.057   3.406  0.2116  1.5361  0.8994
    1SOL    HW3 8295   2.945   0.024   3.291 -1.0099 -0.2612  0.4146
    1SOL    MW4 8296   2.931   0.036   3.376 -0.3102  0.1268  0.4768
    1SOL     OW 8297   2.675   0.082   3.482 -0.2055 -0.3128  0.3374
    1SOL    HW2 8298   2.695   0.074   3.576 -0.8638  0.9164  0.5871
    1SOL    HW3 8299   2.580   0.073   3.478 -0.2156  0.0533 -0.1762
    1SOL    MW4 8300   2.665   0.080   3.494 -0.2935 -0.1023  0.3028
    1SOL     OW 8301   2.687   0.357   3.404 -0.3485  0.2853 -0.2090
    1SOL    HW2 8302   2.773   0.391   3.428 -0.3930  0.3895 -0.1930
    1SOL    HW3 8303   2.685   0.268   3.439  0.4860 -0.4101 -1.8682
    1SOL    MW4 8304   2.698   0.350   3.411 -0.2441  0.2073 -0.4258
    1SOL     OW 8305   2.905   0.517   3.438  0.0565  0.1848  0.3846
    1SOL    HW2 8306   2.910   0.521   3.534 -1.4404 -0.5400  0.5028
    1SOL    HW3 8307   2.901   0.609   3.411  0.5850  0.3963  1.0073
    1SOL    MW4 8308   2.905   0.530   3.447 -0.0713  0.1171  0.4821
    1SOL     OW 8309   2.933   0.776   3.366 -0.5788 -0.2603 -0.2631
    1SOL    HW2 8310   3.001   0.813   3.423  0.3847 -1.4229 -0.6586
    1SOL    HW3 8311   2.852   0.816   3.398 -0.2035 -1.6483  2.6101
    1SOL    MW4 8312   2.931   0.786   3.378 -0.4020 -0.5968  0.0639
    1SOL     OW 8313   2.711   0.899   3.489 -0.0812 -0.2691 -0.5442
    1SOL    HW2 8314   2.728   0.893   3.583  0.0358 -0.0988 -0.5542
    1SOL    HW3 8315   2.711   0.993   3.471 -2.8988 -0.1615 -0.1888
    1SOL    MW4 8316   2.713   0.911   3.499 -0.4375 -0.2324 -0.4988
    1SOL     OW 8317   2.710   1.165   3.393  0.2282 -0.1325  0.3299
    1SOL    HW2 8318   2.791   1.211   3.416  0.4731 -0.2828 -0.2380
    1SOL    HW3 8319   2.712   1.159   3.298 -0.8886  0.6582  0.2513
    1SOL    MW4 8320   2.721   1.171   3.384  0.1130 -0.0482  0.2449
    1SOL     OW 8321   2.931   1.328   3.466  0.1510 -0.1073 -0.3576
    1SOL    HW2 8322   2.915   1.308   3.558  0.0286  1.3653 -0.0575
    1SOL    HW3 8323   3.014   1.284   3.446  0.3653 -0.1197  0.5430
    1SOL    MW4 8324   2.940   1.319   3.475  0.1633  0.0855 -0.1993
    1SOL     OW 8325   2.905   1.583   3.389 -0.0808  0.2668 -0.6667
    1SOL    HW2 8326   2.825   1.619   3.428  0.8159  0.3387  1.1574
    1SOL    HW3 8327   2.907   1.492   3.417  0.3618  0.2087 -0.8872
    1SOL    MW4 8328   2.895   1.576   3.398  0.0958  0.2686 -0.4549
    1SOL     OW 8329   2.674   1.689   3.477  0.3245  0.4638  0.4379
    1SOL    HW2 8330   2.674   1.766   3.420 -1.2050  0.8105  0.8957
    1SOL    HW3 8331   2.601   1.635   3.446  1.4519 -0.8737  0.0518
    1SOL    MW4 8332   2.665   1.692   3.466  0.2713  0.3332  0.4475
    1SOL     OW 8333   2.703   1.938   3.363  0.2138  0.3767 -0.0331
    1SOL    HW2 8334   2.631   1.989   3.401 -0.2204 -0.8785  0.8887
    1SOL    HW3 8335   2.681   1.930   3.271 -0.5677  0.4487  0.1431
    1SOL    MW4 8336   2.691   1.944   3.356  0.0534  0.2205  0.1121
    1SOL     OW 8337   2.915   2.056   3.499 -0.4323 -0.0304 -0.1271
    1SOL    HW2 8338   2.924   2.047   3.594 -2.1475 -1.2002 -0.0514
    1SOL    HW3 8339   2.846   1.994   3.475  0.2213 -0.0159 -2.1974
    1SOL    MW4 8340   2.907   2.047   3.508 -0.5722 -0.1829 -0.3901
    1SOL     OW 8341   2.971   2.301   3.380  0.0136 -0.1612  0.2537
    1SOL    HW2 8342   2.972   2.212   3.415  0.6707 -0.0126  0.6166
    1SOL    HW3 8343   2.959   2.289   3.286 -2.6045 -0.5265  0.6036
    1SOL    MW4 8344   2.970   2.288   3.372 -0.2451 -0.1895  0.3476
    1SOL     OW 8345   2.720   2.431   3.503  0.8648  0.0749 -0.0177
    1SOL    HW2 8346   2.712   2.407   3.595  1.6674 -0.7720 -0.1538
    1SOL    HW3 8347   2.787   2.371   3.469 -1.2513 -1.3890 -1.7645
    1SOL    MW4 8348   2.728   2.420   3.510  0.6917 -0.2301 -0.2663
    1SOL     OW 8349   2.727   2.667   3.384  0.2476 -0.2498 -0.0696
    1SOL    HW2 8350   2.718   2.582   3.427  0.0858 -0.5543 -0.6995
    1SOL    HW3 8351   2.653   2.718   3.416  0.8187 -0.0534  0.9714
    1SOL    MW4 8352   2.716   2.662   3.394  0.3014 -0.2642 -0.0150
    1SOL     OW 8353   2.935   2.850   3.510 -0.1959  0.0656  0.6165
    1SOL    HW2 8354   2.938   2.841   3.605  0.2407 -1.2549  0.4808
    1SOL    HW3 8355   2.889   2.772   3.480  3.5691 -1.7871 -0.5834
    1SOL    MW4 8356   2.929   2.839   3.518  0.3583 -0.3533  0.4404
    1SOL     OW 8357   2.901   3.113   3.378  0.2053 -0.6756  0.0733
    1SOL    HW2 8358   2.915   3.027   3.419 -0.0062 -1.0540 -0.6427
    1SOL    HW3 8359   2.919   3.098   3.285 -0.3137 -0.0539 -0.1251
    1SOL    MW4 8360   2.905   3.100   3.371  0.1090 -0.6435 -0.0477
    1SOL     OW 8361   2.669   3.215   3.497  0.0097 -0.0860 -0.3357
    1SOL    HW2 8362   2.674   3.205   3.592 -0.5517  0.5871 -0.2265
    1SOL    HW3 8363   2.755   3.189   3.465  0.0548 -0.7409  0.3194
    1SOL    MW4 8364   2.681   3.210   3.505 -0.0582 -0.0837 -0.2348
    1SOL     OW 8365   2.708   3.464   3.398 -0.1072  0.0807  0.6485
    1SOL    HW2 8366   2.686   3.374   3.425 -0.6685  0.3051  0.9479
    1SOL    HW3 8367   2.629   3.515   3.418  0.3622  0.7220  0.8759
    1SOL    MW4 8368   2.695   3.459   3.405 -0.1192  0.1950  0.7181
    1SOL     OW 8369   2.961   3.583   3.490  0.5266  0.0494 -0.2795
    1SOL    HW2 8370   2.942   3.672   3.462 -1.2435  0.0471  0.7823
    1SOL    HW3 8371   2.898   3.529   3.442  1.0455 -0.5223 -0.3163
    1SOL    MW4 8372   2.950   3.587   3.480  0.3617 -0.0265 -0.1442
    1SOL     OW 8373   2.923   3.868   3.376 -0.1303  0.1886 -0.1083
    1SOL    HW2 8374   3.004   3.917   3.377 -0.5373  0.8595  0.4061
    1SOL    HW3 8375   2.856   3.930   3.405 -1.0759  0.0911 -1.9606
    1SOL    MW4 8376   2.925   3.883   3.380 -0.3085  0.2642 -0.2854
    1SOL     OW 8377   2.706   4.006   3.494  0.2246  0.1417  0.4154
    1SOL    HW2 8378   2.698   4.022   3.588 -0.1260  1.5319  0.1636
    1SOL    HW3 8379   2.703   4.093   3.455  3.6738 -0.1706 -0.6731
    1SOL    MW4 8380   2.704   4.020   3.501  0.6337  0.2842  0.2387
    1SOL     OW 8381   2.697   4.256   3.382  0.1958 -0.4522  0.2830
    1SOL    HW2 8382   2.772   4.316   3.390  0.9705 -1.3634 -0.0601
    1SOL    HW3 8383   2.621   4.310   3.405  0.8319  0.7851 -0.4428
    1SOL    MW4 8384   2.697   4.271   3.386  0.3817 -0.4096  0.1419
    1SOL     OW 8385   2.947   4.432   3.439  0.3545 -0.3515 -0.4840
    1SOL    HW2 8386   2.951   4.421   3.534 -1.6119  1.9632 -0.0690
    1SOL    HW3 8387   2.952   4.527   3.426  0.8760 -0.6488 -2.7344
    1SOL    MW4 8388   2.948   4.443   3.449  0.1638 -0.0854 -0.7260
    1SOL     OW 8389   3.409   0.014   3.417  0.3594 -0.0034  0.1954
    1SOL    HW2 8390   3.330   0.065   3.438 -0.8541 -1.9734  0.5856
    1SOL    HW3 8391   3.422   0.027   3.323 -0.4671  0.2747  0.1143
    1SOL    MW4 8392   3.400   0.023   3.408  0.0901 -0.2265  0.2360
    1SOL     OW 8393   3.171   0.120   3.498  0.1479  0.0914  0.3238
    1SOL    HW2 8394   3.164   0.213   3.477 -1.3249  0.1754  1.1427
    1SOL    HW3 8395   3.095   0.080   3.457  0.0259 -0.5258  1.1310
    1SOL    MW4 8396   3.160   0.127   3.490 -0.0627  0.0211  0.5383
    1SOL     OW 8397   3.145   0.371   3.397  0.1850  0.5916  0.8184
    1SOL    HW2 8398   3.060   0.405   3.426  0.4196  2.5632 -0.6812
    1SOL    HW3 8399   3.130   0.342   3.307  1.3516  2.0592  0.1215
    1SOL    MW4 8400   3.132   0.372   3.389  0.3698  1.0453  0.5286
    1SOL     OW 8401   3.373   0.514   3.511  0.1508 -0.0771 -0.0189
    1SOL    HW2 8402   3.382   0.499   3.605  0.6928 -0.4621 -0.1332
    1SOL    HW3 8403   3.307   0.451   3.483  0.6424 -0.5821 -0.0550
    1SOL    MW4 8404   3.365   0.503   3.520  0.2871 -0.1945 -0.0386
    1SOL     OW 8405   3.368   0.774   3.361  0.1929  0.6914  0.4415
    1SOL    HW2 8406   3.441   0.819   3.404  0.0778  0.2742  1.0782
    1SOL    HW3 8407   3.360   0.691   3.408  0.7128 -0.2092 -1.0556
    1SOL    MW4 8408   3.377   0.769   3.373  0.2465  0.5175  0.3278
    1SOL     OW 8409   3.141   0.883   3.507 -0.2106  0.1342 -0.3536
    1SOL    HW2 8410   3.140   0.967   3.461  1.7619  1.2789  1.5745
    1SOL    HW3 8411   3.212   0.834   3.465 -1.2983 -0.5457 -1.4143
    1SOL    MW4 8412   3.151   0.888   3.495 -0.0937  0.1955 -0.2391
    1SOL     OW 8413   3.152   1.145   3.408  0.1629 -0.1496  0.5885
    1SOL    HW2 8414   3.224   1.196   3.445  0.0182  0.6249 -0.1806
    1SOL    HW3 8415   3.156   1.163   3.314 -0.7297 -0.4862  0.4814
    1SOL    MW4 8416   3.162   1.154   3.400  0.0262 -0.0919  0.4728
    1SOL     OW 8417   3.349   1.298   3.538 -0.3616 -0.2904  0.0214
    1SOL    HW2 8418   3.431   1.257   3.509 -1.5402 -0.9335 -2.4381
    1SOL    HW3 8419   3.353   1.387   3.503 -0.4910 -0.1540  0.3516
    1SOL    MW4 8420   3.361   1.305   3.530 -0.5341 -0.3573 -0.2594
    1SOL     OW 8421   3.352   1.545   3.411 -0.1464 -0.3163 -0.1495
    1SOL    HW2 8422   3.425   1.600   3.441 -0.0274 -0.7060  0.2655
    1SOL    HW3 8423   3.273   1.593   3.438 -0.0871  1.2183 -2.5291
    1SOL    MW4 8424   3.351   1.559   3.418 -0.1230 -0.1653 -0.4086
    1SOL     OW 8425   3.130   1.697   3.476 -0.2306 -0.2728  0.0853
    1SOL    HW2 8426   3.128   1.779   3.427  1.0881 -0.4779 -0.3290
    1SOL    HW3 8427   3.050   1.652   3.451  0.2179 -0.1809 -1.5687
    1SOL    MW4 8428   3.119   1.702   3.467  0.0026 -0.2878 -0.1876
    1SOL     OW 8429   3.120   1.939   3.358 -0.2363 -0.1968  0.1304
    1SOL    HW2 8430   3.049   1.972   3.413 -1.4310  0.2692 -1.6732
    1SOL    HW3 8431   3.200   1.970   3.402 -1.2181  2.0476  0.4229
    1SOL    MW4 8432   3.122   1.948   3.371 -0.5233  0.1609 -0.0691
    1SOL     OW 8433   3.325   2.061   3.497  0.0892  0.1452  0.0850
    1SOL    HW2 8434   3.317   2.152   3.469 -1.7563  0.9572  2.9867
    1SOL    HW3 8435   3.354   2.067   3.588  1.8156 -2.2487 -0.2392
    1SOL    MW4 8436   3.328   2.074   3.506  0.0734 -0.0637  0.4251
    1SOL     OW 8437   3.340   2.313   3.414 -0.0943 -0.0481 -0.6207
    1SOL    HW2 8438   3.417   2.355   3.451 -0.5934  1.8024 -1.6304
    1SOL    HW3 8439   3.266   2.364   3.448 -0.7983 -0.8778 -0.8663
    1SOL    MW4 8440   3.340   2.325   3.424 -0.2527  0.0865 -0.7861
    1SOL     OW 8441   3.133   2.476   3.525  0.0534  0.0223  0.3434
    1SOL    HW2 8442   3.136   2.549   3.464 -0.3310  0.5892  0.9928
    1SOL    HW3 8443   3.067   2.417   3.488  1.7280 -0.9290 -1.1922
    1SOL    MW4 8444   3.125   2.478   3.512  0.2239 -0.0288  0.2263
    1SOL     OW 8445   3.145   2.703   3.360 -0.4164  0.1800 -0.6868
    1SOL    HW2 8446   3.218   2.745   3.405 -0.2540  1.0297 -1.7334
    1SOL    HW3 8447   3.067   2.734   3.406 -0.1302 -0.8963  0.5681
    1SOL    MW4 8448   3.145   2.712   3.372 -0.3569  0.1504 -0.6595
    1SOL     OW 8449   3.332   2.860   3.481  0.0297 -0.0008 -0.2021
    1SOL    HW2 8450   3.341   2.878   3.575 -0.6022 -0.7829  0.0133
    1SOL    HW3 8451   3.324   2.947   3.441 -1.6118  0.2643  0.6707
    1SOL    MW4 8452   3.332   2.874   3.488 -0.2704 -0.0691 -0.0587
    1SOL     OW 8453   3.340   3.147   3.400 -0.2983  0.4779  0.2884
    1SOL    HW2 8454   3.415   3.185   3.446 -0.9519  0.6492  1.2290
    1SOL    HW3 8455   3.264   3.173   3.453 -0.7346 -2.3849  1.1459
    1SOL    MW4 8456   3.340   3.156   3.413 -0.4425  0.1225  0.5252
    1SOL     OW 8457   3.108   3.236   3.533  0.1446 -0.1333 -0.0245
    1SOL    HW2 8458   3.127   3.317   3.486 -1.2844  0.3245  0.1467
    1SOL    HW3 8459   3.038   3.195   3.482  0.2545 -0.8225  0.3748
    1SOL    MW4 8460   3.101   3.241   3.520 -0.0293 -0.1638  0.0508
    1SOL     OW 8461   3.184   3.452   3.376 -0.0280 -0.4648 -0.1998
    1SOL    HW2 8462   3.118   3.512   3.413 -0.5779  0.1119 -2.0534
    1SOL    HW3 8463   3.171   3.459   3.281  0.4494 -2.9158 -0.4680
    1SOL    MW4 8464   3.173   3.461   3.369 -0.0377 -0.7122 -0.4797
    1SOL     OW 8465   3.343   3.646   3.493  0.2467  0.3023  0.0696
    1SOL    HW2 8466   3.361   3.723   3.439  1.6072 -0.0517 -0.0015
    1SOL    HW3 8467   3.304   3.583   3.432  1.2862  0.0972 -0.3966
    1SOL    MW4 8468   3.340   3.648   3.478  0.5634  0.2286 -0.0012
    1SOL     OW 8469   3.397   3.879   3.361  0.2151 -0.3433  0.3703
    1SOL    HW2 8470   3.467   3.930   3.400  0.4966  0.7566 -1.4957
    1SOL    HW3 8471   3.317   3.926   3.386  0.4309  0.6862 -0.7949
    1SOL    MW4 8472   3.396   3.892   3.369  0.2804 -0.0622 -0.0293
    1SOL     OW 8473   3.162   4.020   3.439 -0.4203 -0.2313 -0.5633
    1SOL    HW2 8474   3.155   4.021   3.535 -1.9211  0.0351 -0.6704
    1SOL    HW3 8475   3.165   4.112   3.414 -1.2325 -0.2827 -0.8534
    1SOL    MW4 8476   3.161   4.032   3.448 -0.7255 -0.2027 -0.6158
    1SOL     OW 8477   3.187   4.281   3.367  0.0644  0.1565  0.1282
    1SOL    HW2 8478   3.264   4.313   3.413  0.4808  0.2021 -0.5959
    1SOL    HW3 8479   3.117   4.342   3.392  0.2725  0.1592  0.7233
    1SOL    MW4 8480   3.188   4.293   3.377  0.1469  0.1631  0.1116
    1SOL     OW 8481   3.392   4.406   3.488  0.2902  0.6815  0.1677
    1SOL    HW2 8482   3.373   4.398   3.581 -0.7566  1.4326  0.0234
    1SOL    HW3 8483   3.399   4.500   3.473  0.7131  0.5528 -0.4659
    1SOL    MW4 8484   3.391   4.417   3.498  0.2079  0.7639  0.0651
    1SOL     OW 8485   3.833   4.640   3.397  0.3547  0.0778  0.3958
    1SOL    HW2 8486   3.763   4.693   3.435 -0.4564 -1.0150  0.4532
    1SOL    HW3 8487   3.818   4.645   3.302 -0.0759 -0.5210  0.4300
    1SOL    MW4 8488   3.822   4.647   3.389  0.1907 -0.1454  0.4079
    1SOL     OW 8489   3.644   0.117   3.499 -0.0109 -0.5471  0.4113
    1SOL    HW2 8490   3.644   0.212   3.493 -0.9637 -0.4762  1.4655
    1SOL    HW3 8491   3.556   0.091   3.473 -0.0238 -1.0806  0.9676
    1SOL    MW4 8492   3.632   0.126   3.495 -0.1385 -0.6081  0.6239
    1SOL     OW 8493   3.596   0.374   3.406 -0.3430  0.1118 -0.2108
    1SOL    HW2 8494   3.673   0.429   3.423 -0.0475 -0.5417  0.6313
    1SOL    HW3 8495   3.524   0.423   3.444 -0.5046  1.1836 -1.8559
    1SOL    MW4 8496   3.597   0.388   3.414 -0.3254  0.1670 -0.3166
    1SOL     OW 8497   3.838   0.494   3.476  0.4611  0.1492  0.1852
    1SOL    HW2 8498   3.825   0.502   3.571  0.5914  0.1526  0.2030
    1SOL    HW3 8499   3.926   0.458   3.467  0.7655  0.9175  0.0433
    1SOL    MW4 8500   3.848   0.490   3.488  0.5183  0.2510  0.1688
    1SOL     OW 8501   3.788   0.751   3.387  0.1789 -0.2331 -0.1853
    1SOL    HW2 8502   3.860   0.810   3.407  0.5244  0.3685 -3.0105
    1SOL    HW3 8503   3.818   0.665   3.418  2.5818 -0.1907 -2.1927
    1SOL    MW4 8504   3.801   0.747   3.393  0.5417 -0.1481 -0.8230
    1SOL     OW 8505   3.573   0.878   3.506 -0.3452 -0.3114  0.0512
    1SOL    HW2 8506   3.582   0.869   3.601  0.5395 -0.9442 -0.0818
    1SOL    HW3 8507   3.651   0.835   3.471 -0.1822  0.7852 -0.9322
    1SOL    MW4 8508   3.584   0.871   3.514 -0.2072 -0.2503 -0.0961
    1SOL     OW 8509   3.559   1.153   3.420  0.0668 -0.0261  0.0197
    1SOL    HW2 8510   3.557   1.062   3.449  0.1867 -0.4351 -1.2285
    1SOL    HW3 8511   3.556   1.148   3.324  2.6068  1.1820 -0.1502
    1SOL    MW4 8512   3.558   1.140   3.411  0.4182  0.0794 -0.1676
    1SOL     OW 8513   3.776   1.281   3.525 -0.0153  0.1347 -0.1727
    1SOL    HW2 8514   3.773   1.265   3.620 -2.5648  0.8658 -0.0711
    1SOL    HW3 8515   3.709   1.224   3.489 -0.1699  1.0416 -1.3452
    1SOL    MW4 8516   3.767   1.272   3.533 -0.3719  0.3510 -0.3142
    1SOL     OW 8517   3.794   1.548   3.409 -0.4415 -0.1659 -0.3872
    1SOL    HW2 8518   3.863   1.609   3.434 -0.6023 -0.0915 -0.1201
    1SOL    HW3 8519   3.814   1.468   3.458  0.1154 -0.5299 -1.2084
    1SOL    MW4 8520   3.806   1.546   3.419 -0.3893 -0.2041 -0.4604
    1SOL     OW 8521   3.573   1.681   3.528  0.0866  0.5377  0.1632
    1SOL    HW2 8522   3.574   1.771   3.495  1.1334  0.4864  0.0598
    1SOL    HW3 8523   3.643   1.637   3.480 -0.9661 -0.5603 -0.4105
    1SOL    MW4 8524   3.582   1.687   3.517  0.0858  0.3860  0.0737
    1SOL     OW 8525   3.563   1.945   3.398 -0.1229  0.1851  0.3215
    1SOL    HW2 8526   3.635   1.989   3.443  0.3379  0.2127 -0.4491
    1SOL    HW3 8527   3.484   1.992   3.427  0.3541  1.4562 -0.4368
    1SOL    MW4 8528   3.562   1.957   3.408  0.0007  0.3566  0.1197
    1SOL     OW 8529   3.784   2.096   3.505  0.8447 -0.3262  0.3180
    1SOL    HW2 8530   3.776   2.083   3.600  0.0113 -0.7464  0.1938
    1SOL    HW3 8531   3.862   2.046   3.481  0.9249 -0.4112  0.7405
    1SOL    MW4 8532   3.793   2.088   3.515  0.7455 -0.3929  0.3574
    1SOL     OW 8533   3.800   2.342   3.411 -0.2613  0.3391  0.0091
    1SOL    HW2 8534   3.880   2.381   3.446 -0.4103  0.9763 -0.3309
    1SOL    HW3 8535   3.796   2.255   3.449  0.9677  0.0352 -0.5236
    1SOL    MW4 8536   3.810   2.336   3.420 -0.1187  0.3834 -0.1061
    1SOL     OW 8537   3.555   2.465   3.490  0.1755  0.3794 -0.2730
    1SOL    HW2 8538   3.546   2.547   3.441 -0.0065 -0.0620 -0.9969
    1SOL    HW3 8539   3.628   2.420   3.447 -0.0118 -0.0326 -0.1603
    1SOL    MW4 8540   3.564   2.470   3.478  0.1271  0.2668 -0.3533
    1SOL     OW 8541   3.526   2.709   3.366 -0.7429  0.3954  0.0066
    1SOL    HW2 8542   3.614   2.739   3.387 -0.7250  1.2817 -1.2982
    1SOL    HW3 8543   3.468   2.762   3.421 -0.5697  1.0758 -0.4718
    1SOL    MW4 8544   3.530   2.720   3.376 -0.7176  0.6020 -0.2286
    1SOL     OW 8545   3.763   2.831   3.446 -0.6343  0.4433 -0.2615
    1SOL    HW2 8546   3.752   2.829   3.541 -0.4034  0.2509 -0.2414
    1SOL    HW3 8547   3.763   2.925   3.424 -1.2271  0.4775 -0.1321
    1SOL    MW4 8548   3.761   2.843   3.455 -0.6821  0.4222 -0.2415
    1SOL     OW 8549   3.788   3.121   3.447 -0.5043 -0.3285 -0.0371
    1SOL    HW2 8550   3.865   3.170   3.474 -0.9689  0.4685 -0.1350
    1SOL    HW3 8551   3.780   3.138   3.353 -0.8774 -0.3088 -0.0016
    1SOL    MW4 8552   3.797   3.129   3.438 -0.6151 -0.2210 -0.0453
    1SOL     OW 8553   3.564   3.263   3.530  0.1586 -0.2733  0.3296
    1SOL    HW2 8554   3.585   3.351   3.499 -0.2735 -0.7934 -1.5077
    1SOL    HW3 8555   3.642   3.211   3.512  0.5577 -0.1964  1.7692
    1SOL    MW4 8556   3.577   3.267   3.524  0.1543 -0.3316  0.2775
    1SOL     OW 8557   3.582   3.511   3.433  0.3750  0.0419  0.2210
    1SOL    HW2 8558   3.499   3.557   3.446 -0.6812 -1.8857  0.5521
    1SOL    HW3 8559   3.588   3.499   3.338  1.7082  2.6609 -0.0875
    1SOL    MW4 8560   3.572   3.516   3.422  0.4115  0.1335  0.2239
    1SOL     OW 8561   3.822   3.620   3.525 -0.1138 -0.2288  0.2038
    1SOL    HW2 8562   3.814   3.616   3.620  1.3640 -0.8120  0.3073
    1SOL    HW3 8563   3.736   3.593   3.493 -0.2496 -1.2107  1.3554
    1SOL    MW4 8564   3.809   3.616   3.533  0.0629 -0.4349  0.3695
    1SOL     OW 8565   3.878   3.884   3.384  0.4148  0.3278 -0.4517
    1SOL    HW2 8566   3.792   3.915   3.412  1.0147 -0.1922  2.1229
    1SOL    HW3 8567   3.891   3.802   3.431  2.5745  0.7078 -0.3102
    1SOL    MW4 8568   3.868   3.878   3.394  0.7787  0.3092 -0.0932
    1SOL     OW 8569   3.640   3.988   3.450  0.2299  0.1113 -0.0628
    1SOL    HW2 8570   3.625   3.998   3.544  0.6675  0.4271 -0.0218
    1SOL    HW3 8571   3.640   4.078   3.417 -0.9060 -0.0520 -0.5254
    1SOL    MW4 8572   3.638   4.001   3.458  0.1380  0.1316 -0.1183
    1SOL     OW 8573   3.608   4.267   3.393 -0.0040  0.5448 -0.8870
    1SOL    HW2 8574   3.526   4.310   3.415  0.0815  0.6977 -0.8650
    1SOL    HW3 8575   3.630   4.299   3.306  0.2737  0.8761 -0.7012
    1SOL    MW4 8576   3.600   4.277   3.385  0.0439  0.6089 -0.8600
    1SOL     OW 8577   3.816   4.400   3.512  0.0515  0.1165  0.2896
    1SOL    HW2 8578   3.744   4.347   3.479  0.7226 -0.4592 -0.2783
    1SOL    HW3 8579   3.816   4.478   3.456 -0.3627  0.2968  0.5379
    1SOL    MW4 8580   3.807   4.404   3.500  0.0856  0.0644  0.2475
    1SOL     OW 8581   4.319   4.629   3.380 -0.3674  0.4866  0.3446
    1SOL    HW2 8582   4.324   4.545   3.424  0.3909  0.8642  0.9891
    1SOL    HW3 8583   4.381   4.685   3.427 -1.7589  1.7674  0.7065
    1SOL    MW4 8584   4.328   4.625   3.392 -0.4506  0.7052  0.4776
    1SOL     OW 8585   4.066   0.098   3.496 -0.5481 -0.4852  0.1398
    1SOL    HW2 8586   4.130   0.040   3.455 -0.9685 -1.0902  0.3382
    1SOL    HW3 8587   3.981   0.059   3.476 -0.7906 -0.4206  1.0090
    1SOL    MW4 8588   4.063   0.085   3.488 -0.6356 -0.5565  0.2806
    1SOL     OW 8589   4.077   0.373   3.436 -0.3385  0.1106  0.2405
    1SOL    HW2 8590   4.081   0.278   3.447 -0.1922  0.3454  2.3244
    1SOL    HW3 8591   4.066   0.385   3.342 -2.5521 -2.0329  0.1609
    1SOL    MW4 8592   4.076   0.362   3.425 -0.6108 -0.1412  0.5047
    1SOL     OW 8593   4.310   0.545   3.464 -0.2209 -0.3916  0.3395
    1SOL    HW2 8594   4.287   0.624   3.414 -1.1241  0.2125  1.6807
    1SOL    HW3 8595   4.240   0.483   3.444 -0.5689 -0.1588  0.8276
    1SOL    MW4 8596   4.298   0.547   3.455 -0.3862 -0.2813  0.5805
    1SOL     OW 8597   4.257   0.782   3.350  0.0227  0.8728 -0.0276
    1SOL    HW2 8598   4.336   0.825   3.384  0.4845 -0.5906  0.7842
    1SOL    HW3 8599   4.262   0.794   3.256  1.3856  0.5243 -0.0065
    1SOL    MW4 8600   4.268   0.789   3.342  0.2632  0.6337  0.0825
    1SOL     OW 8601   4.014   0.908   3.466  0.5155  0.3066  0.1357
    1SOL    HW2 8602   4.019   1.003   3.455  1.4075 -0.0951 -3.5737
    1SOL    HW3 8603   4.094   0.875   3.424  1.0467 -2.0295  2.7971
    1SOL    MW4 8604   4.026   0.917   3.459  0.7038 -0.0546 -0.0029
    1SOL     OW 8605   4.007   1.172   3.405 -0.0925  0.0031 -0.0525
    1SOL    HW2 8606   4.077   1.206   3.460  0.2681  1.5151 -1.3970
    1SOL    HW3 8607   3.927   1.208   3.443  0.2329  1.8682 -1.0706
    1SOL    MW4 8608   4.006   1.181   3.417 -0.0019  0.4486 -0.3643
    1SOL     OW 8609   4.217   1.293   3.508  0.1449  0.3167 -0.3596
    1SOL    HW2 8610   4.227   1.384   3.480  0.7506 -0.1688 -1.7896
    1SOL    HW3 8611   4.298   1.251   3.480  0.4315 -0.3802  1.4706
    1SOL    MW4 8612   4.229   1.300   3.501  0.2623  0.1607 -0.3068
    1SOL     OW 8613   4.253   1.558   3.443  0.0093 -0.0783  0.1926
    1SOL    HW2 8614   4.184   1.623   3.456 -0.2589 -0.2815 -0.2016
    1SOL    HW3 8615   4.269   1.559   3.349  0.3425 -0.2355  0.2490
    1SOL    MW4 8616   4.246   1.567   3.433  0.0176 -0.1259  0.1483
    1SOL     OW 8617   4.007   1.697   3.495  0.2059 -0.1446  0.5074
    1SOL    HW2 8618   4.004   1.699   3.591 -0.1781 -0.7449  0.5076
    1SOL    HW3 8619   3.998   1.789   3.470 -0.1534 -0.0287  1.0369
    1SOL    MW4 8620   4.005   1.710   3.504  0.1078 -0.2085  0.5774
    1SOL     OW 8621   4.001   1.971   3.411 -0.2479 -0.8320 -0.0094
    1SOL    HW2 8622   4.074   2.008   3.461 -0.5006 -2.5340  1.6627
    1SOL    HW3 8623   4.028   1.981   3.319  1.0280  0.6757  0.5054
    1SOL    MW4 8624   4.014   1.977   3.405 -0.1130 -0.8576  0.2794
    1SOL     OW 8625   4.218   2.102   3.506 -0.4946 -0.1442  0.1414
    1SOL    HW2 8626   4.231   2.191   3.472 -0.2080 -0.1225  0.3043
    1SOL    HW3 8627   4.294   2.053   3.476 -1.2380 -0.6452 -0.9507
    1SOL    MW4 8628   4.230   2.107   3.498 -0.5546 -0.2074  0.0188
    1SOL     OW 8629   4.251   2.354   3.396 -0.2317 -0.0888  0.3341
    1SOL    HW2 8630   4.178   2.412   3.419 -1.5222 -1.0498 -1.2301
    1SOL    HW3 8631   4.252   2.354   3.300  2.0178  0.1166  0.3225
    1SOL    MW4 8632   4.242   2.362   3.386 -0.1059 -0.1886  0.1261
    1SOL     OW 8633   4.018   2.474   3.511  0.0053  0.2272  0.3377
    1SOL    HW2 8634   4.037   2.487   3.604 -0.6290  0.8268  0.3820
    1SOL    HW3 8635   4.003   2.562   3.477 -0.8458 -0.0851 -0.1024
    1SOL    MW4 8636   4.019   2.487   3.519 -0.1907  0.2654  0.2856
    1SOL     OW 8637   4.023   2.720   3.403  0.2422 -0.2187  0.1444
    1SOL    HW2 8638   4.101   2.771   3.426 -0.4360  1.2140 -0.7062
    1SOL    HW3 8639   3.950   2.773   3.434 -0.4673 -0.7696 -0.5704
    1SOL    MW4 8640   4.024   2.733   3.411  0.0596 -0.1023 -0.0622
    1SOL     OW 8641   4.265   2.838   3.483  0.3990  0.0489  0.4018
    1SOL    HW2 8642   4.273   2.837   3.578 -0.8419  0.8510  0.5248
    1SOL    HW3 8643   4.353   2.816   3.451  0.5101 -1.5406  1.7284
    1SOL    MW4 8644   4.277   2.835   3.491  0.2503 -0.0548  0.5932
    1SOL     OW 8645   4.256   3.094   3.393 -0.1634  0.0522  0.3225
    1SOL    HW2 8646   4.254   3.005   3.428 -0.0869 -0.1684 -0.2343
    1SOL    HW3 8647   4.255   3.083   3.298  2.5793  0.5436  0.1800
    1SOL    MW4 8648   4.256   3.081   3.385  0.2089  0.0877  0.2303
    1SOL     OW 8649   4.027   3.239   3.487 -0.1195  0.2531 -0.3511
    1SOL    HW2 8650   4.039   3.325   3.447  0.5978 -0.3761 -1.5422
    1SOL    HW3 8651   4.104   3.189   3.458  0.6749 -0.0811  2.2370
    1SOL    MW4 8652   4.039   3.243   3.478  0.0796  0.1261 -0.1669
    1SOL     OW 8653   4.069   3.519   3.410  0.2871 -0.0255  0.1952
    1SOL    HW2 8654   4.140   3.561   3.457  0.3170  1.4354 -1.1008
    1SOL    HW3 8655   3.989   3.550   3.453  0.3192  1.2033 -0.6131
    1SOL    MW4 8656   4.068   3.529   3.422  0.2952  0.3297 -0.0825
    1SOL     OW 8657   4.274   3.652   3.526  0.2069  0.3924 -0.2708
    1SOL    HW2 8658   4.252   3.682   3.615 -0.4770 -0.9991  0.0448
    1SOL    HW3 8659   4.278   3.732   3.474 -0.4428  1.1342  0.7980
    1SOL    MW4 8660   4.272   3.666   3.531  0.0310  0.3066 -0.0885
    1SOL     OW 8661   4.266   3.895   3.381 -0.1780  0.0388 -0.0988
    1SOL    HW2 8662   4.350   3.932   3.408 -1.0190  0.8543  1.5243
    1SOL    HW3 8663   4.269   3.893   3.286  2.2782 -1.3756 -0.0323
    1SOL    MW4 8664   4.278   3.900   3.372  0.0348 -0.0401  0.1242
    1SOL     OW 8665   4.062   4.032   3.523 -0.1972  0.9346 -0.0223
    1SOL    HW2 8666   4.132   3.991   3.472  0.1605 -1.8281  2.5865
    1SOL    HW3 8667   3.982   3.989   3.494 -0.3457  1.3065 -0.1763
    1SOL    MW4 8668   4.061   4.021   3.512 -0.1698  0.6189  0.3016
    1SOL     OW 8669   4.054   4.296   3.466 -0.2458  0.2106  0.0655
    1SOL    HW2 8670   4.056   4.202   3.482 -0.3221 -0.2202 -2.3086
    1SOL    HW3 8671   3.967   4.324   3.497 -0.2945 -0.5213  0.5980
    1SOL    MW4 8672   4.043   4.288   3.472 -0.2623  0.0567 -0.1776
    1SOL     OW 8673   4.300   4.397   3.514 -0.0216 -0.2428  0.3493
    1SOL    HW2 8674   4.299   4.405   3.610  0.1315  1.8215  0.1947
    1SOL    HW3 8675   4.217   4.356   3.493 -0.2058 -0.3987  1.3449
    1SOL    MW4 8676   4.289   4.392   3.524 -0.0253  0.0091  0.4599
    1SOL     OW 8677   0.228   4.658   3.869  0.2833  0.1796 -0.5612
    1SOL    HW2 8678   0.225   4.675   3.963  0.0156 -1.1506 -0.3160
    1SOL    HW3 8679   0.156   4.708   3.832  0.2096  0.4711 -0.0193
    1SOL    MW4 8680   0.218   4.667   3.877  0.2382  0.0424 -0.4570
    1SOL     OW 8681   0.009   0.125   3.783  0.0332 -0.5463 -0.1122
    1SOL    HW2 8682   0.009   0.214   3.816 -0.6008 -0.4757 -0.2929
    1SOL    HW3 8683   0.008   0.134   3.688  0.1168 -0.7436 -0.1333
    1SOL    MW4 8684   0.009   0.138   3.775 -0.0394 -0.5630 -0.1390
    1SOL     OW 8685   4.465   0.389   3.874 -0.0095 -0.2211 -0.1905
    1SOL    HW2 8686   4.392   0.438   3.836 -0.7093 -1.5269 -0.5836
    1SOL    HW3 8687   4.543   0.423   3.830 -0.2844  1.7362  0.7917
    1SOL    MW4 8688   4.466   0.400   3.863 -0.1378 -0.1352 -0.1128
    1SOL     OW 8689   0.185   0.487   3.752  0.8626  0.2072 -0.1749
    1SOL    HW2 8690   0.160   0.573   3.784 -0.7934 -0.7864  1.3235
    1SOL    HW3 8691   0.208   0.501   3.660 -1.8410  1.8513 -0.6523
    1SOL    MW4 8692   0.184   0.500   3.744  0.2874  0.2930 -0.0405
    1SOL     OW 8693   0.217   0.747   3.864  0.5978  0.2783 -0.5215
    1SOL    HW2 8694   0.221   0.742   3.960  1.2829  2.3700 -0.4120
    1SOL    HW3 8695   0.143   0.805   3.846  1.2465  0.9135 -1.2006
    1SOL    MW4 8696   0.208   0.754   3.875  0.7738  0.6381 -0.5968
    1SOL     OW 8697   0.006   0.891   3.714 -0.0856  0.2314 -0.0231
    1SOL    HW2 8698  -0.072   0.856   3.758 -0.0555 -0.3751 -0.4464
    1SOL    HW3 8699   0.018   0.978   3.753  0.1734 -0.4434  1.4698
    1SOL    MW4 8700  -0.003   0.898   3.725 -0.0474  0.0623  0.1180
    1SOL     OW 8701   0.042   1.132   3.857 -0.1512 -0.0476  0.4021
    1SOL    HW2 8702  -0.036   1.171   3.818  1.2311  1.8148 -0.5982
    1SOL    HW3 8703   0.027   1.136   3.952 -2.5421 -2.4943  0.1841
    1SOL    MW4 8704   0.030   1.138   3.865 -0.2842 -0.1248  0.2410
    1SOL     OW 8705   0.260   1.279   3.740  0.3592 -0.3018  0.0048
    1SOL    HW2 8706   0.259   1.368   3.776 -0.8877 -0.3764  0.1849
    1SOL    HW3 8707   0.183   1.237   3.778 -0.2336 -0.7956 -1.7163
    1SOL    MW4 8708   0.250   1.285   3.750  0.1165 -0.3767 -0.1984
    1SOL     OW 8709   0.220   1.539   3.854 -0.1832  0.4521  0.2261
    1SOL    HW2 8710   0.197   1.533   3.947 -0.0502  1.6245  0.3370
    1SOL    HW3 8711   0.140   1.571   3.812 -0.2330 -0.0471 -0.0602
    1SOL    MW4 8712   0.206   1.542   3.861 -0.1722  0.5407  0.2029
    1SOL     OW 8713   0.012   1.730   3.797  0.1551  0.0333  0.2565
    1SOL    HW2 8714  -0.003   1.821   3.822 -2.3658 -0.0421 -0.8417
    1SOL    HW3 8715  -0.004   1.727   3.703  1.4033 -1.3171  0.0651
    1SOL    MW4 8716   0.008   1.741   3.788 -0.0124 -0.1547  0.0863
    1SOL     OW 8717   0.017   1.989   3.870  0.7055  0.0681 -0.6775
    1SOL    HW2 8718   0.010   1.998   3.965 -1.2764 -0.2838 -0.7643
    1SOL    HW3 8719  -0.064   2.029   3.836  0.7045 -1.1133 -2.1146
    1SOL    MW4 8720   0.005   1.996   3.878  0.4439 -0.1342 -0.8783
    1SOL     OW 8721   0.208   2.113   3.710  0.2904  0.1276 -0.4675
    1SOL    HW2 8722   0.219   2.196   3.757  2.0875 -0.1796 -0.3091
    1SOL    HW3 8723   0.133   2.071   3.753  0.3115  0.9903  0.4414
    1SOL    MW4 8724   0.199   2.118   3.722  0.5303  0.2007 -0.3269
    1SOL     OW 8725   0.227   2.356   3.865  0.2088 -0.2559 -0.1569
    1SOL    HW2 8726   0.220   2.344   3.959  0.1118  0.5113 -0.0649
    1SOL    HW3 8727   0.142   2.390   3.838 -0.2304 -1.7708 -0.7289
    1SOL    MW4 8728   0.215   2.359   3.874  0.1381 -0.3545 -0.2203
    1SOL     OW 8729   4.485   2.458   3.783 -0.4453  0.4340  0.1435
    1SOL    HW2 8730   4.407   2.414   3.817 -0.5918  0.6862  0.1337
    1SOL    HW3 8731   4.477   2.548   3.815  0.8550 -0.0207  1.8670
    1SOL    MW4 8732   4.474   2.464   3.792 -0.2930  0.4072  0.3695
    1SOL     OW 8733   4.477   2.720   3.899  0.1999 -0.4776  0.0232
    1SOL    HW2 8734   4.475   2.718   3.994  1.5499  0.2659  0.0732
    1SOL    HW3 8735   4.561   2.760   3.877 -0.0390 -0.7610 -1.4805
    1SOL    MW4 8736   4.488   2.725   3.908  0.3465 -0.4168 -0.1688
    1SOL     OW 8737   0.208   2.876   3.809 -0.0572  0.0700  0.5772
    1SOL    HW2 8738   0.283   2.820   3.830 -1.4499 -1.8929  0.4119
    1SOL    HW3 8739   0.200   2.871   3.714  0.9168  2.0563  0.3505
    1SOL    MW4 8740   0.217   2.868   3.799 -0.1125  0.0732  0.5255
    1SOL     OW 8741   0.245   3.136   3.864 -0.2695 -0.0637  0.3616
    1SOL    HW2 8742   0.248   3.124   3.959 -0.3547 -1.1810  0.2294
    1SOL    HW3 8743   0.226   3.049   3.830 -0.9732  0.4850 -0.6447
    1SOL    MW4 8744   0.243   3.123   3.872 -0.3736 -0.1388  0.2115
    1SOL     OW 8745   0.002   3.273   3.775 -0.3796 -0.1487  0.0364
    1SOL    HW2 8746   0.072   3.221   3.815 -0.0221  0.2767 -0.0369
    1SOL    HW3 8747   0.012   3.258   3.681 -1.1490 -1.0584  0.0935
    1SOL    MW4 8748   0.012   3.264   3.768 -0.4340 -0.2129  0.0343
    1SOL     OW 8749   0.033   3.530   3.848  0.0592  0.0755  0.2948
    1SOL    HW2 8750   0.116   3.559   3.811  1.7173 -1.7940  2.3722
    1SOL    HW3 8751   0.012   3.450   3.800  0.0374 -0.0571  0.5252
    1SOL    MW4 8752   0.041   3.523   3.837  0.2751 -0.1888  0.5991
    1SOL     OW 8753   0.273   3.671   3.758  0.6683 -0.2943  0.3683
    1SOL    HW2 8754   0.331   3.631   3.823  1.0462 -0.9614 -0.3564
    1SOL    HW3 8755   0.229   3.742   3.804  0.9569 -0.7409  1.3349
    1SOL    MW4 8756   0.275   3.675   3.773  0.7562 -0.4411  0.4005
    1SOL     OW 8757   0.195   3.922   3.890  0.0440  0.4198  0.3906
    1SOL    HW2 8758   0.280   3.961   3.872  0.0135  0.6119  0.6702
    1SOL    HW3 8759   0.192   3.913   3.985 -1.2487  2.6456  0.5742
    1SOL    MW4 8760   0.206   3.926   3.900 -0.1306  0.7386  0.4518
    1SOL     OW 8761   4.479   4.055   3.749 -0.4482  0.4191 -0.3716
    1SOL    HW2 8762   4.412   4.022   3.809 -0.7898  0.2691 -0.8297
    1SOL    HW3 8763   4.562   4.025   3.786 -0.6454  0.4605  0.1068
    1SOL    MW4 8764   4.481   4.047   3.762 -0.5193  0.4039 -0.3691
    1SOL     OW 8765   0.049   4.287   3.887 -0.1396 -0.4012  0.6350
    1SOL    HW2 8766   0.124   4.327   3.841  0.0735  0.2905  1.5587
    1SOL    HW3 8767   0.033   4.205   3.840  0.3439  0.0869 -0.4035
    1SOL    MW4 8768   0.057   4.282   3.875 -0.0477 -0.2451  0.6196
    1SOL     OW 8769   0.289   4.399   3.787  0.4157  0.1757  0.3736
    1SOL    HW2 8770   0.359   4.363   3.841  0.4562  1.2540  1.0700
    1SOL    HW3 8771   0.267   4.483   3.829 -0.8555  0.1458 -0.1942
    1SOL    MW4 8772   0.295   4.405   3.800  0.2533  0.3142  0.3905
    1SOL     OW 8773   0.657   0.014   3.914  0.1411  0.1735  0.2513
    1SOL    HW2 8774   0.653  -0.072   3.872  1.9950  0.1155  0.1308
    1SOL    HW3 8775   0.606   0.071   3.857 -0.5232 -0.6977 -0.0393
    1SOL    MW4 8776   0.650   0.010   3.901  0.2981  0.0510  0.1969
    1SOL     OW 8777   0.458   0.140   3.751 -0.3030 -0.0478  0.1422
    1SOL    HW2 8778   0.444   0.227   3.790  0.7816  0.4298 -0.5268
    1SOL    HW3 8779   0.384   0.088   3.783 -0.5904  0.9269  1.1103
    1SOL    MW4 8780   0.446   0.145   3.761 -0.1978  0.1438  0.1819
    1SOL     OW 8781   0.451   0.397   3.856  0.3032 -0.1103 -0.2968
    1SOL    HW2 8782   0.518   0.449   3.811  0.8134  0.1148  0.7013
    1SOL    HW3 8783   0.369   0.442   3.838  0.5764  0.2874 -0.5513
    1SOL    MW4 8784   0.449   0.409   3.848  0.4065 -0.0282 -0.1986
    1SOL     OW 8785   0.668   0.521   3.762 -0.4296 -0.0777 -0.0956
    1SOL    HW2 8786   0.743   0.481   3.806 -0.5630 -1.0924 -0.7674
    1SOL    HW3 8787   0.653   0.602   3.810 -1.0671 -1.5073  2.2302
    1SOL    MW4 8788   0.676   0.526   3.774 -0.5313 -0.4002  0.1225
    1SOL     OW 8789   0.648   0.767   3.866 -0.0769 -0.3233 -0.4824
    1SOL    HW2 8790   0.727   0.798   3.823 -0.4929  0.8573 -0.4211
    1SOL    HW3 8791   0.578   0.786   3.804 -0.3106 -1.4913 -0.6005
    1SOL    MW4 8792   0.649   0.773   3.852 -0.1626 -0.3216 -0.4900
    1SOL     OW 8793   0.437   0.856   3.720  0.0427 -0.1429  0.1906
    1SOL    HW2 8794   0.443   0.942   3.761  0.0526 -0.4930  0.9486
    1SOL    HW3 8795   0.355   0.820   3.753 -0.4600 -0.0270 -0.9170
    1SOL    MW4 8796   0.427   0.862   3.730 -0.0224 -0.1738  0.1445
    1SOL     OW 8797   0.464   1.115   3.822  0.1795  0.0527 -0.2858
    1SOL    HW2 8798   0.550   1.155   3.806  0.1186  0.8761  1.3298
    1SOL    HW3 8799   0.402   1.184   3.801 -0.0050  0.1342  0.5180
    1SOL    MW4 8800   0.467   1.130   3.817  0.1471  0.1720  0.0336
    1SOL     OW 8801   0.672   1.279   3.776 -0.5292 -0.0779  0.0311
    1SOL    HW2 8802   0.755   1.244   3.808 -0.4997  0.4727  0.5579
    1SOL    HW3 8803   0.677   1.267   3.681  0.4993  0.6756 -0.0213
    1SOL    MW4 8804   0.683   1.273   3.767 -0.3896  0.0943  0.0937
    1SOL     OW 8805   0.648   1.557   3.846  0.5053 -0.0194 -0.1338
    1SOL    HW2 8806   0.724   1.602   3.808  0.6337  0.4238  0.6349
    1SOL    HW3 8807   0.659   1.465   3.820  1.9095 -0.1640  0.9166
    1SOL    MW4 8808   0.659   1.551   3.838  0.7075  0.0200  0.1061
    1SOL     OW 8809   0.422   1.676   3.762  0.1456 -0.2855 -0.0275
    1SOL    HW2 8810   0.498   1.625   3.791 -1.3312 -2.3504  0.2837
    1SOL    HW3 8811   0.347   1.633   3.803 -1.4531  0.0968 -2.4773
    1SOL    MW4 8812   0.422   1.664   3.771 -0.2601 -0.5075 -0.3097
    1SOL     OW 8813   0.428   1.961   3.833 -0.3339 -0.3320 -0.2601
    1SOL    HW2 8814   0.416   1.867   3.821 -0.3688 -0.5269  1.2838
    1SOL    HW3 8815   0.348   2.000   3.799  0.3755 -0.7263 -2.4778
    1SOL    MW4 8816   0.416   1.954   3.827 -0.2449 -0.4097 -0.3488
    1SOL     OW 8817   0.662   2.087   3.722 -0.6237  0.0614 -0.1089
    1SOL    HW2 8818   0.655   2.174   3.762 -0.0740  0.6238 -1.2137
    1SOL    HW3 8819   0.587   2.038   3.758 -0.1232  0.5206  1.6425
    1SOL    MW4 8820   0.651   2.092   3.732 -0.4851  0.1962 -0.0238
    1SOL     OW 8821   0.625   2.325   3.863  0.1378 -0.2652  0.6752
    1SOL    HW2 8822   0.697   2.355   3.807  0.6476 -2.0132  0.3567
    1SOL    HW3 8823   0.548   2.368   3.827  0.4858 -1.2148 -1.2933
    1SOL    MW4 8824   0.625   2.335   3.851  0.2511 -0.6216  0.3736
    1SOL     OW 8825   0.436   2.492   3.746 -0.0869 -0.6394  0.0661
    1SOL    HW2 8826   0.350   2.459   3.772 -1.3032  1.3001 -1.3591
    1SOL    HW3 8827   0.438   2.483   3.651  1.8839 -1.9986  0.2138
    1SOL    MW4 8828   0.425   2.486   3.737  0.0127 -0.5627 -0.1028
    1SOL     OW 8829   0.455   2.739   3.857  0.0629 -0.0941 -0.2936
    1SOL    HW2 8830   0.523   2.784   3.806  0.7459 -0.5015  0.2519
    1SOL    HW3 8831   0.443   2.656   3.812 -0.9635  0.4752 -1.1070
    1SOL    MW4 8832   0.463   2.734   3.844  0.0176 -0.0727 -0.3288
    1SOL     OW 8833   0.668   2.879   3.734  0.8185  0.0978 -0.2435
    1SOL    HW2 8834   0.732   2.810   3.752 -0.0847 -0.8895 -0.7364
    1SOL    HW3 8835   0.660   2.880   3.639 -0.3556 -0.2335 -0.1623
    1SOL    MW4 8836   0.675   2.870   3.724  0.5444 -0.0761 -0.2978
    1SOL     OW 8837   0.700   3.144   3.863 -0.0790  0.1462  0.2521
    1SOL    HW2 8838   0.702   3.133   3.958  0.3534  0.9630  0.3433
    1SOL    HW3 8839   0.703   3.055   3.828 -1.7587 -0.2411  1.0252
    1SOL    MW4 8840   0.700   3.131   3.870 -0.2436  0.2029  0.3660
    1SOL     OW 8841   0.475   3.273   3.789  0.8573 -0.0871  0.3778
    1SOL    HW2 8842   0.541   3.226   3.840  0.7296 -0.2532  0.3934
    1SOL    HW3 8843   0.393   3.226   3.808  0.5859  0.6724  1.0674
    1SOL    MW4 8844   0.473   3.260   3.798  0.8047 -0.0091  0.4711
    1SOL     OW 8845   0.448   3.526   3.912  0.1199 -0.0314  0.0187
    1SOL    HW2 8846   0.508   3.589   3.873 -1.0558  1.1862  0.1632
    1SOL    HW3 8847   0.471   3.443   3.870  1.8641  0.4215  0.0346
    1SOL    MW4 8848   0.459   3.523   3.901  0.1949  0.1886  0.0398
    1SOL     OW 8849   0.629   3.673   3.767  0.2581  0.3344  0.7261
    1SOL    HW2 8850   0.653   3.763   3.788 -0.0310  0.6334 -0.1839
    1SOL    HW3 8851   0.641   3.667   3.672 -0.4186 -0.3663  0.6797
    1SOL    MW4 8852   0.634   3.684   3.757  0.1307  0.2813  0.5999
    1SOL     OW 8853   0.706   3.922   3.899  0.2274  0.2391  0.1382
    1SOL    HW2 8854   0.741   3.950   3.984 -0.2017 -1.6287  0.9545
    1SOL    HW3 8855   0.763   3.964   3.834  1.7953  0.0759  1.3842
    1SOL    MW4 8856   0.718   3.931   3.902  0.3777 -0.0291  0.4101
    1SOL     OW 8857   0.444   4.025   3.800 -0.2708 -0.3435  0.3246
    1SOL    HW2 8858   0.527   3.990   3.832  0.0597  0.8879  0.8140
    1SOL    HW3 8859   0.449   4.016   3.705 -0.4008 -2.0863  0.4641
    1SOL    MW4 8860   0.456   4.019   3.792 -0.2444 -0.4106  0.4075
    1SOL     OW 8861   0.485   4.253   3.942 -0.6648 -0.1491  0.2343
    1SOL    HW2 8862   0.538   4.313   3.890 -0.4582  0.1234  0.7542
    1SOL    HW3 8863   0.488   4.170   3.894  0.3726 -0.1805  0.3487
    1SOL    MW4 8864   0.492   4.250   3.929 -0.5006 -0.1178  0.3181
    1SOL     OW 8865   0.627   4.444   3.773 -0.0128  0.3971 -0.1394
    1SOL    HW2 8866   0.706   4.398   3.802  0.7622  1.4301 -0.5823
    1SOL    HW3 8867   0.629   4.436   3.678 -1.2832 -0.9287 -0.0637
    1SOL    MW4 8868   0.638   4.437   3.764 -0.0782  0.3591 -0.1879
    1SOL     OW 8869   1.152   4.640   3.925 -0.0138  0.7835  0.1461
    1SOL    HW2 8870   1.219   4.688   3.876  0.4022 -0.0684 -0.1307
    1SOL    HW3 8871   1.145   4.556   3.879 -3.4016  1.9644 -1.6616
    1SOL    MW4 8872   1.160   4.635   3.913 -0.4059  0.8268 -0.1290
    1SOL     OW 8873   0.931   0.094   3.833  0.0206  0.0555 -0.1094
    1SOL    HW2 8874   1.007   0.051   3.872  0.7911  0.7006 -0.8867
    1SOL    HW3 8875   0.856   0.054   3.877  0.8535  0.4872  1.7501
    1SOL    MW4 8876   0.931   0.083   3.844  0.2322  0.1976  0.0331
    1SOL     OW 8877   0.899   0.366   3.859  0.8873  0.0020  0.2811
    1SOL    HW2 8878   0.892   0.360   3.954  0.2972 -2.0797  0.1297
    1SOL    HW3 8879   0.908   0.275   3.829 -1.0216  0.4591 -1.8037
    1SOL    MW4 8880   0.900   0.353   3.867  0.5575 -0.2123 -0.0136
    1SOL     OW 8881   1.125   0.536   3.773  0.1114 -0.4529 -0.2133
    1SOL    HW2 8882   1.202   0.488   3.806  0.4475  0.9632  1.1038
    1SOL    HW3 8883   1.050   0.492   3.815  0.3555 -0.4446  0.2361
    1SOL    MW4 8884   1.125   0.524   3.783  0.1879 -0.2649  0.0196
    1SOL     OW 8885   1.127   0.802   3.837 -0.0050 -0.2455 -0.0877
    1SOL    HW2 8886   1.144   0.787   3.930  1.0014  0.1234 -0.2130
    1SOL    HW3 8887   1.134   0.715   3.797  1.0946 -0.1771 -0.0557
    1SOL    MW4 8888   1.130   0.788   3.844  0.2729 -0.1878 -0.0999
    1SOL     OW 8889   0.879   0.884   3.751 -0.4179  0.0079 -0.6276
    1SOL    HW2 8890   0.964   0.848   3.779  0.0210  0.5385 -1.2706
    1SOL    HW3 8891   0.886   0.891   3.656 -1.1600  0.1224 -0.6743
    1SOL    MW4 8892   0.891   0.880   3.743 -0.4579  0.0930 -0.7186
    1SOL     OW 8893   0.886   1.134   3.853 -0.7819  0.6659  0.2013
    1SOL    HW2 8894   0.902   1.124   3.947  0.4662 -0.1333 -0.0915
    1SOL    HW3 8895   0.870   1.045   3.821  1.4844  0.5914 -0.8086
    1SOL    MW4 8896   0.886   1.121   3.861 -0.3182  0.5507  0.0293
    1SOL     OW 8897   1.102   1.292   3.751  0.0322 -0.2167  0.0185
    1SOL    HW2 8898   1.076   1.380   3.780  0.1628 -0.8985  2.2834
    1SOL    HW3 8899   1.029   1.236   3.775  1.3659 -1.2778  1.6839
    1SOL    MW4 8900   1.089   1.296   3.758  0.2255 -0.4467  0.5369
    1SOL     OW 8901   1.077   1.557   3.846  0.0697 -0.0446 -0.1362
    1SOL    HW2 8902   1.097   1.535   3.937  1.5239 -0.1997 -0.4725
    1SOL    HW3 8903   1.160   1.590   3.811 -0.6802  0.7768 -1.1800
    1SOL    MW4 8904   1.091   1.559   3.853  0.1627  0.0433 -0.3183
    1SOL     OW 8905   0.866   1.698   3.752  0.2944 -0.1462  0.2892
    1SOL    HW2 8906   0.935   1.642   3.788 -1.3603 -1.4802  1.4448
    1SOL    HW3 8907   0.874   1.688   3.657  1.5310 -0.4931  0.4284
    1SOL    MW4 8908   0.876   1.689   3.744  0.2393 -0.3679  0.4599
    1SOL     OW 8909   0.867   1.973   3.853  0.2994 -0.1573  0.3685
    1SOL    HW2 8910   0.862   1.879   3.831 -1.7472 -0.3960  1.7131
    1SOL    HW3 8911   0.796   2.013   3.803  2.7170  1.1487 -2.1785
    1SOL    MW4 8912   0.857   1.966   3.843  0.3483 -0.0165  0.2100
    1SOL     OW 8913   1.125   2.042   3.771  0.2301  0.2792 -0.5101
    1SOL    HW2 8914   1.035   2.018   3.795  1.0845 -1.4684  1.1190
    1SOL    HW3 8915   1.125   2.042   3.676 -1.3222 -0.4536 -0.5281
    1SOL    MW4 8916   1.113   2.038   3.762  0.1380 -0.0484 -0.2973
    1SOL     OW 8917   1.115   2.321   3.859 -0.0971 -0.1394  0.1891
    1SOL    HW2 8918   1.121   2.306   3.953 -0.7805 -0.5363  0.1644
    1SOL    HW3 8919   1.120   2.234   3.820  0.1189  0.0188 -0.1424
    1SOL    MW4 8920   1.117   2.308   3.866 -0.1588 -0.1709  0.1423
    1SOL     OW 8921   0.878   2.428   3.743  0.2814 -0.3367  0.2409
    1SOL    HW2 8922   0.893   2.521   3.762  0.0717 -0.2825  0.1485
    1SOL    HW3 8923   0.952   2.383   3.783  0.7658 -0.0631 -0.3315
    1SOL    MW4 8924   0.889   2.434   3.751  0.3177 -0.2935  0.1533
    1SOL     OW 8925   0.873   2.706   3.798  0.1626 -0.2580 -0.2263
    1SOL    HW2 8926   0.875   2.706   3.894  0.3267 -1.0716 -0.2209
    1SOL    HW3 8927   0.954   2.749   3.772  0.3687 -0.5029  0.0063
    1SOL    MW4 8928   0.884   2.712   3.808  0.2114 -0.3977 -0.1948
    1SOL     OW 8929   1.114   2.828   3.720 -0.4424  0.2682  0.3346
    1SOL    HW2 8930   1.187   2.792   3.771 -0.1676  1.4716  0.7972
    1SOL    HW3 8931   1.099   2.915   3.757  0.0066  1.3308 -1.8914
    1SOL    MW4 8932   1.122   2.834   3.732 -0.3469  0.5672  0.1020
    1SOL     OW 8933   1.070   3.094   3.836  0.0092  0.0966 -0.1879
    1SOL    HW2 8934   1.147   3.138   3.802  0.7867 -1.0793  0.0029
    1SOL    HW3 8935   0.997   3.149   3.809  0.9449  1.4956  0.0637
    1SOL    MW4 8936   1.071   3.107   3.828  0.2353  0.1259 -0.1297
    1SOL     OW 8937   0.888   3.301   3.749  0.3809 -0.0105  0.5213
    1SOL    HW2 8938   0.813   3.251   3.780  0.3001  0.5895  1.3178
    1SOL    HW3 8939   0.885   3.294   3.654 -1.2574  0.8385  0.4904
    1SOL    MW4 8940   0.878   3.294   3.741  0.1542  0.1810  0.6225
    1SOL     OW 8941   0.855   3.541   3.886  0.5061  0.1408  0.0572
    1SOL    HW2 8942   0.861   3.463   3.832 -0.3454  1.3385 -1.8381
    1SOL    HW3 8943   0.799   3.601   3.836  1.0446  1.9177  1.5062
    1SOL    MW4 8944   0.848   3.539   3.872  0.4648  0.5331 -0.0019
    1SOL     OW 8945   1.119   3.598   3.779 -0.2150 -0.5828  0.3981
    1SOL    HW2 8946   1.122   3.694   3.780  1.0184 -0.6162  1.3785
    1SOL    HW3 8947   1.038   3.576   3.824  0.1868 -0.0085  1.4305
    1SOL    MW4 8948   1.109   3.608   3.785  0.0007 -0.5112  0.6633
    1SOL     OW 8949   1.092   3.873   3.830  0.3099 -0.1736 -0.2867
    1SOL    HW2 8950   1.095   3.872   3.925 -0.1180  0.7282 -0.2570
    1SOL    HW3 8951   1.172   3.919   3.804  1.0336 -1.4744 -0.4088
    1SOL    MW4 8952   1.103   3.879   3.839  0.3490 -0.2260 -0.2990
    1SOL     OW 8953   0.883   4.035   3.729  0.1890 -0.2151  0.1420
    1SOL    HW2 8954   0.954   3.980   3.761  0.0670 -0.3235  0.2228
    1SOL    HW3 8955   0.887   4.025   3.633  0.9578  0.6074  0.0781
    1SOL    MW4 8956   0.893   4.027   3.720  0.2744 -0.1206  0.1440
    1SOL     OW 8957   0.847   4.304   3.868 -0.4327 -0.1827 -0.2378
    1SOL    HW2 8958   0.860   4.287   3.962  0.5672  1.9727  0.0490
    1SOL    HW3 8959   0.867   4.221   3.826 -0.7321 -1.1393  1.4458
    1SOL    MW4 8960   0.852   4.291   3.875 -0.3403 -0.0248  0.0224
    1SOL     OW 8961   1.102   4.387   3.800 -0.1008 -0.1727  0.1408
    1SOL    HW2 8962   1.013   4.370   3.832  0.1847 -2.5555 -0.2765
    1SOL    HW3 8963   1.094   4.386   3.705  0.3017 -0.0081  0.1033
    1SOL    MW4 8964   1.089   4.385   3.792 -0.0101 -0.4654  0.0808
    1SOL     OW 8965   1.545   0.003   3.904  0.8636  0.6039  0.2437
    1SOL    HW2 8966   1.495   0.011   3.985  0.7910  1.2022  0.1442
    1SOL    HW3 8967   1.542  -0.090   3.883 -0.7360  0.7140 -0.0923
    1SOL    MW4 8968   1.538  -0.008   3.912  0.6431  0.6981  0.1862
    1SOL     OW 8969   1.330   0.131   3.782 -0.0130  0.4121  0.2567
    1SOL    HW2 8970   1.340   0.226   3.787  0.3144  0.4656 -1.2069
    1SOL    HW3 8971   1.416   0.097   3.809  0.2742  0.5663 -0.4596
    1SOL    MW4 8972   1.343   0.139   3.787  0.0682  0.4395 -0.0310
    1SOL     OW 8973   1.357   0.394   3.823 -0.2713  0.0325  0.0128
    1SOL    HW2 8974   1.364   0.369   3.915  0.0302  1.9040  0.5216
    1SOL    HW3 8975   1.440   0.438   3.803 -1.2081  1.6472 -0.4922
    1SOL    MW4 8976   1.369   0.397   3.832 -0.3550  0.4925  0.0131
    1SOL     OW 8977   1.598   0.524   3.768 -0.0061  0.2168 -0.1896
    1SOL    HW2 8978   1.673   0.487   3.814 -0.3018 -0.0485  0.0772
    1SOL    HW3 8979   1.586   0.611   3.806 -0.2317  0.0095  0.2124
    1SOL    MW4 8980   1.607   0.531   3.779 -0.0749  0.1544 -0.1013
    1SOL     OW 8981   1.576   0.779   3.858  0.0602 -0.0578  0.2388
    1SOL    HW2 8982   1.655   0.831   3.848  0.7288 -1.3403 -1.6288
    1SOL    HW3 8983   1.504   0.838   3.833  0.4865  0.8693  1.1780
    1SOL    MW4 8984   1.577   0.793   3.853  0.2047 -0.1047  0.1166
    1SOL     OW 8985   1.351   0.927   3.773 -0.2161 -0.0472 -0.5630
    1SOL    HW2 8986   1.353   1.022   3.788  1.7650 -0.2685  0.8235
    1SOL    HW3 8987   1.261   0.902   3.795 -0.1132  1.1832  1.4262
    1SOL    MW4 8988   1.339   0.936   3.778  0.0589  0.0859 -0.1178
    1SOL     OW 8989   1.355   1.194   3.865 -0.4919  0.4754 -0.0351
    1SOL    HW2 8990   1.441   1.225   3.837 -0.8279  1.0036 -0.4862
    1SOL    HW3 8991   1.294   1.259   3.832 -1.0507  0.2047  0.4577
    1SOL    MW4 8992   1.358   1.206   3.857 -0.6099  0.5093 -0.0293
    1SOL     OW 8993   1.621   1.269   3.776  0.4137 -0.4004  0.0931
    1SOL    HW2 8994   1.704   1.230   3.804  0.4625  0.5773  1.3580
    1SOL    HW3 8995   1.622   1.357   3.812 -0.4710  0.1864 -1.2635
    1SOL    MW4 8996   1.632   1.275   3.785  0.3035 -0.1941  0.0813
    1SOL     OW 8997   1.570   1.542   3.851 -0.2076  0.3996  0.3504
    1SOL    HW2 8998   1.573   1.557   3.945  0.6740  0.8275  0.2553
    1SOL    HW3 8999   1.648   1.586   3.816 -0.5961  0.3654 -0.5930
    1SOL    MW4 9000   1.581   1.550   3.858 -0.1425  0.4514  0.2134
    1SOL     OW 9001   1.316   1.674   3.773  0.0325  0.4734 -0.3164
    1SOL    HW2 9002   1.331   1.767   3.790  1.2059  0.2256  0.0298
    1SOL    HW3 9003   1.382   1.629   3.825  1.3360 -0.4421 -2.7052
    1SOL    MW4 9004   1.327   1.680   3.782  0.3592  0.3200 -0.5860
    1SOL     OW 9005   1.367   1.946   3.853  0.6116 -0.0741 -0.1583
    1SOL    HW2 9006   1.367   1.915   3.944  1.3586  0.7025  0.1203
    1SOL    HW3 9007   1.275   1.967   3.835  0.3393 -0.9801  0.1551
    1SOL    MW4 9008   1.355   1.945   3.863  0.6742 -0.0912 -0.0801
    1SOL     OW 9009   1.593   2.087   3.778  0.2932  0.1475 -0.2298
    1SOL    HW2 9010   1.512   2.038   3.795 -1.1295  2.5056 -0.0558
    1SOL    HW3 9011   1.587   2.112   3.686  1.6114 -1.0110 -0.6544
    1SOL    MW4 9012   1.582   2.084   3.768  0.2794  0.3059 -0.2627
    1SOL     OW 9013   1.559   2.326   3.905 -0.2617 -0.7345  0.0290
    1SOL    HW2 9014   1.556   2.321   4.000  0.2473 -0.2504  0.0709
    1SOL    HW3 9015   1.567   2.235   3.876 -0.5747 -0.8937  0.4398
    1SOL    MW4 9016   1.559   2.314   3.913 -0.2358 -0.6919  0.0887
    1SOL     OW 9017   1.351   2.432   3.738  0.0092 -0.1281  0.4194
    1SOL    HW2 9018   1.415   2.386   3.792 -0.7807 -0.6039  0.9570
    1SOL    HW3 9019   1.266   2.400   3.769 -0.4846  0.4349 -0.3456
    1SOL    MW4 9020   1.348   2.422   3.749 -0.1602 -0.1168  0.3893
    1SOL     OW 9021   1.331   2.682   3.861 -0.3239 -0.0045  0.0403
    1SOL    HW2 9022   1.338   2.671   3.955 -1.5710  0.5344  0.2066
    1SOL    HW3 9023   1.356   2.597   3.825  0.8177 -0.0056  0.8158
    1SOL    MW4 9024   1.335   2.669   3.868 -0.3377  0.0665  0.1647
    1SOL     OW 9025   1.565   2.800   3.763  0.2133 -0.3527 -0.7297
    1SOL    HW2 9026   1.485   2.760   3.796  0.2731  0.2669  0.1797
    1SOL    HW3 9027   1.558   2.794   3.668  0.2761 -2.6216 -0.6127
    1SOL    MW4 9028   1.554   2.794   3.755  0.2296 -0.5701 -0.5941
    1SOL     OW 9029   1.542   3.060   3.815 -0.3739 -0.2325  0.1715
    1SOL    HW2 9030   1.553   3.067   3.910  0.7541 -0.4916  0.0615
    1SOL    HW3 9031   1.548   2.966   3.797 -0.4379 -0.1716 -0.1725
    1SOL    MW4 9032   1.544   3.049   3.825 -0.2335 -0.2584  0.1116
    1SOL     OW 9033   1.311   3.213   3.754  0.0807  0.0864  0.1642
    1SOL    HW2 9034   1.341   3.297   3.788  1.5358 -0.2147 -0.3762
    1SOL    HW3 9035   1.379   3.151   3.779 -0.3454 -0.6934 -0.6024
    1SOL    MW4 9036   1.324   3.216   3.762  0.2165 -0.0565 -0.0081
    1SOL     OW 9037   1.356   3.479   3.868 -0.2070  0.3993  0.5045
    1SOL    HW2 9038   1.410   3.554   3.842 -0.5883 -0.0021 -1.4541
    1SOL    HW3 9039   1.268   3.503   3.842 -0.5532 -0.1633  1.1391
    1SOL    MW4 9040   1.352   3.492   3.861 -0.3029  0.2720  0.3300
    1SOL     OW 9041   1.537   3.649   3.772  0.1951  0.1980  0.0883
    1SOL    HW2 9042   1.610   3.598   3.807  0.2339  0.5715  0.5634
    1SOL    HW3 9043   1.548   3.736   3.811  0.2148  0.6129 -0.8270
    1SOL    MW4 9044   1.548   3.654   3.782  0.2028  0.3021  0.0303
    1SOL     OW 9045   1.573   3.892   3.890 -0.3612  0.0078 -0.3515
    1SOL    HW2 9046   1.563   3.879   3.984 -2.0128 -0.0938 -0.5286
    1SOL    HW3 9047   1.491   3.933   3.862  0.8207  1.7087 -1.4559
    1SOL    MW4 9048   1.561   3.896   3.898 -0.4232  0.2191 -0.5205
    1SOL     OW 9049   1.330   4.011   3.802  0.1064 -0.4798 -0.4890
    1SOL    HW2 9050   1.344   4.099   3.836  0.2459 -0.4953 -0.5085
    1SOL    HW3 9051   1.339   4.020   3.707  0.2539 -0.5407 -0.4805
    1SOL    MW4 9052   1.333   4.024   3.794  0.1442 -0.4897 -0.4907
    1SOL     OW 9053   1.341   4.265   3.889 -0.0293  0.2757  0.2587
    1SOL    HW2 9054   1.411   4.309   3.839  1.5090 -0.8507  1.3745
    1SOL    HW3 9055   1.260   4.301   3.852  1.0748  0.3734 -2.2109
    1SOL    MW4 9056   1.340   4.276   3.877  0.3194  0.1397  0.0803
    1SOL     OW 9057   1.558   4.419   3.774 -0.3720 -0.2015 -0.2962
    1SOL    HW2 9058   1.637   4.373   3.801 -0.6821  0.1231  1.1980
    1SOL    HW3 9059   1.559   4.414   3.679  1.3279 -0.3875 -0.2822
    1SOL    MW4 9060   1.568   4.412   3.765 -0.1886 -0.1836 -0.0975
    1SOL     OW 9061   1.987   4.646   3.876 -0.3932  0.0677  0.3761
    1SOL    HW2 9062   2.071   4.685   3.856 -0.8613 -0.4108 -2.9223
    1SOL    HW3 9063   1.999   4.552   3.858 -1.3625 -0.1389  0.7451
    1SOL    MW4 9064   1.999   4.638   3.871 -0.5827 -0.0224 -0.0103
    1SOL     OW 9065   1.773   0.107   3.772  0.1623 -0.5095 -0.2557
    1SOL    HW2 9066   1.855   0.065   3.796  1.0021  1.7382  0.9149
    1SOL    HW3 9067   1.707   0.063   3.825  0.9745 -0.6283  0.6687
    1SOL    MW4 9068   1.775   0.096   3.782  0.3803 -0.2286  0.0207
    1SOL     OW 9069   1.784   0.365   3.869  0.0269  0.2707  0.1301
    1SOL    HW2 9070   1.777   0.346   3.962  0.8592 -1.0404 -0.0598
    1SOL    HW3 9071   1.782   0.279   3.827 -0.8467  0.8759 -1.1003
    1SOL    MW4 9072   1.783   0.351   3.876  0.0213  0.1776 -0.0572
    1SOL     OW 9073   2.007   0.540   3.794 -0.2587 -0.2882 -0.4255
    1SOL    HW2 9074   1.926   0.490   3.809 -1.7969  1.9965 -0.8091
    1SOL    HW3 9075   2.017   0.540   3.698 -0.1701 -0.0268 -0.4168
    1SOL    MW4 9076   1.997   0.533   3.783 -0.4499  0.0477 -0.4747
    1SOL     OW 9077   2.024   0.804   3.903 -0.1439  0.0536  0.2830
    1SOL    HW2 9078   2.011   0.811   3.997 -0.7040  2.4448  0.0532
    1SOL    HW3 9079   2.019   0.710   3.885  0.2910 -0.4484  2.6645
    1SOL    MW4 9080   2.021   0.793   3.913 -0.1605  0.3029  0.5670
    1SOL     OW 9081   1.806   0.922   3.793 -0.0267 -0.0973 -0.2055
    1SOL    HW2 9082   1.894   0.888   3.809 -0.1050  0.1708  0.8687
    1SOL    HW3 9083   1.797   0.925   3.698  1.3728  0.5088 -0.3187
    1SOL    MW4 9084   1.816   0.918   3.783  0.1478  0.0180 -0.0787
    1SOL     OW 9085   1.827   1.168   3.910  0.1534 -0.4242 -0.0476
    1SOL    HW2 9086   1.818   1.165   4.005 -1.5894  0.0496 -0.1641
    1SOL    HW3 9087   1.824   1.077   3.882 -0.9474 -0.4964  0.2545
    1SOL    MW4 9088   1.825   1.156   3.919 -0.2218 -0.3711 -0.0231
    1SOL     OW 9089   2.061   1.305   3.799 -0.0317 -0.3032  0.0120
    1SOL    HW2 9090   2.145   1.263   3.817  0.3990  0.7230  0.4287
    1SOL    HW3 9091   1.997   1.254   3.849  0.4835 -0.4516  0.5249
    1SOL    MW4 9092   2.063   1.292   3.808  0.0932 -0.1873  0.1347
    1SOL     OW 9093   2.046   1.577   3.892 -0.2584 -0.1307 -0.2732
    1SOL    HW2 9094   1.968   1.611   3.849 -0.0980  0.2320 -0.2840
    1SOL    HW3 9095   2.053   1.486   3.862 -0.6018 -0.1232 -0.3728
    1SOL    MW4 9096   2.037   1.570   3.882 -0.2825 -0.0818 -0.2878
    1SOL     OW 9097   1.821   1.678   3.771  0.1116  0.2418 -0.1997
    1SOL    HW2 9098   1.830   1.768   3.801  2.6189  0.2891 -0.9393
    1SOL    HW3 9099   1.808   1.685   3.677 -0.7239 -0.1344 -0.1139
    1SOL    MW4 9100   1.821   1.690   3.763  0.3322  0.1985 -0.2859
    1SOL     OW 9101   1.824   1.940   3.860  0.1708  0.0910  0.3075
    1SOL    HW2 9102   1.745   1.979   3.822  0.6341 -1.0630 -1.9302
    1SOL    HW3 9103   1.894   2.002   3.838  0.0252  0.7299  1.6144
    1SOL    MW4 9104   1.823   1.953   3.852  0.2127  0.0230  0.1848
    1SOL     OW 9105   2.021   2.387   3.827 -0.2934 -0.6866  0.2996
    1SOL    HW2 9106   2.095   2.437   3.793 -1.9260  1.1259 -0.6737
    1SOL    HW3 9107   2.016   2.413   3.920 -0.3774  0.0339  0.0979
    1SOL    MW4 9108   2.030   2.397   3.835 -0.5200 -0.3524  0.1445
    1SOL     OW 9109   2.265   2.480   3.705 -0.0444  0.4221  0.5423
    1SOL    HW2 9110   2.273   2.465   3.611  1.2090  1.0752  0.5347
    1SOL    HW3 9111   2.329   2.420   3.744  0.5114  1.2370  0.8850
    1SOL    MW4 9112   2.274   2.470   3.698  0.1943  0.6158  0.5865
    1SOL     OW 9113   1.769   2.421   3.723 -0.2755  0.1100 -0.0160
    1SOL    HW2 9114   1.860   2.413   3.751 -0.3322 -0.3565  0.0488
    1SOL    HW3 9115   1.721   2.361   3.780 -0.7451  0.9601  0.4840
    1SOL    MW4 9116   1.775   2.412   3.734 -0.3450  0.1609  0.0584
    1SOL     OW 9117   3.115   2.407   4.509  0.1844  0.1959 -0.2933
    1SOL    HW2 9118   3.020   2.417   4.497 -0.0641 -0.8972  0.6496
    1SOL    HW3 9119   3.147   2.496   4.526 -0.8706  0.3806  0.7592
    1SOL    MW4 9120   3.106   2.420   4.509  0.0124  0.0761 -0.0300
    1SOL     OW 9121   1.994   3.078   3.822 -0.2887 -0.4235 -0.2487
    1SOL    HW2 9122   2.083   3.105   3.798 -0.3880  0.1917  0.0659
    1SOL    HW3 9123   1.992   3.083   3.918 -0.7376 -0.1809 -0.2665
    1SOL    MW4 9124   2.005   3.082   3.832 -0.3610 -0.3102 -0.2098
    1SOL     OW 9125   2.019   2.819   3.733 -0.0624 -0.3601  0.2311
    1SOL    HW2 9126   1.995   2.905   3.767 -1.6687 -0.1067 -1.4604
    1SOL    HW3 9127   1.944   2.763   3.755 -0.1532 -0.7013 -0.9129
    1SOL    MW4 9128   2.006   2.823   3.741 -0.2861 -0.3717 -0.1428
    1SOL     OW 9129   1.773   3.243   3.753  0.1214 -0.3119 -0.1901
    1SOL    HW2 9130   1.850   3.190   3.775 -0.2823 -1.6899 -2.0036
    1SOL    HW3 9131   1.699   3.190   3.784 -0.1861  0.1592 -0.1226
    1SOL    MW4 9132   1.773   3.229   3.760  0.0275 -0.4318 -0.4206
    1SOL     OW 9133   1.764   3.506   3.809 -0.5258  0.2789  0.4971
    1SOL    HW2 9134   1.852   3.534   3.784 -0.9756  1.7486  0.5059
    1SOL    HW3 9135   1.764   3.411   3.796  0.5304  0.4850 -1.1307
    1SOL    MW4 9136   1.776   3.497   3.804 -0.4458  0.5002  0.2835
    1SOL     OW 9137   2.016   3.612   3.763 -0.1423 -0.2210  0.3297
    1SOL    HW2 9138   2.086   3.560   3.802  0.4829  0.5973  0.3280
    1SOL    HW3 9139   2.027   3.600   3.668  1.7437  2.0718  0.2029
    1SOL    MW4 9140   2.027   3.604   3.755  0.1891  0.1895  0.3128
    1SOL     OW 9141   2.032   3.886   3.822  0.4054  0.0404  0.1627
    1SOL    HW2 9142   2.120   3.917   3.799  0.8090 -0.4309  1.0194
    1SOL    HW3 9143   2.033   3.793   3.800  0.6349 -0.3043  1.5799
    1SOL    MW4 9144   2.044   3.878   3.816  0.4892 -0.0672  0.4628
    1SOL     OW 9145   1.789   4.011   3.724 -0.3868  0.3238  0.3174
    1SOL    HW2 9146   1.877   3.993   3.758  0.0577 -0.5251 -1.2009
    1SOL    HW3 9147   1.731   3.958   3.778  0.4026 -1.7604 -0.7937
    1SOL    MW4 9148   1.793   4.001   3.736 -0.2240 -0.0629 -0.0296
    1SOL     OW 9149   1.779   4.263   3.852  0.1300 -0.2453 -0.3524
    1SOL    HW2 9150   1.861   4.305   3.826  0.4429 -0.1166  0.8048
    1SOL    HW3 9151   1.787   4.173   3.819  0.8444 -0.3032 -0.0420
    1SOL    MW4 9152   1.791   4.257   3.845  0.2654 -0.2360 -0.1588
    1SOL     OW 9153   2.007   4.389   3.798 -0.2681  0.1163 -0.6638
    1SOL    HW2 9154   2.093   4.347   3.806 -0.3339  0.2829  1.2325
    1SOL    HW3 9155   1.998   4.409   3.705  1.4746 -0.4811 -0.9772
    1SOL    MW4 9156   2.018   4.386   3.787 -0.0470  0.0591 -0.4549
    1SOL     OW 9157   2.464   0.029   3.872 -0.2742 -0.3039  0.1358
    1SOL    HW2 9158   2.455   0.022   3.967  1.3990  1.4565  0.4520
    1SOL    HW3 9159   2.468  -0.062   3.842 -0.4779 -0.8724  1.7782
    1SOL    MW4 9160   2.464   0.016   3.880 -0.0806 -0.1467  0.3941
    1SOL     OW 9161   2.205   0.118   3.815 -0.0399 -0.2747  0.4642
    1SOL    HW2 9162   2.291   0.077   3.826  0.0410 -0.1742  0.2140
    1SOL    HW3 9163   2.197   0.131   3.720  0.2703  1.0097  0.6075
    1SOL    MW4 9164   2.215   0.115   3.804  0.0117 -0.0920  0.4501
    1SOL     OW 9165   2.205   0.383   3.906  0.2525 -0.1031 -0.0926
    1SOL    HW2 9166   2.195   0.294   3.872  0.2047  0.2049 -0.8852
    1SOL    HW3 9167   2.127   0.430   3.875  0.9465  0.5792 -0.8286
    1SOL    MW4 9168   2.193   0.378   3.898  0.3378  0.0276 -0.2940
    1SOL     OW 9169   2.430   0.486   3.763  0.0729 -0.0400 -0.6976
    1SOL    HW2 9170   2.352   0.437   3.792 -1.2928  2.1036 -0.6197
    1SOL    HW3 9171   2.426   0.483   3.668 -1.4325  1.9984 -0.7412
    1SOL    MW4 9172   2.419   0.479   3.755 -0.3061  0.5117 -0.6931
    1SOL     OW 9173   2.481   0.758   3.851 -0.0653 -0.5089 -0.1075
    1SOL    HW2 9174   2.410   0.811   3.815  0.4003  0.2873  0.1367
    1SOL    HW3 9175   2.446   0.669   3.852 -1.6181  0.0872  1.4046
    1SOL    MW4 9176   2.467   0.753   3.846 -0.2086 -0.3251  0.1240
    1SOL     OW 9177   2.264   0.894   3.745 -0.3214  0.2547 -0.1424
    1SOL    HW2 9178   2.188   0.846   3.778  0.8135 -1.7810 -0.3982
    1SOL    HW3 9179   2.262   0.882   3.651  1.2113 -1.2239 -0.0123
    1SOL    MW4 9180   2.254   0.886   3.737  0.0305 -0.2090 -0.1588
    1SOL     OW 9181   2.288   1.139   3.893 -0.7006  0.0249 -0.4037
    1SOL    HW2 9182   2.290   1.113   3.985  0.6345  0.8351 -0.1982
    1SOL    HW3 9183   2.283   1.057   3.845  0.3736 -0.4821  0.3348
    1SOL    MW4 9184   2.287   1.125   3.899 -0.3827  0.0650 -0.2792
    1SOL     OW 9185   2.477   1.289   3.747 -0.1743 -0.3407  0.2151
    1SOL    HW2 9186   2.489   1.379   3.777  0.5272  0.1601 -1.4925
    1SOL    HW3 9187   2.414   1.251   3.808  1.9508  0.3118  2.9024
    1SOL    MW4 9188   2.470   1.295   3.759  0.1986 -0.1884  0.3443
    1SOL     OW 9189   2.489   1.564   3.831  0.0602  0.1321  0.0738
    1SOL    HW2 9190   2.558   1.622   3.799 -0.7482  1.3347  0.4617
    1SOL    HW3 9191   2.408   1.605   3.802 -0.5551 -0.3711  1.0420
    1SOL    MW4 9192   2.487   1.577   3.823 -0.1278  0.2244  0.2530
    1SOL     OW 9193   2.249   1.665   3.733 -0.3333  0.0564 -0.1636
    1SOL    HW2 9194   2.259   1.750   3.776  1.9471 -1.1262  1.7236
    1SOL    HW3 9195   2.182   1.620   3.784 -1.1163  0.4694 -0.8097
    1SOL    MW4 9196   2.241   1.670   3.745 -0.1359 -0.0452  0.0002
    1SOL     OW 9197   2.238   1.928   3.829  0.5190  0.0855 -0.1827
    1SOL    HW2 9198   2.162   1.979   3.800 -0.4695 -0.4958  1.3049
    1SOL    HW3 9199   2.313   1.987   3.816 -0.4664  1.5194  0.4455
    1SOL    MW4 9200   2.238   1.943   3.824  0.2584  0.1981  0.0966
    1SOL     OW 9201   2.466   2.093   3.748 -0.1546 -0.1686  0.0726
    1SOL    HW2 9202   2.480   2.089   3.653 -1.4699 -1.5325 -0.0852
    1SOL    HW3 9203   2.541   2.048   3.786  1.3930  2.1260 -0.2105
    1SOL    MW4 9204   2.477   2.086   3.740 -0.1242 -0.0458  0.0143
    1SOL     OW 9205   2.256   2.724   3.825  0.5211  0.1893 -0.1197
    1SOL    HW2 9206   2.171   2.763   3.804 -0.0518 -0.4840  0.8864
    1SOL    HW3 9207   2.254   2.639   3.780 -0.2487 -0.7682  1.6647
    1SOL    MW4 9208   2.244   2.718   3.816  0.3438 -0.0257  0.2484
    1SOL     OW 9209   0.890   2.509   4.501 -0.5134 -0.4100  0.2211
    1SOL    HW2 9210   0.984   2.522   4.504 -0.5583  0.0716 -0.4017
    1SOL    HW3 9211   0.871   2.484   4.411 -0.7557 -2.3606  0.7760
    1SOL    MW4 9212   0.900   2.507   4.490 -0.5513 -0.6039  0.2122
    1SOL     OW 9213   2.032   2.101   3.745 -0.1769 -0.5671 -0.0857
    1SOL    HW2 9214   2.043   2.188   3.785  2.0517 -0.8116 -0.1245
    1SOL    HW3 9215   2.050   2.115   3.652 -0.8748 -0.8694 -0.2676
    1SOL    MW4 9216   2.036   2.115   3.738  0.0253 -0.6394 -0.1152
    1SOL     OW 9217   2.491   2.831   3.744  0.0516 -0.5943 -0.1058
    1SOL    HW2 9218   2.413   2.786   3.775  1.3647 -2.8262  0.1527
    1SOL    HW3 9219   2.483   2.830   3.648 -0.9535  0.5453 -0.0329
    1SOL    MW4 9220   2.480   2.825   3.735  0.0920 -0.7384 -0.0618
    1SOL     OW 9221   2.474   3.083   3.863  0.6492  0.6143 -0.1820
    1SOL    HW2 9222   2.479   3.080   3.958  0.9143 -0.3902 -0.2225
    1SOL    HW3 9223   2.475   2.991   3.836  0.2806  0.8847 -1.1365
    1SOL    MW4 9224   2.475   3.070   3.872  0.6356  0.5176 -0.3133
    1SOL     OW 9225   2.244   3.197   3.760 -0.0027 -0.2947  0.0400
    1SOL    HW2 9226   2.248   3.283   3.801 -0.4855 -0.6890  0.9508
    1SOL    HW3 9227   2.313   3.146   3.802  0.3913 -0.3006 -0.6140
    1SOL    MW4 9228   2.253   3.201   3.771 -0.0143 -0.3474  0.0739
    1SOL     OW 9229   2.218   3.461   3.863  0.1124 -0.0551 -0.2199
    1SOL    HW2 9230   2.225   3.481   3.956  2.4358 -1.0486 -0.1505
    1SOL    HW3 9231   2.306   3.479   3.828  0.3336 -3.2636 -1.4785
    1SOL    MW4 9232   2.231   3.466   3.870  0.4480 -0.6096 -0.3769
    1SOL     OW 9233   2.475   3.540   3.769 -0.4198 -0.2563 -0.2925
    1SOL    HW2 9234   2.566   3.530   3.800 -0.1866  1.4961 -0.3797
    1SOL    HW3 9235   2.484   3.570   3.679 -1.0732  1.4716  0.2043
    1SOL    MW4 9236   2.488   3.543   3.761 -0.4752  0.2029 -0.2384
    1SOL     OW 9237   2.492   3.810   3.887 -0.2072  0.1383  0.4792
    1SOL    HW2 9238   2.560   3.866   3.850 -0.3174  0.3025  0.5224
    1SOL    HW3 9239   2.508   3.724   3.849 -0.5777  0.3977 -0.2850
    1SOL    MW4 9240   2.503   3.806   3.877 -0.2706  0.1941  0.3841
    1SOL     OW 9241   2.306   3.982   3.790  0.2659 -0.3818  0.0434
    1SOL    HW2 9242   2.366   3.912   3.816 -0.2782 -0.8608  0.0217
    1SOL    HW3 9243   2.300   3.975   3.695 -0.7320 -1.0768  0.1588
    1SOL    MW4 9244   2.313   3.972   3.781  0.0625 -0.5367  0.0560
    1SOL     OW 9245   2.258   4.250   3.816  0.3671  0.0078 -0.0122
    1SOL    HW2 9246   2.259   4.264   3.910  0.7127 -0.6270  0.0879
    1SOL    HW3 9247   2.282   4.158   3.806 -2.3880 -0.6992 -0.5898
    1SOL    MW4 9248   2.261   4.239   3.827  0.0489 -0.1693 -0.0756
    1SOL     OW 9249   2.447   4.423   3.764  0.1411 -0.4406  0.4753
    1SOL    HW2 9250   2.526   4.376   3.790  0.1395 -0.4158  0.5260
    1SOL    HW3 9251   2.376   4.359   3.777  0.1595 -0.4825  0.3730
    1SOL    MW4 9252   2.448   4.408   3.769  0.1433 -0.4430  0.4687
    1SOL     OW 9253   2.901   4.633   3.847  0.3937 -0.2978 -0.7496
    1SOL    HW2 9254   2.900   4.625   3.942 -1.6020 -0.4473 -0.7766
    1SOL    HW3 9255   2.961   4.705   3.829  0.5191 -0.0592  0.6322
    1SOL    MW4 9256   2.909   4.641   3.857  0.1469 -0.2856 -0.5710
    1SOL     OW 9257   2.695   0.114   3.754 -0.1101  0.2722 -0.5019
    1SOL    HW2 9258   2.766   0.061   3.791 -0.3694 -1.4349 -2.2995
    1SOL    HW3 9259   2.616   0.082   3.797 -0.1414 -0.1163 -0.8366
    1SOL    MW4 9260   2.694   0.103   3.764 -0.1488 -0.0042 -0.7832
    1SOL     OW 9261   2.695   0.400   3.818 -0.2080  0.4128 -0.8584
    1SOL    HW2 9262   2.684   0.307   3.799 -0.7135  0.2274  0.3246
    1SOL    HW3 9263   2.611   0.440   3.794  0.0146  0.5793 -1.3838
    1SOL    MW4 9264   2.682   0.393   3.812 -0.2453  0.4103 -0.7715
    1SOL     OW 9265   2.935   0.515   3.715 -0.2068 -0.3114 -0.1496
    1SOL    HW2 9266   3.008   0.473   3.760 -0.2102  1.6565  1.7683
    1SOL    HW3 9267   2.857   0.471   3.750 -0.1484  0.4907  1.0344
    1SOL    MW4 9268   2.934   0.504   3.726 -0.1998  0.0541  0.2596
    1SOL     OW 9269   2.933   0.759   3.871  0.2356  0.1254 -0.2202
    1SOL    HW2 9270   3.009   0.812   3.850  0.9980 -0.6716  0.5023
    1SOL    HW3 9271   2.946   0.678   3.821  0.4419 -0.4689  0.7851
    1SOL    MW4 9272   2.945   0.755   3.861  0.3633 -0.0581  0.0076
    1SOL     OW 9273   2.726   0.896   3.758  0.0243  0.0524 -0.3305
    1SOL    HW2 9274   2.805   0.853   3.791 -0.1612  0.3774  0.5406
    1SOL    HW3 9275   2.653   0.847   3.796 -0.1859  0.8259  0.2739
    1SOL    MW4 9276   2.727   0.884   3.767 -0.0279  0.1974 -0.1359
    1SOL     OW 9277   2.695   1.163   3.876  0.4268 -0.8345  0.4256
    1SOL    HW2 9278   2.705   1.079   3.831 -0.1212 -1.1725  0.9369
    1SOL    HW3 9279   2.633   1.212   3.822 -0.9748 -1.6076  1.3334
    1SOL    MW4 9280   2.688   1.159   3.863  0.1695 -0.9812  0.6127
    1SOL     OW 9281   2.907   1.296   3.746  0.0649  0.2824 -0.4223
    1SOL    HW2 9282   2.917   1.378   3.794  0.5157  0.7031 -1.2131
    1SOL    HW3 9283   2.855   1.240   3.803  0.0476  1.0026  0.2690
    1SOL    MW4 9284   2.902   1.300   3.760  0.1221  0.4330 -0.4356
    1SOL     OW 9285   2.909   1.558   3.848 -0.1715  0.1428  0.1142
    1SOL    HW2 9286   2.904   1.567   3.943 -4.5723  4.0596 -0.3429
    1SOL    HW3 9287   2.994   1.596   3.825  1.6756 -2.3472  2.5433
    1SOL    MW4 9288   2.920   1.564   3.857 -0.5083  0.3310  0.3743
    1SOL     OW 9289   2.725   1.739   3.757  0.0431 -0.3860  0.1971
    1SOL    HW2 9290   2.796   1.682   3.783  0.4060  0.1741  0.4427
    1SOL    HW3 9291   2.713   1.721   3.663  0.9383 -0.0214  0.0078
    1SOL    MW4 9292   2.733   1.729   3.748  0.2091 -0.2639  0.2043
    1SOL     OW 9293   2.718   1.979   3.874  0.1454 -0.2454  0.9978
    1SOL    HW2 9294   2.718   1.973   3.970  0.3236 -2.2137  0.8942
    1SOL    HW3 9295   2.718   1.888   3.845 -0.2756  0.3497 -0.8802
    1SOL    MW4 9296   2.718   1.966   3.883  0.1135 -0.4264  0.7365
    1SOL     OW 9297   2.966   2.312   3.891  0.2892  0.0249  0.6424
    1SOL    HW2 9298   2.886   2.349   3.853  0.0745  0.3341  1.3742
    1SOL    HW3 9299   3.037   2.364   3.853  0.0322  0.7508  1.1575
    1SOL    MW4 9300   2.965   2.324   3.881  0.2270  0.1614  0.8068
    1SOL     OW 9301   2.707   1.669   4.484  0.3037  0.2737 -0.1253
    1SOL    HW2 9302   2.653   1.715   4.547  0.1379 -0.8089  0.5397
    1SOL    HW3 9303   2.797   1.688   4.511  0.2377 -2.1929  1.9582
    1SOL    MW4 9304   2.712   1.677   4.496  0.2728 -0.1945  0.2370
    1SOL     OW 9305   2.725   2.395   3.772 -0.0841 -0.5334 -0.1656
    1SOL    HW2 9306   2.725   2.490   3.788 -0.3494 -0.5299 -0.1920
    1SOL    HW3 9307   2.634   2.368   3.785 -0.2236 -0.6043 -1.2622
    1SOL    MW4 9308   2.713   2.404   3.776 -0.1376 -0.5424 -0.3140
    1SOL     OW 9309   2.723   2.667   3.825  0.1248 -0.0351 -0.1402
    1SOL    HW2 9310   2.648   2.720   3.800  0.7408  1.3049  0.7771
    1SOL    HW3 9311   2.714   2.654   3.919  0.0382 -1.4932 -0.3350
    1SOL    MW4 9312   2.712   2.672   3.834  0.1948 -0.0508 -0.0446
    1SOL     OW 9313   2.973   2.833   3.786  0.0930  0.4071  0.0997
    1SOL    HW2 9314   2.961   2.926   3.802  0.0192  0.3888  0.1531
    1SOL    HW3 9315   2.896   2.792   3.825  0.2768  0.2959  0.3434
    1SOL    MW4 9316   2.961   2.840   3.793  0.1078  0.3898  0.1390
    1SOL     OW 9317   2.914   3.091   3.894  0.3006  0.2688 -0.1722
    1SOL    HW2 9318   2.984   3.155   3.886 -0.4716  1.2851  1.0276
    1SOL    HW3 9319   2.840   3.132   3.848  0.1020 -0.1986 -0.2664
    1SOL    MW4 9320   2.913   3.105   3.887  0.1726  0.3409 -0.0262
    1SOL     OW 9321   2.693   3.222   3.786  0.2404  0.2508  0.0198
    1SOL    HW2 9322   2.697   3.314   3.810 -0.9729  0.2608  0.2480
    1SOL    HW3 9323   2.603   3.196   3.806  0.3910 -0.8193 -0.6224
    1SOL    MW4 9324   2.681   3.231   3.792  0.1004  0.1109 -0.0348
    1SOL     OW 9325   2.740   3.500   3.838 -0.6839  0.4424 -0.4774
    1SOL    HW2 9326   2.740   3.516   3.932  0.4237  0.0504 -0.3974
    1SOL    HW3 9327   2.814   3.551   3.805  0.4179 -1.2775 -0.7760
    1SOL    MW4 9328   2.750   3.509   3.846 -0.3924  0.1638 -0.5062
    1SOL     OW 9329   2.970   3.640   3.770  0.8425 -0.3859  0.2426
    1SOL    HW2 9330   3.051   3.620   3.818  1.6321 -0.2669 -1.0223
    1SOL    HW3 9331   2.982   3.600   3.684 -0.3646 -0.1907 -0.0291
    1SOL    MW4 9332   2.982   3.632   3.765  0.7873 -0.3445  0.0401
    1SOL     OW 9333   2.915   3.910   3.827 -0.2287  0.0678  0.0767
    1SOL    HW2 9334   2.887   3.907   3.919  1.0124 -0.2500  0.4592
    1SOL    HW3 9335   2.923   3.818   3.802 -0.8519  0.1518 -0.4488
    1SOL    MW4 9336   2.912   3.897   3.836 -0.1471  0.0370  0.0579
    1SOL     OW 9337   2.677   4.009   3.763  0.2468 -0.1838  0.2665
    1SOL    HW2 9338   2.664   4.104   3.770 -0.6946 -0.4434  2.4303
    1SOL    HW3 9339   2.770   3.996   3.783  0.2424  0.2348  0.5708
    1SOL    MW4 9340   2.688   4.020   3.766  0.1218 -0.1631  0.5922
    1SOL     OW 9341   2.681   4.281   3.816  0.1193 -0.0593  0.2872
    1SOL    HW2 9342   2.762   4.329   3.799  0.6446 -0.8813  0.4665
    1SOL    HW3 9343   2.686   4.256   3.908 -1.3392  1.7576  0.9029
    1SOL    MW4 9344   2.692   4.284   3.826 -0.0036  0.0725  0.3922
    1SOL     OW 9345   2.919   4.389   3.729 -0.1622  0.1436  0.2746
    1SOL    HW2 9346   2.996   4.356   3.774  0.6915  0.5595 -0.8590
    1SOL    HW3 9347   2.901   4.473   3.771  0.7097  0.5908 -0.2296
    1SOL    MW4 9348   2.927   4.396   3.741  0.0656  0.2575  0.0587
    1SOL     OW 9349   3.391   0.018   3.850  0.6123 -0.5615 -0.0260
    1SOL    HW2 9350   3.397   0.014   3.945 -0.6559  1.3111  0.1556
    1SOL    HW3 9351   3.473   0.059   3.822  0.3359  0.3024  0.3971
    1SOL    MW4 9352   3.402   0.023   3.858  0.4086 -0.2005  0.0539
    1SOL     OW 9353   3.138   0.119   3.765  0.3783 -0.1238  0.3680
    1SOL    HW2 9354   3.228   0.099   3.791  0.6241  0.4769 -0.0197
    1SOL    HW3 9355   3.140   0.120   3.670 -0.1497 -0.5950  0.3488
    1SOL    MW4 9356   3.150   0.117   3.756  0.3409 -0.1067  0.3142
    1SOL     OW 9357   3.125   0.377   3.848 -0.1918 -0.0400 -0.1410
    1SOL    HW2 9358   3.120   0.375   3.943  0.5366 -0.3848 -0.1100
    1SOL    HW3 9359   3.136   0.286   3.822  2.6045  0.3217 -0.3775
    1SOL    MW4 9360   3.126   0.365   3.857  0.2730 -0.0378 -0.1681
    1SOL     OW 9361   3.354   0.519   3.783  0.1193  0.1249  0.0898
    1SOL    HW2 9362   3.429   0.474   3.821 -1.3884 -2.2492  0.3485
    1SOL    HW3 9363   3.279   0.466   3.808 -1.6041  2.1830 -0.5911
    1SOL    MW4 9364   3.354   0.506   3.791 -0.3071  0.0832  0.0341
    1SOL     OW 9365   3.367   0.755   3.933  0.0497 -0.2762  0.3396
    1SOL    HW2 9366   3.335   0.739   4.022  0.5108 -1.6232  0.2802
    1SOL    HW3 9367   3.373   0.668   3.895  1.3345  0.1795 -0.4990
    1SOL    MW4 9368   3.363   0.741   3.940  0.2799 -0.3938  0.2210
    1SOL     OW 9369   3.165   0.898   3.807  0.0241  0.0626 -0.1015
    1SOL    HW2 9370   3.231   0.844   3.850  0.5330  1.2993  0.6729
    1SOL    HW3 9371   3.177   0.880   3.714  1.1339 -0.0943  0.0657
    1SOL    MW4 9372   3.175   0.888   3.800  0.2377  0.2050  0.0226
    1SOL     OW 9373   3.130   1.162   3.887 -0.3551 -0.0842  0.1831
    1SOL    HW2 9374   3.149   1.078   3.844  0.1769  1.6398 -3.1177
    1SOL    HW3 9375   3.052   1.194   3.843  0.4416  1.9448  0.1981
    1SOL    MW4 9376   3.123   1.155   3.875 -0.1798  0.4112 -0.2503
    1SOL     OW 9377   3.374   1.275   3.810  0.0662  0.9006 -0.0263
    1SOL    HW2 9378   3.298   1.240   3.856  1.9892 -2.8093  0.5828
    1SOL    HW3 9379   3.352   1.268   3.717 -0.3598 -0.1563  0.1485
    1SOL    MW4 9380   3.361   1.269   3.804  0.2635  0.2716  0.0772
    1SOL     OW 9381   3.366   1.532   3.874 -0.2829  0.3313  0.2449
    1SOL    HW2 9382   3.286   1.570   3.836  0.6203  0.1724 -1.8756
    1SOL    HW3 9383   3.365   1.441   3.845 -0.0559 -0.0771  1.4652
    1SOL    MW4 9384   3.355   1.525   3.865 -0.1340  0.2564  0.1259
    1SOL     OW 9385   3.141   1.654   3.754 -0.0158 -0.3338  0.0691
    1SOL    HW2 9386   3.160   1.745   3.777  0.1330 -0.0680 -1.0784
    1SOL    HW3 9387   3.135   1.654   3.658 -1.2834 -1.2855  0.1286
    1SOL    MW4 9388   3.143   1.666   3.744 -0.1636 -0.4244 -0.0744
    1SOL     OW 9389   3.191   1.917   3.863  0.7829 -0.2271  0.4004
    1SOL    HW2 9390   3.200   1.931   3.957  0.6325 -2.6779  0.8218
    1SOL    HW3 9391   3.104   1.949   3.841  1.2094  1.3075  0.8775
    1SOL    MW4 9392   3.181   1.923   3.873  0.8194 -0.3480  0.5190
    1SOL     OW 9393   3.410   2.042   3.763 -0.0454 -0.2095  0.1859
    1SOL    HW2 9394   3.333   1.999   3.801  1.6925 -0.8348  3.1776
    1SOL    HW3 9395   3.485   2.001   3.807  2.0943 -0.3349 -3.3821
    1SOL    MW4 9396   3.410   2.031   3.774  0.4663 -0.3085  0.1101
    1SOL     OW 9397   3.402   2.290   3.882  0.2855  0.4146  0.0307
    1SOL    HW2 9398   3.321   2.335   3.860  1.1035  1.8585 -0.1307
    1SOL    HW3 9399   3.390   2.201   3.850 -1.0746  0.7247 -0.3472
    1SOL    MW4 9400   3.390   2.284   3.875  0.2141  0.6459 -0.0405
    1SOL     OW 9401   3.171   2.466   3.806  0.1298 -0.4074  0.3809
    1SOL    HW2 9402   3.203   2.549   3.843  0.7378 -0.5572  0.2126
    1SOL    HW3 9403   3.183   2.477   3.712  1.8495 -1.3324  0.4606
    1SOL    MW4 9404   3.177   2.479   3.799  0.4373 -0.5491  0.3693
    1SOL     OW 9405   3.189   2.720   3.905  0.4862  0.2575 -0.1145
    1SOL    HW2 9406   3.147   2.677   3.980  0.0314 -0.4680 -0.7804
    1SOL    HW3 9407   3.117   2.764   3.859  0.9983  2.0332  0.7530
    1SOL    MW4 9408   3.174   2.720   3.909  0.4935  0.3963 -0.0877
    1SOL     OW 9409   3.374   2.880   3.751 -0.3102 -0.2628 -0.3887
    1SOL    HW2 9410   3.309   2.830   3.802 -0.8485  0.4860 -0.3378
    1SOL    HW3 9411   3.381   2.963   3.797  0.3398 -0.1581 -0.6738
    1SOL    MW4 9412   3.366   2.884   3.764 -0.2954 -0.1502 -0.4196
    1SOL     OW 9413   3.353   3.099   3.889  0.0792 -0.4623 -0.4366
    1SOL    HW2 9414   3.344   3.099   3.985 -1.6851  0.2264 -0.5930
    1SOL    HW3 9415   3.431   3.153   3.873 -0.0890  0.1020  0.5806
    1SOL    MW4 9416   3.362   3.106   3.900 -0.1755 -0.2971 -0.3228
    1SOL     OW 9417   3.140   3.261   3.817 -0.1172  0.2992  0.5268
    1SOL    HW2 9418   3.198   3.188   3.839  1.1572  0.9825 -0.4983
    1SOL    HW3 9419   3.132   3.256   3.721 -1.9187  0.0887  0.6820
    1SOL    MW4 9420   3.147   3.250   3.807 -0.1867  0.3614  0.4117
    1SOL     OW 9421   3.169   3.517   3.911 -0.4226 -0.1236  0.2721
    1SOL    HW2 9422   3.257   3.532   3.878 -0.7311 -0.7451 -0.8790
    1SOL    HW3 9423   3.149   3.427   3.885 -1.4402  0.0568  0.4121
    1SOL    MW4 9424   3.178   3.507   3.903 -0.5977 -0.1819  0.1385
    1SOL     OW 9425   3.400   3.647   3.790  0.2827  0.4502  0.5193
    1SOL    HW2 9426   3.402   3.739   3.815  1.1817  0.5410  0.1410
    1SOL    HW3 9427   3.400   3.649   3.694  0.3485  0.0556  0.5120
    1SOL    MW4 9428   3.400   3.659   3.780  0.4098  0.4103  0.4685
    1SOL     OW 9429   3.377   3.918   3.857 -0.2469  0.0644 -0.2387
    1SOL    HW2 9430   3.452   3.962   3.817 -0.0067  0.0058  0.1454
    1SOL    HW3 9431   3.301   3.955   3.812  0.0578 -0.5874 -1.3190
    1SOL    MW4 9432   3.377   3.928   3.845 -0.1750 -0.0293 -0.3307
    1SOL     OW 9433   3.139   4.026   3.720  0.1500 -0.1098 -0.1525
    1SOL    HW2 9434   3.130   4.109   3.768 -0.3348 -0.3187  0.1298
    1SOL    HW3 9435   3.059   3.978   3.741 -0.7327  0.3605 -2.3045
    1SOL    MW4 9436   3.127   4.031   3.729 -0.0305 -0.0753 -0.3994
    1SOL     OW 9437   3.148   4.304   3.844 -0.1284 -0.1313  0.4712
    1SOL    HW2 9438   3.165   4.296   3.938  1.0629 -1.3237  0.1729
    1SOL    HW3 9439   3.227   4.344   3.808 -0.6499  0.4845 -0.0129
    1SOL    MW4 9440   3.161   4.308   3.851 -0.0401 -0.2074  0.3681
    1SOL     OW 9441   3.380   4.416   3.754  0.1488  0.2339  0.1984
    1SOL    HW2 9442   3.451   4.369   3.797  0.2660  1.5807  1.5097
    1SOL    HW3 9443   3.391   4.507   3.782 -2.3502  0.3820  0.7883
    1SOL    MW4 9444   3.391   4.422   3.763 -0.1657  0.4315  0.4494
    1SOL     OW 9445   3.829   0.013   3.903  0.1495 -0.0375  0.6160
    1SOL    HW2 9446   3.915   0.046   3.877  0.6486 -1.3153  0.5922
    1SOL    HW3 9447   3.826  -0.077   3.869 -0.1379 -0.9201  2.8670
    1SOL    MW4 9448   3.840   0.005   3.895  0.1774 -0.3226  0.9098
    1SOL     OW 9449   3.622   0.135   3.774 -0.3559 -0.7662 -0.0153
    1SOL    HW2 9450   3.697   0.101   3.823 -0.6783 -0.4134  0.7199
    1SOL    HW3 9451   3.638   0.107   3.684  1.4442  0.6416 -0.1492
    1SOL    MW4 9452   3.634   0.126   3.768 -0.1609 -0.5339  0.0641
    1SOL     OW 9453   3.594   0.402   3.883 -0.1422 -0.3450  0.3071
    1SOL    HW2 9454   3.678   0.426   3.844 -0.0623 -0.0778  0.6387
    1SOL    HW3 9455   3.578   0.313   3.853  0.4352 -0.5269  0.5350
    1SOL    MW4 9456   3.603   0.394   3.874 -0.0556 -0.3337  0.3810
    1SOL     OW 9457   3.817   0.495   3.756  0.3639 -0.2863 -0.0215
    1SOL    HW2 9458   3.898   0.450   3.783  0.5434  0.4813  0.7500
    1SOL    HW3 9459   3.829   0.585   3.787 -0.8438 -0.1997  0.2007
    1SOL    MW4 9460   3.829   0.501   3.764  0.2284 -0.1736  0.1097
    1SOL     OW 9461   3.820   0.762   3.851 -0.1129 -0.2717 -0.2448
    1SOL    HW2 9462   3.899   0.806   3.818  0.4569 -0.6297  0.6163
    1SOL    HW3 9463   3.748   0.814   3.818  0.5474  1.0962  0.4222
    1SOL    MW4 9464   3.821   0.775   3.843  0.0494 -0.1385 -0.0432
    1SOL     OW 9465   3.583   0.874   3.791 -0.4526  0.2826 -0.1631
    1SOL    HW2 9466   3.577   0.964   3.824 -0.4818 -0.5797  2.3351
    1SOL    HW3 9467   3.512   0.828   3.836 -0.3995 -0.9964 -1.3878
    1SOL    MW4 9468   3.573   0.880   3.802 -0.4494  0.0001  0.0050
    1SOL     OW 9469   3.593   1.118   3.891 -0.0486 -0.0443  0.4340
    1SOL    HW2 9470   3.675   1.164   3.873 -0.7254  0.6848 -0.8994
    1SOL    HW3 9471   3.525   1.183   3.873 -1.0055 -1.3554 -0.7786
    1SOL    MW4 9472   3.595   1.133   3.886 -0.2639 -0.1212  0.0982
    1SOL     OW 9473   3.830   1.254   3.800 -0.5785  0.0383  0.2355
    1SOL    HW2 9474   3.919   1.220   3.805 -0.6900 -0.2332  0.4107
    1SOL    HW3 9475   3.837   1.346   3.826 -0.2327  0.2255 -0.5104
    1SOL    MW4 9476   3.843   1.261   3.804 -0.5476  0.0273  0.1602
    1SOL     OW 9477   3.854   1.539   3.902 -0.2176  0.1605 -0.3815
    1SOL    HW2 9478   3.844   1.521   3.996  1.2433  0.3426 -0.1790
    1SOL    HW3 9479   3.772   1.580   3.877 -1.5907 -2.0947  0.2746
    1SOL    MW4 9480   3.842   1.542   3.911 -0.2060 -0.1131 -0.2682
    1SOL     OW 9481   3.613   1.646   3.810 -0.1621 -0.2857 -0.2057
    1SOL    HW2 9482   3.530   1.604   3.832 -0.0688  0.5442  1.8445
    1SOL    HW3 9483   3.608   1.662   3.715 -2.6773  0.4729  0.0177
    1SOL    MW4 9484   3.602   1.643   3.800 -0.4814 -0.0761  0.0942
    1SOL     OW 9485   3.622   1.917   3.880 -0.1144 -0.1877 -0.1407
    1SOL    HW2 9486   3.610   1.824   3.862  2.7636 -0.4841 -0.8001
    1SOL    HW3 9487   3.641   1.921   3.974  0.9260 -0.4168 -0.3327
    1SOL    MW4 9488   3.623   1.905   3.890  0.4025 -0.2569 -0.2530
    1SOL     OW 9489   3.816   2.079   3.763 -0.0975 -0.4064  0.1469
    1SOL    HW2 9490   3.898   2.031   3.762 -0.2781 -0.7504  0.9169
    1SOL    HW3 9491   3.759   2.028   3.821 -1.0517 -0.4887 -0.8449
    1SOL    MW4 9492   3.819   2.066   3.771 -0.2472 -0.4623  0.1178
    1SOL     OW 9493   3.853   2.337   3.825 -0.3673 -0.9206 -0.8570
    1SOL    HW2 9494   3.849   2.242   3.816 -1.9457 -0.8739 -0.6649
    1SOL    HW3 9495   3.763   2.367   3.810 -0.1259  0.4343  0.3368
    1SOL    MW4 9496   3.841   2.328   3.822 -0.5438 -0.7358 -0.6742
    1SOL     OW 9497   3.594   2.462   3.769  0.2508  0.0935 -0.0359
    1SOL    HW2 9498   3.537   2.391   3.800  1.4751 -0.5589  0.7412
    1SOL    HW3 9499   3.573   2.470   3.675 -0.4390 -0.7646  0.0362
    1SOL    MW4 9500   3.583   2.454   3.760  0.3214 -0.1059  0.0761
    1SOL     OW 9501   3.579   2.725   3.877  0.1357  0.9625 -0.2480
    1SOL    HW2 9502   3.564   2.632   3.857 -1.3923  1.0824  0.2418
    1SOL    HW3 9503   3.501   2.769   3.842 -0.0056  1.8227  1.1319
    1SOL    MW4 9504   3.566   2.718   3.870 -0.0846  1.0920 -0.0014
    1SOL     OW 9505   3.802   2.831   3.753  0.0983 -0.7367  0.0005
    1SOL    HW2 9506   3.891   2.803   3.773  0.0556 -0.0726  1.1516
    1SOL    HW3 9507   3.747   2.774   3.808 -0.1195 -0.2484  0.2875
    1SOL    MW4 9508   3.806   2.820   3.763  0.0637 -0.5846  0.1903
    1SOL     OW 9509   3.812   3.086   3.872  0.6850 -0.2612  0.5846
    1SOL    HW2 9510   3.729   3.132   3.859 -0.4596 -1.6583  2.5894
    1SOL    HW3 9511   3.801   3.002   3.828  1.4295 -0.0524 -0.0109
    1SOL    MW4 9512   3.800   3.081   3.865  0.6323 -0.4179  0.7703
    1SOL     OW 9513   3.578   3.240   3.818 -0.1643 -0.0923 -0.4019
    1SOL    HW2 9514   3.589   3.327   3.855  0.0120  0.0078 -0.6847
    1SOL    HW3 9515   3.581   3.254   3.723 -0.1417 -0.4032 -0.4469
    1SOL    MW4 9516   3.580   3.253   3.810 -0.1380 -0.1199 -0.4449
    1SOL     OW 9517   3.607   3.502   3.905  0.0951 -0.0503  0.0294
    1SOL    HW2 9518   3.614   3.504   4.001 -0.3363  0.9404  0.0495
    1SOL    HW3 9519   3.540   3.567   3.885 -0.9313 -1.3562 -0.8643
    1SOL    MW4 9520   3.599   3.511   3.915 -0.0973 -0.0920 -0.0856
    1SOL     OW 9521   3.825   3.647   3.803  0.3384 -0.1026  0.1886
    1SOL    HW2 9522   3.810   3.738   3.828  0.2790  0.3408 -1.4233
    1SOL    HW3 9523   3.755   3.598   3.847  0.4513  0.5914  1.1658
    1SOL    MW4 9524   3.814   3.652   3.812  0.3455  0.0477  0.1047
    1SOL     OW 9525   3.789   3.920   3.887  0.0044  0.3327 -0.3332
    1SOL    HW2 9526   3.794   3.923   3.983  0.5691 -1.1794 -0.3102
    1SOL    HW3 9527   3.878   3.940   3.858  0.2897 -1.0762 -0.4836
    1SOL    MW4 9528   3.802   3.923   3.896  0.1166 -0.0527 -0.3500
    1SOL     OW 9529   3.597   4.038   3.724 -0.2747 -0.1378 -0.0303
    1SOL    HW2 9530   3.588   4.124   3.765  1.1413  0.3034 -0.6194
    1SOL    HW3 9531   3.661   3.992   3.779 -1.3883 -1.0011  0.5642
    1SOL    MW4 9532   3.604   4.044   3.737 -0.2351 -0.1936 -0.0296
    1SOL     OW 9533   3.584   4.276   3.874  0.2938 -0.0393  0.2266
    1SOL    HW2 9534   3.582   4.270   3.970 -0.1383  0.9328  0.2811
    1SOL    HW3 9535   3.672   4.308   3.854  0.4248 -0.3584  0.2950
    1SOL    MW4 9536   3.595   4.280   3.884  0.2539  0.0472  0.2427
    1SOL     OW 9537   3.811   4.417   3.787  0.4572 -0.0259 -0.2154
    1SOL    HW2 9538   3.896   4.373   3.798 -1.1021 -3.7462 -2.0660
    1SOL    HW3 9539   3.797   4.417   3.692 -1.6796  0.4005  0.0819
    1SOL    MW4 9540   3.821   4.411   3.776 -0.0308 -0.4606 -0.4201
    1SOL     OW 9541   4.285   4.635   3.914  0.2558 -0.2394 -0.1196
    1SOL    HW2 9542   4.295   4.653   4.007 -1.7185  0.5741 -0.0266
    1SOL    HW3 9543   4.339   4.700   3.870  0.8206 -0.3263  0.4475
    1SOL    MW4 9544   4.293   4.646   3.921  0.0696 -0.1435 -0.0324
    1SOL     OW 9545   4.087   0.101   3.775 -0.1536  0.1444 -0.0330
    1SOL    HW2 9546   4.149   0.035   3.806  0.8508  0.6589 -0.8893
    1SOL    HW3 9547   4.087   0.091   3.680 -1.4688  0.0851 -0.0250
    1SOL    MW4 9548   4.095   0.091   3.767 -0.1941  0.2045 -0.1452
    1SOL     OW 9549   4.053   0.383   3.826 -0.1205  0.0071  0.0581
    1SOL    HW2 9550   4.038   0.386   3.921 -3.0501  0.2705 -0.3694
    1SOL    HW3 9551   4.076   0.292   3.808 -0.9142 -0.3603  0.8523
    1SOL    MW4 9552   4.054   0.372   3.836 -0.6123 -0.0066  0.1063
    1SOL     OW 9553   4.283   0.544   3.743 -0.4780 -0.4525  0.2104
    1SOL    HW2 9554   4.219   0.479   3.771 -1.1993  0.5951  1.0155
    1SOL    HW3 9555   4.289   0.532   3.648 -0.3087 -1.9512  0.4008
    1SOL    MW4 9556   4.275   0.534   3.734 -0.5503 -0.5119  0.3419
    1SOL     OW 9557   4.269   0.799   3.824 -0.1269 -0.2359 -0.1417
    1SOL    HW2 9558   4.186   0.838   3.797 -1.8518 -2.8043  1.1868
    1SOL    HW3 9559   4.268   0.711   3.786  2.3310 -0.0931 -0.6632
    1SOL    MW4 9560   4.258   0.793   3.815 -0.0300 -0.5559 -0.0353
    1SOL     OW 9561   4.030   0.901   3.745  0.0276  0.3100  0.4489
    1SOL    HW2 9562   4.049   0.985   3.786 -1.6212  0.6622  0.5511
    1SOL    HW3 9563   4.023   0.921   3.652 -1.1781  0.4516  0.5625
    1SOL    MW4 9564   4.031   0.915   3.738 -0.3490  0.3751  0.4773
    1SOL     OW 9565   4.086   1.135   3.875  0.1298 -0.1526  0.0177
    1SOL    HW2 9566   4.097   1.139   3.970 -1.1829  2.3958  0.0986
    1SOL    HW3 9567   4.167   1.172   3.839  0.7375 -1.3604  0.1117
    1SOL    MW4 9568   4.098   1.140   3.883  0.0367  0.0243  0.0408
    1SOL     OW 9569   4.322   1.282   3.766  0.2109  0.5765  0.5061
    1SOL    HW2 9570   4.346   1.369   3.797  0.3580  0.7731 -0.1517
    1SOL    HW3 9571   4.290   1.296   3.677  1.3425 -0.1847 -0.0409
    1SOL    MW4 9572   4.321   1.295   3.758  0.3796  0.5021  0.3471
    1SOL     OW 9573   4.308   1.535   3.881  0.7140  0.0437 -0.3054
    1SOL    HW2 9574   4.224   1.559   3.843  0.7131  1.2904  0.4866
    1SOL    HW3 9575   4.364   1.611   3.868  1.0261  0.0978  1.2412
    1SOL    MW4 9576   4.304   1.548   3.875  0.7553  0.2154  0.0031
    1SOL     OW 9577   4.073   1.645   3.778 -0.3170  0.2113  0.0778
    1SOL    HW2 9578   4.053   1.738   3.785 -0.8402  0.2261 -1.4414
    1SOL    HW3 9579   4.001   1.601   3.825 -0.2660  0.5417  0.4710
    1SOL    MW4 9580   4.061   1.651   3.785 -0.3791  0.2569 -0.0710
    1SOL     OW 9581   4.042   1.924   3.803 -0.1949 -0.4562  0.3316
    1SOL    HW2 9582   4.033   1.924   3.898  0.2717  1.1179  0.3921
    1SOL    HW3 9583   4.119   1.979   3.786 -2.1545  1.9483 -1.0922
    1SOL    MW4 9584   4.051   1.931   3.813 -0.3920  0.0688  0.1516
    1SOL     OW 9585   4.280   2.077   3.768 -0.2663  0.1787  0.0500
    1SOL    HW2 9586   4.267   2.162   3.811 -1.0815  0.0977 -0.0240
    1SOL    HW3 9587   4.255   2.093   3.677  0.3065  0.0501 -0.1267
    1SOL    MW4 9588   4.275   2.091   3.762 -0.2975  0.1512  0.0167
    1SOL     OW 9589   4.280   2.322   3.908 -0.3106 -0.3687  0.2248
    1SOL    HW2 9590   4.303   2.333   4.001 -1.4928 -1.0703  0.6063
    1SOL    HW3 9591   4.201   2.374   3.896  0.4834  0.6653 -0.6898
    1SOL    MW4 9592   4.273   2.330   3.919 -0.3619 -0.3247  0.1543
    1SOL     OW 9593   4.093   2.491   3.785  0.0810 -0.4852 -0.0391
    1SOL    HW2 9594   4.071   2.579   3.818 -0.2156 -0.8619  0.7787
    1SOL    HW3 9595   4.009   2.447   3.776  0.3000 -1.0180  0.5029
    1SOL    MW4 9596   4.079   2.497   3.788  0.0706 -0.6051  0.1402
    1SOL     OW 9597   4.053   2.750   3.873 -0.3948 -0.3428 -0.2724
    1SOL    HW2 9598   4.060   2.741   3.968 -1.4550  1.0774 -0.0432
    1SOL    HW3 9599   4.140   2.780   3.845 -0.0807 -0.7658  0.2575
    1SOL    MW4 9600   4.065   2.753   3.882 -0.4930 -0.2112 -0.1721
    1SOL     OW 9601   4.284   2.842   3.742 -0.0874  0.4799 -0.7301
    1SOL    HW2 9602   4.275   2.930   3.777  1.8108  0.5559 -0.4065
    1SOL    HW3 9603   4.350   2.800   3.797 -0.1467 -0.7740 -1.5899
    1SOL    MW4 9604   4.291   2.848   3.754  0.1550  0.3242 -0.8006
    1SOL     OW 9605   4.262   3.095   3.859 -0.3505 -0.0907  0.1176
    1SOL    HW2 9606   4.187   3.133   3.814 -0.4362  0.6302  0.8536
    1SOL    HW3 9607   4.334   3.156   3.840 -0.3743  0.1824  0.9014
    1SOL    MW4 9608   4.262   3.108   3.850 -0.3648  0.0405  0.3183
    1SOL     OW 9609   4.028   3.228   3.758  0.0854 -0.2020 -0.5186
    1SOL    HW2 9610   3.945   3.194   3.794  0.2085  0.5563  0.5112
    1SOL    HW3 9611   4.013   3.232   3.664 -1.5824  1.2786 -0.2254
    1SOL    MW4 9612   4.015   3.224   3.750 -0.1183  0.0932 -0.3440
    1SOL     OW 9613   4.053   3.499   3.859 -0.0987  0.3815 -0.5265
    1SOL    HW2 9614   4.042   3.409   3.829 -0.1817 -0.2239  1.2783
    1SOL    HW3 9615   3.979   3.547   3.820 -0.2838 -0.3951 -1.1492
    1SOL    MW4 9616   4.042   3.493   3.850 -0.1345  0.1991 -0.3703
    1SOL     OW 9617   4.265   3.665   3.810 -0.1045 -0.0253  0.0927
    1SOL    HW2 9618   4.198   3.600   3.792 -0.1294  0.1770 -0.5666
    1SOL    HW3 9619   4.344   3.614   3.829 -0.3938 -0.2600  0.6534
    1SOL    MW4 9620   4.267   3.650   3.810 -0.1459 -0.0296  0.0799
    1SOL     OW 9621   4.276   3.938   3.895 -0.0500  0.2106 -0.0277
    1SOL    HW2 9622   4.198   3.974   3.854  0.2611 -0.1536 -0.9460
    1SOL    HW3 9623   4.269   3.843   3.881  0.2373  0.1141  0.4457
    1SOL    MW4 9624   4.265   3.930   3.888  0.0286  0.1497 -0.0865
    1SOL     OW 9625   4.037   4.035   3.797 -0.2120 -0.2223  0.4390
    1SOL    HW2 9626   4.029   4.127   3.821 -0.8028 -0.2752  0.4622
    1SOL    HW3 9627   4.046   4.035   3.702  0.7594 -0.0894  0.5242
    1SOL    MW4 9628   4.037   4.047   3.787 -0.1621 -0.2117  0.4532
    1SOL     OW 9629   4.048   4.304   3.861 -0.1366 -0.3132 -0.1513
    1SOL    HW2 9630   4.043   4.296   3.956  1.3614 -0.5490 -0.0916
    1SOL    HW3 9631   4.123   4.362   3.845  0.1839 -1.0108 -1.2186
    1SOL    MW4 9632   4.057   4.311   3.871  0.1030 -0.4358 -0.2842
    1SOL     OW 9633   4.311   4.404   3.780  0.0672  0.3936 -0.4623
    1SOL    HW2 9634   4.304   4.481   3.837 -0.5769 -0.1325  0.1781
    1SOL    HW3 9635   4.388   4.358   3.813  0.5184  0.8029 -0.9144
    1SOL    MW4 9636   4.320   4.408   3.792  0.0420  0.3781 -0.4377
    1SOL     OW 9637   2.973   1.323   4.550 -0.2156 -0.3210 -0.1335
    1SOL    HW2 9638   2.987   1.228   4.551 -0.4947 -0.3611  0.1896
    1SOL    HW3 9639   3.055   1.359   4.585 -0.2666 -0.4656  0.1400
    1SOL    MW4 9640   2.986   1.315   4.555 -0.2592 -0.3453 -0.0544
    1SOL     OW 9641   4.059   4.313   4.138  0.3037 -0.7669 -0.1256
    1SOL    HW2 9642   4.041   4.227   4.176  1.0507 -1.1807 -0.6955
    1SOL    HW3 9643   3.988   4.368   4.169  0.0003 -1.5122  0.5176
    1SOL    MW4 9644   4.047   4.309   4.147  0.3619 -0.9198 -0.1154
    1SOL     OW 9645   2.168   0.690   4.553 -0.0530 -0.1845 -0.2082
    1SOL    HW2 9646   2.160   0.765   4.495  1.1149  0.6490  0.6850
    1SOL    HW3 9647   2.162   0.726   4.642 -0.4211 -1.2588  0.2176
    1SOL    MW4 9648   2.166   0.704   4.557  0.0527 -0.2162 -0.0343
    1SOL     OW 9649   0.647   0.716   4.151  0.2915 -0.2987  0.6450
    1SOL    HW2 9650   0.729   0.758   4.175  0.5602 -0.7662  0.5705
    1SOL    HW3 9651   0.640   0.730   4.056 -0.2055  0.5793  0.8093
    1SOL    MW4 9652   0.657   0.723   4.141  0.2614 -0.2446  0.6571
    1SOL     OW 9653   4.288   0.745   4.109 -0.4690  0.5759 -0.0633
    1SOL    HW2 9654   4.294   0.779   4.020  1.0519 -1.8037 -0.9095
    1SOL    HW3 9655   4.355   0.793   4.158 -0.8209  1.3789 -0.3703
    1SOL    MW4 9656   4.298   0.756   4.104 -0.3147  0.3679 -0.2151
    1SOL     OW 9657   2.000   2.143   4.430  0.7533  0.0934  0.2586
    1SOL    HW2 9658   1.990   2.165   4.522  0.4929 -0.1714  0.2945
    1SOL    HW3 9659   2.084   2.180   4.405  0.0904  1.5689  0.1929
    1SOL    MW4 9660   2.009   2.151   4.439  0.6318  0.2534  0.2546
    1SOL     OW 9661   0.002   1.137   4.132 -0.0747  0.1090 -0.6297
    1SOL    HW2 9662  -0.055   1.154   4.206  1.2913 -0.1855  0.5144
    1SOL    HW3 9663   0.085   1.179   4.155  0.7850 -1.1115 -1.3968
    1SOL    MW4 9664   0.006   1.145   4.145  0.2190 -0.0908 -0.5803
    1SOL     OW 9665   1.128   2.794   4.188 -0.1027  0.3796  0.1789
    1SOL    HW2 9666   1.108   2.887   4.173 -0.7991  0.1263 -0.4601
    1SOL    HW3 9667   1.154   2.790   4.280  2.0684  1.5800 -0.3519
    1SOL    MW4 9668   1.129   2.806   4.199  0.0919  0.5045  0.0243
    1SOL     OW 9669   0.701   4.249   4.577 -0.1245  0.1354 -0.0207
    1SOL    HW2 9670   0.611   4.251   4.609 -0.0040 -2.6027  0.5677
    1SOL    HW3 9671   0.733   4.162   4.599  1.3508 -0.4033 -3.8686
    1SOL    MW4 9672   0.694   4.238   4.584  0.0861 -0.2971 -0.4511
    1SOL     OW 9673   3.413   3.715   4.544 -0.2107 -0.1736 -0.1352
    1SOL    HW2 9674   3.493   3.664   4.560  0.6032  0.0645 -3.1634
    1SOL    HW3 9675   3.441   3.806   4.557  0.1325 -0.0669 -1.5204
    1SOL    MW4 9676   3.428   3.720   4.548 -0.0577 -0.1280 -0.7181
    1SOL     OW 9677   4.341   3.817   4.577 -0.1898  0.2656  0.1722
    1SOL    HW2 9678   4.363   3.900   4.620  1.6725 -0.2081  0.1689
    1SOL    HW3 9679   4.413   3.758   4.599 -1.4609 -1.3553  0.1265
    1SOL    MW4 9680   4.354   3.820   4.586 -0.1121 -0.0105  0.1659
    1SOL     OW 9681   1.323   3.953   4.245  0.5271 -0.2724  0.1579
    1SOL    HW2 9682   1.411   3.930   4.216  0.4478 -0.4084  0.0285
    1SOL    HW3 9683   1.329   3.954   4.341  0.6725 -0.2628  0.1492
    1SOL    MW4 9684   1.336   3.950   4.254  0.5358 -0.2890  0.1388
    1SOL     OW 9685   0.262   2.366   4.156  0.4886 -0.3157  0.2174
    1SOL    HW2 9686   0.272   2.276   4.187 -1.0957 -0.3161  0.7790
    1SOL    HW3 9687   0.339   2.412   4.189  0.0195 -0.8718  2.1673
    1SOL    MW4 9688   0.274   2.360   4.165  0.2176 -0.3891  0.5488
    1SOL     OW 9689   1.106   4.338   4.252 -0.1544  0.0149 -0.1711
    1SOL    HW2 9690   1.121   4.329   4.346 -1.4752 -1.2667 -0.0579
    1SOL    HW3 9691   1.177   4.289   4.211  0.8064  1.1406  0.1388
    1SOL    MW4 9692   1.117   4.330   4.259 -0.2019 -0.0057 -0.1149
    1SOL     OW 9693   4.297   4.401   4.256 -0.4126  0.0850  0.0443
    1SOL    HW2 9694   4.284   4.495   4.240 -0.2382 -0.0544 -0.9483
    1SOL    HW3 9695   4.232   4.358   4.201  0.2839 -0.4047 -0.4112
    1SOL    MW4 9696   4.287   4.408   4.247 -0.2975  0.0019 -0.1469
    1SOL     OW 9697   0.119   1.726   4.435  0.6620  0.3285 -0.2424
    1SOL    HW2 9698   0.036   1.735   4.388  0.5653 -0.9532 -0.3346
    1SOL    HW3 9699   0.185   1.719   4.366  0.7527  0.5015 -0.1738
    1SOL    MW4 9700   0.117   1.727   4.420  0.6612  0.1822 -0.2451
    1SOL     OW 9701   0.232   2.845   4.213  0.2563 -0.0329  0.1791
    1SOL    HW2 9702   0.234   2.934   4.179 -1.1075 -0.2349 -0.4473
    1SOL    HW3 9703   0.149   2.809   4.183  1.2987 -1.9139 -0.5377
    1SOL    MW4 9704   0.221   2.852   4.205  0.2139 -0.3076  0.0019
    1SOL     OW 9705   1.801   1.138   4.809  0.3416  0.2805 -0.2135
    1SOL    HW2 9706   1.890   1.121   4.840  0.2719  0.7271  0.2247
    1SOL    HW3 9707   1.779   1.060   4.757  0.6793 -0.1968  0.3519
    1SOL    MW4 9708   1.810   1.125   4.806  0.3769  0.2766 -0.0811
    1SOL     OW 9709   4.261   3.130   4.138  0.7458  0.0414  0.4778
    1SOL    HW2 9710   4.346   3.169   4.160  1.5066 -1.2524 -0.0852
    1SOL    HW3 9711   4.258   3.130   4.043  0.4253 -0.5688  0.4851
    1SOL    MW4 9712   4.272   3.135   4.129  0.8035 -0.2098  0.4039
    1SOL     OW 9713   3.252   2.637   4.579 -0.0844 -0.0440 -0.6034
    1SOL    HW2 9714   3.344   2.638   4.554  0.0761 -0.3432 -0.0494
    1SOL    HW3 9715   3.214   2.713   4.537  0.5476  0.4015 -0.3718
    1SOL    MW4 9716   3.259   2.647   4.570  0.0200 -0.0248 -0.4997
    1SOL     OW 9717   1.944   1.036   4.547  0.5349 -0.1833  0.3669
    1SOL    HW2 9718   1.899   1.113   4.514 -1.4276 -1.2095  0.5604
    1SOL    HW3 9719   1.976   1.062   4.634  1.5465  0.9875 -0.3445
    1SOL    MW4 9720   1.942   1.049   4.554  0.4095 -0.1644  0.2985
    1SOL     OW 9721   1.632   1.620   4.913  0.2091 -0.2102  0.1229
    1SOL    HW2 9722   1.644   1.538   4.866  1.2429  0.1628 -0.2890
    1SOL    HW3 9723   1.638   1.596   5.006 -0.8155 -0.7909  0.0422
    1SOL    MW4 9724   1.634   1.606   4.919  0.2103 -0.2377  0.0582
    1SOL     OW 9725   0.237   4.428   4.256  0.3056  0.4919  0.4802
    1SOL    HW2 9726   0.203   4.442   4.344 -0.6736 -0.8632  0.3161
    1SOL    HW3 9727   0.172   4.374   4.213  0.8423  1.0458 -1.0503
    1SOL    MW4 9728   0.224   4.423   4.262  0.2473  0.3862  0.2561
    1SOL     OW 9729   3.132   1.182   4.191  0.2242 -0.4828 -0.0377
    1SOL    HW2 9730   3.138   1.177   4.095  0.6754  2.6762 -0.2285
    1SOL    HW3 9731   3.060   1.243   4.207  0.0041 -1.1799  1.6428
    1SOL    MW4 9732   3.123   1.189   4.180  0.2546 -0.1581  0.1588
    1SOL     OW 9733   0.947   0.604   4.603 -0.3528  0.0273 -0.1702
    1SOL    HW2 9734   0.967   0.676   4.544 -1.5089 -1.5122 -2.5127
    1SOL    HW3 9735   1.017   0.540   4.589  0.4084  0.4361  1.5486
    1SOL    MW4 9736   0.959   0.605   4.594 -0.4050 -0.1219 -0.2527
    1SOL     OW 9737   0.532   0.060   4.145  0.2796 -0.4130 -0.3329
    1SOL    HW2 9738   0.510   0.152   4.131  2.2796  0.1729  0.1306
    1SOL    HW3 9739   0.580   0.035   4.066  1.9533 -0.2942  0.6156
    1SOL    MW4 9740   0.535   0.069   4.133  0.7643 -0.3200 -0.1469
    1SOL     OW 9741   0.446   0.322   4.117 -0.3580 -0.3015  0.1180
    1SOL    HW2 9742   0.519   0.368   4.160 -0.9129  0.7999 -0.0795
    1SOL    HW3 9743   0.447   0.356   4.027 -0.9275 -0.5077  0.0364
    1SOL    MW4 9744   0.456   0.333   4.111 -0.5064 -0.1834  0.0815
    1SOL     OW 9745   0.893   0.843   4.204  0.0202  0.0803 -0.1619
    1SOL    HW2 9746   0.887   0.936   4.182  1.6289 -0.4131 -2.8310
    1SOL    HW3 9747   0.917   0.843   4.297  0.9400  2.3446 -0.3535
    1SOL    MW4 9748   0.895   0.855   4.214  0.3539  0.3139 -0.5398
    1SOL     OW 9749   4.457   0.886   4.529 -0.1815  0.4870  0.0568
    1SOL    HW2 9750   4.378   0.936   4.548  0.1249  0.5700  1.1064
    1SOL    HW3 9751   4.529   0.947   4.543 -0.0076  1.1655 -3.3098
    1SOL    MW4 9752   4.456   0.901   4.533 -0.1187  0.5875 -0.2484
    1SOL     OW 9753   2.686   1.952   4.147  0.2100 -0.3026 -0.5520
    1SOL    HW2 9754   2.730   2.032   4.178 -0.0712  0.3866 -1.8956
    1SOL    HW3 9755   2.593   1.971   4.161  0.1834 -0.6782 -0.2245
    1SOL    MW4 9756   2.679   1.965   4.153  0.1695 -0.2613 -0.6866
    1SOL     OW 9757   0.809   1.535   4.075 -0.2954  0.7352 -0.1224
    1SOL    HW2 9758   0.773   1.459   4.121  0.8981 -0.8488 -1.7508
    1SOL    HW3 9759   0.740   1.564   4.016 -0.0722 -0.2860 -0.8878
    1SOL    MW4 9760   0.795   1.529   4.073 -0.1085  0.3915 -0.4387
    1SOL     OW 9761   0.210   0.757   4.130  0.2253  0.0716 -0.7414
    1SOL    HW2 9762   0.231   0.676   4.175  0.9759  1.5278  1.6323
    1SOL    HW3 9763   0.126   0.784   4.168  0.3147  0.7693 -1.0274
    1SOL    MW4 9764   0.201   0.750   4.141  0.3362  0.3557 -0.4659
    1SOL     OW 9765   0.702   2.293   4.632 -0.0541  0.3990  0.3644
    1SOL    HW2 9766   0.718   2.198   4.630  1.7336  0.6663  0.9150
    1SOL    HW3 9767   0.786   2.332   4.608 -0.6919  1.8595  0.4426
    1SOL    MW4 9768   0.715   2.285   4.629  0.0977  0.6273  0.4478
    1SOL     OW 9769   4.017   0.941   4.475 -0.2906  0.1328  0.3180
    1SOL    HW2 9770   3.958   1.016   4.480 -0.4444  0.0109  0.3156
    1SOL    HW3 9771   4.031   0.928   4.381  1.3711  1.4491  0.3740
    1SOL    MW4 9772   4.011   0.949   4.463 -0.0911  0.2903  0.3252
    1SOL     OW 9773   0.417   1.921   4.115  0.2434 -0.0773 -0.2110
    1SOL    HW2 9774   0.485   1.961   4.169 -0.2838 -0.2934  0.6172
    1SOL    HW3 9775   0.436   1.952   4.026  1.0841  0.3164  0.1006
    1SOL    MW4 9776   0.428   1.930   4.110  0.2848 -0.0538 -0.0606
    1SOL     OW 9777   1.794   3.232   4.457 -0.1478  0.1842  0.1049
    1SOL    HW2 9778   1.789   3.146   4.500 -0.6203  0.2817  0.2457
    1SOL    HW3 9779   1.785   3.213   4.364  0.2801  0.0321  0.0895
    1SOL    MW4 9780   1.792   3.218   4.451 -0.1538  0.1771  0.1221
    1SOL     OW 9781   0.664   2.316   4.137 -0.3906  0.3962 -0.0335
    1SOL    HW2 9782   0.609   2.389   4.165 -0.2162  0.3749  0.3578
    1SOL    HW3 9783   0.647   2.308   4.043  0.5913  1.7773 -0.3346
    1SOL    MW4 9784   0.654   2.324   4.128 -0.2381  0.5758 -0.0219
    1SOL     OW 9785   2.218   3.880   4.623 -0.2054 -0.1841 -0.0535
    1SOL    HW2 9786   2.177   3.909   4.705  0.8440  1.8209 -0.2080
    1SOL    HW3 9787   2.225   3.960   4.571  0.1932 -1.2422 -1.6424
    1SOL    MW4 9788   2.213   3.894   4.627 -0.0141 -0.0591 -0.2832
    1SOL     OW 9789   0.718   2.834   4.262 -0.1938 -0.0762 -0.0882
    1SOL    HW2 9790   0.772   2.790   4.196  1.2422  2.0539 -0.3904
    1SOL    HW3 9791   0.629   2.825   4.229  0.3475 -0.3398 -1.5496
    1SOL    MW4 9792   0.713   2.827   4.249  0.0671  0.1700 -0.3209
    1SOL     OW 9793   1.588   2.842   4.213  0.1684  0.1272 -0.1708
    1SOL    HW2 9794   1.588   2.840   4.309 -2.1863 -1.5083 -0.1632
    1SOL    HW3 9795   1.672   2.803   4.189 -0.0100 -1.2358  1.2441
    1SOL    MW4 9796   1.599   2.836   4.223 -0.1657 -0.2682  0.0172
    1SOL     OW 9797   0.705   3.103   4.132 -0.4729  0.0383  0.1139
    1SOL    HW2 9798   0.723   3.020   4.176 -0.7017 -0.1708 -0.1830
    1SOL    HW3 9799   0.630   3.139   4.178  0.3777  0.6621  1.0205
    1SOL    MW4 9800   0.697   3.097   4.144 -0.3909  0.0930  0.1941
    1SOL     OW 9801   0.029   3.222   4.223  0.5347  0.2628  0.0316
    1SOL    HW2 9802   0.025   3.318   4.226 -0.9649  0.2216 -0.4036
    1SOL    HW3 9803   0.040   3.196   4.315 -0.7204  0.7993  0.3492
    1SOL    MW4 9804   0.030   3.231   4.236  0.1717  0.3281  0.0157
    1SOL     OW 9805   0.933   1.402   4.578  0.3274 -0.0702  0.0818
    1SOL    HW2 9806   0.940   1.496   4.563  0.3461 -0.2021 -0.7597
    1SOL    HW3 9807   1.020   1.367   4.560  0.2989 -0.2572  0.3012
    1SOL    MW4 9808   0.945   1.410   4.574  0.3262 -0.1122 -0.0005
    1SOL     OW 9809   3.650   3.571   4.613  0.3943  0.1154 -0.2944
    1SOL    HW2 9810   3.682   3.587   4.702  0.8616  1.4326 -0.6964
    1SOL    HW3 9811   3.721   3.600   4.556 -0.0890 -0.2952 -1.1204
    1SOL    MW4 9812   3.664   3.577   4.617  0.3922  0.2351 -0.4563
    1SOL     OW 9813   0.639   3.606   4.337 -0.5472 -0.2984 -0.3793
    1SOL    HW2 9814   0.706   3.591   4.271 -0.1196  1.1802 -0.2989
    1SOL    HW3 9815   0.657   3.694   4.370 -2.1001 -0.1508  0.1279
    1SOL    MW4 9816   0.650   3.615   4.332 -0.6956 -0.0842 -0.3018
    1SOL     OW 9817   2.570   0.539   4.465 -0.0213 -0.6205 -0.2602
    1SOL    HW2 9818   2.536   0.531   4.376  0.6609 -2.1257 -0.3910
    1SOL    HW3 9819   2.662   0.513   4.458 -0.1610 -1.5009  1.0217
    1SOL    MW4 9820   2.578   0.535   4.452  0.0503 -0.9352 -0.1078
    1SOL     OW 9821   4.458   0.605   4.579  0.5286  0.3532 -0.3276
    1SOL    HW2 9822   4.382   0.582   4.525  0.3304 -0.0067  0.1001
    1SOL    HW3 9823   4.453   0.700   4.589 -0.4150  0.2157  0.5143
    1SOL    MW4 9824   4.447   0.615   4.573  0.3781  0.2876 -0.1602
    1SOL     OW 9825   0.106   4.520   4.497  0.8084  0.1110  0.5311
    1SOL    HW2 9826   0.061   4.604   4.483 -0.6892 -1.0527 -1.9050
    1SOL    HW3 9827   0.053   4.476   4.564  0.9655  0.6200  0.9999
    1SOL    MW4 9828   0.093   4.526   4.504  0.6315  0.0243  0.2718
    1SOL     OW 9829   1.109   4.613   4.193 -0.6239  0.3506 -0.0717
    1SOL    HW2 9830   1.101   4.518   4.202 -0.0071  0.1895 -1.0679
    1SOL    HW3 9831   1.126   4.626   4.099  1.0450  1.3077  0.3432
    1SOL    MW4 9832   1.110   4.602   4.182 -0.3225  0.4554 -0.1483
    1SOL     OW 9833   0.937   0.125   4.334  0.1863  0.2633  0.1439
    1SOL    HW2 9834   0.926   0.192   4.267  0.4398  0.1121 -0.0483
    1SOL    HW3 9835   0.992   0.058   4.293  1.0816  0.5942  0.7990
    1SOL    MW4 9836   0.942   0.125   4.320  0.3379  0.2870  0.2050
    1SOL     OW 9837   1.177   4.115   4.720  0.4946  0.1734 -0.4900
    1SOL    HW2 9838   1.115   4.065   4.773 -0.3271 -0.4037 -1.9868
    1SOL    HW3 9839   1.207   4.185   4.778 -1.6760  0.5571  0.1931
    1SOL    MW4 9840   1.173   4.118   4.735  0.0998  0.1478 -0.5970
    1SOL     OW 9841   0.339   1.667   4.241 -0.0676 -0.1048 -0.4512
    1SOL    HW2 9842   0.416   1.637   4.289  0.4964 -2.2162 -2.5581
    1SOL    HW3 9843   0.371   1.738   4.185  0.2877 -0.7493 -1.0708
    1SOL    MW4 9844   0.353   1.672   4.240  0.0537 -0.4686 -0.8106
    1SOL     OW 9845   1.151   0.766   4.126 -0.8970 -0.5239  0.2336
    1SOL    HW2 9846   1.209   0.818   4.182 -0.4310 -0.0597 -0.6796
    1SOL    HW3 9847   1.063   0.789   4.156 -0.6804  0.3968  0.1871
    1SOL    MW4 9848   1.147   0.776   4.138 -0.8069 -0.3412  0.1068
    1SOL     OW 9849   1.875   0.291   4.573  0.0805  0.6835 -0.5078
    1SOL    HW2 9850   1.893   0.377   4.536  2.4287 -0.4681 -2.2057
    1SOL    HW3 9851   1.842   0.240   4.500  2.8385 -1.0436 -0.6372
    1SOL    MW4 9852   1.873   0.296   4.559  0.7541  0.3037 -0.7486
    1SOL     OW 9853   0.905   1.103   4.118 -0.3005  0.2514  0.2684
    1SOL    HW2 9854   0.839   1.163   4.153 -0.9169 -0.7766  0.8993
    1SOL    HW3 9855   0.988   1.138   4.150 -0.6081  1.0694  0.1780
    1SOL    MW4 9856   0.908   1.115   4.127 -0.4224  0.2238  0.3400
    1SOL     OW 9857   0.052   1.485   4.590 -0.1424 -0.2350  0.5685
    1SOL    HW2 9858   0.124   1.424   4.570  1.3140  1.1953  1.3874
    1SOL    HW3 9859   0.082   1.569   4.556 -2.0316  0.1150 -0.3058
    1SOL    MW4 9860   0.065   1.488   4.583 -0.1995  0.0000  0.5608
    1SOL     OW 9861   3.777   3.300   4.596 -0.2695  0.2951  0.2178
    1SOL    HW2 9862   3.740   3.389   4.596 -0.3857  0.2471  0.8435
    1SOL    HW3 9863   3.871   3.314   4.582 -0.4062  0.4609 -0.5992
    1SOL    MW4 9864   3.785   3.314   4.594 -0.3030  0.3104  0.1931
    1SOL     OW 9865   1.114   3.581   4.518  0.2377  0.0898  0.1065
    1SOL    HW2 9866   1.113   3.582   4.423  1.0004  0.0063  0.0937
    1SOL    HW3 9867   1.180   3.646   4.542 -0.7489  0.9219  0.6008
    1SOL    MW4 9868   1.123   3.589   4.509  0.2081  0.1886  0.1698
    1SOL     OW 9869   0.582   2.004   4.513  0.1884  0.4654  0.1742
    1SOL    HW2 9870   0.599   1.911   4.527 -2.0442 -0.2034 -1.3130
    1SOL    HW3 9871   0.618   2.023   4.426 -1.2591  0.4370 -0.4554
    1SOL    MW4 9872   0.589   1.995   4.503 -0.2971  0.3737 -0.1049
    1SOL     OW 9873   0.892   1.964   4.133  0.0026 -0.1803 -0.3297
    1SOL    HW2 9874   0.961   2.027   4.156  1.0763 -1.7659  0.9460
    1SOL    HW3 9875   0.870   1.985   4.042  0.4230  1.9320  0.0088
    1SOL    MW4 9876   0.898   1.975   4.124  0.1997 -0.1107 -0.1163
    1SOL     OW 9877   2.536   2.144   4.476 -0.1323  0.1047 -0.0865
    1SOL    HW2 9878   2.519   2.080   4.407  0.1466  0.2316 -0.2720
    1SOL    HW3 9879   2.483   2.220   4.453  0.9318  0.6331 -0.8519
    1SOL    MW4 9880   2.527   2.145   4.464  0.0448  0.1910 -0.2122
    1SOL     OW 9881   4.450   4.374   4.697 -0.8134 -0.4031  0.2273
    1SOL    HW2 9882   4.515   4.304   4.710 -0.0758  0.2610  0.1789
    1SOL    HW3 9883   4.389   4.338   4.632 -0.1046 -0.7771 -0.2406
    1SOL    MW4 9884   4.451   4.360   4.690 -0.6225 -0.3648  0.1597
    1SOL     OW 9885   0.888   2.712   4.075  0.2402 -0.0475 -0.0637
    1SOL    HW2 9886   0.873   2.622   4.103  1.7834 -0.2582  0.1232
    1SOL    HW3 9887   0.970   2.737   4.119  0.2148  1.1763 -0.7131
    1SOL    MW4 9888   0.897   2.703   4.085  0.4405  0.0861 -0.1245
    1SOL     OW 9889   0.172   4.154   4.688 -0.4766  0.3750  0.0771
    1SOL    HW2 9890   0.096   4.137   4.631 -0.7845  1.0293  0.2823
    1SOL    HW3 9891   0.225   4.075   4.681 -0.4442  0.4967 -1.2289
    1SOL    MW4 9892   0.169   4.142   4.679 -0.5130  0.4773 -0.0682
    1SOL     OW 9893   1.063   3.063   4.101 -0.6045  0.0108 -0.3761
    1SOL    HW2 9894   1.071   3.080   4.007 -1.7716  0.2755 -0.4323
    1SOL    HW3 9895   1.018   3.140   4.135 -1.1932 -0.5889  0.2152
    1SOL    MW4 9896   1.058   3.075   4.093 -0.8361 -0.0331 -0.3061
    1SOL     OW 9897   3.571   0.086   4.277 -0.4019 -0.3791 -0.0536
    1SOL    HW2 9898   3.662   0.063   4.258  0.5558  1.9030  1.5299
    1SOL    HW3 9899   3.560   0.175   4.242 -1.6918 -0.2023  0.7461
    1SOL    MW4 9900   3.581   0.095   4.270 -0.4458 -0.0547  0.2608
    1SOL     OW 9901   0.207   3.628   4.301  0.3214 -0.0333  0.4526
    1SOL    HW2 9902   0.204   3.716   4.263 -0.2760  0.5091  1.7294
    1SOL    HW3 9903   0.277   3.584   4.252  1.2683  1.4484  0.4281
    1SOL    MW4 9904   0.216   3.634   4.289  0.3675  0.2337  0.6175
    1SOL     OW 9905   4.045   2.775   4.176 -0.2783  0.1824 -0.1595
    1SOL    HW2 9906   4.039   2.682   4.197 -0.1961 -0.0146 -0.9783
    1SOL    HW3 9907   3.959   2.811   4.200  0.4320  0.3471  2.2306
    1SOL    MW4 9908   4.033   2.768   4.182 -0.1736  0.1783  0.0477
    1SOL     OW 9909   2.038   2.812   4.229  0.1099  0.1342 -0.0522
    1SOL    HW2 9910   1.964   2.764   4.191  1.7804 -1.3036 -1.5467
    1SOL    HW3 9911   2.116   2.767   4.195  1.6879  2.4071  0.4932
    1SOL    MW4 9912   2.038   2.799   4.220  0.5383  0.2446 -0.1769
    1SOL     OW 9913   0.505   3.242   4.256  0.4346 -0.2665  0.2997
    1SOL    HW2 9914   0.481   3.327   4.220 -1.2866 -1.0470 -0.4273
    1SOL    HW3 9915   0.519   3.258   4.350 -0.8383  0.6264  0.3477
    1SOL    MW4 9916   0.504   3.255   4.264  0.0395 -0.2518  0.2108
    1SOL     OW 9917   0.876   4.252   4.138  0.1704 -0.0094  0.3752
    1SOL    HW2 9918   0.799   4.273   4.191 -0.6776  1.1562 -1.2348
    1SOL    HW3 9919   0.950   4.277   4.192 -0.5695 -1.1673  1.9662
    1SOL    MW4 9920   0.875   4.258   4.152 -0.0392 -0.0086  0.3729
    1SOL     OW 9921   0.990   4.248   5.017 -0.2417 -0.0137 -0.4381
    1SOL    HW2 9922   0.943   4.330   5.028  1.1641  0.7555 -0.0871
    1SOL    HW3 9923   1.074   4.274   4.978  0.3657 -1.2413  0.0423
    1SOL    MW4 9924   0.995   4.262   5.013  0.0239 -0.0744 -0.3285
    1SOL     OW 9925   2.655   4.247   4.102  0.2017  0.0738  0.3795
    1SOL    HW2 9926   2.731   4.293   4.137  0.1732 -0.0025  0.5384
    1SOL    HW3 9927   2.662   4.158   4.136  0.8599 -0.3506 -0.8276
    1SOL    MW4 9928   2.666   4.241   4.111  0.2847  0.0072  0.2408
    1SOL     OW 9929   1.392   0.051   4.159 -0.0801  0.6799  0.0141
    1SOL    HW2 9930   1.440   0.027   4.238  0.6994  0.0940 -0.6257
    1SOL    HW3 9931   1.304   0.015   4.172  0.1183  0.3616  0.5021
    1SOL    MW4 9932   1.387   0.043   4.171  0.0488  0.5605 -0.0057
    1SOL     OW 9933   1.352   0.318   4.126  0.0966  0.5672  0.1508
    1SOL    HW2 9934   1.430   0.364   4.157  1.2194  0.5724 -2.5746
    1SOL    HW3 9935   1.373   0.225   4.137 -0.3118  0.5895  1.2256
    1SOL    MW4 9936   1.365   0.312   4.132  0.1909  0.5709 -0.0668
    1SOL     OW 9937   1.671   3.631   4.238  0.0365 -0.3159 -0.3399
    1SOL    HW2 9938   1.587   3.591   4.259 -1.6214  2.2833 -1.6995
    1SOL    HW3 9939   1.711   3.648   4.323 -2.7935  2.3295  0.5757
    1SOL    MW4 9940   1.665   3.628   4.252 -0.5556  0.3757 -0.3986
    1SOL     OW 9941   2.306   1.913   4.640  0.6356  0.3333 -0.0079
    1SOL    HW2 9942   2.291   2.008   4.638 -0.1281  0.2010 -2.1888
    1SOL    HW3 9943   2.249   1.882   4.710  0.0085  1.3377 -0.0567
    1SOL    MW4 9944   2.296   1.922   4.649  0.4520  0.4483 -0.3014
    1SOL     OW 9945   2.036   4.519   4.536 -0.2390  0.1139  0.1167
    1SOL    HW2 9946   2.003   4.555   4.454 -0.0253 -0.5106 -0.2467
    1SOL    HW3 9947   2.052   4.595   4.592 -1.8792  0.4651  0.1455
    1SOL    MW4 9948   2.034   4.534   4.533 -0.4272  0.0782  0.0725
    1SOL     OW 9949   0.905   3.267   4.219 -0.4731 -0.0020  0.3882
    1SOL    HW2 9950   0.868   3.262   4.307 -1.1689  0.9227  0.1423
    1SOL    HW3 9951   0.849   3.211   4.166 -0.1761 -0.3927  0.4792
    1SOL    MW4 9952   0.893   3.259   4.224 -0.5257  0.0687  0.3676
    1SOL     OW 9953   1.386   1.127   4.137  0.0289  0.2605 -0.2692
    1SOL    HW2 9954   1.444   1.197   4.165  0.1652  0.0811 -0.0992
    1SOL    HW3 9955   1.369   1.145   4.044 -1.2829  1.4460  0.1850
    1SOL    MW4 9956   1.391   1.138   4.128 -0.1262  0.3933 -0.1869
    1SOL     OW 9957   3.159   2.885   4.487  0.1891  0.0512 -0.1906
    1SOL    HW2 9958   3.217   2.953   4.521 -0.6021  0.0795  1.1078
    1SOL    HW3 9959   3.071   2.916   4.506 -0.1922 -1.1836  0.1104
    1SOL    MW4 9960   3.155   2.898   4.494  0.0346 -0.1080  0.0205
    1SOL     OW 9961   3.417   4.403   4.519  0.0532 -0.0505 -0.1250
    1SOL    HW2 9962   3.503   4.425   4.556  0.6333 -0.1567 -1.4042
    1SOL    HW3 9963   3.358   4.470   4.554  1.0485  1.2451 -0.8870
    1SOL    MW4 9964   3.420   4.414   4.529  0.2608  0.1068 -0.3943
    1SOL     OW 9965   2.821   2.177   4.298 -0.8780 -0.3114 -0.6569
    1SOL    HW2 9966   2.844   2.128   4.377 -0.9710 -0.3193 -0.6347
    1SOL    HW3 9967   2.747   2.232   4.324 -0.4277  0.2381 -0.5432
    1SOL    MW4 9968   2.814   2.178   4.312 -0.8309 -0.2403 -0.6394
    1SOL     OW 9969   1.126   0.155   4.512 -0.3659 -0.0657 -0.3141
    1SOL    HW2 9970   1.055   0.154   4.448 -0.5051 -1.1816 -0.1570
    1SOL    HW3 9971   1.081   0.159   4.597 -0.2434 -0.5953 -0.2215
    1SOL    MW4 9972   1.110   0.156   4.515 -0.3680 -0.2828 -0.2809
    1SOL     OW 9973   2.266   0.861   4.798 -0.0857 -0.0015 -0.0988
    1SOL    HW2 9974   2.308   0.784   4.835 -1.3655 -0.2909  0.7581
    1SOL    HW3 9975   2.329   0.893   4.733  0.9313 -1.1159  0.3171
    1SOL    MW4 9976   2.280   0.855   4.794 -0.1204 -0.1866  0.0696
    1SOL     OW 9977   1.805   2.673   3.843  0.0647 -0.5878  0.1473
    1SOL    HW2 9978   1.734   2.732   3.817  0.5305  0.2303  0.6718
    1SOL    HW3 9979   1.777   2.586   3.816 -0.3727 -0.0354 -1.1910
    1SOL    MW4 9980   1.792   2.670   3.836  0.0685 -0.4067  0.0401
    1SOL     OW 9981   3.132   3.795   4.600 -0.2647 -0.1077  0.6102
    1SOL    HW2 9982   3.146   3.885   4.573 -1.0707 -0.7230 -2.0182
    1SOL    HW3 9983   3.218   3.754   4.592  0.0079  0.3130  1.3669
    1SOL    MW4 9984   3.145   3.801   4.596 -0.3350 -0.1335  0.3629
    1SOL     OW 9985   1.127   2.068   4.254  0.5324 -0.0724  0.2854
    1SOL    HW2 9986   1.182   2.006   4.207  0.3086 -1.3598  1.7018
    1SOL    HW3 9987   1.162   2.069   4.343 -0.3862  0.7270  0.6484
    1SOL    MW4 9988   1.139   2.060   4.260  0.3816 -0.1364  0.5207
    1SOL     OW 9989   3.541   4.004   4.264 -0.0831 -0.0225 -0.2090
    1SOL    HW2 9990   3.615   3.970   4.213  0.5586 -0.3880  0.9336
    1SOL    HW3 9991   3.464   3.966   4.223  0.5178 -1.5080 -0.0012
    1SOL    MW4 9992   3.541   3.995   4.252  0.0808 -0.2666 -0.0310
    1SOL     OW 9993   3.164   0.428   4.607 -0.2466  0.8326  0.2540
    1SOL    HW2 9994   3.162   0.520   4.582 -0.0589  0.9854  0.8065
    1SOL    HW3 9995   3.255   0.401   4.592  0.5041  1.6014  3.2111
    1SOL    MW4 9996   3.175   0.437   4.602 -0.1230  0.9541  0.7172
    1SOL     OW 9997   3.633   4.541   4.693 -0.3759  0.6091  0.1927
    1SOL    HW2 9998   3.596   4.529   4.781 -0.8299  0.3764 -0.0288
    1SOL    HW3 9999   3.603   4.628   4.667  0.9323  1.2563  0.8361
    1SOL    MW410000   3.624   4.551   4.702 -0.2632  0.6638  0.2484
    1SOL     OW10001   1.787   0.118   4.354 -0.7158 -0.4610 -0.1101
    1SOL    HW210002   1.845   0.050   4.320 -0.5505  0.0254 -0.8120
    1SOL    HW310003   1.699   0.082   4.342 -0.5595 -1.1804  0.9186
    1SOL    MW410004   1.783   0.104   4.348 -0.6733 -0.4917 -0.0668
    1SOL     OW10005   0.815   3.971   4.146 -0.0941 -0.2606  0.0538
    1SOL    HW210006   0.835   4.065   4.149 -0.7148 -0.1754  1.7964
    1SOL    HW310007   0.900   3.928   4.149  0.1462  0.2320  0.3648
    1SOL    MW410008   0.829   3.978   4.147 -0.1443 -0.1845  0.3242
    1SOL     OW10009   0.680   3.871   4.372 -0.5823 -0.0280  0.3322
    1SOL    HW210010   0.733   3.898   4.447 -1.0216 -0.9052  0.9718
    1SOL    HW310011   0.719   3.916   4.297  0.0458  0.6227  1.0409
    1SOL    MW410012   0.692   3.881   4.372 -0.5573 -0.0579  0.5097
    1SOL     OW10013   1.554   0.472   4.226  0.3387  0.3176  0.1349
    1SOL    HW210014   1.534   0.483   4.319 -0.9040  1.3478 -0.2277
    1SOL    HW310015   1.551   0.561   4.190  1.4397 -0.0004 -0.7727
    1SOL    MW410016   1.551   0.485   4.233  0.3200  0.4116 -0.0324
    1SOL     OW10017   2.054   0.117   4.675  0.0161 -0.5066  0.1189
    1SOL    HW210018   2.058   0.114   4.770  0.5023  0.2316  0.1189
    1SOL    HW310019   1.991   0.185   4.655  1.0155  0.3622 -0.1024
    1SOL    MW410020   2.046   0.125   4.685  0.2122 -0.2946  0.0896
    1SOL     OW10021   1.976   4.643   4.182 -0.3484 -0.0623  0.3044
    1SOL    HW210022   2.042   4.704   4.215 -0.1921 -0.5571  0.9227
    1SOL    HW310023   1.968   4.663   4.089 -0.8295  1.3995  0.6430
    1SOL    MW410024   1.983   4.653   4.174 -0.3912  0.0653  0.4301
    1SOL     OW10025   1.972   0.513   4.199  0.2880 -0.3333  0.4165
    1SOL    HW210026   2.063   0.482   4.200  0.4441  0.0972  2.5725
    1SOL    HW310027   1.919   0.434   4.188  0.8556 -0.7764  0.8434
    1SOL    MW410028   1.977   0.499   4.198  0.3834 -0.3350  0.7577
    1SOL     OW10029   1.370   0.029   4.600 -0.3022  0.0142  0.2281
    1SOL    HW210030   1.422   0.109   4.609  0.2464 -0.1362 -1.4418
    1SOL    HW310031   1.280   0.060   4.589 -0.1805  0.3735  0.2207
    1SOL    MW410032   1.365   0.044   4.600 -0.2136  0.0418  0.0067
    1SOL     OW10033   1.452   0.523   4.488  0.0632  0.3016  0.2772
    1SOL    HW210034   1.446   0.616   4.507 -2.3543  0.2633 -0.1156
    1SOL    HW310035   1.363   0.490   4.499  0.9397 -2.0340  0.7477
    1SOL    MW410036   1.440   0.531   4.492 -0.1401 -0.0116  0.2871
    1SOL     OW10037   3.807   0.750   4.132 -0.1525 -0.0182  0.0747
    1SOL    HW210038   3.732   0.791   4.175  0.1859  1.8889 -1.1008
    1SOL    HW310039   3.797   0.773   4.039  1.5956 -0.1644 -0.1725
    1SOL    MW410040   3.796   0.758   4.125  0.1228  0.2142 -0.1125
    1SOL     OW10041   3.589   0.120   4.564  0.3297  0.5643 -0.1131
    1SOL    HW210042   3.668   0.174   4.569  0.4500  0.3443  0.4372
    1SOL    HW310043   3.565   0.121   4.471 -0.4232  2.6373  0.0997
    1SOL    MW410044   3.597   0.127   4.552  0.2463  0.8088 -0.0124
    1SOL     OW10045   1.199   0.983   4.563 -0.5025  0.0113  1.0888
    1SOL    HW210046   1.273   0.933   4.529 -0.1141  0.3009  1.4974
    1SOL    HW310047   1.171   0.933   4.641 -0.3414  0.2335  1.2903
    1SOL    MW410048   1.205   0.970   4.569 -0.4300  0.0789  1.1692
    1SOL     OW10049   1.193   1.809   4.648  0.3638  0.4896 -0.0975
    1SOL    HW210050   1.200   1.894   4.605 -0.7073  1.2460  1.1930
    1SOL    HW310051   1.266   1.808   4.711  1.2550 -0.1621 -1.1118
    1SOL    MW410052   1.204   1.820   4.651  0.3400  0.5033 -0.0615
    1SOL     OW10053   1.536   1.334   4.247  0.4124  0.1866  0.0787
    1SOL    HW210054   1.608   1.271   4.249  1.4948  1.4402  2.4149
    1SOL    HW310055   1.572   1.411   4.203  1.1973  1.5475  2.9557
    1SOL    MW410056   1.550   1.336   4.241  0.6588  0.5316  0.7663
    1SOL     OW10057   1.599   1.575   4.130 -0.5089 -0.6307  0.1637
    1SOL    HW210058   1.516   1.611   4.161 -0.5922 -1.6741  1.2020
    1SOL    HW310059   1.666   1.632   4.167 -0.6286 -1.5998  1.9203
    1SOL    MW410060   1.597   1.587   4.139 -0.5358 -0.8961  0.5326
    1SOL     OW10061   1.088   1.502   4.121  0.1939  0.1613 -0.3090
    1SOL    HW210062   1.104   1.411   4.147  0.0664 -0.6044 -2.7426
    1SOL    HW310063   0.993   1.508   4.114  0.0953  1.0096  1.5694
    1SOL    MW410064   1.078   1.491   4.123  0.1640  0.1724 -0.3824
    1SOL     OW10065   0.323   2.352   4.673 -0.5461  0.0484 -0.1257
    1SOL    HW210066   0.319   2.281   4.610 -0.2812 -0.0895  0.0145
    1SOL    HW310067   0.393   2.328   4.733 -1.2610 -0.1674  0.6320
    1SOL    MW410068   0.331   2.340   4.673 -0.6055  0.0017 -0.0072
    1SOL     OW10069   3.536   2.738   4.152  0.1948 -0.0781  0.4331
    1SOL    HW210070   3.566   2.738   4.061  1.2499  0.6822  0.7654
    1SOL    HW310071   3.445   2.767   4.148  0.1975 -0.1869 -0.4007
    1SOL    MW410072   3.528   2.742   4.140  0.3345  0.0079  0.3667
    1SOL     OW10073   3.590   1.674   4.515  0.5076  0.0228  0.1828
    1SOL    HW210074   3.660   1.729   4.552 -0.1172  1.2740 -0.4417
    1SOL    HW310075   3.513   1.695   4.568  0.8214 -2.0921  1.5045
    1SOL    MW410076   3.589   1.684   4.527  0.4666 -0.0912  0.2747
    1SOL     OW10077   2.229   2.653   4.117 -0.1217 -0.0751 -0.0366
    1SOL    HW210078   2.230   2.658   4.021 -1.8592 -0.5574 -0.1019
    1SOL    HW310079   2.247   2.562   4.136 -1.1955 -0.2714  0.0459
    1SOL    MW410080   2.231   2.642   4.107 -0.4930 -0.1647 -0.0343
    1SOL     OW10081   2.031   1.646   4.162 -0.2141 -0.2854  0.2796
    1SOL    HW210082   2.026   1.609   4.074  0.9274 -0.3293  0.2302
    1SOL    HW310083   2.101   1.711   4.157  0.0176 -0.4559  1.2150
    1SOL    MW410084   2.039   1.649   4.150 -0.0329 -0.3138  0.3967
    1SOL     OW10085   2.698   1.677   4.218  0.5512 -0.4485 -0.2862
    1SOL    HW210086   2.698   1.767   4.186  0.7321 -0.6052 -0.7286
    1SOL    HW310087   2.696   1.686   4.314 -1.1309  0.0049 -0.3461
    1SOL    MW410088   2.698   1.690   4.227  0.3529 -0.4094 -0.3524
    1SOL     OW10089   1.372   2.682   4.130  0.0143  0.1276 -0.3776
    1SOL    HW210090   1.292   2.734   4.141  0.2212  0.3018  0.3441
    1SOL    HW310091   1.442   2.739   4.163  0.4670  0.0628 -1.2018
    1SOL    MW410092   1.371   2.697   4.136  0.1013  0.1421 -0.3910
    1SOL     OW10093   2.041   3.617   4.257 -0.3007 -0.0212 -0.2994
    1SOL    HW210094   1.979   3.556   4.217 -0.1457 -0.3722  0.0029
    1SOL    HW310095   2.033   3.697   4.204 -1.9339  0.3650  0.5000
    1SOL    MW410096   2.032   3.620   4.245 -0.4959 -0.0165 -0.1540
    1SOL     OW10097   4.399   1.798   4.256  0.2043  0.3715  0.1219
    1SOL    HW210098   4.351   1.733   4.205  1.2598 -1.1095  0.9966
    1SOL    HW310099   4.338   1.824   4.325 -0.8205  1.5615 -1.1849
    1SOL    MW410100   4.384   1.793   4.258  0.2089  0.3332  0.0648
    1SOL     OW10101   2.008   3.857   4.096 -0.6254 -0.0405  0.1106
    1SOL    HW210102   2.011   3.857   4.001  0.9083  1.4433  0.1380
    1SOL    HW310103   1.926   3.901   4.118 -0.5071  0.4905 -0.5124
    1SOL    MW410104   1.998   3.863   4.086 -0.4077  0.2255  0.0319
    1SOL     OW10105   1.350   4.216   4.167  0.1848 -0.1908 -0.1845
    1SOL    HW210106   1.339   4.218   4.072 -0.2283 -0.0393 -0.1382
    1SOL    HW310107   1.333   4.125   4.192 -3.2955  0.4627  0.1239
    1SOL    MW410108   1.346   4.205   4.158 -0.3289 -0.0844 -0.1373
    1SOL     OW10109   1.594   3.887   4.158 -0.0042 -0.7341 -0.0172
    1SOL    HW210110   1.621   3.802   4.190 -0.5543 -0.4718  1.1799
    1SOL    HW310111   1.673   3.940   4.160 -0.0405 -0.7051  0.9906
    1SOL    MW410112   1.608   3.883   4.162 -0.0817 -0.6959  0.2732
    1SOL     OW10113   2.469   2.784   4.160 -0.0652 -0.4357  0.1425
    1SOL    HW210114   2.449   2.877   4.156 -1.1540 -0.6893 -0.7063
    1SOL    HW310115   2.386   2.741   4.137  0.5529 -1.5948  0.0517
    1SOL    MW410116   2.455   2.790   4.157 -0.1271 -0.6225  0.0181
    1SOL     OW10117   2.426   0.005   4.147 -0.3629  0.0099 -0.1972
    1SOL    HW210118   2.428  -0.084   4.183  1.6107  0.2693  0.4024
    1SOL    HW310119   2.511   0.043   4.171 -0.9115  1.8379 -1.0142
    1SOL    MW410120   2.438  -0.002   4.155 -0.1750  0.2853 -0.2260
    1SOL     OW10121   4.238   1.835   4.492  0.1906 -0.1906  0.0878
    1SOL    HW210122   4.162   1.804   4.543 -2.7887  0.4294 -3.7092
    1SOL    HW310123   4.239   1.929   4.506 -0.2629 -0.0974 -0.4710
    1SOL    MW410124   4.228   1.843   4.500 -0.2627 -0.0964 -0.4873
    1SOL     OW10125   1.544   4.643   4.384  0.2857 -0.2576  0.3238
    1SOL    HW210126   1.540   4.553   4.354 -1.5658 -0.0196 -0.1920
    1SOL    HW310127   1.484   4.647   4.458  0.4966  0.5148  0.4688
    1SOL    MW410128   1.536   4.632   4.390  0.0691 -0.1240  0.2751
    1SOL     OW10129   2.433   0.829   4.105  0.0061 -0.4967  0.4306
    1SOL    HW210130   2.456   0.819   4.012 -0.0829  2.4950  0.0317
    1SOL    HW310131   2.514   0.857   4.147 -0.6561  1.2139  0.6458
    1SOL    MW410132   2.447   0.832   4.098 -0.0930  0.1237  0.4063
    1SOL     OW10133   3.617   2.915   4.599 -0.1611  0.3958 -0.0758
    1SOL    HW210134   3.609   2.999   4.554  1.1732 -0.5805 -2.2417
    1SOL    HW310135   3.711   2.906   4.616 -0.5343  0.3092  2.1385
    1SOL    MW410136   3.628   2.925   4.595 -0.0341  0.2556 -0.0701
    1SOL     OW10137   1.983   0.788   4.179 -0.1877 -0.4351  0.2872
    1SOL    HW210138   2.059   0.813   4.232 -0.5065 -0.3551  0.7061
    1SOL    HW310139   1.976   0.693   4.190 -1.3175 -0.1828  1.8020
    1SOL    MW410140   1.992   0.779   4.187 -0.3787 -0.3912  0.5422
    1SOL     OW10141   0.484   2.500   4.239 -0.2116 -0.2604  0.1857
    1SOL    HW210142   0.498   2.506   4.333 -0.6067 -1.9463  0.3693
    1SOL    HW310143   0.470   2.590   4.211 -2.2736  0.0528  2.0931
    1SOL    MW410144   0.484   2.513   4.248 -0.5358 -0.4416  0.4616
    1SOL     OW10145   0.254   1.243   4.215 -0.0621 -0.1601  0.0642
    1SOL    HW210146   0.226   1.322   4.169  0.2058 -0.3486 -0.4199
    1SOL    HW310147   0.344   1.229   4.187  0.3914  0.2001  1.2915
    1SOL    MW410148   0.262   1.252   4.205  0.0331 -0.1376  0.1626
    1SOL     OW10149   2.722   1.170   4.183  0.1974  0.3221 -0.0951
    1SOL    HW210150   2.719   1.077   4.204  1.3933  0.4682  0.7305
    1SOL    HW310151   2.717   1.173   4.088 -0.7030 -0.5378 -0.0916
    1SOL    MW410152   2.721   1.158   4.173  0.2365  0.2279  0.0148
    1SOL     OW10153   3.118   2.619   4.152  0.4171 -0.0812  0.1293
    1SOL    HW210154   3.046   2.627   4.214 -0.6805 -0.7291 -1.0382
    1SOL    HW310155   3.158   2.534   4.171  1.4959  0.6933  1.4103
    1SOL    MW410156   3.114   2.609   4.162  0.4146 -0.0646  0.1440
    1SOL     OW10157   0.433   4.225   4.211  0.0415 -0.2271 -0.2148
    1SOL    HW210158   0.454   4.239   4.119 -1.8943 -1.0785 -0.7978
    1SOL    HW310159   0.374   4.298   4.234  0.6578  0.0871  0.4073
    1SOL    MW410160   0.428   4.237   4.202 -0.1326 -0.2980 -0.2093
    1SOL     OW10161   1.499   1.951   4.476 -0.7977 -0.1478 -0.1783
    1SOL    HW210162   1.529   1.973   4.564 -1.2657 -1.2697  0.2772
    1SOL    HW310163   1.469   1.861   4.484 -2.1829  0.2206 -1.1541
    1SOL    MW410164   1.499   1.942   4.489 -1.0422 -0.2472 -0.2470
    1SOL     OW10165   2.683   1.410   4.569  0.1019  0.0826 -0.4550
    1SOL    HW210166   2.697   1.495   4.526 -0.9764 -0.0734 -1.1173
    1SOL    HW310167   2.771   1.374   4.580  0.4773  0.7287 -1.3084
    1SOL    MW410168   2.697   1.417   4.565  0.0091  0.1472 -0.6547
    1SOL     OW10169   2.915   1.347   4.259  0.3744  0.4099 -0.5948
    1SOL    HW210170   2.833   1.301   4.239  0.8091 -0.1615 -1.0666
    1SOL    HW310171   2.918   1.349   4.355  0.9973 -1.7400 -0.5500
    1SOL    MW410172   2.904   1.341   4.269  0.5143  0.0508 -0.6509
    1SOL     OW10173   2.668   2.078   4.710  0.0270  0.2347 -0.4685
    1SOL    HW210174   2.623   2.119   4.784 -1.7367 -2.0675 -0.2031
    1SOL    HW310175   2.616   2.104   4.633 -1.8986 -2.5068 -0.1512
    1SOL    MW410176   2.655   2.087   4.710 -0.4599 -0.4306 -0.3915
    1SOL     OW10177   0.040   2.461   4.291 -0.4597  0.5817  0.0033
    1SOL    HW210178   0.045   2.440   4.385 -0.5615 -1.2259 -0.3857
    1SOL    HW310179   0.114   2.416   4.252 -0.8575  0.7026 -0.8963
    1SOL    MW410180   0.050   2.452   4.298 -0.5256  0.3593 -0.1669
    1SOL     OW10181   4.017   3.212   4.256 -0.0497  0.3956 -0.1491
    1SOL    HW210182   4.096   3.172   4.220 -0.3790 -1.1315  0.7749
    1SOL    HW310183   4.019   3.302   4.224  1.5155  0.0791 -0.9986
    1SOL    MW410184   4.028   3.219   4.247  0.1135  0.1526 -0.1392
    1SOL     OW10185   1.826   2.682   4.132  0.3992 -0.0342  0.1394
    1SOL    HW210186   1.844   2.592   4.157 -0.0596  0.0131  0.6583
    1SOL    HW310187   1.806   2.678   4.039 -2.2439 -0.8483  0.7072
    1SOL    MW410188   1.826   2.670   4.123 -0.0099 -0.1357  0.2832
    1SOL     OW10189   0.863   2.796   4.492 -0.3000 -0.3931 -0.2923
    1SOL    HW210190   0.849   2.701   4.494  1.1325 -0.6015  0.9742
    1SOL    HW310191   0.829   2.823   4.407  0.3688 -2.2336 -1.1759
    1SOL    MW410192   0.857   2.787   4.481 -0.0228 -0.6633 -0.2427
    1SOL     OW10193   0.255   3.627   4.564  0.0475  0.2800  0.0711
    1SOL    HW210194   0.177   3.590   4.605 -0.0157  1.6237  1.1988
    1SOL    HW310195   0.235   3.625   4.470 -0.4827 -1.2945  0.2047
    1SOL    MW410196   0.242   3.622   4.557 -0.0308  0.2494  0.2375
    1SOL     OW10197   2.564   3.001   4.598  0.0728 -0.2563 -0.2991
    1SOL    HW210198   2.471   2.978   4.596  0.1048 -0.5459  1.2898
    1SOL    HW310199   2.603   2.940   4.661  1.2681  0.1537 -0.6248
    1SOL    MW410200   2.557   2.990   4.606  0.2346 -0.2401 -0.1321
    1SOL     OW10201   2.209   4.034   4.202  0.5345 -0.4010  0.5057
    1SOL    HW210202   2.279   3.969   4.199  0.2796 -0.7114  1.1523
    1SOL    HW310203   2.136   3.994   4.155  0.4368 -0.5050  0.7483
    1SOL    MW410204   2.209   4.020   4.195  0.4880 -0.4563  0.6232
    1SOL     OW10205   2.655   4.027   4.259 -0.9736  0.2212  0.2606
    1SOL    HW210206   2.572   3.979   4.252 -0.3080 -0.9448  0.2174
    1SOL    HW310207   2.702   3.983   4.330  0.2547 -0.1365 -0.7555
    1SOL    MW410208   2.650   4.015   4.267 -0.7236  0.0196  0.1206
    1SOL     OW10209   2.401   0.609   4.838  0.0434  0.5990  0.1934
    1SOL    HW210210   2.426   0.542   4.901  0.5941  0.3315 -0.2967
    1SOL    HW310211   2.389   0.560   4.756 -1.1408  0.8710  0.2031
    1SOL    MW410212   2.403   0.593   4.835 -0.0401  0.5996  0.1302
    1SOL     OW10213   2.655   0.138   4.239 -0.0548 -0.2602 -0.6505
    1SOL    HW210214   2.660   0.228   4.208 -0.3434 -0.9646 -2.8418
    1SOL    HW310215   2.739   0.099   4.214 -0.3513 -0.8801 -0.7075
    1SOL    MW410216   2.667   0.145   4.231 -0.1321 -0.4349 -0.9470
    1SOL     OW10217   2.483   3.817   4.547  0.1370 -0.3743 -0.3971
    1SOL    HW210218   2.393   3.816   4.579  0.7265  0.0664  1.3051
    1SOL    HW310219   2.507   3.724   4.541 -0.1157 -0.4746  0.0774
    1SOL    MW410220   2.474   3.804   4.550  0.1812 -0.3293 -0.1101
    1SOL     OW10221   2.649   0.392   4.096 -0.3010  0.0590 -0.0249
    1SOL    HW210222   2.568   0.440   4.111 -0.9148 -0.9740  0.0254
    1SOL    HW310223   2.667   0.404   4.003 -1.3824 -1.0154 -0.3938
    1SOL    MW410224   2.641   0.400   4.086 -0.5248 -0.2190 -0.0668
    1SOL     OW10225   0.676   4.314   4.311  0.1378  0.1343  0.1534
    1SOL    HW210226   0.593   4.277   4.283  0.0997  0.3105  0.0350
    1SOL    HW310227   0.682   4.293   4.404  0.7998 -1.4693 -0.2401
    1SOL    MW410228   0.666   4.307   4.320  0.2202 -0.0539  0.0858
    1SOL     OW10229   2.885   0.761   4.154 -0.6703 -0.2463  0.2291
    1SOL    HW210230   2.883   0.667   4.171  0.2662 -0.2551  0.3212
    1SOL    HW310231   2.900   0.768   4.059  0.5301 -0.1950  0.4161
    1SOL    MW410232   2.887   0.750   4.143 -0.3886 -0.2407  0.2656
    1SOL     OW10233   2.481   2.662   4.433  0.4813 -0.0754 -0.0412
    1SOL    HW210234   2.490   2.706   4.348  0.2654 -0.3960 -0.2347
    1SOL    HW310235   2.448   2.575   4.411  1.2576 -0.4642  0.3075
    1SOL    MW410236   2.478   2.656   4.419  0.5553 -0.1690 -0.0210
    1SOL     OW10237   2.662   4.481   4.485  0.4633 -0.4296  0.2495
    1SOL    HW210238   2.626   4.569   4.496 -0.7175 -0.7229 -1.1152
    1SOL    HW310239   2.590   4.422   4.509  1.3598 -1.0369  1.5087
    1SOL    MW410240   2.648   4.485   4.489  0.4258 -0.5484  0.2356
    1SOL     OW10241   2.230   3.438   4.527  0.0760  0.0995  0.0340
    1SOL    HW210242   2.166   3.367   4.522 -0.6478  0.7330  0.1538
    1SOL    HW310243   2.178   3.516   4.548  0.7361  0.8329 -0.9486
    1SOL    MW410244   2.215   3.439   4.529  0.0677  0.2801 -0.0796
    1SOL     OW10245   3.074   1.044   4.547 -0.0574 -0.6801  0.0667
    1SOL    HW210246   3.155   1.045   4.598 -0.1704 -0.1958  0.2300
    1SOL    HW310247   3.102   1.014   4.460  0.5571  0.9167 -0.3057
    1SOL    MW410248   3.089   1.040   4.542  0.0088 -0.4054  0.0391
    1SOL     OW10249   0.306   3.902   4.622 -0.3551 -0.1599 -0.2315
    1SOL    HW210250   0.328   3.931   4.534  2.4847  0.0418  0.4688
    1SOL    HW310251   0.279   3.811   4.611 -1.2250  0.2363 -1.4476
    1SOL    MW410252   0.306   3.894   4.609 -0.0952 -0.0808 -0.2999
    1SOL     OW10253   3.369   2.863   4.748  0.0259  0.1762 -0.0459
    1SOL    HW210254   3.459   2.864   4.715 -0.3394  1.2359 -1.0381
    1SOL    HW310255   3.330   2.785   4.710 -0.2497  1.1331 -1.7909
    1SOL    MW410256   3.375   2.853   4.739 -0.0587  0.4423 -0.4072
    1SOL     OW10257   2.958   2.045   3.774  0.0018 -0.1278  0.2540
    1SOL    HW210258   2.876   2.012   3.811  1.2224 -2.4059  0.9911
    1SOL    HW310259   2.962   2.136   3.804 -0.9199 -0.8028  2.5064
    1SOL    MW410260   2.948   2.053   3.783  0.0415 -0.5176  0.6487
    1SOL     OW10261   0.372   4.550   4.570 -0.2625 -0.2324 -0.8246
    1SOL    HW210262   0.282   4.550   4.538  0.1266 -0.8549 -1.9488
    1SOL    HW310263   0.425   4.540   4.491  0.7720 -0.5393 -0.0991
    1SOL    MW410264   0.367   4.549   4.555 -0.0747 -0.3548 -0.8774
    1SOL     OW10265   2.882   0.525   4.476 -0.3481 -0.0731 -0.4881
    1SOL    HW210266   2.910   0.610   4.509  0.2444 -0.0479 -1.0479
    1SOL    HW310267   2.931   0.462   4.529 -0.7877 -0.0718 -0.0732
    1SOL    MW410268   2.892   0.528   4.487 -0.3278 -0.0696 -0.5074
    1SOL     OW10269   4.336   2.942   4.547  0.1016  0.4151  0.0299
    1SOL    HW210270   4.266   2.956   4.610  0.8480  1.3088  0.6770
    1SOL    HW310271   4.291   2.927   4.464 -0.9498 -2.5352  1.0645
    1SOL    MW410272   4.321   2.942   4.544  0.0615  0.1440  0.2518
    1SOL     OW10273   2.247   1.273   4.670 -0.2947  0.1147  0.3641
    1SOL    HW210274   2.341   1.278   4.654 -0.5486  1.2229 -0.8325
    1SOL    HW310275   2.228   1.352   4.721 -0.7334  0.4096 -0.2496
    1SOL    MW410276   2.257   1.284   4.675 -0.3860  0.2999  0.1254
    1SOL     OW10277   0.299   3.161   4.496 -0.2042  0.1465 -0.0364
    1SOL    HW210278   0.381   3.200   4.525 -0.9982  1.5257  0.4152
    1SOL    HW310279   0.315   3.067   4.496  0.7998  0.2998  1.8301
    1SOL    MW410280   0.312   3.154   4.500 -0.1765  0.3488  0.2694
    1SOL     OW10281   2.723   2.838   4.779 -0.2511 -0.1425  0.3268
    1SOL    HW210282   2.712   2.751   4.740  0.3070 -0.0535 -0.0412
    1SOL    HW310283   2.700   2.827   4.871 -0.4550 -0.6190  0.2159
    1SOL    MW410284   2.719   2.825   4.786 -0.2046 -0.1938  0.2632
    1SOL     OW10285   2.903   3.651   4.229  0.1775  0.5538  0.1974
    1SOL    HW210286   2.914   3.683   4.319 -0.2495  0.4729  0.2803
    1SOL    HW310287   2.904   3.729   4.175  1.2433  0.5449  0.1917
    1SOL    MW410288   2.904   3.665   4.234  0.2618  0.5419  0.2074
    1SOL     OW10289   2.634   3.252   4.226 -0.0689 -0.2117 -0.7023
    1SOL    HW210290   2.640   3.339   4.186  1.6208 -0.9176 -2.0750
    1SOL    HW310291   2.720   3.213   4.210  0.5861 -0.6598  3.3787
    1SOL    MW410292   2.646   3.258   4.219  0.2406 -0.3641 -0.3452
    1SOL     OW10293   2.865   3.918   4.111 -0.1193 -0.4111 -0.1533
    1SOL    HW210294   2.797   3.970   4.153 -0.3406 -0.9415  0.1490
    1SOL    HW310295   2.947   3.953   4.145 -0.2158  0.5790 -0.9175
    1SOL    MW410296   2.866   3.929   4.121 -0.1612 -0.3502 -0.2141
    1SOL     OW10297   2.461   4.399   4.211  0.2358  0.1226  0.3024
    1SOL    HW210298   2.463   4.374   4.303  1.4764  3.0650  1.1219
    1SOL    HW310299   2.536   4.354   4.172  0.1975 -0.4712  0.9151
    1SOL    MW410300   2.471   4.390   4.218  0.3943  0.4320  0.4921
    1SOL     OW10301   2.437   3.852   4.174 -0.4662 -0.1991 -0.0930
    1SOL    HW210302   2.449   3.838   4.080 -1.5017  0.4405 -0.3272
    1SOL    HW310303   2.451   3.765   4.213 -0.4336 -0.5483 -0.8775
    1SOL    MW410304   2.440   3.838   4.167 -0.5984 -0.1607 -0.2275
    1SOL     OW10305   3.046   4.338   4.386 -0.0927  0.3891  0.3204
    1SOL    HW210306   3.093   4.341   4.303 -0.2260 -0.8899  0.1810
    1SOL    HW310307   3.090   4.268   4.436 -0.7476  0.3547  0.8565
    1SOL    MW410308   3.058   4.329   4.382 -0.1967  0.2155  0.3724
    1SOL     OW10309   3.360   4.664   4.137  0.1789 -0.0128 -1.0076
    1SOL    HW210310   3.438   4.691   4.186 -0.9809  2.5445 -0.4843
    1SOL    HW310311   3.288   4.711   4.178 -1.4027 -0.9477 -2.6314
    1SOL    MW410312   3.361   4.674   4.149 -0.1826  0.2007 -1.1530
    1SOL     OW10313   1.348   1.651   4.229  0.5415  0.1792  0.1354
    1SOL    HW210314   1.271   1.595   4.218  0.3928  0.4171 -0.0360
    1SOL    HW310315   1.353   1.665   4.323  0.7919 -0.4205  0.2126
    1SOL    MW410316   1.338   1.645   4.240  0.5549  0.1314  0.1230
    1SOL     OW10317   2.887   0.484   4.205  0.4562  0.1981  0.2464
    1SOL    HW210318   2.801   0.445   4.190  0.3829  0.7580 -0.8659
    1SOL    HW310319   2.898   0.482   4.300 -1.0778  0.7104  0.4581
    1SOL    MW410320   2.877   0.479   4.215  0.2444  0.3396  0.1278
    1SOL     OW10321   3.313   0.420   4.274 -0.4330 -0.8215 -0.5007
    1SOL    HW210322   3.330   0.391   4.364 -0.3738  0.7109  0.0038
    1SOL    HW310323   3.398   0.418   4.231 -0.2120 -0.2173 -0.1022
    1SOL    MW410324   3.326   0.416   4.280 -0.3963 -0.5397 -0.3824
    1SOL     OW10325   2.567   0.081   4.506 -0.2578 -0.0207  0.5019
    1SOL    HW210326   2.482   0.121   4.524  0.3706  2.0847 -1.0079
    1SOL    HW310327   2.589   0.110   4.418  1.2903 -1.9062  0.2265
    1SOL    MW410328   2.559   0.090   4.497  0.0293  0.0083  0.2666
    1SOL     OW10329   4.177   3.613   4.516  0.3138  0.3501 -0.4334
    1SOL    HW210330   4.233   3.689   4.530  0.1619  0.3564  0.1640
    1SOL    HW310331   4.228   3.539   4.547  0.1077  0.3198 -0.1675
    1SOL    MW410332   4.191   3.613   4.522  0.2666  0.3469 -0.3190
    1SOL     OW10333   3.106   0.921   4.287 -0.2064  0.3898 -0.4407
    1SOL    HW210334   3.033   0.868   4.255 -0.7681  0.7329  0.2418
    1SOL    HW310335   3.110   0.995   4.227  1.0311 -0.7606 -1.8155
    1SOL    MW410336   3.097   0.924   4.275 -0.1171  0.2834 -0.5322
    1SOL     OW10337   2.306   0.195   4.536  0.4317  0.4068  0.0954
    1SOL    HW210338   2.231   0.166   4.588  0.5979  0.7711  0.5470
    1SOL    HW310339   2.307   0.290   4.546  0.2881  0.5138 -0.8315
    1SOL    MW410340   2.296   0.204   4.544  0.4349  0.4690  0.0329
    1SOL     OW10341   2.756   2.947   4.394  0.6398  0.0042 -0.2851
    1SOL    HW210342   2.671   2.982   4.422  1.0747  1.2797 -0.5160
    1SOL    HW310343   2.790   3.013   4.333  1.6620 -0.6438 -0.4243
    1SOL    MW410344   2.749   2.961   4.390  0.8321  0.0870 -0.3338
    1SOL     OW10345   2.460   1.546   4.114 -0.0294 -0.4219 -0.0057
    1SOL    HW210346   2.537   1.595   4.141 -0.0699  0.1102 -0.8313
    1SOL    HW310347   2.460   1.552   4.018  0.1174 -2.2452 -0.1537
    1SOL    MW410348   2.470   1.553   4.105 -0.0153 -0.5922 -0.1340
    1SOL     OW10349   2.817   0.110   4.604  0.0783 -0.5473  0.0126
    1SOL    HW210350   2.826   0.015   4.616  0.4812 -0.6248 -0.8610
    1SOL    HW310351   2.731   0.121   4.564 -0.3757 -0.4564  0.9834
    1SOL    MW410352   2.807   0.099   4.601  0.0718 -0.5456  0.0253
    1SOL     OW10353   2.454   2.247   4.090 -0.0582  0.3049 -0.4448
    1SOL    HW210354   2.434   2.156   4.111 -0.4520  0.6075  0.4966
    1SOL    HW310355   2.387   2.298   4.135  1.0243  1.1524  0.2238
    1SOL    MW410356   2.443   2.242   4.099  0.0327  0.4568 -0.2322
    1SOL     OW10357   3.452   0.821   4.513 -0.2473  0.4489 -0.5136
    1SOL    HW210358   3.496   0.821   4.428  0.5560 -0.9508 -0.1117
    1SOL    HW310359   3.495   0.751   4.562 -1.4120  0.5598  0.6845
    1SOL    MW410360   3.464   0.812   4.509 -0.2952  0.2788 -0.3028
    1SOL     OW10361   3.215   1.653   4.480 -0.3770 -0.1790  0.0033
    1SOL    HW210362   3.224   1.583   4.545 -1.3542  0.5677  0.9599
    1SOL    HW310363   3.256   1.729   4.521 -2.0228  0.6041  0.2449
    1SOL    MW410364   3.222   1.654   4.494 -0.7234  0.0228  0.1607
    1SOL     OW10365   3.463   2.295   4.160  0.4535 -0.2220  0.1213
    1SOL    HW210366   3.370   2.312   4.176  0.1280 -0.7662 -1.1429
    1SOL    HW310367   3.467   2.263   4.070  1.7171 -1.4002  0.5740
    1SOL    MW410368   3.451   2.293   4.150  0.5772 -0.4494  0.0143
    1SOL     OW10369   2.252   4.273   4.092  0.1400 -0.2564  0.1705
    1SOL    HW210370   2.243   4.181   4.118  1.3479 -1.0334 -2.0855
    1SOL    HW310371   2.319   4.308   4.151  1.6886 -1.5783 -0.7627
    1SOL    MW410372   2.259   4.265   4.104  0.5038 -0.5331 -0.2503
    1SOL     OW10373   3.357   3.087   4.166 -0.0101  0.2711 -0.0706
    1SOL    HW210374   3.286   3.144   4.196  0.0530  0.6111 -0.5736
    1SOL    HW310375   3.343   3.005   4.214  0.8425  1.2318  1.8577
    1SOL    MW410376   3.346   3.084   4.176  0.1106  0.4430  0.1178
    1SOL     OW10377   2.439   3.071   4.149 -0.2599  0.1064 -0.1646
    1SOL    HW210378   2.513   3.124   4.179  0.8875 -1.5314 -0.0615
    1SOL    HW310379   2.362   3.123   4.173  0.8244  1.6203  0.1384
    1SOL    MW410380   2.438   3.085   4.156  0.0346  0.0904 -0.1106
    1SOL     OW10381   3.380   3.679   4.269  0.4648 -0.0112 -0.4788
    1SOL    HW210382   3.299   3.631   4.254  0.9454 -1.5237  1.5770
    1SOL    HW310383   3.381   3.696   4.363  1.9889  0.9976 -0.6494
    1SOL    MW410384   3.370   3.675   4.280  0.7293 -0.0777 -0.2303
    1SOL     OW10385   3.572   3.511   4.185  0.3810  0.2168  0.5021
    1SOL    HW210386   3.575   3.421   4.217 -0.0158  0.3383  0.8926
    1SOL    HW310387   3.497   3.550   4.231 -0.6190  0.2023 -1.0749
    1SOL    MW410388   3.562   3.505   4.195  0.1967  0.2308  0.3452
    1SOL     OW10389   3.298   3.907   4.136 -0.0337 -0.5655 -0.2048
    1SOL    HW210390   3.318   3.822   4.175  1.4428 -0.3656 -0.4805
    1SOL    HW310391   3.323   3.898   4.044 -0.0158  0.1053 -0.2693
    1SOL    MW410392   3.304   3.895   4.129  0.1636 -0.4504 -0.2499
    1SOL     OW10393   4.474   2.730   4.178  0.0008  0.2396 -0.5686
    1SOL    HW210394   4.416   2.785   4.230 -0.5337  0.2468 -1.1608
    1SOL    HW310395   4.481   2.648   4.227  1.1265  0.9603  0.5244
    1SOL    MW410396   4.468   2.726   4.191  0.0782  0.3357 -0.5026
    1SOL     OW10397   4.483   0.876   4.242  0.0691 -0.3804 -0.3047
    1SOL    HW210398   4.476   0.891   4.336  0.8482  0.0731 -0.3126
    1SOL    HW310399   4.505   0.962   4.206  2.3301 -1.0519 -0.6141
    1SOL    MW410400   4.485   0.889   4.249  0.4706 -0.4092 -0.3467
    1SOL     OW10401   3.602   4.264   4.147  0.3484 -0.2712  0.3395
    1SOL    HW210402   3.529   4.321   4.171 -0.7657 -1.8777  0.9461
    1SOL    HW310403   3.587   4.184   4.199  1.8974 -1.0617 -0.4027
    1SOL    MW410404   3.590   4.261   4.157  0.4058 -0.5865  0.3219
    1SOL     OW10405   3.827   0.027   4.179  0.3622 -0.0435 -0.4856
    1SOL    HW210406   3.835  -0.066   4.200  2.0032 -0.0949 -1.2527
    1SOL    HW310407   3.817   0.029   4.083  0.1197  0.5668 -0.4528
    1SOL    MW410408   3.827   0.015   4.169  0.5469  0.0302 -0.5827
    1SOL     OW10409   2.193   1.859   4.093 -0.2229 -0.0930 -0.4658
    1SOL    HW210410   2.223   1.865   4.002 -0.6192  1.0828 -0.5285
    1SOL    HW310411   2.141   1.938   4.107 -0.8500 -0.6612  0.5432
    1SOL    MW410412   2.190   1.870   4.083 -0.3583 -0.0129 -0.3409
    1SOL     OW10413   3.570   0.334   4.157  0.1783 -0.0243 -0.2519
    1SOL    HW210414   3.658   0.363   4.179  0.5811 -0.8594 -0.7083
    1SOL    HW310415   3.559   0.357   4.065  0.3438 -0.8931 -0.5013
    1SOL    MW410416   3.580   0.341   4.148  0.2532 -0.2491 -0.3452
    1SOL     OW10417   4.048   0.346   4.102  0.1665 -0.4041  0.5344
    1SOL    HW210418   4.061   0.275   4.165  0.4727 -0.8517 -0.0234
    1SOL    HW310419   3.965   0.386   4.127  0.1046 -0.8168  0.9943
    1SOL    MW410420   4.039   0.342   4.114  0.1988 -0.5176  0.5212
    1SOL     OW10421   1.519   0.277   4.630  0.6325  0.7641  0.2859
    1SOL    HW210422   1.501   0.348   4.570  1.5483  0.1927 -0.6729
    1SOL    HW310423   1.611   0.288   4.655  0.8500 -0.1940 -0.0437
    1SOL    MW410424   1.529   0.288   4.626  0.7820  0.5623  0.1159
    1SOL     OW10425   2.504   4.245   4.457  0.2707  0.0251  0.6324
    1SOL    HW210426   2.417   4.206   4.463 -0.1840  1.0551  0.8377
    1SOL    HW310427   2.562   4.171   4.441 -0.5444 -0.7694  1.2833
    1SOL    MW410428   2.500   4.231   4.456  0.1032  0.0563  0.7453
    1SOL     OW10429   2.088   2.157   4.124 -0.0228  0.4024 -0.4770
    1SOL    HW210430   2.113   2.236   4.076 -2.2155  1.9029  0.7848
    1SOL    HW310431   2.135   2.163   4.207 -0.6861  0.7207 -0.1203
    1SOL    MW410432   2.097   2.168   4.128 -0.3996  0.6423 -0.2632
    1SOL     OW10433   4.319   2.107   4.539 -0.1020  0.0238 -0.0490
    1SOL    HW210434   4.399   2.057   4.554  0.5520  1.0878 -0.0023
    1SOL    HW310435   4.322   2.178   4.603  0.1573  1.5499 -1.7253
    1SOL    MW410436   4.330   2.110   4.550  0.0186  0.3655 -0.2642
    1SOL     OW10437   4.288   2.408   4.169 -0.2088  0.7524 -0.1568
    1SOL    HW210438   4.271   2.320   4.204 -0.8412  1.0313  0.2516
    1SOL    HW310439   4.361   2.441   4.221 -0.3547  0.6902  0.0916
    1SOL    MW410440   4.295   2.401   4.180 -0.3114  0.7811 -0.0701
    1SOL     OW10441   3.361   1.523   4.155 -0.4058 -0.8545  0.0740
    1SOL    HW210442   3.286   1.576   4.183 -0.3562 -0.7833  0.0727
    1SOL    HW310443   3.367   1.539   4.061 -0.5364 -1.0472  0.0334
    1SOL    MW410444   3.352   1.532   4.146 -0.4168 -0.8707  0.0691
    1SOL     OW10445   3.673   1.897   4.165  0.3478 -0.1664  0.4711
    1SOL    HW210446   3.657   1.810   4.202 -0.0325  0.1744  1.1272
    1SOL    HW310447   3.622   1.956   4.221 -0.4710  0.3294 -0.7765
    1SOL    MW410448   3.664   1.893   4.177  0.1895 -0.0561  0.3934
    1SOL     OW10449   1.919   1.530   4.586 -0.1780 -0.4185 -0.0240
    1SOL    HW210450   2.012   1.529   4.565 -0.6047 -1.0295 -2.0969
    1SOL    HW310451   1.887   1.612   4.548 -0.4841 -0.2430  0.6166
    1SOL    MW410452   1.927   1.540   4.578 -0.2747 -0.4759 -0.2136
    1SOL     OW10453   0.913   4.440   4.573 -0.4226 -0.2136 -0.2248
    1SOL    HW210454   0.848   4.370   4.575  0.3533 -1.0056 -1.7755
    1SOL    HW310455   0.864   4.520   4.555 -1.2175 -0.4682  0.7872
    1SOL    MW410456   0.898   4.441   4.571 -0.4250 -0.3519 -0.2956
    1SOL     OW10457   3.679   2.499   4.490 -0.0391 -0.1630  0.2573
    1SOL    HW210458   3.622   2.576   4.500  0.1249  0.0941 -0.7119
    1SOL    HW310459   3.669   2.474   4.398  1.5248 -0.0143  0.0307
    1SOL    MW410460   3.670   2.506   4.479  0.1891 -0.1097  0.0992
    1SOL     OW10461   3.875   2.353   4.101  0.6583 -0.1487 -0.1976
    1SOL    HW210462   3.877   2.363   4.005  0.8443 -0.7837 -0.2632
    1SOL    HW310463   3.799   2.405   4.129  0.6571  0.1150 -0.6810
    1SOL    MW410464   3.865   2.361   4.092  0.6828 -0.1976 -0.2699
    1SOL     OW10465   1.812   4.057   4.494  0.3903 -0.0953 -0.1773
    1SOL    HW210466   1.725   4.098   4.496  1.0519  1.3449  0.1763
    1SOL    HW310467   1.873   4.131   4.486  1.5968 -1.0659 -0.1044
    1SOL    MW410468   1.809   4.072   4.493  0.6368 -0.0343 -0.1211
    1SOL     OW10469   3.802   3.084   4.152 -0.0150  0.1055  0.0698
    1SOL    HW210470   3.878   3.138   4.172 -1.2103  1.8677  0.0577
    1SOL    HW310471   3.793   3.088   4.057  0.4277 -0.8864 -0.0181
    1SOL    MW410472   3.811   3.092   4.142 -0.1142  0.2072  0.0567
    1SOL     OW10473   3.822   4.409   4.263  0.0429 -0.0268 -0.1855
    1SOL    HW210474   3.742   4.363   4.237 -2.0442  2.6298  1.2442
    1SOL    HW310475   3.819   4.409   4.359  2.2083 -0.6100 -0.0987
    1SOL    MW410476   3.811   4.403   4.272  0.0532  0.2470  0.0153
    1SOL     OW10477   3.587   3.239   4.237 -0.3056 -0.3153  0.0560
    1SOL    HW210478   3.510   3.189   4.210  0.3154 -0.8935 -0.6779
    1SOL    HW310479   3.661   3.190   4.201  0.5028 -0.5353  1.9371
    1SOL    MW410480   3.587   3.226   4.229 -0.1171 -0.4206  0.2079
    1SOL     OW10481   1.169   2.526   4.525  0.5196  0.0844  0.0759
    1SOL    HW210482   1.188   2.453   4.584 -0.9002 -0.5624 -0.2321
    1SOL    HW310483   1.216   2.504   4.444 -0.4683 -0.8711 -0.2616
    1SOL    MW410484   1.177   2.513   4.522  0.2019 -0.1271 -0.0091
    1SOL     OW10485   4.084   3.031   4.674 -0.1176 -0.2208  0.1957
    1SOL    HW210486   4.014   2.981   4.632  0.5347  0.0907 -1.2679
    1SOL    HW310487   4.064   3.025   4.768 -1.8496 -0.5145 -0.1704
    1SOL    MW410488   4.072   3.023   4.681 -0.2599 -0.2186 -0.0458
    1SOL     OW10489   1.264   3.416   4.117 -0.1542 -0.1084 -0.0981
    1SOL    HW210490   1.296   3.440   4.030  0.0427 -2.6938 -0.7557
    1SOL    HW310491   1.267   3.321   4.118  0.0171 -0.0882  2.8292
    1SOL    MW410492   1.269   3.407   4.105 -0.1057 -0.4470  0.2012
    1SOL     OW10493   3.168   4.310   4.127 -0.1754 -0.1302 -0.5206
    1SOL    HW210494   3.165   4.218   4.154 -0.2997 -0.6372 -2.1476
    1SOL    HW310495   3.257   4.338   4.146 -0.0799 -0.6459 -0.1849
    1SOL    MW410496   3.179   4.302   4.133 -0.1793 -0.2651 -0.6909
    1SOL     OW10497   4.282   1.507   4.625  0.0006  0.0843  0.0117
    1SOL    HW210498   4.375   1.484   4.636 -0.6283 -2.0997  1.0360
    1SOL    HW310499   4.284   1.599   4.599  2.4537  0.1469  0.2115
    1SOL    MW410500   4.295   1.516   4.623  0.2413 -0.1956  0.1731
    1SOL     OW10501   4.441   4.101   4.531 -0.0274  0.6003 -0.1257
    1SOL    HW210502   4.474   4.076   4.445 -0.6706 -0.4324 -0.0850
    1SOL    HW310503   4.370   4.163   4.512  0.2740  0.8853 -0.3147
    1SOL    MW410504   4.436   4.106   4.517 -0.0730  0.5016 -0.1454
    1SOL     OW10505   4.273   2.165   4.277 -0.4017  0.0849 -0.0056
    1SOL    HW210506   4.182   2.137   4.272 -0.0560 -1.1066  0.1452
    1SOL    HW310507   4.298   2.151   4.369  0.4939 -1.4694 -0.4600
    1SOL    MW410508   4.264   2.159   4.289 -0.2379 -0.2773 -0.0458
    1SOL     OW10509   3.222   4.565   4.638 -0.3107 -0.0225  0.3498
    1SOL    HW210510   3.218   4.656   4.609  0.4930  0.5566  2.0226
    1SOL    HW310511   3.131   4.541   4.654 -0.5854  0.2759 -0.7375
    1SOL    MW410512   3.210   4.574   4.636 -0.2408  0.0935  0.4268
    1SOL     OW10513   0.739   1.003   4.552 -0.2723 -0.1195  0.0780
    1SOL    HW210514   0.740   1.045   4.638 -0.6241 -0.8623  0.4535
    1SOL    HW310515   0.649   0.972   4.542 -0.3249  0.2866 -0.7155
    1SOL    MW410516   0.727   1.004   4.562 -0.3256 -0.1639  0.0224
    1SOL     OW10517   4.457   0.417   4.783  0.0283  0.4642  0.2133
    1SOL    HW210518   4.449   0.483   4.714  1.0323  0.5808  0.2031
    1SOL    HW310519   4.530   0.362   4.755 -1.0043 -0.8528  0.0674
    1SOL    MW410520   4.466   0.418   4.770  0.0243  0.3058  0.1931
    1SOL     OW10521   4.302   4.574   4.810  0.3786 -0.4219 -0.0951
    1SOL    HW210522   4.361   4.502   4.790  0.9606  0.5065 -1.8582
    1SOL    HW310523   4.355   4.653   4.797 -0.5411  0.3455  0.7643
    1SOL    MW410524   4.317   4.575   4.805  0.3343 -0.1979 -0.2141
    1SOL     OW10525   4.108   1.141   4.167  0.0701 -0.3213 -0.0078
    1SOL    HW210526   4.022   1.183   4.165  0.4800  0.5702  0.6011
    1SOL    HW310527   4.089   1.047   4.175 -0.8820 -0.3836 -2.6065
    1SOL    MW410528   4.094   1.134   4.168 -0.0024 -0.2120 -0.2704
    1SOL     OW10529   2.913   0.812   4.545 -0.3352  0.2511 -0.0337
    1SOL    HW210530   2.950   0.899   4.561 -1.1795  0.7793 -0.9034
    1SOL    HW310531   2.818   0.826   4.542 -0.4416 -0.5674 -0.9440
    1SOL    MW410532   2.905   0.825   4.547 -0.4606  0.2127 -0.2685
    1SOL     OW10533   1.434   1.816   4.818  0.5831  0.4267  0.2505
    1SOL    HW210534   1.487   1.739   4.840  1.8546  0.9817 -0.7710
    1SOL    HW310535   1.498   1.886   4.807 -0.4164  1.2169 -0.6037
    1SOL    MW410536   1.450   1.815   4.820  0.6189  0.6042  0.0029
    1SOL     OW10537   1.915   0.576   4.470  0.2932  0.3813 -0.3485
    1SOL    HW210538   2.007   0.584   4.496  0.4989 -0.1293 -0.9158
    1SOL    HW310539   1.919   0.558   4.376 -0.4256  1.6248 -0.6286
    1SOL    MW410540   1.928   0.575   4.461  0.2255  0.4780 -0.4606
    1SOL     OW10541   1.157   4.332   4.515 -0.2007  0.1871 -0.1308
    1SOL    HW210542   1.152   4.262   4.581 -1.1692 -1.1078 -1.5274
    1SOL    HW310543   1.083   4.389   4.535  0.0885  0.3374  0.5078
    1SOL    MW410544   1.147   4.330   4.527 -0.2903  0.0362 -0.2308
    1SOL     OW10545   3.815   0.476   4.181  0.3263  0.1807 -0.5548
    1SOL    HW210546   3.807   0.562   4.139 -0.0414 -0.1107 -1.0873
    1SOL    HW310547   3.824   0.496   4.274  0.8927  0.8227 -0.7406
    1SOL    MW410548   3.815   0.490   4.188  0.3526  0.2270 -0.6490
    1SOL     OW10549   3.656   2.487   4.220 -0.0692 -0.1069  0.2020
    1SOL    HW210550   3.627   2.575   4.198  1.0345  0.0293 -0.7234
    1SOL    HW310551   3.579   2.432   4.204 -0.6889  0.6412  0.5562
    1SOL    MW410552   3.642   2.491   4.215 -0.0055  0.0100  0.1264
    1SOL     OW10553   4.028   3.482   4.133  0.7790 -0.1823  0.0779
    1SOL    HW210554   4.031   3.496   4.039 -0.6962 -0.2697  0.0012
    1SOL    HW310555   4.110   3.519   4.166  0.9080  0.6272 -1.1308
    1SOL    MW410556   4.039   3.489   4.125  0.6008 -0.0870 -0.0916
    1SOL     OW10557   4.039   2.518   4.243  0.3991  0.1678  0.2471
    1SOL    HW210558   3.988   2.453   4.194 -0.2883  0.4701  0.5459
    1SOL    HW310559   4.130   2.497   4.223  0.1243  0.7000 -1.7085
    1SOL    MW410560   4.044   2.506   4.234  0.2718  0.2778  0.0286
    1SOL     OW10561   1.551   3.364   4.498  0.1286 -0.3809  0.3115
    1SOL    HW210562   1.559   3.419   4.575  0.7197 -1.0348  0.7257
    1SOL    HW310563   1.633   3.315   4.495 -0.1191 -0.7597 -0.4184
    1SOL    MW410564   1.563   3.364   4.507  0.1739 -0.5171  0.2694
    1SOL     OW10565   3.438   0.350   4.525  0.0239  0.2675  0.4731
    1SOL    HW210566   3.484   0.280   4.573  0.8979  0.7408  0.3356
    1SOL    HW310567   3.467   0.431   4.567 -0.5707  0.5832  0.2797
    1SOL    MW410568   3.448   0.351   4.537  0.0608  0.3716  0.4292
    1SOL     OW10569   3.821   3.641   4.198 -0.0281 -0.0227  0.3920
    1SOL    HW210570   3.744   3.586   4.181 -0.4583  0.4970  0.6683
    1SOL    HW310571   3.896   3.586   4.172 -0.5053 -0.4248 -0.1293
    1SOL    MW410572   3.821   3.626   4.192 -0.1478 -0.0072  0.3591
    1SOL     OW10573   2.152   1.234   4.413 -0.0288 -0.1241  0.0550
    1SOL    HW210574   2.200   1.291   4.354  0.4845 -0.3200  0.2815
    1SOL    HW310575   2.203   1.234   4.494  0.5771 -1.7480 -0.2943
    1SOL    MW410576   2.165   1.241   4.416  0.1190 -0.3643  0.0386
    1SOL     OW10577   4.253   3.609   4.210 -0.1163  0.3998 -0.1586
    1SOL    HW210578   4.340   3.569   4.202 -0.3051 -0.2011  0.7279
    1SOL    HW310579   4.250   3.643   4.300 -0.2238  1.7805 -0.6791
    1SOL    MW410580   4.264   3.608   4.221 -0.1554  0.5026 -0.1106
    1SOL     OW10581   0.398   3.987   4.356  0.3300 -0.2638 -0.0589
    1SOL    HW210582   0.400   4.068   4.305  0.8707 -1.0332 -1.2971
    1SOL    HW310583   0.490   3.969   4.376  0.3732 -1.4671 -1.2604
    1SOL    MW410584   0.411   3.995   4.352  0.4070 -0.5240 -0.3810
    1SOL     OW10585   1.171   0.436   4.495 -0.8890 -0.7388 -0.3488
    1SOL    HW210586   1.150   0.448   4.402 -1.4908 -0.2456 -0.1474
    1SOL    HW310587   1.146   0.346   4.513 -1.2467 -0.6794 -0.5372
    1SOL    MW410588   1.165   0.426   4.485 -1.0157 -0.6659 -0.3471
    1SOL     OW10589   3.776   3.920   4.164 -0.1169 -0.3785 -0.2437
    1SOL    HW210590   3.862   3.962   4.173 -0.3034 -0.0714  0.0895
    1SOL    HW310591   3.793   3.827   4.183  0.2153 -0.3872 -0.5678
    1SOL    MW410592   3.790   3.913   4.168 -0.0975 -0.3393 -0.2427
    1SOL     OW10593   2.929   4.475   4.602  0.2977 -0.0116  0.2228
    1SOL    HW210594   2.980   4.428   4.536  0.0098  0.2508 -0.1928
    1SOL    HW310595   2.838   4.465   4.573  0.2191  0.6282  0.2407
    1SOL    MW410596   2.924   4.467   4.590  0.2491  0.1073  0.1702
    1SOL     OW10597   3.901   2.876   4.562 -0.1976  0.1790 -0.0517
    1SOL    HW210598   3.873   2.893   4.472 -1.9561  1.2964  0.6728
    1SOL    HW310599   3.919   2.782   4.565  0.0457  0.1638 -1.6085
    1SOL    MW410600   3.900   2.866   4.551 -0.3974  0.3242 -0.1616
    1SOL     OW10601   2.250   1.535   4.768  0.0451 -0.5908  0.2008
    1SOL    HW210602   2.344   1.525   4.786 -0.0284  0.4363  1.1778
    1SOL    HW310603   2.245   1.536   4.672  1.3529  2.0596  0.1252
    1SOL    MW410604   2.262   1.534   4.757  0.2077 -0.1056  0.3195
    1SOL     OW10605   4.003   2.140   4.254  0.3039 -0.1906  0.1347
    1SOL    HW210606   3.964   2.218   4.214  2.2524 -0.2257 -1.9157
    1SOL    HW310607   3.965   2.067   4.206  0.3962 -0.3843  0.3581
    1SOL    MW410608   3.993   2.141   4.243  0.5732 -0.2208 -0.1063
    1SOL     OW10609   4.061   0.124   4.285  0.4303  0.2252 -0.2947
    1SOL    HW210610   4.059   0.132   4.380  0.5049 -0.2121 -0.2569
    1SOL    HW310611   3.974   0.094   4.260  0.3887  0.4045 -0.3740
    1SOL    MW410612   4.049   0.121   4.294  0.4349  0.1912 -0.2999
    1SOL     OW10613   1.143   2.813   4.481  0.7126  0.0936 -0.0612
    1SOL    HW210614   1.157   2.728   4.523  0.2369 -0.2053 -0.4979
    1SOL    HW310615   1.048   2.828   4.487  0.4400 -0.5925 -2.2145
    1SOL    MW410616   1.132   2.804   4.487  0.6137 -0.0362 -0.4029
    1SOL     OW10617   1.754   0.808   4.524 -0.0145  0.2060  0.0914
    1SOL    HW210618   1.793   0.722   4.510 -0.7760 -0.0683 -0.4321
    1SOL    HW310619   1.828   0.866   4.538  0.5913 -0.2882 -0.9705
    1SOL    MW410620   1.769   0.804   4.524 -0.0350  0.1046 -0.1173
    1SOL     OW10621   1.816   2.953   4.560 -0.1219  0.1265  0.2696
    1SOL    HW210622   1.834   2.910   4.644 -1.2599  1.2305  1.1135
    1SOL    HW310623   1.900   2.955   4.515  0.1460 -2.1042  0.6125
    1SOL    MW410624   1.829   2.947   4.566 -0.2367 -0.0222  0.4268
    1SOL     OW10625   0.161   1.485   4.124  0.2704 -0.1429  0.1799
    1SOL    HW210626   0.092   1.488   4.190  0.2737 -1.4822  0.2655
    1SOL    HW310627   0.220   1.556   4.148 -0.0046 -0.2851  1.3161
    1SOL    MW410628   0.160   1.495   4.136  0.2346 -0.3384  0.3414
    1SOL     OW10629   3.982   4.173   4.473  0.3940  0.2612 -0.2668
    1SOL    HW210630   3.932   4.242   4.518  0.2017  0.5102 -0.8636
    1SOL    HW310631   3.937   4.092   4.495  0.7710  0.2918  0.6557
    1SOL    MW410632   3.970   4.172   4.482  0.4182  0.2975 -0.2236
    1SOL     OW10633   1.080   0.809   4.766 -0.2261 -0.2633  0.0175
    1SOL    HW210634   1.048   0.801   4.856  0.5563  0.2574  0.3528
    1SOL    HW310635   1.050   0.729   4.723 -1.6941  0.0764  0.3911
    1SOL    MW410636   1.072   0.797   4.773 -0.3165 -0.1498  0.1106
    1SOL     OW10637   0.693   1.323   4.488 -0.1064 -0.2095  0.2535
    1SOL    HW210638   0.777   1.358   4.517 -0.4367  0.4798  0.4027
    1SOL    HW310639   0.685   1.239   4.533  1.2122 -1.0055 -0.9805
    1SOL    MW410640   0.703   1.317   4.498  0.0240 -0.2235  0.1101
    1SOL     OW10641   4.480   2.038   4.146 -0.0935  0.3191  0.1817
    1SOL    HW210642   4.409   2.086   4.188 -1.8755 -1.2825 -0.9112
    1SOL    HW310643   4.470   1.948   4.177  0.1965 -0.3342 -1.5830
    1SOL    MW410644   4.469   2.033   4.156 -0.2904  0.0215 -0.1955
    1SOL     OW10645   2.496   3.510   4.532 -0.2658  0.0460 -0.0002
    1SOL    HW210646   2.548   3.430   4.532  1.0638  0.8910 -0.7631
    1SOL    HW310647   2.406   3.480   4.543  0.2854 -1.4995  0.4330
    1SOL    MW410648   2.491   3.496   4.534 -0.0176 -0.0465 -0.0434
    1SOL     OW10649   4.301   0.225   4.673  0.3198  0.4721 -0.4303
    1SOL    HW210650   4.357   0.287   4.720 -0.3559  1.6308 -1.1146
    1SOL    HW310651   4.360   0.181   4.612  0.7355  0.7327 -0.2223
    1SOL    MW410652   4.316   0.228   4.671  0.2856  0.6593 -0.4930
    1SOL     OW10653   0.432   3.497   4.181  0.0441 -0.0467 -0.2578
    1SOL    HW210654   0.516   3.532   4.212  0.3902 -0.5469 -0.6286
    1SOL    HW310655   0.432   3.516   4.087 -0.0197 -0.5419 -0.3565
    1SOL    MW410656   0.443   3.504   4.172  0.0813 -0.1781 -0.3200
    1SOL     OW10657   2.952   1.775   4.515  0.2379 -0.0360  0.0447
    1SOL    HW210658   3.048   1.765   4.510  0.3639 -0.8811  3.0886
    1SOL    HW310659   2.937   1.869   4.501  1.4133 -0.0188 -1.2934
    1SOL    MW410660   2.963   1.786   4.512  0.4098 -0.1453  0.2699
    1SOL     OW10661   3.841   0.552   4.827  0.1704  0.0849  0.4757
    1SOL    HW210662   3.853   0.600   4.909 -1.1718  1.8493 -0.2958
    1SOL    HW310663   3.898   0.597   4.764 -1.6839  1.2648 -0.4458
    1SOL    MW410664   3.850   0.564   4.829 -0.2513  0.4734  0.2522
    1SOL     OW10665   3.590   0.595   4.618  0.0394 -0.2437  0.3511
    1SOL    HW210666   3.672   0.560   4.583  0.1500  0.7710 -0.4576
    1SOL    HW310667   3.612   0.622   4.707  0.7765  0.6469 -0.0877
    1SOL    MW410668   3.604   0.594   4.625  0.1512  0.0077  0.1869
    1SOL     OW10669   0.483   1.497   4.456 -0.0656 -0.3113  0.2237
    1SOL    HW210670   0.541   1.421   4.462  1.1898  0.3508 -2.3843
    1SOL    HW310671   0.538   1.571   4.482  0.0652  0.2299 -1.5333
    1SOL    MW410672   0.498   1.497   4.460  0.1172 -0.1526 -0.3519
    1SOL     OW10673   0.212   3.879   4.175  0.4758  0.0811 -0.1762
    1SOL    HW210674   0.283   3.906   4.233  0.7379  0.8488 -0.8359
    1SOL    HW310675   0.133   3.918   4.213 -0.2289 -3.7525  2.6093
    1SOL    MW410676   0.211   3.888   4.188  0.4174 -0.3235  0.1044
    1SOL     OW10677   2.170   0.915   4.381 -0.2269 -0.1532  0.6358
    1SOL    HW210678   2.189   0.982   4.316 -1.6144 -1.0342 -0.7069
    1SOL    HW310679   2.113   0.958   4.445  1.2660  0.7541  1.3893
    1SOL    MW410680   2.165   0.929   4.381 -0.2134 -0.1497  0.5579
    1SOL     OW10681   1.229   4.349   4.863  0.7254  0.0609 -0.0149
    1SOL    HW210682   1.179   4.430   4.857 -0.5700 -0.7790 -0.9220
    1SOL    HW310683   1.303   4.362   4.803  0.6706  0.6727  0.0498
    1SOL    MW410684   1.232   4.361   4.854  0.5474  0.0305 -0.1259
    1SOL     OW10685   4.342   3.382   4.563 -0.2506 -0.1967 -0.0685
    1SOL    HW210686   4.403   3.321   4.523  0.4430  0.7175 -0.4361
    1SOL    HW310687   4.256   3.343   4.549  0.3812 -2.4810  2.2410
    1SOL    MW410688   4.339   3.369   4.556 -0.0758 -0.3774  0.1879
    1SOL     OW10689   0.719   0.237   4.655  0.0942 -0.0657 -0.0150
    1SOL    HW210690   0.630   0.215   4.682  0.1715 -0.3881 -0.0161
    1SOL    HW310691   0.740   0.172   4.588  0.7248 -0.6607  0.7557
    1SOL    MW410692   0.710   0.226   4.650  0.1876 -0.1868  0.0863
    1SOL     OW10693   0.257   1.308   4.479  0.0672 -0.4689  0.0574
    1SOL    HW210694   0.252   1.272   4.390 -0.3269 -1.7404  0.5828
    1SOL    HW310695   0.324   1.376   4.473 -0.2116 -0.2883 -1.2951
    1SOL    MW410696   0.265   1.312   4.467 -0.0216 -0.6129 -0.0515
    1SOL     OW10697   4.250   1.580   4.161 -0.1778  0.2350  0.7007
    1SOL    HW210698   4.304   1.527   4.219 -1.1122 -0.5808  0.8310
    1SOL    HW310699   4.265   1.544   4.074  1.0024  1.2754  0.4647
    1SOL    MW410700   4.259   1.569   4.157 -0.1454  0.2645  0.6866
    1SOL     OW10701   2.939   1.590   4.130 -0.0235  0.4650  0.3394
    1SOL    HW210702   2.950   1.505   4.172 -0.2848 -0.6402 -1.7150
    1SOL    HW310703   2.856   1.623   4.164 -1.6779 -1.7152 -1.3851
    1SOL    MW410704   2.930   1.583   4.140 -0.2761  0.0316 -0.1593
    1SOL     OW10705   3.784   2.845   4.289  0.4809 -0.3560 -0.2598
    1SOL    HW210706   3.793   2.931   4.247  0.5256  0.1061  0.6791
    1SOL    HW310707   3.698   2.814   4.261  0.5886 -0.1416 -0.8410
    1SOL    MW410708   3.774   2.852   4.280  0.5012 -0.2668 -0.2127
    1SOL     OW10709   3.908   2.117   4.518 -0.1854  0.1455 -0.3779
    1SOL    HW210710   3.951   2.197   4.547  1.2347 -0.4354 -0.8797
    1SOL    HW310711   3.938   2.104   4.428 -0.2752 -1.0348 -0.2487
    1SOL    MW410712   3.917   2.125   4.510 -0.0095 -0.0868 -0.4272
    1SOL     OW10713   4.110   1.288   4.666  0.0111 -0.3616 -0.4102
    1SOL    HW210714   4.081   1.279   4.575  1.0999 -0.8408 -0.7202
    1SOL    HW310715   4.183   1.349   4.662 -0.4697  0.2609  0.2612
    1SOL    MW410716   4.115   1.295   4.653  0.0911 -0.3426 -0.3624
    1SOL     OW10717   2.024   4.362   4.222  0.1831 -0.0093 -0.1065
    1SOL    HW210718   2.036   4.454   4.198 -0.0552 -0.2866 -1.3336
    1SOL    HW310719   2.097   4.317   4.180 -0.2909 -0.5173 -0.3959
    1SOL    MW410720   2.035   4.369   4.213  0.0889 -0.1135 -0.3061
    1SOL     OW10721   2.811   4.419   4.267  0.0779  0.3589 -0.2101
    1SOL    HW210722   2.887   4.386   4.314 -1.0010 -1.7766  0.1002
    1SOL    HW310723   2.739   4.415   4.330 -0.3981  1.9562 -0.6215
    1SOL    MW410724   2.811   4.414   4.281 -0.1271  0.2875 -0.2236
    1SOL     OW10725   2.571   1.806   4.698 -0.5267  0.2263 -0.7765
    1SOL    HW210726   2.617   1.883   4.733 -2.6175  0.4596  1.5312
    1SOL    HW310727   2.482   1.837   4.682 -1.3907 -1.6985  0.1738
    1SOL    MW410728   2.565   1.821   4.700 -0.9167  0.0030 -0.3476
    1SOL     OW10729   0.987   0.168   4.751  0.3021  0.0368 -0.0006
    1SOL    HW210730   1.012   0.249   4.796  0.7845 -1.0202  1.6875
    1SOL    HW310731   0.892   0.175   4.741  0.4319  1.1468 -0.5583
    1SOL    MW410732   0.978   0.180   4.756  0.3828  0.0438  0.1483
    1SOL     OW10733   0.472   0.911   4.502 -0.1556  0.4871 -0.8455
    1SOL    HW210734   0.480   0.903   4.407 -0.5164 -1.1538 -0.7522
    1SOL    HW310735   0.446   0.824   4.531 -0.3154  1.0492  0.7365
    1SOL    MW410736   0.469   0.899   4.493 -0.2243  0.3448 -0.6247
    1SOL     OW10737   0.673   0.466   4.263 -0.0303  0.0139 -0.1209
    1SOL    HW210738   0.666   0.479   4.358  1.0558 -0.4322  0.0305
    1SOL    HW310739   0.659   0.553   4.226 -0.9070  0.1089  0.4257
    1SOL    MW410740   0.670   0.479   4.270 -0.0027 -0.0325 -0.0291
    1SOL     OW10741   0.838   3.199   4.499  0.1094 -0.3819  0.2764
    1SOL    HW210742   0.918   3.228   4.542  0.9933 -1.6778 -0.4731
    1SOL    HW310743   0.838   3.104   4.509 -0.0098 -0.6457 -1.9739
    1SOL    MW410744   0.849   3.191   4.506  0.2102 -0.5877 -0.1197
    1SOL     OW10745   1.110   3.608   4.243  0.3399  0.0051 -0.6862
    1SOL    HW210746   1.159   3.539   4.198  0.1221 -0.8988  0.4364
    1SOL    HW310747   1.019   3.594   4.216  0.2231 -0.4756 -0.0488
    1SOL    MW410748   1.105   3.597   4.233  0.2958 -0.1774 -0.4539
    1SOL     OW10749   3.137   3.243   4.249 -0.5874 -0.3059  0.2603
    1SOL    HW210750   3.132   3.334   4.220 -1.4704 -0.2531  0.5662
    1SOL    HW310751   3.126   3.247   4.344  1.3764 -0.5619  0.5083
    1SOL    MW410752   3.135   3.256   4.257 -0.4449 -0.3326  0.3328
    1SOL     OW10753   3.654   2.224   4.574  0.0723  0.0317 -0.1530
    1SOL    HW210754   3.641   2.317   4.560  0.2398  0.3518  1.6728
    1SOL    HW310755   3.747   2.209   4.554  0.2454  0.4175  0.3524
    1SOL    MW410756   3.665   2.234   4.570  0.1173  0.1247  0.1545
    1SOL     OW10757   0.727   1.298   4.190 -0.2363  0.1226  0.1607
    1SOL    HW210758   0.706   1.318   4.282  1.8695  0.1935  0.6555
    1SOL    HW310759   0.650   1.253   4.157 -0.6973 -0.6377  2.2202
    1SOL    MW410760   0.714   1.295   4.198 -0.0193  0.0316  0.4983
    1SOL     OW10761   1.554   2.040   4.226 -0.1558  0.2090  0.3624
    1SOL    HW210762   1.645   2.038   4.196 -0.5469  1.2551 -0.9157
    1SOL    HW310763   1.556   1.994   4.310  1.5120  0.0249  0.2424
    1SOL    MW410764   1.566   2.034   4.233  0.0126  0.3228  0.1774
    1SOL     OW10765   1.363   2.966   4.564 -0.2030  0.3276  0.8006
    1SOL    HW210766   1.284   2.912   4.561 -0.0421  0.1478 -0.4147
    1SOL    HW310767   1.339   3.047   4.520  0.5405 -0.0901 -0.4107
    1SOL    MW410768   1.350   2.969   4.558 -0.0838  0.2487  0.4807
    1SOL     OW10769   0.767   3.990   4.609  0.3289  0.0365  0.3063
    1SOL    HW210770   0.692   3.945   4.649  0.7076 -1.8546 -1.0666
    1SOL    HW310771   0.827   4.006   4.682 -0.7907  0.3071  1.1754
    1SOL    MW410772   0.765   3.986   4.624  0.2311 -0.1774  0.2398
    1SOL     OW10773   0.020   3.500   4.164  0.2059 -0.1865 -0.0976
    1SOL    HW210774   0.084   3.551   4.213  0.3403 -0.9393  0.5262
    1SOL    HW310775   0.041   3.517   4.072  0.3630  0.7223  0.0999
    1SOL    MW410776   0.031   3.509   4.158  0.2441 -0.1659  0.0110
    1SOL     OW10777   3.337   1.993   4.397  0.1541  0.3145 -0.6437
    1SOL    HW210778   3.416   2.036   4.363  0.8188  0.7892  1.4492
    1SOL    HW310779   3.290   1.965   4.318  1.0360  2.4719 -1.9865
    1SOL    MW410780   3.341   1.995   4.382  0.3581  0.6618 -0.5445
    1SOL     OW10781   3.888   3.646   4.478 -0.0366 -0.1823  0.2709
    1SOL    HW210782   3.975   3.609   4.493 -0.2389 -0.5859  0.4750
    1SOL    HW310783   3.873   3.634   4.384  0.4967  0.7083  0.0694
    1SOL    MW410784   3.898   3.639   4.468  0.0069 -0.1183  0.2713
    1SOL     OW10785   2.621   3.277   4.525 -0.3201  0.1208 -0.0819
    1SOL    HW210786   2.606   3.270   4.431  0.5138  0.0654 -0.2203
    1SOL    HW310787   2.596   3.191   4.560  0.2930 -0.1880 -0.3921
    1SOL    MW410788   2.616   3.264   4.517 -0.1292  0.0727 -0.1411
    1SOL     OW10789   0.222   1.035   4.535  0.0883 -0.3535 -0.6434
    1SOL    HW210790   0.310   0.998   4.533 -0.2686 -1.2130 -0.4968
    1SOL    HW310791   0.234   1.128   4.514  0.8719 -0.7744 -2.0649
    1SOL    MW410792   0.235   1.043   4.532  0.1446 -0.5224 -0.8121
    1SOL     OW10793   2.398   0.962   4.570 -0.2392  0.0348 -0.6225
    1SOL    HW210794   2.329   0.947   4.504  1.3926  0.1655 -2.3909
    1SOL    HW310795   2.404   1.057   4.576  0.7058  0.0330 -1.4655
    1SOL    MW410796   2.389   0.973   4.562  0.1006  0.0518 -0.9670
    1SOL     OW10797   1.419   3.552   4.323 -0.0289 -0.0844 -0.0527
    1SOL    HW210798   1.380   3.504   4.250 -1.5677  0.3169  0.4871
    1SOL    HW310799   1.444   3.485   4.386 -0.7793 -0.2910  0.0327
    1SOL    MW410800   1.417   3.537   4.321 -0.3309 -0.0587  0.0300
    1SOL     OW10801   3.085   4.035   4.221 -0.2281 -0.1777  0.3942
    1SOL    HW210802   3.165   3.992   4.190 -0.3819 -0.9019  0.9865
    1SOL    HW310803   3.092   4.032   4.317 -0.6326  0.3821  0.4436
    1SOL    MW410804   3.096   4.029   4.230 -0.3021 -0.1998  0.4787
    1SOL     OW10805   0.247   2.097   4.228 -0.5788  0.0527 -0.6174
    1SOL    HW210806   0.157   2.074   4.205 -0.3555  0.7788 -2.3018
    1SOL    HW310807   0.299   2.024   4.196 -0.5772 -0.5030  0.6139
    1SOL    MW410808   0.242   2.084   4.221 -0.5492  0.0753 -0.6776
    1SOL     OW10809   2.111   1.789   4.811  0.4283  0.3111 -0.1905
    1SOL    HW210810   2.016   1.775   4.812  0.4065  0.4054  2.6620
    1SOL    HW310811   2.149   1.702   4.823  0.7649  0.1389 -2.2754
    1SOL    MW410812   2.103   1.776   4.812  0.4697  0.3010 -0.0892
    1SOL     OW10813   2.865   3.429   4.508 -0.1381 -0.0837 -0.0330
    1SOL    HW210814   2.786   3.389   4.544 -0.8964 -0.0405 -1.6366
    1SOL    HW310815   2.933   3.363   4.522 -1.2058 -1.6349 -1.9022
    1SOL    MW410816   2.864   3.415   4.515 -0.3791 -0.2825 -0.4911
    1SOL     OW10817   0.533   3.555   4.588 -0.3136 -0.5472  0.2972
    1SOL    HW210818   0.563   3.570   4.498  0.2558  0.5746  0.6609
    1SOL    HW310819   0.438   3.563   4.583 -0.0997  3.0406  0.3820
    1SOL    MW410820   0.524   3.558   4.575 -0.2102  0.0744  0.3562
    1SOL     OW10821   1.804   3.218   4.172  0.4353 -0.5527 -0.3600
    1SOL    HW210822   1.718   3.190   4.139 -0.0010  0.0193  0.2669
    1SOL    HW310823   1.819   3.302   4.128 -0.8415  0.9702  1.9731
    1SOL    MW410824   1.794   3.226   4.162  0.2093 -0.2766  0.0305
    1SOL     OW10825   3.043   2.181   4.121 -0.0228 -0.7823  0.3539
    1SOL    HW210826   2.979   2.201   4.189  0.0089 -0.2938  0.2369
    1SOL    HW310827   3.015   2.231   4.045  0.3937 -0.7123  0.2457
    1SOL    MW410828   3.031   2.190   4.120  0.0365 -0.7088  0.3238
    1SOL     OW10829   2.733   3.949   4.512 -0.2340 -0.5770  0.0857
    1SOL    HW210830   2.650   3.913   4.544 -0.7765 -1.9983 -2.7299
    1SOL    HW310831   2.791   3.873   4.507  0.2431 -0.1511 -0.9450
    1SOL    MW410832   2.730   3.934   4.516 -0.2427 -0.7083 -0.4215
    1SOL     OW10833   1.403   4.403   4.654 -0.2629 -0.3967 -0.0191
    1SOL    HW210834   1.403   4.499   4.659  0.4841 -0.3730 -0.4119
    1SOL    HW310835   1.341   4.383   4.584  0.5525 -0.1522 -0.8121
    1SOL    MW410836   1.395   4.413   4.646 -0.0567 -0.3619 -0.1750
    1SOL     OW10837   0.093   2.001   4.561 -0.0988  0.4271 -0.2843
    1SOL    HW210838   0.104   1.913   4.526  1.1550 -0.1152  1.4093
    1SOL    HW310839   0.173   2.047   4.534 -0.5540  0.9157 -0.8012
    1SOL    MW410840   0.105   1.996   4.553  0.0066  0.4197 -0.1287
    1SOL     OW10841   3.497   2.711   4.472  0.2121  0.0675 -0.6693
    1SOL    HW210842   3.555   2.778   4.507  1.7365 -0.9098 -1.2887
    1SOL    HW310843   3.471   2.745   4.386 -2.0930  1.6232  0.5920
    1SOL    MW410844   3.501   2.724   4.465  0.1090  0.1438 -0.5846
    1SOL     OW10845   2.104   1.860   4.473  0.6473 -0.1871 -0.6605
    1SOL    HW210846   2.178   1.877   4.532 -0.0158  0.3854  0.0205
    1SOL    HW310847   2.070   1.947   4.452 -0.1732 -0.4678 -0.5237
    1SOL    MW410848   2.109   1.874   4.478  0.4516 -0.1487 -0.5522
    1SOL     OW10849   1.759   1.168   4.200  0.0991 -0.0711  0.0702
    1SOL    HW210850   1.766   1.075   4.220 -2.2881 -0.2002  0.4093
    1SOL    HW310851   1.814   1.211   4.266 -0.8595 -1.0602  1.5315
    1SOL    MW410852   1.767   1.162   4.211 -0.3424 -0.2187  0.3080
    1SOL     OW10853   3.564   3.186   4.501  0.0671  0.0548  0.4398
    1SOL    HW210854   3.572   3.201   4.407  0.6790  0.5573  0.5673
    1SOL    HW310855   3.637   3.235   4.539  0.2274 -0.6967  1.1171
    1SOL    MW410856   3.575   3.194   4.493  0.1690  0.0219  0.5455
    1SOL     OW10857   0.706   0.512   4.542  0.1473  0.0272 -0.2555
    1SOL    HW210858   0.706   0.424   4.580  1.6847 -0.0909 -0.4936
    1SOL    HW310859   0.793   0.546   4.561 -0.4541  1.5187 -0.1444
    1SOL    MW410860   0.717   0.505   4.549  0.2708  0.2084 -0.2728
    1SOL     OW10861   2.315   2.838   4.574  0.4868 -0.4500 -0.1649
    1SOL    HW210862   2.269   2.789   4.643 -1.0982  1.6499  0.3122
    1SOL    HW310863   2.372   2.773   4.533  0.0722 -2.1773  1.8965
    1SOL    MW410864   2.316   2.823   4.577  0.2229 -0.4008  0.1702
    1SOL     OW10865   3.402   1.842   4.620 -0.1215  0.1714 -0.0660
    1SOL    HW210866   3.382   1.906   4.552  1.2342  0.9701  0.2796
    1SOL    HW310867   3.423   1.894   4.697 -0.7027 -0.7183  0.7059
    1SOL    MW410868   3.402   1.857   4.621 -0.0196  0.1594  0.0820
    1SOL     OW10869   1.581   2.326   4.215 -0.2914 -0.3125  0.5037
    1SOL    HW210870   1.673   2.324   4.243 -0.3009  1.6464  0.7513
    1SOL    HW310871   1.555   2.234   4.213  1.3148 -0.8270  1.6588
    1SOL    MW410872   1.590   2.313   4.219 -0.0806 -0.1216  0.6890
    1SOL     OW10873   0.686   1.761   4.491 -0.0344  0.0090  0.7628
    1SOL    HW210874   0.736   1.761   4.410 -0.4029 -2.5550  0.4805
    1SOL    HW310875   0.750   1.734   4.558 -0.1815  0.2541  1.0001
    1SOL    MW410876   0.701   1.757   4.489 -0.1024 -0.2968  0.7572
    1SOL     OW10877   4.108   4.496   4.623  0.0176  0.1766  0.0996
    1SOL    HW210878   4.156   4.515   4.703 -0.2262 -0.1660  0.3299
    1SOL    HW310879   4.157   4.425   4.582 -1.1124 -1.2033  1.0850
    1SOL    MW410880   4.121   4.489   4.628 -0.1636 -0.0510  0.2608
    1SOL     OW10881   2.086   2.960   4.472 -0.2450  0.2837  0.1468
    1SOL    HW210882   2.085   2.914   4.388 -1.2690  0.6850 -0.0756
    1SOL    HW310883   2.158   2.921   4.521 -1.0133 -1.4503 -0.0842
    1SOL    MW410884   2.095   2.949   4.467 -0.4814  0.1078  0.0873
    1SOL     OW10885   4.221   3.895   4.182 -0.0500 -0.1690 -0.2001
    1SOL    HW210886   4.228   3.800   4.172 -1.7016 -0.1938 -1.4173
    1SOL    HW310887   4.236   3.930   4.093 -0.9707  0.5852 -0.0753
    1SOL    MW410888   4.224   3.887   4.169 -0.3896 -0.0727 -0.3438
    1SOL     OW10889   0.558   2.757   4.515  0.1667  0.2047 -0.3138
    1SOL    HW210890   0.535   2.664   4.512 -1.1668  0.5581 -2.2817
    1SOL    HW310891   0.648   2.761   4.483 -0.7072 -0.1787 -2.9829
    1SOL    MW410892   0.567   2.745   4.510 -0.1245  0.2010 -0.9260
    1SOL     OW10893   0.987   0.851   4.462  0.0927  0.0726 -0.3824
    1SOL    HW210894   0.909   0.892   4.499 -0.0652  0.3998 -1.0831
    1SOL    HW310895   1.059   0.907   4.491 -0.1339  0.9052 -1.4320
    1SOL    MW410896   0.986   0.864   4.471  0.0420  0.2256 -0.6127
    1SOL     OW10897   4.270   2.903   4.286 -0.0416 -0.0049  0.2270
    1SOL    HW210898   4.278   2.969   4.217  1.3205  0.0537  0.4402
    1SOL    HW310899   4.194   2.850   4.259  1.6573 -1.2277 -2.4174
    1SOL    MW410900   4.261   2.905   4.273  0.3624 -0.1581 -0.0935
    1SOL     OW10901   0.260   0.026   4.153  0.4414  0.1041 -0.0740
    1SOL    HW210902   0.353   0.048   4.154  0.5776 -0.4597  0.5043
    1SOL    HW310903   0.256  -0.061   4.195 -0.0698 -0.9991 -2.3281
    1SOL    MW410904   0.272   0.017   4.159  0.3919 -0.1159 -0.2952
    1SOL     OW10905   3.556   2.053   4.783 -0.0464 -0.5879 -0.2633
    1SOL    HW210906   3.575   2.107   4.860 -1.2748 -0.6103  0.0763
    1SOL    HW310907   3.563   2.113   4.709 -1.2833  0.0248  0.1032
    1SOL    MW410908   3.559   2.068   4.783 -0.3717 -0.5102 -0.1707
    1SOL     OW10909   0.493   1.170   4.119  0.1003 -0.1207 -0.1815
    1SOL    HW210910   0.489   1.081   4.155 -2.1374 -0.5118 -1.3400
    1SOL    HW310911   0.502   1.157   4.025  0.2526  0.8964 -0.3069
    1SOL    MW410912   0.494   1.156   4.112 -0.1749 -0.0381 -0.3510
    1SOL     OW10913   2.210   3.220   4.236  0.0012  0.2525  0.3015
    1SOL    HW210914   2.143   3.181   4.180  1.6798 -1.7066 -0.4007
    1SOL    HW310915   2.172   3.217   4.324 -0.3949 -1.8270  0.0707
    1SOL    MW410916   2.196   3.215   4.240  0.1705 -0.2799  0.1783
    1SOL     OW10917   0.020   0.169   4.233 -0.2061 -0.1879  0.0918
    1SOL    HW210918   0.103   0.123   4.222 -0.1681 -0.5154  1.6295
    1SOL    HW310919   0.035   0.256   4.197  0.3736 -0.6691 -0.8674
    1SOL    MW410920   0.033   0.174   4.227 -0.1246 -0.2946  0.1683
    1SOL     OW10921   1.366   4.026   4.521  0.0382  0.1126 -0.2925
    1SOL    HW210922   1.434   4.093   4.513  0.9718 -0.7829 -0.0045
    1SOL    HW310923   1.300   4.065   4.579 -0.8505  1.8886 -2.4201
    1SOL    MW410924   1.366   4.040   4.528  0.0442  0.2294 -0.5350
    1SOL     OW10925   0.944   4.016   4.853  0.1798 -0.0961  0.4783
    1SOL    HW210926   0.942   4.095   4.907  1.8329  0.6505 -0.5282
    1SOL    HW310927   0.933   3.944   4.915  2.0002  0.7517  1.8060
    1SOL    MW410928   0.942   4.017   4.869  0.6381  0.1144  0.5212
    1SOL     OW10929   2.466   1.250   4.509 -0.1973 -0.3166 -0.1767
    1SOL    HW210930   2.547   1.297   4.531 -1.1147  0.7392  1.0093
    1SOL    HW310931   2.455   1.263   4.415  0.3416  0.6051 -0.1131
    1SOL    MW410932   2.475   1.258   4.500 -0.2475 -0.0557 -0.0119
    1SOL     OW10933   2.643   0.810   4.498  0.3221 -0.1742 -0.1464
    1SOL    HW210934   2.568   0.859   4.531  0.4740  0.6571 -0.9813
    1SOL    HW310935   2.613   0.719   4.492 -0.5859  0.1369 -0.3669
    1SOL    MW410936   2.629   0.804   4.501  0.2222 -0.0234 -0.2861
    1SOL     OW10937   1.372   0.881   4.260 -0.0791 -0.0430  0.0273
    1SOL    HW210938   1.420   0.823   4.200 -0.5048 -1.3997  0.9873
    1SOL    HW310939   1.377   0.967   4.218 -0.3225 -0.9486 -1.9506
    1SOL    MW410940   1.379   0.884   4.246 -0.1674 -0.3415 -0.1068
    1SOL     OW10941   4.238   1.057   4.581  0.0118 -0.2444  0.1610
    1SOL    HW210942   4.208   1.139   4.621  0.7051  0.4762 -0.7935
    1SOL    HW310943   4.158   1.016   4.548 -0.1487  0.7481 -0.6695
    1SOL    MW410944   4.223   1.062   4.582  0.0820 -0.0184 -0.0744
    1SOL     OW10945   2.085   1.080   4.803  0.3869  0.4952 -0.7235
    1SOL    HW210946   2.143   1.004   4.808 -0.8248 -0.4398 -0.6818
    1SOL    HW310947   2.134   1.144   4.751  1.1967 -0.5241 -1.2423
    1SOL    MW410948   2.099   1.078   4.796  0.3338  0.2373 -0.7863
    1SOL     OW10949   1.315   3.147   4.176 -0.1827  0.4148 -0.4474
    1SOL    HW210950   1.302   3.165   4.270 -1.3413  2.0451 -0.9022
    1SOL    HW310951   1.226   3.129   4.144  0.3009 -0.8332 -1.1111
    1SOL    MW410952   1.301   3.147   4.184 -0.2717  0.4652 -0.5946
    1SOL     OW10953   1.128   2.335   4.151 -0.5419  0.0155  0.0488
    1SOL    HW210954   1.195   2.379   4.203  0.6856 -2.1189  0.3197
    1SOL    HW310955   1.127   2.245   4.184 -2.0958 -0.5043 -1.3452
    1SOL    MW410956   1.137   2.329   4.162 -0.5851 -0.3345 -0.0992
    1SOL     OW10957   3.900   1.222   4.470 -0.0458 -0.0335 -0.1278
    1SOL    HW210958   3.823   1.275   4.492  0.6278  1.1722 -0.6367
    1SOL    HW310959   3.894   1.209   4.376 -0.0378 -0.5815 -0.0493
    1SOL    MW410960   3.889   1.228   4.461  0.0443  0.0533 -0.1850
    1SOL     OW10961   4.035   0.101   4.586 -0.3470 -0.4113 -0.0892
    1SOL    HW210962   4.099   0.143   4.643  0.5274 -0.7575 -0.8074
    1SOL    HW310963   4.046   0.008   4.601 -0.6067 -0.4797 -0.3052
    1SOL    MW410964   4.045   0.094   4.595 -0.2656 -0.4660 -0.2122
    1SOL     OW10965   3.320   1.033   4.674  0.3648  0.2671  0.6637
    1SOL    HW210966   3.372   0.969   4.626 -0.6028 -0.0614  0.0275
    1SOL    HW310967   3.368   1.115   4.666  0.9065 -0.0860  0.3016
    1SOL    MW410968   3.333   1.035   4.667  0.3088  0.1771  0.5322
    1SOL     OW10969   3.364   4.174   4.643 -0.6457 -0.0283 -0.3366
    1SOL    HW210970   3.382   4.262   4.610  1.3015 -0.0021  0.7234
    1SOL    HW310971   3.365   4.183   4.738  1.1293 -1.4888 -0.1976
    1SOL    MW410972   3.366   4.186   4.651 -0.1550 -0.2174 -0.1788
    1SOL     OW10973   0.768   0.003   4.500 -0.1749  0.5176  0.2234
    1SOL    HW210974   0.816   0.045   4.428  0.0120  0.2581  0.1944
    1SOL    HW310975   0.695  -0.042   4.457  1.2265 -1.5271 -0.0623
    1SOL    MW410976   0.765   0.003   4.485  0.0347  0.2136  0.1817
    1SOL     OW10977   0.331   2.125   4.486  0.5713 -0.5401  0.0537
    1SOL    HW210978   0.410   2.073   4.496 -0.8036 -2.6216  0.4772
    1SOL    HW310979   0.308   2.117   4.393 -0.7851 -2.4446  0.5324
    1SOL    MW410980   0.338   2.117   4.475  0.2109 -1.0660  0.1726
    1SOL     OW10981   1.882   1.296   4.420  0.0458  0.0046  0.4373
    1SOL    HW210982   1.973   1.291   4.393 -0.2233  1.5551 -0.8581
    1SOL    HW310983   1.877   1.375   4.474 -0.3699 -0.4964  1.1372
    1SOL    MW410984   1.893   1.306   4.424 -0.0446  0.1432  0.3591
    1SOL     OW10985   4.288   4.660   4.182 -0.3220  0.0217  0.6020
    1SOL    HW210986   4.206   4.704   4.207  0.2001  1.2477  0.1740
    1SOL    HW310987   4.355   4.727   4.191  0.2953 -0.3058 -1.3782
    1SOL    MW410988   4.286   4.675   4.186 -0.1712  0.1402  0.2837
    1SOL     OW10989   2.645   2.587   4.644  0.0704  0.4855  0.4922
    1SOL    HW210990   2.596   2.616   4.567  0.8590  0.7090  0.0691
    1SOL    HW310991   2.725   2.549   4.609  0.4733  0.6653  1.2035
    1SOL    MW410992   2.649   2.586   4.629  0.2275  0.5386  0.5302
    1SOL     OW10993   1.994   4.255   4.472 -0.0089 -0.3523  0.5759
    1SOL    HW210994   1.976   4.278   4.381 -0.2896 -2.8843 -0.0572
    1SOL    HW310995   1.985   4.337   4.520 -0.3119  0.9336 -1.6092
    1SOL    MW410996   1.990   4.269   4.467 -0.0859 -0.5169  0.2041
    1SOL     OW10997   2.902   4.127   4.639  0.0637 -0.4933 -0.6831
    1SOL    HW210998   2.857   4.212   4.636  0.3424 -0.2320  1.4131
    1SOL    HW310999   2.848   4.069   4.587 -1.1719  0.5054 -0.5365
    1SOL    MW411000   2.889   4.131   4.632 -0.0625 -0.3271 -0.3877
    1SOL     OW11001   3.849   4.410   4.554 -0.2208  0.2752  0.0830
    1SOL    HW211002   3.789   4.442   4.620  1.2630  4.3087 -0.3792
    1SOL    HW311003   3.935   4.439   4.584  0.9872 -1.6542 -1.4033
    1SOL    MW411004   3.853   4.418   4.567  0.1342  0.5527 -0.1740
    1SOL     OW11005   2.880   2.040   4.523  0.8534  0.4325  0.1536
    1SOL    HW211006   2.817   2.064   4.591  1.4311  0.3452  0.7277
    1SOL    HW311007   2.962   2.081   4.550  0.4984  2.5310 -1.8285
    1SOL    MW411008   2.882   2.048   4.536  0.8831  0.6979 -0.0319
    1SOL     OW11009   1.784   4.297   4.122  0.3702  0.6623  0.3443
    1SOL    HW211010   1.776   4.286   4.027  1.2975 -3.1608  0.6032
    1SOL    HW311011   1.867   4.343   4.133  1.0945 -0.3568 -0.6715
    1SOL    MW411012   1.794   4.301   4.111  0.5882  0.0234  0.2441
    1SOL     OW11013   2.289   1.051   4.173 -0.0559  0.0485 -0.6590
    1SOL    HW211014   2.355   1.117   4.192 -0.8060  0.5381  0.2726
    1SOL    HW311015   2.339   0.975   4.144  0.8869  0.5536 -0.3664
    1SOL    MW411016   2.304   1.049   4.171 -0.0310  0.1796 -0.4973
    1SOL     OW11017   1.018   4.540   4.806 -0.0484 -0.4667  0.0969
    1SOL    HW211018   0.991   4.631   4.793  1.4927  0.1205  0.8609
    1SOL    HW311019   0.986   4.494   4.729 -1.7245  0.5200  0.1817
    1SOL    MW411020   1.010   4.546   4.794 -0.0662 -0.2589  0.2093
    1SOL     OW11021   3.069   0.179   4.534  0.0367  0.1291  0.4691
    1SOL    HW211022   3.107   0.257   4.574 -0.9914 -0.2642  2.2719
    1SOL    HW311023   2.975   0.189   4.547 -0.1285 -1.2210  0.3959
    1SOL    MW411024   3.062   0.190   4.541 -0.1209 -0.1009  0.6971
    1SOL     OW11025   4.010   1.695   4.273  0.2737 -0.5260 -0.2919
    1SOL    HW211026   4.090   1.647   4.254  0.6469 -0.3234  0.7584
    1SOL    HW311027   4.008   1.702   4.368 -1.1800 -0.8478 -0.2939
    1SOL    MW411028   4.020   1.690   4.283  0.1307 -0.5417 -0.1531
    1SOL     OW11029   1.835   1.797   4.806 -0.0047  0.1006  0.3647
    1SOL    HW211030   1.774   1.739   4.850  0.5926 -1.5738 -0.9496
    1SOL    HW311031   1.813   1.789   4.713  1.6500  0.1404 -0.0452
    1SOL    MW411032   1.824   1.789   4.799  0.2924 -0.1150  0.1383
    1SOL     OW11033   0.517   2.474   4.516 -0.0833  0.1143 -0.1355
    1SOL    HW211034   0.589   2.416   4.543  1.5712  0.8591 -2.8322
    1SOL    HW311035   0.443   2.444   4.569  1.8214 -1.5943  1.7136
    1SOL    MW411036   0.517   2.462   4.527  0.3864 -0.0129 -0.2475
    1SOL     OW11037   2.892   2.724   4.298  0.4051  0.0457  0.1230
    1SOL    HW211038   2.873   2.808   4.340  1.9988  0.4816  0.0070
    1SOL    HW311039   2.824   2.714   4.232 -0.6868  0.5220  1.1535
    1SOL    MW411040   2.880   2.734   4.295  0.4711  0.1662  0.2441
    1SOL     OW11041   1.579   0.730   4.127  0.5855  0.0246 -0.0793
    1SOL    HW211042   1.645   0.791   4.160  0.8352 -0.0927 -0.3561
    1SOL    HW311043   1.581   0.743   4.032  0.5387 -0.3150 -0.1260
    1SOL    MW411044   1.588   0.740   4.119  0.6123 -0.0356 -0.1221
    1SOL     OW11045   4.018   2.351   4.634  0.1069 -0.0480  0.0493
    1SOL    HW211046   3.985   2.428   4.587 -0.5369  0.0444  0.6397
    1SOL    HW311047   4.113   2.364   4.638  0.1111  0.1762 -0.8060
    1SOL    MW411048   4.026   2.363   4.628  0.0219 -0.0062  0.0143
    1SOL     OW11049   4.008   4.053   4.219 -0.4257  0.1081 -0.1934
    1SOL    HW211050   4.078   3.988   4.219  0.1083  0.6792 -1.3511
    1SOL    HW311051   3.994   4.074   4.311 -1.5002 -2.6097  0.3203
    1SOL    MW411052   4.015   4.047   4.231 -0.4969 -0.1750 -0.2785
    1SOL     OW11053   3.134   4.074   4.497 -0.3693 -0.1586  0.1214
    1SOL    HW211054   3.209   4.106   4.547  0.5966  0.0449 -1.4010
    1SOL    HW311055   3.058   4.098   4.549  0.6481 -1.0266  2.0683
    1SOL    MW411056   3.134   4.081   4.510 -0.1078 -0.2460  0.1774
    1SOL     OW11057   0.197   0.272   4.642  0.1328 -0.0124  0.4522
    1SOL    HW211058   0.224   0.347   4.587 -0.5415  2.0859  2.8805
    1SOL    HW311059   0.278   0.224   4.658  0.4902 -0.1482 -1.5948
    1SOL    MW411060   0.211   0.276   4.637  0.0910  0.2465  0.5026
    1SOL     OW11061   1.598   3.600   4.632  0.0407  0.1608 -0.5880
    1SOL    HW211062   1.520   3.652   4.612 -0.0009  0.2075 -0.3040
    1SOL    HW311063   1.671   3.654   4.599 -0.0206  0.2753 -0.5357
    1SOL    MW411064   1.598   3.614   4.625  0.0272  0.1819 -0.5436
    1SOL     OW11065   0.067   2.437   4.574  0.6828  0.2413 -0.0464
    1SOL    HW211066   0.054   2.531   4.582  0.4134  0.2351 -0.3825
    1SOL    HW311067   0.153   2.421   4.612  0.5932  0.5765  0.3028
    1SOL    MW411068   0.076   2.447   4.580  0.6354  0.2844 -0.0448
    1SOL     OW11069   1.241   2.050   4.508 -0.2100 -0.0720  0.0515
    1SOL    HW211070   1.334   2.037   4.491 -0.2589 -0.8098  0.3461
    1SOL    HW311071   1.236   2.135   4.552  0.3722 -0.2733  0.5013
    1SOL    MW411072   1.252   2.060   4.511 -0.1398 -0.1960  0.1497
    1SOL     OW11073   0.473   0.906   4.215  0.5116  0.1912  0.3453
    1SOL    HW211074   0.529   0.836   4.181 -0.0298 -0.0183 -0.1256
    1SOL    HW311075   0.384   0.875   4.198  0.2389  0.3412  1.4331
    1SOL    MW411076   0.468   0.892   4.209  0.4042  0.1834  0.4272
    1SOL     OW11077   2.227   1.473   4.253 -0.0302  0.2315 -0.0440
    1SOL    HW211078   2.303   1.505   4.203  0.9987 -0.8885  0.7870
    1SOL    HW311079   2.154   1.527   4.222  0.7621  0.1922 -2.0990
    1SOL    MW411080   2.227   1.484   4.242  0.2100  0.0788 -0.2055
    1SOL     OW11081   3.919   1.486   4.735 -0.3826  0.1716 -0.3203
    1SOL    HW211082   3.910   1.480   4.830 -0.1411  1.1664 -0.2345
    1SOL    HW311083   3.991   1.427   4.714  1.7112  2.3630  0.4886
    1SOL    MW411084   3.927   1.477   4.745 -0.0746  0.5920 -0.2022
    1SOL     OW11085   2.380   2.458   4.658 -0.1444 -0.1269  0.5153
    1SOL    HW211086   2.374   2.430   4.567 -2.0686  0.4117  0.4484
    1SOL    HW311087   2.469   2.491   4.667  0.0177 -0.0241 -1.2293
    1SOL    MW411088   2.391   2.459   4.647 -0.3769 -0.0424  0.2761
    1SOL     OW11089   1.127   1.235   4.205  0.4296  0.1369 -0.3055
    1SOL    HW211090   1.215   1.204   4.184  0.2886 -1.2553  1.1136
    1SOL    HW311091   1.130   1.257   4.298 -0.7366 -0.0335 -0.2141
    1SOL    MW411092   1.139   1.234   4.214  0.2573 -0.0694 -0.1059
    1SOL     OW11093   3.238   1.435   4.667  0.1256 -0.0038  0.1315
    1SOL    HW211094   3.319   1.391   4.641  0.7618  1.2224 -0.0220
    1SOL    HW311095   3.226   1.411   4.759 -0.1783 -1.4305 -0.2644
    1SOL    MW411096   3.247   1.426   4.676  0.1695 -0.0303  0.0591
    1SOL     OW11097   1.815   4.038   4.205 -0.1476 -0.1208 -0.1778
    1SOL    HW211098   1.796   4.130   4.185  1.1202  0.3581  0.7976
    1SOL    HW311099   1.823   4.035   4.300  0.0636 -1.2068 -0.2211
    1SOL    MW411100   1.813   4.049   4.215  0.0474 -0.2003 -0.0548
    1SOL     OW11101   4.056   0.875   4.196  0.0659 -0.3140 -0.0757
    1SOL    HW211102   3.979   0.823   4.176 -0.0243 -0.0481 -0.4418
    1SOL    HW311103   4.130   0.821   4.169  0.1233 -1.5498  2.5025
    1SOL    MW411104   4.056   0.861   4.190  0.0620 -0.4420  0.2160
    1SOL     OW11105   0.275   0.522   4.223  0.2684  0.1726  0.4359
    1SOL    HW211106   0.194   0.479   4.195  0.5045  0.4726 -0.7658
    1SOL    HW311107   0.345   0.470   4.182  0.6537  0.3257  0.8941
    1SOL    MW411108   0.274   0.509   4.214  0.3504  0.2324  0.3381
    1SOL     OW11109   1.300   3.209   4.443 -0.2535 -0.0409  0.4241
    1SOL    HW211110   1.388   3.244   4.457 -0.5536  0.4254  1.1695
    1SOL    HW311111   1.243   3.265   4.496 -1.0646 -0.0167 -0.4595
    1SOL    MW411112   1.304   3.221   4.452 -0.4002  0.0236  0.4058
    1SOL     OW11113   1.798   3.744   4.487 -0.2466  0.1735  0.1010
    1SOL    HW211114   1.805   3.839   4.494  0.6300  0.1294 -0.0597
    1SOL    HW311115   1.887   3.712   4.504 -0.2069 -0.5128 -1.2982
    1SOL    MW411116   1.811   3.752   4.490 -0.1256  0.0770 -0.1049
    1SOL     OW11117   4.469   4.018   4.273 -0.0264 -0.4809 -0.0786
    1SOL    HW211118   4.386   3.972   4.256  0.0645 -1.4384  1.9983
    1SOL    HW311119   4.470   4.089   4.209 -2.0827 -0.9435 -0.6596
    1SOL    MW411120   4.458   4.021   4.262 -0.2861 -0.6680  0.1192
    1SOL     OW11121   0.552   4.557   4.370 -0.4624  0.2666  0.1637
    1SOL    HW211122   0.590   4.477   4.335  0.9777  0.4278  1.3113
    1SOL    HW311123   0.543   4.614   4.293  0.6070 -0.1713 -0.3008
    1SOL    MW411124   0.556   4.554   4.355 -0.1313  0.2294  0.2537
    1SOL     OW11125   1.080   3.309   4.612  0.4828 -0.0510  0.4589
    1SOL    HW211126   1.082   3.298   4.707  0.4987  0.9716  0.5734
    1SOL    HW311127   1.091   3.402   4.597  0.3595 -0.1846 -0.5479
    1SOL    MW411128   1.082   3.320   4.622  0.4686  0.0663  0.3419
    1SOL     OW11129   0.036   0.427   4.148 -0.2407 -0.1609  0.7236
    1SOL    HW211130   0.001   0.406   4.061  0.3724  0.9070  0.2098
    1SOL    HW311131  -0.040   0.461   4.196 -0.4717 -0.2796  0.4501
    1SOL    MW411132   0.021   0.429   4.143 -0.1907 -0.0357  0.6194
    1SOL     OW11133   1.318   1.923   4.130 -0.1664 -0.0159  0.3451
    1SOL    HW211134   1.395   1.972   4.160  0.5229  0.0975 -1.5622
    1SOL    HW311135   1.329   1.836   4.168  0.2268  0.3687  1.1402
    1SOL    MW411136   1.330   1.918   4.139 -0.0235  0.0498  0.1984
    1SOL     OW11137   1.563   3.091   4.093  0.2784 -0.1384 -0.0791
    1SOL    HW211138   1.478   3.119   4.128 -0.3794 -1.8313 -0.3121
    1SOL    HW311139   1.574   3.002   4.124  1.1410 -0.5599 -1.5658
    1SOL    MW411140   1.553   3.083   4.102  0.3055 -0.4172 -0.3061
    1SOL     OW11141   2.480   3.574   4.267  0.3637  0.0367 -0.3076
    1SOL    HW211142   2.391   3.556   4.238  0.6550 -0.1431 -1.1014
    1SOL    HW311143   2.479   3.556   4.360 -1.1651  2.7190  0.2667
    1SOL    MW411144   2.468   3.569   4.275  0.2005  0.3667 -0.3371
    1SOL     OW11145   2.625   2.398   4.264 -0.3136  0.1512  0.4863
    1SOL    HW211146   2.584   2.344   4.196  0.8599 -0.6174  0.3913
    1SOL    HW311147   2.553   2.417   4.325 -0.9061 -0.9009  0.1383
    1SOL    MW411148   2.610   2.393   4.263 -0.2370 -0.0889  0.4282
    1SOL     OW11149   3.852   3.938   4.479 -0.5983 -0.0078  0.0990
    1SOL    HW211150   3.877   3.847   4.468 -0.9639 -0.1298  0.2780
    1SOL    HW311151   3.756   3.938   4.473 -0.4296  0.9686 -4.4546
    1SOL    MW411152   3.843   3.926   4.477 -0.6244  0.1051 -0.4783
    1SOL     OW11153   0.889   2.461   4.196 -0.6335  0.2798 -0.1431
    1SOL    HW211154   0.828   2.391   4.174 -1.0883  1.0065 -1.2441
    1SOL    HW311155   0.975   2.423   4.182 -0.8448 -0.5356  0.7351
    1SOL    MW411156   0.892   2.447   4.191 -0.7214  0.2682 -0.1726
    1SOL     OW11157   1.813   2.037   4.140 -0.3133  0.2783 -0.5483
    1SOL    HW211158   1.896   2.081   4.155  0.6031 -2.0001  1.4551
    1SOL    HW311159   1.820   1.999   4.053  0.4059  0.8121 -0.7193
    1SOL    MW411160   1.825   2.038   4.130 -0.0975  0.0482 -0.3066
    1SOL     OW11161   2.060   3.658   4.535  0.5616  0.0971 -0.3939
    1SOL    HW211162   2.074   3.647   4.441  3.4151 -1.7612  0.1783
    1SOL    HW311163   2.099   3.743   4.555 -1.0927  1.0346 -1.0465
    1SOL    MW411164   2.067   3.667   4.526  0.7198 -0.0243 -0.4048
    1SOL     OW11165   4.002   1.718   4.565  0.3320 -0.2831 -0.2217
    1SOL    HW211166   3.925   1.773   4.578  1.1375  1.0407 -1.0155
    1SOL    HW311167   3.980   1.636   4.611 -1.3629  0.2229 -0.0789
    1SOL    MW411168   3.989   1.714   4.573  0.2146 -0.0416 -0.3076
    1SOL     OW11169   3.843   1.492   4.167  0.2369  0.0001 -0.3882
    1SOL    HW211170   3.756   1.528   4.184  0.4605  1.2903 -1.8493
    1SOL    HW311171   3.903   1.566   4.180  1.0672 -0.7493  0.1062
    1SOL    MW411172   3.840   1.507   4.171  0.3762  0.0715 -0.5155
    1SOL     OW11173   4.313   1.215   4.335 -0.4002 -0.4515  0.2170
    1SOL    HW211174   4.232   1.196   4.288 -0.9028 -0.3593  1.0520
    1SOL    HW311175   4.303   1.172   4.420 -0.3672  1.1287  1.0433
    1SOL    MW411176   4.301   1.207   4.340 -0.4621 -0.2308  0.4363
    1SOL     OW11177   2.206   0.119   4.276  0.0525 -0.0996 -0.0832
    1SOL    HW211178   2.284   0.072   4.247  1.5461  2.2970 -0.1312
    1SOL    HW311179   2.220   0.134   4.369  0.2285  1.3422 -0.3218
    1SOL    MW411180   2.218   0.115   4.284  0.2725  0.4068 -0.1206
    1SOL     OW11181   1.282   2.295   4.675 -0.1843 -0.6746  0.2821
    1SOL    HW211182   1.374   2.319   4.665 -0.9674  2.1503 -0.8793
    1SOL    HW311183   1.278   2.252   4.760  2.1876 -0.7336  0.4101
    1SOL    MW411184   1.294   2.293   4.685  0.0253 -0.3097  0.1464
    1SOL     OW11185   1.467   0.816   4.516 -0.2077 -0.3011  0.2306
    1SOL    HW211186   1.442   0.856   4.433  1.0896 -0.7494 -0.3902
    1SOL    HW311187   1.558   0.844   4.529 -0.0520 -1.1304  0.9504
    1SOL    MW411188   1.476   0.825   4.507 -0.0159 -0.4697  0.2437
    1SOL     OW11189   3.386   1.268   4.299  0.0178 -0.0003 -0.0294
    1SOL    HW211190   3.388   1.351   4.252  1.2756 -0.3044 -0.5555
    1SOL    HW311191   3.303   1.228   4.274  0.2197  0.2955 -1.2290
    1SOL    MW411192   3.375   1.273   4.289  0.2103 -0.0014 -0.2575
    1SOL     OW11193   1.759   0.889   4.255  0.0342 -0.1026 -0.4143
    1SOL    HW211194   1.844   0.855   4.227 -0.3067 -1.3273  0.0116
    1SOL    HW311195   1.744   0.850   4.341 -0.1651  1.5002  0.3089
    1SOL    MW411196   1.768   0.879   4.263 -0.0371 -0.0528 -0.2623
    1SOL     OW11197   1.795   1.757   4.245  0.2569  0.0712 -0.2338
    1SOL    HW211198   1.882   1.723   4.225  0.8369  1.9808 -1.1070
    1SOL    HW311199   1.797   1.847   4.213 -1.6888  0.4782  0.7176
    1SOL    MW411200   1.807   1.765   4.238  0.0768  0.3768 -0.2222
    1SOL     OW11201   2.400   2.020   4.234  0.3026  0.0782  0.4370
    1SOL    HW211202   2.333   1.962   4.197  0.5225 -2.2094  3.4497
    1SOL    HW311203   2.352   2.081   4.289  0.4131  0.4092  0.1690
    1SOL    MW411204   2.385   2.020   4.236  0.3462 -0.1798  0.7987
    1SOL     OW11205   3.142   2.124   4.549  0.2255  0.2765 -0.6221
    1SOL    HW211206   3.211   2.090   4.492  1.0450  2.1616 -0.7657
    1SOL    HW311207   3.146   2.219   4.540 -0.9737  0.5215  1.0221
    1SOL    MW411208   3.152   2.132   4.540  0.1755  0.5577 -0.4239
    1SOL     OW11209   2.067   3.232   4.461 -0.1073  0.1067 -0.5914
    1SOL    HW211210   2.075   3.139   4.481  1.5063  0.4528  0.4615
    1SOL    HW311211   1.973   3.248   4.459 -0.4128 -1.7107 -1.6044
    1SOL    MW411212   2.056   3.222   4.463  0.0651 -0.0870 -0.5865
    1SOL     OW11213   1.852   2.340   4.288  0.0255 -0.2348 -0.2481
    1SOL    HW211214   1.875   2.250   4.311  0.3996 -0.5056 -1.6333
    1SOL    HW311215   1.890   2.393   4.358  0.0665 -1.1208  0.4184
    1SOL    MW411216   1.860   2.335   4.300  0.0802 -0.3877 -0.3433
    1SOL     OW11217   3.694   1.428   4.574  0.1864 -0.3625 -0.1458
    1SOL    HW211218   3.777   1.451   4.618  0.8288 -0.8916 -1.0691
    1SOL    HW311219   3.659   1.512   4.546  0.0473 -0.0640  0.8707
    1SOL    MW411220   3.700   1.442   4.576  0.2527 -0.3929 -0.1340
    1SOL     OW11221   0.428   4.272   4.667 -0.1227 -0.0039 -0.0140
    1SOL    HW211222   0.399   4.362   4.654  1.0546  0.5652  1.2571
    1SOL    HW311223   0.349   4.226   4.697 -0.6131  0.6913 -0.2154
    1SOL    MW411224   0.413   4.278   4.669 -0.0320  0.1636  0.1273
    1SOL     OW11225   2.852   2.495   4.458 -0.1171 -0.0481  0.5853
    1SOL    HW211226   2.802   2.441   4.397  0.6787 -0.1705  0.0285
    1SOL    HW311227   2.868   2.576   4.409  1.8275 -0.7177  0.0238
    1SOL    MW411228   2.848   2.499   4.443  0.2444 -0.1523  0.4373
    1SOL     OW11229   2.873   3.134   4.183  0.3751  0.1791  0.1207
    1SOL    HW211230   2.878   3.115   4.090  0.9866  1.1616 -0.0554
    1SOL    HW311231   2.963   3.150   4.209 -0.1392  3.5334  0.0857
    1SOL    MW411232   2.885   3.134   4.174  0.3881  0.7517  0.0935
    1SOL     OW11233   1.591   2.818   4.492 -0.2518 -0.5574  0.1420
    1SOL    HW211234   1.668   2.870   4.517 -0.1428  0.7250 -2.6647
    1SOL    HW311235   1.517   2.870   4.521 -0.1005  0.1485 -0.7038
    1SOL    MW411236   1.592   2.831   4.499 -0.2173 -0.2954 -0.3395
    1SOL     OW11237   1.151   0.489   4.207  0.5208 -0.3341  0.0428
    1SOL    HW211238   1.165   0.579   4.179 -0.2787 -0.5799 -1.1841
    1SOL    HW311239   1.226   0.441   4.171  0.5595 -0.2882  0.0628
    1SOL    MW411240   1.163   0.494   4.199  0.4205 -0.3605 -0.1163
    1SOL     OW11241   1.191   1.287   4.491  0.4974  0.3654  0.1145
    1SOL    HW211242   1.272   1.327   4.522  0.2472  0.1927  1.0303
    1SOL    HW311243   1.188   1.202   4.535  0.2580 -0.0007 -0.6058
    1SOL    MW411244   1.201   1.281   4.501  0.4328  0.2943  0.1402
    1SOL     OW11245   0.032   2.719   4.584 -0.3860 -0.4115 -0.0685
    1SOL    HW211246  -0.031   2.787   4.561 -0.3566  0.6769  2.8747
    1SOL    HW311247   0.111   2.766   4.609  1.3176 -1.7326 -2.6874
    1SOL    MW411248   0.034   2.734   4.584 -0.1574 -0.4423 -0.0262
    1SOL     OW11249   3.571   2.119   4.334 -0.1734  0.4312 -0.1679
    1SOL    HW211250   3.534   2.190   4.282  0.6434  0.7668 -0.3003
    1SOL    HW311251   3.607   2.162   4.412  0.4930  0.1939 -0.3376
    1SOL    MW411252   3.571   2.134   4.338  0.0222  0.4444 -0.2079
    1SOL     OW11253   4.249   4.291   4.500 -0.1589 -0.3817  0.0114
    1SOL    HW211254   4.179   4.229   4.478  0.3160 -0.8487 -0.1991
    1SOL    HW311255   4.265   4.339   4.419 -2.0204  1.5329  0.7457
    1SOL    MW411256   4.242   4.289   4.486 -0.3419 -0.1907  0.0811
    1SOL     OW11257   3.299   3.091   4.590  0.2615 -0.0815 -0.0517
    1SOL    HW211258   3.380   3.142   4.595 -0.8104  1.4874  1.8878
    1SOL    HW311259   3.301   3.034   4.667  0.4261 -1.4712 -1.0545
    1SOL    MW411260   3.310   3.090   4.600  0.1416 -0.0575  0.0720
    1SOL     OW11261   0.549   3.829   4.687 -0.1880 -0.2745  0.2942
    1SOL    HW211262   0.459   3.854   4.665 -0.0228 -0.7318 -0.9793
    1SOL    HW311263   0.550   3.733   4.677  0.2096 -0.3708  1.1973
    1SOL    MW411264   0.537   3.819   4.682 -0.1138 -0.3476  0.2460
    1SOL     OW11265   3.108   0.320   4.124 -0.2096  0.0188 -0.0794
    1SOL    HW211266   3.029   0.371   4.145 -0.1841  0.2844 -0.6090
    1SOL    HW311267   3.179   0.366   4.169 -0.0416  1.0202 -1.3212
    1SOL    MW411268   3.107   0.333   4.133 -0.1841  0.1860 -0.3133
    1SOL     OW11269   0.282   3.129   4.137  0.4212  0.5780 -0.2482
    1SOL    HW211270   0.362   3.158   4.180 -0.1363 -0.0124  1.2268
    1SOL    HW311271   0.212   3.172   4.185 -0.2479 -0.7138 -0.0256
    1SOL    MW411272   0.283   3.138   4.149  0.2593  0.3295 -0.0238
    1SOL     OW11273   1.717   1.408   4.732  0.2139  0.6066 -0.4409
    1SOL    HW211274   1.787   1.462   4.696  0.6623 -0.2384 -0.8655
    1SOL    HW311275   1.758   1.323   4.748 -0.6812  0.1315 -0.5876
    1SOL    MW411276   1.731   1.404   4.729  0.1550  0.4326 -0.5169
    1SOL     OW11277   2.259   3.490   4.144  0.0079  0.1111 -0.1563
    1SOL    HW211278   2.256   3.400   4.177 -2.0119 -0.0999 -0.8581
    1SOL    HW311279   2.187   3.534   4.188 -0.4600  0.7737 -1.5630
    1SOL    MW411280   2.249   3.484   4.154 -0.3207  0.1709 -0.4344
    1SOL     OW11281   3.815   0.487   4.495 -0.0095 -0.1111  0.2692
    1SOL    HW211282   3.819   0.419   4.562  1.9862 -0.9694 -0.7028
    1SOL    HW311283   3.867   0.559   4.530  1.6932 -0.8645 -0.6830
    1SOL    MW411284   3.822   0.487   4.509  0.4787 -0.3237  0.0153
    1SOL     OW11285   2.338   0.477   4.596  0.4632 -0.1882 -0.2967
    1SOL    HW211286   2.286   0.556   4.584  0.0634 -0.3777  0.1667
    1SOL    HW311287   2.421   0.495   4.551 -0.5380 -0.4329 -2.2853
    1SOL    MW411288   2.342   0.490   4.589  0.2785 -0.2455 -0.4983
    1SOL     OW11289   0.016   3.180   4.495  0.2196  0.1532 -0.1716
    1SOL    HW211290   0.109   3.166   4.513  0.4080 -0.6154 -1.6783
    1SOL    HW311291  -0.025   3.095   4.512  0.1476 -0.1275 -1.6855
    1SOL    MW411292   0.023   3.167   4.500  0.2349  0.0148 -0.5693
    1SOL     OW11293   2.221   0.383   4.190  0.2852  0.2381 -0.0350
    1SOL    HW211294   2.200   0.383   4.096 -0.9631  0.0429  0.2338
    1SOL    HW311295   2.220   0.291   4.214 -0.7333  0.3650  0.4470
    1SOL    MW411296   2.218   0.371   4.180 -0.0136  0.2292  0.0639
    1SOL     OW11297   3.566   0.842   4.260 -0.0854  0.1935  0.3278
    1SOL    HW211298   3.490   0.798   4.221  0.2747  0.0115 -0.1779
    1SOL    HW311299   3.562   0.931   4.225 -0.6523  0.4908  1.1257
    1SOL    MW411300   3.556   0.848   4.250 -0.1128  0.2087  0.3662
    1SOL     OW11301   0.315   2.882   4.499  0.5153 -0.4052  0.3821
    1SOL    HW211302   0.401   2.841   4.507  1.5169  1.5556  0.0513
    1SOL    HW311303   0.281   2.852   4.415  1.2766 -0.4692  0.0979
    1SOL    MW411304   0.322   2.873   4.489  0.7479 -0.1550  0.3009
    1SOL     OW11305   2.168   1.570   4.495  0.2946 -0.0185 -0.3411
    1SOL    HW211306   2.207   1.526   4.420  1.8167  0.3553  0.2186
    1SOL    HW311307   2.170   1.663   4.471  2.5749  0.3033  0.9301
    1SOL    MW411308   2.173   1.577   4.482  0.7966  0.0732 -0.0997
    1SOL     OW11309   0.878   1.741   4.294  0.1191 -0.2304 -0.2087
    1SOL    HW211310   0.868   1.674   4.227 -1.2827  0.9238 -1.2053
    1SOL    HW311311   0.900   1.821   4.245  0.6376  0.2976  0.8509
    1SOL    MW411312   0.880   1.743   4.279  0.0026 -0.0086 -0.2003
    1SOL     OW11313   3.611   1.620   4.238 -0.1732 -0.0629 -0.0768
    1SOL    HW211314   3.591   1.634   4.331  1.1038 -0.4839  0.2787
    1SOL    HW311315   3.532   1.580   4.202 -0.0865 -1.4420  1.2059
    1SOL    MW411316   3.598   1.617   4.246  0.0067 -0.3004  0.1392
    1SOL     OW11317   3.297   2.821   4.257 -0.4236  0.1110  0.5169
    1SOL    HW211318   3.234   2.756   4.225  0.2589  0.1826 -0.9789
    1SOL    HW311319   3.258   2.853   4.339 -0.9372 -1.9267  1.1092
    1SOL    MW411320   3.284   2.817   4.264 -0.4013 -0.1483  0.3977
    1SOL     OW11321   3.938   2.583   4.505 -0.0998  0.5822  0.0570
    1SOL    HW211322   3.967   2.574   4.414  0.4006  1.7071  0.0995
    1SOL    HW311323   3.845   2.563   4.502  0.3058 -1.3530 -0.3621
    1SOL    MW411324   3.930   2.579   4.493  0.0196  0.4754  0.0076
    1SOL     OW11325   0.411   0.116   4.729 -0.0600  0.0222  0.2703
    1SOL    HW211326   0.410   0.048   4.662 -1.0449 -0.4368  0.7414
    1SOL    HW311327   0.421   0.068   4.812 -0.0005  0.5000  0.5408
    1SOL    MW411328   0.412   0.101   4.731 -0.1822  0.0247  0.3681
    1SOL     OW11329   1.561   4.385   4.274 -0.1457  0.4760  0.0708
    1SOL    HW211330   1.639   4.358   4.225 -0.8384 -0.5507 -0.4908
    1SOL    HW311331   1.492   4.325   4.244 -0.6633  0.0589  2.0627
    1SOL    MW411332   1.562   4.373   4.263 -0.3053  0.2861  0.2599
    1SOL     OW11333   3.243   1.966   4.137  0.4898 -0.4386 -0.1733
    1SOL    HW211334   3.207   1.884   4.169  0.6649 -0.3391  0.2889
    1SOL    HW311335   3.168   2.025   4.129  0.6507  0.0346  1.6061
    1SOL    MW411336   3.229   1.963   4.140  0.5343 -0.3630  0.1225
    1SOL     OW11337   3.597   1.120   4.167  0.1154 -0.7007 -0.0390
    1SOL    HW211338   3.583   1.128   4.072 -0.0465 -0.0856  0.0310
    1SOL    HW311339   3.523   1.168   4.205 -0.0518 -1.3097  0.4076
    1SOL    MW411340   3.585   1.128   4.159  0.0718 -0.6999  0.0300
    1SOL     OW11341   1.776   0.331   4.156 -0.0732 -0.0754 -0.3019
    1SOL    HW211342   1.698   0.386   4.161 -0.7965 -1.0324 -0.8127
    1SOL    HW311343   1.754   0.253   4.206 -0.7960 -1.9129 -3.3357
    1SOL    MW411344   1.763   0.328   4.163 -0.2639 -0.4441 -0.7696
    1SOL     OW11345   3.395   4.418   4.250  0.5178  0.1584 -0.2173
    1SOL    HW211346   3.403   4.434   4.344  2.7915  1.0625 -0.5275
    1SOL    HW311347   3.366   4.502   4.214 -0.4500 -0.2145 -0.3289
    1SOL    MW411348   3.392   4.431   4.258  0.6905  0.2289 -0.2732
    1SOL     OW11349   2.452   0.567   4.182 -0.2919 -0.1406 -0.2399
    1SOL    HW211350   2.429   0.655   4.151 -1.0093 -1.1210 -2.5981
    1SOL    HW311351   2.369   0.520   4.184  0.1865 -0.9581  0.3937
    1SOL    MW411352   2.438   0.573   4.178 -0.3235 -0.3778 -0.4673
    1SOL     OW11353   2.691   2.642   4.129  0.5102 -0.6882  0.2057
    1SOL    HW211354   2.609   2.691   4.122  0.7495 -0.2165  0.6616
    1SOL    HW311355   2.666   2.557   4.163 -0.0260 -1.2153 -1.4636
    1SOL    MW411356   2.677   2.637   4.133  0.4709 -0.6955  0.0453
    1SOL     OW11357   2.453   1.259   4.226 -0.0413 -0.2793  0.1560
    1SOL    HW211358   2.542   1.226   4.212 -0.0480 -0.0460 -0.4422
    1SOL    HW311359   2.451   1.344   4.184 -0.3775 -0.0187  0.6870
    1SOL    MW411360   2.464   1.266   4.219 -0.0865 -0.2142  0.1473
    1SOL     OW11361   3.145   3.506   4.187 -0.2257 -0.2510  0.4554
    1SOL    HW211362   3.163   3.520   4.094 -0.7525  1.1464  0.5447
    1SOL    HW311363   3.053   3.532   4.198  0.2082  0.8551  1.5936
    1SOL    MW411364   3.135   3.512   4.176 -0.2379  0.0792  0.6170
    1SOL     OW11365   3.545   3.983   4.542  0.0523 -0.2095 -0.1899
    1SOL    HW211366   3.549   4.002   4.449 -1.2413  1.3296  0.0567
    1SOL    HW311367   3.496   4.056   4.580  0.8329 -0.6477  1.7370
    1SOL    MW411368   3.539   3.995   4.535 -0.0155 -0.0644  0.0968
    1SOL     OW11369   3.845   1.218   4.202  0.1797 -0.3702  0.0322
    1SOL    HW211370   3.834   1.312   4.188 -0.3227 -0.1414  1.8726
    1SOL    HW311371   3.757   1.181   4.190  0.4087 -0.6453 -0.8682
    1SOL    MW411372   3.832   1.226   4.199  0.1438 -0.3765  0.1564
    1SOL     OW11373   3.164   1.719   4.222  0.0297  0.3119 -0.0670
    1SOL    HW211374   3.165   1.709   4.317  0.9105  0.2769 -0.0747
    1SOL    HW311375   3.080   1.681   4.195  0.1666 -0.5051  0.6119
    1SOL    MW411376   3.153   1.712   4.231  0.1638  0.1994  0.0215
    1SOL     OW11377   3.831   0.283   4.676  0.4429  0.1622 -0.0035
    1SOL    HW211378   3.886   0.208   4.655 -1.3924 -1.0209 -0.6841
    1SOL    HW311379   3.872   0.322   4.753  1.9497 -0.9654 -0.2034
    1SOL    MW411380   3.844   0.279   4.683  0.3994 -0.1427 -0.1197
    1SOL     OW11381   2.528   1.526   4.768 -0.4476  0.2439  0.1087
    1SOL    HW211382   2.558   1.617   4.768 -0.4703  0.2545 -0.2084
    1SOL    HW311383   2.590   1.480   4.711  0.7028 -0.3334  1.8058
    1SOL    MW411384   2.540   1.532   4.760 -0.2987  0.1692  0.2909
    1SOL     OW11385   4.259   0.510   4.234  0.2272  0.1206 -0.2880
    1SOL    HW211386   4.272   0.587   4.178 -1.5635  0.0167 -0.8962
    1SOL    HW311387   4.189   0.461   4.190  0.1106 -0.9280  1.0529
    1SOL    MW411388   4.251   0.514   4.221 -0.0243 -0.0315 -0.1912
    1SOL     OW11389   4.196   0.493   4.505  0.1277  0.0468 -0.1110
    1SOL    HW211390   4.204   0.476   4.411  2.5151  1.3248 -0.1665
    1SOL    HW311391   4.230   0.413   4.547  1.7057  0.5651 -0.3606
    1SOL    MW411392   4.202   0.480   4.498  0.6509  0.2838 -0.1512
    1SOL     OW11393   2.019   3.053   4.098 -0.1760  0.3228  0.3132
    1SOL    HW211394   2.014   2.959   4.118  0.3413  0.2238  0.0023
    1SOL    HW311395   1.940   3.090   4.137 -0.2096 -0.1893  0.7446
    1SOL    MW411396   2.008   3.045   4.106 -0.1123  0.2422  0.3290
    1SOL     OW11397   0.946   1.688   4.576 -0.2047 -0.1425 -0.0105
    1SOL    HW211398   1.014   1.735   4.625 -0.5468  1.0072 -0.6193
    1SOL    HW311399   0.955   1.719   4.486 -0.2999 -1.4168 -0.4668
    1SOL    MW411400   0.956   1.699   4.571 -0.2624 -0.1590 -0.1507
    1SOL     OW11401   0.570   3.263   4.533  0.0381  0.1478  0.3941
    1SOL    HW211402   0.563   3.353   4.566  0.6456 -0.3792  2.0184
    1SOL    HW311403   0.662   3.242   4.541 -0.3711 -1.2203  1.6765
    1SOL    MW411404   0.581   3.272   4.538  0.0642 -0.1023  0.7777
    1SOL     OW11405   3.203   0.679   4.489  0.0264  0.1764 -0.2333
    1SOL    HW211406   3.131   0.739   4.470 -0.1151  0.1684  0.2734
    1SOL    HW311407   3.279   0.736   4.503  0.5513  0.1109 -2.5922
    1SOL    MW411408   3.204   0.694   4.488  0.0768  0.1667 -0.4778
    1SOL     OW11409   3.313   0.727   4.212  0.2752  0.2185  0.3979
    1SOL    HW211410   3.289   0.647   4.259 -0.4794 -0.0975 -0.5186
    1SOL    HW311411   3.250   0.793   4.243  0.8561  0.4523  1.1038
    1SOL    MW411412   3.301   0.725   4.222  0.2527  0.2077  0.3710
    1SOL     OW11413   3.975   0.685   4.609 -0.0741  0.0335  0.1608
    1SOL    HW211414   4.059   0.662   4.570 -1.1338 -1.7623 -1.1336
    1SOL    HW311415   3.958   0.775   4.580  0.7817 -0.0669 -0.6666
    1SOL    MW411416   3.984   0.694   4.600 -0.1009 -0.2167 -0.1187
    1SOL     OW11417   2.459   2.348   3.829 -0.0774 -0.3156  0.3770
    1SOL    HW211418   2.455   2.346   3.925 -1.1774 -0.5289  0.3371
    1SOL    HW311419   2.461   2.256   3.803  2.5926 -0.2508  0.2569
    1SOL    MW411420   2.459   2.336   3.839  0.1297 -0.3352  0.3560
    1SOL     OW11421   2.235   4.112   4.471  0.7590  0.1563  0.0143
    1SOL    HW211422   2.223   4.079   4.382  0.3161 -0.3810  0.2736
    1SOL    HW311423   2.168   4.179   4.481  0.2310 -0.4104  0.2556
    1SOL    MW411424   2.225   4.116   4.461  0.6309  0.0110  0.0806
    1SOL     OW11425   3.449   1.273   4.607  0.3485 -0.2872 -0.0129
    1SOL    HW211426   3.428   1.270   4.513 -1.1040  0.8728  0.2638
    1SOL    HW311427   3.537   1.310   4.610  0.7544 -1.1304 -0.9569
    1SOL    MW411428   3.458   1.277   4.595  0.2105 -0.2455 -0.1016
    1SOL     OW11429   3.128   0.083   4.256 -0.6261 -0.1977  0.4309
    1SOL    HW211430   3.122   0.172   4.221 -0.4953 -0.5841 -0.5838
    1SOL    HW311431   3.126   0.095   4.351  0.7906  0.9860  0.3267
    1SOL    MW411432   3.127   0.096   4.264 -0.4220 -0.0925  0.2832
    1SOL     OW11433   2.689   3.507   4.112 -0.8172  0.0561  0.1132
    1SOL    HW211434   2.761   3.526   4.173 -0.2661  0.2450 -0.5940
    1SOL    HW311435   2.611   3.535   4.159 -0.3063  1.1113  0.3605
    1SOL    MW411436   2.688   3.513   4.126 -0.6773  0.2205  0.0520
    1SOL     OW11437   1.095   3.842   4.103 -0.5587 -0.0796  0.1204
    1SOL    HW211438   1.165   3.891   4.146  0.9345  0.2475 -2.6087
    1SOL    HW311439   1.096   3.757   4.145  1.3216  0.0097  0.2900
    1SOL    MW411440   1.104   3.838   4.114 -0.1136 -0.0246 -0.2174
    1SOL     OW11441   0.221   0.504   4.484  0.1558 -0.0939  0.0454
    1SOL    HW211442   0.139   0.547   4.507 -0.8632 -1.6348 -0.6296
    1SOL    HW311443   0.232   0.521   4.391  0.4136 -0.2105  0.0550
    1SOL    MW411444   0.212   0.512   4.475  0.0554 -0.3126 -0.0429
    1SOL     OW11445   0.647   2.052   4.242 -0.1362 -0.3061 -0.8885
    1SOL    HW211446   0.725   2.003   4.217  0.8336  0.1341  1.1890
    1SOL    HW311447   0.657   2.137   4.199 -0.2791 -0.8022 -1.9270
    1SOL    MW411448   0.658   2.057   4.233 -0.0271 -0.3133 -0.7520
    1SOL     OW11449   0.480   2.774   4.126 -0.1195 -0.1023 -0.3949
    1SOL    HW211450   0.473   2.770   4.031  1.1818  2.0253 -0.6064
    1SOL    HW311451   0.391   2.795   4.156 -0.6296 -1.2311 -1.0884
    1SOL    MW411452   0.467   2.776   4.118 -0.0151  0.0296 -0.5140
    1SOL     OW11453   1.334   2.461   4.292 -0.4552 -0.4775 -0.3756
    1SOL    HW211454   1.417   2.413   4.283 -0.1854  0.0338 -0.6378
    1SOL    HW311455   1.349   2.543   4.245 -0.6623  0.1793  0.6788
    1SOL    MW411456   1.347   2.465   4.284 -0.4469 -0.3235 -0.2718
    1SOL     OW11457   2.911   2.968   4.609  0.4531  0.0894  0.7141
    1SOL    HW211458   2.858   2.935   4.682 -1.2583  0.2720 -0.4052
    1SOL    HW311459   2.850   2.971   4.535  2.1318  0.0389 -0.6890
    1SOL    MW411460   2.896   2.964   4.609  0.4489  0.1068  0.3815
    1SOL     OW11461   2.658   0.897   4.241  0.2122  0.2399  0.2129
    1SOL    HW211462   2.733   0.851   4.205  1.3000  1.4229  0.9195
    1SOL    HW311463   2.643   0.856   4.327  0.1279  0.0856  0.1232
    1SOL    MW411464   2.666   0.886   4.248  0.3445  0.3756  0.2937
    1SOL     OW11465   0.011   0.111   4.519  0.3018  0.1330  0.0082
    1SOL    HW211466   0.078   0.161   4.566  1.1857 -0.1182 -0.9631
    1SOL    HW311467   0.012   0.148   4.431 -0.1843 -0.5074 -0.2670
    1SOL    MW411468   0.020   0.123   4.514  0.3538  0.0154 -0.1559
    1SOL     OW11469   0.024   3.568   4.705  0.1939  0.2282  0.1890
    1SOL    HW211470   0.018   3.545   4.798 -0.3634  1.5982  0.4917
    1SOL    HW311471  -0.028   3.501   4.661  1.7979 -1.4113  0.6863
    1SOL    MW411472   0.017   3.556   4.712  0.3320  0.1929  0.2942
    1SOL     OW11473   3.054   3.200   4.517 -0.3550  0.0258 -0.4150
    1SOL    HW211474   2.987   3.140   4.549  0.7049 -1.4939 -0.9897
    1SOL    HW311475   3.136   3.167   4.553  0.3373  0.6738 -1.3543
    1SOL    MW411476   3.056   3.188   4.526 -0.1240 -0.0894 -0.6146
    1SOL     OW11477   1.459   1.421   4.541  0.2508 -0.1478  0.0277
    1SOL    HW211478   1.538   1.416   4.595  0.2439  1.6344  0.2498
    1SOL    HW311479   1.490   1.403   4.452  1.0243  0.9774  0.0421
    1SOL    MW411480   1.474   1.418   4.536  0.3519  0.2358  0.0587
    1SOL     OW11481   1.830   1.772   4.508 -0.0422 -0.2305 -0.3756
    1SOL    HW211482   1.805   1.769   4.416  0.1274 -0.4685 -0.4150
    1SOL    HW311483   1.917   1.812   4.507 -0.0690 -0.1706 -0.3127
    1SOL    MW411484   1.838   1.777   4.496 -0.0234 -0.2540 -0.3729
    1SOL     OW11485   3.939   1.919   4.104 -0.5200  0.0315  0.0169
    1SOL    HW211486   3.844   1.909   4.113 -0.4918 -0.8006 -0.6497
    1SOL    HW311487   3.976   1.849   4.157 -0.2769 -0.0802 -0.3025
    1SOL    MW411488   3.931   1.909   4.112 -0.4842 -0.0929 -0.1130
    1SOL     OW11489   2.893   4.646   4.132 -0.2017 -0.1600 -0.0385
    1SOL    HW211490   2.974   4.677   4.172  0.2000  1.3809 -1.9372
    1SOL    HW311491   2.869   4.568   4.182  2.6589 -0.8597  0.2955
    1SOL    MW411492   2.900   4.640   4.144  0.2286 -0.0496 -0.2451
    1SOL     OW11493   0.445   0.646   4.584 -0.2076  0.5901 -0.2798
    1SOL    HW211494   0.379   0.582   4.558 -0.1005  0.1400  0.5462
    1SOL    HW311495   0.528   0.598   4.579 -0.3426 -0.0107  2.4755
    1SOL    MW411496   0.447   0.631   4.580 -0.2113  0.4514  0.1931
    1SOL     OW11497   1.576   4.221   4.496  0.1643  0.2184 -0.2793
    1SOL    HW211498   1.571   4.280   4.421  1.4422  1.4125  0.5535
    1SOL    HW311499   1.537   4.271   4.568  0.0036 -0.4825  0.1259
    1SOL    MW411500   1.570   4.235   4.496  0.3117  0.2837 -0.1163
    1SOL     OW11501   3.765   1.881   4.605  0.4946  0.1194 -0.2658
    1SOL    HW211502   3.813   1.959   4.578  0.3476 -0.3071 -1.7850
    1SOL    HW311503   3.702   1.913   4.670  0.6943  1.2034 -0.5921
    1SOL    MW411504   3.763   1.895   4.610  0.5016  0.2062 -0.5088
    1SOL     OW11505   4.324   2.347   4.697  0.5492  0.0103  0.8124
    1SOL    HW211506   4.403   2.380   4.656  0.1023  0.1090  0.0148
    1SOL    HW311507   4.351   2.318   4.784  1.6062 -0.6555  0.2692
    1SOL    MW411508   4.338   2.347   4.703  0.6294 -0.0648  0.6351
    1SOL     OW11509   2.883   3.730   4.488 -0.0407  0.3589  0.0712
    1SOL    HW211510   2.847   3.644   4.513 -0.9746  0.8899  0.5593
    1SOL    HW311511   2.969   3.732   4.531 -0.1385 -0.2036  0.3083
    1SOL    MW411512   2.890   3.719   4.497 -0.1769  0.3548  0.1674
    1SOL     OW11513   1.355   3.730   4.543 -0.5705 -0.2264  0.2361
    1SOL    HW211514   1.377   3.704   4.453  1.9455 -0.5986  0.9296
    1SOL    HW311515   1.371   3.824   4.545 -1.8234  0.0035 -0.0234
    1SOL    MW411516   1.360   3.739   4.531 -0.4039 -0.2451  0.2928
    1SOL     OW11517   1.833   3.483   4.075 -0.1120 -0.4340  0.3016
    1SOL    HW211518   1.815   3.506   3.983 -0.7631 -0.7196  0.3555
    1SOL    HW311519   1.766   3.530   4.124  0.0179 -0.5695  0.6069
    1SOL    MW411520   1.822   3.492   4.069 -0.1807 -0.4897  0.3490
    1SOL     OW11521   1.388   1.702   4.495 -0.3161 -0.3619  0.6014
    1SOL    HW211522   1.318   1.721   4.557 -0.8867 -0.2599 -0.0681
    1SOL    HW311523   1.405   1.608   4.504 -0.9653 -0.5058  0.3235
    1SOL    MW411524   1.381   1.692   4.504 -0.4771 -0.3674  0.4764
    1SOL     OW11525   2.257   2.197   4.626 -0.0448 -0.1973 -0.0852
    1SOL    HW211526   2.253   2.206   4.531 -0.2212  0.4837 -0.0197
    1SOL    HW311527   2.312   2.271   4.654  0.5006 -0.7459  0.2895
    1SOL    MW411528   2.264   2.208   4.617  0.0038 -0.1795 -0.0272
    1SOL     OW11529   0.861   3.549   4.172  0.1244  0.1742 -0.7266
    1SOL    HW211530   0.880   3.456   4.182 -1.3135 -0.1350 -0.8492
    1SOL    HW311531   0.863   3.563   4.077  1.6869  0.5620 -0.6479
    1SOL    MW411532   0.864   3.538   4.161  0.1409  0.1848 -0.7329
    1SOL     OW11533   4.459   1.446   4.308 -0.0005  0.2340 -0.7781
    1SOL    HW211534   4.476   1.467   4.400  0.2265  0.4213 -0.8626
    1SOL    HW311535   4.421   1.358   4.310  1.6755 -0.4905 -0.6501
    1SOL    MW411536   4.456   1.437   4.320  0.2508  0.1631 -0.7730
    1SOL     OW11537   4.071   3.268   4.528 -0.6512  0.0304  0.0959
    1SOL    HW211538   4.056   3.238   4.438  0.3554  0.8020 -0.3275
    1SOL    HW311539   4.069   3.187   4.580 -0.5371 -0.4959 -0.7026
    1SOL    MW411540   4.069   3.253   4.523 -0.5040  0.0627 -0.0653
    1SOL     OW11541   3.221   2.369   4.241 -0.0332 -0.0528  0.3080
    1SOL    HW211542   3.190   2.378   4.331 -0.6881  1.5542 -0.0425
    1SOL    HW311543   3.165   2.302   4.202  0.8501 -1.4101  1.3329
    1SOL    MW411544   3.209   2.362   4.248 -0.0031 -0.0200  0.3972
    1SOL     OW11545   0.028   4.262   4.155  0.5014  0.6431  0.2404
    1SOL    HW211546  -0.038   4.325   4.186 -1.3506 -0.1178 -2.0948
    1SOL    HW311547   0.022   4.265   4.060  1.3338 -2.0946  0.0609
    1SOL    MW411548   0.019   4.271   4.147  0.3672  0.1812 -0.0911
    1SOL     OW11549   2.020   2.438   4.098 -0.0072  0.2156 -0.0184
    1SOL    HW211550   1.953   2.398   4.153 -0.2640 -0.7224 -1.0014
    1SOL    HW311551   2.101   2.431   4.149 -0.4213  0.2365  0.6433
    1SOL    MW411552   2.022   2.432   4.112 -0.0956  0.0947 -0.0610
    1SOL     OW11553   0.905   0.342   4.156 -0.6726 -0.4632  0.1882
    1SOL    HW211554   0.986   0.386   4.184 -0.4470 -1.1561  0.6484
    1SOL    HW311555   0.835   0.403   4.180 -0.3017  0.0641 -0.0519
    1SOL    MW411556   0.907   0.356   4.163 -0.5939 -0.4851  0.2170
    1NA      NA11557   3.190   3.942   0.503  0.1540  0.1014  0.1068
    1NA      NA11558   0.853   2.432   0.684  0.2827 -0.2034 -0.1270
   4.49070   4.66690  10.00000
