Gromacs Runs On Most of All Computer Systems in water
11584
    1U      O5'    1   4.274   3.895   4.886  0.1725 -0.7517  0.4293
    1U      H5T    2   4.357   3.855   4.912  0.1208 -0.3640  1.2146
    1U      C5'    3   4.179   3.784   4.851  0.2452 -0.4293 -0.4739
    1U     H5'1    4   4.151   3.734   4.944  0.5368  0.5536  0.1553
    1U     H5'2    5   4.226   3.713   4.784 -0.6118 -0.7984 -0.6841
    1U      C4'    6   4.053   3.853   4.792 -0.6438  0.2349 -0.5968
    1U      H4'    7   3.984   3.770   4.774 -0.5023 -0.5264  2.1247
    1U      O4'    8   3.995   3.944   4.882  0.4844 -0.0046  0.3597
    1U      C1'    9   3.960   4.062   4.812 -0.1612 -0.1692 -0.8353
    1U      H1'   10   3.859   4.049   4.774 -0.9423 -1.0661  1.4540
    1U       N1   11   3.955   4.188   4.896 -0.0507  0.3327 -0.2340
    1U       C6   12   4.044   4.208   4.995  0.3692  0.6332  0.0957
    1U       H6   13   4.116   4.133   5.025  0.4553  0.7859  0.2700
    1U       C5   14   4.057   4.339   5.043  0.6698  1.0742 -0.2007
    1U       H5   15   4.132   4.356   5.119 -0.8664  2.1749  1.1033
    1U       C4   16   3.985   4.448   4.989  0.0842  0.0220 -0.0642
    1U       O4   17   4.008   4.570   5.010  0.7277  0.0884 -0.2518
    1U       N3   18   3.884   4.412   4.910 -0.0827  0.0624 -0.2358
    1U       H3   19   3.819   4.486   4.892 -0.1532 -0.0715 -0.5376
    1U       C2   20   3.868   4.290   4.858 -0.4139 -0.2201  0.1951
    1U       O2   21   3.766   4.274   4.787 -0.1610  0.6793 -0.0176
    1U      C3'   22   4.089   3.934   4.664 -0.8530  0.1658 -0.0798
    1U      H3'   23   4.197   3.933   4.646 -0.9528  0.8558 -0.7330
    1U      C2'   24   4.052   4.078   4.700 -0.4712  0.3974  0.3180
    1U     H2'1   25   4.143   4.123   4.740  0.2588 -2.2695  1.7843
    1U      O2'   26   4.000   4.151   4.592 -0.0114  0.6168 -0.1053
    1U     HO'2   27   3.994   4.091   4.517 -0.9821  0.5427  0.0269
    1U      O3'   28   4.024   3.891   4.544  0.7211 -0.0356  0.4916
    2G        P   29   4.067   3.747   4.478 -0.3862  0.0753  0.3140
    2G      O1P   30   4.203   3.715   4.532 -0.6931 -0.2521  0.0079
    2G      O2P   31   4.055   3.761   4.330  0.1322  0.4737 -0.7230
    2G      O5'   32   3.953   3.645   4.530  0.0319  0.1718  0.1620
    2G      C5'   33   3.979   3.536   4.613 -0.3562 -0.1266 -0.0640
    2G     H5'1   34   4.057   3.561   4.684 -0.6312  0.6192 -0.0172
    2G     H5'2   35   4.020   3.458   4.549  1.2466 -0.0801  0.8854
    2G      C4'   36   3.851   3.490   4.687 -0.5866  0.3796 -0.2388
    2G      H4'   37   3.876   3.393   4.729 -0.7418  0.0026 -1.0168
    2G      O4'   38   3.812   3.589   4.786  0.1350  0.3058  0.6787
    2G      C1'   39   3.670   3.582   4.783  0.2877  0.1790 -0.3904
    2G      H1'   40   3.640   3.545   4.881  1.5353 -0.8544 -0.3944
    2G       N9   41   3.615   3.714   4.757 -0.2477 -0.0970  0.4746
    2G       C8   42   3.667   3.811   4.675  0.0609  0.0056  0.3164
    2G       H8   43   3.748   3.793   4.607 -1.3728  0.4381 -1.5256
    2G       N7   44   3.608   3.929   4.675  0.5353 -0.2390 -0.2872
    2G       C5   45   3.506   3.905   4.772  0.5020 -0.0528  0.5425
    2G       C6   46   3.405   3.996   4.825  0.1879 -0.3111 -0.0225
    2G       O6   47   3.382   4.113   4.798 -0.0007 -0.4978 -0.7170
    2G       N1   48   3.321   3.941   4.923 -0.1071  0.6319 -0.4494
    2G       H1   49   3.256   3.998   4.974 -0.8618 -0.4609 -0.1589
    2G       C2   50   3.328   3.810   4.956  0.0330 -1.1142  0.0609
    2G       N2   51   3.230   3.765   5.024 -0.3618 -0.1431  0.2716
    2G      H21   52   3.169   3.836   5.062  0.7643  0.7987  0.3570
    2G      H22   53   3.213   3.666   5.038  0.0924 -0.2789 -0.1452
    2G       N3   54   3.421   3.722   4.914  0.0494  0.1599 -0.2361
    2G       C4   55   3.511   3.775   4.826  0.2944 -0.1762  0.6772
    2G      C3'   56   3.739   3.463   4.587 -0.0380  0.6336 -0.1271
    2G      H3'   57   3.731   3.538   4.509 -2.0032 -0.1419 -0.6935
    2G      C2'   58   3.618   3.489   4.676  0.0485 -0.5908  0.3740
    2G     H2'1   59   3.550   3.544   4.611  1.2388  0.8453  0.3189
    2G      O2'   60   3.559   3.370   4.734  0.4622 -0.0550  0.2976
    2G     HO'2   61   3.522   3.321   4.660 -2.3661  0.3344  1.4013
    2G      O3'   62   3.742   3.334   4.529 -0.3087  0.3660  0.4303
    2G      H3T   63   3.739   3.274   4.604 -1.6036  1.9758  1.6993
    5SOL     OW   64   4.410   3.793   0.490 -0.1084  0.2959 -0.4025
    5SOL    HW2   65   4.458   3.729   0.437  0.7572  0.3947  0.2372
    5SOL    HW3   66   4.435   3.772   0.580 -2.0992 -0.3005  0.0201
    5SOL    MW4   67   4.420   3.782   0.495 -0.2570  0.2303 -0.2623
    6SOL     OW   68   1.815   2.162   0.669 -0.2428 -0.1496 -0.7292
    6SOL    HW2   69   1.872   2.210   0.730 -0.9606 -0.7228  0.4054
    6SOL    HW3   70   1.872   2.142   0.594  1.2092 -1.1362  0.5909
    6SOL    MW4   71   1.830   2.166   0.667 -0.1459 -0.3555 -0.4053
    7SOL     OW   72   3.341   2.009   1.253  0.0509  0.2291  0.8045
    7SOL    HW2   73   3.337   2.094   1.209  0.2293  0.9911  2.2482
    7SOL    HW3   74   3.275   1.956   1.208 -0.0445  1.1173 -0.1169
    7SOL    MW4   75   3.332   2.013   1.241  0.0615  0.4463  0.8734
    8SOL     OW   76   3.588   0.325   0.858  0.2979  0.1588 -0.4545
    8SOL    HW2   77   3.668   0.300   0.811 -0.3385 -1.4721 -0.7141
    8SOL    HW3   78   3.549   0.394   0.805  1.3844  0.7561 -0.4802
    8SOL    MW4   79   3.593   0.331   0.845  0.3572  0.0224 -0.4920
    9SOL     OW   80   4.043   2.688   0.827 -0.0277 -0.3431  0.0930
    9SOL    HW2   81   3.953   2.656   0.819  0.0094 -0.6536  0.8490
    9SOL    HW3   82   4.039   2.780   0.800 -0.8014 -0.0270  1.2636
    9SOL    MW4   83   4.031   2.696   0.823 -0.1249 -0.3424  0.3472
   10SOL     OW   84   0.685   1.262   0.587  0.2009  0.0726 -0.3701
   10SOL    HW2   85   0.748   1.333   0.590 -0.7146  0.9584 -1.6204
   10SOL    HW3   86   0.661   1.247   0.678  2.0644 -0.1537  0.0981
   10SOL    MW4   87   0.690   1.269   0.599  0.3260  0.1596 -0.4734
   11SOL     OW   88   0.067   3.579   0.392 -0.1658 -0.2732  0.3778
   11SOL    HW2   89  -0.012   3.547   0.347  0.0941 -0.8452  0.3177
   11SOL    HW3   90   0.124   3.502   0.396 -0.1102 -0.1830  1.5196
   11SOL    MW4   91   0.064   3.565   0.386 -0.1242 -0.3369  0.5205
   12SOL     OW   92   3.991   1.869   0.538  0.5790  0.2913  0.1401
   12SOL    HW2   93   3.906   1.899   0.507  1.0454 -0.9536 -2.4266
   12SOL    HW3   94   4.054   1.927   0.498  1.0538  0.1998  0.7416
   12SOL    MW4   95   3.988   1.880   0.529  0.7031  0.1150 -0.1191
   13SOL     OW   96   2.276   2.156   0.784 -0.0486  0.3908 -0.0686
   13SOL    HW2   97   2.263   2.063   0.802 -1.5449  0.2905 -1.4839
   13SOL    HW3   98   2.352   2.181   0.837 -0.8211 -1.1686  1.8518
   13SOL    MW4   99   2.284   2.147   0.793 -0.3479  0.1719 -0.0019
   14SOL     OW  100   2.153   1.149   0.333 -0.1106 -0.0347 -0.0146
   14SOL    HW2  101   2.236   1.109   0.308 -0.9118 -1.6417 -0.1343
   14SOL    HW3  102   2.178   1.228   0.380  1.4779 -0.1286 -0.6673
   14SOL    MW4  103   2.168   1.154   0.336 -0.0067 -0.2590 -0.1165
   15SOL     OW  104   3.316   3.329   0.532  0.2894  0.4693  0.3639
   15SOL    HW2  105   3.312   3.243   0.489  0.4183 -1.0448  3.2695
   15SOL    HW3  106   3.250   3.381   0.486 -0.3933 -1.4284 -0.8960
   15SOL    MW4  107   3.306   3.324   0.520  0.2162  0.0191  0.5810
   16SOL     OW  108   1.852   1.908   0.820 -0.0384 -0.0347 -0.4445
   16SOL    HW2  109   1.834   1.989   0.772 -1.0041 -0.5802 -1.0019
   16SOL    HW3  110   1.826   1.928   0.910 -0.6608  0.1388 -0.6623
   16SOL    MW4  111   1.846   1.921   0.826 -0.2481 -0.0838 -0.5468
   17SOL     OW  112   2.860   1.937   0.345  0.0942 -0.4860  0.2055
   17SOL    HW2  113   2.886   1.860   0.396  1.3316 -0.1305  0.1231
   17SOL    HW3  114   2.920   1.937   0.270  1.3660  1.6340  1.1936
   17SOL    MW4  115   2.872   1.927   0.342  0.4253 -0.1593  0.3250
   18SOL     OW  116   3.407   0.731   0.858 -0.5920  0.0335  0.1335
   18SOL    HW2  117   3.353   0.794   0.811 -0.0651  0.9831  0.7920
   18SOL    HW3  118   3.426   0.662   0.794  0.5691  1.5726 -1.1935
   18SOL    MW4  119   3.403   0.730   0.843 -0.3693  0.3618  0.0453
   19SOL     OW  120   0.065   1.639   0.506  0.0261 -0.0520 -0.6133
   19SOL    HW2  121   0.078   1.690   0.586 -0.2238 -0.2950 -0.4142
   19SOL    HW3  122  -0.031   1.637   0.495 -0.0483 -1.5535  0.0901
   19SOL    MW4  123   0.054   1.645   0.516 -0.0167 -0.2823 -0.4943
   20SOL     OW  124   4.015   4.243   1.164  0.6343  0.4236  0.3542
   20SOL    HW2  125   3.943   4.294   1.201 -0.6272 -1.1234  0.1097
   20SOL    HW3  126   4.002   4.250   1.069 -0.9761 -2.2551  0.3267
   20SOL    MW4  127   4.004   4.250   1.156  0.2551 -0.1340  0.3182
   21SOL     OW  128   1.582   0.678   0.396  0.0873 -0.2348  0.1277
   21SOL    HW2  129   1.559   0.766   0.424  0.6709 -1.0232  3.3208
   21SOL    HW3  130   1.499   0.630   0.399 -0.6218  0.6188 -3.5817
   21SOL    MW4  131   1.568   0.683   0.400  0.0707 -0.2261  0.0595
   22SOL     OW  132   0.784   1.937   0.906 -0.2606  0.1150  0.0758
   22SOL    HW2  133   0.694   1.911   0.886 -0.2185 -0.1322  0.2017
   22SOL    HW3  134   0.797   2.018   0.857 -0.1735 -0.4728 -0.9018
   22SOL    MW4  135   0.774   1.944   0.897 -0.2435  0.0049 -0.0366
   23SOL     OW  136   3.601   0.104   1.252 -0.2117 -0.1387 -0.0350
   23SOL    HW2  137   3.522   0.053   1.237 -0.1284 -0.7265  1.4289
   23SOL    HW3  138   3.672   0.049   1.218 -0.4418  0.5139 -1.6108
   23SOL    MW4  139   3.600   0.090   1.246 -0.2308 -0.1302 -0.0499
   24SOL     OW  140   0.389   1.894   1.099  0.4014 -0.3698  0.3588
   24SOL    HW2  141   0.453   1.948   1.145 -0.6518  0.4607  0.8751
   24SOL    HW3  142   0.398   1.807   1.138  0.2286  0.0816  1.4209
   24SOL    MW4  143   0.398   1.889   1.110  0.2396 -0.2005  0.5671
   25SOL     OW  144   1.730   0.657   0.764  0.1378 -0.0390  0.8281
   25SOL    HW2  145   1.656   0.694   0.812 -1.3546 -1.3797 -0.3752
   25SOL    HW3  146   1.743   0.570   0.802 -0.1782 -0.5764 -0.2795
   25SOL    MW4  147   1.722   0.651   0.775 -0.1007 -0.2868  0.5233
   26SOL     OW  148   1.067   0.278   0.672 -0.0391  0.4134 -0.4773
   26SOL    HW2  149   1.065   0.292   0.577 -0.3187  0.8156 -0.4139
   26SOL    HW3  150   1.127   0.345   0.705  0.9309 -0.4391 -0.4863
   26SOL    MW4  151   1.075   0.289   0.664  0.0521  0.3540 -0.4700
   27SOL     OW  152   3.161   3.703   0.733 -0.1929  0.1206  0.3262
   27SOL    HW2  153   3.159   3.622   0.784 -0.4537  0.6022  1.0938
   27SOL    HW3  154   3.218   3.761   0.783  1.6360 -0.2559 -1.2618
   27SOL    MW4  155   3.168   3.700   0.746  0.0141  0.1345  0.2180
   28SOL     OW  156   2.202   4.508   0.827 -0.4095  0.0922 -0.2798
   28SOL    HW2  157   2.192   4.502   0.732 -1.0773 -0.8760 -0.1658
   28SOL    HW3  158   2.210   4.417   0.855  1.0980  0.4497  0.4646
   28SOL    MW4  159   2.202   4.495   0.818 -0.2985  0.0114 -0.1666
   29SOL     OW  160   0.427   0.691   0.527  0.2798 -0.0033 -0.0505
   29SOL    HW2  161   0.381   0.761   0.481 -0.5093  0.4399  1.3819
   29SOL    HW3  162   0.438   0.623   0.461 -1.7808  0.1842 -0.6387
   29SOL    MW4  163   0.422   0.691   0.513 -0.0962  0.0800  0.0610
   30SOL     OW  164   2.694   0.126   1.240 -0.3284 -0.3092 -0.0507
   30SOL    HW2  165   2.674   0.099   1.330 -1.6409 -0.2279 -0.3138
   30SOL    HW3  166   2.772   0.076   1.217 -0.5419 -1.0495  0.7935
   30SOL    MW4  167   2.702   0.116   1.249 -0.5295 -0.3961  0.0260
   31SOL     OW  168   2.403   3.287   0.486  0.9250  0.2129 -0.1402
   31SOL    HW2  169   2.440   3.318   0.568  0.4025  0.2750  0.0744
   31SOL    HW3  170   2.309   3.277   0.504  1.0138 -1.0535 -0.3280
   31SOL    MW4  171   2.395   3.290   0.499  0.8678  0.0541 -0.1367
   32SOL     OW  172   4.305   0.002   0.883  0.0223 -0.0687  0.6261
   32SOL    HW2  173   4.327  -0.009   0.975  0.5322 -1.5163  0.3480
   32SOL    HW3  174   4.229  -0.055   0.869 -0.8441  1.1285  0.4486
   32SOL    MW4  175   4.298  -0.007   0.893 -0.0238 -0.1020  0.5659
   33SOL     OW  176   4.136   3.833   0.462 -0.3806  0.1576 -0.0354
   33SOL    HW2  177   4.221   3.790   0.468 -2.2527 -3.7619 -0.3573
   33SOL    HW3  178   4.091   3.810   0.543 -1.8508  0.6176 -0.6994
   33SOL    MW4  179   4.141   3.824   0.473 -0.8216 -0.2987 -0.1655
   34SOL     OW  180   2.313   2.389   0.359 -0.0770  0.5013  0.1968
   34SOL    HW2  181   2.229   2.434   0.354 -1.6595 -2.4748 -0.5491
   34SOL    HW3  182   2.349   2.396   0.271  0.1942  1.2186  0.3573
   34SOL    MW4  183   2.307   2.396   0.347 -0.2501  0.2031  0.1196
   35SOL     OW  184   0.920   4.515   0.755  0.1639 -0.4039 -0.4519
   35SOL    HW2  185   1.006   4.544   0.786  0.5428 -0.3592 -1.5283
   35SOL    HW3  186   0.894   4.446   0.816 -0.1105  1.2070  1.3192
   35SOL    MW4  187   0.928   4.510   0.767  0.1777 -0.1855 -0.3603
   36SOL     OW  188   0.421   4.022   0.368  0.2227 -0.4766  0.2833
   36SOL    HW2  189   0.344   4.074   0.389 -0.3038 -1.6229  1.2912
   36SOL    HW3  190   0.416   4.007   0.274  0.3385  1.2028 -0.0046
   36SOL    MW4  191   0.410   4.026   0.359  0.1685 -0.4063  0.3783
   37SOL     OW  192   1.933   2.257   0.282 -0.2612  0.1861  0.0713
   37SOL    HW2  193   1.955   2.349   0.265 -0.8918  0.0780 -1.4594
   37SOL    HW3  194   1.838   2.256   0.296 -0.3512 -0.3055 -0.5258
   37SOL    MW4  195   1.923   2.269   0.281 -0.3563  0.1068 -0.2095
   38SOL     OW  196   4.373   3.249   0.232  0.8902 -0.1733  0.1382
   38SOL    HW2  197   4.462   3.216   0.244  0.5648 -0.7574  0.9596
   38SOL    HW3  198   4.322   3.205   0.299  0.1288  0.7601  0.1753
   38SOL    MW4  199   4.378   3.239   0.242  0.7467 -0.1271  0.2515
   39SOL     OW  200   0.885   2.690   0.855 -0.1102 -0.0310 -0.0603
   39SOL    HW2  201   0.807   2.646   0.822 -0.1234 -1.3684  1.7071
   39SOL    HW3  202   0.953   2.669   0.791  0.0240 -3.1597  1.0269
   39SOL    MW4  203   0.884   2.681   0.842 -0.0942 -0.6201  0.3163
   40SOL     OW  204   0.972   1.852   0.378 -0.0626  0.2137  0.0379
   40SOL    HW2  205   0.947   1.788   0.311  1.2810  0.6948 -0.9595
   40SOL    HW3  206   0.922   1.827   0.455 -1.8534 -0.2062 -1.2152
   40SOL    MW4  207   0.962   1.841   0.379 -0.1216  0.2218 -0.2590
   41SOL     OW  208   3.378   0.499   1.242 -0.1925  0.1081  0.2105
   41SOL    HW2  209   3.385   0.587   1.205  2.4633  0.2928  1.0557
   41SOL    HW3  210   3.453   0.452   1.206 -1.6002 -1.8113 -0.2323
   41SOL    MW4  211   3.389   0.505   1.233 -0.0279 -0.1208  0.2636
   42SOL     OW  212   4.244   3.836   0.808 -0.2873 -0.0735 -0.0080
   42SOL    HW2  213   4.162   3.810   0.767 -1.0144  0.9656  0.7639
   42SOL    HW3  214   4.245   3.931   0.802  0.8253 -0.0759  0.0535
   42SOL    MW4  215   4.233   3.845   0.802 -0.2365  0.0634  0.1020
   43SOL     OW  216   2.230   4.235   0.873 -0.1330  0.5981  0.2658
   43SOL    HW2  217   2.155   4.183   0.844 -0.7182  0.7847  1.3915
   43SOL    HW3  218   2.306   4.180   0.854 -0.6363 -0.0536  0.1057
   43SOL    MW4  219   2.230   4.221   0.867 -0.2766  0.5369  0.3933
   44SOL     OW  220   3.798   2.057   0.419 -0.0784 -0.8122  0.1365
   44SOL    HW2  221   3.860   2.130   0.414 -0.7648 -0.2417 -0.0648
   44SOL    HW3  222   3.726   2.090   0.472 -0.6092 -1.1841 -0.3503
   44SOL    MW4  223   3.797   2.071   0.425 -0.2389 -0.7858  0.0457
   45SOL     OW  224   3.311   0.720   0.442  0.2785 -0.1447  0.2019
   45SOL    HW2  225   3.397   0.681   0.423  0.5713  0.9017 -0.7250
   45SOL    HW3  226   3.248   0.656   0.409  0.6914 -1.1391  1.3162
   45SOL    MW4  227   3.314   0.706   0.435  0.3717 -0.1378  0.2266
   46SOL     OW  228   0.394   3.052   0.272  0.0598 -0.2397 -0.0932
   46SOL    HW2  229   0.412   3.062   0.365 -0.9195 -0.1886  0.0987
   46SOL    HW3  230   0.434   3.128   0.230 -0.9475  0.6140  0.4837
   46SOL    MW4  231   0.402   3.063   0.279 -0.2023 -0.1202  0.0083
   47SOL     OW  232   2.035   2.291   0.839 -0.1094  0.4179  0.4542
   47SOL    HW2  233   2.019   2.281   0.933  0.7544  1.8328  0.7610
   47SOL    HW3  234   2.115   2.242   0.823 -0.2909  0.1241  0.4415
   47SOL    MW4  235   2.043   2.283   0.850 -0.0193  0.5655  0.4930
   48SOL     OW  236   0.898   0.614   0.822 -0.5326  0.3795 -0.2053
   48SOL    HW2  237   0.818   0.664   0.839 -0.5394 -0.0981  1.1871
   48SOL    HW3  238   0.871   0.523   0.821  0.1673  0.1424  1.3412
   48SOL    MW4  239   0.884   0.609   0.824 -0.4411  0.2853  0.1824
   49SOL     OW  240   0.887   2.960   0.761 -0.9713 -0.2773  0.2740
   49SOL    HW2  241   0.879   2.868   0.785  0.4813 -0.6392 -0.5863
   49SOL    HW3  242   0.831   2.969   0.683  0.0338 -0.7792 -0.5164
   49SOL    MW4  243   0.878   2.949   0.754 -0.6471 -0.3912  0.0561
   50SOL     OW  244   3.818   3.868   0.870 -0.3115 -0.0463 -0.5817
   50SOL    HW2  245   3.815   3.959   0.841  0.0293  0.2569  0.3278
   50SOL    HW3  246   3.737   3.830   0.836  0.2438  0.2094 -2.2231
   50SOL    MW4  247   3.807   3.875   0.861 -0.1934  0.0274 -0.6784
   51SOL     OW  248   2.268   4.219   1.145 -0.1346 -0.3420  0.1231
   51SOL    HW2  249   2.195   4.257   1.194  0.5957  0.7057  0.4109
   51SOL    HW3  250   2.250   4.239   1.054 -0.0865  0.1261  0.2163
   51SOL    MW4  251   2.256   4.227   1.140 -0.0317 -0.1416  0.1733
   52SOL     OW  252   1.163   4.540   0.925  0.0279 -0.1728 -0.1455
   52SOL    HW2  253   1.200   4.608   0.869 -1.8374  1.1513  0.1867
   52SOL    HW3  254   1.207   4.460   0.898  1.6373  1.0238 -1.1358
   52SOL    MW4  255   1.173   4.538   0.914 -0.0058  0.1597 -0.2323
   53SOL     OW  256   2.055   3.859   0.520  0.3683  0.2612 -0.0943
   53SOL    HW2  257   2.110   3.833   0.593  0.2813 -0.2855 -0.2192
   53SOL    HW3  258   2.090   3.943   0.491  0.0117  0.7755  0.9701
   53SOL    MW4  259   2.067   3.867   0.526  0.3099  0.2565  0.0297
   54SOL     OW  260   4.048   2.660   1.125  0.0345 -0.3132 -0.0454
   54SOL    HW2  261   4.053   2.673   1.030  1.3954  1.1443  0.2003
   54SOL    HW3  262   3.967   2.702   1.151 -0.3874 -0.7936 -0.5668
   54SOL    MW4  263   4.038   2.667   1.116  0.1583 -0.1841 -0.0817
   55SOL     OW  264   2.455   4.096   0.792 -0.2897  0.3379  0.0819
   55SOL    HW2  265   2.457   4.107   0.697 -1.5530 -0.5927 -0.0665
   55SOL    HW3  266   2.461   4.001   0.805 -1.0498  0.3993  0.8979
   55SOL    MW4  267   2.456   4.085   0.781 -0.5565  0.2236  0.1700
   56SOL     OW  268   4.157   1.372   0.643 -0.0492  0.1982  0.0328
   56SOL    HW2  269   4.240   1.343   0.606 -1.2685 -0.8543 -1.9575
   56SOL    HW3  270   4.133   1.448   0.591  0.3974  1.4396  1.6112
   56SOL    MW4  271   4.165   1.378   0.631 -0.1516  0.2232 -0.0215
   57SOL     OW  272   1.712   4.143   0.391 -0.3296 -0.2771  0.3779
   57SOL    HW2  273   1.712   4.237   0.375  0.4810 -0.1845  0.8623
   57SOL    HW3  274   1.678   4.105   0.310 -0.1765  0.4016 -0.0145
   57SOL    MW4  275   1.708   4.150   0.378 -0.2023 -0.1750  0.3901
   58SOL     OW  276   2.562   4.374   0.297  0.5454 -0.1771 -0.1251
   58SOL    HW2  277   2.555   4.469   0.290 -1.0646 -0.4098 -1.9013
   58SOL    HW3  278   2.581   4.345   0.208  0.5262 -1.5656  0.3177
   58SOL    MW4  279   2.564   4.383   0.284  0.3304 -0.3910 -0.3010
   59SOL     OW  280   3.821   3.043   1.127  0.4181  0.0280  0.1966
   59SOL    HW2  281   3.817   3.047   1.031 -0.3522 -2.1263  0.1212
   59SOL    HW3  282   3.905   3.085   1.148  1.4806 -1.1212 -1.5502
   59SOL    MW4  283   3.832   3.049   1.117  0.4566 -0.4079 -0.0437
   60SOL     OW  284   2.453   4.625   0.873 -0.4489 -0.1409 -0.2954
   60SOL    HW2  285   2.449   4.643   0.967  0.2089  0.6210 -0.4101
   60SOL    HW3  286   2.366   4.591   0.852 -0.6742 -0.1013  0.5418
   60SOL    MW4  287   2.441   4.623   0.883 -0.3920 -0.0348 -0.2001
   61SOL     OW  288   0.692   4.146   0.510 -0.3156 -0.3976 -0.3932
   61SOL    HW2  289   0.680   4.166   0.603  1.1116  0.0350 -0.2932
   61SOL    HW3  290   0.613   4.098   0.486 -1.3372  0.6892  0.6984
   61SOL    MW4  291   0.680   4.143   0.519 -0.2620 -0.1974 -0.2360
   62SOL     OW  292   1.982   0.756   0.827  0.3077 -0.2939 -0.0677
   62SOL    HW2  293   1.986   0.848   0.803 -0.6524 -0.4543 -0.8686
   62SOL    HW3  294   1.897   0.726   0.795  0.4886 -1.3839  0.4431
   62SOL    MW4  295   1.971   0.764   0.820  0.2048 -0.4589 -0.1060
   63SOL     OW  296   1.513   0.952   0.445 -0.1806  0.0939  0.1387
   63SOL    HW2  297   1.510   0.964   0.540 -0.1666 -0.6439  0.2357
   63SOL    HW3  298   1.509   1.041   0.409 -1.4369  0.3184  0.8058
   63SOL    MW4  299   1.512   0.965   0.453 -0.3446  0.0262  0.2396
   64SOL     OW  300   1.141   3.118   1.052  0.1739  0.0381  0.2339
   64SOL    HW2  301   1.228   3.144   1.082  0.5231  0.1369 -0.8351
   64SOL    HW3  302   1.129   3.030   1.087  0.6429  0.0885  0.5199
   64SOL    MW4  303   1.151   3.110   1.060  0.2818  0.0577  0.1307
   65SOL     OW  304   2.044   1.744   0.721 -0.1459  0.2820  0.3452
   65SOL    HW2  305   1.968   1.794   0.748 -0.6687 -0.3648  0.0930
   65SOL    HW3  306   2.044   1.749   0.625  0.0610  0.1905  0.3402
   65SOL    MW4  307   2.034   1.751   0.712 -0.1874  0.1847  0.3113
   66SOL     OW  308   2.512   3.779   0.404 -0.3425  0.0525  0.4709
   66SOL    HW2  309   2.452   3.705   0.413 -0.5413  0.0450 -0.8930
   66SOL    HW3  310   2.599   3.740   0.411 -0.4425 -0.3429 -0.4146
   66SOL    MW4  311   2.515   3.764   0.406 -0.3819 -0.0007  0.1742
   67SOL     OW  312   3.809   0.757   1.145  0.0483 -0.3856 -0.5582
   67SOL    HW2  313   3.882   0.787   1.200 -0.0656 -1.9339  0.4449
   67SOL    HW3  314   3.733   0.804   1.180  0.2392 -0.1976 -0.3855
   67SOL    MW4  315   3.809   0.767   1.157  0.0579 -0.5651 -0.4032
   68SOL     OW  316   3.531   4.572   0.857  0.4256  0.3961 -0.1417
   68SOL    HW2  317   3.623   4.594   0.876  0.0280  1.6489  0.3866
   68SOL    HW3  318   3.529   4.477   0.856  1.9262  0.3443 -1.0377
   68SOL    MW4  319   3.543   4.563   0.859  0.5708  0.5541 -0.1901
   69SOL     OW  320   0.698   3.135   1.172  0.2063  0.0548 -0.1987
   69SOL    HW2  321   0.686   3.098   1.084  0.2434 -0.3611 -0.0298
   69SOL    HW3  322   0.788   3.167   1.172  1.0752 -2.3191  0.5582
   69SOL    MW4  323   0.708   3.134   1.160  0.3259 -0.3133 -0.0767
   70SOL     OW  324   2.206   1.110   0.848 -0.5837 -0.3148  0.1318
   70SOL    HW2  325   2.121   1.083   0.814 -1.3236 -0.1615  1.7935
   70SOL    HW3  326   2.214   1.202   0.822 -1.1173 -0.2157  0.3075
   70SOL    MW4  327   2.196   1.119   0.840 -0.7520 -0.2815  0.3742
   71SOL     OW  328   1.772   1.076   0.404 -0.1736 -0.5918 -0.4487
   71SOL    HW2  329   1.852   1.027   0.422 -0.1398 -0.1354  0.6556
   71SOL    HW3  330   1.711   1.011   0.369  0.2991 -1.1578 -0.2205
   71SOL    MW4  331   1.774   1.061   0.402 -0.1067 -0.6062 -0.2729
   72SOL     OW  332   2.660   1.120   1.151 -0.0700  0.4250 -0.2309
   72SOL    HW2  333   2.744   1.162   1.168 -0.1168  0.7697 -0.8376
   72SOL    HW3  334   2.658   1.107   1.056 -0.1262 -0.8041 -0.0806
   72SOL    MW4  335   2.671   1.124   1.141 -0.0837  0.3082 -0.2909
   73SOL     OW  336   2.846   4.316   0.353 -0.4728  0.3781  0.4529
   73SOL    HW2  337   2.894   4.396   0.372 -0.5482  0.4108  0.5047
   73SOL    HW3  338   2.754   4.342   0.356 -0.6214 -0.3173  3.2876
   73SOL    MW4  339   2.840   4.330   0.356 -0.5021  0.2904  0.8337
   74SOL     OW  340   0.474   3.756   0.765  0.1459  0.1038  0.2910
   74SOL    HW2  341   0.485   3.662   0.781  1.3357 -0.1742 -1.8677
   74SOL    HW3  342   0.436   3.761   0.677 -0.7795  1.6273  0.7616
   74SOL    MW4  343   0.471   3.744   0.756  0.1808  0.2680  0.0684
   75SOL     OW  344   3.342   3.882   0.846 -0.2382 -0.1781  0.2275
   75SOL    HW2  345   3.362   3.867   0.938 -1.2336 -1.1237  0.2996
   75SOL    HW3  346   3.343   3.978   0.837  0.1151 -0.0875  1.1581
   75SOL    MW4  347   3.345   3.893   0.857 -0.3233 -0.2909  0.3598
   76SOL     OW  348   3.366   1.508   1.199 -0.1026  0.5306 -0.4538
   76SOL    HW2  349   3.312   1.570   1.249  0.7462  1.0286 -0.1567
   76SOL    HW3  350   3.339   1.521   1.108  0.1919  1.4633 -0.4105
   76SOL    MW4  351   3.355   1.518   1.194  0.0484  0.7193 -0.4088
   77SOL     OW  352   4.311   2.313   1.179 -0.0227  0.0497  0.1598
   77SOL    HW2  353   4.227   2.349   1.209  0.4665 -0.6926  2.5231
   77SOL    HW3  354   4.303   2.309   1.083 -2.7140 -0.0946  0.3597
   77SOL    MW4  355   4.299   2.317   1.170 -0.3128 -0.0675  0.4979
   78SOL     OW  356   3.054   0.355   0.469  0.1573  0.3316  0.2063
   78SOL    HW2  357   3.082   0.401   0.548 -0.4497 -0.4579  0.8902
   78SOL    HW3  358   3.102   0.272   0.473  1.1970  0.8641 -0.9822
   78SOL    MW4  359   3.064   0.350   0.480  0.2141  0.2977  0.1397
   79SOL     OW  360   0.628   2.313   0.880 -0.6795 -0.2998  0.1850
   79SOL    HW2  361   0.652   2.398   0.844  0.4835 -0.7809 -0.1927
   79SOL    HW3  362   0.650   2.319   0.973 -2.1103  0.3592  0.4967
   79SOL    MW4  363   0.634   2.325   0.888 -0.7148 -0.2763  0.1764
   80SOL     OW  364   1.999   0.144   0.485  0.0854 -0.2476  0.2433
   80SOL    HW2  365   1.996   0.172   0.576  1.1693 -0.5929  0.3957
   80SOL    HW3  366   2.088   0.110   0.473 -0.0143 -0.1187 -0.9666
   80SOL    MW4  367   2.011   0.143   0.495  0.2155 -0.2761  0.1038
   81SOL     OW  368   2.660   1.358   0.592 -0.0125  0.3621 -0.4411
   81SOL    HW2  369   2.639   1.276   0.547 -1.2572  0.5696 -0.2674
   81SOL    HW3  370   2.716   1.332   0.665 -0.8304 -0.4087 -0.0761
   81SOL    MW4  371   2.664   1.344   0.596 -0.2847  0.2877 -0.3700
   82SOL     OW  372   0.064   4.578   0.469 -0.1562  0.0465  0.2282
   82SOL    HW2  373   0.045   4.564   0.562  0.5880  0.0100  0.3814
   82SOL    HW3  374   0.134   4.516   0.450  0.2516  0.6227 -0.1504
   82SOL    MW4  375   0.071   4.568   0.479 -0.0042  0.1178  0.1985
   83SOL     OW  376   2.079   4.138   0.517 -0.1368  0.1365 -0.3301
   83SOL    HW2  377   2.003   4.190   0.489  0.2391 -0.2376 -2.0793
   83SOL    HW3  378   2.154   4.187   0.485  0.2661 -0.7766 -0.8129
   83SOL    MW4  379   2.079   4.151   0.509 -0.0341 -0.0339 -0.6245
   84SOL     OW  380   1.862   1.337   0.516  0.3593  0.0558  0.0976
   84SOL    HW2  381   1.956   1.344   0.496 -0.1899  1.8804 -2.1266
   84SOL    HW3  382   1.837   1.251   0.484  1.3717 -0.6650  1.2020
   84SOL    MW4  383   1.871   1.327   0.509  0.4205  0.2015 -0.0501
   85SOL     OW  384   2.785   3.659   0.467 -0.5477 -0.6218 -0.0105
   85SOL    HW2  385   2.743   3.685   0.549 -1.5518 -0.5054 -0.5556
   85SOL    HW3  386   2.832   3.579   0.489 -0.7227 -0.5346  0.7078
   85SOL    MW4  387   2.786   3.652   0.481 -0.7031 -0.5951  0.0124
   86SOL     OW  388   1.113   2.319   1.123  0.2526 -0.0060  0.3261
   86SOL    HW2  389   1.181   2.373   1.163  0.3791  0.8034 -0.9536
   86SOL    HW3  390   1.031   2.356   1.155  0.3862 -1.0227  1.9209
   86SOL    MW4  391   1.111   2.331   1.133  0.2868 -0.0331  0.3676
   87SOL     OW  392   3.319   0.987   0.487 -0.2149  0.6320 -0.4048
   87SOL    HW2  393   3.412   1.000   0.471 -0.6105  1.4814 -2.1863
   87SOL    HW3  394   3.307   0.892   0.484  0.6007  0.5111 -0.0340
   87SOL    MW4  395   3.330   0.976   0.485 -0.1597  0.7281 -0.5909
   88SOL     OW  396   0.797   2.161   0.712 -0.4142  0.9623  0.0283
   88SOL    HW2  397   0.762   2.231   0.767  0.0931  1.4048 -0.2022
   88SOL    HW3  398   0.798   2.198   0.624 -0.1435  0.6579 -0.0979
   88SOL    MW4  399   0.792   2.175   0.708 -0.3116  0.9806 -0.0188
   89SOL     OW  400   4.461   4.264   0.843  0.3815 -0.2610  0.1951
   89SOL    HW2  401   4.448   4.346   0.795  0.7288 -0.5514 -0.4038
   89SOL    HW3  402   4.455   4.289   0.935  0.8262  0.5004  0.0278
   89SOL    MW4  403   4.459   4.278   0.849  0.4859 -0.1984  0.0940
   90SOL     OW  404   4.241   3.849   1.127 -0.2233 -0.5423 -0.3235
   90SOL    HW2  405   4.238   3.870   1.034 -0.1285  2.1513  0.2382
   90SOL    HW3  406   4.163   3.891   1.163 -0.3333 -1.6815  0.8069
   90SOL    MW4  407   4.230   3.857   1.120 -0.2255 -0.3376 -0.1003
   91SOL     OW  408   2.167   2.798   0.334  0.3784  0.4498  0.2855
   91SOL    HW2  409   2.189   2.834   0.248  1.3641  0.1729  0.4228
   91SOL    HW3  410   2.251   2.786   0.378 -0.1658  1.3197  1.5886
   91SOL    MW4  411   2.181   2.801   0.329  0.4368  0.5281  0.4756
   92SOL     OW  412   0.671   4.640   1.080 -0.4172 -0.0651 -0.3391
   92SOL    HW2  413   0.744   4.693   1.115  0.1323 -1.2106  0.2670
   92SOL    HW3  414   0.684   4.553   1.118  0.0647 -1.3135 -3.2045
   92SOL    MW4  415   0.682   4.636   1.090 -0.2810 -0.3810 -0.6372
   93SOL     OW  416   4.007   3.623   0.276  0.2581 -0.6407  0.1136
   93SOL    HW2  417   4.095   3.583   0.276  0.5456 -0.0189 -0.8224
   93SOL    HW3  418   4.021   3.711   0.311  0.0443 -0.4692 -0.2275
   93SOL    MW4  419   4.021   3.629   0.281  0.2675 -0.5362 -0.0549
   94SOL     OW  420   3.145   3.467   0.922  0.1159  0.1117  0.3569
   94SOL    HW2  421   3.216   3.410   0.892  1.4620  1.9666 -0.0713
   94SOL    HW3  422   3.163   3.480   1.016 -0.8215 -1.0371  0.7082
   94SOL    MW4  423   3.157   3.462   0.931  0.1698  0.2046  0.3468
   95SOL     OW  424   3.638   2.182   0.854 -0.4524  0.1128 -0.2723
   95SOL    HW2  425   3.731   2.206   0.864 -0.4715 -0.4167  1.1418
   95SOL    HW3  426   3.637   2.087   0.854 -0.8713  0.1041 -1.5760
   95SOL    MW4  427   3.650   2.173   0.855 -0.5102  0.0420 -0.2577
   96SOL     OW  428   0.013   0.842   1.292 -0.2008  0.3125  0.3650
   96SOL    HW2  429   0.104   0.821   1.270 -0.1087  0.6764  0.3919
   96SOL    HW3  430   0.014   0.853   1.388 -0.1835  0.7389  0.3172
   96SOL    MW4  431   0.025   0.840   1.302 -0.1864  0.4168  0.3623
   97SOL     OW  432   3.814   3.098   0.845 -0.2126 -0.1659 -0.2327
   97SOL    HW2  433   3.814   3.192   0.858  2.7294 -0.1362 -0.1369
   97SOL    HW3  434   3.784   3.086   0.755  0.8451  0.9630 -0.7441
   97SOL    MW4  435   3.810   3.109   0.835  0.3150 -0.0134 -0.2875
   98SOL     OW  436   2.727   4.655   0.574  0.3321 -0.1749  0.2279
   98SOL    HW2  437   2.760   4.738   0.606  0.3400  0.1209 -0.5387
   98SOL    HW3  438   2.719   4.600   0.652  1.6768  0.0710  0.5412
   98SOL    MW4  439   2.730   4.659   0.588  0.5107 -0.1035  0.1680
   99SOL     OW  440   4.208   2.037   0.462 -0.3050  0.2383 -0.1932
   99SOL    HW2  441   4.295   2.077   0.452 -0.3802  0.8402  1.4708
   99SOL    HW3  442   4.147   2.109   0.448 -0.5267 -0.0588 -0.7536
   99SOL    MW4  443   4.212   2.052   0.459 -0.3448  0.2787 -0.0476
  100SOL     OW  444   0.538   3.345   0.311 -0.3061  0.4486  0.2812
  100SOL    HW2  445   0.589   3.426   0.311 -0.0668  0.3080 -0.5392
  100SOL    HW3  446   0.456   3.369   0.354 -0.0350  0.9959  0.5031
  100SOL    MW4  447   0.534   3.359   0.316 -0.2387  0.5023  0.2022
  101SOL     OW  448   2.839   1.302   0.776  0.3989 -0.3849 -0.0304
  101SOL    HW2  449   2.846   1.372   0.841 -1.3535  0.7195 -0.9944
  101SOL    HW3  450   2.922   1.307   0.728 -0.1124  1.7587 -0.7780
  101SOL    MW4  451   2.851   1.312   0.778  0.1001  0.0435 -0.2562
  102SOL     OW  452   1.159   2.414   0.574  0.3586 -0.0143  0.6045
  102SOL    HW2  453   1.215   2.351   0.529  2.9087  1.7533  1.1861
  102SOL    HW3  454   1.169   2.394   0.667 -0.0289  0.2715  0.7118
  102SOL    MW4  455   1.167   2.403   0.580  0.6440  0.2565  0.6954
  103SOL     OW  456   0.668   0.764   0.869  0.4349  0.0078 -0.0983
  103SOL    HW2  457   0.626   0.841   0.830 -0.4225 -0.1882  0.4233
  103SOL    HW3  458   0.667   0.781   0.963  1.1846 -0.1758 -0.0553
  103SOL    MW4  459   0.662   0.776   0.876  0.4207 -0.0423 -0.0238
  104SOL     OW  460   4.481   3.473   1.088  0.1805 -0.0464  0.6699
  104SOL    HW2  461   4.526   3.530   1.152 -0.0344  0.8737  0.0136
  104SOL    HW3  462   4.480   3.387   1.130 -1.0681  0.8091  2.4609
  104SOL    MW4  463   4.487   3.469   1.102 -0.0124  0.1881  0.8196
  105SOL     OW  464   2.198   4.460   0.537 -0.2949  0.5100  0.3307
  105SOL    HW2  465   2.255   4.404   0.484  0.2101  1.1293  0.2098
  105SOL    HW3  466   2.112   4.420   0.531  0.2141 -0.7031  0.8768
  105SOL    MW4  467   2.194   4.447   0.529 -0.1609  0.4315  0.3868
  106SOL     OW  468   4.413   0.994   0.401 -0.1380  0.1515 -0.2409
  106SOL    HW2  469   4.358   0.917   0.384  1.1209 -0.6973 -0.6065
  106SOL    HW3  470   4.495   0.957   0.435  0.7627  1.2818 -1.1546
  106SOL    MW4  471   4.416   0.979   0.403  0.1469  0.1886 -0.4097
  107SOL     OW  472   0.733   2.949   0.521  0.2807 -0.0650 -0.0967
  107SOL    HW2  473   0.641   2.974   0.530 -0.0333 -0.4448 -2.0577
  107SOL    HW3  474   0.776   3.028   0.488  0.9045  0.4796  1.9422
  107SOL    MW4  475   0.727   2.963   0.518  0.3216 -0.0434 -0.0864
  108SOL     OW  476   0.260   4.620   1.113  0.7581 -0.1575  0.0228
  108SOL    HW2  477   0.244   4.637   1.021  2.7352  1.3107 -0.0843
  108SOL    HW3  478   0.189   4.666   1.159  0.2129 -0.2491 -0.7308
  108SOL    MW4  479   0.248   4.629   1.107  0.9470  0.0234 -0.0907
  109SOL     OW  480   4.087   2.181   0.750 -0.0299  0.4176  0.1478
  109SOL    HW2  481   4.011   2.209   0.800 -0.4163 -0.8797  0.3251
  109SOL    HW3  482   4.162   2.215   0.799 -0.4761  1.2326  0.2739
  109SOL    MW4  483   4.087   2.189   0.763 -0.1397  0.3541  0.1878
  110SOL     OW  484   0.024   3.758   0.745  0.0802  0.5563 -0.3327
  110SOL    HW2  485   0.090   3.818   0.778  0.0141  0.8522 -0.7382
  110SOL    HW3  486  -0.058   3.790   0.782  0.2676 -0.3475  0.9189
  110SOL    MW4  487   0.022   3.770   0.754  0.0962  0.4759 -0.2211
  111SOL     OW  488   3.251   0.921   0.746  0.0643  0.2943  0.2947
  111SOL    HW2  489   3.231   0.999   0.798  0.9544  0.6141  0.1777
  111SOL    HW3  490   3.277   0.955   0.661  1.7053 -0.0582  0.6415
  111SOL    MW4  491   3.252   0.936   0.742  0.3984  0.2900  0.3250
  112SOL     OW  492   3.678   3.781   0.500 -0.8210  0.4347  0.3044
  112SOL    HW2  493   3.597   3.828   0.478 -0.6481  1.5829  2.0642
  112SOL    HW3  494   3.743   3.850   0.515  0.9892 -0.4851 -2.7907
  112SOL    MW4  495   3.676   3.796   0.499 -0.5593  0.4649  0.1282
  113SOL     OW  496   0.446   2.730   1.098  0.4567 -0.3172 -0.0009
  113SOL    HW2  497   0.368   2.773   1.133 -0.2147 -0.8143 -0.8859
  113SOL    HW3  498   0.519   2.780   1.135 -0.2976  0.9142 -0.1682
  113SOL    MW4  499   0.445   2.742   1.108  0.2686 -0.2203 -0.1397
  114SOL     OW  500   4.267   2.555   0.720  0.7275 -0.1515 -0.5546
  114SOL    HW2  501   4.188   2.591   0.759  0.9974 -0.9100  0.7078
  114SOL    HW3  502   4.339   2.601   0.763  1.0191 -0.7481 -0.3913
  114SOL    MW4  503   4.266   2.566   0.731  0.8016 -0.3302 -0.3665
  115SOL     OW  504   4.120   1.251   0.984  0.1702 -0.4842  0.2327
  115SOL    HW2  505   4.077   1.226   1.066  0.4139 -0.1027  0.4778
  115SOL    HW3  506   4.157   1.169   0.951  2.5090 -0.1643  1.9388
  115SOL    MW4  507   4.119   1.237   0.990  0.5112 -0.3917  0.4901
  116SOL     OW  508   4.071   4.538   0.797  0.2104 -0.5632 -0.8267
  116SOL    HW2  509   3.981   4.561   0.822  0.5327 -0.1140 -0.0659
  116SOL    HW3  510   4.078   4.567   0.706 -0.0762  0.4209 -0.5508
  116SOL    MW4  511   4.060   4.545   0.789  0.2155 -0.3748 -0.6899
  117SOL     OW  512   4.458   1.926   1.108  0.1467 -0.1979  0.1172
  117SOL    HW2  513   4.453   1.839   1.148  1.1348  0.3573  1.5118
  117SOL    HW3  514   4.532   1.968   1.152 -0.0425  1.1957 -0.8561
  117SOL    MW4  515   4.467   1.920   1.119  0.2527  0.0591  0.1727
  118SOL     OW  516   1.145   0.983   0.620 -0.0681  0.1807 -0.5701
  118SOL    HW2  517   1.188   1.064   0.592 -0.8294  0.7641 -0.0683
  118SOL    HW3  518   1.056   0.991   0.586 -0.7746  0.5449  1.3373
  118SOL    MW4  519   1.139   0.995   0.612 -0.2617  0.3058 -0.2523
  119SOL     OW  520   3.375   0.115   0.883  0.2578  0.1307  0.1632
  119SOL    HW2  521   3.420   0.032   0.866 -0.3590 -0.1589 -0.0579
  119SOL    HW3  522   3.440   0.182   0.864  0.2328 -0.2488 -1.2611
  119SOL    MW4  523   3.390   0.113   0.878  0.1731  0.0424 -0.0539
  120SOL     OW  524   2.938   2.506   0.755 -0.0939  0.0694  0.1629
  120SOL    HW2  525   3.018   2.554   0.778  0.2942 -0.9663  1.0196
  120SOL    HW3  526   2.868   2.553   0.802  0.1410  0.3969  0.1908
  120SOL    MW4  527   2.940   2.519   0.764 -0.0117 -0.0238  0.2796
  121SOL     OW  528   0.013   1.116   1.207 -0.2819  0.4487  0.2661
  121SOL    HW2  529  -0.060   1.176   1.226  0.3969  1.3791 -0.0160
  121SOL    HW3  530  -0.011   1.034   1.250 -0.9355  1.1149  1.1774
  121SOL    MW4  531  -0.000   1.113   1.215 -0.2786  0.6593  0.3492
  122SOL     OW  532   1.575   4.490   0.639 -0.0366  0.0018 -0.2474
  122SOL    HW2  533   1.510   4.420   0.631  0.4746 -0.6343  0.9062
  122SOL    HW3  534   1.548   4.556   0.576 -2.2506  0.1122  0.7665
  122SOL    MW4  535   1.563   4.489   0.630 -0.2612 -0.0672  0.0386
  123SOL     OW  536   3.875   1.151   0.853  0.1238 -0.4047 -0.2033
  123SOL    HW2  537   3.898   1.148   0.760  0.2644 -1.3078 -0.1450
  123SOL    HW3  538   3.955   1.181   0.896  0.3403 -0.8529 -0.2878
  123SOL    MW4  539   3.889   1.154   0.846  0.1709 -0.5829 -0.2067
  124SOL     OW  540   1.088   2.082   0.469  0.3559 -0.2518  0.2887
  124SOL    HW2  541   1.032   2.159   0.454  0.7849  0.2013  0.9515
  124SOL    HW3  542   1.033   2.007   0.447  0.3454  0.2853 -1.6499
  124SOL    MW4  543   1.074   2.083   0.464  0.4110 -0.1209  0.1203
  125SOL     OW  544   3.130   1.183   0.405  0.2052 -0.2242  0.1477
  125SOL    HW2  545   3.193   1.112   0.396  0.2283 -0.1692 -0.1165
  125SOL    HW3  546   3.045   1.139   0.405  0.2160 -0.2435 -0.0960
  125SOL    MW4  547   3.127   1.168   0.404  0.2098 -0.2196  0.0806
  126SOL     OW  548   0.678   3.074   0.893  0.0986  0.0096 -0.1129
  126SOL    HW2  549   0.760   3.028   0.878  0.2676  0.1176  0.4570
  126SOL    HW3  550   0.699   3.166   0.874  0.0314 -0.0057 -0.2592
  126SOL    MW4  551   0.692   3.080   0.889  0.1121  0.0217 -0.0570
  127SOL     OW  552   1.098   3.864   0.441  0.4469 -0.6110 -0.5534
  127SOL    HW2  553   1.048   3.946   0.447  0.0539 -0.7854 -1.3806
  127SOL    HW3  554   1.168   3.874   0.505 -0.7114 -0.4080  0.6920
  127SOL    MW4  555   1.100   3.876   0.450  0.2422 -0.6075 -0.4983
  128SOL     OW  556   1.598   4.009   0.176 -0.1610  0.1489 -0.2036
  128SOL    HW2  557   1.635   3.931   0.217 -0.4222 -0.7836 -1.7079
  128SOL    HW3  558   1.503   4.000   0.187 -0.0894  1.4478  1.7060
  128SOL    MW4  559   1.590   3.998   0.182 -0.1860  0.1974 -0.1501
  129SOL     OW  560   0.872   1.049   0.592  0.3063  0.1078  0.0993
  129SOL    HW2  561   0.807   0.983   0.569  0.5127 -0.3229  0.7545
  129SOL    HW3  562   0.827   1.132   0.576 -0.6814 -0.1736  1.2878
  129SOL    MW4  563   0.857   1.051   0.587  0.2033  0.0138  0.3426
  130SOL     OW  564   4.022   2.245   0.486  0.0727 -0.7347  0.4442
  130SOL    HW2  565   4.081   2.315   0.458  0.3296 -0.9545  0.4341
  130SOL    HW3  566   4.042   2.233   0.579 -0.4544 -0.3255  0.6166
  130SOL    MW4  567   4.032   2.253   0.495  0.0372 -0.7098  0.4656
  131SOL     OW  568   3.809   2.370   4.181 -0.6549 -0.1979  0.6436
  131SOL    HW2  569   3.901   2.366   4.208 -0.6517  1.0046  0.8228
  131SOL    HW3  570   3.813   2.369   4.085 -0.5177 -1.2604  0.6484
  131SOL    MW4  571   3.822   2.369   4.172 -0.6363 -0.1795  0.6685
  132SOL     OW  572   3.590   2.176   0.577  0.9936 -0.4125  0.5390
  132SOL    HW2  573   3.507   2.222   0.571  0.7552 -0.9470 -0.4267
  132SOL    HW3  574   3.606   2.168   0.671  0.5445  0.7322  0.7223
  132SOL    MW4  575   3.581   2.181   0.588  0.9029 -0.3319  0.4357
  133SOL     OW  576   1.725   1.131   0.812  0.1000 -0.1702  0.1341
  133SOL    HW2  577   1.724   1.224   0.788  1.2413 -0.2257 -0.1697
  133SOL    HW3  578   1.751   1.131   0.904 -1.2616 -0.1239  0.5308
  133SOL    MW4  579   1.728   1.144   0.821  0.0709 -0.1715  0.1463
  134SOL     OW  580   2.456   3.080   1.111 -0.0747 -0.5725  0.2883
  134SOL    HW2  581   2.537   3.122   1.142  0.4994 -0.6366 -1.1135
  134SOL    HW3  582   2.461   2.991   1.146  0.1835 -0.4127  0.6736
  134SOL    MW4  583   2.467   3.074   1.120  0.0353 -0.5598  0.1543
  135SOL     OW  584   2.697   4.513   0.800 -0.4270 -0.3481  0.0715
  135SOL    HW2  585   2.694   4.418   0.806 -2.0958 -0.3971 -1.2182
  135SOL    HW3  586   2.609   4.542   0.826  0.1432  0.8766  0.7343
  135SOL    MW4  587   2.685   4.504   0.804 -0.5720 -0.1931 -0.0111
  136SOL     OW  588   1.971   1.021   0.735 -0.5275 -0.3741  0.1782
  136SOL    HW2  589   1.878   1.044   0.733 -0.8385 -1.6105  0.0830
  136SOL    HW3  590   1.988   0.981   0.650 -0.0330 -0.6021  0.3826
  136SOL    MW4  591   1.961   1.019   0.724 -0.5033 -0.5672  0.1926
  137SOL     OW  592   2.893   0.736   0.441 -0.4477 -0.4310  0.6249
  137SOL    HW2  593   2.937   0.690   0.369 -0.4460  0.0814  0.2941
  137SOL    HW3  594   2.801   0.715   0.430 -0.6297  0.7738 -0.3825
  137SOL    MW4  595   2.887   0.727   0.430 -0.4714 -0.2044  0.4483
  138SOL     OW  596   0.205   2.368   0.672 -0.0767 -0.3498  0.0970
  138SOL    HW2  597   0.127   2.320   0.701 -0.0541 -1.0971 -1.0376
  138SOL    HW3  598   0.275   2.335   0.727 -0.6332  0.6134  1.3964
  138SOL    MW4  599   0.204   2.357   0.683 -0.1471 -0.3214  0.1187
  139SOL     OW  600   1.077   0.587   0.355  0.4271 -0.1213  0.3195
  139SOL    HW2  601   1.150   0.649   0.357  0.9622 -0.7467  0.2282
  139SOL    HW3  602   1.005   0.634   0.398  1.4038 -0.1641  2.0549
  139SOL    MW4  603   1.077   0.602   0.361  0.6266 -0.2095  0.5364
  140SOL     OW  604   1.101   4.397   1.260 -0.2210  0.0237  0.1504
  140SOL    HW2  605   1.117   4.394   1.354  0.9017 -0.3795 -0.0484
  140SOL    HW3  606   1.100   4.490   1.238 -0.0336  0.1026  0.4782
  140SOL    MW4  607   1.103   4.409   1.269 -0.0482 -0.0191  0.1674
  141SOL     OW  608   0.623   3.600   0.405  0.0818 -0.1395  0.5606
  141SOL    HW2  609   0.555   3.667   0.419 -0.4555 -0.5719  0.0566
  141SOL    HW3  610   0.705   3.645   0.425 -0.2290  0.8180 -0.2598
  141SOL    MW4  611   0.625   3.615   0.410 -0.0300 -0.0703  0.3859
  142SOL     OW  612   0.958   1.127   0.855 -0.3684 -0.7277  0.1649
  142SOL    HW2  613   0.937   1.085   0.772  0.3289 -1.2915  0.2664
  142SOL    HW3  614   1.054   1.126   0.859 -0.2497  2.2772 -0.5447
  142SOL    MW4  615   0.968   1.122   0.845 -0.2607 -0.4058  0.0846
  143SOL     OW  616   1.804   2.427   1.251 -0.4476  0.0421  0.2490
  143SOL    HW2  617   1.728   2.383   1.212 -0.8160  0.7544  0.1644
  143SOL    HW3  618   1.808   2.512   1.208 -0.0455  0.3003  0.7925
  143SOL    MW4  619   1.795   2.432   1.240 -0.4431  0.1702  0.3097
  144SOL     OW  620   1.257   2.898   0.653  0.0015 -0.1339  0.0657
  144SOL    HW2  621   1.188   2.842   0.617  0.7636 -0.7839 -0.4129
  144SOL    HW3  622   1.211   2.978   0.681 -0.6315  0.4315 -2.3987
  144SOL    MW4  623   1.242   2.901   0.652  0.0185 -0.1450 -0.3226
  145SOL     OW  624   2.545   4.639   0.368  0.6441 -0.0240  0.3897
  145SOL    HW2  625   2.581   4.618   0.454  1.2915 -0.5011  0.0041
  145SOL    HW3  626   2.591   4.718   0.341  0.0584  0.4311  0.7114
  145SOL    MW4  627   2.556   4.647   0.375  0.6523 -0.0269  0.3812
  146SOL     OW  628   3.074   0.573   0.296 -0.1119  0.3403 -0.4148
  146SOL    HW2  629   3.073   0.487   0.337  0.4160  0.7546  0.4942
  146SOL    HW3  630   3.108   0.559   0.208 -0.6449 -0.4706 -0.4898
  146SOL    MW4  631   3.078   0.560   0.290 -0.1128  0.2880 -0.3047
  147SOL     OW  632   0.212   2.039   1.244  0.7694 -0.4365  0.2250
  147SOL    HW2  633   0.275   1.975   1.210 -0.2991 -0.1356 -2.4193
  147SOL    HW3  634   0.241   2.123   1.207 -0.7660 -0.1873 -0.4220
  147SOL    MW4  635   0.224   2.042   1.235  0.4259 -0.3638 -0.2093
  148SOL     OW  636   3.766   2.392   0.547 -0.1467  0.2462  0.0593
  148SOL    HW2  637   3.708   2.316   0.548  0.3087 -0.1087 -0.3659
  148SOL    HW3  638   3.841   2.364   0.495  0.9909  0.2781  1.6687
  148SOL    MW4  639   3.768   2.379   0.540  0.0634  0.2031  0.2155
  149SOL     OW  640   1.715   3.152   0.436 -0.1280  0.1907 -0.4828
  149SOL    HW2  641   1.810   3.139   0.432 -0.4689 -2.7257 -0.1041
  149SOL    HW3  642   1.702   3.243   0.408  2.7211  0.4313 -1.1637
  149SOL    MW4  643   1.726   3.162   0.432  0.2029 -0.1621 -0.5227
  150SOL     OW  644   3.812   4.645   0.885  0.1950 -0.1124 -0.1497
  150SOL    HW2  645   3.819   4.737   0.859 -1.8172  0.1524  0.0967
  150SOL    HW3  646   3.826   4.647   0.980 -0.7332  0.0994 -0.0015
  150SOL    MW4  647   3.815   4.658   0.894 -0.1929 -0.0495 -0.0977
  151SOL     OW  648   1.185   2.322   0.830  0.2137  0.3042 -0.2328
  151SOL    HW2  649   1.173   2.227   0.820 -0.4583  0.4439 -0.7921
  151SOL    HW3  650   1.167   2.339   0.922 -0.4898  0.0055 -0.3141
  151SOL    MW4  651   1.181   2.311   0.841  0.0322  0.2835 -0.3172
  152SOL     OW  652   1.056   2.688   0.612  0.2104  0.1931 -0.1041
  152SOL    HW2  653   0.995   2.683   0.538  0.6946  0.1606 -0.4984
  152SOL    HW3  654   1.113   2.612   0.602  0.5128  0.3906  0.0994
  152SOL    MW4  655   1.055   2.677   0.601  0.3142  0.2148 -0.1292
  153SOL     OW  656   0.510   1.011   0.908  0.7309 -0.0983 -0.8843
  153SOL    HW2  657   0.494   1.020   1.002 -1.1033  0.9362 -1.2680
  153SOL    HW3  658   0.543   1.096   0.881 -0.6606  0.2674 -1.5109
  153SOL    MW4  659   0.512   1.023   0.917  0.3054  0.0864 -1.0176
  154SOL     OW  660   3.140   1.555   0.542 -0.0921  0.1482  0.2531
  154SOL    HW2  661   3.195   1.597   0.608 -0.0968  0.0021  0.3494
  154SOL    HW3  662   3.203   1.513   0.482 -0.0417  1.5292 -0.6643
  154SOL    MW4  663   3.156   1.555   0.543 -0.0863  0.3113  0.1448
  155SOL     OW  664   3.117   1.150   1.119 -0.0020  0.3365 -0.2521
  155SOL    HW2  665   3.169   1.151   1.038  1.5813 -1.5348  0.7057
  155SOL    HW3  666   3.179   1.175   1.187 -1.0804  0.8845  0.5349
  155SOL    MW4  667   3.132   1.154   1.117  0.0648  0.1620 -0.0219
  156SOL     OW  668   0.698   3.884   0.861  0.0170 -0.2964  0.2343
  156SOL    HW2  669   0.629   3.830   0.821 -0.8375  0.1868  1.0196
  156SOL    HW3  670   0.694   3.862   0.955 -1.9912  2.8292  0.9792
  156SOL    MW4  671   0.688   3.874   0.868 -0.3608  0.1798  0.4361
  157SOL     OW  672   1.297   1.428   0.757  0.1287  0.1045  0.1414
  157SOL    HW2  673   1.229   1.494   0.775 -0.6372 -0.5749 -0.2248
  157SOL    HW3  674   1.378   1.469   0.787 -0.4979  0.7546  0.9846
  157SOL    MW4  675   1.298   1.442   0.763 -0.0551  0.1007  0.2043
  158SOL     OW  676   1.304   1.931   1.122  0.1136 -0.3881 -0.2009
  158SOL    HW2  677   1.229   1.962   1.173  0.0153 -2.8143  1.2017
  158SOL    HW3  678   1.273   1.933   1.031 -0.4103  2.0084  0.0016
  158SOL    MW4  679   1.290   1.936   1.117  0.0316 -0.3920  0.0108
  159SOL     OW  680   2.922   4.128   0.747  0.3021 -0.2448 -0.1373
  159SOL    HW2  681   2.935   4.035   0.762  3.1439  0.1380  0.0562
  159SOL    HW3  682   2.960   4.144   0.661  0.4383  0.8636  0.1235
  159SOL    MW4  683   2.929   4.118   0.737  0.6945 -0.0482 -0.0774
  160SOL     OW  684   2.745   2.141   0.803 -0.4763  0.5673 -0.2948
  160SOL    HW2  685   2.825   2.178   0.839  0.5267 -0.8418 -1.0173
  160SOL    HW3  686   2.762   2.134   0.709 -2.0166  1.6318 -0.6721
  160SOL    MW4  687   2.758   2.145   0.795 -0.5474  0.5217 -0.4400
  161SOL     OW  688   1.556   2.164   0.620  0.0534 -0.3770  0.5848
  161SOL    HW2  689   1.649   2.161   0.645 -0.2546 -1.3644  1.6525
  161SOL    HW3  690   1.515   2.219   0.687 -0.2565 -0.5726  0.5586
  161SOL    MW4  691   1.563   2.171   0.632 -0.0281 -0.5333  0.7222
  162SOL     OW  692   3.840   2.275   1.163  0.1808 -0.2820  0.5357
  162SOL    HW2  693   3.838   2.182   1.188  1.4595  0.3376  3.0851
  162SOL    HW3  694   3.928   2.304   1.187  0.2830  1.2600 -1.6005
  162SOL    MW4  695   3.851   2.266   1.170  0.3631  0.0029  0.5902
  163SOL     OW  696   3.325   4.163   0.820 -0.1542  0.1696  0.1599
  163SOL    HW2  697   3.247   4.210   0.850 -0.7493  0.3143 -1.5101
  163SOL    HW3  698   3.307   4.146   0.727  1.0124 -1.4237  0.2228
  163SOL    MW4  699   3.312   4.167   0.812 -0.0787 -0.0215 -0.0521
  164SOL     OW  700   4.484   4.520   0.736  0.1645  0.6030  0.2077
  164SOL    HW2  701   4.570   4.562   0.746 -0.4161  2.5048 -2.4508
  164SOL    HW3  702   4.424   4.576   0.785  0.1017  0.3134  0.4691
  164SOL    MW4  703   4.488   4.533   0.744  0.0797  0.8154 -0.1085
  165SOL     OW  704   1.333   3.453   0.788  0.1333 -0.5375 -0.2243
  165SOL    HW2  705   1.376   3.369   0.778 -1.1137 -1.1055 -1.0148
  165SOL    HW3  706   1.334   3.471   0.882  0.6566 -1.2954 -0.0904
  165SOL    MW4  707   1.339   3.445   0.799  0.0377 -0.7124 -0.3109
  166SOL     OW  708   3.359   1.389   0.439  0.7160 -0.3965 -0.1559
  166SOL    HW2  709   3.383   1.359   0.526 -1.6954 -0.1940  0.6331
  166SOL    HW3  710   3.301   1.321   0.405 -1.2029  1.1581 -0.1391
  166SOL    MW4  711   3.354   1.376   0.446  0.1445 -0.1646 -0.0496
  167SOL     OW  712   2.056   2.537   0.693  0.3594 -0.2391  0.2695
  167SOL    HW2  713   2.128   2.578   0.740  2.9148 -0.8326 -2.9388
  167SOL    HW3  714   2.039   2.455   0.740  1.5633  0.0666  1.2439
  167SOL    MW4  715   2.063   2.531   0.705  0.8554 -0.2773 -0.0253
  168SOL     OW  716   0.110   2.711   0.415 -0.2811 -0.1649 -0.5244
  168SOL    HW2  717   0.146   2.675   0.496 -0.4628 -0.1691 -0.4441
  168SOL    HW3  718   0.186   2.746   0.368 -0.3032  0.7946  0.1405
  168SOL    MW4  719   0.125   2.711   0.419 -0.3080 -0.0389 -0.4261
  169SOL     OW  720   1.250   1.234   0.550 -0.3422  0.2435  0.5635
  169SOL    HW2  721   1.255   1.304   0.614 -1.0818  0.3361  0.5256
  169SOL    HW3  722   1.341   1.217   0.525 -0.3335  3.3344 -1.7521
  169SOL    MW4  723   1.263   1.241   0.555 -0.4385  0.6634  0.2530
  170SOL     OW  724   0.853   1.919   1.182 -0.4726 -0.0616  0.0399
  170SOL    HW2  725   0.926   1.978   1.198 -0.5073  0.2674 -0.9519
  170SOL    HW3  726   0.839   1.923   1.087 -0.4230 -1.7202 -0.0555
  170SOL    MW4  727   0.860   1.927   1.171 -0.4706 -0.2369 -0.1037
  171SOL     OW  728   2.039   4.055   0.778 -0.0544 -0.2734  0.0041
  171SOL    HW2  729   2.055   4.073   0.685 -0.1082 -0.9472 -0.1373
  171SOL    HW3  730   2.011   3.963   0.780  0.0995 -0.3051  0.7039
  171SOL    MW4  731   2.037   4.045   0.766 -0.0412 -0.3657  0.0778
  172SOL     OW  732   2.152   1.369   0.492 -0.2083 -0.4537  0.0470
  172SOL    HW2  733   2.189   1.361   0.580 -1.7357 -1.3496  0.6412
  172SOL    HW3  734   2.170   1.460   0.466  0.2264 -0.1729  1.2986
  172SOL    MW4  735   2.159   1.380   0.500 -0.3524 -0.5348  0.2905
  173SOL     OW  736   1.322   3.894   0.639 -0.0181  0.2518  0.7406
  173SOL    HW2  737   1.383   3.947   0.587  0.5117 -0.5354  0.5414
  173SOL    HW3  738   1.373   3.816   0.662 -1.0710 -0.5743  0.2817
  173SOL    MW4  739   1.337   3.891   0.635 -0.0870  0.0386  0.6538
  174SOL     OW  740   0.647   3.359   0.596  0.1691 -0.4375 -0.6828
  174SOL    HW2  741   0.629   3.445   0.559 -2.1501 -0.0120  1.2541
  174SOL    HW3  742   0.723   3.327   0.548  1.1499  2.7283 -1.3661
  174SOL    MW4  743   0.654   3.366   0.585 -0.0075  0.0360 -0.5174
  175SOL     OW  744   1.270   4.281   0.854 -0.2413 -0.4209  0.0638
  175SOL    HW2  745   1.312   4.295   0.769 -1.0104  2.2461  0.0650
  175SOL    HW3  746   1.193   4.227   0.834 -0.4363  0.2103 -0.9507
  175SOL    MW4  747   1.265   4.276   0.840 -0.3685  0.0143 -0.0699
  176SOL     OW  748   2.445   1.004   0.740 -0.5290  0.2164 -0.4019
  176SOL    HW2  749   2.508   1.052   0.794 -0.4934  1.9307 -1.9053
  176SOL    HW3  750   2.361   1.045   0.760 -0.6432  0.2609 -0.9587
  176SOL    MW4  751   2.443   1.016   0.750 -0.5391  0.4485 -0.6737
  177SOL     OW  752   1.954   4.621   0.863 -0.0279  0.0071  0.4601
  177SOL    HW2  753   1.898   4.561   0.814 -0.1216  1.5638 -1.4175
  177SOL    HW3  754   2.043   4.587   0.851 -0.2533 -0.7000  0.8061
  177SOL    MW4  755   1.958   4.609   0.855 -0.0700  0.1192  0.2581
  178SOL     OW  756   3.357   3.058   0.414  0.1164 -0.0987 -0.4497
  178SOL    HW2  757   3.396   3.005   0.484 -1.2713  0.9298  1.1699
  178SOL    HW3  758   3.428   3.074   0.353  1.2553 -1.4453  0.4878
  178SOL    MW4  759   3.371   3.053   0.415  0.0834 -0.1411 -0.1123
  179SOL     OW  760   1.777   0.527   0.513 -0.1988 -0.7864 -0.1286
  179SOL    HW2  761   1.762   0.574   0.595 -0.6564 -0.4342 -0.4132
  179SOL    HW3  762   1.729   0.577   0.447  1.4578 -0.1889 -0.8974
  179SOL    MW4  763   1.769   0.540   0.515 -0.0405 -0.6610 -0.2676
  180SOL     OW  764   0.537   1.826   0.844  0.4298 -0.1869 -0.2991
  180SOL    HW2  765   0.491   1.838   0.928 -0.8456 -2.5449 -0.6343
  180SOL    HW3  766   0.570   1.737   0.847  0.1177 -0.3901 -2.4488
  180SOL    MW4  767   0.535   1.816   0.856  0.2204 -0.5249 -0.6269
  181SOL     OW  768   4.317   4.474   0.370 -0.1512 -0.1155 -0.2863
  181SOL    HW2  769   4.390   4.516   0.416 -0.3146 -0.1684  0.0197
  181SOL    HW3  770   4.309   4.388   0.411  0.4809 -0.6293 -1.2217
  181SOL    MW4  771   4.326   4.468   0.381 -0.0896 -0.1898 -0.3694
  182SOL     OW  772   3.797   3.884   1.139 -0.2850 -0.5015 -0.2977
  182SOL    HW2  773   3.728   3.946   1.161 -1.1120 -1.6331  0.3941
  182SOL    HW3  774   3.803   3.886   1.044 -1.2442 -0.3604 -0.3559
  182SOL    MW4  775   3.789   3.892   1.129 -0.5207 -0.6323 -0.2141
  183SOL     OW  776   3.053   2.690   0.500 -0.1616 -0.5568 -0.1631
  183SOL    HW2  777   3.014   2.678   0.586 -0.3680  1.1491 -0.0065
  183SOL    HW3  778   3.139   2.647   0.507  0.2378  0.4242  1.2140
  183SOL    MW4  779   3.059   2.683   0.512 -0.1361 -0.2022  0.0393
  184SOL     OW  780   1.760   1.402   0.755 -0.4593  0.2759  0.2521
  184SOL    HW2  781   1.841   1.431   0.797 -1.0025  0.4827  1.1682
  184SOL    HW3  782   1.787   1.379   0.666  0.2090  2.3508 -0.1097
  184SOL    MW4  783   1.775   1.403   0.749 -0.4429  0.5770  0.3252
  185SOL     OW  784   0.413   0.935   0.348 -0.2473  0.0252  0.3269
  185SOL    HW2  785   0.389   1.028   0.350 -1.9183 -0.4147  1.1511
  185SOL    HW3  786   0.496   0.931   0.396 -0.7793  0.9301  1.3501
  185SOL    MW4  787   0.421   0.947   0.355 -0.5379  0.0866  0.5706
  186SOL     OW  788   3.626   1.256   0.916  0.1681 -0.4875 -0.4413
  186SOL    HW2  789   3.703   1.206   0.890  0.5248  0.3496 -1.0048
  186SOL    HW3  790   3.608   1.228   1.006  1.4873 -0.2401 -0.0955
  186SOL    MW4  791   3.634   1.246   0.925  0.3893 -0.3444 -0.4701
  187SOL     OW  792   2.477   0.754   1.149 -0.0297 -0.0786  0.0017
  187SOL    HW2  793   2.481   0.752   1.054  1.2337  0.2811  0.0480
  187SOL    HW3  794   2.453   0.664   1.173  0.5012 -0.3930 -0.6158
  187SOL    MW4  795   2.474   0.742   1.140  0.2074 -0.0727 -0.0737
  188SOL     OW  796   1.354   2.698   1.109 -0.3698 -0.1456  0.4802
  188SOL    HW2  797   1.288   2.763   1.135  0.3175  0.7445 -0.0051
  188SOL    HW3  798   1.358   2.703   1.014  0.9016  0.2971  0.5478
  188SOL    MW4  799   1.346   2.707   1.100 -0.1115  0.0303  0.4251
  189SOL     OW  800   3.740   0.084   0.215  0.3769  0.0992 -0.3425
  189SOL    HW2  801   3.755   0.053   0.304  1.0081 -0.6453 -0.7065
  189SOL    HW3  802   3.698   0.010   0.171 -1.2924  0.9671 -0.2747
  189SOL    MW4  803   3.736   0.071   0.221  0.2398  0.1155 -0.3816
  190SOL     OW  804   0.355   1.987   0.436 -0.1801  0.1030  0.1749
  190SOL    HW2  805   0.358   1.981   0.531 -1.0136 -1.9671  0.1025
  190SOL    HW3  806   0.440   1.955   0.407  0.2282  1.1195  0.2150
  190SOL    MW4  807   0.367   1.982   0.444 -0.2362 -0.0360  0.1707
  191SOL     OW  808   1.799   3.343   0.878  0.0350 -0.3098 -0.0389
  191SOL    HW2  809   1.783   3.376   0.966 -0.2642 -0.7637  0.0776
  191SOL    HW3  810   1.831   3.254   0.891  0.8876 -0.0513 -0.3526
  191SOL    MW4  811   1.801   3.336   0.891  0.1079 -0.3357 -0.0650
  192SOL     OW  812   2.248   2.119   0.511  0.4710 -0.4334  0.0081
  192SOL    HW2  813   2.267   2.206   0.476  0.7864 -0.5425 -0.0899
  192SOL    HW3  814   2.267   2.126   0.604 -1.3268  0.1442  0.3596
  192SOL    MW4  815   2.253   2.131   0.518  0.2756 -0.3717  0.0416
  193SOL     OW  816   1.434   1.903   0.620 -0.0337 -0.5135 -0.7019
  193SOL    HW2  817   1.465   1.993   0.623 -0.2884 -0.3670 -2.1268
  193SOL    HW3  818   1.505   1.852   0.659  0.6912  0.1485 -1.1494
  193SOL    MW4  819   1.447   1.908   0.626  0.0283 -0.4066 -0.9490
  194SOL     OW  820   3.017   0.289   0.898  0.5907  0.5400 -0.4661
  194SOL    HW2  821   2.927   0.322   0.903  0.4130  0.1199 -0.7749
  194SOL    HW3  822   3.056   0.313   0.981 -0.2588 -0.5549  0.2628
  194SOL    MW4  823   3.010   0.297   0.909  0.4551  0.3401 -0.4107
  195SOL     OW  824   1.376   2.728   0.842 -0.2370  0.1613  0.1196
  195SOL    HW2  825   1.338   2.782   0.772 -0.4015  1.0637  0.8861
  195SOL    HW3  826   1.442   2.675   0.798 -0.3286  0.7295 -0.7205
  195SOL    MW4  827   1.379   2.728   0.827 -0.2708  0.3552  0.1099
  196SOL     OW  828   1.331   4.032   0.242 -0.3351  0.2871 -0.0556
  196SOL    HW2  829   1.268   3.959   0.238 -0.4239  0.3327  0.4082
  196SOL    HW3  830   1.279   4.107   0.271  0.2004 -0.0143  1.7857
  196SOL    MW4  831   1.316   4.032   0.246 -0.2761  0.2537  0.2485
  197SOL     OW  832   2.371   0.288   0.519  0.2068  0.0996 -0.0715
  197SOL    HW2  833   2.431   0.275   0.592  0.1998  1.3786  0.1666
  197SOL    HW3  834   2.334   0.201   0.503  1.3452 -0.4903  0.4456
  197SOL    MW4  835   2.374   0.275   0.527  0.3562  0.1905  0.0281
  198SOL     OW  836   1.814   2.605   0.857 -0.1856 -0.3058  0.0514
  198SOL    HW2  837   1.843   2.599   0.948  0.1527  1.2108  0.0526
  198SOL    HW3  838   1.896   2.598   0.807 -0.2576 -0.0062 -0.1018
  198SOL    MW4  839   1.829   2.603   0.862 -0.1506 -0.0663  0.0313
  199SOL     OW  840   2.585   0.406   0.395 -0.3376 -0.1953  0.1676
  199SOL    HW2  841   2.505   0.377   0.440 -1.4195 -1.0831 -2.2491
  199SOL    HW3  842   2.637   0.326   0.386 -0.9191 -0.3930 -1.6843
  199SOL    MW4  843   2.581   0.392   0.400 -0.5572 -0.3385 -0.3955
  200SOL     OW  844   0.406   2.520   0.438 -0.2482 -0.1881  0.3611
  200SOL    HW2  845   0.341   2.457   0.406 -0.0975  0.0889 -0.5014
  200SOL    HW3  846   0.368   2.605   0.417  0.0845 -0.0113  0.4821
  200SOL    MW4  847   0.392   2.523   0.431 -0.1844 -0.1280  0.2633
  201SOL     OW  848   4.483   2.181   0.733  0.5011 -0.0890 -0.1218
  201SOL    HW2  849   4.478   2.094   0.773 -0.1222 -0.3879 -0.8558
  201SOL    HW3  850   4.484   2.165   0.639 -0.5320  0.7364 -0.2810
  201SOL    MW4  851   4.482   2.167   0.726  0.2828 -0.0193 -0.2396
  202SOL     OW  852   0.117   1.806   0.728  0.0081 -0.1629  0.3909
  202SOL    HW2  853   0.046   1.855   0.771  0.8281  0.8013  0.6692
  202SOL    HW3  854   0.188   1.870   0.720  1.6099 -1.7132  2.0606
  202SOL    MW4  855   0.117   1.821   0.733  0.3276 -0.2402  0.6480
  203SOL     OW  856   2.457   0.718   0.878 -0.6625 -0.6758 -0.1618
  203SOL    HW2  857   2.538   0.670   0.858  1.3129  1.6206  2.0468
  203SOL    HW3  858   2.457   0.790   0.816 -1.4603 -1.1260 -0.6922
  203SOL    MW4  859   2.468   0.721   0.867 -0.5069 -0.4322  0.0596
  204SOL     OW  860   0.889   2.294   0.474 -0.1873  0.1187  0.2436
  204SOL    HW2  861   0.953   2.347   0.520  0.1826  0.4601 -0.6636
  204SOL    HW3  862   0.819   2.355   0.450 -0.2049  0.0152  0.0277
  204SOL    MW4  863   0.888   2.309   0.477 -0.1408  0.1502  0.0955
  205SOL     OW  864   1.505   4.094   0.877 -0.2451  0.6085 -0.0268
  205SOL    HW2  865   1.428   4.149   0.866 -0.1540  0.5947 -0.7316
  205SOL    HW3  866   1.494   4.024   0.812 -0.0763  0.1140  0.4695
  205SOL    MW4  867   1.493   4.092   0.867 -0.2106  0.5417 -0.0543
  206SOL     OW  868   2.704   3.483   1.133  0.2740 -0.4986  0.4813
  206SOL    HW2  869   2.624   3.529   1.156  1.1238  0.6053  1.2912
  206SOL    HW3  870   2.714   3.499   1.039  0.1268  0.2933  0.5953
  206SOL    MW4  871   2.695   3.491   1.123  0.3669 -0.2484  0.6031
  207SOL     OW  872   2.724   2.644   0.862  0.5067 -0.0666 -0.1572
  207SOL    HW2  873   2.708   2.671   0.952  0.6821 -2.0633  0.4944
  207SOL    HW3  874   2.644   2.598   0.835  0.6077  0.1665 -0.8846
  207SOL    MW4  875   2.711   2.642   0.870  0.5431 -0.2995 -0.1672
  208SOL     OW  876   1.564   1.556   1.136 -0.3758 -0.0106  0.5114
  208SOL    HW2  877   1.562   1.568   1.041 -1.3347 -1.3900  0.3354
  208SOL    HW3  878   1.645   1.598   1.164  0.7573 -1.0459 -1.1259
  208SOL    MW4  879   1.574   1.563   1.127 -0.3529 -0.3291  0.2722
  209SOL     OW  880   2.713   0.633   0.766 -0.0458 -0.2014 -0.1382
  209SOL    HW2  881   2.766   0.710   0.788 -1.2647  0.9540 -1.1953
  209SOL    HW3  882   2.692   0.644   0.673 -1.2655 -1.1823  0.0157
  209SOL    MW4  883   2.717   0.644   0.757 -0.3676 -0.1785 -0.2574
  210SOL     OW  884   1.243   0.490   0.739 -0.2779 -0.0511  0.8761
  210SOL    HW2  885   1.214   0.581   0.735 -0.1991 -0.0690 -0.6260
  210SOL    HW3  886   1.292   0.484   0.821  0.7064  1.5701  0.4550
  210SOL    MW4  887   1.246   0.501   0.749 -0.1377  0.1605  0.6223
  211SOL     OW  888   1.115   4.665   1.177  0.1340  0.1648  0.1958
  211SOL    HW2  889   1.135   4.629   1.090 -0.9003  0.6682 -0.2473
  211SOL    HW3  890   1.032   4.710   1.166  0.0501  0.3164  1.4327
  211SOL    MW4  891   1.107   4.666   1.164 -0.0135  0.2513  0.3006
  212SOL     OW  892   4.245   4.223   0.506 -0.0618 -0.1299  0.0655
  212SOL    HW2  893   4.319   4.168   0.479 -0.0154  0.5364 -1.1655
  212SOL    HW3  894   4.218   4.186   0.591  1.3120 -0.7262  0.2539
  212SOL    MW4  895   4.251   4.211   0.514  0.1254 -0.1206 -0.0720
  213SOL     OW  896   0.131   3.113   0.296 -0.3362  0.0935 -0.0077
  213SOL    HW2  897   0.090   3.043   0.346 -0.6014 -0.3796 -0.8934
  213SOL    HW3  898   0.220   3.083   0.280 -0.5548 -0.1888 -0.6860
  213SOL    MW4  899   0.137   3.100   0.301 -0.4000 -0.0062 -0.2141
  214SOL     OW  900   0.098   0.640   0.582 -0.0988 -0.0120  0.1717
  214SOL    HW2  901   0.127   0.729   0.559  1.2400 -0.7249 -0.9297
  214SOL    HW3  902   0.015   0.629   0.536  0.0310  0.4420 -0.1757
  214SOL    MW4  903   0.091   0.651   0.573  0.0950 -0.0462 -0.0195
  215SOL     OW  904   2.687   0.387   1.132  0.0324  0.3107 -0.1882
  215SOL    HW2  905   2.604   0.422   1.163  1.1518  1.9789  0.9728
  215SOL    HW3  906   2.693   0.300   1.171 -0.9025  0.4132  0.1850
  215SOL    MW4  907   2.677   0.380   1.141  0.0570  0.5443  0.0142
  216SOL     OW  908   0.190   0.895   0.538  0.0737  0.2067  0.3970
  216SOL    HW2  909   0.255   0.926   0.474  0.3880 -2.4444 -0.5964
  216SOL    HW3  910   0.223   0.928   0.622  0.5100  2.3637 -0.5876
  216SOL    MW4  911   0.203   0.904   0.541  0.1727  0.1415  0.1361
  217SOL     OW  912   2.868   2.163   0.545  0.4881 -0.5797  0.0264
  217SOL    HW2  913   2.835   2.250   0.523 -0.2570 -0.3426  1.9174
  217SOL    HW3  914   2.849   2.109   0.468 -0.1640  0.6505 -0.6891
  217SOL    MW4  915   2.861   2.167   0.532  0.3040 -0.3862  0.1815
  218SOL     OW  916   0.510   1.395   0.421  0.2805 -0.1027 -0.6420
  218SOL    HW2  917   0.567   1.439   0.358 -0.1831  0.8336 -0.4167
  218SOL    HW3  918   0.569   1.347   0.479  0.7497 -0.3133 -1.2948
  218SOL    MW4  919   0.525   1.394   0.420  0.2812 -0.0070 -0.6984
  219SOL     OW  920   1.336   0.131   1.280  0.0720  0.1415  0.1050
  219SOL    HW2  921   1.247   0.109   1.253 -0.2241  0.5462  0.7527
  219SOL    HW3  922   1.390   0.066   1.237 -0.2704  1.5040 -2.4614
  219SOL    MW4  923   1.331   0.120   1.271 -0.0123  0.3746 -0.1482
  220SOL     OW  924   0.444   4.545   0.711 -0.3976  0.2778 -0.2438
  220SOL    HW2  925   0.444   4.531   0.617  0.0520 -2.2497  0.0954
  220SOL    HW3  926   0.533   4.574   0.731 -0.3656  0.3886 -0.5460
  220SOL    MW4  927   0.456   4.547   0.701 -0.3340 -0.0410 -0.2389
  221SOL     OW  928   1.950   3.789   0.839  0.6528 -0.8063  0.0059
  221SOL    HW2  929   1.856   3.802   0.853  0.9249  3.5263 -1.2528
  221SOL    HW3  930   1.988   3.790   0.926 -0.4257 -2.4799  0.5178
  221SOL    MW4  931   1.943   3.791   0.852  0.5465 -0.4559 -0.0927
  222SOL     OW  932   3.636   4.553   0.069 -0.0482 -0.6821 -0.3447
  222SOL    HW2  933   3.716   4.506   0.093 -0.0093  0.1943  1.3154
  222SOL    HW3  934   3.659   4.600  -0.011  0.4444 -2.0694 -1.0446
  222SOL    MW4  935   3.650   4.553   0.062  0.0217 -0.7501 -0.2180
  223SOL     OW  936   1.492   0.774   0.890  0.2737 -0.2091 -0.1672
  223SOL    HW2  937   1.526   0.805   0.973  1.0572 -1.6120  0.0569
  223SOL    HW3  938   1.464   0.684   0.907 -0.4008 -0.2096 -1.1922
  223SOL    MW4  939   1.493   0.766   0.903  0.2882 -0.3943 -0.2729
  224SOL     OW  940   4.278   1.696   0.502 -0.0520  0.0028  0.6573
  224SOL    HW2  941   4.287   1.786   0.470  0.5283 -0.2040  0.2377
  224SOL    HW3  942   4.196   1.665   0.464  0.9220 -0.4409 -1.1148
  224SOL    MW4  943   4.268   1.704   0.493  0.1531 -0.0830  0.3681
  225SOL     OW  944   0.957   1.632   0.207  0.1191 -0.0604 -0.1566
  225SOL    HW2  945   1.002   1.567   0.261  0.3495  0.9862  0.9291
  225SOL    HW3  946   1.025   1.666   0.149  0.3224  0.2720  0.2820
  225SOL    MW4  947   0.972   1.628   0.206  0.1764  0.1216  0.0445
  226SOL     OW  948   3.822   4.024   0.531 -0.2076  0.0164  0.0296
  226SOL    HW2  949   3.903   4.055   0.488  0.9634  0.5740  2.5589
  226SOL    HW3  950   3.752   4.063   0.479  1.1563 -0.0350 -1.9015
  226SOL    MW4  951   3.824   4.033   0.518  0.1268  0.0830  0.1085
  227SOL     OW  952   1.257   0.050   0.442  0.2049  0.0483  0.3118
  227SOL    HW2  953   1.232   0.140   0.421  0.9830  0.8152  2.4424
  227SOL    HW3  954   1.349   0.045   0.418 -0.0636 -0.4565 -0.6179
  227SOL    MW4  955   1.266   0.061   0.436  0.2722  0.0829  0.4703
  228SOL     OW  956   2.663   1.588   0.440  0.0765 -0.3163  0.1485
  228SOL    HW2  957   2.654   1.506   0.489 -0.6162 -0.9228 -0.9878
  228SOL    HW3  958   2.745   1.626   0.472  0.0625 -1.1175  1.1685
  228SOL    MW4  959   2.673   1.582   0.451 -0.0167 -0.5019  0.1332
  229SOL     OW  960   2.469   3.824   0.830  0.2152  0.5301  0.4666
  229SOL    HW2  961   2.487   3.837   0.923  1.4432  1.3663  0.1293
  229SOL    HW3  962   2.550   3.788   0.794  0.0654  1.0676 -0.4406
  229SOL    MW4  963   2.482   3.821   0.837  0.3574  0.7114  0.3024
  230SOL     OW  964   0.036   0.335   0.891  0.2007 -0.2639 -0.6606
  230SOL    HW2  965  -0.055   0.308   0.878 -0.0919  0.7269 -0.7384
  230SOL    HW3  966   0.033   0.431   0.889  1.0535 -0.1959  0.6757
  230SOL    MW4  967   0.024   0.344   0.889  0.2747 -0.1242 -0.4945
  231SOL     OW  968   2.395   1.823   0.476 -0.1914  0.0528  0.2151
  231SOL    HW2  969   2.372   1.915   0.466 -0.2042 -0.0869 -1.0734
  231SOL    HW3  970   2.472   1.810   0.422 -0.9201 -0.9722 -0.6211
  231SOL    MW4  971   2.402   1.833   0.468 -0.2894 -0.1009 -0.0652
  232SOL     OW  972   1.001   3.409   0.424 -0.1925  0.1154 -0.1890
  232SOL    HW2  973   1.043   3.414   0.510 -1.6926  0.5646  0.5385
  232SOL    HW3  974   0.951   3.490   0.416  0.1351  0.1901 -1.5959
  232SOL    MW4  975   1.000   3.420   0.434 -0.3472  0.1848 -0.2786
  233SOL     OW  976   1.759   0.362   1.157  0.2505 -0.7828 -0.2113
  233SOL    HW2  977   1.771   0.381   1.064 -0.8720 -1.8205 -0.5782
  233SOL    HW3  978   1.772   0.268   1.164  1.0266 -0.6050  0.8051
  233SOL    MW4  979   1.762   0.352   1.146  0.2049 -0.8962 -0.1256
  234SOL     OW  980   1.550   3.249   0.792 -0.3577 -0.0556  0.0703
  234SOL    HW2  981   1.641   3.269   0.815 -0.2258 -0.0668 -0.4262
  234SOL    HW3  982   1.548   3.154   0.783 -0.8758 -0.2463  1.9731
  234SOL    MW4  983   1.562   3.239   0.794 -0.4085 -0.0823  0.2559
  235SOL     OW  984   4.026   1.930   1.158 -0.6976  0.0754 -0.0924
  235SOL    HW2  985   4.094   1.978   1.206 -1.1723  0.7727 -0.1060
  235SOL    HW3  986   4.049   1.942   1.066 -1.3047  1.0123 -0.1243
  235SOL    MW4  987   4.038   1.938   1.152 -0.8402  0.2910 -0.0985
  236SOL     OW  988   4.202   3.974   0.215 -0.1460 -0.1104 -0.5372
  236SOL    HW2  989   4.199   3.909   0.145  0.8928 -1.1175  0.3251
  236SOL    HW3  990   4.176   3.926   0.294  0.1640  0.6257  0.0218
  236SOL    MW4  991   4.198   3.959   0.217  0.0319 -0.1462 -0.3496
  237SOL     OW  992   4.029   2.951   0.769  0.3785 -0.2355 -0.5229
  237SOL    HW2  993   3.953   2.999   0.800  1.6284  0.4703  1.5718
  237SOL    HW3  994   4.023   2.955   0.674 -1.4064  1.0569 -0.3746
  237SOL    MW4  995   4.018   2.958   0.761  0.3076  0.0284 -0.2269
  238SOL     OW  996   4.257   3.377   0.802 -0.4789  0.3076 -0.0248
  238SOL    HW2  997   4.344   3.418   0.800  0.1911 -1.0589  0.8071
  238SOL    HW3  998   4.204   3.437   0.854  0.1731  0.7555  0.1380
  238SOL    MW4  999   4.262   3.391   0.808 -0.3052  0.1864  0.1064
  239SOL     OW 1000   1.436   0.510   0.945  0.3803 -0.9490 -0.0935
  239SOL    HW2 1001   1.491   0.442   0.907  0.8587 -0.9407  0.5761
  239SOL    HW3 1002   1.401   0.470   1.025  0.1551 -0.6288 -0.0306
  239SOL    MW4 1003   1.438   0.496   0.950  0.4138 -0.9057  0.0032
  240SOL     OW 1004   3.623   4.144   0.386  0.2789 -0.5338  0.0205
  240SOL    HW2 1005   3.565   4.074   0.356  0.0472  0.0068 -0.8114
  240SOL    HW3 1006   3.563   4.211   0.420  0.4288 -0.0990 -0.5680
  240SOL    MW4 1007   3.607   4.144   0.387  0.2680 -0.4058 -0.1670
  241SOL     OW 1008   3.549   2.688   0.653 -0.1520  0.1693 -0.1126
  241SOL    HW2 1009   3.575   2.641   0.733 -0.2006 -2.0066 -1.3359
  241SOL    HW3 1010   3.631   2.705   0.608 -0.1716  0.8753  0.1212
  241SOL    MW4 1011   3.563   2.684   0.658 -0.1609 -0.0246 -0.2432
  242SOL     OW 1012   1.701   4.412   0.279 -0.1207  0.1610  0.4731
  242SOL    HW2 1013   1.704   4.507   0.268  0.3689  0.0617 -0.2536
  242SOL    HW3 1014   1.649   4.381   0.206  0.8080 -0.2469 -0.0244
  242SOL    MW4 1015   1.695   4.420   0.268  0.0664  0.0944  0.3116
  243SOL     OW 1016   0.863   1.481   0.526 -0.0284  0.3660 -0.1970
  243SOL    HW2 1017   0.946   1.456   0.484  0.1449  0.9487 -0.2086
  243SOL    HW3 1018   0.803   1.497   0.453 -1.0872 -3.0704 -0.1770
  243SOL    MW4 1019   0.866   1.480   0.511 -0.1452 -0.0106 -0.1959
  244SOL     OW 1020   3.430   3.924   0.436 -0.1150  0.2495 -0.1732
  244SOL    HW2 1021   3.373   3.992   0.470 -0.6375  0.1249 -0.7825
  244SOL    HW3 1022   3.372   3.849   0.422  0.0951  0.2754 -1.2564
  244SOL    MW4 1023   3.415   3.923   0.439 -0.1564  0.2365 -0.3965
  245SOL     OW 1024   1.791   1.679   1.246 -0.0861 -0.2258  0.0975
  245SOL    HW2 1025   1.877   1.641   1.228  0.7369  1.5232  0.2152
  245SOL    HW3 1026   1.787   1.756   1.190 -0.4647  1.2310  2.0703
  245SOL    MW4 1027   1.801   1.684   1.236 -0.0274  0.1972  0.3732
  246SOL     OW 1028   1.555   0.307   0.803 -0.6384 -0.4061  0.4777
  246SOL    HW2 1029   1.567   0.315   0.709  0.1886 -1.7248  0.4650
  246SOL    HW3 1030   1.544   0.213   0.819  1.2480 -0.4252  1.9121
  246SOL    MW4 1031   1.555   0.296   0.793 -0.2803 -0.5826  0.6652
  247SOL     OW 1032   3.050   0.717   0.698 -0.0412  0.0207 -0.1050
  247SOL    HW2 1033   3.111   0.791   0.703  0.4988 -0.3459 -1.0320
  247SOL    HW3 1034   3.007   0.728   0.613  0.4109 -1.0066 -0.4707
  247SOL    MW4 1035   3.053   0.728   0.687  0.0896 -0.1632 -0.2756
  248SOL     OW 1036   1.505   3.630   0.449  0.3801 -0.3594  0.9399
  248SOL    HW2 1037   1.555   3.549   0.455  1.0106  0.0857  1.7571
  248SOL    HW3 1038   1.416   3.602   0.426  1.2472 -1.0700 -1.7660
  248SOL    MW4 1039   1.500   3.616   0.447  0.5777 -0.3943  0.6907
  249SOL     OW 1040   1.522   1.236   0.468  0.3625  0.8041  0.2041
  249SOL    HW2 1041   1.613   1.212   0.484  0.1696  0.0393  0.1853
  249SOL    HW3 1042   1.524   1.331   0.457  1.3620  0.6359 -1.1891
  249SOL    MW4 1043   1.534   1.245   0.469  0.4691  0.6810  0.0178
  250SOL     OW 1044   1.138   3.914   0.864  0.2488  0.0729 -0.0324
  250SOL    HW2 1045   1.169   3.882   0.949 -0.7554 -1.5942 -0.2775
  250SOL    HW3 1046   1.205   3.884   0.802 -0.5895 -1.4056 -0.2346
  250SOL    MW4 1047   1.151   3.906   0.867  0.0057 -0.3421 -0.0914
  251SOL     OW 1048   1.465   4.095   0.504 -0.2428  0.2324  0.0262
  251SOL    HW2 1049   1.556   4.117   0.484  0.2964 -1.3504  0.6657
  251SOL    HW3 1050   1.436   4.045   0.427 -0.5562  0.6599 -0.1373
  251SOL    MW4 1051   1.473   4.091   0.491 -0.2130  0.0801  0.0890
  252SOL     OW 1052   3.614   1.636   1.192 -0.3610  0.7251  0.5172
  252SOL    HW2 1053   3.590   1.729   1.185  1.7265  1.2863  0.5980
  252SOL    HW3 1054   3.530   1.591   1.204 -1.6266  2.3635 -1.7033
  252SOL    MW4 1055   3.600   1.642   1.192 -0.2527  1.0153  0.2350
  253SOL     OW 1056   3.813   1.141   0.403 -0.4831  0.0156 -0.3014
  253SOL    HW2 1057   3.797   1.235   0.395  0.3015  0.0267 -1.9869
  253SOL    HW3 1058   3.826   1.111   0.313 -0.5607 -1.6847  0.2304
  253SOL    MW4 1059   3.812   1.149   0.390 -0.3896 -0.2073 -0.4536
  254SOL     OW 1060   3.798   1.418   0.472  0.0085  0.0126 -0.5670
  254SOL    HW2 1061   3.783   1.445   0.563  1.5630 -0.0423 -0.2683
  254SOL    HW3 1062   3.730   1.462   0.422 -0.6052  0.3879  0.5703
  254SOL    MW4 1063   3.787   1.427   0.478  0.1323  0.0547 -0.3775
  255SOL     OW 1064   0.347   2.752   0.268 -0.1728 -0.3532 -0.1109
  255SOL    HW2 1065   0.377   2.838   0.240 -0.9755 -0.5497 -1.5853
  255SOL    HW3 1066   0.349   2.698   0.189 -1.8651 -1.0682  0.2991
  255SOL    MW4 1067   0.351   2.756   0.254 -0.5020 -0.4735 -0.2513
  256SOL     OW 1068   3.315   1.252   1.278  0.0500  0.0659 -0.4963
  256SOL    HW2 1069   3.338   1.335   1.236  0.8196  0.3271  0.4276
  256SOL    HW3 1070   3.323   1.269   1.372  0.4616 -1.1173 -0.3073
  256SOL    MW4 1071   3.319   1.265   1.285  0.2060 -0.0558 -0.3495
  257SOL     OW 1072   0.670   2.545   0.741  0.5312 -0.5064 -0.5228
  257SOL    HW2 1073   0.589   2.595   0.750  1.3432  0.5504  1.0667
  257SOL    HW3 1074   0.687   2.546   0.647 -0.4789  0.5871 -0.7165
  257SOL    MW4 1075   0.661   2.552   0.730  0.5051 -0.2227 -0.3386
  258SOL     OW 1076   3.432   0.075   0.424  0.2242 -0.1955  0.5260
  258SOL    HW2 1077   3.483   0.024   0.487 -1.0646 -0.2253  1.5788
  258SOL    HW3 1078   3.411   0.013   0.354  1.2428 -0.2936  0.2961
  258SOL    MW4 1079   3.436   0.060   0.423  0.1886 -0.2123  0.6346
  259SOL     OW 1080   4.334   0.074   0.243  0.3700 -0.2618 -0.1129
  259SOL    HW2 1081   4.349  -0.012   0.282  0.4415 -0.1807  0.0410
  259SOL    HW3 1082   4.242   0.074   0.216 -0.2766  0.4480  1.9961
  259SOL    MW4 1083   4.324   0.063   0.245  0.2942 -0.1574  0.1856
  260SOL     OW 1084   2.284   0.045   0.446  0.2186 -0.6142 -0.1088
  260SOL    HW2 1085   2.372   0.024   0.415  0.6666 -0.1647  0.8278
  260SOL    HW3 1086   2.242  -0.040   0.457  0.2917 -0.8037 -1.2538
  260SOL    MW4 1087   2.290   0.031   0.443  0.2875 -0.5799 -0.1363
  261SOL     OW 1088   4.315   0.342   0.564  0.0001  0.1175  0.0480
  261SOL    HW2 1089   4.229   0.310   0.536  0.5389 -3.4296  2.1688
  261SOL    HW3 1090   4.377   0.298   0.506  0.4769  1.9055 -0.8259
  261SOL    MW4 1091   4.312   0.332   0.553  0.1340 -0.1146  0.2125
  262SOL     OW 1092   0.207   3.088   0.870 -0.3791  0.0779  0.3882
  262SOL    HW2 1093   0.215   3.087   0.966 -1.4971 -1.3826  0.4719
  262SOL    HW3 1094   0.288   3.046   0.840 -0.3113 -0.0318  0.7128
  262SOL    MW4 1095   0.219   3.082   0.879 -0.5177 -0.1290  0.4421
  263SOL     OW 1096   3.193   0.472   0.685 -0.4667 -0.3208  0.4769
  263SOL    HW2 1097   3.146   0.552   0.710 -0.0340  0.0295  0.1745
  263SOL    HW3 1098   3.172   0.410   0.755 -2.0174 -0.4275 -0.0617
  263SOL    MW4 1099   3.184   0.474   0.698 -0.6139 -0.2886  0.3660
  264SOL     OW 1100   0.624   0.250   0.679  0.0291  0.1888 -1.0539
  264SOL    HW2 1101   0.557   0.286   0.738  0.7889  1.5510 -1.0049
  264SOL    HW3 1102   0.643   0.163   0.715 -0.1409  0.6571  0.2125
  264SOL    MW4 1103   0.617   0.244   0.692  0.1069  0.4303 -0.8804
  265SOL     OW 1104   2.246   2.706   0.840 -0.1321 -0.2028 -0.0238
  265SOL    HW2 1105   2.256   2.794   0.803  0.8873  0.1489  1.0273
  265SOL    HW3 1106   2.224   2.722   0.932  0.0034 -1.0512  0.1549
  265SOL    MW4 1107   2.245   2.720   0.848  0.0203 -0.2685  0.1385
  266SOL     OW 1108   3.379   2.819   1.254 -0.2828  0.5367  0.4392
  266SOL    HW2 1109   3.451   2.770   1.214 -0.7773  1.2444 -1.3667
  266SOL    HW3 1110   3.377   2.902   1.207 -3.4728 -0.1928 -0.8763
  266SOL    MW4 1111   3.388   2.823   1.243 -0.7689  0.5336  0.0274
  267SOL     OW 1112   0.754   1.844   0.604 -0.3363  0.2482  0.1083
  267SOL    HW2 1113   0.737   1.930   0.644  1.0244  0.8661 -0.5927
  267SOL    HW3 1114   0.774   1.787   0.678 -1.5017  0.4636  0.6060
  267SOL    MW4 1115   0.754   1.848   0.619 -0.3106  0.3582  0.0815
  268SOL     OW 1116   2.229   2.725   1.122 -0.7952 -0.2849  0.3361
  268SOL    HW2 1117   2.314   2.761   1.147 -0.3994 -1.0157  0.0795
  268SOL    HW3 1118   2.236   2.632   1.143 -1.8538 -0.1889  1.1305
  268SOL    MW4 1119   2.241   2.717   1.128 -0.8826 -0.3688  0.4071
  269SOL     OW 1120   4.480   2.950   0.741 -0.4322  1.0426 -0.4995
  269SOL    HW2 1121   4.403   2.997   0.771 -0.1631  1.5145 -0.5457
  269SOL    HW3 1122   4.553   2.992   0.785 -0.3232 -0.3562  0.7019
  269SOL    MW4 1123   4.479   2.962   0.750 -0.3824  0.9203 -0.3471
  270SOL     OW 1124   0.915   2.709   1.147  0.2585  0.4785 -0.6628
  270SOL    HW2 1125   0.902   2.625   1.191  0.9511  0.0559 -1.2629
  270SOL    HW3 1126   0.929   2.687   1.055  1.2897  1.1798 -0.6849
  270SOL    MW4 1127   0.915   2.695   1.141  0.4859  0.5152 -0.7451
  271SOL     OW 1128   3.813   0.359   0.530 -0.0379  0.4185 -0.0582
  271SOL    HW2 1129   3.807   0.454   0.520 -1.0844  0.6330  2.2223
  271SOL    HW3 1130   3.729   0.326   0.501  0.0711  0.2560 -0.1877
  271SOL    MW4 1131   3.801   0.367   0.525 -0.1616  0.4254  0.2255
  272SOL     OW 1132   0.201   2.644   0.665  0.3514 -0.1154  0.1528
  272SOL    HW2 1133   0.225   2.552   0.670  1.1159  0.0844  0.1864
  272SOL    HW3 1134   0.130   2.653   0.728  2.5400  0.0251  2.7021
  272SOL    MW4 1135   0.195   2.633   0.674  0.7410 -0.0703  0.4935
  273SOL     OW 1136   3.135   1.893   0.869  0.4080 -0.0945  0.3281
  273SOL    HW2 1137   3.202   1.832   0.839  0.4367  0.2685 -0.3406
  273SOL    HW3 1138   3.148   1.971   0.815 -1.6202 -0.6290 -0.9710
  273SOL    MW4 1139   3.146   1.895   0.858  0.1442 -0.1172  0.0684
  274SOL     OW 1140   4.074   0.215   0.470 -0.6796 -0.1948 -0.0226
  274SOL    HW2 1141   4.078   0.178   0.382  0.0344 -1.8485  0.6787
  274SOL    HW3 1142   3.993   0.266   0.472  0.2279  1.4077 -2.2228
  274SOL    MW4 1143   4.064   0.217   0.459 -0.4659 -0.2016 -0.2204
  275SOL     OW 1144   3.814   2.785   1.198 -0.3139 -0.1829  0.5303
  275SOL    HW2 1145   3.813   2.872   1.157  0.1427 -0.8550 -0.9391
  275SOL    HW3 1146   3.803   2.803   1.292  0.2576  1.4858  0.3026
  275SOL    MW4 1147   3.812   2.799   1.205 -0.1781 -0.0513  0.3064
  276SOL     OW 1148   0.887   3.670   0.495  0.5166 -0.0736  0.0617
  276SOL    HW2 1149   0.949   3.731   0.455 -0.0497  1.0621  0.8534
  276SOL    HW3 1150   0.913   3.667   0.587 -2.1226  2.4836  0.9987
  276SOL    MW4 1151   0.899   3.678   0.502  0.0936  0.4134  0.2898
  277SOL     OW 1152   4.267   2.054   1.270  0.0353 -0.0722  0.0142
  277SOL    HW2 1153   4.283   2.144   1.243 -2.8256  0.7482  0.9025
  277SOL    HW3 1154   4.326   2.001   1.217  1.8971  2.3401 -0.3525
  277SOL    MW4 1155   4.277   2.059   1.260 -0.0963  0.3545  0.0831
  278SOL     OW 1156   0.296   4.416   0.440  0.0689 -0.4295 -0.0058
  278SOL    HW2 1157   0.262   4.328   0.423 -0.3659 -0.3400  0.3960
  278SOL    HW3 1158   0.390   4.409   0.423  0.0765 -1.0323  0.2642
  278SOL    MW4 1159   0.304   4.403   0.436  0.0126 -0.4969  0.0829
  279SOL     OW 1160   3.573   3.751   0.791  0.1162 -0.3021  0.4158
  279SOL    HW2 1161   3.487   3.793   0.793  0.1592 -0.2103  0.3303
  279SOL    HW3 1162   3.600   3.757   0.699 -0.0193 -0.7993  0.3436
  279SOL    MW4 1163   3.565   3.757   0.779  0.1042 -0.3557  0.3951
  280SOL     OW 1164   2.977   2.263   0.896 -0.2676  0.1890  0.2156
  280SOL    HW2 1165   2.969   2.357   0.879  0.3262  0.2199  0.1031
  280SOL    HW3 1166   2.967   2.255   0.991 -1.0720  0.2809  0.1470
  280SOL    MW4 1167   2.975   2.274   0.906 -0.2956  0.2055  0.1917
  281SOL     OW 1168   0.487   0.324   1.174 -0.5684  0.1961 -0.6526
  281SOL    HW2 1169   0.486   0.319   1.078 -0.2134  0.8430 -0.6956
  281SOL    HW3 1170   0.515   0.237   1.203 -3.0231 -0.7547 -1.0611
  281SOL    MW4 1171   0.491   0.312   1.165 -0.8455  0.1560 -0.7122
  282SOL     OW 1172   2.958   1.516   0.932 -0.1123 -0.1265 -0.3910
  282SOL    HW2 1173   2.925   1.589   0.880  0.8414  0.6367  0.0522
  282SOL    HW3 1174   2.935   1.539   1.023 -1.5934 -1.3541 -0.4394
  282SOL    MW4 1175   2.951   1.529   0.937 -0.1819 -0.1878 -0.3390
  283SOL     OW 1176   2.791   2.442   0.497 -0.2988  0.0041  0.5680
  283SOL    HW2 1177   2.816   2.512   0.437  0.2296 -0.0526  0.7194
  283SOL    HW3 1178   2.841   2.459   0.577  0.7588 -1.2209  0.1853
  283SOL    MW4 1179   2.801   2.453   0.500 -0.0894 -0.1650  0.5375
  284SOL     OW 1180   0.423   3.482   0.862 -0.3190 -0.3224  0.0361
  284SOL    HW2 1181   0.365   3.436   0.800 -0.1879 -0.5791  0.1031
  284SOL    HW3 1182   0.507   3.437   0.853  0.2265  0.8599 -0.9882
  284SOL    MW4 1183   0.427   3.470   0.852 -0.2297 -0.2003 -0.0902
  285SOL     OW 1184   2.716   3.483   0.864  0.4827 -0.3027 -0.0671
  285SOL    HW2 1185   2.644   3.431   0.829 -0.0383  1.7084 -2.1101
  285SOL    HW3 1186   2.794   3.445   0.823  0.0840  0.6446 -1.7451
  285SOL    MW4 1187   2.717   3.471   0.854  0.3614  0.0875 -0.5580
  286SOL     OW 1188   0.031   1.127   0.941  0.0949  0.3536  0.2707
  286SOL    HW2 1189   0.106   1.087   0.898  0.5621  0.7593  0.6999
  286SOL    HW3 1190   0.041   1.105   1.034  0.8063  2.1195  0.6450
  286SOL    MW4 1191   0.042   1.119   0.948  0.2504  0.6402  0.3767
  287SOL     OW 1192   1.253   0.062   0.726  0.0050  0.1506 -0.0177
  287SOL    HW2 1193   1.204   0.144   0.733  1.3984  1.1684 -1.7172
  287SOL    HW3 1194   1.264   0.048   0.632  0.9066 -1.3056  0.2864
  287SOL    MW4 1195   1.248   0.071   0.715  0.3078  0.0927 -0.2018
  288SOL     OW 1196   2.481   0.233   0.761  0.1534  0.2183 -0.0413
  288SOL    HW2 1197   2.487   0.138   0.771 -0.0660  0.0860 -1.1363
  288SOL    HW3 1198   2.552   0.267   0.817 -0.7939 -0.4926  1.6463
  288SOL    MW4 1199   2.491   0.225   0.770 -0.0005  0.1070  0.0369
  289SOL     OW 1200   1.530   0.051   0.463 -0.1304  0.1425  0.1372
  289SOL    HW2 1201   1.536   0.141   0.495 -1.9477  0.5706 -0.6683
  289SOL    HW3 1202   1.598   0.045   0.395  0.0102  0.8856  0.2076
  289SOL    MW4 1203   1.540   0.062   0.458 -0.3517  0.2971  0.0402
  290SOL     OW 1204   0.107   1.905   0.399  0.5157 -0.0787 -0.3797
  290SOL    HW2 1205   0.200   1.928   0.403  0.1767  1.0540  1.4398
  290SOL    HW3 1206   0.103   1.817   0.435  0.8570 -0.0347 -0.2288
  290SOL    MW4 1207   0.119   1.897   0.404  0.5160  0.0765 -0.1198
  291SOL     OW 1208   2.243   3.727   0.682  0.1118  0.1368 -0.5346
  291SOL    HW2 1209   2.301   3.737   0.757 -0.1947 -0.8404 -0.1548
  291SOL    HW3 1210   2.291   3.669   0.623 -0.2448 -0.2425 -0.4560
  291SOL    MW4 1211   2.257   3.721   0.684  0.0243 -0.0424 -0.4742
  292SOL     OW 1212   1.251   0.817   0.409 -0.1817 -0.4666 -0.5164
  292SOL    HW2 1213   1.333   0.862   0.391  0.7332 -1.9729 -0.1346
  292SOL    HW3 1214   1.213   0.865   0.483  1.2162 -0.8567  0.4615
  292SOL    MW4 1215   1.257   0.829   0.417  0.1235 -0.7168 -0.3370
  293SOL     OW 1216   2.438   0.487   1.201 -0.1766 -0.2251  0.2411
  293SOL    HW2 1217   2.433   0.487   1.297  0.2639  0.4951  0.2593
  293SOL    HW3 1218   2.366   0.429   1.175 -0.7471  0.1306  0.9801
  293SOL    MW4 1219   2.428   0.479   1.210 -0.1938 -0.0831  0.3409
  294SOL     OW 1220   0.708   1.252   1.214  0.1987 -0.0208  0.4916
  294SOL    HW2 1221   0.707   1.336   1.168 -1.1411 -1.2918 -1.8782
  294SOL    HW3 1222   0.791   1.212   1.189  0.1561 -0.0513  0.3982
  294SOL    MW4 1223   0.719   1.258   1.204  0.0163 -0.1925  0.1665
  295SOL     OW 1224   0.880   0.401   1.118 -0.3200  0.3887 -0.0047
  295SOL    HW2 1225   0.803   0.446   1.154 -1.2922 -1.7206  0.6817
  295SOL    HW3 1226   0.863   0.397   1.024 -0.0860  1.7083 -0.1009
  295SOL    MW4 1227   0.867   0.406   1.110 -0.4174  0.2845  0.0733
  296SOL     OW 1228   3.819   0.657   0.467 -0.0464  0.1771 -0.5302
  296SOL    HW2 1229   3.912   0.678   0.479  0.1045  0.2566 -1.7338
  296SOL    HW3 1230   3.774   0.716   0.527  0.7348 -0.7973  1.0663
  296SOL    MW4 1231   3.826   0.668   0.476  0.0765  0.0590 -0.4784
  297SOL     OW 1232   0.203   4.158   0.730 -0.3476 -0.3553  0.0810
  297SOL    HW2 1233   0.130   4.191   0.782  0.6280 -0.0761  1.2937
  297SOL    HW3 1234   0.207   4.064   0.748 -0.6355 -0.4378 -0.2766
  297SOL    MW4 1235   0.194   4.150   0.739 -0.2569 -0.3285  0.1938
  298SOL     OW 1236   0.944   0.877   1.209  0.3790  0.6042  0.0022
  298SOL    HW2 1237   0.919   0.964   1.178 -1.1405 -0.6822 -2.4767
  298SOL    HW3 1238   1.023   0.856   1.159  0.1512  0.1199 -0.1483
  298SOL    MW4 1239   0.951   0.886   1.199  0.1485  0.3706 -0.3446
  299SOL     OW 1240   0.600   4.398   0.472  0.0125 -0.1547 -0.2882
  299SOL    HW2 1241   0.671   4.461   0.484 -0.1690  0.0357 -0.2038
  299SOL    HW3 1242   0.642   4.313   0.481  0.3136 -0.0532 -0.7004
  299SOL    MW4 1243   0.615   4.395   0.475  0.0283 -0.1159 -0.3314
  300SOL     OW 1244   3.539   1.862   0.398  0.0005  0.0213  0.0097
  300SOL    HW2 1245   3.622   1.906   0.379 -0.1069  0.0292 -0.4282
  300SOL    HW3 1246   3.472   1.919   0.361 -0.2667  0.5419  1.2814
  300SOL    MW4 1247   3.541   1.875   0.391 -0.0491  0.0908  0.1197
  301SOL     OW 1248   2.936   4.415   1.258 -0.3081  0.2932  0.1085
  301SOL    HW2 1249   2.869   4.364   1.212 -0.4495  0.8788 -0.3359
  301SOL    HW3 1250   2.941   4.497   1.209  0.5690  0.3405  0.2817
  301SOL    MW4 1251   2.928   4.419   1.246 -0.2110  0.3767  0.0728
  302SOL     OW 1252   1.752   2.793   0.448 -0.1096 -0.2246  0.0801
  302SOL    HW2 1253   1.739   2.701   0.472  0.0606 -0.2836 -0.0464
  302SOL    HW3 1254   1.665   2.832   0.456  0.1880  0.0492  1.9831
  302SOL    MW4 1255   1.739   2.786   0.452 -0.0478 -0.1965  0.3145
  303SOL     OW 1256   2.606   0.654   0.494 -0.0192  0.2504  0.1871
  303SOL    HW2 1257   2.533   0.706   0.459 -1.9344 -1.7944  0.9946
  303SOL    HW3 1258   2.597   0.569   0.450  0.5395 -0.7308  1.9155
  303SOL    MW4 1259   2.595   0.650   0.483 -0.1984 -0.1488  0.5216
  304SOL     OW 1260   4.008   4.279   0.899  0.0921  0.4829 -0.0594
  304SOL    HW2 1261   4.029   4.362   0.856  2.1498 -0.5709 -1.1764
  304SOL    HW3 1262   3.928   4.249   0.856 -0.3667  1.6130 -0.0189
  304SOL    MW4 1263   4.000   4.286   0.887  0.3030  0.4926 -0.2014
  305SOL     OW 1264   0.473   1.119   1.165 -0.0168 -0.3142  0.1932
  305SOL    HW2 1265   0.478   1.048   1.230 -0.2790 -0.2031  0.3342
  305SOL    HW3 1266   0.558   1.162   1.170  0.1864 -0.6882  0.0294
  305SOL    MW4 1267   0.485   1.115   1.174 -0.0246 -0.3489  0.1900
  306SOL     OW 1268   4.307   1.646   0.803 -0.0037  0.1743 -0.2543
  306SOL    HW2 1269   4.357   1.721   0.835 -0.0689  0.1906 -0.1919
  306SOL    HW3 1270   4.304   1.658   0.708 -0.3718  0.4713 -0.2055
  306SOL    MW4 1271   4.313   1.658   0.795 -0.0606  0.2155 -0.2396
  307SOL     OW 1272   3.409   3.074   0.850  0.1140  0.1753 -0.3468
  307SOL    HW2 1273   3.409   3.167   0.826 -0.2628  0.2936  0.1138
  307SOL    HW3 1274   3.317   3.048   0.846  0.1030  0.0871  0.5568
  307SOL    MW4 1275   3.397   3.083   0.846  0.0629  0.1793 -0.1669
  308SOL     OW 1276   3.237   1.178   0.862 -0.2322  0.0916  0.3497
  308SOL    HW2 1277   3.162   1.197   0.806 -0.0184 -0.1417 -0.0181
  308SOL    HW3 1278   3.313   1.182   0.803 -0.0519 -0.6061  0.5277
  308SOL    MW4 1279   3.237   1.181   0.846 -0.1802 -0.0311  0.3246
  309SOL     OW 1280   0.245   3.354   0.440 -0.3961  0.1246 -0.0293
  309SOL    HW2 1281   0.257   3.329   0.531 -0.0410 -1.7289 -0.5679
  309SOL    HW3 1282   0.223   3.272   0.395 -1.1937  1.1223 -1.4904
  309SOL    MW4 1283   0.244   3.340   0.446 -0.4545  0.0117 -0.2932
  310SOL     OW 1284   4.032   2.708   0.360  0.2001  0.5561 -0.0926
  310SOL    HW2 1285   4.053   2.621   0.392 -0.7982 -0.1176 -1.2431
  310SOL    HW3 1286   4.111   2.735   0.312 -0.3505 -0.7161 -1.7795
  310SOL    MW4 1287   4.045   2.700   0.358 -0.0043  0.2995 -0.4670
  311SOL     OW 1288   2.492   1.480   0.772 -0.4794  0.2141 -0.3547
  311SOL    HW2 1289   2.503   1.570   0.743  1.0904  0.1215 -0.0641
  311SOL    HW3 1290   2.541   1.427   0.709  1.0148 -0.1747  1.0826
  311SOL    MW4 1291   2.500   1.485   0.760 -0.0751  0.1507 -0.1267
  312SOL     OW 1292   0.269   0.736   1.226 -0.5124  0.4135 -0.4673
  312SOL    HW2 1293   0.258   0.643   1.249 -0.6369  0.4108 -0.5369
  312SOL    HW3 1294   0.269   0.736   1.130  1.0773  0.2933 -0.4821
  312SOL    MW4 1295   0.267   0.723   1.217 -0.3191  0.3973 -0.4784
  313SOL     OW 1296   0.560   1.784   0.412 -0.2798 -0.0377  0.3319
  313SOL    HW2 1297   0.489   1.729   0.444 -0.3196  0.1306  0.5302
  313SOL    HW3 1298   0.616   1.798   0.488 -0.2510  0.1718  0.2710
  313SOL    MW4 1299   0.558   1.778   0.426 -0.2813  0.0122  0.3500
  314SOL     OW 1300   1.328   2.233   0.459  0.0039 -0.4632 -0.0464
  314SOL    HW2 1301   1.391   2.198   0.522 -0.3437 -1.5953 -0.3169
  314SOL    HW3 1302   1.257   2.169   0.457 -0.6619  0.2737 -0.5304
  314SOL    MW4 1303   1.327   2.220   0.467 -0.1297 -0.5152 -0.1460
  315SOL     OW 1304   1.949   3.412   0.475  0.1220 -0.1751 -0.0009
  315SOL    HW2 1305   1.964   3.437   0.566 -0.3844 -0.7150  0.2352
  315SOL    HW3 1306   1.984   3.485   0.424 -0.8371  0.7663  0.6616
  315SOL    MW4 1307   1.956   3.425   0.480 -0.0713 -0.1223  0.1177
  316SOL     OW 1308   1.619   3.862   1.113  0.1236  0.1657  0.3030
  316SOL    HW2 1309   1.688   3.900   1.167 -0.1648  0.2658  0.6048
  316SOL    HW3 1310   1.645   3.880   1.023  0.2149  0.6747  0.4338
  316SOL    MW4 1311   1.631   3.869   1.108  0.0976  0.2463  0.3600
  317SOL     OW 1312   3.023   4.149   0.484 -0.1740 -0.0241 -0.2213
  317SOL    HW2 1313   2.957   4.200   0.437 -0.0726  0.8117  0.5378
  317SOL    HW3 1314   2.999   4.058   0.466 -0.3031  0.2670 -1.6607
  317SOL    MW4 1315   3.011   4.143   0.475 -0.1776  0.1240 -0.3111
  318SOL     OW 1316   0.057   2.447   1.241 -0.3506  0.0363  0.2914
  318SOL    HW2 1317  -0.023   2.403   1.213  0.3067 -1.1800  0.2330
  318SOL    HW3 1318   0.045   2.461   1.335 -0.0231 -1.5565  0.5979
  318SOL    MW4 1319   0.045   2.443   1.249 -0.2207 -0.3343  0.3240
  319SOL     OW 1320   2.425   2.743   0.421 -0.1669  0.0506 -0.0424
  319SOL    HW2 1321   2.468   2.675   0.473 -0.7061  0.0336  0.3881
  319SOL    HW3 1322   2.452   2.825   0.461  0.4689  0.0928 -0.5505
  319SOL    MW4 1323   2.434   2.745   0.433 -0.1540  0.0536 -0.0527
  320SOL     OW 1324   1.756   2.498   0.507  0.1303  0.2748 -0.5592
  320SOL    HW2 1325   1.846   2.504   0.474 -0.2436  2.2173 -1.3153
  320SOL    HW3 1326   1.719   2.422   0.462  1.5979 -0.9930  0.3130
  320SOL    MW4 1327   1.763   2.489   0.497  0.2745  0.3638 -0.5439
  321SOL     OW 1328   0.196   1.533   1.205  0.0503  0.0035  0.0251
  321SOL    HW2 1329   0.215   1.449   1.247 -0.2984 -0.3944 -0.6133
  321SOL    HW3 1330   0.204   1.516   1.112 -0.9952  0.4417 -0.1498
  321SOL    MW4 1331   0.200   1.520   1.198 -0.1336  0.0088 -0.0821
  322SOL     OW 1332   4.337   0.600   0.461 -0.4252 -0.1373  0.1205
  322SOL    HW2 1333   4.335   0.513   0.501 -1.4579 -1.2851 -2.3084
  322SOL    HW3 1334   4.252   0.638   0.483 -1.0351 -0.8085 -1.0033
  322SOL    MW4 1335   4.326   0.593   0.469 -0.6413 -0.3772 -0.3482
  323SOL     OW 1336   4.491   2.146   0.465  0.1697 -0.7880 -0.1436
  323SOL    HW2 1337   4.542   2.219   0.432 -0.5219  0.0013  0.5290
  323SOL    HW3 1338   4.536   2.068   0.431 -0.1931 -0.0216 -2.4518
  323SOL    MW4 1339   4.503   2.145   0.456  0.0310 -0.5829 -0.3594
  324SOL     OW 1340   3.633   1.904   0.831  0.7834  0.3587  0.0970
  324SOL    HW2 1341   3.602   1.837   0.770  0.5806  1.1910 -0.7202
  324SOL    HW3 1342   3.582   1.890   0.910  0.9521 -0.6430  0.0285
  324SOL    MW4 1343   3.622   1.893   0.833  0.7787  0.3364 -0.0198
  325SOL     OW 1344   3.842   0.243   0.806 -0.1440 -0.3267  0.1018
  325SOL    HW2 1345   3.903   0.284   0.866  1.1018 -1.7306 -0.1764
  325SOL    HW3 1346   3.856   0.287   0.722 -0.5294  0.3089  0.3626
  325SOL    MW4 1347   3.852   0.254   0.803 -0.0305 -0.4281  0.0995
  326SOL     OW 1348   0.023   0.193   0.420  0.2682 -0.3253 -0.2001
  326SOL    HW2 1349  -0.028   0.172   0.341 -0.7627  0.6870  0.1899
  326SOL    HW3 1350   0.072   0.113   0.439 -0.0877 -0.8371 -1.4062
  326SOL    MW4 1351   0.023   0.180   0.412  0.0852 -0.2593 -0.3078
  327SOL     OW 1352   1.777   2.855   0.732 -0.1349 -0.2336 -0.1946
  327SOL    HW2 1353   1.791   2.770   0.774 -0.1644 -0.1736 -0.0637
  327SOL    HW3 1354   1.762   2.834   0.639  0.6826 -0.3161 -0.3175
  327SOL    MW4 1355   1.777   2.841   0.725 -0.0309 -0.2367 -0.1936
  328SOL     OW 1356   1.756   1.152   1.091 -0.6611  0.1784  0.0939
  328SOL    HW2 1357   1.798   1.081   1.140 -0.8450  0.8302  1.2083
  328SOL    HW3 1358   1.690   1.187   1.151 -1.6139  0.2920 -1.0181
  328SOL    MW4 1359   1.753   1.148   1.106 -0.8111  0.2794  0.0942
  329SOL     OW 1360   0.858   0.644   0.518 -0.6736  0.4870  0.1393
  329SOL    HW2 1361   0.879   0.626   0.610 -0.8781  0.1635  0.1249
  329SOL    HW3 1362   0.807   0.568   0.490  0.9110 -0.2775 -0.7680
  329SOL    MW4 1363   0.854   0.632   0.527 -0.4916  0.3434  0.0176
  330SOL     OW 1364   1.649   2.265   0.361  0.1612 -0.2106 -0.2197
  330SOL    HW2 1365   1.574   2.259   0.302 -0.6834  0.0791  0.8129
  330SOL    HW3 1366   1.621   2.220   0.441  0.4800  1.3120  0.7724
  330SOL    MW4 1367   1.636   2.258   0.364  0.0919  0.0286  0.0474
  331SOL     OW 1368   0.431   3.216   1.223 -0.1047  0.2339 -0.1508
  331SOL    HW2 1369   0.402   3.298   1.182  1.3947  0.4330 -0.8617
  331SOL    HW3 1370   0.524   3.211   1.201 -0.0366 -1.3231  0.4806
  331SOL    MW4 1371   0.439   3.226   1.215  0.1020  0.0548 -0.1614
  332SOL     OW 1372   1.568   4.282   0.081  0.3077 -0.2222 -0.2035
  332SOL    HW2 1373   1.604   4.280  -0.008 -0.1629  0.4069 -0.4076
  332SOL    HW3 1374   1.575   4.191   0.111  0.9473 -0.3454 -0.6874
  332SOL    MW4 1375   1.574   4.270   0.073  0.3299 -0.1554 -0.2943
  333SOL     OW 1376   0.335   1.990   0.735 -0.1035 -0.0895 -0.3738
  333SOL    HW2 1377   0.412   1.938   0.755  0.1365  0.4223  0.0758
  333SOL    HW3 1378   0.342   2.066   0.794 -1.1095 -0.1997 -0.0986
  333SOL    MW4 1379   0.346   1.993   0.746 -0.2045 -0.0365 -0.2781
  334SOL     OW 1380   1.186   4.247   0.365  0.3980  0.1461 -0.2187
  334SOL    HW2 1381   1.124   4.186   0.404 -0.4303  0.6103 -0.7811
  334SOL    HW3 1382   1.134   4.325   0.347  1.2015  0.6249 -0.5016
  334SOL    MW4 1383   1.171   4.249   0.368  0.3948  0.2704 -0.3302
  335SOL     OW 1384   1.975   0.224   0.758 -0.1158 -0.0512  0.4121
  335SOL    HW2 1385   1.961   0.145   0.811 -0.3374  0.3240  0.9176
  335SOL    HW3 1386   2.067   0.246   0.771  0.0502 -0.4554 -0.0521
  335SOL    MW4 1387   1.985   0.216   0.767 -0.1231 -0.0550  0.4175
  336SOL     OW 1388   1.551   3.599   1.510 -0.4962 -0.0089 -0.0314
  336SOL    HW2 1389   1.559   3.610   1.416  0.2706  1.0638  0.1534
  336SOL    HW3 1390   1.543   3.688   1.544 -2.2283 -0.4493  0.7881
  336SOL    MW4 1391   1.551   3.612   1.502 -0.6236  0.0746  0.1011
  337SOL     OW 1392   3.587   2.528   0.893  0.0281 -0.1880 -0.4673
  337SOL    HW2 1393   3.573   2.589   0.966  1.1664  0.6641 -0.9381
  337SOL    HW3 1394   3.517   2.463   0.902 -0.1922  0.2350  1.0378
  337SOL    MW4 1395   3.576   2.527   0.904  0.1493 -0.0198 -0.3308
  338SOL     OW 1396   4.483   2.691   0.844 -0.4032  0.2702  0.3208
  338SOL    HW2 1397   4.472   2.693   0.939 -1.7743  1.5655  0.1660
  338SOL    HW3 1398   4.472   2.783   0.817  0.7838  0.0438 -1.0062
  338SOL    MW4 1399   4.480   2.704   0.853 -0.4272  0.4113  0.1253
  339SOL     OW 1400   0.198   2.811   1.205 -0.4011  0.1282  0.1125
  339SOL    HW2 1401   0.206   2.790   1.298  0.6100 -0.4831 -0.1068
  339SOL    HW3 1402   0.118   2.768   1.177 -0.4449 -0.0979  0.5899
  339SOL    MW4 1403   0.189   2.803   1.213 -0.2735  0.0176  0.1465
  340SOL     OW 1404   3.603   0.365   1.152  0.7189 -0.2392  0.0498
  340SOL    HW2 1405   3.602   0.277   1.188  1.6223 -0.7610 -1.2141
  340SOL    HW3 1406   3.609   0.354   1.058 -0.2558  1.1604 -0.2036
  340SOL    MW4 1407   3.603   0.352   1.145  0.7095 -0.1234 -0.1503
  341SOL     OW 1408   4.309   2.326   0.878  0.0715  0.1445 -0.2218
  341SOL    HW2 1409   4.380   2.270   0.848 -0.4910 -0.2745 -0.7797
  341SOL    HW3 1410   4.316   2.405   0.824  1.1763  0.8285  0.9149
  341SOL    MW4 1411   4.319   2.329   0.867  0.1426  0.1798 -0.1454
  342SOL     OW 1412   2.862   0.870   0.884  0.2399  0.1759 -0.2009
  342SOL    HW2 1413   2.882   0.838   0.972 -0.6200 -0.4005 -0.2124
  342SOL    HW3 1414   2.929   0.831   0.828  0.4750  0.1291  0.1147
  342SOL    MW4 1415   2.874   0.861   0.888  0.1574  0.0938 -0.1607
  343SOL     OW 1416   4.274   0.273   0.837  0.4041  0.4334 -0.5969
  343SOL    HW2 1417   4.271   0.178   0.851  0.9185  0.5380  0.3172
  343SOL    HW3 1418   4.287   0.284   0.743  0.4787 -0.4081 -0.6853
  343SOL    MW4 1419   4.275   0.262   0.827  0.4821  0.3362 -0.4880
  344SOL     OW 1420   4.302   3.521   0.300  0.6184 -0.0322 -0.1802
  344SOL    HW2 1421   4.324   3.437   0.259 -0.0260  0.1492 -0.9053
  344SOL    HW3 1422   4.269   3.497   0.387 -1.5434 -0.6874 -1.1461
  344SOL    MW4 1423   4.301   3.507   0.306  0.2480 -0.0947 -0.4033
  345SOL     OW 1424   3.101   4.295   0.903  0.0906  0.2750  0.4155
  345SOL    HW2 1425   3.035   4.250   0.850  0.0734  0.4870  0.2549
  345SOL    HW3 1426   3.069   4.385   0.910  0.4484  0.4230  0.1928
  345SOL    MW4 1427   3.088   4.301   0.897  0.1357  0.3223  0.3649
  346SOL     OW 1428   0.855   4.287   0.925 -0.0964  0.4726  0.2493
  346SOL    HW2 1429   0.773   4.243   0.903  0.1833  0.0987 -0.0464
  346SOL    HW3 1430   0.872   4.261   1.016  0.1010 -0.0889  0.0575
  346SOL    MW4 1431   0.846   4.278   0.934 -0.0335  0.3495  0.1849
  347SOL     OW 1432   3.084   1.306   0.656 -0.1168 -0.1038 -0.0159
  347SOL    HW2 1433   3.098   1.395   0.623 -1.4712 -0.0917 -0.5693
  347SOL    HW3 1434   3.079   1.252   0.578 -0.1971 -0.5358  0.2888
  347SOL    MW4 1435   3.085   1.311   0.642 -0.3064 -0.1590 -0.0487
  348SOL     OW 1436   0.916   3.468   0.895 -0.3846 -0.3092 -0.4541
  348SOL    HW2 1437   0.920   3.559   0.868 -0.1288 -0.0614  0.3847
  348SOL    HW3 1438   0.967   3.421   0.830 -2.2375 -0.1478 -2.0604
  348SOL    MW4 1439   0.923   3.474   0.883 -0.5954 -0.2551 -0.5554
  349SOL     OW 1440   3.229   3.722   0.463  0.8984 -0.5114 -0.6986
  349SOL    HW2 1441   3.215   3.710   0.557 -1.4323  1.3424 -0.7627
  349SOL    HW3 1442   3.191   3.644   0.423  1.0450 -0.8636 -0.1497
  349SOL    MW4 1443   3.222   3.710   0.470  0.6101 -0.3133 -0.6346
  350SOL     OW 1444   2.121   3.189   0.760 -0.1425 -0.0133 -0.1875
  350SOL    HW2 1445   2.174   3.264   0.789  0.0607 -0.0167 -0.5521
  350SOL    HW3 1446   2.127   3.191   0.665 -0.7483 -0.0522 -0.2301
  350SOL    MW4 1447   2.128   3.199   0.752 -0.1955 -0.0188 -0.2413
  351SOL     OW 1448   2.236   0.328   0.825  0.0602 -0.1184 -0.0473
  351SOL    HW2 1449   2.328   0.302   0.816  0.2983  0.3240  1.0096
  351SOL    HW3 1450   2.234   0.420   0.798 -0.2345 -0.3617 -0.8813
  351SOL    MW4 1451   2.248   0.336   0.820  0.0527 -0.0921 -0.0179
  352SOL     OW 1452   4.251   2.818   1.257  0.2499  0.4268  0.0325
  352SOL    HW2 1453   4.257   2.906   1.218 -0.7556  0.2120 -0.6265
  352SOL    HW3 1454   4.177   2.777   1.212  0.7316 -0.7726  0.3200
  352SOL    MW4 1455   4.242   2.824   1.246  0.1807  0.2401 -0.0165
  353SOL     OW 1456   4.434   2.498   0.330  0.0371  0.5377 -0.0163
  353SOL    HW2 1457   4.481   2.574   0.364  0.9794  0.1363 -0.3909
  353SOL    HW3 1458   4.503   2.441   0.295 -0.9295  1.0113 -2.7522
  353SOL    MW4 1459   4.449   2.500   0.330  0.0339  0.5472 -0.4267
  354SOL     OW 1460   2.924   3.085   0.851 -0.2412 -0.4586 -0.3606
  354SOL    HW2 1461   3.012   3.049   0.847 -0.0770 -0.3699  1.5820
  354SOL    HW3 1462   2.867   3.013   0.824  0.3905 -0.6588 -1.1717
  354SOL    MW4 1463   2.928   3.070   0.847 -0.1359 -0.4735 -0.2113
  355SOL     OW 1464   3.804   4.137   0.785 -0.0265  0.5160  0.1623
  355SOL    HW2 1465   3.821   4.119   0.692 -0.0078 -0.1350  0.2909
  355SOL    HW3 1466   3.720   4.183   0.786 -0.6289 -0.5766 -0.0728
  355SOL    MW4 1467   3.796   4.141   0.773 -0.1032  0.2861  0.1482
  356SOL     OW 1468   2.410   1.045   0.279 -0.0599 -0.0181 -0.0312
  356SOL    HW2 1469   2.420   1.046   0.184 -0.1268 -0.3166 -0.0411
  356SOL    HW3 1470   2.422   0.953   0.304 -0.9403 -0.0883  0.1546
  356SOL    MW4 1471   2.413   1.033   0.270 -0.1848 -0.0669 -0.0080
  357SOL     OW 1472   0.241   0.744   0.945 -0.1738 -0.0042 -0.3364
  357SOL    HW2 1473   0.312   0.703   0.896 -0.3061 -1.1240  0.3798
  357SOL    HW3 1474   0.163   0.695   0.920 -0.4443  0.2301  0.0282
  357SOL    MW4 1475   0.240   0.732   0.936 -0.2270 -0.1210 -0.1939
  358SOL     OW 1476   0.915   3.733   0.769 -0.2715  0.0028  0.1455
  358SOL    HW2 1477   0.994   3.776   0.803 -0.8241  0.9087  0.3036
  358SOL    HW3 1478   0.845   3.796   0.786 -0.9060 -0.4769 -0.6992
  358SOL    MW4 1479   0.916   3.747   0.776 -0.4282  0.0591  0.0549
  359SOL     OW 1480   2.730   0.355   0.866  0.1002 -0.3123  0.0869
  359SOL    HW2 1481   2.708   0.438   0.825 -1.3713 -0.0367  1.3791
  359SOL    HW3 1482   2.719   0.371   0.960  1.2252 -1.5483  0.4516
  359SOL    MW4 1483   2.726   0.368   0.873  0.0544 -0.4390  0.3055
  360SOL     OW 1484   0.356   2.252   0.879 -0.3402  0.5839  0.4728
  360SOL    HW2 1485   0.451   2.252   0.880 -0.3322  0.3087 -0.2272
  360SOL    HW3 1486   0.331   2.276   0.969  0.3815  0.5108  0.6951
  360SOL    MW4 1487   0.365   2.255   0.891 -0.2439  0.5379  0.4098
  361SOL     OW 1488   4.031   4.145   0.343 -0.0004  0.3077  0.4908
  361SOL    HW2 1489   4.095   4.177   0.406 -0.3840  2.0626  0.0141
  361SOL    HW3 1490   4.083   4.100   0.276  0.5359 -0.1513  1.2086
  361SOL    MW4 1491   4.047   4.143   0.342  0.0191  0.4787  0.5226
  362SOL     OW 1492   2.503   2.252   0.913 -0.5068  0.2266  0.4651
  362SOL    HW2 1493   2.504   2.344   0.886  0.1827  0.1382  0.1684
  362SOL    HW3 1494   2.584   2.216   0.876 -1.1302 -0.6790 -0.0356
  362SOL    MW4 1495   2.514   2.260   0.904 -0.4983  0.0954  0.3600
  363SOL     OW 1496   2.130   3.212   0.481  0.9563  0.5255 -0.5173
  363SOL    HW2 1497   2.067   3.283   0.468 -0.1441 -0.3841 -0.2205
  363SOL    HW3 1498   2.081   3.132   0.463  1.7313 -0.2582  0.7382
  363SOL    MW4 1499   2.115   3.211   0.477  0.9134  0.3021 -0.3125
  364SOL     OW 1500   1.146   0.749   0.799  0.1277  0.0012  0.2018
  364SOL    HW2 1501   1.138   0.826   0.742  0.0354  1.2885  1.8956
  364SOL    HW3 1502   1.058   0.713   0.803 -0.5736  1.8245  2.0945
  364SOL    MW4 1503   1.133   0.755   0.792  0.0230  0.4116  0.6750
  365SOL     OW 1504   4.252   0.966   0.616  0.4326  0.0651  0.3072
  365SOL    HW2 1505   4.318   1.011   0.563  0.5349  0.6968  0.9678
  365SOL    HW3 1506   4.171   1.015   0.600 -0.2955 -1.7745 -1.8991
  365SOL    MW4 1507   4.250   0.979   0.607  0.3500 -0.0943  0.1032
  366SOL     OW 1508   1.808   3.958   0.585  0.0532 -0.1731  0.0158
  366SOL    HW2 1509   1.802   4.022   0.515 -0.9830 -0.1752  0.1013
  366SOL    HW3 1510   1.888   3.909   0.566  1.2498  1.6143  0.3607
  366SOL    MW4 1511   1.818   3.960   0.573  0.0744  0.0622  0.0727
  367SOL     OW 1512   1.476   1.020   0.730  0.0706 -0.0721  0.0946
  367SOL    HW2 1513   1.561   1.056   0.755 -0.4720 -0.3693  2.4570
  367SOL    HW3 1514   1.470   0.938   0.779 -0.8712 -0.8937 -1.3545
  367SOL    MW4 1515   1.486   1.014   0.740 -0.1251 -0.2197  0.2151
  368SOL     OW 1516   4.125   1.948   0.899 -0.7140 -0.4553 -0.2564
  368SOL    HW2 1517   4.108   2.030   0.852 -0.9510 -0.3017  0.0894
  368SOL    HW3 1518   4.061   1.886   0.864 -0.5395 -0.4907 -0.5129
  368SOL    MW4 1519   4.114   1.951   0.889 -0.7224 -0.4396 -0.2446
  369SOL     OW 1520   3.906   1.756   0.789 -0.1320 -0.3455 -0.4275
  369SOL    HW2 1521   3.827   1.805   0.814  0.0865  0.1206 -0.6360
  369SOL    HW3 1522   3.936   1.799   0.709 -0.3882 -1.3320 -1.0592
  369SOL    MW4 1523   3.900   1.768   0.782 -0.1371 -0.4140 -0.5383
  370SOL     OW 1524   2.722   2.450   1.243 -0.3996 -0.3538 -0.2723
  370SOL    HW2 1525   2.801   2.397   1.228  0.4635  1.0071 -0.6213
  370SOL    HW3 1526   2.710   2.450   1.338  0.0556 -0.5123 -0.2150
  370SOL    MW4 1527   2.731   2.443   1.253 -0.2255 -0.1950 -0.3107
  371SOL     OW 1528   2.059   2.527   0.401 -0.0321  0.0706  0.1241
  371SOL    HW2 1529   2.065   2.513   0.495 -0.2806 -0.5623  0.0465
  371SOL    HW3 1530   2.059   2.622   0.391  0.9237  0.1404  0.7004
  371SOL    MW4 1531   2.060   2.538   0.412  0.0610 -0.0038  0.1898
  372SOL     OW 1532   3.828   2.497   0.800 -0.3113 -0.0424  0.7454
  372SOL    HW2 1533   3.822   2.477   0.707  0.1116  2.5088  0.1400
  372SOL    HW3 1534   3.737   2.507   0.829 -0.6545 -4.0818  1.4262
  372SOL    MW4 1535   3.815   2.496   0.792 -0.3006 -0.2389  0.7553
  373SOL     OW 1536   2.927   3.857   0.816 -0.0690 -0.1897  0.0656
  373SOL    HW2 1537   2.952   3.860   0.908 -0.0936 -1.7589  0.1261
  373SOL    HW3 1538   3.008   3.835   0.770  0.1133  1.3218 -0.3799
  373SOL    MW4 1539   2.941   3.855   0.822 -0.0482 -0.1972  0.0148
  374SOL     OW 1540   0.224   0.388   0.479 -0.0276 -0.0207 -0.0217
  374SOL    HW2 1541   0.151   0.335   0.447  0.1418  0.7018 -1.6490
  374SOL    HW3 1542   0.184   0.473   0.500  0.4468  0.5802 -1.5223
  374SOL    MW4 1543   0.209   0.392   0.477  0.0573  0.1539 -0.4344
  375SOL     OW 1544   0.008   3.488   0.801  0.4417 -0.3841 -0.3427
  375SOL    HW2 1545   0.006   3.468   0.894 -0.4275  0.5160 -0.1563
  375SOL    HW3 1546   0.017   3.583   0.797  0.6899 -0.4353 -1.1805
  375SOL    MW4 1547   0.009   3.498   0.813  0.3598 -0.2720 -0.4287
  376SOL     OW 1548   3.491   2.952   0.631  0.5377  0.1850  0.3864
  376SOL    HW2 1549   3.492   2.859   0.653 -0.9338 -0.4308 -1.9145
  376SOL    HW3 1550   3.477   2.997   0.714  2.1196 -1.5987  1.6454
  376SOL    MW4 1551   3.489   2.946   0.645  0.5522 -0.1314  0.2490
  377SOL     OW 1552   3.466   4.372   0.436  0.4953 -0.0943  0.6556
  377SOL    HW2 1553   3.503   4.436   0.498 -0.4176  0.5817  0.5132
  377SOL    HW3 1554   3.434   4.425   0.363  1.1552 -0.8561 -0.1893
  377SOL    MW4 1555   3.467   4.387   0.435  0.4618 -0.1054  0.5254
  378SOL     OW 1556   2.226   0.479   0.340 -0.4753  0.3315 -0.1399
  378SOL    HW2 1557   2.133   0.458   0.334 -0.7414  1.1792  0.8281
  378SOL    HW3 1558   2.264   0.406   0.388 -0.6909  0.1162 -0.2969
  378SOL    MW4 1559   2.219   0.467   0.345 -0.5391  0.4149 -0.0329
  379SOL     OW 1560   0.369   1.629   0.504  0.6870 -0.2778  0.2330
  379SOL    HW2 1561   0.276   1.638   0.487  0.6584  0.2882  0.7272
  379SOL    HW3 1562   0.393   1.546   0.461  0.2166  0.2039 -0.9721
  379SOL    MW4 1563   0.360   1.619   0.496  0.6211 -0.1395  0.1392
  380SOL     OW 1564   2.696   2.903   0.768  0.2039 -0.0553  0.0088
  380SOL    HW2 1565   2.632   2.911   0.697 -1.9605 -0.9031  1.8090
  380SOL    HW3 1566   2.700   2.809   0.786  0.0554  0.2176  1.5712
  380SOL    MW4 1567   2.688   2.892   0.761 -0.1013 -0.1311  0.4525
  381SOL     OW 1568   0.240   3.325   0.727  0.2587  0.1539  0.0639
  381SOL    HW2 1569   0.231   3.239   0.768 -0.3714  0.5225  0.7146
  381SOL    HW3 1570   0.161   3.372   0.752  0.3292  0.7305 -0.7668
  381SOL    MW4 1571   0.228   3.320   0.736  0.1849  0.2787  0.0402
  382SOL     OW 1572   0.679   4.388   1.246 -0.5438 -0.3129 -0.0907
  382SOL    HW2 1573   0.684   4.381   1.341 -1.4528 -0.5727 -0.0492
  382SOL    HW3 1574   0.603   4.335   1.223 -1.0702  0.7488 -0.8372
  382SOL    MW4 1575   0.669   4.380   1.256 -0.7333 -0.2074 -0.1838
  383SOL     OW 1576   0.446   2.712   0.781 -0.0399 -0.1954  0.2357
  383SOL    HW2 1577   0.436   2.719   0.875 -0.5456 -0.7731  0.2343
  383SOL    HW3 1578   0.359   2.684   0.750  0.4537 -1.1988 -0.2607
  383SOL    MW4 1579   0.433   2.709   0.789 -0.0415 -0.4039  0.1700
  384SOL     OW 1580   3.205   3.187   1.268  0.6355 -0.1788 -0.0064
  384SOL    HW2 1581   3.206   3.273   1.225  0.2350 -0.7072 -1.1170
  384SOL    HW3 1582   3.276   3.139   1.226 -1.2861 -1.5112 -1.8337
  384SOL    MW4 1583   3.214   3.192   1.257  0.3288 -0.4244 -0.3940
  385SOL     OW 1584   3.106   2.977   0.518 -0.6025 -0.0144 -0.2783
  385SOL    HW2 1585   3.088   2.886   0.492 -2.1746  0.6080 -1.4811
  385SOL    HW3 1586   3.179   3.004   0.463 -1.3955  0.0429 -1.3326
  385SOL    MW4 1587   3.113   2.969   0.507 -0.9146  0.0753 -0.5761
  386SOL     OW 1588   2.209   1.622   0.355  0.1821  0.0213 -0.0258
  386SOL    HW2 1589   2.284   1.678   0.376 -0.9138  1.8062 -0.6847
  386SOL    HW3 1590   2.186   1.645   0.265 -0.0705 -1.7908 -0.4425
  386SOL    MW4 1591   2.216   1.633   0.346  0.0041  0.0179 -0.1677
  387SOL     OW 1592   3.464   0.522   0.694  0.1652 -0.0866  0.0940
  387SOL    HW2 1593   3.374   0.491   0.682 -0.6812  1.3174  2.6008
  387SOL    HW3 1594   3.497   0.534   0.605 -1.4093 -2.5959 -0.8717
  387SOL    MW4 1595   3.457   0.519   0.680 -0.1540 -0.2325  0.2974
  388SOL     OW 1596   2.019   0.947   0.476  0.5417 -0.1041  0.3842
  388SOL    HW2 1597   2.077   1.015   0.441  1.6030 -1.0002  0.3551
  388SOL    HW3 1598   2.062   0.865   0.453 -1.7988 -0.8602 -1.4166
  388SOL    MW4 1599   2.033   0.945   0.469  0.3729 -0.3220  0.1428
  389SOL     OW 1600   2.888   1.029   0.475 -0.0935  0.0218  0.3286
  389SOL    HW2 1601   2.889   0.934   0.471 -2.2020 -0.0200  0.5504
  389SOL    HW3 1602   2.798   1.052   0.497  0.5737  2.0348  1.1374
  389SOL    MW4 1603   2.876   1.020   0.478 -0.2837  0.2818  0.4645
  390SOL     OW 1604   2.455   1.277   1.240  0.2870 -0.7109  0.0562
  390SOL    HW2 1605   2.512   1.204   1.218  0.2471 -0.4933 -0.7623
  390SOL    HW3 1606   2.367   1.238   1.245  0.0663 -0.4730 -1.7294
  390SOL    MW4 1607   2.451   1.262   1.238  0.2525 -0.6510 -0.2873
  391SOL     OW 1608   2.244   1.892   0.855 -0.5771  0.2726  0.0169
  391SOL    HW2 1609   2.171   1.838   0.827 -2.0920  1.6591  1.1834
  391SOL    HW3 1610   2.240   1.890   0.951 -0.1018  1.6611  0.0809
  391SOL    MW4 1611   2.234   1.885   0.864 -0.7145  0.6387  0.1793
  392SOL     OW 1612   0.368   1.547   0.800 -0.4317  0.2377  0.0324
  392SOL    HW2 1613   0.461   1.544   0.822 -0.1101  0.6158 -1.2460
  392SOL    HW3 1614   0.365   1.568   0.707 -1.8191  1.6488  0.3572
  392SOL    MW4 1615   0.380   1.549   0.791 -0.5723  0.4739 -0.0935
  393SOL     OW 1616   1.972   0.393   0.333 -0.1683  0.3890 -0.5597
  393SOL    HW2 1617   1.918   0.439   0.398  1.4997  0.4461  0.7973
  393SOL    HW3 1618   1.977   0.303   0.365 -2.1003 -0.4360 -2.3852
  393SOL    MW4 1619   1.965   0.387   0.345 -0.2031  0.2876 -0.6215
  394SOL     OW 1620   4.252   1.040   0.895  0.5188 -0.7816 -0.1471
  394SOL    HW2 1621   4.252   1.048   0.800 -0.1221 -0.0046 -0.0870
  394SOL    HW3 1622   4.345   1.049   0.920  0.4862  1.0056 -0.5499
  394SOL    MW4 1623   4.265   1.042   0.886  0.4306 -0.4433 -0.1923
  395SOL     OW 1624   0.435   1.645   1.248 -0.0431  0.0454  0.2905
  395SOL    HW2 1625   0.346   1.611   1.235  0.4494 -1.8266  1.5970
  395SOL    HW3 1626   0.437   1.672   1.339  0.6106  0.5036  0.1443
  395SOL    MW4 1627   0.423   1.644   1.258  0.1081 -0.1410  0.4437
  396SOL     OW 1628   3.146   0.126   1.250 -0.3986 -0.1448 -0.2575
  396SOL    HW2 1629   3.147   0.222   1.250  0.3390 -0.1508 -0.8037
  396SOL    HW3 1630   3.183   0.102   1.334  2.1256  0.0380 -1.2764
  396SOL    MW4 1631   3.151   0.136   1.261  0.0319 -0.1215 -0.4640
  397SOL     OW 1632   3.555   0.567   0.427  0.2190 -0.1600 -0.1144
  397SOL    HW2 1633   3.568   0.486   0.378 -1.5088  0.1269 -1.0896
  397SOL    HW3 1634   3.638   0.613   0.420  1.2106 -1.8216  0.4281
  397SOL    MW4 1635   3.567   0.563   0.419  0.1221 -0.3414 -0.1715
  398SOL     OW 1636   4.475   2.958   0.477 -0.5418  0.0767  0.1308
  398SOL    HW2 1637   4.501   2.866   0.466  0.7352  0.5895 -1.2721
  398SOL    HW3 1638   4.480   2.972   0.571 -2.2506 -1.7248  0.5224
  398SOL    MW4 1639   4.479   2.947   0.488 -0.5984 -0.0935 -0.0027
  399SOL     OW 1640   3.848   1.471   1.167  0.0128  0.3353 -0.1617
  399SOL    HW2 1641   3.772   1.527   1.153 -0.2959 -0.0979 -0.2141
  399SOL    HW3 1642   3.909   1.526   1.216 -0.6589  0.4115  0.5876
  399SOL    MW4 1643   3.846   1.486   1.171 -0.1166  0.2881 -0.0697
  400SOL     OW 1644   0.058   0.343   1.176 -0.2330  0.0211  0.1783
  400SOL    HW2 1645   0.041   0.340   1.082 -0.8566  0.6538  0.2751
  400SOL    HW3 1646  -0.024   0.373   1.215 -0.5239 -1.8454  1.0765
  400SOL    MW4 1647   0.045   0.346   1.169 -0.3536 -0.1417  0.3096
  401SOL     OW 1648   1.503   0.035   0.829 -0.0953 -0.1046 -0.1840
  401SOL    HW2 1649   1.416   0.053   0.794 -0.3314 -1.2815 -0.2362
  401SOL    HW3 1650   1.536  -0.039   0.777  0.7954  0.1103  0.0560
  401SOL    MW4 1651   1.496   0.027   0.818 -0.0089 -0.2315 -0.1593
  402SOL     OW 1652   3.580   0.299   0.349  0.0980  0.0756  0.3077
  402SOL    HW2 1653   3.521   0.226   0.369 -0.0117  1.0047  3.6851
  402SOL    HW3 1654   3.645   0.262   0.289  0.1371 -2.8517  2.0690
  402SOL    MW4 1655   3.581   0.285   0.344  0.0889 -0.1881  0.9856
  403SOL     OW 1656   1.735   0.327   0.185 -0.0704  0.1820 -0.0526
  403SOL    HW2 1657   1.671   0.384   0.227  0.9181  0.5435  0.9963
  403SOL    HW3 1658   1.820   0.361   0.214  0.6086 -0.0432 -1.7477
  403SOL    MW4 1659   1.738   0.339   0.195  0.1496  0.2000 -0.1379
  404SOL     OW 1660   0.662   0.834   0.478 -0.4266 -0.2250  0.1173
  404SOL    HW2 1661   0.587   0.776   0.468 -0.0202 -0.8022  0.3854
  404SOL    HW3 1662   0.736   0.775   0.493 -0.1967  0.4000  1.5666
  404SOL    MW4 1663   0.662   0.819   0.479 -0.3427 -0.2187  0.3439
  405SOL     OW 1664   4.013   1.593   0.495 -0.3445  0.0687 -0.3279
  405SOL    HW2 1665   3.986   1.684   0.510  0.1145  0.1456  0.0531
  405SOL    HW3 1666   3.931   1.546   0.480 -0.7958  0.0396  2.1353
  405SOL    MW4 1667   3.999   1.599   0.495 -0.3433  0.0752  0.0474
  406SOL     OW 1668   2.701   3.715   0.733  0.2343 -0.0058  0.0742
  406SOL    HW2 1669   2.778   3.761   0.767  0.9843 -0.2340 -1.2483
  406SOL    HW3 1670   2.694   3.637   0.787  0.3635  0.4892  0.8143
  406SOL    MW4 1671   2.710   3.711   0.744  0.3502  0.0293 -0.0027
  407SOL     OW 1672   0.856   0.350   0.832 -0.3894  0.1247 -0.2207
  407SOL    HW2 1673   0.774   0.308   0.808  0.0742 -1.1044  0.2841
  407SOL    HW3 1674   0.920   0.314   0.771  0.6282 -2.3763  2.2035
  407SOL    MW4 1675   0.854   0.340   0.821 -0.1940 -0.3675  0.1658
  408SOL     OW 1676   3.180   3.456   1.199 -0.2483  0.0784 -0.0558
  408SOL    HW2 1677   3.257   3.505   1.227  1.0775 -1.5296 -0.8507
  408SOL    HW3 1678   3.106   3.505   1.236  1.1911  0.9842  1.6837
  408SOL    MW4 1679   3.180   3.469   1.208  0.1166 -0.0143  0.0688
  409SOL     OW 1680   3.835   4.563   0.420  0.1224 -0.6451  0.6548
  409SOL    HW2 1681   3.917   4.546   0.465  0.1980 -0.9792  0.4006
  409SOL    HW3 1682   3.824   4.487   0.362 -0.2263 -0.4705  0.4900
  409SOL    MW4 1683   3.844   4.551   0.418  0.0863 -0.6661  0.5995
  410SOL     OW 1684   3.943   3.489   0.639 -0.6310 -0.4403  0.0746
  410SOL    HW2 1685   3.886   3.483   0.562 -1.0682  1.4747  0.2134
  410SOL    HW3 1686   4.024   3.445   0.613 -1.1689 -0.7337 -1.1147
  410SOL    MW4 1687   3.946   3.483   0.625 -0.7596 -0.2263 -0.0640
  411SOL     OW 1688   3.779   3.616   1.221 -0.4156  0.0531  0.2489
  411SOL    HW2 1689   3.790   3.705   1.188  0.2402 -0.0320  0.2236
  411SOL    HW3 1690   3.807   3.621   1.312 -0.3848 -0.1262  0.2490
  411SOL    MW4 1691   3.784   3.628   1.229 -0.3252  0.0181  0.2456
  412SOL     OW 1692   1.792   0.402   0.883  0.0087 -0.1432  0.5012
  412SOL    HW2 1693   1.721   0.340   0.867  0.7401 -0.9375  0.2527
  412SOL    HW3 1694   1.867   0.364   0.838  0.7495  0.3565  1.2936
  412SOL    MW4 1695   1.793   0.389   0.875  0.2029 -0.1821  0.5729
  413SOL     OW 1696   2.447   0.574   0.174 -0.0061 -0.4743  0.2221
  413SOL    HW2 1697   2.513   0.512   0.206 -0.3260 -0.2706  1.3284
  413SOL    HW3 1698   2.363   0.534   0.198 -0.1943  1.1038  2.4106
  413SOL    MW4 1699   2.444   0.561   0.182 -0.0732 -0.2393  0.6568
  414SOL     OW 1700   2.460   1.753   0.746 -0.0478  0.1211 -0.3982
  414SOL    HW2 1701   2.458   1.780   0.654 -1.9818 -0.4751 -0.5721
  414SOL    HW3 1702   2.378   1.788   0.782  0.1122 -0.6972  0.7743
  414SOL    MW4 1703   2.449   1.761   0.738 -0.2818 -0.0657 -0.2666
  415SOL     OW 1704   3.409   2.318   0.866 -0.2137  0.2168  0.2765
  415SOL    HW2 1705   3.365   2.300   0.950 -1.3459  1.0763 -0.1106
  415SOL    HW3 1706   3.491   2.270   0.871 -0.3318  0.1391  1.8319
  415SOL    MW4 1707   3.414   2.309   0.878 -0.3786  0.3200  0.4307
  416SOL     OW 1708   1.081   4.537   0.323 -0.4263  0.3303 -0.2123
  416SOL    HW2 1709   1.150   4.592   0.358  0.1651  1.1327 -2.5574
  416SOL    HW3 1710   1.076   4.560   0.230 -3.5578  0.0111 -0.1888
  416SOL    MW4 1711   1.089   4.547   0.315 -0.7616  0.3934 -0.5186
  417SOL     OW 1712   0.678   1.536   1.163 -0.4287  0.2105 -0.3964
  417SOL    HW2 1713   0.747   1.579   1.213  0.7251 -0.5466 -1.3087
  417SOL    HW3 1714   0.597   1.557   1.210  0.3950  1.3030  0.5476
  417SOL    MW4 1715   0.677   1.544   1.176 -0.1678  0.2548 -0.3922
  418SOL     OW 1716   2.004   1.502   0.887  0.6551 -0.1380  0.2229
  418SOL    HW2 1717   2.015   1.580   0.833  0.7846  0.8775  1.6879
  418SOL    HW3 1718   2.007   1.534   0.977  0.4968 -1.8065  0.8477
  418SOL    MW4 1719   2.006   1.516   0.892  0.6511 -0.2242  0.4987
  419SOL     OW 1720   3.594   3.482   0.863 -0.0551  0.7232 -0.8846
  419SOL    HW2 1721   3.583   3.576   0.846  1.7038  1.0561 -0.3118
  419SOL    HW3 1722   3.689   3.468   0.857 -0.4292 -1.3703 -2.6992
  419SOL    MW4 1723   3.605   3.493   0.860  0.1278  0.4909 -1.0484
  420SOL     OW 1724   2.040   0.740   1.087  0.2469  0.5025  0.0610
  420SOL    HW2 1725   2.022   0.746   0.993  0.3534  1.4937  0.0987
  420SOL    HW3 1726   2.037   0.646   1.106 -0.1033  0.3200 -0.8667
  420SOL    MW4 1727   2.038   0.728   1.077  0.2148  0.6093 -0.0564
  421SOL     OW 1728   1.198   3.863   1.125 -0.1845 -0.2461  0.0787
  421SOL    HW2 1729   1.115   3.891   1.163  0.1870 -0.9194  1.4365
  421SOL    HW3 1730   1.264   3.916   1.170  0.1508  0.0046 -0.7037
  421SOL    MW4 1731   1.196   3.873   1.136 -0.0913 -0.3021  0.1546
  422SOL     OW 1732   2.983   3.883   0.473  0.4223  0.4069 -0.1370
  422SOL    HW2 1733   3.067   3.838   0.481 -0.1307 -0.5290  0.5618
  422SOL    HW3 1734   2.920   3.812   0.458 -0.0305  1.2372 -2.2546
  422SOL    MW4 1735   2.986   3.867   0.472  0.2897  0.3927 -0.3242
  423SOL     OW 1736   3.884   2.253   0.909  0.4334  0.0617 -0.0153
  423SOL    HW2 1737   3.869   2.246   1.003  1.2475 -0.5975  0.0722
  423SOL    HW3 1738   3.866   2.344   0.888 -1.7628 -0.2477  0.4238
  423SOL    MW4 1739   3.880   2.264   0.919  0.2508 -0.0660  0.0541
  424SOL     OW 1740   0.678   3.351   0.869 -0.3738  0.1097 -0.3465
  424SOL    HW2 1741   0.674   3.345   0.773  0.9603 -1.1113 -0.3408
  424SOL    HW3 1742   0.765   3.387   0.887 -1.4620  2.4718  0.3402
  424SOL    MW4 1743   0.689   3.355   0.859 -0.3414  0.2604 -0.2552
  425SOL     OW 1744   3.127   0.087   0.757 -0.1450 -0.2764  0.1038
  425SOL    HW2 1745   3.218   0.087   0.785  0.1134  1.1591 -0.6667
  425SOL    HW3 1746   3.083   0.150   0.814 -0.7696 -1.3229  0.7962
  425SOL    MW4 1747   3.133   0.095   0.768 -0.1934 -0.2251  0.0935
  426SOL     OW 1748   0.840   4.570   0.473 -0.3252  0.0259  0.1532
  426SOL    HW2 1749   0.869   4.548   0.562  0.5934 -1.1198 -0.4247
  426SOL    HW3 1750   0.920   4.568   0.421 -0.7391  1.4664 -0.5667
  426SOL    MW4 1751   0.855   4.567   0.478 -0.2586  0.0653 -0.0180
  427SOL     OW 1752   1.972   1.765   0.450 -0.7367 -0.7220 -0.4612
  427SOL    HW2 1753   1.987   1.859   0.454  0.9805 -0.9667 -0.4700
  427SOL    HW3 1754   2.053   1.730   0.413 -1.0326 -2.2750  0.3158
  427SOL    MW4 1755   1.985   1.772   0.446 -0.5491 -0.9592 -0.3598
  428SOL     OW 1756   2.224   0.599   0.763  0.0292 -0.3364  0.4114
  428SOL    HW2 1757   2.155   0.657   0.796 -0.1593 -0.0851 -0.4277
  428SOL    HW3 1758   2.305   0.639   0.795 -0.1206  0.2054  0.1184
  428SOL    MW4 1759   2.225   0.612   0.772 -0.0155 -0.2318  0.2621
  429SOL     OW 1760   2.487   2.517   0.799  0.0802 -0.3464  0.7253
  429SOL    HW2 1761   2.405   2.563   0.820  1.4124  1.7243  1.5287
  429SOL    HW3 1762   2.486   2.508   0.704 -0.3200  1.1817  0.5675
  429SOL    MW4 1763   2.476   2.522   0.790  0.2034  0.1283  0.8105
  430SOL     OW 1764   3.300   2.557   0.590 -0.1707  0.7023  0.4489
  430SOL    HW2 1765   3.394   2.574   0.604 -0.2629  0.9220  0.8042
  430SOL    HW3 1766   3.295   2.464   0.570  0.1348  0.7092  0.3352
  430SOL    MW4 1767   3.312   2.547   0.589 -0.1426  0.7324  0.4808
  431SOL     OW 1768   3.581   0.901   1.221 -0.4003  0.2735 -0.3410
  431SOL    HW2 1769   3.498   0.866   1.190  0.8133 -0.6267 -2.6776
  431SOL    HW3 1770   3.578   0.995   1.200 -0.2164 -0.0463 -1.8746
  431SOL    MW4 1771   3.570   0.909   1.214 -0.2158  0.1125 -0.8515
  432SOL     OW 1772   2.949   4.558   0.444  0.2537  0.4051  0.2947
  432SOL    HW2 1773   3.013   4.627   0.464 -0.0649  0.4271  1.2786
  432SOL    HW3 1774   2.868   4.588   0.484 -0.2094  0.0534 -0.3713
  432SOL    MW4 1775   2.947   4.571   0.452  0.1509  0.3614  0.3367
  433SOL     OW 1776   1.978   2.988   0.407 -0.1922 -0.3481  0.0785
  433SOL    HW2 1777   2.049   2.928   0.385  0.1173  0.1521 -0.3086
  433SOL    HW3 1778   1.900   2.933   0.408  0.0343 -0.7006 -0.6141
  433SOL    MW4 1779   1.977   2.973   0.404 -0.1215 -0.3285 -0.0639
  434SOL     OW 1780   2.653   1.625   1.538  0.0338 -0.0614 -0.5839
  434SOL    HW2 1781   2.678   1.715   1.562  3.2999 -0.8602 -0.6625
  434SOL    HW3 1782   2.644   1.628   1.442 -1.1140  0.4552 -0.4644
  434SOL    MW4 1783   2.655   1.637   1.528  0.3133 -0.0986 -0.5785
  435SOL     OW 1784   3.299   1.675   0.745  0.2800  0.1296  0.1447
  435SOL    HW2 1785   3.287   1.607   0.812  0.0665 -0.2047 -0.2307
  435SOL    HW3 1786   3.392   1.671   0.722  0.1868 -0.2977 -0.1567
  435SOL    MW4 1787   3.309   1.666   0.751  0.2396  0.0292  0.0554
  436SOL     OW 1788   3.112   2.126   0.702 -0.0651  0.0707  0.0130
  436SOL    HW2 1789   3.035   2.105   0.649 -0.8634  0.8948  0.8297
  436SOL    HW3 1790   3.078   2.178   0.775  1.3156  0.7819  0.1734
  436SOL    MW4 1791   3.098   2.130   0.704  0.0117  0.2735  0.1419
  437SOL     OW 1792   4.252   3.098   0.863 -0.0955  0.2328  0.0540
  437SOL    HW2 1793   4.173   3.060   0.824  0.0963  1.5348 -1.6625
  437SOL    HW3 1794   4.251   3.189   0.834  2.0658  0.2538  0.0114
  437SOL    MW4 1795   4.241   3.105   0.854  0.2151  0.4072 -0.1780
  438SOL     OW 1796   2.807   0.253   0.622  0.1881  0.3788 -0.3975
  438SOL    HW2 1797   2.768   0.302   0.695 -0.6400  0.4498 -0.8873
  438SOL    HW3 1798   2.899   0.279   0.624  0.0179  0.9815  0.1409
  438SOL    MW4 1799   2.814   0.263   0.632  0.0563  0.4677 -0.3911
  439SOL     OW 1800   1.227   3.570   0.428  0.2645 -0.1410  0.1988
  439SOL    HW2 1801   1.156   3.508   0.409  0.3848  0.0944 -1.0835
  439SOL    HW3 1802   1.187   3.656   0.416 -0.0549  0.0756  2.5339
  439SOL    MW4 1803   1.212   3.573   0.424  0.2382 -0.0813  0.3377
  440SOL     OW 1804   3.559   4.294   0.840 -0.4908 -0.0386  0.4524
  440SOL    HW2 1805   3.574   4.274   0.933  1.1807 -0.3617  0.1294
  440SOL    HW3 1806   3.471   4.261   0.823 -0.4181 -0.9118  1.6722
  440SOL    MW4 1807   3.549   4.287   0.850 -0.2606 -0.1969  0.5707
  441SOL     OW 1808   3.874   0.861   0.885  0.7800 -0.3805 -0.0714
  441SOL    HW2 1809   3.844   0.817   0.965 -0.0362 -0.7661 -0.5871
  441SOL    HW3 1810   3.880   0.953   0.909 -0.7937 -0.2950  0.0621
  441SOL    MW4 1811   3.871   0.867   0.899  0.4649 -0.4200 -0.1219
  442SOL     OW 1812   0.685   0.802   1.162 -0.3624  0.2476  0.0786
  442SOL    HW2 1813   0.622   0.843   1.222 -0.8424 -0.1148 -0.1693
  442SOL    HW3 1814   0.770   0.835   1.190 -0.3923 -1.3017  2.1094
  442SOL    MW4 1815   0.688   0.812   1.174 -0.4296 -0.0046  0.3138
  443SOL     OW 1816   0.461   0.510   0.330  0.2217  0.5123 -0.4354
  443SOL    HW2 1817   0.431   0.553   0.249 -1.5814  0.5301  0.2047
  443SOL    HW3 1818   0.387   0.454   0.355  0.9676  0.1284  0.9215
  443SOL    MW4 1819   0.447   0.508   0.323  0.0823  0.4641 -0.1719
  444SOL     OW 1820   1.113   3.104   0.782 -0.0518 -0.3263 -0.1229
  444SOL    HW2 1821   1.025   3.066   0.779  0.9165 -2.6971  0.0355
  444SOL    HW3 1822   1.129   3.120   0.874 -0.7109  1.1424 -0.2457
  444SOL    MW4 1823   1.103   3.101   0.793 -0.0111 -0.4454 -0.1182
  445SOL     OW 1824   1.555   2.968   0.861  0.3018  0.3324  0.5350
  445SOL    HW2 1825   1.489   2.899   0.862  0.5651  0.0692  0.1558
  445SOL    HW3 1826   1.635   2.924   0.830 -0.2112  1.3918 -2.4773
  445SOL    MW4 1827   1.557   2.953   0.857  0.2688  0.4373  0.0876
  446SOL     OW 1828   3.544   1.158   1.156 -0.5005  0.5105  0.2988
  446SOL    HW2 1829   3.626   1.186   1.196  0.0994 -0.2397 -0.4010
  446SOL    HW3 1830   3.476   1.189   1.216  0.4413 -1.8897  2.6780
  446SOL    MW4 1831   3.546   1.166   1.169 -0.2971  0.0947  0.5205
  447SOL     OW 1832   1.365   0.883   1.224  0.0238 -0.1427 -0.3172
  447SOL    HW2 1833   1.299   0.831   1.179  0.9695 -1.5782 -0.0779
  447SOL    HW3 1834   1.448   0.840   1.203  0.5898 -0.1766  1.8622
  447SOL    MW4 1835   1.367   0.871   1.215  0.2234 -0.3366  0.0019
  448SOL     OW 1836   3.127   3.472   0.377  0.4416 -0.5530 -0.0114
  448SOL    HW2 1837   3.043   3.442   0.412 -1.1949  1.7188 -1.7889
  448SOL    HW3 1838   3.118   3.462   0.282  2.5490 -1.1596 -0.1650
  448SOL    MW4 1839   3.114   3.467   0.369  0.5038 -0.3335 -0.2662
  449SOL     OW 1840   0.639   3.590   1.217  0.0133 -0.1015 -0.0619
  449SOL    HW2 1841   0.627   3.602   1.311 -0.7866 -0.7871 -0.0655
  449SOL    HW3 1842   0.670   3.675   1.185  1.0873 -0.0972  0.9402
  449SOL    MW4 1843   0.642   3.602   1.225  0.0495 -0.1912  0.0699
  450SOL     OW 1844   3.818   4.326   0.250 -0.3703  0.2364  0.4496
  450SOL    HW2 1845   3.900   4.291   0.283 -0.7323 -1.6676 -0.6039
  450SOL    HW3 1846   3.750   4.282   0.302 -0.8290 -0.6012 -0.8377
  450SOL    MW4 1847   3.820   4.315   0.261 -0.4785 -0.1249  0.1408
  451SOL     OW 1848   0.711   0.393   0.454 -0.1746 -0.3202  0.4393
  451SOL    HW2 1849   0.643   0.448   0.416  1.7083  0.3588 -2.1484
  451SOL    HW3 1850   0.667   0.341   0.521 -3.2682 -0.1488 -1.3995
  451SOL    MW4 1851   0.696   0.394   0.458 -0.3343 -0.2080 -0.1447
  452SOL     OW 1852   4.433   4.046   0.391 -0.1925 -0.3310 -0.3824
  452SOL    HW2 1853   4.375   4.031   0.317 -2.0022 -0.8615  1.1202
  452SOL    HW3 1854   4.449   3.960   0.428  2.5059 -0.3359 -1.4401
  452SOL    MW4 1855   4.428   4.033   0.386 -0.0753 -0.4015 -0.3237
  453SOL     OW 1856   0.453   0.889   1.628 -0.1802 -0.5990 -0.1583
  453SOL    HW2 1857   0.545   0.864   1.628 -0.5776 -2.1407  0.1822
  453SOL    HW3 1858   0.452   0.980   1.656  1.1215 -1.0199  1.2944
  453SOL    MW4 1859   0.465   0.898   1.631 -0.0609 -0.8580  0.0784
  454SOL     OW 1860   4.432   1.365   0.854  0.3781 -0.2396  0.0940
  454SOL    HW2 1861   4.472   1.285   0.888 -0.5838 -0.2980  1.1145
  454SOL    HW3 1862   4.480   1.436   0.896 -0.7923 -0.3114  1.5912
  454SOL    MW4 1863   4.443   1.364   0.864  0.0968 -0.2567  0.4262
  455SOL     OW 1864   3.858   3.380   0.885  0.2762 -0.3044 -0.0948
  455SOL    HW2 1865   3.920   3.405   0.953  2.1225 -0.5398 -1.6717
  455SOL    HW3 1866   3.890   3.423   0.806 -1.3347 -0.7636 -1.0276
  455SOL    MW4 1867   3.870   3.389   0.884  0.3071 -0.3963 -0.4259
  456SOL     OW 1868   2.942   3.357   0.776  0.0824 -0.2675  0.0712
  456SOL    HW2 1869   3.006   3.394   0.837 -0.4672 -0.6895  0.8985
  456SOL    HW3 1870   2.936   3.265   0.800 -1.2911 -0.1058  0.3896
  456SOL    MW4 1871   2.950   3.350   0.787 -0.1712 -0.3016  0.2224
  457SOL     OW 1872   1.354   0.493   0.457  0.1490 -0.2203 -0.2437
  457SOL    HW2 1873   1.324   0.511   0.546 -0.9380  0.0389 -0.6455
  457SOL    HW3 1874   1.276   0.458   0.413  1.2107 -2.2294 -0.5388
  457SOL    MW4 1875   1.339   0.491   0.463  0.1457 -0.4512 -0.3356
  458SOL     OW 1876   3.794   1.196   1.277  0.1467 -0.3708  0.3016
  458SOL    HW2 1877   3.802   1.204   1.372  0.7995 -0.4479  0.2587
  458SOL    HW3 1878   3.811   1.284   1.243  2.7770 -0.9193  0.0989
  458SOL    MW4 1879   3.797   1.208   1.285  0.5798 -0.4534  0.2692
  459SOL     OW 1880   0.652   1.263   0.866  0.1510  0.8458 -0.3607
  459SOL    HW2 1881   0.744   1.259   0.893 -0.2616 -0.5305  0.9670
  459SOL    HW3 1882   0.628   1.355   0.873  1.1317  1.0543  0.3938
  459SOL    MW4 1883   0.661   1.274   0.871  0.2260  0.6915 -0.0859
  460SOL     OW 1884   0.791   2.722   0.374  0.6143  0.6059 -0.6800
  460SOL    HW2 1885   0.787   2.800   0.429 -1.2627  0.5887 -0.7515
  460SOL    HW3 1886   0.777   2.754   0.285  0.3100  0.2466 -0.7634
  460SOL    MW4 1887   0.789   2.737   0.370  0.3265  0.5560 -0.7005
  461SOL     OW 1888   1.688   3.828   0.376  0.1180 -0.4918 -0.3606
  461SOL    HW2 1889   1.633   3.750   0.385 -0.5185 -0.1406 -1.1759
  461SOL    HW3 1890   1.713   3.850   0.466 -0.1373 -1.3214 -0.0828
  461SOL    MW4 1891   1.684   3.821   0.389  0.0002 -0.5546 -0.4315
  462SOL     OW 1892   1.254   1.889   0.851  0.3968 -0.0796 -0.2302
  462SOL    HW2 1893   1.320   1.872   0.784 -0.0497 -0.9087 -0.4702
  462SOL    HW3 1894   1.195   1.952   0.811  0.6941  0.1951 -0.2410
  462SOL    MW4 1895   1.255   1.895   0.837  0.3769 -0.1528 -0.2633
  463SOL     OW 1896   1.953   3.515   0.727  0.1164 -0.1669 -0.0513
  463SOL    HW2 1897   1.927   3.605   0.745 -2.1517 -0.8260  0.1000
  463SOL    HW3 1898   1.903   3.463   0.790 -0.1640 -1.6995 -1.5037
  463SOL    MW4 1899   1.943   3.520   0.738 -0.2199 -0.4563 -0.2230
  464SOL     OW 1900   1.488   3.692   0.719  0.0194  0.1627  0.2797
  464SOL    HW2 1901   1.441   3.615   0.750 -2.1663  1.1410 -0.5541
  464SOL    HW3 1902   1.501   3.676   0.625  0.3816  0.3890  0.2909
  464SOL    MW4 1903   1.484   3.680   0.710 -0.2211  0.3221  0.1712
  465SOL     OW 1904   4.465   1.687   1.232  0.2112  0.1355  0.2386
  465SOL    HW2 1905   4.546   1.639   1.223 -0.3452 -0.8411  0.3725
  465SOL    HW3 1906   4.401   1.636   1.182 -0.6310  0.1163  1.3160
  465SOL    MW4 1907   4.467   1.674   1.224  0.0267  0.0042  0.3983
  466SOL     OW 1908   1.572   4.372   1.215  0.3789  0.1305 -0.3537
  466SOL    HW2 1909   1.545   4.386   1.306  0.2463 -1.6552 -0.0956
  466SOL    HW3 1910   1.494   4.336   1.172  0.4879  0.8224 -1.1398
  466SOL    MW4 1911   1.558   4.369   1.222  0.3756 -0.0138 -0.4234
  467SOL     OW 1912   0.903   0.179   0.388  0.0429  0.3052  0.1463
  467SOL    HW2 1913   0.826   0.235   0.382 -0.3368 -0.0219  1.6021
  467SOL    HW3 1914   0.867   0.092   0.408  0.7600  0.0502  0.3241
  467SOL    MW4 1915   0.888   0.175   0.390  0.0874  0.2284  0.3619
  468SOL     OW 1916   1.578   0.315   0.536  0.0622 -0.2301 -0.1981
  468SOL    HW2 1917   1.652   0.376   0.537  0.9921 -1.3294  1.9706
  468SOL    HW3 1918   1.503   0.368   0.513  1.1398  1.4060  0.0061
  468SOL    MW4 1919   1.578   0.330   0.533  0.3272 -0.1593  0.1150
  469SOL     OW 1920   2.512   2.962   0.566  0.2822 -0.4337 -0.2586
  469SOL    HW2 1921   2.429   2.959   0.614  0.6473  0.3853  0.4326
  469SOL    HW3 1922   2.503   3.037   0.508  1.3049  0.8969  1.2593
  469SOL    MW4 1923   2.500   2.972   0.565  0.4652 -0.1500  0.0328
  470SOL     OW 1924   1.342   0.406   1.180 -0.1979 -0.3912  0.5755
  470SOL    HW2 1925   1.263   0.438   1.223  0.1573  0.3828  0.6448
  470SOL    HW3 1926   1.359   0.321   1.223 -0.6884 -0.3172  0.9234
  470SOL    MW4 1927   1.333   0.399   1.192 -0.2156 -0.2794  0.6305
  471SOL     OW 1928   2.292   2.970   0.738 -0.5090 -0.0340  0.0434
  471SOL    HW2 1929   2.364   3.012   0.785  0.3568  0.1628 -1.4108
  471SOL    HW3 1930   2.224   3.038   0.731 -0.6991 -0.1108  1.1062
  471SOL    MW4 1931   2.292   2.985   0.743 -0.4201 -0.0184 -0.0082
  472SOL     OW 1932   1.522   2.938   0.527  0.0107 -0.4093 -0.5860
  472SOL    HW2 1933   1.558   3.025   0.510 -1.1389 -0.2108 -2.1128
  472SOL    HW3 1934   1.429   2.954   0.545  0.1886 -1.1385  1.0639
  472SOL    MW4 1935   1.514   2.952   0.527 -0.1175 -0.4792 -0.5698
  473SOL     OW 1936   2.251   3.438   0.851 -0.0963 -0.1316 -0.4656
  473SOL    HW2 1937   2.235   3.435   0.945  0.6238 -0.3885 -0.3492
  473SOL    HW3 1938   2.193   3.507   0.819 -0.5348 -0.2241  0.1254
  473SOL    MW4 1939   2.241   3.447   0.859 -0.0589 -0.1776 -0.3722
  474SOL     OW 1940   4.047   0.402   0.919 -0.1421  0.2672 -0.1688
  474SOL    HW2 1941   4.041   0.486   0.874 -0.2070  0.5003  0.2710
  474SOL    HW3 1942   4.121   0.358   0.878 -0.4235  0.3307 -0.7453
  474SOL    MW4 1943   4.056   0.407   0.908 -0.1879  0.3064 -0.1869
  475SOL     OW 1944   1.758   0.057   0.290  0.4043 -0.6058  0.3486
  475SOL    HW2 1945   1.769   0.137   0.238  1.1120 -0.4378  0.7436
  475SOL    HW3 1946   1.825   0.064   0.359 -0.0029 -1.1960  0.8123
  475SOL    MW4 1947   1.768   0.069   0.293  0.4441 -0.6615  0.4618
  476SOL     OW 1948   2.400   0.764   0.358  0.1937 -0.1717  0.1227
  476SOL    HW2 1949   2.406   0.700   0.288  0.3374  0.8987 -0.8594
  476SOL    HW3 1950   2.321   0.740   0.406 -0.5206 -0.2343 -1.0815
  476SOL    MW4 1951   2.391   0.752   0.355  0.1185 -0.0387 -0.1657
  477SOL     OW 1952   4.292   0.767   0.932 -0.2093 -0.0679  0.3397
  477SOL    HW2 1953   4.303   0.750   1.026  2.4213  0.2103  0.1250
  477SOL    HW3 1954   4.263   0.858   0.927  0.0821  0.0570  0.8680
  477SOL    MW4 1955   4.290   0.777   0.944  0.1764 -0.0146  0.3811
  478SOL     OW 1956   2.225   1.360   0.755 -0.5275  0.1283 -0.0465
  478SOL    HW2 1957   2.154   1.406   0.800 -0.4508 -0.6233  0.8548
  478SOL    HW3 1958   2.300   1.419   0.763 -0.0314 -0.7793  2.4149
  478SOL    MW4 1959   2.225   1.374   0.762 -0.4518 -0.0906  0.3971
  479SOL     OW 1960   1.043   4.153   0.755 -0.0886  0.5580  0.3230
  479SOL    HW2 1961   0.973   4.195   0.805 -1.2715 -1.3337  0.2954
  479SOL    HW3 1962   1.051   4.066   0.794  1.6538  0.4476 -0.2525
  479SOL    MW4 1963   1.035   4.147   0.767 -0.0149  0.2942  0.2434
  480SOL     OW 1964   1.890   3.086   0.863  0.3559  0.0760  0.1923
  480SOL    HW2 1965   1.974   3.115   0.828  0.4792  1.4616  1.5828
  480SOL    HW3 1966   1.858   3.021   0.800  1.9808  0.2969 -0.8689
  480SOL    MW4 1967   1.896   3.081   0.850  0.5866  0.2880  0.2358
  481SOL     OW 1968   0.854   1.603   0.771 -0.2703 -0.2922  0.2454
  481SOL    HW2 1969   0.853   1.565   0.682 -0.5118 -1.4903  0.7474
  481SOL    HW3 1970   0.947   1.604   0.794 -0.1560  0.5825 -0.2596
  481SOL    MW4 1971   0.866   1.598   0.762 -0.2871 -0.3350  0.2450
  482SOL     OW 1972   3.369   2.279   1.152 -0.3041  0.1891 -0.1788
  482SOL    HW2 1973   3.298   2.337   1.179 -0.5019 -0.7126  1.2797
  482SOL    HW3 1974   3.446   2.314   1.195  0.3288  1.6212 -2.3633
  482SOL    MW4 1975   3.370   2.291   1.161 -0.2468  0.2592 -0.2745
  483SOL     OW 1976   0.425   4.283   0.836  0.4973 -0.9020  0.5051
  483SOL    HW2 1977   0.345   4.253   0.793 -1.5459 -0.1188  3.5456
  483SOL    HW3 1978   0.428   4.377   0.819  0.3552 -0.8075  0.9823
  483SOL    MW4 1979   0.415   4.292   0.828  0.2089 -0.7863  0.9693
  484SOL     OW 1980   3.774   3.543   0.397 -0.3332  0.1910  0.2634
  484SOL    HW2 1981   3.856   3.565   0.352 -0.7026 -0.4876 -0.7556
  484SOL    HW3 1982   3.741   3.627   0.428  0.6410  0.4954  0.4902
  484SOL    MW4 1983   3.781   3.557   0.395 -0.2534  0.1419  0.1589
  485SOL     OW 1984   2.959   3.873   1.113  0.0910 -0.4796 -0.1471
  485SOL    HW2 1985   3.033   3.916   1.156 -0.9172  0.9579  0.2099
  485SOL    HW3 1986   2.950   3.789   1.158  0.5597 -0.0162  0.8345
  485SOL    MW4 1987   2.968   3.868   1.125  0.0198 -0.2286  0.0296
  486SOL     OW 1988   4.304   4.654   1.167  0.6527  0.0445  0.6419
  486SOL    HW2 1989   4.229   4.712   1.182  0.9607  0.2563  1.3587
  486SOL    HW3 1990   4.270   4.566   1.180  0.6641  0.1712  1.5327
  486SOL    MW4 1991   4.290   4.650   1.171  0.6948  0.0887  0.8539
  487SOL     OW 1992   4.329   0.432   1.317  0.1405 -0.0704 -0.3314
  487SOL    HW2 1993   4.299   0.447   1.407  0.9736 -0.0072 -0.0606
  487SOL    HW3 1994   4.249   0.412   1.268 -0.3350  0.0376  0.3944
  487SOL    MW4 1995   4.314   0.432   1.323  0.1869 -0.0478 -0.2000
  488SOL     OW 1996   0.689   0.538   1.263  0.4094  0.1628 -0.5947
  488SOL    HW2 1997   0.610   0.500   1.226  0.9714 -1.0736 -0.5323
  488SOL    HW3 1998   0.680   0.632   1.246 -1.3794  0.1105  0.0193
  488SOL    MW4 1999   0.677   0.546   1.256  0.2475 -0.0072 -0.5054
  489SOL     OW 2000   4.217   4.123   0.780  0.4980  0.0136  0.2406
  489SOL    HW2 2001   4.294   4.168   0.813  0.4601 -0.1789  0.5931
  489SOL    HW3 2002   4.143   4.170   0.819  0.4314  0.2760 -0.1934
  489SOL    MW4 2003   4.217   4.135   0.789  0.4845  0.0234  0.2298
  490SOL     OW 2004   0.267   1.248   1.300 -0.4283 -0.0948  0.2258
  490SOL    HW2 2005   0.333   1.212   1.240 -1.3359 -0.1803 -0.7175
  490SOL    HW3 2006   0.186   1.203   1.278 -1.0167  0.6698  0.7818
  490SOL    MW4 2007   0.265   1.237   1.289 -0.6257 -0.0051  0.1748
  491SOL     OW 2008   1.132   0.305   0.366 -0.0409 -0.4495  0.3897
  491SOL    HW2 2009   1.055   0.248   0.361 -0.5843  0.2422  0.6813
  491SOL    HW3 2010   1.097   0.393   0.349  0.8295 -0.2422 -0.3454
  491SOL    MW4 2011   1.117   0.309   0.363  0.0021 -0.3309  0.3312
  492SOL     OW 2012   0.321   1.199   0.476 -0.4682  0.1761 -0.0552
  492SOL    HW2 2013   0.378   1.269   0.446  0.1204 -0.4550 -0.4407
  492SOL    HW3 2014   0.243   1.243   0.511 -0.1143  1.0061 -0.3178
  492SOL    MW4 2015   0.318   1.214   0.477 -0.3439  0.2024 -0.1408
  493SOL     OW 2016   4.233   1.539   1.096  0.0975  0.1218 -0.2549
  493SOL    HW2 2017   4.252   1.462   1.149  2.2692  1.3331  0.8144
  493SOL    HW3 2018   4.158   1.581   1.138  0.7388  0.1460  0.8758
  493SOL    MW4 2019   4.226   1.535   1.108  0.4692  0.2849  0.0353
  494SOL     OW 2020   2.886   1.775   0.796 -0.4621 -0.5721  0.2353
  494SOL    HW2 2021   2.815   1.816   0.846 -0.5979 -0.6921  0.1394
  494SOL    HW3 2022   2.964   1.827   0.819 -0.2746 -1.4048  1.5550
  494SOL    MW4 2023   2.887   1.787   0.806 -0.4551 -0.6977  0.3968
  495SOL     OW 2024   1.083   2.063   0.725  0.0683 -0.1165 -0.0982
  495SOL    HW2 2025   0.993   2.088   0.746  0.2643 -0.4454  1.2098
  495SOL    HW3 2026   1.087   2.062   0.629 -1.4221 -0.4615 -0.1652
  495SOL    MW4 2027   1.072   2.066   0.715 -0.1025 -0.2055  0.0655
  496SOL     OW 2028   0.698   1.567   0.314  0.0929 -0.5897 -0.4063
  496SOL    HW2 2029   0.774   1.579   0.258  1.0932 -0.1524  1.0137
  496SOL    HW3 2030   0.669   1.656   0.335  0.1192 -0.7427  0.2905
  496SOL    MW4 2031   0.704   1.581   0.310  0.2284 -0.5521 -0.1270
  497SOL     OW 2032   0.030   0.609   0.868  0.0277  0.3905 -0.2677
  497SOL    HW2 2033   0.030   0.620   0.773 -0.0061 -2.1635 -0.6137
  497SOL    HW3 2034  -0.051   0.651   0.897 -1.6719 -1.6510 -1.8143
  497SOL    MW4 2035   0.019   0.616   0.859 -0.2010 -0.2158 -0.5174
  498SOL     OW 2036   0.280   2.300   1.155  0.7079  0.1866  0.2735
  498SOL    HW2 2037   0.202   2.347   1.185  0.1605  0.0366 -0.8819
  498SOL    HW3 2038   0.352   2.362   1.167  0.0452  1.2127 -0.8800
  498SOL    MW4 2039   0.279   2.314   1.160  0.5482  0.3021 -0.0312
  499SOL     OW 2040   4.453   2.680   1.120  0.5107  0.2183  0.3021
  499SOL    HW2 2041   4.486   2.598   1.157 -0.3581 -0.4848 -0.4354
  499SOL    HW3 2042   4.378   2.702   1.175 -0.8523 -0.8894 -1.0512
  499SOL    MW4 2043   4.447   2.672   1.132  0.2165 -0.0207  0.0262
  500SOL     OW 2044   4.485   3.233   1.246 -0.5668 -0.0250  0.2337
  500SOL    HW2 2045   4.554   3.176   1.212 -0.4590 -0.3005  0.8986
  500SOL    HW3 2046   4.404   3.192   1.217 -0.4232  1.3556 -2.2060
  500SOL    MW4 2047   4.484   3.220   1.238 -0.5336  0.1209 -0.0005
  501SOL     OW 2048   2.922   1.547   1.215 -0.2646 -0.0957  0.5595
  501SOL    HW2 2049   2.915   1.453   1.234  1.2152 -0.1288  0.9905
  501SOL    HW3 2050   3.000   1.576   1.263 -0.4577  1.2686  0.0818
  501SOL    MW4 2051   2.931   1.538   1.224 -0.0947  0.0799  0.5534
  502SOL     OW 2052   2.839   2.664   0.334 -0.1044  0.0242 -0.8080
  502SOL    HW2 2053   2.925   2.683   0.372 -0.4007 -0.4702  0.1312
  502SOL    HW3 2054   2.802   2.751   0.315  0.6635  0.2327 -1.3692
  502SOL    MW4 2055   2.846   2.678   0.337 -0.0422 -0.0136 -0.7581
  503SOL     OW 2056   1.933   4.400   0.449  0.0606  0.0109  0.4311
  503SOL    HW2 2057   1.860   4.406   0.387 -0.6685  1.7547  1.3993
  503SOL    HW3 2058   1.893   4.424   0.533  1.4049 -0.6407  1.2616
  503SOL    MW4 2059   1.918   4.404   0.452  0.1417  0.1554  0.6684
  504SOL     OW 2060   0.191   3.632   1.255  0.2426  0.5736  0.1685
  504SOL    HW2 2061   0.190   3.610   1.348 -0.5946 -2.1343 -0.4198
  504SOL    HW3 2062   0.242   3.562   1.214  0.0051  1.3300 -1.4899
  504SOL    MW4 2063   0.197   3.620   1.262  0.1008  0.3164 -0.1280
  505SOL     OW 2064   0.188   3.883   1.125  0.2534 -0.6234  0.4265
  505SOL    HW2 2065   0.103   3.919   1.151  0.0275  0.0359 -1.1390
  505SOL    HW3 2066   0.192   3.797   1.166 -1.0925 -0.5831  0.6653
  505SOL    MW4 2067   0.178   3.877   1.134  0.0460 -0.5310  0.2514
  506SOL     OW 2068   4.448   4.016   1.225  0.3552 -0.1800  0.3133
  506SOL    HW2 2069   4.453   3.994   1.319 -2.6176  0.5345  0.6919
  506SOL    HW3 2070   4.381   3.956   1.190  0.1148  0.8030 -0.9470
  506SOL    MW4 2071   4.440   4.005   1.233 -0.0682  0.0439  0.1971
  507SOL     OW 2072   0.631   1.551   0.895  0.4596  0.6945 -0.0248
  507SOL    HW2 2073   0.713   1.571   0.850  1.3403 -1.6286  0.4910
  507SOL    HW3 2074   0.655   1.548   0.988 -0.5153  1.3616  0.2614
  507SOL    MW4 2075   0.645   1.554   0.901  0.4472  0.4761  0.0810
  508SOL     OW 2076   4.457   4.267   1.130 -0.3016 -0.1379  0.1823
  508SOL    HW2 2077   4.457   4.177   1.164  1.1235 -0.1198  0.2914
  508SOL    HW3 2078   4.540   4.303   1.160 -0.6405  1.0559 -0.2948
  508SOL    MW4 2079   4.468   4.260   1.138 -0.1583  0.0219  0.1339
  509SOL     OW 2080   4.183   3.390   0.540  0.1605  0.3373  0.4568
  509SOL    HW2 2081   4.211   3.303   0.512  0.2703  0.9514 -1.4277
  509SOL    HW3 2082   4.225   3.403   0.624  0.4483 -1.2814  0.5811
  509SOL    MW4 2083   4.192   3.380   0.547  0.2127  0.2048  0.2246
  510SOL     OW 2084   0.474   0.069   1.267 -0.0182  0.5880  0.2159
  510SOL    HW2 2085   0.391   0.041   1.227 -0.3278  1.5642  0.1780
  510SOL    HW3 2086   0.541   0.026   1.214 -0.4745  0.4450 -0.2530
  510SOL    MW4 2087   0.472   0.060   1.255 -0.1192  0.6978  0.1490
  511SOL     OW 2088   0.474   0.895   1.352 -0.0778  0.2817  0.1628
  511SOL    HW2 2089   0.402   0.845   1.315 -1.1100  2.2656 -0.5699
  511SOL    HW3 2090   0.461   0.891   1.447  0.8317 -2.2386  0.2122
  511SOL    MW4 2091   0.463   0.888   1.359 -0.0940  0.2110  0.0726
  512SOL     OW 2092   4.094   4.596   0.525  0.1243  0.1438 -0.2654
  512SOL    HW2 2093   4.168   4.563   0.473 -0.1979  0.4559 -0.9374
  512SOL    HW3 2094   4.089   4.689   0.501  0.7594  0.5888  1.2821
  512SOL    MW4 2095   4.103   4.604   0.515  0.1659  0.2441 -0.1498
  513SOL     OW 2096   1.348   4.323   0.601 -0.1908  0.0541  0.1746
  513SOL    HW2 2097   1.383   4.244   0.561  1.4838  1.5836 -1.4594
  513SOL    HW3 2098   1.268   4.342   0.552  0.9502  0.9675 -1.3686
  513SOL    MW4 2099   1.342   4.315   0.589  0.1806  0.3762 -0.2446
  514SOL     OW 2100   2.173   0.684   0.504  0.5586 -0.0895 -0.1355
  514SOL    HW2 2101   2.186   0.656   0.595  0.0444 -0.1999 -0.0911
  514SOL    HW3 2102   2.190   0.605   0.453 -1.8784 -0.7795  0.0578
  514SOL    MW4 2103   2.177   0.670   0.509  0.1693 -0.1952 -0.1041
  515SOL     OW 2104   0.887   1.659   1.275 -0.2428 -0.0975  0.0030
  515SOL    HW2 2105   0.949   1.609   1.222 -1.4879 -0.1821 -1.4161
  515SOL    HW3 2106   0.889   1.747   1.236 -0.4503  0.1044  0.4458
  515SOL    MW4 2107   0.896   1.664   1.263 -0.4344 -0.0821 -0.1258
  516SOL     OW 2108   2.026   2.819   1.271  0.2859 -0.0761 -0.6619
  516SOL    HW2 2109   2.014   2.902   1.224 -0.4316  0.2228  0.0414
  516SOL    HW3 2110   2.113   2.789   1.246  0.8506  1.2760 -0.3220
  516SOL    MW4 2111   2.036   2.826   1.261  0.2656  0.1416 -0.5244
  517SOL     OW 2112   3.590   3.414   1.140  0.3290 -0.0647 -0.0904
  517SOL    HW2 2113   3.662   3.474   1.159  0.7972 -0.6057 -0.1301
  517SOL    HW3 2114   3.569   3.431   1.048 -1.0023  1.5621  0.4832
  517SOL    MW4 2115   3.597   3.424   1.130  0.2153  0.0787 -0.0198
  518SOL     OW 2116   0.424   1.670   1.522 -0.0473  0.5384  0.9322
  518SOL    HW2 2117   0.409   1.752   1.569 -1.4722 -0.6534  2.6002
  518SOL    HW3 2118   0.351   1.614   1.547  0.1640 -0.7835 -1.2888
  518SOL    MW4 2119   0.413   1.674   1.531 -0.2074  0.2067  0.8591
  519SOL     OW 2120   2.000   4.620   1.133 -0.3246  0.2548  0.1362
  519SOL    HW2 2121   2.010   4.534   1.174  0.4199  0.6210  0.7417
  519SOL    HW3 2122   1.973   4.600   1.044 -0.1933 -0.6150  0.2790
  519SOL    MW4 2123   1.998   4.606   1.127 -0.2092  0.1879  0.2348
  520SOL     OW 2124   4.028   3.983   1.265 -0.0451 -0.8914  0.1866
  520SOL    HW2 2125   4.013   4.072   1.231 -0.7255 -0.3209  1.8902
  520SOL    HW3 2126   3.957   3.931   1.228  1.3668 -1.1397 -2.2336
  520SOL    MW4 2127   4.017   3.988   1.256  0.0510 -0.8490  0.0920
  521SOL     OW 2128   1.074   2.080   1.252  0.1644 -0.0657  0.2721
  521SOL    HW2 2129   1.105   2.170   1.237  1.3665 -0.5712 -0.3604
  521SOL    HW3 2130   1.061   2.075   1.347  0.1357  0.7557  0.3189
  521SOL    MW4 2131   1.076   2.091   1.263  0.3191 -0.0241  0.1949
  522SOL     OW 2132   0.683   2.305   1.173  0.1650  0.0626 -0.2714
  522SOL    HW2 2133   0.604   2.356   1.194  0.2663  0.0581  0.1093
  522SOL    HW3 2134   0.660   2.215   1.196 -0.1401 -0.1232 -1.2770
  522SOL    MW4 2135   0.669   2.300   1.179  0.1380  0.0374 -0.3539
  523SOL     OW 2136   0.447   2.999   0.780  0.1929 -0.4475 -0.1054
  523SOL    HW2 2137   0.534   3.018   0.815  0.5561 -1.6809 -0.2963
  523SOL    HW3 2138   0.443   2.903   0.776 -1.1502 -0.4083 -0.1612
  523SOL    MW4 2139   0.458   2.989   0.784  0.0636 -0.6053 -0.1379
  524SOL     OW 2140   0.659   2.854   1.215 -0.4267 -0.6666  0.0597
  524SOL    HW2 2141   0.667   2.950   1.212 -1.0936 -0.6342 -0.8353
  524SOL    HW3 2142   0.743   2.822   1.183 -0.2464 -0.3785  0.2450
  524SOL    MW4 2143   0.671   2.863   1.210 -0.4909 -0.6247 -0.0340
  525SOL     OW 2144   0.218   4.663   0.836  0.3254 -0.0426  0.0400
  525SOL    HW2 2145   0.294   4.614   0.803  0.5091  0.6576 -0.5708
  525SOL    HW3 2146   0.226   4.750   0.797 -0.9634 -0.0592 -0.2795
  525SOL    MW4 2147   0.229   4.668   0.827  0.1796  0.0472 -0.0829
  526SOL     OW 2148   0.202   3.086   1.144 -0.3347  0.3242  0.1779
  526SOL    HW2 2149   0.289   3.108   1.179 -0.7481  0.8063  0.9227
  526SOL    HW3 2150   0.183   3.000   1.181 -0.5660  0.6238  0.7653
  526SOL    MW4 2151   0.211   3.077   1.154 -0.4197  0.4275  0.3537
  527SOL     OW 2152   0.394   3.471   1.147 -0.8187 -0.2579 -0.0726
  527SOL    HW2 2153   0.469   3.529   1.164 -1.4356  0.4997  0.0864
  527SOL    HW3 2154   0.383   3.474   1.051 -0.7664 -0.2169 -0.0773
  527SOL    MW4 2155   0.403   3.479   1.136 -0.8932 -0.1523 -0.0522
  528SOL     OW 2156   4.007   2.981   0.490  0.0397 -0.2855  0.0002
  528SOL    HW2 2157   3.994   2.898   0.444  0.2155 -1.2608  1.6702
  528SOL    HW3 2158   3.918   3.012   0.509 -0.0031 -0.9775  0.9311
  528SOL    MW4 2159   3.994   2.975   0.486  0.0572 -0.5054  0.3434
  529SOL     OW 2160   0.458   3.967   1.230 -0.2822 -0.0001  0.1786
  529SOL    HW2 2161   0.465   4.055   1.194 -0.0007 -0.5477 -1.1431
  529SOL    HW3 2162   0.367   3.941   1.212 -0.4625  0.1323  0.8626
  529SOL    MW4 2163   0.447   3.975   1.223 -0.2689 -0.0548  0.0945
  530SOL     OW 2164   3.666   0.812   0.651  0.0630  0.3996 -0.0072
  530SOL    HW2 2165   3.610   0.750   0.697  1.5108 -1.5877 -0.8224
  530SOL    HW3 2166   3.738   0.828   0.712 -0.1867  1.1019  0.1051
  530SOL    MW4 2167   3.668   0.805   0.665  0.2210  0.2301 -0.1001
  531SOL     OW 2168   0.910   3.471   1.169 -0.2620 -0.0189 -0.2297
  531SOL    HW2 2169   0.907   3.471   1.073 -0.0482  0.2884 -0.2366
  531SOL    HW3 2170   0.818   3.482   1.196 -0.0536  2.4151 -0.4159
  531SOL    MW4 2171   0.897   3.473   1.160 -0.2063  0.3426 -0.2553
  532SOL     OW 2172   0.452   4.236   1.138  0.1738 -0.2499  0.1200
  532SOL    HW2 2173   0.459   4.249   1.044  0.7490  0.1707  0.2149
  532SOL    HW3 2174   0.371   4.281   1.163  0.9096  1.1168  0.0789
  532SOL    MW4 2175   0.442   4.244   1.129  0.3467 -0.0138  0.1271
  533SOL     OW 2176   0.898   4.226   1.189 -0.3692  0.0241 -0.1175
  533SOL    HW2 2177   0.818   4.277   1.199 -0.9796 -1.0618  0.6793
  533SOL    HW3 2178   0.968   4.286   1.214 -1.0153  0.6706  0.1660
  533SOL    MW4 2179   0.897   4.240   1.193 -0.5350 -0.0339  0.0250
  534SOL     OW 2180   0.871   0.143   1.192  0.2476 -0.0119 -0.1116
  534SOL    HW2 2181   0.886   0.138   1.287 -1.3282  0.5907  0.1815
  534SOL    HW3 2182   0.870   0.237   1.173 -0.1538 -0.1173 -0.6102
  534SOL    MW4 2183   0.873   0.155   1.202 -0.0134  0.0537 -0.1386
  535SOL     OW 2184   1.362   2.443   1.216  0.6074  0.1514  0.0191
  535SOL    HW2 2185   1.348   2.529   1.177 -0.2252  0.5244  1.1197
  535SOL    HW3 2186   1.368   2.460   1.310 -1.3987 -1.1909  0.4243
  535SOL    MW4 2187   1.361   2.456   1.223  0.2328  0.0234  0.2179
  536SOL     OW 2188   1.111   0.538   1.239  0.1347 -0.2057 -0.0157
  536SOL    HW2 2189   1.110   0.523   1.334  0.5487 -0.5128 -0.0557
  536SOL    HW3 2190   1.031   0.497   1.207 -0.0223 -0.0720  0.2081
  536SOL    MW4 2191   1.100   0.530   1.247  0.1687 -0.2286  0.0086
  537SOL     OW 2192   4.023   1.131   0.584 -0.3023 -0.1065  0.2112
  537SOL    HW2 2193   4.064   1.216   0.599 -2.0458  0.7304  0.3495
  537SOL    HW3 2194   3.951   1.149   0.523 -1.2947 -1.3002  1.0011
  537SOL    MW4 2195   4.019   1.144   0.578 -0.6628 -0.1535  0.3337
  538SOL     OW 2196   0.928   1.131   1.120  0.1946 -0.8547 -0.2528
  538SOL    HW2 2197   0.943   1.128   1.026 -1.8997 -0.2231 -0.6313
  538SOL    HW3 2198   1.002   1.181   1.154  0.7472 -0.7286 -1.6093
  538SOL    MW4 2199   0.940   1.137   1.112 -0.0088 -0.7548 -0.4817
  539SOL     OW 2200   3.353   4.530   0.243  0.1156  0.7466  0.4522
  539SOL    HW2 2201   3.271   4.485   0.222  0.9099 -1.4332  1.8624
  539SOL    HW3 2202   3.407   4.518   0.165 -0.2848  0.6716  0.1835
  539SOL    MW4 2203   3.349   4.522   0.230  0.1674  0.4487  0.6028
  540SOL     OW 2204   1.100   1.306   1.244 -0.0606 -0.7502  0.5144
  540SOL    HW2 2205   1.097   1.301   1.339  0.8066 -0.3100  0.5655
  540SOL    HW3 2206   1.182   1.263   1.220 -0.0998 -0.5393 -0.0106
  540SOL    MW4 2207   1.110   1.299   1.253  0.0486 -0.6642  0.4518
  541SOL     OW 2208   1.100   1.534   1.102  0.0647 -0.0187  0.0999
  541SOL    HW2 2209   1.099   1.449   1.145  0.3241 -0.4973 -0.8211
  541SOL    HW3 2210   1.166   1.584   1.148  1.3608 -1.0106 -0.6542
  541SOL    MW4 2211   1.108   1.529   1.114  0.2700 -0.2127 -0.1211
  542SOL     OW 2212   3.560   1.684   0.667 -0.0666 -0.5542  0.2206
  542SOL    HW2 2213   3.560   1.682   0.571 -1.3990 -0.4592  0.2208
  542SOL    HW3 2214   3.614   1.608   0.692 -0.9898 -1.4822 -0.5804
  542SOL    MW4 2215   3.567   1.673   0.657 -0.3641 -0.6641  0.1150
  543SOL     OW 2216   0.243   3.910   0.857 -0.0656 -0.5191 -0.4209
  543SOL    HW2 2217   0.315   3.850   0.836  0.6150 -0.1458  0.7772
  543SOL    HW3 2218   0.229   3.899   0.951 -0.0879  1.0131 -0.2248
  543SOL    MW4 2219   0.251   3.901   0.866  0.0213 -0.2682 -0.2370
  544SOL     OW 2220   1.127   2.095   1.535  0.1627 -0.2364 -0.0401
  544SOL    HW2 2221   1.207   2.043   1.548  0.2517 -0.1179 -0.1064
  544SOL    HW3 2222   1.151   2.182   1.567 -0.2060 -0.4111  0.7224
  544SOL    MW4 2223   1.141   2.100   1.541  0.1258 -0.2439  0.0517
  545SOL     OW 2224   0.447   0.609   0.804 -0.1355  0.3214  0.2726
  545SOL    HW2 2225   0.530   0.651   0.826  0.0029  0.1275  0.1225
  545SOL    HW3 2226   0.429   0.634   0.714  0.7086 -1.1490 -0.3344
  545SOL    MW4 2227   0.455   0.618   0.795 -0.0058  0.1019  0.1727
  546SOL     OW 2228   0.899   2.435   1.236  0.3024  0.2518  0.0175
  546SOL    HW2 2229   0.909   2.425   1.331  1.9669 -0.3677 -0.1979
  546SOL    HW3 2230   0.820   2.386   1.215  0.1225  0.0838  1.0322
  546SOL    MW4 2231   0.890   2.427   1.246  0.4984  0.1481  0.1229
  547SOL     OW 2232   3.600   3.292   0.489  0.2469  0.3117 -0.0451
  547SOL    HW2 2233   3.645   3.356   0.434  0.2438  1.3184  1.0999
  547SOL    HW3 2234   3.518   3.335   0.513  0.4234  0.0447  1.0554
  547SOL    MW4 2235   3.595   3.307   0.485  0.2697  0.4094  0.2512
  548SOL     OW 2236   0.231   0.243   0.717 -0.5411  0.0172 -0.7979
  548SOL    HW2 2237   0.243   0.286   0.632 -1.2893 -0.7368 -1.3006
  548SOL    HW3 2238   0.162   0.294   0.760 -1.2429 -0.5026 -1.2865
  548SOL    MW4 2239   0.223   0.255   0.712 -0.7324 -0.1509 -0.9288
  549SOL     OW 2240   1.136   2.858   1.197 -0.1958  0.4614 -0.0727
  549SOL    HW2 2241   1.132   2.887   1.288  0.5920 -0.3141  0.2149
  549SOL    HW3 2242   1.057   2.806   1.185 -2.2151  3.5329 -0.9139
  549SOL    MW4 2243   1.125   2.855   1.208 -0.3582  0.7644 -0.1458
  550SOL     OW 2244   0.958   3.207   1.238 -0.4870 -0.0387  0.0317
  550SOL    HW2 2245   1.029   3.189   1.177 -0.4936 -0.8136  0.2505
  550SOL    HW3 2246   0.950   3.303   1.238  1.2651  0.1245  0.8219
  550SOL    MW4 2247   0.966   3.218   1.230 -0.2567 -0.1192  0.1647
  551SOL     OW 2248   0.460   0.339   0.884 -0.2886  0.2707 -0.1153
  551SOL    HW2 2249   0.456   0.434   0.871 -2.3633  0.5890  2.5905
  551SOL    HW3 2250   0.381   0.305   0.842 -0.1032 -0.1539 -0.1277
  551SOL    MW4 2251   0.449   0.347   0.877 -0.5379  0.2567  0.2401
  552SOL     OW 2252   2.511   2.504   0.535  0.1016  0.4557 -0.0257
  552SOL    HW2 2253   2.598   2.475   0.508 -0.0404 -0.8054  0.8451
  552SOL    HW3 2254   2.451   2.450   0.484 -0.1766  0.9285 -0.2043
  552SOL    MW4 2255   2.514   2.493   0.525  0.0460  0.3519  0.0656
  553SOL     OW 2256   1.133   3.607   1.227 -0.2673 -0.6880 -0.1090
  553SOL    HW2 2257   1.157   3.694   1.194 -0.1226 -0.5832  0.2675
  553SOL    HW3 2258   1.053   3.585   1.180  0.8051 -1.2283 -1.7120
  553SOL    MW4 2259   1.126   3.616   1.217 -0.1067 -0.7455 -0.2708
  554SOL     OW 2260   0.719   3.857   1.134  0.6342  0.4083 -0.0343
  554SOL    HW2 2261   0.797   3.888   1.180  1.5891  0.7788 -1.8577
  554SOL    HW3 2262   0.646   3.903   1.175  1.3158 -0.3079  2.0246
  554SOL    MW4 2263   0.720   3.867   1.145  0.8501  0.3629 -0.0033
  555SOL     OW 2264   1.695   3.853   0.825  0.7645 -0.2424 -0.0830
  555SOL    HW2 2265   1.636   3.780   0.807 -1.4404  1.0079  1.8722
  555SOL    HW3 2266   1.704   3.898   0.741  0.7390 -1.7150 -0.9014
  555SOL    MW4 2267   1.689   3.849   0.811  0.4703 -0.2716  0.0669
  556SOL     OW 2268   0.786   3.209   0.424  0.1957 -0.5438  0.0785
  556SOL    HW2 2269   0.860   3.270   0.415  0.0181 -0.3946 -0.4086
  556SOL    HW3 2270   0.714   3.253   0.379 -0.1693 -0.7269  0.4799
  556SOL    MW4 2271   0.787   3.223   0.417  0.1241 -0.5481  0.0672
  557SOL     OW 2272   1.529   4.645   1.161 -0.3434 -0.0979  0.3283
  557SOL    HW2 2273   1.550   4.552   1.171  0.8323  0.0399 -0.7770
  557SOL    HW3 2274   1.513   4.656   1.067 -0.8871  0.7303  0.5143
  557SOL    MW4 2275   1.530   4.634   1.150 -0.2599  0.0305  0.2068
  558SOL     OW 2276   0.979   4.104   0.481 -0.3241  0.1284 -0.7511
  558SOL    HW2 2277   0.885   4.116   0.468 -0.0559  1.5209 -1.5385
  558SOL    HW3 2278   0.997   4.144   0.566 -0.0407  2.2753 -1.7635
  558SOL    MW4 2279   0.969   4.111   0.490 -0.2514  0.5956 -0.9886
  559SOL     OW 2280   1.582   0.544   1.283 -0.1225 -0.0945  0.2524
  559SOL    HW2 2281   1.640   0.479   1.244  1.0405  0.9258  0.2447
  559SOL    HW3 2282   1.494   0.514   1.260  0.3835 -1.7307  0.3659
  559SOL    MW4 2283   1.578   0.532   1.275  0.0978 -0.1757  0.2663
  560SOL     OW 2284   1.625   0.794   1.148  0.4156  0.0190 -0.2292
  560SOL    HW2 2285   1.695   0.851   1.178  0.4483 -0.6700  1.0287
  560SOL    HW3 2286   1.636   0.713   1.198 -0.8911 -0.3252 -0.4672
  560SOL    MW4 2287   1.635   0.791   1.159  0.2475 -0.1173 -0.0948
  561SOL     OW 2288   2.209   0.336   1.102 -0.3568 -0.2747 -0.2549
  561SOL    HW2 2289   2.203   0.326   1.007 -1.5908  0.0225 -0.2247
  561SOL    HW3 2290   2.131   0.387   1.126  0.2706  0.1920  0.8414
  561SOL    MW4 2291   2.198   0.341   1.093 -0.4368 -0.1738 -0.1063
  562SOL     OW 2292   1.147   0.764   1.090  0.5115 -0.0739  0.0424
  562SOL    HW2 2293   1.120   0.683   1.134  0.4583  0.1950  0.5028
  562SOL    HW3 2294   1.142   0.743   0.997 -0.9224 -0.1574  0.1241
  562SOL    MW4 2295   1.143   0.751   1.084  0.3153 -0.0495  0.1140
  563SOL     OW 2296   4.176   2.482   0.454  0.6889  0.4216  0.8252
  563SOL    HW2 2297   4.209   2.496   0.543 -0.1881  1.8695  0.9263
  563SOL    HW3 2298   4.254   2.465   0.402  1.0984 -2.0333  2.1461
  563SOL    MW4 2299   4.190   2.481   0.459  0.6266  0.2890  1.0128
  564SOL     OW 2300   1.583   1.292   1.233  0.1370  0.6698 -0.1893
  564SOL    HW2 2301   1.514   1.228   1.217  2.3145 -1.9800  0.5642
  564SOL    HW3 2302   1.552   1.373   1.192 -2.8782 -0.7449 -0.7913
  564SOL    MW4 2303   1.570   1.295   1.226  0.0265  0.1335 -0.1694
  565SOL     OW 2304   2.732   0.177   0.316 -0.2737 -0.3156 -0.3197
  565SOL    HW2 2305   2.785   0.173   0.237  0.3793  0.8148  0.0449
  565SOL    HW3 2306   2.795   0.166   0.388 -0.6702 -0.0328  0.0799
  565SOL    MW4 2307   2.747   0.175   0.315 -0.2396 -0.1291 -0.2189
  566SOL     OW 2308   4.372   1.275   0.504  0.3626 -0.0563  0.2486
  566SOL    HW2 2309   4.455   1.318   0.524  0.4466 -0.7651  1.5188
  566SOL    HW3 2310   4.395   1.210   0.438  0.9851 -0.7480  1.1189
  566SOL    MW4 2311   4.386   1.272   0.498  0.4559 -0.2410  0.5311
  567SOL     OW 2312   1.305   1.669   1.243  0.2888 -1.1936  0.4794
  567SOL    HW2 2313   1.386   1.630   1.211  0.3662 -0.7559  0.1344
  567SOL    HW3 2314   1.309   1.760   1.213 -0.5571 -1.3006  0.0230
  567SOL    MW4 2315   1.316   1.676   1.235  0.1875 -1.1500  0.3736
  568SOL     OW 2316   1.546   2.054   1.202 -0.0152 -0.0539 -0.0561
  568SOL    HW2 2317   1.545   2.148   1.186 -1.2649  0.1021  0.8276
  568SOL    HW3 2318   1.461   2.023   1.170 -0.0894 -0.6814  0.7312
  568SOL    MW4 2319   1.535   2.062   1.196 -0.1898 -0.1161  0.1644
  569SOL     OW 2320   1.590   2.336   1.114  0.0270  0.2463  0.2637
  569SOL    HW2 2321   1.519   2.381   1.159 -0.2504 -0.5234  0.5997
  569SOL    HW3 2322   1.556   2.318   1.026 -0.2182 -0.1683  0.4408
  569SOL    MW4 2323   1.576   2.340   1.108 -0.0420  0.0901  0.3314
  570SOL     OW 2324   2.681   1.097   0.870  0.3553 -0.1669 -0.1804
  570SOL    HW2 2325   2.745   1.026   0.861  0.0085 -0.5276  0.2153
  570SOL    HW3 2326   2.727   1.174   0.838  0.8368 -0.5120 -0.3288
  570SOL    MW4 2327   2.696   1.097   0.864  0.3726 -0.2601 -0.1478
  571SOL     OW 2328   1.982   3.049   1.122 -0.2508 -0.2553  0.4269
  571SOL    HW2 2329   1.919   3.092   1.180  0.8198  1.4088  0.3842
  571SOL    HW3 2330   1.936   3.042   1.038 -0.8440 -0.2129  0.7444
  571SOL    MW4 2331   1.968   3.054   1.119 -0.1879 -0.0303  0.4632
  572SOL     OW 2332   1.577   2.786   1.247  0.2908 -0.4173  0.4799
  572SOL    HW2 2333   1.592   2.874   1.212 -0.6277 -0.0013  1.1237
  572SOL    HW3 2334   1.506   2.750   1.194  0.5082 -0.6847  0.3688
  572SOL    MW4 2335   1.570   2.793   1.235  0.1984 -0.3974  0.5503
  573SOL     OW 2336   4.013   3.217   1.215 -0.6001  0.2790 -0.1409
  573SOL    HW2 2337   4.003   3.225   1.310 -1.7609 -1.0771 -0.1473
  573SOL    HW3 2338   4.021   3.308   1.184 -0.2517  0.7296  1.2343
  573SOL    MW4 2339   4.013   3.230   1.223 -0.7071  0.1597  0.0397
  574SOL     OW 2340   0.114   1.372   0.601  0.5790 -0.5663  0.4015
  574SOL    HW2 2341   0.115   1.465   0.577  1.5859 -0.7508 -0.2959
  574SOL    HW3 2342   0.059   1.369   0.679 -2.1605  0.1473 -1.4113
  574SOL    MW4 2343   0.107   1.384   0.608  0.3504 -0.4965  0.0703
  575SOL     OW 2344   1.830   4.445   0.703 -0.4854 -0.0893  0.0930
  575SOL    HW2 2345   1.740   4.473   0.682 -0.3678  0.2883  0.0925
  575SOL    HW3 2346   1.819   4.364   0.753 -0.7773 -1.0558 -1.4881
  575SOL    MW4 2347   1.816   4.438   0.707 -0.5083 -0.1674 -0.1156
  576SOL     OW 2348   1.406   4.022   1.254  0.1835  0.3161 -0.5513
  576SOL    HW2 2349   1.471   3.988   1.192  0.4573  0.5986 -0.4207
  576SOL    HW3 2350   1.387   4.110   1.223  0.2047  0.4004 -0.3262
  576SOL    MW4 2351   1.412   4.029   1.242  0.2224  0.3643 -0.5044
  577SOL     OW 2352   1.683   3.409   0.533 -0.0904  0.0241 -0.0516
  577SOL    HW2 2353   1.776   3.430   0.529 -0.3644  1.4726  0.6135
  577SOL    HW3 2354   1.675   3.347   0.605  0.1404  1.3404  1.1396
  577SOL    MW4 2355   1.694   3.404   0.542 -0.0961  0.3889  0.1933
  578SOL     OW 2356   1.828   4.272   1.132  0.0088 -0.3399 -0.0758
  578SOL    HW2 2357   1.743   4.283   1.175  0.1154 -1.9515  0.6147
  578SOL    HW3 2358   1.807   4.255   1.040 -0.3528  0.4091 -0.1343
  578SOL    MW4 2359   1.814   4.271   1.125 -0.0248 -0.4535  0.0075
  579SOL     OW 2360   3.170   2.693   1.089  0.1302 -0.2047  0.2398
  579SOL    HW2 2361   3.092   2.746   1.104 -0.8557 -1.6028  0.1373
  579SOL    HW3 2362   3.232   2.721   1.156  0.0626  1.8949 -0.5385
  579SOL    MW4 2363   3.168   2.704   1.100 -0.0088 -0.1123  0.1236
  580SOL     OW 2364   1.867   3.990   1.209 -0.2101 -0.1047 -0.3859
  580SOL    HW2 2365   1.867   4.083   1.189 -1.7035 -0.1269 -0.5578
  580SOL    HW3 2366   1.846   3.985   1.302 -2.4531 -0.3345 -0.8728
  580SOL    MW4 2367   1.864   4.001   1.219 -0.7031 -0.1378 -0.4729
  581SOL     OW 2368   2.647   1.905   0.921  0.2559 -0.5567 -0.0039
  581SOL    HW2 2369   2.589   1.859   0.861  0.4406 -0.4639 -0.2565
  581SOL    HW3 2370   2.693   1.968   0.866  0.2188 -0.2754  0.2877
  581SOL    MW4 2371   2.646   1.907   0.906  0.2754 -0.5074  0.0014
  582SOL     OW 2372   3.147   2.702   0.798  0.0415  0.0352  0.7995
  582SOL    HW2 2373   3.214   2.666   0.739 -0.9538 -0.5251 -0.0165
  582SOL    HW3 2374   3.176   2.676   0.885  0.9001 -0.1915  0.4599
  582SOL    MW4 2375   3.160   2.694   0.802  0.0231 -0.0687  0.6471
  583SOL     OW 2376   3.794   2.694   0.522 -0.0787  0.5842 -0.3181
  583SOL    HW2 2377   3.760   2.609   0.496  0.9404  0.5542 -1.5816
  583SOL    HW3 2378   3.868   2.710   0.464  0.6431  1.6865  0.8710
  583SOL    MW4 2379   3.799   2.685   0.511  0.1512  0.7257 -0.3279
  584SOL     OW 2380   4.046   0.659   0.809  0.0022  0.3055  0.2247
  584SOL    HW2 2381   4.134   0.670   0.846  0.3801  2.1989 -1.1757
  584SOL    HW3 2382   3.995   0.731   0.846 -1.1080 -1.0438  1.3820
  584SOL    MW4 2383   4.051   0.670   0.819 -0.0949  0.3774  0.1926
  585SOL     OW 2384   1.116   1.614   0.843  0.0597 -0.2835 -0.6988
  585SOL    HW2 2385   1.111   1.573   0.929  0.7166  0.1313 -0.4572
  585SOL    HW3 2386   1.159   1.698   0.859 -0.4975  0.1306 -1.3131
  585SOL    MW4 2387   1.121   1.620   0.856  0.0730 -0.1742 -0.7480
  586SOL     OW 2388   1.998   0.490   1.212  0.2386  0.4392 -0.0301
  586SOL    HW2 2389   2.016   0.485   1.305  0.6650 -0.0724 -0.1359
  586SOL    HW3 2390   1.910   0.455   1.202 -0.0878  1.1662  0.2633
  586SOL    MW4 2391   1.989   0.485   1.223  0.2519  0.4676 -0.0055
  587SOL     OW 2392   1.870   0.924   1.233  0.3832 -0.0521  0.0952
  587SOL    HW2 2393   1.876   0.926   1.328 -0.1287  0.0412  0.1302
  587SOL    HW3 2394   1.944   0.870   1.205  0.4699 -0.1735  0.5496
  587SOL    MW4 2395   1.880   0.917   1.242  0.3271 -0.0558  0.1597
  588SOL     OW 2396   1.982   1.297   1.192  0.4779  0.0014 -0.0856
  588SOL    HW2 2397   1.906   1.262   1.145  0.8654  0.3139 -0.9664
  588SOL    HW3 2398   2.051   1.233   1.177  0.1231 -0.7950  1.5680
  588SOL    MW4 2399   1.981   1.284   1.184  0.4823 -0.0625  0.0162
  589SOL     OW 2400   2.027   1.567   1.152  0.5156  0.5705  0.2256
  589SOL    HW2 2401   2.110   1.591   1.192  0.6683 -1.0600  0.9177
  589SOL    HW3 2402   2.024   1.471   1.159 -1.6012  0.6477  0.5833
  589SOL    MW4 2403   2.038   1.557   1.158  0.2563  0.3655  0.3642
  590SOL     OW 2404   1.774   1.922   1.091  0.2313 -0.1049  0.1094
  590SOL    HW2 2405   1.846   1.966   1.137  0.0547  0.9818 -0.6330
  590SOL    HW3 2406   1.695   1.964   1.126  0.1504  1.7003 -2.1566
  590SOL    MW4 2407   1.773   1.933   1.102  0.1973  0.2767 -0.2875
  591SOL     OW 2408   3.583   4.585   0.581  0.2349 -0.1083 -0.2739
  591SOL    HW2 2409   3.678   4.580   0.574  0.2510  0.9876 -0.8630
  591SOL    HW3 2410   3.567   4.599   0.675  0.6485 -0.3722 -0.1637
  591SOL    MW4 2411   3.594   4.586   0.593  0.2918  0.0019 -0.3371
  592SOL     OW 2412   2.253   1.918   1.141 -0.7635  0.6568 -0.2635
  592SOL    HW2 2413   2.313   1.971   1.193 -0.6106  0.1381  0.0918
  592SOL    HW3 2414   2.167   1.958   1.157 -0.8883 -0.2195  1.3356
  592SOL    MW4 2415   2.249   1.931   1.150 -0.7596  0.4729 -0.0057
  593SOL     OW 2416   1.995   2.032   1.220 -0.2590  0.3781 -0.2962
  593SOL    HW2 2417   1.985   2.026   1.315 -0.2577  0.3478 -0.2982
  593SOL    HW3 2418   1.985   2.126   1.202 -2.0454  0.1683 -0.4610
  593SOL    MW4 2419   1.992   2.044   1.230 -0.4946  0.3467 -0.3181
  594SOL     OW 2420   2.007   2.294   1.111 -0.2193  0.2729  0.0652
  594SOL    HW2 2421   1.938   2.345   1.154  0.4418  0.2592  1.1699
  594SOL    HW3 2422   2.086   2.347   1.120 -0.1959  0.5909 -1.7786
  594SOL    MW4 2423   2.008   2.308   1.118 -0.1290  0.3128 -0.0324
  595SOL     OW 2424   1.825   2.663   1.141 -0.0651  0.1497  0.5125
  595SOL    HW2 2425   1.741   2.696   1.173 -0.6254 -0.9050  0.1682
  595SOL    HW3 2426   1.889   2.726   1.173 -0.9844  0.9526  0.8062
  595SOL    MW4 2427   1.822   2.676   1.150 -0.2604  0.1166  0.5058
  596SOL     OW 2428   2.254   2.662   1.652 -0.3546  0.5614 -0.3361
  596SOL    HW2 2429   2.196   2.724   1.610 -1.3042 -0.4670 -0.5777
  596SOL    HW3 2430   2.250   2.584   1.597  3.5671  1.4280 -2.0380
  596SOL    MW4 2431   2.246   2.660   1.639  0.0379  0.5400 -0.5925
  597SOL     OW 2432   1.585   3.020   1.127  0.0914  0.0477  0.0930
  597SOL    HW2 2433   1.579   3.024   1.032  0.6743  0.2418  0.0622
  597SOL    HW3 2434   1.658   3.078   1.149 -0.8330  0.9770  0.7449
  597SOL    MW4 2435   1.594   3.028   1.118  0.0464  0.1960  0.1750
  598SOL     OW 2436   0.488   2.482   1.215  0.1630  0.1306  0.0790
  598SOL    HW2 2437   0.470   2.503   1.306  0.1721  1.9876 -0.3287
  598SOL    HW3 2438   0.477   2.564   1.168  1.5184 -0.4883 -1.4029
  598SOL    MW4 2439   0.484   2.495   1.221  0.3431  0.2940 -0.1704
  599SOL     OW 2440   3.355   3.342   0.812  0.4789 -0.2997 -0.2798
  599SOL    HW2 2441   3.330   3.340   0.719  0.2171  1.0412 -0.2465
  599SOL    HW3 2442   3.434   3.396   0.814  0.0101  0.3705  0.3794
  599SOL    MW4 2443   3.362   3.349   0.800  0.3824 -0.0343 -0.1885
  600SOL     OW 2444   1.993   3.572   1.222 -0.3354  0.3128  0.1062
  600SOL    HW2 2445   2.082   3.542   1.205  0.1873  1.8586  0.0277
  600SOL    HW3 2446   1.989   3.582   1.317 -0.6476 -0.3784  0.1739
  600SOL    MW4 2447   2.004   3.569   1.233 -0.3076  0.4256  0.1049
  601SOL     OW 2448   2.062   3.814   1.124 -0.4157 -0.0672 -0.2774
  601SOL    HW2 2449   2.040   3.726   1.153 -1.3900 -0.0624 -0.9725
  601SOL    HW3 2450   1.997   3.871   1.165 -0.1157  0.2686 -0.2568
  601SOL    MW4 2451   2.051   3.810   1.133 -0.5045 -0.0222 -0.3664
  602SOL     OW 2452   1.543   3.618   1.233 -0.1702  0.6270  0.1202
  602SOL    HW2 2453   1.475   3.583   1.176 -0.6652  0.6535  0.6983
  602SOL    HW3 2454   1.566   3.702   1.193 -0.0114  0.3239 -0.4407
  602SOL    MW4 2455   1.537   3.624   1.220 -0.2147  0.5903  0.1225
  603SOL     OW 2456   2.350   4.237   0.442  0.2933  0.0537  0.1494
  603SOL    HW2 2457   2.410   4.263   0.372 -0.5931 -0.3081 -0.7626
  603SOL    HW3 2458   2.375   4.147   0.462  1.6157  0.6954  1.4471
  603SOL    MW4 2459   2.361   4.229   0.435  0.3510  0.0906  0.2003
  604SOL     OW 2460   2.065   4.365   1.259 -0.4597  0.2703  0.3293
  604SOL    HW2 2461   1.982   4.335   1.221 -0.0352 -1.7696  0.9567
  604SOL    HW3 2462   2.055   4.349   1.353  0.7187 -0.2055  0.3791
  604SOL    MW4 2463   2.053   4.359   1.266 -0.2482 -0.0615  0.4187
  605SOL     OW 2464   2.464   4.641   1.163  0.1250  0.0796  0.0182
  605SOL    HW2 2465   2.392   4.693   1.198 -0.4934 -0.2037 -0.8161
  605SOL    HW3 2466   2.543   4.689   1.188 -0.4003  0.9708 -0.0190
  605SOL    MW4 2467   2.465   4.654   1.171 -0.0255  0.1597 -0.0970
  606SOL     OW 2468   0.412   3.771   0.489 -0.1374 -0.2455  0.5254
  606SOL    HW2 2469   0.326   3.734   0.468 -0.9310  1.5576  0.4500
  606SOL    HW3 2470   0.406   3.862   0.460  1.4119  0.2091  1.5829
  606SOL    MW4 2471   0.400   3.778   0.482 -0.0377  0.0525  0.6550
  607SOL     OW 2472   3.222   1.480   0.935  0.1773 -0.6232  0.0899
  607SOL    HW2 2473   3.127   1.484   0.935  0.1318 -1.6360 -0.3634
  607SOL    HW3 2474   3.243   1.395   0.897  1.2607 -0.4709  0.3221
  607SOL    MW4 2475   3.213   1.469   0.930  0.3145 -0.7367  0.0607
  608SOL     OW 2476   1.326   1.164   1.163 -0.0984  0.7675 -0.3969
  608SOL    HW2 2477   1.310   1.072   1.186  2.3030  0.3195 -0.3696
  608SOL    HW3 2478   1.304   1.170   1.070 -0.3447  0.1987 -0.3762
  608SOL    MW4 2479   1.321   1.153   1.154  0.1860  0.6335 -0.3905
  609SOL     OW 2480   2.243   0.863   1.231  0.2500 -0.3288  0.3764
  609SOL    HW2 2481   2.328   0.827   1.205  0.8683  0.7630  0.8090
  609SOL    HW3 2482   2.178   0.804   1.193  1.2031 -0.9628 -0.2763
  609SOL    MW4 2483   2.246   0.851   1.222  0.4573 -0.2683  0.3473
  610SOL     OW 2484   0.658   4.145   0.789  0.0377 -0.5273  0.3082
  610SOL    HW2 2485   0.655   4.054   0.819 -0.3621 -0.3998  0.6542
  610SOL    HW3 2486   0.572   4.181   0.810  0.5298  0.2287  1.1021
  610SOL    MW4 2487   0.646   4.138   0.795  0.0498 -0.4106  0.4586
  611SOL     OW 2488   2.200   1.137   1.143 -0.1889 -0.6066 -0.8069
  611SOL    HW2 2489   2.223   1.057   1.189 -2.3221 -0.7003  0.1408
  611SOL    HW3 2490   2.217   1.117   1.050  1.0151 -1.5092 -0.4043
  611SOL    MW4 2491   2.205   1.124   1.137 -0.3111 -0.7380 -0.6288
  612SOL     OW 2492   2.888   1.268   1.217  0.1479 -0.5377  0.3042
  612SOL    HW2 2493   2.961   1.223   1.174 -1.1657 -2.0901 -0.3446
  612SOL    HW3 2494   2.902   1.253   1.310  1.6726  0.7781  0.3159
  612SOL    MW4 2495   2.899   1.260   1.223  0.1757 -0.5689  0.2202
  613SOL     OW 2496   3.168   0.072   0.507  0.4516 -0.0222 -0.1038
  613SOL    HW2 2497   3.263   0.058   0.502  0.3935 -0.3108 -0.4298
  613SOL    HW3 2498   3.150   0.079   0.600  1.0881  2.1080 -0.1144
  613SOL    MW4 2499   3.178   0.071   0.518  0.5279  0.2208 -0.1482
  614SOL     OW 2500   2.300   1.649   1.208 -0.2794 -0.0062  0.3765
  614SOL    HW2 2501   2.376   1.615   1.161 -0.2694 -0.5424  0.7798
  614SOL    HW3 2502   2.303   1.744   1.192 -0.1783 -0.1638 -0.5423
  614SOL    MW4 2503   2.310   1.657   1.200 -0.2646 -0.0976  0.3086
  615SOL     OW 2504   2.424   2.074   1.310 -0.3324 -0.0561 -0.4313
  615SOL    HW2 2505   2.423   2.167   1.288 -0.3298  0.5870  2.1846
  615SOL    HW3 2506   2.509   2.044   1.277 -0.1126  0.9691 -0.8428
  615SOL    MW4 2507   2.435   2.082   1.302 -0.3028  0.1638 -0.1405
  616SOL     OW 2508   1.728   1.592   0.486  0.4186  0.4786 -0.0449
  616SOL    HW2 2509   1.799   1.656   0.481  1.4005 -0.4261  1.7223
  616SOL    HW3 2510   1.771   1.507   0.479 -0.5976 -0.0523  0.0001
  616SOL    MW4 2511   1.743   1.589   0.485  0.4141  0.2891  0.1942
  617SOL     OW 2512   1.074   3.373   0.700  0.0397  0.1694  0.5479
  617SOL    HW2 2513   1.078   3.282   0.731  0.2386  0.4080  1.2411
  617SOL    HW3 2514   1.157   3.411   0.728  0.2424  0.3831 -0.3374
  617SOL    MW4 2515   1.085   3.366   0.708  0.0927  0.2289  0.5226
  618SOL     OW 2516   2.243   2.434   1.185  0.7956  1.1813 -0.1719
  618SOL    HW2 2517   2.220   2.446   1.277  0.4495 -0.1766 -0.0853
  618SOL    HW3 2518   2.329   2.392   1.187  0.3973  0.3524 -0.4672
  618SOL    MW4 2519   2.252   2.430   1.198  0.6971  0.8929 -0.1996
  619SOL     OW 2520   2.726   2.703   1.138 -0.1012 -0.1141  0.0723
  619SOL    HW2 2521   2.740   2.621   1.186 -0.2884  0.2215  0.7021
  619SOL    HW3 2522   2.809   2.749   1.147 -0.0264 -0.1947 -0.2057
  619SOL    MW4 2523   2.739   2.698   1.146 -0.1161 -0.0808  0.1189
  620SOL     OW 2524   2.430   3.082   1.652 -0.1966 -0.4198 -0.5183
  620SOL    HW2 2525   2.501   3.115   1.595 -0.3996  0.8863 -0.0238
  620SOL    HW3 2526   2.354   3.135   1.628  0.0149  1.0202  1.8323
  620SOL    MW4 2527   2.430   3.094   1.641 -0.1955 -0.0572 -0.1431
  621SOL     OW 2528   1.463   1.515   0.459  0.5852  0.2358  0.4130
  621SOL    HW2 2529   1.550   1.555   0.462 -0.2430  2.0439  0.7899
  621SOL    HW3 2530   1.403   1.588   0.452 -0.8771 -1.0543 -0.8833
  621SOL    MW4 2531   1.467   1.530   0.459  0.2829  0.3041  0.2916
  622SOL     OW 2532   2.211   3.418   1.121  0.7742 -0.3545 -0.3699
  622SOL    HW2 2533   2.206   3.349   1.187  1.6648  0.1935  0.2810
  622SOL    HW3 2534   2.283   3.474   1.150  1.2964 -0.2059 -1.9049
  622SOL    MW4 2535   2.220   3.416   1.134  0.9606 -0.2625 -0.4866
  623SOL     OW 2536   2.428   3.592   1.195 -0.0134  0.0497 -0.1373
  623SOL    HW2 2537   2.463   3.589   1.285  1.6436 -0.0165 -0.7698
  623SOL    HW3 2538   2.449   3.679   1.164  0.9016 -0.4756 -1.0308
  623SOL    MW4 2539   2.436   3.603   1.203  0.3257 -0.0284 -0.3386
  624SOL     OW 2540   2.504   3.102   0.840  0.1369 -0.5209  0.1657
  624SOL    HW2 2541   2.499   3.101   0.936 -1.1217 -1.4359  0.0883
  624SOL    HW3 2542   2.567   3.034   0.819  0.7304 -0.0420  0.3462
  624SOL    MW4 2543   2.512   3.093   0.850  0.0494 -0.5786  0.1793
  625SOL     OW 2544   2.537   3.837   1.099  0.3996 -0.1906 -0.5855
  625SOL    HW2 2545   2.454   3.869   1.135 -0.8077 -0.7426 -2.7964
  625SOL    HW3 2546   2.604   3.891   1.141 -1.0264  0.0284  1.4936
  625SOL    MW4 2547   2.535   3.848   1.110  0.0522 -0.2348 -0.6028
  626SOL     OW 2548   2.297   3.954   1.234  0.0993 -0.0767  0.3295
  626SOL    HW2 2549   2.292   4.041   1.195 -0.8168 -0.1217  0.3247
  626SOL    HW3 2550   2.213   3.913   1.213  0.8053 -1.2475 -0.3277
  626SOL    MW4 2551   2.285   3.960   1.226  0.0718 -0.2372  0.2422
  627SOL     OW 2552   2.500   4.369   1.204 -0.1917  0.2917  0.0170
  627SOL    HW2 2553   2.418   4.328   1.178  0.1233 -0.7412  0.6111
  627SOL    HW3 2554   2.489   4.462   1.182 -0.9782 -0.0815 -1.1841
  627SOL    MW4 2555   2.488   4.376   1.198 -0.2539  0.1054 -0.0629
  628SOL     OW 2556   2.487   4.370   1.485  0.0953  0.1969 -0.0304
  628SOL    HW2 2557   2.484   4.386   1.391  0.4046 -0.7546 -0.2079
  628SOL    HW3 2558   2.494   4.457   1.524 -1.4046  0.6871 -0.8147
  628SOL    MW4 2559   2.488   4.384   1.478 -0.0618  0.1359 -0.1571
  629SOL     OW 2560   4.396   1.941   0.845 -0.5609  0.0269  0.0068
  629SOL    HW2 2561   4.302   1.950   0.859 -0.4904  0.9018 -0.0901
  629SOL    HW3 2562   4.432   1.929   0.932 -1.1637 -4.2136 -0.2078
  629SOL    MW4 2563   4.388   1.940   0.858 -0.6309 -0.4171 -0.0343
  630SOL     OW 2564   1.565   2.547   0.709 -0.2802 -0.0116  0.4811
  630SOL    HW2 2565   1.637   2.550   0.773  0.2442  0.1190 -0.1169
  630SOL    HW3 2566   1.608   2.537   0.625 -1.0022 -0.7043  0.1910
  630SOL    MW4 2567   1.580   2.546   0.707 -0.3062 -0.0858  0.3639
  631SOL     OW 2568   2.922   0.004   1.151  0.0226 -0.1136  0.1203
  631SOL    HW2 2569   2.932  -0.021   1.059  0.8521  1.2791 -0.1888
  631SOL    HW3 2570   3.006   0.044   1.174  0.1427 -1.2698  1.7559
  631SOL    MW4 2571   2.935   0.006   1.142  0.1478 -0.0830  0.2953
  632SOL     OW 2572   1.765   0.094   1.247 -0.0323  0.6791  0.0698
  632SOL    HW2 2573   1.834   0.044   1.204  0.3621 -1.2134  2.7920
  632SOL    HW3 2574   1.683   0.053   1.218  0.1332  0.6670 -0.3812
  632SOL    MW4 2575   1.763   0.082   1.238  0.0416  0.4278  0.3693
  633SOL     OW 2576   2.694   0.867   1.264  0.4713  0.1964  0.4737
  633SOL    HW2 2577   2.679   0.957   1.237  0.2466  0.1034  0.2844
  633SOL    HW3 2578   2.614   0.821   1.240  0.2776  0.1069  1.2796
  633SOL    MW4 2579   2.682   0.873   1.257  0.4158  0.1724  0.5550
  634SOL     OW 2580   1.264   1.745   0.424  0.2293 -0.4560 -0.1730
  634SOL    HW2 2581   1.190   1.803   0.406 -0.3463 -0.9820  0.5243
  634SOL    HW3 2582   1.324   1.798   0.477  0.2633 -0.0985 -0.5674
  634SOL    MW4 2583   1.262   1.760   0.428  0.1578 -0.4783 -0.1331
  635SOL     OW 2584   2.908   1.724   0.522  0.0842  0.2180  0.3385
  635SOL    HW2 2585   2.993   1.682   0.511 -0.0967 -0.1664  0.4080
  635SOL    HW3 2586   2.900   1.736   0.617  0.1097  0.3664  0.3235
  635SOL    MW4 2587   2.918   1.720   0.533  0.0637  0.1868  0.3456
  636SOL     OW 2588   2.672   1.676   1.267  0.4367 -0.2680 -0.2473
  636SOL    HW2 2589   2.627   1.621   1.203  1.0383 -1.2266  0.1505
  636SOL    HW3 2590   2.765   1.655   1.256  0.7892  1.5011 -0.8816
  636SOL    MW4 2591   2.678   1.666   1.257  0.5624 -0.1611 -0.2786
  637SOL     OW 2592   3.960   1.506   0.887 -0.3793  0.0521  0.0094
  637SOL    HW2 2593   3.931   1.509   0.978 -2.4134  1.2440 -0.6496
  637SOL    HW3 2594   3.950   1.596   0.856 -0.5858 -0.5309 -1.6646
  637SOL    MW4 2595   3.955   1.518   0.895 -0.6747  0.1324 -0.2983
  638SOL     OW 2596   2.493   1.505   1.073  0.4963  0.1105  0.7573
  638SOL    HW2 2597   2.472   1.424   1.120  1.7611  0.2695  1.6051
  638SOL    HW3 2598   2.510   1.477   0.984  1.3631 -0.6152  1.1464
  638SOL    MW4 2599   2.492   1.490   1.068  0.7772  0.0358  0.9204
  639SOL     OW 2600   2.646   1.971   1.200 -0.3043 -0.0245  0.2487
  639SOL    HW2 2601   2.657   1.878   1.221 -0.9967 -0.0165  0.6528
  639SOL    HW3 2602   2.634   1.972   1.105  0.2251 -0.2981  0.1738
  639SOL    MW4 2603   2.646   1.959   1.190 -0.3259 -0.0596  0.2919
  640SOL     OW 2604   2.917   2.037   1.269 -0.1521  0.9996 -0.2451
  640SOL    HW2 2605   2.828   2.019   1.240 -0.1866  0.9901 -0.1335
  640SOL    HW3 2606   2.911   2.040   1.364 -0.3661  2.6659 -0.2798
  640SOL    MW4 2607   2.905   2.035   1.277 -0.1848  1.2181 -0.2351
  641SOL     OW 2608   3.587   1.058   0.531 -0.2035  0.2198  0.0971
  641SOL    HW2 2609   3.593   0.984   0.591 -1.6639  1.5455  1.9122
  641SOL    HW3 2610   3.678   1.073   0.502  0.4370 -0.7206  1.6091
  641SOL    MW4 2611   3.600   1.050   0.535 -0.3119  0.2706  0.5361
  642SOL     OW 2612   2.481   2.318   1.169  0.4688  0.2524  0.4101
  642SOL    HW2 2613   2.565   2.358   1.192  0.4244  0.6803 -0.1589
  642SOL    HW3 2614   2.491   2.289   1.079  0.6172 -1.3685  0.9338
  642SOL    MW4 2615   2.493   2.320   1.160  0.4826  0.0951  0.4040
  643SOL     OW 2616   2.479   2.830   1.227 -0.4570 -0.1345 -0.3150
  643SOL    HW2 2617   2.565   2.792   1.209 -0.5531  0.0408 -1.1963
  643SOL    HW3 2618   2.466   2.818   1.321 -0.4189 -2.1483 -0.5487
  643SOL    MW4 2619   2.489   2.823   1.237 -0.4644 -0.3772 -0.4621
  644SOL     OW 2620   2.958   2.859   1.211 -0.3207  0.7583  0.0543
  644SOL    HW2 2621   2.943   2.852   1.306 -0.0570  0.3982  0.0694
  644SOL    HW3 2622   2.966   2.953   1.195  1.4733  0.7380  0.6754
  644SOL    MW4 2623   2.957   2.870   1.222 -0.0491  0.7079  0.1380
  645SOL     OW 2624   2.666   3.224   1.239  0.0013  0.4243  0.6082
  645SOL    HW2 2625   2.744   3.175   1.214 -0.6022 -0.2887  0.0930
  645SOL    HW3 2626   2.684   3.314   1.213  0.0600 -0.0023 -0.8675
  645SOL    MW4 2627   2.679   3.229   1.232 -0.0706  0.2737  0.3455
  646SOL     OW 2628   2.688   4.238   0.862 -0.2575  0.2922 -0.4556
  646SOL    HW2 2629   2.760   4.196   0.815  0.3077  0.1893  0.4928
  646SOL    HW3 2630   2.611   4.186   0.839  0.3390 -0.9097  0.2217
  646SOL    MW4 2631   2.687   4.225   0.853 -0.1042  0.1197 -0.2410
  647SOL     OW 2632   3.579   1.593   0.388  0.6861  0.2314 -0.0542
  647SOL    HW2 2633   3.562   1.686   0.375  0.5031  0.3996  1.2978
  647SOL    HW3 2634   3.495   1.550   0.368  0.7277  0.3632 -0.5233
  647SOL    MW4 2635   3.566   1.599   0.383  0.6673  0.2710  0.0623
  648SOL     OW 2636   2.938   3.610   1.230 -0.3045 -0.0978 -0.1885
  648SOL    HW2 2637   2.862   3.559   1.201 -1.8780  1.8647  0.3375
  648SOL    HW3 2638   2.920   3.628   1.323  0.6302  0.6693 -0.1481
  648SOL    MW4 2639   2.926   3.606   1.239 -0.3889  0.2623 -0.1137
  649SOL     OW 2640   4.000   3.759   0.701 -0.1749 -0.1938  0.1325
  649SOL    HW2 2641   3.926   3.801   0.745 -0.1123 -0.0203  0.0740
  649SOL    HW3 2642   3.969   3.671   0.679  0.1648 -0.6599  1.4804
  649SOL    MW4 2643   3.986   3.753   0.704 -0.1216 -0.2325  0.3026
  650SOL     OW 2644   2.725   4.014   1.199  0.0840  0.1415 -0.1508
  650SOL    HW2 2645   2.807   3.979   1.165 -0.7088 -0.9816 -0.9415
  650SOL    HW3 2646   2.719   4.102   1.160  0.3254 -0.2332 -1.0435
  650SOL    MW4 2647   2.735   4.021   1.189  0.0112 -0.0563 -0.3729
  651SOL     OW 2648   2.746   4.281   1.126  0.3466 -0.4249 -0.3324
  651SOL    HW2 2649   2.738   4.280   1.030 -2.1963 -2.0293 -0.1693
  651SOL    HW3 2650   2.658   4.306   1.156  1.0912 -0.0817  1.5983
  651SOL    MW4 2651   2.733   4.284   1.117  0.1094 -0.5913 -0.0561
  652SOL     OW 2652   3.833   4.640   1.159  0.1048 -0.6436  0.2535
  652SOL    HW2 2653   3.911   4.691   1.180  0.8454 -0.2386 -3.1831
  652SOL    HW3 2654   3.840   4.562   1.214  2.0423  0.1773  1.2351
  652SOL    MW4 2655   3.844   4.637   1.169  0.4580 -0.4818 -0.0705
  653SOL     OW 2656   3.594   0.103   1.533 -0.4133  0.0821 -0.3817
  653SOL    HW2 2657   3.678   0.064   1.559 -0.8040 -1.5080 -1.4337
  653SOL    HW3 2658   3.605   0.122   1.440 -0.4915  1.8257 -0.0427
  653SOL    MW4 2659   3.607   0.100   1.524 -0.4749  0.1024 -0.4758
  654SOL     OW 2660   3.373   4.409   1.242  0.2843  0.0581  0.1080
  654SOL    HW2 2661   3.294   4.369   1.205  1.8497 -1.9504 -1.1862
  654SOL    HW3 2662   3.376   4.496   1.202 -0.6692 -0.2737 -0.7247
  654SOL    MW4 2663   3.363   4.415   1.232  0.3650 -0.2503 -0.1727
  655SOL     OW 2664   3.363   0.011   1.147  0.1511  0.2636 -0.1245
  655SOL    HW2 2665   3.372   0.036   1.055  1.0980 -0.7314 -0.3200
  655SOL    HW3 2666   3.287   0.060   1.178 -1.4021 -0.9089 -1.9761
  655SOL    MW4 2667   3.354   0.021   1.139  0.0710 -0.0224 -0.3947
  656SOL     OW 2668   4.101   0.727   0.557  0.2193 -0.0263  0.0888
  656SOL    HW2 2669   4.140   0.814   0.567 -0.4140  0.1221  1.3824
  656SOL    HW3 2670   4.086   0.697   0.646 -0.8509 -0.8774 -0.3649
  656SOL    MW4 2671   4.104   0.735   0.570 -0.0052 -0.1190  0.1997
  657SOL     OW 2672   3.141   0.893   1.235  0.6438 -0.3084  1.1227
  657SOL    HW2 2673   3.133   0.980   1.196 -0.0016 -0.5426  0.7196
  657SOL    HW3 2674   3.146   0.910   1.329  1.8385  0.2362  0.9699
  657SOL    MW4 2675   3.140   0.907   1.242  0.7162 -0.2675  1.0494
  658SOL     OW 2676   2.912   0.770   1.138  0.0852  0.3450  0.2071
  658SOL    HW2 2677   2.839   0.821   1.175 -0.3275 -0.7243  0.8795
  658SOL    HW3 2678   2.990   0.818   1.165 -0.3096  0.7154  0.7075
  658SOL    MW4 2679   2.913   0.783   1.147 -0.0215  0.2528  0.3617
  659SOL     OW 2680   1.242   1.165   0.885  0.3996  0.0841 -0.2032
  659SOL    HW2 2681   1.279   1.248   0.854  0.8967 -0.6997 -1.7686
  659SOL    HW3 2682   1.295   1.098   0.843 -0.5159 -1.0426  0.4080
  659SOL    MW4 2683   1.253   1.167   0.875  0.3445 -0.1678 -0.3291
  660SOL     OW 2684   3.457   1.245   0.681  0.1014  0.2633 -0.5185
  660SOL    HW2 2685   3.500   1.181   0.624  2.2505  0.8678  0.3839
  660SOL    HW3 2686   3.503   1.237   0.765 -1.1900  1.3351  0.3094
  660SOL    MW4 2687   3.469   1.236   0.685  0.2143  0.4845 -0.2901
  661SOL     OW 2688   0.692   0.006   0.775  0.2445 -0.0810 -0.5023
  661SOL    HW2 2689   0.777  -0.039   0.765 -0.1411 -0.9755  0.0849
  661SOL    HW3 2690   0.669  -0.010   0.867 -0.3299  0.5712 -0.5375
  661SOL    MW4 2691   0.700  -0.002   0.786  0.1178 -0.1130 -0.4295
  662SOL     OW 2692   0.467   3.120   0.530 -0.0427  0.3226  0.2220
  662SOL    HW2 2693   0.518   3.197   0.552  0.0454  0.2698  0.2037
  662SOL    HW3 2694   0.448   3.077   0.613  1.2374 -0.4789  0.1165
  662SOL    MW4 2695   0.471   3.124   0.544  0.1378  0.2103  0.2056
  663SOL     OW 2696   0.255   1.006   0.814 -0.0466  0.0205  0.1376
  663SOL    HW2 2697   0.346   1.021   0.837 -0.0221 -1.0534  0.7538
  663SOL    HW3 2698   0.235   0.919   0.846 -1.1157 -0.0118 -0.5518
  663SOL    MW4 2699   0.264   0.997   0.821 -0.1844 -0.1255  0.1280
  664SOL     OW 2700   3.122   1.899   1.148 -0.0927 -0.1418 -0.0080
  664SOL    HW2 2701   3.041   1.940   1.178 -0.4087 -0.4241 -0.4524
  664SOL    HW3 2702   3.108   1.887   1.053  0.4099 -0.3154 -0.0586
  664SOL    MW4 2703   3.109   1.903   1.139 -0.0682 -0.2019 -0.0732
  665SOL     OW 2704   4.072   0.135   0.183  0.3704  0.4377 -0.1206
  665SOL    HW2 2705   4.093   0.176   0.099 -0.4385  1.3124  0.0949
  665SOL    HW3 2706   3.994   0.082   0.165 -0.5761  1.6614  0.3812
  665SOL    MW4 2707   4.065   0.133   0.170  0.1388  0.7146 -0.0259
  666SOL     OW 2708   3.153   2.451   1.239 -0.4594  0.6951  0.4969
  666SOL    HW2 2709   3.161   2.543   1.212 -0.9125  0.8971  1.0543
  666SOL    HW3 2710   3.160   2.453   1.334  0.1561  0.0803  0.4701
  666SOL    MW4 2711   3.155   2.463   1.248 -0.4377  0.6409  0.5670
  667SOL     OW 2712   1.399   3.220   1.183 -0.0760 -0.0411  0.3725
  667SOL    HW2 2713   1.455   3.144   1.167  1.2634  1.1582 -0.8155
  667SOL    HW3 2714   1.375   3.214   1.275  1.3182 -1.0382  0.6745
  667SOL    MW4 2715   1.403   3.210   1.193  0.2847 -0.0145  0.2557
  668SOL     OW 2716   2.932   2.298   1.167  0.3515 -0.2917 -0.0227
  668SOL    HW2 2717   3.010   2.337   1.206  0.7398 -0.4419 -0.6300
  668SOL    HW3 2718   2.923   2.214   1.211  0.0226  0.1023  0.6688
  668SOL    MW4 2719   2.941   2.292   1.178  0.3593 -0.2596 -0.0117
  669SOL     OW 2720   3.401   3.047   1.124  0.2153 -0.0522 -0.3339
  669SOL    HW2 2721   3.421   3.055   1.030  1.3408 -0.8741 -0.1838
  669SOL    HW3 2722   3.461   3.108   1.166  1.3365 -1.3821  0.0146
  669SOL    MW4 2723   3.412   3.056   1.117  0.5116 -0.3359 -0.2681
  670SOL     OW 2724   2.912   3.127   1.138 -0.1553  0.3693 -0.3265
  670SOL    HW2 2725   2.985   3.178   1.172 -0.0477 -1.0308  1.5812
  670SOL    HW3 2726   2.916   3.140   1.043  1.4383  1.7763 -0.0851
  670SOL    MW4 2727   2.922   3.136   1.130  0.0694  0.3703 -0.0428
  671SOL     OW 2728   3.405   3.602   1.257 -0.5155 -0.1830  0.3480
  671SOL    HW2 2729   3.406   3.580   1.350 -0.7315 -1.8320 -0.0304
  671SOL    HW3 2730   3.462   3.538   1.215 -0.9412  0.1312 -0.7501
  671SOL    MW4 2731   3.413   3.591   1.263 -0.6001 -0.3591  0.1532
  672SOL     OW 2732   3.387   3.856   1.132 -0.2021 -0.2916 -0.1683
  672SOL    HW2 2733   3.320   3.893   1.189 -0.2421 -1.1630  0.3505
  672SOL    HW3 2734   3.395   3.764   1.159  0.6845 -0.3852 -0.7035
  672SOL    MW4 2735   3.380   3.849   1.143 -0.0904 -0.4191 -0.1706
  673SOL     OW 2736   3.177   3.988   1.233  0.4946 -0.0260  0.0720
  673SOL    HW2 2737   3.181   4.079   1.204  1.0729  0.0934  0.5079
  673SOL    HW3 2738   3.183   3.992   1.328 -0.1102 -0.4876  0.1354
  673SOL    MW4 2739   3.178   4.000   1.242  0.4916 -0.0710  0.1378
  674SOL     OW 2740   3.166   2.986   0.808  0.0063  0.0479  0.1512
  674SOL    HW2 2741   3.186   2.894   0.827  1.6796  0.5642  1.0050
  674SOL    HW3 2742   3.148   2.987   0.713 -0.1805 -1.1664  0.1579
  674SOL    MW4 2743   3.166   2.974   0.798  0.2024 -0.0441  0.2648
  675SOL     OW 2744   3.709   1.455   0.757 -0.4260  0.2722  0.0625
  675SOL    HW2 2745   3.782   1.476   0.814 -1.4621  0.1693  1.4603
  675SOL    HW3 2746   3.667   1.380   0.798 -1.6375  0.6784 -0.4021
  675SOL    MW4 2747   3.713   1.448   0.770 -0.7226  0.3123  0.1856
  676SOL     OW 2748   3.148   4.262   1.176 -0.5060  0.1689 -0.0367
  676SOL    HW2 2749   3.140   4.266   1.081 -0.3291 -1.5897 -0.1456
  676SOL    HW3 2750   3.073   4.312   1.209 -0.4484  0.9622 -1.0900
  676SOL    MW4 2751   3.137   4.269   1.168 -0.4749  0.0415 -0.1900
  677SOL     OW 2752   3.825   4.396   1.280 -0.0077 -0.1941 -0.6242
  677SOL    HW2 2753   3.752   4.353   1.235  0.1588 -2.1880  0.9409
  677SOL    HW3 2754   3.796   4.403   1.371  0.7391  1.3440 -0.4919
  677SOL    MW4 2755   3.811   4.391   1.286  0.1125 -0.2546 -0.4002
  678SOL     OW 2756   3.383   4.631   1.666  0.2366 -0.3111  0.2755
  678SOL    HW2 2757   3.357   4.546   1.633  0.5946 -0.3687  0.1451
  678SOL    HW3 2758   3.451   4.661   1.606  0.5660 -0.2166  0.6889
  678SOL    MW4 2759   3.389   4.624   1.654  0.3273 -0.3057  0.3128
  679SOL     OW 2760   3.146   0.381   1.131 -0.1617 -0.6356  0.4453
  679SOL    HW2 2761   3.083   0.440   1.172 -0.0022 -0.5734  0.6050
  679SOL    HW3 2762   3.231   0.413   1.162 -0.0643 -0.8335  0.3811
  679SOL    MW4 2763   3.149   0.393   1.141 -0.1278 -0.6535  0.4580
  680SOL     OW 2764   2.961   4.562   0.901 -1.0851  0.3566 -0.7667
  680SOL    HW2 2765   3.011   4.623   0.847 -0.1149 -1.4177 -1.9103
  680SOL    HW3 2766   2.879   4.548   0.853 -0.9951  0.1916 -0.8727
  680SOL    MW4 2767   2.956   4.568   0.888 -0.9451  0.1006 -0.9316
  681SOL     OW 2768   3.801   0.512   1.267 -0.3517  0.5421  0.1845
  681SOL    HW2 2769   3.806   0.588   1.209  0.7909 -1.1078 -1.9344
  681SOL    HW3 2770   3.729   0.460   1.232  0.6968 -0.7318 -0.1117
  681SOL    MW4 2771   3.793   0.515   1.255 -0.0629  0.1563 -0.1340
  682SOL     OW 2772   1.107   1.483   0.386 -0.2784  0.2438  0.2176
  682SOL    HW2 2773   1.168   1.554   0.407  0.1106  0.1127 -0.4518
  682SOL    HW3 2774   1.157   1.403   0.404 -0.0234  0.1311 -0.9621
  682SOL    MW4 2775   1.122   1.482   0.391 -0.1935  0.2118 -0.0264
  683SOL     OW 2776   3.373   0.745   1.135 -0.0420 -0.8308 -0.3124
  683SOL    HW2 2777   3.288   0.783   1.156  0.2916  0.5512 -1.3803
  683SOL    HW3 2778   3.375   0.738   1.040  0.7127 -1.6399 -0.2513
  683SOL    MW4 2779   3.362   0.749   1.125  0.1016 -0.7552 -0.4451
  684SOL     OW 2780   0.130   1.580   0.938 -0.1823  0.0344 -0.3250
  684SOL    HW2 2781   0.107   1.665   0.900 -0.6048  0.7995  1.5460
  684SOL    HW3 2782   0.204   1.549   0.887 -1.6337  0.3419 -2.6652
  684SOL    MW4 2783   0.137   1.587   0.926 -0.4295  0.1760 -0.3870
  685SOL     OW 2784   4.071   1.136   1.256 -0.4364  0.3229 -0.2047
  685SOL    HW2 2785   3.979   1.159   1.262 -0.4956 -0.2133  1.1993
  685SOL    HW3 2786   4.072   1.041   1.246 -0.0818  0.5107 -2.2305
  685SOL    MW4 2787   4.059   1.126   1.255 -0.3982  0.2769 -0.2868
  686SOL     OW 2788   3.776   2.013   1.227 -0.1731 -0.1532 -0.5942
  686SOL    HW2 2789   3.775   2.030   1.321 -0.6247  1.0509 -0.8013
  686SOL    HW3 2790   3.858   1.966   1.211 -0.3473 -0.8345  0.4732
  686SOL    MW4 2791   3.786   2.009   1.237 -0.2556 -0.0839 -0.4807
  687SOL     OW 2792   3.317   2.277   0.602 -0.3366  0.4104  0.1089
  687SOL    HW2 2793   3.233   2.234   0.617 -0.8085  1.6408  1.0336
  687SOL    HW3 2794   3.345   2.307   0.688  0.9947  0.1241 -0.2083
  687SOL    MW4 2795   3.310   2.275   0.615 -0.2234  0.5350  0.1891
  688SOL     OW 2796   3.535   1.885   1.109  0.1941 -0.2269  0.3208
  688SOL    HW2 2797   3.606   1.940   1.143 -0.7313  1.7218 -0.7728
  688SOL    HW3 2798   3.456   1.921   1.150 -0.3047 -1.5492  0.5383
  688SOL    MW4 2799   3.534   1.897   1.119  0.0062 -0.1444  0.2053
  689SOL     OW 2800   3.611   2.426   1.235 -0.5944 -0.9487 -0.0434
  689SOL    HW2 2801   3.685   2.376   1.199 -0.2092 -0.5890  0.2498
  689SOL    HW3 2802   3.619   2.417   1.329 -0.0558  0.3380  0.0420
  689SOL    MW4 2803   3.622   2.418   1.242 -0.4723 -0.7312  0.0066
  690SOL     OW 2804   3.578   2.672   1.134  0.2580 -0.3446  0.0140
  690SOL    HW2 2805   3.663   2.715   1.148  1.4163 -1.6327 -2.7151
  690SOL    HW3 2806   3.589   2.584   1.170  0.5918 -0.9921 -1.6233
  690SOL    MW4 2807   3.591   2.666   1.140  0.4549 -0.5999 -0.5623
  691SOL     OW 2808   1.645   1.766   0.710 -0.0878  0.2938  0.3340
  691SOL    HW2 2809   1.721   1.810   0.748 -0.0669 -1.6318  2.6293
  691SOL    HW3 2810   1.682   1.708   0.643  0.2183  0.9927 -0.1184
  691SOL    MW4 2811   1.660   1.764   0.706 -0.0447  0.1318  0.5771
  692SOL     OW 2812   1.322   4.272   1.127  0.4058 -0.1377 -0.0239
  692SOL    HW2 2813   1.301   4.262   1.034  1.0288  0.1846 -0.2019
  692SOL    HW3 2814   1.246   4.316   1.164 -1.6244 -3.8540  0.4324
  692SOL    MW4 2815   1.310   4.277   1.119  0.2203 -0.5856  0.0128
  693SOL     OW 2816   2.508   3.352   0.741  0.6277  0.1779 -0.2674
  693SOL    HW2 2817   2.440   3.405   0.784  2.2042  1.1394  1.0855
  693SOL    HW3 2818   2.501   3.267   0.783 -1.2114 -0.4251 -1.7105
  693SOL    MW4 2819   2.498   3.348   0.752  0.5932  0.2253 -0.2793
  694SOL     OW 2820   4.001   3.471   1.105 -0.0878 -0.2742  0.1256
  694SOL    HW2 2821   4.074   3.511   1.153  1.2063 -2.4698  0.0485
  694SOL    HW3 2822   3.923   3.513   1.140  1.1523  1.4971  0.8334
  694SOL    MW4 2823   4.001   3.482   1.116  0.2470 -0.3300  0.2087
  695SOL     OW 2824   1.781   4.206   0.850 -0.2473  0.2195  0.4845
  695SOL    HW2 2825   1.699   4.158   0.860 -0.7471  0.6953 -1.2789
  695SOL    HW3 2826   1.843   4.141   0.816 -0.0711  0.0522  1.1072
  695SOL    MW4 2827   1.779   4.191   0.847 -0.2900  0.2599  0.3340
  696SOL     OW 2828   4.247   3.130   0.450  0.2137 -0.1949  0.2941
  696SOL    HW2 2829   4.159   3.093   0.456 -0.4123  0.8655 -1.8233
  696SOL    HW3 2830   4.306   3.057   0.468 -1.0894 -0.9208  1.6748
  696SOL    MW4 2831   4.243   3.116   0.453 -0.0415 -0.1507  0.1968
  697SOL     OW 2832   3.599   3.158   1.240 -0.1056 -0.6254 -0.0086
  697SOL    HW2 2833   3.614   3.245   1.204 -1.6666 -0.5990 -0.6430
  697SOL    HW3 2834   3.670   3.104   1.205  0.6024  0.2772  0.0261
  697SOL    MW4 2835   3.610   3.162   1.231 -0.2182 -0.5028 -0.0876
  698SOL     OW 2836   3.588   4.045   1.223  0.4137  0.1361 -0.1520
  698SOL    HW2 2837   3.582   4.039   1.318  2.3680 -0.5512 -0.0614
  698SOL    HW3 2838   3.522   3.982   1.191  0.8541 -0.8014  0.7546
  698SOL    MW4 2839   3.579   4.036   1.231  0.7293 -0.0777 -0.0205
  699SOL     OW 2840   1.565   1.556   0.872  0.0599 -0.0899 -0.3101
  699SOL    HW2 2841   1.592   1.637   0.828  1.3092  1.4531  3.0702
  699SOL    HW3 2842   1.619   1.488   0.833  0.3458  1.0285 -1.8998
  699SOL    MW4 2843   1.575   1.558   0.861  0.2625  0.2613 -0.0739
  700SOL     OW 2844   3.629   4.285   1.107  0.0229 -0.2544  0.0584
  700SOL    HW2 2845   3.624   4.197   1.144  0.4669 -1.5075 -2.6662
  700SOL    HW3 2846   3.552   4.330   1.140 -0.5011 -1.8455  1.0602
  700SOL    MW4 2847   3.618   4.279   1.116  0.0124 -0.6304 -0.1688
  701SOL     OW 2848   3.740   3.065   0.592 -0.5938  0.0926 -0.2554
  701SOL    HW2 2849   3.705   3.151   0.568 -1.2791  0.1952  1.0724
  701SOL    HW3 2850   3.665   3.006   0.585 -0.2840 -0.2743 -0.4787
  701SOL    MW4 2851   3.726   3.069   0.588 -0.6433  0.0579 -0.1096
  702SOL     OW 2852   4.062   0.150   1.192 -0.0528 -0.1845  0.4852
  702SOL    HW2 2853   4.052   0.157   1.287 -1.6733  0.2955  0.2961
  702SOL    HW3 2854   4.051   0.240   1.160 -1.8032 -0.6624 -0.3327
  702SOL    MW4 2855   4.059   0.163   1.200 -0.4973 -0.1842  0.3523
  703SOL     OW 2856   4.076   0.447   1.193  0.1696  0.1283 -0.1947
  703SOL    HW2 2857   3.984   0.460   1.213 -0.0774 -1.4163 -0.2246
  703SOL    HW3 2858   4.079   0.441   1.097  0.1320 -0.9102 -0.1379
  703SOL    MW4 2859   4.064   0.448   1.183  0.1326 -0.2125 -0.1912
  704SOL     OW 2860   0.055   0.087   1.263  0.4712  0.4065  0.3232
  704SOL    HW2 2861  -0.031   0.050   1.241  2.0555 -2.8957 -0.5508
  704SOL    HW3 2862   0.047   0.180   1.238 -3.0000  0.3263  0.8318
  704SOL    MW4 2863   0.043   0.095   1.256  0.2227 -0.0397  0.2750
  705SOL     OW 2864   4.272   0.721   1.208 -0.3023  0.2592  0.3424
  705SOL    HW2 2865   4.358   0.754   1.232 -0.5649 -0.7223  2.7878
  705SOL    HW3 2866   4.274   0.628   1.231 -1.4346 -0.1867 -1.2241
  705SOL    MW4 2867   4.283   0.713   1.214 -0.4859  0.0709  0.4582
  706SOL     OW 2868   4.039   0.852   1.272  0.2786 -0.2096  0.4253
  706SOL    HW2 2869   4.042   0.865   1.366 -1.6381 -2.1771  0.8134
  706SOL    HW3 2870   4.114   0.796   1.253  1.3963  1.2194  0.5712
  706SOL    MW4 2871   4.049   0.846   1.282  0.1731 -0.2807  0.4958
  707SOL     OW 2872   2.601   1.799   0.294  0.0720 -0.3110  0.4924
  707SOL    HW2 2873   2.679   1.854   0.293  1.1092 -1.6247  3.6471
  707SOL    HW3 2874   2.633   1.712   0.317 -1.8239 -1.8094 -2.2548
  707SOL    MW4 2875   2.616   1.795   0.297 -0.0415 -0.6821  0.5462
  708SOL     OW 2876   2.397   3.972   0.543 -0.3827  0.2387 -0.2573
  708SOL    HW2 2877   2.394   3.915   0.619 -0.9820  0.9396  0.2595
  708SOL    HW3 2878   2.454   3.927   0.481 -0.9462 -0.9806  0.0857
  708SOL    MW4 2879   2.404   3.959   0.545 -0.5362  0.1705 -0.1439
  709SOL     OW 2880   1.465   2.306   0.828 -0.2924 -0.1317 -0.3538
  709SOL    HW2 2881   1.488   2.384   0.778 -1.1021 -0.2231 -0.8789
  709SOL    HW3 2882   1.376   2.322   0.857 -0.2281 -0.5798  0.0902
  709SOL    MW4 2883   1.456   2.318   0.825 -0.3906 -0.2029 -0.3645
  710SOL     OW 2884   4.032   1.650   1.240  0.3140  0.0429  0.3282
  710SOL    HW2 2885   4.045   1.656   1.334 -1.5735  0.0851  0.6079
  710SOL    HW3 2886   4.033   1.740   1.209  2.4447 -0.0346  0.0513
  710SOL    MW4 2887   4.034   1.663   1.248  0.3462  0.0383  0.3285
  711SOL     OW 2888   2.333   3.560   0.453 -0.3047  0.3544 -0.2381
  711SOL    HW2 2889   2.354   3.472   0.422  0.1301  0.0090  1.0171
  711SOL    HW3 2890   2.242   3.575   0.426 -0.6584 -0.8133  0.3115
  711SOL    MW4 2891   2.324   3.551   0.446 -0.2937  0.1547  0.0000
  712SOL     OW 2892   0.251   2.280   0.369  0.3509  0.0377  0.1193
  712SOL    HW2 2893   0.294   2.196   0.350 -0.5166 -0.6347  1.0602
  712SOL    HW3 2894   0.260   2.290   0.464 -0.4040  0.5301  0.1355
  712SOL    MW4 2895   0.258   2.270   0.379  0.1369  0.0141  0.2456
  713SOL     OW 2896   2.092   3.632   0.327  0.4690 -0.0765 -0.1216
  713SOL    HW2 2897   2.093   3.673   0.240 -1.9888  0.9098  0.2930
  713SOL    HW3 2898   2.064   3.702   0.386  1.0676 -1.0444  1.3241
  713SOL    MW4 2899   2.089   3.647   0.323  0.2239 -0.0739  0.1237
  714SOL     OW 2900   4.061   2.408   1.239  0.4796  0.4338  0.1375
  714SOL    HW2 2901   4.044   2.494   1.202 -1.5879  0.4930  1.1668
  714SOL    HW3 2902   4.066   2.423   1.334 -1.1631 -0.7722  0.4239
  714SOL    MW4 2903   4.060   2.421   1.247 -0.0100  0.2828  0.3110
  715SOL     OW 2904   0.194   4.146   0.451 -0.0556  0.1183 -0.6392
  715SOL    HW2 2905   0.106   4.116   0.429  0.9586 -2.2611 -1.6127
  715SOL    HW3 2906   0.194   4.154   0.546 -0.7048 -1.8675 -0.4671
  715SOL    MW4 2907   0.182   4.143   0.461 -0.0074 -0.4573 -0.7449
  716SOL     OW 2908   0.955   3.952   1.247  0.2634  0.3814  0.1952
  716SOL    HW2 2909   0.942   3.960   1.341  1.6500 -0.3189  0.4542
  716SOL    HW3 2910   0.946   4.041   1.214  0.7455  0.7783  1.1191
  716SOL    MW4 2911   0.952   3.965   1.255  0.5100  0.3412  0.3513
  717SOL     OW 2912   4.259   3.103   1.150 -0.9390 -0.3684 -0.4286
  717SOL    HW2 2913   4.259   3.093   1.055 -0.2491  0.6540 -0.5449
  717SOL    HW3 2914   4.168   3.127   1.171 -0.5942  1.5970 -1.0817
  717SOL    MW4 2915   4.247   3.105   1.140 -0.8030  0.0257 -0.5302
  718SOL     OW 2916   2.596   1.081   0.519 -0.5076 -0.1200  0.1962
  718SOL    HW2 2917   2.547   1.045   0.593  0.7627 -3.8419 -0.6378
  718SOL    HW3 2918   2.534   1.079   0.446 -0.9610  1.0367  0.5475
  718SOL    MW4 2919   2.581   1.076   0.519 -0.4001 -0.4586  0.1325
  719SOL     OW 2920   3.299   4.146   0.532  0.0059 -0.4178  0.0446
  719SOL    HW2 2921   3.205   4.158   0.519  0.0592  1.6469  1.3087
  719SOL    HW3 2922   3.339   4.224   0.493  1.1668 -1.0391 -0.0436
  719SOL    MW4 2923   3.292   4.158   0.525  0.1662 -0.2270  0.1997
  720SOL     OW 2924   2.881   3.397   0.514 -0.1670 -0.0470 -0.3135
  720SOL    HW2 2925   2.902   3.366   0.602  0.5003  0.5114 -0.2751
  720SOL    HW3 2926   2.798   3.354   0.493  0.0047 -0.7009  0.3218
  720SOL    MW4 2927   2.873   3.387   0.523 -0.0563 -0.0594 -0.2246
  721SOL     OW 2928   4.231   3.581   1.211  0.1651  0.5977 -0.1597
  721SOL    HW2 2929   4.216   3.667   1.173 -0.3061  0.2458 -0.7820
  721SOL    HW3 2930   4.306   3.546   1.163  0.1174  0.5066 -0.1674
  721SOL    MW4 2931   4.239   3.588   1.200  0.0968  0.5391 -0.2427
  722SOL     OW 2932   0.686   2.487   0.464  0.1048 -0.6757 -0.0270
  722SOL    HW2 2933   0.714   2.570   0.425  0.9393  0.0523  2.0440
  722SOL    HW3 2934   0.591   2.488   0.458  0.0651  0.8360  0.7472
  722SOL    MW4 2935   0.677   2.498   0.458  0.2096 -0.3800  0.3484
  723SOL     OW 2936   1.999   2.042   0.458  0.7305  0.2641 -0.1237
  723SOL    HW2 2937   2.092   2.054   0.476  1.2480 -1.6671 -1.4012
  723SOL    HW3 2938   1.981   2.099   0.383  1.2308 -0.4922 -0.8233
  723SOL    MW4 2939   2.009   2.051   0.451  0.8647 -0.0908 -0.3846
  724SOL     OW 2940   4.235   4.382   1.243 -0.1465  0.2530  0.0609
  724SOL    HW2 2941   4.303   4.341   1.190 -0.4724 -0.3702  0.1252
  724SOL    HW3 2942   4.156   4.332   1.225 -0.6159  1.0348 -0.0830
  724SOL    MW4 2943   4.234   4.370   1.234 -0.2513  0.2742  0.0504
  725SOL     OW 2944   0.227   4.633   1.673 -0.1378 -0.3836  0.4034
  725SOL    HW2 2945   0.313   4.656   1.639 -0.5135  0.5019  0.0403
  725SOL    HW3 2946   0.165   4.682   1.618 -0.8470 -0.5942  0.9992
  725SOL    MW4 2947   0.230   4.642   1.661 -0.2810 -0.2947  0.4342
  726SOL     OW 2948   0.049   0.119   1.543  0.5073  0.0463  0.2850
  726SOL    HW2 2949  -0.040   0.086   1.551  0.5540  0.1118  1.1632
  726SOL    HW3 2950   0.069   0.114   1.449 -0.4936  0.2337  0.0586
  726SOL    MW4 2951   0.040   0.114   1.532  0.3814  0.0797  0.3709
  727SOL     OW 2952   0.020   0.369   1.663 -0.1990  0.4050 -0.5264
  727SOL    HW2 2953   0.007   0.360   1.757  0.4987  0.3912 -0.4247
  727SOL    HW3 2954   0.034   0.279   1.632 -0.6010  0.3931 -0.6653
  727SOL    MW4 2955   0.020   0.356   1.671 -0.1600  0.4016 -0.5312
  728SOL     OW 2956   0.278   0.464   1.297  0.8187  0.4708 -0.8009
  728SOL    HW2 2957   0.200   0.423   1.259  0.7000  1.6891 -1.8906
  728SOL    HW3 2958   0.351   0.416   1.258  0.6491  0.2164 -0.8098
  728SOL    MW4 2959   0.277   0.452   1.287  0.7807  0.5980 -0.9459
  729SOL     OW 2960   0.267   0.503   1.585 -0.2850  0.4504 -0.1793
  729SOL    HW2 2961   0.271   0.494   1.490 -0.7231  1.9071 -0.3470
  729SOL    HW3 2962   0.180   0.470   1.609 -0.6669  1.2410 -0.4392
  729SOL    MW4 2963   0.256   0.498   1.576 -0.3932  0.7470 -0.2358
  730SOL     OW 2964   0.030   0.865   1.599 -0.0472 -0.3767 -0.2989
  730SOL    HW2 2965   0.034   0.952   1.640  0.7351 -0.3694 -0.3988
  730SOL    HW3 2966   0.096   0.813   1.645  0.9153 -0.3344 -1.6363
  730SOL    MW4 2967   0.039   0.870   1.611  0.1830 -0.3701 -0.4886
  731SOL     OW 2968   0.063   1.151   1.662  1.0148  0.4672 -0.2446
  731SOL    HW2 2969   0.075   1.163   1.757  0.3416 -0.7512  0.0101
  731SOL    HW3 2970   0.143   1.185   1.623  0.6207  2.5018  0.6441
  731SOL    MW4 2971   0.075   1.157   1.670  0.8740  0.5749 -0.0937
  732SOL     OW 2972   0.286   1.265   1.560 -0.1389  0.1245  0.3577
  732SOL    HW2 2973   0.249   1.353   1.568 -0.2921  0.0513  0.4673
  732SOL    HW3 2974   0.284   1.247   1.466  1.2957  0.8289  0.1819
  732SOL    MW4 2975   0.281   1.274   1.548  0.0302  0.2078  0.3488
  733SOL     OW 2976   0.198   1.535   1.593  0.0920 -0.0893  0.1840
  733SOL    HW2 2977   0.136   1.602   1.564 -0.2651 -0.4874  0.0235
  733SOL    HW3 2978   0.189   1.534   1.689 -0.9299 -0.8928  0.0864
  733SOL    MW4 2979   0.189   1.544   1.602 -0.0900 -0.2478  0.1498
  734SOL     OW 2980   4.288   1.516   1.631  0.1123  0.1495 -0.5405
  734SOL    HW2 2981   4.306   1.431   1.591  2.2648  0.1880  0.2966
  734SOL    HW3 2982   4.353   1.575   1.593 -0.9149  1.2713 -0.5873
  734SOL    MW4 2983   4.299   1.513   1.621  0.2604  0.3026 -0.4363
  735SOL     OW 2984   4.462   1.673   1.522 -0.1634  0.4712  0.1556
  735SOL    HW2 2985   4.488   1.759   1.555  1.2938 -0.1100  0.5607
  735SOL    HW3 2986   4.473   1.680   1.427  0.8588  0.4565  0.2612
  735SOL    MW4 2987   4.467   1.685   1.514  0.1640  0.3927  0.2230
  736SOL     OW 2988   0.013   1.916   1.637  0.2738  0.2336 -0.2210
  736SOL    HW2 2989   0.005   1.922   1.733 -0.0355  0.3797 -0.2537
  736SOL    HW3 2990  -0.057   1.973   1.604 -1.0001 -1.4561 -0.5447
  736SOL    MW4 2991   0.002   1.924   1.646  0.0653  0.0299 -0.2681
  737SOL     OW 2992   0.224   2.324   1.616 -0.5161 -0.0218 -0.1433
  737SOL    HW2 2993   0.240   2.309   1.710  2.2087  0.4556 -0.4825
  737SOL    HW3 2994   0.219   2.237   1.578 -0.0830 -0.2067  0.2174
  737SOL    MW4 2995   0.225   2.311   1.624 -0.0995  0.0169 -0.1404
  738SOL     OW 2996   4.468   2.445   1.525  0.0256  0.1014 -0.5780
  738SOL    HW2 2997   4.392   2.398   1.561  0.0698  0.7830  0.4136
  738SOL    HW3 2998   4.543   2.389   1.545 -0.0930 -0.1098 -0.7151
  738SOL    MW4 2999   4.467   2.432   1.532  0.0157  0.1633 -0.4654
  739SOL     OW 3000   0.033   2.692   1.630  0.1960 -0.2753 -0.6826
  739SOL    HW2 3001  -0.046   2.732   1.596 -1.2297 -1.1513  1.4598
  739SOL    HW3 3002   0.025   2.599   1.606  0.3307 -0.4461 -0.0875
  739SOL    MW4 3003   0.021   2.685   1.623  0.0256 -0.4139 -0.3215
  740SOL     OW 3004   0.239   2.812   1.486 -0.7332 -0.4762 -0.0297
  740SOL    HW2 3005   0.309   2.771   1.537 -0.8321 -0.9276 -0.2540
  740SOL    HW3 3006   0.159   2.784   1.529 -0.8334 -1.1730 -0.6584
  740SOL    MW4 3007   0.238   2.803   1.498 -0.7595 -0.6275 -0.1423
  741SOL     OW 3008   0.230   3.071   1.594  0.2209 -0.3657 -0.2620
  741SOL    HW2 3009   0.144   3.101   1.566  0.5707  0.1692 -0.7899
  741SOL    HW3 3010   0.238   2.982   1.559 -0.5692 -0.8422  0.7644
  741SOL    MW4 3011   0.220   3.063   1.586  0.1628 -0.3579 -0.1963
  742SOL     OW 3012   4.475   3.183   1.523 -0.0765  0.1043  0.1203
  742SOL    HW2 3013   4.491   3.262   1.574 -0.1209 -0.7182  1.4602
  742SOL    HW3 3014   4.498   3.206   1.434  1.3844  1.1687  0.7541
  742SOL    MW4 3015   4.480   3.196   1.518  0.1101  0.1361  0.3808
  743SOL     OW 3016   0.010   3.432   1.623  0.0092  0.4519 -0.2730
  743SOL    HW2 3017  -0.023   3.439   1.712 -1.2173  0.0462 -0.6782
  743SOL    HW3 3018  -0.059   3.471   1.569  1.5870  2.4860 -0.8971
  743SOL    MW4 3019  -0.004   3.438   1.627  0.0553  0.6669 -0.4088
  744SOL     OW 3020   0.200   3.591   1.520 -0.3329 -0.0175 -0.2869
  744SOL    HW2 3021   0.206   3.682   1.549  1.2017  0.1245 -0.9969
  744SOL    HW3 3022   0.123   3.557   1.565 -1.5674  1.9347 -0.8530
  744SOL    MW4 3023   0.191   3.599   1.530 -0.2933  0.2587 -0.4551
  745SOL     OW 3024   0.173   3.866   1.620  0.0213 -0.1864 -0.3468
  745SOL    HW2 3025   0.194   3.885   1.712  1.4288  0.9783 -0.8920
  745SOL    HW3 3026   0.247   3.902   1.571  0.2787 -2.6038 -1.8110
  745SOL    MW4 3027   0.186   3.874   1.626  0.2410 -0.3517 -0.6120
  746SOL     OW 3028   4.452   3.986   1.504  0.0394  0.0994  0.3650
  746SOL    HW2 3029   4.527   3.958   1.557  1.3758  0.5284 -1.2617
  746SOL    HW3 3030   4.456   4.082   1.506 -0.7111  0.1269  0.6099
  746SOL    MW4 3031   4.463   3.995   1.512  0.1168  0.1595  0.1827
  747SOL     OW 3032   0.207   4.413   1.501  0.3204 -0.2408  0.2877
  747SOL    HW2 3033   0.214   4.483   1.566  0.2783 -0.6228  0.7093
  747SOL    HW3 3034   0.121   4.374   1.517  0.2452 -0.2369 -0.1010
  747SOL    MW4 3035   0.197   4.417   1.512  0.3049 -0.2909  0.2919
  748SOL     OW 3036   0.212   4.379   1.218 -0.0644 -0.2625 -0.0171
  748SOL    HW2 3037   0.204   4.406   1.309 -2.9243 -0.0028 -0.3106
  748SOL    HW3 3038   0.233   4.460   1.171 -2.6879  0.4136 -0.0992
  748SOL    MW4 3039   0.214   4.394   1.224 -0.7879 -0.1397 -0.0666
  749SOL     OW 3040   0.712   4.633   1.609 -0.0423 -0.0748  0.3151
  749SOL    HW2 3041   0.780   4.677   1.558 -0.3050  1.0444  0.9159
  749SOL    HW3 3042   0.630   4.671   1.578 -0.3124 -0.4908  0.5085
  749SOL    MW4 3043   0.710   4.644   1.598 -0.1126  0.0181  0.4199
  750SOL     OW 3044   0.452   0.077   1.557  0.8303  0.5589  0.1435
  750SOL    HW2 3045   0.471   0.167   1.584  1.0358  0.0050  1.8698
  750SOL    HW3 3046   0.455   0.080   1.461  1.4886  2.2437  0.2027
  750SOL    MW4 3047   0.455   0.089   1.548  0.9443  0.7081  0.3792
  751SOL     OW 3048   0.477   0.344   1.654 -0.0096  0.1075  0.4432
  751SOL    HW2 3049   0.411   0.405   1.621  0.0310  0.1490  0.4376
  751SOL    HW3 3050   0.561   0.390   1.640  0.0261  0.0199  0.3725
  751SOL    MW4 3051   0.480   0.358   1.648  0.0004  0.1015  0.4332
  752SOL     OW 3052   0.687   0.523   1.554 -0.1484 -0.7420  0.2257
  752SOL    HW2 3053   0.687   0.613   1.585 -1.7040 -0.7312  0.2437
  752SOL    HW3 3054   0.692   0.530   1.459 -1.2354 -0.5957  0.1716
  752SOL    MW4 3055   0.687   0.535   1.546 -0.4971 -0.7213  0.2210
  753SOL     OW 3056   0.703   0.788   1.620 -0.0575  0.2570 -0.8940
  753SOL    HW2 3057   0.787   0.819   1.585 -0.1436  2.2697  0.5790
  753SOL    HW3 3058   0.713   0.795   1.715 -2.2105  1.4258 -0.7177
  753SOL    MW4 3059   0.715   0.793   1.628 -0.3529  0.6767 -0.6763
  754SOL     OW 3060   0.263   0.727   1.737 -0.0829 -0.0174 -0.3289
  754SOL    HW2 3061   0.337   0.763   1.688 -0.0010 -0.6016 -0.6348
  754SOL    HW3 3062   0.249   0.641   1.698 -0.4432 -0.2084  0.2355
  754SOL    MW4 3063   0.271   0.721   1.725 -0.1196 -0.1196 -0.2948
  755SOL     OW 3064   0.500   1.162   1.695  0.2555  0.2425 -0.0125
  755SOL    HW2 3065   0.572   1.176   1.634 -0.4481  0.4662 -0.7853
  755SOL    HW3 3066   0.425   1.206   1.656 -0.0722  0.8690  1.2790
  755SOL    MW4 3067   0.500   1.170   1.682  0.1194  0.3546  0.0560
  756SOL     OW 3068   0.695   1.246   1.509  0.4248 -0.9838  0.0532
  756SOL    HW2 3069   0.661   1.333   1.532 -0.1269 -1.1725 -0.0251
  756SOL    HW3 3070   0.699   1.246   1.413 -0.7107 -1.4524 -0.0077
  756SOL    MW4 3071   0.691   1.257   1.499  0.2021 -1.0706  0.0349
  757SOL     OW 3072   0.657   1.523   1.574  0.2320  0.3316 -0.8849
  757SOL    HW2 3073   0.733   1.578   1.558  1.0038 -0.6778 -0.7797
  757SOL    HW3 3074   0.582   1.576   1.547  0.8707  1.8002  0.1752
  757SOL    MW4 3075   0.657   1.537   1.568  0.4181  0.3922 -0.7312
  758SOL     OW 3076   0.421   1.936   1.621  0.1520  0.2906  0.1248
  758SOL    HW2 3077   0.423   1.942   1.717 -0.0470 -0.2968  0.1691
  758SOL    HW3 3078   0.360   2.005   1.594 -1.3897 -0.8838  0.5500
  758SOL    MW4 3079   0.413   1.946   1.630 -0.0777  0.0581  0.1868
  759SOL     OW 3080   0.200   2.070   1.508  0.2017  1.0139 -0.3300
  759SOL    HW2 3081   0.133   2.011   1.541  0.5268  0.0565 -1.3289
  759SOL    HW3 3082   0.197   2.059   1.413  1.7846  0.9292 -0.3920
  759SOL    MW4 3083   0.191   2.061   1.500  0.4534  0.8767 -0.4700
  760SOL     OW 3084   0.600   2.044   1.229  0.2619  0.0771 -0.3641
  760SOL    HW2 3085   0.681   1.997   1.212 -0.0236 -0.2980 -0.7043
  760SOL    HW3 3086   0.591   2.042   1.324  1.1176  0.9123 -0.2645
  760SOL    MW4 3087   0.609   2.037   1.239  0.3371  0.1378 -0.3959
  761SOL     OW 3088   0.688   2.324   1.604 -0.2835  0.3304  0.2600
  761SOL    HW2 3089   0.621   2.377   1.560  0.4049  0.9892 -0.0042
  761SOL    HW3 3090   0.687   2.241   1.557 -0.5311  0.5358 -0.1025
  761SOL    MW4 3091   0.679   2.320   1.592 -0.2252  0.4444  0.1774
  762SOL     OW 3092   0.460   2.472   1.502 -0.6776  0.0585 -0.3298
  762SOL    HW2 3093   0.467   2.554   1.550  0.4493 -0.5656  0.6055
  762SOL    HW3 3094   0.382   2.430   1.537 -0.1363 -0.1672  0.6438
  762SOL    MW4 3095   0.451   2.477   1.513 -0.4574 -0.0534 -0.0780
  763SOL     OW 3096   0.442   2.711   1.652 -0.0541 -0.8036  0.0409
  763SOL    HW2 3097   0.455   2.712   1.747 -1.6074  0.0379  0.2661
  763SOL    HW3 3098   0.508   2.770   1.617 -1.4299  1.2527  0.8779
  763SOL    MW4 3099   0.452   2.719   1.660 -0.4406 -0.4210  0.1810
  764SOL     OW 3100   0.649   2.838   1.499  0.7289 -0.0809  0.1248
  764SOL    HW2 3101   0.663   2.932   1.515 -3.1248  0.4856  0.5974
  764SOL    HW3 3102   0.649   2.830   1.404  3.3571 -0.0304  0.0876
  764SOL    MW4 3103   0.651   2.849   1.489  0.5672  0.0002  0.1824
  765SOL     OW 3104   0.678   3.090   1.606  0.0500 -0.3337  0.8039
  765SOL    HW2 3105   0.754   3.142   1.581 -0.8129  0.7379  0.3711
  765SOL    HW3 3106   0.603   3.147   1.589 -0.9978 -2.0974 -0.7722
  765SOL    MW4 3107   0.678   3.104   1.600 -0.2021 -0.4249  0.5388
  766SOL     OW 3108   0.450   3.224   1.517  0.5853 -0.1055  0.1202
  766SOL    HW2 3109   0.374   3.174   1.547  1.2028 -1.3095 -0.2683
  766SOL    HW3 3110   0.439   3.229   1.422  0.0559  1.2955  0.2567
  766SOL    MW4 3111   0.438   3.218   1.508  0.5969 -0.0796  0.0869
  767SOL     OW 3112   0.430   3.477   1.637  0.0860  0.4757 -0.2154
  767SOL    HW2 3113   0.430   3.394   1.591  1.5276  1.2722 -1.6866
  767SOL    HW3 3114   0.355   3.525   1.602 -0.4355  0.0179  0.2614
  767SOL    MW4 3115   0.420   3.473   1.626  0.2075  0.5202 -0.3465
  768SOL     OW 3116   0.631   3.602   1.511  0.0199 -0.2327  0.1748
  768SOL    HW2 3117   0.710   3.548   1.509 -0.2647 -0.6547  0.0662
  768SOL    HW3 3118   0.567   3.547   1.557 -0.2582  0.0358  0.1097
  768SOL    MW4 3119   0.633   3.587   1.517 -0.0544 -0.2530  0.1519
  769SOL     OW 3120   0.655   3.859   1.638 -0.6701  0.4510 -0.4219
  769SOL    HW2 3121   0.722   3.904   1.586 -0.8044  0.0226 -0.9684
  769SOL    HW3 3122   0.643   3.775   1.594 -0.2927 -0.1970  0.7101
  769SOL    MW4 3123   0.662   3.854   1.625 -0.6379  0.3090 -0.3445
  770SOL     OW 3124   0.416   3.979   1.510 -0.2805  0.6597 -0.0970
  770SOL    HW2 3125   0.428   3.971   1.416 -1.4778  0.1433 -0.2077
  770SOL    HW3 3126   0.493   3.935   1.547 -0.2784  0.0290 -0.8332
  770SOL    MW4 3127   0.428   3.972   1.503 -0.4382  0.5083 -0.2087
  771SOL     OW 3128   0.420   4.250   1.605 -0.0021 -0.3139 -0.2155
  771SOL    HW2 3129   0.404   4.161   1.574 -0.3536 -0.7927  1.3109
  771SOL    HW3 3130   0.349   4.302   1.566 -1.3046 -1.1780  0.9726
  771SOL    MW4 3131   0.409   4.245   1.595 -0.2203 -0.4911  0.1427
  772SOL     OW 3132   0.668   4.356   1.527  0.3813  0.1032 -0.5663
  772SOL    HW2 3133   0.579   4.329   1.551  0.8506 -0.7711  0.2185
  772SOL    HW3 3134   0.678   4.443   1.565  0.4299 -0.4691  0.7573
  772SOL    MW4 3135   0.657   4.364   1.535  0.4495 -0.0877 -0.2881
  773SOL     OW 3136   1.112   4.656   1.622  0.0602 -0.3332 -0.1519
  773SOL    HW2 3137   1.087   4.652   1.714  0.5207  0.7759  0.0306
  773SOL    HW3 3138   1.201   4.692   1.623  0.2813 -0.8321 -1.0049
  773SOL    MW4 3139   1.121   4.660   1.634  0.1502 -0.2527 -0.2403
  774SOL     OW 3140   0.911   0.116   1.478 -0.3707  0.0791 -0.6344
  774SOL    HW2 3141   0.904   0.200   1.523 -0.0830  0.3006 -1.0026
  774SOL    HW3 3142   0.983   0.071   1.523 -1.7791 -0.7796  0.8540
  774SOL    MW4 3143   0.920   0.121   1.490 -0.5186 -0.0050 -0.4866
  775SOL     OW 3144   0.890   0.357   1.624  0.4346 -0.0864 -0.1302
  775SOL    HW2 3145   0.878   0.353   1.719  0.8449  2.2898  0.0773
  775SOL    HW3 3146   0.814   0.405   1.593 -0.8198 -2.7667 -1.3066
  775SOL    MW4 3147   0.879   0.363   1.633  0.3232 -0.1265 -0.2581
  776SOL     OW 3148   1.121   0.481   1.506 -0.0863 -0.1822  0.3851
  776SOL    HW2 3149   1.136   0.566   1.547 -0.1214 -0.9239  1.9836
  776SOL    HW3 3150   1.047   0.444   1.554 -1.9920  0.1053 -2.2311
  776SOL    MW4 3151   1.113   0.487   1.518 -0.3425 -0.2421  0.2508
  777SOL     OW 3152   1.171   0.726   1.623  0.4117  0.2505  0.4820
  777SOL    HW2 3153   1.186   0.739   1.717 -0.8430  2.4600  0.4038
  777SOL    HW3 3154   1.241   0.774   1.580  0.0641  0.5617  0.2628
  777SOL    MW4 3155   1.182   0.734   1.630  0.2003  0.5830  0.4429
  778SOL     OW 3156   0.947   0.867   1.501  0.2563  0.3085  0.1759
  778SOL    HW2 3157   1.014   0.812   1.540 -0.6694 -0.3813  0.8213
  778SOL    HW3 3158   0.965   0.865   1.407  1.0055 -0.0426  0.3282
  778SOL    MW4 3159   0.958   0.860   1.494  0.2331  0.1712  0.2811
  779SOL     OW 3160   0.916   1.116   1.623 -0.1024 -0.3080 -0.3128
  779SOL    HW2 3161   0.914   1.035   1.572 -1.1384 -0.6956  0.3352
  779SOL    HW3 3162   0.841   1.166   1.592 -0.0351 -0.0194 -0.0147
  779SOL    MW4 3163   0.906   1.112   1.612 -0.2302 -0.3211 -0.1879
  780SOL     OW 3164   1.108   1.288   1.516  0.0907 -0.2675 -0.4144
  780SOL    HW2 3165   1.194   1.252   1.536  0.5329  0.3280 -1.2402
  780SOL    HW3 3166   1.047   1.227   1.558  0.9531  0.3215  1.7464
  780SOL    MW4 3167   1.111   1.275   1.524  0.2630 -0.1112 -0.2384
  781SOL     OW 3168   1.088   1.545   1.641 -0.2730  0.2094 -0.5953
  781SOL    HW2 3169   1.172   1.581   1.612 -0.7434  0.6141 -1.4675
  781SOL    HW3 3170   1.081   1.460   1.597  0.8894 -1.0435  1.5531
  781SOL    MW4 3171   1.098   1.539   1.631 -0.1819  0.0976 -0.4270
  782SOL     OW 3172   0.892   1.710   1.547 -0.2393 -0.2773  0.0777
  782SOL    HW2 3173   0.960   1.655   1.586 -0.4760 -0.7952 -0.2335
  782SOL    HW3 3174   0.899   1.694   1.453  1.4425  2.2401 -0.2717
  782SOL    MW4 3175   0.902   1.701   1.540 -0.0486 -0.0135 -0.0095
  783SOL     OW 3176   0.644   2.073   1.509 -0.3070 -0.0545 -0.6007
  783SOL    HW2 3177   0.720   2.033   1.552  0.2843  1.3152 -0.3727
  783SOL    HW3 3178   0.568   2.036   1.556  0.2613 -0.1934  0.2163
  783SOL    MW4 3179   0.644   2.063   1.521 -0.1540  0.1080 -0.4627
  784SOL     OW 3180   0.889   1.962   1.634 -0.1233  0.1815  0.2749
  784SOL    HW2 3181   0.891   1.870   1.608  0.1996 -0.0768  1.2075
  784SOL    HW3 3182   0.974   1.997   1.605 -0.8944  0.6156 -1.5739
  784SOL    MW4 3183   0.901   1.955   1.627 -0.1824  0.2047  0.1540
  785SOL     OW 3184   1.190   2.344   1.649 -1.0602  0.0772  0.0663
  785SOL    HW2 3185   1.259   2.371   1.588 -0.7157 -0.5530  0.1707
  785SOL    HW3 3186   1.114   2.397   1.625 -0.3374  1.2919  0.3983
  785SOL    MW4 3187   1.189   2.355   1.638 -0.9192  0.1545  0.1239
  786SOL     OW 3188   0.927   2.450   1.534  0.1027  0.0667  0.3615
  786SOL    HW2 3189   0.917   2.541   1.562 -0.7283 -0.0680  0.4982
  786SOL    HW3 3190   0.853   2.404   1.572  0.3790 -0.6236  0.0779
  786SOL    MW4 3191   0.916   2.456   1.542  0.0295 -0.0420  0.3421
  787SOL     OW 3192   0.881   2.724   1.591 -0.0146 -0.0691  0.0780
  787SOL    HW2 3193   0.869   2.736   1.685 -1.7451 -0.4468 -0.0615
  787SOL    HW3 3194   0.798   2.752   1.553 -0.0277 -1.6931 -1.1688
  787SOL    MW4 3195   0.868   2.729   1.598 -0.2447 -0.3331 -0.1049
  788SOL     OW 3196   1.123   2.838   1.473  0.0165  0.1760  0.1110
  788SOL    HW2 3197   1.130   2.911   1.533 -0.3789 -0.0982  0.4966
  788SOL    HW3 3198   1.039   2.797   1.495  0.1221 -0.2468 -0.2634
  788SOL    MW4 3199   1.113   2.842   1.484 -0.0218  0.0842  0.1125
  789SOL     OW 3200   1.126   3.068   1.645  0.6472 -0.0237  0.6043
  789SOL    HW2 3201   1.153   3.097   1.732  0.3125  2.8729 -0.1957
  789SOL    HW3 3202   1.189   3.108   1.585 -1.1278  0.8407 -0.7218
  789SOL    MW4 3203   1.138   3.077   1.649  0.3688  0.4723  0.3237
  790SOL     OW 3204   0.921   3.200   1.502  0.2630  0.3144  0.2325
  790SOL    HW2 3205   0.991   3.159   1.552  0.4590 -0.1809 -0.4513
  790SOL    HW3 3206   0.948   3.193   1.410 -0.6486  0.1759 -0.0355
  790SOL    MW4 3207   0.934   3.194   1.496  0.1686  0.2308  0.1069
  791SOL     OW 3208   0.882   3.475   1.536  0.3203  0.6957  0.0238
  791SOL    HW2 3209   0.963   3.525   1.525  0.7316 -0.1056 -0.7189
  791SOL    HW3 3210   0.910   3.383   1.530 -0.9212  0.4373 -2.5672
  791SOL    MW4 3211   0.897   3.469   1.533  0.2107  0.5558 -0.4160
  792SOL     OW 3212   1.102   3.652   1.506 -0.3850  0.2056 -0.1335
  792SOL    HW2 3213   1.162   3.584   1.536 -0.2753  0.0009 -0.8024
  792SOL    HW3 3214   1.111   3.651   1.410 -0.1541  1.3610 -0.1254
  792SOL    MW4 3215   1.111   3.643   1.497 -0.3402  0.3309 -0.2207
  793SOL     OW 3216   1.094   3.885   1.655  0.5065  0.0845 -0.0957
  793SOL    HW2 3217   1.162   3.944   1.622  0.5982 -0.3395 -0.6736
  793SOL    HW3 3218   1.094   3.812   1.593 -1.6397  0.8710 -1.0864
  793SOL    MW4 3219   1.103   3.883   1.642  0.2356  0.1321 -0.3027
  794SOL     OW 3220   0.860   3.981   1.512 -0.1071  0.1057 -0.6705
  794SOL    HW2 3221   0.861   4.073   1.539 -0.0878 -0.3329  0.8609
  794SOL    HW3 3222   0.927   3.939   1.566  0.2173 -0.7195 -1.6989
  794SOL    MW4 3223   0.869   3.988   1.522 -0.0618 -0.0613 -0.6042
  795SOL     OW 3224   0.901   4.224   1.616  0.3165  0.3320  0.2203
  795SOL    HW2 3225   0.921   4.215   1.709 -0.0873 -0.5100  0.2349
  795SOL    HW3 3226   0.821   4.275   1.613 -0.7550 -1.2923  0.4378
  795SOL    MW4 3227   0.893   4.229   1.628  0.1219  0.0072  0.2509
  796SOL     OW 3228   1.129   4.388   1.539  0.0640 -0.8158 -0.1400
  796SOL    HW2 3229   1.048   4.343   1.563  1.1582 -1.8975  1.6678
  796SOL    HW3 3230   1.116   4.477   1.571 -0.0208 -1.2576  1.1196
  796SOL    MW4 3231   1.116   4.393   1.547  0.1972 -1.0166  0.2646
  797SOL     OW 3232   1.619   4.618   1.622 -0.0168 -0.1372  0.2303
  797SOL    HW2 3233   1.617   4.618   1.718 -0.5605 -2.3772  0.2341
  797SOL    HW3 3234   1.537   4.662   1.597 -0.6291 -0.9333  0.8022
  797SOL    MW4 3235   1.608   4.624   1.632 -0.1694 -0.5379  0.3061
  798SOL     OW 3236   1.372   0.097   1.558 -0.5273 -0.2543  0.5349
  798SOL    HW2 3237   1.363   0.187   1.590 -0.1729 -0.2666  0.6666
  798SOL    HW3 3238   1.373   0.105   1.462 -1.0093 -0.1660  0.5340
  798SOL    MW4 3239   1.371   0.110   1.549 -0.5441 -0.2442  0.5521
  799SOL     OW 3240   1.345   0.356   1.631  0.4675 -0.1606 -0.1800
  799SOL    HW2 3241   1.403   0.427   1.606  0.9957 -0.8111 -0.8074
  799SOL    HW3 3242   1.257   0.387   1.607  0.5619  0.7735  0.6734
  799SOL    MW4 3243   1.341   0.369   1.625  0.5497 -0.1232 -0.1502
  800SOL     OW 3244   1.548   0.531   1.552  0.0358 -0.2852  0.2072
  800SOL    HW2 3245   1.626   0.493   1.593  0.2062 -0.5469 -0.3554
  800SOL    HW3 3246   1.560   0.516   1.458 -0.1825  0.6205  0.0264
  800SOL    MW4 3247   1.560   0.524   1.545  0.0296 -0.2003  0.1092
  801SOL     OW 3248   1.630   0.786   1.597 -0.1141 -0.2910 -0.3668
  801SOL    HW2 3249   1.615   0.799   1.690 -0.1951 -0.3097 -0.3771
  801SOL    HW3 3250   1.604   0.695   1.581  0.7605 -0.5717 -0.2318
  801SOL    MW4 3251   1.625   0.776   1.607 -0.0093 -0.3305 -0.3506
  802SOL     OW 3252   1.369   0.889   1.500  0.2024 -0.0829  0.0367
  802SOL    HW2 3253   1.453   0.852   1.526  0.6032  0.0258 -1.0770
  802SOL    HW3 3254   1.369   0.885   1.405 -0.8474  0.3797  0.0034
  802SOL    MW4 3255   1.380   0.884   1.491  0.1167 -0.0076 -0.1148
  803SOL     OW 3256   1.341   1.148   1.586 -0.2636 -0.3427 -0.0349
  803SOL    HW2 3257   1.354   1.143   1.681  0.7846 -0.6843 -0.1919
  803SOL    HW3 3258   1.344   1.058   1.556 -0.0307 -0.1951 -0.4637
  803SOL    MW4 3259   1.343   1.136   1.595 -0.0945 -0.3685 -0.1121
  804SOL     OW 3260   1.563   1.297   1.519  0.0298 -0.0694 -0.0034
  804SOL    HW2 3261   1.485   1.243   1.529  0.1560  0.1040  2.0234
  804SOL    HW3 3262   1.575   1.303   1.424 -2.2325 -0.3369 -0.3428
  804SOL    MW4 3263   1.554   1.290   1.507 -0.2519 -0.0818  0.2192
  805SOL     OW 3264   1.549   1.549   1.643 -0.4257  0.1074 -0.1438
  805SOL    HW2 3265   1.567   1.537   1.736  3.4431  1.7509 -0.5708
  805SOL    HW3 3266   1.553   1.461   1.606 -2.1595 -0.5791  1.2070
  805SOL    MW4 3267   1.552   1.536   1.651 -0.1440  0.2335 -0.0221
  806SOL     OW 3268   1.308   1.655   1.527 -0.0224 -0.6644 -0.0862
  806SOL    HW2 3269   1.389   1.622   1.564  0.7930 -0.1522 -1.3848
  806SOL    HW3 3270   1.318   1.645   1.432 -1.0359  0.3745 -0.3233
  806SOL    MW4 3271   1.320   1.650   1.519 -0.0485 -0.4598 -0.2887
  807SOL     OW 3272   1.340   1.934   1.586 -0.1741  0.4204 -0.0125
  807SOL    HW2 3273   1.339   1.916   1.680  0.6416 -0.6492 -0.1976
  807SOL    HW3 3274   1.322   1.849   1.546  0.4487  0.6773 -0.8410
  807SOL    MW4 3275   1.337   1.920   1.593  0.0157  0.3132 -0.1463
  808SOL     OW 3276   1.569   2.045   1.492  0.2008 -0.1170  0.1485
  808SOL    HW2 3277   1.493   2.000   1.528 -0.6645  2.0448  1.1339
  808SOL    HW3 3278   1.559   2.038   1.397 -1.5909  0.7113  0.2626
  808SOL    MW4 3279   1.558   2.039   1.485 -0.1497  0.2775  0.2935
  809SOL     OW 3280   1.795   2.476   1.514 -0.4609  0.0881 -0.0265
  809SOL    HW2 3281   1.782   2.464   1.420  1.0755  0.4329 -0.2983
  809SOL    HW3 3282   1.874   2.426   1.534 -1.9154 -1.6798  1.4827
  809SOL    MW4 3283   1.804   2.468   1.505 -0.4501 -0.0997  0.1367
  810SOL     OW 3284   1.362   2.455   1.476 -0.0788 -0.2721 -0.3166
  810SOL    HW2 3285   1.347   2.516   1.548 -0.7729  1.1001 -1.5944
  810SOL    HW3 3286   1.438   2.403   1.504 -0.7453 -0.2341  1.6767
  810SOL    MW4 3287   1.370   2.456   1.489 -0.2582 -0.0858 -0.2222
  811SOL     OW 3288   1.300   2.703   1.633  0.4179  0.0571  0.1322
  811SOL    HW2 3289   1.384   2.742   1.610 -0.1095  1.6678  0.8525
  811SOL    HW3 3290   1.236   2.752   1.581 -0.0976 -0.9694 -0.2036
  811SOL    MW4 3291   1.302   2.715   1.623  0.2804  0.1340  0.1830
  812SOL     OW 3292   1.542   2.800   1.527 -0.2223 -0.1845  0.1046
  812SOL    HW2 3293   1.622   2.761   1.562  0.1124 -1.0024 -1.5193
  812SOL    HW3 3294   1.555   2.800   1.432 -0.9485  2.3312 -0.0255
  812SOL    MW4 3295   1.555   2.795   1.519 -0.2741  0.0393 -0.1268
  813SOL     OW 3296   1.509   3.070   1.611  0.1861 -0.3809 -0.3265
  813SOL    HW2 3297   1.595   3.108   1.595  0.4524 -0.9070 -0.1622
  813SOL    HW3 3298   1.519   2.978   1.586 -0.2778 -0.4803 -0.1454
  813SOL    MW4 3299   1.522   3.063   1.606  0.1599 -0.4635 -0.2811
  814SOL     OW 3300   1.310   3.195   1.463 -0.1729  0.3127 -0.5294
  814SOL    HW2 3301   1.387   3.169   1.513  0.8308  0.9447 -1.7081
  814SOL    HW3 3302   1.288   3.283   1.495 -0.3711  0.1599 -0.2429
  814SOL    MW4 3303   1.317   3.204   1.474 -0.0666  0.3755 -0.6472
  815SOL     OW 3304   1.295   3.458   1.557 -0.0883  0.5278  0.3187
  815SOL    HW2 3305   1.303   3.453   1.653 -0.2316  0.8292  0.3481
  815SOL    HW3 3306   1.382   3.483   1.527  0.1326 -0.2192  0.3167
  815SOL    MW4 3307   1.308   3.460   1.566 -0.0780  0.4692  0.3222
  816SOL     OW 3308   1.342   3.487   1.077 -0.1301  0.5410 -0.2378
  816SOL    HW2 3309   1.375   3.407   1.118  2.1022  1.3045 -0.4843
  816SOL    HW3 3310   1.270   3.515   1.134 -1.0593 -1.7175 -0.2468
  816SOL    MW4 3311   1.336   3.480   1.090  0.0416  0.3440 -0.2716
  817SOL     OW 3312   1.536   3.854   1.594 -0.0131  0.1767  0.1578
  817SOL    HW2 3313   1.547   3.867   1.688  1.0278  1.7115 -0.1389
  817SOL    HW3 3314   1.463   3.912   1.570  0.8080  1.0839 -0.2241
  817SOL    MW4 3315   1.528   3.864   1.603  0.2325  0.4988  0.0684
  818SOL     OW 3316   1.311   4.031   1.533 -0.3528  0.0283  0.3831
  818SOL    HW2 3317   1.345   4.116   1.559 -0.6115  0.2579 -0.0197
  818SOL    HW3 3318   1.334   4.023   1.440 -2.7607  0.8852 -0.3281
  818SOL    MW4 3319   1.318   4.041   1.524 -0.7046  0.1717  0.2360
  819SOL     OW 3320   1.374   4.283   1.657  0.1371  0.2727 -0.1527
  819SOL    HW2 3321   1.443   4.314   1.599  0.3028  0.2844  0.0504
  819SOL    HW3 3322   1.297   4.334   1.631  0.2037  0.2560 -0.3815
  819SOL    MW4 3323   1.373   4.294   1.646  0.1676  0.2723 -0.1560
  820SOL     OW 3324   1.581   4.390   1.478 -0.1946  0.2232 -0.7570
  820SOL    HW2 3325   1.653   4.329   1.493 -0.9030 -0.5805 -0.5968
  820SOL    HW3 3326   1.599   4.464   1.536 -0.3525 -0.7030  0.4873
  820SOL    MW4 3327   1.593   4.392   1.488 -0.3089 -0.0057 -0.5717
  821SOL     OW 3328   2.028   4.633   1.597 -0.7626 -0.0813  0.6952
  821SOL    HW2 3329   2.028   4.632   1.692 -0.8470  0.2966  0.7005
  821SOL    HW3 3330   1.948   4.681   1.573 -0.5696  0.1110  0.4369
  821SOL    MW4 3331   2.017   4.639   1.606 -0.7482 -0.0067  0.6618
  822SOL     OW 3332   1.804   0.114   1.517 -0.0344 -0.2619  0.2150
  822SOL    HW2 3333   1.735   0.054   1.545  0.0636 -0.0163  0.9876
  822SOL    HW3 3334   1.800   0.112   1.421 -1.3126 -0.0073  0.2641
  822SOL    MW4 3335   1.795   0.106   1.508 -0.1903 -0.1959  0.3235
  823SOL     OW 3336   1.787   0.380   1.614  0.3893 -0.1287  0.1055
  823SOL    HW2 3337   1.869   0.422   1.587 -0.1554  0.9637  0.0977
  823SOL    HW3 3338   1.796   0.289   1.587  0.7857  0.4289 -1.7063
  823SOL    MW4 3339   1.799   0.374   1.607  0.3698  0.0890 -0.1346
  824SOL     OW 3340   2.015   0.487   1.499 -0.0237  0.2510 -0.6072
  824SOL    HW2 3341   2.091   0.437   1.528  0.3633  0.8862 -0.5127
  824SOL    HW3 3342   2.029   0.575   1.533 -0.8582  0.3484 -0.4975
  824SOL    MW4 3343   2.027   0.492   1.507 -0.0825  0.3477 -0.5803
  825SOL     OW 3344   2.075   0.741   1.573 -0.0289  0.3738  0.2213
  825SOL    HW2 3345   2.155   0.788   1.550 -0.6662  2.1664  1.5295
  825SOL    HW3 3346   2.005   0.802   1.554 -1.0340 -0.7909  0.0955
  825SOL    MW4 3347   2.076   0.755   1.568 -0.2458  0.4566  0.3773
  826SOL     OW 3348   1.864   0.909   1.516 -0.0120  0.0580 -0.2202
  826SOL    HW2 3349   1.851   0.992   1.563  0.4200 -0.7333  1.3225
  826SOL    HW3 3350   1.794   0.852   1.548  0.3518 -0.5324 -0.4641
  826SOL    MW4 3351   1.853   0.913   1.526  0.0930 -0.1243 -0.0488
  827SOL     OW 3352   1.800   1.157   1.603 -0.2545 -0.2483 -0.4157
  827SOL    HW2 3353   1.878   1.206   1.575 -0.0708 -0.8672 -0.9779
  827SOL    HW3 3354   1.727   1.204   1.563 -0.3109  1.1807  1.2487
  827SOL    MW4 3355   1.801   1.170   1.594 -0.2378 -0.1415 -0.2702
  828SOL     OW 3356   2.028   1.312   1.504  0.4700 -0.0903 -0.3072
  828SOL    HW2 3357   2.041   1.404   1.526  0.3615 -0.5762  1.8610
  828SOL    HW3 3358   1.990   1.313   1.416  0.7259  1.9175 -0.3999
  828SOL    MW4 3359   2.024   1.324   1.495  0.4895  0.1104 -0.0333
  829SOL     OW 3360   2.032   1.563   1.600  0.4990  0.2253  0.7910
  829SOL    HW2 3361   2.086   1.642   1.590  0.3626  0.0505 -1.7793
  829SOL    HW3 3362   1.942   1.595   1.595  0.4405 -0.0219  0.1787
  829SOL    MW4 3363   2.027   1.577   1.598  0.4735  0.1696  0.3711
  830SOL     OW 3364   1.783   1.655   1.529  0.6164 -0.4191 -0.2997
  830SOL    HW2 3365   1.710   1.600   1.558  1.6800 -1.3033  0.7511
  830SOL    HW3 3366   1.780   1.650   1.434 -0.9511 -0.1079 -0.2820
  830SOL    MW4 3367   1.773   1.647   1.521  0.5499 -0.4946 -0.1588
  831SOL     OW 3368   1.781   1.937   1.652 -0.2626 -0.1258 -0.1941
  831SOL    HW2 3369   1.711   1.981   1.603 -0.1483 -2.0236 -2.0900
  831SOL    HW3 3370   1.771   1.844   1.631  2.1240 -0.5582  0.4163
  831SOL    MW4 3371   1.770   1.931   1.643  0.0672 -0.4332 -0.3637
  832SOL     OW 3372   1.998   2.067   1.500  0.2002 -0.6942  0.0405
  832SOL    HW2 3373   2.070   2.010   1.527 -0.0847 -0.8832  0.3900
  832SOL    HW3 3374   1.929   2.050   1.563 -0.2751 -0.7599 -0.4945
  832SOL    MW4 3375   1.999   2.057   1.512  0.0999 -0.7279  0.0161
  833SOL     OW 3376   2.011   2.326   1.599  0.1288 -0.0104 -0.3312
  833SOL    HW2 3377   2.019   2.236   1.566  1.3216  0.0397 -0.1961
  833SOL    HW3 3378   2.011   2.317   1.694 -1.0821  0.0376 -0.3084
  833SOL    MW4 3379   2.012   2.313   1.607  0.1264  0.0026 -0.3103
  834SOL     OW 3380   1.794   2.723   1.613 -0.3025 -0.1566  0.0062
  834SOL    HW2 3381   1.882   2.759   1.599 -0.0531  0.0470  1.9315
  834SOL    HW3 3382   1.794   2.640   1.566 -0.0272  1.1376 -2.3466
  834SOL    MW4 3383   1.806   2.717   1.605 -0.2333  0.0412 -0.0502
  835SOL     OW 3384   2.052   2.819   1.541  0.1015  0.4637 -0.4973
  835SOL    HW2 3385   2.029   2.908   1.570 -1.4163  0.1256 -0.6151
  835SOL    HW3 3386   2.044   2.822   1.446 -1.7608 -0.2665 -0.3862
  835SOL    MW4 3387   2.048   2.831   1.532 -0.3443  0.3228 -0.4982
  836SOL     OW 3388   1.738   3.194   1.544 -0.3948 -0.3487 -0.1763
  836SOL    HW2 3389   1.823   3.151   1.548 -0.0748  0.3284  0.4431
  836SOL    HW3 3390   1.748   3.272   1.599 -1.0705  0.3094 -0.9705
  836SOL    MW4 3391   1.750   3.199   1.551 -0.4417 -0.1724 -0.1994
  837SOL     OW 3392   1.775   3.200   1.259 -0.0633 -0.0463  0.3922
  837SOL    HW2 3393   1.778   3.289   1.222 -2.3070 -0.4068 -0.7715
  837SOL    HW3 3394   1.754   3.213   1.351  1.1823  0.6854  0.5873
  837SOL    MW4 3395   1.773   3.213   1.266 -0.1950  0.0029  0.2644
  838SOL     OW 3396   1.760   3.446   1.142 -0.2654  0.0218 -0.3440
  838SOL    HW2 3397   1.683   3.491   1.177 -0.7793 -1.4126  0.4148
  838SOL    HW3 3398   1.834   3.500   1.171 -0.9139  0.8667 -0.2239
  838SOL    MW4 3399   1.759   3.459   1.151 -0.4188 -0.0560 -0.2279
  839SOL     OW 3400   1.765   3.475   1.624 -0.2400 -0.4597 -0.2800
  839SOL    HW2 3401   1.760   3.480   1.719  0.1953  0.1624 -0.2855
  839SOL    HW3 3402   1.702   3.539   1.593 -1.6152 -1.8512 -0.4333
  839SOL    MW4 3403   1.756   3.484   1.632 -0.3641 -0.5612 -0.3010
  840SOL     OW 3404   1.970   3.600   1.489  0.5000  0.3732  0.0432
  840SOL    HW2 3405   2.049   3.552   1.511  0.4634  0.5901  0.6469
  840SOL    HW3 3406   1.900   3.558   1.539  0.2080  0.1100 -0.5704
  840SOL    MW4 3407   1.971   3.588   1.498  0.4567  0.3674  0.0418
  841SOL     OW 3408   2.028   3.864   1.595 -0.3356  0.5372 -0.2631
  841SOL    HW2 3409   2.115   3.890   1.565 -0.3962  1.2560  0.1646
  841SOL    HW3 3410   2.014   3.777   1.557  0.3098  0.6855 -0.8432
  841SOL    MW4 3411   2.038   3.856   1.586 -0.2582  0.6518 -0.2831
  842SOL     OW 3412   1.794   3.957   1.475  0.0070  0.4193  0.3336
  842SOL    HW2 3413   1.879   3.924   1.505 -0.5309  0.2495  1.7028
  842SOL    HW3 3414   1.730   3.903   1.521 -0.8777 -1.5315 -3.0143
  842SOL    MW4 3415   1.797   3.945   1.485 -0.1807  0.1392  0.0726
  843SOL     OW 3416   1.770   4.203   1.607 -0.1510  0.4050 -0.3562
  843SOL    HW2 3417   1.856   4.241   1.589  0.0306  0.2934  0.2820
  843SOL    HW3 3418   1.776   4.113   1.574  0.7631 -0.3609  1.8495
  843SOL    MW4 3419   1.782   4.196   1.600 -0.0066  0.2890  0.0191
  844SOL     OW 3420   1.999   4.346   1.525  0.1957  0.1649  0.0930
  844SOL    HW2 3421   2.082   4.309   1.553  0.3126 -0.1752 -0.6811
  844SOL    HW3 3422   2.007   4.440   1.540  0.0587 -0.0592  1.6707
  844SOL    MW4 3423   2.011   4.354   1.531  0.1931  0.0901  0.1990
  845SOL     OW 3424   2.256   0.098   1.520 -0.3286  0.3007 -0.0623
  845SOL    HW2 3425   2.178   0.052   1.552  1.9974 -2.6145  1.7316
  845SOL    HW3 3426   2.249   0.091   1.424 -2.5550  0.6574  0.0376
  845SOL    MW4 3427   2.245   0.091   1.511 -0.3154 -0.0369  0.1876
  846SOL     OW 3428   2.200   0.096   1.249  0.5045  0.0554 -0.9221
  846SOL    HW2 3429   2.130   0.046   1.207 -0.5985 -0.4269  1.3950
  846SOL    HW3 3430   2.193   0.183   1.212 -2.0311  0.2897  0.0039
  846SOL    MW4 3431   2.190   0.101   1.239  0.0243  0.0227 -0.4941
  847SOL     OW 3432   2.231   0.374   1.619 -0.3381  0.3872  0.4588
  847SOL    HW2 3433   2.251   0.351   1.710  0.6001  0.5081  0.2837
  847SOL    HW3 3434   2.240   0.291   1.572 -1.6529  0.1459  0.6013
  847SOL    MW4 3435   2.235   0.360   1.625 -0.3879  0.3713  0.4544
  848SOL     OW 3436   2.450   0.499   1.474  0.2405 -0.1727  0.1327
  848SOL    HW2 3437   2.525   0.451   1.510  0.3875  0.0178  0.0857
  848SOL    HW3 3438   2.373   0.451   1.505  0.3543  0.1467  0.9276
  848SOL    MW4 3439   2.450   0.486   1.483  0.2749 -0.1055  0.2314
  849SOL     OW 3440   2.487   0.729   1.656  0.2278 -0.0765 -0.1318
  849SOL    HW2 3441   2.420   0.789   1.623  0.8074  0.0856 -1.0170
  849SOL    HW3 3442   2.474   0.649   1.606  0.7918  0.0057 -0.4127
  849SOL    MW4 3443   2.476   0.727   1.645  0.3786 -0.0442 -0.2857
  850SOL     OW 3444   2.290   0.872   1.509  0.5839  0.0532 -0.5928
  850SOL    HW2 3445   2.279   0.960   1.543  0.3958  0.2880 -1.2607
  850SOL    HW3 3446   2.267   0.878   1.417 -0.7079 -0.9799 -0.3541
  850SOL    MW4 3447   2.286   0.884   1.502  0.3889 -0.0521 -0.6495
  851SOL     OW 3448   2.212   1.131   1.587  0.1925 -0.1665 -0.2261
  851SOL    HW2 3449   2.200   1.121   1.682 -0.1392 -1.3688 -0.3937
  851SOL    HW3 3450   2.150   1.200   1.563  1.7975  1.6892  0.7645
  851SOL    MW4 3451   2.202   1.139   1.596  0.3607 -0.0803 -0.1173
  852SOL     OW 3452   2.459   1.259   1.524  0.4671  0.2102  0.4884
  852SOL    HW2 3453   2.376   1.215   1.544  1.3809 -1.8321 -0.2033
  852SOL    HW3 3454   2.458   1.269   1.429  0.5722  1.1106  0.5752
  852SOL    MW4 3455   2.448   1.255   1.514  0.6015  0.0597  0.4085
  853SOL     OW 3456   2.410   1.526   1.633  0.3454 -0.3288 -0.2174
  853SOL    HW2 3457   2.496   1.564   1.616 -0.0439  0.5859 -0.1471
  853SOL    HW3 3458   2.413   1.440   1.590  2.0114 -1.1881  1.5318
  853SOL    MW4 3459   2.422   1.520   1.625  0.5138 -0.3215  0.0225
  854SOL     OW 3460   2.275   1.703   1.489  0.0627 -0.0535  0.2083
  854SOL    HW2 3461   2.327   1.635   1.533 -0.6079 -1.1022 -0.5788
  854SOL    HW3 3462   2.287   1.686   1.396 -0.2902  0.7765  0.0100
  854SOL    MW4 3463   2.283   1.692   1.483 -0.0722 -0.0824  0.0782
  855SOL     OW 3464   2.210   1.938   1.619 -0.0412 -0.2653 -0.5146
  855SOL    HW2 3465   2.241   1.855   1.585 -0.3132 -0.8684  0.6862
  855SOL    HW3 3466   2.218   1.930   1.714 -3.0518 -0.1359 -0.1863
  855SOL    MW4 3467   2.215   1.926   1.627 -0.4742 -0.3278 -0.3127
  856SOL     OW 3468   2.475   2.052   1.578  0.0728 -0.3671  0.2959
  856SOL    HW2 3469   2.396   2.017   1.618  0.4674 -0.9526  0.5661
  856SOL    HW3 3470   2.453   2.063   1.486 -0.9680  1.3454  0.7157
  856SOL    MW4 3471   2.462   2.049   1.571 -0.0126 -0.2184  0.3870
  857SOL     OW 3472   2.443   2.341   1.608  0.3045  0.0914  0.0470
  857SOL    HW2 3473   2.415   2.333   1.699 -0.9677 -0.3134 -0.3559
  857SOL    HW3 3474   2.435   2.252   1.573  2.6928 -0.1617  0.0524
  857SOL    MW4 3475   2.438   2.328   1.615  0.4518  0.0045 -0.0054
  858SOL     OW 3476   2.225   2.455   1.472 -0.3141  0.1302 -1.0428
  858SOL    HW2 3477   2.147   2.414   1.510  0.8286 -1.3333 -0.1887
  858SOL    HW3 3478   2.297   2.396   1.496  1.1055  1.6184 -1.5241
  858SOL    MW4 3479   2.225   2.441   1.480  0.0236  0.1333 -0.9937
  859SOL     OW 3480   2.446   2.813   1.525  0.0883 -0.2300 -0.1988
  859SOL    HW2 3481   2.449   2.899   1.566  1.0734 -0.7169  0.7845
  859SOL    HW3 3482   2.379   2.766   1.574 -0.0526 -0.2015 -0.3662
  859SOL    MW4 3483   2.438   2.818   1.537  0.1996 -0.2902 -0.0912
  860SOL     OW 3484   2.208   3.229   1.524 -0.0246 -0.5702 -0.3966
  860SOL    HW2 3485   2.228   3.322   1.531  1.1214 -0.6415 -2.4168
  860SOL    HW3 3486   2.202   3.212   1.430 -0.2833 -2.5209 -0.0569
  860SOL    MW4 3487   2.210   3.239   1.512  0.0927 -0.8373 -0.6182
  861SOL     OW 3488   1.996   3.085   1.612 -0.2089 -0.1114  0.1489
  861SOL    HW2 3489   2.073   3.136   1.587 -1.9393  3.1655  1.2416
  861SOL    HW3 3490   1.990   3.095   1.707 -1.4940 -1.0727  0.1776
  861SOL    MW4 3491   2.005   3.093   1.621 -0.6065  0.1941  0.2967
  862SOL     OW 3492   2.211   3.173   1.248 -0.3443 -0.8531 -0.3611
  862SOL    HW2 3493   2.139   3.131   1.200 -0.6353  0.7256 -1.3413
  862SOL    HW3 3494   2.289   3.149   1.198 -0.4483 -0.6928 -0.6045
  862SOL    MW4 3495   2.212   3.164   1.235 -0.3967 -0.6239 -0.5225
  863SOL     OW 3496   2.238   3.497   1.574  0.1308 -0.0672 -0.2751
  863SOL    HW2 3497   2.258   3.491   1.668  1.4094 -0.4086 -0.5574
  863SOL    HW3 3498   2.318   3.532   1.535 -0.6903  0.8648 -1.1393
  863SOL    MW4 3499   2.251   3.501   1.581  0.1910  0.0107 -0.4264
  864SOL     OW 3500   2.479   3.583   1.483 -0.3893  0.0668  0.2310
  864SOL    HW2 3501   2.551   3.533   1.521 -0.3626  0.3192  0.5195
  864SOL    HW3 3502   2.478   3.665   1.533 -0.7147  0.1682  0.0606
  864SOL    MW4 3503   2.488   3.587   1.495 -0.4284  0.1135  0.2468
  865SOL     OW 3504   2.502   3.821   1.620  0.4057  0.3456 -0.1837
  865SOL    HW2 3505   2.493   3.840   1.714 -1.0169  0.4840 -0.3373
  865SOL    HW3 3506   2.547   3.897   1.584  0.3281  0.6049  0.2632
  865SOL    MW4 3507   2.507   3.833   1.628  0.2079  0.3982 -0.1450
  866SOL     OW 3508   2.275   3.977   1.507  0.0369  0.2030  0.3750
  866SOL    HW2 3509   2.350   3.931   1.544  0.9185  2.0943  1.0415
  866SOL    HW3 3510   2.279   3.959   1.413  2.0700  1.2610  0.2258
  866SOL    MW4 3511   2.285   3.969   1.499  0.4215  0.5920  0.4432
  867SOL     OW 3512   2.248   4.233   1.565  0.2554  0.0590 -0.5777
  867SOL    HW2 3513   2.330   4.271   1.536 -0.8279  1.6566 -1.6280
  867SOL    HW3 3514   2.256   4.140   1.544  1.5474  0.3091 -1.2302
  867SOL    MW4 3515   2.260   4.225   1.558  0.2832  0.3028 -0.8023
  868SOL     OW 3516   2.460   4.606   1.610  0.0180  0.3061  0.0340
  868SOL    HW2 3517   2.461   4.614   1.705  0.4357 -0.1767  0.0721
  868SOL    HW3 3518   2.390   4.664   1.582  0.0931  0.6822  0.6164
  868SOL    MW4 3519   2.451   4.615   1.619  0.0832  0.2918  0.1159
  869SOL     OW 3520   2.924   0.013   1.575  0.2700  0.1707  0.5317
  869SOL    HW2 3521   2.933   0.025   1.670 -0.7405  2.6890  0.3651
  869SOL    HW3 3522   2.832   0.032   1.558  0.1695 -1.4257 -0.8305
  869SOL    MW4 3523   2.913   0.017   1.586  0.1235  0.2923  0.3299
  870SOL     OW 3524   2.660   0.085   1.515 -0.2459 -0.7503 -0.2796
  870SOL    HW2 3525   2.659   0.176   1.544 -0.4142 -1.0015  0.5343
  870SOL    HW3 3526   2.587   0.045   1.562  0.0619 -1.3907 -0.3424
  870SOL    MW4 3527   2.650   0.092   1.525 -0.2275 -0.8680 -0.1806
  871SOL     OW 3528   2.688   0.380   1.584 -0.4565  0.2190  0.1111
  871SOL    HW2 3529   2.707   0.383   1.678  0.3268  0.1207 -0.0354
  871SOL    HW3 3530   2.772   0.401   1.543 -0.8431  0.4471 -0.5635
  871SOL    MW4 3531   2.702   0.383   1.591 -0.4044  0.2362  0.0027
  872SOL     OW 3532   2.936   0.522   1.230  0.1300  0.1986 -0.1071
  872SOL    HW2 3533   2.927   0.608   1.190 -1.1979  0.4122  0.6114
  872SOL    HW3 3534   2.855   0.476   1.206 -0.0860 -0.1285  1.1997
  872SOL    MW4 3535   2.924   0.527   1.221 -0.0739  0.1836  0.1600
  873SOL     OW 3536   2.930   0.740   1.628  0.3096  0.1029 -0.1551
  873SOL    HW2 3537   2.936   0.734   1.724 -0.0718  2.5551  0.0679
  873SOL    HW3 3538   2.842   0.774   1.612  0.5885  0.2821 -1.3345
  873SOL    MW4 3539   2.919   0.744   1.639  0.2959  0.4501 -0.2812
  874SOL     OW 3540   2.697   0.864   1.553  0.1160 -0.1559 -0.2869
  874SOL    HW2 3541   2.629   0.809   1.592  0.1280  0.1236  0.1287
  874SOL    HW3 3542   2.681   0.858   1.459  0.3567 -1.1804 -0.2641
  874SOL    MW4 3543   2.686   0.856   1.545  0.1493 -0.2542 -0.2291
  875SOL     OW 3544   2.700   1.128   1.634 -0.2468  0.0587  0.1768
  875SOL    HW2 3545   2.709   1.038   1.604  0.3797 -0.3076  1.4326
  875SOL    HW3 3546   2.625   1.162   1.585  0.1287 -0.8234 -1.0357
  875SOL    MW4 3547   2.691   1.121   1.623 -0.1149 -0.1060  0.1826
  876SOL     OW 3548   2.914   1.247   1.493 -0.2059 -0.4910  0.2967
  876SOL    HW2 3549   2.992   1.221   1.541 -0.6927 -1.0967  0.7757
  876SOL    HW3 3550   2.841   1.209   1.543 -0.8848  1.1918  0.6027
  876SOL    MW4 3551   2.914   1.238   1.506 -0.3595 -0.3489  0.4004
  877SOL     OW 3552   3.103   1.670   1.589  0.2283  0.5477  0.1154
  877SOL    HW2 3553   3.037   1.600   1.587 -0.4321  1.1937 -2.2300
  877SOL    HW3 3554   3.186   1.624   1.602 -0.2426 -0.6761 -1.0058
  877SOL    MW4 3555   3.105   1.655   1.590  0.0794  0.4715 -0.3419
  878SOL     OW 3556   2.898   1.494   1.615  0.1846 -0.1011 -0.1667
  878SOL    HW2 3557   2.822   1.547   1.591 -0.5921 -1.1994 -0.1210
  878SOL    HW3 3558   2.883   1.410   1.573  0.5692 -0.8540  1.1919
  878SOL    MW4 3559   2.886   1.490   1.606  0.1328 -0.3453  0.0185
  879SOL     OW 3560   2.703   1.910   1.645  0.1626 -0.1899 -0.4288
  879SOL    HW2 3561   2.701   1.904   1.741  1.3348  0.0600 -0.3757
  879SOL    HW3 3562   2.624   1.959   1.622 -0.4023 -0.7060  0.3659
  879SOL    MW4 3563   2.692   1.915   1.655  0.2427 -0.2251 -0.3170
  880SOL     OW 3564   2.897   2.073   1.540  0.1603  0.4822 -0.0029
  880SOL    HW2 3565   2.886   2.157   1.585  1.2990 -0.2824  1.7515
  880SOL    HW3 3566   2.824   2.019   1.572 -0.3439  0.6608 -0.8300
  880SOL    MW4 3567   2.886   2.077   1.550  0.2439  0.4048  0.1194
  881SOL     OW 3568   2.896   2.332   1.634 -0.0953 -0.2834 -0.1964
  881SOL    HW2 3569   2.890   2.329   1.730  1.9662 -0.4152 -0.0427
  881SOL    HW3 3570   2.810   2.362   1.605 -0.1667  1.5497  1.7911
  881SOL    MW4 3571   2.884   2.335   1.643  0.1671 -0.0589  0.0861
  882SOL     OW 3572   2.701   2.720   1.604 -0.3175  0.2838 -0.1241
  882SOL    HW2 3573   2.626   2.754   1.555  0.4087  0.8043 -0.8746
  882SOL    HW3 3574   2.775   2.771   1.574  0.1723  0.4843  1.4026
  882SOL    MW4 3575   2.701   2.731   1.594 -0.1569  0.3788 -0.0217
  883SOL     OW 3576   2.672   2.440   1.524  0.1273 -0.2260 -0.8175
  883SOL    HW2 3577   2.677   2.528   1.560  0.0130 -0.2309 -0.7887
  883SOL    HW3 3578   2.591   2.403   1.561 -0.2537 -0.0536 -1.4631
  883SOL    MW4 3579   2.662   2.446   1.533  0.0620 -0.2041 -0.8990
  884SOL     OW 3580   2.906   2.847   1.498 -0.0259 -0.0812 -0.7926
  884SOL    HW2 3581   2.971   2.799   1.550 -1.1614 -0.4841  0.2840
  884SOL    HW3 3582   2.912   2.937   1.530  0.8078  0.1160 -1.5051
  884SOL    MW4 3583   2.915   2.853   1.509 -0.0658 -0.1085 -0.7447
  885SOL     OW 3584   2.914   3.083   1.626 -0.3805 -0.8882 -0.4489
  885SOL    HW2 3585   2.922   3.079   1.722 -0.0235 -1.2911 -0.4931
  885SOL    HW3 3586   2.989   3.136   1.599  0.1380 -1.6874 -0.5899
  885SOL    MW4 3587   2.925   3.090   1.635 -0.2649 -1.0469 -0.4733
  886SOL     OW 3588   2.663   3.192   1.523  0.3676  0.2540 -0.2486
  886SOL    HW2 3589   2.749   3.160   1.550 -0.4043 -1.8680 -0.2830
  886SOL    HW3 3590   2.669   3.198   1.427  0.7120  0.8481 -0.1951
  886SOL    MW4 3591   2.675   3.189   1.514  0.3111  0.0522 -0.2460
  887SOL     OW 3592   2.693   3.463   1.598 -0.6850  0.2268 -0.0460
  887SOL    HW2 3593   2.690   3.471   1.693  0.3258  0.8989 -0.0644
  887SOL    HW3 3594   2.679   3.370   1.581 -2.9589  0.4092  0.6552
  887SOL    MW4 3595   2.691   3.452   1.608 -0.8516  0.3397  0.0441
  888SOL     OW 3596   2.924   3.591   1.508  0.2094  0.3344  0.2854
  888SOL    HW2 3597   2.838   3.558   1.533 -0.6270  1.9542 -0.3397
  888SOL    HW3 3598   2.928   3.678   1.547  0.6339  1.1793 -1.5715
  888SOL    MW4 3599   2.913   3.598   1.517  0.1550  0.6595 -0.0421
  889SOL     OW 3600   2.959   3.844   1.593  0.1712 -0.3829  0.4867
  889SOL    HW2 3601   2.945   3.860   1.687 -1.6542  1.8605 -0.1254
  889SOL    HW3 3602   2.885   3.886   1.550  1.6238 -0.3252 -2.0729
  889SOL    MW4 3603   2.947   3.852   1.600  0.1218 -0.0792  0.0683
  890SOL     OW 3604   2.756   3.987   1.482 -0.1381 -0.5458 -0.3393
  890SOL    HW2 3605   2.724   4.066   1.527 -0.3631 -0.3552 -0.8230
  890SOL    HW3 3606   2.737   4.004   1.389  0.8220 -0.6930 -0.5649
  890SOL    MW4 3607   2.749   4.000   1.475 -0.0412 -0.5403 -0.4327
  891SOL     OW 3608   2.692   4.246   1.618  0.2088 -0.2859 -0.5241
  891SOL    HW2 3609   2.620   4.291   1.575 -0.6832 -1.0702  0.1230
  891SOL    HW3 3610   2.771   4.290   1.586 -0.5460  0.4830 -1.3457
  891SOL    MW4 3611   2.693   4.257   1.608 -0.0086 -0.2880 -0.5472
  892SOL     OW 3612   2.933   4.402   1.535 -0.1691 -0.7136  0.0479
  892SOL    HW2 3613   2.920   4.494   1.553  1.3082 -0.8820  2.1928
  892SOL    HW3 3614   2.935   4.396   1.439  1.2803  1.7135 -0.1177
  892SOL    MW4 3615   2.932   4.413   1.525  0.2170 -0.4153  0.3090
  893SOL     OW 3616   3.400   4.645   1.940  0.0090  0.4011  0.5928
  893SOL    HW2 3617   3.389   4.644   1.845 -0.9235  0.0513  0.7003
  893SOL    HW3 3618   3.428   4.556   1.962  1.6117  0.8599  0.4983
  893SOL    MW4 3619   3.402   4.633   1.931  0.0975  0.4158  0.5945
  894SOL     OW 3620   3.191   0.084   1.517 -0.4132  0.4116  0.1632
  894SOL    HW2 3621   3.100   0.053   1.520 -0.3718  0.2052 -0.5330
  894SOL    HW3 3622   3.231   0.050   1.596 -0.0216 -2.4384 -1.2076
  894SOL    MW4 3623   3.184   0.076   1.528 -0.3560  0.0083 -0.1094
  895SOL     OW 3624   2.943   0.486   1.513 -0.2502 -0.5649  0.0297
  895SOL    HW2 3625   2.940   0.513   1.421 -1.3411  0.4086  0.3302
  895SOL    HW3 3626   2.934   0.568   1.562  1.2337 -0.9737  1.0190
  895SOL    MW4 3627   2.941   0.501   1.508 -0.1984 -0.4904  0.1999
  896SOL     OW 3628   3.164   0.353   1.607 -0.0985  0.3188 -0.3277
  896SOL    HW2 3629   3.080   0.392   1.584  0.0033 -0.1582 -1.5838
  896SOL    HW3 3630   3.160   0.265   1.569  0.7112  0.0710  0.1508
  896SOL    MW4 3631   3.153   0.346   1.599  0.0219  0.2231 -0.4302
  897SOL     OW 3632   3.370   0.755   1.585  0.0379  0.0255 -0.4063
  897SOL    HW2 3633   3.385   0.747   1.679  0.6249  0.1448 -0.4893
  897SOL    HW3 3634   3.377   0.665   1.552 -1.7627 -0.2388 -0.1061
  897SOL    MW4 3635   3.373   0.742   1.593 -0.1221  0.0064 -0.3777
  898SOL     OW 3636   3.145   0.899   1.510 -0.0121  0.2055  0.2162
  898SOL    HW2 3637   3.074   0.840   1.532  0.1137  0.3419  0.9745
  898SOL    HW3 3638   3.225   0.851   1.533  0.2049 -0.3514 -1.5462
  898SOL    MW4 3639   3.146   0.885   1.516  0.0331  0.1500  0.0838
  899SOL     OW 3640   3.137   1.155   1.622  0.1299  0.0049 -0.5740
  899SOL    HW2 3641   3.145   1.068   1.583  1.1408  0.0792 -0.5357
  899SOL    HW3 3642   3.128   1.139   1.716  1.1510 -0.0219 -0.4803
  899SOL    MW4 3643   3.137   1.142   1.630  0.3984  0.0111 -0.5566
  900SOL     OW 3644   3.368   1.290   1.549  0.5481 -0.4792 -0.6948
  900SOL    HW2 3645   3.443   1.244   1.586  1.0670 -0.1065 -1.2598
  900SOL    HW3 3646   3.292   1.248   1.588  1.0654 -0.5646  0.2277
  900SOL    MW4 3647   3.368   1.279   1.559  0.6847 -0.4413 -0.6475
  901SOL     OW 3648   3.367   1.570   1.610 -0.4563 -0.3162  0.0295
  901SOL    HW2 3649   3.372   1.574   1.706 -2.3098 -1.0271  0.1883
  901SOL    HW3 3650   3.379   1.478   1.589  0.1781 -0.1278 -0.4405
  901SOL    MW4 3651   3.369   1.559   1.620 -0.6170 -0.3850 -0.0116
  902SOL     OW 3652   3.163   1.668   1.297 -0.3230  0.6933 -0.3746
  902SOL    HW2 3653   3.152   1.698   1.387  0.1240  1.5041 -0.5765
  902SOL    HW3 3654   3.153   1.747   1.244  1.1909  0.5466 -0.9042
  902SOL    MW4 3655   3.160   1.682   1.302 -0.0639  0.7809 -0.4710
  903SOL     OW 3656   3.149   1.956   1.654 -0.2543 -0.0963  0.0678
  903SOL    HW2 3657   3.123   1.865   1.647 -0.9119  0.0277  0.8828
  903SOL    HW3 3658   3.069   2.006   1.636  0.2436  0.3331 -1.0237
  903SOL    MW4 3659   3.135   1.951   1.651 -0.2751 -0.0234  0.0314
  904SOL     OW 3660   3.369   2.053   1.517  0.5087  0.6663  0.4324
  904SOL    HW2 3661   3.301   2.015   1.573  0.2069  0.9522  0.2614
  904SOL    HW3 3662   3.342   2.033   1.428  0.8790  0.3956  0.3799
  904SOL    MW4 3663   3.357   2.046   1.513  0.5178  0.6685  0.4029
  905SOL     OW 3664   3.381   2.326   1.582 -0.4675  0.3397 -0.1616
  905SOL    HW2 3665   3.470   2.356   1.565 -0.7345  1.2597  0.0190
  905SOL    HW3 3666   3.384   2.232   1.566  0.3073  0.5070 -1.0879
  905SOL    MW4 3667   3.393   2.318   1.577 -0.4005  0.4833 -0.2600
  906SOL     OW 3668   3.135   2.424   1.516  0.5794 -0.1147 -0.1389
  906SOL    HW2 3669   3.218   2.400   1.557 -0.8028 -0.1076  2.7568
  906SOL    HW3 3670   3.069   2.374   1.563 -1.0267 -0.8384 -3.0206
  906SOL    MW4 3671   3.137   2.414   1.527  0.1850 -0.2091 -0.1371
  907SOL     OW 3672   3.114   2.693   1.605  0.3073 -0.1587  0.3402
  907SOL    HW2 3673   3.194   2.729   1.566  0.3219 -0.5279  0.0140
  907SOL    HW3 3674   3.108   2.605   1.568 -0.4731  0.0173  0.0407
  907SOL    MW4 3675   3.123   2.686   1.595  0.2062 -0.1843  0.2575
  908SOL     OW 3676   3.348   2.809   1.531 -0.1589  0.3229  0.3380
  908SOL    HW2 3677   3.346   2.903   1.549  0.1990  0.5826 -0.9550
  908SOL    HW3 3678   3.338   2.803   1.436  1.2557 -0.8861  0.2664
  908SOL    MW4 3679   3.346   2.821   1.521  0.0751  0.1979  0.1581
  909SOL     OW 3680   3.346   3.063   1.627  0.1846  0.2403  0.5214
  909SOL    HW2 3681   3.371   3.049   1.719 -0.1659 -0.6235  0.4899
  909SOL    HW3 3682   3.421   3.107   1.588 -0.1224  1.6867  1.5107
  909SOL    MW4 3683   3.359   3.067   1.634  0.0980  0.3171  0.6478
  910SOL     OW 3684   3.141   3.206   1.529  0.0173  0.0539 -0.2146
  910SOL    HW2 3685   3.161   3.206   1.436 -0.5267  0.1812 -0.3336
  910SOL    HW3 3686   3.211   3.154   1.569  0.0495 -0.3076 -0.7380
  910SOL    MW4 3687   3.152   3.199   1.522 -0.0503  0.0229 -0.2996
  911SOL     OW 3688   3.125   3.448   1.633  0.4165  0.1262 -0.7257
  911SOL    HW2 3689   3.044   3.481   1.594 -0.4133  1.1150  1.7494
  911SOL    HW3 3690   3.143   3.367   1.586 -0.7256  1.1036 -2.9002
  911SOL    MW4 3691   3.116   3.442   1.622  0.1562  0.3858 -0.6859
  912SOL     OW 3692   3.367   3.570   1.527  0.4003 -0.1573  0.0150
  912SOL    HW2 3693   3.435   3.528   1.579  0.2943  1.1835  1.2540
  912SOL    HW3 3694   3.285   3.538   1.564  0.3289  0.3889  0.3285
  912SOL    MW4 3695   3.365   3.561   1.539  0.3772  0.0916  0.2198
  913SOL     OW 3696   3.403   3.826   1.632 -0.0356 -0.2917  0.1760
  913SOL    HW2 3697   3.334   3.885   1.601 -0.0373 -0.0285  0.6776
  913SOL    HW3 3698   3.373   3.739   1.607 -0.8930 -0.2466  1.0188
  913SOL    MW4 3699   3.390   3.822   1.625 -0.1490 -0.2513  0.3532
  914SOL     OW 3700   3.196   3.975   1.536 -0.3467 -0.2335  0.6106
  914SOL    HW2 3701   3.175   4.066   1.557  0.4414 -0.0952  0.8259
  914SOL    HW3 3702   3.120   3.926   1.567 -1.7829  0.5631 -1.5703
  914SOL    MW4 3703   3.183   3.981   1.543 -0.4323 -0.1101  0.3513
  915SOL     OW 3704   3.312   4.410   1.536  0.4728 -0.4970 -0.1964
  915SOL    HW2 3705   3.257   4.338   1.569 -0.9162  0.3269 -0.6592
  915SOL    HW3 3706   3.308   4.401   1.441 -1.0451  1.1546 -0.3058
  915SOL    MW4 3707   3.304   4.399   1.528  0.0892 -0.1702 -0.2719
  916SOL     OW 3708   3.515   4.221   1.626 -0.0915  0.3598 -0.1759
  916SOL    HW2 3709   3.513   4.227   1.721  2.6781  2.6026 -0.1681
  916SOL    HW3 3710   3.450   4.285   1.597  0.4078  1.0633  0.2289
  916SOL    MW4 3711   3.506   4.230   1.635  0.3397  0.7486 -0.1215
  917SOL     OW 3712   3.621   0.348   1.649 -0.1125  0.8167  0.2716
  917SOL    HW2 3713   3.631   0.254   1.631  0.8257  0.6158  1.7473
  917SOL    HW3 3714   3.546   0.374   1.596 -0.8735 -0.9488  0.4278
  917SOL    MW4 3715   3.612   0.339   1.640 -0.0894  0.5573  0.4870
  918SOL     OW 3716   3.382   0.488   1.521  0.2873 -0.0152  0.1093
  918SOL    HW2 3717   3.312   0.429   1.551  0.6619 -1.1319 -1.1797
  918SOL    HW3 3718   3.369   0.494   1.427  0.1986  2.0588  0.2478
  918SOL    MW4 3719   3.371   0.481   1.513  0.3252  0.1111 -0.0424
  919SOL     OW 3720   3.557   0.396   1.907 -0.2037 -0.7285 -0.3939
  919SOL    HW2 3721   3.569   0.306   1.937  1.8726 -0.4462 -0.3208
  919SOL    HW3 3722   3.570   0.391   1.812 -0.4820 -0.5701 -0.4409
  919SOL    MW4 3723   3.560   0.384   1.898  0.0336 -0.6703 -0.3904
  920SOL     OW 3724   3.843   0.496   1.548  0.1497 -0.3675  0.2433
  920SOL    HW2 3725   3.771   0.443   1.582 -0.9952  0.9337 -0.1392
  920SOL    HW3 3726   3.821   0.512   1.457  0.3811  0.9231  0.4038
  920SOL    MW4 3727   3.831   0.491   1.541  0.0293 -0.0256  0.2139
  921SOL     OW 3728   3.801   0.766   1.667 -0.2171 -0.3627  0.0896
  921SOL    HW2 3729   3.743   0.819   1.613  0.4437  0.1061 -0.1760
  921SOL    HW3 3730   3.800   0.679   1.626 -0.3484 -0.2253 -0.1965
  921SOL    MW4 3731   3.793   0.761   1.655 -0.1471 -0.2828  0.0169
  922SOL     OW 3732   3.606   0.906   1.506  0.1060 -0.1359  0.4721
  922SOL    HW2 3733   3.600   0.883   1.413 -3.0886  1.9633  0.0915
  922SOL    HW3 3734   3.542   0.849   1.549  0.6932 -0.2292  1.2399
  922SOL    MW4 3735   3.597   0.895   1.499 -0.2382  0.1288  0.5232
  923SOL     OW 3736   3.612   1.130   1.649 -0.5563 -0.5321 -0.0560
  923SOL    HW2 3737   3.688   1.181   1.620 -0.6995 -0.3677 -0.1427
  923SOL    HW3 3738   3.606   1.058   1.586 -0.5343 -0.4875 -0.1092
  923SOL    MW4 3739   3.621   1.127   1.637 -0.5724 -0.5045 -0.0745
  924SOL     OW 3740   3.848   1.251   1.539 -0.5582 -0.7589  0.6014
  924SOL    HW2 3741   3.929   1.212   1.571  1.1653  1.3257 -1.0229
  924SOL    HW3 3742   3.866   1.345   1.536 -3.2806 -0.1802  0.8275
  924SOL    MW4 3743   3.861   1.258   1.542 -0.6902 -0.4075  0.4169
  925SOL     OW 3744   3.857   1.521   1.577  0.0978 -0.5446  0.1539
  925SOL    HW2 3745   3.844   1.528   1.671 -0.1392 -1.6877  0.2119
  925SOL    HW3 3746   3.789   1.576   1.539 -1.0533 -1.6534  0.6053
  925SOL    MW4 3747   3.847   1.529   1.584 -0.0854 -0.8416  0.2210
  926SOL     OW 3748   3.587   1.666   1.484 -0.5586  0.3788 -0.8181
  926SOL    HW2 3749   3.503   1.647   1.525  0.0255 -0.1910  0.1207
  926SOL    HW3 3750   3.574   1.643   1.391 -0.8298 -1.6550 -0.3019
  926SOL    MW4 3751   3.574   1.661   1.477 -0.5176  0.0353 -0.6261
  927SOL     OW 3752   3.604   1.924   1.593 -0.2193 -0.5350 -0.1796
  927SOL    HW2 3753   3.593   1.839   1.550 -0.0870  0.1317 -1.5462
  927SOL    HW3 3754   3.531   1.977   1.561 -0.9365 -0.4575  1.5163
  927SOL    MW4 3755   3.593   1.919   1.583 -0.2964 -0.4368 -0.1361
  928SOL     OW 3756   3.851   2.027   1.504  0.3262 -0.1095  0.1893
  928SOL    HW2 3757   3.773   1.989   1.544 -0.1808  0.4786 -0.2288
  928SOL    HW3 3758   3.848   2.120   1.528  1.9504 -0.4573  1.8248
  928SOL    MW4 3759   3.840   2.034   1.512  0.4737 -0.0777  0.3499
  929SOL     OW 3760   3.842   2.287   1.600 -0.0464 -0.1985  0.0638
  929SOL    HW2 3761   3.846   2.286   1.695 -1.2071  0.9195  0.1408
  929SOL    HW3 3762   3.910   2.349   1.574  0.2864 -0.5227  0.1684
  929SOL    MW4 3763   3.851   2.295   1.609 -0.1557 -0.0939  0.0879
  930SOL     OW 3764   3.635   2.431   1.515  0.0934 -0.5375  0.4724
  930SOL    HW2 3765   3.660   2.519   1.541  0.0197 -0.8829  1.7741
  930SOL    HW3 3766   3.701   2.374   1.556 -0.6703 -1.1828  0.8275
  930SOL    MW4 3767   3.647   2.435   1.524 -0.0169 -0.6683  0.6909
  931SOL     OW 3768   3.608   2.716   1.564 -0.7765  0.0125 -0.0977
  931SOL    HW2 3769   3.605   2.711   1.660  0.2419  1.3247  0.0171
  931SOL    HW3 3770   3.520   2.745   1.539 -0.9921 -0.1608  0.4522
  931SOL    MW4 3771   3.596   2.719   1.574 -0.6709  0.1628 -0.0100
  932SOL     OW 3772   3.827   2.850   1.471  0.2385  0.2833  0.0123
  932SOL    HW2 3773   3.902   2.833   1.529  0.1555  1.1632  0.3894
  932SOL    HW3 3774   3.755   2.801   1.509  0.0332  1.3452  1.0061
  932SOL    MW4 3775   3.828   2.841   1.484  0.2005  0.5395  0.1931
  933SOL     OW 3776   3.823   3.079   1.647 -0.2254  0.2316  0.3498
  933SOL    HW2 3777   3.906   3.121   1.624 -0.8352  0.3867 -1.6641
  933SOL    HW3 3778   3.819   3.002   1.590 -0.8880 -0.4779  1.3377
  933SOL    MW4 3779   3.834   3.074   1.637 -0.3932  0.1585  0.2143
  934SOL     OW 3780   3.577   3.199   1.519  0.2133  0.4997  0.4340
  934SOL    HW2 3781   3.662   3.168   1.550  1.5260  1.8615 -1.6522
  934SOL    HW3 3782   3.581   3.190   1.424 -1.5018  1.7401  0.2095
  934SOL    MW4 3783   3.588   3.194   1.511  0.1600  0.8430  0.1292
  935SOL     OW 3784   3.609   3.484   1.655  0.4561  0.4343  0.4501
  935SOL    HW2 3785   3.671   3.548   1.619  0.9584 -0.4472 -0.2639
  935SOL    HW3 3786   3.627   3.403   1.607  0.3878 -0.4716  1.9197
  935SOL    MW4 3787   3.620   3.482   1.644  0.5133  0.1984  0.5499
  936SOL     OW 3788   3.809   3.634   1.513  0.0011 -0.2228  0.1978
  936SOL    HW2 3789   3.891   3.600   1.550 -0.2223 -0.6079  0.3462
  936SOL    HW3 3790   3.802   3.723   1.547  0.1009 -0.3664  0.6032
  936SOL    MW4 3791   3.819   3.641   1.522 -0.0155 -0.2928  0.2708
  937SOL     OW 3792   3.831   3.902   1.626  0.4209 -0.5552 -0.8239
  937SOL    HW2 3793   3.905   3.955   1.598  0.5568 -0.4127 -0.1858
  937SOL    HW3 3794   3.756   3.939   1.580  0.3107  0.9613  0.5695
  937SOL    MW4 3795   3.831   3.914   1.616  0.4244 -0.3364 -0.5559
  938SOL     OW 3796   3.583   3.990   1.503 -0.5110 -0.0182 -0.1311
  938SOL    HW2 3797   3.550   4.068   1.548  0.3292 -0.6638  1.6605
  938SOL    HW3 3798   3.525   3.919   1.532 -0.4720 -0.2921 -0.7170
  938SOL    MW4 3799   3.571   3.991   1.513 -0.3948 -0.1397  0.0281
  939SOL     OW 3800   3.757   4.343   1.562  0.1616 -0.6919 -0.5107
  939SOL    HW2 3801   3.764   4.416   1.624 -1.3191  0.5042 -1.6909
  939SOL    HW3 3802   3.680   4.294   1.590 -0.6306 -0.0346 -1.4813
  939SOL    MW4 3803   3.748   4.346   1.574 -0.1388 -0.4478 -0.7944
  940SOL     OW 3804   3.851   0.020   1.565  0.4434 -0.1829 -0.1736
  940SOL    HW2 3805   3.885   0.005   1.653  2.9869 -1.4843 -1.3332
  940SOL    HW3 3806   3.908   0.089   1.529 -1.0320  0.8530 -0.5610
  940SOL    MW4 3807   3.863   0.027   1.572  0.5846 -0.2184 -0.3778
  941SOL     OW 3808   4.254   0.041   1.609 -0.5296  0.7617 -0.2073
  941SOL    HW2 3809   4.238   0.026   1.702  0.6805 -0.6123 -0.2050
  941SOL    HW3 3810   4.250  -0.046   1.570 -0.5986  1.2808 -1.3840
  941SOL    MW4 3811   4.251   0.028   1.616 -0.3791  0.6490 -0.3622
  942SOL     OW 3812   4.060   0.177   1.467  0.3261  0.1181 -0.4608
  942SOL    HW2 3813   4.050   0.250   1.528  3.1463  2.1301 -2.2299
  942SOL    HW3 3814   4.136   0.129   1.500 -0.3333 -0.8825 -0.3964
  942SOL    MW4 3815   4.069   0.181   1.479  0.6113  0.2515 -0.6858
  943SOL     OW 3816   4.055   0.362   1.667  0.2686  0.3704  0.1470
  943SOL    HW2 3817   4.047   0.369   1.762  0.8431 -0.2987  0.2419
  943SOL    HW3 3818   3.982   0.415   1.633  0.8525  1.7104  0.9390
  943SOL    MW4 3819   4.044   0.370   1.675  0.4210  0.4590  0.2639
  944SOL     OW 3820   4.276   0.483   1.584 -0.1626  0.2047  0.0422
  944SOL    HW2 3821   4.203   0.432   1.618 -0.0299  0.0533  0.0970
  944SOL    HW3 3822   4.354   0.435   1.610 -0.0840 -0.4493 -1.3284
  944SOL    MW4 3823   4.277   0.470   1.592 -0.1340  0.0985 -0.1315
  945SOL     OW 3824   4.282   0.768   1.640  0.2235  0.2372  0.3647
  945SOL    HW2 3825   4.278   0.682   1.598  1.4336  0.4877 -0.2662
  945SOL    HW3 3826   4.369   0.802   1.619  0.0141  1.3260  1.1904
  945SOL    MW4 3827   4.293   0.761   1.632  0.3552  0.4139  0.3902
  946SOL     OW 3828   4.044   0.876   1.543 -0.4876  0.7718  0.5312
  946SOL    HW2 3829   4.122   0.839   1.583 -0.1452  1.9773  0.9808
  946SOL    HW3 3830   3.971   0.834   1.589 -0.1223 -0.4956 -0.0201
  946SOL    MW4 3831   4.045   0.865   1.554 -0.3943  0.7636  0.5177
  947SOL     OW 3832   4.098   1.159   1.589 -0.3014  0.1487  0.3482
  947SOL    HW2 3833   4.099   1.164   1.684 -1.2748  0.3947  0.3534
  947SOL    HW3 3834   4.071   1.070   1.570  2.5814 -0.7610  0.2813
  947SOL    MW4 3835   4.095   1.148   1.599 -0.0491  0.0613  0.3399
  948SOL     OW 3836   4.303   1.320   1.251 -0.3037  0.0974  0.2473
  948SOL    HW2 3837   4.342   1.333   1.337  0.0714  0.4269  0.0319
  948SOL    HW3 3838   4.219   1.276   1.268  0.6111 -1.5345  0.6465
  948SOL    MW4 3839   4.297   1.316   1.265 -0.1330 -0.0744  0.2717
  949SOL     OW 3840   4.356   1.278   1.522 -0.1991  0.2635  0.2220
  949SOL    HW2 3841   4.273   1.236   1.541 -0.0484 -0.1976 -0.1298
  949SOL    HW3 3842   4.417   1.242   1.588 -0.1401  0.1577  0.1095
  949SOL    MW4 3843   4.353   1.268   1.534 -0.1712  0.1887  0.1608
  950SOL     OW 3844   4.078   1.663   1.500 -0.3743  0.2366  0.0550
  950SOL    HW2 3845   4.149   1.610   1.540 -1.1798  0.0981  1.3466
  950SOL    HW3 3846   3.998   1.622   1.532 -1.0225  1.5367  0.1270
  950SOL    MW4 3847   4.077   1.650   1.510 -0.5660  0.3899  0.2348
  951SOL     OW 3848   4.060   1.922   1.636  0.5444  0.2810 -0.2566
  951SOL    HW2 3849   4.074   1.839   1.592  0.1902 -0.9899  1.9452
  951SOL    HW3 3850   3.984   1.960   1.594  2.2270  0.7158 -3.0002
  951SOL    MW4 3851   4.052   1.916   1.625  0.7200  0.1706 -0.3281
  952SOL     OW 3852   4.304   2.074   1.543  0.4489 -0.6826 -0.3191
  952SOL    HW2 3853   4.232   2.030   1.588  0.6021 -0.2518  0.3442
  952SOL    HW3 3854   4.285   2.061   1.450 -1.0700  0.3900 -0.1610
  952SOL    MW4 3855   4.292   2.066   1.537  0.2689 -0.4842 -0.2106
  953SOL     OW 3856   4.243   2.327   1.631 -0.0426  0.3337  0.2116
  953SOL    HW2 3857   4.255   2.336   1.726  0.3174 -0.1860  0.2190
  953SOL    HW3 3858   4.265   2.235   1.613 -1.1826  0.1347 -0.2126
  953SOL    MW4 3859   4.248   2.316   1.641 -0.1450  0.2391  0.1566
  954SOL     OW 3860   4.058   2.471   1.511  0.0049 -0.0308  0.2249
  954SOL    HW2 3861   4.048   2.558   1.549 -0.3654  0.4741 -0.9798
  954SOL    HW3 3862   4.129   2.431   1.560  0.4171  1.0882  0.5603
  954SOL    MW4 3863   4.066   2.477   1.522  0.0105  0.1836  0.1103
  955SOL     OW 3864   4.047   2.726   1.630 -0.2470  0.9609 -0.1431
  955SOL    HW2 3865   4.043   2.744   1.724  0.3157 -1.0468  0.2688
  955SOL    HW3 3866   4.136   2.748   1.605 -0.0791  0.4416  0.0052
  955SOL    MW4 3867   4.058   2.731   1.639 -0.1507  0.6273 -0.0691
  956SOL     OW 3868   4.292   2.818   1.533 -0.4646  0.2703  0.2614
  956SOL    HW2 3869   4.290   2.822   1.437 -0.6830  0.2623  0.2666
  956SOL    HW3 3870   4.273   2.908   1.561  1.6629  0.7596  0.2682
  956SOL    MW4 3871   4.289   2.831   1.524 -0.2127  0.3338  0.2630
  957SOL     OW 3872   4.227   3.083   1.613  0.0876  0.1454 -0.3280
  957SOL    HW2 3873   4.227   3.111   1.704  1.1765 -0.3692 -0.1544
  957SOL    HW3 3874   4.310   3.117   1.578  0.3603 -0.9101 -0.7174
  957SOL    MW4 3875   4.238   3.091   1.620  0.2670 -0.0620 -0.3564
  958SOL     OW 3876   4.003   3.232   1.501  0.6963  0.6872  0.0473
  958SOL    HW2 3877   4.034   3.303   1.557  1.4027 -0.8314  1.6164
  958SOL    HW3 3878   4.076   3.170   1.498 -0.2630 -0.4427 -0.5033
  958SOL    MW4 3879   4.017   3.233   1.508  0.6633  0.3378  0.1816
  959SOL     OW 3880   4.058   3.491   1.606  0.4569 -0.2645 -0.6158
  959SOL    HW2 3881   4.065   3.504   1.701 -0.2845  0.9084 -0.7068
  959SOL    HW3 3882   4.148   3.496   1.574  0.6278  0.2105 -0.0729
  959SOL    MW4 3883   4.070   3.494   1.614  0.3819 -0.0472 -0.5562
  960SOL     OW 3884   4.296   3.557   1.490 -0.3613 -0.2180  0.7770
  960SOL    HW2 3885   4.294   3.649   1.518  2.2083 -0.1473  0.8163
  960SOL    HW3 3886   4.287   3.561   1.395  1.8817  0.2451  0.5548
  960SOL    MW4 3887   4.294   3.570   1.481  0.2737 -0.1476  0.7529
  961SOL     OW 3888   4.269   3.820   1.612 -0.4452 -0.0912 -0.0031
  961SOL    HW2 3889   4.338   3.871   1.570 -0.3284  2.8482  3.5365
  961SOL    HW3 3890   4.190   3.874   1.601 -0.9423 -0.5786  1.1141
  961SOL    MW4 3891   4.268   3.834   1.605 -0.4954  0.2322  0.6113
  962SOL     OW 3892   4.071   4.021   1.529 -0.2382  0.6079  0.3214
  962SOL    HW2 3893   4.078   4.112   1.559  3.3079  0.6765 -0.5327
  962SOL    HW3 3894   4.055   4.027   1.435  0.5803  0.3561  0.1632
  962SOL    MW4 3895   4.070   4.034   1.521  0.3381  0.5832  0.1879
  963SOL     OW 3896   4.027   4.275   1.613  0.0149 -0.1584 -0.0993
  963SOL    HW2 3897   4.024   4.269   1.709 -1.4895  0.4205 -0.0863
  963SOL    HW3 3898   3.936   4.293   1.588  0.1407 -1.6765 -1.7369
  963SOL    MW4 3899   4.014   4.277   1.623 -0.1669 -0.2828 -0.3135
  964SOL     OW 3900   4.239   4.439   1.523  0.2073 -0.3202 -0.0424
  964SOL    HW2 3901   4.168   4.384   1.558  1.8577 -1.9157  0.9174
  964SOL    HW3 3902   4.242   4.419   1.430 -0.7006 -0.1310 -0.1133
  964SOL    MW4 3903   4.230   4.429   1.516  0.3052 -0.5059  0.0749
  965SOL     OW 3904   0.273   4.624   1.961  0.3854  0.2091  0.2620
  965SOL    HW2 3905   0.335   4.694   1.981  0.3076  0.5374 -0.6413
  965SOL    HW3 3906   0.267   4.623   1.866 -0.4399 -0.3118  0.3128
  965SOL    MW4 3907   0.281   4.633   1.951  0.2663  0.1841  0.1496
  966SOL     OW 3908   4.481   0.074   2.029  0.3896  0.3437 -0.0788
  966SOL    HW2 3909   4.504   0.155   1.984  0.2117  0.6414  0.3565
  966SOL    HW3 3910   4.543   0.009   1.996  0.5149  0.6511 -0.4504
  966SOL    MW4 3911   4.492   0.076   2.019  0.3829  0.4235 -0.0703
  967SOL     OW 3912   4.482   0.348   1.932 -0.5296  0.8753 -0.0278
  967SOL    HW2 3913   4.409   0.393   1.976  0.9745  2.8834  0.4740
  967SOL    HW3 3914   4.560   0.391   1.966  0.8899 -1.0423 -0.8111
  967SOL    MW4 3915   4.483   0.360   1.943 -0.1439  0.8872 -0.0650
  968SOL     OW 3916   0.197   0.490   2.021 -0.0262 -0.0427  0.1756
  968SOL    HW2 3917   0.283   0.463   1.988 -0.2090 -0.2612 -0.1219
  968SOL    HW3 3918   0.196   0.585   2.008  0.5024  0.0744  0.9581
  968SOL    MW4 3919   0.208   0.499   2.015  0.0194 -0.0561  0.2396
  969SOL     OW 3920   0.222   0.772   2.006  0.2025  0.0292 -0.0299
  969SOL    HW2 3921   0.297   0.822   2.037  0.0499  1.9133 -2.5061
  969SOL    HW3 3922   0.235   0.766   1.911 -1.1877 -2.3434 -0.1274
  969SOL    MW4 3923   0.234   0.777   1.997 -0.0011 -0.0352 -0.3695
  970SOL     OW 3924   4.468   0.892   2.035 -0.1201  0.0493 -0.1853
  970SOL    HW2 3925   4.539   0.834   2.007 -0.9418 -0.6259 -0.8652
  970SOL    HW3 3926   4.388   0.846   2.010 -0.7954  0.9924  0.2340
  970SOL    MW4 3927   4.467   0.878   2.028 -0.3176  0.0846 -0.2198
  971SOL     OW 3928   0.036   1.154   1.948 -0.0099  0.3911 -0.0296
  971SOL    HW2 3929  -0.041   1.205   1.973  0.4272 -0.0854  2.3823
  971SOL    HW3 3930   0.021   1.067   1.984  2.2769  0.6710  1.7273
  971SOL    MW4 3931   0.024   1.149   1.956  0.3495  0.3653  0.5206
  972SOL     OW 3932   0.239   1.317   2.039  0.1914  0.4075 -0.6948
  972SOL    HW2 3933   0.236   1.388   1.974 -0.5492  0.0822 -1.0246
  972SOL    HW3 3934   0.170   1.257   2.011  0.2836 -0.0444  0.0459
  972SOL    MW4 3935   0.229   1.319   2.027  0.1058  0.3049 -0.6404
  973SOL     OW 3936   0.197   1.538   1.865 -0.2461 -0.5202 -0.0465
  973SOL    HW2 3937   0.280   1.584   1.877  0.8148 -2.4076  0.1873
  973SOL    HW3 3938   0.134   1.588   1.916  0.6765  1.1163 -0.4641
  973SOL    MW4 3939   0.200   1.551   1.873  0.0156 -0.5534 -0.0708
  974SOL     OW 3940   0.016   1.707   1.981 -0.5244  0.4286  0.6020
  974SOL    HW2 3941   0.035   1.674   2.069  0.5414 -1.3009 -0.2373
  974SOL    HW3 3942  -0.062   1.658   1.953  0.5477 -0.7855 -0.3171
  974SOL    MW4 3943   0.008   1.696   1.989 -0.2422  0.0401  0.3699
  975SOL     OW 3944   0.021   1.960   1.919 -0.0538 -0.3605 -0.7115
  975SOL    HW2 3945  -0.056   2.008   1.949 -0.4905 -0.1174 -2.2121
  975SOL    HW3 3946   0.006   1.870   1.949 -0.5629 -0.1617 -0.3661
  975SOL    MW4 3947   0.009   1.954   1.927 -0.1788 -0.3022 -0.8639
  976SOL     OW 3948   0.232   2.062   2.056  0.5679 -0.7417  0.2460
  976SOL    HW2 3949   0.267   2.138   2.009 -0.5586 -0.4421 -0.1155
  976SOL    HW3 3950   0.156   2.035   2.004  0.2295 -1.3540  1.0594
  976SOL    MW4 3951   0.227   2.068   2.043  0.3746 -0.7830  0.3057
  977SOL     OW 3952   0.251   2.300   1.896 -0.1058 -0.0384  0.2660
  977SOL    HW2 3953   0.314   2.370   1.914  0.3039  0.1574 -1.8067
  977SOL    HW3 3954   0.166   2.340   1.913  0.0983  1.1605 -1.4148
  977SOL    MW4 3955   0.248   2.315   1.901 -0.0248  0.1454 -0.2291
  978SOL     OW 3956   0.017   2.448   1.992  0.0478 -0.8690  0.2273
  978SOL    HW2 3957   0.006   2.461   2.087 -1.1108  1.1651 -0.1610
  978SOL    HW3 3958   0.022   2.536   1.956 -0.8557 -1.6071 -1.7703
  978SOL    MW4 3959   0.016   2.461   2.000 -0.2243 -0.6981 -0.0876
  979SOL     OW 3960   0.043   2.722   1.903  0.0494  0.4714  0.2538
  979SOL    HW2 3961  -0.039   2.769   1.915 -0.3659 -0.4410  1.0683
  979SOL    HW3 3962   0.044   2.697   1.811 -0.8851 -0.0873  0.3995
  979SOL    MW4 3963   0.032   2.725   1.893 -0.1286  0.2773  0.3804
  980SOL     OW 3964   0.265   2.853   1.993  0.6227  0.2815 -0.5091
  980SOL    HW2 3965   0.256   2.939   1.953 -0.4778  0.2690 -0.3247
  980SOL    HW3 3966   0.189   2.804   1.959  0.6226 -0.2564  0.2655
  980SOL    MW4 3967   0.254   2.858   1.983  0.4775  0.2091 -0.3825
  981SOL     OW 3968   0.243   3.117   1.856  0.0700  0.2597  0.0123
  981SOL    HW2 3969   0.325   3.163   1.873 -0.2694  1.5641 -1.6865
  981SOL    HW3 3970   0.246   3.098   1.762 -1.2090 -0.4069  0.1002
  981SOL    MW4 3971   0.254   3.121   1.846 -0.1436  0.3438 -0.2003
  982SOL     OW 3972   0.028   3.227   1.998 -0.1998 -0.0468  0.0374
  982SOL    HW2 3973  -0.048   3.195   1.949  0.7276 -0.5253 -1.1130
  982SOL    HW3 3974   0.103   3.198   1.947  0.8469 -1.4690  2.3241
  982SOL    MW4 3975   0.028   3.219   1.985  0.0606 -0.2975  0.1874
  983SOL     OW 3976   4.475   3.481   1.886  0.3645  0.0599 -0.0055
  983SOL    HW2 3977   4.547   3.542   1.899 -0.1351  0.6944 -0.1807
  983SOL    HW3 3978   4.498   3.404   1.938  0.2836  0.9874  1.4204
  983SOL    MW4 3979   4.487   3.479   1.895  0.2875  0.2658  0.1594
  984SOL     OW 3980   0.211   3.612   1.989  0.1416 -0.0144  0.4135
  984SOL    HW2 3981   0.211   3.613   2.084  0.0873  0.4909  0.4070
  984SOL    HW3 3982   0.283   3.553   1.965 -0.2212 -0.6000  0.7718
  984SOL    MW4 3983   0.220   3.604   1.998  0.0866 -0.0250  0.4598
  985SOL     OW 3984   0.193   3.902   1.903 -0.1331  0.0145 -0.6162
  985SOL    HW2 3985   0.280   3.935   1.926 -0.5339  1.8203 -1.5909
  985SOL    HW3 3986   0.196   3.809   1.927  1.7201  0.2730  0.2925
  985SOL    MW4 3987   0.205   3.894   1.909  0.0586  0.2866 -0.6250
  986SOL     OW 3988   0.048   4.296   1.856 -0.3824  0.1082 -0.1876
  986SOL    HW2 3989  -0.021   4.344   1.901 -0.0174 -0.8442  1.4649
  986SOL    HW3 3990   0.128   4.319   1.903  0.0317 -0.7852 -0.4306
  986SOL    MW4 3991   0.050   4.305   1.868 -0.2797 -0.1349 -0.0017
  987SOL     OW 3992   4.476   4.271   1.583  0.1216  0.4783  0.7113
  987SOL    HW2 3993   4.395   4.316   1.562 -0.0685  0.7220  1.9380
  987SOL    HW3 3994   4.492   4.292   1.675  0.4509 -1.2813  1.0738
  987SOL    MW4 3995   4.467   4.280   1.592  0.1407  0.2785  0.9209
  988SOL     OW 3996   0.263   4.356   2.042 -0.1580  0.1568 -0.1520
  988SOL    HW2 3997   0.238   4.345   2.134 -0.4030  0.2049 -0.2139
  988SOL    HW3 3998   0.291   4.448   2.035 -0.7676  0.3311 -0.2784
  988SOL    MW4 3999   0.264   4.367   2.053 -0.2707  0.1860 -0.1767
  989SOL     OW 4000   0.711   4.661   1.886  0.0630 -0.3195 -0.0494
  989SOL    HW2 4001   0.696   4.568   1.898 -2.6049 -0.0083 -0.6179
  989SOL    HW3 4002   0.719   4.672   1.791  0.5468 -0.0087  0.0279
  989SOL    MW4 4003   0.710   4.650   1.875 -0.2251 -0.2370 -0.1141
  990SOL     OW 4004   0.498   0.125   2.007  0.5813  0.1219 -0.6069
  990SOL    HW2 4005   0.486   0.214   1.973 -1.0608  0.2411  0.2347
  990SOL    HW3 4006   0.567   0.088   1.952 -1.3392  0.6130 -3.5038
  990SOL    MW4 4007   0.505   0.132   1.995  0.1113  0.2024 -0.8782
  991SOL     OW 4008   0.447   0.384   1.917 -0.3288  0.8875  0.1070
  991SOL    HW2 4009   0.519   0.444   1.935  2.3278 -1.6487 -1.5729
  991SOL    HW3 4010   0.448   0.374   1.822 -1.2232 -1.1665  0.2880
  991SOL    MW4 4011   0.456   0.390   1.907 -0.0963  0.2819 -0.0907
  992SOL     OW 4012   0.648   0.540   1.987  0.3023  0.5874 -0.5793
  992SOL    HW2 4013   0.719   0.488   1.949 -0.4915 -0.1334 -1.0822
  992SOL    HW3 4014   0.655   0.524   2.081  0.4210  0.0331 -0.6798
  992SOL    MW4 4015   0.658   0.531   1.994  0.2132  0.4191 -0.6589
  993SOL     OW 4016   0.702   0.796   1.913 -0.1875  0.2740  0.2143
  993SOL    HW2 4017   0.776   0.827   1.964  0.7636  0.8051 -1.4732
  993SOL    HW3 4018   0.690   0.705   1.941  1.8194 -0.1763 -0.3306
  993SOL    MW4 4019   0.710   0.788   1.923  0.2028  0.2847 -0.0803
  994SOL     OW 4020   0.479   0.921   2.051 -0.2288  0.2803 -0.2906
  994SOL    HW2 4021   0.493   1.013   2.031  0.2284  0.4134  0.6392
  994SOL    HW3 4022   0.541   0.874   1.996 -2.0383  0.3896 -2.4740
  994SOL    MW4 4023   0.489   0.927   2.041 -0.4072  0.3123 -0.4561
  995SOL     OW 4024   0.506   1.194   1.963  0.3822  0.2489  0.4156
  995SOL    HW2 4025   0.425   1.242   1.977 -0.3539 -1.0665  0.7589
  995SOL    HW3 4026   0.507   1.177   1.868 -0.6164 -1.2100  0.6452
  995SOL    MW4 4027   0.496   1.198   1.952  0.1534 -0.1168  0.4913
  996SOL     OW 4028   0.735   1.324   2.024  0.4908 -0.2712  0.0567
  996SOL    HW2 4029   0.727   1.307   2.118  2.1935  0.0631  0.2763
  996SOL    HW3 4030   0.662   1.275   1.985 -2.0319  1.9655  1.7887
  996SOL    MW4 4031   0.724   1.315   2.031  0.3826  0.0679  0.3145
  997SOL     OW 4032   0.723   1.576   1.871  0.0649  0.0415 -0.0763
  997SOL    HW2 4033   0.734   1.496   1.922  0.6956 -0.2530 -0.6660
  997SOL    HW3 4034   0.719   1.546   1.780 -0.5845  0.6026 -0.2389
  997SOL    MW4 4035   0.724   1.561   1.866  0.0625  0.0768 -0.1757
  998SOL     OW 4036   0.446   1.649   1.920 -0.3974  0.0478  0.1475
  998SOL    HW2 4037   0.432   1.678   2.011 -0.4838 -2.3970  0.9459
  998SOL    HW3 4038   0.542   1.642   1.913 -0.2881  1.8440 -0.5056
  998SOL    MW4 4039   0.457   1.652   1.931 -0.3943 -0.0378  0.1667
  999SOL     OW 4040   0.435   1.941   1.903  0.1535 -0.0362  0.2022
  999SOL    HW2 4041   0.426   1.846   1.898 -0.0887 -0.0259  0.4217
  999SOL    HW3 4042   0.363   1.969   1.960 -0.1283  0.3332 -0.3299
  999SOL    MW4 4043   0.424   1.932   1.910  0.0844  0.0138  0.1609
 1000SOL     OW 4044   0.669   2.086   1.995  0.4992 -0.0848  0.0691
 1000SOL    HW2 4045   0.640   2.054   2.081  0.0263  0.6544  0.1956
 1000SOL    HW3 4046   0.615   2.040   1.932  0.0415  0.2337  0.2299
 1000SOL    MW4 4047   0.658   2.076   1.998  0.3764  0.0548  0.1070
 1001SOL     OW 4048   0.690   2.344   1.878 -0.0454  0.5266  0.0612
 1001SOL    HW2 4049   0.690   2.254   1.911  1.4923  0.6603  0.4969
 1001SOL    HW3 4050   0.697   2.335   1.783 -0.4223  0.1789  0.0678
 1001SOL    MW4 4051   0.691   2.331   1.870  0.1078  0.4983  0.1196
 1002SOL     OW 4052   0.461   2.475   1.979  0.1320 -0.3171  0.5971
 1002SOL    HW2 4053   0.452   2.455   2.072 -0.3764 -0.0721  0.5969
 1002SOL    HW3 4054   0.540   2.427   1.953  0.9974  0.6308  1.4423
 1002SOL    MW4 4055   0.471   2.466   1.988  0.1791 -0.1600  0.7087
 1003SOL     OW 4056   0.504   2.733   1.912 -0.7730 -0.1617  0.0025
 1003SOL    HW2 4057   0.504   2.641   1.940 -2.5983 -0.5701 -1.2220
 1003SOL    HW3 4058   0.426   2.770   1.952 -0.0696  0.8565  0.4446
 1003SOL    MW4 4059   0.494   2.726   1.921 -0.9210 -0.0811 -0.1009
 1004SOL     OW 4060   0.698   2.899   2.028  0.5202 -0.3375  0.0054
 1004SOL    HW2 4061   0.717   2.872   2.118  0.1952  2.3425  0.9201
 1004SOL    HW3 4062   0.627   2.841   2.000 -0.2720 -0.3229  1.9270
 1004SOL    MW4 4063   0.691   2.888   2.036  0.3727  0.0179  0.3798
 1005SOL     OW 4064   0.693   3.122   1.869  0.1591  0.0063 -0.4253
 1005SOL    HW2 4065   0.686   3.037   1.912  1.1148  0.2758  0.2818
 1005SOL    HW3 4066   0.693   3.101   1.775 -2.0419 -0.5746 -0.3354
 1005SOL    MW4 4067   0.692   3.108   1.862 -0.0052 -0.0348 -0.3200
 1006SOL     OW 4068   0.459   3.212   1.989 -0.2440  0.2771 -0.4433
 1006SOL    HW2 4069   0.453   3.304   1.964  1.8987  0.5018 -0.2215
 1006SOL    HW3 4070   0.536   3.179   1.943 -0.6485 -1.2521 -0.0620
 1006SOL    MW4 4071   0.468   3.220   1.980 -0.0147  0.1051 -0.3637
 1007SOL     OW 4072   0.438   3.478   1.906  0.8410  0.5152 -0.0612
 1007SOL    HW2 4073   0.507   3.536   1.939  0.1785  1.0738  0.3429
 1007SOL    HW3 4074   0.443   3.487   1.811  2.3027 -0.5785 -0.1188
 1007SOL    MW4 4075   0.448   3.487   1.898  0.9465  0.4447 -0.0156
 1008SOL     OW 4076   0.665   3.637   1.989 -0.2465 -0.0282 -0.0831
 1008SOL    HW2 4077   0.714   3.599   1.915  0.9989  0.7311  0.3403
 1008SOL    HW3 4078   0.660   3.730   1.969 -0.9642 -0.0051  0.2045
 1008SOL    MW4 4079   0.671   3.644   1.976 -0.1769  0.0749  0.0106
 1009SOL     OW 4080   0.668   3.896   1.909  0.1489 -0.0641  0.4269
 1009SOL    HW2 4081   0.755   3.935   1.920  0.4738 -0.4856 -0.6402
 1009SOL    HW3 4082   0.658   3.884   1.815 -2.0441  2.2330  0.3026
 1009SOL    MW4 4083   0.678   3.900   1.898 -0.0975  0.1831  0.2698
 1010SOL     OW 4084   0.435   3.989   2.025  0.1162  0.1186 -0.6638
 1010SOL    HW2 4085   0.430   4.081   2.000 -0.1007  0.4044  0.3824
 1010SOL    HW3 4086   0.520   3.960   1.993  0.3212  0.7719 -0.7205
 1010SOL    MW4 4087   0.446   3.998   2.018  0.1146  0.2427 -0.5331
 1011SOL     OW 4088   0.470   4.253   1.871 -0.0937 -0.0032  0.0866
 1011SOL    HW2 4089   0.402   4.307   1.911  1.5065  2.9930 -1.0658
 1011SOL    HW3 4090   0.448   4.252   1.777  1.0144  0.3557 -0.1850
 1011SOL    MW4 4091   0.458   4.260   1.864  0.2636  0.4396 -0.1012
 1012SOL     OW 4092   0.687   4.389   1.987  0.0083 -0.1889  0.1972
 1012SOL    HW2 4093   0.768   4.346   1.961  1.3620  1.3333  1.7509
 1012SOL    HW3 4094   0.618   4.330   1.957  1.6256 -0.9453 -2.1928
 1012SOL    MW4 4095   0.688   4.375   1.980  0.4002 -0.0877  0.0868
 1013SOL     OW 4096   1.101   4.626   1.900  0.1764 -0.0722  0.2000
 1013SOL    HW2 4097   1.169   4.684   1.933  0.4633 -0.4282  0.2283
 1013SOL    HW3 4098   1.121   4.541   1.938  1.4814 -0.8874 -2.2113
 1013SOL    MW4 4099   1.112   4.622   1.909  0.3866 -0.2270 -0.1143
 1014SOL     OW 4100   0.912   0.147   1.999  0.0358 -0.2215  0.1398
 1014SOL    HW2 4101   0.984   0.090   1.973  0.1160 -0.4497  0.8541
 1014SOL    HW3 4102   0.833   0.099   1.973  0.0689 -1.1644  1.7181
 1014SOL    MW4 4103   0.911   0.133   1.992  0.0508 -0.3760  0.4423
 1015SOL     OW 4104   0.859   0.398   1.902  0.3230 -0.0857 -0.1972
 1015SOL    HW2 4105   0.938   0.449   1.918 -0.2730  0.8149 -0.0796
 1015SOL    HW3 4106   0.869   0.320   1.957  0.7186  0.4435  0.4873
 1015SOL    MW4 4107   0.871   0.395   1.911  0.2965  0.1029 -0.0914
 1016SOL     OW 4108   1.111   0.496   1.985 -0.2603 -0.1995  0.1353
 1016SOL    HW2 4109   1.189   0.454   1.948 -0.7232  0.2395 -1.3532
 1016SOL    HW3 4110   1.121   0.588   1.964 -0.3580  0.1229  1.4454
 1016SOL    MW4 4111   1.123   0.502   1.978 -0.3344 -0.0991  0.1118
 1017SOL     OW 4112   1.143   0.765   1.927 -0.6260 -0.2948 -0.1690
 1017SOL    HW2 4113   1.219   0.801   1.972  0.4374 -1.0364 -1.3344
 1017SOL    HW3 4114   1.067   0.805   1.971  0.4415  0.8964  0.6072
 1017SOL    MW4 4115   1.143   0.775   1.939 -0.3449 -0.2354 -0.2205
 1018SOL     OW 4116   0.913   0.889   2.047  0.2342 -0.1740 -0.2349
 1018SOL    HW2 4117   0.907   0.910   2.141 -0.4280 -1.3191 -0.0211
 1018SOL    HW3 4118   0.924   0.974   2.005 -0.2155  0.4206  0.8246
 1018SOL    MW4 4119   0.913   0.903   2.054  0.0874 -0.2466 -0.0668
 1019SOL     OW 4120   0.901   1.127   1.904  0.2022 -0.6625  0.4738
 1019SOL    HW2 4121   0.842   1.197   1.933 -0.0179 -1.6037  2.3571
 1019SOL    HW3 4122   0.890   1.125   1.809 -1.7962  0.0738  0.6642
 1019SOL    MW4 4123   0.892   1.136   1.895 -0.0905 -0.6895  0.7473
 1020SOL     OW 4124   1.137   1.231   2.026  0.0083 -0.5394 -0.1731
 1020SOL    HW2 4125   1.136   1.322   1.995  1.8174 -0.5413 -0.2877
 1020SOL    HW3 4126   1.071   1.187   1.973  0.3601  0.3264 -1.3560
 1020SOL    MW4 4127   1.129   1.237   2.015  0.2935 -0.4256 -0.3443
 1021SOL     OW 4128   1.119   1.482   1.917 -0.0241  0.0413 -0.2586
 1021SOL    HW2 4129   1.078   1.555   1.965 -0.3343  0.4276 -1.1040
 1021SOL    HW3 4130   1.102   1.502   1.825  1.7713  0.0309 -0.6127
 1021SOL    MW4 4131   1.112   1.495   1.911  0.1718  0.0907 -0.4169
 1022SOL     OW 4132   0.944   1.674   2.031  0.1372  0.3523  0.0661
 1022SOL    HW2 4133   0.943   1.768   2.013  0.0087  0.2451 -0.4874
 1022SOL    HW3 4134   0.878   1.637   1.973  0.8293 -0.2046 -0.3759
 1022SOL    MW4 4135   0.935   1.682   2.021  0.2117  0.2649 -0.0648
 1023SOL     OW 4136   0.911   1.953   1.928  0.0256 -0.1351 -0.1495
 1023SOL    HW2 4137   0.828   1.998   1.943 -0.5680 -0.8244 -1.2937
 1023SOL    HW3 4138   0.913   1.937   1.834  1.7027  0.3313 -0.2139
 1023SOL    MW4 4139   0.900   1.957   1.918  0.1686 -0.1645 -0.3089
 1024SOL     OW 4140   1.149   2.053   2.028 -0.0075  0.4719  0.1978
 1024SOL    HW2 4141   1.148   2.145   2.002 -0.7850  0.6204  0.7221
 1024SOL    HW3 4142   1.064   2.019   1.999  0.1985 -0.0342  0.1761
 1024SOL    MW4 4143   1.138   2.061   2.021 -0.0831  0.4246  0.2644
 1025SOL     OW 4144   1.133   2.296   1.927 -0.2243  0.1996 -0.8231
 1025SOL    HW2 4145   1.209   2.344   1.961 -1.2565  0.2935  1.4536
 1025SOL    HW3 4146   1.133   2.314   1.833  1.0147  2.4146 -0.4343
 1025SOL    MW4 4147   1.143   2.305   1.919 -0.1969  0.5043 -0.4714
 1026SOL     OW 4148   0.917   2.469   1.998  0.1075  0.0254  0.1645
 1026SOL    HW2 4149   0.996   2.419   1.978  0.4474  0.6894 -0.1930
 1026SOL    HW3 4150   0.845   2.416   1.962  0.5011  0.0182 -0.6298
 1026SOL    MW4 4151   0.918   2.456   1.990  0.2043  0.1121  0.0124
 1027SOL     OW 4152   0.886   2.744   1.882  0.4025  0.3493 -0.3552
 1027SOL    HW2 4153   0.887   2.657   1.921 -0.2382  0.3469 -0.3378
 1027SOL    HW3 4154   0.812   2.788   1.925  1.8048  1.4915  0.9368
 1027SOL    MW4 4155   0.876   2.738   1.893  0.5029  0.4997 -0.1824
 1028SOL     OW 4156   1.111   2.853   1.988 -0.3323 -0.4635 -0.3708
 1028SOL    HW2 4157   1.102   2.836   2.082 -0.3185 -0.3421 -0.3474
 1028SOL    HW3 4158   1.035   2.810   1.949 -1.2096  0.8525 -0.1361
 1028SOL    MW4 4159   1.100   2.845   1.995 -0.4461 -0.2737 -0.3369
 1029SOL     OW 4160   1.165   3.133   1.916 -0.5313 -0.2374 -0.3739
 1029SOL    HW2 4161   1.076   3.166   1.910 -0.6296 -0.0715  1.5753
 1029SOL    HW3 4162   1.155   3.042   1.944 -0.0710  0.2098  1.3136
 1029SOL    MW4 4163   1.152   3.125   1.919 -0.4833 -0.1566  0.1057
 1030SOL     OW 4164   0.907   3.276   1.949  0.4893 -0.6916  0.0593
 1030SOL    HW2 4165   0.919   3.260   2.043  0.3619 -0.6684  0.0790
 1030SOL    HW3 4166   0.839   3.215   1.923  0.6802 -0.8512 -0.0642
 1030SOL    MW4 4167   0.900   3.266   1.958  0.4978 -0.7100  0.0455
 1031SOL     OW 4168   0.782   3.487   1.797  0.0546  0.0165 -0.3381
 1031SOL    HW2 4169   0.810   3.405   1.838 -0.8057 -0.1070  0.0056
 1031SOL    HW3 4170   0.834   3.493   1.717  0.1214 -0.8602 -0.3581
 1031SOL    MW4 4171   0.793   3.477   1.792 -0.0501 -0.1154 -0.2954
 1032SOL     OW 4172   1.120   3.546   1.985  0.3307  0.0841 -0.0246
 1032SOL    HW2 4173   1.108   3.564   2.078  0.8640  1.3910 -0.2050
 1032SOL    HW3 4174   1.048   3.486   1.963 -0.2095  0.3211  1.0656
 1032SOL    MW4 4175   1.109   3.540   1.994  0.3297  0.2880  0.0956
 1033SOL     OW 4176   1.160   3.802   1.921 -0.1409  0.1286 -0.7304
 1033SOL    HW2 4177   1.143   3.709   1.931 -0.8203  0.3458  0.1810
 1033SOL    HW3 4178   1.134   3.822   1.831  0.8004 -0.7167 -1.2026
 1033SOL    MW4 4179   1.155   3.793   1.910 -0.1063  0.0455 -0.6726
 1034SOL     OW 4180   0.927   3.960   1.985 -0.4290  0.2290 -0.4611
 1034SOL    HW2 4181   0.910   3.958   2.080  0.6816  0.2949 -0.2525
 1034SOL    HW3 4182   1.005   3.906   1.974 -0.4464  0.3774 -1.3258
 1034SOL    MW4 4183   0.935   3.952   1.996 -0.2847  0.2573 -0.5476
 1035SOL     OW 4184   0.931   4.216   1.894  0.3976  0.0637  0.2535
 1035SOL    HW2 4185   1.003   4.265   1.934 -0.6164  0.9122  1.0889
 1035SOL    HW3 4186   0.934   4.130   1.936  1.4863 -0.2247 -0.3952
 1035SOL    MW4 4187   0.941   4.211   1.905  0.4075  0.1378  0.2781
 1036SOL     OW 4188   1.128   4.374   2.017 -0.2952  0.3101  0.1848
 1036SOL    HW2 4189   1.138   4.377   2.113  0.3592  1.6627  0.0965
 1036SOL    HW3 4190   1.208   4.332   1.986 -0.6247 -0.3628  0.2507
 1036SOL    MW4 4191   1.140   4.369   2.026 -0.2524  0.3996  0.1822
 1037SOL     OW 4192   1.570   4.634   1.902 -0.2750 -0.2886 -0.5153
 1037SOL    HW2 4193   1.644   4.688   1.931 -1.0191  0.6753 -0.3963
 1037SOL    HW3 4194   1.591   4.546   1.935  0.5909  0.0692 -0.0845
 1037SOL    MW4 4195   1.583   4.629   1.910 -0.2588 -0.1140 -0.4427
 1038SOL     OW 4196   1.332   0.101   2.004 -0.3083  0.0353 -0.3287
 1038SOL    HW2 4197   1.325   0.080   2.097 -1.0086 -0.4730 -0.4883
 1038SOL    HW3 4198   1.400   0.043   1.972 -0.3063 -0.0337 -0.2011
 1038SOL    MW4 4199   1.340   0.091   2.012 -0.4004 -0.0409 -0.3331
 1039SOL     OW 4200   1.339   0.365   1.913 -0.3432 -0.3615 -0.1592
 1039SOL    HW2 4201   1.335   0.287   1.969 -1.3671  0.0381  0.3483
 1039SOL    HW3 4202   1.344   0.331   1.824 -1.4152 -1.0110  0.0224
 1039SOL    MW4 4203   1.339   0.350   1.909 -0.6200 -0.3945 -0.0683
 1040SOL     OW 4204   1.568   0.507   2.011  0.0424  0.0762  0.4954
 1040SOL    HW2 4205   1.644   0.450   2.000  0.7649  1.1660 -0.1807
 1040SOL    HW3 4206   1.496   0.458   1.973  0.6679 -0.3890 -0.1051
 1040SOL    MW4 4207   1.569   0.493   2.005  0.2204  0.1586  0.3269
 1041SOL     OW 4208   1.584   0.756   1.865 -0.2851  0.5115  0.1826
 1041SOL    HW2 4209   1.674   0.779   1.889  0.9144 -1.6653 -1.9442
 1041SOL    HW3 4210   1.567   0.673   1.910  0.0320 -0.7987 -2.0209
 1041SOL    MW4 4211   1.594   0.748   1.874 -0.0852  0.0514 -0.3887
 1042SOL     OW 4212   1.370   0.886   1.995  0.1014  0.0666 -0.3000
 1042SOL    HW2 4213   1.394   0.886   2.088  0.2943 -0.5331 -0.3500
 1042SOL    HW3 4214   1.437   0.832   1.953 -0.7102 -0.7190 -0.6012
 1042SOL    MW4 4215   1.382   0.879   2.002  0.0199 -0.1162 -0.3464
 1043SOL     OW 4216   1.365   1.129   1.862 -0.1185  0.4974 -0.2674
 1043SOL    HW2 4217   1.374   1.039   1.892 -0.5100  0.4692 -0.2312
 1043SOL    HW3 4218   1.290   1.163   1.911 -0.9332  0.3704 -1.4138
 1043SOL    MW4 4219   1.357   1.122   1.873 -0.2778  0.4770 -0.4139
 1044SOL     OW 4220   1.582   1.242   2.000  0.1556 -0.0069 -0.0623
 1044SOL    HW2 4221   1.608   1.319   1.950 -0.6538  0.6233  0.4724
 1044SOL    HW3 4222   1.510   1.203   1.951  0.8507 -0.6912 -0.5646
 1044SOL    MW4 4223   1.576   1.247   1.987  0.1404 -0.0139 -0.0581
 1045SOL     OW 4224   1.598   1.508   1.930 -0.2452  0.4267 -0.2250
 1045SOL    HW2 4225   1.667   1.546   1.984 -0.0040  0.6713 -0.7036
 1045SOL    HW3 4226   1.516   1.541   1.969 -0.0371  1.5781 -0.7381
 1045SOL    MW4 4227   1.596   1.517   1.942 -0.1858  0.6109 -0.3558
 1046SOL     OW 4228   1.352   1.624   1.971 -0.3960 -0.0118 -0.1899
 1046SOL    HW2 4229   1.343   1.629   2.066  0.0374 -0.5643 -0.1163
 1046SOL    HW3 4230   1.283   1.564   1.944 -0.3132 -0.1087 -0.1875
 1046SOL    MW4 4231   1.342   1.617   1.980 -0.3279 -0.0974 -0.1799
 1047SOL     OW 4232   1.322   1.909   1.855 -0.1002  0.2281  0.4630
 1047SOL    HW2 4233   1.344   1.826   1.897  1.7394  0.3147 -0.2676
 1047SOL    HW3 4234   1.266   1.953   1.918 -1.2698 -1.6416  0.7853
 1047SOL    MW4 4235   1.318   1.904   1.869 -0.0118 -0.0073  0.4091
 1048SOL     OW 4236   1.543   2.043   1.971  0.1187 -0.4028 -0.0294
 1048SOL    HW2 4237   1.544   2.126   1.923 -1.7771 -0.6871 -0.5818
 1048SOL    HW3 4238   1.484   1.987   1.922 -0.3173 -1.3603  1.5420
 1048SOL    MW4 4239   1.536   2.046   1.958 -0.1888 -0.5670  0.1050
 1049SOL     OW 4240   1.573   2.322   1.561 -0.0320 -0.0881  0.2831
 1049SOL    HW2 4241   1.654   2.372   1.555 -0.1085 -0.0039 -0.0676
 1049SOL    HW3 4242   1.594   2.238   1.520 -0.7087  0.6776 -1.6990
 1049SOL    MW4 4243   1.586   2.317   1.555 -0.1315  0.0241 -0.0248
 1050SOL     OW 4244   1.545   2.292   1.841 -0.5480 -0.4157  0.3253
 1050SOL    HW2 4245   1.630   2.320   1.875 -0.9488  1.9268 -0.5342
 1050SOL    HW3 4246   1.550   2.308   1.747 -1.6048 -1.1390  0.1341
 1050SOL    MW4 4247   1.557   2.298   1.833 -0.7403 -0.2019  0.1867
 1051SOL     OW 4248   1.361   2.719   1.907  0.0610 -0.6116  0.0525
 1051SOL    HW2 4249   1.295   2.774   1.950  0.5682  0.4735 -0.5350
 1051SOL    HW3 4250   1.338   2.723   1.814  1.0679 -0.0645 -0.1768
 1051SOL    MW4 4251   1.349   2.727   1.900  0.2607 -0.3963 -0.0552
 1052SOL     OW 4252   1.589   2.847   2.017 -0.0963 -0.2192  0.6702
 1052SOL    HW2 4253   1.658   2.797   1.973 -0.2570 -1.4793  1.8037
 1052SOL    HW3 4254   1.508   2.811   1.981 -0.1875  0.4197  0.2316
 1052SOL    MW4 4255   1.587   2.835   2.006 -0.1296 -0.3009  0.7620
 1053SOL     OW 4256   1.559   3.089   1.891  0.1023 -0.3273  0.4846
 1053SOL    HW2 4257   1.558   3.005   1.936  2.0495 -1.1432 -0.9324
 1053SOL    HW3 4258   1.535   3.068   1.800 -0.0232  0.7442  0.2658
 1053SOL    MW4 4259   1.555   3.075   1.885  0.3426 -0.2933  0.2687
 1054SOL     OW 4260   1.369   3.250   2.026  0.2389 -0.2251  0.4638
 1054SOL    HW2 4261   1.449   3.218   1.984 -0.1191  0.9968 -1.2276
 1054SOL    HW3 4262   1.298   3.203   1.982 -0.1271  0.9307 -0.2318
 1054SOL    MW4 4263   1.370   3.240   2.015  0.1434  0.0887  0.1490
 1055SOL     OW 4264   1.351   3.445   1.837 -0.1161 -0.0107  0.5174
 1055SOL    HW2 4265   1.366   3.370   1.894  0.4352  0.6221  1.2292
 1055SOL    HW3 4266   1.270   3.485   1.870 -0.2853 -0.1620  0.2852
 1055SOL    MW4 4267   1.342   3.441   1.849 -0.0657  0.0527  0.5807
 1056SOL     OW 4268   1.546   3.615   1.956 -0.1370 -0.0567 -0.1391
 1056SOL    HW2 4269   1.532   3.605   2.050 -0.4180 -0.0795 -0.1815
 1056SOL    HW3 4270   1.473   3.567   1.916 -0.1143  0.0979 -0.3674
 1056SOL    MW4 4271   1.534   3.607   1.963 -0.1711 -0.0391 -0.1749
 1057SOL     OW 4272   1.610   3.865   1.858 -0.1047  0.6123  0.3250
 1057SOL    HW2 4273   1.615   3.781   1.903 -0.0583 -0.3115 -1.4066
 1057SOL    HW3 4274   1.674   3.920   1.903  1.5513 -0.9765 -0.0322
 1057SOL    MW4 4275   1.619   3.861   1.870  0.1199  0.2806  0.0496
 1058SOL     OW 4276   1.403   3.972   1.991  0.2263  0.6104 -0.4522
 1058SOL    HW2 4277   1.473   3.932   1.939  0.9998  0.5840  0.5863
 1058SOL    HW3 4278   1.327   3.916   1.977  0.1349  1.1533 -2.3242
 1058SOL    MW4 4279   1.402   3.960   1.982  0.3163  0.6785 -0.5622
 1059SOL     OW 4280   1.392   4.254   1.941  0.6831  0.2594 -0.0927
 1059SOL    HW2 4281   1.404   4.160   1.958  2.7907  0.9506  2.6609
 1059SOL    HW3 4282   1.393   4.261   1.845 -0.6672 -2.6295 -0.3855
 1059SOL    MW4 4283   1.394   4.243   1.930  0.7832 -0.0300  0.2320
 1060SOL     OW 4284   1.630   4.360   2.039 -0.1751 -0.0749  0.2554
 1060SOL    HW2 4285   1.636   4.386   2.130 -3.6056  0.8547  0.2624
 1060SOL    HW3 4286   1.542   4.325   2.029  0.0690  0.0108 -2.7474
 1060SOL    MW4 4287   1.619   4.359   2.049 -0.5956  0.0591 -0.1400
 1061SOL     OW 4288   1.989   4.623   1.880  0.3819 -0.1294  0.1330
 1061SOL    HW2 4289   2.066   4.664   1.921  0.9175 -1.3210  0.3484
 1061SOL    HW3 4290   1.987   4.535   1.917 -1.1457 -0.0745  0.1806
 1061SOL    MW4 4291   1.999   4.617   1.890  0.2509 -0.2789  0.1678
 1062SOL     OW 4292   1.793   0.094   1.998 -0.0554  0.4140  0.0930
 1062SOL    HW2 4293   1.792   0.084   2.093  0.1569  1.1160  0.1715
 1062SOL    HW3 4294   1.871   0.046   1.970  0.8013  1.5946  0.4377
 1062SOL    MW4 4295   1.803   0.086   2.007  0.0856  0.6624  0.1490
 1063SOL     OW 4296   1.775   0.357   1.894 -0.0671  0.5592 -0.1736
 1063SOL    HW2 4297   1.775   0.263   1.914  0.4215  0.8533  1.2887
 1063SOL    HW3 4298   1.774   0.362   1.798  1.4017 -0.9375 -0.2784
 1063SOL    MW4 4299   1.775   0.345   1.884  0.1912  0.4005  0.0055
 1064SOL     OW 4300   2.027   0.491   1.991 -0.2036  0.0832  0.3760
 1064SOL    HW2 4301   2.036   0.564   1.930 -0.3401  0.3674  0.6931
 1064SOL    HW3 4302   1.947   0.447   1.965  1.7029 -2.1113 -2.0957
 1064SOL    MW4 4303   2.018   0.495   1.979  0.0298 -0.1688  0.0917
 1065SOL     OW 4304   2.044   0.713   1.842  0.2339 -0.4605  0.2410
 1065SOL    HW2 4305   2.054   0.715   1.747 -0.5882  1.2277  0.1784
 1065SOL    HW3 4306   2.114   0.769   1.875  0.0672 -0.4562  0.5901
 1065SOL    MW4 4307   2.054   0.721   1.834  0.1035 -0.2372  0.2787
 1066SOL     OW 4308   1.826   0.853   1.965  0.1418  0.4040  0.3690
 1066SOL    HW2 4309   1.837   0.943   1.932  1.0644  0.0189 -0.3876
 1066SOL    HW3 4310   1.895   0.803   1.923 -0.1708 -0.6121  1.0353
 1066SOL    MW4 4311   1.836   0.859   1.955  0.2224  0.2192  0.3569
 1067SOL     OW 4312   1.814   1.132   1.897  0.0764  0.3574  0.2725
 1067SOL    HW2 4313   1.730   1.146   1.942 -0.1608 -1.2730  0.3635
 1067SOL    HW3 4314   1.793   1.141   1.804 -0.2090 -0.1119  0.2921
 1067SOL    MW4 4315   1.800   1.135   1.890  0.0074  0.0805  0.2872
 1068SOL     OW 4316   2.034   1.296   1.980  0.2078 -0.2681 -0.1801
 1068SOL    HW2 4317   2.103   1.234   1.958  0.9464  1.0763 -1.7489
 1068SOL    HW3 4318   1.953   1.251   1.956  0.4699 -2.0813  2.2206
 1068SOL    MW4 4319   2.032   1.282   1.974  0.3400 -0.3300 -0.0703
 1069SOL     OW 4320   2.041   1.542   1.874 -0.3681 -0.0135  0.3108
 1069SOL    HW2 4321   2.045   1.454   1.911 -0.1120 -0.4454 -0.7198
 1069SOL    HW3 4322   2.041   1.528   1.779  0.5844  1.1296  0.1273
 1069SOL    MW4 4323   2.041   1.528   1.866 -0.2089  0.0802  0.1507
 1070SOL     OW 4324   1.842   1.645   2.035  0.1010 -0.2344  0.6011
 1070SOL    HW2 4325   1.823   1.737   2.012 -0.3050 -0.3051  0.6606
 1070SOL    HW3 4326   1.907   1.618   1.970 -1.0640 -0.4375 -0.5074
 1070SOL    MW4 4327   1.848   1.654   2.023 -0.1062 -0.2705  0.4625
 1071SOL     OW 4328   1.802   1.933   1.933  0.0852 -0.3916 -0.2484
 1071SOL    HW2 4329   1.722   1.981   1.953  0.5952  0.1404  0.5046
 1071SOL    HW3 4330   1.795   1.914   1.840  0.0961  1.5361 -0.6630
 1071SOL    MW4 4331   1.790   1.937   1.923  0.1541 -0.0670 -0.2038
 1072SOL     OW 4332   2.021   2.073   2.010 -0.1517  0.3516 -0.2518
 1072SOL    HW2 4333   2.098   2.018   1.992  0.6553  0.6736  2.1089
 1072SOL    HW3 4334   1.947   2.020   1.981  0.8231 -0.7692 -0.7349
 1072SOL    MW4 4335   2.021   2.058   2.004  0.0832  0.2463 -0.0043
 1073SOL     OW 4336   2.003   2.297   1.862  0.0010 -0.0950 -0.0672
 1073SOL    HW2 4337   2.072   2.347   1.907  0.0722  0.0168 -0.3016
 1073SOL    HW3 4338   1.996   2.216   1.913 -0.1227  0.1576  0.3182
 1073SOL    MW4 4339   2.011   2.293   1.875 -0.0060 -0.0467 -0.0473
 1074SOL     OW 4340   1.770   2.410   1.950  0.0200 -0.2495  0.1166
 1074SOL    HW2 4341   1.771   2.399   2.045  2.0487  1.4314  0.3194
 1074SOL    HW3 4342   1.851   2.369   1.920  0.5968  1.3573 -0.6069
 1074SOL    MW4 4343   1.781   2.403   1.959  0.3638  0.1841  0.0480
 1075SOL     OW 4344   1.776   2.680   1.885  0.3602 -0.0233 -0.1160
 1075SOL    HW2 4345   1.781   2.587   1.906  2.2270  0.3574  1.2741
 1075SOL    HW3 4346   1.786   2.683   1.790  1.6493 -1.1731 -0.0409
 1075SOL    MW4 4347   1.778   2.668   1.875  0.7765 -0.1247  0.0775
 1076SOL     OW 4348   2.005   2.837   1.982 -0.1590  0.5239  0.3200
 1076SOL    HW2 4349   2.009   2.851   2.077 -0.3376  2.2024  0.1005
 1076SOL    HW3 4350   1.922   2.791   1.968  0.1357 -0.2331  1.0381
 1076SOL    MW4 4351   1.995   2.833   1.993 -0.1440  0.6456  0.3858
 1077SOL     OW 4352   2.023   3.085   1.877 -0.0851 -0.0864  0.0171
 1077SOL    HW2 4353   1.941   3.123   1.910  0.1377 -0.1048  0.5874
 1077SOL    HW3 4354   2.028   3.000   1.920  0.4869  0.1240  0.3656
 1077SOL    MW4 4355   2.013   3.079   1.887  0.0196 -0.0610  0.1382
 1078SOL     OW 4356   1.800   3.222   1.955 -0.0762 -0.0419  0.0246
 1078SOL    HW2 4357   1.794   3.221   2.050 -0.5390  0.3489  0.0014
 1078SOL    HW3 4358   1.722   3.177   1.924  0.1824 -0.3600 -0.1654
 1078SOL    MW4 4359   1.789   3.216   1.963 -0.1031 -0.0322 -0.0035
 1079SOL     OW 4360   1.799   3.483   1.897  0.7546 -0.1566  0.2846
 1079SOL    HW2 4361   1.807   3.390   1.917 -1.0001 -0.6952 -1.3983
 1079SOL    HW3 4362   1.716   3.509   1.936 -0.1824 -0.0096 -1.7734
 1079SOL    MW4 4363   1.789   3.474   1.905  0.3995 -0.2084 -0.2090
 1080SOL     OW 4364   2.047   3.592   1.974 -0.1537 -0.2170 -0.5594
 1080SOL    HW2 4365   2.036   3.682   1.944 -1.6176 -0.0128  0.5537
 1080SOL    HW3 4366   1.969   3.546   1.943 -0.1219 -0.7553  0.1390
 1080SOL    MW4 4367   2.035   3.597   1.966 -0.3426 -0.2611 -0.3204
 1081SOL     OW 4368   2.005   3.849   1.876  0.0287 -0.0966 -0.2048
 1081SOL    HW2 4369   2.072   3.913   1.898 -0.9052  1.0962 -0.7778
 1081SOL    HW3 4370   2.008   3.843   1.780 -0.2580 -0.4999 -0.1902
 1081SOL    MW4 4371   2.014   3.856   1.866 -0.1323  0.0079 -0.2786
 1082SOL     OW 4372   1.790   3.992   2.030  0.3141 -0.1715 -0.0927
 1082SOL    HW2 4373   1.783   4.080   1.993 -1.8987 -0.8506 -1.3871
 1082SOL    HW3 4374   1.861   3.951   1.982 -0.2125  0.1349 -1.1451
 1082SOL    MW4 4375   1.798   3.998   2.019 -0.0473 -0.2208 -0.4020
 1083SOL     OW 4376   1.817   4.227   1.880  0.0634 -0.6426 -0.0090
 1083SOL    HW2 4377   1.748   4.282   1.917 -1.4490 -3.3112  1.2589
 1083SOL    HW3 4378   1.781   4.199   1.795  0.6026 -0.1080 -0.4137
 1083SOL    MW4 4379   1.803   4.230   1.873 -0.0650 -0.9236  0.1049
 1084SOL     OW 4380   2.036   4.366   1.969 -0.3010  0.5481 -0.0123
 1084SOL    HW2 4381   2.115   4.334   1.926 -0.3789 -1.1953  1.0804
 1084SOL    HW3 4382   1.964   4.318   1.926 -0.8547  2.4168 -1.2884
 1084SOL    MW4 4383   2.037   4.356   1.957 -0.3846  0.5646 -0.0367
 1085SOL     OW 4384   2.468   4.654   1.883  0.7599  0.1046 -0.5983
 1085SOL    HW2 4385   2.537   4.702   1.929  0.0067  1.3375 -0.7294
 1085SOL    HW3 4386   2.474   4.564   1.917  1.6528  0.4815  0.2540
 1085SOL    MW4 4387   2.478   4.648   1.893  0.7782  0.3166 -0.5032
 1086SOL     OW 4388   2.225   0.072   1.975 -0.0398 -0.4305  0.2526
 1086SOL    HW2 4389   2.236   0.078   2.070 -1.3535 -0.7244  0.4229
 1086SOL    HW3 4390   2.310   0.041   1.944 -0.0293 -1.6959  1.4727
 1086SOL    MW4 4391   2.238   0.068   1.984 -0.2115 -0.6363  0.4358
 1087SOL     OW 4392   2.262   0.351   1.891  0.0899  0.0781  0.3386
 1087SOL    HW2 4393   2.267   0.267   1.937  0.1552 -0.9231 -1.4892
 1087SOL    HW3 4394   2.176   0.386   1.916 -0.1948 -0.8089  0.6259
 1087SOL    MW4 4395   2.251   0.345   1.901  0.0608 -0.1711  0.1353
 1088SOL     OW 4396   2.477   0.480   1.997 -0.3367  0.3844  0.3740
 1088SOL    HW2 4397   2.550   0.452   1.942 -0.4939  2.1939 -0.8221
 1088SOL    HW3 4398   2.400   0.437   1.960  0.0471 -1.1893  1.3762
 1088SOL    MW4 4399   2.476   0.471   1.985 -0.3068  0.4155  0.3487
 1089SOL     OW 4400   2.477   0.741   1.928 -0.1607  0.4602  0.5868
 1089SOL    HW2 4401   2.474   0.652   1.965 -0.1436  0.4197  0.4912
 1089SOL    HW3 4402   2.508   0.728   1.839  1.2372  0.7111  1.0343
 1089SOL    MW4 4403   2.481   0.727   1.921  0.0257  0.4880  0.6331
 1090SOL     OW 4404   2.239   0.858   1.977 -0.1253 -0.5700 -0.0140
 1090SOL    HW2 4405   2.226   0.862   2.072  1.7067 -0.2123  0.2260
 1090SOL    HW3 4406   2.314   0.800   1.965  1.1730  1.2907 -1.1035
 1090SOL    MW4 4407   2.247   0.851   1.988  0.2875 -0.2773 -0.1261
 1091SOL     OW 4408   2.229   1.127   1.864 -0.1998 -0.7845 -0.3271
 1091SOL    HW2 4409   2.310   1.161   1.901 -1.2481  0.6552  0.7065
 1091SOL    HW3 4410   2.215   1.044   1.909  0.6452 -0.9754 -0.4194
 1091SOL    MW4 4411   2.238   1.121   1.875 -0.2265 -0.6198 -0.2030
 1092SOL     OW 4412   2.434   1.276   1.993  0.3138 -0.1190 -0.0414
 1092SOL    HW2 4413   2.455   1.272   2.086  1.1601 -0.8262 -0.2488
 1092SOL    HW3 4414   2.435   1.369   1.972  1.6763 -0.0430  0.3206
 1092SOL    MW4 4415   2.437   1.288   2.003  0.6051 -0.2023 -0.0210
 1093SOL     OW 4416   2.453   1.549   1.911  0.1008 -0.3293  0.0604
 1093SOL    HW2 4417   2.388   1.615   1.939 -0.0763 -0.4281 -0.1215
 1093SOL    HW3 4418   2.430   1.529   1.821 -0.5193 -1.4501  0.4621
 1093SOL    MW4 4419   2.441   1.555   1.903 -0.0043 -0.4902  0.0895
 1094SOL     OW 4420   2.238   1.692   1.995 -0.0580 -0.5998 -0.0597
 1094SOL    HW2 4421   2.233   1.680   2.090 -0.0451 -0.3053 -0.0230
 1094SOL    HW3 4422   2.168   1.636   1.960  0.9088 -1.8689  0.0254
 1094SOL    MW4 4423   2.228   1.683   2.003  0.0713 -0.7285 -0.0436
 1095SOL     OW 4424   2.247   1.931   1.890 -0.4650  0.1686  0.4492
 1095SOL    HW2 4425   2.334   1.964   1.910 -0.2890 -0.5198  0.8342
 1095SOL    HW3 4426   2.246   1.843   1.926 -1.6029  0.4691  1.1721
 1095SOL    MW4 4427   2.258   1.924   1.897 -0.5920  0.1174  0.5955
 1096SOL     OW 4428   2.453   2.073   1.998 -0.0734 -0.0580  0.1549
 1096SOL    HW2 4429   2.538   2.045   1.966  0.2996  0.6295  0.5253
 1096SOL    HW3 4430   2.447   2.166   1.974 -0.4230  0.0757  0.7324
 1096SOL    MW4 4431   2.463   2.082   1.991 -0.0701  0.0503  0.2799
 1097SOL     OW 4432   2.451   2.342   1.888 -0.0566 -0.0744 -0.0155
 1097SOL    HW2 4433   2.372   2.382   1.924 -0.2806  1.2658 -1.9524
 1097SOL    HW3 4434   2.522   2.382   1.938 -0.4614  0.6356  0.0078
 1097SOL    MW4 4435   2.450   2.353   1.899 -0.1397  0.1962 -0.2680
 1098SOL     OW 4436   2.209   2.420   2.008 -0.0747  0.1190 -0.1324
 1098SOL    HW2 4437   2.187   2.405   2.100  1.5007  0.1439  0.2594
 1098SOL    HW3 4438   2.200   2.514   1.995 -0.1494  0.1339  0.0305
 1098SOL    MW4 4439   2.205   2.430   2.018  0.1235  0.1247 -0.0594
 1099SOL     OW 4440   2.248   2.690   1.933  0.2992  0.1890 -0.3263
 1099SOL    HW2 4441   2.168   2.743   1.929  0.2639  0.1375 -0.3016
 1099SOL    HW3 4442   2.266   2.666   1.842 -1.0042 -1.7566 -0.0995
 1099SOL    MW4 4443   2.240   2.694   1.921  0.1225 -0.0744 -0.2930
 1100SOL     OW 4444   2.490   2.790   2.025  0.5350 -0.1956  0.2534
 1100SOL    HW2 4445   2.494   2.879   1.992  0.1857 -0.2353  0.1009
 1100SOL    HW3 4446   2.407   2.756   1.992  0.1848 -0.2381  1.1663
 1100SOL    MW4 4447   2.479   2.797   2.016  0.4430 -0.2065  0.3536
 1101SOL     OW 4448   2.493   3.049   1.916 -0.2172  0.2902  0.3685
 1101SOL    HW2 4449   2.411   3.094   1.936  0.9387  2.3663  0.5296
 1101SOL    HW3 4450   2.495   3.047   1.820 -0.0171  1.0973  0.3486
 1101SOL    MW4 4451   2.482   3.055   1.906 -0.0384  0.6707  0.3871
 1102SOL     OW 4452   2.265   3.190   1.968  0.6357  0.7838 -0.4560
 1102SOL    HW2 4453   2.244   3.188   2.062  1.5494 -0.6285 -0.2640
 1102SOL    HW3 4454   2.184   3.163   1.925  0.0042  2.1080 -0.1212
 1102SOL    MW4 4455   2.252   3.186   1.975  0.6731  0.7725 -0.3865
 1103SOL     OW 4456   2.253   3.441   1.845  0.6875 -0.0397 -0.4820
 1103SOL    HW2 4457   2.259   3.352   1.880 -0.1777 -0.0502 -0.3527
 1103SOL    HW3 4458   2.186   3.484   1.899  0.7721  0.5442 -0.8412
 1103SOL    MW4 4459   2.245   3.435   1.857  0.5844  0.0362 -0.5124
 1104SOL     OW 4460   2.456   3.599   1.966  0.2011  0.2735  0.1671
 1104SOL    HW2 4461   2.446   3.593   2.061 -1.3104  0.8542  0.0666
 1104SOL    HW3 4462   2.396   3.533   1.932  1.3328 -0.4814 -0.3720
 1104SOL    MW4 4463   2.446   3.590   1.974  0.1509  0.2503  0.0826
 1105SOL     OW 4464   2.454   3.879   1.880  0.2024 -0.1881 -0.0788
 1105SOL    HW2 4465   2.370   3.918   1.906 -0.2968 -0.3225 -1.4700
 1105SOL    HW3 4466   2.452   3.791   1.919 -0.9501 -0.7297 -1.3023
 1105SOL    MW4 4467   2.442   3.872   1.889 -0.0157 -0.2773 -0.4238
 1106SOL     OW 4468   2.215   4.017   1.959  0.5197 -0.2676 -0.0842
 1106SOL    HW2 4469   2.218   4.037   2.053 -1.1280 -0.6067  0.0465
 1106SOL    HW3 4470   2.233   4.101   1.917  0.2423  0.0990  0.5213
 1106SOL    MW4 4471   2.218   4.031   1.966  0.2658 -0.2642  0.0129
 1107SOL     OW 4472   2.256   4.264   1.845  0.2500  0.1354 -0.1087
 1107SOL    HW2 4473   2.336   4.306   1.875 -1.1970  2.2780  0.8850
 1107SOL    HW3 4474   2.267   4.255   1.750  1.4045  0.9595 -0.0560
 1107SOL    MW4 4475   2.268   4.268   1.836  0.2115  0.5269  0.0292
 1108SOL     OW 4476   2.477   4.395   1.985  0.3189  0.5323 -0.1842
 1108SOL    HW2 4477   2.482   4.395   2.081 -0.5796 -0.5357 -0.1276
 1108SOL    HW3 4478   2.555   4.346   1.957  0.6295  0.9204 -0.0074
 1108SOL    MW4 4479   2.488   4.388   1.994  0.2413  0.4420 -0.1534
 1109SOL     OW 4480   2.862   4.413   1.975 -0.2566 -0.0263 -0.0017
 1109SOL    HW2 4481   2.858   4.409   2.071  0.6121 -1.3598 -0.0135
 1109SOL    HW3 4482   2.795   4.351   1.946  1.6248 -2.0057 -0.2328
 1109SOL    MW4 4483   2.853   4.404   1.984  0.1063 -0.4635 -0.0339
 1110SOL     OW 4484   2.699   0.113   2.005 -0.6199  0.0968  0.3135
 1110SOL    HW2 4485   2.711   0.115   2.100 -1.7034 -2.5293  0.5438
 1110SOL    HW3 4486   2.779   0.073   1.972  0.3807  2.2945 -0.0632
 1110SOL    MW4 4487   2.711   0.108   2.014 -0.6311  0.0403  0.2940
 1111SOL     OW 4488   2.691   0.373   1.873  0.8199 -0.5265  0.5955
 1111SOL    HW2 4489   2.767   0.417   1.911 -0.4090  1.4084  0.8884
 1111SOL    HW3 4490   2.680   0.295   1.927  0.7050  0.8118  2.5840
 1111SOL    MW4 4491   2.700   0.369   1.885  0.6425 -0.0947  0.8963
 1112SOL     OW 4492   2.912   0.494   2.010 -0.4498  0.4300  0.9934
 1112SOL    HW2 4493   2.980   0.434   1.980 -1.3942  0.3120 -0.9726
 1112SOL    HW3 4494   2.942   0.580   1.981 -0.4634  0.5620  1.3639
 1112SOL    MW4 4495   2.925   0.498   2.003 -0.5763  0.4319  0.7830
 1113SOL     OW 4496   2.927   0.744   1.914 -0.3702  0.4639 -0.3177
 1113SOL    HW2 4497   3.004   0.792   1.944 -0.8025 -0.0386  1.6671
 1113SOL    HW3 4498   2.853   0.793   1.949 -0.8968 -0.0131 -0.7599
 1113SOL    MW4 4499   2.927   0.757   1.922 -0.4969  0.3346 -0.1142
 1114SOL     OW 4500   2.701   0.871   2.003 -0.0346 -0.2890  0.6395
 1114SOL    HW2 4501   2.692   0.949   1.947 -0.2165 -0.4324  0.4670
 1114SOL    HW3 4502   2.624   0.819   1.983 -0.6284  0.1370  1.7831
 1114SOL    MW4 4503   2.690   0.875   1.993 -0.1369 -0.2517  0.7677
 1115SOL     OW 4504   2.686   1.141   1.931 -0.1092  0.0434 -0.1643
 1115SOL    HW2 4505   2.602   1.179   1.958 -1.1382 -1.5273 -1.0816
 1115SOL    HW3 4506   2.690   1.156   1.837 -0.7820 -2.5621 -0.6278
 1115SOL    MW4 4507   2.676   1.148   1.922 -0.3338 -0.5078 -0.3464
 1116SOL     OW 4508   2.901   1.266   2.038 -0.0712 -0.0688  0.3151
 1116SOL    HW2 4509   2.908   1.346   1.986  2.0898 -0.8619 -0.6727
 1116SOL    HW3 4510   2.821   1.224   2.006 -0.0054  0.5887 -0.7534
 1116SOL    MW4 4511   2.892   1.271   2.027  0.2227 -0.0867  0.0441
 1117SOL     OW 4512   2.945   1.521   1.897  0.2394  0.4849  0.4241
 1117SOL    HW2 4513   3.003   1.597   1.907 -2.1170  2.4262 -0.2185
 1117SOL    HW3 4514   2.939   1.508   1.802  0.8876 -0.7230  0.5420
 1117SOL    MW4 4515   2.952   1.529   1.886  0.0141  0.5816  0.3549
 1118SOL     OW 4516   2.711   1.655   1.997 -0.1965  0.1280  0.0915
 1118SOL    HW2 4517   2.786   1.611   1.959 -0.1338 -0.7604  1.2401
 1118SOL    HW3 4518   2.635   1.613   1.956 -0.1052 -0.1039  0.1613
 1118SOL    MW4 4519   2.711   1.644   1.987 -0.1760 -0.0198  0.2524
 1119SOL     OW 4520   2.677   1.937   1.919  0.3457  0.4986  0.0268
 1119SOL    HW2 4521   2.753   1.977   1.961  0.6020  0.7521 -0.6627
 1119SOL    HW3 4522   2.684   1.844   1.939 -0.2657  0.7895  1.6644
 1119SOL    MW4 4523   2.688   1.930   1.927  0.2990  0.5704  0.1519
 1120SOL     OW 4524   2.898   2.083   2.020  0.3747 -0.1595  0.3095
 1120SOL    HW2 4525   2.887   2.086   2.115 -0.9661 -1.5427  0.2233
 1120SOL    HW3 4526   2.992   2.066   2.007  0.7063  0.8121  1.3481
 1120SOL    MW4 4527   2.909   2.081   2.031  0.2418 -0.2139  0.4354
 1121SOL     OW 4528   2.872   2.349   1.900 -0.1875  0.5304  0.4710
 1121SOL    HW2 4529   2.953   2.391   1.930  0.0830  0.3646 -0.0208
 1121SOL    HW3 4530   2.884   2.256   1.922 -0.9289  0.7465  1.8706
 1121SOL    MW4 4531   2.884   2.342   1.907 -0.2496  0.5372  0.5908
 1122SOL     OW 4532   2.658   2.443   2.065  0.1667 -0.0513  0.1130
 1122SOL    HW2 4533   2.661   2.518   2.005 -0.2228 -0.1336 -0.0122
 1122SOL    HW3 4534   2.732   2.389   2.040  0.9505  0.7155  0.7556
 1122SOL    MW4 4535   2.668   2.446   2.054  0.2186  0.0391  0.1810
 1123SOL     OW 4536   2.682   2.658   1.881 -0.4844 -0.4954 -0.5293
 1123SOL    HW2 4537   2.678   2.685   1.790  1.3727  0.0179 -0.4641
 1123SOL    HW3 4538   2.611   2.707   1.924  1.4963  2.7681 -0.8147
 1123SOL    MW4 4539   2.672   2.668   1.875  0.0219  0.0026 -0.5584
 1124SOL     OW 4540   2.907   2.796   1.989  0.0954  0.1965  0.2822
 1124SOL    HW2 4541   2.835   2.754   1.941  0.0210  0.5279  0.1062
 1124SOL    HW3 4542   2.901   2.888   1.966  0.2478  0.3081  0.6908
 1124SOL    MW4 4543   2.897   2.802   1.980  0.1059  0.2549  0.3128
 1125SOL     OW 4544   2.913   3.075   1.908  0.0204  0.8990 -0.5917
 1125SOL    HW2 4545   2.986   3.121   1.949 -0.1084  0.7457 -0.1847
 1125SOL    HW3 4546   2.835   3.117   1.942 -0.0946  0.5154 -0.3767
 1125SOL    MW4 4547   2.913   3.086   1.918 -0.0117  0.8283 -0.5096
 1126SOL     OW 4548   2.678   3.239   2.031 -0.6592 -0.3413  0.4139
 1126SOL    HW2 4549   2.667   3.321   1.982 -1.3178 -0.5422  0.2139
 1126SOL    HW3 4550   2.613   3.180   1.992 -1.6856 -0.2856  1.9974
 1126SOL    MW4 4551   2.668   3.242   2.019 -0.8817 -0.3603  0.5963
 1127SOL     OW 4552   2.689   3.487   1.870 -0.0574  0.0326 -0.2656
 1127SOL    HW2 4553   2.764   3.539   1.897  0.5443 -1.4027  0.8979
 1127SOL    HW3 4554   2.614   3.528   1.914  0.2947  0.4142 -0.0210
 1127SOL    MW4 4555   2.689   3.499   1.880  0.0684 -0.1066 -0.0801
 1128SOL     OW 4556   2.909   3.622   1.988 -0.0484  1.0090  0.0611
 1128SOL    HW2 4557   2.919   3.621   2.083 -0.5735 -0.3861  0.1143
 1128SOL    HW3 4558   2.993   3.591   1.954 -0.3800  0.0156  0.1312
 1128SOL    MW4 4559   2.921   3.618   1.996 -0.1612  0.6943  0.0774
 1129SOL     OW 4560   2.912   3.850   1.856  0.1004  0.3363 -0.0232
 1129SOL    HW2 4561   2.905   3.771   1.909 -1.1944  0.7790  0.4862
 1129SOL    HW3 4562   2.971   3.907   1.905  1.8707 -0.7001 -0.8995
 1129SOL    MW4 4563   2.919   3.847   1.869  0.1633  0.2577 -0.0715
 1130SOL     OW 4564   2.702   3.961   1.987 -0.1010 -0.3698  0.1017
 1130SOL    HW2 4565   2.766   3.917   1.932 -0.2864 -0.2450 -0.2185
 1130SOL    HW3 4566   2.617   3.935   1.951 -0.2251 -0.3581  0.3836
 1130SOL    MW4 4567   2.699   3.952   1.975 -0.1421 -0.3519  0.0967
 1131SOL     OW 4568   2.668   4.220   1.902  0.1728  0.2027 -0.1896
 1131SOL    HW2 4569   2.669   4.128   1.927 -2.6601 -0.1377 -1.1115
 1131SOL    HW3 4570   2.697   4.221   1.811 -0.0872  0.1751 -0.2739
 1131SOL    MW4 4571   2.672   4.208   1.893 -0.2353  0.1545 -0.3225
 1132SOL     OW 4572   3.129   4.305   1.892  0.4496  0.0345  0.1034
 1132SOL    HW2 4573   3.113   4.223   1.939  2.5961  0.4887  1.7160
 1132SOL    HW3 4574   3.056   4.362   1.917 -1.5092 -1.6230 -1.6940
 1132SOL    MW4 4575   3.117   4.302   1.902  0.4745 -0.1240  0.0789
 1133SOL     OW 4576   2.937   4.653   1.857 -0.0215  0.0629  0.2226
 1133SOL    HW2 4577   3.003   4.686   1.918 -0.1624 -0.6316  0.7612
 1133SOL    HW3 4578   2.927   4.561   1.880  0.0900 -0.2605 -1.0118
 1133SOL    MW4 4579   2.944   4.645   1.868 -0.0253 -0.0715  0.1308
 1134SOL     OW 4580   3.162   0.104   2.293 -0.0111 -0.2580 -0.1001
 1134SOL    HW2 4581   3.172   0.180   2.351 -1.6392 -0.2308  0.1731
 1134SOL    HW3 4582   3.238   0.050   2.312  0.1714  0.3878  1.1108
 1134SOL    MW4 4583   3.173   0.107   2.303 -0.2017 -0.1692  0.0958
 1135SOL     OW 4584   3.138   0.332   1.881 -0.0550  0.6312  0.1003
 1135SOL    HW2 4585   3.161   0.331   1.788 -0.9517  1.2687 -0.1313
 1135SOL    HW3 4586   3.125   0.240   1.903 -0.3766  0.5221 -0.5381
 1135SOL    MW4 4587   3.140   0.320   1.871 -0.2155  0.7009 -0.0144
 1136SOL     OW 4588   3.323   0.507   1.987  0.1019 -0.6110 -0.0481
 1136SOL    HW2 4589   3.408   0.466   1.968  0.4243  0.5608 -1.2216
 1136SOL    HW3 4590   3.259   0.452   1.943  0.2509 -1.4485  0.7665
 1136SOL    MW4 4591   3.326   0.495   1.979  0.1640 -0.5669 -0.0954
 1137SOL     OW 4592   3.363   0.756   1.865  0.1495  0.2123 -0.1924
 1137SOL    HW2 4593   3.306   0.829   1.887 -0.8828 -0.3682 -0.8938
 1137SOL    HW3 4594   3.328   0.682   1.915 -0.6669 -0.5115 -1.7784
 1137SOL    MW4 4595   3.351   0.756   1.874 -0.0944  0.0402 -0.4942
 1138SOL     OW 4596   3.132   0.893   1.997 -0.2285  0.0751  0.1792
 1138SOL    HW2 4597   3.138   0.896   2.093  2.3854  0.9314  0.0409
 1138SOL    HW3 4598   3.117   0.984   1.972  0.0666  0.0032 -0.2630
 1138SOL    MW4 4599   3.131   0.906   2.007  0.1552  0.1785  0.1028
 1139SOL     OW 4600   3.121   1.154   1.912 -0.0676  0.3371 -0.0466
 1139SOL    HW2 4601   3.194   1.212   1.936  0.7727 -1.4024  1.6996
 1139SOL    HW3 4602   3.046   1.188   1.961  0.0723  0.7887 -0.1373
 1139SOL    MW4 4603   3.121   1.166   1.921  0.0618  0.1671  0.1719
 1140SOL     OW 4604   3.366   1.272   1.979 -0.9384  0.3309  0.6960
 1140SOL    HW2 4605   3.391   1.282   2.071 -0.0577 -0.2127  0.5206
 1140SOL    HW3 4606   3.367   1.361   1.944  1.2203  0.2984  0.5842
 1140SOL    MW4 4607   3.370   1.285   1.987 -0.5374  0.2549  0.6582
 1141SOL     OW 4608   3.361   1.536   1.884 -0.1007 -0.1605 -0.0706
 1141SOL    HW2 4609   3.446   1.577   1.899 -0.6721  1.2259 -0.5464
 1141SOL    HW3 4610   3.299   1.589   1.933 -0.7345 -1.0189  0.0741
 1141SOL    MW4 4611   3.364   1.548   1.892 -0.2594 -0.0908 -0.1142
 1142SOL     OW 4612   3.142   1.684   1.978 -0.4649 -0.0375 -0.5730
 1142SOL    HW2 4613   3.147   1.670   2.073 -0.5382 -0.8852 -0.6940
 1142SOL    HW3 4614   3.133   1.779   1.969 -2.2899 -0.1083  0.3413
 1142SOL    MW4 4615   3.142   1.695   1.989 -0.7155 -0.1588 -0.4684
 1143SOL     OW 4616   3.157   1.986   1.929  0.2374 -0.4487 -0.0153
 1143SOL    HW2 4617   3.242   2.019   1.958  0.9776 -0.9249 -1.5893
 1143SOL    HW3 4618   3.163   1.986   1.834 -2.0276  0.7639 -0.1781
 1143SOL    MW4 4619   3.169   1.990   1.920  0.0362 -0.3515 -0.2445
 1144SOL     OW 4620   3.390   2.086   2.011  0.1592 -0.4099  0.2015
 1144SOL    HW2 4621   3.458   2.039   1.962  1.8609  0.4019  1.7215
 1144SOL    HW3 4622   3.381   2.169   1.965 -0.6178 -0.9536 -0.6503
 1144SOL    MW4 4623   3.398   2.091   1.999  0.2811 -0.3748  0.2899
 1145SOL     OW 4624   3.365   2.319   1.874  0.2517 -0.1598 -0.2326
 1145SOL    HW2 4625   3.289   2.368   1.906  0.3557 -0.0969 -0.0801
 1145SOL    HW3 4626   3.355   2.319   1.779  1.4921  2.1989 -0.3937
 1145SOL    MW4 4627   3.353   2.326   1.866  0.4289  0.1597 -0.2337
 1146SOL     OW 4628   3.110   2.444   1.951 -0.2418  0.4142 -0.4920
 1146SOL    HW2 4629   3.114   2.442   2.047  0.8723 -0.6694 -0.5380
 1146SOL    HW3 4630   3.123   2.536   1.928  0.9943  0.4699  0.3665
 1146SOL    MW4 4631   3.112   2.456   1.961  0.0684  0.2785 -0.3848
 1147SOL     OW 4632   3.138   2.716   1.875  0.2871  0.2057 -0.4714
 1147SOL    HW2 4633   3.051   2.739   1.908 -0.0425 -0.5116 -0.8206
 1147SOL    HW3 4634   3.127   2.709   1.780  0.3567 -1.3883 -0.3854
 1147SOL    MW4 4635   3.125   2.718   1.867  0.2527 -0.0992 -0.5062
 1148SOL     OW 4636   3.374   2.838   1.965 -0.6304  0.4806 -0.2316
 1148SOL    HW2 4637   3.382   2.818   2.058  0.1764  0.5558 -0.2855
 1148SOL    HW3 4638   3.299   2.786   1.936 -0.8135  0.3679  0.4322
 1148SOL    MW4 4639   3.365   2.829   1.974 -0.5484  0.4754 -0.1512
 1149SOL     OW 4640   3.330   3.099   1.930 -0.6305 -0.2448  0.7088
 1149SOL    HW2 4641   3.412   3.145   1.940 -1.3818  0.9729  1.3475
 1149SOL    HW3 4642   3.350   3.008   1.955  0.6633 -0.1161  0.1722
 1149SOL    MW4 4643   3.343   3.093   1.934 -0.5591 -0.0670  0.7223
 1150SOL     OW 4644   3.120   3.226   2.054 -0.4357 -0.2881 -0.0070
 1150SOL    HW2 4645   3.120   3.311   2.009 -0.3825 -0.2843 -0.0005
 1150SOL    HW3 4646   3.190   3.176   2.011  0.2646  0.0643  0.7294
 1150SOL    MW4 4647   3.129   3.231   2.042 -0.3364 -0.2410  0.0908
 1151SOL     OW 4648   3.138   3.466   1.913 -0.0237 -0.1034  0.1666
 1151SOL    HW2 4649   3.218   3.512   1.937 -0.1560  0.3113 -0.1707
 1151SOL    HW3 4650   3.152   3.439   1.822  0.5197 -1.7593  0.7280
 1151SOL    MW4 4651   3.150   3.469   1.904  0.0310 -0.2675  0.1962
 1152SOL     OW 4652   3.380   3.607   2.009  0.2688 -0.1733  0.1844
 1152SOL    HW2 4653   3.471   3.586   1.990 -0.5064 -2.2215 -1.3803
 1152SOL    HW3 4654   3.367   3.693   1.970  1.7837  0.5871  1.2918
 1152SOL    MW4 4655   3.390   3.616   2.002  0.3664 -0.3431  0.1237
 1153SOL     OW 4656   3.344   3.857   1.899  0.1871  0.4035 -0.2948
 1153SOL    HW2 4657   3.359   3.832   1.808  0.0887 -1.8681  0.2841
 1153SOL    HW3 4658   3.424   3.903   1.924  1.4310 -1.4970 -0.6840
 1153SOL    MW4 4659   3.357   3.860   1.890  0.3381 -0.1469 -0.2698
 1154SOL     OW 4660   3.129   4.012   1.985  0.1866  0.6100 -0.2665
 1154SOL    HW2 4661   3.141   4.016   2.080 -0.0935  1.1904 -0.2526
 1154SOL    HW3 4662   3.190   3.944   1.956 -0.9052 -0.7408  0.5210
 1154SOL    MW4 4663   3.139   4.003   1.993  0.0055  0.5088 -0.1608
 1155SOL     OW 4664   3.132   4.234   1.616 -0.2740  0.1160  0.0445
 1155SOL    HW2 4665   3.137   4.248   1.711  1.1853 -0.2671  0.0354
 1155SOL    HW3 4666   3.064   4.294   1.586 -0.8563  0.1237  1.3570
 1155SOL    MW4 4667   3.124   4.244   1.625 -0.1583  0.0663  0.2165
 1156SOL     OW 4668   3.386   4.373   1.955 -0.3197 -0.3769 -0.7638
 1156SOL    HW2 4669   3.392   4.353   2.048  0.3717 -2.8677 -1.3092
 1156SOL    HW3 4670   3.296   4.351   1.931 -1.0055  1.8428 -0.3768
 1156SOL    MW4 4671   3.375   4.368   1.964 -0.3190 -0.4120 -0.7846
 1157SOL     OW 4672   3.821   4.643   1.857  0.2443  0.0304  0.3929
 1157SOL    HW2 4673   3.740   4.680   1.892  0.4220 -0.7218  1.6261
 1157SOL    HW3 4674   3.821   4.553   1.887  1.9886  0.2751  1.1718
 1157SOL    MW4 4675   3.810   4.636   1.866  0.4981 -0.0367  0.6585
 1158SOL     OW 4676   3.150   0.069   2.010  0.4138  0.3390  0.0527
 1158SOL    HW2 4677   3.151   0.085   2.105 -0.1344 -0.4740  0.1984
 1158SOL    HW3 4678   3.235   0.031   1.991  0.2356 -0.2229  0.3545
 1158SOL    MW4 4679   3.161   0.066   2.020  0.3178  0.1576  0.1116
 1159SOL     OW 4680   3.622   0.142   1.990  0.5233 -0.0232  0.9380
 1159SOL    HW2 4681   3.623   0.136   2.086 -1.6683  0.9785  1.0518
 1159SOL    HW3 4682   3.540   0.098   1.964  0.7032  0.4280 -0.4155
 1159SOL    MW4 4683   3.611   0.135   1.999  0.2577  0.1685  0.7746
 1160SOL     OW 4684   3.772   0.506   2.037 -0.2899 -0.3081  0.2151
 1160SOL    HW2 4685   3.777   0.586   1.984  0.8095 -0.0480  0.7027
 1160SOL    HW3 4686   3.716   0.447   1.986  0.0891  0.2312 -0.8370
 1160SOL    MW4 4687   3.765   0.509   2.023 -0.0947 -0.2026  0.1407
 1161SOL     OW 4688   3.818   0.758   1.932 -0.1517 -0.4905 -0.0476
 1161SOL    HW2 4689   3.734   0.793   1.963 -0.5920  0.0599 -1.8331
 1161SOL    HW3 4690   3.816   0.769   1.837  1.9634 -0.4511 -0.1142
 1161SOL    MW4 4691   3.807   0.764   1.924  0.0689 -0.4127 -0.2918
 1162SOL     OW 4692   3.578   0.846   2.034  0.3101 -0.2290  0.2424
 1162SOL    HW2 4693   3.585   0.929   1.987  2.2388  0.3166  1.4450
 1162SOL    HW3 4694   3.514   0.796   1.984 -0.0691  1.5562 -1.1278
 1162SOL    MW4 4695   3.570   0.850   2.021  0.5145  0.0785  0.2205
 1163SOL     OW 4696   3.589   1.105   1.924  0.3141  0.5996 -0.3527
 1163SOL    HW2 4697   3.509   1.155   1.942  0.1217  0.2169 -0.1605
 1163SOL    HW3 4698   3.604   1.117   1.830  0.2688  1.0191 -0.3109
 1163SOL    MW4 4699   3.581   1.113   1.914  0.2825  0.6045 -0.3219
 1164SOL     OW 4700   3.816   1.257   1.981 -0.4968  0.1501 -0.4163
 1164SOL    HW2 4701   3.816   1.274   2.075 -1.5490  2.3371 -0.7747
 1164SOL    HW3 4702   3.739   1.202   1.966 -1.3194  1.2284 -0.2117
 1164SOL    MW4 4703   3.805   1.252   1.991 -0.7441  0.5809 -0.4365
 1165SOL     OW 4704   3.791   1.512   1.852 -0.5135 -0.5460  0.1311
 1165SOL    HW2 4705   3.852   1.563   1.906 -0.0510 -0.9496 -0.0092
 1165SOL    HW3 4706   3.809   1.421   1.875 -0.3806 -0.7134 -0.6497
 1165SOL    MW4 4707   3.801   1.507   1.862 -0.4349 -0.6213  0.0097
 1166SOL     OW 4708   3.593   1.663   1.962 -0.3726  0.1051  0.0697
 1166SOL    HW2 4709   3.598   1.742   1.907  0.4282 -0.5195 -0.7781
 1166SOL    HW3 4710   3.656   1.603   1.922  0.2673 -0.3391  1.7194
 1166SOL    MW4 4711   3.602   1.666   1.949 -0.1826 -0.0359  0.1754
 1167SOL     OW 4712   3.572   1.953   1.868 -0.1427 -0.1309 -0.2943
 1167SOL    HW2 4713   3.662   1.964   1.898 -0.5798  1.8890  0.3823
 1167SOL    HW3 4714   3.578   1.951   1.772  0.6873 -0.5901 -0.2270
 1167SOL    MW4 4715   3.584   1.954   1.859 -0.0908  0.0750 -0.1961
 1168SOL     OW 4716   3.829   2.006   1.979 -0.7157 -0.6310 -0.1199
 1168SOL    HW2 4717   3.914   1.970   1.956 -0.2799 -0.3600  1.0641
 1168SOL    HW3 4718   3.832   2.097   1.949 -0.1384 -0.2710  1.0059
 1168SOL    MW4 4719   3.840   2.013   1.972 -0.5822 -0.5479  0.1849
 1169SOL     OW 4720   3.811   2.290   1.881  0.2357  0.5489  0.3131
 1169SOL    HW2 4721   3.882   2.339   1.922 -0.2887  1.2587  0.3873
 1169SOL    HW3 4722   3.732   2.339   1.904 -0.3267 -0.4556  0.5835
 1169SOL    MW4 4723   3.810   2.303   1.889  0.0923  0.5100  0.3587
 1170SOL     OW 4724   3.595   2.466   1.954  0.2798 -0.0020  0.3879
 1170SOL    HW2 4725   3.513   2.425   1.927 -0.4892  0.8858  1.3312
 1170SOL    HW3 4726   3.597   2.549   1.908  1.2760 -0.5809 -0.6223
 1170SOL    MW4 4727   3.584   2.472   1.945  0.3099  0.0386  0.3792
 1171SOL     OW 4728   3.597   2.731   1.845  0.0323  0.7132  0.1062
 1171SOL    HW2 4729   3.668   2.769   1.897 -0.5649  1.0750  0.6641
 1171SOL    HW3 4730   3.517   2.758   1.890 -0.4342 -0.6127  0.1037
 1171SOL    MW4 4731   3.596   2.740   1.858 -0.1080  0.5858  0.1796
 1172SOL     OW 4732   3.799   2.834   2.008 -0.2225  0.2419 -0.5110
 1172SOL    HW2 4733   3.802   2.816   2.102  0.5781 -0.4618 -0.6672
 1172SOL    HW3 4734   3.806   2.929   2.002  1.0500  0.1931  0.0891
 1172SOL    MW4 4735   3.800   2.844   2.020  0.0510  0.1426 -0.4525
 1173SOL     OW 4736   3.824   3.103   1.939 -0.4552 -0.3123 -0.0384
 1173SOL    HW2 4737   3.746   3.155   1.955 -0.3583  0.0833 -0.7850
 1173SOL    HW3 4738   3.829   3.097   1.843 -0.2073 -1.3047  0.0315
 1173SOL    MW4 4739   3.814   3.109   1.928 -0.4094 -0.3908 -0.1277
 1174SOL     OW 4740   3.586   3.212   1.996 -0.0429  0.0381  0.1206
 1174SOL    HW2 4741   3.583   3.200   2.091  1.2156  0.4935  0.2329
 1174SOL    HW3 4742   3.606   3.305   1.985 -0.0692 -0.0433 -0.5851
 1174SOL    MW4 4743   3.588   3.223   2.007  0.1197  0.0875  0.0422
 1175SOL     OW 4744   3.624   3.474   1.937  0.2200 -0.1093  0.0526
 1175SOL    HW2 4745   3.700   3.519   1.974 -0.0224 -0.0912  0.5263
 1175SOL    HW3 4746   3.644   3.467   1.843 -0.4714  2.4948 -0.3428
 1175SOL    MW4 4747   3.637   3.479   1.929  0.0968  0.2367  0.0629
 1176SOL     OW 4748   3.845   3.622   2.018  0.2304  0.7775 -0.2174
 1176SOL    HW2 4749   3.914   3.580   1.967  1.0813  1.9443 -0.0547
 1176SOL    HW3 4750   3.847   3.714   1.989 -0.7075  0.9900  0.3763
 1176SOL    MW4 4751   3.854   3.629   2.007  0.2189  0.9592 -0.1178
 1177SOL     OW 4752   3.844   3.888   1.919 -0.1638  0.2432  0.1184
 1177SOL    HW2 4753   3.758   3.919   1.947 -0.1480 -0.5478  1.0604
 1177SOL    HW3 4754   3.842   3.894   1.823 -1.2080  0.3614  0.1469
 1177SOL    MW4 4755   3.833   3.893   1.910 -0.2997  0.1547  0.2464
 1178SOL     OW 4756   3.583   3.967   1.990  0.6339 -0.3129  0.7503
 1178SOL    HW2 4757   3.584   3.967   2.085  0.3167 -0.2486  0.7569
 1178SOL    HW3 4758   3.598   4.059   1.966 -0.4567 -0.1239  0.7642
 1178SOL    MW4 4759   3.585   3.979   1.999  0.4480 -0.2799  0.7530
 1179SOL     OW 4760   3.612   4.235   1.887 -0.3209 -0.3288 -0.1052
 1179SOL    HW2 4761   3.691   4.287   1.897 -0.4372 -0.5735  2.3215
 1179SOL    HW3 4762   3.543   4.289   1.924 -0.8430 -1.2383  0.2544
 1179SOL    MW4 4763   3.613   4.249   1.893 -0.4051 -0.4807  0.2624
 1180SOL     OW 4764   3.845   4.380   1.966  0.2411  0.1326  0.1393
 1180SOL    HW2 4765   3.836   4.375   2.061  0.5822 -0.0120  0.1662
 1180SOL    HW3 4766   3.935   4.350   1.949  1.1668  2.9018 -0.0007
 1180SOL    MW4 4767   3.856   4.375   1.976  0.4082  0.4792  0.1243
 1181SOL     OW 4768   4.243   4.664   1.894  0.5842  0.1941  0.4674
 1181SOL    HW2 4769   4.160   4.700   1.925  0.3156 -0.2368  0.2587
 1181SOL    HW3 4770   4.310   4.719   1.936  0.2292 -0.2870  1.6958
 1181SOL    MW4 4771   4.241   4.676   1.904  0.5021  0.0744  0.6019
 1182SOL     OW 4772   3.997   0.128   1.989 -0.3589 -0.0483 -0.1969
 1182SOL    HW2 4773   3.932   0.069   1.952  0.4500 -0.7998 -0.4468
 1182SOL    HW3 4774   4.018   0.090   2.075  0.0875 -0.0862 -0.3172
 1182SOL    MW4 4775   3.991   0.115   1.996 -0.1931 -0.1525 -0.2457
 1183SOL     OW 4776   4.017   0.412   1.960  0.1441 -0.0392  0.5941
 1183SOL    HW2 4777   4.006   0.318   1.966  0.7525 -0.1244  0.3777
 1183SOL    HW3 4778   3.931   0.448   1.984 -0.0630 -0.6398  0.7513
 1183SOL    MW4 4779   4.004   0.405   1.964  0.1969 -0.1297  0.5863
 1184SOL     OW 4780   4.271   0.487   2.031 -0.3275  0.3697 -0.1389
 1184SOL    HW2 4781   4.288   0.509   2.122  1.0335 -0.7764 -0.1083
 1184SOL    HW3 4782   4.186   0.442   2.032  1.0079 -2.1912  0.9530
 1184SOL    MW4 4783   4.262   0.484   2.043  0.0281 -0.1194  0.0093
 1185SOL     OW 4784   4.271   0.737   1.919 -0.3463 -0.5408  0.2133
 1185SOL    HW2 4785   4.260   0.648   1.953  0.1175 -1.0158 -0.8434
 1185SOL    HW3 4786   4.279   0.725   1.824  0.4191  0.5677  0.1286
 1185SOL    MW4 4787   4.271   0.724   1.911 -0.1841 -0.4572  0.0627
 1186SOL     OW 4788   4.057   0.904   1.973 -0.1901  0.3395 -0.3159
 1186SOL    HW2 4789   4.125   0.837   1.962  0.6375  0.7388  1.9774
 1186SOL    HW3 4790   3.975   0.855   1.969  0.3460 -0.5737 -0.4031
 1186SOL    MW4 4791   4.055   0.889   1.971 -0.0100  0.2716 -0.0248
 1187SOL     OW 4792   4.057   1.166   1.882 -0.5255 -0.2803  0.1302
 1187SOL    HW2 4793   4.080   1.084   1.925  0.3531 -0.3895 -0.5238
 1187SOL    HW3 4794   3.972   1.189   1.918  0.0366 -0.5336  1.6778
 1187SOL    MW4 4795   4.049   1.158   1.892 -0.3357 -0.3281  0.2481
 1188SOL     OW 4796   4.273   1.294   2.028 -0.6268  0.0674 -0.0940
 1188SOL    HW2 4797   4.243   1.311   2.117  0.6874 -0.3268  0.4338
 1188SOL    HW3 4798   4.198   1.252   1.985 -0.8960 -0.7725  1.1568
 1188SOL    MW4 4799   4.259   1.290   2.034 -0.4888 -0.0955  0.1409
 1189SOL     OW 4800   4.274   1.563   1.919  0.4467 -0.1924 -0.4654
 1189SOL    HW2 4801   4.280   1.474   1.954 -0.3561 -0.3570 -0.7326
 1189SOL    HW3 4802   4.283   1.551   1.824 -0.3129 -0.0548 -0.5535
 1189SOL    MW4 4803   4.276   1.550   1.911  0.2403 -0.1960 -0.5121
 1190SOL     OW 4804   4.011   1.636   1.983 -0.0640 -0.3867 -0.3807
 1190SOL    HW2 4805   4.038   1.632   2.074 -1.1726 -1.2604 -0.0744
 1190SOL    HW3 4806   4.088   1.608   1.933  0.3746 -0.4281  0.3142
 1190SOL    MW4 4807   4.024   1.632   1.988 -0.1526 -0.5075 -0.2487
 1191SOL     OW 4808   4.071   1.895   1.914 -0.2623  0.2950 -0.1648
 1191SOL    HW2 4809   4.071   1.802   1.939 -0.2975  0.0405 -1.0763
 1191SOL    HW3 4810   4.066   1.893   1.818  0.7470  1.2316 -0.2354
 1191SOL    MW4 4811   4.070   1.882   1.905 -0.1330  0.3849 -0.2943
 1192SOL     OW 4812   4.279   2.069   1.993  0.4024 -0.1670 -0.5155
 1192SOL    HW2 4813   4.287   2.064   2.088 -0.9505  0.0294 -0.3924
 1192SOL    HW3 4814   4.201   2.019   1.972  0.2561  0.4378 -1.4571
 1192SOL    MW4 4815   4.270   2.062   2.002  0.2046 -0.0615 -0.6237
 1193SOL     OW 4816   4.266   2.354   1.904  0.1053  0.2635  0.3176
 1193SOL    HW2 4817   4.271   2.267   1.943  1.0865  0.0094 -0.3572
 1193SOL    HW3 4818   4.347   2.397   1.931  0.1612  0.5596 -0.3172
 1193SOL    MW4 4819   4.277   2.349   1.912  0.2422  0.2692  0.1448
 1194SOL     OW 4820   4.042   2.456   2.027 -0.0100  0.3692  0.2905
 1194SOL    HW2 4821   4.068   2.433   2.116 -1.5403 -1.5104  0.2580
 1194SOL    HW3 4822   4.115   2.425   1.973 -0.3800 -1.1024  0.6136
 1194SOL    MW4 4823   4.055   2.449   2.032 -0.2608 -0.0730  0.3285
 1195SOL     OW 4824   4.030   2.717   1.909 -0.2238  0.1576 -0.3024
 1195SOL    HW2 4825   4.041   2.640   1.964  1.8509  0.1626 -0.6496
 1195SOL    HW3 4826   3.945   2.752   1.932 -0.8711 -1.8281  0.3816
 1195SOL    MW4 4827   4.021   2.711   1.919 -0.0353 -0.1037 -0.2580
 1196SOL     OW 4828   4.271   2.852   1.979  0.0742  0.4932  0.1496
 1196SOL    HW2 4829   4.280   2.860   2.074  1.6934  0.1410  0.0298
 1196SOL    HW3 4830   4.182   2.818   1.967  0.5212 -1.2625  1.6308
 1196SOL    MW4 4831   4.260   2.849   1.990  0.3471  0.2151  0.3293
 1197SOL     OW 4832   4.294   3.115   1.879 -0.5387  0.4023  0.1689
 1197SOL    HW2 4833   4.219   3.152   1.926 -0.1518 -0.0463  1.1534
 1197SOL    HW3 4834   4.295   3.023   1.903 -0.1080  0.2471 -0.4241
 1197SOL    MW4 4835   4.285   3.108   1.889 -0.4311  0.3226  0.2205
 1198SOL     OW 4836   4.070   3.232   2.010  0.1675  0.7040 -0.0483
 1198SOL    HW2 4837   4.077   3.243   2.105  0.3518  0.0307  0.0190
 1198SOL    HW3 4838   3.978   3.210   1.996  0.2458  0.3341  0.0217
 1198SOL    MW4 4839   4.059   3.231   2.021  0.2022  0.5665 -0.0303
 1199SOL     OW 4840   4.053   3.491   1.883  0.2401 -0.0985 -0.4557
 1199SOL    HW2 4841   4.130   3.542   1.910 -1.0603  0.6781  1.8957
 1199SOL    HW3 4842   4.066   3.406   1.925 -0.0816 -0.0164 -0.1845
 1199SOL    MW4 4843   4.065   3.486   1.892  0.0257  0.0150 -0.1097
 1200SOL     OW 4844   4.266   3.657   1.973 -0.4125 -0.0639 -0.1718
 1200SOL    HW2 4845   4.334   3.606   1.928  0.4279  0.5098  0.4334
 1200SOL    HW3 4846   4.278   3.746   1.941 -0.3022  0.2048  0.6208
 1200SOL    MW4 4847   4.277   3.662   1.962 -0.2871  0.0472  0.0126
 1201SOL     OW 4848   4.276   3.915   1.876  0.2173  0.5673 -0.2318
 1201SOL    HW2 4849   4.354   3.964   1.902  0.4658  0.5281 -0.8789
 1201SOL    HW3 4850   4.292   3.893   1.784  0.0487 -0.6117  0.0107
 1201SOL    MW4 4851   4.288   3.918   1.867  0.2279  0.4063 -0.2850
 1202SOL     OW 4852   4.057   4.024   2.016  0.1165  0.3563 -0.5086
 1202SOL    HW2 4853   4.121   3.971   1.968 -0.6605  0.1778 -1.3786
 1202SOL    HW3 4854   3.972   3.985   1.993 -0.4652  1.9643 -1.1614
 1202SOL    MW4 4855   4.054   4.012   2.006 -0.0629  0.5455 -0.7095
 1203SOL     OW 4856   4.091   4.288   1.896  0.0492  0.0298 -0.3172
 1203SOL    HW2 4857   4.174   4.327   1.924  0.3929 -0.4808 -0.6160
 1203SOL    HW3 4858   4.094   4.199   1.931 -0.8891  0.3788  0.6738
 1203SOL    MW4 4859   4.102   4.281   1.904 -0.0291  0.0081 -0.2258
 1204SOL     OW 4860   4.333   4.428   1.988 -0.2022 -0.2813 -0.0567
 1204SOL    HW2 4861   4.311   4.414   2.080 -0.3738 -1.0395 -0.2072
 1204SOL    HW3 4862   4.291   4.511   1.965  1.3755  0.8520  1.0406
 1204SOL    MW4 4863   4.325   4.437   1.997 -0.0162 -0.2317  0.0681
 1205SOL     OW 4864   0.246   4.637   2.378 -0.0589 -0.1223  0.1075
 1205SOL    HW2 4865   0.242   4.638   2.474 -0.4344 -1.2485  0.1221
 1205SOL    HW3 4866   0.326   4.684   2.356 -0.9004  1.7061  0.9079
 1205SOL    MW4 4867   0.256   4.643   2.388 -0.2195 -0.0300  0.2151
 1206SOL     OW 4868   0.010   0.120   2.310 -0.2382 -0.3646  0.2509
 1206SOL    HW2 4869   0.087   0.071   2.338 -0.7292 -0.4069  1.5473
 1206SOL    HW3 4870   0.012   0.115   2.214  0.4467 -1.7689  0.3285
 1206SOL    MW4 4871   0.021   0.113   2.301 -0.2127 -0.5555  0.4323
 1207SOL     OW 4872   0.008   0.377   2.425 -0.9640  0.1074  0.5062
 1207SOL    HW2 4873   0.058   0.431   2.365 -0.1666 -0.2804  0.8123
 1207SOL    HW3 4874   0.017   0.288   2.391  0.4408 -0.2734  1.8234
 1207SOL    MW4 4875   0.016   0.372   2.413 -0.6734  0.0059  0.7205
 1208SOL     OW 4876   0.215   0.526   2.296  0.5592 -0.0722  0.1532
 1208SOL    HW2 4877   0.290   0.485   2.338 -1.1681 -2.9526  0.5681
 1208SOL    HW3 4878   0.224   0.505   2.203  1.2828  1.2700 -0.0896
 1208SOL    MW4 4879   0.226   0.518   2.289  0.4268 -0.2752  0.1757
 1209SOL     OW 4880   0.221   0.782   2.388  0.7511 -0.1683 -0.3185
 1209SOL    HW2 4881   0.222   0.785   2.484  1.1717  0.3759 -0.3330
 1209SOL    HW3 4882   0.215   0.689   2.366 -3.0624 -0.1112  0.2592
 1209SOL    MW4 4883   0.221   0.770   2.398  0.3035 -0.0889 -0.2441
 1210SOL     OW 4884   4.466   0.902   2.320  0.3260 -0.1025 -0.1879
 1210SOL    HW2 4885   4.547   0.857   2.341  0.1893 -0.6363 -0.7700
 1210SOL    HW3 4886   4.462   0.900   2.224 -0.6903 -0.6673 -0.1486
 1210SOL    MW4 4887   4.476   0.896   2.310  0.1740 -0.2474 -0.2594
 1211SOL     OW 4888   0.015   1.168   2.379  0.3590  0.1914  0.3287
 1211SOL    HW2 4889   0.025   1.163   2.474  1.0488  0.5220  0.2790
 1211SOL    HW3 4890  -0.006   1.079   2.353 -0.4931  0.2283  0.8618
 1211SOL    MW4 4891   0.014   1.156   2.388  0.3376  0.2398  0.3922
 1212SOL     OW 4892   0.267   1.277   2.322  0.2658  0.4259 -0.0974
 1212SOL    HW2 4893   0.180   1.237   2.332  0.7221 -0.7456 -0.7617
 1212SOL    HW3 4894   0.273   1.299   2.229  0.0242  2.0416  0.2622
 1212SOL    MW4 4895   0.256   1.274   2.311  0.2941  0.4845 -0.1376
 1213SOL     OW 4896   0.238   1.545   2.390 -0.3545 -0.5962 -0.6185
 1213SOL    HW2 4897   0.229   1.535   2.484 -0.2556 -0.5856 -0.6074
 1213SOL    HW3 4898   0.250   1.456   2.357  0.4528 -0.5271 -0.5277
 1213SOL    MW4 4899   0.238   1.532   2.398 -0.2349 -0.5857 -0.6049
 1214SOL     OW 4900   0.019   1.674   2.254 -0.1312  0.2029  0.5571
 1214SOL    HW2 4901   0.022   1.757   2.302 -0.8782 -0.6574  2.1275
 1214SOL    HW3 4902   0.085   1.619   2.298 -1.6910 -1.0114  1.4149
 1214SOL    MW4 4903   0.028   1.678   2.266 -0.4355 -0.0708  0.8779
 1215SOL     OW 4904   0.011   1.929   2.398  0.3731  0.1153 -0.2728
 1215SOL    HW2 4905  -0.056   1.977   2.349  0.4379  0.4463 -0.0387
 1215SOL    HW3 4906   0.092   1.976   2.380  0.3104  0.5634  0.5826
 1215SOL    MW4 4907   0.013   1.942   2.389  0.3734  0.2180 -0.1290
 1216SOL     OW 4908   0.240   2.056   2.321  0.3130 -0.6478  0.1204
 1216SOL    HW2 4909   0.319   2.003   2.338  1.8844  1.0040 -1.8632
 1216SOL    HW3 4910   0.231   2.057   2.226 -1.2213  0.5069  0.2576
 1216SOL    MW4 4911   0.249   2.049   2.311  0.3179 -0.2775 -0.1233
 1217SOL     OW 4912   0.257   2.337   2.394 -0.0476 -0.1142  0.2313
 1217SOL    HW2 4913   0.256   2.356   2.487 -1.7579 -0.2883  0.2594
 1217SOL    HW3 4914   0.256   2.241   2.389 -2.4112 -0.1144  0.0511
 1217SOL    MW4 4915   0.257   2.327   2.405 -0.5850 -0.1371  0.2110
 1218SOL     OW 4916   0.034   2.452   2.264 -0.3839  0.0749 -0.1911
 1218SOL    HW2 4917   0.022   2.541   2.296 -1.1724 -0.3454  0.6846
 1218SOL    HW3 4918   0.111   2.419   2.311 -0.6106 -0.0102  0.1155
 1218SOL    MW4 4919   0.043   2.459   2.274 -0.5178  0.0083 -0.0350
 1219SOL     OW 4920   0.025   2.714   2.345 -0.0731 -0.5744  0.0369
 1219SOL    HW2 4921   0.044   2.711   2.439 -1.0134 -0.2397  0.2484
 1219SOL    HW3 4922   0.098   2.763   2.307  0.0701 -0.2960  0.6606
 1219SOL    MW4 4923   0.037   2.720   2.353 -0.1782 -0.4935  0.1469
 1220SOL     OW 4924   0.242   2.867   2.260 -0.1133  0.2585 -0.0307
 1220SOL    HW2 4925   0.307   2.802   2.287 -0.1452  0.5537  0.7676
 1220SOL    HW3 4926   0.251   2.872   2.165  3.3337  2.6776  0.3357
 1220SOL    MW4 4927   0.252   2.859   2.251  0.3373  0.6163  0.1230
 1221SOL     OW 4928   0.290   3.126   2.376  0.2044 -0.4821 -0.0763
 1221SOL    HW2 4929   0.209   3.166   2.342  0.6631 -1.0536 -1.9193
 1221SOL    HW3 4930   0.295   3.041   2.332  1.1846 -0.9803  0.9638
 1221SOL    MW4 4931   0.280   3.120   2.366  0.3942 -0.6232 -0.1822
 1222SOL     OW 4932   0.050   3.218   2.279  0.3060  0.1425  0.2478
 1222SOL    HW2 4933   0.033   3.311   2.295  0.8158  0.4038 -0.7215
 1222SOL    HW3 4934   0.017   3.202   2.191 -1.8389 -1.1317  1.2214
 1222SOL    MW4 4935   0.044   3.228   2.270  0.0903  0.0088  0.2484
 1223SOL     OW 4936   4.490   3.493   2.368 -0.1271 -0.4144  0.1594
 1223SOL    HW2 4937   4.489   3.499   2.464  0.3019  1.1858  0.0765
 1223SOL    HW3 4938   4.411   3.538   2.340 -0.7884 -1.7865 -0.2050
 1223SOL    MW4 4939   4.480   3.500   2.377 -0.1578 -0.3846  0.1006
 1224SOL     OW 4940   0.216   3.636   2.266  0.5130  0.0223  0.2464
 1224SOL    HW2 4941   0.296   3.596   2.300  1.0635  0.7858 -0.1592
 1224SOL    HW3 4942   0.146   3.577   2.295  1.1883 -0.4878  0.8517
 1224SOL    MW4 4943   0.217   3.623   2.275  0.6747  0.0556  0.2728
 1225SOL     OW 4944   0.215   3.888   2.381 -0.1809  0.0762  0.1259
 1225SOL    HW2 4945   0.142   3.929   2.334 -0.9920  0.1439  1.4243
 1225SOL    HW3 4946   0.213   3.797   2.352 -1.4928 -0.1862  0.9678
 1225SOL    MW4 4947   0.205   3.881   2.371 -0.4610  0.0505  0.4082
 1226SOL     OW 4948   4.473   4.058   1.999  0.1749  0.0467 -0.2423
 1226SOL    HW2 4949   4.483   4.137   1.947  0.9405  0.2573  0.2320
 1226SOL    HW3 4950   4.544   4.001   1.971  0.1344 -0.1385  0.0290
 1226SOL    MW4 4951   4.483   4.061   1.989  0.2704  0.0505 -0.1439
 1227SOL     OW 4952   4.453   4.252   2.405  0.5463  0.4018 -0.1743
 1227SOL    HW2 4953   4.464   4.272   2.498  0.4491 -0.4572  0.0254
 1227SOL    HW3 4954   4.535   4.281   2.364  0.9331  0.0007  0.3108
 1227SOL    MW4 4955   4.466   4.258   2.412  0.5846  0.2356 -0.0839
 1228SOL     OW 4956   0.181   4.368   2.320 -0.3772 -0.0689  0.0421
 1228SOL    HW2 4957   0.264   4.327   2.346 -0.4162 -0.8439 -1.0307
 1228SOL    HW3 4958   0.186   4.456   2.357  1.3455  0.2138 -0.7990
 1228SOL    MW4 4959   0.193   4.374   2.329 -0.1550 -0.1340 -0.2103
 1229SOL     OW 4960   0.684   4.633   2.370 -0.3133  0.1523  0.4306
 1229SOL    HW2 4961   0.679   4.628   2.465  2.1413 -0.1662  0.5811
 1229SOL    HW3 4962   0.760   4.688   2.353 -1.3709  1.1268 -1.3686
 1229SOL    MW4 4963   0.693   4.639   2.380 -0.1290  0.2389  0.2129
 1230SOL     OW 4964   0.477   0.137   2.289  0.5773 -0.2906 -0.3720
 1230SOL    HW2 4965   0.542   0.072   2.316  0.1553 -0.3370  0.5449
 1230SOL    HW3 4966   0.481   0.136   2.193  0.7995 -1.4487 -0.3646
 1230SOL    MW4 4967   0.486   0.128   2.280  0.5510 -0.4496 -0.2503
 1231SOL     OW 4968   0.440   0.398   2.384 -0.8656  0.6362  0.0611
 1231SOL    HW2 4969   0.459   0.414   2.476  0.4127 -1.1115  0.1385
 1231SOL    HW3 4970   0.433   0.303   2.377 -0.2517  0.6973 -1.7766
 1231SOL    MW4 4971   0.442   0.387   2.395 -0.6160  0.4137 -0.1709
 1232SOL     OW 4972   0.664   0.497   2.266  0.3364  0.2061  0.3417
 1232SOL    HW2 4973   0.677   0.589   2.291  0.9482  0.0355  0.6459
 1232SOL    HW3 4974   0.574   0.478   2.294 -0.3387  1.1557 -1.1036
 1232SOL    MW4 4975   0.654   0.507   2.273  0.3281  0.3089  0.1912
 1233SOL     OW 4976   0.694   0.739   2.360  0.0251  0.3263  0.0616
 1233SOL    HW2 4977   0.675   0.732   2.453 -1.0512  1.1431 -0.0810
 1233SOL    HW3 4978   0.615   0.778   2.322  0.2706 -0.4024 -1.2582
 1233SOL    MW4 4979   0.681   0.743   2.367 -0.0845  0.3379 -0.1316
 1234SOL     OW 4980   0.465   0.881   2.321  0.5675  0.5394 -0.0251
 1234SOL    HW2 4981   0.375   0.852   2.337  0.7940  0.2192  0.6834
 1234SOL    HW3 4982   0.469   0.894   2.226  0.0706 -0.4688 -0.1979
 1234SOL    MW4 4983   0.453   0.879   2.310  0.5319  0.3641  0.0455
 1235SOL     OW 4984   0.496   1.146   2.400  0.0571 -0.1473 -0.1520
 1235SOL    HW2 4985   0.485   1.054   2.378  0.7455 -0.3963  0.4884
 1235SOL    HW3 4986   0.418   1.190   2.366  0.4133 -0.7316 -1.7463
 1235SOL    MW4 4987   0.484   1.140   2.393  0.1949 -0.2571 -0.2775
 1236SOL     OW 4988   0.691   1.291   2.289  0.1521  0.2413 -0.3980
 1236SOL    HW2 4989   0.665   1.374   2.329  0.4648  0.8500 -1.4294
 1236SOL    HW3 4990   0.615   1.234   2.299  0.1497  0.4452  0.8568
 1236SOL    MW4 4991   0.678   1.294   2.295  0.1931  0.3486 -0.3684
 1237SOL     OW 4992   0.643   1.547   2.361  0.1818 -0.0102  0.2273
 1237SOL    HW2 4993   0.630   1.548   2.456 -0.0489  0.2837  0.1951
 1237SOL    HW3 4994   0.731   1.582   2.348 -0.3438  1.3698  0.2520
 1237SOL    MW4 4995   0.653   1.552   2.372  0.0821  0.2106  0.2265
 1238SOL     OW 4996   0.436   1.652   2.191 -0.1780  0.4366 -0.2782
 1238SOL    HW2 4997   0.504   1.603   2.236  0.6663  1.9651  0.1444
 1238SOL    HW3 4998   0.355   1.628   2.238  0.2748 -0.2318  0.1756
 1238SOL    MW4 4999   0.434   1.643   2.203 -0.0069  0.5502 -0.1628
 1239SOL     OW 5000   0.457   1.865   2.423 -0.1233  0.0481  0.0599
 1239SOL    HW2 5001   0.515   1.921   2.371 -0.0412  0.7951  0.9554
 1239SOL    HW3 5002   0.443   1.787   2.368  0.8156  0.3658 -0.6293
 1239SOL    MW4 5003   0.463   1.862   2.408  0.0114  0.1887  0.0870
 1240SOL     OW 5004   0.653   2.017   2.278 -0.0201  0.4426  0.1254
 1240SOL    HW2 5005   0.743   1.985   2.282 -0.0354  0.2851 -0.6630
 1240SOL    HW3 5006   0.657   2.103   2.319  0.3475  0.1341  0.7508
 1240SOL    MW4 5007   0.666   2.024   2.284  0.0264  0.3812  0.1042
 1241SOL     OW 5008   0.668   2.278   2.399 -0.5234 -0.1937 -0.0767
 1241SOL    HW2 5009   0.677   2.295   2.493 -0.1362 -1.0582  0.0457
 1241SOL    HW3 5010   0.733   2.334   2.357 -1.6413  1.2272  0.0690
 1241SOL    MW4 5011   0.678   2.287   2.406 -0.6199 -0.1204 -0.0417
 1242SOL     OW 5012   0.471   2.422   2.251 -0.2540  0.3617 -0.1874
 1242SOL    HW2 5013   0.539   2.369   2.294  0.2883  0.5315 -0.8196
 1242SOL    HW3 5014   0.391   2.403   2.300 -0.1668 -1.4080 -0.7008
 1242SOL    MW4 5015   0.470   2.412   2.263 -0.1709  0.1507 -0.3383
 1243SOL     OW 5016   0.456   2.697   2.334 -0.0656  0.2299 -0.1088
 1243SOL    HW2 5017   0.447   2.696   2.429 -0.9270 -0.0853 -0.1862
 1243SOL    HW3 5018   0.455   2.604   2.309 -0.1320  0.3216 -0.4451
 1243SOL    MW4 5019   0.455   2.684   2.343 -0.1880  0.2007 -0.1633
 1244SOL     OW 5020   0.686   2.850   2.314  0.0254  0.1723  0.4840
 1244SOL    HW2 5021   0.754   2.785   2.335 -0.2218 -0.5194 -0.8010
 1244SOL    HW3 5022   0.604   2.806   2.334 -0.1553 -0.0316 -0.6562
 1244SOL    MW4 5023   0.684   2.836   2.319 -0.0311  0.0541  0.1640
 1245SOL     OW 5024   0.748   3.120   2.360  0.3568 -0.5341  0.9231
 1245SOL    HW2 5025   0.666   3.161   2.333  0.6902  0.0895  0.8618
 1245SOL    HW3 5026   0.740   3.029   2.330  0.9165  0.2500 -1.7609
 1245SOL    MW4 5027   0.736   3.113   2.353  0.4746 -0.3486  0.5608
 1246SOL     OW 5028   0.522   3.260   2.262  0.2420 -0.6027 -0.1189
 1246SOL    HW2 5029   0.456   3.220   2.318 -0.5746  0.4719 -0.2889
 1246SOL    HW3 5030   0.495   3.237   2.173 -0.3412  0.4505 -0.2285
 1246SOL    MW4 5031   0.510   3.252   2.257  0.0573 -0.3219 -0.1559
 1247SOL     OW 5032   0.455   3.521   2.370 -0.3099 -0.1994  0.1997
 1247SOL    HW2 5033   0.537   3.564   2.345 -0.5286  0.2893  0.3245
 1247SOL    HW3 5034   0.469   3.428   2.349 -0.2784  0.1111 -1.1695
 1247SOL    MW4 5035   0.468   3.514   2.364 -0.3346 -0.0942  0.0355
 1248SOL     OW 5036   0.715   3.628   2.285  0.0240 -0.6437  0.6045
 1248SOL    HW2 5037   0.709   3.714   2.327  1.3586 -0.4727  0.4648
 1248SOL    HW3 5038   0.717   3.647   2.192  1.7928 -0.7150  0.6074
 1248SOL    MW4 5039   0.714   3.642   2.279  0.4334 -0.6306  0.5865
 1249SOL     OW 5040   0.688   3.894   2.376 -0.4694 -0.2387  0.5395
 1249SOL    HW2 5041   0.680   3.896   2.471 -0.7462 -1.1745  0.5466
 1249SOL    HW3 5042   0.602   3.921   2.344 -0.0427  1.1327  0.5484
 1249SOL    MW4 5043   0.676   3.898   2.384 -0.4497 -0.1812  0.5417
 1250SOL     OW 5044   0.451   3.992   2.298 -0.0300 -0.3217 -0.2705
 1250SOL    HW2 5045   0.367   3.964   2.334  0.2084  0.3498  0.8357
 1250SOL    HW3 5046   0.441   3.984   2.203 -2.2714  2.2694 -0.3080
 1250SOL    MW4 5047   0.439   3.987   2.290 -0.2943  0.1087 -0.1295
 1251SOL     OW 5048   0.436   4.245   2.380 -0.1746  0.6702 -0.0492
 1251SOL    HW2 5049   0.515   4.279   2.338  0.5086 -0.0195  0.6578
 1251SOL    HW3 5050   0.433   4.153   2.353  0.0349  0.3358  1.0536
 1251SOL    MW4 5051   0.446   4.237   2.371 -0.0569  0.5355  0.1898
 1252SOL     OW 5052   0.655   4.378   2.275 -0.6239 -0.2257 -0.1051
 1252SOL    HW2 5053   0.661   4.469   2.304  1.6135 -0.3243 -0.1491
 1252SOL    HW3 5054   0.659   4.384   2.179 -1.0646 -0.3333 -0.1297
 1252SOL    MW4 5055   0.656   4.391   2.266 -0.3869 -0.2527 -0.1144
 1253SOL     OW 5056   1.118   4.649   2.408  0.1244  0.2898 -0.1105
 1253SOL    HW2 5057   1.115   4.647   2.504  1.0612 -0.6448 -0.0877
 1253SOL    HW3 5058   1.038   4.696   2.382 -0.0632  0.6654  1.1263
 1253SOL    MW4 5059   1.107   4.655   2.417  0.2232  0.2160  0.0558
 1254SOL     OW 5060   0.900   0.104   2.283 -0.5230 -0.3431  0.0833
 1254SOL    HW2 5061   0.877   0.195   2.300 -1.4608 -0.5112 -0.2525
 1254SOL    HW3 5062   0.904   0.097   2.188  1.1374 -0.2758  0.1256
 1254SOL    MW4 5063   0.897   0.115   2.273 -0.4277 -0.3564  0.0443
 1255SOL     OW 5064   0.874   0.362   2.382  0.2810 -0.3322 -0.3906
 1255SOL    HW2 5065   0.952   0.401   2.343  1.9388 -0.0335  3.0732
 1255SOL    HW3 5066   0.802   0.421   2.357  1.4666  0.5259 -1.8661
 1255SOL    MW4 5067   0.875   0.375   2.374  0.6562 -0.1796 -0.1283
 1256SOL     OW 5068   1.097   0.501   2.266  0.1622  0.1002  0.4715
 1256SOL    HW2 5069   1.174   0.457   2.301 -0.2196 -0.7775  0.2414
 1256SOL    HW3 5070   1.107   0.494   2.171  0.5169  1.2630  0.4204
 1256SOL    MW4 5071   1.108   0.494   2.258  0.1587  0.1378  0.4339
 1257SOL     OW 5072   1.112   0.756   2.373  0.1273  0.2880  0.5208
 1257SOL    HW2 5073   1.045   0.818   2.347 -1.4247 -1.6444 -0.2336
 1257SOL    HW3 5074   1.088   0.675   2.329  1.8031 -0.9951  1.8807
 1257SOL    MW4 5075   1.100   0.753   2.364  0.1436 -0.1361  0.6008
 1258SOL     OW 5076   0.893   0.920   2.329 -0.0705  0.0071  0.0879
 1258SOL    HW2 5077   0.877   1.000   2.380 -1.3348 -0.4394  0.3859
 1258SOL    HW3 5078   0.814   0.868   2.339 -0.1711 -0.2894 -1.9756
 1258SOL    MW4 5079   0.881   0.924   2.337 -0.2506 -0.0909 -0.1450
 1259SOL     OW 5080   0.883   1.178   2.442  0.0822 -0.3256  0.3495
 1259SOL    HW2 5081   0.954   1.181   2.378 -0.5354  0.3004 -0.3159
 1259SOL    HW3 5082   0.805   1.205   2.393 -0.1411  1.6287  1.7143
 1259SOL    MW4 5083   0.882   1.182   2.427 -0.0287  0.0149  0.4418
 1260SOL     OW 5084   1.118   1.232   2.299 -0.4334  0.2191 -0.3977
 1260SOL    HW2 5085   1.201   1.192   2.323  0.2027  1.1666 -0.9624
 1260SOL    HW3 5086   1.115   1.226   2.203 -1.2234 -0.1968 -0.3581
 1260SOL    MW4 5087   1.128   1.226   2.289 -0.4537  0.2892 -0.4671
 1261SOL     OW 5088   1.123   1.517   2.381 -0.1193 -0.0767  0.1972
 1261SOL    HW2 5089   1.037   1.557   2.371 -0.4096 -0.4482  1.2197
 1261SOL    HW3 5090   1.111   1.426   2.355 -0.1342 -0.2335  0.7485
 1261SOL    MW4 5091   1.110   1.511   2.376 -0.1595 -0.1465  0.4048
 1262SOL     OW 5092   0.891   1.660   2.300 -0.5818 -0.2123  0.0486
 1262SOL    HW2 5093   0.909   1.751   2.323  0.5691 -0.5504  0.5492
 1262SOL    HW3 5094   0.901   1.656   2.205  3.9582 -0.7371  0.4263
 1262SOL    MW4 5095   0.895   1.671   2.291  0.1690 -0.3263  0.1643
 1263SOL     OW 5096   0.927   1.927   2.353  0.5089 -0.5711  0.1015
 1263SOL    HW2 5097   0.916   1.940   2.447  0.7648 -0.4113  0.1105
 1263SOL    HW3 5098   1.010   1.971   2.332  1.3845 -2.1582  0.1275
 1263SOL    MW4 5099   0.937   1.934   2.362  0.6582 -0.7594  0.1061
 1264SOL     OW 5100   1.145   2.078   2.307 -0.6618  0.4904  0.2841
 1264SOL    HW2 5101   1.194   1.999   2.330 -1.2037  0.3988  1.1544
 1264SOL    HW3 5102   1.152   2.083   2.212  2.3903  1.3695  0.4995
 1264SOL    MW4 5103   1.152   2.068   2.297 -0.3306  0.5944  0.4275
 1265SOL     OW 5104   1.354   2.471   2.272  0.2107 -0.1842 -0.1809
 1265SOL    HW2 5105   1.351   2.460   2.177  0.6784  1.3195 -0.3702
 1265SOL    HW3 5106   1.430   2.419   2.299  0.4672 -0.0768 -0.6940
 1265SOL    MW4 5107   1.363   2.462   2.263  0.3062  0.0284 -0.2737
 1266SOL     OW 5108   0.896   2.437   2.274  0.0744 -0.2398 -0.4696
 1266SOL    HW2 5109   0.973   2.390   2.305  1.1596  1.5337 -0.4123
 1266SOL    HW3 5110   0.908   2.444   2.180  0.6591  1.2043 -0.2973
 1266SOL    MW4 5111   0.908   2.432   2.266  0.2947  0.1845 -0.4396
 1267SOL     OW 5112   0.891   2.690   2.364  0.0826 -0.0321  0.0883
 1267SOL    HW2 5113   0.878   2.680   2.459 -1.0954 -0.0127 -0.0685
 1267SOL    HW3 5114   0.907   2.601   2.332 -0.3816 -0.1478  0.1780
 1267SOL    MW4 5115   0.892   2.677   2.373 -0.1340 -0.0446  0.0796
 1268SOL     OW 5116   1.108   2.829   2.272 -0.2604 -0.1208 -0.3813
 1268SOL    HW2 5117   1.174   2.789   2.329  0.0478 -0.0925 -0.7186
 1268SOL    HW3 5118   1.026   2.790   2.301 -0.1915  0.3967  0.5403
 1268SOL    MW4 5119   1.106   2.819   2.283 -0.2106 -0.0486 -0.3040
 1269SOL     OW 5120   1.114   3.106   2.373 -0.1441 -0.0107 -0.2402
 1269SOL    HW2 5121   1.046   3.142   2.316 -1.5208 -0.6271  0.9734
 1269SOL    HW3 5122   1.123   3.015   2.344  1.8422  0.6693 -1.9187
 1269SOL    MW4 5123   1.106   3.099   2.361 -0.0637 -0.0024 -0.3016
 1270SOL     OW 5124   0.945   3.241   2.220 -0.1729 -0.0860 -0.2579
 1270SOL    HW2 5125   0.950   3.327   2.263 -0.4314 -0.3830  0.3745
 1270SOL    HW3 5126   0.869   3.199   2.260  0.2007 -0.7762 -0.2694
 1270SOL    MW4 5127   0.935   3.247   2.231 -0.1578 -0.2162 -0.1760
 1271SOL     OW 5128   0.925   3.477   2.375  0.4229  0.1057 -0.1045
 1271SOL    HW2 5129   0.906   3.475   2.469  0.6281 -0.0083 -0.0655
 1271SOL    HW3 5130   0.846   3.515   2.336  0.4814  0.4926  0.1524
 1271SOL    MW4 5131   0.912   3.482   2.382  0.4576  0.1416 -0.0656
 1272SOL     OW 5132   1.114   3.621   2.244  0.0934  0.2995  0.6272
 1272SOL    HW2 5133   1.190   3.585   2.288  0.0649 -1.1631 -0.5082
 1272SOL    HW3 5134   1.039   3.588   2.294  0.1688  1.2635  1.3927
 1272SOL    MW4 5135   1.114   3.612   2.256  0.0997  0.2337  0.5786
 1273SOL     OW 5136   1.142   3.868   2.365  0.1802  0.3255  0.2255
 1273SOL    HW2 5137   1.210   3.915   2.317  1.2020 -0.6539  0.6865
 1273SOL    HW3 5138   1.132   3.785   2.317 -0.8022  0.5199  0.0718
 1273SOL    MW4 5139   1.149   3.863   2.352  0.1854  0.2222  0.2661
 1274SOL     OW 5140   0.928   4.024   2.267 -0.0176  0.1479 -0.6318
 1274SOL    HW2 5141   1.001   3.974   2.305  1.3906  1.4528 -1.5409
 1274SOL    HW3 5142   0.849   3.980   2.300  1.1619 -0.7454  1.1036
 1274SOL    MW4 5143   0.927   4.011   2.276  0.3237  0.2027 -0.5229
 1275SOL     OW 5144   0.902   4.276   2.372 -0.2068  0.5030  0.0819
 1275SOL    HW2 5145   0.909   4.190   2.329 -0.1581 -0.1584  1.3677
 1275SOL    HW3 5146   0.819   4.312   2.341 -1.3398 -1.0145  1.2651
 1275SOL    MW4 5147   0.892   4.269   2.362 -0.3499  0.2155  0.4077
 1276SOL     OW 5148   1.155   4.391   2.315  0.0818 -0.3678  0.1817
 1276SOL    HW2 5149   1.070   4.359   2.343 -0.5878  0.6453 -0.6496
 1276SOL    HW3 5150   1.159   4.482   2.347  0.7263 -0.3202 -0.0164
 1276SOL    MW4 5151   1.144   4.399   2.323  0.0784 -0.2279  0.0455
 1277SOL     OW 5152   1.581   0.006   2.378  0.0011 -0.3915  0.3931
 1277SOL    HW2 5153   1.656   0.048   2.337 -1.2235 -0.1343 -1.6350
 1277SOL    HW3 5154   1.505   0.047   2.338 -1.2304 -3.0471 -0.0957
 1277SOL    MW4 5155   1.581   0.017   2.368 -0.3229 -0.7080  0.0613
 1278SOL     OW 5156   1.330   0.098   2.279  0.3172  0.1596  0.3002
 1278SOL    HW2 5157   1.259   0.058   2.329  1.0112 -1.4396  0.0216
 1278SOL    HW3 5158   1.321   0.192   2.296 -0.9033 -0.1630  1.5129
 1278SOL    MW4 5159   1.320   0.105   2.288  0.2477 -0.0939  0.4237
 1279SOL     OW 5160   1.313   0.376   2.359 -0.4511 -0.3997 -0.5246
 1279SOL    HW2 5161   1.314   0.357   2.453  0.3701  0.0628 -0.4390
 1279SOL    HW3 5162   1.395   0.423   2.342 -1.4268  1.1268 -1.1465
 1279SOL    MW4 5163   1.324   0.379   2.369 -0.4715 -0.1373 -0.5956
 1280SOL     OW 5164   1.564   0.478   2.302  0.2160 -0.4495 -0.0251
 1280SOL    HW2 5165   1.652   0.444   2.317  0.1427 -1.5035 -1.7721
 1280SOL    HW3 5166   1.560   0.492   2.207 -1.6772 -0.9479 -0.0323
 1280SOL    MW4 5167   1.575   0.475   2.291 -0.0434 -0.6543 -0.2565
 1281SOL     OW 5168   1.569   0.752   2.361 -0.0382 -0.0276  0.4755
 1281SOL    HW2 5169   1.654   0.775   2.324 -0.8331  0.6105 -0.9703
 1281SOL    HW3 5170   1.558   0.659   2.341 -0.0756  0.1021 -0.0991
 1281SOL    MW4 5171   1.579   0.743   2.354 -0.1481  0.0736  0.2089
 1282SOL     OW 5172   1.351   0.881   2.283  0.0450 -0.1887  0.3594
 1282SOL    HW2 5173   1.430   0.837   2.315  0.8482  0.6517 -0.4512
 1282SOL    HW3 5174   1.279   0.835   2.326  0.9257 -1.6429  0.3085
 1282SOL    MW4 5175   1.352   0.869   2.293  0.2673 -0.2697  0.2456
 1283SOL     OW 5176   1.363   1.133   2.380 -0.2140 -0.4479  0.7801
 1283SOL    HW2 5177   1.363   1.122   2.475 -0.6366 -0.9070  0.7291
 1283SOL    HW3 5178   1.372   1.045   2.345  2.7308 -0.0379  0.4058
 1283SOL    MW4 5179   1.364   1.120   2.388  0.1189 -0.4544  0.7241
 1284SOL     OW 5180   1.600   1.266   2.294  0.2925  0.0401 -0.3746
 1284SOL    HW2 5181   1.517   1.245   2.336 -0.7415  1.0611 -1.8489
 1284SOL    HW3 5182   1.585   1.246   2.201  2.0857 -0.9079 -0.4675
 1284SOL    MW4 5183   1.587   1.260   2.287  0.3927  0.0497 -0.5815
 1285SOL     OW 5184   1.554   1.533   2.352 -0.0524 -0.5906 -0.1597
 1285SOL    HW2 5185   1.641   1.571   2.344 -0.5443  0.6457  0.3243
 1285SOL    HW3 5186   1.567   1.439   2.336  1.0748 -0.1490 -1.8591
 1285SOL    MW4 5187   1.567   1.525   2.349  0.0315 -0.3693 -0.3200
 1286SOL     OW 5188   1.306   1.662   2.263 -0.1224  0.1157  0.4139
 1286SOL    HW2 5189   1.377   1.604   2.290  0.4166  0.6590  0.1991
 1286SOL    HW3 5190   1.228   1.628   2.306 -0.0704 -1.5548 -0.7741
 1286SOL    MW4 5191   1.305   1.650   2.272 -0.0443 -0.0329  0.2286
 1287SOL     OW 5192   1.317   1.902   2.406 -0.4293  0.2061 -0.1343
 1287SOL    HW2 5193   1.386   1.953   2.363 -0.5478 -0.2052 -0.8011
 1287SOL    HW3 5194   1.317   1.817   2.362 -0.6821 -0.1487  0.5376
 1287SOL    MW4 5195   1.326   1.898   2.395 -0.4783  0.1051 -0.1338
 1288SOL     OW 5196   1.524   2.032   2.252 -0.0093 -0.5655 -0.1234
 1288SOL    HW2 5197   1.605   1.998   2.289 -0.5886 -0.7934  0.9394
 1288SOL    HW3 5198   1.543   2.044   2.159  1.1916 -0.7589  0.0976
 1288SOL    MW4 5199   1.537   2.029   2.244  0.0726 -0.6211  0.0460
 1289SOL     OW 5200   1.566   2.311   2.357  0.0488  0.2860  0.1954
 1289SOL    HW2 5201   1.574   2.309   2.452 -0.6257  1.8796  0.2915
 1289SOL    HW3 5202   1.569   2.219   2.331 -3.3321 -0.4065  2.0458
 1289SOL    MW4 5203   1.567   2.299   2.366 -0.4861  0.4051  0.4520
 1290SOL     OW 5204   1.352   2.439   1.980  0.0773 -0.2178 -0.0789
 1290SOL    HW2 5205   1.421   2.394   1.931 -0.6397 -0.8633 -0.5047
 1290SOL    HW3 5206   1.362   2.531   1.957 -0.3619 -0.5332 -1.6038
 1290SOL    MW4 5207   1.362   2.445   1.971 -0.0752 -0.3443 -0.3363
 1291SOL     OW 5208   1.344   2.729   2.400 -0.0037 -0.4803 -0.0538
 1291SOL    HW2 5209   1.424   2.769   2.368 -1.2203  0.8891 -1.4336
 1291SOL    HW3 5210   1.344   2.641   2.362  1.2754 -0.8018  0.6805
 1291SOL    MW4 5211   1.355   2.722   2.391  0.0045 -0.3421 -0.1390
 1292SOL     OW 5212   1.578   2.836   2.287 -0.5350  0.5493 -0.2377
 1292SOL    HW2 5213   1.571   2.927   2.314  1.8198  0.9767 -0.9676
 1292SOL    HW3 5214   1.601   2.841   2.194  1.0433 -0.7359  0.0548
 1292SOL    MW4 5215   1.580   2.848   2.278 -0.0161  0.4365 -0.2954
 1293SOL     OW 5216   1.587   3.110   2.387 -0.0784  0.5946  0.3312
 1293SOL    HW2 5217   1.599   3.119   2.482 -0.3654  0.4025  0.3873
 1293SOL    HW3 5218   1.510   3.163   2.367 -1.9099 -1.8268  0.7009
 1293SOL    MW4 5219   1.579   3.118   2.397 -0.3579  0.2499  0.3874
 1294SOL     OW 5220   1.348   3.257   2.306 -0.1099 -0.0073  0.1349
 1294SOL    HW2 5221   1.279   3.196   2.332  1.6186 -1.5604  1.2682
 1294SOL    HW3 5222   1.345   3.259   2.210 -2.1728  0.5026  0.2057
 1294SOL    MW4 5223   1.339   3.249   2.297 -0.1541 -0.1450  0.2937
 1295SOL     OW 5224   1.322   3.513   2.376  0.2759 -0.0053  0.0234
 1295SOL    HW2 5225   1.322   3.514   2.472  0.7136  1.3254  0.0284
 1295SOL    HW3 5226   1.326   3.421   2.352 -1.8133 -0.4512  1.2839
 1295SOL    MW4 5227   1.323   3.501   2.385  0.0581  0.1116  0.1903
 1296SOL     OW 5228   1.558   3.618   2.243  0.1975  0.2542 -0.0159
 1296SOL    HW2 5229   1.596   3.691   2.291  0.4754  1.1393 -1.5599
 1296SOL    HW3 5230   1.478   3.597   2.291  1.9111 -0.7656  2.5062
 1296SOL    MW4 5231   1.553   3.625   2.255  0.4603  0.2360  0.1130
 1297SOL     OW 5232   1.642   3.825   2.403 -0.2354  0.1248 -0.0483
 1297SOL    HW2 5233   1.626   3.832   2.497 -0.8713 -1.0773 -0.0622
 1297SOL    HW3 5234   1.708   3.891   2.385  0.8631 -0.5465  1.4793
 1297SOL    MW4 5235   1.648   3.835   2.413 -0.1744 -0.1225  0.1519
 1298SOL     OW 5236   1.398   3.976   2.263 -0.0384  0.8444 -0.0268
 1298SOL    HW2 5237   1.480   3.940   2.299 -1.2727 -1.7224  0.3392
 1298SOL    HW3 5238   1.417   3.988   2.170  0.8442  0.5019  0.0988
 1298SOL    MW4 5239   1.412   3.972   2.255 -0.0849  0.4604  0.0381
 1299SOL     OW 5240   1.394   4.240   2.362  0.2468  0.5581 -0.2023
 1299SOL    HW2 5241   1.395   4.153   2.321 -1.5260  0.1172  0.6600
 1299SOL    HW3 5242   1.314   4.281   2.329  1.2819  2.0403 -0.9239
 1299SOL    MW4 5243   1.384   4.234   2.352  0.1495  0.6957 -0.1838
 1300SOL     OW 5244   1.605   4.399   2.322  0.3266 -0.2948 -0.6306
 1300SOL    HW2 5245   1.533   4.341   2.345  0.5854  0.5713  2.6621
 1300SOL    HW3 5246   1.581   4.484   2.360  1.6246  0.8139 -2.2116
 1300SOL    MW4 5247   1.593   4.403   2.330  0.5319 -0.0339 -0.4046
 1301SOL     OW 5248   2.055   4.660   2.373 -0.0387 -0.8491  0.1857
 1301SOL    HW2 5249   2.135   4.701   2.340 -1.9506  0.0844 -3.5842
 1301SOL    HW3 5250   2.059   4.570   2.341 -1.1324 -0.3781 -1.4039
 1301SOL    MW4 5251   2.066   4.654   2.364 -0.4354 -0.6638 -0.5214
 1302SOL     OW 5252   1.820   0.108   2.272  0.1636 -0.1424  0.7197
 1302SOL    HW2 5253   1.818   0.201   2.296  1.0077 -0.0047  0.2690
 1302SOL    HW3 5254   1.908   0.079   2.296 -0.6502 -1.2698  2.4668
 1302SOL    MW4 5255   1.831   0.117   2.278  0.1676 -0.2730  0.8905
 1303SOL     OW 5256   1.809   0.384   2.367  0.2642 -0.0643  0.3386
 1303SOL    HW2 5257   1.814   0.375   2.462  1.2420 -0.7001  0.2348
 1303SOL    HW3 5258   1.894   0.421   2.342 -0.6192  1.6510 -0.1128
 1303SOL    MW4 5259   1.821   0.387   2.376  0.2768  0.0782  0.2654
 1304SOL     OW 5260   2.046   0.503   2.268 -0.3397 -0.1048  0.1733
 1304SOL    HW2 5261   2.052   0.589   2.309  0.7057 -0.3200  0.4715
 1304SOL    HW3 5262   2.064   0.518   2.176 -1.0103  0.1236  0.0778
 1304SOL    MW4 5263   2.049   0.516   2.261 -0.2904 -0.1031  0.2003
 1305SOL     OW 5264   2.030   0.756   2.386 -0.1818  0.1645  0.2908
 1305SOL    HW2 5265   2.096   0.804   2.335 -0.9620 -0.6950 -1.5808
 1305SOL    HW3 5266   1.947   0.775   2.341 -1.0891  0.4087  2.0174
 1305SOL    MW4 5267   2.028   0.765   2.373 -0.4044  0.0833  0.2718
 1306SOL     OW 5268   1.806   0.830   2.227  0.9476 -0.0110  0.3132
 1306SOL    HW2 5269   1.817   0.921   2.254  2.4720 -0.6118  1.7987
 1306SOL    HW3 5270   1.806   0.834   2.131  0.3059  1.6182  0.3635
 1306SOL    MW4 5271   1.807   0.843   2.218  1.0638  0.1246  0.5159
 1307SOL     OW 5272   1.854   1.085   2.329  0.1538  0.1476 -0.0975
 1307SOL    HW2 5273   1.925   1.141   2.296  1.0727 -1.1254 -0.3025
 1307SOL    HW3 5274   1.777   1.142   2.328  1.0351  1.3617 -0.4799
 1307SOL    MW4 5275   1.854   1.100   2.324  0.3914  0.1398 -0.1750
 1308SOL     OW 5276   2.050   1.268   2.259 -0.2138 -0.6670 -0.5353
 1308SOL    HW2 5277   2.042   1.358   2.291 -0.6393 -0.8304 -0.1749
 1308SOL    HW3 5278   2.047   1.276   2.164 -0.6278 -0.3323 -0.4967
 1308SOL    MW4 5279   2.048   1.281   2.251 -0.3245 -0.6442 -0.4826
 1309SOL     OW 5280   2.026   1.536   2.399 -0.6385 -0.0573 -0.4753
 1309SOL    HW2 5281   2.023   1.528   2.494 -0.3404  1.2205 -0.3408
 1309SOL    HW3 5282   1.949   1.589   2.377 -0.5566 -0.1156 -0.9104
 1309SOL    MW4 5283   2.015   1.542   2.409 -0.5887  0.1036 -0.5150
 1310SOL     OW 5284   1.786   1.633   2.312  0.3460  0.0247 -0.0516
 1310SOL    HW2 5285   1.772   1.726   2.328  0.4954  0.4649 -2.2574
 1310SOL    HW3 5286   1.793   1.626   2.217  0.8582 -2.1714  0.1139
 1310SOL    MW4 5287   1.785   1.644   2.302  0.4333 -0.2069 -0.3204
 1311SOL     OW 5288   1.754   1.887   2.357  0.1325  0.0644  0.0806
 1311SOL    HW2 5289   1.752   1.896   2.452  1.2102 -0.4660  0.1581
 1311SOL    HW3 5290   1.836   1.930   2.330  0.0967 -0.2503 -0.5500
 1311SOL    MW4 5291   1.765   1.894   2.366  0.2700 -0.0470  0.0076
 1312SOL     OW 5292   1.982   2.062   2.293 -0.5343  0.5944  0.4440
 1312SOL    HW2 5293   2.070   2.039   2.322 -0.7486  0.6352  1.1533
 1312SOL    HW3 5294   1.986   2.059   2.198 -0.7542 -3.1341  0.4796
 1312SOL    MW4 5295   1.994   2.059   2.284 -0.5915  0.1078  0.5422
 1313SOL     OW 5296   1.975   2.317   2.411  0.3306  0.3222  0.5110
 1313SOL    HW2 5297   2.056   2.358   2.381 -0.2518  0.8636 -0.3229
 1313SOL    HW3 5298   1.983   2.225   2.386  1.0695  0.1855  1.2261
 1313SOL    MW4 5299   1.987   2.310   2.404  0.3513  0.3757  0.4954
 1314SOL     OW 5300   1.791   2.424   2.244 -0.7780 -0.1328  0.1585
 1314SOL    HW2 5301   1.856   2.382   2.300 -0.1624 -0.6052 -0.8915
 1314SOL    HW3 5302   1.707   2.399   2.282 -0.3750 -0.6618  0.7153
 1314SOL    MW4 5303   1.789   2.415   2.256 -0.6436 -0.2646  0.0935
 1315SOL     OW 5304   1.813   2.707   2.380  0.2413 -0.0883  0.1703
 1315SOL    HW2 5305   1.814   2.628   2.327  1.5212  0.0177  0.0175
 1315SOL    HW3 5306   1.729   2.749   2.361  0.0545 -0.8194 -0.6121
 1315SOL    MW4 5307   1.802   2.702   2.371  0.3856 -0.1707  0.0467
 1316SOL     OW 5308   2.023   2.847   2.261 -0.2640  0.2655  0.8255
 1316SOL    HW2 5309   2.091   2.791   2.299 -0.5694  0.1546  1.2068
 1316SOL    HW3 5310   1.944   2.828   2.311 -0.6712  0.1242  0.1461
 1316SOL    MW4 5311   2.021   2.837   2.272 -0.3579  0.2322  0.7861
 1317SOL     OW 5312   2.017   3.111   2.336 -0.3160 -0.7204 -0.4012
 1317SOL    HW2 5313   2.097   3.155   2.307 -0.3851 -0.0712  0.3649
 1317SOL    HW3 5314   2.031   3.019   2.315  1.4182 -0.8959  1.3926
 1317SOL    MW4 5315   2.030   3.105   2.329 -0.0963 -0.6580 -0.0632
 1318SOL     OW 5316   1.784   3.210   2.226 -0.5490  0.2156  0.1144
 1318SOL    HW2 5317   1.869   3.177   2.256 -0.6604  0.5841  0.8587
 1318SOL    HW3 5318   1.721   3.174   2.289 -1.1626 -1.4728 -1.4349
 1318SOL    MW4 5319   1.787   3.201   2.238 -0.6447  0.0415  0.0083
 1319SOL     OW 5320   1.773   3.479   2.341 -0.7953  0.1671 -0.1722
 1319SOL    HW2 5321   1.779   3.396   2.294  0.1325  0.2682 -0.2320
 1319SOL    HW3 5322   1.692   3.518   2.310 -1.3147 -0.7851 -0.0412
 1319SOL    MW4 5323   1.763   3.473   2.331 -0.7416  0.0548 -0.1628
 1320SOL     OW 5324   2.015   3.618   2.251 -0.1935  0.3517 -0.2063
 1320SOL    HW2 5325   1.935   3.567   2.267  0.3697 -0.0990  1.3018
 1320SOL    HW3 5326   2.031   3.608   2.158 -0.4074 -1.8259 -0.0553
 1320SOL    MW4 5327   2.006   3.610   2.241 -0.1473  0.0050  0.0129
 1321SOL     OW 5328   2.066   3.861   2.367 -0.5459  0.0469  0.0009
 1321SOL    HW2 5329   2.064   3.843   2.461  1.4101 -0.2845  0.0025
 1321SOL    HW3 5330   2.055   3.776   2.326  1.0159 -0.1541 -0.0368
 1321SOL    MW4 5331   2.064   3.848   2.374 -0.0820 -0.0236 -0.0041
 1322SOL     OW 5332   1.831   4.007   2.309 -0.2585 -0.4697 -0.1537
 1322SOL    HW2 5333   1.908   3.954   2.330  0.8464  0.8593 -0.7700
 1322SOL    HW3 5334   1.827   4.007   2.213  0.8376  2.0395 -0.2417
 1322SOL    MW4 5335   1.840   4.000   2.299  0.0319  0.0372 -0.2465
 1323SOL     OW 5336   1.840   4.269   2.416  0.0159  0.6172 -0.1426
 1323SOL    HW2 5337   1.827   4.176   2.394 -0.7787  0.5632  0.5563
 1323SOL    HW3 5338   1.758   4.311   2.391  0.4891  1.1973 -0.7489
 1323SOL    MW4 5339   1.828   4.262   2.409 -0.0263  0.6866 -0.1307
 1324SOL     OW 5340   2.047   4.411   2.287  0.3419  0.4074 -0.2123
 1324SOL    HW2 5341   1.974   4.359   2.320  0.2438 -0.1204 -1.2181
 1324SOL    HW3 5342   2.036   4.409   2.191  1.7070  0.2775 -0.3791
 1324SOL    MW4 5343   2.036   4.404   2.278  0.5090  0.3204 -0.3674
 1325SOL     OW 5344   2.489   4.658   2.399 -0.6214 -0.1414  0.1615
 1325SOL    HW2 5345   2.565   4.697   2.357 -0.6944  0.3116  0.4375
 1325SOL    HW3 5346   2.490   4.567   2.372  0.3427 -0.2703  0.6151
 1325SOL    MW4 5347   2.499   4.651   2.390 -0.5038 -0.0987  0.2577
 1326SOL     OW 5348   2.280   0.109   2.247  0.0385  0.0092 -0.5019
 1326SOL    HW2 5349   2.290   0.193   2.291  0.4857  0.1922 -0.9455
 1326SOL    HW3 5350   2.347   0.053   2.288 -0.1285 -0.0734 -0.3425
 1326SOL    MW4 5351   2.290   0.112   2.259  0.0751  0.0225 -0.5393
 1327SOL     OW 5352   2.247   0.356   2.399  0.0973  0.3959  0.1209
 1327SOL    HW2 5353   2.326   0.409   2.388  0.6975 -0.6398 -0.5875
 1327SOL    HW3 5354   2.179   0.403   2.350  0.0120  1.8252  1.5735
 1327SOL    MW4 5355   2.248   0.369   2.391  0.1655  0.4478  0.2193
 1328SOL     OW 5356   2.452   0.495   2.277 -0.1070 -0.0204  0.2270
 1328SOL    HW2 5357   2.529   0.450   2.313  0.4829  1.1677  0.4877
 1328SOL    HW3 5358   2.460   0.484   2.183  0.8462  0.7976  0.1994
 1328SOL    MW4 5359   2.463   0.488   2.270  0.0970  0.2443  0.2575
 1329SOL     OW 5360   2.459   0.752   2.419  0.5111 -0.0011 -0.0750
 1329SOL    HW2 5361   2.519   0.795   2.359  1.4731 -1.0685  0.0991
 1329SOL    HW3 5362   2.449   0.664   2.384 -1.5441  0.3748 -0.5066
 1329SOL    MW4 5363   2.466   0.746   2.406  0.3669 -0.0923 -0.1090
 1330SOL     OW 5364   2.244   0.875   2.269  0.2157  0.0896 -0.0103
 1330SOL    HW2 5365   2.247   0.964   2.304 -0.0327 -0.6540  1.9654
 1330SOL    HW3 5366   2.318   0.831   2.311  0.5631 -0.5411 -1.2749
 1330SOL    MW4 5367   2.255   0.881   2.279  0.2286 -0.0917  0.0837
 1331SOL     OW 5368   2.259   1.130   2.388  0.4687 -0.1244  0.0710
 1331SOL    HW2 5369   2.335   1.176   2.351  0.2292 -0.3660 -0.7518
 1331SOL    HW3 5370   2.183   1.175   2.350  0.2146 -0.3531  0.3063
 1331SOL    MW4 5371   2.259   1.142   2.378  0.4036 -0.1864 -0.0067
 1332SOL     OW 5372   2.469   1.269   2.274 -0.0433  0.0560  0.0039
 1332SOL    HW2 5373   2.555   1.230   2.288 -0.1647  0.1316  0.9668
 1332SOL    HW3 5374   2.474   1.355   2.315 -0.7795 -0.1883  0.6216
 1332SOL    MW4 5375   2.481   1.275   2.281 -0.1564  0.0339  0.2122
 1333SOL     OW 5376   2.448   1.523   2.411  0.3197  0.3682 -0.1649
 1333SOL    HW2 5377   2.460   1.531   2.505 -1.5456  0.8397  0.0443
 1333SOL    HW3 5378   2.523   1.569   2.373  0.6086  0.9414  1.0880
 1333SOL    MW4 5379   2.459   1.530   2.418  0.1116  0.5060  0.0281
 1334SOL     OW 5380   2.217   1.684   2.292  0.0641  0.3210 -0.1026
 1334SOL    HW2 5381   2.285   1.645   2.347 -1.0949 -1.7976 -0.1377
 1334SOL    HW3 5382   2.136   1.640   2.319 -0.7206  0.1687 -2.5932
 1334SOL    MW4 5383   2.216   1.673   2.303 -0.1926  0.0216 -0.4361
 1335SOL     OW 5384   2.231   1.967   2.362  0.3637  0.3108  0.1566
 1335SOL    HW2 5385   2.320   2.000   2.355  0.9275 -1.0668  0.7441
 1335SOL    HW3 5386   2.235   1.878   2.326 -0.7093  0.1173  0.4800
 1335SOL    MW4 5387   2.243   1.960   2.356  0.2966  0.1035  0.2768
 1336SOL     OW 5388   2.473   2.061   2.287 -0.1507  0.3155 -0.3862
 1336SOL    HW2 5389   2.556   2.015   2.287 -0.5506 -0.4393 -1.4636
 1336SOL    HW3 5390   2.444   2.058   2.196  0.1000  3.2571 -0.6175
 1336SOL    MW4 5391   2.480   2.055   2.275 -0.1705  0.6039 -0.5589
 1337SOL     OW 5392   2.447   2.308   2.419  0.3705  0.5544 -0.2571
 1337SOL    HW2 5393   2.524   2.362   2.399 -0.0343  0.9331 -0.8029
 1337SOL    HW3 5394   2.461   2.227   2.369  0.8211  0.2766  0.3080
 1337SOL    MW4 5395   2.459   2.304   2.409  0.3765  0.5679 -0.2546
 1338SOL     OW 5396   2.204   2.411   2.316  0.1487  0.4136  0.2700
 1338SOL    HW2 5397   2.213   2.502   2.346  0.5624  0.2273  0.7202
 1338SOL    HW3 5398   2.285   2.369   2.343 -0.2851 -0.2380  0.5651
 1338SOL    MW4 5399   2.216   2.417   2.323  0.1462  0.3033  0.3684
 1339SOL     OW 5400   2.225   2.695   2.385  0.1076 -0.0848 -0.2329
 1339SOL    HW2 5401   2.222   2.710   2.479  0.0319  1.4753 -0.4579
 1339SOL    HW3 5402   2.313   2.723   2.359  0.0240 -0.2135 -0.6692
 1339SOL    MW4 5403   2.236   2.701   2.394  0.0868  0.1040 -0.3204
 1340SOL     OW 5404   2.458   2.821   2.303 -0.8377  0.2440 -0.3267
 1340SOL    HW2 5405   2.458   2.809   2.208 -0.8027 -0.4395 -0.2490
 1340SOL    HW3 5406   2.542   2.786   2.332 -0.6695  0.8412 -0.0866
 1340SOL    MW4 5407   2.469   2.814   2.294 -0.8109  0.2327 -0.2847
 1341SOL     OW 5408   2.443   3.095   2.374 -0.7243  0.0500 -0.5019
 1341SOL    HW2 5409   2.526   3.141   2.391 -0.8429 -0.6705  2.2568
 1341SOL    HW3 5410   2.469   3.017   2.326  0.0119  0.6094 -1.0333
 1341SOL    MW4 5411   2.458   3.091   2.370 -0.6428  0.0288 -0.2079
 1342SOL     OW 5412   2.240   3.235   2.247  0.4947  0.0513 -0.0476
 1342SOL    HW2 5413   2.237   3.325   2.279 -0.0187 -0.0246  0.1205
 1342SOL    HW3 5414   2.309   3.193   2.299  0.4872  0.2502  0.1219
 1342SOL    MW4 5415   2.249   3.241   2.258  0.4261  0.0677 -0.0029
 1343SOL     OW 5416   2.222   3.483   2.362 -0.2253  0.4356  0.0614
 1343SOL    HW2 5417   2.214   3.496   2.457  1.2197  1.2774  0.0858
 1343SOL    HW3 5418   2.151   3.535   2.325 -0.6119  0.3535  0.6687
 1343SOL    MW4 5419   2.212   3.492   2.370 -0.0858  0.5357  0.1447
 1344SOL     OW 5420   2.468   3.607   2.243 -0.5836 -0.2153 -0.5120
 1344SOL    HW2 5421   2.458   3.694   2.281 -0.8299  0.5666 -2.3024
 1344SOL    HW3 5422   2.397   3.556   2.282 -0.3540  0.3355  0.6544
 1344SOL    MW4 5423   2.457   3.612   2.253 -0.5856 -0.0391 -0.5944
 1345SOL     OW 5424   2.455   3.860   2.333 -0.1626  0.3279  0.3368
 1345SOL    HW2 5425   2.450   3.871   2.428 -1.9879 -0.3411  0.3429
 1345SOL    HW3 5426   2.375   3.901   2.299 -0.5863 -1.2690 -0.6993
 1345SOL    MW4 5427   2.444   3.867   2.341 -0.4594  0.0288  0.2010
 1346SOL     OW 5428   2.242   4.023   2.245 -0.1781 -0.7555 -0.1528
 1346SOL    HW2 5429   2.250   4.109   2.286 -0.7422 -0.1166 -1.3479
 1346SOL    HW3 5430   2.169   3.981   2.291  1.0879 -1.2027  1.4621
 1346SOL    MW4 5431   2.233   4.029   2.256 -0.0856 -0.7300 -0.0975
 1347SOL     OW 5432   2.273   4.265   2.392  0.2275  0.7631 -0.4660
 1347SOL    HW2 5433   2.269   4.287   2.485  0.8970  2.5867 -0.8583
 1347SOL    HW3 5434   2.192   4.302   2.355 -0.2464 -0.3258 -0.5476
 1347SOL    MW4 5435   2.262   4.273   2.399  0.2532  0.8607 -0.5283
 1348SOL     OW 5436   2.490   4.410   2.286 -0.1153 -0.7601  0.0468
 1348SOL    HW2 5437   2.572   4.369   2.313  0.1367 -0.6224 -0.4984
 1348SOL    HW3 5438   2.422   4.359   2.331  0.2342 -1.2849 -0.0144
 1348SOL    MW4 5439   2.492   4.398   2.296 -0.0360 -0.8111 -0.0334
 1349SOL     OW 5440   2.936   4.660   2.687  0.1631 -0.0264 -0.2086
 1349SOL    HW2 5441   3.023   4.690   2.715 -0.3451 -0.1075  1.5213
 1349SOL    HW3 5442   2.944   4.647   2.593  1.4132  2.1304 -0.4322
 1349SOL    MW4 5443   2.949   4.662   2.679  0.2608  0.2484 -0.0098
 1350SOL     OW 5444   2.706   0.108   2.293  0.2910  0.1365 -0.2797
 1350SOL    HW2 5445   2.720   0.197   2.325  1.0829 -0.0617 -0.0617
 1350SOL    HW3 5446   2.777   0.057   2.332 -0.4287 -0.6862 -0.0341
 1350SOL    MW4 5447   2.717   0.113   2.302  0.3009  0.0018 -0.2186
 1351SOL     OW 5448   2.675   0.371   2.373 -0.4526  0.1648 -0.7090
 1351SOL    HW2 5449   2.691   0.358   2.466  0.0572  0.7045 -0.7158
 1351SOL    HW3 5450   2.757   0.407   2.339 -0.2764 -0.9849 -1.5657
 1351SOL    MW4 5451   2.688   0.374   2.381 -0.3619  0.0843 -0.8228
 1352SOL     OW 5452   2.948   0.514   2.300  0.2901 -0.3715  0.1628
 1352SOL    HW2 5453   2.936   0.606   2.327  0.8997 -0.3804  0.4757
 1352SOL    HW3 5454   2.953   0.517   2.205 -0.5551 -0.1822  0.1161
 1352SOL    MW4 5455   2.947   0.527   2.291  0.2589 -0.3477  0.1979
 1353SOL     OW 5456   2.880   0.804   2.344  0.0196  0.3700 -0.2397
 1353SOL    HW2 5457   2.884   0.789   2.439 -0.2050  0.6961 -0.1772
 1353SOL    HW3 5458   2.789   0.828   2.328  0.1012  0.4911 -0.5118
 1353SOL    MW4 5459   2.868   0.805   2.355  0.0010  0.4290 -0.2673
 1354SOL     OW 5460   2.617   0.899   2.263 -0.5500 -0.2112 -0.1184
 1354SOL    HW2 5461   2.658   0.984   2.278  0.0241 -0.5574  0.2761
 1354SOL    HW3 5462   2.644   0.874   2.174  0.0574 -0.4082  0.1144
 1354SOL    MW4 5463   2.626   0.907   2.253 -0.3941 -0.2828 -0.0355
 1355SOL     OW 5464   2.722   1.149   2.357 -0.1753  0.5397  0.5901
 1355SOL    HW2 5465   2.805   1.186   2.327 -0.1470  1.4238  1.7148
 1355SOL    HW3 5466   2.728   1.152   2.452 -2.0817  1.9993  0.7075
 1355SOL    MW4 5467   2.734   1.155   2.366 -0.4230  0.8488  0.7541
 1356SOL     OW 5468   2.959   1.277   2.313 -0.2470  0.1264  0.0838
 1356SOL    HW2 5469   3.047   1.248   2.339 -0.3533 -0.5090 -0.2426
 1356SOL    HW3 5470   2.960   1.273   2.217 -0.1884  1.4589  0.0303
 1356SOL    MW4 5471   2.971   1.272   2.304 -0.2532  0.2185  0.0339
 1357SOL     OW 5472   2.905   1.523   2.409  0.3286 -0.4848  0.7565
 1357SOL    HW2 5473   2.948   1.541   2.493  0.0136  0.4855  0.7198
 1357SOL    HW3 5474   2.919   1.429   2.395  1.9450 -0.3097  1.0232
 1357SOL    MW4 5475   2.913   1.513   2.419  0.5004 -0.3338  0.7868
 1358SOL     OW 5476   2.655   1.636   2.277 -0.1548 -0.0306  0.2899
 1358SOL    HW2 5477   2.719   1.578   2.319  0.6910 -0.5240 -1.6000
 1358SOL    HW3 5478   2.680   1.636   2.184 -1.8999  1.0884 -0.2116
 1358SOL    MW4 5479   2.667   1.628   2.270 -0.2732  0.0520 -0.0255
 1359SOL     OW 5480   2.685   1.896   2.358 -0.2763  0.8469  0.2125
 1359SOL    HW2 5481   2.704   1.886   2.452 -1.2353  0.4537  0.3777
 1359SOL    HW3 5482   2.681   1.806   2.325 -1.0446  0.9462  0.0287
 1359SOL    MW4 5483   2.687   1.883   2.366 -0.5043  0.8081  0.2103
 1360SOL     OW 5484   2.891   2.070   2.276  0.1796  0.0889 -0.5966
 1360SOL    HW2 5485   2.974   2.028   2.300 -0.0191 -0.2632 -0.5230
 1360SOL    HW3 5486   2.825   2.005   2.298 -0.1843  0.7345  0.2127
 1360SOL    MW4 5487   2.894   2.056   2.282  0.1054  0.1276 -0.4802
 1361SOL     OW 5488   2.914   2.313   2.386  0.0012  0.1397  0.4218
 1361SOL    HW2 5489   2.934   2.292   2.477 -1.7767 -0.1814  0.7469
 1361SOL    HW3 5490   2.904   2.227   2.344 -1.8712  0.2835  0.5431
 1361SOL    MW4 5491   2.916   2.299   2.393 -0.4807  0.1163  0.4807
 1362SOL     OW 5492   2.659   2.466   2.326 -0.4125 -0.8673 -0.4858
 1362SOL    HW2 5493   2.744   2.436   2.357  0.0259 -0.0141 -0.8623
 1362SOL    HW3 5494   2.668   2.473   2.231 -0.1373  1.5602 -0.3118
 1362SOL    MW4 5495   2.671   2.463   2.318 -0.3181 -0.4346 -0.5124
 1363SOL     OW 5496   2.693   2.722   2.414  0.6349  0.3383  0.2573
 1363SOL    HW2 5497   2.775   2.744   2.370 -0.0609  0.6386 -0.9092
 1363SOL    HW3 5498   2.669   2.636   2.379  0.8761 -0.1347  1.2286
 1363SOL    MW4 5499   2.700   2.714   2.403  0.5748  0.3154  0.2320
 1364SOL     OW 5500   2.918   2.789   2.282  0.1449 -0.1311  0.6327
 1364SOL    HW2 5501   2.950   2.878   2.293  0.2637 -0.1312  0.3075
 1364SOL    HW3 5502   2.897   2.782   2.189 -0.1161 -0.3594  0.7060
 1364SOL    MW4 5503   2.920   2.800   2.271  0.1259 -0.1612  0.5996
 1365SOL     OW 5504   2.942   3.041   2.383  0.0397 -0.2917  0.2749
 1365SOL    HW2 5505   3.003   3.113   2.374 -0.0121 -0.1007  1.3864
 1365SOL    HW3 5506   2.855   3.082   2.378 -0.0052 -0.5064 -0.8575
 1365SOL    MW4 5507   2.938   3.056   2.381  0.0267 -0.2949  0.2720
 1366SOL     OW 5508   2.707   3.214   2.365  0.5378  0.0486  0.3674
 1366SOL    HW2 5509   2.720   3.308   2.377  3.2485 -0.3538  0.8538
 1366SOL    HW3 5510   2.710   3.200   2.271 -0.0874  0.4634  0.2833
 1366SOL    MW4 5511   2.709   3.224   2.354  0.8128  0.0503  0.4208
 1367SOL     OW 5512   2.687   3.523   2.393  0.2054 -0.1527 -0.0318
 1367SOL    HW2 5513   2.763   3.545   2.339  0.4927 -1.1340 -0.0421
 1367SOL    HW3 5514   2.612   3.562   2.347  0.6218  0.2622 -0.3623
 1367SOL    MW4 5515   2.687   3.531   2.380  0.2980 -0.2275 -0.0770
 1368SOL     OW 5516   2.928   3.585   2.263  0.0054 -0.4920  0.3812
 1368SOL    HW2 5517   3.005   3.556   2.312  0.6148 -0.0760 -0.3364
 1368SOL    HW3 5518   2.910   3.673   2.296  0.7227 -0.0082 -0.4933
 1368SOL    MW4 5519   2.936   3.592   2.274  0.1805 -0.3731  0.1709
 1369SOL     OW 5520   2.905   3.828   2.379 -0.1753 -0.1889 -0.2449
 1369SOL    HW2 5521   2.916   3.829   2.474  1.1549 -1.8321 -0.3670
 1369SOL    HW3 5522   2.831   3.887   2.363  0.1656  0.8118  1.7188
 1369SOL    MW4 5523   2.897   3.836   2.389  0.0451 -0.2737 -0.0019
 1370SOL     OW 5524   2.710   3.991   2.271  0.6478  0.0514  0.0462
 1370SOL    HW2 5525   2.624   3.956   2.293  0.3223 -0.4499 -1.8697
 1370SOL    HW3 5526   2.713   3.987   2.175  2.1800  1.5480  0.0061
 1370SOL    MW4 5527   2.699   3.986   2.261  0.8073  0.1826 -0.2117
 1371SOL     OW 5528   2.709   4.268   2.384 -0.0598 -0.4200  0.1483
 1371SOL    HW2 5529   2.692   4.254   2.477 -2.7730  1.1165 -0.0789
 1371SOL    HW3 5530   2.684   4.185   2.343  0.5437 -0.8823  0.7022
 1371SOL    MW4 5531   2.703   4.255   2.391 -0.3383 -0.2780  0.1915
 1372SOL     OW 5532   2.927   4.385   2.272 -0.1129 -0.1607 -0.0600
 1372SOL    HW2 5533   3.003   4.338   2.307 -0.8072 -0.4983  1.0344
 1372SOL    HW3 5534   2.852   4.340   2.311 -0.8330  0.9715 -0.1215
 1372SOL    MW4 5535   2.927   4.373   2.282 -0.2995 -0.0553  0.0761
 1373SOL     OW 5536   3.374   4.629   2.355 -0.5470 -0.0173  0.0412
 1373SOL    HW2 5537   3.373   4.620   2.450  0.8958 -1.4791 -0.0541
 1373SOL    HW3 5538   3.461   4.663   2.334 -1.6528  2.5302 -0.6158
 1373SOL    MW4 5539   3.385   4.632   2.365 -0.5028  0.1259 -0.0582
 1374SOL     OW 5540   2.923   4.649   2.395  0.3526  0.1335 -0.4971
 1374SOL    HW2 5541   3.001   4.691   2.358  0.6604 -0.0980 -0.1122
 1374SOL    HW3 5542   2.922   4.561   2.357  0.9701 -0.2945  0.4541
 1374SOL    MW4 5543   2.933   4.643   2.385  0.4747  0.0472 -0.3209
 1375SOL     OW 5544   3.170   0.356   2.398 -0.2698  0.2058 -0.1730
 1375SOL    HW2 5545   3.241   0.407   2.360  0.7366  0.7998  2.4004
 1375SOL    HW3 5546   3.090   0.400   2.370  0.4555  0.9818 -1.0434
 1375SOL    MW4 5547   3.169   0.368   2.390 -0.0410  0.3865  0.0520
 1376SOL     OW 5548   3.356   0.502   2.273  0.1545 -0.5290  0.1137
 1376SOL    HW2 5549   3.440   0.463   2.297  0.9049  1.6184  1.1414
 1376SOL    HW3 5550   3.356   0.501   2.177  0.3362 -2.6139  0.1185
 1376SOL    MW4 5551   3.367   0.497   2.264  0.2775 -0.5208  0.2501
 1377SOL     OW 5552   3.343   0.748   2.408 -0.0908  0.6866 -0.0858
 1377SOL    HW2 5553   3.418   0.795   2.370 -0.3690  1.3038  0.1274
 1377SOL    HW3 5554   3.337   0.668   2.356  2.5293 -0.7701  1.7635
 1377SOL    MW4 5555   3.352   0.744   2.396  0.2182  0.5759  0.1864
 1378SOL     OW 5556   3.143   0.912   2.288 -0.7310  0.0361  0.0121
 1378SOL    HW2 5557   3.211   0.851   2.316  0.9504  2.2235  0.7612
 1378SOL    HW3 5558   3.062   0.874   2.322  0.2638 -1.8714  0.3201
 1378SOL    MW4 5559   3.141   0.899   2.296 -0.3777  0.0730  0.1514
 1379SOL     OW 5560   3.197   1.170   2.409  0.4948 -0.0610 -0.3642
 1379SOL    HW2 5561   3.277   1.209   2.373  0.5943  0.1861  0.1163
 1379SOL    HW3 5562   3.192   1.084   2.369  1.0209 -0.0894 -0.3771
 1379SOL    MW4 5563   3.207   1.164   2.399  0.5774 -0.0322 -0.3026
 1380SOL     OW 5564   3.405   1.268   2.252  0.1110  0.0760  0.3267
 1380SOL    HW2 5565   3.488   1.227   2.275  0.7324  0.4338 -1.2269
 1380SOL    HW3 5566   3.419   1.361   2.269  0.5416  0.3328 -1.3062
 1380SOL    MW4 5567   3.417   1.275   2.257  0.2499  0.1571 -0.0939
 1381SOL     OW 5568   3.423   1.513   2.335  0.3647  0.0074  0.2917
 1381SOL    HW2 5569   3.416   1.509   2.430 -0.7986 -1.3957  0.1767
 1381SOL    HW3 5570   3.339   1.550   2.306 -1.1077 -3.6052 -0.3764
 1381SOL    MW4 5571   3.411   1.517   2.343  0.0169 -0.6545  0.1884
 1382SOL     OW 5572   3.125   1.630   2.263 -0.8250 -0.0379  0.1565
 1382SOL    HW2 5573   3.125   1.721   2.294 -2.0898  0.7565 -2.0651
 1382SOL    HW3 5574   3.047   1.591   2.301 -1.0307  0.2228  0.0063
 1382SOL    MW4 5575   3.115   1.637   2.272 -1.0190  0.1014 -0.1566
 1383SOL     OW 5576   3.120   1.901   2.356 -0.5653  0.1635 -0.0098
 1383SOL    HW2 5577   3.126   1.896   2.451  0.1125 -0.1507 -0.0612
 1383SOL    HW3 5578   3.191   1.960   2.330  0.3439 -1.0745 -0.4324
 1383SOL    MW4 5579   3.131   1.908   2.365 -0.3557 -0.0412 -0.0725
 1384SOL     OW 5580   3.338   2.052   2.286  0.2730  0.0395 -0.1593
 1384SOL    HW2 5581   3.412   2.004   2.322  1.4081  1.4397 -0.5589
 1384SOL    HW3 5582   3.348   2.044   2.191 -0.4255 -0.2531 -0.2151
 1384SOL    MW4 5583   3.349   2.045   2.278  0.3307  0.1855 -0.2193
 1385SOL     OW 5584   3.343   2.330   2.366 -0.0547 -0.0615 -0.8129
 1385SOL    HW2 5585   3.262   2.367   2.333 -0.6917 -1.1261 -0.4509
 1385SOL    HW3 5586   3.346   2.242   2.330  0.8265 -0.1109 -0.6405
 1385SOL    MW4 5587   3.333   2.323   2.357 -0.0224 -0.2084 -0.7427
 1386SOL     OW 5588   3.112   2.434   2.237 -0.0012 -0.1375 -0.0678
 1386SOL    HW2 5589   3.117   2.522   2.275  0.4587 -0.2911  0.2356
 1386SOL    HW3 5590   3.045   2.389   2.289  1.3966 -0.7001  1.3207
 1386SOL    MW4 5591   3.104   2.440   2.249  0.2439 -0.2320  0.1557
 1387SOL     OW 5592   3.146   2.674   2.361  0.0664  0.3821 -0.0617
 1387SOL    HW2 5593   3.154   2.689   2.456  0.0087 -0.4671  0.0813
 1387SOL    HW3 5594   3.062   2.711   2.338 -1.1393 -1.7519  0.7135
 1387SOL    MW4 5595   3.136   2.681   2.371 -0.1001 -0.0112  0.0596
 1388SOL     OW 5596   3.359   2.809   2.240  0.1802 -0.2955 -0.3512
 1388SOL    HW2 5597   3.368   2.899   2.273  2.8832 -0.1613 -1.3706
 1388SOL    HW3 5598   3.286   2.773   2.291 -0.0454  2.0207  1.0676
 1388SOL    MW4 5599   3.351   2.816   2.251  0.5069  0.0277 -0.2985
 1389SOL     OW 5600   3.371   3.060   2.375 -0.2038  0.3936  0.4706
 1389SOL    HW2 5601   3.445   3.119   2.360  0.4015  0.1862  2.5643
 1389SOL    HW3 5602   3.295   3.108   2.343  0.8034  0.6245 -1.6925
 1389SOL    MW4 5603   3.371   3.074   2.369  0.0088  0.3967  0.4616
 1390SOL     OW 5604   3.142   3.214   2.321 -0.7424 -0.4283  0.4658
 1390SOL    HW2 5605   3.137   3.303   2.356  3.2082 -0.7404  2.1237
 1390SOL    HW3 5606   3.140   3.226   2.226 -0.4042  1.4279  0.6765
 1390SOL    MW4 5607   3.141   3.227   2.313 -0.1764 -0.2246  0.7126
 1391SOL     OW 5608   3.146   3.482   2.395 -0.2441  0.1095 -0.7137
 1391SOL    HW2 5609   3.165   3.474   2.489 -2.1058  0.8830 -0.2402
 1391SOL    HW3 5610   3.216   3.538   2.361  0.1350  0.2808  0.3230
 1391SOL    MW4 5611   3.158   3.488   2.403 -0.4399  0.2339 -0.5143
 1392SOL     OW 5612   3.375   3.635   2.293  0.5672 -0.0757  0.1714
 1392SOL    HW2 5613   3.439   3.571   2.323 -0.3538 -0.9242  0.3736
 1392SOL    HW3 5614   3.372   3.624   2.198  1.6926  0.8915  0.0286
 1392SOL    MW4 5615   3.383   3.625   2.285  0.5939 -0.0598  0.1793
 1393SOL     OW 5616   3.412   3.883   2.413 -0.2174 -0.0072 -0.0577
 1393SOL    HW2 5617   3.495   3.919   2.382  0.4695 -0.3383  1.3754
 1393SOL    HW3 5618   3.409   3.795   2.376 -0.2592  0.2526 -0.6790
 1393SOL    MW4 5619   3.422   3.876   2.404 -0.1323 -0.0167  0.0494
 1394SOL     OW 5620   3.144   3.969   2.274 -0.4863 -0.1997 -0.4530
 1394SOL    HW2 5621   3.226   3.941   2.313 -0.8179  1.4124  1.4784
 1394SOL    HW3 5622   3.078   3.911   2.312 -0.4729 -0.4437 -0.7893
 1394SOL    MW4 5623   3.146   3.958   2.284 -0.5281 -0.0193 -0.2427
 1395SOL     OW 5624   3.141   4.223   2.365  0.3434 -0.3052  0.0301
 1395SOL    HW2 5625   3.211   4.255   2.308  1.1639 -0.8101  0.7456
 1395SOL    HW3 5626   3.124   4.133   2.335 -0.6690  0.1342 -0.7605
 1395SOL    MW4 5627   3.148   4.215   2.353  0.3181 -0.3138  0.0203
 1396SOL     OW 5628   3.370   4.359   2.255  0.2644  0.2643 -0.4184
 1396SOL    HW2 5629   3.365   4.450   2.285  0.0611  0.4693 -1.0439
 1396SOL    HW3 5630   3.448   4.324   2.297  0.2641  0.6899 -0.0589
 1396SOL    MW4 5631   3.380   4.367   2.264  0.2377  0.3476 -0.4535
 1397SOL     OW 5632   3.813   4.622   2.346  0.2802  0.1842 -0.3803
 1397SOL    HW2 5633   3.799   4.633   2.440  0.1149  0.1588 -0.4021
 1397SOL    HW3 5634   3.898   4.664   2.329  0.3669  0.0841 -0.1994
 1397SOL    MW4 5635   3.823   4.629   2.356  0.2699  0.1674 -0.3593
 1398SOL     OW 5636   3.608   0.117   2.275 -0.3151 -0.1920 -0.3646
 1398SOL    HW2 5637   3.611   0.196   2.330 -0.5019 -0.6596  0.3245
 1398SOL    HW3 5638   3.689   0.070   2.298  1.3278  1.2456 -2.9709
 1398SOL    MW4 5639   3.619   0.121   2.286 -0.1230 -0.0641 -0.6173
 1399SOL     OW 5640   3.584   0.383   2.391  0.4407 -0.2859 -0.0762
 1399SOL    HW2 5641   3.584   0.399   2.485  1.8687 -1.6782  0.1778
 1399SOL    HW3 5642   3.667   0.422   2.360  0.5913 -0.9808 -0.5545
 1399SOL    MW4 5643   3.595   0.390   2.399  0.6490 -0.5612 -0.1059
 1400SOL     OW 5644   3.827   0.495   2.317 -0.0812  0.0788  0.4156
 1400SOL    HW2 5645   3.843   0.582   2.354  0.1926  0.0253  0.4177
 1400SOL    HW3 5646   3.814   0.510   2.224 -1.8444  0.3558  0.6775
 1400SOL    MW4 5647   3.827   0.508   2.310 -0.2775  0.1082  0.4506
 1401SOL     OW 5648   3.786   0.748   2.433 -0.2006 -0.3232  0.5737
 1401SOL    HW2 5649   3.796   0.768   2.526 -1.0124 -1.1942  0.8565
 1401SOL    HW3 5650   3.853   0.801   2.390  0.6788 -0.4737  1.7211
 1401SOL    MW4 5651   3.796   0.758   2.439 -0.1917 -0.4580  0.7622
 1402SOL     OW 5652   3.567   0.872   2.302  0.1021 -0.3808 -0.0139
 1402SOL    HW2 5653   3.642   0.834   2.349 -0.3591 -1.3371 -0.0388
 1402SOL    HW3 5654   3.586   0.854   2.209 -0.3325 -0.9415  0.0055
 1402SOL    MW4 5655   3.580   0.864   2.296 -0.0162 -0.5809 -0.0145
 1403SOL     OW 5656   3.612   1.127   2.366 -0.4818  0.1857 -0.2575
 1403SOL    HW2 5657   3.609   1.121   2.462  0.4024  1.9174 -0.0990
 1403SOL    HW3 5658   3.589   1.040   2.336 -1.0773 -0.3005  1.5402
 1403SOL    MW4 5659   3.609   1.115   2.375 -0.4435  0.3501  0.0007
 1404SOL     OW 5660   3.838   1.277   2.255  0.0157 -0.7367  0.0948
 1404SOL    HW2 5661   3.822   1.369   2.279  2.2521 -0.5229  0.8354
 1404SOL    HW3 5662   3.764   1.230   2.293 -1.1606  0.7537 -0.2951
 1404SOL    MW4 5663   3.826   1.283   2.264  0.1554 -0.5118  0.1411
 1405SOL     OW 5664   3.833   1.546   2.375  0.2554  0.1456  0.3408
 1405SOL    HW2 5665   3.825   1.536   2.469 -0.8506  0.1577  0.2491
 1405SOL    HW3 5666   3.764   1.607   2.350  0.5248  0.1326 -0.4752
 1405SOL    MW4 5667   3.823   1.553   2.384  0.1450  0.1453  0.2210
 1406SOL     OW 5668   3.619   1.690   2.249  0.1661 -0.3222  0.0997
 1406SOL    HW2 5669   3.559   1.619   2.272  1.1757 -1.5710 -1.0565
 1406SOL    HW3 5670   3.614   1.695   2.153 -0.9216  2.0951  0.2427
 1406SOL    MW4 5671   3.610   1.681   2.239  0.1557 -0.1681 -0.0341
 1407SOL     OW 5672   3.546   1.907   2.384 -0.2842 -0.3262  0.3111
 1407SOL    HW2 5673   3.612   1.963   2.344  0.7487 -0.3304  1.9678
 1407SOL    HW3 5674   3.550   1.826   2.334 -1.9203  1.0808 -2.2315
 1407SOL    MW4 5675   3.555   1.904   2.372 -0.3636 -0.1410  0.1941
 1408SOL     OW 5676   3.791   2.037   2.264 -0.6250 -0.2647 -0.4791
 1408SOL    HW2 5677   3.873   2.003   2.299 -0.2595  0.2606 -0.8131
 1408SOL    HW3 5678   3.796   2.022   2.170 -0.8619 -0.1275 -0.5154
 1408SOL    MW4 5679   3.802   2.031   2.256 -0.6080 -0.1774 -0.5281
 1409SOL     OW 5680   3.850   2.290   2.339  0.6203 -0.0697 -0.0988
 1409SOL    HW2 5681   3.796   2.339   2.278 -0.1893 -0.0511  0.6230
 1409SOL    HW3 5682   3.827   2.198   2.324 -1.5674  0.0792  1.9979
 1409SOL    MW4 5683   3.840   2.284   2.329  0.2251 -0.0477  0.2732
 1410SOL     OW 5684   3.598   2.400   2.240  0.2003 -0.7224 -0.0984
 1410SOL    HW2 5685   3.516   2.372   2.280 -0.3965  0.5699 -0.3940
 1410SOL    HW3 5686   3.573   2.432   2.153  0.7774  1.1768  0.4051
 1410SOL    MW4 5687   3.584   2.401   2.233  0.1976 -0.3011 -0.0710
 1411SOL     OW 5688   3.598   2.663   2.327 -0.0876 -0.2308  0.2575
 1411SOL    HW2 5689   3.602   2.572   2.297  0.9641 -0.4648  1.0826
 1411SOL    HW3 5690   3.514   2.695   2.294 -0.5175 -1.5310  0.0539
 1411SOL    MW4 5691   3.587   2.655   2.319 -0.0055 -0.4332  0.3395
 1412SOL     OW 5692   3.824   2.793   2.271  0.1329  0.1656  0.2022
 1412SOL    HW2 5693   3.804   2.883   2.297 -0.0571  0.3066 -0.4169
 1412SOL    HW3 5694   3.744   2.744   2.289 -0.0333  0.2839 -0.2123
 1412SOL    MW4 5695   3.811   2.798   2.277  0.0858  0.1998  0.0660
 1413SOL     OW 5696   3.827   3.061   2.347  0.1207 -0.1227 -0.4154
 1413SOL    HW2 5697   3.819   3.069   2.442  1.4983 -2.1275 -0.1124
 1413SOL    HW3 5698   3.908   3.109   2.326  0.6822 -1.0470 -0.3722
 1413SOL    MW4 5699   3.837   3.069   2.357  0.3765 -0.5090 -0.3698
 1414SOL     OW 5700   3.601   3.210   2.280 -0.9315  0.1143 -0.2173
 1414SOL    HW2 5701   3.619   3.303   2.297 -2.0436  0.2599  0.2437
 1414SOL    HW3 5702   3.679   3.165   2.312 -0.6199  0.8461  0.0853
 1414SOL    MW4 5703   3.614   3.217   2.287 -1.0369  0.2298 -0.1166
 1415SOL     OW 5704   3.594   3.461   2.370  0.0503  0.0545  0.1338
 1415SOL    HW2 5705   3.589   3.453   2.465  1.2504  1.7145  0.3604
 1415SOL    HW3 5706   3.678   3.505   2.354 -0.1363 -0.2074 -1.6866
 1415SOL    MW4 5707   3.604   3.466   2.381  0.1841  0.2389 -0.0763
 1416SOL     OW 5708   3.815   3.611   2.304  0.0567  0.4012  0.2886
 1416SOL    HW2 5709   3.819   3.696   2.348 -2.1505  0.4859  0.3747
 1416SOL    HW3 5710   3.823   3.631   2.211  1.1498  0.5390  0.4024
 1416SOL    MW4 5711   3.816   3.625   2.298 -0.0901  0.4306  0.3147
 1417SOL     OW 5712   4.074   4.024   2.307  0.3018 -0.1764  0.3573
 1417SOL    HW2 5713   4.148   3.967   2.330 -0.3881 -1.2536 -0.0171
 1417SOL    HW3 5714   4.073   4.023   2.211 -0.8557 -1.0693  0.3641
 1417SOL    MW4 5715   4.084   4.016   2.297  0.0577 -0.4358  0.3088
 1418SOL     OW 5716   3.627   4.005   2.275 -0.1786 -0.6345 -0.4758
 1418SOL    HW2 5717   3.618   4.097   2.303 -0.8925 -0.6326 -0.7143
 1418SOL    HW3 5718   3.706   3.975   2.320  0.2477  0.1936 -0.6508
 1418SOL    MW4 5719   3.636   4.013   2.285 -0.2165 -0.5250 -0.5302
 1419SOL     OW 5720   3.614   4.260   2.356 -0.5601  0.0500 -0.0372
 1419SOL    HW2 5721   3.703   4.289   2.336 -0.1239 -0.8535  0.5994
 1419SOL    HW3 5722   3.609   4.260   2.451 -0.8128 -1.2015 -0.0458
 1419SOL    MW4 5723   3.625   4.264   2.366 -0.5360 -0.2346  0.0458
 1420SOL     OW 5724   3.830   4.372   2.241 -0.7125  0.0419 -0.4870
 1420SOL    HW2 5725   3.817   4.466   2.253  0.0675  0.0345  0.5225
 1420SOL    HW3 5726   3.910   4.353   2.290 -1.0539 -1.2109 -0.4005
 1420SOL    MW4 5727   3.839   4.382   2.249 -0.6547 -0.1249 -0.3424
 1421SOL     OW 5728   4.278   4.630   2.380  0.6547  0.0425  0.2936
 1421SOL    HW2 5729   4.279   4.618   2.475 -0.1482 -0.3148  0.2576
 1421SOL    HW3 5730   4.352   4.689   2.363  0.6741  0.2812  1.1602
 1421SOL    MW4 5731   4.288   4.636   2.390  0.5522  0.0268  0.4029
 1422SOL     OW 5732   4.057   0.060   2.251  0.6051  0.4066  0.0175
 1422SOL    HW2 5733   4.049   0.152   2.275  0.2330  0.5970 -0.8043
 1422SOL    HW3 5734   4.123   0.025   2.310  0.1756  1.0087  0.8597
 1422SOL    MW4 5735   4.065   0.068   2.262  0.4992  0.5111  0.0200
 1423SOL     OW 5736   4.029   0.318   2.369 -0.5953 -0.4153  0.0462
 1423SOL    HW2 5737   4.112   0.364   2.352 -0.2718 -0.9496  0.1732
 1423SOL    HW3 5738   3.962   0.383   2.350 -0.1256  0.3260  0.8694
 1423SOL    MW4 5739   4.031   0.333   2.364 -0.4902 -0.3880  0.1714
 1424SOL     OW 5740   4.268   0.476   2.318  0.1731  0.0525  0.3385
 1424SOL    HW2 5741   4.271   0.567   2.345 -0.8919  0.3040 -0.3618
 1424SOL    HW3 5742   4.349   0.438   2.353  0.3358  1.1088  1.1437
 1424SOL    MW4 5743   4.279   0.483   2.326  0.0544  0.2250  0.3521
 1425SOL     OW 5744   4.249   0.720   2.419  0.2363  0.4262  0.3942
 1425SOL    HW2 5745   4.174   0.758   2.375  2.1889  1.3649 -2.2589
 1425SOL    HW3 5746   4.321   0.780   2.400  1.4903  0.0884  3.6897
 1425SOL    MW4 5747   4.249   0.733   2.411  0.6595  0.5055  0.4787
 1426SOL     OW 5748   4.019   0.863   2.277  0.2024  0.3885 -0.1810
 1426SOL    HW2 5749   4.033   0.955   2.300 -1.0809  0.7983 -1.0203
 1426SOL    HW3 5750   4.026   0.861   2.182 -2.3769  0.0895 -0.3858
 1426SOL    MW4 5751   4.022   0.875   2.267 -0.3076  0.4031 -0.3185
 1427SOL     OW 5752   4.039   1.123   2.361  0.2648  0.0023 -0.5033
 1427SOL    HW2 5753   4.033   1.130   2.456  1.1668 -2.0187 -0.2730
 1427SOL    HW3 5754   3.968   1.178   2.328 -0.8552 -0.2973  1.3520
 1427SOL    MW4 5755   4.029   1.132   2.369  0.2356 -0.3040 -0.2279
 1428SOL     OW 5756   4.254   1.310   2.305  0.2218 -0.0613  0.4204
 1428SOL    HW2 5757   4.184   1.244   2.312 -0.1714  0.0402 -1.8801
 1428SOL    HW3 5758   4.332   1.266   2.337  0.0287 -1.8004 -1.3990
 1428SOL    MW4 5759   4.255   1.296   2.310  0.1445 -0.2773 -0.1230
 1429SOL     OW 5760   4.277   1.576   2.378 -0.0996  0.0313  0.0327
 1429SOL    HW2 5761   4.283   1.482   2.359 -0.0499  0.1702 -0.6564
 1429SOL    HW3 5762   4.354   1.614   2.335  0.3065  0.2923  0.9561
 1429SOL    MW4 5763   4.288   1.569   2.370 -0.0391  0.0842  0.0639
 1430SOL     OW 5764   4.059   1.678   2.250  0.0118 -0.5065  0.1276
 1430SOL    HW2 5765   4.138   1.636   2.283  0.2147  1.6058  2.4964
 1430SOL    HW3 5766   3.987   1.634   2.296  0.0500 -0.1478  0.5379
 1430SOL    MW4 5767   4.060   1.667   2.261  0.0439 -0.1804  0.4942
 1431SOL     OW 5768   4.055   1.959   2.363  0.1745 -0.3937  0.0836
 1431SOL    HW2 5769   4.044   1.953   2.457 -1.6654  0.3924 -0.0468
 1431SOL    HW3 5770   4.074   1.870   2.334 -0.8363 -0.9167  1.0129
 1431SOL    MW4 5771   4.056   1.947   2.371 -0.2017 -0.3589  0.1888
 1432SOL     OW 5772   4.312   2.060   2.258  0.1030 -0.0827  0.5485
 1432SOL    HW2 5773   4.314   2.153   2.280 -0.6866  0.5036 -1.7218
 1432SOL    HW3 5774   4.225   2.031   2.286  0.2004 -0.0492  0.8878
 1432SOL    MW4 5775   4.300   2.069   2.265  0.0110 -0.0012  0.2937
 1433SOL     OW 5776   4.319   2.303   2.395 -0.3073  0.2218 -0.0689
 1433SOL    HW2 5777   4.236   2.333   2.359 -0.1477  1.4157  0.5365
 1433SOL    HW3 5778   4.383   2.365   2.360 -0.0031  0.7614  1.4205
 1433SOL    MW4 5779   4.317   2.315   2.385 -0.2465  0.4506  0.2074
 1434SOL     OW 5780   4.100   2.393   2.289 -0.1242 -0.6838  0.0661
 1434SOL    HW2 5781   4.101   2.486   2.311  0.2001 -0.5706 -0.4224
 1434SOL    HW3 5782   4.016   2.362   2.322  0.0413 -0.3611  0.8048
 1434SOL    MW4 5783   4.089   2.401   2.296 -0.0591 -0.6261  0.0992
 1435SOL     OW 5784   4.061   2.666   2.324  0.4110  0.7262 -0.5022
 1435SOL    HW2 5785   4.078   2.713   2.406 -1.1351  1.3013 -0.5013
 1435SOL    HW3 5786   3.974   2.695   2.297  0.2701 -0.6187 -1.5572
 1435SOL    MW4 5787   4.052   2.676   2.332  0.1884  0.6247 -0.6413
 1436SOL     OW 5788   4.294   2.867   2.250 -0.2248  0.0913  0.1096
 1436SOL    HW2 5789   4.227   2.803   2.276  0.2368 -0.0783  0.8917
 1436SOL    HW3 5790   4.376   2.818   2.253  0.3836  1.2023  2.5512
 1436SOL    MW4 5791   4.296   2.852   2.254 -0.0834  0.2158  0.5348
 1437SOL     OW 5792   4.300   3.110   2.380 -0.4584  0.2144  0.2258
 1437SOL    HW2 5793   4.310   3.019   2.351 -1.5713  0.1805 -0.0731
 1437SOL    HW3 5794   4.383   3.152   2.357  0.1893 -0.8080  0.6787
 1437SOL    MW4 5795   4.313   3.104   2.373 -0.5198  0.0749  0.2460
 1438SOL     OW 5796   4.058   3.214   2.309 -0.5607  0.6196 -0.3139
 1438SOL    HW2 5797   4.067   3.301   2.348 -1.2898  0.4051  0.3235
 1438SOL    HW3 5798   4.141   3.170   2.330 -0.8919  0.5540  0.8581
 1438SOL    MW4 5799   4.070   3.220   2.317 -0.7005  0.5827 -0.0753
 1439SOL     OW 5800   4.268   3.627   2.250 -0.1335 -0.2112 -0.7861
 1439SOL    HW2 5801   4.280   3.710   2.296  0.2637 -0.1996 -0.9066
 1439SOL    HW3 5802   4.278   3.649   2.158 -1.1389 -0.1982 -0.8966
 1439SOL    MW4 5803   4.271   3.641   2.244 -0.2136 -0.2079 -0.8163
 1440SOL     OW 5804   4.283   3.873   2.361 -0.1442 -0.0603  0.1607
 1440SOL    HW2 5805   4.281   3.912   2.449  1.7488 -0.5933  0.4605
 1440SOL    HW3 5806   4.349   3.923   2.314 -0.2395 -0.6147 -0.5711
 1440SOL    MW4 5807   4.291   3.885   2.367  0.0935 -0.2038  0.1037
 1441SOL     OW 5808   4.490   4.013   2.257 -0.4175 -0.0268 -0.2909
 1441SOL    HW2 5809   4.485   4.090   2.313  1.9915  0.5718 -0.8095
 1441SOL    HW3 5810   4.499   4.049   2.168 -1.0869 -0.9189 -0.7188
 1441SOL    MW4 5811   4.491   4.028   2.253 -0.1880 -0.0658 -0.4158
 1442SOL     OW 5812   3.843   3.874   2.383 -0.0358  0.1901  0.2307
 1442SOL    HW2 5813   3.847   3.861   2.477  0.7437 -2.0377 -0.0726
 1442SOL    HW3 5814   3.922   3.923   2.362 -0.1980  0.6626  0.7382
 1442SOL    MW4 5815   3.854   3.878   2.392  0.0455 -0.0415  0.2575
 1443SOL     OW 5816   4.056   4.292   2.370  0.4074  0.3329  0.3990
 1443SOL    HW2 5817   4.058   4.198   2.351  1.0278  0.2500  0.8822
 1443SOL    HW3 5818   4.126   4.328   2.316 -0.8300  0.7462 -0.9798
 1443SOL    MW4 5819   4.065   4.284   2.360  0.3257  0.3762  0.2806
 1444SOL     OW 5820   4.284   4.375   2.237 -0.5215 -0.3175 -0.6944
 1444SOL    HW2 5821   4.290   4.463   2.275 -0.9110 -1.0627  1.1731
 1444SOL    HW3 5822   4.349   4.324   2.286 -1.0767 -1.3276 -1.0059
 1444SOL    MW4 5823   4.293   4.380   2.249 -0.6466 -0.5488 -0.4888
 1445SOL     OW 5824   0.237   0.001   2.662 -0.0488  0.0628 -0.2951
 1445SOL    HW2 5825   0.226  -0.083   2.706 -0.5924 -0.3985 -1.3001
 1445SOL    HW3 5826   0.161   0.053   2.690 -0.0859 -0.0263 -0.2311
 1445SOL    MW4 5827   0.226  -0.003   2.672 -0.1254 -0.0099 -0.4194
 1446SOL     OW 5828   0.016   0.139   2.764 -0.2371  0.1164 -0.2199
 1446SOL    HW2 5829   0.019   0.128   2.859  1.3223 -0.3580 -0.3202
 1446SOL    HW3 5830   0.014   0.234   2.751  3.7507  0.3469  0.2177
 1446SOL    MW4 5831   0.016   0.150   2.774  0.4945  0.0842 -0.1755
 1447SOL     OW 5832   4.488   0.403   2.704 -0.2355  0.0530 -0.1735
 1447SOL    HW2 5833   4.577   0.438   2.708  0.1769 -1.0578  0.8720
 1447SOL    HW3 5834   4.467   0.400   2.611  1.1374 -0.4199 -0.4834
 1447SOL    MW4 5835   4.497   0.407   2.692  0.0005 -0.1559 -0.0761
 1448SOL     OW 5836   0.250   0.519   2.766  0.2779  0.0086  0.2117
 1448SOL    HW2 5837   0.256   0.510   2.861  0.3602 -2.7099 -0.0011
 1448SOL    HW3 5838   0.322   0.466   2.732 -0.1395  0.4344 -1.3878
 1448SOL    MW4 5839   0.260   0.511   2.774  0.2337 -0.2939 -0.0274
 1449SOL     OW 5840   0.247   0.798   2.691  0.7632 -0.2363  0.1840
 1449SOL    HW2 5841   0.326   0.847   2.713  0.4869 -0.1314  0.9765
 1449SOL    HW3 5842   0.269   0.707   2.712  2.0314 -0.8067 -3.3531
 1449SOL    MW4 5843   0.260   0.792   2.697  0.8941 -0.2977 -0.1781
 1450SOL     OW 5844   0.010   0.910   2.802  0.5301  0.0286  0.1148
 1450SOL    HW2 5845  -0.053   0.848   2.766 -0.3070 -0.5640  2.5573
 1450SOL    HW3 5846   0.096   0.871   2.783  0.0342 -1.4415  0.8624
 1450SOL    MW4 5847   0.013   0.897   2.795  0.3548 -0.2435  0.5357
 1451SOL     OW 5848   0.017   1.151   2.661 -0.1020 -0.2886 -0.0947
 1451SOL    HW2 5849   0.091   1.184   2.711 -1.1674  1.4467  0.3770
 1451SOL    HW3 5850   0.001   1.064   2.697  0.8861 -0.1466  0.7025
 1451SOL    MW4 5851   0.025   1.144   2.673 -0.1122 -0.0409  0.0727
 1452SOL     OW 5852   0.206   1.277   2.799 -0.2803  0.1173  0.0878
 1452SOL    HW2 5853   0.279   1.229   2.759  1.6401  1.1973  2.1672
 1452SOL    HW3 5854   0.192   1.352   2.741 -0.0554 -0.3468 -0.5731
 1452SOL    MW4 5855   0.214   1.280   2.786  0.0027  0.1985  0.2747
 1453SOL     OW 5856   0.214   1.525   2.673 -0.4599 -0.2028  0.6164
 1453SOL    HW2 5857   0.290   1.569   2.711  0.1161  0.1939 -0.9527
 1453SOL    HW3 5858   0.138   1.574   2.705  0.0293  0.2249  1.1095
 1453SOL    MW4 5859   0.214   1.537   2.682 -0.3194 -0.0942  0.4742
 1454SOL     OW 5860   4.485   1.679   2.758  0.3411 -0.2791  0.0272
 1454SOL    HW2 5861   4.495   1.691   2.853  0.1806  1.0443 -0.1074
 1454SOL    HW3 5862   4.469   1.767   2.725 -1.3433 -0.9533 -1.0230
 1454SOL    MW4 5863   4.484   1.692   2.766  0.0973 -0.1934 -0.1290
 1455SOL     OW 5864   4.454   1.968   2.670  0.1839 -0.1148  0.0057
 1455SOL    HW2 5865   4.525   2.018   2.711  1.1017 -1.7037  0.3991
 1455SOL    HW3 5866   4.488   1.944   2.584 -0.3280  0.1038 -0.2585
 1455SOL    MW4 5867   4.468   1.972   2.664  0.2375 -0.2956  0.0229
 1456SOL     OW 5868   0.194   2.098   2.793 -0.3896  0.4028 -0.0908
 1456SOL    HW2 5869   0.262   2.045   2.751  0.7516  0.7968  1.2155
 1456SOL    HW3 5870   0.192   2.179   2.743 -1.2988 -0.3775 -1.3550
 1456SOL    MW4 5871   0.203   2.101   2.781 -0.3590  0.3517 -0.0856
 1457SOL     OW 5872   0.226   2.356   2.664  0.3770  0.0052  0.2009
 1457SOL    HW2 5873   0.295   2.400   2.714 -1.7083  1.0997  2.2161
 1457SOL    HW3 5874   0.144   2.397   2.695 -1.1493 -0.8299 -2.5374
 1457SOL    MW4 5875   0.224   2.367   2.675 -0.0995  0.0393  0.1056
 1458SOL     OW 5876   4.485   2.454   2.773 -0.0263  0.0147 -0.2573
 1458SOL    HW2 5877   4.486   2.458   2.869 -0.6309 -0.0572 -0.2514
 1458SOL    HW3 5878   4.400   2.417   2.751  0.7669 -1.5804 -0.7576
 1458SOL    MW4 5879   4.474   2.450   2.783 -0.0014 -0.2055 -0.3228
 1459SOL     OW 5880   0.020   2.703   2.636 -0.4120 -0.0430 -0.4935
 1459SOL    HW2 5881  -0.058   2.746   2.668 -0.1876  0.7640 -1.0068
 1459SOL    HW3 5882   0.012   2.612   2.665 -0.1978  0.6473  1.8450
 1459SOL    MW4 5883   0.009   2.696   2.644 -0.3542  0.1543 -0.2530
 1460SOL     OW 5884   0.229   2.843   2.749  0.0907  0.4853 -0.1702
 1460SOL    HW2 5885   0.234   2.929   2.707  0.4135  0.0906 -0.9612
 1460SOL    HW3 5886   0.162   2.796   2.699  0.4341  0.0304 -0.2089
 1460SOL    MW4 5887   0.221   2.848   2.737  0.1786  0.3734 -0.2797
 1461SOL     OW 5888   0.270   3.082   2.640 -0.4981 -0.1566 -0.3463
 1461SOL    HW2 5889   0.342   3.132   2.678 -0.4749 -0.2930 -0.2084
 1461SOL    HW3 5890   0.283   3.089   2.545 -0.0387 -0.5560 -0.3165
 1461SOL    MW4 5891   0.281   3.089   2.633 -0.4344 -0.2275 -0.3242
 1462SOL     OW 5892   0.023   3.219   2.732 -0.0399  0.2786  0.0689
 1462SOL    HW2 5893  -0.050   3.164   2.703  0.0106 -1.2627  2.6702
 1462SOL    HW3 5894   0.101   3.172   2.702 -0.0327 -0.4033  1.1231
 1462SOL    MW4 5895   0.024   3.205   2.724 -0.0323 -0.0145  0.5507
 1463SOL     OW 5896   4.459   3.478   2.639  0.0709 -0.1794 -0.0529
 1463SOL    HW2 5897   4.536   3.517   2.681 -0.1582  0.1534  0.0577
 1463SOL    HW3 5898   4.464   3.385   2.661  0.2236 -0.0893  0.2942
 1463SOL    MW4 5899   4.470   3.471   2.648  0.0610 -0.1237  0.0076
 1464SOL     OW 5900   0.171   3.621   2.766 -0.2070  0.5225 -0.3868
 1464SOL    HW2 5901   0.196   3.670   2.844  1.1198  0.8145 -0.9811
 1464SOL    HW3 5902   0.253   3.589   2.730 -1.0923 -2.8181  0.4027
 1464SOL    MW4 5903   0.185   3.623   2.772 -0.1488  0.1202 -0.3612
 1465SOL     OW 5904   0.206   3.880   2.654  0.0097  1.0398  0.0200
 1465SOL    HW2 5905   0.175   3.791   2.670  2.2189  0.2380  0.0460
 1465SOL    HW3 5906   0.216   3.885   2.559  1.6203  0.6427  0.1612
 1465SOL    MW4 5907   0.203   3.869   2.643  0.5136  0.8817  0.0420
 1466SOL     OW 5908   4.476   4.017   2.778 -0.3956  0.4080  0.1297
 1466SOL    HW2 5909   4.492   4.107   2.750  1.6766  0.8032  2.4693
 1466SOL    HW3 5910   4.552   3.968   2.747 -1.0698 -0.3747 -0.3127
 1466SOL    MW4 5911   4.488   4.023   2.770 -0.2112  0.3572  0.3798
 1467SOL     OW 5912   0.001   4.279   2.677  0.0604 -0.2754  0.3349
 1467SOL    HW2 5913  -0.072   4.329   2.714  0.3180  0.3861 -0.0484
 1467SOL    HW3 5914   0.079   4.332   2.696  0.4655 -1.0599  0.8915
 1467SOL    MW4 5915   0.002   4.292   2.684  0.1478 -0.2918  0.3576
 1468SOL     OW 5916   0.224   4.406   2.730  0.1750  0.1401 -0.0699
 1468SOL    HW2 5917   0.214   4.390   2.824  0.5858  2.0146  0.2981
 1468SOL    HW3 5918   0.304   4.359   2.706 -0.6642 -1.4745  0.2301
 1468SOL    MW4 5919   0.233   4.398   2.739  0.1185  0.1740  0.0184
 1469SOL     OW 5920   0.700   4.641   2.644  0.0964  0.0512 -0.1850
 1469SOL    HW2 5921   0.779   4.690   2.665  1.5379 -2.1994 -0.2677
 1469SOL    HW3 5922   0.632   4.680   2.700  1.4879  1.2510  0.7030
 1469SOL    MW4 5923   0.701   4.652   2.654  0.4702 -0.0873 -0.0784
 1470SOL     OW 5924   0.468   0.126   2.741  0.1521 -0.3695  0.2925
 1470SOL    HW2 5925   0.467   0.140   2.836 -0.4191  2.9423 -0.1422
 1470SOL    HW3 5926   0.380   0.093   2.721 -0.3026  0.5392  0.7305
 1470SOL    MW4 5927   0.456   0.123   2.751  0.0167  0.1873  0.2928
 1471SOL     OW 5928   0.464   0.378   2.656  0.5892  0.6139 -0.1744
 1471SOL    HW2 5929   0.534   0.428   2.698  0.1618  0.1777  1.0791
 1471SOL    HW3 5930   0.483   0.287   2.677  0.3900  0.3856 -0.9687
 1471SOL    MW4 5931   0.476   0.373   2.664  0.5065  0.5262 -0.1140
 1472SOL     OW 5932   0.657   0.532   2.766  0.0711 -0.3356  0.1371
 1472SOL    HW2 5933   0.659   0.545   2.861  2.1047  1.2436 -0.0809
 1472SOL    HW3 5934   0.742   0.494   2.745  0.1647  0.5777 -1.2174
 1472SOL    MW4 5935   0.669   0.529   2.776  0.3518 -0.0067 -0.0703
 1473SOL     OW 5936   0.642   0.771   2.638  0.3948  0.3885  0.1487
 1473SOL    HW2 5937   0.726   0.807   2.667  0.0718  1.0193  0.3110
 1473SOL    HW3 5938   0.637   0.686   2.681  0.8235  0.4648  0.3591
 1473SOL    MW4 5939   0.653   0.764   2.647  0.4087  0.4817  0.1979
 1474SOL     OW 5940   0.473   0.938   2.788 -0.0177  0.4014 -0.1953
 1474SOL    HW2 5941   0.457   1.022   2.745 -0.2258  0.2447 -0.4283
 1474SOL    HW3 5942   0.529   0.890   2.727  0.9596  0.7670  0.4046
 1474SOL    MW4 5943   0.478   0.943   2.774  0.0838  0.4290 -0.1466
 1475SOL     OW 5944   0.430   1.187   2.677 -0.3639  0.1086 -0.4800
 1475SOL    HW2 5945   0.506   1.236   2.708  0.5555 -1.0554 -0.8303
 1475SOL    HW3 5946   0.458   1.150   2.593 -1.1569 -0.7366 -0.3793
 1475SOL    MW4 5947   0.444   1.189   2.670 -0.3472 -0.1564 -0.5128
 1476SOL     OW 5948   0.650   1.314   2.802  0.4638 -0.0051 -0.3315
 1476SOL    HW2 5949   0.651   1.296   2.896  0.2571 -0.9841 -0.5199
 1476SOL    HW3 5950   0.724   1.265   2.767  0.0513 -0.2898 -0.8061
 1476SOL    MW4 5951   0.660   1.305   2.810  0.3821 -0.1718 -0.4189
 1477SOL     OW 5952   0.657   1.558   2.673 -0.1007  0.1606  0.0068
 1477SOL    HW2 5953   0.577   1.606   2.693 -0.8459 -0.6655 -0.9294
 1477SOL    HW3 5954   0.651   1.478   2.726 -0.8818 -0.8522 -1.5717
 1477SOL    MW4 5955   0.646   1.554   2.683 -0.3021 -0.0820 -0.3250
 1478SOL     OW 5956   0.425   1.657   2.769 -0.2907 -0.4735 -0.6019
 1478SOL    HW2 5957   0.441   1.653   2.863  0.4248 -0.1414 -0.7054
 1478SOL    HW3 5958   0.407   1.750   2.752  2.2452 -0.0631 -1.2090
 1478SOL    MW4 5959   0.424   1.669   2.779  0.1383 -0.3757 -0.6957
 1479SOL     OW 5960   0.417   1.955   2.690 -0.0626 -0.5057 -0.0116
 1479SOL    HW2 5961   0.499   1.997   2.714 -0.8665  0.7536  0.6154
 1479SOL    HW3 5962   0.431   1.921   2.602  0.0107  2.7565 -1.3231
 1479SOL    MW4 5963   0.429   1.956   2.682 -0.1590  0.0907 -0.1016
 1480SOL     OW 5964   0.670   2.046   2.735 -0.6226  0.1117  0.1804
 1480SOL    HW2 5965   0.679   2.055   2.829  1.3028  1.7204 -0.1160
 1480SOL    HW3 5966   0.751   2.005   2.706 -0.7156  0.6565 -0.8936
 1480SOL    MW4 5967   0.682   2.042   2.743 -0.3808  0.3958 -0.0002
 1481SOL     OW 5968   0.905   2.426   2.750  0.3568 -0.0096 -0.0723
 1481SOL    HW2 5969   0.894   2.500   2.691  0.0346  0.5026  0.6218
 1481SOL    HW3 5970   0.968   2.369   2.705  0.4862  0.6045 -0.6810
 1481SOL    MW4 5971   0.912   2.428   2.736  0.3313  0.1390 -0.0613
 1482SOL     OW 5972   0.655   2.317   2.667  0.2961  0.4818 -0.0143
 1482SOL    HW2 5973   0.739   2.355   2.692 -0.3764  1.3399  1.0191
 1482SOL    HW3 5974   0.662   2.225   2.692  0.6255  0.7402  0.8868
 1482SOL    MW4 5975   0.667   2.310   2.674  0.2508  0.6292  0.2408
 1483SOL     OW 5976   0.441   2.719   2.617  0.1829 -0.2563  0.4183
 1483SOL    HW2 5977   0.522   2.756   2.653  1.0812  0.6967 -2.4140
 1483SOL    HW3 5978   0.371   2.763   2.664  1.3128  0.9342  1.0152
 1483SOL    MW4 5979   0.442   2.729   2.628  0.4505  0.0267  0.1235
 1484SOL     OW 5980   0.648   2.842   2.732  0.3801 -0.6885  0.4168
 1484SOL    HW2 5981   0.636   2.850   2.827 -0.8540  0.7515  0.1693
 1484SOL    HW3 5982   0.649   2.932   2.701  1.8888 -1.1271 -0.8181
 1484SOL    MW4 5983   0.646   2.855   2.741  0.4164 -0.5565  0.2213
 1485SOL     OW 5984   0.670   3.102   2.635 -0.0548  0.1341 -0.3125
 1485SOL    HW2 5985   0.743   3.123   2.693 -0.4840  1.3541 -0.2095
 1485SOL    HW3 5986   0.706   3.111   2.547 -0.0919  0.7734 -0.2627
 1485SOL    MW4 5987   0.685   3.106   2.631 -0.1163  0.3796 -0.2921
 1486SOL     OW 5988   0.462   3.251   2.738  0.2696 -0.2885 -0.0734
 1486SOL    HW2 5989   0.471   3.273   2.831  0.5613 -0.6417 -0.0136
 1486SOL    HW3 5990   0.546   3.209   2.716  0.2527 -0.0842 -0.5291
 1486SOL    MW4 5991   0.474   3.249   2.747  0.3059 -0.3085 -0.1256
 1487SOL     OW 5992   0.407   3.510   2.670  0.2078  0.1400  0.0064
 1487SOL    HW2 5993   0.397   3.417   2.689  0.8838  0.0227 -0.2115
 1487SOL    HW3 5994   0.410   3.514   2.574 -0.3897  0.4435 -0.0010
 1487SOL    MW4 5995   0.406   3.498   2.660  0.2182  0.1645 -0.0234
 1488SOL     OW 5996   0.668   3.606   2.717 -0.0231  0.1791  0.0393
 1488SOL    HW2 5997   0.680   3.619   2.811 -0.1937 -1.9177  0.3800
 1488SOL    HW3 5998   0.579   3.573   2.708 -0.3389  1.2711 -0.9656
 1488SOL    MW4 5999   0.658   3.603   2.728 -0.0872  0.0467 -0.0482
 1489SOL     OW 6000   0.654   3.876   2.650  0.3109 -0.2600  0.1764
 1489SOL    HW2 6001   0.574   3.912   2.690 -0.3470 -0.5831 -0.8114
 1489SOL    HW3 6002   0.673   3.797   2.700  0.8135  0.5733  1.3059
 1489SOL    MW4 6003   0.646   3.870   2.662  0.2905 -0.1926  0.1950
 1490SOL     OW 6004   0.455   4.017   2.773  0.1643  0.2712  0.1995
 1490SOL    HW2 6005   0.442   4.104   2.736  1.4669 -0.1194 -1.2554
 1490SOL    HW3 6006   0.378   3.967   2.746 -0.0952  0.6852  0.1718
 1490SOL    MW4 6007   0.443   4.022   2.765  0.3020  0.2747  0.0041
 1491SOL     OW 6008   0.452   4.285   2.653  0.5466 -0.2262 -0.1024
 1491SOL    HW2 6009   0.541   4.309   2.680  0.1601  0.1828  0.8292
 1491SOL    HW3 6010   0.460   4.264   2.560  1.3397  1.2234 -0.3804
 1491SOL    MW4 6011   0.465   4.285   2.644  0.6002  0.0186 -0.0162
 1492SOL     OW 6012   0.675   4.396   2.766  0.6100 -0.2445  0.0154
 1492SOL    HW2 6013   0.754   4.349   2.739  1.2590  0.8524 -0.0441
 1492SOL    HW3 6014   0.692   4.487   2.740 -0.4086  0.1089  0.5805
 1492SOL    MW4 6015   0.688   4.402   2.759  0.5613 -0.0529  0.0823
 1493SOL     OW 6016   1.110   4.639   2.680  0.3738  0.1116  0.0668
 1493SOL    HW2 6017   1.190   4.684   2.709  0.8668  0.0162 -1.1309
 1493SOL    HW3 6018   1.134   4.547   2.678  0.4172  0.1418 -0.8816
 1493SOL    MW4 6019   1.124   4.633   2.684  0.4447  0.1035 -0.2162
 1494SOL     OW 6020   0.896   0.117   2.767  0.3642  0.1546 -0.4816
 1494SOL    HW2 6021   0.885   0.113   2.862 -0.3939  0.1647 -0.5660
 1494SOL    HW3 6022   0.975   0.067   2.750 -0.8239 -1.9402 -0.0740
 1494SOL    MW4 6023   0.905   0.110   2.777  0.1074 -0.1205 -0.4387
 1495SOL     OW 6024   0.884   0.389   2.659 -0.3503 -0.2681  0.1105
 1495SOL    HW2 6025   0.889   0.302   2.697  0.6898 -0.2295  0.0885
 1495SOL    HW3 6026   0.899   0.375   2.565  0.7345  0.0183  0.2302
 1495SOL    MW4 6027   0.887   0.376   2.651 -0.0700 -0.2252  0.1233
 1496SOL     OW 6028   1.134   0.471   2.776 -0.2835  0.2930  0.1339
 1496SOL    HW2 6029   1.150   0.564   2.759  0.4233  0.1474 -0.0128
 1496SOL    HW3 6030   1.070   0.446   2.710  0.9386  0.2251 -1.0428
 1496SOL    MW4 6031   1.128   0.480   2.765 -0.0291  0.2649 -0.0408
 1497SOL     OW 6032   1.120   0.744   2.652  0.4639  0.1629 -0.4882
 1497SOL    HW2 6033   1.203   0.789   2.670  0.4134  0.3886 -0.8162
 1497SOL    HW3 6034   1.113   0.745   2.556  0.4208 -0.4669 -0.4948
 1497SOL    MW4 6035   1.130   0.750   2.642  0.4516  0.1096 -0.5324
 1498SOL     OW 6036   0.878   0.877   2.735  0.1651  0.4413  0.5056
 1498SOL    HW2 6037   0.867   0.874   2.830 -1.0518 -1.1951  0.3181
 1498SOL    HW3 6038   0.969   0.850   2.721  0.0005 -0.4340  1.1257
 1498SOL    MW4 6039   0.889   0.873   2.745 -0.0172  0.1099  0.5627
 1499SOL     OW 6040   0.890   1.166   2.708 -0.1969 -0.1764 -0.2189
 1499SOL    HW2 6041   0.895   1.070   2.706 -0.5646 -0.2083  0.2900
 1499SOL    HW3 6042   0.907   1.192   2.618 -0.8054 -0.7596 -0.5124
 1499SOL    MW4 6043   0.893   1.157   2.696 -0.3257 -0.2575 -0.1903
 1500SOL     OW 6044   1.142   1.267   2.807 -0.0233  0.1499 -0.1046
 1500SOL    HW2 6045   1.131   1.346   2.754  0.5539  0.3234  0.0238
 1500SOL    HW3 6046   1.056   1.225   2.807 -0.6873  1.4747  0.9487
 1500SOL    MW4 6047   1.129   1.272   2.800 -0.0347  0.3476  0.0515
 1501SOL     OW 6048   1.118   1.494   2.663  0.3229  0.2047  0.2391
 1501SOL    HW2 6049   1.042   1.550   2.673 -0.0237  0.0738 -1.4647
 1501SOL    HW3 6050   1.141   1.500   2.570  0.5269 -2.1299  0.0907
 1501SOL    MW4 6051   1.111   1.502   2.652  0.3041 -0.1206 -0.0055
 1502SOL     OW 6052   0.910   1.648   2.754  0.5969 -0.6691  0.3839
 1502SOL    HW2 6053   0.900   1.671   2.847 -0.8552 -1.4417  0.4241
 1502SOL    HW3 6054   0.822   1.621   2.726  0.7176  0.8592 -1.5743
 1502SOL    MW4 6055   0.897   1.648   2.763  0.4212 -0.5693  0.1309
 1503SOL     OW 6056   0.898   1.916   2.624 -0.1542  0.4848  0.2695
 1503SOL    HW2 6057   0.965   1.953   2.681 -0.9576  0.5374  1.1914
 1503SOL    HW3 6058   0.892   1.824   2.651  1.0220 -0.0506 -1.2351
 1503SOL    MW4 6059   0.906   1.909   2.635 -0.1050  0.4210  0.1924
 1504SOL     OW 6060   1.113   2.042   2.756  0.4047  0.1775  0.0667
 1504SOL    HW2 6061   1.193   1.992   2.741  2.0116  2.1087  1.8351
 1504SOL    HW3 6062   1.127   2.125   2.710 -0.8843  0.2721 -0.1845
 1504SOL    MW4 6063   1.125   2.046   2.748  0.4466  0.4449  0.2668
 1505SOL     OW 6064   1.143   2.347   2.389 -0.1053  0.0117  0.2822
 1505SOL    HW2 6065   1.214   2.393   2.343  0.9256 -1.5395  0.2874
 1505SOL    HW3 6066   1.153   2.255   2.364 -1.8579 -0.2920  0.6410
 1505SOL    MW4 6067   1.154   2.341   2.380 -0.2005 -0.2334  0.3297
 1506SOL     OW 6068   1.139   2.301   2.659  0.4265  0.2990 -0.0593
 1506SOL    HW2 6069   1.216   2.342   2.698  1.5573 -1.0036 -0.8704
 1506SOL    HW3 6070   1.153   2.308   2.564  0.1214 -0.9583 -0.2138
 1506SOL    MW4 6071   1.151   2.307   2.652  0.5354 -0.0389 -0.1869
 1507SOL     OW 6072   0.866   2.708   2.640 -0.0704 -0.0250 -0.3375
 1507SOL    HW2 6073   0.940   2.758   2.674 -0.3190 -1.6255  2.7853
 1507SOL    HW3 6074   0.789   2.758   2.667 -0.2388 -0.6882  0.4355
 1507SOL    MW4 6075   0.865   2.721   2.648 -0.1254 -0.3235  0.1764
 1508SOL     OW 6076   1.079   2.851   2.706  0.2683 -0.1399 -0.4135
 1508SOL    HW2 6077   1.067   2.852   2.801 -1.0245 -0.3989 -0.5565
 1508SOL    HW3 6078   1.160   2.803   2.692  0.6737  0.2536  0.5861
 1508SOL    MW4 6079   1.088   2.845   2.716  0.1513 -0.1223 -0.3004
 1509SOL     OW 6080   1.148   3.096   2.652  0.0000  0.0000  0.0970
 1509SOL    HW2 6081   1.122   3.007   2.674  0.0000  0.0000  0.0891
 1509SOL    HW3 6082   1.136   3.101   2.557  0.0000  0.0000  0.0973
 1509SOL    MW4 6083   1.143   3.085   2.642  0.0000  0.0000  0.0961
 1510SOL     OW 6084   0.919   3.208   2.745  0.0000  0.0000  0.3753
 1510SOL    HW2 6085   0.903   3.287   2.693  0.0000  0.0000  0.3797
 1510SOL    HW3 6086   1.006   3.179   2.717  0.0000  0.0000  0.3663
 1510SOL    MW4 6087   0.928   3.215   2.735  0.0000  0.0000  0.3750
 1511SOL     OW 6088   0.887   3.462   2.634  0.0000  0.0000 -0.0661
 1511SOL    HW2 6089   0.961   3.509   2.675  0.0000  0.0000 -0.0511
 1511SOL    HW3 6090   0.810   3.512   2.662  0.0000  0.0000 -0.0791
 1511SOL    MW4 6091   0.887   3.475   2.643  0.0000  0.0000 -0.0656
 1512SOL     OW 6092   1.102   3.599   2.762  0.0000  0.0000 -0.3021
 1512SOL    HW2 6093   1.101   3.626   2.854  0.0000  0.0000 -0.3039
 1512SOL    HW3 6094   1.100   3.681   2.713  0.0000  0.0000 -0.3071
 1512SOL    MW4 6095   1.102   3.613   2.768  0.0000  0.0000 -0.3030
 1513SOL     OW 6096   1.098   3.851   2.637  0.0000  0.0000  0.1407
 1513SOL    HW2 6097   1.178   3.889   2.675  0.0000  0.0000  0.1369
 1513SOL    HW3 6098   1.110   3.859   2.542  0.0000  0.0000  0.1399
 1513SOL    MW4 6099   1.110   3.857   2.629  0.0000  0.0000  0.1402
 1514SOL     OW 6100   0.893   4.008   2.745  0.0000  0.0000 -0.0023
 1514SOL    HW2 6101   0.957   3.963   2.690  0.0000  0.0000  0.0033
 1514SOL    HW3 6102   0.809   3.969   2.719  0.0000  0.0000 -0.0118
 1514SOL    MW4 6103   0.890   3.997   2.734  0.0000  0.0000 -0.0026
 1515SOL     OW 6104   0.888   4.266   2.669  0.0000  0.0000 -0.0291
 1515SOL    HW2 6105   0.892   4.173   2.694  0.0000  0.0000 -0.0299
 1515SOL    HW3 6106   0.884   4.265   2.574  0.0000  0.0000 -0.0290
 1515SOL    MW4 6107   0.888   4.254   2.660  0.0000  0.0000 -0.0293
 1516SOL     OW 6108   1.144   4.351   2.734  0.0000  0.0000 -0.4625
 1516SOL    HW2 6109   1.137   4.378   2.826  0.0000  0.0000 -0.4615
 1516SOL    HW3 6110   1.055   4.327   2.709  0.0000  0.0000 -0.4600
 1516SOL    MW4 6111   1.131   4.351   2.743  0.0000  0.0000 -0.4618
 1517SOL     OW 6112   1.593   4.643   2.670  0.0000  0.0000  0.7715
 1517SOL    HW2 6113   1.588   4.549   2.686  0.0000  0.0000  0.7587
 1517SOL    HW3 6114   1.581   4.652   2.575  0.0000  0.0000  0.7726
 1517SOL    MW4 6115   1.591   4.632   2.660  0.0000  0.0000  0.7699
 1518SOL     OW 6116   1.361   0.090   2.743 -0.1899  0.4886  0.1660
 1518SOL    HW2 6117   1.370   0.183   2.722  0.6161 -0.0129 -1.8102
 1518SOL    HW3 6118   1.447   0.053   2.723 -0.4868 -0.6810  0.9989
 1518SOL    MW4 6119   1.374   0.098   2.738 -0.1227  0.2681  0.0155
 1519SOL     OW 6120   1.360   0.346   2.657 -0.2660  0.2368 -0.0780
 1519SOL    HW2 6121   1.434   0.398   2.688 -0.3658  0.9938 -1.0727
 1519SOL    HW3 6122   1.283   0.394   2.685 -0.3656  0.2328 -0.3433
 1519SOL    MW4 6123   1.360   0.359   2.664 -0.2923  0.3361 -0.2439
 1520SOL     OW 6124   1.592   0.486   2.710 -0.9802 -0.6090 -0.1862
 1520SOL    HW2 6125   1.672   0.446   2.675 -0.9199 -1.2423  0.6474
 1520SOL    HW3 6126   1.600   0.579   2.689 -0.1953 -0.7311 -0.4376
 1520SOL    MW4 6127   1.604   0.493   2.703 -0.8687 -0.7087 -0.1092
 1521SOL     OW 6128   1.620   0.752   2.648  0.3884  0.2331  0.2865
 1521SOL    HW2 6129   1.542   0.790   2.690  0.7123  0.5496  0.6045
 1521SOL    HW3 6130   1.595   0.743   2.556 -0.2637 -0.3026  0.5093
 1521SOL    MW4 6131   1.606   0.756   2.641  0.3450  0.2042  0.3581
 1522SOL     OW 6132   1.362   0.867   2.740  0.3251  0.3179 -0.1089
 1522SOL    HW2 6133   1.351   0.859   2.835  0.1168  2.0275  0.0277
 1522SOL    HW3 6134   1.352   0.960   2.723 -1.4262 -0.1985 -2.0498
 1522SOL    MW4 6135   1.359   0.878   2.751  0.0665  0.4753 -0.3471
 1523SOL     OW 6136   1.323   1.125   2.652 -0.3814 -0.2233  0.0802
 1523SOL    HW2 6137   1.400   1.169   2.688 -0.7640  0.8138 -0.3601
 1523SOL    HW3 6138   1.249   1.168   2.695 -0.7579 -0.5250 -0.2649
 1523SOL    MW4 6139   1.324   1.137   2.663 -0.4815 -0.1262 -0.0236
 1524SOL     OW 6140   1.564   1.224   2.716 -0.2645 -0.4440  0.1247
 1524SOL    HW2 6141   1.574   1.228   2.811 -2.1739  0.1289  0.3162
 1524SOL    HW3 6142   1.653   1.208   2.683  0.4917 -0.1228  1.9635
 1524SOL    MW4 6143   1.577   1.223   2.724 -0.4168 -0.3259  0.3927
 1525SOL     OW 6144   1.538   1.499   2.637 -0.0569  0.0967  0.3818
 1525SOL    HW2 6145   1.530   1.408   2.665  0.1758 -0.1014 -0.1956
 1525SOL    HW3 6146   1.552   1.494   2.542  0.4316  0.7103  0.4170
 1525SOL    MW4 6147   1.539   1.486   2.628  0.0383  0.1516  0.3102
 1526SOL     OW 6148   1.338   1.634   2.766 -0.4090 -0.1071 -0.1217
 1526SOL    HW2 6149   1.413   1.592   2.724 -0.3051  0.2484 -0.2953
 1526SOL    HW3 6150   1.262   1.591   2.729 -0.3403  0.5746 -1.0901
 1526SOL    MW4 6151   1.338   1.623   2.756 -0.3862  0.0298 -0.2723
 1527SOL     OW 6152   1.338   1.905   2.690  0.6348  0.0725 -0.1849
 1527SOL    HW2 6153   1.343   1.812   2.713 -0.6524  0.4159  1.5300
 1527SOL    HW3 6154   1.327   1.905   2.595  0.3900 -1.5344 -0.1753
 1527SOL    MW4 6155   1.337   1.893   2.680  0.4327 -0.0942  0.0424
 1528SOL     OW 6156   1.582   2.037   2.742 -0.2642 -0.0310  0.2009
 1528SOL    HW2 6157   1.656   1.983   2.712  0.9916  1.0551  1.2586
 1528SOL    HW3 6158   1.505   1.987   2.717  0.8437 -1.6772 -0.0632
 1528SOL    MW4 6159   1.582   2.023   2.734  0.0477 -0.1049  0.3057
 1529SOL     OW 6160   1.548   2.296   2.641 -0.2713 -0.1174  0.3399
 1529SOL    HW2 6161   1.618   2.353   2.674 -0.8954 -0.5911  2.6160
 1529SOL    HW3 6162   1.567   2.211   2.681 -2.1606 -0.2396  1.0387
 1529SOL    MW4 6163   1.560   2.292   2.651 -0.6030 -0.1960  0.7324
 1530SOL     OW 6164   1.350   2.462   2.753  0.5825 -0.0534  0.5773
 1530SOL    HW2 6165   1.360   2.551   2.719 -1.4605 -0.0356 -0.0362
 1530SOL    HW3 6166   1.427   2.416   2.722 -0.0262  0.6102 -2.0433
 1530SOL    MW4 6167   1.361   2.468   2.744  0.2327  0.0362  0.1507
 1531SOL     OW 6168   1.317   2.729   2.686 -0.4088  0.6171 -0.2679
 1531SOL    HW2 6169   1.398   2.769   2.720 -0.1914 -0.8632  1.0403
 1531SOL    HW3 6170   1.324   2.738   2.591  2.1194 -0.9427 -0.2928
 1531SOL    MW4 6171   1.329   2.735   2.678 -0.0466  0.2155 -0.0987
 1532SOL     OW 6172   1.549   2.846   3.010 -0.3702  0.5647 -0.1305
 1532SOL    HW2 6173   1.477   2.811   3.062  0.4619 -1.7641 -0.4901
 1532SOL    HW3 6174   1.627   2.804   3.046  0.5514  1.2345 -1.3042
 1532SOL    MW4 6175   1.550   2.836   3.021 -0.1389  0.3457 -0.3328
 1533SOL     OW 6176   1.593   3.113   2.659 -0.3476  0.3621  0.2241
 1533SOL    HW2 6177   1.676   3.141   2.699 -0.9078  0.1926  1.5441
 1533SOL    HW3 6178   1.572   3.030   2.703 -0.7592 -0.0555 -0.7511
 1533SOL    MW4 6179   1.601   3.106   2.670 -0.4758  0.2847  0.2699
 1534SOL     OW 6180   1.362   3.227   2.778 -0.1592  0.3106 -0.0237
 1534SOL    HW2 6181   1.432   3.190   2.724 -0.2491  1.7869 -1.1856
 1534SOL    HW3 6182   1.282   3.184   2.746  0.0832 -0.6134  0.6015
 1534SOL    MW4 6183   1.360   3.216   2.766 -0.1391  0.3836 -0.0944
 1535SOL     OW 6184   1.319   3.482   2.647  0.2271 -0.2351 -0.3030
 1535SOL    HW2 6185   1.312   3.395   2.687  0.5441 -0.4938 -0.7927
 1535SOL    HW3 6186   1.250   3.534   2.688  0.5592 -0.4912  0.5729
 1535SOL    MW4 6187   1.309   3.477   2.657  0.3127 -0.3033 -0.2522
 1536SOL     OW 6188   1.581   3.582   2.716  0.3876 -0.0566  0.2071
 1536SOL    HW2 6189   1.648   3.523   2.681  0.3542  0.2848 -0.4511
 1536SOL    HW3 6190   1.499   3.549   2.678  0.3980  0.5475 -0.3439
 1536SOL    MW4 6191   1.579   3.570   2.706  0.3846  0.0684  0.0477
 1537SOL     OW 6192   1.597   3.865   2.695  0.1135  0.0140 -0.0872
 1537SOL    HW2 6193   1.508   3.899   2.702  0.4758  0.7293  1.0108
 1537SOL    HW3 6194   1.586   3.770   2.699 -0.5902  0.1037  0.1823
 1537SOL    MW4 6195   1.584   3.857   2.696  0.0684  0.1204  0.0930
 1538SOL     OW 6196   1.322   3.955   2.741 -0.3136 -0.0045 -0.2491
 1538SOL    HW2 6197   1.322   3.946   2.836 -0.2139 -0.4759 -0.2923
 1538SOL    HW3 6198   1.338   4.048   2.725  0.9682 -0.1410  0.1856
 1538SOL    MW4 6199   1.324   3.966   2.751 -0.1312 -0.0844 -0.1974
 1539SOL     OW 6200   1.376   4.239   2.658 -0.7583 -0.0172  0.2096
 1539SOL    HW2 6201   1.296   4.281   2.689  0.6307  3.0981 -0.2039
 1539SOL    HW3 6202   1.367   4.237   2.562  0.1984  1.6512  0.0511
 1539SOL    MW4 6203   1.365   4.244   2.649 -0.4488  0.6142  0.1340
 1540SOL     OW 6204   1.587   4.376   2.739 -0.1764 -0.4693  0.0192
 1540SOL    HW2 6205   1.581   4.364   2.834  0.7783 -0.4157  0.0904
 1540SOL    HW3 6206   1.508   4.336   2.705 -0.2355 -1.0187  0.7947
 1540SOL    MW4 6207   1.576   4.369   2.747 -0.0583 -0.5345  0.1309
 1541SOL     OW 6208   2.008   4.653   2.637 -0.0438  0.4388 -0.0736
 1541SOL    HW2 6209   2.089   4.697   2.665 -0.2441  1.4743 -1.0671
 1541SOL    HW3 6210   2.008   4.661   2.542 -0.1816 -1.6018 -0.2606
 1541SOL    MW4 6211   2.019   4.660   2.628 -0.0887  0.3062 -0.2296
 1542SOL     OW 6212   1.809   0.126   2.763  0.6432 -0.2993 -0.2636
 1542SOL    HW2 6213   1.884   0.089   2.716 -0.3165 -1.0145 -1.2475
 1542SOL    HW3 6214   1.734   0.076   2.731 -0.2192  0.2174  0.9344
 1542SOL    MW4 6215   1.809   0.115   2.753  0.4028 -0.3255 -0.2353
 1543SOL     OW 6216   1.836   0.393   2.642 -0.2536  0.1589  0.4100
 1543SOL    HW2 6217   1.901   0.445   2.689  0.4131 -0.1473 -0.1583
 1543SOL    HW3 6218   1.831   0.311   2.690 -1.4336  0.7990  1.4084
 1543SOL    MW4 6219   1.844   0.389   2.654 -0.3213  0.2029  0.4668
 1544SOL     OW 6220   2.056   0.523   2.783  0.4344 -0.0565  0.2615
 1544SOL    HW2 6221   2.133   0.472   2.758  0.5059  0.5842 -0.8708
 1544SOL    HW3 6222   2.082   0.614   2.768 -0.8343  0.1183 -0.9935
 1544SOL    MW4 6223   2.069   0.528   2.777  0.2766  0.0511 -0.0534
 1545SOL     OW 6224   2.060   0.768   2.661  0.3249 -0.1551  0.6489
 1545SOL    HW2 6225   1.995   0.829   2.696  0.2834 -0.4047  1.0024
 1545SOL    HW3 6226   2.035   0.758   2.568  0.7048  0.8467  0.4362
 1545SOL    MW4 6227   2.048   0.775   2.653  0.3698 -0.0559  0.6673
 1546SOL     OW 6228   1.834   0.897   2.764  0.0509  0.4375  0.3771
 1546SOL    HW2 6229   1.830   0.985   2.729  1.5780  0.9666  1.4924
 1546SOL    HW3 6230   1.767   0.848   2.715 -1.4408  2.4221  0.3822
 1546SOL    MW4 6231   1.824   0.902   2.753  0.0558  0.7691  0.5250
 1547SOL     OW 6232   1.815   1.143   2.620  0.4120  0.1182  0.0102
 1547SOL    HW2 6233   1.888   1.196   2.652  0.8278 -1.1584  1.1956
 1547SOL    HW3 6234   1.840   1.120   2.530  0.5949  1.2440 -0.2408
 1547SOL    MW4 6235   1.828   1.147   2.612  0.4911  0.0982  0.1338
 1548SOL     OW 6236   2.037   1.257   2.726 -0.4974 -0.3390 -0.0344
 1548SOL    HW2 6237   2.046   1.254   2.821 -0.7587  2.2510  0.0928
 1548SOL    HW3 6238   2.121   1.224   2.693  0.6049  1.2816  1.0978
 1548SOL    MW4 6239   2.049   1.252   2.734 -0.3862  0.2165  0.1314
 1549SOL     OW 6240   2.030   1.546   2.687  0.2197 -0.1697  0.0991
 1549SOL    HW2 6241   1.940   1.580   2.690  0.2592 -0.0261 -0.2494
 1549SOL    HW3 6242   2.021   1.453   2.708 -0.4651 -0.9581 -3.3506
 1549SOL    MW4 6243   2.017   1.538   2.690  0.1345 -0.2546 -0.4020
 1550SOL     OW 6244   1.776   1.640   2.743  0.7026  0.1499 -0.2768
 1550SOL    HW2 6245   1.769   1.646   2.838  0.0793 -1.1927 -0.2250
 1550SOL    HW3 6246   1.695   1.597   2.716  0.4981  1.2707 -1.5017
 1550SOL    MW4 6247   1.764   1.635   2.752  0.5933  0.1206 -0.4318
 1551SOL     OW 6248   1.792   1.882   2.638 -0.5170  0.1259  0.2026
 1551SOL    HW2 6249   1.873   1.932   2.647 -1.2754  1.2527  0.9094
 1551SOL    HW3 6250   1.810   1.799   2.683  0.2157  0.3854  0.3928
 1551SOL    MW4 6251   1.805   1.877   2.645 -0.5203  0.3088  0.3211
 1552SOL     OW 6252   2.008   2.055   2.715 -0.0195  0.1700  0.1447
 1552SOL    HW2 6253   1.987   2.033   2.806 -0.8932 -0.9478 -0.3076
 1552SOL    HW3 6254   2.005   2.150   2.712  2.1837  0.3562  1.7885
 1552SOL    MW4 6255   2.005   2.064   2.727  0.1559  0.0470  0.3018
 1553SOL     OW 6256   1.747   2.437   2.761 -0.2299 -0.0747 -0.3149
 1553SOL    HW2 6257   1.746   2.440   2.857 -0.8597 -0.4596 -0.3061
 1553SOL    HW3 6258   1.831   2.397   2.739  0.0758  0.3474  0.0630
 1553SOL    MW4 6259   1.758   2.432   2.771 -0.2726 -0.0701 -0.2639
 1554SOL     OW 6260   1.783   2.686   2.656 -0.4678  0.0809  0.2083
 1554SOL    HW2 6261   1.779   2.598   2.693 -0.1165 -0.2643 -0.5477
 1554SOL    HW3 6262   1.779   2.672   2.561 -0.9787  0.9195  0.1029
 1554SOL    MW4 6263   1.782   2.672   2.648 -0.4890  0.1462  0.0944
 1555SOL     OW 6264   1.569   2.835   2.744  0.3304 -0.1634 -0.0061
 1555SOL    HW2 6265   1.570   2.844   2.840  0.4787 -0.1729 -0.0058
 1555SOL    HW3 6266   1.644   2.778   2.725  0.9445  0.7121 -0.2108
 1555SOL    MW4 6267   1.579   2.828   2.755  0.4309 -0.0494 -0.0331
 1556SOL     OW 6268   1.970   2.872   2.725 -0.0861  0.0337  1.0072
 1556SOL    HW2 6269   2.054   2.827   2.726 -0.3750 -0.5432 -0.0276
 1556SOL    HW3 6270   1.911   2.810   2.681 -0.6361  1.1590  0.1569
 1556SOL    MW4 6271   1.973   2.858   2.719 -0.1969  0.1059  0.7586
 1557SOL     OW 6272   2.046   3.108   2.613 -0.0265  0.1788  0.5369
 1557SOL    HW2 6273   2.026   3.020   2.646  0.2285  0.4998  1.5543
 1557SOL    HW3 6274   2.023   3.104   2.520 -1.0154 -0.6413  0.8085
 1557SOL    MW4 6275   2.041   3.096   2.605 -0.1233  0.1128  0.7069
 1558SOL     OW 6276   1.841   3.221   2.758  0.3091  0.1484  0.0926
 1558SOL    HW2 6277   1.830   3.305   2.715 -1.1279  0.2384  0.5997
 1558SOL    HW3 6278   1.905   3.174   2.704  0.2202  1.1028 -0.8587
 1558SOL    MW4 6279   1.848   3.225   2.745  0.1079  0.2863  0.0336
 1559SOL     OW 6280   1.781   3.440   2.612 -0.0362  0.3635  0.6374
 1559SOL    HW2 6281   1.850   3.498   2.644  1.1706 -0.8752  0.3372
 1559SOL    HW3 6282   1.786   3.448   2.516 -1.2408  1.3219  0.6460
 1559SOL    MW4 6283   1.791   3.449   2.603 -0.0358  0.3264  0.5991
 1560SOL     OW 6284   1.992   3.590   2.749 -0.3856  0.4368 -0.6308
 1560SOL    HW2 6285   2.004   3.591   2.844 -0.6204 -1.4718 -0.5491
 1560SOL    HW3 6286   2.076   3.562   2.715 -0.4209  0.7410 -0.9691
 1560SOL    MW4 6287   2.004   3.586   2.757 -0.4213  0.2248 -0.6645
 1561SOL     OW 6288   2.007   3.844   2.626  0.2771 -0.3292  0.1976
 1561SOL    HW2 6289   1.956   3.912   2.670 -0.0428 -0.7833  0.5233
 1561SOL    HW3 6290   1.989   3.764   2.675 -1.7119 -1.2603 -2.0084
 1561SOL    MW4 6291   1.998   3.843   2.638 -0.0275 -0.5116 -0.0503
 1562SOL     OW 6292   1.825   3.980   2.790  0.2874 -0.3594  0.1652
 1562SOL    HW2 6293   1.820   4.074   2.777  0.4501 -0.0341  2.3067
 1562SOL    HW3 6294   1.747   3.945   2.747  0.6776  0.6342 -1.3972
 1562SOL    MW4 6295   1.814   3.987   2.782  0.3603 -0.1853  0.2413
 1563SOL     OW 6296   1.849   4.249   2.707  0.3883 -0.1876  0.3103
 1563SOL    HW2 6297   1.759   4.282   2.708  0.7815  0.9580 -0.9538
 1563SOL    HW3 6298   1.874   4.249   2.614  1.5557 -0.8810  0.6090
 1563SOL    MW4 6299   1.841   4.253   2.695  0.5941 -0.1278  0.1829
 1564SOL     OW 6300   2.019   4.428   2.795  0.1775 -0.2186 -0.1231
 1564SOL    HW2 6301   1.951   4.365   2.773 -1.5370  0.9640  1.5795
 1564SOL    HW3 6302   2.012   4.496   2.728  1.0869 -1.0873 -1.1323
 1564SOL    MW4 6303   2.009   4.429   2.783  0.0710 -0.1774 -0.0312
 1565SOL     OW 6304   2.466   0.011   2.680  0.1977 -0.1429  0.1438
 1565SOL    HW2 6305   2.538   0.067   2.708  0.3903 -0.3343  0.0383
 1565SOL    HW3 6306   2.481  -0.002   2.586  0.7414 -1.2078  0.3633
 1565SOL    MW4 6307   2.478   0.017   2.671  0.2952 -0.3085  0.1588
 1566SOL     OW 6308   2.228   0.091   2.789  0.3168 -0.0815  0.4435
 1566SOL    HW2 6309   2.244   0.094   2.884  1.4170  1.1259  0.2301
 1566SOL    HW3 6310   2.308   0.052   2.753 -0.1489 -0.6454  0.0163
 1566SOL    MW4 6311   2.241   0.086   2.797  0.4003  0.0034  0.3588
 1567SOL     OW 6312   2.267   0.377   2.686  0.1427 -0.2239 -0.4825
 1567SOL    HW2 6313   2.262   0.287   2.720  0.9758  0.0621  0.3946
 1567SOL    HW3 6314   2.245   0.368   2.593 -0.9292 -1.1761 -0.1472
 1567SOL    MW4 6315   2.263   0.364   2.678  0.1113 -0.3118 -0.3226
 1568SOL     OW 6316   2.511   0.499   2.753 -0.1556 -0.1186 -0.4639
 1568SOL    HW2 6317   2.487   0.591   2.764 -0.4732 -0.0671 -1.4713
 1568SOL    HW3 6318   2.428   0.454   2.739  0.0474 -0.4637 -0.5574
 1568SOL    MW4 6319   2.497   0.505   2.752 -0.1705 -0.1574 -0.6092
 1569SOL     OW 6320   2.494   0.796   2.696 -0.3436 -0.4626 -0.1471
 1569SOL    HW2 6321   2.414   0.844   2.718  0.1216 -0.1692  0.9295
 1569SOL    HW3 6322   2.478   0.763   2.607 -1.3888  0.1545 -0.2016
 1569SOL    MW4 6323   2.481   0.798   2.687 -0.4206 -0.3424 -0.0122
 1570SOL     OW 6324   2.261   0.920   2.757  0.2429  0.5209  0.1644
 1570SOL    HW2 6325   2.260   0.909   2.853  1.3992 -0.7284  0.0492
 1570SOL    HW3 6326   2.190   0.865   2.726  1.1416 -0.6745  0.1726
 1570SOL    MW4 6327   2.252   0.911   2.766  0.5140  0.1984  0.1500
 1571SOL     OW 6328   2.303   1.176   2.657  0.0633 -0.6108  0.0041
 1571SOL    HW2 6329   2.289   1.086   2.684  2.5252 -0.9146  0.3683
 1571SOL    HW3 6330   2.297   1.174   2.561  1.6328 -1.4719 -0.0915
 1571SOL    MW4 6331   2.301   1.164   2.648  0.5953 -0.7646  0.0396
 1572SOL     OW 6332   2.524   1.289   2.776  0.2988  0.0392  0.2461
 1572SOL    HW2 6333   2.595   1.245   2.729 -0.2010 -0.8196  0.2972
 1572SOL    HW3 6334   2.444   1.249   2.743 -0.1575  0.8479  0.3545
 1572SOL    MW4 6335   2.523   1.278   2.766  0.1729  0.0327  0.2675
 1573SOL     OW 6336   2.512   1.561   2.691 -0.5065  0.0304  0.0346
 1573SOL    HW2 6337   2.430   1.591   2.730 -0.1884 -0.1506  0.8683
 1573SOL    HW3 6338   2.534   1.482   2.741  0.3660  0.2924  0.0703
 1573SOL    MW4 6339   2.504   1.555   2.703 -0.3495  0.0410  0.1490
 1574SOL     OW 6340   2.264   1.664   2.788 -0.3002  0.2956 -0.1399
 1574SOL    HW2 6341   2.260   1.749   2.744  0.1104  0.0726 -0.6227
 1574SOL    HW3 6342   2.183   1.620   2.762 -0.7815  0.7542  0.5704
 1574SOL    MW4 6343   2.253   1.669   2.779 -0.3095  0.3266 -0.1097
 1575SOL     OW 6344   2.237   1.925   2.652  0.3120 -0.1656  0.1004
 1575SOL    HW2 6345   2.154   1.966   2.674  0.8877  0.9479  0.2011
 1575SOL    HW3 6346   2.241   1.928   2.556 -0.9458 -2.5736 -0.0681
 1575SOL    MW4 6347   2.227   1.931   2.642  0.2220 -0.3364  0.0916
 1576SOL     OW 6348   2.471   2.041   2.742  0.1896  0.4011 -0.2057
 1576SOL    HW2 6349   2.453   2.131   2.713 -0.6610 -0.0207 -1.0015
 1576SOL    HW3 6350   2.400   1.989   2.704  0.2305 -0.4849  0.9094
 1576SOL    MW4 6351   2.459   2.046   2.734  0.0825  0.2286 -0.1638
 1577SOL     OW 6352   2.442   2.327   2.688  0.1270  0.1433 -0.2092
 1577SOL    HW2 6353   2.528   2.360   2.715 -0.2059  0.0479  0.9629
 1577SOL    HW3 6354   2.449   2.318   2.593  1.7616 -0.8058 -0.0250
 1577SOL    MW4 6355   2.454   2.330   2.679  0.2987  0.0055 -0.0303
 1578SOL     OW 6356   2.187   2.455   3.013 -0.2143 -0.1240 -0.1228
 1578SOL    HW2 6357   2.192   2.542   3.052 -1.0361 -0.1495  0.0462
 1578SOL    HW3 6358   2.264   2.409   3.048  1.1319  1.0365 -1.4869
 1578SOL    MW4 6359   2.198   2.460   3.023 -0.1452  0.0257 -0.2801
 1579SOL     OW 6360   2.208   2.738   2.655  0.2378 -0.0316  0.3113
 1579SOL    HW2 6361   2.294   2.769   2.683  1.6605 -0.2597 -3.5785
 1579SOL    HW3 6362   2.206   2.646   2.684  0.7497  0.3332  1.5570
 1579SOL    MW4 6363   2.219   2.730   2.663  0.4930 -0.0136 -0.0377
 1580SOL     OW 6364   2.461   2.855   2.728 -0.7770  0.3675 -0.3504
 1580SOL    HW2 6365   2.539   2.802   2.715 -1.0482  0.0307 -0.6119
 1580SOL    HW3 6366   2.485   2.942   2.697 -0.0972  0.5868  0.7468
 1580SOL    MW4 6367   2.474   2.860   2.722 -0.7231  0.3521 -0.2401
 1581SOL     OW 6368   2.502   3.102   2.650 -0.0597  0.0714  0.4764
 1581SOL    HW2 6369   2.424   3.155   2.668  0.3977  0.7278  0.5370
 1581SOL    HW3 6370   2.493   3.077   2.558  0.7974  2.0903 -0.2013
 1581SOL    MW4 6371   2.490   3.106   2.640  0.1135  0.4241  0.3948
 1582SOL     OW 6372   2.266   3.238   2.696 -0.4104  0.2163  0.2671
 1582SOL    HW2 6373   2.256   3.244   2.791 -1.0273 -0.3068  0.2407
 1582SOL    HW3 6374   2.191   3.186   2.667 -0.6477  1.0096 -0.5936
 1582SOL    MW4 6375   2.255   3.232   2.705 -0.5231  0.2520  0.1500
 1583SOL     OW 6376   2.229   3.507   2.636  0.1489 -0.4291  0.0588
 1583SOL    HW2 6377   2.310   3.546   2.669 -0.3853 -0.1450  1.0424
 1583SOL    HW3 6378   2.239   3.414   2.654  0.4145 -0.4422 -0.1534
 1583SOL    MW4 6379   2.241   3.500   2.643  0.1137 -0.3934  0.1605
 1584SOL     OW 6380   2.469   3.604   2.734  0.3865  0.3174 -0.0712
 1584SOL    HW2 6381   2.485   3.624   2.826 -0.5828 -1.1681  0.4320
 1584SOL    HW3 6382   2.483   3.687   2.689  0.5177  1.1398  1.4508
 1584SOL    MW4 6383   2.473   3.617   2.740  0.2759  0.2298  0.1960
 1585SOL     OW 6384   2.496   3.890   2.637 -0.0902 -0.2247 -0.5405
 1585SOL    HW2 6385   2.572   3.927   2.682 -1.0193 -0.3004  1.1125
 1585SOL    HW3 6386   2.420   3.932   2.677 -1.0127 -1.5293 -0.8578
 1585SOL    MW4 6387   2.496   3.900   2.648 -0.3345 -0.4067 -0.3641
 1586SOL     OW 6388   2.227   4.008   2.723  0.1822  0.1597  0.0220
 1586SOL    HW2 6389   2.233   3.996   2.818 -0.0460  0.5022  0.0811
 1586SOL    HW3 6390   2.143   3.967   2.700 -0.3095  1.0765  0.1366
 1586SOL    MW4 6391   2.216   4.001   2.733  0.0873  0.3252  0.0446
 1587SOL     OW 6392   2.234   4.295   2.667 -0.0617 -0.1647  0.3047
 1587SOL    HW2 6393   2.245   4.203   2.692  0.8994  0.1267  0.9760
 1587SOL    HW3 6394   2.153   4.322   2.710 -0.8130 -0.9362 -0.6064
 1587SOL    MW4 6395   2.225   4.286   2.676 -0.0341 -0.2279  0.2728
 1588SOL     OW 6396   2.462   4.428   2.772 -0.6810  0.2933 -0.4683
 1588SOL    HW2 6397   2.380   4.398   2.735 -0.6205 -1.2472  0.6351
 1588SOL    HW3 6398   2.467   4.520   2.746 -2.7398  0.4055 -0.5395
 1588SOL    MW4 6399   2.452   4.436   2.764 -0.9444  0.1049 -0.3319
 1589SOL     OW 6400   2.704   0.130   2.768  0.6691 -0.1024 -0.0328
 1589SOL    HW2 6401   2.716   0.132   2.863  0.4653  1.6072 -0.0288
 1589SOL    HW3 6402   2.790   0.107   2.734  0.4617 -1.8798  0.6114
 1589SOL    MW4 6403   2.717   0.127   2.776  0.6149 -0.1114  0.0527
 1590SOL     OW 6404   2.728   0.103   3.038 -0.1380  0.4230  0.0718
 1590SOL    HW2 6405   2.653   0.069   3.086 -0.5953 -0.5140 -1.2788
 1590SOL    HW3 6406   2.802   0.048   3.066 -0.6803 -1.0755 -1.3454
 1590SOL    MW4 6407   2.728   0.091   3.048 -0.2699  0.1017 -0.2935
 1591SOL     OW 6408   2.717   0.367   2.639  0.1079 -0.4938  0.6164
 1591SOL    HW2 6409   2.711   0.290   2.696 -0.7034  0.3666  1.7156
 1591SOL    HW3 6410   2.643   0.421   2.664  0.3713  0.4040 -0.5249
 1591SOL    MW4 6411   2.707   0.364   2.650  0.0355 -0.2618  0.6111
 1592SOL     OW 6412   2.944   0.506   2.740  0.2301  0.3827  0.0030
 1592SOL    HW2 6413   2.948   0.584   2.685  1.6183 -1.3063 -2.3840
 1592SOL    HW3 6414   2.871   0.455   2.704 -0.2480  0.2623  1.1337
 1592SOL    MW4 6415   2.935   0.509   2.728  0.3502  0.1439 -0.1626
 1593SOL     OW 6416   2.937   0.765   2.626 -0.0798 -0.2680  0.8054
 1593SOL    HW2 6417   3.019   0.810   2.648  1.1253 -2.1829  0.4054
 1593SOL    HW3 6418   2.869   0.814   2.673  1.3215  1.2024  1.3486
 1593SOL    MW4 6419   2.939   0.778   2.635  0.2639 -0.3267  0.8237
 1594SOL     OW 6420   2.731   0.906   2.755 -0.0695  0.1658  0.1359
 1594SOL    HW2 6421   2.741   0.888   2.848 -1.3392  0.3634  0.3292
 1594SOL    HW3 6422   2.653   0.856   2.729  0.1018  0.3416 -0.7548
 1594SOL    MW4 6423   2.722   0.897   2.764 -0.2143  0.2151  0.0439
 1595SOL     OW 6424   2.728   1.160   2.638 -0.2569 -0.4755  0.1207
 1595SOL    HW2 6425   2.797   1.214   2.676 -2.4244  1.4820  1.4428
 1595SOL    HW3 6426   2.743   1.073   2.673  0.6739  0.2637  1.6158
 1595SOL    MW4 6427   2.739   1.156   2.648 -0.4201 -0.1197  0.4926
 1596SOL     OW 6428   2.931   1.290   2.782 -0.0473 -0.5954  0.0524
 1596SOL    HW2 6429   2.936   1.283   2.878  1.7183  2.5224  0.2683
 1596SOL    HW3 6430   3.013   1.252   2.751  0.5498  0.7400 -0.0315
 1596SOL    MW4 6431   2.943   1.284   2.791  0.2644 -0.0077  0.0701
 1597SOL     OW 6432   2.978   1.544   2.681  0.1952 -0.2439 -0.0412
 1597SOL    HW2 6433   2.897   1.590   2.702  1.1696  1.8363 -0.7500
 1597SOL    HW3 6434   2.958   1.452   2.699 -2.1775  0.2799  0.2073
 1597SOL    MW4 6435   2.965   1.538   2.686  0.0107  0.0998 -0.1018
 1598SOL     OW 6436   2.739   1.698   2.780 -0.3643 -0.3620  0.0864
 1598SOL    HW2 6437   2.741   1.713   2.875  1.6407  0.5962 -0.0724
 1598SOL    HW3 6438   2.666   1.638   2.767 -0.7118 -0.4634  2.2381
 1598SOL    MW4 6439   2.730   1.692   2.791 -0.1457 -0.2490  0.3493
 1599SOL     OW 6440   2.717   1.940   2.637 -0.3662 -0.3744  0.1745
 1599SOL    HW2 6441   2.707   1.855   2.680 -0.7063 -0.3289  0.1908
 1599SOL    HW3 6442   2.630   1.980   2.645 -0.3298 -0.2154 -0.2353
 1599SOL    MW4 6443   2.704   1.934   2.644 -0.4060 -0.3474  0.1225
 1600SOL     OW 6444   2.934   2.040   2.760 -0.3038  0.6058 -0.2389
 1600SOL    HW2 6445   2.923   2.128   2.723 -0.1989  0.6049 -0.2711
 1600SOL    HW3 6446   2.857   1.992   2.729  0.5836  0.1470 -1.7753
 1600SOL    MW4 6447   2.922   2.046   2.751 -0.1729  0.5453 -0.4461
 1601SOL     OW 6448   2.947   2.301   2.653  0.2591  0.5016  0.0117
 1601SOL    HW2 6449   3.016   2.356   2.689  0.5475  2.0382 -2.7584
 1601SOL    HW3 6450   2.866   2.334   2.692  0.7308  0.8444  0.7123
 1601SOL    MW4 6451   2.945   2.312   2.663  0.3595  0.7496 -0.2615
 1602SOL     OW 6452   2.702   2.401   2.755  0.1436 -0.2963  0.4716
 1602SOL    HW2 6453   2.694   2.398   2.851 -0.4680 -0.6119  0.4118
 1602SOL    HW3 6454   2.699   2.494   2.734  0.6496 -0.2037  0.7895
 1602SOL    MW4 6455   2.701   2.413   2.765  0.1299 -0.3257  0.5057
 1603SOL     OW 6456   2.689   2.665   2.676  0.2242  0.0398  0.1088
 1603SOL    HW2 6457   2.765   2.704   2.719 -1.2961  2.0200  1.0788
 1603SOL    HW3 6458   2.697   2.691   2.585 -0.2220  1.7993  0.5515
 1603SOL    MW4 6459   2.700   2.673   2.670 -0.0353  0.5329  0.2952
 1604SOL     OW 6460   2.933   2.796   2.777 -0.4249  0.1296  0.4863
 1604SOL    HW2 6461   2.934   2.808   2.872  0.0105  0.4051  0.4513
 1604SOL    HW3 6462   2.936   2.885   2.741  0.3542  0.0046  0.2214
 1604SOL    MW4 6463   2.934   2.809   2.784 -0.2649  0.1493  0.4468
 1605SOL     OW 6464   2.944   3.047   2.672 -0.0546 -0.1989 -0.1139
 1605SOL    HW2 6465   2.864   3.096   2.693 -0.3392 -1.4861  1.8135
 1605SOL    HW3 6466   2.940   3.037   2.577 -1.9945  0.0723 -0.0908
 1605SOL    MW4 6467   2.933   3.052   2.662 -0.3479 -0.3331  0.1435
 1606SOL     OW 6468   2.735   3.236   2.736 -0.2083 -0.5895 -0.2330
 1606SOL    HW2 6469   2.752   3.326   2.705  0.0423 -0.6084 -0.1563
 1606SOL    HW3 6470   2.655   3.210   2.692 -0.8913  0.0755  0.5891
 1606SOL    MW4 6471   2.727   3.245   2.726 -0.2654 -0.5045 -0.1142
 1607SOL     OW 6472   2.717   3.488   2.664  0.2915 -0.2775  0.4151
 1607SOL    HW2 6473   2.630   3.501   2.701  0.3273 -1.5191  0.9380
 1607SOL    HW3 6474   2.703   3.491   2.569 -0.1161  0.8096  0.5028
 1607SOL    MW4 6475   2.704   3.491   2.656  0.2427 -0.2980  0.4957
 1608SOL     OW 6476   2.960   3.627   2.717  0.2685  0.0593  0.5607
 1608SOL    HW2 6477   2.941   3.616   2.810 -1.5831 -0.8687  0.1025
 1608SOL    HW3 6478   2.882   3.596   2.672  2.1368 -2.0440 -1.4038
 1608SOL    MW4 6479   2.947   3.622   2.723  0.2708 -0.3407  0.2410
 1609SOL     OW 6480   2.933   3.894   2.663 -0.1122 -0.4579 -0.2258
 1609SOL    HW2 6481   3.005   3.939   2.707 -1.2229  1.4182 -0.2505
 1609SOL    HW3 6482   2.944   3.802   2.687  1.6188 -0.0402  0.6923
 1609SOL    MW4 6483   2.944   3.888   2.672 -0.0303 -0.1552 -0.1078
 1610SOL     OW 6484   2.708   4.023   2.769 -0.1923 -0.2849  0.0500
 1610SOL    HW2 6485   2.677   4.101   2.724 -0.0220  0.0673  0.5383
 1610SOL    HW3 6486   2.786   3.997   2.721  0.1054  0.2072  0.2710
 1610SOL    MW4 6487   2.714   4.030   2.757 -0.1304 -0.1740  0.1435
 1611SOL     OW 6488   2.660   4.274   2.655  0.0031  0.0526 -0.1586
 1611SOL    HW2 6489   2.743   4.302   2.695 -1.0322 -0.0183  2.1166
 1611SOL    HW3 6490   2.594   4.332   2.693 -0.9682  0.3051 -2.1756
 1611SOL    MW4 6491   2.662   4.285   2.666 -0.2615  0.0763 -0.1245
 1612SOL     OW 6492   2.937   4.379   2.748  0.0007 -0.1663  0.2775
 1612SOL    HW2 6493   2.940   4.375   2.843 -2.0928 -0.9589  0.3270
 1612SOL    HW3 6494   2.931   4.473   2.729 -1.3724 -0.1014  0.9938
 1612SOL    MW4 6495   2.937   4.391   2.758 -0.4566 -0.2623  0.3784
 1613SOL     OW 6496   3.365   4.605   2.650 -0.0189 -0.1099 -1.0381
 1613SOL    HW2 6497   3.382   4.524   2.698  0.8846 -0.3930 -1.8186
 1613SOL    HW3 6498   3.308   4.656   2.708 -0.3818 -1.1896 -0.4345
 1613SOL    MW4 6499   3.360   4.601   2.664  0.0525 -0.2894 -1.0614
 1614SOL     OW 6500   3.179   0.094   2.797  0.3059 -0.1038  0.6588
 1614SOL    HW2 6501   3.181   0.101   2.892 -0.5369 -0.0079  0.6739
 1614SOL    HW3 6502   3.165   0.183   2.766  2.0792  0.0821  0.3890
 1614SOL    MW4 6503   3.177   0.106   2.805  0.4292 -0.0667  0.6254
 1615SOL     OW 6504   3.170   0.339   2.680  0.7353  0.4227 -0.0459
 1615SOL    HW2 6505   3.104   0.403   2.704  1.3523  0.1882  2.4810
 1615SOL    HW3 6506   3.171   0.339   2.584 -0.3240  3.0606 -0.0911
 1615SOL    MW4 6507   3.162   0.347   2.670  0.6773  0.7398  0.2813
 1616SOL     OW 6508   3.384   0.486   2.783 -0.3390 -0.4894  0.0766
 1616SOL    HW2 6509   3.386   0.577   2.752  0.1241 -0.2403  0.8331
 1616SOL    HW3 6510   3.313   0.446   2.733 -0.5515  0.2890 -0.2641
 1616SOL    MW4 6511   3.375   0.493   2.772 -0.3064 -0.3538  0.1314
 1617SOL     OW 6512   3.360   0.752   2.678 -0.2565  0.3935 -0.5501
 1617SOL    HW2 6513   3.432   0.810   2.704 -0.8449  1.2020 -0.6976
 1617SOL    HW3 6514   3.361   0.754   2.582 -1.0512  1.1350 -0.5469
 1617SOL    MW4 6515   3.370   0.760   2.669 -0.4389  0.5981 -0.5691
 1618SOL     OW 6516   3.143   0.899   2.738 -0.2719 -0.1550  0.3165
 1618SOL    HW2 6517   3.157   0.909   2.833 -0.4319  1.7234  0.1511
 1618SOL    HW3 6518   3.226   0.863   2.706  0.2632  0.4618  0.9803
 1618SOL    MW4 6519   3.156   0.895   2.747 -0.2224  0.1743  0.3824
 1619SOL     OW 6520   3.149   1.165   2.684  0.2728  0.0642  0.3117
 1619SOL    HW2 6521   3.154   1.072   2.702  0.5137  0.0718  0.2994
 1619SOL    HW3 6522   3.181   1.173   2.594 -0.1807  0.1086  0.1527
 1619SOL    MW4 6523   3.154   1.154   2.674  0.2446  0.0710  0.2890
 1620SOL     OW 6524   3.379   1.265   2.789 -0.6786 -0.0239 -0.0447
 1620SOL    HW2 6525   3.386   1.286   2.882 -0.5774  0.1255 -0.0864
 1620SOL    HW3 6526   3.300   1.211   2.783 -0.1520 -0.8420  0.2752
 1620SOL    MW4 6527   3.370   1.260   2.801 -0.5956 -0.1122 -0.0076
 1621SOL     OW 6528   3.386   1.504   2.639 -0.4248 -0.2931  0.1368
 1621SOL    HW2 6529   3.334   1.568   2.688  2.6843  1.0859  1.8106
 1621SOL    HW3 6530   3.376   1.422   2.687 -1.7010 -0.2442 -0.0392
 1621SOL    MW4 6531   3.378   1.502   2.651 -0.1831 -0.1048  0.3345
 1622SOL     OW 6532   3.208   1.683   2.749 -0.3381  0.0670 -0.4421
 1622SOL    HW2 6533   3.196   1.773   2.718  0.3770  0.0973 -0.6606
 1622SOL    HW3 6534   3.129   1.637   2.723 -1.0048  0.7976  0.2740
 1622SOL    MW4 6535   3.196   1.689   2.741 -0.3316  0.1673 -0.3765
 1623SOL     OW 6536   3.158   1.924   2.638 -0.1633 -0.2257  0.1774
 1623SOL    HW2 6537   3.232   1.959   2.687  0.3862 -0.8820 -0.1647
 1623SOL    HW3 6538   3.081   1.965   2.676  0.3460  0.0747  0.8763
 1623SOL    MW4 6539   3.157   1.934   2.649 -0.0234 -0.2728  0.2244
 1624SOL     OW 6540   3.383   2.022   2.784 -0.1332 -0.0303  0.1890
 1624SOL    HW2 6541   3.360   2.047   2.874 -0.2751 -0.2293  0.2072
 1624SOL    HW3 6542   3.389   2.106   2.737 -0.1820  0.0663  0.3536
 1624SOL    MW4 6543   3.381   2.037   2.790 -0.1583 -0.0436  0.2134
 1625SOL     OW 6544   3.388   2.284   2.650  0.2570  0.1349  0.3298
 1625SOL    HW2 6545   3.462   2.330   2.689 -1.8998  1.7619  2.6714
 1625SOL    HW3 6546   3.396   2.299   2.556  2.2641  1.2067  0.6582
 1625SOL    MW4 6547   3.399   2.292   2.643  0.2372  0.4911  0.6821
 1626SOL     OW 6548   3.177   2.443   2.755 -0.2375 -0.0390  0.0564
 1626SOL    HW2 6549   3.163   2.525   2.708  1.7122  0.6695  0.6812
 1626SOL    HW3 6550   3.258   2.407   2.717 -0.4789 -1.1368  0.5510
 1626SOL    MW4 6551   3.186   2.449   2.744 -0.0119 -0.0901  0.2041
 1627SOL     OW 6552   3.161   2.726   2.638 -0.1491 -0.5984 -0.0787
 1627SOL    HW2 6553   3.232   2.781   2.671  0.1875 -0.9302 -0.2485
 1627SOL    HW3 6554   3.086   2.747   2.694  0.0751 -0.2330  0.0863
 1627SOL    MW4 6555   3.160   2.736   2.650 -0.0751 -0.5939 -0.0796
 1628SOL     OW 6556   3.394   2.852   2.759 -0.3201 -0.4159 -0.1730
 1628SOL    HW2 6557   3.403   2.823   2.850 -2.5466 -0.7200 -0.0415
 1628SOL    HW3 6558   3.473   2.818   2.716  1.4362  0.8922  1.9085
 1628SOL    MW4 6559   3.406   2.844   2.766 -0.3822 -0.2832  0.1190
 1629SOL     OW 6560   3.360   3.097   2.654  0.4897  0.2327  0.0567
 1629SOL    HW2 6561   3.351   3.007   2.683 -0.7408  0.3958  0.2226
 1629SOL    HW3 6562   3.371   3.091   2.559  1.3674 -0.1318  0.1769
 1629SOL    MW4 6563   3.360   3.085   2.645  0.4430  0.2062  0.0944
 1630SOL     OW 6564   3.144   3.216   2.756 -0.1146  0.7349 -0.4564
 1630SOL    HW2 6565   3.215   3.164   2.719 -0.6767 -0.7533  0.4999
 1630SOL    HW3 6566   3.065   3.169   2.731 -0.5912  0.7474  1.0040
 1630SOL    MW4 6567   3.143   3.203   2.748 -0.2515  0.5405 -0.1373
 1631SOL     OW 6568   3.199   3.469   2.660 -0.0355 -0.1601  0.2828
 1631SOL    HW2 6569   3.193   3.377   2.686 -0.4395 -0.5485 -1.1432
 1631SOL    HW3 6570   3.114   3.506   2.685 -0.3111 -0.4583 -0.1949
 1631SOL    MW4 6571   3.187   3.461   2.667 -0.1249 -0.2506  0.0315
 1632SOL     OW 6572   3.415   3.613   2.749 -0.3915 -0.2920  0.0501
 1632SOL    HW2 6573   3.392   3.615   2.842 -1.5031 -1.7041 -0.1631
 1632SOL    HW3 6574   3.349   3.556   2.710 -0.5737  1.1252 -1.7942
 1632SOL    MW4 6575   3.403   3.606   2.756 -0.5624 -0.2913 -0.2215
 1633SOL     OW 6576   3.386   3.872   2.690 -0.2858  0.2743  0.2877
 1633SOL    HW2 6577   3.396   3.782   2.722  0.9335  0.8588  1.5854
 1633SOL    HW3 6578   3.380   3.862   2.595 -1.5281 -1.2814  0.5073
 1633SOL    MW4 6579   3.386   3.859   2.681 -0.2890  0.1464  0.4878
 1634SOL     OW 6580   3.158   4.006   2.770 -0.1594 -0.3500  0.0837
 1634SOL    HW2 6581   3.157   4.089   2.722 -1.1436 -0.6308 -0.3812
 1634SOL    HW3 6582   3.236   3.961   2.737 -0.0452  0.0606 -0.2143
 1634SOL    MW4 6583   3.168   4.011   2.759 -0.2742 -0.3333 -0.0169
 1635SOL     OW 6584   3.174   4.266   2.644 -0.3080 -0.2649 -0.2166
 1635SOL    HW2 6585   3.105   4.326   2.672 -0.4767 -0.1322 -0.9150
 1635SOL    HW3 6586   3.163   4.260   2.549  1.4248  0.7389 -0.4975
 1635SOL    MW4 6587   3.163   4.273   2.635 -0.1016 -0.1144 -0.3457
 1636SOL     OW 6588   3.387   4.331   2.790  0.0180  0.5051 -0.0848
 1636SOL    HW2 6589   3.371   4.340   2.884  0.6599 -0.3728  0.1204
 1636SOL    HW3 6590   3.304   4.298   2.754 -0.0456  0.2797  0.2670
 1636SOL    MW4 6591   3.374   4.328   2.797  0.0942  0.3600 -0.0114
 1637SOL     OW 6592   3.823   4.655   2.643 -0.1168  0.1189 -0.0236
 1637SOL    HW2 6593   3.826   4.574   2.695 -0.9449  0.0216 -0.1145
 1637SOL    HW3 6594   3.753   4.707   2.683 -0.3188  0.3243 -0.6298
 1637SOL    MW4 6595   3.814   4.651   2.655 -0.2527  0.1330 -0.1156
 1638SOL     OW 6596   3.590   0.110   2.739  0.1072 -0.2401  0.0318
 1638SOL    HW2 6597   3.577   0.197   2.702 -0.6122 -1.1516 -1.9622
 1638SOL    HW3 6598   3.518   0.058   2.703  0.8039 -1.7715  0.8107
 1638SOL    MW4 6599   3.579   0.115   2.729  0.1042 -0.5624 -0.1283
 1639SOL     OW 6600   3.601   0.388   2.665 -0.4319  0.5008 -0.0361
 1639SOL    HW2 6601   3.681   0.436   2.690 -0.6700  1.1900 -0.5909
 1639SOL    HW3 6602   3.531   0.432   2.713 -0.2622 -1.2714  1.9272
 1639SOL    MW4 6603   3.603   0.400   2.675 -0.4408  0.3580  0.1497
 1640SOL     OW 6604   3.830   0.511   2.786  0.1933  0.3857  0.3825
 1640SOL    HW2 6605   3.843   0.488   2.879  0.0505 -0.2797  0.2411
 1640SOL    HW3 6606   3.900   0.465   2.740 -1.2715 -1.3857 -0.1273
 1640SOL    MW4 6607   3.841   0.502   2.793 -0.0188  0.0642  0.2964
 1641SOL     OW 6608   3.844   0.778   2.725  0.2675 -0.8899 -0.1136
 1641SOL    HW2 6609   3.761   0.826   2.722  0.1684 -1.1454 -2.2611
 1641SOL    HW3 6610   3.822   0.694   2.764 -0.2456 -0.4935  0.4570
 1641SOL    MW4 6611   3.830   0.773   2.729  0.1867 -0.8713 -0.3221
 1642SOL     OW 6612   3.586   0.904   2.753 -0.4048  0.4420 -0.0006
 1642SOL    HW2 6613   3.625   0.913   2.840 -2.2081  0.5602  0.8176
 1642SOL    HW3 6614   3.580   0.994   2.721  1.6617  0.2865 -0.9084
 1642SOL    MW4 6615   3.591   0.917   2.760 -0.3698  0.4371 -0.0126
 1643SOL     OW 6616   3.588   1.146   2.646 -0.0290 -0.5759  0.0459
 1643SOL    HW2 6617   3.670   1.169   2.691  1.1184 -0.2962 -2.1193
 1643SOL    HW3 6618   3.522   1.203   2.685  1.3830  1.2548 -0.1917
 1643SOL    MW4 6619   3.590   1.156   2.657  0.3085 -0.2974 -0.2708
 1644SOL     OW 6620   3.822   1.253   2.749  0.3042  0.1506 -0.2207
 1644SOL    HW2 6621   3.903   1.215   2.715  0.2105 -0.2825  0.0384
 1644SOL    HW3 6622   3.821   1.343   2.715  1.3896  0.4862  0.6077
 1644SOL    MW4 6623   3.832   1.260   2.740  0.4351  0.1377 -0.0772
 1645SOL     OW 6624   3.813   1.506   2.653  0.3515  0.4322 -0.0886
 1645SOL    HW2 6625   3.886   1.563   2.676  0.4582 -0.2064  1.2072
 1645SOL    HW3 6626   3.735   1.555   2.681  0.4146  0.1906  0.5280
 1645SOL    MW4 6627   3.812   1.520   2.660  0.3738  0.3160  0.1638
 1646SOL     OW 6628   3.623   1.638   2.766 -0.0325 -0.3303  0.2406
 1646SOL    HW2 6629   3.549   1.593   2.724 -2.0192  1.0408  2.1677
 1646SOL    HW3 6630   3.616   1.729   2.737  1.4072 -0.3493 -0.2105
 1646SOL    MW4 6631   3.612   1.644   2.757 -0.1047 -0.1520  0.4356
 1647SOL     OW 6632   3.586   1.876   2.683  0.3033 -0.1573 -0.0206
 1647SOL    HW2 6633   3.511   1.924   2.717  1.0924  1.3483 -0.3770
 1647SOL    HW3 6634   3.585   1.891   2.589  0.0490 -1.5762 -0.2513
 1647SOL    MW4 6635   3.576   1.884   2.675  0.3736 -0.1459 -0.0980
 1648SOL     OW 6636   3.799   2.053   2.754  0.5525 -0.4083 -0.3041
 1648SOL    HW2 6637   3.879   2.014   2.719  1.1593  1.0021 -0.4922
 1648SOL    HW3 6638   3.730   1.991   2.729  1.2918 -0.5949 -1.9504
 1648SOL    MW4 6639   3.801   2.039   2.746  0.7303 -0.2470 -0.5462
 1649SOL     OW 6640   3.799   2.303   2.626 -0.0124  0.0518  0.2727
 1649SOL    HW2 6641   3.792   2.213   2.657 -0.8302  0.1749  0.4390
 1649SOL    HW3 6642   3.815   2.294   2.532 -0.6797 -0.2584  0.1862
 1649SOL    MW4 6643   3.800   2.290   2.618 -0.2084  0.0274  0.2830
 1650SOL     OW 6644   3.617   2.447   2.750 -0.4015  0.2767  0.0648
 1650SOL    HW2 6645   3.615   2.443   2.845  2.0542  0.3191  0.1395
 1650SOL    HW3 6646   3.690   2.392   2.724  0.3322  1.9773 -1.6627
 1650SOL    MW4 6647   3.626   2.439   2.759  0.0193  0.5069 -0.1531
 1651SOL     OW 6648   3.614   2.701   2.617  0.2140  0.2884  0.2656
 1651SOL    HW2 6649   3.608   2.613   2.654 -0.4756 -0.2928 -1.1733
 1651SOL    HW3 6650   3.605   2.688   2.523 -0.1310  1.9219  0.0527
 1651SOL    MW4 6651   3.612   2.688   2.610  0.0777  0.4272  0.0477
 1652SOL     OW 6652   3.836   2.842   2.734  0.2229 -0.3526 -0.2057
 1652SOL    HW2 6653   3.917   2.799   2.704  0.1493 -0.6488  0.0171
 1652SOL    HW3 6654   3.766   2.793   2.691  0.2144  0.9284 -1.7016
 1652SOL    MW4 6655   3.838   2.830   2.724  0.2120 -0.2229 -0.3734
 1653SOL     OW 6656   3.822   3.117   2.616 -0.8585  0.0597  0.2193
 1653SOL    HW2 6657   3.743   3.164   2.644 -1.5975 -0.1889 -1.4275
 1653SOL    HW3 6658   3.817   3.034   2.663 -2.2072 -0.4410 -0.7656
 1653SOL    MW4 6659   3.811   3.113   2.626 -1.1337 -0.0393 -0.1280
 1654SOL     OW 6660   3.595   3.215   2.774  0.0520 -0.5639  0.2918
 1654SOL    HW2 6661   3.601   3.302   2.736 -0.5057 -0.3095  0.7830
 1654SOL    HW3 6662   3.510   3.182   2.745  0.5059 -1.1812 -0.3796
 1654SOL    MW4 6663   3.584   3.222   2.765  0.0386 -0.6120  0.2680
 1655SOL     OW 6664   3.612   3.449   2.647  0.2182  0.5136  0.3258
 1655SOL    HW2 6665   3.690   3.502   2.663  0.3754  0.4724 -0.2822
 1655SOL    HW3 6666   3.541   3.500   2.686  0.3754  1.1599 -0.2241
 1655SOL    MW4 6667   3.613   3.463   2.654  0.2596  0.5934  0.1733
 1656SOL     OW 6668   3.849   3.566   2.742  0.4963 -0.3602  0.3461
 1656SOL    HW2 6669   3.933   3.548   2.700  0.9845 -0.1278  1.2064
 1656SOL    HW3 6670   3.835   3.659   2.729  0.1262 -0.4999 -0.2421
 1656SOL    MW4 6671   3.859   3.576   2.735  0.5119 -0.3479  0.3819
 1657SOL     OW 6672   3.817   3.829   2.646  0.1926 -0.2647  0.2546
 1657SOL    HW2 6673   3.901   3.865   2.675  0.0780  1.0506 -0.9803
 1657SOL    HW3 6674   3.752   3.890   2.681 -0.0496  0.3812 -1.3126
 1657SOL    MW4 6675   3.820   3.842   2.655  0.1457 -0.0060 -0.1154
 1658SOL     OW 6676   3.634   3.985   2.763  0.4056  0.3465 -0.2932
 1658SOL    HW2 6677   3.636   3.989   2.859  2.0682 -0.1701 -0.3056
 1658SOL    HW3 6678   3.544   3.960   2.743 -0.0627  0.8192  1.1171
 1658SOL    MW4 6679   3.622   3.983   2.773  0.5631  0.3405 -0.1090
 1659SOL     OW 6680   3.628   4.237   2.646  0.0283  0.1481  0.2762
 1659SOL    HW2 6681   3.551   4.270   2.691  0.1168  1.8532 -0.7466
 1659SOL    HW3 6682   3.639   4.148   2.678 -2.7428 -0.3592 -0.0705
 1659SOL    MW4 6683   3.620   4.230   2.656 -0.3257  0.3061  0.0956
 1660SOL     OW 6684   3.832   4.395   2.752  0.2287  0.0886 -0.2593
 1660SOL    HW2 6685   3.908   4.348   2.715  0.8611  0.6426  0.3160
 1660SOL    HW3 6686   3.757   4.342   2.727  0.9094 -1.0948  0.1281
 1660SOL    MW4 6687   3.832   4.382   2.744  0.4020  0.0052 -0.1323
 1661SOL     OW 6688   4.302   4.641   2.671  0.1805  0.5716 -0.3466
 1661SOL    HW2 6689   4.378   4.694   2.694 -0.0943  1.0549 -0.5678
 1661SOL    HW3 6690   4.226   4.693   2.697 -0.1204  0.7649 -1.5663
 1661SOL    MW4 6691   4.302   4.655   2.677  0.1044  0.6609 -0.5364
 1662SOL     OW 6692   4.066   0.119   2.741  0.0395  0.1595  0.0778
 1662SOL    HW2 6693   4.053   0.127   2.835 -0.1342  2.6695 -0.1374
 1662SOL    HW3 6694   3.989   0.071   2.710 -0.0815 -0.3525  1.1612
 1662SOL    MW4 6695   4.054   0.114   2.749  0.0005  0.4231  0.1924
 1663SOL     OW 6696   4.032   0.370   2.657  0.3521 -0.7214  0.2660
 1663SOL    HW2 6697   4.016   0.285   2.699 -0.6267 -0.9202 -0.4969
 1663SOL    HW3 6698   4.019   0.354   2.564  0.4812  0.1924  0.0824
 1663SOL    MW4 6699   4.028   0.357   2.650  0.2398 -0.6270  0.1409
 1664SOL     OW 6700   4.225   0.481   2.826  0.1267  0.1807  0.3350
 1664SOL    HW2 6701   4.169   0.437   2.762 -0.1109  0.4699  0.3427
 1664SOL    HW3 6702   4.314   0.460   2.799  0.0262  0.2736 -0.0712
 1664SOL    MW4 6703   4.229   0.473   2.814  0.0820  0.2311  0.2825
 1665SOL     OW 6704   4.305   0.730   2.699 -0.7249 -0.4557 -0.1050
 1665SOL    HW2 6705   4.279   0.649   2.743 -0.5561  0.0346  0.9140
 1665SOL    HW3 6706   4.297   0.710   2.606 -1.8864 -1.2550  0.1504
 1665SOL    MW4 6707   4.300   0.717   2.693 -0.8554 -0.4964  0.0632
 1666SOL     OW 6708   4.091   0.895   2.786 -0.4340  0.2407  0.0759
 1666SOL    HW2 6709   4.167   0.845   2.755  0.7535  2.1025 -0.1327
 1666SOL    HW3 6710   4.017   0.837   2.773  0.5554 -0.4814 -2.6278
 1666SOL    MW4 6711   4.091   0.881   2.780 -0.1469  0.3911 -0.3088
 1667SOL     OW 6712   4.054   1.145   2.650 -0.1607 -0.2736  0.0674
 1667SOL    HW2 6713   4.138   1.179   2.680 -0.0347 -1.5050  1.1860
 1667SOL    HW3 6714   4.049   1.057   2.689 -1.4875 -0.6155 -0.8522
 1667SOL    MW4 6715   4.064   1.138   2.659 -0.3195 -0.4811  0.0937
 1668SOL     OW 6716   4.295   1.271   2.759  0.1042  0.3246 -0.1229
 1668SOL    HW2 6717   4.302   1.359   2.722 -1.0891 -0.3098 -1.9322
 1668SOL    HW3 6718   4.374   1.227   2.729  0.5903  0.6937  0.5931
 1668SOL    MW4 6719   4.306   1.277   2.750  0.0114  0.2897 -0.2668
 1669SOL     OW 6720   4.263   1.531   2.658 -0.6181  0.6574  0.3899
 1669SOL    HW2 6721   4.337   1.583   2.690 -0.5475  0.3448  0.7319
 1669SOL    HW3 6722   4.258   1.553   2.564  0.8635 -0.4631  0.0271
 1669SOL    MW4 6723   4.272   1.541   2.650 -0.4125  0.4683  0.3872
 1670SOL     OW 6724   4.023   1.640   2.772  0.2852  0.2226  0.1952
 1670SOL    HW2 6725   4.032   1.677   2.860  0.6433  1.0591 -0.1898
 1670SOL    HW3 6726   4.112   1.616   2.747  0.0738 -0.7638  0.3811
 1670SOL    MW4 6727   4.036   1.642   2.780  0.3042  0.2029  0.1690
 1671SOL     OW 6728   4.012   1.908   2.667 -0.4832  0.0208  0.2904
 1671SOL    HW2 6729   4.079   1.960   2.711  0.0472 -0.6897  0.3198
 1671SOL    HW3 6730   4.016   1.822   2.708 -0.2176 -0.5501 -0.9028
 1671SOL    MW4 6731   4.021   1.904   2.678 -0.3777 -0.1483  0.1371
 1672SOL     OW 6732   4.213   2.070   2.779 -0.0955 -0.0772 -0.0320
 1672SOL    HW2 6733   4.233   2.157   2.744  0.9278 -0.3104 -0.0531
 1672SOL    HW3 6734   4.285   2.015   2.748 -1.5991 -1.3186 -1.4060
 1672SOL    MW4 6735   4.225   2.074   2.770 -0.1588 -0.2718 -0.2162
 1673SOL     OW 6736   4.256   2.320   2.687  0.0384 -0.1166 -0.1992
 1673SOL    HW2 6737   4.165   2.349   2.676  0.2152  0.3862 -0.3635
 1673SOL    HW3 6738   4.283   2.296   2.598  0.3372  0.5517 -0.2926
 1673SOL    MW4 6739   4.247   2.321   2.673  0.1011  0.0381 -0.2332
 1674SOL     OW 6740   4.023   2.464   2.685 -0.4813  0.2191  0.2053
 1674SOL    HW2 6741   4.044   2.478   2.777  0.6068 -1.2688  0.2078
 1674SOL    HW3 6742   3.937   2.423   2.685 -0.4843  0.2296  0.5656
 1674SOL    MW4 6743   4.015   2.461   2.697 -0.3381  0.0241  0.2532
 1675SOL     OW 6744   4.068   2.723   2.609 -0.2000 -0.0589 -0.5670
 1675SOL    HW2 6745   4.150   2.752   2.648 -1.2098  1.2196  0.6362
 1675SOL    HW3 6746   4.057   2.633   2.639 -0.2322  0.4346  0.9323
 1675SOL    MW4 6747   4.077   2.715   2.618 -0.3376  0.1748 -0.2103
 1676SOL     OW 6748   4.286   2.840   2.733  0.1031 -0.0707 -0.2644
 1676SOL    HW2 6749   4.278   2.841   2.828 -1.4837 -1.1080 -0.3752
 1676SOL    HW3 6750   4.296   2.932   2.709  0.7764  0.1666  0.9298
 1676SOL    MW4 6751   4.286   2.853   2.742 -0.0176 -0.1762 -0.1216
 1677SOL     OW 6752   4.283   3.093   2.665 -0.1610  0.4704  0.0744
 1677SOL    HW2 6753   4.199   3.126   2.696 -0.7168 -0.9764  0.1774
 1677SOL    HW3 6754   4.281   3.107   2.570 -0.2455  1.0340  0.1605
 1677SOL    MW4 6755   4.271   3.099   2.656 -0.2451  0.3538  0.0992
 1678SOL     OW 6756   4.077   3.474   2.633 -0.2225 -0.1454 -0.1570
 1678SOL    HW2 6757   4.144   3.533   2.668  0.8974 -0.1679 -2.2156
 1678SOL    HW3 6758   4.077   3.490   2.539 -0.9659 -2.3633 -0.5612
 1678SOL    MW4 6759   4.085   3.484   2.625 -0.1731 -0.4411 -0.4818
 1679SOL     OW 6760   4.067   3.478   2.355  0.2116  0.1840 -0.4366
 1679SOL    HW2 6761   4.137   3.529   2.315  0.5559 -0.1778 -0.2937
 1679SOL    HW3 6762   3.987   3.525   2.332  0.5022  0.6060 -0.5828
 1679SOL    MW4 6763   4.066   3.491   2.347  0.2961  0.1919 -0.4370
 1680SOL     OW 6764   4.261   3.662   2.721 -0.1090  0.0024  0.3179
 1680SOL    HW2 6765   4.268   3.681   2.815  0.0856  0.9764  0.1080
 1680SOL    HW3 6766   4.343   3.619   2.699  0.2042  0.5493  0.4122
 1680SOL    MW4 6767   4.273   3.659   2.731 -0.0415  0.2029  0.3026
 1681SOL     OW 6768   4.270   3.935   2.637  0.0141  0.3326 -0.3262
 1681SOL    HW2 6769   4.350   3.966   2.680  0.7324 -0.2539 -1.2169
 1681SOL    HW3 6770   4.266   3.842   2.659 -0.5890  0.4160 -0.0540
 1681SOL    MW4 6771   4.280   3.927   2.646  0.0291  0.2663 -0.4077
 1682SOL     OW 6772   4.037   3.992   2.753  0.0143 -0.2471 -0.4906
 1682SOL    HW2 6773   4.051   3.998   2.847 -1.5409  1.8753 -0.3570
 1682SOL    HW3 6774   4.122   3.969   2.717  0.8422 -0.1194  1.3541
 1682SOL    MW4 6775   4.050   3.990   2.761 -0.0820  0.0498 -0.2296
 1683SOL     OW 6776   4.059   4.254   2.654  0.2244 -0.1304 -0.5173
 1683SOL    HW2 6777   4.057   4.165   2.688  1.1562 -0.0450 -0.2246
 1683SOL    HW3 6778   4.039   4.245   2.561  2.7388 -0.9179 -1.0019
 1683SOL    MW4 6779   4.056   4.241   2.646  0.6790 -0.2232 -0.5426
 1684SOL     OW 6780   4.260   4.383   2.798  0.1010  0.3983  0.4288
 1684SOL    HW2 6781   4.193   4.333   2.752  2.2428 -0.4394 -1.9157
 1684SOL    HW3 6782   4.273   4.461   2.744  0.5804  0.8514  1.1888
 1684SOL    MW4 6783   4.253   4.386   2.784  0.4468  0.3476  0.2196
 1685SOL     OW 6784   0.237   0.002   3.101  0.0704  0.1121  0.6435
 1685SOL    HW2 6785   0.247  -0.001   3.196 -0.7978 -0.3501  0.7266
 1685SOL    HW3 6786   0.156   0.052   3.087  1.7507  2.7751  0.0356
 1685SOL    MW4 6787   0.228   0.008   3.112  0.1776  0.4020  0.5744
 1686SOL     OW 6788   4.489   0.124   3.051 -0.2318 -0.1586 -0.0939
 1686SOL    HW2 6789   4.402   0.096   3.081 -0.9658  0.6240 -1.4275
 1686SOL    HW3 6790   4.497   0.214   3.083 -0.2335  0.0241 -0.5942
 1686SOL    MW4 6791   4.479   0.132   3.059 -0.3288 -0.0312 -0.3362
 1687SOL     OW 6792   0.007   0.382   3.151 -0.2150 -0.1947  0.1942
 1687SOL    HW2 6793   0.007   0.377   3.246 -1.8182  0.1434  0.2225
 1687SOL    HW3 6794  -0.080   0.415   3.128 -0.2253 -1.2857 -1.4362
 1687SOL    MW4 6795  -0.004   0.386   3.160 -0.4279 -0.2941 -0.0172
 1688SOL     OW 6796   0.217   0.548   3.050 -0.5358 -0.4910  0.3147
 1688SOL    HW2 6797   0.296   0.500   3.076 -0.1404  0.5407  1.0801
 1688SOL    HW3 6798   0.147   0.509   3.101 -0.7907 -2.3362 -1.3751
 1688SOL    MW4 6799   0.218   0.537   3.060 -0.5173 -0.5983  0.1929
 1689SOL     OW 6800   0.240   0.826   3.139  0.4642  0.2728  0.1182
 1689SOL    HW2 6801   0.223   0.813   3.232 -2.0782 -0.5728 -0.4334
 1689SOL    HW3 6802   0.239   0.739   3.101 -0.2010  0.7349 -0.9616
 1689SOL    MW4 6803   0.237   0.813   3.146  0.0410  0.2222 -0.0973
 1690SOL     OW 6804   4.488   0.939   3.070  0.1893 -0.3586  0.0953
 1690SOL    HW2 6805   4.574   0.899   3.082 -0.1170 -1.3166 -0.7705
 1690SOL    HW3 6806   4.475   0.938   2.975 -0.3003  0.8079  0.1399
 1690SOL    MW4 6807   4.498   0.934   3.059  0.0843 -0.3310 -0.0129
 1691SOL     OW 6808   0.005   1.200   3.193 -0.3142  0.1943 -0.2507
 1691SOL    HW2 6809  -0.070   1.240   3.149 -0.3693  0.5280  0.1426
 1691SOL    HW3 6810   0.017   1.117   3.148 -0.6934  0.2995 -0.5562
 1691SOL    MW4 6811  -0.004   1.194   3.181 -0.3715  0.2521 -0.2387
 1692SOL     OW 6812   0.248   1.341   3.092  0.5499 -0.4033  0.4215
 1692SOL    HW2 6813   0.165   1.302   3.121  0.1805  0.6370  0.7825
 1692SOL    HW3 6814   0.243   1.339   2.997 -0.3787  0.6569  0.4331
 1692SOL    MW4 6815   0.236   1.335   3.083  0.3786 -0.1260  0.4704
 1693SOL     OW 6816   0.259   1.610   3.193  0.1379  0.4632 -0.1613
 1693SOL    HW2 6817   0.188   1.662   3.157 -0.0104 -0.1711 -0.8040
 1693SOL    HW3 6818   0.251   1.525   3.150  1.1931  0.3383 -0.1458
 1693SOL    MW4 6819   0.249   1.606   3.182  0.2575  0.3630 -0.2441
 1694SOL     OW 6820   0.036   1.727   3.033  0.0656  0.2870  0.0039
 1694SOL    HW2 6821  -0.033   1.668   3.065  0.0884 -0.0564 -0.5713
 1694SOL    HW3 6822   0.017   1.811   3.075  0.3847 -0.2754  1.3027
 1694SOL    MW4 6823   0.024   1.730   3.043  0.1108  0.1676  0.0994
 1695SOL     OW 6824   4.484   1.966   3.154 -0.1353 -0.0047  0.0135
 1695SOL    HW2 6825   4.404   2.017   3.147 -0.1099  0.1409  0.7233
 1695SOL    HW3 6826   4.553   2.023   3.120 -0.3733 -0.2306 -0.8445
 1695SOL    MW4 6827   4.483   1.980   3.149 -0.1631 -0.0153 -0.0057
 1696SOL     OW 6828   0.222   2.080   3.072 -0.4155 -0.1626 -0.2105
 1696SOL    HW2 6829   0.227   2.173   3.094 -0.5841 -0.1780 -0.1079
 1696SOL    HW3 6830   0.206   2.079   2.977  1.3090 -0.1124 -0.5189
 1696SOL    MW4 6831   0.221   2.092   3.062 -0.2102 -0.1581 -0.2379
 1697SOL     OW 6832   0.231   2.358   3.157 -0.6034  0.0994  0.1755
 1697SOL    HW2 6833   0.230   2.338   3.251 -1.2239  0.7578  0.3126
 1697SOL    HW3 6834   0.315   2.402   3.143 -1.0497  1.1143  0.6595
 1697SOL    MW4 6835   0.242   2.361   3.167 -0.7441  0.3200  0.2577
 1698SOL     OW 6836   0.002   2.471   3.054 -0.1333 -0.2273  0.1308
 1698SOL    HW2 6837  -0.003   2.560   3.090 -0.7241 -0.2994  0.2261
 1698SOL    HW3 6838   0.084   2.436   3.089 -0.2961 -0.0061  0.7475
 1698SOL    MW4 6839   0.012   2.478   3.063 -0.2328 -0.2074  0.2248
 1699SOL     OW 6840   0.015   2.739   3.133 -0.6329 -0.0591  0.3052
 1699SOL    HW2 6841   0.024   2.751   3.227  0.8396 -0.5636  0.2340
 1699SOL    HW3 6842   0.085   2.792   3.095 -0.9610 -0.1821 -0.4844
 1699SOL    MW4 6843   0.025   2.748   3.140 -0.4821 -0.1419  0.1917
 1700SOL     OW 6844   0.478   2.744   3.118  0.3460  0.2947  0.0080
 1700SOL    HW2 6845   0.498   2.658   3.081 -1.5577  0.1026 -0.6235
 1700SOL    HW3 6846   0.543   2.803   3.079 -0.1718 -0.3310 -1.8577
 1700SOL    MW4 6847   0.489   2.740   3.108  0.0266  0.1869 -0.3216
 1701SOL     OW 6848   0.229   2.881   3.025  0.4652  0.2979  0.0327
 1701SOL    HW2 6849   0.232   2.875   2.929 -0.3511  1.1775 -0.0616
 1701SOL    HW3 6850   0.297   2.822   3.055  0.7690  0.0559 -1.1002
 1701SOL    MW4 6851   0.238   2.872   3.016  0.3976  0.3822 -0.1290
 1702SOL     OW 6852   4.297   3.111   3.075 -0.3868  0.4349 -0.0063
 1702SOL    HW2 6853   4.289   3.102   3.170  2.2861  0.9955  0.3064
 1702SOL    HW3 6854   4.284   3.022   3.041  0.7027 -0.1418  1.0592
 1702SOL    MW4 6855   4.294   3.098   3.083  0.1097  0.4330  0.1755
 1703SOL     OW 6856   0.014   3.276   3.007  0.0121 -0.3584 -0.3014
 1703SOL    HW2 6857  -0.057   3.223   3.042  0.0962 -0.5254 -0.3858
 1703SOL    HW3 6858   0.022   3.250   2.915 -0.6414  0.5454 -0.6210
 1703SOL    MW4 6859   0.006   3.266   3.000 -0.0629 -0.2613 -0.3548
 1704SOL     OW 6860   0.196   3.928   3.131  0.0771 -0.1034 -0.1242
 1704SOL    HW2 6861   0.193   3.927   3.227 -1.1078  0.1305 -0.1516
 1704SOL    HW3 6862   0.280   3.969   3.110  0.8164 -1.1190  0.8151
 1704SOL    MW4 6863   0.206   3.933   3.141  0.0183 -0.2065 -0.0041
 1705SOL     OW 6864   0.194   3.672   3.034 -0.1165  0.0773  0.1483
 1705SOL    HW2 6865   0.211   3.742   3.096  1.0667 -0.0773  0.0137
 1705SOL    HW3 6866   0.124   3.620   3.074  1.9382 -1.1291  2.2783
 1705SOL    MW4 6867   0.187   3.674   3.048  0.3107 -0.1028  0.4115
 1706SOL     OW 6868   4.446   4.040   3.093  0.1276 -0.3182  0.1237
 1706SOL    HW2 6869   4.531   3.996   3.097  0.6127  0.7042  1.4289
 1706SOL    HW3 6870   4.429   4.053   3.000  1.3024 -0.7071 -0.1482
 1706SOL    MW4 6871   4.455   4.036   3.081  0.3462 -0.2346  0.2601
 1707SOL     OW 6872   4.485   4.296   3.171 -0.1255  0.3436 -0.2044
 1707SOL    HW2 6873   4.482   4.296   3.267  3.2070  0.4362 -0.0538
 1707SOL    HW3 6874   4.480   4.204   3.147  0.0656  0.2484  0.1159
 1707SOL    MW4 6875   4.484   4.284   3.180  0.3395  0.3428 -0.1423
 1708SOL     OW 6876   0.193   4.404   3.003  0.0406  0.6240  0.0540
 1708SOL    HW2 6877   0.117   4.367   3.049  0.6387  0.2100  0.7200
 1708SOL    HW3 6878   0.185   4.498   3.016 -1.2646  0.7166 -1.2932
 1708SOL    MW4 6879   0.182   4.411   3.011 -0.0527  0.5817 -0.0360
 1709SOL     OW 6880   0.688   0.003   3.136 -0.2171 -0.0422 -0.6801
 1709SOL    HW2 6881   0.671  -0.083   3.097  1.7936  0.4529 -2.7653
 1709SOL    HW3 6882   0.623   0.060   3.096 -1.2550 -0.4906  0.3531
 1709SOL    MW4 6883   0.677  -0.001   3.125 -0.0888 -0.0360 -0.8187
 1710SOL     OW 6884   0.475   0.139   3.015  0.3169  0.1585  0.0319
 1710SOL    HW2 6885   0.460   0.223   3.058  1.0786  0.5471 -0.4473
 1710SOL    HW3 6886   0.406   0.082   3.048 -0.1671  0.9596  0.4036
 1710SOL    MW4 6887   0.464   0.142   3.025  0.3535  0.3155  0.0179
 1711SOL     OW 6888   0.442   0.406   3.132 -0.1860  0.3683 -0.0878
 1711SOL    HW2 6889   0.454   0.400   3.227  0.6678  0.5197 -0.1800
 1711SOL    HW3 6890   0.517   0.458   3.102  0.4239 -1.0150 -1.0344
 1711SOL    MW4 6891   0.454   0.412   3.141  0.0071  0.2058 -0.2248
 1712SOL     OW 6892   0.659   0.536   3.042 -0.1300  0.3390  0.3423
 1712SOL    HW2 6893   0.742   0.491   3.060  0.4175  0.1857 -2.2820
 1712SOL    HW3 6894   0.661   0.613   3.098  1.2819 -0.2363  1.1320
 1712SOL    MW4 6895   0.671   0.540   3.052  0.1286  0.2428  0.1001
 1713SOL     OW 6896   0.681   0.774   3.163  0.6702  0.1280  0.2825
 1713SOL    HW2 6897   0.703   0.787   3.255 -1.8309 -0.1569  0.9534
 1713SOL    HW3 6898   0.619   0.844   3.143  0.2640 -0.5422 -0.8488
 1713SOL    MW4 6899   0.676   0.785   3.172  0.2866  0.0020  0.2217
 1714SOL     OW 6900   0.478   0.972   3.085 -0.1640 -0.1272  0.2981
 1714SOL    HW2 6901   0.397   0.922   3.093  0.2666 -0.8346  0.2587
 1714SOL    HW3 6902   0.495   0.974   2.991  0.1607 -0.4627  0.3477
 1714SOL    MW4 6903   0.470   0.966   3.074 -0.0643 -0.2648  0.2995
 1715SOL     OW 6904   0.459   1.220   3.217 -0.0489  0.6343 -0.0728
 1715SOL    HW2 6905   0.464   1.139   3.168  1.1034  0.8821 -0.3869
 1715SOL    HW3 6906   0.387   1.269   3.177 -1.4362 -0.6660  0.8048
 1715SOL    MW4 6907   0.450   1.216   3.205 -0.0799  0.4954  0.0017
 1716SOL     OW 6908   0.679   1.323   3.085 -0.3935  0.0851 -0.1248
 1716SOL    HW2 6909   0.748   1.258   3.090  0.8216  1.2561 -1.1360
 1716SOL    HW3 6910   0.607   1.287   3.136  1.1111 -0.9690  1.2808
 1716SOL    MW4 6911   0.678   1.310   3.092 -0.0346  0.1006 -0.0730
 1717SOL     OW 6912   0.695   1.577   3.186 -0.2529 -0.5563  0.1850
 1717SOL    HW2 6913   0.712   1.568   3.280  0.1964 -0.3392  0.1243
 1717SOL    HW3 6914   0.695   1.487   3.153 -0.6218 -0.6493  0.4253
 1717SOL    MW4 6915   0.697   1.564   3.194 -0.2422 -0.5399  0.2086
 1718SOL     OW 6916   0.475   1.687   3.047 -0.0371  0.3144 -0.2765
 1718SOL    HW2 6917   0.553   1.668   3.098  0.5978 -1.2609 -1.7606
 1718SOL    HW3 6918   0.402   1.672   3.107  0.7434 -0.1283  0.5659
 1718SOL    MW4 6919   0.475   1.682   3.061  0.1496  0.0480 -0.3612
 1719SOL     OW 6920   0.455   1.939   3.163  0.1763  0.1376  0.2914
 1719SOL    HW2 6921   0.457   1.861   3.108 -0.9821  0.1888  0.1550
 1719SOL    HW3 6922   0.382   1.990   3.128  0.1233  0.6795  1.1871
 1719SOL    MW4 6923   0.446   1.935   3.151  0.0165  0.2159  0.3915
 1720SOL     OW 6924   0.674   2.062   3.020  0.4246 -0.3909  0.3213
 1720SOL    HW2 6925   0.754   2.012   3.037  0.4188 -0.4026  0.3152
 1720SOL    HW3 6926   0.605   2.014   3.065  0.3476 -0.6285 -0.0500
 1720SOL    MW4 6927   0.676   2.049   3.028  0.4137 -0.4239  0.2716
 1721SOL     OW 6928   0.742   2.315   3.143 -0.3895  0.2472 -0.1290
 1721SOL    HW2 6929   0.708   2.303   3.232  0.3511  0.0084  0.1213
 1721SOL    HW3 6930   0.733   2.228   3.102  0.7924 -0.0543  0.2409
 1721SOL    MW4 6931   0.736   2.302   3.149 -0.1358  0.1760 -0.0472
 1722SOL     OW 6932   0.450   2.477   2.803 -0.1128  0.2080  0.4270
 1722SOL    HW2 6933   0.513   2.417   2.762  0.0158  1.0894 -0.6727
 1722SOL    HW3 6934   0.464   2.561   2.759 -0.9684  0.8103  1.2794
 1722SOL    MW4 6935   0.460   2.480   2.792 -0.2087  0.4036  0.3943
 1723SOL     OW 6936   0.495   2.473   3.063  0.5072 -0.3129  0.2595
 1723SOL    HW2 6937   0.572   2.420   3.082  2.1101  1.6364 -0.6097
 1723SOL    HW3 6938   0.480   2.463   2.969 -0.5161 -0.9231  0.4725
 1723SOL    MW4 6939   0.503   2.465   3.053  0.5837 -0.1359  0.1731
 1724SOL     OW 6940   0.685   2.878   3.012  0.1338  0.5379 -0.2555
 1724SOL    HW2 6941   0.744   2.818   3.058 -2.2795 -1.1560  0.6958
 1724SOL    HW3 6942   0.689   2.959   3.063  1.0855  0.2100  0.2109
 1724SOL    MW4 6943   0.694   2.881   3.025 -0.0590  0.2711 -0.0687
 1725SOL     OW 6944   0.712   3.138   3.128 -0.4392 -0.5940 -0.1148
 1725SOL    HW2 6945   0.709   3.123   3.223  2.1687  0.3576  0.1708
 1725SOL    HW3 6946   0.645   3.205   3.113 -1.4250 -1.3228  0.9294
 1725SOL    MW4 6947   0.703   3.145   3.139 -0.2252 -0.5646  0.0608
 1726SOL     OW 6948   0.484   3.274   3.011 -0.8440 -0.0908 -0.2504
 1726SOL    HW2 6949   0.468   3.363   3.043 -1.3198  0.0137 -0.7762
 1726SOL    HW3 6950   0.404   3.226   3.032 -1.3658  0.1075 -1.7239
 1726SOL    MW4 6951   0.472   3.279   3.018 -0.9756 -0.0510 -0.5145
 1727SOL     OW 6952   0.434   3.533   3.081 -0.4980  0.3760  0.5170
 1727SOL    HW2 6953   0.434   3.524   3.176 -1.1514 -0.3890  0.4546
 1727SOL    HW3 6954   0.348   3.570   3.061  0.1277  1.7562  0.3222
 1727SOL    MW4 6955   0.423   3.537   3.091 -0.5016  0.4570  0.4830
 1728SOL     OW 6956   0.659   3.671   2.998 -0.3606 -0.2879  0.0760
 1728SOL    HW2 6957   0.728   3.615   3.034 -0.9478 -0.3521  1.1170
 1728SOL    HW3 6958   0.578   3.623   3.013 -0.7385  0.2397 -0.2303
 1728SOL    MW4 6959   0.657   3.657   3.005 -0.4879 -0.2267  0.1726
 1729SOL     OW 6960   0.685   3.911   3.153  0.3373 -0.2450 -0.5357
 1729SOL    HW2 6961   0.677   3.896   3.247  0.1852 -0.5375 -0.5948
 1729SOL    HW3 6962   0.689   3.823   3.115 -0.5919 -0.1442 -0.8835
 1729SOL    MW4 6963   0.685   3.897   3.160  0.1946 -0.2701 -0.5896
 1730SOL     OW 6964   0.435   4.023   3.073  0.0503 -0.5790 -0.6042
 1730SOL    HW2 6965   0.512   3.990   3.118  0.5069  1.2296 -0.0462
 1730SOL    HW3 6966   0.453   4.008   2.980  1.3101  0.3345 -0.5098
 1730SOL    MW4 6967   0.447   4.016   3.066  0.2767 -0.2193 -0.5181
 1731SOL     OW 6968   0.393   4.282   3.153  0.5553 -0.5301  0.0390
 1731SOL    HW2 6969   0.394   4.195   3.114 -0.0453 -0.8880  0.7886
 1731SOL    HW3 6970   0.320   4.327   3.111  2.4953  0.5656 -2.2996
 1731SOL    MW4 6971   0.384   4.276   3.143  0.7320 -0.4325 -0.1705
 1732SOL     OW 6972   0.631   4.398   3.050 -0.2882 -0.5402  0.2219
 1732SOL    HW2 6973   0.541   4.386   3.083 -1.0709 -1.0625 -1.9912
 1732SOL    HW3 6974   0.624   4.378   2.956  2.3648 -1.6333  0.2253
 1732SOL    MW4 6975   0.618   4.393   3.042 -0.0414 -0.7529 -0.0696
 1733SOL     OW 6976   1.129   4.665   3.167  0.1824 -0.2993  0.3151
 1733SOL    HW2 6977   1.191   4.707   3.108  0.4957 -1.1582  0.0421
 1733SOL    HW3 6978   1.043   4.691   3.133  0.3718  0.8876  0.6945
 1733SOL    MW4 6979   1.126   4.674   3.155  0.2487 -0.2560  0.3290
 1734SOL     OW 6980   0.915   0.122   3.050  0.7570 -0.3660  0.2467
 1734SOL    HW2 6981   0.909   0.210   3.087  1.1969  0.6817 -2.1061
 1734SOL    HW3 6982   0.842   0.074   3.089  0.2532  1.1727  1.2141
 1734SOL    MW4 6983   0.905   0.127   3.060  0.7485 -0.0248  0.0639
 1735SOL     OW 6984   0.892   0.406   3.144 -0.1046  0.6728 -0.2505
 1735SOL    HW2 6985   0.897   0.388   3.238 -0.8547 -2.0787 -0.7108
 1735SOL    HW3 6986   0.981   0.435   3.120  0.9185 -1.5862  0.7193
 1735SOL    MW4 6987   0.905   0.408   3.153 -0.0686  0.0117 -0.1836
 1736SOL     OW 6988   1.141   0.482   3.063  0.1264  0.1380  0.0284
 1736SOL    HW2 6989   1.215   0.437   3.104  1.1223  0.7870 -1.0627
 1736SOL    HW3 6990   1.143   0.455   2.971 -1.1444 -0.0392  0.0338
 1736SOL    MW4 6991   1.151   0.472   3.056  0.0902  0.2003 -0.1147
 1737SOL     OW 6992   1.135   0.758   3.151 -0.2732 -0.1005  0.2948
 1737SOL    HW2 6993   1.137   0.766   3.246 -2.5190 -0.4477  0.4091
 1737SOL    HW3 6994   1.128   0.664   3.135  1.4631 -0.1499 -0.2756
 1737SOL    MW4 6995   1.134   0.746   3.162 -0.3405 -0.1528  0.2348
 1738SOL     OW 6996   0.929   0.892   3.003 -0.2883  0.0638 -0.3163
 1738SOL    HW2 6997   1.009   0.855   3.041  0.4876  2.0626  0.0558
 1738SOL    HW3 6998   0.858   0.861   3.060  0.3536 -0.7051  0.0754
 1738SOL    MW4 6999   0.930   0.883   3.015 -0.1011  0.2261 -0.2153
 1739SOL     OW 7000   0.908   1.142   3.136 -0.1623 -0.2197  0.2072
 1739SOL    HW2 7001   0.981   1.201   3.118 -0.7460  0.4299 -0.0415
 1739SOL    HW3 7002   0.921   1.069   3.076  1.0579 -0.7863  1.1319
 1739SOL    MW4 7003   0.919   1.140   3.126 -0.0783 -0.2087  0.2966
 1740SOL     OW 7004   1.144   1.319   3.090  0.6199  0.5708 -0.0612
 1740SOL    HW2 7005   1.220   1.272   3.124  0.0450 -0.3422 -0.0199
 1740SOL    HW3 7006   1.147   1.306   2.996  0.4774  0.4706 -0.0529
 1740SOL    MW4 7007   1.154   1.311   3.082  0.5254  0.4371 -0.0546
 1741SOL     OW 7008   1.122   1.574   3.185 -0.6579  0.2996  0.6489
 1741SOL    HW2 7009   1.199   1.612   3.143 -0.5209  0.3909  0.9794
 1741SOL    HW3 7010   1.122   1.483   3.158 -0.1518  0.1804  1.0567
 1741SOL    MW4 7011   1.132   1.567   3.176 -0.5729  0.2960  0.7463
 1742SOL     OW 7012   0.903   1.682   3.036  0.7474  0.2650 -0.0690
 1742SOL    HW2 7013   0.975   1.651   3.090  0.2805  0.1638  0.5135
 1742SOL    HW3 7014   0.825   1.644   3.077  0.5270 -1.4299 -1.9743
 1742SOL    MW4 7015   0.902   1.673   3.049  0.6567  0.0280 -0.2432
 1743SOL     OW 7016   0.897   1.947   3.109  0.4842  0.4048 -0.1895
 1743SOL    HW2 7017   0.903   1.944   3.205  1.2103  2.5453 -0.1354
 1743SOL    HW3 7018   0.899   1.855   3.082  1.0662 -0.1981  1.8092
 1743SOL    MW4 7019   0.898   1.934   3.118  0.6568  0.6077  0.0813
 1744SOL     OW 7020   1.124   2.088   3.042  0.1583  0.2582 -0.3229
 1744SOL    HW2 7021   1.048   2.034   3.064  0.2371  0.3779  0.2433
 1744SOL    HW3 7022   1.132   2.080   2.947 -0.1052 -0.3621 -0.2949
 1744SOL    MW4 7023   1.115   2.079   3.032  0.1338  0.1919 -0.2444
 1745SOL     OW 7024   1.163   2.333   3.129 -0.0758  0.2402 -0.4573
 1745SOL    HW2 7025   1.086   2.372   3.088  0.3181  0.6207 -0.8433
 1745SOL    HW3 7026   1.158   2.240   3.107  0.6066  0.5774 -2.1591
 1745SOL    MW4 7027   1.152   2.326   3.121  0.0660  0.3347 -0.7329
 1746SOL     OW 7028   0.935   2.464   3.025 -0.2895 -0.0083  0.0538
 1746SOL    HW2 7029   0.875   2.402   3.067  0.7411 -1.2973 -0.3924
 1746SOL    HW3 7030   0.922   2.451   2.931 -0.6989  1.0730 -0.0525
 1746SOL    MW4 7031   0.925   2.454   3.018 -0.2075 -0.0355 -0.0191
 1747SOL     OW 7032   0.886   2.726   3.115  0.0672  0.5885 -0.3712
 1747SOL    HW2 7033   0.870   2.706   3.207 -1.2217 -1.8209 -1.0888
 1747SOL    HW3 7034   0.899   2.641   3.073  1.3197  1.6820 -2.3156
 1747SOL    MW4 7035   0.886   2.712   3.121  0.0625  0.4148 -0.7224
 1748SOL     OW 7036   1.117   2.872   2.993 -0.0873  0.0266  0.3448
 1748SOL    HW2 7037   1.123   2.958   3.034 -0.0008 -0.8939  2.2883
 1748SOL    HW3 7038   1.035   2.835   3.027  0.2927 -0.9907  0.1728
 1748SOL    MW4 7039   1.107   2.878   3.003 -0.0256 -0.2291  0.5786
 1749SOL     OW 7040   1.165   3.113   3.100 -0.1756  0.1748 -0.3998
 1749SOL    HW2 7041   1.246   3.161   3.083 -0.0021 -0.2764 -0.8750
 1749SOL    HW3 7042   1.095   3.171   3.070 -0.0022  0.3651 -0.4367
 1749SOL    MW4 7043   1.166   3.127   3.094 -0.1298  0.1402 -0.4673
 1750SOL     OW 7044   0.927   3.250   3.027  0.1595  0.5491  0.3037
 1750SOL    HW2 7045   0.851   3.203   3.061  0.4834 -0.0654  0.1818
 1750SOL    HW3 7046   0.928   3.230   2.933  0.4969  0.5132  0.3127
 1750SOL    MW4 7047   0.918   3.241   3.019  0.2468  0.4632  0.2887
 1751SOL     OW 7048   0.859   3.498   3.097  0.1817 -0.4584 -0.4687
 1751SOL    HW2 7049   0.936   3.549   3.074  1.2376  0.0616  3.7872
 1751SOL    HW3 7050   0.877   3.411   3.064  1.9201  0.0261 -0.8527
 1751SOL    MW4 7051   0.871   3.494   3.090  0.5504 -0.3262  0.0420
 1752SOL     OW 7052   1.080   3.654   3.038 -0.5636 -0.5434 -0.0112
 1752SOL    HW2 7053   1.165   3.619   3.062  0.6361  0.5396 -2.5713
 1752SOL    HW3 7054   1.082   3.745   3.068  0.0280  0.1147 -1.9967
 1752SOL    MW4 7055   1.091   3.661   3.046 -0.3272 -0.3140 -0.6111
 1753SOL     OW 7056   1.106   3.900   3.131 -0.1859 -0.1524 -0.4557
 1753SOL    HW2 7057   1.089   3.901   3.225 -0.3079  0.4043 -0.4821
 1753SOL    HW3 7058   1.036   3.953   3.093 -0.4109 -0.7701 -0.9084
 1753SOL    MW4 7059   1.094   3.907   3.138 -0.2316 -0.1605 -0.5193
 1754SOL     OW 7060   0.902   4.046   3.020  0.0783  0.5022  0.0489
 1754SOL    HW2 7061   0.818   4.015   3.054  0.6810 -0.5955  0.5790
 1754SOL    HW3 7062   0.899   4.023   2.927 -0.6651  1.4967 -0.1804
 1754SOL    MW4 7063   0.891   4.039   3.012  0.0597  0.4883  0.0885
 1755SOL     OW 7064   0.891   4.305   3.110 -0.4160  0.1629  0.3927
 1755SOL    HW2 7065   0.903   4.219   3.069 -0.6082  0.8158 -1.0662
 1755SOL    HW3 7066   0.797   4.319   3.107 -0.2463  1.0854 -0.7599
 1755SOL    MW4 7067   0.880   4.295   3.104 -0.4189  0.3715  0.0482
 1756SOL     OW 7068   1.129   4.438   3.002 -0.1568 -0.1973 -0.0634
 1756SOL    HW2 7069   1.053   4.388   3.033 -0.3115  0.6112  0.8780
 1756SOL    HW3 7070   1.137   4.510   3.063  0.0331  0.9786 -1.4457
 1756SOL    MW4 7071   1.120   4.441   3.014 -0.1521  0.0644 -0.1216
 1757SOL     OW 7072   1.594   4.600   3.140 -0.2223 -0.1647  0.2015
 1757SOL    HW2 7073   1.597   4.594   3.236 -2.2624 -1.1316  0.2261
 1757SOL    HW3 7074   1.511   4.643   3.121  0.3869  0.4500 -1.1227
 1757SOL    MW4 7075   1.583   4.605   3.150 -0.4110 -0.2112  0.0300
 1758SOL     OW 7076   1.361   0.071   3.026 -0.2030  0.0856 -0.2340
 1758SOL    HW2 7077   1.355   0.162   3.054  0.7434  0.3402 -0.8486
 1758SOL    HW3 7078   1.367   0.075   2.931  0.3864 -0.5893 -0.2280
 1758SOL    MW4 7079   1.361   0.084   3.017 -0.0005  0.0302 -0.3142
 1759SOL     OW 7080   1.365   0.326   3.151 -0.0316 -0.0844 -0.3636
 1759SOL    HW2 7081   1.377   0.337   3.245  1.0220 -0.7700 -0.4092
 1759SOL    HW3 7082   1.438   0.374   3.111  0.4749 -1.1507 -0.7632
 1759SOL    MW4 7083   1.376   0.334   3.158  0.1743 -0.3155 -0.4222
 1760SOL     OW 7084   1.571   0.454   2.994 -0.2264  0.0613  0.5204
 1760SOL    HW2 7085   1.565   0.545   3.024 -1.0012  0.2584 -0.1954
 1760SOL    HW3 7086   1.589   0.461   2.901 -0.5437 -0.5140  0.4134
 1760SOL    MW4 7087   1.573   0.467   2.986 -0.3705  0.0114  0.4117
 1761SOL     OW 7088   1.574   0.728   3.092  0.4663  0.1964  0.0640
 1761SOL    HW2 7089   1.589   0.736   3.186 -0.6290  0.7771  0.1935
 1761SOL    HW3 7090   1.509   0.795   3.072 -1.1598 -1.5826 -0.6903
 1761SOL    MW4 7091   1.568   0.738   3.102  0.1072  0.0382 -0.0184
 1762SOL     OW 7092   1.334   0.905   3.013  0.1276  0.0320 -0.3890
 1762SOL    HW2 7093   1.336   0.995   3.047 -0.5472  0.1755 -0.7191
 1762SOL    HW3 7094   1.277   0.858   3.074  0.2537 -0.1022 -0.3759
 1762SOL    MW4 7095   1.326   0.911   3.026  0.0553  0.0333 -0.4311
 1763SOL     OW 7096   1.362   1.156   3.139 -0.5914  0.0342 -0.2466
 1763SOL    HW2 7097   1.379   1.159   3.233 -0.4631 -0.5737 -0.2526
 1763SOL    HW3 7098   1.443   1.188   3.099 -0.6804  0.3867 -0.1529
 1763SOL    MW4 7099   1.375   1.161   3.146 -0.5864  0.0005 -0.2351
 1764SOL     OW 7100   1.602   1.245   2.994  0.0708 -0.3526 -0.6665
 1764SOL    HW2 7101   1.677   1.200   3.033  0.1817 -0.8643 -1.4736
 1764SOL    HW3 7102   1.600   1.331   3.037  0.7411 -0.5777 -0.1958
 1764SOL    MW4 7103   1.611   1.251   3.005  0.1737 -0.4498 -0.7110
 1765SOL     OW 7104   1.589   1.511   3.127  0.2466 -0.1720  0.4468
 1765SOL    HW2 7105   1.666   1.563   3.106  0.9345 -1.2446  0.2695
 1765SOL    HW3 7106   1.516   1.558   3.087  0.9621  0.2307 -0.3819
 1765SOL    MW4 7107   1.589   1.524   3.119  0.4318 -0.2604  0.3142
 1766SOL     OW 7108   1.347   1.642   3.054 -0.2150 -0.3643 -0.7544
 1766SOL    HW2 7109   1.334   1.735   3.067 -0.6590 -0.6153  0.5933
 1766SOL    HW3 7110   1.341   1.630   2.959 -0.1756  0.9675 -0.9258
 1766SOL    MW4 7111   1.345   1.652   3.043 -0.2686 -0.2217 -0.5991
 1767SOL     OW 7112   1.342   1.908   3.093  0.1421 -0.2870 -0.1287
 1767SOL    HW2 7113   1.334   1.928   3.187  1.3847  0.9522 -0.2693
 1767SOL    HW3 7114   1.273   1.961   3.052  1.2728  1.1637 -0.1662
 1767SOL    MW4 7115   1.332   1.918   3.100  0.4554  0.0679 -0.1521
 1768SOL     OW 7116   1.561   2.071   3.036 -0.2182  0.0543  0.0563
 1768SOL    HW2 7117   1.487   2.017   3.062  1.0395 -1.5320  0.4001
 1768SOL    HW3 7118   1.563   2.065   2.941  0.7459 -1.6711  0.1590
 1768SOL    MW4 7119   1.551   2.063   3.027  0.0749 -0.3829  0.1152
 1769SOL     OW 7120   1.754   2.465   3.059 -0.2219 -0.2966 -0.2949
 1769SOL    HW2 7121   1.755   2.554   3.092 -0.2482 -0.2109 -0.5247
 1769SOL    HW3 7122   1.686   2.421   3.110 -1.0086  0.1164 -0.9745
 1769SOL    MW4 7123   1.745   2.471   3.070 -0.3291 -0.2306 -0.4148
 1770SOL     OW 7124   1.388   2.433   3.025  0.5435 -0.1355 -0.0944
 1770SOL    HW2 7125   1.303   2.394   3.045 -0.1212  0.9738 -0.7202
 1770SOL    HW3 7126   1.391   2.437   2.930  0.7589  0.9961 -0.0410
 1770SOL    MW4 7127   1.377   2.428   3.015  0.4841  0.1600 -0.1698
 1771SOL     OW 7128   1.322   2.696   3.139 -0.4091 -0.0061 -0.1441
 1771SOL    HW2 7129   1.339   2.619   3.085 -0.9466 -1.4800  1.7627
 1771SOL    HW3 7130   1.253   2.743   3.091  1.5193  0.5476 -2.4849
 1771SOL    MW4 7131   1.315   2.692   3.125 -0.2255 -0.1276 -0.2012
 1772SOL     OW 7132   1.763   2.738   3.116 -0.3276  0.1466  0.3305
 1772SOL    HW2 7133   1.843   2.772   3.075 -0.8373  0.7388 -0.1788
 1772SOL    HW3 7134   1.785   2.735   3.210  0.5775 -0.5032  0.1076
 1772SOL    MW4 7135   1.777   2.742   3.123 -0.2756  0.1390  0.2339
 1773SOL     OW 7136   1.563   3.104   3.135 -0.4067  0.9092  0.6395
 1773SOL    HW2 7137   1.553   3.103   3.230 -2.1782 -0.1189  0.4629
 1773SOL    HW3 7138   1.570   3.011   3.111 -0.0668  1.1576 -0.2410
 1773SOL    MW4 7139   1.563   3.092   3.144 -0.5957  0.8063  0.5002
 1774SOL     OW 7140   1.389   3.289   3.034  0.2113  0.1037 -0.4158
 1774SOL    HW2 7141   1.462   3.234   3.062  0.4136  0.1434 -0.8637
 1774SOL    HW3 7142   1.376   3.267   2.942  0.3842  0.9087 -0.6336
 1774SOL    MW4 7143   1.397   3.279   3.025  0.2607  0.2151 -0.5035
 1775SOL     OW 7144   1.325   3.555   3.101  0.3922  0.2359 -0.1254
 1775SOL    HW2 7145   1.325   3.558   3.196  0.5982  0.3065 -0.1266
 1775SOL    HW3 7146   1.336   3.463   3.079 -1.8100 -0.0554 -0.0847
 1775SOL    MW4 7147   1.327   3.543   3.110  0.1287  0.2065 -0.1204
 1776SOL     OW 7148   1.577   3.602   3.006 -0.2358 -0.3478  0.4626
 1776SOL    HW2 7149   1.489   3.586   3.039 -0.4910  1.5352  0.7587
 1776SOL    HW3 7150   1.568   3.599   2.911 -0.9142  1.1568  0.4584
 1776SOL    MW4 7151   1.564   3.600   2.998 -0.3589  0.0992  0.5014
 1777SOL     OW 7152   1.537   3.864   3.161  0.3493 -0.0693  0.5164
 1777SOL    HW2 7153   1.621   3.894   3.127 -0.0109 -0.3566 -0.6530
 1777SOL    HW3 7154   1.530   3.773   3.130 -0.3229 -0.0884  0.7169
 1777SOL    MW4 7155   1.547   3.856   3.152  0.2131 -0.1097  0.3884
 1778SOL     OW 7156   1.345   3.997   3.008 -0.1848 -0.0475  0.1698
 1778SOL    HW2 7157   1.406   3.951   3.065 -0.0022  1.4750  1.2353
 1778SOL    HW3 7158   1.259   3.983   3.048 -0.2643 -0.3728 -0.1138
 1778SOL    MW4 7159   1.342   3.989   3.021 -0.1712  0.1104  0.2732
 1779SOL     OW 7160   1.349   4.262   3.095  0.4844  0.5995  0.0108
 1779SOL    HW2 7161   1.327   4.188   3.038 -0.4003  0.8993 -0.0513
 1779SOL    HW3 7162   1.299   4.335   3.059  1.1677  1.1721  0.2172
 1779SOL    MW4 7163   1.339   4.262   3.083  0.4579  0.7143  0.0300
 1780SOL     OW 7164   1.595   4.369   3.008 -0.2541 -0.3214  0.0378
 1780SOL    HW2 7165   1.517   4.337   3.053  0.0386 -0.3056  0.5620
 1780SOL    HW3 7166   1.609   4.457   3.044 -1.0215  0.3881 -1.3436
 1780SOL    MW4 7167   1.587   4.377   3.019 -0.3167 -0.2255 -0.0751
 1781SOL     OW 7168   2.067   0.001   3.164 -0.6302  0.0238  0.1020
 1781SOL    HW2 7169   2.052   0.011   3.258 -1.8508 -0.7254 -0.0069
 1781SOL    HW3 7170   1.985   0.027   3.124 -0.5163 -0.8494 -0.6998
 1781SOL    MW4 7171   2.054   0.006   3.171 -0.7761 -0.1898 -0.0181
 1782SOL     OW 7172   1.813   0.090   3.051  0.0400  0.3133 -0.4299
 1782SOL    HW2 7173   1.734   0.046   3.082  0.0004  0.6170 -0.0934
 1782SOL    HW3 7174   1.808   0.085   2.956 -0.3380  0.2441 -0.4059
 1782SOL    MW4 7175   1.802   0.084   3.043 -0.0151  0.3443 -0.3827
 1783SOL     OW 7176   1.799   0.361   3.118  0.4583 -0.0673 -0.3199
 1783SOL    HW2 7177   1.818   0.271   3.093 -1.0263 -0.4986  0.0512
 1783SOL    HW3 7178   1.720   0.383   3.068  0.8098  1.0272 -0.4005
 1783SOL    MW4 7179   1.791   0.352   3.108  0.3089  0.0202 -0.2816
 1784SOL     OW 7180   2.034   0.488   3.039 -0.1781 -0.3081 -0.0669
 1784SOL    HW2 7181   1.946   0.452   3.050 -0.7651  0.7333 -1.2208
 1784SOL    HW3 7182   2.046   0.492   2.944  0.6859  0.5733  0.0772
 1784SOL    MW4 7183   2.024   0.484   3.028 -0.1414 -0.0544 -0.2003
 1785SOL     OW 7184   2.075   0.756   3.134 -0.1345  0.0935 -0.2229
 1785SOL    HW2 7185   1.994   0.800   3.110  0.8080  1.9366 -0.1279
 1785SOL    HW3 7186   2.067   0.669   3.096 -1.6722  0.6396 -1.1976
 1785SOL    MW4 7187   2.064   0.750   3.126 -0.2129  0.4087 -0.3390
 1786SOL     OW 7188   1.826   0.859   3.049 -0.1813 -0.2074  0.3471
 1786SOL    HW2 7189   1.749   0.816   3.086  0.4098 -1.2041  0.4442
 1786SOL    HW3 7190   1.809   0.863   2.955 -0.5484 -0.0393  0.4243
 1786SOL    MW4 7191   1.814   0.854   3.042 -0.1516 -0.3167  0.3703
 1787SOL     OW 7192   1.818   1.129   3.138  0.2837 -0.0612 -0.2113
 1787SOL    HW2 7193   1.822   1.138   3.233  1.8393  0.3176 -0.3053
 1787SOL    HW3 7194   1.836   1.037   3.121  1.0806  0.0926 -0.1999
 1787SOL    MW4 7195   1.821   1.118   3.148  0.5941  0.0091 -0.2222
 1788SOL     OW 7196   2.008   1.278   3.006 -0.1546 -0.0520 -0.4587
 1788SOL    HW2 7197   2.092   1.248   3.043  0.4343  0.3795 -1.4335
 1788SOL    HW3 7198   1.943   1.221   3.046  0.7175 -1.0490 -0.4313
 1788SOL    MW4 7199   2.011   1.266   3.016  0.0381 -0.1266 -0.5836
 1789SOL     OW 7200   2.026   1.520   3.117 -0.6287  0.1015  0.3536
 1789SOL    HW2 7201   2.020   1.501   3.211 -1.1789  0.9540  0.5033
 1789SOL    HW3 7202   2.032   1.435   3.075 -0.7863 -0.3027  1.1397
 1789SOL    MW4 7203   2.026   1.507   3.124 -0.7219  0.1606  0.4771
 1790SOL     OW 7204   1.801   1.655   3.022  0.2879 -0.4022 -0.4991
 1790SOL    HW2 7205   1.813   1.742   3.060 -0.0618 -0.4494 -0.2711
 1790SOL    HW3 7206   1.875   1.604   3.055 -0.5558 -0.7150  0.9577
 1790SOL    MW4 7207   1.813   1.660   3.032  0.1304 -0.4498 -0.2768
 1791SOL     OW 7208   1.805   1.934   3.128 -0.2591  0.2518  0.1478
 1791SOL    HW2 7209   1.874   1.975   3.076 -0.3354 -1.3989 -1.3263
 1791SOL    HW3 7210   1.724   1.975   3.096 -0.1089  0.9291  0.6356
 1791SOL    MW4 7211   1.803   1.945   3.117 -0.2494  0.1233  0.0176
 1792SOL     OW 7212   2.011   2.075   3.010  0.1067 -0.2452  0.0625
 1792SOL    HW2 7213   2.084   2.034   3.058 -0.9451 -0.3948  1.5696
 1792SOL    HW3 7214   2.002   2.162   3.050 -0.4394 -0.1581 -0.2430
 1792SOL    MW4 7215   2.020   2.081   3.022 -0.1042 -0.2534  0.2210
 1793SOL     OW 7216   2.221   2.477   2.748 -0.3376 -0.3145  0.2906
 1793SOL    HW2 7217   2.303   2.436   2.721  0.6591  1.1750  0.9568
 1793SOL    HW3 7218   2.222   2.471   2.844  0.3094  2.0703  0.4703
 1793SOL    MW4 7219   2.232   2.471   2.757 -0.1206  0.1965  0.4022
 1794SOL     OW 7220   1.980   2.325   3.131  0.4223  0.0712 -0.5138
 1794SOL    HW2 7221   2.057   2.365   3.093 -0.0431  0.3543 -1.1506
 1794SOL    HW3 7222   1.907   2.376   3.099 -0.0684 -0.4490 -0.2436
 1794SOL    MW4 7223   1.981   2.337   3.122  0.2960  0.0398 -0.5622
 1795SOL     OW 7224   1.784   2.717   3.401  0.0866  0.3630 -0.0618
 1795SOL    HW2 7225   1.799   2.629   3.437 -0.1476  0.0156 -0.8035
 1795SOL    HW3 7226   1.847   2.773   3.447  0.6829 -0.3077 -0.0557
 1795SOL    MW4 7227   1.794   2.713   3.412  0.1343  0.2289 -0.1585
 1796SOL     OW 7228   1.993   2.842   3.009 -0.2622  0.1697 -0.1647
 1796SOL    HW2 7229   2.014   2.932   3.035  0.6669  0.0013 -0.3488
 1796SOL    HW3 7230   1.983   2.848   2.914  0.0139  0.0230 -0.1993
 1796SOL    MW4 7231   1.994   2.855   3.000 -0.1032  0.1283 -0.1934
 1797SOL     OW 7232   2.025   3.114   3.089  0.0708  0.0934  0.4074
 1797SOL    HW2 7233   2.046   3.110   3.182 -1.6257 -0.4306  0.7681
 1797SOL    HW3 7234   1.948   3.170   3.084  0.8766  1.1291 -0.8215
 1797SOL    MW4 7235   2.018   3.121   3.100 -0.0467  0.1609  0.2930
 1798SOL     OW 7236   1.786   3.247   3.031 -0.3236 -0.5278 -0.2424
 1798SOL    HW2 7237   1.708   3.193   3.045 -0.1295 -0.8231 -0.3019
 1798SOL    HW3 7238   1.805   3.239   2.938  0.0637 -0.8451 -0.1375
 1798SOL    MW4 7239   1.778   3.239   3.020 -0.2470 -0.6087 -0.2365
 1799SOL     OW 7240   1.815   3.520   3.126  0.2732 -0.0434  0.4731
 1799SOL    HW2 7241   1.799   3.428   3.106  1.6283 -0.2459  0.2497
 1799SOL    HW3 7242   1.753   3.568   3.072 -1.7768 -0.8790  2.0367
 1799SOL    MW4 7243   1.805   3.514   3.116  0.1814 -0.1802  0.6502
 1800SOL     OW 7244   2.042   3.635   3.036 -0.0253  0.6111 -0.0267
 1800SOL    HW2 7245   2.042   3.727   3.062 -0.4480  0.2805  1.1662
 1800SOL    HW3 7246   1.959   3.600   3.069  0.9399 -0.6306  1.1490
 1800SOL    MW4 7247   2.031   3.643   3.043  0.0460  0.4034  0.2861
 1801SOL     OW 7248   2.026   3.908   3.136  0.2649 -0.2895 -0.2564
 1801SOL    HW2 7249   2.023   3.902   3.231  0.2112 -0.2944 -0.2585
 1801SOL    HW3 7250   1.935   3.917   3.109  0.1745 -1.5597 -0.3904
 1801SOL    MW4 7251   2.014   3.909   3.145  0.2458 -0.4578 -0.2742
 1802SOL     OW 7252   1.765   3.943   3.050  0.3565 -0.2777 -0.4319
 1802SOL    HW2 7253   1.751   4.031   3.084 -0.3439  0.1542 -1.7856
 1802SOL    HW3 7254   1.767   3.954   2.955 -2.1036 -2.0133 -0.7360
 1802SOL    MW4 7255   1.763   3.956   3.042 -0.0606 -0.4499 -0.6506
 1803SOL     OW 7256   1.792   4.222   3.134 -0.1078  0.2008 -0.4283
 1803SOL    HW2 7257   1.726   4.257   3.074 -0.0718 -1.5406 -1.5356
 1803SOL    HW3 7258   1.871   4.271   3.113 -0.8067  1.6262  0.2324
 1803SOL    MW4 7259   1.794   4.233   3.123 -0.1953  0.1588 -0.4871
 1804SOL     OW 7260   2.002   4.419   3.073 -0.3606  0.4420  0.0526
 1804SOL    HW2 7261   2.027   4.503   3.112  0.2815  0.1276  0.3294
 1804SOL    HW3 7262   2.014   4.432   2.979  1.6252  0.0542  0.2318
 1804SOL    MW4 7263   2.007   4.432   3.066 -0.0138  0.3495  0.1128
 1805SOL     OW 7264   2.515   4.666   3.183 -0.0065 -0.4915 -0.0436
 1805SOL    HW2 7265   2.507   4.574   3.156 -0.4504 -1.2792  2.7163
 1805SOL    HW3 7266   2.435   4.707   3.151 -0.0954 -1.1979 -0.7553
 1805SOL    MW4 7267   2.504   4.659   3.175 -0.0770 -0.6886  0.2267
 1806SOL     OW 7268   2.299   0.112   3.070 -0.2545 -0.5805 -0.6725
 1806SOL    HW2 7269   2.289   0.206   3.084  0.2570 -0.7663  1.0451
 1806SOL    HW3 7270   2.216   0.074   3.100  0.4556 -0.8805  1.0029
 1806SOL    MW4 7271   2.287   0.119   3.076 -0.0935 -0.6446 -0.2251
 1807SOL     OW 7272   2.272   0.379   3.151  0.8487 -0.5807  0.0169
 1807SOL    HW2 7273   2.267   0.375   3.246  0.3287  1.3222  0.1058
 1807SOL    HW3 7274   2.183   0.401   3.123  0.7049 -2.3996 -1.0053
 1807SOL    MW4 7275   2.259   0.382   3.160  0.7613 -0.5697 -0.1063
 1808SOL     OW 7276   2.505   0.489   3.059  0.1498  0.0273  0.1719
 1808SOL    HW2 7277   2.419   0.457   3.085  0.2326  0.4709  1.0074
 1808SOL    HW3 7278   2.496   0.510   2.966 -0.2938 -1.0819 -0.0445
 1808SOL    MW4 7279   2.493   0.488   3.050  0.1023 -0.0606  0.2534
 1809SOL     OW 7280   2.486   0.753   3.143 -0.6543 -0.2453 -0.7503
 1809SOL    HW2 7281   2.570   0.784   3.110 -1.1750  0.5477 -1.3593
 1809SOL    HW3 7282   2.483   0.661   3.118  0.0093 -0.2649 -0.7696
 1809SOL    MW4 7283   2.496   0.745   3.135 -0.6356 -0.1433 -0.8330
 1810SOL     OW 7284   2.273   0.916   3.039  0.1933 -0.3423 -0.7833
 1810SOL    HW2 7285   2.353   0.870   3.063  0.6880 -1.4776 -4.1941
 1810SOL    HW3 7286   2.203   0.853   3.058  0.2766  0.0043  0.6493
 1810SOL    MW4 7287   2.274   0.901   3.044  0.2694 -0.4464 -1.0445
 1811SOL     OW 7288   2.245   1.188   3.113  0.5219 -0.3312 -0.3099
 1811SOL    HW2 7289   2.258   1.162   3.204  0.7841 -1.6087 -0.6925
 1811SOL    HW3 7290   2.250   1.106   3.064 -1.4737  0.0912 -1.2886
 1811SOL    MW4 7291   2.247   1.174   3.118  0.2933 -0.4441 -0.4892
 1812SOL     OW 7292   2.492   1.320   3.054 -0.3277 -0.2631 -0.0284
 1812SOL    HW2 7293   2.414   1.273   3.082 -0.0538 -0.9069 -0.3515
 1812SOL    HW3 7294   2.508   1.291   2.964  1.7066 -2.0550  0.8406
 1812SOL    MW4 7295   2.484   1.310   3.046 -0.0234 -0.5844  0.0436
 1813SOL     OW 7296   2.485   1.561   3.187  0.5341  0.0726 -0.2279
 1813SOL    HW2 7297   2.394   1.580   3.163  0.5162 -0.9613 -1.0041
 1813SOL    HW3 7298   2.506   1.480   3.140  2.7149  1.7100 -2.2086
 1813SOL    MW4 7299   2.476   1.553   3.177  0.8194  0.1522 -0.5918
 1814SOL     OW 7300   2.255   1.663   3.073  0.0019 -0.0324  0.1047
 1814SOL    HW2 7301   2.170   1.618   3.075  0.0216 -0.0814 -0.1624
 1814SOL    HW3 7302   2.277   1.669   2.980  0.9688 -1.2977  0.2372
 1814SOL    MW4 7303   2.246   1.658   3.061  0.1321 -0.2059  0.0870
 1815SOL     OW 7304   2.237   1.928   3.152 -0.2426  0.1563  0.2818
 1815SOL    HW2 7305   2.317   1.963   3.113 -1.0877  0.5381 -1.1198
 1815SOL    HW3 7306   2.240   1.834   3.132 -0.1065  0.1587  0.2926
 1815SOL    MW4 7307   2.248   1.920   3.144 -0.3362  0.2069  0.0985
 1816SOL     OW 7308   2.489   2.045   3.011 -0.1498  0.4826 -0.3958
 1816SOL    HW2 7309   2.578   2.021   3.038  0.2790  1.4342 -0.9400
 1816SOL    HW3 7310   2.487   2.025   2.917 -0.0748  1.7119 -0.6640
 1816SOL    MW4 7311   2.501   2.039   3.002 -0.0830  0.7703 -0.5028
 1817SOL     OW 7312   2.395   2.290   3.115 -0.5694 -0.5172  0.3172
 1817SOL    HW2 7313   2.402   2.291   3.211  0.2072 -0.5019  0.2609
 1817SOL    HW3 7314   2.433   2.207   3.089 -1.1596 -0.7060  0.0411
 1817SOL    MW4 7315   2.401   2.279   3.124 -0.5448 -0.5400  0.2732
 1818SOL     OW 7316   1.984   2.327   2.681 -0.0523 -0.3708  0.3428
 1818SOL    HW2 7317   2.061   2.379   2.702 -0.6612  0.6070  0.2141
 1818SOL    HW3 7318   1.984   2.321   2.586 -0.8381  0.7560  0.2572
 1818SOL    MW4 7319   1.994   2.333   2.672 -0.2363 -0.0932  0.3142
 1819SOL     OW 7320   2.224   2.735   3.124 -0.2591 -0.2310 -0.2058
 1819SOL    HW2 7321   2.301   2.775   3.084 -0.0882  1.3014  1.6288
 1819SOL    HW3 7322   2.151   2.763   3.069  0.0907  1.0313 -0.0281
 1819SOL    MW4 7323   2.224   2.744   3.111 -0.1905  0.1376  0.0596
 1820SOL     OW 7324   2.440   2.853   3.012 -0.5291  0.1447  0.4191
 1820SOL    HW2 7325   2.446   2.946   3.033 -1.0912  0.7270 -1.9322
 1820SOL    HW3 7326   2.439   2.849   2.917  1.2910 -2.3906  0.4514
 1820SOL    MW4 7327   2.441   2.865   3.002 -0.3631 -0.1130  0.1132
 1821SOL     OW 7328   2.451   3.123   3.101  0.0994 -0.7840 -0.2856
 1821SOL    HW2 7329   2.544   3.143   3.094  0.2756 -1.5941 -0.3024
 1821SOL    HW3 7330   2.409   3.185   3.043  0.6891 -0.8530 -0.7935
 1821SOL    MW4 7331   2.458   3.134   3.093  0.2007 -0.8998 -0.3550
 1822SOL     OW 7332   2.252   3.277   2.980  0.0458  0.1747  0.2400
 1822SOL    HW2 7333   2.252   3.357   3.033 -0.3168  0.1274  0.3121
 1822SOL    HW3 7334   2.176   3.228   3.010  0.0286 -0.0082 -0.0961
 1822SOL    MW4 7335   2.242   3.281   2.991 -0.0043  0.1445  0.2050
 1823SOL     OW 7336   2.261   3.508   3.120  0.3544  0.0042 -0.8474
 1823SOL    HW2 7337   2.328   3.560   3.075  0.0793  0.7879 -0.3532
 1823SOL    HW3 7338   2.178   3.548   3.094  0.1559 -0.0124 -0.2456
 1823SOL    MW4 7339   2.259   3.520   3.110  0.2916  0.1054 -0.7026
 1824SOL     OW 7340   2.482   3.641   3.026  0.1440  0.1082 -0.0964
 1824SOL    HW2 7341   2.541   3.573   3.059 -1.7743 -1.3652  0.3537
 1824SOL    HW3 7342   2.505   3.719   3.077  0.9999 -0.7189  0.8019
 1824SOL    MW4 7343   2.493   3.642   3.037  0.0038 -0.1953  0.0815
 1825SOL     OW 7344   2.483   3.903   3.120 -0.1486  0.0898  0.0940
 1825SOL    HW2 7345   2.476   3.894   3.215  1.4725  1.6020  0.3905
 1825SOL    HW3 7346   2.572   3.935   3.106 -0.5149  0.2849 -1.9159
 1825SOL    MW4 7347   2.494   3.906   3.131  0.0172  0.3152 -0.1321
 1826SOL     OW 7348   2.232   4.031   2.996  0.0471 -0.5913 -0.0104
 1826SOL    HW2 7349   2.313   4.003   3.038 -0.9564 -1.6014  1.2866
 1826SOL    HW3 7350   2.163   3.984   3.043 -1.4246  1.5051 -0.0055
 1826SOL    MW4 7351   2.234   4.022   3.008 -0.2794 -0.4478  0.1612
 1827SOL     OW 7352   2.235   4.267   3.139 -0.0135 -0.2105 -0.1192
 1827SOL    HW2 7353   2.223   4.189   3.085 -2.0210 -1.1119  1.5384
 1827SOL    HW3 7354   2.164   4.326   3.112  0.5666  0.4064 -0.3031
 1827SOL    MW4 7355   2.224   4.264   3.128 -0.2019 -0.2480  0.0751
 1828SOL     OW 7356   2.468   4.417   3.068 -0.6010  0.0981 -0.1413
 1828SOL    HW2 7357   2.378   4.393   3.089 -0.5133 -0.8054 -0.7703
 1828SOL    HW3 7358   2.472   4.415   2.972 -0.0618  0.6890 -0.1368
 1828SOL    MW4 7359   2.457   4.414   3.058 -0.5186  0.0567 -0.2239
 1829SOL     OW 7360   2.939   4.645   3.159  0.4021 -0.1443  0.2551
 1829SOL    HW2 7361   3.018   4.689   3.130  0.5051 -0.1541  0.5185
 1829SOL    HW3 7362   2.937   4.564   3.108  1.5272 -1.0067  1.5292
 1829SOL    MW4 7363   2.949   4.640   3.149  0.5643 -0.2589  0.4578
 1830SOL     OW 7364   2.770   0.364   3.114  0.0467  0.4384 -0.2614
 1830SOL    HW2 7365   2.756   0.272   3.090  1.8072 -0.0297  0.4160
 1830SOL    HW3 7366   2.686   0.406   3.095 -0.8004 -1.3041 -0.5639
 1830SOL    MW4 7367   2.757   0.357   3.108  0.1669  0.1467 -0.2120
 1831SOL     OW 7368   2.711   0.345   3.381 -0.3354  0.1766  0.0224
 1831SOL    HW2 7369   2.779   0.401   3.420 -0.6748 -0.3558  1.3839
 1831SOL    HW3 7370   2.742   0.330   3.291  1.2959  0.0457  0.5851
 1831SOL    MW4 7371   2.724   0.350   3.374 -0.1650  0.0891  0.2766
 1832SOL     OW 7372   2.957   0.541   3.019 -0.1996  0.2803  0.2311
 1832SOL    HW2 7373   2.896   0.470   3.038  4.0242 -3.2660  1.5004
 1832SOL    HW3 7374   2.964   0.542   2.924 -0.9510 -0.4698  0.1604
 1832SOL    MW4 7375   2.950   0.532   3.009  0.2589 -0.2866  0.3893
 1833SOL     OW 7376   2.988   0.791   3.128  0.0115  0.3653  0.1696
 1833SOL    HW2 7377   3.002   0.762   3.219 -0.3334 -0.5871 -0.0757
 1833SOL    HW3 7378   2.967   0.711   3.080 -0.9867  1.0289 -0.5236
 1833SOL    MW4 7379   2.987   0.777   3.134 -0.1657  0.3272  0.0455
 1834SOL     OW 7380   2.723   0.885   3.055  0.3074  0.2596 -0.2453
 1834SOL    HW2 7381   2.731   0.975   3.085  0.2547  0.0016  0.5576
 1834SOL    HW3 7382   2.808   0.845   3.074  0.3114  0.1163 -0.5458
 1834SOL    MW4 7383   2.735   0.892   3.061  0.3011  0.2066 -0.1788
 1835SOL     OW 7384   2.698   1.142   3.114  0.4540  0.0644 -0.0294
 1835SOL    HW2 7385   2.771   1.199   3.090  0.4187  0.7769  1.5105
 1835SOL    HW3 7386   2.620   1.195   3.099  0.3705  0.0780  0.4306
 1835SOL    MW4 7387   2.697   1.157   3.109  0.4385  0.1601  0.2344
 1836SOL     OW 7388   2.925   1.291   3.061 -0.2122 -0.1755 -0.4143
 1836SOL    HW2 7389   3.003   1.263   3.109 -1.1479 -1.7871  0.1899
 1836SOL    HW3 7390   2.911   1.381   3.088  1.1192 -0.0562 -0.1088
 1836SOL    MW4 7391   2.933   1.299   3.071 -0.1597 -0.3724 -0.2940
 1837SOL     OW 7392   2.894   1.553   3.141  0.4621  0.0307  0.0439
 1837SOL    HW2 7393   2.907   1.542   3.235  0.1611  0.9939  0.2108
 1837SOL    HW3 7394   2.981   1.579   3.108  0.5179 -0.1008  0.0866
 1837SOL    MW4 7395   2.907   1.555   3.149  0.4299  0.1407  0.0718
 1838SOL     OW 7396   2.692   1.704   3.049 -0.1421  0.3005 -0.3901
 1838SOL    HW2 7397   2.765   1.654   3.086 -0.6829 -0.0987  0.1396
 1838SOL    HW3 7398   2.614   1.664   3.087 -0.5917  1.4224 -0.1136
 1838SOL    MW4 7399   2.691   1.692   3.059 -0.2728  0.3958 -0.2835
 1839SOL     OW 7400   2.714   1.956   3.144 -0.3251  0.6005 -0.0256
 1839SOL    HW2 7401   2.800   1.988   3.117  0.0195 -1.2306 -1.1707
 1839SOL    HW3 7402   2.715   1.863   3.122 -1.1335 -0.3462  3.5534
 1839SOL    MW4 7403   2.725   1.948   3.138 -0.3862  0.2340  0.2954
 1840SOL     OW 7404   2.962   2.056   3.051 -0.5761  0.1644 -0.0709
 1840SOL    HW2 7405   2.945   2.147   3.075 -3.4067 -0.0132 -1.2667
 1840SOL    HW3 7406   2.963   2.056   2.956  2.6944 -0.5277 -0.0779
 1840SOL    MW4 7407   2.960   2.068   3.042 -0.5181  0.0496 -0.2298
 1841SOL     OW 7408   2.874   2.310   3.136  0.2238 -0.4142  0.6518
 1841SOL    HW2 7409   2.942   2.364   3.095 -0.4130  0.4745  0.7544
 1841SOL    HW3 7410   2.792   2.346   3.104 -0.2057 -1.8180  0.1090
 1841SOL    MW4 7411   2.872   2.322   3.127  0.0832 -0.4823  0.5937
 1842SOL     OW 7412   2.631   2.406   3.056  0.1174 -0.3490  0.5118
 1842SOL    HW2 7413   2.638   2.499   3.076  0.2028 -0.1926 -0.2599
 1842SOL    HW3 7414   2.546   2.381   3.093 -0.0161  0.0878  0.5083
 1842SOL    MW4 7415   2.621   2.415   3.064  0.1109 -0.2708  0.4096
 1843SOL     OW 7416   2.663   2.696   3.106 -0.4927  0.5523 -0.4196
 1843SOL    HW2 7417   2.666   2.715   3.200 -0.6222 -2.1940  0.2001
 1843SOL    HW3 7418   2.594   2.753   3.072 -0.0680  1.9842  1.0323
 1843SOL    MW4 7419   2.654   2.706   3.114 -0.4539  0.3788 -0.1459
 1844SOL     OW 7420   2.927   2.808   3.049 -0.0234 -0.4962 -0.1420
 1844SOL    HW2 7421   3.000   2.756   3.084 -0.4481 -0.8481  0.2158
 1844SOL    HW3 7422   2.849   2.758   3.071 -0.3311 -0.4891 -1.1829
 1844SOL    MW4 7423   2.926   2.795   3.056 -0.1199 -0.5414 -0.2320
 1845SOL     OW 7424   2.957   3.081   3.121  0.1061 -0.5447  0.0827
 1845SOL    HW2 7425   2.961   2.994   3.080 -1.3163 -0.1163 -0.9943
 1845SOL    HW3 7426   2.872   3.115   3.097  0.5344  1.0534  0.7605
 1845SOL    MW4 7427   2.947   3.074   3.113 -0.0250 -0.2773  0.0298
 1846SOL     OW 7428   2.720   3.176   3.031  0.2300  0.3914  0.1962
 1846SOL    HW2 7429   2.696   3.262   3.066  0.3575  0.3488  0.3870
 1846SOL    HW3 7430   2.720   3.188   2.936 -3.1580 -0.2491  0.0530
 1846SOL    MW4 7431   2.716   3.189   3.023 -0.2000  0.3016  0.2027
 1847SOL     OW 7432   2.665   3.423   3.100  0.2118 -0.0016  0.1573
 1847SOL    HW2 7433   2.671   3.444   3.193  0.7351  2.1780 -0.3425
 1847SOL    HW3 7434   2.743   3.462   3.061 -1.0456  0.9374 -1.5080
 1847SOL    MW4 7435   2.676   3.431   3.107  0.1149  0.4096 -0.1283
 1848SOL     OW 7436   2.881   3.606   2.979  0.0145  0.2385  0.1754
 1848SOL    HW2 7437   2.960   3.584   3.029  1.3313 -0.2311 -2.0192
 1848SOL    HW3 7438   2.846   3.684   3.022  1.8505  0.6195  1.0378
 1848SOL    MW4 7439   2.887   3.614   2.991  0.4303  0.2270 -0.0005
 1849SOL     OW 7440   2.937   3.859   3.131 -0.3611 -0.1875 -0.1576
 1849SOL    HW2 7441   2.926   3.859   3.227 -0.6385 -1.1495 -0.1842
 1849SOL    HW3 7442   2.866   3.916   3.099  0.5660  1.2510  0.2853
 1849SOL    MW4 7443   2.926   3.867   3.140 -0.2754 -0.1245 -0.1025
 1850SOL     OW 7444   2.717   4.009   3.049 -0.5478  0.3059  0.0817
 1850SOL    HW2 7445   2.708   4.092   3.095 -0.2720  0.7269 -0.6205
 1850SOL    HW3 7446   2.702   4.031   2.957 -1.3911 -0.5785 -0.0009
 1850SOL    MW4 7447   2.714   4.023   3.043 -0.6227  0.2446 -0.0215
 1851SOL     OW 7448   2.692   4.273   3.149  0.7198 -0.3074  0.3875
 1851SOL    HW2 7449   2.676   4.274   3.244  0.0581 -2.3880  0.3210
 1851SOL    HW3 7450   2.625   4.331   3.113  1.0337  0.5682  1.2054
 1851SOL    MW4 7451   2.681   4.281   3.157  0.6740 -0.4668  0.4869
 1852SOL     OW 7452   2.933   4.387   3.023 -0.1754 -0.0848  0.4031
 1852SOL    HW2 7453   3.008   4.340   3.059 -1.0228 -1.7010  0.1210
 1852SOL    HW3 7454   2.857   4.335   3.049 -0.9304 -0.4836 -2.3556
 1852SOL    MW4 7455   2.933   4.374   3.031 -0.3865 -0.3505  0.0017
 1853SOL     OW 7456   3.434   4.639   3.188  0.4502 -0.4428 -0.0476
 1853SOL    HW2 7457   3.493   4.690   3.134 -0.1362 -0.2754 -0.5284
 1853SOL    HW3 7458   3.439   4.550   3.153  0.5574 -0.4670  0.0291
 1853SOL    MW4 7459   3.442   4.634   3.177  0.3870 -0.4244 -0.1006
 1854SOL     OW 7460   3.193   0.095   3.082 -0.1262  0.2792 -0.2185
 1854SOL    HW2 7461   3.196   0.188   3.102 -1.2189  0.4792 -0.9209
 1854SOL    HW3 7462   3.278   0.061   3.110  0.4232  1.5579 -0.3186
 1854SOL    MW4 7463   3.205   0.103   3.088 -0.1979  0.4743 -0.3242
 1855SOL     OW 7464   3.151   0.374   3.127  0.0143  0.2365  0.6362
 1855SOL    HW2 7465   3.232   0.413   3.096  0.4951 -0.0372  1.5368
 1855SOL    HW3 7466   3.082   0.433   3.096  0.4408 -0.2870 -1.3577
 1855SOL    MW4 7467   3.153   0.387   3.119  0.1342  0.1313  0.4921
 1856SOL     OW 7468   3.372   0.526   3.054  0.1715  0.5388 -0.2192
 1856SOL    HW2 7469   3.436   0.468   3.096  1.3248  1.9799  0.0474
 1856SOL    HW3 7470   3.378   0.504   2.961 -0.8545 -1.1653  0.0986
 1856SOL    MW4 7471   3.381   0.515   3.047  0.1884  0.5041 -0.1419
 1857SOL     OW 7472   3.360   0.788   3.123 -0.1285  0.1056 -0.2618
 1857SOL    HW2 7473   3.377   0.797   3.217  0.5452 -0.1909 -0.3514
 1857SOL    HW3 7474   3.365   0.694   3.107  0.5718  0.2226 -0.7444
 1857SOL    MW4 7475   3.363   0.777   3.134  0.0525  0.0820 -0.3374
 1858SOL     OW 7476   3.177   0.969   3.014 -0.2097  0.1129 -0.2386
 1858SOL    HW2 7477   3.246   0.913   3.049  0.4175  0.7746 -0.4072
 1858SOL    HW3 7478   3.096   0.930   3.046  0.2365 -0.7567 -0.1692
 1858SOL    MW4 7479   3.175   0.957   3.023 -0.0682  0.0855 -0.2515
 1859SOL     OW 7480   3.180   1.228   3.145  0.3866  0.9088  0.0935
 1859SOL    HW2 7481   3.263   1.266   3.118  0.6163  1.0073  0.9503
 1859SOL    HW3 7482   3.172   1.149   3.091  1.5673  0.2926  0.8134
 1859SOL    MW4 7483   3.190   1.222   3.134  0.5724  0.8404  0.3014
 1860SOL     OW 7484   3.434   1.323   3.053 -0.3486 -0.2549 -0.1805
 1860SOL    HW2 7485   3.509   1.272   3.083 -0.1401 -0.2104 -0.6205
 1860SOL    HW3 7486   3.441   1.406   3.099  0.5839  0.2267 -1.1584
 1860SOL    MW4 7487   3.445   1.327   3.063 -0.1979 -0.1855 -0.3679
 1861SOL     OW 7488   3.615   1.664   3.032 -0.0885 -0.4211 -0.0390
 1861SOL    HW2 7489   3.617   1.759   3.043 -1.0086 -0.2790 -0.9978
 1861SOL    HW3 7490   3.615   1.651   2.937 -3.0050 -1.2664  0.0382
 1861SOL    MW4 7491   3.615   1.675   3.021 -0.5949 -0.5138 -0.1554
 1862SOL     OW 7492   3.141   1.625   3.031 -0.1641 -0.2753  0.4606
 1862SOL    HW2 7493   3.202   1.606   3.103 -0.9957 -1.9979  0.7463
 1862SOL    HW3 7494   3.197   1.636   2.954  0.6798  0.7569  1.2056
 1862SOL    MW4 7495   3.157   1.624   3.031 -0.1624 -0.3664  0.5968
 1863SOL     OW 7496   3.153   1.883   3.187  0.1683 -0.3811  0.4632
 1863SOL    HW2 7497   3.162   1.805   3.133 -1.4395 -0.0622 -0.2745
 1863SOL    HW3 7498   3.085   1.935   3.145  0.3763  0.8695  1.6123
 1863SOL    MW4 7499   3.145   1.880   3.175 -0.0167 -0.1740  0.5174
 1864SOL     OW 7500   3.332   2.047   3.055 -0.3939  0.5885 -0.0051
 1864SOL    HW2 7501   3.414   2.014   3.092 -1.4817 -0.4647  1.5396
 1864SOL    HW3 7502   3.264   1.991   3.092 -1.7127  0.5693 -2.3194
 1864SOL    MW4 7503   3.333   2.035   3.064 -0.7112  0.4473 -0.1066
 1865SOL     OW 7504   3.374   2.320   3.142  0.1814  0.5498 -0.0902
 1865SOL    HW2 7505   3.357   2.302   3.234 -1.2531  1.1855 -0.2214
 1865SOL    HW3 7506   3.343   2.243   3.095 -0.4690  0.8563 -0.1641
 1865SOL    MW4 7507   3.368   2.308   3.148 -0.0937  0.6742 -0.1173
 1866SOL     OW 7508   3.136   2.414   3.022  0.0319 -0.1988  0.0715
 1866SOL    HW2 7509   3.216   2.395   3.072  0.3012  2.1790  0.6012
 1866SOL    HW3 7510   3.165   2.414   2.930  0.3687 -0.5797  0.1738
 1866SOL    MW4 7511   3.151   2.412   3.016  0.1118  0.0648  0.1550
 1867SOL     OW 7512   3.150   2.680   3.132 -0.1308  0.1339  0.1259
 1867SOL    HW2 7513   3.138   2.674   3.227  1.2846  1.3305  0.4074
 1867SOL    HW3 7514   3.143   2.590   3.101 -0.3147 -0.3063  1.4136
 1867SOL    MW4 7515   3.148   2.668   3.140  0.0317  0.2337  0.3331
 1868SOL     OW 7516   3.386   2.829   3.042 -0.3307  0.1839 -0.3087
 1868SOL    HW2 7517   3.375   2.919   3.075 -0.5339 -0.6409  2.0049
 1868SOL    HW3 7518   3.311   2.781   3.078  0.6861 -1.2793 -0.1004
 1868SOL    MW4 7519   3.375   2.835   3.051 -0.2234 -0.1180  0.0241
 1869SOL     OW 7520   3.362   3.103   3.121  0.1180  0.1954  0.2174
 1869SOL    HW2 7521   3.356   3.129   3.214  0.6608  1.5562 -0.1192
 1869SOL    HW3 7522   3.285   3.144   3.081 -0.0856 -0.3502  0.0492
 1869SOL    MW4 7523   3.351   3.112   3.128  0.1631  0.3028  0.1507
 1870SOL     OW 7524   3.151   3.232   3.034  0.4635 -0.0855 -0.2435
 1870SOL    HW2 7525   3.079   3.177   3.063  0.6924 -0.3431 -0.1622
 1870SOL    HW3 7526   3.147   3.228   2.939  0.4505 -0.2085 -0.2381
 1870SOL    MW4 7527   3.141   3.224   3.025  0.4921 -0.1357 -0.2320
 1871SOL     OW 7528   3.121   3.497   3.108  0.4116  0.0991  0.2788
 1871SOL    HW2 7529   3.207   3.515   3.069  0.4603  0.1262  0.3982
 1871SOL    HW3 7530   3.109   3.403   3.097  0.7317 -0.0062  0.8194
 1871SOL    MW4 7531   3.131   3.487   3.102  0.4604  0.0889  0.3657
 1872SOL     OW 7532   3.377   3.580   3.018  0.0059 -0.6443  0.0712
 1872SOL    HW2 7533   3.454   3.539   3.057  0.0156 -1.0256 -0.3588
 1872SOL    HW3 7534   3.381   3.671   3.049  1.7808 -0.1092 -1.6708
 1872SOL    MW4 7535   3.388   3.587   3.027  0.2410 -0.6239 -0.2153
 1873SOL     OW 7536   3.386   3.838   3.124 -0.1642 -0.3807 -0.0308
 1873SOL    HW2 7537   3.394   3.838   3.219 -0.4353 -1.0496 -0.0068
 1873SOL    HW3 7538   3.313   3.898   3.106 -0.1239 -0.2680  0.1780
 1873SOL    MW4 7539   3.378   3.846   3.134 -0.1945 -0.4539  0.0000
 1874SOL     OW 7540   3.168   3.987   3.053  0.1555 -0.2528 -0.0452
 1874SOL    HW2 7541   3.107   3.935   3.105 -0.5464 -0.0599 -0.6773
 1874SOL    HW3 7542   3.132   3.986   2.964 -0.1994  1.8198  0.0529
 1874SOL    MW4 7543   3.155   3.980   3.048  0.0160  0.0463 -0.1154
 1875SOL     OW 7544   3.136   4.248   3.149  0.5862 -0.0883 -0.0506
 1875SOL    HW2 7545   3.140   4.251   3.244 -2.4508 -1.3695  0.1953
 1875SOL    HW3 7546   3.155   4.156   3.127 -0.6988 -0.2712 -0.4886
 1875SOL    MW4 7547   3.139   4.236   3.158  0.0162 -0.2813 -0.0758
 1876SOL     OW 7548   3.385   4.381   3.074  0.0714  0.1986 -0.7523
 1876SOL    HW2 7549   3.449   4.315   3.101 -0.3455  0.8252  1.8418
 1876SOL    HW3 7550   3.300   4.343   3.099 -0.5974 -0.4206 -3.7344
 1876SOL    MW4 7551   3.382   4.367   3.081 -0.0715  0.1993 -0.8037
 1877SOL     OW 7552   3.847   4.642   3.151 -0.2687  0.1194 -0.2397
 1877SOL    HW2 7553   3.831   4.556   3.111 -1.2522  0.1423  0.0821
 1877SOL    HW3 7554   3.770   4.694   3.127 -0.5112  0.3685  1.0372
 1877SOL    MW4 7555   3.835   4.638   3.143 -0.4306  0.1554 -0.0291
 1878SOL     OW 7556   3.618   0.108   3.026  0.1325 -0.6296  0.3150
 1878SOL    HW2 7557   3.607   0.198   3.056  0.7500 -0.1958 -0.7038
 1878SOL    HW3 7558   3.614   0.114   2.930  0.6039 -1.6155  0.2198
 1878SOL    MW4 7559   3.616   0.121   3.017  0.2761 -0.7025  0.1678
 1879SOL     OW 7560   3.584   0.344   3.140 -0.3018 -0.0348  0.2277
 1879SOL    HW2 7561   3.586   0.351   3.235 -0.4895  0.5788  0.1895
 1879SOL    HW3 7562   3.662   0.390   3.111 -0.0110 -0.5983  0.0990
 1879SOL    MW4 7563   3.594   0.351   3.149 -0.2882 -0.0282  0.2058
 1880SOL     OW 7564   3.822   0.482   3.060 -0.3424 -0.3367  0.1467
 1880SOL    HW2 7565   3.897   0.430   3.088 -0.1744 -0.1916 -0.0421
 1880SOL    HW3 7566   3.835   0.567   3.101 -0.0549 -0.0970 -0.4412
 1880SOL    MW4 7567   3.834   0.486   3.069 -0.2825 -0.2860  0.0439
 1881SOL     OW 7568   3.841   0.745   3.169 -0.3716  0.2776  0.2527
 1881SOL    HW2 7569   3.831   0.775   3.259 -0.5544 -0.4773  0.4809
 1881SOL    HW3 7570   3.919   0.791   3.137  0.9928 -1.1430  1.5014
 1881SOL    MW4 7571   3.850   0.755   3.176 -0.2155 -0.0094  0.4475
 1882SOL     OW 7572   3.599   0.871   3.059 -0.0236  0.2588  0.3742
 1882SOL    HW2 7573   3.652   0.793   3.076 -2.1320 -1.3489 -0.1240
 1882SOL    HW3 7574   3.509   0.842   3.076 -1.1579  1.6609 -2.8577
 1882SOL    MW4 7575   3.594   0.857   3.064 -0.4513  0.2317 -0.1178
 1883SOL     OW 7576   3.626   1.136   3.140 -0.1041 -0.2369 -0.4691
 1883SOL    HW2 7577   3.699   1.167   3.087 -0.2315  1.0914  0.1174
 1883SOL    HW3 7578   3.610   1.046   3.109  0.2628  0.2721 -2.1894
 1883SOL    MW4 7579   3.633   1.128   3.129 -0.0725  0.0056 -0.6187
 1884SOL     OW 7580   3.851   1.258   3.016 -0.1008  0.0297 -0.4388
 1884SOL    HW2 7581   3.879   1.345   3.045  2.0735 -0.2099 -1.6894
 1884SOL    HW3 7582   3.861   1.261   2.921  1.2015 -1.9800 -0.3905
 1884SOL    MW4 7583   3.856   1.270   3.007  0.3579 -0.2670 -0.5977
 1885SOL     OW 7584   3.862   1.519   3.123  0.0049  0.4750  0.0463
 1885SOL    HW2 7585   3.861   1.527   3.219  0.0144  0.9024  0.0156
 1885SOL    HW3 7586   3.778   1.556   3.096 -0.2066 -0.0943 -0.0802
 1885SOL    MW4 7587   3.850   1.525   3.132 -0.0219  0.4563  0.0257
 1886SOL     OW 7588   3.576   1.929   3.126  0.9842 -0.0591 -0.4062
 1886SOL    HW2 7589   3.584   1.938   3.221  0.7517 -1.3867 -0.2489
 1886SOL    HW3 7590   3.640   1.991   3.090  1.0029  0.5127  0.6147
 1886SOL    MW4 7591   3.586   1.938   3.134  0.9558 -0.1587 -0.2511
 1887SOL     OW 7592   3.595   1.939   3.414  0.1646  0.6202 -0.3093
 1887SOL    HW2 7593   3.515   1.961   3.463 -1.1118 -0.0164 -2.0464
 1887SOL    HW3 7594   3.665   1.984   3.461 -1.0149  0.0721  2.0572
 1887SOL    MW4 7595   3.593   1.948   3.426 -0.1593  0.4638 -0.2265
 1888SOL     OW 7596   4.010   1.937   3.164 -0.3450  0.0384 -0.4396
 1888SOL    HW2 7597   4.079   1.992   3.126  0.5664 -1.8943 -1.6442
 1888SOL    HW3 7598   3.929   1.966   3.121 -0.1525  1.6477  0.2649
 1888SOL    MW4 7599   4.008   1.948   3.153 -0.1988 -0.0043 -0.5052
 1889SOL     OW 7600   3.795   2.067   3.025 -0.1626  0.3817 -0.4351
 1889SOL    HW2 7601   3.818   2.159   3.039  2.6633 -0.3147 -0.3589
 1889SOL    HW3 7602   3.828   2.048   2.937  0.8956 -1.0517  0.2608
 1889SOL    MW4 7603   3.802   2.077   3.015  0.3498  0.1006 -0.3333
 1890SOL     OW 7604   3.602   2.444   3.035  0.0779 -0.4582 -0.3465
 1890SOL    HW2 7605   3.608   2.531   3.075  1.6581  0.0800 -1.6956
 1890SOL    HW3 7606   3.514   2.414   3.057 -0.1241  1.0530  1.0127
 1890SOL    MW4 7607   3.591   2.452   3.043  0.2599 -0.1879 -0.3455
 1891SOL     OW 7608   3.600   2.685   3.148  0.2273 -0.9193  0.3539
 1891SOL    HW2 7609   3.676   2.724   3.104  0.5983 -1.3027  0.6496
 1891SOL    HW3 7610   3.527   2.742   3.124  0.6032 -0.5572  0.0502
 1891SOL    MW4 7611   3.600   2.698   3.139  0.3257 -0.9222  0.3529
 1892SOL     OW 7612   3.818   2.849   3.040  0.0732 -0.1981 -0.0763
 1892SOL    HW2 7613   3.842   2.927   3.090 -0.0478 -0.8043  0.9326
 1892SOL    HW3 7614   3.816   2.879   2.949 -0.7582  1.1755  0.3739
 1892SOL    MW4 7615   3.821   2.863   3.035 -0.0527 -0.0968  0.1163
 1893SOL     OW 7616   3.875   3.094   3.136  0.4456  0.4755 -0.1439
 1893SOL    HW2 7617   3.948   3.148   3.105  0.9597 -0.0855  0.0673
 1893SOL    HW3 7618   3.797   3.137   3.102  0.8843  1.0254 -0.4657
 1893SOL    MW4 7619   3.874   3.107   3.127  0.5710  0.4742 -0.1585
 1894SOL     OW 7620   3.637   3.190   3.042  0.1544  0.0309 -0.1774
 1894SOL    HW2 7621   3.560   3.153   3.086  1.9557 -0.2929  2.8581
 1894SOL    HW3 7622   3.619   3.179   2.949 -2.3523 -2.3591  0.5235
 1894SOL    MW4 7623   3.625   3.184   3.036  0.0613 -0.3273  0.3154
 1895SOL     OW 7624   3.635   3.454   3.139 -0.1529  0.2642 -0.4784
 1895SOL    HW2 7625   3.715   3.481   3.094  1.7097 -1.4423  1.6875
 1895SOL    HW3 7626   3.622   3.363   3.112 -0.7322  0.1758  0.0916
 1895SOL    MW4 7627   3.644   3.446   3.129  0.0165  0.0272 -0.1175
 1896SOL     OW 7628   3.828   3.605   3.011  0.4652  0.5064  0.2683
 1896SOL    HW2 7629   3.905   3.562   3.048 -1.0007 -1.6519  0.8877
 1896SOL    HW3 7630   3.828   3.578   2.919 -0.5439 -0.9991  0.6944
 1896SOL    MW4 7631   3.838   3.596   3.004  0.1388  0.0231  0.4063
 1897SOL     OW 7632   3.865   3.853   3.128 -0.2142  0.0138 -0.1966
 1897SOL    HW2 7633   3.841   3.843   3.220 -0.5083  1.6767 -0.0714
 1897SOL    HW3 7634   3.860   3.764   3.092 -0.2842 -0.6191  1.3385
 1897SOL    MW4 7635   3.861   3.840   3.135 -0.2623  0.1497  0.0222
 1898SOL     OW 7636   3.628   3.979   3.059  0.0192  0.3576  0.4701
 1898SOL    HW2 7637   3.550   3.926   3.075 -0.5803  1.1453  0.2232
 1898SOL    HW3 7638   3.700   3.930   3.099 -0.6172 -0.3261  0.7869
 1898SOL    MW4 7639   3.627   3.965   3.066 -0.1438  0.3710  0.4790
 1899SOL     OW 7640   3.607   4.241   3.200  0.1444  0.5829 -0.0948
 1899SOL    HW2 7641   3.674   4.279   3.142 -0.1683  0.3788 -0.5934
 1899SOL    HW3 7642   3.597   4.151   3.168  1.5820 -0.2423  1.6778
 1899SOL    MW4 7643   3.615   4.234   3.188  0.2930  0.4473  0.0732
 1900SOL     OW 7644   3.833   4.394   3.044 -0.1462  0.0871  0.1565
 1900SOL    HW2 7645   3.909   4.353   3.085  0.7271  0.0358 -1.5179
 1900SOL    HW3 7646   3.842   4.377   2.951 -1.4783  1.2818 -0.2196
 1900SOL    MW4 7647   3.844   4.386   3.037 -0.2069  0.2379 -0.1142
 1901SOL     OW 7648   4.249   0.017   3.148  0.0144 -0.1797  0.5584
 1901SOL    HW2 7649   4.251  -0.001   3.242  0.2283 -1.7127  0.2727
 1901SOL    HW3 7650   4.248  -0.069   3.107  1.5352  0.4547 -0.8899
 1901SOL    MW4 7651   4.249   0.003   3.155  0.2432 -0.2982  0.3295
 1902SOL     OW 7652   4.034   0.135   3.035  0.3025  0.1359  0.1936
 1902SOL    HW2 7653   4.108   0.096   3.082  0.5255  0.4750  0.1306
 1902SOL    HW3 7654   3.957   0.088   3.067  0.6329 -0.8223 -0.3749
 1902SOL    MW4 7655   4.034   0.124   3.045  0.3753  0.0543  0.1104
 1903SOL     OW 7656   4.055   0.374   3.150  0.1021  0.4568 -0.1258
 1903SOL    HW2 7657   4.134   0.412   3.114 -0.5482 -0.1573 -2.2925
 1903SOL    HW3 7658   4.051   0.286   3.112 -1.4160  0.3495  0.2208
 1903SOL    MW4 7659   4.065   0.367   3.140 -0.1836  0.3616 -0.3657
 1904SOL     OW 7660   4.278   0.520   3.097 -0.1431  0.5847  0.0516
 1904SOL    HW2 7661   4.284   0.611   3.127  0.8070  1.2190 -1.9686
 1904SOL    HW3 7662   4.247   0.527   3.007  0.0797 -1.0963 -0.1658
 1904SOL    MW4 7663   4.274   0.533   3.089  0.0114  0.4467 -0.2437
 1905SOL     OW 7664   4.296   0.781   3.186  0.3898 -0.2891 -0.4635
 1905SOL    HW2 7665   4.367   0.828   3.141 -0.1029  1.8706  0.9424
 1905SOL    HW3 7666   4.216   0.821   3.151 -0.1579 -2.2949 -1.5868
 1905SOL    MW4 7667   4.295   0.792   3.175  0.2532 -0.2687 -0.4263
 1906SOL     OW 7668   4.074   0.890   3.059  0.1518 -0.1162 -0.0229
 1906SOL    HW2 7669   4.075   0.979   3.093 -0.1399  0.2848 -1.0359
 1906SOL    HW3 7670   4.075   0.901   2.964  1.9740 -1.2240 -0.1550
 1906SOL    MW4 7671   4.074   0.903   3.051  0.3543 -0.2094 -0.1740
 1907SOL     OW 7672   4.061   1.127   3.169 -0.2593 -0.1280 -0.3160
 1907SOL    HW2 7673   4.064   1.153   3.261  0.7420 -0.3029 -0.2940
 1907SOL    HW3 7674   3.975   1.157   3.138  0.1938  1.6833  0.1445
 1907SOL    MW4 7675   4.050   1.134   3.177 -0.0677  0.0877 -0.2525
 1908SOL     OW 7676   4.272   1.287   3.044  0.0120  0.3199 -0.0637
 1908SOL    HW2 7677   4.195   1.235   3.068  0.6995 -0.5264  0.3137
 1908SOL    HW3 7678   4.272   1.286   2.948  0.1612 -0.6017 -0.0628
 1908SOL    MW4 7679   4.262   1.280   3.034  0.1221  0.0868 -0.0136
 1909SOL     OW 7680   4.289   1.554   3.077 -0.2117  0.2353 -0.2529
 1909SOL    HW2 7681   4.201   1.588   3.060  0.6931  2.1842 -1.1748
 1909SOL    HW3 7682   4.279   1.459   3.072 -2.7803  0.2855  2.2623
 1909SOL    MW4 7683   4.276   1.546   3.074 -0.4315  0.4990 -0.0424
 1910SOL     OW 7684   4.071   1.695   3.038  0.0503  0.0407  0.0638
 1910SOL    HW2 7685   4.055   1.781   3.077 -2.0132  0.2245 -1.1076
 1910SOL    HW3 7686   3.998   1.641   3.069  1.1179 -1.2055  0.4764
 1910SOL    MW4 7687   4.059   1.699   3.047 -0.0811 -0.0994 -0.0365
 1911SOL     OW 7688   4.027   1.945   3.432  0.2305 -0.2651 -0.1339
 1911SOL    HW2 7689   4.108   1.993   3.450  0.2454 -0.2951 -0.1218
 1911SOL    HW3 7690   4.025   1.938   3.337 -0.3910  0.8335 -0.2141
 1911SOL    MW4 7691   4.038   1.951   3.422  0.1502 -0.1241 -0.1431
 1912SOL     OW 7692   4.230   2.087   3.071  0.3781  0.1340  0.2930
 1912SOL    HW2 7693   4.222   2.181   3.089  0.6003  0.1372  0.3789
 1912SOL    HW3 7694   4.223   2.080   2.975  0.6980  0.2736  0.2586
 1912SOL    MW4 7695   4.228   2.099   3.061  0.4492  0.1528  0.2997
 1913SOL     OW 7696   4.246   2.354   3.107 -0.6459  0.3111  0.3200
 1913SOL    HW2 7697   4.182   2.397   3.051  0.2304 -0.1436 -1.0715
 1913SOL    HW3 7698   4.329   2.394   3.083  0.0155 -1.3044 -0.1722
 1913SOL    MW4 7699   4.248   2.365   3.096 -0.4435  0.0381  0.0713
 1914SOL     OW 7700   3.863   2.331   3.076 -0.1110 -0.3149 -0.4690
 1914SOL    HW2 7701   3.880   2.336   3.170 -0.3716 -1.0013 -0.3804
 1914SOL    HW3 7702   3.769   2.349   3.067 -0.7140 -3.0872 -0.2968
 1914SOL    MW4 7703   3.853   2.334   3.087 -0.2253 -0.7713 -0.4346
 1915SOL     OW 7704   4.071   2.472   2.955 -0.4607  0.1315  0.4977
 1915SOL    HW2 7705   4.048   2.554   2.999  1.1171 -0.0988  1.7966
 1915SOL    HW3 7706   4.011   2.407   2.991  0.0136  0.1935  1.4084
 1915SOL    MW4 7707   4.060   2.475   2.965 -0.1903  0.1094  0.7892
 1916SOL     OW 7708   4.280   2.842   3.014  0.4737  0.0735 -0.6830
 1916SOL    HW2 7709   4.211   2.780   3.037 -0.2228  1.3808  0.8300
 1916SOL    HW3 7710   4.359   2.809   3.058  0.5749 -0.8306 -1.5353
 1916SOL    MW4 7711   4.282   2.830   3.023  0.3953  0.1266 -0.5956
 1917SOL     OW 7712   4.069   3.266   3.030  0.4249  0.2399 -0.0782
 1917SOL    HW2 7713   4.148   3.215   3.049  0.2564 -0.0820 -0.2304
 1917SOL    HW3 7714   4.056   3.256   2.936  0.4543  0.6574 -0.1242
 1917SOL    MW4 7715   4.078   3.258   3.020  0.4077  0.2527 -0.1044
 1918SOL     OW 7716   4.056   3.227   2.744 -0.0073 -0.4052  0.5346
 1918SOL    HW2 7717   3.974   3.190   2.712  0.1667  0.1499 -0.5784
 1918SOL    HW3 7718   4.056   3.317   2.712  0.2281  0.1514  2.0226
 1918SOL    MW4 7719   4.045   3.234   2.736  0.0467 -0.2587  0.5839
 1919SOL     OW 7720   4.088   3.532   3.104  0.1639  0.5017  0.0567
 1919SOL    HW2 7721   4.072   3.442   3.077 -0.2922  1.0378 -1.5555
 1919SOL    HW3 7722   4.103   3.527   3.198 -1.2970 -1.0724  0.2368
 1919SOL    MW4 7723   4.088   3.520   3.112 -0.0887  0.3645 -0.1321
 1920SOL     OW 7724   4.275   3.714   3.004  0.5380  0.4567  0.6076
 1920SOL    HW2 7725   4.193   3.668   3.025  1.0338 -0.1932  1.1328
 1920SOL    HW3 7726   4.275   3.790   3.062  1.0153 -0.3400  1.6522
 1920SOL    MW4 7727   4.264   3.718   3.014  0.6661  0.2656  0.8147
 1921SOL     OW 7728   4.239   3.910   3.214 -0.1069 -0.2435  0.0452
 1921SOL    HW2 7729   4.163   3.956   3.176 -1.4969 -1.6238  1.0856
 1921SOL    HW3 7730   4.312   3.969   3.200 -1.2980  0.9354 -1.3969
 1921SOL    MW4 7731   4.238   3.924   3.207 -0.4473 -0.2704 -0.0079
 1922SOL     OW 7732   4.058   4.028   3.025 -0.2805  0.0364  0.1674
 1922SOL    HW2 7733   4.053   4.113   3.070 -0.5745 -0.3850  0.9409
 1922SOL    HW3 7734   3.975   3.986   3.045  0.6196 -1.2033  1.3396
 1922SOL    MW4 7735   4.047   4.034   3.034 -0.2007 -0.1826  0.4239
 1923SOL     OW 7736   4.047   4.257   3.177 -0.0129  0.2429 -0.0669
 1923SOL    HW2 7737   4.028   4.246   3.270 -1.2701 -0.7404 -0.4248
 1923SOL    HW3 7738   4.122   4.316   3.175  0.8869 -0.7849  1.6214
 1923SOL    MW4 7739   4.054   4.263   3.189 -0.0601 -0.0219  0.1085
 1924SOL     OW 7740   4.257   4.421   3.071  0.0323  0.0276  0.1525
 1924SOL    HW2 7741   4.331   4.373   3.108  2.1247  2.6766 -0.4368
 1924SOL    HW3 7742   4.257   4.398   2.978  0.8057  0.8289 -0.0562
 1924SOL    MW4 7743   4.267   4.412   3.063  0.4106  0.4826  0.0472
 1925SOL     OW 7744   0.275   0.017   3.369 -0.2769  0.1642 -0.2617
 1925SOL    HW2 7745   0.339   0.078   3.404 -1.9555  1.6040  0.3922
 1925SOL    HW3 7746   0.285  -0.063   3.421 -1.1189  1.4499  1.9345
 1925SOL    MW4 7747   0.284   0.014   3.380 -0.6095  0.5231  0.1142
 1926SOL     OW 7748   0.006   0.072   3.485  0.1811 -0.1780  0.3811
 1926SOL    HW2 7749  -0.002   0.164   3.462 -0.1252 -0.0576  0.9528
 1926SOL    HW3 7750   0.076   0.038   3.429 -1.0201 -0.0606 -1.2254
 1926SOL    MW4 7751   0.014   0.079   3.474 -0.0178 -0.1467  0.2446
 1927SOL     OW 7752   4.460   0.356   3.433 -0.1650  0.3548  0.1541
 1927SOL    HW2 7753   4.392   0.413   3.470 -1.1234  0.1931 -1.3542
 1927SOL    HW3 7754   4.542   0.395   3.464 -0.8244  2.2993 -0.4674
 1927SOL    MW4 7755   4.462   0.369   3.442 -0.3781  0.5901 -0.1266
 1928SOL     OW 7756   0.204   0.490   3.502 -0.1011 -0.3543 -0.0003
 1928SOL    HW2 7757   0.290   0.454   3.481  1.1151  1.8561  0.9436
 1928SOL    HW3 7758   0.205   0.578   3.465 -1.4722  0.1462  1.0911
 1928SOL    MW4 7759   0.216   0.497   3.494 -0.1215  0.0033  0.2682
 1929SOL     OW 7760   0.236   0.752   3.409  0.5354 -0.3656 -0.7958
 1929SOL    HW2 7761   0.323   0.780   3.435 -0.1437  0.9076  0.2016
 1929SOL    HW3 7762   0.177   0.801   3.466 -0.9079  0.2326 -2.7269
 1929SOL    MW4 7763   0.239   0.762   3.420  0.2554 -0.1186 -0.9189
 1930SOL     OW 7764   0.021   0.916   3.555 -0.9059 -0.0122  0.5452
 1930SOL    HW2 7765   0.021   0.933   3.650 -0.4422  0.3741  0.4796
 1930SOL    HW3 7766   0.020   1.004   3.516  1.8351 -0.0979  0.1875
 1930SOL    MW4 7767   0.021   0.930   3.563 -0.4831  0.0275  0.4895
 1931SOL     OW 7768   4.490   1.178   3.470 -0.1091  0.0764  0.4076
 1931SOL    HW2 7769   4.573   1.214   3.500 -0.1585  0.6602 -0.1361
 1931SOL    HW3 7770   4.493   1.185   3.375 -0.4857 -0.5575  0.3456
 1931SOL    MW4 7771   4.501   1.184   3.462 -0.1653  0.0696  0.3276
 1932SOL     OW 7772   0.224   1.325   3.581 -0.0264 -0.1191  0.3717
 1932SOL    HW2 7773   0.290   1.263   3.548 -1.9993 -1.7067 -0.6813
 1932SOL    HW3 7774   0.249   1.409   3.542  0.1659 -1.1184 -1.7173
 1932SOL    MW4 7775   0.236   1.328   3.571 -0.2613 -0.4604 -0.0432
 1933SOL     OW 7776   0.276   1.592   3.485 -0.0470 -0.6426 -0.4957
 1933SOL    HW2 7777   0.365   1.612   3.513 -0.7777  1.8032  0.2459
 1933SOL    HW3 7778   0.278   1.602   3.390  0.0002  1.5831 -0.2904
 1933SOL    MW4 7779   0.288   1.596   3.476 -0.1372 -0.0261 -0.3705
 1934SOL     OW 7780   0.037   1.720   3.514 -0.0967 -0.5477 -0.1003
 1934SOL    HW2 7781   0.123   1.679   3.513  0.2854  0.2440  0.3922
 1934SOL    HW3 7782  -0.019   1.658   3.466  0.1733 -2.2561  1.7006
 1934SOL    MW4 7783   0.041   1.706   3.507 -0.0106 -0.6686  0.2022
 1935SOL     OW 7784   0.015   1.976   3.442  0.3823 -0.2874 -0.4246
 1935SOL    HW2 7785   0.025   1.885   3.471 -0.1869 -0.6517 -1.3451
 1935SOL    HW3 7786   0.014   1.970   3.346  1.1376  0.7753 -0.5059
 1935SOL    MW4 7787   0.017   1.963   3.433  0.4067 -0.1953 -0.5569
 1936SOL     OW 7788   0.245   2.078   3.583  0.2687 -0.1331  0.5586
 1936SOL    HW2 7789   0.233   2.059   3.676 -2.0393 -1.4423  0.0382
 1936SOL    HW3 7790   0.165   2.046   3.541  0.8116  1.3797 -1.7586
 1936SOL    MW4 7791   0.233   2.071   3.590  0.0358 -0.1063  0.1841
 1937SOL     OW 7792   0.458   2.443   3.461 -0.3073  0.2702  0.2717
 1937SOL    HW2 7793   0.386   2.384   3.438 -0.7753  0.7385  0.5214
 1937SOL    HW3 7794   0.537   2.392   3.442 -0.7037 -0.6267  0.9895
 1937SOL    MW4 7795   0.459   2.428   3.455 -0.4214  0.2136  0.3991
 1938SOL     OW 7796   0.230   2.294   3.416 -0.5143 -0.1168 -0.2712
 1938SOL    HW2 7797   0.234   2.230   3.487  0.1396  0.7279  0.4850
 1938SOL    HW3 7798   0.160   2.354   3.443  1.0932  1.3706  0.6957
 1938SOL    MW4 7799   0.221   2.294   3.429 -0.2160  0.1910 -0.0436
 1939SOL     OW 7800   0.002   2.731   3.427  0.1013 -0.0627 -0.0533
 1939SOL    HW2 7801   0.001   2.640   3.457 -0.9040 -0.2355 -0.5768
 1939SOL    HW3 7802   0.084   2.766   3.460  0.6311 -1.2413 -0.0863
 1939SOL    MW4 7803   0.013   2.723   3.436  0.0386 -0.2410 -0.1271
 1940SOL     OW 7804   0.249   2.842   3.479 -0.3330  0.0713  0.6953
 1940SOL    HW2 7805   0.328   2.797   3.447 -0.6102  0.0729  0.0111
 1940SOL    HW3 7806   0.247   2.924   3.430 -1.2257 -0.3033  0.1053
 1940SOL    MW4 7807   0.259   2.847   3.469 -0.4874  0.0219  0.5274
 1941SOL     OW 7808   0.240   3.147   3.102  0.2973  0.4463  0.0965
 1941SOL    HW2 7809   0.169   3.192   3.055  1.4985  0.5992 -1.6168
 1941SOL    HW3 7810   0.226   3.054   3.083 -1.3643  0.1503  2.4967
 1941SOL    MW4 7811   0.228   3.141   3.093  0.2366  0.4272  0.1869
 1942SOL     OW 7812   0.000   3.223   3.503  0.1881  0.1373 -0.3455
 1942SOL    HW2 7813  -0.080   3.178   3.479 -0.8562  1.7712 -0.0171
 1942SOL    HW3 7814  -0.012   3.313   3.471  2.2914  0.1606 -1.1761
 1942SOL    MW4 7815  -0.012   3.229   3.496  0.3281  0.3557 -0.4117
 1943SOL     OW 7816   4.456   3.511   3.129  0.4474  0.4239 -0.1335
 1943SOL    HW2 7817   4.390   3.542   3.066  1.9129  0.2340 -1.7868
 1943SOL    HW3 7818   4.486   3.428   3.093  0.6745 -0.1223  1.2940
 1943SOL    MW4 7819   4.451   3.505   3.116  0.6709  0.3264 -0.1633
 1944SOL     OW 7820   0.191   3.630   3.523 -0.3977  0.4987 -0.0060
 1944SOL    HW2 7821   0.191   3.638   3.618 -0.0883 -1.2665  0.1562
 1944SOL    HW3 7822   0.109   3.584   3.503 -0.0301  0.0526 -0.5130
 1944SOL    MW4 7823   0.180   3.625   3.533 -0.3084  0.2072 -0.0515
 1945SOL     OW 7824   0.208   3.900   3.422 -0.8513 -0.1346 -0.3278
 1945SOL    HW2 7825   0.141   3.944   3.475 -0.4339  0.2019 -0.0674
 1945SOL    HW3 7826   0.200   3.808   3.445 -1.1069 -0.0726 -0.1599
 1945SOL    MW4 7827   0.198   3.894   3.432 -0.8299 -0.0820 -0.2716
 1946SOL     OW 7828   0.007   4.031   3.559 -0.4217  0.0808  0.1342
 1946SOL    HW2 7829   0.022   4.052   3.651 -0.0891 -0.6102  0.2407
 1946SOL    HW3 7830   0.019   4.114   3.513 -0.3304  0.3744  0.6809
 1946SOL    MW4 7831   0.011   4.045   3.565 -0.3657  0.0286  0.2203
 1947SOL     OW 7832   0.009   4.282   3.471  0.0439 -0.9668  0.7877
 1947SOL    HW2 7833  -0.077   4.312   3.500  0.0334 -0.8373  0.6265
 1947SOL    HW3 7834   0.070   4.350   3.502  0.1062 -1.1286  1.0256
 1947SOL    MW4 7835   0.006   4.295   3.479  0.0510 -0.9713  0.7980
 1948SOL     OW 7836   0.228   4.455   3.514  0.1105  0.1813 -0.4821
 1948SOL    HW2 7837   0.244   4.469   3.607  0.0411  2.5170 -0.7963
 1948SOL    HW3 7838   0.278   4.376   3.493 -0.3148 -0.6833  1.6341
 1948SOL    MW4 7839   0.237   4.446   3.524  0.0452  0.3757 -0.2444
 1949SOL     OW 7840   0.662   0.007   3.423  0.3694 -0.1688  0.0494
 1949SOL    HW2 7841   0.746   0.039   3.456  0.5066 -0.1849 -0.2864
 1949SOL    HW3 7842   0.671   0.011   3.328 -0.6203  1.4102  0.0131
 1949SOL    MW4 7843   0.675   0.011   3.415  0.2570  0.0374  0.0002
 1950SOL     OW 7844   0.450   0.162   3.518  0.4760 -0.0503 -0.6412
 1950SOL    HW2 7845   0.446   0.132   3.610  0.3729 -1.5755 -1.1206
 1950SOL    HW3 7846   0.535   0.130   3.487  0.5747  0.5990 -1.0441
 1950SOL    MW4 7847   0.461   0.154   3.526  0.4754 -0.1658 -0.7577
 1951SOL     OW 7848   0.460   0.410   3.405 -0.0642  0.1949  0.4377
 1951SOL    HW2 7849   0.545   0.450   3.420 -0.4594  1.0612  0.3869
 1951SOL    HW3 7850   0.463   0.328   3.454  1.2952 -0.4469 -0.6896
 1951SOL    MW4 7851   0.472   0.404   3.414  0.0630  0.2245  0.2823
 1952SOL     OW 7852   0.716   0.528   3.505  0.4231  0.3062  0.0223
 1952SOL    HW2 7853   0.710   0.520   3.600  0.3489 -1.3242 -0.1132
 1952SOL    HW3 7854   0.803   0.494   3.483 -0.7537 -2.3334 -0.7790
 1952SOL    MW4 7855   0.727   0.523   3.515  0.2581 -0.2572 -0.1011
 1953SOL     OW 7856   0.713   0.786   3.441  1.2120  0.0794 -0.1965
 1953SOL    HW2 7857   0.634   0.813   3.488  3.4911 -0.0315  3.9248
 1953SOL    HW3 7858   0.724   0.694   3.462  1.7650 -0.2298 -1.7757
 1953SOL    MW4 7859   0.704   0.778   3.450  1.5857  0.0239  0.1390
 1954SOL     OW 7860   0.454   0.863   3.549 -0.0641  0.6197 -0.0310
 1954SOL    HW2 7861   0.437   0.863   3.643 -1.8534 -0.2316 -0.3188
 1954SOL    HW3 7862   0.445   0.955   3.523 -1.3297  0.6207  0.3635
 1954SOL    MW4 7863   0.450   0.875   3.558 -0.4672  0.5075 -0.0169
 1955SOL     OW 7864   0.429   1.170   3.480 -0.1417  0.2950 -0.2078
 1955SOL    HW2 7865   0.513   1.204   3.512 -1.0601  2.2965  0.1268
 1955SOL    HW3 7866   0.430   1.190   3.386 -0.8912  1.6893  0.0799
 1955SOL    MW4 7867   0.440   1.177   3.472 -0.3618  0.7430 -0.1256
 1956SOL     OW 7868   0.678   1.269   3.553  0.5126 -0.1946 -0.1070
 1956SOL    HW2 7869   0.698   1.361   3.538  1.5928 -0.2551  0.8509
 1956SOL    HW3 7870   0.742   1.221   3.500  0.0102 -0.3897 -0.5365
 1956SOL    MW4 7871   0.689   1.274   3.544  0.5888 -0.2283 -0.0372
 1957SOL     OW 7872   0.711   1.535   3.468 -0.0839  0.3469  0.1439
 1957SOL    HW2 7873   0.794   1.580   3.484 -0.0937  0.4424 -0.0670
 1957SOL    HW3 7874   0.644   1.601   3.483 -0.1675  0.0349  1.1695
 1957SOL    MW4 7875   0.713   1.550   3.472 -0.0962  0.3183  0.2513
 1958SOL     OW 7876   0.521   1.707   3.563 -0.0341 -0.2634 -0.3624
 1958SOL    HW2 7877   0.506   1.704   3.657  0.5110 -0.1175 -0.2695
 1958SOL    HW3 7878   0.512   1.799   3.539  1.2750 -0.0879 -0.2073
 1958SOL    MW4 7879   0.518   1.719   3.572  0.2106 -0.2210 -0.3300
 1959SOL     OW 7880   0.481   1.968   3.451  0.5100 -0.3462  0.2552
 1959SOL    HW2 7881   0.402   2.013   3.482  0.8165 -0.9589  1.9910
 1959SOL    HW3 7882   0.458   1.938   3.363 -1.0388 -0.1380  0.5652
 1959SOL    MW4 7883   0.467   1.970   3.444  0.3461 -0.3996  0.5250
 1960SOL     OW 7884   0.725   2.037   3.541 -0.4694 -0.1811  0.3983
 1960SOL    HW2 7885   0.716   2.036   3.637  0.5708 -0.6653  0.4898
 1960SOL    HW3 7886   0.637   2.017   3.509 -0.6044 -1.0107  1.2686
 1960SOL    MW4 7887   0.712   2.035   3.550 -0.3500 -0.3545  0.5255
 1961SOL     OW 7888   0.694   2.288   3.421  0.2877  0.4297 -0.0963
 1961SOL    HW2 7889   0.784   2.317   3.438  0.0242  0.4312  1.3971
 1961SOL    HW3 7890   0.693   2.196   3.449 -0.4365  0.7284  0.9029
 1961SOL    MW4 7891   0.706   2.280   3.427  0.1574  0.4692  0.2325
 1962SOL     OW 7892   0.417   2.446   3.751 -0.2727  0.0388 -0.3672
 1962SOL    HW2 7893   0.432   2.444   3.656 -1.2526  1.1354 -0.5618
 1962SOL    HW3 7894   0.494   2.404   3.789 -0.1915 -1.0372 -1.6873
 1962SOL    MW4 7895   0.429   2.440   3.743 -0.3913  0.0412 -0.5672
 1963SOL     OW 7896   0.475   2.711   3.387 -0.4774 -0.6536 -0.0445
 1963SOL    HW2 7897   0.471   2.617   3.403  0.6211 -0.5136  1.1935
 1963SOL    HW3 7898   0.449   2.722   3.296  1.0430 -2.3232 -0.7081
 1963SOL    MW4 7899   0.471   2.700   3.377 -0.1319 -0.8557  0.0315
 1964SOL     OW 7900   0.685   2.836   3.512  0.2420 -0.0652  0.0264
 1964SOL    HW2 7901   0.761   2.788   3.478 -0.0675 -0.7335  0.2673
 1964SOL    HW3 7902   0.610   2.793   3.471 -0.0683 -0.0989  0.6322
 1964SOL    MW4 7903   0.685   2.824   3.502  0.1602 -0.1578  0.1383
 1965SOL     OW 7904   0.656   3.100   3.396 -0.0493 -0.0155  0.7655
 1965SOL    HW2 7905   0.581   3.150   3.427 -1.3046 -0.3644 -1.5816
 1965SOL    HW3 7906   0.642   3.012   3.429  0.6254  0.4705  2.3972
 1965SOL    MW4 7907   0.644   3.095   3.404 -0.1259  0.0029  0.6711
 1966SOL     OW 7908   0.221   3.098   3.367  0.4554  0.3399 -0.3721
 1966SOL    HW2 7909   0.138   3.141   3.386  1.0748  1.5595 -0.3897
 1966SOL    HW3 7910   0.234   3.112   3.273  1.6105  1.8487 -0.0139
 1966SOL    MW4 7911   0.212   3.105   3.357  0.6895  0.7000 -0.3271
 1967SOL     OW 7912   0.429   3.506   3.404  0.0471  0.3279 -0.1178
 1967SOL    HW2 7913   0.343   3.548   3.415 -0.2877 -0.4491  0.3452
 1967SOL    HW3 7914   0.417   3.419   3.443  1.4830  0.7604  1.3190
 1967SOL    MW4 7915   0.416   3.500   3.411  0.1924  0.2825  0.1326
 1968SOL     OW 7916   0.660   3.641   3.529  0.1063 -0.2530  0.6302
 1968SOL    HW2 7917   0.740   3.610   3.486 -0.6142 -0.9870 -0.2041
 1968SOL    HW3 7918   0.589   3.597   3.482 -0.8340  0.9862  0.8635
 1968SOL    MW4 7919   0.661   3.631   3.517 -0.1128 -0.1862  0.5512
 1969SOL     OW 7920   0.429   4.001   3.546  0.0474  0.0627  0.3756
 1969SOL    HW2 7921   0.424   4.090   3.513  1.3431  0.0820  0.1733
 1969SOL    HW3 7922   0.354   3.956   3.508 -0.1871  0.8705 -0.1217
 1969SOL    MW4 7923   0.419   4.007   3.537  0.1874  0.1721  0.2835
 1970SOL     OW 7924   0.422   4.272   3.914 -0.2233 -0.1557 -0.0504
 1970SOL    HW2 7925   0.493   4.309   3.863 -0.8604 -0.2126 -0.9860
 1970SOL    HW3 7926   0.421   4.179   3.890 -1.4559  0.1060 -1.0351
 1970SOL    MW4 7927   0.431   4.264   3.904 -0.4700 -0.1292 -0.3040
 1971SOL     OW 7928   0.415   4.272   3.431 -0.2394  0.0661 -0.3440
 1971SOL    HW2 7929   0.500   4.311   3.446  0.3136 -1.3244  0.2521
 1971SOL    HW3 7930   0.405   4.272   3.336  0.0050  1.1030 -0.3696
 1971SOL    MW4 7931   0.425   4.277   3.420 -0.1342  0.0196 -0.2687
 1972SOL     OW 7932   0.671   4.393   3.501  0.6775 -0.1328  0.1611
 1972SOL    HW2 7933   0.755   4.363   3.466  0.6950 -0.7478  0.7259
 1972SOL    HW3 7934   0.667   4.485   3.476  0.6832 -0.5587 -1.4800
 1972SOL    MW4 7935   0.682   4.401   3.493  0.6805 -0.2699  0.0191
 1973SOL     OW 7936   1.139   4.641   3.429  0.1874 -0.4466  0.4204
 1973SOL    HW2 7937   1.215   4.690   3.461  0.8556 -1.6983  0.7917
 1973SOL    HW3 7938   1.146   4.644   3.334  0.8277 -0.7414  0.4572
 1973SOL    MW4 7939   1.150   4.648   3.421  0.3600 -0.6504  0.4740
 1974SOL     OW 7940   0.912   0.119   3.514 -0.2721 -0.6365  0.0704
 1974SOL    HW2 7941   0.905   0.139   3.607 -1.2913 -0.6312  0.0047
 1974SOL    HW3 7942   0.980   0.052   3.508 -0.3062 -0.7365  0.8369
 1974SOL    MW4 7943   0.920   0.113   3.525 -0.4112 -0.6490  0.1628
 1975SOL     OW 7944   0.951   0.366   3.412  0.2231  0.1496 -0.2784
 1975SOL    HW2 7945   1.033   0.397   3.452  1.6407 -0.0820 -2.9402
 1975SOL    HW3 7946   0.941   0.277   3.444  0.0069  0.8046  1.5435
 1975SOL    MW4 7947   0.961   0.358   3.422  0.3815  0.2055 -0.3893
 1976SOL     OW 7948   1.164   0.517   3.549 -0.1913  0.7044  0.1168
 1976SOL    HW2 7949   1.137   0.609   3.545  0.0749  0.8228  0.9758
 1976SOL    HW3 7950   1.176   0.499   3.642  0.3037 -0.0467 -0.0848
 1976SOL    MW4 7951   1.162   0.527   3.561 -0.0911  0.6209  0.2034
 1977SOL     OW 7952   1.138   0.789   3.418  0.0868  0.2160 -0.2832
 1977SOL    HW2 7953   1.222   0.827   3.445  0.0547  0.0035  0.1120
 1977SOL    HW3 7954   1.072   0.849   3.452  0.0951  0.6721 -1.0570
 1977SOL    MW4 7955   1.141   0.802   3.426  0.0836  0.2481 -0.3331
 1978SOL     OW 7956   0.921   0.911   3.569 -0.0949  0.0560  0.0100
 1978SOL    HW2 7957   0.906   0.998   3.530 -0.1235 -0.4495 -1.1298
 1978SOL    HW3 7958   0.843   0.861   3.545  0.6769 -0.7838 -0.7826
 1978SOL    MW4 7959   0.909   0.916   3.561  0.0032 -0.1215 -0.2446
 1979SOL     OW 7960   0.883   1.144   3.411 -0.3471 -0.4948  0.2241
 1979SOL    HW2 7961   0.967   1.188   3.426 -0.5212  0.0017 -0.2866
 1979SOL    HW3 7962   0.881   1.128   3.317 -0.9446 -0.2840  0.2051
 1979SOL    MW4 7963   0.894   1.147   3.401 -0.4489 -0.4015  0.1543
 1980SOL     OW 7964   1.116   1.280   3.501  0.0747 -0.0917 -0.4874
 1980SOL    HW2 7965   1.105   1.268   3.595 -0.6835 -0.4035 -0.6146
 1980SOL    HW3 7966   1.133   1.373   3.489  1.3055 -0.2358  0.0663
 1980SOL    MW4 7967   1.117   1.290   3.511  0.1370 -0.1519 -0.4313
 1981SOL     OW 7968   1.156   1.547   3.459 -0.4496 -0.3020  0.2076
 1981SOL    HW2 7969   1.238   1.593   3.475 -0.1053 -0.9357  0.2829
 1981SOL    HW3 7970   1.146   1.550   3.363 -0.1039 -0.6138  0.1579
 1981SOL    MW4 7971   1.166   1.553   3.448 -0.3586 -0.4267  0.2112
 1982SOL     OW 7972   0.938   1.939   3.383 -0.6508  0.0120 -0.6979
 1982SOL    HW2 7973   0.872   1.968   3.445 -0.1889 -0.5754  0.0760
 1982SOL    HW3 7974   1.020   1.976   3.416 -0.2414 -1.1903 -0.3552
 1982SOL    MW4 7975   0.940   1.948   3.395 -0.5358 -0.2241 -0.5505
 1983SOL     OW 7976   1.163   2.053   3.501  0.0054  0.1404  0.3284
 1983SOL    HW2 7977   1.248   2.028   3.467  0.2706 -0.0350  1.1136
 1983SOL    HW3 7978   1.156   2.147   3.482  0.2946  0.1140  0.0944
 1983SOL    MW4 7979   1.173   2.062   3.494  0.0784  0.1137  0.4010
 1984SOL     OW 7980   1.400   1.926   3.367 -0.0181 -0.0217 -0.5611
 1984SOL    HW2 7981   1.379   1.850   3.420  1.4357  0.2344  0.4149
 1984SOL    HW3 7982   1.481   1.960   3.404  1.1301  0.0848 -3.0326
 1984SOL    MW4 7983   1.408   1.921   3.379  0.3251  0.0261 -0.7582
 1985SOL     OW 7984   1.148   2.316   3.408  0.4620 -0.1048 -0.2429
 1985SOL    HW2 7985   1.213   2.381   3.435 -0.9027  0.9330  0.5751
 1985SOL    HW3 7986   1.147   2.320   3.313  1.8792 -0.4056 -0.2788
 1985SOL    MW4 7987   1.157   2.325   3.399  0.4691 -0.0076 -0.1397
 1986SOL     OW 7988   0.908   2.427   3.484  0.5351 -0.5765 -0.1181
 1986SOL    HW2 7989   0.912   2.420   3.580  1.3048 -1.5451 -0.2022
 1986SOL    HW3 7990   0.993   2.393   3.455 -0.9416 -3.4134 -1.2835
 1986SOL    MW4 7991   0.920   2.421   3.493  0.4418 -1.0786 -0.2832
 1987SOL     OW 7992   0.878   2.680   3.392 -0.1893 -0.0455 -0.1004
 1987SOL    HW2 7993   0.961   2.727   3.405 -0.7346  0.4183  1.8572
 1987SOL    HW3 7994   0.895   2.592   3.426 -0.1051 -0.3495 -0.9226
 1987SOL    MW4 7995   0.891   2.674   3.398 -0.2502 -0.0246  0.0491
 1988SOL     OW 7996   1.092   2.844   3.473 -0.2587 -0.0001 -0.0772
 1988SOL    HW2 7997   1.088   2.831   3.568 -0.5748 -0.3304 -0.1341
 1988SOL    HW3 7998   1.176   2.809   3.447 -0.5513 -0.7330 -0.0442
 1988SOL    MW4 7999   1.102   2.838   3.482 -0.3389 -0.1404 -0.0803
 1989SOL     OW 8000   1.107   3.098   3.368 -0.4864 -0.3059 -0.6310
 1989SOL    HW2 8001   1.097   3.008   3.398 -1.2470 -0.7400 -2.1302
 1989SOL    HW3 8002   1.124   3.090   3.274  0.8840  1.0528 -0.5278
 1989SOL    MW4 8003   1.108   3.085   3.359 -0.4059 -0.1841 -0.8152
 1990SOL     OW 8004   0.868   3.252   3.467  0.5298 -0.6399  0.4424
 1990SOL    HW2 8005   0.942   3.203   3.431  0.5096  1.1291 -2.1121
 1990SOL    HW3 8006   0.791   3.202   3.440  0.6761 -1.6354  1.7778
 1990SOL    MW4 8007   0.867   3.239   3.459  0.5465 -0.5379  0.2813
 1991SOL     OW 8008   0.870   3.532   3.406 -0.4300  0.3672  0.3084
 1991SOL    HW2 8009   0.860   3.441   3.432  1.2059  0.0915 -0.0003
 1991SOL    HW3 8010   0.870   3.530   3.310 -0.7567  0.7441  0.2960
 1991SOL    MW4 8011   0.868   3.520   3.397 -0.2573  0.3808  0.2658
 1992SOL     OW 8012   1.080   3.910   3.429  0.2731 -0.3869  0.5296
 1992SOL    HW2 8013   1.165   3.947   3.453  0.7250 -0.7856 -0.4217
 1992SOL    HW3 8014   1.081   3.823   3.470  0.7433 -0.7804 -0.2945
 1992SOL    MW4 8015   1.092   3.903   3.438  0.3948 -0.4914  0.2952
 1993SOL     OW 8016   0.858   4.041   3.499  0.3667 -0.0598  0.1065
 1993SOL    HW2 8017   0.940   3.996   3.480  1.0226  0.7858  0.9055
 1993SOL    HW3 8018   0.792   3.992   3.449  1.0701 -1.8109  0.8392
 1993SOL    MW4 8019   0.860   4.029   3.490  0.5460 -0.1798  0.3085
 1994SOL     OW 8020   0.645   3.890   3.428  0.0096 -0.3845 -0.2166
 1994SOL    HW2 8021   0.653   3.809   3.478  0.8606 -0.2924 -0.2003
 1994SOL    HW3 8022   0.572   3.936   3.469 -0.1178 -0.8874  0.1299
 1994SOL    MW4 8023   0.637   3.885   3.440  0.1051 -0.4389 -0.1688
 1995SOL     OW 8024   0.911   4.308   3.383 -0.4705 -0.2351 -0.0093
 1995SOL    HW2 8025   0.889   4.216   3.400 -1.1156  0.1953  1.4689
 1995SOL    HW3 8026   0.905   4.316   3.287 -1.5585 -1.4403 -0.0577
 1995SOL    MW4 8027   0.907   4.297   3.372 -0.6991 -0.3376  0.1793
 1996SOL     OW 8028   1.163   4.383   3.509  0.2897  0.1865  0.1586
 1996SOL    HW2 8029   1.085   4.349   3.465 -0.8784  2.0058  0.7504
 1996SOL    HW3 8030   1.161   4.477   3.491  2.7348  0.1690 -0.3771
 1996SOL    MW4 8031   1.152   4.391   3.500  0.4582  0.4244  0.1659
 1997SOL     OW 8032   1.590   4.636   3.422 -0.0387 -0.2091  0.1957
 1997SOL    HW2 8033   1.598   4.546   3.455 -0.8050 -1.1632 -2.1254
 1997SOL    HW3 8034   1.511   4.670   3.463  0.0977 -0.6739  0.8586
 1997SOL    MW4 8035   1.581   4.629   3.432 -0.1217 -0.3967 -0.0231
 1998SOL     OW 8036   1.369   0.105   3.527  0.1873  0.4037 -0.1063
 1998SOL    HW2 8037   1.378   0.198   3.506  1.4473  0.6111  1.2746
 1998SOL    HW3 8038   1.372   0.102   3.622  0.2043 -1.0569 -0.1520
 1998SOL    MW4 8039   1.371   0.117   3.536  0.3558  0.2384  0.0701
 1999SOL     OW 8040   1.381   0.363   3.442 -0.1247  0.0688  0.1159
 1999SOL    HW2 8041   1.456   0.411   3.477  0.2445  0.7613 -1.5927
 1999SOL    HW3 8042   1.305   0.404   3.483  0.3871 -0.6442  1.8696
 1999SOL    MW4 8043   1.381   0.374   3.452 -0.0083  0.0661  0.1218
 2000SOL     OW 8044   1.605   0.509   3.523  0.1325  0.4760  0.3371
 2000SOL    HW2 8045   1.618   0.516   3.617  0.1903 -0.4567  0.4002
 2000SOL    HW3 8046   1.685   0.469   3.489 -0.2315  0.0026  0.0105
 2000SOL    MW4 8047   1.617   0.505   3.531  0.0921  0.2905  0.3026
 2001SOL     OW 8048   1.600   0.732   3.366 -0.0473 -0.2459 -0.5755
 2001SOL    HW2 8049   1.532   0.787   3.405  0.9028  0.1542  0.5316
 2001SOL    HW3 8050   1.593   0.649   3.413 -0.0182 -0.3310 -0.7210
 2001SOL    MW4 8051   1.590   0.728   3.377  0.0818 -0.2043 -0.4485
 2002SOL     OW 8052   1.381   0.886   3.487 -0.5235  0.1823  0.3236
 2002SOL    HW2 8053   1.358   0.877   3.579 -1.1803  1.7534  0.3263
 2002SOL    HW3 8054   1.390   0.980   3.473  1.7692 -0.1572 -0.7161
 2002SOL    MW4 8055   1.379   0.897   3.497 -0.3077  0.3448  0.1869
 2003SOL     OW 8056   1.355   1.155   3.439 -0.0449 -0.0823 -0.4345
 2003SOL    HW2 8057   1.430   1.201   3.478  0.8696 -1.4560 -0.5453
 2003SOL    HW3 8058   1.279   1.187   3.487  0.7240  0.6099  0.3288
 2003SOL    MW4 8059   1.355   1.165   3.450  0.1773 -0.1721 -0.3483
 2004SOL     OW 8060   1.576   1.320   3.535  0.0047 -0.2928  0.0149
 2004SOL    HW2 8061   1.589   1.309   3.629  0.1449 -1.6423 -0.1537
 2004SOL    HW3 8062   1.634   1.256   3.495 -0.1741  0.1587 -0.9956
 2004SOL    MW4 8063   1.585   1.310   3.542 -0.0005 -0.4112 -0.1404
 2005SOL     OW 8064   1.384   1.685   3.505 -0.1306 -0.6246  0.6141
 2005SOL    HW2 8065   1.391   1.671   3.600  1.0085 -0.7412  0.5184
 2005SOL    HW3 8066   1.455   1.633   3.468  0.2344  0.4400 -0.2037
 2005SOL    MW4 8067   1.394   1.677   3.513  0.0678 -0.4995  0.4935
 2006SOL     OW 8068   0.930   1.692   3.517 -0.2242  0.3496 -1.0333
 2006SOL    HW2 8069   1.009   1.641   3.498 -0.5515 -0.1251 -1.1379
 2006SOL    HW3 8070   0.940   1.772   3.466 -0.5616 -0.4127 -2.3306
 2006SOL    MW4 8071   0.942   1.696   3.508 -0.3119  0.1864 -1.2181
 2007SOL     OW 8072   1.608   2.031   3.544 -0.0177 -0.0618 -0.0715
 2007SOL    HW2 8073   1.607   2.122   3.513  1.2992 -0.6024 -1.7239
 2007SOL    HW3 8074   1.674   1.988   3.491 -0.8693 -2.0939  0.4759
 2007SOL    MW4 8075   1.616   2.038   3.533  0.0437 -0.4013 -0.2172
 2008SOL     OW 8076   1.542   2.285   3.443 -0.2452  0.2704 -0.1097
 2008SOL    HW2 8077   1.552   2.306   3.350 -1.4709 -1.1116 -0.5758
 2008SOL    HW3 8078   1.465   2.333   3.471 -0.6962 -0.4128 -0.1671
 2008SOL    MW4 8079   1.533   2.294   3.434 -0.4665 -0.0019 -0.1788
 2009SOL     OW 8080   1.568   2.307   3.176  0.6999  0.1834  0.0649
 2009SOL    HW2 8081   1.504   2.362   3.131  0.5496  0.2101  0.3105
 2009SOL    HW3 8082   1.566   2.224   3.127  0.9496  0.4048 -0.3224
 2009SOL    MW4 8083   1.559   2.303   3.164  0.7128  0.2160  0.0460
 2010SOL     OW 8084   1.330   2.456   3.538 -0.1850  0.3806 -0.4795
 2010SOL    HW2 8085   1.336   2.446   3.633  1.1202 -0.0951 -0.6063
 2010SOL    HW3 8086   1.315   2.550   3.526  0.9079  0.6536  0.1591
 2010SOL    MW4 8087   1.329   2.467   3.549  0.1315  0.3536 -0.4120
 2011SOL     OW 8088   1.329   2.722   3.414 -0.2357 -0.2599 -0.2979
 2011SOL    HW2 8089   1.415   2.762   3.425 -1.0106  1.1897  0.5883
 2011SOL    HW3 8090   1.317   2.715   3.319  0.3254  0.7111 -0.4402
 2011SOL    MW4 8091   1.339   2.726   3.403 -0.2640  0.0598 -0.1998
 2012SOL     OW 8092   1.582   2.854   3.761  0.2760  0.3398 -0.1353
 2012SOL    HW2 8093   1.507   2.802   3.790  0.9563  0.4800  1.9956
 2012SOL    HW3 8094   1.563   2.877   3.670 -1.7388 -0.5439  0.0524
 2012SOL    MW4 8095   1.570   2.850   3.753  0.0999  0.2418  0.1707
 2013SOL     OW 8096   1.553   3.117   3.410 -0.0178 -0.4573 -0.1127
 2013SOL    HW2 8097   1.625   3.164   3.451  0.0001 -0.8816  0.3485
 2013SOL    HW3 8098   1.476   3.170   3.429  0.2927  0.4486 -1.3547
 2013SOL    MW4 8099   1.552   3.130   3.418  0.0256 -0.3939 -0.2158
 2014SOL     OW 8100   1.319   3.249   3.470  0.1921  0.6366 -0.4355
 2014SOL    HW2 8101   1.324   3.237   3.565 -0.5626  2.4170 -0.1515
 2014SOL    HW3 8102   1.247   3.193   3.442 -1.4837  2.2778  0.4702
 2014SOL    MW4 8103   1.310   3.240   3.479 -0.1284  1.0881 -0.2785
 2015SOL     OW 8104   1.323   3.501   3.379 -0.1029 -0.1483 -0.7137
 2015SOL    HW2 8105   1.321   3.411   3.411 -0.3008  0.1899  0.2363
 2015SOL    HW3 8106   1.246   3.542   3.418  0.3253  0.5934 -0.6380
 2015SOL    MW4 8107   1.313   3.494   3.388 -0.0726 -0.0060 -0.5782
 2016SOL     OW 8108   1.557   3.604   3.498 -0.1745 -0.3361  0.2492
 2016SOL    HW2 8109   1.532   3.586   3.589 -0.2347 -0.3929  0.2214
 2016SOL    HW3 8110   1.481   3.577   3.446  0.7603 -2.6431 -0.0183
 2016SOL    MW4 8111   1.544   3.598   3.503 -0.0592 -0.6480  0.2100
 2017SOL     OW 8112   1.561   3.894   3.435  0.1086 -0.5134  0.2683
 2017SOL    HW2 8113   1.569   3.802   3.460 -0.1866 -0.5684  0.1677
 2017SOL    HW3 8114   1.556   3.892   3.339  0.0943 -0.3940  0.2667
 2017SOL    MW4 8115   1.561   3.882   3.425  0.0678 -0.5050  0.2546
 2018SOL     OW 8116   1.321   4.011   3.536  0.0315 -0.3053 -0.1211
 2018SOL    HW2 8117   1.338   4.096   3.494  0.8489 -0.0317  0.7286
 2018SOL    HW3 8118   1.390   3.954   3.502 -0.7593 -0.7522 -1.0020
 2018SOL    MW4 8119   1.332   4.015   3.526  0.0352 -0.3285 -0.1252
 2019SOL     OW 8120   1.371   4.241   3.372  0.4964  0.2182  0.1256
 2019SOL    HW2 8121   1.296   4.287   3.408 -0.7398 -0.2129 -1.8687
 2019SOL    HW3 8122   1.351   4.229   3.279  2.1462 -1.6257 -0.0420
 2019SOL    MW4 8123   1.359   4.245   3.364  0.5511 -0.0815 -0.1597
 2020SOL     OW 8124   1.588   4.346   3.511  0.1538  0.0057  0.0095
 2020SOL    HW2 8125   1.668   4.300   3.486  0.7053  1.4713 -0.9800
 2020SOL    HW3 8126   1.518   4.301   3.464  0.3395 -1.5418  1.2022
 2020SOL    MW4 8127   1.589   4.334   3.502  0.2509 -0.0052  0.0362
 2021SOL     OW 8128   2.017   0.005   3.432  0.1979  0.0378 -0.3560
 2021SOL    HW2 8129   2.091   0.049   3.475 -0.0180  0.2830 -0.2375
 2021SOL    HW3 8130   1.940   0.045   3.471 -0.0170 -1.4873  0.8613
 2021SOL    MW4 8131   2.017   0.016   3.443  0.1411 -0.1307 -0.1795
 2022SOL     OW 8132   1.793   0.131   3.516 -0.1896 -0.0438  0.0941
 2022SOL    HW2 8133   1.774   0.126   3.610 -0.9298 -0.6486 -0.0857
 2022SOL    HW3 8134   1.726   0.076   3.475  1.6476 -1.8473 -0.5898
 2022SOL    MW4 8135   1.782   0.123   3.523 -0.0449 -0.3615 -0.0200
 2023SOL     OW 8136   1.828   0.388   3.417  0.1462  0.1688  0.3036
 2023SOL    HW2 8137   1.817   0.299   3.451 -0.7459  0.5255  0.9618
 2023SOL    HW3 8138   1.811   0.380   3.323 -1.0316 -0.1559  0.5416
 2023SOL    MW4 8139   1.824   0.375   3.409 -0.1270  0.1730  0.4220
 2024SOL     OW 8140   2.066   0.446   3.825  0.2244  0.1175 -0.0335
 2024SOL    HW2 8141   2.051   0.470   3.733  0.3076 -0.2707 -0.1487
 2024SOL    HW3 8142   1.985   0.400   3.851  0.6409 -0.7314 -0.2342
 2024SOL    MW4 8143   2.053   0.443   3.816  0.2902 -0.0458 -0.0753
 2025SOL     OW 8144   2.009   0.531   3.564  0.1364  0.2899 -0.1213
 2025SOL    HW2 8145   2.028   0.602   3.503 -1.6735  0.9874  0.1121
 2025SOL    HW3 8146   1.928   0.492   3.531  0.3664 -0.7916  0.5502
 2025SOL    MW4 8147   2.001   0.535   3.551 -0.0720  0.2393 -0.0017
 2026SOL     OW 8148   2.067   0.756   3.405  0.3273 -0.6438 -0.0559
 2026SOL    HW2 8149   2.144   0.803   3.438  1.3167 -2.4879  0.3227
 2026SOL    HW3 8150   2.078   0.755   3.310 -0.0095  0.3962 -0.1117
 2026SOL    MW4 8151   2.079   0.762   3.397  0.4134 -0.7499 -0.0131
 2027SOL     OW 8152   1.768   1.152   3.409  0.3661 -0.2192 -0.1537
 2027SOL    HW2 8153   1.845   1.197   3.443 -1.1934  0.5216  2.6107
 2027SOL    HW3 8154   1.773   1.064   3.446  0.6399 -0.6329 -1.1688
 2027SOL    MW4 8155   1.779   1.147   3.418  0.1965 -0.1761  0.0772
 2028SOL     OW 8156   2.013   1.259   3.500 -0.4307  0.1217 -0.2950
 2028SOL    HW2 8157   2.006   1.260   3.595 -0.5688  1.3944 -0.3159
 2028SOL    HW3 8158   2.043   1.347   3.477  0.7736 -0.5469 -1.3426
 2028SOL    MW4 8159   2.016   1.270   3.509 -0.2902  0.2015 -0.4358
 2029SOL     OW 8160   2.011   1.508   3.397 -0.1386  0.0522 -0.2703
 2029SOL    HW2 8161   2.097   1.539   3.423  0.1869 -1.4595  0.4886
 2029SOL    HW3 8162   1.951   1.546   3.461  0.3087 -1.1579  0.9017
 2029SOL    MW4 8163   2.014   1.517   3.409 -0.0367 -0.3070 -0.0157
 2030SOL     OW 8164   1.587   1.542   3.399  0.4047 -0.2523 -0.0334
 2030SOL    HW2 8165   1.588   1.525   3.304  0.0197 -0.4155 -0.0061
 2030SOL    HW3 8166   1.574   1.456   3.438 -1.0318  0.0387  0.1224
 2030SOL    MW4 8167   1.586   1.528   3.391  0.1643 -0.2353 -0.0093
 2031SOL     OW 8168   1.812   1.877   3.425 -0.4804  0.2030  0.3977
 2031SOL    HW2 8169   1.886   1.926   3.461  0.3706  0.6981 -1.9652
 2031SOL    HW3 8170   1.813   1.895   3.331 -2.5898 -1.1403  0.0556
 2031SOL    MW4 8171   1.822   1.886   3.417 -0.6465  0.0910  0.0410
 2032SOL     OW 8172   2.035   2.037   3.520  0.2448 -0.5817 -0.3060
 2032SOL    HW2 8173   2.117   2.012   3.477  1.0776  1.4612  0.0422
 2032SOL    HW3 8174   2.017   2.125   3.489 -0.5885 -0.1115  1.4303
 2032SOL    MW4 8175   2.044   2.045   3.510  0.2449 -0.2501 -0.0310
 2033SOL     OW 8176   1.978   2.281   3.421  0.0737  0.1952  0.4713
 2033SOL    HW2 8177   2.051   2.324   3.467  0.1320 -0.0962  0.6494
 2033SOL    HW3 8178   1.983   2.316   3.331  0.5373  0.0441  0.4375
 2033SOL    MW4 8179   1.988   2.292   3.415  0.1425  0.1369  0.4904
 2034SOL     OW 8180   1.764   2.453   3.511 -0.0659  0.4943 -0.1517
 2034SOL    HW2 8181   1.840   2.407   3.477 -0.5028 -0.9172  0.7570
 2034SOL    HW3 8182   1.691   2.392   3.499 -1.1034  1.8744 -1.1384
 2034SOL    MW4 8183   1.764   2.439   3.505 -0.2605  0.4904 -0.1619
 2035SOL     OW 8184   1.563   2.850   3.482  0.2700  0.3130  0.5742
 2035SOL    HW2 8185   1.562   2.934   3.436 -0.0962 -0.2448 -0.4433
 2035SOL    HW3 8186   1.636   2.803   3.443 -0.2118 -0.2716  0.3789
 2035SOL    MW4 8187   1.573   2.855   3.471  0.1580  0.1621  0.4141
 2036SOL     OW 8188   2.006   2.843   3.514  0.3184  0.5821 -0.5482
 2036SOL    HW2 8189   2.023   2.849   3.608  0.8684  1.6632 -0.7221
 2036SOL    HW3 8190   2.020   2.931   3.480 -0.2415  0.2851 -1.5928
 2036SOL    MW4 8191   2.010   2.855   3.522  0.3169  0.6859 -0.7088
 2037SOL     OW 8192   2.037   3.113   3.378 -0.5314  0.3411 -0.1778
 2037SOL    HW2 8193   2.108   3.165   3.417 -0.5219  0.0051  0.2405
 2037SOL    HW3 8194   1.957   3.158   3.405 -0.5465 -0.1531  0.6073
 2037SOL    MW4 8195   2.036   3.126   3.386 -0.5324  0.2317 -0.0191
 2038SOL     OW 8196   1.830   3.243   3.505  0.0893  0.2956  0.1036
 2038SOL    HW2 8197   1.809   3.251   3.598  0.0683  0.7518  0.0614
 2038SOL    HW3 8198   1.810   3.329   3.468 -0.0924  0.0542 -0.3630
 2038SOL    MW4 8199   1.825   3.256   3.513  0.0626  0.3238  0.0365
 2039SOL     OW 8200   1.806   3.503   3.402 -0.3587  0.1941 -0.0843
 2039SOL    HW2 8201   1.719   3.528   3.434 -0.1372  0.5769  0.2305
 2039SOL    HW3 8202   1.801   3.514   3.307 -0.9959 -0.8561 -0.1715
 2039SOL    MW4 8203   1.794   3.508   3.394 -0.4135  0.1061 -0.0544
 2040SOL     OW 8204   2.034   3.633   3.537 -0.5069  0.3069 -0.1612
 2040SOL    HW2 8205   1.962   3.595   3.487 -0.1242  1.2692 -1.4492
 2040SOL    HW3 8206   2.113   3.596   3.498 -0.2260  0.5299  0.1890
 2040SOL    MW4 8207   2.035   3.623   3.525 -0.4194  0.4635 -0.2849
 2041SOL     OW 8208   2.029   3.880   3.416 -0.0574 -0.3190 -0.3055
 2041SOL    HW2 8209   1.950   3.925   3.448  0.7067  1.0434 -0.3265
 2041SOL    HW3 8210   2.019   3.790   3.447 -1.2321  0.0428  0.3906
 2041SOL    MW4 8211   2.017   3.874   3.424 -0.1116 -0.0916 -0.2162
 2042SOL     OW 8212   1.797   4.017   3.504 -0.2412  0.1581 -0.3665
 2042SOL    HW2 8213   1.711   3.990   3.472  0.5639 -1.3415 -1.3255
 2042SOL    HW3 8214   1.788   4.019   3.599 -2.1304  2.8243 -0.5401
 2042SOL    MW4 8215   1.784   4.014   3.512 -0.3841  0.3119 -0.5159
 2043SOL     OW 8216   1.821   4.264   3.406  0.4171 -0.1764 -0.1740
 2043SOL    HW2 8217   1.821   4.173   3.433  0.9208 -0.1027  0.0811
 2043SOL    HW3 8218   1.795   4.262   3.314 -1.3903 -0.4138  0.3358
 2043SOL    MW4 8219   1.818   4.252   3.397  0.2452 -0.1974 -0.0730
 2044SOL     OW 8220   2.040   4.395   3.516  0.4846  0.4743 -0.2113
 2044SOL    HW2 8221   1.971   4.348   3.471 -0.6054  0.8705  1.0243
 2044SOL    HW3 8222   2.023   4.487   3.497  1.2460  0.5286 -0.6884
 2044SOL    MW4 8223   2.029   4.401   3.507  0.4413  0.5336 -0.1113
 2045SOL     OW 8224   2.463   0.006   3.465  0.7797  0.0950 -0.2790
 2045SOL    HW2 8225   2.459  -0.088   3.483  0.5440  0.2388  0.4162
 2045SOL    HW3 8226   2.483   0.012   3.371  2.2147 -0.6516 -0.0317
 2045SOL    MW4 8227   2.465  -0.005   3.455  0.9379  0.0157 -0.1547
 2046SOL     OW 8228   2.235   0.139   3.536 -0.9727 -0.6533  0.3666
 2046SOL    HW2 8229   2.234   0.217   3.482  0.3506 -0.2505  0.8817
 2046SOL    HW3 8230   2.321   0.099   3.518 -1.1363 -1.3146  1.0201
 2046SOL    MW4 8231   2.246   0.144   3.526 -0.8197 -0.6874  0.5207
 2047SOL     OW 8232   2.228   0.383   3.421  0.1257  0.5216  0.3252
 2047SOL    HW2 8233   2.311   0.414   3.456  0.6981 -1.6144  0.9222
 2047SOL    HW3 8234   2.162   0.432   3.470  1.0059  2.4487 -0.3641
 2047SOL    MW4 8235   2.230   0.393   3.432  0.3173  0.4940  0.3128
 2048SOL     OW 8236   2.488   0.746   3.426  0.6254  0.1153 -0.0950
 2048SOL    HW2 8237   2.485   0.759   3.331 -0.2652  2.2783  0.2045
 2048SOL    HW3 8238   2.574   0.779   3.452  0.2767  0.9242  0.0396
 2048SOL    MW4 8239   2.499   0.752   3.417  0.4621  0.5074 -0.0374
 2049SOL     OW 8240   2.728   0.866   3.523  0.2191 -0.3331 -0.0426
 2049SOL    HW2 8241   2.727   0.873   3.619  0.3069  1.0259 -0.1364
 2049SOL    HW3 8242   2.689   0.948   3.493 -0.3086 -0.9901 -1.1664
 2049SOL    MW4 8243   2.722   0.877   3.532  0.1609 -0.2405 -0.2034
 2050SOL     OW 8244   2.284   0.893   3.546 -0.2064  0.1264  0.7441
 2050SOL    HW2 8245   2.286   0.975   3.497 -0.8436 -0.7050 -0.7045
 2050SOL    HW3 8246   2.358   0.842   3.511  0.3561  0.1748  1.8281
 2050SOL    MW4 8247   2.294   0.897   3.535 -0.2162  0.0230  0.6959
 2051SOL     OW 8248   2.255   1.130   3.402  0.0020  0.1384 -0.2655
 2051SOL    HW2 8249   2.328   1.177   3.441 -0.6326  0.9216 -0.0159
 2051SOL    HW3 8250   2.177   1.175   3.435 -0.6106 -1.0740 -0.0265
 2051SOL    MW4 8251   2.254   1.142   3.412 -0.1626  0.0819 -0.2010
 2052SOL     OW 8252   2.483   1.244   3.518 -0.1795  0.0130 -0.0529
 2052SOL    HW2 8253   2.480   1.236   3.613  1.2450  1.7422  0.1447
 2052SOL    HW3 8254   2.561   1.196   3.492  1.0192  1.9298 -0.0677
 2052SOL    MW4 8255   2.493   1.236   3.527  0.1667  0.4940 -0.0288
 2053SOL     OW 8256   2.497   1.517   3.462 -0.4128 -0.1092  0.2659
 2053SOL    HW2 8257   2.491   1.424   3.485 -2.1991 -0.3439 -1.0143
 2053SOL    HW3 8258   2.500   1.518   3.366  0.6350  1.1214  0.2898
 2053SOL    MW4 8259   2.497   1.505   3.453 -0.5100  0.0222  0.1004
 2054SOL     OW 8260   2.242   1.623   3.483  0.3323 -0.6406 -0.2248
 2054SOL    HW2 8261   2.235   1.659   3.572 -1.5977  0.9463 -0.9995
 2054SOL    HW3 8262   2.334   1.598   3.475  1.1957  1.9051  1.2124
 2054SOL    MW4 8263   2.253   1.625   3.494  0.1915 -0.0952 -0.1376
 2055SOL     OW 8264   2.248   1.910   3.431  0.0695 -0.1112  0.5660
 2055SOL    HW2 8265   2.238   1.817   3.450  1.5442 -0.2843  0.5590
 2055SOL    HW3 8266   2.234   1.917   3.337 -0.8090 -0.2082  0.6867
 2055SOL    MW4 8267   2.245   1.899   3.421  0.1483 -0.1469  0.5810
 2056SOL     OW 8268   2.498   2.045   3.521  0.0451  0.2882  0.0562
 2056SOL    HW2 8269   2.499   2.044   3.616 -0.1362  0.2328  0.0566
 2056SOL    HW3 8270   2.414   2.005   3.496  0.0824  0.3190 -0.1251
 2056SOL    MW4 8271   2.487   2.040   3.530  0.0262  0.2851  0.0324
 2057SOL     OW 8272   2.444   2.298   3.397  0.1114  0.2198  0.0247
 2057SOL    HW2 8273   2.510   2.362   3.424  0.6485 -0.5901  0.6826
 2057SOL    HW3 8274   2.481   2.214   3.423 -0.6910 -0.3374 -0.6206
 2057SOL    MW4 8275   2.458   2.296   3.404  0.0763  0.0396  0.0265
 2058SOL     OW 8276   2.220   2.406   3.522  0.0614 -0.1445 -0.0842
 2058SOL    HW2 8277   2.209   2.494   3.485  2.3939 -0.2203 -1.0444
 2058SOL    HW3 8278   2.302   2.374   3.484 -1.0267 -2.9611 -0.1504
 2058SOL    MW4 8279   2.230   2.414   3.512  0.2258 -0.5264 -0.2196
 2059SOL     OW 8280   2.206   2.657   3.394 -0.3079  0.0591 -0.1065
 2059SOL    HW2 8281   2.140   2.708   3.441 -0.3257 -1.5032  1.6067
 2059SOL    HW3 8282   2.195   2.682   3.302 -0.5285  2.8747  0.6419
 2059SOL    MW4 8283   2.196   2.667   3.388 -0.3395  0.2246  0.2182
 2060SOL     OW 8284   2.422   2.826   3.474 -0.7711  0.6454 -0.1659
 2060SOL    HW2 8285   2.416   2.913   3.437 -1.4934 -0.3989 -2.5636
 2060SOL    HW3 8286   2.342   2.781   3.445  0.7297 -1.5633 -1.0206
 2060SOL    MW4 8287   2.411   2.831   3.466 -0.6683  0.2165 -0.5951
 2061SOL     OW 8288   2.407   3.079   3.370 -0.0738  0.4783 -0.0109
 2061SOL    HW2 8289   2.492   3.110   3.402  0.6636 -0.6942 -0.7778
 2061SOL    HW3 8290   2.414   3.086   3.274  0.0842 -1.9642 -0.1902
 2061SOL    MW4 8291   2.419   3.084   3.361  0.0443  0.0014 -0.1359
 2062SOL     OW 8292   2.244   3.272   3.488 -0.2979 -0.0516  0.5244
 2062SOL    HW2 8293   2.262   3.257   3.580 -0.1131  1.3230  0.7161
 2062SOL    HW3 8294   2.298   3.207   3.442 -0.8164 -1.1163  1.3865
 2062SOL    MW4 8295   2.253   3.261   3.494 -0.3419 -0.0105  0.6635
 2063SOL     OW 8296   2.249   3.529   3.406  0.0782 -0.4064 -0.6438
 2063SOL    HW2 8297   2.251   3.437   3.434 -0.2966 -0.1268  0.3427
 2063SOL    HW3 8298   2.246   3.525   3.311 -0.6084 -1.4337 -0.5942
 2063SOL    MW4 8299   2.249   3.516   3.397 -0.0618 -0.5047 -0.5069
 2064SOL     OW 8300   2.504   3.642   3.511 -0.2121 -0.1064  0.6337
 2064SOL    HW2 8301   2.506   3.732   3.478  1.1428 -0.3856 -0.0900
 2064SOL    HW3 8302   2.428   3.602   3.468 -0.1820  0.3807  0.1170
 2064SOL    MW4 8303   2.494   3.648   3.501 -0.0293 -0.0789  0.4702
 2065SOL     OW 8304   2.478   3.892   3.408 -0.8695 -0.2163 -0.7115
 2065SOL    HW2 8305   2.544   3.954   3.438 -1.4060  1.4194 -2.8235
 2065SOL    HW3 8306   2.398   3.919   3.453 -1.2020  0.9064 -1.9716
 2065SOL    MW4 8307   2.476   3.903   3.418 -0.9842  0.1476 -1.1566
 2066SOL     OW 8308   2.265   4.008   3.520  0.1890  0.0567 -0.1280
 2066SOL    HW2 8309   2.270   4.096   3.481  0.1534 -0.2610 -0.8513
 2066SOL    HW3 8310   2.182   3.973   3.489  0.7091 -0.6563 -0.7320
 2066SOL    MW4 8311   2.255   4.015   3.510  0.2530 -0.0792 -0.3030
 2067SOL     OW 8312   2.274   4.267   3.407  0.0486  0.3599  0.1519
 2067SOL    HW2 8313   2.193   4.299   3.447  0.4642  0.9552  0.5167
 2067SOL    HW3 8314   2.254   4.261   3.313 -0.4524  0.3883  0.2574
 2067SOL    MW4 8315   2.260   4.270   3.400  0.0374  0.4425  0.2139
 2068SOL     OW 8316   2.451   4.411   3.557  0.1469  0.2335 -0.3557
 2068SOL    HW2 8317   2.455   4.373   3.645  2.2648 -0.1828 -0.5971
 2068SOL    HW3 8318   2.377   4.367   3.515  0.3027 -0.9690  0.5913
 2068SOL    MW4 8319   2.442   4.400   3.563  0.4470  0.0196 -0.2627
 2069SOL     OW 8320   2.933   4.618   3.432 -0.1948  0.1044 -0.1638
 2069SOL    HW2 8321   2.866   4.678   3.463 -0.7397 -1.1411  1.1647
 2069SOL    HW3 8322   2.933   4.628   3.337 -1.4758  0.9338 -0.0850
 2069SOL    MW4 8323   2.924   4.627   3.424 -0.4356  0.0496  0.0219
 2070SOL     OW 8324   2.717   0.110   3.528  0.1416  0.7026  0.1742
 2070SOL    HW2 8325   2.724   0.198   3.490 -0.4243  1.2993  1.3957
 2070SOL    HW3 8326   2.632   0.078   3.498 -0.8471  1.6510  1.8316
 2070SOL    MW4 8327   2.707   0.117   3.519 -0.0634  0.9064  0.5541
 2071SOL     OW 8328   2.476   0.454   3.500  0.2948  0.0018  0.6877
 2071SOL    HW2 8329   2.548   0.414   3.452 -1.6495  0.4414 -2.7876
 2071SOL    HW3 8330   2.484   0.548   3.484  0.2253  0.2742  2.1428
 2071SOL    MW4 8331   2.486   0.461   3.492  0.0293  0.0957  0.4213
 2072SOL     OW 8332   2.917   0.473   3.506 -0.0925 -0.2937 -0.1114
 2072SOL    HW2 8333   2.904   0.455   3.599  0.2154 -0.2734 -0.0639
 2072SOL    HW3 8334   2.919   0.568   3.501  1.0442 -0.3029  0.0236
 2072SOL    MW4 8335   2.916   0.483   3.518  0.0980 -0.2922 -0.0873
 2073SOL     OW 8336   2.962   0.763   3.420  0.1963 -0.2921  0.8669
 2073SOL    HW2 8337   3.019   0.826   3.464 -1.2885  1.1524  0.7816
 2073SOL    HW3 8338   2.874   0.793   3.439 -0.5255  0.3562 -3.0342
 2073SOL    MW4 8339   2.958   0.775   3.428 -0.0949 -0.0160  0.3409
 2074SOL     OW 8340   2.705   1.137   3.884 -0.3465  0.5368 -0.9954
 2074SOL    HW2 8341   2.706   1.042   3.870  0.4915  0.2299  0.9624
 2074SOL    HW3 8342   2.617   1.164   3.860 -0.8502 -0.8685 -0.7513
 2074SOL    MW4 8343   2.694   1.128   3.879 -0.3023  0.3108 -0.7045
 2075SOL     OW 8344   2.697   1.111   3.390 -0.4926 -0.4456 -0.0334
 2075SOL    HW2 8345   2.775   1.159   3.416 -0.6971 -0.3531  0.4242
 2075SOL    HW3 8346   2.690   1.124   3.296  1.6570 -2.8170 -0.5752
 2075SOL    MW4 8347   2.706   1.119   3.381 -0.2360 -0.7463 -0.0443
 2076SOL     OW 8348   2.907   1.255   3.519  0.3929  0.2980 -0.4624
 2076SOL    HW2 8349   2.922   1.280   3.611 -0.1947  0.7571 -0.4872
 2076SOL    HW3 8350   2.994   1.237   3.484  0.7400  1.4045 -0.1732
 2076SOL    MW4 8351   2.920   1.256   3.527  0.3612  0.5044 -0.4277
 2077SOL     OW 8352   2.938   1.517   3.412  0.1924 -0.0956  0.1930
 2077SOL    HW2 8353   2.867   1.572   3.444 -0.3346 -0.6607  0.0077
 2077SOL    HW3 8354   2.913   1.428   3.439  0.6433 -0.3436 -0.1969
 2077SOL    MW4 8355   2.925   1.512   3.420  0.1824 -0.2029  0.1168
 2078SOL     OW 8356   2.732   1.647   3.543 -0.1099  0.3066  0.6601
 2078SOL    HW2 8357   2.731   1.732   3.499  0.6027  0.3159  0.6516
 2078SOL    HW3 8358   2.651   1.605   3.515  0.2101  0.4153 -0.4685
 2078SOL    MW4 8359   2.721   1.653   3.533  0.0265  0.3222  0.5100
 2079SOL     OW 8360   2.716   1.895   3.416 -0.4238 -0.2277  0.2998
 2079SOL    HW2 8361   2.633   1.926   3.452  0.5350  0.8894  1.6333
 2079SOL    HW3 8362   2.716   1.924   3.325 -0.5641  1.6743  0.8921
 2079SOL    MW4 8363   2.705   1.903   3.409 -0.3157  0.1705  0.5541
 2080SOL     OW 8364   2.927   2.052   3.509  0.5326 -0.0929  0.3526
 2080SOL    HW2 8365   2.923   2.052   3.605 -0.1432 -1.3818  0.3351
 2080SOL    HW3 8366   2.852   2.000   3.482  2.2215 -2.0412 -0.7956
 2080SOL    MW4 8367   2.917   2.045   3.518  0.6661 -0.5200  0.1988
 2081SOL     OW 8368   2.867   2.333   3.415 -0.4103 -0.0880 -0.7051
 2081SOL    HW2 8369   2.888   2.249   3.456  0.9098  0.5006 -0.1777
 2081SOL    HW3 8370   2.857   2.312   3.322  0.3581 -0.7524 -0.6427
 2081SOL    MW4 8371   2.868   2.319   3.408 -0.1345 -0.0982 -0.6273
 2082SOL     OW 8372   2.646   2.469   3.457  0.1345  0.0028  0.1077
 2082SOL    HW2 8373   2.649   2.486   3.551  1.1722  1.4330 -0.1624
 2082SOL    HW3 8374   2.720   2.410   3.442 -0.0459 -0.2453  0.1814
 2082SOL    MW4 8375   2.656   2.464   3.467  0.2475  0.1588  0.0820
 2083SOL     OW 8376   2.673   2.754   3.384  0.7691  0.2441 -0.3115
 2083SOL    HW2 8377   2.680   2.662   3.409  1.2224  0.1205 -0.8824
 2083SOL    HW3 8378   2.588   2.782   3.417  0.3851 -0.5394 -0.6375
 2083SOL    MW4 8379   2.663   2.746   3.392  0.7782  0.1245 -0.4296
 2084SOL     OW 8380   2.895   2.874   3.508  0.1387  0.0816 -0.4897
 2084SOL    HW2 8381   2.887   2.858   3.602  1.2119  0.6755 -0.2982
 2084SOL    HW3 8382   2.815   2.836   3.471  0.7307 -2.1607  0.4132
 2084SOL    MW4 8383   2.883   2.867   3.515  0.3583 -0.1361 -0.3455
 2085SOL     OW 8384   2.921   3.120   3.395 -0.1749 -0.0416 -0.2683
 2085SOL    HW2 8385   2.917   3.033   3.433 -2.0523  0.0229 -0.2539
 2085SOL    HW3 8386   2.951   3.105   3.305  0.0035 -0.6531 -0.1110
 2085SOL    MW4 8387   2.925   3.107   3.388 -0.3991 -0.1137 -0.2456
 2086SOL     OW 8388   2.668   3.213   3.473 -0.4823  0.2326  0.2015
 2086SOL    HW2 8389   2.674   3.234   3.566 -0.0584  1.0840 -0.0055
 2086SOL    HW3 8390   2.753   3.177   3.450 -0.4328  0.4376  0.0526
 2086SOL    MW4 8391   2.680   3.211   3.482 -0.4199  0.3717  0.1545
 2087SOL     OW 8392   2.695   3.480   3.395  0.2373  0.2112 -0.3018
 2087SOL    HW2 8393   2.679   3.391   3.427 -0.4120  0.0233 -1.1310
 2087SOL    HW3 8394   2.635   3.535   3.446  1.3761  0.3298  0.9525
 2087SOL    MW4 8395   2.685   3.475   3.406  0.3018  0.2019 -0.2458
 2088SOL     OW 8396   2.906   3.621   3.517 -0.0774  0.0071  0.0496
 2088SOL    HW2 8397   2.900   3.705   3.472  1.5635 -1.3124 -2.7520
 2088SOL    HW3 8398   2.834   3.569   3.480  1.7153 -1.3244 -1.6974
 2088SOL    MW4 8399   2.896   3.625   3.506  0.3755 -0.3426 -0.5505
 2089SOL     OW 8400   2.891   3.887   3.423  0.2717 -0.0140  0.1981
 2089SOL    HW2 8401   2.970   3.932   3.453  0.3095  0.3620 -0.4598
 2089SOL    HW3 8402   2.819   3.947   3.444 -0.0573 -1.1164  2.4495
 2089SOL    MW4 8403   2.892   3.901   3.430  0.2334 -0.1099  0.4084
 2090SOL     OW 8404   2.668   4.038   3.542 -0.0263  0.1660 -0.4502
 2090SOL    HW2 8405   2.679   4.028   3.636  0.6315 -0.3928 -0.5852
 2090SOL    HW3 8406   2.665   4.132   3.528 -1.5301  0.2548  0.2886
 2090SOL    MW4 8407   2.669   4.049   3.553 -0.1383  0.1040 -0.3705
 2091SOL     OW 8408   2.664   4.273   3.428 -0.2356  0.7179 -0.3202
 2091SOL    HW2 8409   2.745   4.319   3.450  0.1302 -0.6976  1.3801
 2091SOL    HW3 8410   2.596   4.321   3.476 -0.0644  0.3922  0.2458
 2091SOL    MW4 8411   2.666   4.285   3.437 -0.1645  0.4888 -0.0210
 2092SOL     OW 8412   2.925   4.368   3.531 -0.0766 -0.5258 -0.1223
 2092SOL    HW2 8413   2.925   4.373   3.627  0.6369 -0.4283 -0.1283
 2092SOL    HW3 8414   2.919   4.459   3.503  0.6839 -0.4854 -0.1703
 2092SOL    MW4 8415   2.924   4.381   3.540  0.1175 -0.5078 -0.1295
 2093SOL     OW 8416   3.425   4.640   3.457  0.0697  0.1741 -0.5049
 2093SOL    HW2 8417   3.337   4.671   3.476  0.7169  1.6032  0.2960
 2093SOL    HW3 8418   3.432   4.642   3.362 -1.2582 -1.4241 -0.6580
 2093SOL    MW4 8419   3.415   4.644   3.447 -0.0203  0.1521 -0.4196
 2094SOL     OW 8420   3.155   0.100   3.509  0.8348  0.4037 -0.1537
 2094SOL    HW2 8421   3.153   0.186   3.467 -1.1697  0.4929  0.0867
 2094SOL    HW3 8422   3.074   0.058   3.481  0.5896 -0.4428  1.7541
 2094SOL    MW4 8423   3.144   0.105   3.500  0.5381  0.3038  0.1295
 2095SOL     OW 8424   3.172   0.367   3.419 -0.4298 -0.1247  0.1150
 2095SOL    HW2 8425   3.094   0.411   3.454  0.9181  3.1415 -0.7678
 2095SOL    HW3 8426   3.158   0.368   3.324  0.3506 -0.1402 -0.0009
 2095SOL    MW4 8427   3.160   0.373   3.411 -0.1490  0.3042 -0.0169
 2096SOL     OW 8428   3.361   0.529   3.525 -0.4077  0.6616 -0.5761
 2096SOL    HW2 8429   3.356   0.518   3.620  2.2746  0.6457 -0.3858
 2096SOL    HW3 8430   3.295   0.469   3.491 -0.8558  0.0757  1.2486
 2096SOL    MW4 8431   3.352   0.519   3.533 -0.1130  0.5822 -0.3102
 2097SOL     OW 8432   3.372   0.796   3.412 -0.0669 -0.0876  0.6378
 2097SOL    HW2 8433   3.447   0.836   3.454  1.3400  0.0169 -1.8614
 2097SOL    HW3 8434   3.368   0.707   3.448  0.1230  0.5085  2.1347
 2097SOL    MW4 8435   3.381   0.789   3.422  0.1438  0.0048  0.5057
 2098SOL     OW 8436   3.172   0.933   3.541  0.2518  0.3616 -0.6759
 2098SOL    HW2 8437   3.194   1.022   3.513  1.4144 -0.2859 -1.8766
 2098SOL    HW3 8438   3.229   0.877   3.489 -1.1905 -1.1506 -0.6767
 2098SOL    MW4 8439   3.182   0.937   3.530  0.2151  0.0767 -0.8342
 2099SOL     OW 8440   3.144   1.223   3.409 -0.0183  0.1482 -0.0480
 2099SOL    HW2 8441   3.225   1.247   3.454 -0.3909  3.8683 -1.1713
 2099SOL    HW3 8442   3.170   1.216   3.317 -0.5824 -0.6548 -0.1441
 2099SOL    MW4 8443   3.158   1.225   3.403 -0.1421  0.5331 -0.2089
 2100SOL     OW 8444   3.411   1.563   3.444 -0.5424 -0.2109 -0.0097
 2100SOL    HW2 8445   3.484   1.612   3.482  0.3637 -1.1793 -0.4685
 2100SOL    HW3 8446   3.333   1.610   3.473  0.2731  1.0492  0.1866
 2100SOL    MW4 8447   3.410   1.575   3.453 -0.3154 -0.1724 -0.0443
 2101SOL     OW 8448   3.371   1.575   3.158  0.7118  0.1102  0.0649
 2101SOL    HW2 8449   3.435   1.634   3.118  0.1411  1.0104  0.4675
 2101SOL    HW3 8450   3.392   1.577   3.252 -1.1880  2.0253  0.4825
 2101SOL    MW4 8451   3.382   1.583   3.165  0.3860  0.4817  0.1733
 2102SOL     OW 8452   3.152   1.627   3.554  0.1791  0.1157  0.5106
 2102SOL    HW2 8453   3.149   1.717   3.520  0.3834  0.6094  1.7811
 2102SOL    HW3 8454   3.082   1.582   3.508  1.8413  0.1892 -2.2072
 2102SOL    MW4 8455   3.143   1.633   3.543  0.4253  0.1906  0.3197
 2103SOL     OW 8456   3.125   1.886   3.458  0.3163 -0.3589  0.0340
 2103SOL    HW2 8457   3.062   1.955   3.480 -0.3822 -0.6990 -0.8333
 2103SOL    HW3 8458   3.113   1.872   3.364  1.0746 -1.0421  0.0345
 2103SOL    MW4 8459   3.115   1.893   3.448  0.3240 -0.4939 -0.0803
 2104SOL     OW 8460   3.386   2.058   3.808  0.6134 -0.4245 -0.0506
 2104SOL    HW2 8461   3.372   2.053   3.714  1.1980  1.3832 -0.2698
 2104SOL    HW3 8462   3.306   2.022   3.847  0.0297 -0.4223 -1.2353
 2104SOL    MW4 8463   3.373   2.053   3.801  0.6135 -0.1857 -0.2358
 2105SOL     OW 8464   3.359   2.301   3.416  0.0538  0.1334 -0.1946
 2105SOL    HW2 8465   3.433   2.355   3.444  0.3191 -0.1821 -0.2876
 2105SOL    HW3 8466   3.282   2.354   3.437  0.3491  0.9564 -1.1537
 2105SOL    MW4 8467   3.358   2.315   3.423  0.1278  0.2003 -0.3333
 2106SOL     OW 8468   3.126   2.459   3.473  0.2397  0.3162 -0.3444
 2106SOL    HW2 8469   3.124   2.552   3.450 -1.2942  0.4761  0.4201
 2106SOL    HW3 8470   3.048   2.422   3.432  0.1827 -0.3889  0.3942
 2106SOL    MW4 8471   3.116   2.467   3.465  0.0296  0.2441 -0.1459
 2107SOL     OW 8472   3.124   2.728   3.424  0.2614 -0.1116 -0.5067
 2107SOL    HW2 8473   3.207   2.755   3.463  0.1752 -0.9711  0.3014
 2107SOL    HW3 8474   3.059   2.788   3.460  0.0113 -1.5797  1.5685
 2107SOL    MW4 8475   3.126   2.739   3.433  0.2170 -0.4184 -0.1266
 2108SOL     OW 8476   3.368   2.880   3.512 -0.4865 -0.0499 -0.0006
 2108SOL    HW2 8477   3.431   2.816   3.478 -1.0187 -0.0469 -1.0143
 2108SOL    HW3 8478   3.383   2.959   3.460  0.5992  0.8803  1.6752
 2108SOL    MW4 8479   3.378   2.882   3.501 -0.4134  0.0732  0.0870
 2109SOL     OW 8480   3.365   3.132   3.395 -0.2180  0.0873  0.0066
 2109SOL    HW2 8481   3.441   3.180   3.428 -0.3336  0.9906 -1.0116
 2109SOL    HW3 8482   3.291   3.171   3.440 -0.1213 -0.5385  0.7175
 2109SOL    MW4 8483   3.365   3.143   3.405 -0.2205  0.1237 -0.0339
 2110SOL     OW 8484   3.142   3.225   3.528  0.1484 -0.0931 -0.6734
 2110SOL    HW2 8485   3.133   3.304   3.475 -0.8216 -0.6355 -1.3555
 2110SOL    HW3 8486   3.083   3.162   3.485  0.4377 -0.9779  0.2240
 2110SOL    MW4 8487   3.133   3.227   3.515  0.0587 -0.2816 -0.6452
 2111SOL     OW 8488   3.147   3.490   3.401  0.0670  0.6271 -0.5819
 2111SOL    HW2 8489   3.137   3.494   3.306 -0.2811  1.2614 -0.5222
 2111SOL    HW3 8490   3.071   3.538   3.435  0.4382  0.8078  0.0031
 2111SOL    MW4 8491   3.135   3.497   3.393  0.0701  0.7348 -0.4969
 2112SOL     OW 8492   3.375   3.591   3.496 -0.1476  0.0180 -0.1871
 2112SOL    HW2 8493   3.296   3.550   3.461 -0.5184  1.0071 -0.5195
 2112SOL    HW3 8494   3.375   3.679   3.460  1.3206 -0.0921 -0.4941
 2112SOL    MW4 8495   3.365   3.597   3.487 -0.0026  0.1338 -0.2713
 2113SOL     OW 8496   3.389   3.855   3.402  0.2703  0.2742  0.0929
 2113SOL    HW2 8497   3.456   3.893   3.458 -0.3604 -0.6467  1.4821
 2113SOL    HW3 8498   3.308   3.898   3.429  0.1313  0.6643 -0.9067
 2113SOL    MW4 8499   3.387   3.866   3.413  0.1688  0.2041  0.1445
 2114SOL     OW 8500   3.141   3.992   3.485 -0.3638  0.0858 -0.0343
 2114SOL    HW2 8501   3.146   4.088   3.477  0.3504  0.0740  0.1494
 2114SOL    HW3 8502   3.135   3.977   3.580  1.0901 -0.0942  0.0500
 2114SOL    MW4 8503   3.141   4.003   3.497 -0.0780  0.0606  0.0010
 2115SOL     OW 8504   3.154   4.255   3.413  0.8241 -0.8229  0.3088
 2115SOL    HW2 8505   3.237   4.296   3.438  0.6215  0.8965 -1.7438
 2115SOL    HW3 8506   3.089   4.300   3.467  0.8170  0.2706 -0.6105
 2115SOL    MW4 8507   3.157   4.267   3.424  0.7966 -0.4525 -0.0832
 2116SOL     OW 8508   3.380   4.357   3.520 -0.3508 -0.2664  0.3223
 2116SOL    HW2 8509   3.386   4.353   3.615  2.4720 -1.8122  0.1358
 2116SOL    HW3 8510   3.415   4.443   3.497 -0.4270 -0.1559  0.6164
 2116SOL    MW4 8511   3.385   4.368   3.530  0.0117 -0.4559  0.3366
 2117SOL     OW 8512   3.809   4.631   3.490 -0.5458  0.0309 -0.5370
 2117SOL    HW2 8513   3.741   4.698   3.500  0.1532  0.6412  0.2216
 2117SOL    HW3 8514   3.828   4.631   3.396 -0.5008  0.9696 -0.5401
 2117SOL    MW4 8515   3.803   4.640   3.479 -0.4475  0.2351 -0.4373
 2118SOL     OW 8516   3.614   0.156   3.540 -0.0129  0.1339  0.3981
 2118SOL    HW2 8517   3.601   0.238   3.492 -1.0497 -0.4985 -0.4420
 2118SOL    HW3 8518   3.547   0.097   3.505  1.7249 -1.5817 -0.1674
 2118SOL    MW4 8519   3.603   0.159   3.529  0.0794 -0.1759  0.2124
 2119SOL     OW 8520   3.587   0.403   3.405  0.3766  0.3806 -0.3380
 2119SOL    HW2 8521   3.669   0.440   3.437  0.1869 -0.5362  1.2896
 2119SOL    HW3 8522   3.520   0.437   3.465 -0.1193 -0.6449 -0.3012
 2119SOL    MW4 8523   3.589   0.412   3.417  0.2861  0.1243 -0.1185
 2120SOL     OW 8524   3.793   0.539   3.516 -0.1722 -0.1474  0.7320
 2120SOL    HW2 8525   3.786   0.528   3.611 -1.4701 -1.8491  0.4427
 2120SOL    HW3 8526   3.874   0.492   3.493  0.5099  0.8374  1.0658
 2120SOL    MW4 8527   3.803   0.531   3.525 -0.2534 -0.2421  0.7377
 2121SOL     OW 8528   3.838   0.808   3.438  0.3300 -0.0102 -0.1350
 2121SOL    HW2 8529   3.915   0.848   3.478  0.0370 -0.1294  0.5485
 2121SOL    HW3 8530   3.837   0.718   3.471  0.3370 -0.2497 -0.7623
 2121SOL    MW4 8531   3.848   0.802   3.447  0.2923 -0.0575 -0.1278
 2122SOL     OW 8532   3.589   0.927   3.510 -0.9042 -0.3714 -0.0640
 2122SOL    HW2 8533   3.583   0.912   3.605 -0.8299  0.5115  0.0828
 2122SOL    HW3 8534   3.669   0.882   3.484 -1.6258 -1.7388  0.0717
 2122SOL    MW4 8535   3.599   0.919   3.519 -0.9899 -0.4354 -0.0265
 2123SOL     OW 8536   3.599   1.175   3.426 -0.1580  0.0651  0.1576
 2123SOL    HW2 8537   3.601   1.083   3.455 -1.3073 -0.1497 -0.4466
 2123SOL    HW3 8538   3.619   1.171   3.333 -1.7008  0.2975 -0.1840
 2123SOL    MW4 8539   3.602   1.162   3.418 -0.5131  0.0674  0.0329
 2124SOL     OW 8540   3.829   1.322   3.557  0.0406 -0.3949 -0.6976
 2124SOL    HW2 8541   3.825   1.315   3.652  0.5657 -0.0290 -0.6503
 2124SOL    HW3 8542   3.761   1.262   3.526 -0.2619 -0.3664 -0.0885
 2124SOL    MW4 8543   3.820   1.313   3.565  0.0696 -0.3427 -0.6111
 2125SOL     OW 8544   3.866   1.543   3.402  0.0730  0.3693 -0.5109
 2125SOL    HW2 8545   3.942   1.595   3.430 -0.2877 -0.0150  1.2316
 2125SOL    HW3 8546   3.854   1.479   3.472 -2.0593  0.6267 -0.6217
 2125SOL    MW4 8547   3.875   1.542   3.415 -0.2558  0.3525 -0.2954
 2126SOL     OW 8548   3.663   1.690   3.537  0.1899  0.4777  0.6614
 2126SOL    HW2 8549   3.648   1.773   3.492 -0.3201 -0.5601 -1.1270
 2126SOL    HW3 8550   3.724   1.642   3.481 -1.1044 -1.1873  0.6438
 2126SOL    MW4 8551   3.669   1.694   3.524 -0.0482  0.1210  0.4232
 2127SOL     OW 8552   3.364   2.039   3.531 -0.4428  0.7444  0.3866
 2127SOL    HW2 8553   3.360   2.120   3.481 -0.5399  0.3607 -0.2326
 2127SOL    HW3 8554   3.293   1.985   3.495 -0.7064  0.5804  1.1395
 2127SOL    MW4 8555   3.354   2.042   3.519 -0.4902  0.6723  0.4041
 2128SOL     OW 8556   3.834   2.094   3.817 -0.2269  0.2969 -0.5750
 2128SOL    HW2 8557   3.760   2.037   3.837 -0.6852  0.9152 -0.4642
 2128SOL    HW3 8558   3.910   2.049   3.852 -0.6275 -0.0757 -0.1711
 2128SOL    MW4 8559   3.834   2.081   3.824 -0.3402  0.3293 -0.5069
 2129SOL     OW 8560   3.849   2.314   3.378  0.2305 -0.1300  0.0511
 2129SOL    HW2 8561   3.907   2.369   3.430  1.2387 -0.8784 -0.2539
 2129SOL    HW3 8562   3.848   2.230   3.424  0.1203 -0.4063 -0.4503
 2129SOL    MW4 8563   3.857   2.310   3.391  0.3490 -0.2651 -0.0553
 2130SOL     OW 8564   3.612   2.422   3.506 -0.0473 -0.1680  0.2982
 2130SOL    HW2 8565   3.623   2.515   3.490  1.0606 -0.0327  1.7033
 2130SOL    HW3 8566   3.689   2.382   3.466  0.2227 -0.3200  0.9573
 2130SOL    MW4 8567   3.624   2.429   3.499  0.1345 -0.1700  0.5705
 2131SOL     OW 8568   3.599   2.690   3.439 -0.6840  0.1648  0.0884
 2131SOL    HW2 8569   3.683   2.734   3.454  0.0250 -1.2716  0.4533
 2131SOL    HW3 8570   3.588   2.691   3.344 -0.7530  1.2253  0.0934
 2131SOL    MW4 8571   3.609   2.696   3.428 -0.5994  0.1152  0.1371
 2132SOL     OW 8572   3.830   2.834   3.476  0.1351  0.1150 -0.2242
 2132SOL    HW2 8573   3.835   2.843   3.571 -2.9421  0.7707 -0.0811
 2132SOL    HW3 8574   3.828   2.923   3.443  1.6942 -0.1087 -0.9653
 2132SOL    MW4 8575   3.830   2.847   3.484 -0.0651  0.1721 -0.3030
 2133SOL     OW 8576   3.810   3.100   3.414  0.2776 -0.1936 -0.1628
 2133SOL    HW2 8577   3.890   3.144   3.443  0.7904 -2.1761  1.5273
 2133SOL    HW3 8578   3.824   3.084   3.321  1.1805  0.8384 -0.2206
 2133SOL    MW4 8579   3.823   3.104   3.406  0.4647 -0.3190  0.0525
 2134SOL     OW 8580   3.599   3.231   3.546 -0.1993  0.4033  0.7254
 2134SOL    HW2 8581   3.609   3.317   3.505  1.5198 -0.2976 -0.3848
 2134SOL    HW3 8582   3.669   3.178   3.507 -2.2171 -1.9388  0.2346
 2134SOL    MW4 8583   3.610   3.235   3.536 -0.2387  0.0017  0.5140
 2135SOL     OW 8584   3.622   3.479   3.413  0.0610 -0.5424 -0.2229
 2135SOL    HW2 8585   3.541   3.525   3.436  1.6675  1.3444  1.9013
 2135SOL    HW3 8586   3.619   3.471   3.317 -2.5829 -0.4451 -0.1676
 2135SOL    MW4 8587   3.611   3.484   3.403 -0.0758 -0.2804  0.0646
 2136SOL     OW 8588   3.832   3.631   3.516  0.7529  0.3047  0.1992
 2136SOL    HW2 8589   3.816   3.643   3.610  0.7133  1.8158  0.0215
 2136SOL    HW3 8590   3.764   3.570   3.488  0.4653  0.2158  1.0709
 2136SOL    MW4 8591   3.821   3.625   3.525  0.7098  0.4923  0.2909
 2137SOL     OW 8592   3.800   3.860   3.394 -0.5469  0.0482  0.2313
 2137SOL    HW2 8593   3.728   3.893   3.448 -0.0266 -0.0907  1.0254
 2137SOL    HW3 8594   3.815   3.771   3.426 -1.2018 -0.5663 -1.1419
 2137SOL    MW4 8595   3.793   3.853   3.405 -0.5646 -0.0513  0.1547
 2138SOL     OW 8596   3.601   3.955   3.564  0.1541  0.4356  0.1078
 2138SOL    HW2 8597   3.602   3.961   3.659 -2.5190  1.1026  0.1390
 2138SOL    HW3 8598   3.599   4.046   3.534  1.2850  0.2366 -0.5910
 2138SOL    MW4 8599   3.601   3.968   3.572 -0.0494  0.4971  0.0196
 2139SOL     OW 8600   3.603   4.223   3.472 -0.1969  0.6204  0.6151
 2139SOL    HW2 8601   3.522   4.265   3.500 -0.7792 -0.5314  0.7129
 2139SOL    HW3 8602   3.605   4.237   3.377  0.0245  1.5456  0.7519
 2139SOL    MW4 8603   3.593   4.230   3.463 -0.2446  0.5898  0.6464
 2140SOL     OW 8604   3.831   4.366   3.599  0.6353 -0.3241 -0.2288
 2140SOL    HW2 8605   3.769   4.309   3.553  1.3507 -0.6172 -0.8399
 2140SOL    HW3 8606   3.813   4.454   3.563  0.0619 -0.2859  0.1492
 2140SOL    MW4 8607   3.820   4.370   3.588  0.6542 -0.3576 -0.2594
 2141SOL     OW 8608   4.235   4.648   3.441 -0.1292  0.4358 -0.2223
 2141SOL    HW2 8609   4.228   4.561   3.480  0.7415  1.0506  1.3629
 2141SOL    HW3 8610   4.323   4.678   3.466 -1.4110  2.8436  1.5096
 2141SOL    MW4 8611   4.246   4.640   3.449 -0.1836  0.8345  0.2153
 2142SOL     OW 8612   4.042   0.158   3.535  0.2258  0.3064 -0.1471
 2142SOL    HW2 8613   4.112   0.097   3.513  0.6806  1.0004 -0.6350
 2142SOL    HW3 8614   3.962   0.107   3.522  0.6304 -0.4221  0.2037
 2142SOL    MW4 8615   4.040   0.143   3.530  0.3390  0.3018 -0.1650
 2143SOL     OW 8616   4.017   0.417   3.435 -0.0463  0.0916  0.1843
 2143SOL    HW2 8617   4.030   0.327   3.464 -0.0660  0.0513  0.0667
 2143SOL    HW3 8618   4.029   0.414   3.340 -1.1802  0.0090  0.0428
 2143SOL    MW4 8619   4.021   0.405   3.426 -0.1988  0.0754  0.1502
 2144SOL     OW 8620   4.246   0.511   3.547 -0.2669 -0.3201 -0.1177
 2144SOL    HW2 8621   4.251   0.605   3.532 -0.5086  0.0550  1.9484
 2144SOL    HW3 8622   4.177   0.481   3.489 -1.1887  1.0359  0.2539
 2144SOL    MW4 8623   4.238   0.519   3.537 -0.4201 -0.0917  0.2041
 2145SOL     OW 8624   4.275   0.799   3.460  0.3716 -0.4656 -0.1007
 2145SOL    HW2 8625   4.358   0.847   3.467  0.1899 -0.1323 -0.2142
 2145SOL    HW3 8626   4.267   0.780   3.367  0.1151 -0.1236 -0.1532
 2145SOL    MW4 8627   4.285   0.803   3.449  0.3133 -0.3765 -0.1225
 2146SOL     OW 8628   4.056   0.946   3.537  0.0086 -0.1360  0.3070
 2146SOL    HW2 8629   4.069   1.033   3.501 -1.0582 -0.0672  0.0729
 2146SOL    HW3 8630   4.127   0.894   3.501  0.6518  0.6338  0.4491
 2146SOL    MW4 8631   4.067   0.950   3.527 -0.0472 -0.0253  0.2947
 2147SOL     OW 8632   4.086   1.199   3.431  0.2834  0.0577 -0.1415
 2147SOL    HW2 8633   4.161   1.244   3.469 -0.1290 -0.1944  0.9953
 2147SOL    HW3 8634   4.010   1.252   3.458 -0.0746 -0.5069 -0.0298
 2147SOL    MW4 8635   4.086   1.212   3.440  0.1817 -0.0499  0.0234
 2148SOL     OW 8636   4.284   1.363   3.530  0.1327  0.2093  0.2140
 2148SOL    HW2 8637   4.291   1.432   3.464 -1.6650 -0.6213 -0.9008
 2148SOL    HW3 8638   4.357   1.304   3.511 -0.8700 -0.4777 -1.6092
 2148SOL    MW4 8639   4.294   1.365   3.519 -0.2370  0.0091 -0.1738
 2149SOL     OW 8640   4.344   1.567   3.369  0.0656 -0.2113 -0.2995
 2149SOL    HW2 8641   4.262   1.605   3.402 -0.7531 -1.5206 -0.8073
 2149SOL    HW3 8642   4.332   1.567   3.274  0.8571  0.0214 -0.3988
 2149SOL    MW4 8643   4.331   1.572   3.361  0.0625 -0.3533 -0.3798
 2150SOL     OW 8644   4.109   1.670   3.491  0.3966  0.6693 -0.3393
 2150SOL    HW2 8645   4.093   1.651   3.583 -0.1726  0.0067 -0.5694
 2150SOL    HW3 8646   4.084   1.762   3.480  0.2514  0.6814  0.1169
 2150SOL    MW4 8647   4.103   1.680   3.501  0.3023  0.5834 -0.3095
 2151SOL     OW 8648   3.821   2.066   3.545  0.0777 -0.1911  0.6051
 2151SOL    HW2 8649   3.841   2.066   3.638  0.6958  0.2897  0.4804
 2151SOL    HW3 8650   3.897   2.022   3.505  0.5874  1.0490  0.1840
 2151SOL    MW4 8651   3.834   2.060   3.552  0.2267  0.0358  0.5331
 2152SOL     OW 8652   4.256   2.069   3.527  0.1039 -0.1653 -0.0293
 2152SOL    HW2 8653   4.258   2.158   3.490  1.8450 -0.2637 -0.2061
 2152SOL    HW3 8654   4.341   2.033   3.505  0.1169 -1.2117  1.7298
 2152SOL    MW4 8655   4.267   2.076   3.519  0.3347 -0.3164  0.1798
 2153SOL     OW 8656   4.257   2.338   3.409  0.3610 -0.0060 -0.4674
 2153SOL    HW2 8657   4.252   2.333   3.313 -2.1425 -0.4371 -0.3577
 2153SOL    HW3 8658   4.191   2.403   3.433  0.9562  0.0856  0.9697
 2153SOL    MW4 8659   4.247   2.346   3.399  0.1092 -0.0508 -0.2635
 2154SOL     OW 8660   4.028   2.495   3.475 -0.3376 -0.0748  0.2007
 2154SOL    HW2 8661   4.027   2.515   3.569  0.2730 -0.6456  0.3406
 2154SOL    HW3 8662   4.043   2.579   3.432  0.4007  0.0378  0.6695
 2154SOL    MW4 8663   4.030   2.508   3.482 -0.1597 -0.1352  0.2811
 2155SOL     OW 8664   4.024   2.691   3.095 -0.1072 -0.1571  0.1191
 2155SOL    HW2 8665   4.037   2.698   3.189  0.0011  0.5301  0.0524
 2155SOL    HW3 8666   3.951   2.749   3.075 -0.3349 -0.5388 -0.1767
 2155SOL    MW4 8667   4.016   2.699   3.105 -0.1230 -0.1168  0.0713
 2156SOL     OW 8668   4.072   2.748   3.361 -0.2262 -0.6387 -0.2801
 2156SOL    HW2 8669   4.142   2.790   3.410  0.9487 -2.5327 -0.2985
 2156SOL    HW3 8670   3.992   2.787   3.394  0.7546  0.4880  0.7803
 2156SOL    MW4 8671   4.071   2.759   3.372  0.0582 -0.7401 -0.1428
 2157SOL     OW 8672   4.267   3.113   3.359 -0.1528 -0.3756 -0.1787
 2157SOL    HW2 8673   4.271   3.028   3.402  0.8417 -0.3552 -0.2087
 2157SOL    HW3 8674   4.190   3.156   3.396 -0.2056 -0.9806  0.4136
 2157SOL    MW4 8675   4.257   3.107   3.370 -0.0286 -0.4530 -0.1044
 2158SOL     OW 8676   4.045   3.497   3.395  0.2509  0.3190 -0.1815
 2158SOL    HW2 8677   3.968   3.528   3.443  1.1889  0.4829  1.2432
 2158SOL    HW3 8678   4.119   3.522   3.450  1.3007 -0.2676 -1.3112
 2158SOL    MW4 8679   4.045   3.504   3.409  0.5126  0.2635 -0.1428
 2159SOL     OW 8680   4.278   3.618   3.547  0.2269  0.2910  0.3454
 2159SOL    HW2 8681   4.281   3.610   3.643 -0.4791 -0.1834  0.3378
 2159SOL    HW3 8682   4.274   3.712   3.531  2.6684  0.4790  0.6854
 2159SOL    MW4 8683   4.278   3.629   3.558  0.4559  0.2532  0.3891
 2160SOL     OW 8684   4.467   3.475   3.400  0.7335 -0.4145  0.4471
 2160SOL    HW2 8685   4.391   3.527   3.425  0.8096 -0.6369  1.1404
 2160SOL    HW3 8686   4.478   3.492   3.306 -0.7807 -1.1599  0.1278
 2160SOL    MW4 8687   4.458   3.484   3.391  0.5431 -0.5422  0.4964
 2161SOL     OW 8688   4.268   3.871   3.486 -0.2360  0.4345  0.0561
 2161SOL    HW2 8689   4.347   3.920   3.509  0.2744 -0.2923 -0.1633
 2161SOL    HW3 8690   4.266   3.873   3.390 -0.4267  0.3567  0.0584
 2161SOL    MW4 8691   4.278   3.878   3.476 -0.1936  0.3285  0.0277
 2162SOL     OW 8692   4.011   3.992   3.521  0.4883 -0.3980 -0.3746
 2162SOL    HW2 8693   4.102   3.963   3.516  0.5828  0.0253 -1.1995
 2162SOL    HW3 8694   3.962   3.930   3.467  0.3610 -0.3300 -0.3380
 2162SOL    MW4 8695   4.017   3.980   3.513  0.4840 -0.3331 -0.4785
 2163SOL     OW 8696   4.020   4.252   3.443  0.4684 -0.3344 -0.0203
 2163SOL    HW2 8697   4.010   4.162   3.474  1.7827  0.1934  2.0213
 2163SOL    HW3 8698   3.962   4.303   3.499  0.8009  0.2862 -0.2428
 2163SOL    MW4 8699   4.011   4.247   3.455  0.6852 -0.1831  0.2196
 2164SOL     OW 8700   4.240   4.387   3.549 -0.4570 -0.3005  0.0989
 2164SOL    HW2 8701   4.225   4.403   3.642 -0.5448  0.2972 -0.0154
 2164SOL    HW3 8702   4.167   4.332   3.522 -1.0112  0.4154  0.1422
 2164SOL    MW4 8703   4.229   4.382   3.558 -0.5417 -0.1268  0.0896
 2165SOL     OW 8704   0.244   0.025   3.929  0.5448 -0.1649 -0.2145
 2165SOL    HW2 8705   0.171   0.053   3.873  0.0066 -0.6641  0.2341
 2165SOL    HW3 8706   0.253  -0.069   3.911 -0.1731 -0.5083  1.1534
 2165SOL    MW4 8707   0.235   0.016   3.919  0.3791 -0.2761  0.0250
 2166SOL     OW 8708   4.024   4.246   3.958 -0.0929  0.0301  0.7796
 2166SOL    HW2 8709   4.027   4.165   3.906  1.2908  0.1230  0.6840
 2166SOL    HW3 8710   3.945   4.291   3.929  0.8616  0.2751 -1.5558
 2166SOL    MW4 8711   4.014   4.241   3.948  0.2155  0.0744  0.4590
 2167SOL     OW 8712   4.080   0.181   4.661  0.4071  0.1780 -0.0045
 2167SOL    HW2 8713   4.157   0.217   4.619  1.3440  0.9918  2.3511
 2167SOL    HW3 8714   4.114   0.121   4.728 -1.0394 -1.0573 -0.3305
 2167SOL    MW4 8715   4.094   0.178   4.664  0.3400  0.1224  0.2632
 2168SOL     OW 8716   0.208   0.521   3.784  0.0737  0.2890  0.1203
 2168SOL    HW2 8717   0.284   0.474   3.819 -0.2157  1.0413  1.8233
 2168SOL    HW3 8718   0.218   0.516   3.689  1.0553 -1.5566  0.2983
 2168SOL    MW4 8719   0.219   0.514   3.776  0.1650  0.1447  0.3686
 2169SOL     OW 8720   0.023   0.917   3.846 -0.5434  0.0714  0.1375
 2169SOL    HW2 8721   0.013   1.002   3.889  1.1454 -0.5528  1.8715
 2169SOL    HW3 8722  -0.062   0.874   3.858 -1.0331  1.0540  0.2728
 2169SOL    MW4 8723   0.011   0.922   3.854 -0.3852  0.1187  0.3841
 2170SOL     OW 8724   0.021   1.165   4.011 -0.2522  0.5361 -0.1352
 2170SOL    HW2 8725  -0.043   1.233   3.991 -0.5585  0.6698  1.2723
 2170SOL    HW3 8726   0.104   1.198   3.975 -1.2182 -0.2482 -3.1773
 2170SOL    MW4 8727   0.024   1.178   4.003 -0.4200  0.4501 -0.3510
 2171SOL     OW 8728   1.161   0.761   4.180 -0.2374  0.0872  0.0511
 2171SOL    HW2 8729   1.073   0.729   4.201 -0.5389  0.4819 -0.6105
 2171SOL    HW3 8730   1.162   0.851   4.213  0.0007  0.0021  0.2757
 2171SOL    MW4 8731   1.149   0.768   4.188 -0.2458  0.1281 -0.0062
 2172SOL     OW 8732   2.705   0.862   3.797  0.2892 -0.8825  0.0652
 2172SOL    HW2 8733   2.638   0.816   3.848  1.6767 -1.3242  1.5587
 2172SOL    HW3 8734   2.788   0.825   3.829  1.2558 -0.1792 -1.5688
 2172SOL    MW4 8735   2.707   0.851   3.808  0.5999 -0.8479  0.0470
 2173SOL     OW 8736   0.222   1.289   3.857  0.5065 -0.2656 -0.1178
 2173SOL    HW2 8737   0.219   1.304   3.763 -0.4253 -0.9224 -0.2086
 2173SOL    HW3 8738   0.213   1.376   3.896 -0.2722 -0.1127 -0.6351
 2173SOL    MW4 8739   0.220   1.303   3.850  0.2808 -0.3320 -0.1981
 2174SOL     OW 8740   2.487   1.802   4.260  0.7350 -0.1672  0.6246
 2174SOL    HW2 8741   2.567   1.850   4.239  0.8818 -0.7717 -0.2251
 2174SOL    HW3 8742   2.417   1.868   4.258  0.7664 -0.1561 -1.5889
 2174SOL    MW4 8743   2.488   1.817   4.257  0.7584 -0.2455  0.2208
 2175SOL     OW 8744   4.223   2.080   3.798 -0.3476  0.3931 -0.3465
 2175SOL    HW2 8745   4.211   2.175   3.809 -0.1516  0.6953 -2.4841
 2175SOL    HW3 8746   4.225   2.067   3.703  1.4631 -1.5216 -0.0865
 2175SOL    MW4 8747   4.222   2.091   3.787 -0.0825  0.1805 -0.5944
 2176SOL     OW 8748   0.452   1.929   3.935 -0.0232 -0.5895  0.0293
 2176SOL    HW2 8749   0.376   1.973   3.897  0.3042  1.3763  1.5873
 2176SOL    HW3 8750   0.449   1.840   3.898 -2.9066 -0.4689 -0.1469
 2176SOL    MW4 8751   0.441   1.923   3.925 -0.3604 -0.3142  0.2117
 2177SOL     OW 8752   3.856   0.013   3.924 -0.0155  0.0257 -0.2035
 2177SOL    HW2 8753   3.926   0.063   3.881  1.3578  0.1990  2.1310
 2177SOL    HW3 8754   3.862   0.038   4.017 -1.6925 -1.6959  0.4073
 2177SOL    MW4 8755   3.866   0.023   3.931 -0.0556 -0.1786  0.1853
 2178SOL     OW 8756   4.288   2.840   3.798 -0.1000 -0.4840  0.3327
 2178SOL    HW2 8757   4.212   2.818   3.852 -0.9419  0.5562 -0.4360
 2178SOL    HW3 8758   4.359   2.786   3.835 -0.9951 -0.8334  1.5767
 2178SOL    MW4 8759   4.288   2.830   3.810 -0.3295 -0.3927  0.3953
 2179SOL     OW 8760   2.467   0.730   3.935  0.3803  0.0213 -0.1323
 2179SOL    HW2 8761   2.461   0.647   3.887  1.3740 -0.2405  0.1852
 2179SOL    HW3 8762   2.405   0.788   3.890  0.6807 -0.4810 -1.2130
 2179SOL    MW4 8763   2.458   0.727   3.923  0.5510 -0.0795 -0.2332
 2180SOL     OW 8764   1.471   4.602   4.566  0.6071 -0.1558 -0.3601
 2180SOL    HW2 8765   1.438   4.567   4.483  0.5311 -1.8947  0.3918
 2180SOL    HW3 8766   1.545   4.546   4.588  0.6359  0.3097  0.7474
 2180SOL    MW4 8767   1.476   4.590   4.558  0.6008 -0.3233 -0.1149
 2181SOL     OW 8768   4.463   2.439   3.764  0.0943  0.1398  0.2357
 2181SOL    HW2 8769   4.467   2.526   3.804 -1.8108  0.4359 -0.1878
 2181SOL    HW3 8770   4.378   2.404   3.790  0.2428 -1.0139 -0.7784
 2181SOL    MW4 8771   4.453   2.446   3.772 -0.1373  0.0267  0.0460
 2182SOL     OW 8772   1.132   3.947   4.491 -0.2125 -0.0016  0.2010
 2182SOL    HW2 8773   1.190   3.989   4.554 -1.0689  0.1976  0.8672
 2182SOL    HW3 8774   1.046   3.951   4.531 -0.5653 -0.9924 -0.4351
 2182SOL    MW4 8775   1.128   3.953   4.504 -0.3721 -0.1061  0.2046
 2183SOL     OW 8776   0.740   4.647   4.166 -0.1432 -0.0082 -0.2754
 2183SOL    HW2 8777   0.757   4.658   4.072 -1.3117 -0.4523 -0.5497
 2183SOL    HW3 8778   0.812   4.592   4.197  0.0891 -0.1086 -0.9724
 2183SOL    MW4 8779   0.752   4.641   4.157 -0.2667 -0.0801 -0.4034
 2184SOL     OW 8780   0.211   3.624   3.805 -0.2509 -0.4880  0.4963
 2184SOL    HW2 8781   0.211   3.715   3.836 -0.9902  0.1434 -1.3257
 2184SOL    HW3 8782   0.285   3.584   3.850 -0.1353  0.9229  1.5907
 2184SOL    MW4 8783   0.221   3.631   3.815 -0.3332 -0.2186  0.4001
 2185SOL     OW 8784   0.449   4.002   3.800  0.3865 -0.7099  0.4013
 2185SOL    HW2 8785   0.534   3.959   3.810  0.4964 -0.5676  0.0803
 2185SOL    HW3 8786   0.440   4.015   3.706  0.5165  0.2939  0.5286
 2185SOL    MW4 8787   0.459   3.998   3.789  0.4182 -0.5591  0.3757
 2186SOL     OW 8788   0.962   4.510   4.278 -0.4505  0.2471 -0.1309
 2186SOL    HW2 8789   0.947   4.419   4.250 -0.2497  0.5946 -1.4146
 2186SOL    HW3 8790   0.932   4.512   4.368  1.5745 -1.6398  0.6414
 2186SOL    MW4 8791   0.956   4.498   4.286 -0.1569  0.0439 -0.1984
 2187SOL     OW 8792   0.262   1.003   4.339  0.4728  0.0391  0.1139
 2187SOL    HW2 8793   0.241   0.927   4.285  1.4669 -0.7273  0.7919
 2187SOL    HW3 8794   0.325   1.053   4.287  1.1751 -0.5253  0.4162
 2187SOL    MW4 8795   0.268   1.000   4.325  0.6966 -0.1365  0.2432
 2188SOL     OW 8796   0.242   4.448   3.818  0.2284 -0.0929  0.5176
 2188SOL    HW2 8797   0.309   4.381   3.833  0.0774 -0.2165  0.6490
 2188SOL    HW3 8798   0.160   4.403   3.836 -0.0418 -0.5451 -1.6929
 2188SOL    MW4 8799   0.240   4.433   3.822  0.1728 -0.1688  0.2432
 2189SOL     OW 8800   0.631   4.390   3.783 -0.0517 -0.1119 -0.6344
 2189SOL    HW2 8801   0.706   4.342   3.817 -0.6213 -0.9278 -0.5259
 2189SOL    HW3 8802   0.643   4.389   3.688  0.7121  0.8144 -0.5514
 2189SOL    MW4 8803   0.642   4.384   3.775 -0.0261 -0.0973 -0.6092
 2190SOL     OW 8804   0.456   0.128   3.800  0.3825  0.4599 -0.3212
 2190SOL    HW2 8805   0.444   0.218   3.830 -1.7397  0.0414  0.1770
 2190SOL    HW3 8806   0.389   0.078   3.847  0.9121 -1.2158 -1.3149
 2190SOL    MW4 8807   0.445   0.134   3.810  0.1724  0.1836 -0.3870
 2191SOL     OW 8808   0.441   0.385   3.858 -0.3059  0.1952 -0.4483
 2191SOL    HW2 8809   0.520   0.432   3.829 -0.1440  1.2393  1.5992
 2191SOL    HW3 8810   0.444   0.389   3.953 -1.5789 -1.9047 -0.2905
 2191SOL    MW4 8811   0.452   0.392   3.867 -0.4525  0.0559 -0.1574
 2192SOL     OW 8812   0.681   0.504   3.781 -0.2861 -0.2868  0.2893
 2192SOL    HW2 8813   0.674   0.583   3.835  1.4364  0.4094 -0.4570
 2192SOL    HW3 8814   0.762   0.462   3.810 -0.6439 -1.2295 -0.0492
 2192SOL    MW4 8815   0.691   0.509   3.792 -0.1060 -0.3194  0.1462
 2193SOL     OW 8816   1.983   3.876   3.918 -0.2202  0.1804  0.0778
 2193SOL    HW2 8817   2.053   3.925   3.875  0.3847 -0.6168  0.1358
 2193SOL    HW3 8818   1.988   3.789   3.879  0.3836 -0.5766  1.7932
 2193SOL    MW4 8819   1.993   3.871   3.907 -0.0608 -0.0248  0.3119
 2194SOL     OW 8820   0.685   1.302   3.830  0.0819 -0.1519  0.2154
 2194SOL    HW2 8821   0.615   1.260   3.880  0.7005 -0.3344  0.9416
 2194SOL    HW3 8822   0.668   1.276   3.740 -1.1091  0.2644  0.3043
 2194SOL    MW4 8823   0.674   1.293   3.825  0.0064 -0.1210  0.3228
 2195SOL     OW 8824   0.036   0.078   4.652  0.2583 -0.0470  0.5733
 2195SOL    HW2 8825   0.001   0.048   4.736 -1.8888  0.7181 -0.0167
 2195SOL    HW3 8826  -0.017   0.155   4.630  1.3612  0.2713 -1.0797
 2195SOL    MW4 8827   0.024   0.084   4.660  0.1206  0.0960  0.2775
 2196SOL     OW 8828   0.899   1.156   3.935 -0.6981  0.1600 -0.0124
 2196SOL    HW2 8829   0.837   1.208   3.885 -0.0160  0.2119 -0.8250
 2196SOL    HW3 8830   0.883   1.065   3.907  1.5933  0.4625 -2.4989
 2196SOL    MW4 8831   0.889   1.151   3.925 -0.3057  0.2067 -0.4478
 2197SOL     OW 8832   2.222   1.103   4.209 -0.2918 -0.2177  0.3318
 2197SOL    HW2 8833   2.224   1.197   4.227  0.4432 -0.1548 -0.0951
 2197SOL    HW3 8834   2.132   1.078   4.229 -0.3621  0.4822  0.9218
 2197SOL    MW4 8835   2.210   1.112   4.214 -0.2043 -0.1169  0.3533
 2198SOL     OW 8836   0.450   1.678   3.840 -0.1390 -0.1633  0.1520
 2198SOL    HW2 8837   0.528   1.631   3.871 -0.5052 -2.0124 -1.6258
 2198SOL    HW3 8838   0.376   1.624   3.870 -0.6973  0.7496  0.4507
 2198SOL    MW4 8839   0.450   1.664   3.848 -0.2609 -0.2868 -0.0434
 2199SOL     OW 8840   0.892   4.262   4.160  0.2193 -0.0187 -0.0050
 2199SOL    HW2 8841   0.821   4.221   4.209  0.7962 -0.2377  0.6527
 2199SOL    HW3 8842   0.966   4.203   4.172 -0.0803 -0.9777 -2.5354
 2199SOL    MW4 8843   0.892   4.249   4.168  0.2559 -0.1745 -0.2522
 2200SOL     OW 8844   0.670   2.054   3.818  0.0478 -0.2508  0.1823
 2200SOL    HW2 8845   0.754   2.010   3.834  0.0821  0.2686  1.4388
 2200SOL    HW3 8846   0.606   2.003   3.868 -0.3622 -0.5214 -0.6083
 2200SOL    MW4 8847   0.673   2.041   3.827 -0.0017 -0.2184  0.2437
 2201SOL     OW 8848   1.771   1.348   4.558 -0.4161 -0.1919 -0.3020
 2201SOL    HW2 8849   1.700   1.306   4.607  0.0099 -1.1149 -0.4625
 2201SOL    HW3 8850   1.762   1.442   4.577 -1.0846 -0.4083  0.4490
 2201SOL    MW4 8851   1.761   1.355   4.567 -0.4481 -0.3422 -0.2246
 2202SOL     OW 8852   0.903   2.433   3.771 -0.1059 -0.0800 -0.1879
 2202SOL    HW2 8853   0.888   2.514   3.818  0.6317  0.1750 -0.4024
 2202SOL    HW3 8854   0.816   2.391   3.768 -0.9339  1.6807 -1.9115
 2202SOL    MW4 8855   0.889   2.438   3.777 -0.1178  0.1857 -0.4437
 2203SOL     OW 8856   0.432   2.663   3.903  0.3116  0.1925 -0.6346
 2203SOL    HW2 8857   0.420   2.583   3.850 -0.4115  0.0858 -0.3265
 2203SOL    HW3 8858   0.516   2.698   3.875  0.9734 -1.0767 -0.2601
 2203SOL    MW4 8859   0.441   2.657   3.892  0.3035  0.0110 -0.5445
 2204SOL     OW 8860   2.718   3.583   4.774 -0.6391  0.1940 -0.3295
 2204SOL    HW2 8861   2.705   3.490   4.757  0.9018  0.2543 -2.0005
 2204SOL    HW3 8862   2.810   3.590   4.802 -1.0264  1.0957  0.7776
 2204SOL    MW4 8863   2.728   3.572   4.776 -0.4869  0.3209 -0.4039
 2205SOL     OW 8864   0.598   0.161   4.618 -0.4248 -0.1249  0.2205
 2205SOL    HW2 8865   0.594   0.066   4.623 -0.2998 -0.0962  1.0592
 2205SOL    HW3 8866   0.506   0.189   4.619 -0.4754 -0.2535 -0.5573
 2205SOL    MW4 8867   0.585   0.152   4.619 -0.4149 -0.1380  0.2279
 2206SOL     OW 8868   0.252   2.818   3.762 -0.2497 -0.2012 -0.1732
 2206SOL    HW2 8869   0.277   2.824   3.670  1.2461  0.2705  0.2550
 2206SOL    HW3 8870   0.317   2.761   3.801 -0.3757  0.2975  0.7807
 2206SOL    MW4 8871   0.264   2.811   3.755 -0.0690 -0.0732  0.0091
 2207SOL     OW 8872   1.559   1.531   4.177 -0.7510  0.2303 -0.1890
 2207SOL    HW2 8873   1.642   1.493   4.206  0.3114  0.3629 -2.8923
 2207SOL    HW3 8874   1.567   1.624   4.201 -0.0110  0.2846 -0.6089
 2207SOL    MW4 8875   1.571   1.539   4.184 -0.5133  0.2550 -0.6008
 2208SOL     OW 8876   1.121   1.067   4.544  0.3645  0.2539  0.1357
 2208SOL    HW2 8877   1.178   1.001   4.584 -0.5581 -1.0450 -0.6381
 2208SOL    HW3 8878   1.178   1.142   4.528  1.1867  0.0798  2.0677
 2208SOL    MW4 8879   1.136   1.068   4.547  0.3513  0.0596  0.2890
 2209SOL     OW 8880   1.797   0.253   4.576 -0.5154 -0.2186 -0.3638
 2209SOL    HW2 8881   1.711   0.277   4.608  0.1074  0.8474  0.5501
 2209SOL    HW3 8882   1.847   0.335   4.576  0.8443 -1.0207  0.2724
 2209SOL    MW4 8883   1.793   0.267   4.580 -0.2539 -0.1838 -0.1593
 2210SOL     OW 8884   1.575   3.852   3.900  0.1043  0.1790  0.4106
 2210SOL    HW2 8885   1.602   3.854   3.992 -1.7281  1.5686  0.9441
 2210SOL    HW3 8886   1.505   3.916   3.894  0.9458  0.9324 -2.2253
 2210SOL    MW4 8887   1.570   3.861   3.912 -0.0263  0.4616  0.1333
 2211SOL     OW 8888   2.721   1.939   4.183 -0.5229 -0.4182  0.3346
 2211SOL    HW2 8889   2.727   2.035   4.189 -1.1074 -0.4205  1.1275
 2211SOL    HW3 8890   2.810   1.908   4.198 -0.4426 -0.0191  0.7042
 2211SOL    MW4 8891   2.733   1.948   4.186 -0.5896 -0.3660  0.4883
 2212SOL     OW 8892   0.665   2.269   4.677 -0.0238  0.6057  0.1145
 2212SOL    HW2 8893   0.603   2.216   4.627  0.4063 -1.5096  1.7720
 2212SOL    HW3 8894   0.645   2.359   4.651 -0.0805 -0.3740 -3.5036
 2212SOL    MW4 8895   0.654   2.274   4.667  0.0255  0.1974 -0.1440
 2213SOL     OW 8896   0.917   0.139   3.785  0.1466  0.0856  0.2948
 2213SOL    HW2 8897   0.995   0.115   3.834  0.6819  0.6432 -0.2667
 2213SOL    HW3 8898   0.857   0.065   3.796  1.5542 -1.2925 -0.9852
 2213SOL    MW4 8899   0.919   0.126   3.793  0.4029 -0.0226  0.0517
 2214SOL     OW 8900   0.698   4.656   3.873 -0.1498 -0.2116 -0.3811
 2214SOL    HW2 8901   0.632   4.718   3.841  0.4229  1.2288  1.1337
 2214SOL    HW3 8902   0.662   4.569   3.852 -2.4131  0.5541  0.1612
 2214SOL    MW4 8903   0.684   4.652   3.866 -0.3729  0.0801 -0.1097
 2215SOL     OW 8904   1.168   0.486   3.821  0.4369 -0.3509 -0.3906
 2215SOL    HW2 8905   1.085   0.452   3.854  0.5840 -2.6008 -2.1886
 2215SOL    HW3 8906   1.235   0.438   3.870  0.6929  0.4968  0.1077
 2215SOL    MW4 8907   1.166   0.475   3.832  0.4901 -0.5359 -0.5622
 2216SOL     OW 8908   1.400   0.382   3.926  0.3135 -0.2373 -0.5529
 2216SOL    HW2 8909   1.472   0.436   3.893  1.1157 -1.5185 -0.9375
 2216SOL    HW3 8910   1.398   0.400   4.020  0.7200  0.2901 -0.6402
 2216SOL    MW4 8911   1.409   0.392   3.934  0.4730 -0.3368 -0.6151
 2217SOL     OW 8912   1.832   0.758   4.563  0.6106  0.0077  0.3662
 2217SOL    HW2 8913   1.899   0.826   4.567  0.7650 -0.1015 -0.2277
 2217SOL    HW3 8914   1.756   0.796   4.607  1.0974  0.0915  1.1426
 2217SOL    MW4 8915   1.831   0.772   4.569  0.6952  0.0044  0.3901
 2218SOL     OW 8916   0.661   0.736   3.923 -0.2796  0.2219  0.3170
 2218SOL    HW2 8917   0.741   0.777   3.891  0.6104 -1.4212  0.3847
 2218SOL    HW3 8918   0.654   0.764   4.014  0.2845  0.2712  0.3449
 2218SOL    MW4 8919   0.670   0.745   3.931 -0.0878  0.0116  0.3300
 2219SOL     OW 8920   0.881   0.876   3.840 -0.2114  0.1938  0.2168
 2219SOL    HW2 8921   0.965   0.850   3.876  0.3924  2.3302  0.4542
 2219SOL    HW3 8922   0.898   0.890   3.747 -0.8779 -1.6416 -0.2008
 2219SOL    MW4 8923   0.894   0.875   3.832 -0.2196  0.2335  0.1934
 2220SOL     OW 8924   1.157   1.481   3.887 -0.2091  0.4225 -0.0736
 2220SOL    HW2 8925   1.159   1.487   3.982 -1.6180  0.0774  0.0009
 2220SOL    HW3 8926   1.097   1.551   3.860  1.8936  1.9563 -0.8743
 2220SOL    MW4 8927   1.149   1.491   3.896 -0.1178  0.5792 -0.1695
 2221SOL     OW 8928   0.946   1.648   3.796  0.4003 -0.1308  0.3010
 2221SOL    HW2 8929   0.857   1.627   3.825  0.2705  1.2996  0.9479
 2221SOL    HW3 8930   0.939   1.652   3.701 -0.5437  1.3384  0.4159
 2221SOL    MW4 8931   0.933   1.646   3.787  0.2586  0.2518  0.4015
 2222SOL     OW 8932   0.792   4.181   4.573 -0.2277 -0.2843  0.2259
 2222SOL    HW2 8933   0.756   4.159   4.488  0.2724 -1.0293  0.2037
 2222SOL    HW3 8934   0.717   4.210   4.624 -0.4112  0.8789 -0.6918
 2222SOL    MW4 8935   0.777   4.182   4.569 -0.1859 -0.2294  0.1025
 2223SOL     OW 8936   0.206   1.567   4.218  0.1098 -0.1200  0.2159
 2223SOL    HW2 8937   0.187   1.657   4.243  0.6752 -0.7899  3.1948
 2223SOL    HW3 8938   0.132   1.517   4.251  0.7896 -1.0251  0.3780
 2223SOL    MW4 8939   0.194   1.572   4.225  0.2741 -0.3278  0.6304
 2224SOL     OW 8940   2.441   2.732   4.638  0.5246  0.3694 -0.1432
 2224SOL    HW2 8941   2.418   2.711   4.728  2.0152  1.0073  0.4085
 2224SOL    HW3 8942   2.448   2.647   4.594 -1.3680  0.1141  0.0383
 2224SOL    MW4 8943   2.439   2.718   4.644  0.4716  0.4201 -0.0467
 2225SOL     OW 8944   1.171   2.042   3.770  0.4022 -0.1954 -0.0147
 2225SOL    HW2 8945   1.167   2.135   3.790 -2.3366 -0.2315 -0.2210
 2225SOL    HW3 8946   1.167   2.037   3.675 -0.1154 -0.5394  0.0231
 2225SOL    MW4 8947   1.170   2.053   3.760 -0.0274 -0.2453 -0.0370
 2226SOL     OW 8948   2.430   4.591   4.619 -0.2136  0.6258 -0.1978
 2226SOL    HW2 8949   2.343   4.575   4.584 -1.1458  0.8743  1.9438
 2226SOL    HW3 8950   2.450   4.682   4.595 -0.7992  0.7568 -0.1924
 2226SOL    MW4 8951   2.421   4.601   4.611 -0.4139  0.6762  0.0858
 2227SOL     OW 8952   0.818   2.683   4.168 -0.2183 -0.0845  0.3385
 2227SOL    HW2 8953   0.901   2.666   4.212 -1.1874 -0.5334  1.9970
 2227SOL    HW3 8954   0.751   2.661   4.232 -1.6761 -1.7467 -1.6925
 2227SOL    MW4 8955   0.820   2.678   4.182 -0.5385 -0.3629  0.2894
 2228SOL     OW 8956   2.162   2.365   4.547 -0.2660  0.1259 -0.2982
 2228SOL    HW2 8957   2.250   2.401   4.557 -0.4875  0.5399  0.1854
 2228SOL    HW3 8958   2.161   2.325   4.460  0.4996 -0.1516 -0.1784
 2228SOL    MW4 8959   2.173   2.364   4.537 -0.1945  0.1440 -0.2184
 2229SOL     OW 8960   0.651   3.094   3.849  0.0611 -0.1936 -0.5992
 2229SOL    HW2 8961   0.727   3.131   3.803  0.5812 -0.8270 -0.2639
 2229SOL    HW3 8962   0.665   3.117   3.940 -0.1165 -0.3787 -0.5253
 2229SOL    MW4 8963   0.663   3.102   3.855  0.1063 -0.3018 -0.5453
 2230SOL     OW 8964   0.432   3.240   3.497 -0.0211 -0.0330 -0.1905
 2230SOL    HW2 8965   0.420   3.264   3.589 -0.7983 -1.2200  0.0233
 2230SOL    HW3 8966   0.352   3.194   3.473  0.5198 -0.4570 -1.2196
 2230SOL    MW4 8967   0.420   3.237   3.506 -0.0523 -0.2456 -0.2978
 2231SOL     OW 8968   0.640   3.610   3.805  0.0117 -0.4490  0.7616
 2231SOL    HW2 8969   0.651   3.695   3.848  0.7630 -0.8522  1.3730
 2231SOL    HW3 8970   0.648   3.629   3.711  1.2490 -0.0121  0.9591
 2231SOL    MW4 8971   0.642   3.624   3.798  0.2740 -0.4444  0.8683
 2232SOL     OW 8972   1.114   3.644   3.491  0.1409 -0.5302 -0.6224
 2232SOL    HW2 8973   1.121   3.636   3.586  1.3853 -0.1157 -0.6708
 2232SOL    HW3 8974   1.032   3.598   3.469 -0.4128 -0.1938  0.6921
 2232SOL    MW4 8975   1.104   3.637   3.500  0.2322 -0.4313 -0.4554
 2233SOL     OW 8976   2.676   2.945   4.296 -0.3649  0.2397 -0.3425
 2233SOL    HW2 8977   2.753   2.996   4.269  0.0707 -0.7259 -0.9509
 2233SOL    HW3 8978   2.604   2.980   4.243  0.3011 -1.0162 -2.1394
 2233SOL    MW4 8979   2.677   2.957   4.285 -0.2193 -0.0534 -0.6595
 2234SOL     OW 8980   0.873   4.005   3.786 -0.2495 -0.6007  0.2168
 2234SOL    HW2 8981   0.952   3.953   3.802  1.6532  1.9680 -0.5744
 2234SOL    HW3 8982   0.864   4.007   3.691 -0.8640 -0.2631  0.2763
 2234SOL    MW4 8983   0.882   3.998   3.776 -0.0795 -0.2177  0.1199
 2235SOL     OW 8984   0.869   4.284   3.877 -0.2082  0.1159 -0.7423
 2235SOL    HW2 8985   0.854   4.283   3.971  2.2885 -1.7357 -0.2998
 2235SOL    HW3 8986   0.856   4.193   3.849 -0.9142  0.6386 -2.1907
 2235SOL    MW4 8987   0.865   4.272   3.886  0.0281 -0.0601 -0.8750
 2236SOL     OW 8988   1.112   4.407   3.791 -0.4030  0.4771 -0.2691
 2236SOL    HW2 8989   1.136   4.371   3.705  0.7022 -0.5137  0.4325
 2236SOL    HW3 8990   1.025   4.373   3.808 -0.6276  0.6739 -0.9981
 2236SOL    MW4 8991   1.104   4.398   3.782 -0.2867  0.3715 -0.2728
 2237SOL     OW 8992   0.863   2.197   4.469 -0.1014 -0.2769 -0.1300
 2237SOL    HW2 8993   0.797   2.233   4.528 -0.0648  1.8050 -1.2885
 2237SOL    HW3 8994   0.942   2.247   4.488  0.5269 -1.1742 -0.3450
 2237SOL    MW4 8995   0.865   2.208   4.479 -0.0136 -0.1204 -0.3114
 2238SOL     OW 8996   1.568   4.607   3.863 -0.1859 -0.4151  0.3133
 2238SOL    HW2 8997   1.547   4.520   3.829 -0.2500 -0.4997  0.5674
 2238SOL    HW3 8998   1.501   4.664   3.826 -1.1973 -0.7811  1.5811
 2238SOL    MW4 8999   1.557   4.603   3.853 -0.3278 -0.4745  0.5143
 2239SOL     OW 9000   1.181   4.606   4.169  0.5164 -0.3251  0.4813
 2239SOL    HW2 9001   1.186   4.698   4.198  0.0835 -0.5096  1.1546
 2239SOL    HW3 9002   1.096   4.576   4.201  0.0110 -0.5312 -1.0205
 2239SOL    MW4 9003   1.170   4.614   4.177  0.3926 -0.3767  0.3719
 2240SOL     OW 9004   1.137   3.138   4.451  0.1637 -0.3115  0.1269
 2240SOL    HW2 9005   1.198   3.067   4.472 -0.2011 -0.1503  1.8476
 2240SOL    HW3 9006   1.168   3.212   4.502 -0.5523  0.2296 -0.2144
 2240SOL    MW4 9007   1.149   3.138   4.461  0.0211 -0.2189  0.3090
 2241SOL     OW 9008   1.602   0.790   3.918 -0.1417 -0.3080 -0.0864
 2241SOL    HW2 9009   1.517   0.814   3.880  0.0562  0.6291  0.0746
 2241SOL    HW3 9010   1.666   0.836   3.865  0.1382  1.0578  1.4271
 2241SOL    MW4 9011   1.599   0.799   3.906 -0.0788 -0.0041  0.1345
 2242SOL     OW 9012   1.346   0.862   3.788  0.2720  0.2013 -0.2844
 2242SOL    HW2 9013   1.347   0.950   3.826  0.1079  0.2187 -0.3187
 2242SOL    HW3 9014   1.272   0.818   3.831  0.6930 -0.0998  0.1347
 2242SOL    MW4 9015   1.336   0.868   3.798  0.3060  0.1640 -0.2337
 2243SOL     OW 9016   1.100   1.243   3.772  0.7275 -0.2377  0.1201
 2243SOL    HW2 9017   1.121   1.329   3.808 -2.8659  1.2231 -1.0464
 2243SOL    HW3 9018   1.037   1.205   3.834  1.5139 -1.5993  0.1056
 2243SOL    MW4 9019   1.094   1.249   3.785  0.3572 -0.2246 -0.0358
 2244SOL     OW 9020   1.555   1.230   3.790  0.0286 -0.0891 -0.2070
 2244SOL    HW2 9021   1.633   1.184   3.823  0.5103  1.0167  0.2257
 2244SOL    HW3 9022   1.563   1.319   3.825 -1.5813 -0.0382  0.0625
 2244SOL    MW4 9023   1.567   1.236   3.799 -0.1204  0.0634 -0.1142
 2245SOL     OW 9024   1.785   1.636   3.824 -0.2789  0.3769  0.1841
 2245SOL    HW2 9025   1.872   1.599   3.841 -0.2584  0.8472  1.1565
 2245SOL    HW3 9026   1.769   1.620   3.731  0.7364  0.0472  0.0658
 2245SOL    MW4 9027   1.794   1.629   3.814 -0.1422  0.3954  0.2966
 2246SOL     OW 9028   1.370   1.627   3.794  0.4395  0.1069  0.1906
 2246SOL    HW2 9029   1.296   1.574   3.824  0.4405  0.1176  0.2126
 2246SOL    HW3 9030   1.446   1.571   3.805  0.4697  0.1967  0.4387
 2246SOL    MW4 9031   1.370   1.613   3.800  0.4436  0.1202  0.2263
 2247SOL     OW 9032   2.929   3.858   4.206 -0.1308 -0.3291 -0.1630
 2247SOL    HW2 9033   2.844   3.813   4.212  0.0209 -0.5573  0.2679
 2247SOL    HW3 9034   2.930   3.893   4.117 -0.7526 -0.1780 -0.1147
 2247SOL    MW4 9035   2.918   3.856   4.195 -0.1926 -0.3395 -0.0992
 2248SOL     OW 9036   1.599   2.051   3.823  0.4416  0.1614  0.4922
 2248SOL    HW2 9037   1.529   1.991   3.846  0.4439 -0.3557 -0.7926
 2248SOL    HW3 9038   1.593   2.060   3.728  1.3396  1.0722  0.5031
 2248SOL    MW4 9039   1.589   2.044   3.813  0.5604  0.2134  0.3240
 2249SOL     OW 9040   0.255   3.060   3.909  0.3223  0.7946  0.1641
 2249SOL    HW2 9041   0.247   2.982   3.853 -0.0243  0.3799  0.7778
 2249SOL    HW3 9042   0.306   3.122   3.857  1.1439 -0.0804 -0.0811
 2249SOL    MW4 9043   0.260   3.058   3.894  0.3850  0.6247  0.2124
 2250SOL     OW 9044   1.954   4.616   4.143 -0.2794 -0.0475  0.4828
 2250SOL    HW2 9045   1.949   4.706   4.176  1.4875 -0.0185  0.7342
 2250SOL    HW3 9046   1.972   4.627   4.049  0.0366 -0.1398  0.5332
 2250SOL    MW4 9047   1.955   4.630   4.135 -0.0044 -0.0558  0.5221
 2251SOL     OW 9048   1.093   2.604   4.241 -0.1584  0.0100  0.3167
 2251SOL    HW2 9049   1.085   2.514   4.209 -1.0929  1.0172 -2.3747
 2251SOL    HW3 9050   1.180   2.631   4.212  0.2589 -0.1335  1.4262
 2251SOL    MW4 9051   1.104   2.596   4.233 -0.2267  0.1240  0.1073
 2252SOL     OW 9052   1.813   2.733   3.908 -0.2976 -0.5683  0.2342
 2252SOL    HW2 9053   1.781   2.709   3.995 -1.5197  1.7143  0.4474
 2252SOL    HW3 9054   1.739   2.778   3.867  0.6934 -0.4983 -1.5173
 2252SOL    MW4 9055   1.799   2.736   3.914 -0.3281 -0.2580  0.0315
 2253SOL     OW 9056   3.685   3.197   4.996 -0.0504  0.3262  0.0375
 2253SOL    HW2 9057   3.741   3.227   5.068 -0.9343  1.6779  0.1661
 2253SOL    HW3 9058   3.607   3.252   5.001 -1.1533 -1.1709 -0.4914
 2253SOL    MW4 9059   3.682   3.208   5.006 -0.3123  0.3071 -0.0148
 2254SOL     OW 9060   4.111   2.930   4.500 -0.5095 -0.0617 -0.5634
 2254SOL    HW2 9061   4.096   2.960   4.410  0.5023  0.4442 -0.5691
 2254SOL    HW3 9062   4.194   2.883   4.497  0.5171  1.5950  0.4566
 2254SOL    MW4 9063   4.120   2.928   4.488 -0.2403  0.2239 -0.4296
 2255SOL     OW 9064   0.646   2.556   4.600  0.0744 -0.1720 -0.4607
 2255SOL    HW2 9065   0.718   2.601   4.557  0.5758  0.6681  1.1851
 2255SOL    HW3 9066   0.635   2.603   4.683 -0.2417 -2.2710  0.7311
 2255SOL    MW4 9067   0.654   2.568   4.606  0.0989 -0.3381 -0.0858
 2256SOL     OW 9068   1.105   1.790   4.258 -0.0556 -0.4565  0.4422
 2256SOL    HW2 9069   1.033   1.843   4.224 -1.0460 -1.1941  1.3342
 2256SOL    HW3 9070   1.184   1.837   4.233 -0.9081  1.5421  1.3680
 2256SOL    MW4 9071   1.106   1.803   4.250 -0.2987 -0.2900  0.6824
 2257SOL     OW 9072   4.069   0.311   4.233 -0.9107 -0.1177 -0.0564
 2257SOL    HW2 9073   4.152   0.265   4.224 -1.2820 -0.7076 -0.4817
 2257SOL    HW3 9074   4.092   0.394   4.275 -0.3111 -0.9444  1.3142
 2257SOL    MW4 9075   4.083   0.316   4.238 -0.8807 -0.3045  0.0682
 2258SOL     OW 9076   1.349   4.001   3.816 -0.2448  0.0064  0.0516
 2258SOL    HW2 9077   1.332   4.090   3.846  1.0508  0.5901 -0.8824
 2258SOL    HW3 9078   1.358   4.009   3.721  0.0883 -1.0856 -0.0160
 2258SOL    MW4 9079   1.348   4.014   3.807 -0.0299 -0.0610 -0.0806
 2259SOL     OW 9080   1.311   4.262   3.909  0.4056  0.0880 -0.0234
 2259SOL    HW2 9081   1.239   4.311   3.871  0.5069  0.1887 -0.0860
 2259SOL    HW3 9082   1.389   4.295   3.864  0.3324 -1.1064 -1.0398
 2259SOL    MW4 9083   1.312   4.273   3.898  0.4094 -0.0563 -0.1659
 2260SOL     OW 9084   1.526   4.356   3.787  0.0205  0.1775 -0.0718
 2260SOL    HW2 9085   1.597   4.315   3.837 -0.3796  0.6308  0.8782
 2260SOL    HW3 9086   1.555   4.352   3.696  1.5175  0.8443  0.3643
 2260SOL    MW4 9087   1.539   4.350   3.781  0.1652  0.3257  0.1109
 2261SOL     OW 9088   3.217   4.294   4.911  0.8201  0.3868  0.3629
 2261SOL    HW2 9089   3.275   4.228   4.873  1.2136  1.4660 -0.9635
 2261SOL    HW3 9090   3.264   4.377   4.899 -1.2857  1.3792 -1.3908
 2261SOL    MW4 9091   3.231   4.296   4.905  0.5944  0.6599 -0.0434
 2262SOL     OW 9092   0.396   1.887   4.192  0.0964 -0.0970 -0.0203
 2262SOL    HW2 9093   0.374   1.908   4.101  0.3616 -1.5326 -0.4279
 2262SOL    HW3 9094   0.487   1.856   4.188  0.3346  0.4976  0.8323
 2262SOL    MW4 9095   0.405   1.886   4.179  0.1628 -0.2080  0.0381
 2263SOL     OW 9096   1.821   0.380   3.914  0.1506  0.3663 -0.3081
 2263SOL    HW2 9097   1.820   0.388   4.010  1.2153  2.0519 -0.4187
 2263SOL    HW3 9098   1.788   0.292   3.897 -0.0363  0.0459  1.6164
 2263SOL    MW4 9099   1.817   0.370   3.925  0.2664  0.5465 -0.0689
 2264SOL     OW 9100   2.284   0.313   3.934 -0.4020 -0.0591 -0.5603
 2264SOL    HW2 9101   2.269   0.235   3.881 -0.8969 -0.8026  0.6648
 2264SOL    HW3 9102   2.214   0.373   3.907 -1.2307 -0.7966 -0.0801
 2264SOL    MW4 9103   2.273   0.311   3.923 -0.5767 -0.2545 -0.3355
 2265SOL     OW 9104   1.814   0.875   3.759 -0.3265  0.0762  0.0355
 2265SOL    HW2 9105   1.889   0.827   3.794  1.1101  0.7209 -2.0801
 2265SOL    HW3 9106   1.823   0.869   3.664 -2.3283  1.1470 -0.2488
 2265SOL    MW4 9107   1.825   0.868   3.751 -0.4010  0.3026 -0.2811
 2266SOL     OW 9108   1.817   0.867   3.486  0.2704 -0.4558 -0.0177
 2266SOL    HW2 9109   1.900   0.831   3.455 -0.6231 -0.8565 -2.0194
 2266SOL    HW3 9110   1.750   0.810   3.450 -0.8897 -0.5264  2.1091
 2266SOL    MW4 9111   1.819   0.855   3.477 -0.0005 -0.5179 -0.0010
 2267SOL     OW 9112   2.003   1.219   4.658  0.4398  0.2514  0.1173
 2267SOL    HW2 9113   1.929   1.264   4.618  0.5222  1.6420  1.4870
 2267SOL    HW3 9114   1.996   1.238   4.751  1.3973 -1.2705  0.5298
 2267SOL    MW4 9115   1.993   1.227   4.665  0.5769  0.2340  0.3529
 2268SOL     OW 9116   2.027   1.227   3.789 -0.3919 -0.5301 -0.0198
 2268SOL    HW2 9117   1.946   1.205   3.837 -0.4023 -0.9010 -0.2074
 2268SOL    HW3 9118   2.097   1.192   3.843 -0.3569 -0.2675  0.1092
 2268SOL    MW4 9119   2.025   1.220   3.803 -0.3886 -0.5445 -0.0277
 2269SOL     OW 9120   2.439   1.524   3.869  0.2217 -0.3135  0.0332
 2269SOL    HW2 9121   2.507   1.586   3.843  0.0541  1.0894  2.8225
 2269SOL    HW3 9122   2.357   1.569   3.848  0.0812  0.9120  3.0492
 2269SOL    MW4 9123   2.437   1.538   3.863  0.1810  0.0333  0.7989
 2270SOL     OW 9124   1.817   1.611   3.549  0.0407  0.0429  0.0656
 2270SOL    HW2 9125   1.827   1.705   3.541  0.0833  0.0331 -0.0054
 2270SOL    HW3 9126   1.742   1.590   3.494  0.5550 -0.0717 -0.6049
 2270SOL    MW4 9127   1.809   1.620   3.540  0.1141  0.0266 -0.0319
 2271SOL     OW 9128   1.825   1.919   3.906 -0.2107  0.4272 -0.1312
 2271SOL    HW2 9129   1.811   1.827   3.883  1.1585  0.2038 -0.0984
 2271SOL    HW3 9130   1.742   1.962   3.883 -0.6649 -0.7063 -0.6645
 2271SOL    MW4 9131   1.812   1.912   3.900 -0.0900  0.2481 -0.1972
 2272SOL     OW 9132   2.018   2.345   3.899  0.0298  0.4795  0.6828
 2272SOL    HW2 9133   2.009   2.256   3.865 -1.1263 -0.6216  3.7319
 2272SOL    HW3 9134   1.940   2.391   3.868  0.6638  0.4793 -0.9564
 2272SOL    MW4 9135   2.007   2.339   3.890 -0.0391  0.3340  0.8688
 2273SOL     OW 9136   1.777   2.455   3.792 -0.1695 -0.1507 -0.2440
 2273SOL    HW2 9137   1.788   2.546   3.819 -2.4104 -0.0574  0.3779
 2273SOL    HW3 9138   1.771   2.458   3.697 -0.2166  0.3251 -0.2229
 2273SOL    MW4 9139   1.778   2.467   3.783 -0.4715 -0.0758 -0.1593
 2274SOL     OW 9140   4.266   1.157   4.476  0.1304 -0.5313 -0.0039
 2274SOL    HW2 9141   4.330   1.147   4.405 -0.1710 -0.0359 -0.3434
 2274SOL    HW3 9142   4.251   1.251   4.482 -0.8104 -0.6748 -0.1313
 2274SOL    MW4 9143   4.273   1.168   4.468 -0.0339 -0.4849 -0.0653
 2275SOL     OW 9144   3.823   0.253   4.350 -0.1821 -0.2714 -0.2000
 2275SOL    HW2 9145   3.764   0.299   4.290 -0.5740  0.8594  1.0321
 2275SOL    HW3 9146   3.911   0.283   4.324 -0.2955 -0.3874 -0.7166
 2275SOL    MW4 9147   3.827   0.263   4.339 -0.2487 -0.1375 -0.1059
 2276SOL     OW 9148   2.010   3.127   3.835  0.3225 -0.4079 -0.1413
 2276SOL    HW2 9149   2.094   3.148   3.794 -0.1576  0.3173 -0.7714
 2276SOL    HW3 9150   1.991   3.037   3.806  0.6168 -0.3702 -0.4551
 2276SOL    MW4 9151   2.019   3.118   3.826  0.2980 -0.3076 -0.2656
 2277SOL     OW 9152   1.541   3.592   3.771 -0.5157 -0.6002  0.4866
 2277SOL    HW2 9153   1.549   3.676   3.816 -0.7318 -1.1137  1.4925
 2277SOL    HW3 9154   1.614   3.540   3.804 -0.7090 -0.9991  0.2823
 2277SOL    MW4 9155   1.552   3.596   3.781 -0.5697 -0.7205  0.5922
 2278SOL     OW 9156   1.562   3.110   3.860  0.2546  0.1556 -0.1067
 2278SOL    HW2 9157   1.561   3.096   3.955 -1.8375 -1.5436 -0.3468
 2278SOL    HW3 9158   1.575   3.022   3.824 -0.6075  0.5580 -1.4154
 2278SOL    MW4 9159   1.564   3.097   3.868 -0.1351 -0.0153 -0.3109
 2279SOL     OW 9160   1.255   3.704   4.535 -0.0688  0.2990 -0.4506
 2279SOL    HW2 9161   1.205   3.786   4.523  0.0053  0.6076  1.2128
 2279SOL    HW3 9162   1.340   3.733   4.567  0.4463 -0.3543 -1.2426
 2279SOL    MW4 9163   1.259   3.719   4.538  0.0089  0.2537 -0.3352
 2280SOL     OW 9164   1.527   3.320   4.242 -0.1464  0.1111  0.0424
 2280SOL    HW2 9165   1.600   3.381   4.230  0.1656 -0.3775 -0.5974
 2280SOL    HW3 9166   1.489   3.343   4.327  0.1361  1.0163 -0.0718
 2280SOL    MW4 9167   1.531   3.331   4.251 -0.0679  0.1659 -0.0563
 2281SOL     OW 9168   2.937   3.916   3.918  0.1771  0.1580  0.3577
 2281SOL    HW2 9169   2.941   3.827   3.884  0.9860 -0.5504  2.2415
 2281SOL    HW3 9170   3.009   3.961   3.875  1.5235 -0.8674  1.4979
 2281SOL    MW4 9171   2.947   3.910   3.908  0.4611 -0.0708  0.7567
 2282SOL     OW 9172   1.763   3.989   3.773 -0.1852  0.4044  0.2942
 2282SOL    HW2 9173   1.842   3.960   3.818  0.0830  0.4541 -0.1392
 2282SOL    HW3 9174   1.694   3.930   3.803  0.6714 -1.7163 -1.7817
 2282SOL    MW4 9175   1.764   3.978   3.783 -0.0367  0.1311 -0.0370
 2283SOL     OW 9176   1.749   4.232   3.911  0.0555 -0.0344  0.1243
 2283SOL    HW2 9177   1.813   4.289   3.867 -0.0922 -0.4389 -0.6275
 2283SOL    HW3 9178   1.766   4.145   3.875 -1.2438 -0.0630 -0.4625
 2283SOL    MW4 9179   1.760   4.228   3.900 -0.1354 -0.0916 -0.0525
 2284SOL     OW 9180   1.968   4.366   3.776 -0.6890 -0.0542 -0.1355
 2284SOL    HW2 9181   2.043   4.319   3.814 -1.1140 -0.7950 -0.1962
 2284SOL    HW3 9182   1.994   4.381   3.685 -1.2524 -1.7306 -0.5968
 2284SOL    MW4 9183   1.982   4.362   3.769 -0.8194 -0.3729 -0.2043
 2285SOL     OW 9184   2.463   4.593   3.884  0.1634  0.0404 -0.4976
 2285SOL    HW2 9185   2.491   4.600   3.975  0.0418 -1.4627 -0.3404
 2285SOL    HW3 9186   2.530   4.641   3.835  0.0461  1.1412  0.4051
 2285SOL    MW4 9187   2.475   4.600   3.889  0.1321 -0.0134 -0.3576
 2286SOL     OW 9188   2.245   0.067   3.800 -0.7686  0.3633  0.1265
 2286SOL    HW2 9189   2.320   0.012   3.824 -2.0757 -1.6484 -0.2703
 2286SOL    HW3 9190   2.261   0.091   3.709 -0.0485  0.9057  0.3890
 2286SOL    MW4 9191   2.257   0.063   3.791 -0.8461  0.1695  0.1087
 2287SOL     OW 9192   2.453   0.496   3.796  0.0530  0.7647 -0.7830
 2287SOL    HW2 9193   2.453   0.492   3.700 -1.2129 -0.0423 -0.7631
 2287SOL    HW3 9194   2.392   0.427   3.822  2.1328 -0.5831  0.6670
 2287SOL    MW4 9195   2.445   0.486   3.787  0.1602  0.4804 -0.5891
 2288SOL     OW 9196   2.690   0.343   3.896  0.2109 -0.2063  0.5623
 2288SOL    HW2 9197   2.678   0.253   3.865  1.8773 -1.0972  2.4175
 2288SOL    HW3 9198   2.612   0.389   3.866 -0.4673 -2.1685 -0.7758
 2288SOL    MW4 9199   2.678   0.337   3.888  0.3414 -0.5827  0.6304
 2289SOL     OW 9200   4.490   0.375   3.855  0.1507 -0.0923  0.3961
 2289SOL    HW2 9201   4.410   0.427   3.850  0.2112 -0.1385 -1.7924
 2289SOL    HW3 9202   4.559   0.434   3.824  0.2620 -1.3466 -1.8534
 2289SOL    MW4 9203   4.489   0.390   3.850  0.1736 -0.2639 -0.1895
 2290SOL     OW 9204   2.254   0.849   3.809 -0.2127 -0.1107  0.0103
 2290SOL    HW2 9205   2.173   0.798   3.807  0.0985 -0.6450  0.8878
 2290SOL    HW3 9206   2.275   0.864   3.717 -0.5185 -1.2257 -0.2424
 2290SOL    MW4 9207   2.246   0.844   3.797 -0.2120 -0.3284  0.0930
 2291SOL     OW 9208   2.226   1.107   3.929  0.2918 -0.2196 -0.4341
 2291SOL    HW2 9209   2.235   1.019   3.893  1.3943  0.3940 -1.6777
 2291SOL    HW3 9210   2.232   1.094   4.024  0.2198 -1.5052 -0.5901
 2291SOL    MW4 9211   2.228   1.094   3.937  0.4275 -0.3084 -0.6189
 2292SOL     OW 9212   2.466   1.253   3.810 -0.1432  0.0548  0.2025
 2292SOL    HW2 9213   2.475   1.348   3.823 -0.6692  0.1731 -0.2578
 2292SOL    HW3 9214   2.387   1.230   3.860 -0.0135 -0.1395  0.3162
 2292SOL    MW4 9215   2.456   1.263   3.818 -0.1955  0.0448  0.1566
 2293SOL     OW 9216   0.171   4.262   4.549 -0.1925  0.0737  0.0400
 2293SOL    HW2 9217   0.092   4.209   4.559  0.1975 -0.3508  1.0213
 2293SOL    HW3 9218   0.139   4.352   4.542 -0.7166  0.1111  2.2817
 2293SOL    MW4 9219   0.156   4.267   4.550 -0.2102  0.0224  0.4649
 2294SOL     OW 9220   2.838   0.121   4.541  0.3382  0.4900 -0.1104
 2294SOL    HW2 9221   2.902   0.136   4.611  0.3408  1.1981 -0.2682
 2294SOL    HW3 9222   2.887   0.134   4.460  0.1701  0.3201 -0.2399
 2294SOL    MW4 9223   2.853   0.124   4.540  0.3166  0.5610 -0.1483
 2295SOL     OW 9224   3.854   0.113   5.035  0.2432  0.0895 -0.4628
 2295SOL    HW2 9225   3.914   0.038   5.029 -0.8186 -0.8708  0.5220
 2295SOL    HW3 9226   3.769   0.077   5.010 -0.5489  0.6188  1.3863
 2295SOL    MW4 9227   3.850   0.098   5.031 -0.0012  0.0326 -0.0887
 2296SOL     OW 9228   2.467   2.041   3.793  0.1469 -0.5924  0.1306
 2296SOL    HW2 9229   2.483   2.130   3.822 -1.3345 -0.7351  1.4140
 2296SOL    HW3 9230   2.542   1.991   3.827  0.5731  0.0091  0.0791
 2296SOL    MW4 9231   2.479   2.046   3.801  0.0079 -0.5319  0.2933
 2297SOL     OW 9232   1.539   2.335   4.219  0.1923 -0.7755 -0.4870
 2297SOL    HW2 9233   1.619   2.295   4.254 -1.2192 -2.9378  0.4173
 2297SOL    HW3 9234   1.559   2.352   4.127  1.8531 -0.8038 -0.1531
 2297SOL    MW4 9235   1.552   2.332   4.212  0.2252 -1.0648 -0.3242
 2298SOL     OW 9236   2.242   2.467   3.805 -0.0859  0.1950 -0.1114
 2298SOL    HW2 9237   2.185   2.401   3.845 -1.5444  1.6265  0.2692
 2298SOL    HW3 9238   2.230   2.455   3.711 -0.3584 -0.0908 -0.0414
 2298SOL    MW4 9239   2.233   2.457   3.798 -0.3145  0.3462 -0.0522
 2299SOL     OW 9240   0.622   3.127   4.147 -0.3002  0.6937  0.1375
 2299SOL    HW2 9241   0.612   3.216   4.180  0.5308  0.8508 -0.0148
 2299SOL    HW3 9242   0.534   3.091   4.149 -0.6870  1.6101 -0.0650
 2299SOL    MW4 9243   0.609   3.134   4.152 -0.2416  0.8354  0.0906
 2300SOL     OW 9244   2.497   3.110   3.882  0.0207 -0.0579 -0.6545
 2300SOL    HW2 9245   2.487   3.022   3.845 -1.6909  0.7337 -2.1782
 2300SOL    HW3 9246   2.488   3.098   3.976 -1.3345 -1.3646 -0.9377
 2300SOL    MW4 9247   2.495   3.097   3.889 -0.3839 -0.1256 -0.8926
 2301SOL     OW 9248   4.242   3.398   4.285  0.0099 -0.4964  0.3685
 2301SOL    HW2 9249   4.245   3.407   4.380  0.6430 -1.2494  0.4272
 2301SOL    HW3 9250   4.261   3.305   4.269 -0.4626 -0.4576 -0.4716
 2301SOL    MW4 9251   4.245   3.387   4.295  0.0310 -0.5901  0.2651
 2302SOL     OW 9252   2.291   3.221   3.758 -0.2451 -0.1976 -0.3236
 2302SOL    HW2 9253   2.361   3.168   3.795  0.4128 -0.1583 -1.4959
 2302SOL    HW3 9254   2.279   3.293   3.821  2.5425  1.2423 -1.3408
 2302SOL    MW4 9255   2.298   3.224   3.771  0.2098 -0.0026 -0.6125
 2303SOL     OW 9256   2.440   3.868   4.174 -0.0658  0.3303 -0.0063
 2303SOL    HW2 9257   2.369   3.818   4.214  1.4486 -0.4622  1.7624
 2303SOL    HW3 9258   2.428   3.856   4.080 -1.7391 -0.5335  0.3023
 2303SOL    MW4 9259   2.429   3.860   4.167 -0.0870  0.1116  0.2670
 2304SOL     OW 9260   2.449   3.595   3.774  0.4894 -0.0538 -0.0258
 2304SOL    HW2 9261   2.456   3.590   3.679  0.1093 -0.0390 -0.0533
 2304SOL    HW3 9262   2.536   3.570   3.806 -0.1924 -2.9148 -0.2756
 2304SOL    MW4 9263   2.461   3.591   3.766  0.3490 -0.4294 -0.0625
 2305SOL     OW 9264   1.767   3.515   3.910 -0.2620 -0.1969  0.0130
 2305SOL    HW2 9265   1.782   3.427   3.876  1.3062 -0.0703  0.3669
 2305SOL    HW3 9266   1.844   3.565   3.884 -1.7391  1.4622 -1.4046
 2305SOL    MW4 9267   1.779   3.510   3.902 -0.2501  0.0386 -0.1271
 2306SOL     OW 9268   2.442   3.834   3.901  0.3222  0.4045  0.3840
 2306SOL    HW2 9269   2.437   3.745   3.867 -1.7121 -0.0084  1.6515
 2306SOL    HW3 9270   2.521   3.871   3.862 -0.0345 -1.2016 -1.9231
 2306SOL    MW4 9271   2.452   3.827   3.892  0.0067  0.1385  0.2470
 2307SOL     OW 9272   2.221   3.975   3.798  0.4862 -0.1053 -0.0203
 2307SOL    HW2 9273   2.295   3.937   3.846 -0.0273 -0.6819  0.3147
 2307SOL    HW3 9274   2.256   3.991   3.711  1.3285  0.6355  0.4381
 2307SOL    MW4 9275   2.235   3.972   3.793  0.5295 -0.0837  0.0844
 2308SOL     OW 9276   2.465   4.321   3.828 -0.3403  0.2259 -0.8373
 2308SOL    HW2 9277   2.550   4.302   3.868 -0.5156 -0.9629 -1.0049
 2308SOL    HW3 9278   2.447   4.413   3.850 -0.0448 -0.1689  1.0932
 2308SOL    MW4 9279   2.474   4.331   3.836 -0.3245  0.0167 -0.6049
 2309SOL     OW 9280   2.878   4.635   3.867  0.2467 -0.1686  0.1118
 2309SOL    HW2 9281   2.881   4.627   3.962  1.1248 -0.3043  0.0772
 2309SOL    HW3 9282   2.960   4.679   3.844 -1.3593  2.8123 -0.2966
 2309SOL    MW4 9283   2.889   4.640   3.877  0.1507  0.2065  0.0534
 2310SOL     OW 9284   2.641   0.096   3.791  0.6040  0.4444  0.2341
 2310SOL    HW2 9285   2.715   0.051   3.831 -0.2929 -2.1150 -0.8612
 2310SOL    HW3 9286   2.670   0.116   3.702 -0.2951 -1.4242 -0.5131
 2310SOL    MW4 9287   2.654   0.093   3.785  0.3672 -0.1398 -0.0091
 2311SOL     OW 9288   4.044   2.750   3.896 -0.6204  0.0580  0.2524
 2311SOL    HW2 9289   4.046   2.742   3.992 -0.5029 -0.7594  0.1896
 2311SOL    HW3 9290   3.957   2.785   3.877 -0.6968  0.0921  0.6552
 2311SOL    MW4 9291   4.033   2.753   3.906 -0.6151 -0.0451  0.2973
 2312SOL     OW 9292   2.914   0.463   3.793 -0.3427  0.1639 -0.2948
 2312SOL    HW2 9293   2.990   0.410   3.817  0.6090  1.7531  0.3071
 2312SOL    HW3 9294   2.841   0.423   3.840  0.4209 -0.4288  0.4002
 2312SOL    MW4 9295   2.914   0.451   3.802 -0.1163  0.2953 -0.1237
 2313SOL     OW 9296   4.012   2.118   4.360  0.6865 -0.4279  0.1316
 2313SOL    HW2 9297   4.042   2.054   4.296  2.7291  0.0257  0.6033
 2313SOL    HW3 9298   4.064   2.100   4.439  0.6224  1.2040  0.5660
 2313SOL    MW4 9299   4.023   2.107   4.362  0.9475 -0.1526  0.2508
 2314SOL     OW 9300   2.959   0.756   3.845 -0.3258 -0.2922  0.3184
 2314SOL    HW2 9301   3.046   0.797   3.844 -1.2425  1.7132 -1.7051
 2314SOL    HW3 9302   2.971   0.673   3.800  0.1528  0.8977 -1.7951
 2314SOL    MW4 9303   2.972   0.750   3.839 -0.3834  0.1295 -0.2275
 2315SOL     OW 9304   3.771   0.767   4.659  0.0224 -0.4793  0.0040
 2315SOL    HW2 9305   3.841   0.704   4.676  0.3664 -0.5991 -1.7841
 2315SOL    HW3 9306   3.696   0.715   4.632 -0.7371 -0.3414  1.8222
 2315SOL    MW4 9307   3.771   0.752   4.658 -0.0327 -0.4769  0.0086
 2316SOL     OW 9308   3.152   1.670   3.824 -0.1726 -0.0808  0.6582
 2316SOL    HW2 9309   3.231   1.625   3.854  1.5791  2.0969 -0.5301
 2316SOL    HW3 9310   3.157   1.665   3.728 -0.8426  1.1302  0.5538
 2316SOL    MW4 9311   3.163   1.663   3.815 -0.0300  0.3663  0.4876
 2317SOL     OW 9312   2.910   1.566   3.912 -0.2029  0.0703  0.4957
 2317SOL    HW2 9313   2.914   1.476   3.879  0.1981 -0.3750  1.7387
 2317SOL    HW3 9314   2.993   1.605   3.885 -0.6636  0.2755 -0.6308
 2317SOL    MW4 9315   2.921   1.559   3.904 -0.2108  0.0386  0.5109
 2318SOL     OW 9316   2.668   1.663   3.817  0.6674  0.6039  0.1306
 2318SOL    HW2 9317   2.734   1.613   3.864 -0.5197 -1.5152 -0.3818
 2318SOL    HW3 9318   2.685   1.644   3.724  0.1855  1.1123 -0.0695
 2318SOL    MW4 9319   2.679   1.654   3.811  0.4470  0.3915  0.0365
 2319SOL     OW 9320   2.677   1.918   3.907  0.2393 -0.0637 -0.3183
 2319SOL    HW2 9321   2.680   1.826   3.882  3.3562 -0.1477  0.1398
 2319SOL    HW3 9322   2.673   1.917   4.003 -0.4477  0.2640 -0.3449
 2319SOL    MW4 9323   2.677   1.906   3.917  0.5600 -0.0315 -0.2615
 2320SOL     OW 9324   2.897   2.061   3.803  0.4163 -0.1632 -0.1084
 2320SOL    HW2 9325   2.981   2.018   3.822  0.2887 -0.6096 -0.5405
 2320SOL    HW3 9326   2.831   2.001   3.839  0.2868  0.2424  0.3332
 2320SOL    MW4 9327   2.899   2.047   3.810  0.3824 -0.1688 -0.1073
 2321SOL     OW 9328   2.880   2.339   3.867 -0.3503 -0.0246 -0.6410
 2321SOL    HW2 9329   2.866   2.246   3.852 -0.8650  0.1326 -1.1515
 2321SOL    HW3 9330   2.965   2.357   3.826  1.0672 -0.8218  1.8268
 2321SOL    MW4 9331   2.890   2.329   3.860 -0.2313 -0.1090 -0.3829
 2322SOL     OW 9332   2.660   2.475   3.743  0.2455  0.3947  0.1604
 2322SOL    HW2 9333   2.597   2.419   3.787 -0.8526  0.9424 -0.6902
 2322SOL    HW3 9334   2.744   2.430   3.754 -0.6441 -1.5152 -0.6629
 2322SOL    MW4 9335   2.663   2.462   3.750 -0.0167  0.2148 -0.0603
 2323SOL     OW 9336   2.460   2.867   3.755  0.1723 -0.2888  0.1411
 2323SOL    HW2 9337   2.383   2.815   3.779 -1.0621  1.4435  0.0432
 2323SOL    HW3 9338   2.475   2.848   3.662 -0.3475 -0.3603  0.0727
 2323SOL    MW4 9339   2.452   2.857   3.746 -0.0591 -0.0694  0.1192
 2324SOL     OW 9340   2.909   2.841   3.780 -0.3587  0.4793  0.0589
 2324SOL    HW2 9341   2.900   2.926   3.822 -1.9417  0.9067 -1.1213
 2324SOL    HW3 9342   2.836   2.789   3.814 -0.3911  0.1404 -0.5184
 2324SOL    MW4 9343   2.898   2.845   3.790 -0.5720  0.4909 -0.1729
 2325SOL     OW 9344   0.829   1.523   4.573  0.3216 -0.3147  0.1733
 2325SOL    HW2 9345   0.759   1.477   4.620 -0.8002  1.2888  0.1341
 2325SOL    HW3 9346   0.829   1.485   4.486 -0.3137 -0.5227  0.2617
 2325SOL    MW4 9347   0.820   1.512   4.568  0.0897 -0.1307  0.1798
 2326SOL     OW 9348   2.708   3.240   3.748  0.0525  0.1789 -0.2002
 2326SOL    HW2 9349   2.709   3.328   3.786  0.8233 -1.0278  2.7888
 2326SOL    HW3 9350   2.637   3.195   3.794 -0.3831 -0.7555 -1.7452
 2326SOL    MW4 9351   2.699   3.246   3.759  0.0963 -0.1037 -0.0095
 2327SOL     OW 9352   3.457   3.347   4.996  0.4841  0.9179  0.6607
 2327SOL    HW2 9353   3.417   3.426   5.032  1.7524  1.5323  0.7434
 2327SOL    HW3 9354   3.479   3.371   4.906 -0.9648 -0.0066  0.0355
 2327SOL    MW4 9355   3.454   3.361   4.989  0.4604  0.8771  0.5889
 2328SOL     OW 9356   2.910   3.669   3.798  0.0388 -0.1345 -0.0604
 2328SOL    HW2 9357   2.983   3.613   3.823 -0.0166  0.0287  0.4686
 2328SOL    HW3 9358   2.902   3.657   3.703  0.5137 -0.4339 -0.0638
 2328SOL    MW4 9359   2.918   3.660   3.788  0.0942 -0.1526  0.0088
 2329SOL     OW 9360   2.687   3.991   3.831  0.3367 -0.1699  0.3546
 2329SOL    HW2 9361   2.771   3.947   3.843  0.7771  0.5676 -0.0411
 2329SOL    HW3 9362   2.694   4.071   3.883 -0.8536 -1.0648  1.9254
 2329SOL    MW4 9363   2.699   3.995   3.840  0.2377 -0.1905  0.5095
 2330SOL     OW 9364   2.709   4.231   3.961 -0.0123  0.1657 -0.1466
 2330SOL    HW2 9365   2.713   4.234   4.056 -0.3069  1.0675 -0.1582
 2330SOL    HW3 9366   2.785   4.282   3.932  0.5867 -0.8591 -0.3973
 2330SOL    MW4 9367   2.720   4.238   3.970  0.0279  0.1493 -0.1812
 2331SOL     OW 9368   2.198   4.244   3.875  0.3990  0.4784 -0.3443
 2331SOL    HW2 9369   2.293   4.259   3.868  0.5655  0.5228  1.6598
 2331SOL    HW3 9370   2.188   4.150   3.862  0.8257  0.3556  0.1537
 2331SOL    MW4 9371   2.210   4.233   3.873  0.4773  0.4678 -0.0143
 2332SOL     OW 9372   2.893   4.356   3.821 -0.0481  0.0766 -0.2725
 2332SOL    HW2 9373   2.976   4.319   3.850 -0.2557  0.3337  0.6739
 2332SOL    HW3 9374   2.897   4.448   3.848 -0.5405  0.1524 -0.4463
 2332SOL    MW4 9375   2.905   4.363   3.828 -0.1404  0.1206 -0.1707
 2333SOL     OW 9376   3.608   0.145   3.845 -0.0685  0.0663  0.3958
 2333SOL    HW2 9377   3.694   0.111   3.873  0.6137  0.5377 -1.0969
 2333SOL    HW3 9378   3.614   0.150   3.750 -2.4485 -1.7441  0.0960
 2333SOL    MW4 9379   3.620   0.141   3.836 -0.2923 -0.1103  0.1590
 2334SOL     OW 9380   3.155   0.049   3.777 -0.4251  0.1166  0.1395
 2334SOL    HW2 9381   3.235   0.022   3.822 -1.0254  2.4056  2.7292
 2334SOL    HW3 9382   3.183   0.075   3.690  1.4157 -0.5621  0.5160
 2334SOL    MW4 9383   3.169   0.049   3.771 -0.2615  0.3291  0.5307
 2335SOL     OW 9384   2.939   2.337   4.150 -0.5100  0.4560 -0.2064
 2335SOL    HW2 9385   2.930   2.359   4.057 -1.6719 -0.6466 -0.3701
 2335SOL    HW3 9386   2.942   2.422   4.194  0.3044  0.9859 -1.2777
 2335SOL    MW4 9387   2.938   2.351   4.144 -0.5560  0.3805 -0.3691
 2336SOL     OW 9388   0.536   3.315   4.677 -0.0684  0.1325 -0.2174
 2336SOL    HW2 9389   0.606   3.276   4.625  0.7071  1.7781 -0.4209
 2336SOL    HW3 9390   0.560   3.295   4.767  1.2874  1.6686 -0.2158
 2336SOL    MW4 9391   0.548   3.307   4.682  0.2128  0.5522 -0.2441
 2337SOL     OW 9392   3.598   0.904   3.777 -0.1081 -0.0719 -0.3135
 2337SOL    HW2 9393   3.589   0.993   3.810  1.3639 -0.3140  0.8047
 2337SOL    HW3 9394   3.516   0.860   3.801 -0.8013  0.9355 -0.7930
 2337SOL    MW4 9395   3.586   0.910   3.784 -0.0055  0.0291 -0.2291
 2338SOL     OW 9396   3.197   0.898   3.816 -0.2893  0.6662 -0.0813
 2338SOL    HW2 9397   3.181   0.912   3.723  0.0180 -0.5577 -0.3246
 2338SOL    HW3 9398   3.180   0.983   3.856 -0.0545  1.3052 -1.3033
 2338SOL    MW4 9399   3.193   0.911   3.809 -0.2177  0.5891 -0.2744
 2339SOL     OW 9400   2.473   0.196   4.565  0.5027 -0.1498  0.2950
 2339SOL    HW2 9401   2.386   0.232   4.585  0.3808 -0.5119  0.4273
 2339SOL    HW3 9402   2.534   0.259   4.603  0.2893 -0.1010  0.5589
 2339SOL    MW4 9403   2.469   0.209   4.573  0.4587 -0.1912  0.3476
 2340SOL     OW 9404   3.376   1.289   3.558 -0.1712  0.0924 -0.1534
 2340SOL    HW2 9405   3.445   1.244   3.510  0.8614  1.3283  0.1553
 2340SOL    HW3 9406   3.384   1.381   3.532 -0.7977  0.4700  0.9482
 2340SOL    MW4 9407   3.386   1.295   3.549 -0.1178  0.3053  0.0324
 2341SOL     OW 9408   3.386   1.276   3.830  0.0235  0.1141 -0.6616
 2341SOL    HW2 9409   3.389   1.282   3.735  1.4420  0.2077 -0.6095
 2341SOL    HW3 9410   3.470   1.240   3.855 -0.5048 -0.3042  0.5361
 2341SOL    MW4 9411   3.397   1.272   3.821  0.1407  0.0713 -0.4966
 2342SOL     OW 9412   2.490   3.702   4.903 -0.2859 -0.1688  0.0275
 2342SOL    HW2 9413   2.458   3.654   4.979 -0.3165  0.2668  0.2927
 2342SOL    HW3 9414   2.565   3.651   4.872 -0.5716 -0.6082  0.0537
 2342SOL    MW4 9415   2.496   3.689   4.909 -0.3278 -0.1693  0.0663
 2343SOL     OW 9416   2.605   1.046   4.393  0.0140 -0.2093 -0.7067
 2343SOL    HW2 9417   2.652   1.090   4.322  3.1473 -0.9342  0.8003
 2343SOL    HW3 9418   2.579   1.117   4.452  0.2024  0.1008 -0.9954
 2343SOL    MW4 9419   2.608   1.062   4.392  0.4520 -0.2642 -0.5460
 2344SOL     OW 9420   3.139   1.945   3.897  0.0335  0.0125 -0.1316
 2344SOL    HW2 9421   3.136   1.851   3.884 -1.1811  0.0033  0.2139
 2344SOL    HW3 9422   3.151   1.956   3.991 -1.2739  0.2221  0.0128
 2344SOL    MW4 9423   3.140   1.934   3.907 -0.2992  0.0390 -0.0670
 2345SOL     OW 9424   3.775   2.910   4.594  0.0350  0.6913  0.3161
 2345SOL    HW2 9425   3.850   2.918   4.534  0.5193  0.7961  0.9308
 2345SOL    HW3 9426   3.771   2.816   4.615  0.5836  0.8229  1.0271
 2345SOL    MW4 9427   3.784   2.898   4.589  0.1714  0.7224  0.4916
 2346SOL     OW 9428   3.132   2.438   3.764  0.1749 -0.1625 -0.2307
 2346SOL    HW2 9429   3.151   2.525   3.798  0.1177  0.4244 -1.6650
 2346SOL    HW3 9430   3.120   2.451   3.669  0.4820 -1.7707 -0.5032
 2346SOL    MW4 9431   3.133   2.451   3.756  0.2079 -0.2971 -0.4559
 2347SOL     OW 9432   4.097   0.750   4.340 -0.1523 -0.0241  0.4074
 2347SOL    HW2 9433   4.078   0.797   4.421 -1.9472 -1.0195  0.5893
 2347SOL    HW3 9434   4.019   0.761   4.287 -0.3223 -2.1456  0.1559
 2347SOL    MW4 9435   4.084   0.758   4.344 -0.4115 -0.4354  0.3986
 2348SOL     OW 9436   3.412   2.848   3.804  0.0435 -0.0496 -0.0698
 2348SOL    HW2 9437   3.328   2.812   3.831  0.0966  0.1847  0.4275
 2348SOL    HW3 9438   3.399   2.876   3.713 -0.4572  0.1124  0.0514
 2348SOL    MW4 9439   3.399   2.847   3.796 -0.0157  0.0026  0.0119
 2349SOL     OW 9440   3.609   3.258   3.828 -0.2846  0.6343  0.6518
 2349SOL    HW2 9441   3.535   3.209   3.864  0.0314  0.4639  1.0701
 2349SOL    HW3 9442   3.585   3.274   3.736 -0.7405  0.3899  0.7283
 2349SOL    MW4 9443   3.596   3.254   3.820 -0.3030  0.5796  0.7169
 2350SOL     OW 9444   2.896   3.101   3.900 -0.4844 -0.0237  0.1464
 2350SOL    HW2 9445   2.836   3.144   3.839  0.4336 -1.9586 -2.1954
 2350SOL    HW3 9446   2.981   3.140   3.882 -0.6757  1.4401  2.2330
 2350SOL    MW4 9447   2.899   3.112   3.890 -0.3884 -0.0861  0.1130
 2351SOL     OW 9448   3.158   3.210   3.814  0.0240 -0.6893 -0.3129
 2351SOL    HW2 9449   3.164   3.222   3.720 -0.0625  1.1938 -0.1164
 2351SOL    HW3 9450   3.245   3.179   3.840  0.8962  1.3216 -0.7092
 2351SOL    MW4 9451   3.170   3.208   3.805  0.1278 -0.1755 -0.3390
 2352SOL     OW 9452   3.372   3.619   3.770  0.0776  0.0577 -0.3677
 2352SOL    HW2 9453   3.289   3.578   3.793 -0.3385  0.8052 -0.5084
 2352SOL    HW3 9454   3.385   3.597   3.678  0.4988 -0.8369 -0.0969
 2352SOL    MW4 9455   3.363   3.611   3.761  0.0782  0.0386 -0.3507
 2353SOL     OW 9456   2.001   2.316   4.172  0.5640  0.1866 -0.1703
 2353SOL    HW2 9457   2.078   2.268   4.203 -0.0309 -1.3598 -1.0205
 2353SOL    HW3 9458   2.014   2.323   4.077 -1.1751 -1.6787 -0.5896
 2353SOL    MW4 9459   2.013   2.310   4.163  0.2563 -0.2635 -0.3381
 2354SOL     OW 9460   3.171   4.008   3.773 -0.2235  0.3369  0.4094
 2354SOL    HW2 9461   3.176   4.093   3.816  2.1182  1.8291 -2.5849
 2354SOL    HW3 9462   3.242   3.957   3.812  0.5646  0.9565 -0.2070
 2354SOL    MW4 9463   3.181   4.013   3.784  0.1898  0.6161 -0.0670
 2355SOL     OW 9464   3.160   4.257   3.891  0.6846  0.1122  0.8060
 2355SOL    HW2 9465   3.173   4.257   3.986  0.9914 -0.8834  0.7669
 2355SOL    HW3 9466   3.235   4.305   3.857  0.9380 -0.1283  1.0215
 2355SOL    MW4 9467   3.171   4.263   3.899  0.7584 -0.0505  0.8292
 2356SOL     OW 9468   3.383   4.631   3.891 -0.0369  0.7384  0.2916
 2356SOL    HW2 9469   3.453   4.687   3.857  0.6464 -0.3308 -0.0646
 2356SOL    HW3 9470   3.386   4.642   3.986  1.0271  0.1902  0.3167
 2356SOL    MW4 9471   3.392   4.640   3.899  0.1938  0.5250  0.2480
 2357SOL     OW 9472   2.048   0.702   4.152  0.2986  0.5476  0.0691
 2357SOL    HW2 9473   1.966   0.673   4.192 -0.1175 -1.0641 -1.8773
 2357SOL    HW3 9474   2.115   0.648   4.195 -0.0032 -0.2693 -0.4688
 2357SOL    MW4 9475   2.046   0.691   4.163  0.2036  0.2272 -0.2584
 2358SOL     OW 9476   3.583   0.406   3.921  0.0044 -0.5891  0.1604
 2358SOL    HW2 9477   3.590   0.312   3.902 -1.0518 -0.3751 -1.4059
 2358SOL    HW3 9478   3.659   0.445   3.879 -2.3411 -0.1132 -3.9410
 2358SOL    MW4 9479   3.594   0.399   3.913 -0.4442 -0.4981 -0.5872
 2359SOL     OW 9480   4.028   2.495   4.555  0.5174  0.1230 -0.5326
 2359SOL    HW2 9481   3.956   2.559   4.557  0.5748  0.2011 -1.0286
 2359SOL    HW3 9482   4.008   2.436   4.628 -0.8375 -0.7090 -1.5532
 2359SOL    MW4 9483   4.016   2.496   4.565  0.3462  0.0236 -0.7329
 2360SOL     OW 9484   4.018   0.392   3.955  0.1888  0.6408 -0.0111
 2360SOL    HW2 9485   4.038   0.310   3.909 -0.0257  1.0309 -0.7946
 2360SOL    HW3 9486   4.039   0.373   4.047  0.4251 -0.1983 -0.2340
 2360SOL    MW4 9487   4.023   0.378   3.961  0.1917  0.5816 -0.1440
 2361SOL     OW 9488   3.807   0.508   3.807  0.3369 -0.2608  0.0987
 2361SOL    HW2 9489   3.794   0.595   3.844 -1.9621 -0.4538 -0.1778
 2361SOL    HW3 9490   3.879   0.471   3.857  1.7479  2.0090 -0.1676
 2361SOL    MW4 9491   3.815   0.515   3.818  0.2198  0.0132  0.0269
 2362SOL     OW 9492   3.818   0.772   3.898  0.0357 -0.2250  0.1153
 2362SOL    HW2 9493   3.894   0.800   3.847 -0.0902  1.1688  0.6722
 2362SOL    HW3 9494   3.744   0.817   3.857 -0.2259 -0.0228  0.8117
 2362SOL    MW4 9495   3.819   0.781   3.886 -0.0155 -0.0143  0.2806
 2363SOL     OW 9496   3.606   1.135   3.898  0.2030 -0.2315  0.0735
 2363SOL    HW2 9497   3.697   1.162   3.886 -0.9712  3.4912 -1.0771
 2363SOL    HW3 9498   3.586   1.155   3.989 -0.0146  0.8065 -0.1948
 2363SOL    MW4 9499   3.615   1.141   3.908  0.0196  0.3967 -0.1137
 2364SOL     OW 9500   3.859   1.241   3.835 -0.4351 -0.1968 -0.1811
 2364SOL    HW2 9501   3.946   1.218   3.869 -0.6291  0.2314  0.6171
 2364SOL    HW3 9502   3.851   1.334   3.853 -0.5946  0.0156 -1.3119
 2364SOL    MW4 9503   3.870   1.250   3.842 -0.4816 -0.1123 -0.2251
 2365SOL     OW 9504   3.613   1.938   3.896 -0.0825  0.1209 -1.0038
 2365SOL    HW2 9505   3.601   1.955   3.989  0.0603 -0.5185 -0.8644
 2365SOL    HW3 9506   3.543   1.987   3.853 -0.7868 -0.4148 -0.4800
 2365SOL    MW4 9507   3.602   1.947   3.903 -0.1566 -0.0341 -0.9162
 2366SOL     OW 9508   3.646   1.664   3.826 -0.0144 -0.3273  0.4339
 2366SOL    HW2 9509   3.635   1.750   3.866  0.7708 -0.9011  1.9137
 2366SOL    HW3 9510   3.641   1.681   3.732 -0.8009  1.1964  0.7264
 2366SOL    MW4 9511   3.644   1.678   3.819 -0.0145 -0.2019  0.6678
 2367SOL     OW 9512   3.378   3.874   3.898 -0.1973 -0.2754 -0.2483
 2367SOL    HW2 9513   3.469   3.904   3.893 -0.1273 -0.4413  0.0278
 2367SOL    HW3 9514   3.376   3.794   3.846 -0.5803  0.6716 -1.7299
 2367SOL    MW4 9515   3.389   3.868   3.890 -0.2387 -0.1724 -0.4072
 2368SOL     OW 9516   3.364   2.330   3.883  0.2732 -0.9092 -0.0572
 2368SOL    HW2 9517   3.278   2.360   3.854  0.0136 -0.4584  1.1356
 2368SOL    HW3 9518   3.363   2.235   3.869 -0.3175 -0.8656 -0.3038
 2368SOL    MW4 9519   3.352   2.321   3.878  0.1609 -0.8440  0.0675
 2369SOL     OW 9520   2.687   0.357   4.656  0.1300  0.0716  0.6025
 2369SOL    HW2 9521   2.765   0.304   4.639 -0.5281 -0.5934 -0.3807
 2369SOL    HW3 9522   2.701   0.437   4.606 -0.4042 -0.5930 -0.6129
 2369SOL    MW4 9523   2.700   0.360   4.647 -0.0272 -0.1038  0.3119
 2370SOL     OW 9524   3.581   2.466   3.780 -0.1481 -0.5657  0.3776
 2370SOL    HW2 9525   3.506   2.415   3.810 -0.2221 -0.5599  0.2035
 2370SOL    HW3 9526   3.584   2.452   3.685  0.9000 -1.6952  0.5608
 2370SOL    MW4 9527   3.572   2.457   3.771 -0.0196 -0.7141  0.3786
 2371SOL     OW 9528   3.636   2.709   3.900 -0.0416 -0.3877 -0.8947
 2371SOL    HW2 9529   3.566   2.762   3.863 -0.0036  0.7925  0.7007
 2371SOL    HW3 9530   3.628   2.624   3.855 -1.4169  0.2736 -1.9300
 2371SOL    MW4 9531   3.626   2.705   3.889 -0.2179 -0.1447 -0.8206
 2372SOL     OW 9532   0.611   4.544   4.597  0.3610  0.2689  0.5735
 2372SOL    HW2 9533   0.706   4.535   4.589  0.5086  0.7393  1.7777
 2372SOL    HW3 9534   0.578   4.531   4.508  1.4442 -1.1679  0.3757
 2372SOL    MW4 9535   0.619   4.541   4.584  0.5234  0.1411  0.7067
 2373SOL     OW 9536   2.933   3.358   4.229 -0.0549  0.1334 -0.1963
 2373SOL    HW2 9537   2.862   3.400   4.181 -2.1101 -1.3075  1.4522
 2373SOL    HW3 9538   2.917   3.264   4.218  0.8426 -0.2101  1.2362
 2373SOL    MW4 9539   2.921   3.351   4.222 -0.2079 -0.1020  0.2103
 2374SOL     OW 9540   3.625   3.534   3.909  0.1989  0.0193 -0.2532
 2374SOL    HW2 9541   3.633   3.439   3.897  1.6423 -0.0093  0.9250
 2374SOL    HW3 9542   3.531   3.550   3.902 -0.0577 -1.4874 -0.5447
 2374SOL    MW4 9543   3.614   3.524   3.906  0.3555 -0.1836 -0.1361
 2375SOL     OW 9544   3.948   2.258   4.698 -0.2980  0.2000 -0.4437
 2375SOL    HW2 9545   3.865   2.296   4.725 -0.8053 -1.6537  0.7102
 2375SOL    HW3 9546   3.924   2.180   4.649  0.7495  0.1013 -0.8150
 2375SOL    MW4 9547   3.934   2.253   4.695 -0.2267 -0.0575 -0.3405
 2376SOL     OW 9548   3.845   3.633   3.802 -0.1485 -0.3181 -0.3610
 2376SOL    HW2 9549   3.767   3.595   3.842  0.4348 -0.3086  0.7968
 2376SOL    HW3 9550   3.859   3.714   3.850 -0.0654  0.2366 -1.3132
 2376SOL    MW4 9551   3.836   3.638   3.814 -0.0606 -0.2437 -0.3335
 2377SOL     OW 9552   3.860   3.864   3.958 -0.1230 -0.5565 -0.1764
 2377SOL    HW2 9553   3.920   3.937   3.942  1.0697 -1.3169  0.7072
 2377SOL    HW3 9554   3.841   3.869   4.052 -1.7723 -0.0887 -0.5222
 2377SOL    MW4 9555   3.865   3.874   3.969 -0.1833 -0.5949 -0.1054
 2378SOL     OW 9556   4.275   4.660   3.918  0.5606  0.0050  0.1371
 2378SOL    HW2 9557   4.352   4.683   3.865  0.2112  2.1916  0.5141
 2378SOL    HW3 9558   4.244   4.577   3.881  1.4726  0.5058 -1.8207
 2378SOL    MW4 9559   4.281   4.652   3.906  0.6351  0.3596 -0.0713
 2379SOL     OW 9560   0.878   2.690   3.882 -0.4394 -0.2151 -0.0615
 2379SOL    HW2 9561   0.863   2.689   3.977 -1.9112 -1.0784 -0.2931
 2379SOL    HW3 9562   0.802   2.735   3.845 -0.8357 -1.5885 -0.9696
 2379SOL    MW4 9563   0.866   2.696   3.890 -0.6859 -0.5102 -0.2122
 2380SOL     OW 9564   4.455   2.230   4.265  0.3031 -0.6154 -0.1171
 2380SOL    HW2 9565   4.542   2.268   4.252 -1.0812  2.6159 -0.4063
 2380SOL    HW3 9566   4.423   2.270   4.346 -1.0922 -1.4483 -0.2461
 2380SOL    MW4 9567   4.462   2.240   4.274 -0.0634 -0.2990 -0.1726
 2381SOL     OW 9568   4.201   4.415   3.822 -0.2996 -1.0695 -0.0082
 2381SOL    HW2 9569   4.288   4.376   3.834  0.5625  1.2063  1.4751
 2381SOL    HW3 9570   4.141   4.355   3.865  0.7795 -1.6814  0.6632
 2381SOL    MW4 9571   4.205   4.402   3.829 -0.0439 -0.8497  0.2759
 2382SOL     OW 9572   3.176   3.733   4.281  0.0970 -0.0016  0.6423
 2382SOL    HW2 9573   3.245   3.786   4.241 -1.1186  0.3219 -1.0741
 2382SOL    HW3 9574   3.095   3.778   4.259 -0.8602 -1.8685  0.2904
 2382SOL    MW4 9575   3.175   3.746   4.273 -0.1898 -0.2053  0.3691
 2383SOL     OW 9576   0.280   0.039   4.393 -0.4143 -0.2818  0.4568
 2383SOL    HW2 9577   0.308   0.087   4.471 -0.9395 -1.3897  1.3444
 2383SOL    HW3 9578   0.353  -0.019   4.372  0.6166  1.5782 -1.1974
 2383SOL    MW4 9579   0.293   0.038   4.401 -0.3476 -0.1826  0.3562
 2384SOL     OW 9580   4.248   0.532   3.832  0.0495  0.6339 -0.2054
 2384SOL    HW2 9581   4.178   0.483   3.876  0.9358  1.2762  2.0061
 2384SOL    HW3 9582   4.235   0.514   3.739 -1.0368 -1.9381  0.4021
 2384SOL    MW4 9583   4.237   0.523   3.825  0.0229  0.3793  0.1667
 2385SOL     OW 9584   4.273   0.795   3.956 -0.3926 -0.2629 -0.2817
 2385SOL    HW2 9585   4.193   0.833   3.920 -0.6658  1.1924  1.7257
 2385SOL    HW3 9586   4.273   0.705   3.925 -2.6651 -0.2039 -0.5619
 2385SOL    MW4 9587   4.262   0.788   3.947 -0.7286 -0.0631 -0.0539
 2386SOL     OW 9588   4.057   0.910   3.818  0.1548 -0.1547 -0.2786
 2386SOL    HW2 9589   4.064   1.000   3.848 -0.3277 -0.1765 -0.0980
 2386SOL    HW3 9590   4.034   0.917   3.725  0.8136 -0.0936 -0.4452
 2386SOL    MW4 9591   4.055   0.922   3.810  0.1783 -0.1495 -0.2768
 2387SOL     OW 9592   4.102   1.162   3.921  0.2837 -0.2785 -0.0030
 2387SOL    HW2 9593   4.095   1.143   4.014  0.0595  0.0342  0.0467
 2387SOL    HW3 9594   4.171   1.228   3.914  1.5233 -1.6019 -0.2453
 2387SOL    MW4 9595   4.110   1.169   3.932  0.4177 -0.4119 -0.0284
 2388SOL     OW 9596   4.310   1.339   4.003 -0.0659 -0.2556 -0.1563
 2388SOL    HW2 9597   4.301   1.400   3.929 -0.6811 -0.4307 -0.2243
 2388SOL    HW3 9598   4.275   1.387   4.078 -0.9617 -0.6806 -0.2928
 2388SOL    MW4 9599   4.304   1.354   4.003 -0.2656 -0.3347 -0.1831
 2389SOL     OW 9600   1.586   3.073   4.149  0.0850  0.1552 -0.4969
 2389SOL    HW2 9601   1.501   3.028   4.151  0.4074 -0.4678 -0.5813
 2389SOL    HW3 9602   1.570   3.157   4.192 -0.3645 -0.3364  0.3194
 2389SOL    MW4 9603   1.573   3.078   4.155  0.0683  0.0081 -0.4001
 2390SOL     OW 9604   3.868   1.509   3.886  0.4226 -0.0604 -0.4558
 2390SOL    HW2 9605   3.879   1.526   3.979  0.2126 -1.1335 -0.2248
 2390SOL    HW3 9606   3.791   1.561   3.861  0.4331  0.1692 -0.0161
 2390SOL    MW4 9607   3.859   1.518   3.895  0.3963 -0.1715 -0.3672
 2391SOL     OW 9608   4.067   1.652   3.752 -0.0129  0.5279  0.1061
 2391SOL    HW2 9609   3.995   1.600   3.788 -1.3524  0.5837 -2.4162
 2391SOL    HW3 9610   4.146   1.605   3.778 -1.1468 -2.0457 -0.9351
 2391SOL    MW4 9611   4.068   1.639   3.760 -0.3400  0.1957 -0.3643
 2392SOL     OW 9612   4.048   1.948   3.932 -0.0720  0.2825  0.1902
 2392SOL    HW2 9613   4.045   1.870   3.877 -0.9004 -0.1336  0.8040
 2392SOL    HW3 9614   4.119   2.001   3.896  1.2648 -1.2856  0.4726
 2392SOL    MW4 9615   4.057   1.945   3.920 -0.0052  0.0209  0.3085
 2393SOL     OW 9616   0.030   2.686   3.866  0.2039 -0.5404 -0.2098
 2393SOL    HW2 9617   0.097   2.717   3.805  1.4744 -1.6436  0.5783
 2393SOL    HW3 9618   0.054   2.726   3.950  0.3037 -1.5042  0.2279
 2393SOL    MW4 9619   0.042   2.695   3.869  0.3847 -0.8130 -0.0482
 2394SOL     OW 9620   0.690   1.559   3.905  0.1882 -0.0147  0.1092
 2394SOL    HW2 9621   0.677   1.472   3.869  1.4749 -0.2594  0.2046
 2394SOL    HW3 9622   0.674   1.549   3.999 -0.2200 -0.0266  0.0374
 2394SOL    MW4 9623   0.687   1.546   3.913  0.3041 -0.0485  0.1123
 2395SOL     OW 9624   3.822   2.370   3.911  0.0831  0.4480 -0.0507
 2395SOL    HW2 9625   3.746   2.410   3.870  0.2978  1.0679  0.1456
 2395SOL    HW3 9626   3.820   2.279   3.883 -0.1244  0.7186 -0.9177
 2395SOL    MW4 9627   3.812   2.363   3.902  0.0842  0.5655 -0.1392
 2396SOL     OW 9628   4.262   2.853   3.521 -0.1323 -0.2776 -0.4478
 2396SOL    HW2 9629   4.265   2.834   3.615 -0.8735 -1.5855 -0.6760
 2396SOL    HW3 9630   4.341   2.812   3.486 -0.1424 -0.2795 -0.4688
 2396SOL    MW4 9631   4.273   2.845   3.529 -0.2313 -0.4506 -0.4809
 2397SOL     OW 9632   4.271   3.113   3.864 -0.1593  0.5445 -0.1547
 2397SOL    HW2 9633   4.277   3.022   3.837 -0.6490  0.3348  0.4451
 2397SOL    HW3 9634   4.357   3.150   3.843 -0.1642  0.1097 -0.9763
 2397SOL    MW4 9635   4.283   3.106   3.858 -0.2246  0.4594 -0.1838
 2398SOL     OW 9636   4.027   3.238   3.481  0.7969  0.4857  0.0936
 2398SOL    HW2 9637   4.029   3.325   3.442 -1.3962 -0.0079 -1.2036
 2398SOL    HW3 9638   4.049   3.252   3.573  1.0749  2.3313 -0.2434
 2398SOL    MW4 9639   4.030   3.251   3.488  0.5441  0.6642 -0.1221
 2399SOL     OW 9640   4.059   3.498   3.903 -0.0743  0.2561  0.0448
 2399SOL    HW2 9641   4.043   3.515   3.995 -0.1893  0.5986 -0.0385
 2399SOL    HW3 9642   3.983   3.535   3.858  0.5391  1.1361 -0.2848
 2399SOL    MW4 9643   4.047   3.505   3.909 -0.0086  0.4175 -0.0095
 2400SOL     OW 9644   4.298   3.615   3.818  0.0622  0.2065 -0.2594
 2400SOL    HW2 9645   4.225   3.568   3.858 -0.3917 -0.2448 -1.5670
 2400SOL    HW3 9646   4.376   3.566   3.844 -0.3005 -0.5533 -0.5683
 2400SOL    MW4 9647   4.298   3.602   3.827 -0.0453  0.0467 -0.4725
 2401SOL     OW 9648   4.283   4.134   4.317 -0.0082  0.3118  0.1954
 2401SOL    HW2 9649   4.315   4.161   4.403 -0.4410  2.4400 -0.2936
 2401SOL    HW3 9650   4.194   4.168   4.313 -0.2740 -0.4605 -0.8055
 2401SOL    MW4 9651   4.275   4.142   4.328 -0.1006  0.4902 -0.0014
 2402SOL     OW 9652   4.041   4.036   3.797 -0.3361 -0.1204  0.0524
 2402SOL    HW2 9653   4.113   3.974   3.810  1.7061  1.7013 -2.0263
 2402SOL    HW3 9654   4.016   4.025   3.705 -0.6906  1.3208 -0.0392
 2402SOL    MW4 9655   4.048   4.027   3.787 -0.1130  0.3099 -0.2341
 2403SOL     OW 9656   3.568   2.434   4.650  0.2578  0.4284  0.1047
 2403SOL    HW2 9657   3.589   2.353   4.604  0.2222 -0.2103  1.2017
 2403SOL    HW3 9658   3.490   2.467   4.606  0.6526  0.2006 -0.7613
 2403SOL    MW4 9659   3.560   2.428   4.638  0.3052  0.3140  0.1354
 2404SOL     OW 9660   3.327   3.097   4.200  0.3388  0.1895 -0.3852
 2404SOL    HW2 9661   3.331   3.192   4.213 -1.2583  0.7504 -3.4097
 2404SOL    HW3 9662   3.418   3.067   4.211  0.7207  1.8930  1.4557
 2404SOL    MW4 9663   3.340   3.105   4.203  0.1783  0.4883 -0.5412
 2405SOL     OW 9664   4.472   3.530   4.172 -0.0244  0.4880 -0.4536
 2405SOL    HW2 9665   4.492   3.491   4.087  2.4121  0.1079  0.2746
 2405SOL    HW3 9666   4.404   3.474   4.208  0.0404 -0.2643 -1.4787
 2405SOL    MW4 9667   4.466   3.518   4.165  0.3057  0.3386 -0.4926
 2406SOL     OW 9668   3.186   0.303   4.178  0.2903 -0.2765 -0.3529
 2406SOL    HW2 9669   3.178   0.398   4.191  0.1741 -0.3334 -0.0056
 2406SOL    HW3 9670   3.120   0.265   4.236 -1.3016 -0.4710 -2.2368
 2406SOL    MW4 9671   3.176   0.311   4.188  0.0651 -0.3096 -0.5555
 2407SOL     OW 9672   3.347   3.916   4.186 -0.2897 -0.4082 -0.2263
 2407SOL    HW2 9673   3.362   3.906   4.092  1.2623 -0.1117 -0.0150
 2407SOL    HW3 9674   3.424   3.879   4.228 -2.2706 -3.2933  1.0566
 2407SOL    MW4 9675   3.359   3.910   4.179 -0.3462 -0.7493 -0.0291
 2408SOL     OW 9676   3.360   2.582   4.532  0.2540  0.1258 -0.2950
 2408SOL    HW2 9677   3.377   2.674   4.555  0.5479 -0.2092  0.8693
 2408SOL    HW3 9678   3.298   2.552   4.599 -0.2181 -0.3844 -0.9618
 2408SOL    MW4 9679   3.354   2.590   4.544  0.2303  0.0143 -0.2294
 2409SOL     OW 9680   3.784   3.140   4.743 -0.1646  0.2691 -0.4970
 2409SOL    HW2 9681   3.753   3.156   4.833  1.3270  0.4586 -0.0067
 2409SOL    HW3 9682   3.748   3.054   4.721  0.3195 -0.2502  0.6750
 2409SOL    MW4 9683   3.775   3.131   4.752  0.0961  0.2253 -0.2775
 2410SOL     OW 9684   4.016   1.333   4.360  0.4670 -0.5685  0.4046
 2410SOL    HW2 9685   4.047   1.255   4.315 -0.6064 -1.2954  0.8992
 2410SOL    HW3 9686   3.947   1.302   4.419  0.3517  0.6751  0.9632
 2410SOL    MW4 9687   4.011   1.319   4.362  0.3099 -0.5002  0.5436
 2411SOL     OW 9688   1.802   1.959   4.192 -0.4710 -0.0850  0.4004
 2411SOL    HW2 9689   1.819   1.948   4.099  0.4225  0.1778  0.5318
 2411SOL    HW3 9690   1.733   1.895   4.212 -0.8212  0.0169 -0.4798
 2411SOL    MW4 9691   1.795   1.949   4.183 -0.3994 -0.0370  0.3018
 2412SOL     OW 9692   2.921   4.628   4.134 -0.2963 -0.3325 -0.2664
 2412SOL    HW2 9693   2.860   4.584   4.192 -0.2790 -2.2476 -1.6694
 2412SOL    HW3 9694   3.007   4.597   4.162 -0.1929 -0.1088 -0.3372
 2412SOL    MW4 9695   2.925   4.618   4.145 -0.2809 -0.5550 -0.4611
 2413SOL     OW 9696   0.921   0.364   4.150 -0.3084  0.0956 -0.1616
 2413SOL    HW2 9697   0.902   0.441   4.203 -0.6230  0.2042 -0.4236
 2413SOL    HW3 9698   0.846   0.306   4.164  0.4452 -0.6373  0.8849
 2413SOL    MW4 9699   0.909   0.366   4.159 -0.2505  0.0132 -0.0577
 2414SOL     OW 9700   1.826   0.675   4.287  0.5814 -0.2577 -0.0088
 2414SOL    HW2 9701   1.810   0.583   4.268  0.0424 -0.2520  0.3836
 2414SOL    HW3 9702   1.819   0.681   4.383  0.4579  0.2155 -0.0434
 2414SOL    MW4 9703   1.823   0.664   4.297  0.4939 -0.1945  0.0386
 2415SOL     OW 9704   2.030   0.137   4.520 -0.3208  0.6154 -0.5789
 2415SOL    HW2 9705   2.098   0.200   4.544  0.5094 -0.1464 -0.8810
 2415SOL    HW3 9706   1.948   0.179   4.544  0.2373  1.7490 -0.6587
 2415SOL    MW4 9707   2.028   0.151   4.527 -0.1373  0.6644 -0.6294
 2416SOL     OW 9708   1.562   3.121   4.596  0.3155  0.1005 -0.5836
 2416SOL    HW2 9709   1.601   3.172   4.667  1.3165 -1.3269 -0.0790
 2416SOL    HW3 9710   1.637   3.080   4.552 -0.3833  0.0702 -1.7626
 2416SOL    MW4 9711   1.577   3.122   4.599  0.3554 -0.0920 -0.6723
 2417SOL     OW 9712   3.118   3.485   3.851  0.2785  0.3265 -0.1993
 2417SOL    HW2 9713   3.134   3.392   3.834  0.8051  0.3735  0.0185
 2417SOL    HW3 9714   3.121   3.493   3.946  0.2526  0.5731 -0.2175
 2417SOL    MW4 9715   3.120   3.474   3.861  0.3443  0.3653 -0.1729
 2418SOL     OW 9716   4.066   0.170   3.810  0.3422  0.6572 -0.1952
 2418SOL    HW2 9717   4.070   0.171   3.714 -0.8091 -0.8727 -0.2876
 2418SOL    HW3 9718   4.148   0.128   3.837  0.4844  0.7135 -0.5402
 2418SOL    MW4 9719   4.078   0.164   3.801  0.2089  0.4628 -0.2530
 2419SOL     OW 9720   1.380   0.398   4.200  0.1266  0.5803  0.1425
 2419SOL    HW2 9721   1.355   0.481   4.240 -3.0107  0.0681 -0.6068
 2419SOL    HW3 9722   1.317   0.335   4.234  1.0392 -1.0282 -1.0883
 2419SOL    MW4 9723   1.369   0.401   4.209 -0.1669  0.3005 -0.1183
 2420SOL     OW 9724   4.433   3.865   4.520  0.1064 -0.5663 -0.4551
 2420SOL    HW2 9725   4.469   3.838   4.436 -0.9694  1.7494 -1.7089
 2420SOL    HW3 9726   4.343   3.833   4.520 -0.3361  0.6450 -0.8142
 2420SOL    MW4 9727   4.426   3.857   4.509 -0.0944 -0.1004 -0.6680
 2421SOL     OW 9728   3.827   1.783   4.574 -0.3309  0.1383 -0.0619
 2421SOL    HW2 9729   3.818   1.783   4.479  1.3780 -1.2699 -0.2479
 2421SOL    HW3 9730   3.738   1.767   4.607 -0.8837  0.3641 -1.4224
 2421SOL    MW4 9731   3.814   1.781   4.566 -0.1781 -0.0176 -0.2666
 2422SOL     OW 9732   3.577   2.711   4.165 -0.7978 -0.6615 -0.4186
 2422SOL    HW2 9733   3.583   2.709   4.069 -0.2548 -0.3250 -0.3912
 2422SOL    HW3 9734   3.666   2.695   4.195 -0.9614 -0.7276  0.0345
 2422SOL    MW4 9735   3.589   2.708   4.156 -0.7477 -0.6258 -0.3557
 2423SOL     OW 9736   1.730   4.215   4.198 -0.2844 -0.2361  0.3551
 2423SOL    HW2 9737   1.815   4.177   4.220 -0.3073 -0.4113  0.1421
 2423SOL    HW3 9738   1.726   4.213   4.102  0.3364  1.6741  0.2786
 2423SOL    MW4 9739   1.740   4.210   4.188 -0.2055 -0.0067  0.3166
 2424SOL     OW 9740   1.740   2.679   4.174  0.3609 -0.1631 -0.1979
 2424SOL    HW2 9741   1.829   2.660   4.201  0.8897  0.7118 -1.2874
 2424SOL    HW3 9742   1.685   2.642   4.243  1.5925  0.2435  1.0163
 2424SOL    MW4 9743   1.744   2.671   4.186  0.5931  0.0064 -0.1817
 2425SOL     OW 9744   0.360   3.000   4.155 -0.3120 -0.1095  0.2880
 2425SOL    HW2 9745   0.314   3.037   4.079  1.2412  1.7068  0.1898
 2425SOL    HW3 9746   0.317   3.038   4.231 -1.3921 -1.3604  0.3233
 2425SOL    MW4 9747   0.349   3.010   4.155 -0.2496 -0.0348  0.2794
 2426SOL     OW 9748   2.372   4.098   4.540 -0.3209 -0.4545 -0.5145
 2426SOL    HW2 9749   2.376   4.116   4.446  1.1307 -1.7009 -0.7073
 2426SOL    HW3 9750   2.368   4.185   4.581  1.6392  0.1804 -1.6247
 2426SOL    MW4 9751   2.372   4.112   4.533  0.1295 -0.5355 -0.6862
 2427SOL     OW 9752   3.219   3.222   4.939 -0.1245  0.3454 -0.5628
 2427SOL    HW2 9753   3.303   3.263   4.959 -0.1661  0.0394  0.2848
 2427SOL    HW3 9754   3.208   3.234   4.845  1.3660 -0.5505 -0.8624
 2427SOL    MW4 9755   3.229   3.229   4.929  0.0670  0.1869 -0.4907
 2428SOL     OW 9756   2.985   1.038   4.565 -0.1542 -0.2584  0.1321
 2428SOL    HW2 9757   2.979   1.027   4.471  0.2553  0.9665 -0.0547
 2428SOL    HW3 9758   2.951   1.126   4.581 -0.3084 -0.4956  1.1288
 2428SOL    MW4 9759   2.980   1.048   4.555 -0.1209 -0.1281  0.2389
 2429SOL     OW 9760   4.367   0.291   4.602  0.2000  0.1061  0.0260
 2429SOL    HW2 9761   4.336   0.353   4.668 -1.3576 -1.1426  0.5108
 2429SOL    HW3 9762   4.366   0.340   4.520 -0.4843  0.8893  0.4955
 2429SOL    MW4 9763   4.363   0.305   4.600 -0.0958  0.0447  0.1521
 2430SOL     OW 9764   2.464   4.605   4.173  0.2636 -0.3260  0.2420
 2430SOL    HW2 9765   2.467   4.699   4.185  0.0945 -0.2974  0.0527
 2430SOL    HW3 9766   2.376   4.579   4.201 -0.3034 -0.1979 -1.3585
 2430SOL    MW4 9767   2.453   4.614   4.178  0.1667 -0.3057  0.0057
 2431SOL     OW 9768   0.197   0.431   4.518 -0.4134  0.1576 -0.1303
 2431SOL    HW2 9769   0.108   0.435   4.482 -0.0190 -1.5473 -1.3368
 2431SOL    HW3 9770   0.199   0.501   4.583 -1.9726  1.5846 -1.5641
 2431SOL    MW4 9771   0.185   0.441   4.522 -0.5671  0.1210 -0.4783
 2432SOL     OW 9772   1.769   3.258   3.777  0.7057 -0.6661 -0.1922
 2432SOL    HW2 9773   1.851   3.210   3.789 -0.4393 -2.4195  0.8365
 2432SOL    HW3 9774   1.702   3.203   3.818 -0.7394  1.5550  0.5667
 2432SOL    MW4 9775   1.771   3.244   3.784  0.3641 -0.6042  0.0434
 2433SOL     OW 9776   2.391   3.624   4.634 -0.1663 -0.1530  0.1256
 2433SOL    HW2 9777   2.386   3.652   4.726  0.3820 -0.7764  0.3494
 2433SOL    HW3 9778   2.477   3.653   4.605  0.5558 -1.9207  0.4713
 2433SOL    MW4 9779   2.402   3.632   4.642  0.0014 -0.4685  0.2007
 2434SOL     OW 9780   0.221   3.127   4.366  0.5289 -0.0196  0.2298
 2434SOL    HW2 9781   0.194   3.216   4.340 -0.5182 -0.6541 -0.9418
 2434SOL    HW3 9782   0.238   3.134   4.460 -2.7968  0.6991  0.8691
 2434SOL    MW4 9783   0.220   3.140   4.375 -0.0480 -0.0086  0.1597
 2435SOL     OW 9784   1.982   3.858   4.193  0.4061 -0.0395 -0.3629
 2435SOL    HW2 9785   1.979   3.949   4.225  2.3271  0.2011 -0.7920
 2435SOL    HW3 9786   1.986   3.867   4.097 -1.3184 -0.6482 -0.5117
 2435SOL    MW4 9787   1.982   3.871   4.184  0.4319 -0.0880 -0.4392
 2436SOL     OW 9788   2.943   0.193   4.300  0.1369 -0.0154 -0.3406
 2436SOL    HW2 9789   2.928   0.114   4.248 -0.1622  0.0969 -0.4262
 2436SOL    HW3 9790   2.877   0.255   4.269 -0.3253 -0.0868  0.4663
 2436SOL    MW4 9791   2.932   0.190   4.289  0.0365 -0.0100 -0.2456
 2437SOL     OW 9792   2.473   3.061   4.148 -0.3525  0.3813 -0.2395
 2437SOL    HW2 9793   2.469   3.145   4.193 -0.0504 -0.1035  0.7185
 2437SOL    HW3 9794   2.393   3.015   4.175 -1.0779  0.7863 -1.6453
 2437SOL    MW4 9795   2.462   3.066   4.157 -0.4084  0.3705 -0.2985
 2438SOL     OW 9796   3.593   1.177   4.175 -0.6698  0.0628  0.4032
 2438SOL    HW2 9797   3.665   1.116   4.193 -0.5139  0.2579  0.4362
 2438SOL    HW3 9798   3.520   1.143   4.228 -0.5529 -0.0356  0.5020
 2438SOL    MW4 9799   3.593   1.165   4.184 -0.6337  0.0755  0.4201
 2439SOL     OW 9800   2.689   4.215   4.236  0.2608  0.1106  0.5254
 2439SOL    HW2 9801   2.769   4.172   4.266  1.0012  1.6159  0.7905
 2439SOL    HW3 9802   2.706   4.308   4.251 -0.5926  0.6497 -1.6487
 2439SOL    MW4 9803   2.702   4.222   4.242  0.2460  0.3805  0.2732
 2440SOL     OW 9804   3.632   1.909   4.196 -0.1841  0.0580 -0.1613
 2440SOL    HW2 9805   3.639   2.005   4.203  0.9726 -0.0178 -0.1443
 2440SOL    HW3 9806   3.552   1.887   4.244 -0.0008  0.9398  0.5668
 2440SOL    MW4 9807   3.623   1.919   4.203 -0.0072  0.1644 -0.0625
 2441SOL     OW 9808   1.060   4.057   4.259 -0.3255 -0.1716  0.0251
 2441SOL    HW2 9809   1.077   4.017   4.344  0.7923 -0.3557 -0.2819
 2441SOL    HW3 9810   1.134   4.115   4.244  0.4920 -1.5854 -1.6980
 2441SOL    MW4 9811   1.072   4.059   4.268 -0.0702 -0.3819 -0.2432
 2442SOL     OW 9812   2.379   0.914   4.328 -0.1940  0.1097  0.3998
 2442SOL    HW2 9813   2.321   0.984   4.298 -0.1020 -0.0285 -0.1084
 2442SOL    HW3 9814   2.458   0.958   4.357 -0.6157  0.3102  1.2335
 2442SOL    MW4 9815   2.381   0.929   4.328 -0.2377  0.1180  0.4425
 2443SOL     OW 9816   0.001   2.976   4.269 -0.1167  0.1077 -0.6520
 2443SOL    HW2 9817   0.068   3.032   4.308  0.3427 -0.3890 -0.7060
 2443SOL    HW3 9818  -0.048   2.941   4.343 -0.8142  1.0815 -0.6524
 2443SOL    MW4 9819   0.003   2.979   4.284 -0.1478  0.1705 -0.6590
 2444SOL     OW 9820   2.934   4.139   4.315 -0.1499 -0.0970  0.2950
 2444SOL    HW2 9821   2.920   4.135   4.409 -0.4323 -0.5155  0.2397
 2444SOL    HW3 9822   2.931   4.047   4.287  1.5856 -0.1086  0.1144
 2444SOL    MW4 9823   2.932   4.126   4.324  0.0420 -0.1531  0.2637
 2445SOL     OW 9824   3.364   4.154   4.331  0.1694 -0.0175 -0.1930
 2445SOL    HW2 9825   3.329   4.073   4.293 -0.7195  0.2211  0.1070
 2445SOL    HW3 9826   3.319   4.163   4.414  3.5071 -1.5437  1.8816
 2445SOL    MW4 9827   3.353   4.144   4.337  0.4926 -0.1879  0.1206
 2446SOL     OW 9828   2.450   1.531   4.153 -0.0061  0.2235  0.1358
 2446SOL    HW2 9829   2.445   1.619   4.191 -0.7854  1.1703 -2.0992
 2446SOL    HW3 9830   2.437   1.544   4.060  0.9351 -2.1721 -0.3736
 2446SOL    MW4 9831   2.448   1.544   4.146  0.0155  0.0324 -0.2270
 2447SOL     OW 9832   3.777   3.368   4.244 -0.2059 -0.3932  0.2266
 2447SOL    HW2 9833   3.785   3.352   4.338  0.0721 -0.1474  0.2456
 2447SOL    HW3 9834   3.863   3.401   4.218 -0.5232  0.2823  0.0321
 2447SOL    MW4 9835   3.789   3.370   4.253 -0.2112 -0.2718  0.2036
 2448SOL     OW 9836   4.298   2.380   4.502  0.3276  0.4542  0.2241
 2448SOL    HW2 9837   4.367   2.446   4.491 -0.8599  1.4353 -1.4505
 2448SOL    HW3 9838   4.220   2.431   4.525 -0.6625 -0.3249 -1.3578
 2448SOL    MW4 9839   4.297   2.396   4.504  0.0405  0.4809 -0.2055
 2449SOL     OW 9840   0.267   3.233   4.627  0.6244  0.2651  0.2393
 2449SOL    HW2 9841   0.217   3.309   4.599 -0.3269 -1.1698 -2.1304
 2449SOL    HW3 9842   0.359   3.262   4.625  0.2547  1.4150 -0.3670
 2449SOL    MW4 9843   0.273   3.247   4.623  0.4501  0.2272 -0.1535
 2450SOL     OW 9844   0.013   2.572   4.539  0.0706  0.0485 -0.5458
 2450SOL    HW2 9845   0.072   2.561   4.614  0.5692  1.3566 -0.7380
 2450SOL    HW3 9846   0.070   2.563   4.463 -0.0720  0.7746 -0.7375
 2450SOL    MW4 9847   0.028   2.570   4.539  0.1176  0.3169 -0.5965
 2451SOL     OW 9848   4.068   1.129   4.207  0.1413 -0.0474 -0.3745
 2451SOL    HW2 9849   3.981   1.090   4.219  0.0966 -0.1260 -0.9469
 2451SOL    HW3 9850   4.129   1.057   4.224  0.1514  0.3784  1.5530
 2451SOL    MW4 9851   4.065   1.114   4.211  0.1369 -0.0015 -0.1955
 2452SOL     OW 9852   2.241   1.376   4.270 -0.3904  0.0814  0.7744
 2452SOL    HW2 9853   2.319   1.420   4.236  0.0150 -0.3543  1.1293
 2452SOL    HW3 9854   2.168   1.422   4.230  0.0535  0.4450  0.3784
 2452SOL    MW4 9855   2.242   1.388   4.260 -0.2785  0.0719  0.7691
 2453SOL     OW 9856   4.078   2.377   4.305 -0.4983 -0.4699 -0.0077
 2453SOL    HW2 9857   4.045   2.295   4.342 -0.1216 -0.0653  1.2595
 2453SOL    HW3 9858   4.067   2.441   4.376  1.2188  0.0891 -0.2386
 2453SOL    MW4 9859   4.072   2.375   4.319 -0.2217 -0.3428  0.1292
 2454SOL     OW 9860   2.221   3.459   3.898 -0.2625 -0.0423 -0.4921
 2454SOL    HW2 9861   2.250   3.466   3.988 -1.3388  1.2136 -0.2210
 2454SOL    HW3 9862   2.289   3.502   3.847  0.1976 -0.4817 -0.2480
 2454SOL    MW4 9863   2.234   3.465   3.903 -0.3438  0.0651 -0.4241
 2455SOL     OW 9864   1.740   3.922   4.570 -0.1761  0.0326  0.0375
 2455SOL    HW2 9865   1.796   3.887   4.500 -1.8955  1.2569 -2.0288
 2455SOL    HW3 9866   1.800   3.968   4.628  1.2284 -0.3463 -1.0747
 2455SOL    MW4 9867   1.756   3.924   4.568 -0.2178  0.1442 -0.3815
 2456SOL     OW 9868   4.328   3.464   4.553  0.2064  0.2359 -0.0361
 2456SOL    HW2 9869   4.295   3.435   4.639 -1.2279  0.7446 -0.3913
 2456SOL    HW3 9870   4.302   3.556   4.547  1.2609  0.5107 -0.5691
 2456SOL    MW4 9871   4.320   3.472   4.564  0.1564  0.3395 -0.1531
 2457SOL     OW 9872   1.791   3.743   4.337 -0.7539  0.1316 -0.2098
 2457SOL    HW2 9873   1.860   3.773   4.278 -1.4048  2.0682 -0.0282
 2457SOL    HW3 9874   1.764   3.658   4.302  0.6782  0.0484 -1.1459
 2457SOL    MW4 9875   1.797   3.736   4.325 -0.6508  0.3762 -0.3090
 2458SOL     OW 9876   2.699   3.498   3.852 -0.3890  0.2326 -0.2131
 2458SOL    HW2 9877   2.772   3.560   3.851  0.5837 -0.8835 -0.2156
 2458SOL    HW3 9878   2.677   3.489   3.945 -0.9924  1.1038 -0.2704
 2458SOL    MW4 9879   2.706   3.505   3.864 -0.3402  0.2000 -0.2215
 2459SOL     OW 9880   1.135   1.011   4.272 -0.1526  0.4914  0.1538
 2459SOL    HW2 9881   1.143   1.044   4.362  1.0442 -0.2479  0.3281
 2459SOL    HW3 9882   1.048   1.039   4.244 -0.9010 -0.0823  1.8717
 2459SOL    MW4 9883   1.124   1.019   4.280 -0.0933  0.3182  0.4034
 2460SOL     OW 9884   3.385   2.339   4.159  0.4805 -0.1527  0.1561
 2460SOL    HW2 9885   3.379   2.361   4.066  0.8600 -0.7492 -0.0146
 2460SOL    HW3 9886   3.375   2.422   4.204 -2.5328 -0.2122 -0.3072
 2460SOL    MW4 9887   3.383   2.353   4.153  0.1328 -0.2394  0.0730
 2461SOL     OW 9888   0.462   1.188   4.236 -0.7815 -0.3704 -0.2547
 2461SOL    HW2 9889   0.539   1.137   4.263  0.6964  0.9648 -1.8166
 2461SOL    HW3 9890   0.478   1.207   4.144 -3.1031 -0.2127 -0.6389
 2461SOL    MW4 9891   0.474   1.184   4.228 -0.8928 -0.1734 -0.5112
 2462SOL     OW 9892   1.373   1.890   3.893  0.2182 -0.3189  0.2667
 2462SOL    HW2 9893   1.314   1.934   3.832  1.0236  0.5092  0.0697
 2462SOL    HW3 9894   1.360   1.797   3.876 -0.2315 -0.1167 -0.5429
 2462SOL    MW4 9895   1.364   1.884   3.883  0.2650 -0.1830  0.1340
 2463SOL     OW 9896   3.383   4.518   4.834  0.6752 -0.1565  0.2280
 2463SOL    HW2 9897   3.331   4.590   4.798 -2.1451 -2.4837 -0.5788
 2463SOL    HW3 9898   3.400   4.461   4.759 -0.3623 -2.1851  1.4886
 2463SOL    MW4 9899   3.379   4.520   4.819  0.1659 -0.7315  0.2880
 2464SOL     OW 9900   1.557   2.319   3.942 -0.0330  0.2352 -0.6160
 2464SOL    HW2 9901   1.567   2.232   3.904  0.3977  0.3378 -0.7411
 2464SOL    HW3 9902   1.634   2.367   3.913  0.1342  0.4170  0.1121
 2464SOL    MW4 9903   1.568   2.314   3.933  0.0459  0.2728 -0.5364
 2465SOL     OW 9904   2.049   1.808   4.546 -0.0649 -0.2116  0.5644
 2465SOL    HW2 9905   2.058   1.891   4.593 -1.5941 -0.0379  0.5737
 2465SOL    HW3 9906   2.137   1.770   4.548  0.3548  0.7830  1.7209
 2465SOL    MW4 9907   2.062   1.814   4.553 -0.2115 -0.0575  0.7181
 2466SOL     OW 9908   2.488   2.306   3.871 -0.0400 -0.3693  0.2852
 2466SOL    HW2 9909   2.485   2.319   3.966  0.3317 -0.7970  0.3555
 2466SOL    HW3 9910   2.402   2.335   3.841 -0.3410 -0.6946  0.8124
 2466SOL    MW4 9911   2.476   2.311   3.880 -0.0305 -0.4687  0.3643
 2467SOL     OW 9912   2.152   4.557   4.546  0.1983 -0.1063  0.0012
 2467SOL    HW2 9913   2.178   4.539   4.456 -0.6477 -1.2022 -0.0269
 2467SOL    HW3 9914   2.103   4.639   4.541 -1.4677 -1.1273 -0.8251
 2467SOL    MW4 9915   2.149   4.565   4.534 -0.1330 -0.3862 -0.1116
 2468SOL     OW 9916   3.524   3.007   4.482  0.6087  0.3198 -0.5056
 2468SOL    HW2 9917   3.534   2.990   4.388  1.0457  0.4388 -0.4807
 2468SOL    HW3 9918   3.609   2.985   4.519 -0.1151 -1.4843  0.1256
 2468SOL    MW4 9919   3.536   3.002   4.474  0.5708  0.0973 -0.4191
 2469SOL     OW 9920   0.215   2.338   4.186 -0.5495 -0.2868 -0.0966
 2469SOL    HW2 9921   0.209   2.353   4.092  0.3350 -1.3829 -0.3374
 2469SOL    HW3 9922   0.291   2.282   4.197 -1.5378 -1.4320  1.1316
 2469SOL    MW4 9923   0.224   2.332   4.175 -0.5632 -0.5825  0.0334
 2470SOL     OW 9924   1.374   1.133   4.171  0.2491 -0.0661  0.6875
 2470SOL    HW2 9925   1.284   1.112   4.196  0.0125  0.6052  0.4206
 2470SOL    HW3 9926   1.373   1.129   4.075  0.2018  1.1230  0.6329
 2470SOL    MW4 9927   1.362   1.130   4.162  0.2116  0.1793  0.6447
 2471SOL     OW 9928   2.240   2.692   4.160  0.3132 -0.2475  0.1698
 2471SOL    HW2 9929   2.230   2.779   4.199 -1.6472 -0.5787  0.4340
 2471SOL    HW3 9930   2.164   2.642   4.191  1.0719 -1.8643 -0.5041
 2471SOL    MW4 9931   2.229   2.697   4.169  0.1545 -0.5043  0.1154
 2472SOL     OW 9932   3.969   0.555   4.689 -0.2922  0.7720  0.0110
 2472SOL    HW2 9933   4.014   0.522   4.612  2.5175  0.8467  1.5477
 2472SOL    HW3 9934   3.930   0.478   4.729 -0.1420  0.4458 -0.4745
 2472SOL    MW4 9935   3.970   0.541   4.684  0.0982  0.7389  0.1497
 2473SOL     OW 9936   3.380   1.328   4.584 -0.2259 -0.1529 -0.1413
 2473SOL    HW2 9937   3.407   1.237   4.573 -0.0964 -0.1019 -0.2440
 2473SOL    HW3 9938   3.447   1.379   4.539  0.8780  0.1203  1.7650
 2473SOL    MW4 9939   3.392   1.323   4.577 -0.0632 -0.1100  0.0963
 2474SOL     OW 9940   3.190   4.526   4.242  0.2726 -0.1182 -0.1637
 2474SOL    HW2 9941   3.188   4.527   4.338 -0.5614  0.8262 -0.1756
 2474SOL    HW3 9942   3.181   4.434   4.218 -0.2808 -0.2783  0.6588
 2474SOL    MW4 9943   3.189   4.514   4.251  0.0894 -0.0153 -0.0567
 2475SOL     OW 9944   0.190   3.374   4.259 -0.0964 -0.4629 -0.6489
 2475SOL    HW2 9945   0.266   3.427   4.236  0.4320 -1.4258 -1.1668
 2475SOL    HW3 9946   0.114   3.428   4.235  0.4132  0.7937  0.5540
 2475SOL    MW4 9947   0.190   3.388   4.253  0.0405 -0.4244 -0.5589
 2476SOL     OW 9948   3.816   2.057   4.544  0.4568 -0.6280 -0.0354
 2476SOL    HW2 9949   3.822   1.963   4.560  0.9774 -0.4540  0.8157
 2476SOL    HW3 9950   3.872   2.072   4.468  0.3712 -0.9986 -0.1754
 2476SOL    MW4 9951   3.824   2.047   4.536  0.5140 -0.6540  0.0587
 2477SOL     OW 9952   3.083   4.329   4.667 -0.2185  0.3780 -0.1202
 2477SOL    HW2 9953   3.140   4.325   4.743 -0.2084  0.3226 -0.1313
 2477SOL    HW3 9954   3.000   4.362   4.701 -0.5012 -0.5310  0.0832
 2477SOL    MW4 9955   3.080   4.333   4.681 -0.2546  0.2513 -0.0949
 2478SOL     OW 9956   3.437   4.406   4.586 -0.6218 -0.1575  0.1674
 2478SOL    HW2 9957   3.483   4.322   4.588 -1.4453 -0.6479 -1.2419
 2478SOL    HW3 9958   3.500   4.466   4.546 -0.4637 -0.3584  0.1135
 2478SOL    MW4 9959   3.452   4.403   4.581 -0.7095 -0.2494 -0.0253
 2479SOL     OW 9960   1.303   1.285   4.501 -0.2659 -0.3916 -0.4426
 2479SOL    HW2 9961   1.265   1.356   4.553  0.2761 -0.9678  0.7806
 2479SOL    HW3 9962   1.312   1.321   4.413 -1.5741  0.4733 -0.2323
 2479SOL    MW4 9963   1.300   1.299   4.497 -0.3670 -0.3536 -0.2537
 2480SOL     OW 9964   1.620   0.523   3.811 -0.3346  0.0638  0.2768
 2480SOL    HW2 9965   1.704   0.498   3.850  0.2398  0.4723 -0.6836
 2480SOL    HW3 9966   1.607   0.614   3.838  1.0296  1.0034 -2.0726
 2480SOL    MW4 9967   1.629   0.532   3.820 -0.0788  0.2417 -0.1602
 2481SOL     OW 9968   1.532   2.590   4.319 -0.0813  0.1468 -0.2103
 2481SOL    HW2 9969   1.531   2.495   4.306  0.7320 -0.0371  0.9792
 2481SOL    HW3 9970   1.461   2.623   4.264  0.2980 -1.0453 -1.4447
 2481SOL    MW4 9971   1.523   2.582   4.310  0.0762 -0.0348 -0.2165
 2482SOL     OW 9972   3.556   3.801   4.318 -0.7654  0.3049  0.3675
 2482SOL    HW2 9973   3.562   3.714   4.279  0.6814  0.0511  1.1415
 2482SOL    HW3 9974   3.646   3.831   4.325 -1.2054  1.5607  0.8179
 2482SOL    MW4 9975   3.569   3.794   4.314 -0.6325  0.4373  0.5293
 2483SOL     OW 9976   0.420   3.257   3.793  0.1823  0.3613 -0.3963
 2483SOL    HW2 9977   0.507   3.221   3.811  0.8716  2.0288 -0.2853
 2483SOL    HW3 9978   0.417   3.337   3.845 -0.4463  1.6406 -2.3899
 2483SOL    MW4 9979   0.431   3.263   3.802  0.1903  0.7503 -0.6444
 2484SOL     OW 9980   2.225   3.732   4.274  0.0938 -0.2162  0.1169
 2484SOL    HW2 9981   2.228   3.706   4.366  0.5792  1.0649  0.4697
 2484SOL    HW3 9982   2.141   3.775   4.263  0.0570 -0.3234 -0.0289
 2484SOL    MW4 9983   2.215   3.734   4.284  0.1533 -0.0613  0.1445
 2485SOL     OW 9984   2.649   4.243   4.849 -0.7092 -0.2633 -0.1856
 2485SOL    HW2 9985   2.564   4.275   4.818 -0.7973  0.7246  1.0237
 2485SOL    HW3 9986   2.630   4.156   4.882 -0.8551 -0.8354 -1.7415
 2485SOL    MW4 9987   2.635   4.236   4.849 -0.7401 -0.2084 -0.2308
 2486SOL     OW 9988   1.688   4.415   4.540 -0.2528 -0.4122 -0.2326
 2486SOL    HW2 9989   1.692   4.457   4.454 -0.6769  0.0193 -0.0419
 2486SOL    HW3 9990   1.652   4.328   4.522 -0.7531 -0.1660 -0.4380
 2486SOL    MW4 9991   1.683   4.409   4.526 -0.3747 -0.3228 -0.2341
 2487SOL     OW 9992   0.914   1.178   4.209  0.6972 -0.1120 -0.1668
 2487SOL    HW2 9993   0.896   1.266   4.243 -1.2828 -0.7910  0.6327
 2487SOL    HW3 9994   0.894   1.183   4.116  0.2763  0.1878 -0.0578
 2487SOL    MW4 9995   0.909   1.190   4.201  0.3805 -0.1621 -0.0467
 2488SOL     OW 9996   2.562   1.738   4.513 -0.2530  0.0451  0.6201
 2488SOL    HW2 9997   2.642   1.788   4.528 -0.2199  0.5153 -1.0492
 2488SOL    HW3 9998   2.526   1.773   4.431 -1.4374 -1.1006  0.6274
 2488SOL    MW4 9999   2.568   1.749   4.504 -0.4046 -0.0440  0.4010
 2489SOL     OW10000   0.849   0.979   4.567  0.5053  0.4787  0.4578
 2489SOL    HW210001   0.857   0.884   4.558 -0.1500  0.3993  0.6990
 2489SOL    HW310002   0.938   1.012   4.554  0.5272 -0.0697 -0.8373
 2489SOL    MW410003   0.862   0.971   4.564  0.4218  0.3958  0.3190
 2490SOL     OW10004   4.315   4.443   4.730 -0.0552  0.1682 -0.1711
 2490SOL    HW210005   4.370   4.377   4.772 -1.5906 -1.6537 -0.9661
 2490SOL    HW310006   4.364   4.468   4.651 -0.3409 -1.4367 -0.8665
 2490SOL    MW410007   4.329   4.438   4.725 -0.2956 -0.2837 -0.3672
 2491SOL     OW10008   1.105   3.113   4.096 -0.0625  0.5554  0.3818
 2491SOL    HW210009   1.019   3.074   4.113 -0.6247  0.8078 -1.7917
 2491SOL    HW310010   1.103   3.197   4.142 -0.5882  0.0935  1.2090
 2491SOL    MW410011   1.093   3.119   4.104 -0.2060  0.5279  0.2046
 2492SOL     OW10012   2.671   2.730   3.866  0.8046  0.2494 -0.0938
 2492SOL    HW210013   2.592   2.775   3.836  0.7788  1.3443  1.5564
 2492SOL    HW310014   2.662   2.641   3.831 -0.2548  0.8620 -1.4534
 2492SOL    MW410015   2.659   2.724   3.857  0.6616  0.4747 -0.0551
 2493SOL     OW10016   2.065   3.129   4.117 -0.3752  0.0709 -0.1881
 2493SOL    HW210017   2.065   3.149   4.024 -0.1828  3.5929  0.5172
 2493SOL    HW310018   1.982   3.084   4.133 -2.0627  2.6730 -1.4283
 2493SOL    MW410019   2.054   3.125   4.107 -0.5722  0.8788 -0.2589
 2494SOL     OW10020   4.217   0.002   4.846 -0.3643  0.3290 -0.0715
 2494SOL    HW210021   4.261  -0.075   4.812  0.8903  0.7019  0.6742
 2494SOL    HW310022   4.163  -0.031   4.918 -0.2978  0.0672 -0.1414
 2494SOL    MW410023   4.216  -0.012   4.851 -0.1903  0.3438  0.0172
 2495SOL     OW10024   4.482   4.325   3.874 -0.9200 -0.0032 -0.2863
 2495SOL    HW210025   4.460   4.311   3.966  3.3705 -2.8672  0.4213
 2495SOL    HW310026   4.502   4.238   3.840 -0.3591  1.2628 -3.3919
 2495SOL    MW410027   4.482   4.312   3.881 -0.2799 -0.2141 -0.6025
 2496SOL     OW10028   1.492   3.792   4.636  0.3037  0.2461 -0.4122
 2496SOL    HW210029   1.581   3.822   4.614  0.2358  0.2235 -0.7243
 2496SOL    HW310030   1.446   3.871   4.664  0.3866  0.2788 -0.3687
 2496SOL    MW410031   1.498   3.806   4.637  0.3057  0.2472 -0.4478
 2497SOL     OW10032   2.224   0.297   4.643  0.2851  0.0987 -0.4679
 2497SOL    HW210033   2.236   0.389   4.617  2.0323  0.1743  0.5094
 2497SOL    HW310034   2.207   0.300   4.737  0.6282 -0.5923 -0.3786
 2497SOL    MW410035   2.223   0.310   4.652  0.5610  0.0175 -0.3271
 2498SOL     OW10036   2.675   2.323   4.612  0.5514 -0.4493  0.3021
 2498SOL    HW210037   2.752   2.359   4.655  0.2925 -1.0014  1.2514
 2498SOL    HW310038   2.700   2.233   4.590  0.1451 -0.6786  0.7457
 2498SOL    MW410039   2.688   2.316   4.615  0.4637 -0.5524  0.4854
 2499SOL     OW10040   3.167   1.170   4.178  0.0024  0.2111  0.3998
 2499SOL    HW210041   3.096   1.119   4.218  1.1923 -0.9572  1.0658
 2499SOL    HW310042   3.154   1.259   4.211 -0.2449 -0.3160  1.7793
 2499SOL    MW410043   3.156   1.175   4.188  0.1268 -0.0126  0.6700
 2500SOL     OW10044   2.981   1.802   4.249  0.3758  0.2617  0.1651
 2500SOL    HW210045   2.998   1.784   4.342  1.2368 -0.3192 -0.1007
 2500SOL    HW310046   3.045   1.869   4.225  0.7117 -0.1997 -0.2263
 2500SOL    MW410047   2.992   1.808   4.258  0.5338  0.1240  0.0782
 2501SOL     OW10048   1.750   4.483   4.293  0.3632 -0.1803 -0.2333
 2501SOL    HW210049   1.822   4.520   4.241  1.0230 -1.4095 -0.2097
 2501SOL    HW310050   1.736   4.396   4.256 -0.3255 -0.4020  0.5324
 2501SOL    MW410051   1.758   4.477   4.281  0.3593 -0.3719 -0.1292
 2502SOL     OW10052   0.859   2.687   4.458  0.0956  0.1229 -0.0068
 2502SOL    HW210053   0.949   2.658   4.470  0.1467  0.6774  1.0029
 2502SOL    HW310054   0.865   2.783   4.451 -0.3251  0.0999 -0.7769
 2502SOL    MW410055   0.871   2.696   4.459  0.0468  0.1931  0.0248
 2503SOL     OW10056   0.538   3.603   4.607  0.1841  0.0818 -0.1274
 2503SOL    HW210057   0.531   3.507   4.609  2.2698 -0.0579  2.7747
 2503SOL    HW310058   0.619   3.620   4.558  0.6663  0.2818  0.7247
 2503SOL    MW410059   0.548   3.592   4.600  0.5229  0.0899  0.3681
 2504SOL     OW10060   4.486   0.749   4.386 -0.2215 -0.3188 -0.3142
 2504SOL    HW210061   4.419   0.814   4.366  0.6937  0.2656 -1.5804
 2504SOL    HW310062   4.546   0.753   4.311 -0.2600 -2.7612 -0.4965
 2504SOL    MW410063   4.485   0.758   4.373 -0.1059 -0.5639 -0.5054
 2505SOL     OW10064   0.914   0.658   4.258  0.3662  0.0044 -0.4977
 2505SOL    HW210065   0.843   0.718   4.234  0.5177 -0.0916 -1.1989
 2505SOL    HW310066   0.929   0.675   4.351 -0.4920  0.1095 -0.3722
 2505SOL    MW410067   0.907   0.668   4.267  0.2729  0.0056 -0.5736
 2506SOL     OW10068   0.401   1.433   4.348 -0.1555 -0.1275 -0.4344
 2506SOL    HW210069   0.336   1.483   4.299 -0.4119 -0.9162 -0.9117
 2506SOL    HW310070   0.395   1.345   4.312 -0.1873 -0.6726  0.8589
 2506SOL    MW410071   0.391   1.428   4.337 -0.1936 -0.3035 -0.3262
 2507SOL     OW10072   0.164   4.103   4.869  0.3835  0.4750  0.1872
 2507SOL    HW210073   0.210   4.120   4.951 -0.1232  0.4802  0.4722
 2507SOL    HW310074   0.229   4.121   4.801  0.1322  2.6568  0.5024
 2507SOL    MW410075   0.179   4.107   4.871  0.2835  0.7639  0.2661
 2508SOL     OW10076   1.319   2.978   4.195  0.0031 -0.0014 -0.5727
 2508SOL    HW210077   1.247   3.033   4.164  0.7906  2.5785  1.8978
 2508SOL    HW310078   1.326   2.998   4.288  2.5302 -1.8042 -0.3115
 2508SOL    MW410079   1.311   2.988   4.203  0.4404  0.1013 -0.2117
 2509SOL     OW10080   1.342   4.037   4.686  0.3612  0.4513 -0.5829
 2509SOL    HW210081   1.409   4.092   4.646 -0.6919  0.4002 -2.5167
 2509SOL    HW310082   1.275   4.098   4.715 -0.3643  0.2993 -1.8676
 2509SOL    MW410083   1.342   4.052   4.684  0.1264  0.4239 -1.0071
 2510SOL     OW10084   3.150   2.706   3.853 -0.1019 -0.1583 -0.1292
 2510SOL    HW210085   3.137   2.704   3.948 -0.8257  1.0534 -0.1905
 2510SOL    HW310086   3.078   2.760   3.820 -0.9061 -2.0390 -1.5636
 2510SOL    MW410087   3.139   2.713   3.861 -0.3035 -0.2465 -0.3266
 2511SOL     OW10088   0.730   3.178   4.532 -0.9247  0.1231 -0.1691
 2511SOL    HW210089   0.795   3.244   4.555 -0.1338 -1.0336  0.9972
 2511SOL    HW310090   0.781   3.106   4.493 -1.4122 -1.0038  1.2074
 2511SOL    MW410091   0.745   3.177   4.529 -0.8847 -0.1781  0.1659
 2512SOL     OW10092   3.172   2.225   4.251 -0.5298 -0.1035  0.1948
 2512SOL    HW210093   3.099   2.254   4.197 -0.2265  0.1263 -0.0894
 2512SOL    HW310094   3.249   2.265   4.212 -0.2429 -0.3819  0.4670
 2512SOL    MW410095   3.173   2.234   4.239 -0.4520 -0.1097  0.1931
 2513SOL     OW10096   0.003   0.352   4.142 -0.5751 -0.2727  0.3849
 2513SOL    HW210097  -0.005   0.369   4.048  0.7035 -0.3111  0.2631
 2513SOL    HW310098   0.081   0.297   4.150 -1.5188 -1.4910  1.3377
 2513SOL    MW410099   0.012   0.347   4.130 -0.5312 -0.4385  0.4940
 2514SOL     OW10100   1.360   2.441   3.803  0.3096  0.4316 -0.2135
 2514SOL    HW210101   1.284   2.388   3.825  0.1748  0.7135  0.0038
 2514SOL    HW310102   1.434   2.398   3.847  0.6816 -1.1989 -2.3304
 2514SOL    MW410103   1.360   2.429   3.811  0.3407  0.2537 -0.4640
 2515SOL     OW10104   1.556   0.986   4.341  0.1465 -0.2434 -0.2067
 2515SOL    HW210105   1.571   0.911   4.282  1.1506  0.2567 -0.5867
 2515SOL    HW310106   1.490   1.038   4.295  2.0202  0.9282 -1.6315
 2515SOL    MW410107   1.549   0.983   4.327  0.5262 -0.0228 -0.4449
 2516SOL     OW10108   0.018   3.463   3.908 -0.1930 -0.4946 -0.3436
 2516SOL    HW210109   0.025   3.376   3.869  1.3258 -0.9474  0.8681
 2516SOL    HW310110   0.096   3.509   3.877  0.7851 -0.7031  1.7221
 2516SOL    MW410111   0.029   3.458   3.899  0.1365 -0.5820  0.0889
 2517SOL     OW10112   1.789   1.400   4.277  0.2635  0.4511  0.2930
 2517SOL    HW210113   1.790   1.393   4.372  0.3659  0.9112  0.3274
 2517SOL    HW310114   1.779   1.310   4.246  2.6024  0.0320  0.6892
 2517SOL    MW410115   1.788   1.388   4.285  0.5854  0.4566  0.3495
 2518SOL     OW10116   3.149   1.414   4.289 -0.2705  0.2238 -0.4954
 2518SOL    HW210117   3.070   1.463   4.264 -0.6064  0.2669  0.6524
 2518SOL    HW310118   3.222   1.472   4.266 -0.6791  1.5575  1.4383
 2518SOL    MW410119   3.148   1.428   4.282 -0.3688  0.4054 -0.0892
 2519SOL     OW10120   2.695   2.709   4.150 -0.1181  0.1306 -0.0131
 2519SOL    HW210121   2.694   2.796   4.190  1.0182  0.2282 -0.1682
 2519SOL    HW310122   2.683   2.726   4.056 -1.6263 -0.0117  0.1515
 2519SOL    MW410123   2.694   2.723   4.143 -0.1671  0.1247 -0.0114
 2520SOL     OW10124   4.262   3.909   4.154  0.0482  0.6039 -0.3264
 2520SOL    HW210125   4.268   3.992   4.202  1.4343  0.2227  0.1752
 2520SOL    HW310126   4.196   3.859   4.201  0.5464  0.6991  0.4865
 2520SOL    MW410127   4.254   3.913   4.167  0.2961  0.5662 -0.1526
 2521SOL     OW10128   2.002   0.211   4.259  0.0423  0.0971  0.2477
 2521SOL    HW210129   2.090   0.242   4.239  0.2936 -0.3291  0.6949
 2521SOL    HW310130   2.006   0.180   4.350 -0.7207  0.6430  0.4760
 2521SOL    MW410131   2.014   0.211   4.268 -0.0253  0.1129  0.3371
 2522SOL     OW10132   3.628   3.974   3.842 -0.0164 -0.2653 -0.0459
 2522SOL    HW210133   3.637   4.068   3.858 -1.1081 -0.2320  0.4259
 2522SOL    HW310134   3.709   3.936   3.874 -0.2222  0.3478  1.2213
 2522SOL    MW410135   3.640   3.982   3.848 -0.1879 -0.1798  0.1833
 2523SOL     OW10136   4.400   4.140   4.553  0.0862 -0.5364  0.1729
 2523SOL    HW210137   4.380   4.157   4.645 -0.3881 -0.2922  0.0261
 2523SOL    HW310138   4.416   4.045   4.549 -0.7165 -0.6782  0.3586
 2523SOL    MW410139   4.400   4.129   4.564 -0.0820 -0.5226  0.1779
 2524SOL     OW10140   2.882   3.092   4.191 -0.4214  0.3064  0.2424
 2524SOL    HW210141   2.965   3.053   4.221 -0.5793 -0.5820 -0.4378
 2524SOL    HW310142   2.886   3.086   4.095 -1.7192 -0.7174  0.2321
 2524SOL    MW410143   2.893   3.086   4.182 -0.6132  0.0541  0.1516
 2525SOL     OW10144   2.526   1.215   4.598  0.1606  0.2109 -0.1972
 2525SOL    HW210145   2.578   1.295   4.600  0.1066  0.2355  0.1720
 2525SOL    HW310146   2.435   1.245   4.595  0.1127  0.1634  0.6584
 2525SOL    MW410147   2.520   1.230   4.598  0.1471  0.2079 -0.0358
 2526SOL     OW10148   4.316   4.508   4.284  0.0099 -0.1371 -0.2636
 2526SOL    HW210149   4.332   4.590   4.238  0.1856  0.4064  0.7534
 2526SOL    HW310150   4.220   4.501   4.288 -0.0091 -0.4176 -1.1069
 2526SOL    MW410151   4.305   4.518   4.279  0.0310 -0.1025 -0.2408
 2527SOL     OW10152   2.833   4.412   4.720 -0.5436  0.1393  0.3977
 2527SOL    HW210153   2.777   4.373   4.787  0.2867 -0.7288  0.5819
 2527SOL    HW310154   2.772   4.459   4.663 -1.3174  0.3567  1.3924
 2527SOL    MW410155   2.817   4.413   4.721 -0.5364  0.0529  0.5531
 2528SOL     OW10156   0.837   3.457   4.118 -0.0918  0.1459  0.4184
 2528SOL    HW210157   0.846   3.475   4.024 -0.3626 -0.1409  0.3353
 2528SOL    HW310158   0.919   3.413   4.142 -0.6343 -1.1255 -0.0102
 2528SOL    MW410159   0.849   3.453   4.108 -0.1991 -0.0596  0.3510
 2529SOL     OW10160   0.196   0.165   4.164  0.5531 -0.1725  0.2404
 2529SOL    HW210161   0.205   0.100   4.095  2.6623  0.4175 -0.0857
 2529SOL    HW310162   0.217   0.117   4.244 -1.1750 -0.6800  0.4037
 2529SOL    MW410163   0.200   0.150   4.165  0.6034 -0.1616  0.2189
 2530SOL     OW10164   2.252   2.735   3.890 -0.0955  0.1591 -0.0898
 2530SOL    HW210165   2.237   2.730   3.984 -0.0451  0.0827 -0.0854
 2530SOL    HW310166   2.253   2.643   3.861  0.6034  0.1528 -0.0532
 2530SOL    MW410167   2.250   2.722   3.898  0.0033  0.1481 -0.0846
 2531SOL     OW10168   4.058   1.888   4.218 -0.3278 -0.8501  0.2149
 2531SOL    HW210169   4.047   1.904   4.125  1.2638  3.0296  0.6109
 2531SOL    HW310170   4.136   1.832   4.224  1.2497  1.2191 -0.6595
 2531SOL    MW410171   4.067   1.883   4.207  0.0906 -0.0652  0.1512
 2532SOL     OW10172   3.209   3.299   4.662  0.6206 -0.3628  0.1821
 2532SOL    HW210173   3.234   3.389   4.682 -0.2204  0.0993 -0.8344
 2532SOL    HW310174   3.267   3.274   4.590 -0.2623 -0.0677 -0.6394
 2532SOL    MW410175   3.220   3.308   4.656  0.3934 -0.2630 -0.0606
 2533SOL     OW10176   4.314   3.145   4.150  0.2029 -0.3547 -0.2768
 2533SOL    HW210177   4.304   3.131   4.056 -1.8565 -1.6140  0.1030
 2533SOL    HW310178   4.385   3.085   4.175  1.4409  0.7017 -1.1700
 2533SOL    MW410179   4.322   3.135   4.141  0.0944 -0.3817 -0.3448
 2534SOL     OW10180   1.090   1.517   4.170 -0.0784 -0.3266  0.0773
 2534SOL    HW210181   1.168   1.480   4.211 -0.3390 -0.6728  0.2592
 2534SOL    HW310182   1.095   1.611   4.190 -0.2764 -0.5136  1.0136
 2534SOL    MW410183   1.101   1.525   4.178 -0.1390 -0.3970  0.2246
 2535SOL     OW10184   0.873   1.432   4.308  0.0492 -0.0676  0.3028
 2535SOL    HW210185   0.804   1.465   4.251  0.6324 -1.2191 -1.1047
 2535SOL    HW310186   0.955   1.459   4.265  0.4965 -1.0237  0.5465
 2535SOL    MW410187   0.875   1.440   4.295  0.1851 -0.3457  0.1497
 2536SOL     OW10188   1.304   3.448   3.872  0.0146 -0.0842 -0.2170
 2536SOL    HW210189   1.243   3.506   3.828  0.2898  1.4990  1.4472
 2536SOL    HW310190   1.390   3.485   3.855  0.1865  0.0543  0.9321
 2536SOL    MW410191   1.307   3.460   3.864  0.0734  0.1431  0.1543
 2537SOL     OW10192   3.582   2.193   4.482 -0.0044 -0.1016  0.4117
 2537SOL    HW210193   3.585   2.195   4.387  0.0477 -0.1654  0.4116
 2537SOL    HW310194   3.648   2.128   4.507  0.2599  0.1972  0.5005
 2537SOL    MW410195   3.591   2.185   4.473  0.0372 -0.0706  0.4230
 2538SOL     OW10196   4.405   0.474   4.402 -0.0030 -0.1252  0.2702
 2538SOL    HW210197   4.428   0.566   4.409 -1.7879  0.2831  0.8415
 2538SOL    HW310198   4.433   0.449   4.314 -0.8856  1.3455 -0.4359
 2538SOL    MW410199   4.412   0.483   4.391 -0.3552  0.1227  0.2522
 2539SOL     OW10200   0.888   2.978   4.421  0.0800 -0.3918 -0.4462
 2539SOL    HW210201   0.962   3.035   4.444 -0.3832  0.2959 -0.6488
 2539SOL    HW310202   0.877   2.991   4.327  1.2352 -2.3266 -0.8697
 2539SOL    MW410203   0.897   2.987   4.412  0.1714 -0.5565 -0.5293
 2540SOL     OW10204   2.275   0.553   4.263  0.1779 -0.2511  0.0344
 2540SOL    HW210205   2.358   0.595   4.242  1.0321 -1.6034  0.6297
 2540SOL    HW310206   2.288   0.461   4.240 -1.5769 -0.2557 -1.0346
 2540SOL    MW410207   2.288   0.546   4.257  0.0591 -0.4301 -0.0281
 2541SOL     OW10208   0.459   1.183   3.932 -0.0654  0.1942  0.3396
 2541SOL    HW210209   0.377   1.225   3.906 -0.0026 -0.6527 -1.3129
 2541SOL    HW310210   0.449   1.092   3.903  1.5310  0.1348 -0.0838
 2541SOL    MW410211   0.447   1.177   3.925  0.1535  0.0745  0.0658
 2542SOL     OW10212   0.794   0.300   4.477  0.0838 -0.6894  0.0995
 2542SOL    HW210213   0.740   0.244   4.532  0.3383 -0.1618  0.8881
 2542SOL    HW310214   0.884   0.279   4.503  0.3162 -2.2479 -1.8614
 2542SOL    MW410215   0.799   0.290   4.488  0.1480 -0.8254 -0.0553
 2543SOL     OW10216   1.108   2.335   4.166  0.1431 -0.5009  0.2224
 2543SOL    HW210217   1.160   2.267   4.210  1.1711 -0.7208 -1.2914
 2543SOL    HW310218   1.018   2.302   4.170  0.3638 -1.0221  1.2104
 2543SOL    MW410219   1.103   2.322   4.173  0.3078 -0.5987  0.1531
 2544SOL     OW10220   0.357   2.738   4.158  0.0923  0.1210  0.0339
 2544SOL    HW210221   0.363   2.833   4.150  1.0368  0.1228  0.6687
 2544SOL    HW310222   0.371   2.705   4.069 -0.0000  0.5649 -0.1441
 2544SOL    MW410223   0.359   2.746   4.145  0.2048  0.1800  0.0939
 2545SOL     OW10224   0.248   3.940   4.204 -0.3131 -0.2212  0.0074
 2545SOL    HW210225   0.165   3.892   4.209 -0.4244  0.0439  0.6352
 2545SOL    HW310226   0.225   4.031   4.221 -0.2166  0.1958 -1.8783
 2545SOL    MW410227   0.234   3.946   4.207 -0.3151 -0.1309 -0.1583
 2546SOL     OW10228   4.014   2.525   3.765  0.4479 -0.5972  0.2574
 2546SOL    HW210229   4.040   2.605   3.812 -0.6229  0.1246 -0.3716
 2546SOL    HW310230   3.945   2.487   3.819  0.4413 -0.7147  0.1669
 2546SOL    MW410231   4.009   2.531   3.779  0.3057 -0.5178  0.1624
 2547SOL     OW10232   2.981   3.631   4.838  0.1699  0.1698  0.8425
 2547SOL    HW210233   2.988   3.720   4.873  0.5403  0.6717 -0.4972
 2547SOL    HW310234   3.054   3.623   4.777 -1.2212 -0.2463 -0.8145
 2547SOL    MW410235   2.991   3.642   4.835  0.0350  0.1807  0.4468
 2548SOL     OW10236   1.542   1.216   4.650  0.4916  0.0280 -0.3740
 2548SOL    HW210237   1.516   1.246   4.737  0.4957  0.6060 -0.5715
 2548SOL    HW310238   1.462   1.225   4.597  0.8002  0.7690 -0.7114
 2548SOL    MW410239   1.528   1.221   4.655  0.5329  0.2019 -0.4444
 2549SOL     OW10240   0.359   0.557   4.307 -0.0395 -0.1344 -0.4943
 2549SOL    HW210241   0.307   0.508   4.371  0.6519  1.0564  1.0159
 2549SOL    HW310242   0.385   0.492   4.242  0.7218 -1.7542  1.3764
 2549SOL    MW410243   0.355   0.542   4.307  0.1521 -0.1910 -0.0482
 2550SOL     OW10244   3.438   4.635   4.165 -0.2685  0.6157  0.4044
 2550SOL    HW210245   3.360   4.593   4.202 -1.2880  1.1302 -1.1047
 2550SOL    HW310246   3.510   4.577   4.190 -1.1519  0.0549  1.6999
 2550SOL    MW410247   3.437   4.622   4.173 -0.5198  0.6094  0.3762
 2551SOL     OW10248   4.404   1.936   4.173 -0.0926  0.0641  0.2204
 2551SOL    HW210249   4.410   2.026   4.206 -0.5535 -0.3073  1.3440
 2551SOL    HW310250   4.360   1.888   4.243 -1.1733 -0.7347 -0.9854
 2551SOL    MW410251   4.399   1.941   4.186 -0.2961 -0.0904  0.2093
 2552SOL     OW10252   2.002   3.383   4.235  0.4353  0.6776  0.0248
 2552SOL    HW210253   1.979   3.361   4.326 -2.3956  0.0210 -0.7997
 2552SOL    HW310254   2.012   3.299   4.191  0.5143  0.9963 -0.5704
 2552SOL    MW410255   2.000   3.369   4.241  0.0727  0.6328 -0.1621
 2553SOL     OW10256   0.967   1.965   4.643 -0.3255 -0.0453  0.5739
 2553SOL    HW210257   0.897   1.900   4.643  0.4150 -0.8667  0.6092
 2553SOL    HW310258   0.952   2.017   4.564  0.5274 -1.9032 -0.8648
 2553SOL    MW410259   0.956   1.963   4.632 -0.1153 -0.3988  0.3886
 2554SOL     OW10260   1.585   1.813   4.269  0.0689 -0.3227 -0.6435
 2554SOL    HW210261   1.502   1.848   4.237 -0.5563 -1.0760  0.1333
 2554SOL    HW310262   1.587   1.837   4.362  1.0085  0.2427 -0.8071
 2554SOL    MW410263   1.575   1.821   4.277  0.1104 -0.3475 -0.5627
 2555SOL     OW10264   4.235   3.348   4.801 -0.2015 -0.2022  0.0776
 2555SOL    HW210265   4.174   3.277   4.783  0.0604 -0.4108  0.0190
 2555SOL    HW310266   4.269   3.329   4.888 -0.9043  0.4038  0.4901
 2555SOL    MW410267   4.232   3.336   4.810 -0.2589 -0.1495  0.1245
 2556SOL     OW10268   1.503   4.074   4.272 -0.0921 -0.0529 -0.4604
 2556SOL    HW210269   1.532   3.987   4.244  2.2466  0.1075  1.2981
 2556SOL    HW310270   1.572   4.133   4.242  0.6227  0.5750  2.2859
 2556SOL    MW410271   1.516   4.070   4.265  0.3108  0.0515  0.1345
 2557SOL     OW10272   1.947   4.347   4.540  0.2645 -0.1995 -0.0977
 2557SOL    HW210273   2.008   4.422   4.541  0.0847 -0.0551  0.6403
 2557SOL    HW310274   1.860   4.387   4.543  0.1529 -0.4261 -0.3251
 2557SOL    MW410275   1.944   4.362   4.540  0.2261 -0.2103 -0.0300
 2558SOL     OW10276   2.770   0.592   4.259 -0.1799  0.0711  0.2727
 2558SOL    HW210277   2.792   0.598   4.352  0.8903  1.2983 -0.0465
 2558SOL    HW310278   2.694   0.650   4.249  0.8875  1.4597  0.0383
 2558SOL    MW410279   2.763   0.601   4.270  0.1020  0.4162  0.1998
 2559SOL     OW10280   3.830   2.856   3.763  0.1233  0.2005  0.0370
 2559SOL    HW210281   3.756   2.812   3.805 -0.0692  0.2579 -0.2339
 2559SOL    HW310282   3.830   2.944   3.800 -0.3232  0.3937 -0.4050
 2559SOL    MW410283   3.820   2.862   3.773  0.0389  0.2334 -0.0570
 2560SOL     OW10284   4.273   0.541   4.729  0.1006  0.3293 -0.2033
 2560SOL    HW210285   4.182   0.562   4.749  0.5788  2.0222  0.2811
 2560SOL    HW310286   4.315   0.626   4.716  1.3011 -0.4822 -1.8627
 2560SOL    MW410287   4.267   0.555   4.730  0.3214  0.4457 -0.3586
 2561SOL     OW10288   3.343   2.593   4.274 -0.1725  0.2404  0.5088
 2561SOL    HW210289   3.346   2.582   4.369 -0.1590  2.3730  0.7908
 2561SOL    HW310290   3.430   2.628   4.252 -0.3975  0.3571 -0.1998
 2561SOL    MW410291   3.355   2.596   4.283 -0.2005  0.5372  0.4525
 2562SOL     OW10292   0.386   3.837   4.614 -0.0156 -0.5626  0.4549
 2562SOL    HW210293   0.294   3.810   4.620 -0.1521 -0.0603  0.6550
 2562SOL    HW310294   0.435   3.755   4.622 -0.3926 -0.6187  2.5416
 2562SOL    MW410295   0.380   3.823   4.616 -0.0834 -0.5038  0.7563
 2563SOL     OW10296   1.159   0.206   4.245 -0.0853  0.0250  0.0334
 2563SOL    HW210297   1.096   0.269   4.210 -0.1063 -0.0967 -0.1510
 2563SOL    HW310298   1.152   0.215   4.340 -1.2255 -0.8010  0.0525
 2563SOL    MW410299   1.150   0.215   4.253 -0.2385 -0.1001  0.0119
 2564SOL     OW10300   3.380   3.364   4.251 -0.2328  0.0853  0.4682
 2564SOL    HW210301   3.303   3.412   4.218  0.9160  0.3280 -1.9317
 2564SOL    HW310302   3.455   3.410   4.213  1.0192 -1.7285  0.6914
 2564SOL    MW410303   3.379   3.377   4.241  0.0839 -0.1221  0.1807
 2565SOL     OW10304   3.137   1.443   4.569 -0.1965 -1.0007  0.6959
 2565SOL    HW210305   3.217   1.401   4.600  1.0891 -0.3349 -1.6241
 2565SOL    HW310306   3.142   1.435   4.473 -1.4687  1.6623  0.3847
 2565SOL    MW410307   3.148   1.436   4.560 -0.1945 -0.5615  0.3486
 2566SOL     OW10308   2.712   2.205   4.261 -0.2397 -0.1394  0.1470
 2566SOL    HW210309   2.789   2.247   4.224 -0.5785 -0.8536 -1.4475
 2566SOL    HW310310   2.743   2.161   4.340  0.9869 -0.4117 -0.4780
 2566SOL    MW410311   2.726   2.205   4.267 -0.1225 -0.2694 -0.1454
 2567SOL     OW10312   1.108   3.811   4.130  0.0363 -0.3647  0.7023
 2567SOL    HW210313   1.081   3.895   4.167  0.1186 -0.5805  1.2489
 2567SOL    HW310314   1.187   3.788   4.178  0.3949 -0.4292  0.0822
 2567SOL    MW410315   1.115   3.819   4.141  0.0945 -0.4017  0.6928
 2568SOL     OW10316   4.058   3.161   4.686 -0.1159  0.0927  0.2927
 2568SOL    HW210317   4.072   3.088   4.625  0.2048  0.1788  0.2565
 2568SOL    HW310318   3.966   3.157   4.709 -0.3370  0.3273 -0.5485
 2568SOL    MW410319   4.048   3.150   4.681 -0.1025  0.1352  0.1769
 2569SOL     OW10320   3.782   2.636   4.567 -0.1065  0.3585  0.0697
 2569SOL    HW210321   3.708   2.585   4.601 -0.4072  0.9801  0.3483
 2569SOL    HW310322   3.771   2.634   4.472 -0.7477  0.8520  0.1338
 2569SOL    MW410323   3.771   2.629   4.559 -0.2310  0.5054  0.1149
 2570SOL     OW10324   0.083   2.770   4.121 -0.8397  0.1435 -0.5847
 2570SOL    HW210325   0.177   2.754   4.129 -0.8548 -0.1003 -0.8667
 2570SOL    HW310326   0.063   2.833   4.190 -0.8852 -1.4976  0.9180
 2570SOL    MW410327   0.093   2.776   4.131 -0.8477 -0.1054 -0.4239
 2571SOL     OW10328   3.406   0.741   4.159 -0.0018  0.7966 -0.1609
 2571SOL    HW210329   3.493   0.721   4.193 -0.4202 -1.8544 -0.5363
 2571SOL    HW310330   3.419   0.753   4.065  0.1047  1.3522 -0.0755
 2571SOL    MW410331   3.419   0.740   4.151 -0.0429  0.5201 -0.1993
 2572SOL     OW10332   0.339   1.763   4.646 -0.2302  0.0588 -0.2284
 2572SOL    HW210333   0.246   1.778   4.632 -0.3437  0.3040  0.7916
 2572SOL    HW310334   0.349   1.668   4.652 -0.4608  0.0516  0.0115
 2572SOL    MW410335   0.328   1.753   4.645 -0.2756  0.0902 -0.0625
 2573SOL     OW10336   1.772   1.102   4.197  0.2371  0.5967 -0.5538
 2573SOL    HW210337   1.842   1.040   4.220 -0.0147 -0.0198 -1.4151
 2573SOL    HW310338   1.696   1.071   4.246  0.0926  0.1654 -1.0378
 2573SOL    MW410339   1.772   1.089   4.206  0.1848  0.4585 -0.7305
 2574SOL     OW10340   1.133   2.293   3.884 -0.0856 -0.2507  0.1096
 2574SOL    HW210341   1.057   2.342   3.854 -0.0650  0.2471  0.8315
 2574SOL    HW310342   1.129   2.299   3.980  1.7036  1.1255  0.1310
 2574SOL    MW410343   1.123   2.300   3.893  0.1533 -0.0033  0.2074
 2575SOL     OW10344   3.430   0.206   4.279  0.6827  0.0015 -0.0026
 2575SOL    HW210345   3.350   0.246   4.245  0.9042  0.7788  0.3811
 2575SOL    HW310346   3.437   0.123   4.232 -0.5942 -0.2807  0.2949
 2575SOL    MW410347   3.420   0.200   4.268  0.5434  0.0668  0.0877
 2576SOL     OW10348   1.169   3.429   4.546  0.1687  0.1730 -0.5382
 2576SOL    HW210349   1.172   3.525   4.539 -0.1545  0.2914  0.8462
 2576SOL    HW310350   1.261   3.403   4.550  0.2367  0.5344  0.4041
 2576SOL    MW410351   1.182   3.438   4.546  0.1351  0.2363 -0.2317
 2577SOL     OW10352   0.605   1.332   4.581 -0.8333  0.0684  0.3254
 2577SOL    HW210353   0.564   1.330   4.495 -1.5138  0.8798  0.6234
 2577SOL    HW310354   0.595   1.243   4.614 -1.7209  0.0725  0.0906
 2577SOL    MW410355   0.598   1.320   4.574 -1.0402  0.1760  0.3338
 2578SOL     OW10356   0.125   3.455   4.542 -0.0537  0.2835 -0.5025
 2578SOL    HW210357   0.158   3.450   4.452  0.5049 -2.6987 -0.1861
 2578SOL    HW310358   0.030   3.443   4.532  0.1011 -0.9429 -0.6678
 2578SOL    MW410359   0.117   3.452   4.529  0.0404 -0.2718 -0.4830
 2579SOL     OW10360   1.359   2.963   4.488  0.0584  0.5803  0.2669
 2579SOL    HW210361   1.377   2.869   4.499  0.8127  0.5553 -1.1033
 2579SOL    HW310362   1.433   3.007   4.530  1.4628  0.5090 -2.0380
 2579SOL    MW410363   1.371   2.956   4.495  0.3431  0.5679 -0.2179
 2580SOL     OW10364   3.231   0.873   4.524  0.1347  0.1784  0.3303
 2580SOL    HW210365   3.251   0.922   4.444  0.1638  0.4470  0.5030
 2580SOL    HW310366   3.143   0.903   4.549 -0.1911 -0.4673 -0.0252
 2580SOL    MW410367   3.222   0.883   4.517  0.0951  0.1286  0.3066
 2581SOL     OW10368   3.388   1.540   3.897 -0.0687  0.3272 -0.1583
 2581SOL    HW210369   3.472   1.582   3.875  1.0866 -1.0221  1.5356
 2581SOL    HW310370   3.398   1.450   3.868 -0.2167 -0.3229  1.7739
 2581SOL    MW410371   3.400   1.534   3.890  0.0644  0.0633  0.3202
 2582SOL     OW10372   0.648   3.909   4.171  0.0181  0.0742  0.2794
 2582SOL    HW210373   0.714   3.840   4.175 -1.2281 -1.3314 -2.3157
 2582SOL    HW310374   0.577   3.878   4.227 -1.9737 -2.4378 -3.4322
 2582SOL    MW410375   0.648   3.896   4.179 -0.4091 -0.4427 -0.5531
 2583SOL     OW10376   3.821   3.119   4.150 -0.6031  0.2451 -0.3173
 2583SOL    HW210377   3.837   3.148   4.060  2.4399  0.1827  0.1692
 2583SOL    HW310378   3.798   3.199   4.197  1.2551  0.8404 -0.4058
 2583SOL    MW410379   3.820   3.134   4.144  0.0434  0.3157 -0.2651
 2584SOL     OW10380   2.231   3.248   4.560 -0.3096 -0.2177 -0.4433
 2584SOL    HW210381   2.324   3.270   4.549 -0.4546  0.4039 -0.4608
 2584SOL    HW310382   2.229   3.152   4.561  0.7499 -0.2627  3.0164
 2584SOL    MW410383   2.243   3.238   4.559 -0.1888 -0.1416  0.0110
 2585SOL     OW10384   2.956   2.421   4.688  0.0444  0.3222  0.1048
 2585SOL    HW210385   2.924   2.507   4.663  0.9361  1.0180  1.3128
 2585SOL    HW310386   3.030   2.438   4.747 -0.0106 -1.2569  0.6790
 2585SOL    MW410387   2.962   2.434   4.692  0.1550  0.2055  0.3400
 2586SOL     OW10388   3.202   0.579   4.216  0.4415  0.3413 -0.3784
 2586SOL    HW210389   3.120   0.626   4.203  0.7313  0.9848  0.1308
 2586SOL    HW310390   3.270   0.644   4.199  0.8455 -0.0619 -0.3059
 2586SOL    MW410391   3.200   0.593   4.212  0.5326  0.3731 -0.3014
 2587SOL     OW10392   2.963   0.731   4.124  0.3112 -0.1424 -0.1840
 2587SOL    HW210393   2.933   0.720   4.034  0.2951  0.8725 -0.3158
 2587SOL    HW310394   2.890   0.699   4.178  0.9038 -2.1281 -0.5297
 2587SOL    MW410395   2.949   0.726   4.119  0.3874 -0.2705 -0.2470
 2588SOL     OW10396   3.456   1.053   4.565  0.7550 -0.4114 -0.5522
 2588SOL    HW210397   3.441   1.037   4.472  1.7550 -1.0748 -0.6020
 2588SOL    HW310398   3.386   1.005   4.610  0.9216 -0.9921 -0.9112
 2588SOL    MW410399   3.445   1.045   4.559  0.9086 -0.5754 -0.6061
 2589SOL     OW10400   2.704   4.490   4.277  0.4249 -0.4149  0.2098
 2589SOL    HW210401   2.626   4.521   4.231 -0.1804  0.1003  1.5636
 2589SOL    HW310402   2.693   4.520   4.367  3.6427  2.2890 -0.1996
 2589SOL    MW410403   2.692   4.498   4.283  0.7696  0.0100  0.3343
 2590SOL     OW10404   4.075   1.698   4.644 -0.1406  0.5764 -0.3938
 2590SOL    HW210405   3.985   1.716   4.617 -0.3577 -0.1962 -0.2013
 2590SOL    HW310406   4.097   1.615   4.601 -0.2104 -0.2479  1.1276
 2590SOL    MW410407   4.066   1.689   4.635 -0.1779  0.3657 -0.1678
 2591SOL     OW10408   3.823   1.754   4.299  0.1752 -0.0026 -0.2473
 2591SOL    HW210409   3.900   1.811   4.287  0.8508 -0.8589 -0.0701
 2591SOL    HW310410   3.751   1.803   4.261  0.9834  0.4403 -1.2559
 2591SOL    MW410411   3.824   1.768   4.292  0.3707 -0.0571 -0.3567
 2592SOL     OW10412   1.346   1.914   4.171 -0.4102  0.0558 -0.2932
 2592SOL    HW210413   1.362   1.909   4.077 -0.3032  0.1467 -0.2807
 2592SOL    HW310414   1.330   2.007   4.187 -0.5363  0.0249 -0.2383
 2592SOL    MW410415   1.346   1.926   4.161 -0.4127  0.0638 -0.2842
 2593SOL     OW10416   3.435   3.259   4.519  0.4787 -0.0158 -0.4068
 2593SOL    HW210417   3.423   3.291   4.430  2.2102 -0.5971 -0.8691
 2593SOL    HW310418   3.460   3.167   4.509  0.2424 -0.2083  0.6982
 2593SOL    MW410419   3.437   3.251   4.506  0.6759 -0.1175 -0.3219
 2594SOL     OW10420   3.354   3.763   4.520 -0.5382  0.4167  0.4174
 2594SOL    HW210421   3.287   3.766   4.452  0.2547 -1.5266 -0.4805
 2594SOL    HW310422   3.433   3.796   4.479 -0.2526  0.0124  0.6386
 2594SOL    MW410423   3.356   3.768   4.506 -0.3958  0.1070  0.3285
 2595SOL     OW10424   3.607   1.664   4.724  0.4852  0.0489 -0.0546
 2595SOL    HW210425   3.658   1.634   4.799  1.6022  0.3417 -0.6768
 2595SOL    HW310426   3.604   1.589   4.665 -2.1638 -0.8436  1.1742
 2595SOL    MW410427   3.614   1.650   4.726  0.2832 -0.0303  0.0248
 2596SOL     OW10428   3.318   1.835   4.571 -0.4954 -0.1405 -0.2935
 2596SOL    HW210429   3.318   1.929   4.591 -0.8730 -0.0079 -0.9276
 2596SOL    HW310430   3.364   1.796   4.646 -1.7318  0.3779  0.7614
 2596SOL    MW410431   3.324   1.842   4.584 -0.7086 -0.0547 -0.2379
 2597SOL     OW10432   0.386   4.118   4.705  0.0092  0.0421 -0.3269
 2597SOL    HW210433   0.408   4.028   4.680  0.4490  0.5238 -1.7368
 2597SOL    HW310434   0.329   4.149   4.635 -0.7288  0.6324  0.5194
 2597SOL    MW410435   0.382   4.110   4.693 -0.0301  0.1845 -0.4015
 2598SOL     OW10436   1.733   3.503   4.184 -0.4054  0.0338  0.0489
 2598SOL    HW210437   1.722   3.511   4.090  1.1837 -0.0584 -0.1523
 2598SOL    HW310438   1.816   3.457   4.195 -0.1737  0.7744  1.5053
 2598SOL    MW410439   1.742   3.498   4.173 -0.1652  0.1194  0.2141
 2599SOL     OW10440   0.576   1.074   4.671  0.2266  0.2122  0.1929
 2599SOL    HW210441   0.511   1.015   4.632  0.6238  0.1095 -0.3229
 2599SOL    HW310442   0.660   1.028   4.658  0.5412  0.9056 -0.2531
 2599SOL    MW410443   0.579   1.060   4.664  0.3206  0.2903  0.0658
 2600SOL     OW10444   4.018   3.527   4.172  0.2758  0.1040  0.0036
 2600SOL    HW210445   4.085   3.481   4.222  1.4819  1.5042 -0.3141
 2600SOL    HW310446   4.014   3.614   4.211  0.3645  0.8067 -1.5277
 2600SOL    MW410447   4.026   3.532   4.184  0.4468  0.3817 -0.2408
 2601SOL     OW10448   3.831   3.886   4.263  0.1837 -0.5991  0.2965
 2601SOL    HW210449   3.834   3.972   4.304 -0.9010 -0.7332  0.6591
 2601SOL    HW310450   3.911   3.842   4.292  0.6021  0.1854  0.3231
 2601SOL    MW410451   3.842   3.891   4.272  0.0961 -0.5133  0.3476
 2602SOL     OW10452   2.126   3.504   4.594  0.3604  0.2323 -0.3387
 2602SOL    HW210453   2.158   3.415   4.581  1.2422  0.6825 -1.3775
 2602SOL    HW310454   2.205   3.555   4.614 -0.0017  0.9458 -0.6944
 2602SOL    MW410455   2.141   3.499   4.595  0.4289  0.3858 -0.5231
 2603SOL     OW10456   3.402   4.371   3.785 -0.7027  0.0882 -0.4021
 2603SOL    HW210457   3.398   4.455   3.830 -1.8179 -0.4305  0.4886
 2603SOL    HW310458   3.466   4.320   3.834 -0.0394  0.4043 -0.9316
 2603SOL    MW410459   3.410   4.375   3.797 -0.7627  0.0615 -0.3545
 2604SOL     OW10460   0.570   1.864   4.520 -0.1733 -0.2623  0.2631
 2604SOL    HW210461   0.645   1.837   4.573  0.7165 -0.9121 -1.2905
 2604SOL    HW310462   0.498   1.809   4.551  1.0206 -2.6670 -1.0938
 2604SOL    MW410463   0.570   1.853   4.531  0.1016 -0.6653 -0.1211
 2605SOL     OW10464   2.632   3.706   4.511 -0.1721  0.0831 -0.5467
 2605SOL    HW210465   2.622   3.799   4.530 -1.3162 -0.0325 -0.5679
 2605SOL    HW310466   2.689   3.674   4.580  0.0461  0.7558 -0.4058
 2605SOL    MW410467   2.638   3.714   4.522 -0.2944  0.1566 -0.5307
 2606SOL     OW10468   0.418   0.354   4.126  0.3296  0.5047  0.1249
 2606SOL    HW210469   0.339   0.301   4.135  0.3600  0.1881 -1.4069
 2606SOL    HW310470   0.485   0.304   4.173  0.1894 -0.4715 -0.6919
 2606SOL    MW410471   0.417   0.340   4.134  0.3151  0.3341 -0.1850
 2607SOL     OW10472   1.845   2.998   4.206 -0.5503 -0.0654 -0.1646
 2607SOL    HW210473   1.831   2.911   4.169 -0.1766 -0.1630 -0.0871
 2607SOL    HW310474   1.772   3.050   4.174 -0.0956 -0.0806 -1.2558
 2607SOL    MW410475   1.834   2.993   4.197 -0.4408 -0.0803 -0.2985
 2608SOL     OW10476   0.417   3.500   3.928 -0.0758 -0.1549 -0.1450
 2608SOL    HW210477   0.418   3.532   4.018 -0.0674 -1.4286  0.3178
 2608SOL    HW310478   0.495   3.540   3.888  0.0462  0.2361  0.4742
 2608SOL    MW410479   0.428   3.510   3.934 -0.0586 -0.2713 -0.0024
 2609SOL     OW10480   0.019   2.464   3.503 -0.4476 -0.1324 -0.0645
 2609SOL    HW210481  -0.059   2.428   3.461 -0.0782  1.5113 -2.2656
 2609SOL    HW310482   0.007   2.446   3.596 -2.9816 -0.7627 -0.4747
 2609SOL    MW410483   0.007   2.457   3.510 -0.7331  0.0014 -0.4091
 2610SOL     OW10484   1.637   1.856   4.534 -0.1017 -0.2009 -0.1099
 2610SOL    HW210485   1.551   1.865   4.575  0.7262  0.3243  1.5678
 2610SOL    HW310486   1.682   1.939   4.553  0.6060 -0.2753 -1.3857
 2610SOL    MW410487   1.632   1.868   4.542  0.1011 -0.1415 -0.0567
 2611SOL     OW10488   2.209   4.533   4.258 -0.1544  0.2717 -0.1646
 2611SOL    HW210489   2.196   4.441   4.236  1.0847  0.0387  0.0559
 2611SOL    HW310490   2.134   4.578   4.218 -1.6626 -1.0130  1.1151
 2611SOL    MW410491   2.197   4.527   4.250 -0.1900  0.0715  0.0339
 2612SOL     OW10492   1.574   3.826   4.191 -0.5169  0.6015 -0.1449
 2612SOL    HW210493   1.495   3.784   4.225 -0.8258  1.1600 -0.1626
 2612SOL    HW310494   1.642   3.806   4.255 -0.1087 -1.8693 -1.3163
 2612SOL    MW410495   1.573   3.818   4.204 -0.5038  0.3490 -0.3018
 2613SOL     OW10496   3.023   0.487   4.572  0.5838  0.6828  0.5239
 2613SOL    HW210497   3.112   0.521   4.561  1.1056 -0.3200  1.6165
 2613SOL    HW310498   3.030   0.420   4.640 -0.9203  0.2480  0.2819
 2613SOL    MW410499   3.035   0.483   4.579  0.4544  0.4930  0.6366
 2614SOL     OW10500   1.333   2.179   4.282  0.1098  0.4054  0.0609
 2614SOL    HW210501   1.338   2.166   4.377  0.6416 -1.2374 -0.1840
 2614SOL    HW310502   1.417   2.217   4.258  0.2031  0.2585  0.1574
 2614SOL    MW410503   1.345   2.182   4.292  0.1923  0.1690  0.0410
 2615SOL     OW10504   3.615   1.451   4.240  0.1581 -0.4520 -0.2529
 2615SOL    HW210505   3.707   1.464   4.218  0.0512 -0.1855 -0.5536
 2615SOL    HW310506   3.600   1.357   4.223  0.5357 -0.6364  0.4243
 2615SOL    MW410507   3.625   1.440   4.235  0.1938 -0.4412 -0.2036
 2616SOL     OW10508   2.845   1.840   4.578  0.2989  0.3369 -0.3296
 2616SOL    HW210509   2.932   1.802   4.561 -0.0014 -0.6455  0.2978
 2616SOL    HW310510   2.826   1.817   4.669 -0.4571  0.8920 -0.3450
 2616SOL    MW410511   2.854   1.832   4.588  0.1595  0.2806 -0.2489
 2617SOL     OW10512   2.253   1.943   4.179  0.3760 -0.3046  0.0513
 2617SOL    HW210513   2.182   1.892   4.216  0.1953  0.6363  1.0481
 2617SOL    HW310514   2.236   1.944   4.084 -0.0386 -1.4097  0.1102
 2617SOL    MW410515   2.241   1.937   4.171  0.2973 -0.3264  0.1903
 2618SOL     OW10516   2.699   4.562   4.540 -0.3008 -0.1831  0.4414
 2618SOL    HW210517   2.607   4.571   4.565 -0.2667  0.0636  0.4755
 2618SOL    HW310518   2.735   4.650   4.547  0.0125 -0.3311  0.7216
 2618SOL    MW410519   2.691   4.575   4.544 -0.2549 -0.1702  0.4830
 2619SOL     OW10520   2.181   4.270   4.159  0.0803  0.1226  0.1773
 2619SOL    HW210521   2.195   4.272   4.064  1.3091  0.1010  0.3404
 2619SOL    HW310522   2.254   4.217   4.192 -0.1593  0.3999  1.1596
 2619SOL    MW410523   2.193   4.263   4.151  0.2108  0.1564  0.3285
 2620SOL     OW10524   3.616   4.226   3.932  0.1016  0.1703  0.2315
 2620SOL    HW210525   3.686   4.285   3.904  1.6408 -1.3044  0.8131
 2620SOL    HW310526   3.624   4.223   4.028 -0.0406 -0.8374  0.2249
 2620SOL    MW410527   3.626   4.233   3.941  0.2859 -0.1569  0.3076
 2621SOL     OW10528   0.025   4.055   3.850  0.3323 -0.1861 -0.4061
 2621SOL    HW210529  -0.053   4.000   3.861 -0.0896  0.8707  2.2350
 2621SOL    HW310530   0.097   4.002   3.883  0.0159  0.5605  1.5517
 2621SOL    MW410531   0.024   4.041   3.855  0.2349  0.0515  0.2005
 2622SOL     OW10532   0.204   2.039   3.866 -0.0727 -0.1606  0.1265
 2622SOL    HW210533   0.118   1.998   3.877 -0.8706  1.3662 -0.1960
 2622SOL    HW310534   0.187   2.133   3.879  1.3237  0.2823 -1.1872
 2622SOL    MW410535   0.191   2.046   3.870  0.0063  0.0994 -0.0896
 2623SOL     OW10536   2.751   0.888   4.587 -0.3047 -0.1385  0.0431
 2623SOL    HW210537   2.696   0.938   4.527  0.0215 -0.3355 -0.4196
 2623SOL    HW310538   2.825   0.946   4.607 -1.3539  0.6578  1.7365
 2623SOL    MW410539   2.754   0.902   4.582 -0.3998 -0.0595  0.2050
 2624SOL     OW10540   4.045   2.734   4.160  0.2082  0.3567  0.4863
 2624SOL    HW210541   4.048   2.826   4.187  1.1512  0.6832 -0.6727
 2624SOL    HW310542   4.134   2.703   4.175  0.5925  0.3747 -1.6001
 2624SOL    MW410543   4.057   2.742   4.165  0.3834  0.4020  0.0587
 2625SOL     OW10544   1.180   1.794   4.549  0.2731  0.6489 -0.0309
 2625SOL    HW210545   1.121   1.852   4.597 -1.3753 -1.3257  0.4256
 2625SOL    HW310546   1.138   1.782   4.464  0.9380  0.6544 -0.3603
 2625SOL    MW410547   1.167   1.800   4.544  0.1433  0.3891 -0.0143
 2626SOL     OW10548   4.278   2.406   4.109  0.3491  0.3118 -0.1575
 2626SOL    HW210549   4.348   2.347   4.136  1.0333  1.7210  1.2265
 2626SOL    HW310550   4.209   2.392   4.173  0.3682  0.7590 -0.0397
 2626SOL    MW410551   4.278   2.396   4.121  0.4425  0.5565  0.0410
 2627SOL     OW10552   1.987   0.948   4.304 -0.2889 -0.1525  0.2755
 2627SOL    HW210553   2.005   0.949   4.398  3.2100 -2.2794 -0.2679
 2627SOL    HW310554   1.966   0.857   4.284 -0.9354  0.2669 -1.0085
 2627SOL    MW410555   1.987   0.936   4.313  0.0874 -0.3778  0.0343
 2628SOL     OW10556   3.684   0.308   4.594 -0.2641  0.5061 -0.0027
 2628SOL    HW210557   3.730   0.276   4.515 -0.2877  1.0432 -0.2314
 2628SOL    HW310558   3.753   0.315   4.660 -0.4758 -1.2964  0.4397
 2628SOL    MW410559   3.699   0.304   4.592 -0.2952  0.3391  0.0257
 2629SOL     OW10560   0.223   2.550   4.351 -0.0384 -0.0236 -0.6459
 2629SOL    HW210561   0.240   2.481   4.287  0.5561 -0.1671 -0.3383
 2629SOL    HW310562   0.265   2.628   4.314  1.2032 -0.3498  0.0582
 2629SOL    MW410563   0.231   2.552   4.338  0.2039 -0.0854 -0.5126
 2630SOL     OW10564   0.239   0.752   3.936 -0.1634 -0.2525  0.3316
 2630SOL    HW210565   0.167   0.806   3.904  1.4008  1.4372 -0.4486
 2630SOL    HW310566   0.228   0.668   3.892 -0.6280  0.5928 -1.1864
 2630SOL    MW410567   0.228   0.748   3.926 -0.0183  0.0820  0.0281
 2631SOL     OW10568   3.168   4.258   4.185  0.2930 -0.4534 -0.3171
 2631SOL    HW210569   3.097   4.219   4.237  0.8136 -0.1518  0.6404
 2631SOL    HW310570   3.247   4.241   4.236  0.3914  2.9286  0.8160
 2631SOL    MW410571   3.169   4.251   4.199  0.3748  0.0319 -0.0415
 2632SOL     OW10572   2.036   1.509   4.169 -0.1876 -0.0294  0.1999
 2632SOL    HW210573   1.967   1.466   4.219  0.0672 -0.7176 -0.0395
 2632SOL    HW310574   2.041   1.597   4.207 -0.9151 -0.1067  0.4871
 2632SOL    MW410575   2.027   1.515   4.181 -0.2501 -0.1305  0.2060
 2633SOL     OW10576   1.095   2.816   3.744 -0.2131 -0.5740 -0.0960
 2633SOL    HW210577   1.034   2.772   3.803 -0.5019 -0.2972 -0.1876
 2633SOL    HW310578   1.088   2.909   3.766 -0.8364 -0.3905 -1.0339
 2633SOL    MW410579   1.086   2.822   3.755 -0.3334 -0.5133 -0.2320
 2634SOL     OW10580   3.045   0.257   4.742  0.3453 -0.1399 -0.0509
 2634SOL    HW210581   3.116   0.194   4.726  0.9415  0.8838 -1.5084
 2634SOL    HW310582   3.041   0.265   4.838  1.5432 -0.9386  0.0786
 2634SOL    MW410583   3.054   0.249   4.753  0.5820 -0.1102 -0.2260
 2635SOL     OW10584   2.677   2.874   4.557 -0.5765 -0.2632  0.1536
 2635SOL    HW210585   2.592   2.845   4.591 -0.5454 -1.7631 -1.0081
 2635SOL    HW310586   2.657   2.907   4.469  0.0557 -0.5796 -0.1037
 2635SOL    MW410587   2.663   2.875   4.550 -0.4890 -0.5028 -0.0334
 2636SOL     OW10588   3.658   4.619   4.878  0.1367 -0.3800  0.0378
 2636SOL    HW210589   3.565   4.602   4.861  0.0572  0.9483 -0.8536
 2636SOL    HW310590   3.695   4.642   4.793  1.2136 -0.5572  0.4485
 2636SOL    MW410591   3.651   4.620   4.865  0.2685 -0.2284 -0.0262
 2637SOL     OW10592   0.613   4.284   4.738 -0.2997  0.6706  0.1565
 2637SOL    HW210593   0.537   4.230   4.717 -0.6146  0.8683  0.7709
 2637SOL    HW310594   0.593   4.369   4.697 -0.5805  0.8333  0.6234
 2637SOL    MW410595   0.600   4.288   4.730 -0.3783  0.7186  0.2990
 2638SOL     OW10596   3.618   4.612   4.498  0.2477  0.4051  0.0307
 2638SOL    HW210597   3.702   4.621   4.544  0.0947  0.2723  0.3349
 2638SOL    HW310598   3.570   4.692   4.520  0.2261  0.4038 -0.0099
 2638SOL    MW410599   3.623   4.624   4.507  0.2248  0.3877  0.0653
 2639SOL     OW10600   0.867   3.245   3.755 -0.0139  0.0693 -0.1734
 2639SOL    HW210601   0.945   3.195   3.780  0.1907  0.0447 -0.8706
 2639SOL    HW310602   0.866   3.242   3.660 -2.3691 -2.2497 -0.1335
 2639SOL    MW410603   0.877   3.238   3.746 -0.2977 -0.2396 -0.2599
 2640SOL     OW10604   4.238   1.464   4.243  0.5377  0.1970 -0.0377
 2640SOL    HW210605   4.167   1.420   4.290  0.5595 -0.5554 -0.6932
 2640SOL    HW310606   4.317   1.419   4.271  0.5841 -0.0434 -0.5406
 2640SOL    MW410607   4.239   1.452   4.253  0.5465  0.0659 -0.1903
 2641SOL     OW10608   0.181   4.213   4.260 -0.4052 -0.3266 -0.6625
 2641SOL    HW210609   0.177   4.248   4.349  1.8258 -1.1600 -0.2043
 2641SOL    HW310610   0.099   4.242   4.220 -0.7577  1.3619  1.1678
 2641SOL    MW410611   0.169   4.221   4.267 -0.1574 -0.2136 -0.3610
 2642SOL     OW10612   0.885   3.409   4.587 -0.6579  0.0834 -0.5854
 2642SOL    HW210613   0.853   3.499   4.576 -0.7483  0.4026  1.9315
 2642SOL    HW310614   0.980   3.419   4.595 -0.5254 -0.2133 -1.6451
 2642SOL    MW410615   0.894   3.422   4.586 -0.6523  0.0865 -0.3934
 2643SOL     OW10616   1.349   0.653   4.338  0.1064  0.1137  0.0977
 2643SOL    HW210617   1.429   0.681   4.294 -0.6230 -1.3351 -2.2530
 2643SOL    HW310618   1.279   0.694   4.288 -0.7137 -0.4261  0.7931
 2643SOL    MW410619   1.350   0.662   4.326 -0.0981 -0.1487 -0.1211
 2644SOL     OW10620   1.230   0.004   4.691  0.1413  0.3116 -0.2579
 2644SOL    HW210621   1.241  -0.003   4.786  0.1441  1.6340 -0.1537
 2644SOL    HW310622   1.312  -0.029   4.654  1.1426  2.1361  0.2777
 2644SOL    MW410623   1.242  -0.001   4.698  0.2738  0.7267 -0.1736
 2645SOL     OW10624   0.782   1.772   4.680 -0.5680 -0.1508 -0.1865
 2645SOL    HW210625   0.809   1.685   4.652 -1.0506 -0.1580 -0.6400
 2645SOL    HW310626   0.736   1.758   4.763  0.2917 -0.2029  0.2921
 2645SOL    MW410627   0.780   1.759   4.687 -0.5184 -0.1587 -0.1831
 2646SOL     OW10628   3.150   3.481   4.133  0.5983 -0.2526 -0.0004
 2646SOL    HW210629   3.140   3.566   4.176 -0.0195 -0.4990  0.3471
 2646SOL    HW310630   3.082   3.426   4.172 -0.5358 -0.2365 -1.8764
 2646SOL    MW410631   3.139   3.485   4.144  0.3672 -0.2828 -0.2022
 2647SOL     OW10632   2.929   3.279   4.722 -0.6332 -0.0124 -0.0360
 2647SOL    HW210633   2.909   3.185   4.721  0.3104 -0.2904  2.1463
 2647SOL    HW310634   3.019   3.284   4.689 -0.7586  0.1540 -0.3529
 2647SOL    MW410635   2.938   3.267   4.718 -0.5252 -0.0272  0.2103
 2648SOL     OW10636   2.027   0.724   3.869  0.0845 -0.3495 -0.0828
 2648SOL    HW210637   2.023   0.629   3.865  0.2178 -0.4115  1.1423
 2648SOL    HW310638   2.049   0.744   3.960  0.4153  0.8400 -0.4069
 2648SOL    MW410639   2.030   0.714   3.881  0.1454 -0.2008  0.0360
 2649SOL     OW10640   2.738   1.140   4.158  0.1902  0.3246 -0.4460
 2649SOL    HW210641   2.709   1.145   4.066  2.5014  0.3045 -1.2069
 2649SOL    HW310642   2.731   1.230   4.190  0.8862  0.6212 -1.1228
 2649SOL    MW410643   2.733   1.152   4.150  0.5870  0.3610 -0.6356
 2650SOL     OW10644   3.731   0.994   4.530  0.1599 -0.6989  0.1815
 2650SOL    HW210645   3.641   1.024   4.540  0.8186  1.3302  0.3161
 2650SOL    HW310646   3.739   0.920   4.589 -0.5518  1.0540  2.5544
 2650SOL    MW410647   3.720   0.988   4.539  0.1533 -0.1999  0.5121
 2651SOL     OW10648   1.574   1.474   3.897 -0.2913 -0.2080  0.3483
 2651SOL    HW210649   1.641   1.541   3.884 -0.6376  0.1798  0.5850
 2651SOL    HW310650   1.545   1.485   3.987  0.5375 -1.4815  0.7865
 2651SOL    MW410651   1.579   1.484   3.907 -0.2277 -0.3248  0.4375
 2652SOL     OW10652   1.965   4.135   4.299  0.2656 -0.4210 -0.1180
 2652SOL    HW210653   1.948   4.191   4.374 -0.0458  0.7939 -1.0803
 2652SOL    HW310654   2.038   4.177   4.253 -0.8849 -0.0063 -1.6157
 2652SOL    MW410655   1.973   4.148   4.303  0.0728 -0.2060 -0.4425
 2653SOL     OW10656   0.638   2.803   3.790 -0.0564  0.1843 -0.0405
 2653SOL    HW210657   0.623   2.894   3.816  3.0980  0.7702 -0.1079
 2653SOL    HW310658   0.677   2.809   3.702 -0.2828 -1.2552 -0.2526
 2653SOL    MW410659   0.641   2.816   3.782  0.3299  0.0713 -0.0775
 2654SOL     OW10660   0.058   3.819   4.882 -0.1561 -0.3465 -0.1118
 2654SOL    HW210661   0.100   3.767   4.814  1.7343  0.8662  0.0849
 2654SOL    HW310662   0.096   3.907   4.871 -0.6741  0.1214  1.7712
 2654SOL    MW410663   0.069   3.824   4.871  0.0250 -0.1247  0.1631
 2655SOL     OW10664   3.808   1.021   4.243  0.1065  0.3266  0.0931
 2655SOL    HW210665   3.782   1.021   4.335  0.1997 -0.2932  0.1259
 2655SOL    HW310666   3.807   0.928   4.219 -1.4035  0.6016 -0.9543
 2655SOL    MW410667   3.804   1.009   4.252 -0.0806  0.2811 -0.0410
 2656SOL     OW10668   3.872   0.758   4.175 -0.2181  0.1761  0.4572
 2656SOL    HW210669   3.800   0.712   4.218 -0.5634  0.8729  0.6270
 2656SOL    HW310670   3.850   0.755   4.082 -0.9965  1.2692  0.5893
 2656SOL    MW410671   3.860   0.752   4.168 -0.3664  0.4122  0.4973
 2657SOL     OW10672   2.271   3.479   4.181 -0.6375 -0.5884  0.3322
 2657SOL    HW210673   2.278   3.570   4.209  0.4385 -0.7804  0.7360
 2657SOL    HW310674   2.187   3.449   4.214 -1.4429  0.5484 -0.6644
 2657SOL    MW410675   2.261   3.487   4.189 -0.6015 -0.4637  0.2542
 2658SOL     OW10676   1.953   3.284   4.467 -0.3373  0.0425 -0.0005
 2658SOL    HW210677   1.917   3.365   4.503  0.3953 -0.3354  1.6029
 2658SOL    HW310678   2.044   3.283   4.498 -0.5328 -1.7310  0.5220
 2658SOL    MW410679   1.960   3.295   4.476 -0.2664 -0.2413  0.2789
 2659SOL     OW10680   3.626   0.652   4.291 -0.3592  0.0112 -0.0299
 2659SOL    HW210681   3.626   0.564   4.255 -0.1647  0.0812 -0.2029
 2659SOL    HW310682   3.620   0.639   4.386  2.3029 -0.2920  0.1476
 2659SOL    MW410683   3.626   0.639   4.299  0.0176 -0.0196 -0.0296
 2660SOL     OW10684   1.106   2.294   4.582  0.3464  0.5115  0.1650
 2660SOL    HW210685   1.070   2.270   4.668  0.6107 -1.3656 -0.2221
 2660SOL    HW310686   1.193   2.254   4.581  0.8608  1.6384 -0.4742
 2660SOL    MW410687   1.113   2.285   4.594  0.4492  0.4127  0.0296
 2661SOL     OW10688   3.126   3.490   5.040  0.1216 -0.0924  0.3951
 2661SOL    HW210689   3.065   3.520   4.973  1.3221  1.3185 -0.0933
 2661SOL    HW310690   3.136   3.396   5.024 -0.3268  0.0609 -0.7875
 2661SOL    MW410691   3.119   3.481   5.029  0.2208  0.1140  0.1745
 2662SOL     OW10692   2.650   3.293   4.763 -0.2785  0.3935  0.0408
 2662SOL    HW210693   2.744   3.286   4.749 -0.1537  0.0980  1.0149
 2662SOL    HW310694   2.626   3.213   4.808 -1.0867  0.2389 -0.6543
 2662SOL    MW410695   2.659   3.282   4.767 -0.3688  0.3343  0.0777
 2663SOL     OW10696   1.148   0.597   4.691  0.1287  0.0322  0.3246
 2663SOL    HW210697   1.199   0.675   4.668 -0.4610  0.3323  0.0128
 2663SOL    HW310698   1.199   0.524   4.657 -0.5085  0.4379 -1.6205
 2663SOL    MW410699   1.161   0.598   4.683 -0.0330  0.1253  0.0272
 2664SOL     OW10700   3.239   2.788   4.904  0.3329  0.2060  0.2487
 2664SOL    HW210701   3.175   2.857   4.920  0.1480  0.1884 -0.4135
 2664SOL    HW310702   3.286   2.779   4.987  0.1984  0.9652  0.4081
 2664SOL    MW410703   3.237   2.796   4.917  0.2906  0.3037  0.1826
 2665SOL     OW10704   0.879   1.963   4.130  0.2059 -0.1193  0.0389
 2665SOL    HW210705   0.915   1.958   4.041  1.3897 -0.0241  0.5091
 2665SOL    HW310706   0.847   2.053   4.137 -0.6345 -0.3612 -0.5680
 2665SOL    MW410707   0.880   1.974   4.119  0.2512 -0.1386  0.0205
 2666SOL     OW10708   4.067   3.261   3.758 -0.5198 -0.1242  0.2568
 2666SOL    HW210709   4.136   3.213   3.802 -0.7402 -0.8685 -0.2093
 2666SOL    HW310710   4.061   3.344   3.806 -0.8767 -0.9945  1.7528
 2666SOL    MW410711   4.075   3.266   3.770 -0.5956 -0.3369  0.3929
 2667SOL     OW10712   2.269   0.825   4.584 -0.4812  0.0648 -0.4740
 2667SOL    HW210713   2.294   0.849   4.495 -0.6890 -0.9131 -0.7972
 2667SOL    HW310714   2.343   0.853   4.638  0.1701 -0.4212 -1.1026
 2667SOL    MW410715   2.282   0.832   4.579 -0.4227 -0.1283 -0.6003
 2668SOL     OW10716   0.460   2.116   4.529  0.2182 -0.0996 -0.1548
 2668SOL    HW210717   0.484   2.025   4.548 -0.7107 -0.5625 -1.1416
 2668SOL    HW310718   0.388   2.135   4.588  0.5088  0.0504  0.1547
 2668SOL    MW410719   0.454   2.107   4.539  0.1340 -0.1407 -0.2441
 2669SOL     OW10720   3.404   0.733   3.889  0.1717 -0.7427  0.6234
 2669SOL    HW210721   3.395   0.645   3.852  1.1394 -0.5372 -0.1196
 2669SOL    HW310722   3.327   0.781   3.856  0.5527 -0.8221 -0.4140
 2669SOL    MW410723   3.392   0.728   3.880  0.3495 -0.7260  0.3884
 2670SOL     OW10724   0.404   3.537   4.203 -0.1802 -0.2283 -0.4732
 2670SOL    HW210725   0.404   3.607   4.269  1.4279 -0.4812 -0.1823
 2670SOL    HW310726   0.471   3.475   4.233 -0.0987 -0.8304 -1.8303
 2670SOL    MW410727   0.413   3.538   4.216  0.0427 -0.3409 -0.6142
 2671SOL     OW10728   0.004   1.418   4.352 -1.0672  0.1675 -0.2137
 2671SOL    HW210729   0.035   1.438   4.441  0.7928  1.2889 -1.0949
 2671SOL    HW310730   0.010   1.323   4.346  1.1794  0.2799  0.0238
 2671SOL    MW410731   0.009   1.408   4.363 -0.5254  0.3302 -0.2985
 2672SOL     OW10732   1.576   0.755   4.185 -0.3068 -0.2760 -0.4747
 2672SOL    HW210733   1.581   0.753   4.090  0.5239  0.7115 -0.4562
 2672SOL    HW310734   1.663   0.729   4.215 -0.0153  1.1786 -0.0112
 2672SOL    MW410735   1.588   0.751   4.177 -0.1589  0.0463 -0.4110
 2673SOL     OW10736   0.863   2.970   4.135 -0.4061  0.0153  0.3929
 2673SOL    HW210737   0.837   2.878   4.135 -0.9995  0.1803  1.1829
 2673SOL    HW310738   0.781   3.019   4.130 -0.1443  0.5110  0.8691
 2673SOL    MW410739   0.849   2.965   4.134 -0.4499  0.1023  0.5603
 2674SOL     OW10740   4.175   0.908   4.582  0.1937 -0.4639 -0.2245
 2674SOL    HW210741   4.209   0.986   4.538  0.1873 -1.1428 -1.4813
 2674SOL    HW310742   4.246   0.880   4.639  0.3557  0.2200 -0.0840
 2674SOL    MW410743   4.189   0.915   4.583  0.2136 -0.4632 -0.3719
 2675SOL     OW10744   3.335   2.126   4.625 -0.2875  0.1240 -0.2853
 2675SOL    HW210745   3.403   2.152   4.562  0.5907  0.6880  0.8823
 2675SOL    HW310746   3.253   2.153   4.583  0.1356 -1.2138 -2.0254
 2675SOL    MW410747   3.333   2.133   4.611 -0.1159  0.0217 -0.3605
 2676SOL     OW10748   2.221   0.554   4.534  0.0656 -0.4771  0.2837
 2676SOL    HW210749   2.250   0.553   4.443  1.1991 -1.3030  0.6427
 2676SOL    HW310750   2.238   0.642   4.565 -0.2285 -0.2246 -0.2677
 2676SOL    MW410751   2.227   0.565   4.526  0.1764 -0.5528  0.2580
 2677SOL     OW10752   3.239   4.112   4.562 -0.0793  0.4618  0.0252
 2677SOL    HW210753   3.305   4.116   4.631  0.0810  0.4263 -0.1234
 2677SOL    HW310754   3.183   4.188   4.577 -0.8926 -0.3355  1.0331
 2677SOL    MW410755   3.240   4.123   4.573 -0.1652  0.3514  0.1388
 2678SOL     OW10756   2.790   0.620   4.529 -0.3405 -0.2004  0.2485
 2678SOL    HW210757   2.878   0.594   4.556  0.3896  2.2406  0.3813
 2678SOL    HW310758   2.787   0.714   4.547 -2.5055 -0.0053 -1.0233
 2678SOL    MW410759   2.801   0.629   4.535 -0.5298  0.1475  0.0978
 2679SOL     OW10760   1.109   4.663   3.907  0.1278 -0.0686  0.2004
 2679SOL    HW210761   1.124   4.584   3.855 -0.9132 -0.9437  1.2158
 2679SOL    HW310762   1.133   4.639   3.996  2.8009  1.7126  0.0362
 2679SOL    MW410763   1.114   4.650   3.912  0.3432  0.0510  0.3128
 2680SOL     OW10764   3.574   2.986   4.199 -0.0633  0.3266 -0.4983
 2680SOL    HW210765   3.570   2.893   4.175  1.0894  0.3636 -0.8456
 2680SOL    HW310766   3.664   3.012   4.180 -0.0205  1.1952  0.7898
 2680SOL    MW410767   3.585   2.977   4.194  0.0944  0.4461 -0.3743
 2681SOL     OW10768   3.888   1.525   4.181  0.2681  0.6153 -0.0583
 2681SOL    HW210769   3.882   1.603   4.235 -0.8224 -0.6365  1.6603
 2681SOL    HW310770   3.949   1.467   4.228  0.0435 -0.1141 -0.6458
 2681SOL    MW410771   3.895   1.527   4.194  0.0947  0.3541  0.0911
 2682SOL     OW10772   3.074   2.896   4.519  0.1359 -0.1057  0.1619
 2682SOL    HW210773   3.166   2.885   4.545  0.1957  0.4721  0.2045
 2682SOL    HW310774   3.078   2.915   4.426  0.1974  1.7475  0.5096
 2682SOL    MW410775   3.087   2.897   4.510  0.1519  0.2148  0.2136
 2683SOL     OW10776   0.300   0.195   4.613 -0.2447 -0.0425  0.0244
 2683SOL    HW210777   0.258   0.275   4.582  2.1346  1.4907  0.6020
 2683SOL    HW310778   0.228   0.143   4.648 -1.6437  2.7137  1.4714
 2683SOL    MW410779   0.285   0.199   4.614 -0.1154  0.5234  0.2913
 2684SOL     OW10780   2.235   2.949   4.255  0.1614  0.4080  0.0136
 2684SOL    HW210781   2.182   3.017   4.215 -0.7707 -0.6838 -0.6342
 2684SOL    HW310782   2.226   2.964   4.350  0.7102  1.7388 -0.1511
 2684SOL    MW410783   2.227   2.960   4.263  0.1111  0.4394 -0.0935
 2685SOL     OW10784   0.074   1.760   4.568  0.2001  0.4248  0.0155
 2685SOL    HW210785   0.086   1.770   4.473  0.2684 -0.3682 -0.0619
 2685SOL    HW310786  -0.010   1.802   4.586 -0.3012 -0.3123 -0.5596
 2685SOL    MW410787   0.064   1.767   4.558  0.1430  0.2229 -0.0706
 2686SOL     OW10788   2.685   1.457   4.534 -0.0273 -0.3481  0.0494
 2686SOL    HW210789   2.653   1.547   4.526 -1.2716 -0.8776 -1.0192
 2686SOL    HW310790   2.702   1.429   4.444  0.8615 -1.0120  0.4175
 2686SOL    MW410791   2.683   1.465   4.521 -0.0746 -0.5057 -0.0439
 2687SOL     OW10792   3.860   4.640   4.638  0.0801  0.1217 -0.5982
 2687SOL    HW210793   3.917   4.715   4.658  0.3642 -0.7222  2.0410
 2687SOL    HW310794   3.921   4.571   4.611  0.0810 -0.0014 -0.2827
 2687SOL    MW410795   3.876   4.641   4.637  0.1178 -0.0062 -0.2084
 2688SOL     OW10796   1.603   3.532   4.652  0.2958 -0.7220 -0.1074
 2688SOL    HW210797   1.579   3.625   4.652 -1.2366 -1.0902  1.7163
 2688SOL    HW310798   1.698   3.532   4.637  0.2591  1.1133 -0.4591
 2688SOL    MW410799   1.612   3.544   4.650  0.0888 -0.5283  0.0863
 2689SOL     OW10800   2.686   3.479   4.136  0.0565 -0.1568  0.1379
 2689SOL    HW210801   2.632   3.427   4.194 -0.9681  1.8809  1.0648
 2689SOL    HW310802   2.690   3.566   4.177  1.1222  0.7183 -1.7058
 2689SOL    MW410803   2.680   3.484   4.149  0.0618  0.2277  0.0167
 2690SOL     OW10804   2.032   0.951   4.571  0.1408  0.1127  0.0381
 2690SOL    HW210805   2.120   0.913   4.577  0.0814 -0.0730 -0.2380
 2690SOL    HW310806   2.044   1.042   4.596  0.5105  0.2174 -0.4928
 2690SOL    MW410807   2.046   0.958   4.575  0.1817  0.1021 -0.0682
 2691SOL     OW10808   0.929   1.919   3.859 -0.1787 -0.0597  0.5152
 2691SOL    HW210809   1.006   1.961   3.821 -1.1756  0.8919 -0.4701
 2691SOL    HW310810   0.934   1.828   3.829  0.0555  0.2286 -0.3166
 2691SOL    MW410811   0.940   1.912   3.850 -0.2793  0.1038  0.2754
 2692SOL     OW10812   2.913   1.304   3.797 -0.1084  0.1222  0.6404
 2692SOL    HW210813   2.829   1.261   3.814 -0.0525 -0.9639 -1.5580
 2692SOL    HW310814   2.979   1.241   3.828 -0.0907  0.1018  0.5636
 2692SOL    MW410815   2.911   1.290   3.803 -0.0987 -0.0237  0.3405
 2693SOL     OW10816   2.228   3.862   4.584  0.1863  0.3721 -0.5465
 2693SOL    HW210817   2.293   3.794   4.603  0.5696  0.6060 -1.0078
 2693SOL    HW310818   2.279   3.942   4.577  0.3366  0.0506 -4.2762
 2693SOL    MW410819   2.243   3.863   4.586  0.2568  0.3605 -1.0996
 2694SOL     OW10820   4.382   4.149   4.840  0.6703 -0.2163  0.1013
 2694SOL    HW210821   4.340   4.064   4.855 -1.4153  0.7697  0.0837
 2694SOL    HW310822   4.474   4.134   4.860  0.3008 -2.4215  0.3261
 2694SOL    MW410823   4.388   4.136   4.845  0.3467 -0.3777  0.1287
 2695SOL     OW10824   0.210   0.772   4.218 -0.1887  0.3259 -0.3583
 2695SOL    HW210825   0.263   0.698   4.248 -0.7129  0.2117  0.3047
 2695SOL    HW310826   0.215   0.769   4.122  0.6174  0.0390 -0.3056
 2695SOL    MW410827   0.217   0.762   4.209 -0.1515  0.2730 -0.2646
 2696SOL     OW10828   4.040   4.238   4.251  0.3988 -0.0281  0.2265
 2696SOL    HW210829   4.034   4.227   4.156  0.8147  0.4586  0.1350
 2696SOL    HW310830   3.957   4.206   4.285  0.3509 -0.4452 -0.2808
 2696SOL    MW410831   4.028   4.233   4.243  0.4473 -0.0186  0.1478
 2697SOL     OW10832   0.163   0.697   4.621  0.0492  0.2421 -0.1833
 2697SOL    HW210833   0.231   0.762   4.638  1.0256 -0.5851 -0.8613
 2697SOL    HW310834   0.128   0.720   4.535  2.7110 -2.0727 -1.9623
 2697SOL    MW410835   0.167   0.708   4.612  0.5292 -0.1724 -0.5078
 2698SOL     OW10836   0.565   2.595   4.295  0.3943  0.1098 -0.2602
 2698SOL    HW210837   0.494   2.645   4.253 -0.3286 -0.2906  0.4751
 2698SOL    HW310838   0.554   2.611   4.388  1.2915  0.0567 -0.1378
 2698SOL    MW410839   0.554   2.604   4.302  0.4173  0.0498 -0.1473
 2699SOL     OW10840   0.673   4.157   4.308 -0.3909 -0.1654 -0.1004
 2699SOL    HW210841   0.584   4.192   4.300 -0.4816 -0.0937  1.1037
 2699SOL    HW310842   0.670   4.074   4.261 -0.8488  0.2609 -0.8324
 2699SOL    MW410843   0.661   4.151   4.301 -0.4633 -0.0997 -0.0377
 2700SOL     OW10844   2.003   2.855   4.579  0.0204  0.2073 -0.4193
 2700SOL    HW210845   1.919   2.894   4.556 -0.4703 -1.2233 -1.0837
 2700SOL    HW310846   1.984   2.762   4.593  1.3429  0.0132  0.2071
 2700SOL    MW410847   1.990   2.848   4.578  0.1303 -0.0069 -0.4239
 2701SOL     OW10848   3.370   1.572   4.182 -0.1054 -0.4081  0.3216
 2701SOL    HW210849   3.456   1.533   4.198  0.7827  0.3991 -2.1376
 2701SOL    HW310850   3.357   1.561   4.087 -1.4507  1.9583  0.1964
 2701SOL    MW410851   3.380   1.566   4.171 -0.1659  0.0105 -0.0186
 2702SOL     OW10852   2.074   4.272   4.771 -0.4414 -0.2670  0.1879
 2702SOL    HW210853   2.039   4.336   4.834  0.6928 -0.0394  0.5886
 2702SOL    HW310854   2.033   4.296   4.688  0.5257  1.4486  0.1793
 2702SOL    MW410855   2.064   4.283   4.769 -0.1643 -0.0105  0.2394
 2703SOL     OW10856   0.930   2.205   4.787 -0.0062 -0.4906 -0.1871
 2703SOL    HW210857   0.939   2.113   4.762 -1.6640 -0.7184 -0.0301
 2703SOL    HW310858   0.845   2.231   4.752  0.3302  0.9157  0.0035
 2703SOL    MW410859   0.920   2.196   4.779 -0.1805 -0.3352 -0.1411
 2704SOL     OW10860   1.810   0.396   4.198 -0.3159  0.2393  0.0884
 2704SOL    HW210861   1.881   0.336   4.221  0.0661  1.2431  1.6321
 2704SOL    HW310862   1.731   0.354   4.232 -0.4728 -0.8303 -1.5413
 2704SOL    MW410863   1.809   0.382   4.206 -0.2861  0.2306  0.0768
 2705SOL     OW10864   0.130   3.704   4.645 -0.0539 -0.0323  0.2706
 2705SOL    HW210865   0.053   3.746   4.608  0.2669  0.4955  0.1967
 2705SOL    HW310866   0.131   3.616   4.607  0.2416  0.4781 -0.9393
 2705SOL    MW410867   0.120   3.698   4.635  0.0274  0.1047  0.1011
 2706SOL     OW10868   2.447   2.463   4.526  0.4990  0.0532  0.6753
 2706SOL    HW210869   2.479   2.492   4.440 -0.5386  0.1912  0.3350
 2706SOL    HW310870   2.524   2.422   4.567  0.5341 -1.7491 -1.0925
 2706SOL    MW410871   2.461   2.461   4.520  0.3669 -0.1664  0.3972
 2707SOL     OW10872   3.889   0.020   4.199  0.4474  0.2320  0.4028
 2707SOL    HW210873   3.855   0.101   4.239 -1.1178 -0.2202  0.0354
 2707SOL    HW310874   3.948  -0.016   4.265  0.7851  1.4227  0.7663
 2707SOL    MW410875   3.892   0.026   4.213  0.2854  0.3294  0.4025
 2708SOL     OW10876   0.669   3.871   3.907 -0.3183  0.0121 -0.0168
 2708SOL    HW210877   0.743   3.921   3.873  0.7835 -1.3732  0.3109
 2708SOL    HW310878   0.675   3.883   4.002 -0.8451  0.3349 -0.0204
 2708SOL    MW410879   0.680   3.879   3.915 -0.2424 -0.1280  0.0260
 2709SOL     OW10880   1.974   2.553   4.547 -0.1934  0.3092  0.2802
 2709SOL    HW210881   2.025   2.474   4.566 -1.4092 -0.3785  0.6971
 2709SOL    HW310882   1.884   2.531   4.571 -0.7234  1.4845 -0.5678
 2709SOL    MW410883   1.969   2.540   4.553 -0.4238  0.3736  0.2232
 2710SOL     OW10884   0.626   1.527   4.184 -0.5640 -0.1798 -0.1183
 2710SOL    HW210885   0.561   1.495   4.246 -0.7644  0.0149 -0.2258
 2710SOL    HW310886   0.629   1.622   4.199 -0.8628 -0.0819 -0.6345
 2710SOL    MW410887   0.618   1.535   4.194 -0.6300 -0.1414 -0.2007
 2711SOL     OW10888   2.888   3.481   4.481  0.6182 -0.3122 -0.7553
 2711SOL    HW210889   2.896   3.410   4.545 -0.6156 -0.6044 -0.8974
 2711SOL    HW310890   2.922   3.443   4.400  3.4706  0.5117  0.0093
 2711SOL    MW410891   2.893   3.466   4.478  0.8321 -0.2418 -0.6728
 2712SOL     OW10892   4.420   1.926   3.906 -0.1090  0.0398  0.2530
 2712SOL    HW210893   4.358   1.986   3.866 -0.9839 -0.3006  1.0903
 2712SOL    HW310894   4.388   1.914   3.996  2.1841  1.3233  1.2970
 2712SOL    MW410895   4.408   1.933   3.913  0.0782  0.1643  0.5014
 2713SOL     OW10896   0.623   3.365   4.287 -0.1098  0.5451  0.4997
 2713SOL    HW210897   0.702   3.402   4.247 -0.3853  1.5003  0.8181
 2713SOL    HW310898   0.655   3.321   4.366  0.2330  0.0174  0.0715
 2713SOL    MW410899   0.638   3.364   4.292 -0.1009  0.6015  0.4854
 2714SOL     OW10900   2.887   2.691   4.546  0.0434  1.0889  0.0446
 2714SOL    HW210901   2.962   2.751   4.544 -0.0526  1.1894 -0.5625
 2714SOL    HW310902   2.812   2.746   4.570 -0.1663  1.3450 -1.1867
 2714SOL    MW410903   2.887   2.706   4.549  0.0031  1.1361 -0.1979
 2715SOL     OW10904   3.132   1.155   3.910 -0.6390  0.0043  0.0568
 2715SOL    HW210905   3.208   1.197   3.869 -1.9377  2.0141 -0.3376
 2715SOL    HW310906   3.140   1.176   4.003  0.4131 -1.6140  0.3673
 2715SOL    MW410907   3.143   1.163   3.917 -0.6714  0.0559  0.0458
 2716SOL     OW10908   2.915   2.589   4.271 -1.1209 -0.2367  0.0160
 2716SOL    HW210909   2.905   2.621   4.361 -1.6556  0.7415 -0.3901
 2716SOL    HW310910   2.839   2.624   4.225 -1.1359 -1.1905 -0.6931
 2716SOL    MW410911   2.903   2.597   4.277 -1.1933 -0.2334 -0.1307
 2717SOL     OW10912   1.050   3.358   4.260  0.0271 -0.6621 -0.0094
 2717SOL    HW210913   1.076   3.312   4.339  0.4356 -0.3956  0.0125
 2717SOL    HW310914   1.127   3.410   4.236 -0.9787  1.2594  0.8746
 2717SOL    MW410915   1.064   3.359   4.267 -0.0516 -0.3736  0.1101
 2718SOL     OW10916   3.086   2.193   4.522  0.1122  0.1675 -0.4377
 2718SOL    HW210917   3.070   2.281   4.555  1.3457 -0.2071  1.1990
 2718SOL    HW310918   3.100   2.205   4.428  0.0402  1.6897 -0.2638
 2718SOL    MW410919   3.086   2.206   4.514  0.2654  0.3190 -0.1984
 2719SOL     OW10920   3.849   3.107   3.869 -0.2949 -0.1317 -0.1892
 2719SOL    HW210921   3.916   3.151   3.817 -0.7903  0.2852 -0.4744
 2719SOL    HW310922   3.769   3.155   3.851 -0.6695 -0.6169  0.1703
 2719SOL    MW410923   3.847   3.119   3.860 -0.4098 -0.1404 -0.1795
 2720SOL     OW10924   3.119   2.704   4.131 -0.0933 -0.4157  0.5985
 2720SOL    HW210925   3.189   2.664   4.183 -0.7830  0.9937  2.6917
 2720SOL    HW310926   3.039   2.673   4.173 -0.6946 -0.5747 -0.6658
 2720SOL    MW410927   3.118   2.694   4.144 -0.2639 -0.2508  0.7076
 2721SOL     OW10928   3.669   4.515   4.244 -0.2923  0.0671 -0.1886
 2721SOL    HW210929   3.744   4.566   4.212  1.2465 -1.7811  0.3282
 2721SOL    HW310930   3.665   4.534   4.338  1.2210 -1.8403  0.2965
 2721SOL    MW410931   3.678   4.524   4.252  0.1104 -0.4282 -0.0563
 2722SOL     OW10932   2.095   2.075   4.652 -0.7131 -0.2230  0.4080
 2722SOL    HW210933   2.163   2.040   4.709 -0.4528 -0.0524  0.2043
 2722SOL    HW310934   2.123   2.164   4.632 -0.1798 -0.6757 -0.9618
 2722SOL    MW410935   2.107   2.082   4.657 -0.6082 -0.2601  0.2007
 2723SOL     OW10936   0.566   0.699   4.423  0.1783 -0.0641  0.4552
 2723SOL    HW210937   0.607   0.638   4.485  0.7871 -1.3056 -1.1253
 2723SOL    HW310938   0.493   0.649   4.386 -0.2552  0.7096  0.2725
 2723SOL    MW410939   0.562   0.684   4.426  0.2014 -0.1259  0.2227
 2724SOL     OW10940   1.983   4.007   4.678  0.4436 -0.0735 -0.3748
 2724SOL    HW210941   2.022   4.091   4.704  0.2250  0.1639 -0.8080
 2724SOL    HW310942   2.057   3.956   4.646  0.3762  0.4543 -1.3926
 2724SOL    MW410943   1.998   4.012   4.677  0.4059  0.0272 -0.5660
 2725SOL     OW10944   2.474   2.568   4.255  0.0595 -0.5477 -0.3897
 2725SOL    HW210945   2.540   2.632   4.230  0.0555  0.0959  1.2000
 2725SOL    HW310946   2.392   2.603   4.220  0.2740 -0.4292 -0.7806
 2725SOL    MW410947   2.472   2.581   4.247  0.0873 -0.4470 -0.2313
 2726SOL     OW10948   0.029   3.206   3.792 -0.3739  0.0377  0.1744
 2726SOL    HW210949   0.101   3.151   3.823 -0.6423 -0.2731  0.2541
 2726SOL    HW310950   0.027   3.192   3.697  0.8868  1.5160 -0.0984
 2726SOL    MW410951   0.038   3.197   3.784 -0.2429  0.1917  0.1490
 2727SOL     OW10952   2.036   1.784   4.273  0.1890 -0.1912 -0.0515
 2727SOL    HW210953   2.039   1.798   4.367 -0.1760 -0.4673  0.0016
 2727SOL    HW310954   1.976   1.851   4.241 -1.6735 -1.6852  0.2201
 2727SOL    MW410955   2.028   1.794   4.281 -0.1049 -0.4249 -0.0091
 2728SOL     OW10956   3.191   4.534   4.509 -0.2061  0.0241 -0.4054
 2728SOL    HW210957   3.279   4.508   4.538 -0.2051  0.0801 -0.3565
 2728SOL    HW310958   3.133   4.470   4.550 -0.1022 -0.6249 -1.2762
 2728SOL    MW410959   3.195   4.522   4.518 -0.1922 -0.0544 -0.5136
 2729SOL     OW10960   4.050   4.500   4.347  0.3844  0.2553  0.0378
 2729SOL    HW210961   4.036   4.410   4.317  0.2725  0.1109  0.5168
 2729SOL    HW310962   4.067   4.491   4.441 -0.8116  0.8258  0.3214
 2729SOL    MW410963   4.050   4.487   4.356  0.2117  0.3119  0.1388
 2730SOL     OW10964   1.335   3.711   4.255 -0.2405  0.0076 -0.0221
 2730SOL    HW210965   1.323   3.719   4.350 -0.3827 -1.0975  0.0632
 2730SOL    HW310966   1.334   3.616   4.239  1.4430  0.1103 -0.9064
 2730SOL    MW410967   1.333   3.699   4.266 -0.0372 -0.1245 -0.1278
 2731SOL     OW10968   1.150   2.584   4.513  0.3838 -0.4051 -0.7193
 2731SOL    HW210969   1.146   2.501   4.560 -1.1069 -1.5523 -2.7942
 2731SOL    HW310970   1.144   2.560   4.420  0.0462  1.9866 -1.3527
 2731SOL    MW410971   1.148   2.570   4.507  0.1425 -0.2408 -1.0762
 2732SOL     OW10972   0.852   2.244   4.187 -0.3312  0.1829  0.0695
 2732SOL    HW210973   0.847   2.245   4.282 -2.2359 -1.6519  0.0122
 2732SOL    HW310974   0.769   2.281   4.157 -0.4155 -0.7288 -0.8722
 2732SOL    MW410975   0.841   2.249   4.195 -0.5937 -0.1795 -0.0625
 2733SOL     OW10976   1.335   4.474   4.344  0.0968  0.0174 -0.2906
 2733SOL    HW210977   1.301   4.540   4.284  0.6702 -0.1866 -0.8428
 2733SOL    HW310978   1.305   4.391   4.309 -1.1591  0.0165  0.7573
 2733SOL    MW410979   1.327   4.472   4.332  0.0066 -0.0105 -0.2251
 2734SOL     OW10980   2.895   2.999   4.704 -0.1193 -0.1262 -0.4015
 2734SOL    HW210981   2.819   2.947   4.680 -0.4579  0.5389 -0.8041
 2734SOL    HW310982   2.963   2.973   4.642 -0.1987 -0.3024 -0.4135
 2734SOL    MW410983   2.894   2.989   4.693 -0.1743 -0.0618 -0.4554
 2735SOL     OW10984   1.564   4.132   4.551 -0.3955 -0.1404 -0.1792
 2735SOL    HW210985   1.530   4.127   4.461 -1.9301 -2.6753  0.5111
 2735SOL    HW310986   1.633   4.066   4.555 -1.5467 -1.3090  0.9811
 2735SOL    MW410987   1.569   4.123   4.539 -0.7498 -0.6294  0.0653
 2736SOL     OW10988   2.228   1.671   3.770 -0.6182  0.0268  0.0531
 2736SOL    HW210989   2.211   1.757   3.809 -1.3371  0.6545 -1.6025
 2736SOL    HW310990   2.160   1.614   3.806 -1.1789  0.5584 -0.1577
 2736SOL    MW410991   2.217   1.675   3.780 -0.7868  0.1799 -0.1931
 2737SOL     OW10992   4.422   4.288   4.138 -0.1378  0.0157  0.0476
 2737SOL    HW210993   4.369   4.222   4.183  0.2836 -0.2796  0.1107
 2737SOL    HW310994   4.396   4.371   4.178  0.4386 -0.2776  1.0430
 2737SOL    MW410995   4.412   4.291   4.149 -0.0057 -0.0620  0.1879
 2738SOL     OW10996   2.022   2.085   3.798 -0.2693 -0.1132  0.0251
 2738SOL    HW210997   1.949   2.032   3.829  1.0794 -1.1005  1.6739
 2738SOL    HW310998   2.033   2.061   3.706 -0.8757 -1.2998  0.2581
 2738SOL    MW410999   2.014   2.075   3.790 -0.1712 -0.4003  0.2732
 2739SOL     OW11000   2.957   0.999   4.251  0.0912 -0.2100  0.3933
 2739SOL    HW211001   2.966   0.908   4.221  1.3028 -0.2331  0.7958
 2739SOL    HW311002   2.878   1.031   4.207 -1.1816 -1.9008  1.3850
 2739SOL    MW411003   2.948   0.991   4.241  0.0830 -0.4361  0.5774
 2740SOL     OW11004   2.386   4.326   4.736  0.2654  0.0749  0.5825
 2740SOL    HW211005   2.404   4.412   4.697 -1.3955  0.0408 -0.2554
 2740SOL    HW311006   2.291   4.322   4.744  0.2085 -2.4457 -1.0960
 2740SOL    MW411007   2.376   4.337   4.732  0.0391 -0.2618  0.2508
 2741SOL     OW11008   2.896   1.293   4.600 -0.2974 -0.1819  0.1878
 2741SOL    HW211009   2.828   1.358   4.584 -0.0416 -0.2574 -1.3012
 2741SOL    HW311010   2.978   1.341   4.584 -0.0687 -0.5821  0.1653
 2741SOL    MW411011   2.898   1.308   4.595 -0.2337 -0.2449 -0.0114
 2742SOL     OW11012   0.447   4.288   4.191  0.2549  0.2272  0.0416
 2742SOL    HW211013   0.445   4.278   4.095 -0.5077 -1.3653  0.2027
 2742SOL    HW311014   0.360   4.261   4.220  0.7536 -0.1291  1.2512
 2742SOL    MW411015   0.435   4.283   4.182  0.2201 -0.0296  0.2217
 2743SOL     OW11016   3.579   0.592   4.540  0.1302  0.3831  0.3830
 2743SOL    HW211017   3.596   0.507   4.581 -0.8838  0.3911  0.8409
 2743SOL    HW311018   3.484   0.593   4.525  0.3394  0.7879 -1.0588
 2743SOL    MW411019   3.569   0.581   4.543  0.0241  0.4376  0.2532
 2744SOL     OW11020   1.340   2.700   4.122  0.1021  0.3543  0.2418
 2744SOL    HW211021   1.320   2.786   4.157 -0.8325 -0.0327  0.6840
 2744SOL    HW311022   1.355   2.715   4.028 -0.2304  0.9592  0.2853
 2744SOL    MW411023   1.340   2.713   4.114 -0.0650  0.3831  0.3057
 2745SOL     OW11024   2.893   3.902   4.919 -0.0942  0.6510 -0.0677
 2745SOL    HW211025   2.937   3.937   4.841 -1.2791  1.4574 -0.3982
 2745SOL    HW311026   2.800   3.923   4.905 -0.3825  0.3713  1.3324
 2745SOL    MW411027   2.886   3.910   4.907 -0.2887  0.7207  0.0730
 2746SOL     OW11028   3.078   1.713   4.510  0.0953 -0.2127 -0.1918
 2746SOL    HW211029   3.166   1.748   4.525 -0.1663  0.7059 -0.7112
 2746SOL    HW311030   3.081   1.624   4.543  1.3754 -0.3575 -0.6767
 2746SOL    MW411031   3.090   1.706   4.516  0.2296 -0.1106 -0.3247
 2747SOL     OW11032   4.256   3.882   3.878  0.4409 -0.0668 -0.0728
 2747SOL    HW211033   4.267   3.891   3.973  0.1855 -1.6123  0.1049
 2747SOL    HW311034   4.265   3.789   3.861 -1.5226 -0.0579 -1.3159
 2747SOL    MW411035   4.258   3.871   3.888  0.1488 -0.2694 -0.2131
 2748SOL     OW11036   2.607   3.954   4.886  0.0049 -0.5668  0.5681
 2748SOL    HW211037   2.560   3.876   4.917 -0.9807  0.1790  0.9979
 2748SOL    HW311038   2.578   3.965   4.796  2.2897 -2.2967 -0.4205
 2748SOL    MW411039   2.597   3.945   4.878  0.1760 -0.6969  0.4940
 2749SOL     OW11040   2.538   0.194   4.281 -0.0171 -0.2402 -0.0492
 2749SOL    HW211041   2.602   0.256   4.247 -0.6962 -0.6402 -2.0979
 2749SOL    HW311042   2.554   0.193   4.376  1.1161  1.7811 -0.1854
 2749SOL    MW411043   2.548   0.202   4.289  0.0429 -0.0263 -0.3371
 2750SOL     OW11044   0.358   1.466   4.631  0.2419 -0.6254  0.4511
 2750SOL    HW211045   0.424   1.399   4.646  0.2529 -0.9928 -1.2417
 2750SOL    HW311046   0.350   1.473   4.536 -1.9120 -0.3606  0.6087
 2750SOL    MW411047   0.365   1.458   4.621 -0.0408 -0.6390  0.2484
 2751SOL     OW11048   2.488   3.298   4.263  0.0857 -0.0528  0.0744
 2751SOL    HW211049   2.427   3.360   4.224 -0.4345  0.7434  2.0438
 2751SOL    HW311050   2.503   3.332   4.351  1.6903 -1.4210  0.3626
 2751SOL    MW411051   2.482   3.310   4.270  0.2289 -0.1283  0.3724
 2752SOL     OW11052   2.834   2.108   4.504  0.0670 -0.1484 -0.0348
 2752SOL    HW211053   2.924   2.132   4.522  0.4715 -0.8537 -1.0536
 2752SOL    HW311054   2.834   2.012   4.506 -0.4939 -0.1710 -0.7680
 2752SOL    MW411055   2.846   2.098   4.507  0.0465 -0.2444 -0.2661
 2753SOL     OW11056   2.002   4.629   3.872  0.1030  0.1177 -0.0701
 2753SOL    HW211057   2.003   4.541   3.836  0.3958  0.2014 -0.2738
 2753SOL    HW311058   2.085   4.667   3.844  0.3246  0.1929  0.6826
 2753SOL    MW411059   2.013   4.623   3.864  0.1712  0.1383  0.0024
 2754SOL     OW11060   2.499   0.936   4.708  0.0555 -0.3311 -0.3427
 2754SOL    HW211061   2.506   1.031   4.699  0.1325 -0.4490 -1.6431
 2754SOL    HW311062   2.589   0.905   4.709  0.0363 -0.3698  0.3666
 2754SOL    MW411063   2.512   0.945   4.707  0.0632 -0.3517 -0.4206
 2755SOL     OW11064   0.182   2.320   3.906 -0.2762  0.1000  0.7767
 2755SOL    HW211065   0.243   2.373   3.855 -1.0973  0.2264 -0.0861
 2755SOL    HW311066   0.096   2.358   3.887 -0.7967 -1.1013  0.6892
 2755SOL    MW411067   0.179   2.332   3.897 -0.4532 -0.0417  0.6516
 2756SOL     OW11068   1.115   3.608   3.760  0.4821 -0.1044  0.1847
 2756SOL    HW211069   1.118   3.696   3.796 -0.3268 -0.1737  0.4211
 2756SOL    HW311070   1.026   3.577   3.779  0.8715 -1.0942  0.4037
 2756SOL    MW411071   1.104   3.615   3.767  0.4269 -0.2441  0.2449
 2757SOL     OW11072   2.737   0.350   4.182  0.3623  0.4193  0.1257
 2757SOL    HW211073   2.727   0.346   4.086  0.6097  0.2675  0.1056
 2757SOL    HW311074   2.743   0.443   4.202 -0.3300  0.4851  0.0583
 2757SOL    MW411075   2.736   0.362   4.172  0.3037  0.4079  0.1140
 2758SOL     OW11076   3.193   2.540   4.758 -0.0001 -0.3395  0.0334
 2758SOL    HW211077   3.254   2.477   4.795 -1.0105 -1.5246 -0.2857
 2758SOL    HW311078   3.209   2.621   4.806  0.9230 -0.9910  0.8243
 2758SOL    MW411079   3.203   2.543   4.769 -0.0114 -0.5817  0.0954
 2759SOL     OW11080   3.331   0.467   3.805  0.1573  0.1700  0.4468
 2759SOL    HW211081   3.264   0.420   3.854  0.0787  0.0898  0.2640
 2759SOL    HW311082   3.414   0.434   3.840  0.1252 -1.4218 -0.8929
 2759SOL    MW411083   3.333   0.456   3.816  0.1428 -0.0506  0.2458
 2760SOL     OW11084   1.090   3.092   3.814  0.5945  0.1978  0.7611
 2760SOL    HW211085   1.098   3.086   3.909  1.1756  1.9643  0.8452
 2760SOL    HW311086   1.177   3.119   3.784  0.2121  0.3969 -0.1882
 2760SOL    MW411087   1.102   3.095   3.823  0.6207  0.4570  0.6466
 2761SOL     OW11088   1.300   0.424   4.528 -0.1086  0.1246 -0.0437
 2761SOL    HW211089   1.326   0.496   4.471  1.0633  1.8959  2.6029
 2761SOL    HW311090   1.383   0.383   4.554 -0.7093 -1.5590 -0.7512
 2761SOL    MW411091   1.315   0.428   4.524 -0.0333  0.1362  0.2122
 2762SOL     OW11092   2.004   2.574   4.265  0.1229 -0.0084  0.1357
 2762SOL    HW211093   2.005   2.486   4.226  1.8318  0.3735 -0.7134
 2762SOL    HW311094   2.009   2.558   4.360  2.1207 -0.8213 -0.0712
 2762SOL    MW411095   2.005   2.560   4.273  0.6118 -0.0653 -0.0033
 2763SOL     OW11096   2.838   4.124   4.585 -0.2502 -0.2727 -0.3135
 2763SOL    HW211097   2.896   4.060   4.625  1.1578  1.0802 -0.1498
 2763SOL    HW311098   2.846   4.202   4.641 -0.8646  0.5148 -1.3086
 2763SOL    MW411099   2.846   4.126   4.598 -0.1452  0.0095 -0.4234
 2764SOL     OW11100   3.101   4.048   5.076  0.5082 -0.0067 -0.2847
 2764SOL    HW211101   3.009   4.022   5.070  0.2720  0.7734 -0.1348
 2764SOL    HW311102   3.104   4.136   5.038  1.2151 -0.0758 -0.4031
 2764SOL    MW411103   3.089   4.056   5.070  0.5705  0.0868 -0.2804
 2765SOL     OW11104   1.757   0.117   3.801 -0.9010 -0.2347  0.6437
 2765SOL    HW211105   1.838   0.078   3.834 -0.7946 -1.4887 -1.0602
 2765SOL    HW311106   1.688   0.056   3.827 -0.7607 -1.4959 -1.8231
 2765SOL    MW411107   1.759   0.104   3.809 -0.8684 -0.5665  0.0937
 2766SOL     OW11108   1.320   1.106   3.907  0.0724 -0.0021  0.3828
 2766SOL    HW211109   1.397   1.152   3.873  0.7097 -0.9025  0.5956
 2766SOL    HW311110   1.246   1.147   3.862  0.7150  0.4958 -0.2392
 2766SOL    MW411111   1.320   1.117   3.897  0.2412 -0.0551  0.3288
 2767SOL     OW11112   2.484   3.365   4.537 -0.3209  0.4653 -0.2665
 2767SOL    HW211113   2.460   3.448   4.578  0.2070 -0.4951  2.0798
 2767SOL    HW311114   2.546   3.326   4.597  0.2569 -1.1673 -1.8737
 2767SOL    MW411115   2.489   3.371   4.550 -0.1750  0.1230 -0.1688
 2768SOL     OW11116   4.282   1.728   4.317 -0.1281  0.2642  0.1881
 2768SOL    HW211117   4.302   1.731   4.410 -0.3958  0.8039  0.2254
 2768SOL    HW311118   4.267   1.635   4.299 -0.6692  0.2344  0.8070
 2768SOL    MW411119   4.283   1.716   4.327 -0.2351  0.3315  0.2751
 2769SOL     OW11120   0.793   3.657   4.493 -0.1703  0.3634 -0.2295
 2769SOL    HW211121   0.810   3.733   4.549 -0.4648  0.1374  0.1671
 2769SOL    HW311122   0.826   3.683   4.407 -0.2088  0.9134 -0.0781
 2769SOL    MW411123   0.800   3.670   4.489 -0.2142  0.4063 -0.1574
 2770SOL     OW11124   1.550   0.015   4.140  0.5809  0.3952  0.3249
 2770SOL    HW211125   1.539  -0.002   4.047 -1.7382  1.1094  0.4393
 2770SOL    HW311126   1.622  -0.041   4.167  2.6936  1.7303 -2.3336
 2770SOL    MW411127   1.558   0.006   4.131  0.5536  0.6652 -0.0105
 2771SOL     OW11128   1.114   4.197   4.677  0.4549  0.6285  0.3939
 2771SOL    HW211129   1.019   4.194   4.691  0.4593 -1.6941  0.2166
 2771SOL    HW311130   1.129   4.280   4.632 -1.4470  1.1987  0.7656
 2771SOL    MW411131   1.103   4.207   4.673  0.2044  0.3977  0.4191
 2772SOL     OW11132   4.082   1.214   4.716 -0.1726 -0.3615  0.3682
 2772SOL    HW211133   4.128   1.161   4.651  0.3873  1.4884 -0.7661
 2772SOL    HW311134   4.050   1.150   4.780  1.6702 -1.9409 -0.2275
 2772SOL    MW411135   4.084   1.198   4.716  0.1440 -0.3259  0.1397
 2773SOL     OW11136   0.853   3.729   4.205  0.0807 -0.5927  0.0939
 2773SOL    HW211137   0.842   3.641   4.170  0.7600 -0.2444 -1.0240
 2773SOL    HW311138   0.944   3.750   4.187  0.0244  0.1892  0.7122
 2773SOL    MW411139   0.863   3.720   4.198  0.1629 -0.4435  0.0281
 2774SOL     OW11140   3.809   1.266   4.564  0.1482  0.1880 -0.1935
 2774SOL    HW211141   3.781   1.175   4.559  0.1828  0.1122  0.8872
 2774SOL    HW311142   3.896   1.262   4.604  0.1963  0.6904 -0.2489
 2774SOL    MW411143   3.817   1.253   4.569  0.1590  0.2444 -0.0582
 2775SOL     OW11144   0.048   1.154   4.296  0.0919 -0.2190  0.3457
 2775SOL    HW211145   0.013   1.133   4.210 -1.5704 -0.6651  1.1053
 2775SOL    HW311146   0.131   1.108   4.300  0.3623  0.1175 -1.1603
 2775SOL    MW411147   0.054   1.145   4.285 -0.0916 -0.2333  0.2475
 2776SOL     OW11148   3.817   4.397   3.871 -0.1247 -0.0493  0.5637
 2776SOL    HW211149   3.833   4.490   3.886 -0.5448  0.1510 -0.2193
 2776SOL    HW311150   3.834   4.384   3.778  0.7476 -0.9264  0.8244
 2776SOL    MW411151   3.822   4.407   3.861 -0.0651 -0.1388  0.4947
 2777SOL     OW11152   4.404   0.792   4.708  0.4100 -0.2376 -0.3000
 2777SOL    HW211153   4.419   0.837   4.791  0.1099 -0.6686 -0.0107
 2777SOL    HW311154   4.491   0.768   4.677  0.5202 -0.1125 -0.0856
 2777SOL    MW411155   4.417   0.795   4.715  0.3848 -0.2780 -0.2337
 2778SOL     OW11156   1.808   1.128   3.916 -0.5698  0.5153 -0.1083
 2778SOL    HW211157   1.796   1.113   4.010 -0.7189 -0.2952 -0.2547
 2778SOL    HW311158   1.841   1.045   3.882 -0.0664  0.9467 -0.6977
 2778SOL    MW411159   1.811   1.115   3.924 -0.5230  0.4653 -0.2053
 2779SOL     OW11160   3.276   3.565   4.724 -0.0286  0.7303  0.2914
 2779SOL    HW211161   3.292   3.627   4.653 -0.2926  1.8389  1.1822
 2779SOL    HW311162   3.331   3.596   4.796  0.1084 -0.2762  0.6277
 2779SOL    MW411163   3.285   3.577   4.724 -0.0453  0.7436  0.4535
 2780SOL     OW11164   1.311   0.791   4.579  0.1224  0.2508  0.8081
 2780SOL    HW211165   1.321   0.748   4.494  0.1427  0.3361  0.7671
 2780SOL    HW311166   1.398   0.827   4.598  0.4005 -0.7161  1.3816
 2780SOL    MW411167   1.324   0.790   4.570  0.1618  0.1345  0.8783
 2781SOL     OW11168   0.003   1.672   3.790  0.0370  0.0512 -0.0917
 2781SOL    HW211169  -0.035   1.748   3.835 -2.2110 -0.8297 -0.4819
 2781SOL    HW311170   0.014   1.701   3.700 -0.5228  0.0239 -0.1699
 2781SOL    MW411171  -0.000   1.686   3.784 -0.3334 -0.0687 -0.1535
 2782SOL     OW11172   2.232   2.205   4.281  0.1805  0.0921  0.2347
 2782SOL    HW211173   2.309   2.252   4.247  0.1559  0.0483  0.1221
 2782SOL    HW311174   2.238   2.118   4.243 -1.4114  0.8933 -1.9729
 2782SOL    MW411175   2.243   2.200   4.272 -0.0327  0.1919 -0.0715
 2783SOL     OW11176   1.396   2.683   4.543 -0.1080 -0.5849 -0.1487
 2783SOL    HW211177   1.434   2.660   4.458  0.2456 -0.9752  0.1167
 2783SOL    HW311178   1.303   2.665   4.533 -0.3957  1.3496 -1.1417
 2783SOL    MW411179   1.389   2.678   4.530 -0.0993 -0.3810 -0.2441
 2784SOL     OW11180   2.227   1.912   3.902 -0.0445 -0.1663 -0.0959
 2784SOL    HW211181   2.159   1.965   3.862  0.2096  0.4668  0.3012
 2784SOL    HW311182   2.309   1.957   3.880  0.1383 -0.1309  0.6280
 2784SOL    MW411183   2.229   1.925   3.894  0.0131 -0.0781  0.0520
 2785SOL     OW11184   3.241   0.072   4.709  0.1765 -0.1019 -0.0226
 2785SOL    HW211185   3.322   0.107   4.673 -0.0608  0.5843  0.1115
 2785SOL    HW311186   3.213   0.005   4.646 -0.2795  1.1341 -1.1528
 2785SOL    MW411187   3.248   0.068   4.696  0.0851  0.1517 -0.1545
 2786SOL     OW11188   1.148   4.451   4.540  0.1708 -0.1012  0.4721
 2786SOL    HW211189   1.199   4.473   4.461 -0.2915  0.4077  0.3144
 2786SOL    HW311190   1.159   4.526   4.597 -0.4450  0.0318  0.4187
 2786SOL    MW411191   1.156   4.464   4.537  0.0284 -0.0167  0.4449
 2787SOL     OW11192   4.178   2.117   4.572 -0.2521  0.1162  0.2814
 2787SOL    HW211193   4.130   2.148   4.649 -0.2224  1.0213 -0.0681
 2787SOL    HW311194   4.238   2.188   4.551  0.4301 -0.5347  0.0054
 2787SOL    MW411195   4.180   2.130   4.580 -0.1583  0.1497  0.1984
 2788SOL     OW11196   2.277   1.687   4.528  0.3464 -0.3024 -0.1284
 2788SOL    HW211197   2.266   1.592   4.523 -1.8771 -0.1085  0.6222
 2788SOL    HW311198   2.372   1.700   4.522  0.5791 -2.4586 -1.7453
 2788SOL    MW411199   2.288   1.676   4.527  0.0839 -0.5614 -0.2427
 2789SOL     OW11200   3.631   4.208   4.577 -0.2607  0.2803  0.5660
 2789SOL    HW211201   3.622   4.114   4.592  1.4068  0.0466  0.1542
 2789SOL    HW311202   3.679   4.240   4.653  0.4015  0.5688  0.0288
 2789SOL    MW411203   3.636   4.200   4.589  0.0470  0.2875  0.4406
 2790SOL     OW11204   1.859   3.553   4.532 -0.7066  0.1125 -0.0223
 2790SOL    HW211205   1.933   3.565   4.592 -0.3767  0.9689 -0.5967
 2790SOL    HW311206   1.855   3.634   4.482 -0.7053 -0.7639 -1.4672
 2790SOL    MW411207   1.869   3.565   4.534 -0.6630  0.1097 -0.2880
 2791SOL     OW11208   4.297   1.852   4.585  0.0534  0.6080  0.1235
 2791SOL    HW211209   4.229   1.793   4.618  0.8706 -0.0761  0.6234
 2791SOL    HW311210   4.263   1.939   4.601 -1.0878  0.2726 -0.4359
 2791SOL    MW411211   4.284   1.855   4.591  0.0110  0.4736  0.1154
 2792SOL     OW11212   1.583   0.253   4.299  0.2078  0.1733  0.3057
 2792SOL    HW211213   1.580   0.167   4.256  1.8651  0.5673 -0.6790
 2792SOL    HW311214   1.510   0.301   4.262  0.1296 -0.3432 -0.2202
 2792SOL    MW411215   1.573   0.248   4.288  0.4162  0.1571  0.1068
 2793SOL     OW11216   1.364   2.710   3.828 -0.4256  0.3120  0.3076
 2793SOL    HW211217   1.280   2.740   3.793 -1.0963 -0.7827  0.9108
 2793SOL    HW311218   1.362   2.615   3.815  0.3244  0.1724  1.1565
 2793SOL    MW411219   1.352   2.701   3.822 -0.4152  0.1490  0.4992
 2794SOL     OW11220   3.448   0.153   4.557 -0.3914  0.3090 -0.0432
 2794SOL    HW211221   3.412   0.179   4.472 -1.1391 -1.1191 -0.1750
 2794SOL    HW311222   3.525   0.209   4.568 -0.4466  0.7079 -1.5318
 2794SOL    MW411223   3.454   0.164   4.547 -0.4976  0.1732 -0.2570
 2795SOL     OW11224   2.695   1.400   4.248  0.7939 -0.2689 -0.3342
 2795SOL    HW211225   2.620   1.430   4.195 -0.0582 -0.9843  0.4560
 2795SOL    HW311226   2.767   1.458   4.222 -0.3078  1.1428 -0.3114
 2795SOL    MW411227   2.695   1.412   4.237  0.5360 -0.1770 -0.2270
 2796SOL     OW11228   1.795   3.040   4.475 -0.5083  0.4481  0.2301
 2796SOL    HW211229   1.813   3.022   4.383  0.3814 -1.5548  0.7761
 2796SOL    HW311230   1.836   3.126   4.491 -0.1462  0.5274 -1.0805
 2796SOL    MW411231   1.803   3.049   4.465 -0.3431  0.1941  0.1292
 2797SOL     OW11232   1.773   1.611   4.614  0.3625 -0.1536  0.0282
 2797SOL    HW211233   1.707   1.675   4.587 -1.3079 -1.0622  1.8550
 2797SOL    HW311234   1.856   1.655   4.601 -0.7017  1.8567 -0.1075
 2797SOL    MW411235   1.775   1.625   4.609  0.0015 -0.0083  0.2513
 2798SOL     OW11236   1.588   2.287   4.604 -0.5103 -0.1361 -0.0194
 2798SOL    HW211237   1.629   2.373   4.602 -0.9342  0.0888  0.8909
 2798SOL    HW311238   1.662   2.226   4.610 -0.2934  0.2719  1.7141
 2798SOL    MW411239   1.603   2.290   4.604 -0.5376 -0.0527  0.3295
 2799SOL     OW11240   3.823   2.633   4.273  0.4583 -0.7035 -0.1209
 2799SOL    HW211241   3.907   2.666   4.240 -0.0228 -1.0329 -1.7240
 2799SOL    HW311242   3.816   2.545   4.236 -1.8239  0.3236 -2.2717
 2799SOL    MW411243   3.833   2.626   4.264  0.0937 -0.6118 -0.6161
 2800SOL     OW11244   4.108   0.497   4.442  0.3126  0.3552 -0.5294
 2800SOL    HW211245   4.202   0.501   4.457  0.3662 -0.1234 -0.7309
 2800SOL    HW311246   4.086   0.583   4.405  0.5704  0.6789  0.0613
 2800SOL    MW411247   4.117   0.509   4.439  0.3533  0.3347 -0.4778
 2801SOL     OW11248   0.231   3.888   3.920 -0.0803  0.3671 -0.1082
 2801SOL    HW211249   0.247   3.910   4.012  0.3624 -0.1454 -0.0661
 2801SOL    HW311250   0.307   3.921   3.873  1.0328 -1.8763  0.0696
 2801SOL    MW411251   0.243   3.895   3.926  0.1250  0.0033 -0.0789
 2802SOL     OW11252   4.054   4.437   4.617 -0.0332  0.3257 -0.0688
 2802SOL    HW211253   4.035   4.344   4.612  0.5253  0.2195 -0.2458
 2802SOL    HW311254   4.143   4.442   4.652 -0.4379  0.8159  0.9161
 2802SOL    MW411255   4.063   4.426   4.621 -0.0134  0.3757  0.0381
 2803SOL     OW11256   1.592   0.921   4.609 -0.1238 -0.0074 -0.2018
 2803SOL    HW211257   1.595   0.943   4.516 -1.2721 -0.5086 -0.3618
 2803SOL    HW311258   1.608   1.004   4.654  0.5979  0.2061 -0.8430
 2803SOL    MW411259   1.594   0.935   4.603 -0.1801 -0.0454 -0.3076
 2804SOL     OW11260   1.425   3.329   4.518  0.0659 -0.5775 -0.0771
 2804SOL    HW211261   1.465   3.392   4.578  0.8644  1.1630 -2.3832
 2804SOL    HW311262   1.472   3.247   4.533  0.2428 -0.1726  1.6469
 2804SOL    MW411263   1.436   3.326   4.528  0.1947 -0.2942 -0.1535
 2805SOL     OW11264   1.944   0.486   4.556 -0.0595 -0.0898 -0.2622
 2805SOL    HW211265   1.920   0.579   4.554  1.0289  0.1856 -1.4692
 2805SOL    HW311266   2.038   0.486   4.539  0.1337 -1.3625  0.7732
 2805SOL    MW411267   1.953   0.498   4.554  0.1094 -0.2213 -0.2847
 2806SOL     OW11268   0.012   4.502   4.504  0.0836 -0.1853 -0.0407
 2806SOL    HW211269  -0.043   4.504   4.425 -0.7628 -1.4384  0.4974
 2806SOL    HW311270   0.020   4.593   4.530  0.2226  0.2317 -1.4773
 2806SOL    MW411271   0.006   4.514   4.497 -0.0098 -0.2947 -0.1593
 2807SOL     OW11272   2.027   1.511   3.873 -0.0874 -0.0676  0.1181
 2807SOL    HW211273   2.030   1.417   3.852 -1.8467  0.1886 -1.3427
 2807SOL    HW311274   2.035   1.513   3.969  0.9690 -1.6448  0.0904
 2807SOL    MW411275   2.028   1.499   3.883 -0.1802 -0.2421 -0.0784
 2808SOL     OW11276   1.364   0.121   3.805 -0.0178 -0.0627  0.1685
 2808SOL    HW211277   1.288   0.087   3.852  0.5802 -0.6233  0.7433
 2808SOL    HW311278   1.377   0.209   3.841  0.3093 -0.4106  0.9216
 2808SOL    MW411279   1.356   0.128   3.816  0.1042 -0.1826  0.3438
 2809SOL     OW11280   4.212   2.354   3.838 -0.0887 -0.1702  0.2684
 2809SOL    HW211281   4.227   2.362   3.932  0.4395  1.2759  0.0839
 2809SOL    HW311282   4.141   2.416   3.819  0.2288  0.0163 -0.3640
 2809SOL    MW411283   4.205   2.364   3.848  0.0234  0.0451  0.1605
 2810SOL     OW11284   0.525   4.551   4.326  0.3671 -0.0092  0.2128
 2810SOL    HW211285   0.492   4.473   4.282 -0.2263  0.4510 -0.1671
 2810SOL    HW311286   0.586   4.590   4.264 -1.2364  1.1966 -0.6459
 2810SOL    MW411287   0.529   4.546   4.312  0.0772  0.2103  0.0496
 2811SOL     OW11288   3.630   1.477   4.521 -0.3103  0.3136  0.3793
 2811SOL    HW211289   3.637   1.480   4.426 -1.1973 -0.3336  0.2973
 2811SOL    HW311290   3.703   1.421   4.549 -0.4117  0.0106  0.0368
 2811SOL    MW411291   3.641   1.470   4.512 -0.4408  0.1884  0.3242
 2812SOL     OW11292   0.658   1.805   4.231 -0.0112  0.0607  0.7977
 2812SOL    HW211293   0.739   1.846   4.200 -0.6305  0.7888  0.1424
 2812SOL    HW311294   0.651   1.831   4.323  0.9908 -0.7898  1.1325
 2812SOL    MW411295   0.668   1.814   4.239  0.0393  0.0445  0.7553
 2813SOL     OW11296   1.773   2.207   4.285  0.2441  0.4458 -0.0652
 2813SOL    HW211297   1.764   2.120   4.245 -1.3753  1.7043 -2.5693
 2813SOL    HW311298   1.859   2.238   4.254  1.9056 -1.1220  2.7298
 2813SOL    MW411299   1.783   2.200   4.276  0.2496  0.4051 -0.0262
 2814SOL     OW11300   0.912   0.403   3.876 -0.1027  0.3051 -0.0497
 2814SOL    HW211301   0.920   0.315   3.842  0.8117  0.4221 -0.1468
 2814SOL    HW311302   0.900   0.391   3.971 -1.3395  0.0343 -0.2334
 2814SOL    MW411303   0.912   0.390   3.884 -0.1453  0.2848 -0.0870
 2815SOL     OW11304   3.631   0.369   4.195  0.3532 -0.6384 -0.1733
 2815SOL    HW211305   3.623   0.386   4.101 -1.3851  2.6667  0.4894
 2815SOL    HW311306   3.560   0.307   4.214  0.9301 -1.5950 -1.0695
 2815SOL    MW411307   3.620   0.363   4.185  0.1998 -0.3286 -0.2041
 2816SOL     OW11308   1.286   3.423   4.153 -0.2710 -0.0696 -0.0283
 2816SOL    HW211309   1.371   3.381   4.168 -0.2114  0.4775  1.2279
 2816SOL    HW311310   1.287   3.446   4.060  1.6493  1.4154  0.3230
 2816SOL    MW411311   1.298   3.421   4.143 -0.0098  0.1986  0.1841
 2817SOL     OW11312   2.037   2.869   3.785 -0.1238  0.3558 -0.1060
 2817SOL    HW211313   1.972   2.813   3.826 -0.5882  2.6568  2.4790
 2817SOL    HW311314   2.121   2.835   3.816 -0.1338 -1.3277 -1.7924
 2817SOL    MW411315   2.040   2.857   3.794 -0.1860  0.4373  0.0126
 2818SOL     OW11316   0.701   1.062   4.335 -0.0224 -0.4171 -0.1968
 2818SOL    HW211317   0.732   1.043   4.424  0.0298  0.2740 -0.0664
 2818SOL    HW311318   0.767   1.119   4.297 -0.7350  0.4286 -0.1897
 2818SOL    MW411319   0.714   1.067   4.342 -0.1094 -0.2143 -0.1788
 2819SOL     OW11320   3.339   2.851   4.627 -0.1683  1.0901  0.4565
 2819SOL    HW211321   3.341   2.848   4.723  1.3180  0.0650  0.4206
 2819SOL    HW311322   3.408   2.913   4.603 -0.3254  1.1062  0.0426
 2819SOL    MW411323   3.348   2.858   4.637  0.0072  0.9570  0.3977
 2820SOL     OW11324   3.385   3.104   3.910 -0.0825  0.5304  0.2434
 2820SOL    HW211325   3.409   3.015   3.885 -0.6864  0.7954 -1.3196
 2820SOL    HW311326   3.357   3.096   4.001  0.7338 -0.7139  0.3986
 2820SOL    MW411327   3.384   3.091   3.919 -0.0546  0.4015  0.0577
 2821SOL     OW11328   0.458   0.888   3.815  0.3156 -0.2787  0.5639
 2821SOL    HW211329   0.531   0.845   3.859  0.7700 -0.1727 -0.0643
 2821SOL    HW311330   0.380   0.843   3.847  0.6247 -0.1143  1.5610
 2821SOL    MW411331   0.457   0.876   3.825  0.4163 -0.2429  0.6127
 2822SOL     OW11332   1.114   0.748   3.912  0.0215 -0.1229  0.3156
 2822SOL    HW211333   1.133   0.739   4.006  0.5158  0.0835  0.2360
 2822SOL    HW311334   1.115   0.658   3.879  0.1523 -0.1705  0.4494
 2822SOL    MW411335   1.116   0.735   3.920  0.1040 -0.1019  0.3228
 2823SOL     OW11336   0.658   2.326   3.830 -0.4341 -0.0166  0.1974
 2823SOL    HW211337   0.670   2.231   3.832 -0.8139 -0.0651  0.2633
 2823SOL    HW311338   0.642   2.349   3.922 -1.0178  0.0214  0.0877
 2823SOL    MW411339   0.658   2.317   3.843 -0.5612 -0.0179  0.1915
 2824SOL     OW11340   0.448   3.830   4.343 -0.0967 -0.6215  0.1489
 2824SOL    HW211341   0.442   3.830   4.439 -0.8799  1.1131  0.1116
 2824SOL    HW311342   0.368   3.872   4.314  1.6092  1.8424 -1.1625
 2824SOL    MW411343   0.437   3.835   4.352  0.0250 -0.0677 -0.0291
 2825SOL     OW11344   3.868   0.286   4.799  0.3619  0.3863  0.3129
 2825SOL    HW211345   3.879   0.245   4.885 -0.9711 -0.1961  0.2033
 2825SOL    HW311346   3.948   0.263   4.752  0.0969 -1.2188  0.6073
 2825SOL    MW411347   3.880   0.278   4.804  0.1509  0.0977  0.3366
 2826SOL     OW11348   0.681   0.818   4.193 -0.0341 -0.3741 -0.0065
 2826SOL    HW211349   0.641   0.773   4.267 -1.7969  0.0736 -0.6659
 2826SOL    HW311350   0.681   0.911   4.218 -2.0668 -0.0304 -1.1738
 2826SOL    MW411351   0.676   0.824   4.206 -0.5348 -0.2697 -0.2480
 2827SOL     OW11352   4.308   2.666   4.179  0.2287  0.2507  0.0801
 2827SOL    HW211353   4.307   2.578   4.141 -1.8721  0.3045 -0.0334
 2827SOL    HW311354   4.397   2.698   4.162  0.2428 -0.8553 -2.2024
 2827SOL    MW411355   4.320   2.659   4.172 -0.0477  0.1121 -0.2360
 2828SOL     OW11356   2.274   0.272   4.207  0.3616  0.0773 -0.1477
 2828SOL    HW211357   2.289   0.269   4.113 -0.5873 -2.1595 -0.2513
 2828SOL    HW311358   2.353   0.236   4.246 -0.3522 -1.6193 -0.2299
 2828SOL    MW411359   2.286   0.267   4.200  0.1421 -0.4416 -0.1731
 2829SOL     OW11360   2.471   2.316   4.138 -0.1779  0.1421  0.2648
 2829SOL    HW211361   2.486   2.399   4.183  1.3511  0.1242 -0.1606
 2829SOL    HW311362   2.535   2.256   4.177 -2.1937 -1.2263  1.5392
 2829SOL    MW411363   2.481   2.319   4.149 -0.2422 -0.0408  0.3767
 2830SOL     OW11364   0.609   2.378   4.120  0.1070 -0.2911  0.2673
 2830SOL    HW211365   0.610   2.459   4.171 -2.5156  0.4859 -0.8120
 2830SOL    HW311366   0.558   2.317   4.172  1.0913 -0.8883  0.5397
 2830SOL    MW411367   0.603   2.381   4.133 -0.1091 -0.2675  0.1607
 2831SOL     OW11368   2.608   3.962   4.604  0.0649  0.1410  0.6899
 2831SOL    HW211369   2.681   4.024   4.598  0.5701 -0.5287 -0.1426
 2831SOL    HW311370   2.531   4.014   4.584  0.8241 -0.1946 -3.6160
 2831SOL    MW411371   2.608   3.977   4.601  0.2317  0.0083  0.0124
 2832SOL     OW11372   0.224   1.559   3.943  0.2229  0.2377  0.2195
 2832SOL    HW211373   0.146   1.604   3.910 -0.8220 -1.3722  0.4194
 2832SOL    HW311374   0.220   1.570   4.038 -0.9498 -1.6268  0.4268
 2832SOL    MW411375   0.213   1.566   3.951 -0.0697 -0.2207  0.2735
 2833SOL     OW11376   4.080   3.002   4.234 -0.2261  0.1765  0.2479
 2833SOL    HW211377   4.013   3.045   4.181  0.2371 -0.1430 -0.6052
 2833SOL    HW311378   4.162   3.043   4.207 -0.1411  1.0865  1.8148
 2833SOL    MW411379   4.082   3.013   4.224 -0.1535  0.2546  0.3419
 2834SOL     OW11380   3.374   1.009   4.301 -0.5846 -0.1713 -0.0879
 2834SOL    HW211381   3.397   0.927   4.258  0.1057  0.5085 -1.0300
 2834SOL    HW311382   3.306   1.047   4.245 -0.1835  0.3823 -0.1977
 2834SOL    MW411383   3.368   1.003   4.288 -0.4406 -0.0086 -0.2265
 2835SOL     OW11384   3.974   0.965   4.758  0.0688 -0.6151  0.0327
 2835SOL    HW211385   3.898   0.921   4.720  1.4690 -2.4416 -0.7381
 2835SOL    HW311386   4.049   0.933   4.706  1.4338  0.6804  1.1500
 2835SOL    MW411387   3.974   0.955   4.746  0.4334 -0.6852  0.0782
 2836SOL     OW11388   1.115   1.485   4.632  0.2355 -0.3148 -0.1973
 2836SOL    HW211389   1.145   1.558   4.578  2.2408 -0.9816 -0.0407
 2836SOL    HW311390   1.019   1.488   4.627  0.2542  2.8579  0.5732
 2836SOL    MW411391   1.106   1.495   4.624  0.5026  0.0159 -0.0749
 2837SOL     OW11392   0.890   3.501   3.854  0.0218  0.0704 -0.3265
 2837SOL    HW211393   0.806   3.539   3.829 -1.8622 -2.6709  1.6096
 2837SOL    HW311394   0.890   3.414   3.815  1.9501  0.0405 -0.2904
 2837SOL    MW411395   0.879   3.495   3.846  0.0277 -0.2954 -0.0663
 2838SOL     OW11396   1.505   0.218   4.549  0.0986  0.2550  0.0774
 2838SOL    HW211397   1.538   0.228   4.460 -1.8696  1.9483 -0.5074
 2838SOL    HW311398   1.489   0.124   4.559  0.0201  0.0890 -1.4831
 2838SOL    MW411399   1.507   0.207   4.539 -0.1714  0.4565 -0.2055
 2839SOL     OW11400   0.872   4.449   4.538  0.0596  0.2221  0.1993
 2839SOL    HW211401   0.847   4.358   4.554  0.5292 -0.0489 -0.6130
 2839SOL    HW311402   0.967   4.449   4.547  0.2320  0.2763 -1.5639
 2839SOL    MW411403   0.881   4.437   4.541  0.1443  0.1936 -0.1402
 2840SOL     OW11404   3.291   0.604   4.479  0.3257  0.4065 -0.5082
 2840SOL    HW211405   3.258   0.693   4.492  2.2176  1.0315  0.1467
 2840SOL    HW311406   3.280   0.587   4.386  1.3498  1.9049 -0.9166
 2840SOL    MW411407   3.285   0.613   4.469  0.7100  0.6867 -0.4754
 2841SOL     OW11408   4.488   3.782   4.259  0.3758  0.3021  0.2136
 2841SOL    HW211409   4.485   3.690   4.231  1.9928 -0.3031  1.9098
 2841SOL    HW311410   4.402   3.817   4.235 -0.0324 -1.4870 -1.0243
 2841SOL    MW411411   4.476   3.774   4.252  0.5355 -0.0138  0.2742
 2842SOL     OW11412   2.270   1.340   4.555 -0.0189  0.0716  0.6905
 2842SOL    HW211413   2.251   1.342   4.461 -1.5534  0.3817  0.9818
 2842SOL    HW311414   2.198   1.289   4.593 -0.3722  1.4130  1.8838
 2842SOL    MW411415   2.258   1.334   4.548 -0.2677  0.2896  0.8860
 2843SOL     OW11416   3.096   2.947   4.253 -0.0213 -0.0822  0.1323
 2843SOL    HW211417   3.183   2.985   4.241 -0.3164 -0.0236 -2.0563
 2843SOL    HW311418   3.102   2.860   4.214 -1.2270  0.3287 -0.9865
 2843SOL    MW411419   3.108   2.941   4.247 -0.2193 -0.0200 -0.3042
 2844SOL     OW11420   0.012   0.094   3.769  0.2970  0.5518  0.3264
 2844SOL    HW211421   0.006   0.065   3.678  1.2260  2.0250 -0.2165
 2844SOL    HW311422   0.014   0.190   3.764  1.6826  0.6233  1.7944
 2844SOL    MW411423   0.012   0.103   3.756  0.6027  0.7556  0.4487
 2845SOL     OW11424   3.575   3.540   4.179 -0.2766 -0.3018  0.4488
 2845SOL    HW211425   3.640   3.478   4.215  0.7601  0.1354 -0.6449
 2845SOL    HW311426   3.608   3.562   4.092 -1.0871  1.1345  0.4859
 2845SOL    MW411427   3.588   3.535   4.173 -0.2465 -0.0546  0.3095
 2846SOL     OW11428   0.660   0.259   4.229  0.0786  0.3719 -0.4527
 2846SOL    HW211429   0.667   0.164   4.217 -0.2991  0.3196 -0.2721
 2846SOL    HW311430   0.683   0.274   4.321 -1.0125  0.3212 -0.1637
 2846SOL    MW411431   0.664   0.248   4.240 -0.1152  0.3583 -0.3905
 2847SOL     OW11432   3.389   1.836   4.303  0.2101  0.4964 -0.0347
 2847SOL    HW211433   3.376   1.747   4.270  0.6813  0.5629 -0.4094
 2847SOL    HW311434   3.372   1.830   4.397  1.6670 -0.3016  0.1915
 2847SOL    MW411435   3.385   1.824   4.311  0.4644  0.3998 -0.0544
 2848SOL     OW11436   1.393   1.906   4.693  0.3380 -0.1067 -0.1950
 2848SOL    HW211437   1.374   1.867   4.779  3.1147  0.4436  0.7227
 2848SOL    HW311438   1.323   1.874   4.636 -0.0393 -2.6734  1.6304
 2848SOL    MW411439   1.381   1.897   4.697  0.6546 -0.3728  0.1669
 2849SOL     OW11440   1.686   2.539   4.576  0.3162 -0.3596 -0.1159
 2849SOL    HW211441   1.628   2.612   4.598  2.3297  1.5538 -0.9526
 2849SOL    HW311442   1.670   2.522   4.484  1.0769  0.1974 -0.3577
 2849SOL    MW411443   1.676   2.547   4.567  0.6821 -0.0336 -0.2575
 2850SOL     OW11444   0.905   0.708   4.548 -0.6051  0.5480  0.0180
 2850SOL    HW211445   0.978   0.687   4.605 -0.0439  1.5134 -0.3357
 2850SOL    HW311446   0.830   0.663   4.587 -0.0219  0.3587  0.9271
 2850SOL    MW411447   0.905   0.700   4.561 -0.4541  0.6504  0.0916
 2851SOL     OW11448   3.123   0.308   3.914  0.3781  0.4190 -0.3927
 2851SOL    HW211449   3.146   0.221   3.880  1.8716  0.8641 -0.5642
 2851SOL    HW311450   3.138   0.302   4.008 -0.4581  0.2066 -0.2699
 2851SOL    MW411451   3.128   0.296   3.922  0.4649  0.4497 -0.3994
 2852SOL     OW11452   3.608   2.182   4.210 -0.3152 -0.3980 -0.3149
 2852SOL    HW211453   3.688   2.235   4.213 -0.6399 -0.0212  2.2949
 2852SOL    HW311454   3.540   2.242   4.179 -0.0767 -0.1118 -0.2774
 2852SOL    MW411455   3.609   2.197   4.206 -0.3266 -0.3107  0.0348
 2853SOL     OW11456   2.686   3.736   4.236  0.1148 -0.0682  0.5780
 2853SOL    HW211457   2.608   3.785   4.212  0.5764  0.6347  0.4733
 2853SOL    HW311458   2.682   3.728   4.332 -1.5444 -2.5596  0.3325
 2853SOL    MW411459   2.675   3.741   4.246 -0.0432 -0.3045  0.5317
 2854SOL     OW11460   4.351   2.780   4.445  0.0902 -0.1532  0.0425
 2854SOL    HW211461   4.321   2.733   4.367 -0.3775  0.7847 -0.3564
 2854SOL    HW311462   4.402   2.716   4.493  1.6687 -0.3242 -1.7969
 2854SOL    MW411463   4.354   2.766   4.441  0.2370 -0.0520 -0.2532
 2855SOL     OW11464   1.666   3.292   4.795 -0.4769 -0.6613  0.8521
 2855SOL    HW211465   1.646   3.384   4.778 -1.7180 -1.2564 -0.9963
 2855SOL    HW311466   1.641   3.279   4.886 -0.7598  0.7155  0.9873
 2855SOL    MW411467   1.660   3.302   4.805 -0.6782 -0.5581  0.6261
 2856SOL     OW11468   4.235   1.420   4.613 -0.1944 -0.5999  0.3371
 2856SOL    HW211469   4.199   1.370   4.686  0.2929 -0.2351  0.8349
 2856SOL    HW311470   4.329   1.421   4.629 -0.1618  0.1284  0.1129
 2856SOL    MW411471   4.243   1.414   4.625 -0.1259 -0.4557  0.3729
 2857SOL     OW11472   3.603   4.249   4.208 -0.0210 -0.0153 -0.0395
 2857SOL    HW211473   3.519   4.237   4.251 -0.1407  0.5854 -0.1021
 2857SOL    HW311474   3.622   4.342   4.218 -0.8861  0.5257 -2.7667
 2857SOL    MW411475   3.594   4.259   4.215 -0.1507  0.1349 -0.4072
 2858SOL     OW11476   1.290   4.227   4.176 -0.6867  0.1356 -0.1105
 2858SOL    HW211477   1.367   4.173   4.191  0.2376  1.5380  0.2061
 2858SOL    HW311478   1.297   4.255   4.085 -0.4100  0.9214  0.1537
 2858SOL    MW411479   1.301   4.223   4.166 -0.5282  0.4249 -0.0334
 2859SOL     OW11480   1.340   2.147   4.563  0.0697 -0.1683 -0.2973
 2859SOL    HW211481   1.343   2.068   4.616 -0.8353  0.4014  0.6293
 2859SOL    HW311482   1.419   2.196   4.589 -0.0694 -0.1564  0.1098
 2859SOL    MW411483   1.351   2.143   4.573 -0.0681 -0.0918 -0.1216
 2860SOL     OW11484   1.335   1.391   4.240 -0.0314 -0.1024  0.0934
 2860SOL    HW211485   1.409   1.444   4.211  0.8484 -1.1384  0.4066
 2860SOL    HW311486   1.346   1.308   4.194 -0.8052 -0.3803  0.4040
 2860SOL    MW411487   1.346   1.387   4.230 -0.0176 -0.2757  0.1760
 2861SOL     OW11488   0.134   1.829   4.302  0.1422 -0.5636 -0.0177
 2861SOL    HW211489   0.217   1.874   4.289  1.1189 -1.9781  1.1595
 2861SOL    HW311490   0.077   1.864   4.234  1.4154  1.0891 -0.2769
 2861SOL    MW411491   0.137   1.840   4.292  0.4390 -0.5323  0.1035
 2862SOL     OW11492   0.391   0.877   4.552 -0.5313 -0.3026  0.2102
 2862SOL    HW211493   0.338   0.940   4.502 -0.6392  0.1746  0.9174
 2862SOL    HW311494   0.444   0.833   4.486 -2.0019 -0.9678 -0.5410
 2862SOL    MW411495   0.391   0.880   4.537 -0.7396 -0.3273  0.2041
 2863SOL     OW11496   2.508   0.710   4.207  0.3483  0.1391  0.1344
 2863SOL    HW211497   2.479   0.792   4.247 -0.5345 -0.4027  0.6124
 2863SOL    HW311498   2.486   0.719   4.115  0.7833  0.6754  0.0813
 2863SOL    MW411499   2.501   0.722   4.200  0.2890  0.1383  0.1907
 2864SOL     OW11500   1.999   3.616   3.814 -0.1845 -0.2428 -0.3001
 2864SOL    HW211501   2.020   3.620   3.721  1.1963  1.4169  0.0558
 2864SOL    HW311502   2.069   3.564   3.853  0.1163  0.4148  0.0436
 2864SOL    MW411503   2.011   3.610   3.807  0.0374  0.0629 -0.2079
 2865SOL     OW11504   4.322   0.111   4.175 -0.2408 -0.1606  0.1825
 2865SOL    HW211505   4.394   0.174   4.167 -0.8759  0.3601 -1.6459
 2865SOL    HW311506   4.305   0.082   4.085 -2.5031 -0.0799  0.5479
 2865SOL    MW411507   4.329   0.116   4.162 -0.6237 -0.0812 -0.0105
 2866SOL     OW11508   1.116   3.862   3.841  0.4052  0.7187 -0.0311
 2866SOL    HW211509   1.206   3.893   3.827  1.2840 -1.7753 -0.1332
 2866SOL    HW311510   1.115   3.832   3.932  0.0376 -0.3698 -0.3826
 2866SOL    MW411511   1.128   3.862   3.851  0.4725  0.2460 -0.0908
 2867SOL     OW11512   2.400   4.136   4.282  0.6145 -0.7098 -0.4837
 2867SOL    HW211513   2.407   4.044   4.255  0.3388 -1.3053  1.3986
 2867SOL    HW311514   2.489   4.170   4.276  0.7451 -1.1381 -1.0422
 2867SOL    MW411515   2.412   4.128   4.277  0.5953 -0.8450 -0.3090
 2868SOL     OW11516   2.942   1.540   4.179  0.1403  0.5400 -0.0474
 2868SOL    HW211517   2.965   1.628   4.209  1.6286  0.2598 -0.3387
 2868SOL    HW311518   2.941   1.546   4.084  1.4935 -0.0541 -0.1090
 2868SOL    MW411519   2.945   1.552   4.170  0.5150  0.4244 -0.0939
 2869SOL     OW11520   1.118   0.196   4.515 -0.2066 -0.1105 -0.4572
 2869SOL    HW211521   1.175   0.272   4.524  0.7286 -0.9453  0.7528
 2869SOL    HW311522   1.152   0.132   4.577 -2.5581 -0.5719  0.4121
 2869SOL    MW411523   1.130   0.197   4.524 -0.3935 -0.2815 -0.1831
 2870SOL     OW11524   0.442   2.157   4.251  0.1008  0.0485 -0.1964
 2870SOL    HW211525   0.449   2.149   4.346  0.3421  1.2055 -0.1106
 2870SOL    HW311526   0.450   2.067   4.219  1.4341 -0.2010  0.7967
 2870SOL    MW411527   0.444   2.144   4.259  0.3085  0.1681 -0.0544
 2871SOL     OW11528   0.854   3.891   4.641 -0.4201 -0.2458  0.3158
 2871SOL    HW211529   0.827   3.857   4.727 -0.2585  0.4270  0.6328
 2871SOL    HW311530   0.810   3.976   4.634 -0.0237 -0.0711 -0.0469
 2871SOL    MW411531   0.845   3.898   4.652 -0.3465 -0.1342  0.3095
 2872SOL     OW11532   3.352   2.322   4.829  0.0662 -0.2246 -0.3021
 2872SOL    HW211533   3.435   2.357   4.795  0.3789 -0.5337  0.1286
 2872SOL    HW311534   3.340   2.240   4.781  0.3606 -0.5191  0.1300
 2872SOL    MW411535   3.362   2.316   4.818  0.1464 -0.3042 -0.1884
 2873SOL     OW11536   1.792   2.089   4.559  0.3525  0.4244 -0.3866
 2873SOL    HW211537   1.803   2.105   4.465  0.3615 -0.3780 -0.5271
 2873SOL    HW311538   1.882   2.088   4.594  0.3867  0.0746 -0.4816
 2873SOL    MW411539   1.806   2.091   4.551  0.3581  0.2723 -0.4177
 2874SOL     OW11540   1.333   3.202   3.741  0.6133 -0.1468  0.0085
 2874SOL    HW211541   1.324   3.286   3.787 -2.4501 -0.9384  0.9624
 2874SOL    HW311542   1.411   3.162   3.779  1.2390  1.6004  0.6332
 2874SOL    MW411543   1.342   3.208   3.752  0.2916 -0.0207  0.2167
 2875SOL     OW11544   0.030   1.492   4.623  0.3260  0.0286  0.0853
 2875SOL    HW211545   0.036   1.587   4.627 -1.3582  0.0949  2.4885
 2875SOL    HW311546   0.115   1.461   4.655  0.1727  0.7452  1.2171
 2875SOL    MW411547   0.042   1.500   4.628  0.0836  0.1317  0.5517
 2876SOL     OW11548   3.051   2.999   4.947  0.0385  0.6359 -0.4569
 2876SOL    HW211549   3.102   3.079   4.940 -0.0627  0.7588  0.1120
 2876SOL    HW311550   2.983   3.007   4.880  0.9233  0.3432 -1.3979
 2876SOL    MW411551   3.049   3.010   4.938  0.1416  0.6137 -0.5059
 2877SOL     OW11552   4.273   0.938   4.230 -0.1842 -0.1369  0.1242
 2877SOL    HW211553   4.226   0.863   4.266 -2.0377  0.3509 -1.1753
 2877SOL    HW311554   4.280   0.919   4.136 -0.3398  1.1428 -0.1571
 2877SOL    MW411555   4.268   0.926   4.222 -0.4497  0.0963 -0.0844
 2878SOL     OW11556   4.297   1.497   3.787 -0.3094 -0.2188  0.1281
 2878SOL    HW211557   4.375   1.552   3.793 -1.0000  0.9249 -1.0696
 2878SOL    HW311558   4.305   1.453   3.703 -2.4787  2.3521 -1.5089
 2878SOL    MW411559   4.309   1.499   3.777 -0.6866  0.2713 -0.2460
 2879SOL     OW11560   2.241   2.964   4.530  0.0559  0.4093  0.3049
 2879SOL    HW211561   2.149   2.940   4.544  0.0666 -0.3750 -0.9566
 2879SOL    HW311562   2.290   2.884   4.547  0.2787  0.1018 -1.6795
 2879SOL    MW411563   2.235   2.951   4.534  0.0865  0.2654 -0.1230
 2880SOL     OW11564   3.018   3.946   4.670 -0.2837  0.0008  0.2257
 2880SOL    HW211565   3.015   3.858   4.633  1.3673 -0.9033  2.1434
 2880SOL    HW311566   3.094   3.987   4.629  0.9537 -0.6626  1.7765
 2880SOL    MW411567   3.028   3.940   4.660  0.0973 -0.2062  0.6843
 2881SOL     OW11568   3.186   1.960   4.186  0.6124  0.2578 -0.0349
 2881SOL    HW211569   3.193   2.050   4.217  1.1460  0.2657 -0.1731
 2881SOL    HW311570   3.257   1.913   4.229 -1.1500 -0.6582  1.9414
 2881SOL    MW411571   3.196   1.966   4.196  0.4499  0.1380  0.2074
 2882SOL     OW11572   3.811   4.140   4.361 -0.1131  0.2735 -0.3161
 2882SOL    HW211573   3.758   4.176   4.289  1.2765  2.3756 -0.3059
 2882SOL    HW311574   3.763   4.165   4.440 -0.2984  0.1866 -0.3989
 2882SOL    MW411575   3.797   4.148   4.362  0.0455  0.5393 -0.3257
 2883SOL     OW11576   0.687   0.524   4.605 -0.0730  0.4870  0.3824
 2883SOL    HW211577   0.674   0.502   4.698 -1.4241  0.2626  0.1518
 2883SOL    HW311578   0.718   0.443   4.566 -0.1212  0.4002  0.5217
 2883SOL    MW411579   0.689   0.511   4.612 -0.2576  0.4459  0.3705
 2884SOL     OW11580   3.063   3.674   4.534  0.1643  0.2464  0.1753
 2884SOL    HW211581   2.997   3.606   4.521 -0.7319  1.0317  0.5383
 2884SOL    HW311582   3.097   3.692   4.446 -0.2107 -0.0647 -0.0330
 2884SOL    MW411583   3.059   3.668   4.521 -0.0033  0.3088  0.1955
 2885NA      NA11584   4.210   1.442   0.875 -0.3934 -0.3485 -0.0594
   4.49070   4.66690  10.00000
