Gromacs Runs On Most of All Computer Systems
   63
    1U      O5'    1   1.769   2.355   5.513
    1U      H5T    2   1.678   2.351   5.472
    1U      C5'    3   1.800   2.489   5.547
    1U     H5'1    4   1.731   2.521   5.611
    1U     H5'2    5   1.796   2.544   5.463
    1U      C4'    6   1.938   2.495   5.609
    1U      H4'    7   1.963   2.590   5.626
    1U      O4'    8   1.937   2.421   5.734
    1U      C1'    9   2.073   2.369   5.747
    1U      H1'   10   2.117   2.421   5.820
    1U       N1   11   2.070   2.227   5.786
    1U       C6   12   1.987   2.154   5.707
    1U       H6   13   1.937   2.199   5.633
    1U       C5   14   1.971   2.021   5.728
    1U       H5   15   1.910   1.966   5.671
    1U       C4   16   2.046   1.963   5.835
    1U       O4   17   2.035   1.832   5.860
    1U       N3   18   2.128   2.037   5.911
    1U       H3   19   2.179   1.994   5.985
    1U       C2   20   2.142   2.170   5.889
    1U       O2   21   2.217   2.238   5.959
    1U      C3'   22   2.037   2.421   5.519
    1U      H3'   23   2.000   2.345   5.466
    1U      C2'   24   2.149   2.385   5.616
    1U     H2'1   25   2.207   2.308   5.590
    1U      O2'   26   2.239   2.494   5.626
    1U     HO'2   27   2.289   2.504   5.540
    1U      O3'   28   2.086   2.510   5.420
    2G        P   29   2.060   2.478   5.264
    2G      O1P   30   2.100   2.597   5.186
    2G      O2P   31   1.922   2.424   5.251
    2G      O5'   32   2.163   2.359   5.231
    2G      C5'   33   2.300   2.387   5.201
    2G     H5'1   34   2.338   2.441   5.276
    2G     H5'2   35   2.304   2.440   5.116
    2G      C4'   36   2.375   2.257   5.185
    2G      H4'   37   2.470   2.277   5.162
    2G      O4'   38   2.371   2.182   5.309
    2G      C1'   39   2.362   2.044   5.274
    2G      H1'   40   2.446   2.000   5.307
    2G       N9   41   2.244   1.987   5.341
    2G       C8   42   2.114   2.034   5.341
    2G       H8   43   2.085   2.117   5.292
    2G       N7   44   2.032   1.960   5.411
    2G       C5   45   2.113   1.858   5.460
    2G       C6   46   2.085   1.747   5.542
    2G       O6   47   1.973   1.723   5.586
    2G       N1   48   2.196   1.667   5.569
    2G       H1   49   2.181   1.587   5.627
    2G       C2   50   2.329   1.688   5.523
    2G       N2   51   2.432   1.607   5.552
    2G      H21   52   2.418   1.526   5.609
    2G      H22   53   2.523   1.627   5.516
    2G       N3   54   2.348   1.794   5.446
    2G       C4   55   2.242   1.874   5.418
    2G      C3'   56   2.304   2.170   5.082
    2G      H3'   57   2.206   2.185   5.074
    2G      C2'   58   2.346   2.029   5.123
    2G     H2'1   59   2.287   1.954   5.092
    2G      O2'   60   2.472   2.000   5.066
    2G     HO'2   61   2.462   1.990   4.967
    2G      O3'   62   2.354   2.199   4.952
    2G      H3T   63   2.307   2.142   4.885
   4.49070   4.66690  10.00000
